# vtk DataFile Version 1.0
unstructured grid
ascii
DATASET UNSTRUCTURED_GRID
points 3920 float
-1 0 0
-1 1 0
2 0 0
2 1 0
0 0 0
1 0 0
-1 1 0.1
-1 0 0.1
0 0 0.1
1 0 0.1
2 0 0.1
2 1 0.1
-0.98 0 0
-0.96 0 0
-0.94 0 0
-0.92 0 0
-0.9 0 0
-0.88 0 0
-0.86 0 0
-0.84 0 0
-0.82 0 0
-0.8 0 0
-0.78 0 0
-0.76 0 0
-0.74 0 0
-0.72 0 0
-0.7 0 0
-0.68 0 0
-0.66 0 0
-0.64 0 0
-0.62 0 0
-0.6 0 0
-0.58 0 0
-0.56 0 0
-0.54 0 0
-0.52 0 0
-0.5 0 0
-0.48 0 0
-0.46 0 0
-0.44 0 0
-0.42 0 0
-0.4 0 0
-0.38 0 0
-0.36 0 0
-0.34 0 0
-0.32 0 0
-0.3 0 0
-0.28 0 0
-0.26 0 0
-0.24 0 0
-0.22 0 0
-0.2 0 0
-0.18 0 0
-0.16 0 0
-0.14 0 0
-0.12 0 0
-0.1 0 0
-0.08 0 0
-0.06 0 0
-0.04 0 0
-0.02 0 0
1.02 0 0
1.04 0 0
1.06 0 0
1.08 0 0
1.1 0 0
1.12 0 0
1.14 0 0
1.16 0 0
1.18 0 0
1.2 0 0
1.22 0 0
1.24 0 0
1.26 0 0
1.28 0 0
1.3 0 0
1.32 0 0
1.34 0 0
1.36 0 0
1.38 0 0
1.4 0 0
1.42 0 0
1.44 0 0
1.46 0 0
1.48 0 0
1.5 0 0
1.52 0 0
1.54 0 0
1.56 0 0
1.58 0 0
1.6 0 0
1.62 0 0
1.64 0 0
1.66 0 0
1.68 0 0
1.7 0 0
1.72 0 0
1.74 0 0
1.76 0 0
1.78 0 0
1.8 0 0
1.82 0 0
1.84 0 0
1.86 0 0
1.88 0 0
1.9 0 0
1.92 0 0
1.94 0 0
1.96 0 0
1.98 0 0
2 0.0199133 0
2 0.0414128 0
2 0.0646247 0
2 0.0896856 0
2 0.116743 0
2 0.145955 0
2 0.177494 0
2 0.211545 0
2 0.248309 0
2 0.288001 0
2 0.330854 0
2 0.377121 0
2 0.427073 0
2 0.481004 0
2 0.539231 0
2 0.602096 0
2 0.669968 0
2 0.743247 0
2 0.822362 0
2 0.907779 0
1.9 1 0
1.8 1 0
1.7 1 0
1.6 1 0
1.5 1 0
1.4 1 0
1.3 1 0
1.2 1 0
1.1 1 0
1 1 0
0.9 1 0
0.8 1 0
0.7 1 0
0.6 1 0
0.5 1 0
0.4 1 0
0.3 1 0
0.2 1 0
0.1 1 0
3.69793e-12 1 0
-0.1 1 0
-0.2 1 0
-0.3 1 0
-0.4 1 0
-0.5 1 0
-0.6 1 0
-0.7 1 0
-0.8 1 0
-0.9 1 0
-1 0.907779 0
-1 0.822362 0
-1 0.743247 0
-1 0.669968 0
-1 0.602096 0
-1 0.539231 0
-1 0.481004 0
-1 0.427073 0
-1 0.377121 0
-1 0.330854 0
-1 0.288001 0
-1 0.248309 0
-1 0.211545 0
-1 0.177494 0
-1 0.145955 0
-1 0.116743 0
-1 0.0896856 0
-1 0.0646247 0
-1 0.0414128 0
-1 0.0199133 0
0.0182781 0.00745351 0
0.0366672 0.0146286 0
0.0551632 0.0215237 0
0.0737617 0.0281372 0
0.0924585 0.0344675 0
0.111249 0.0405131 0
0.13013 0.0462728 0
0.149095 0.0517451 0
0.168142 0.0569289 0
0.187265 0.0618228 0
0.20646 0.0664258 0
0.225723 0.0707368 0
0.245049 0.0747549 0
0.264434 0.078479 0
0.283873 0.0819084 0
0.303362 0.0850422 0
0.322896 0.0878798 0
0.342472 0.0904204 0
0.362083 0.0926635 0
0.381726 0.0946086 0
0.401397 0.0962552 0
0.42109 0.0976029 0
0.440802 0.0986514 0
0.460527 0.0994006 0
0.480261 0.0998501 0
0.5 0.1 0
0.519739 0.0998501 0
0.539473 0.0994006 0
0.559198 0.0986514 0
0.57891 0.0976029 0
0.598603 0.0962552 0
0.618274 0.0946086 0
0.637917 0.0926635 0
0.657528 0.0904204 0
0.677104 0.0878798 0
0.696638 0.0850422 0
0.716127 0.0819084 0
0.735566 0.078479 0
0.754951 0.0747549 0
0.774277 0.0707368 0
0.79354 0.0664258 0
0.812735 0.0618228 0
0.831858 0.0569289 0
0.850905 0.0517451 0
0.86987 0.0462728 0
0.888751 0.0405131 0
0.907542 0.0344675 0
0.926238 0.0281372 0
0.944837 0.0215237 0
0.963333 0.0146286 0
0.981722 0.00745351 0
-1 0.907779 0.1
-1 0.822362 0.1
-1 0.743247 0.1
-1 0.669968 0.1
-1 0.602096 0.1
-1 0.539231 0.1
-1 0.481004 0.1
-1 0.427073 0.1
-1 0.377121 0.1
-1 0.330854 0.1
-1 0.288001 0.1
-1 0.248309 0.1
-1 0.211545 0.1
-1 0.177494 0.1
-1 0.145955 0.1
-1 0.116743 0.1
-1 0.0896856 0.1
-1 0.0646247 0.1
-1 0.0414128 0.1
-1 0.0199133 0.1
-0.98 0 0.1
-0.96 0 0.1
-0.94 0 0.1
-0.92 0 0.1
-0.9 0 0.1
-0.88 0 0.1
-0.86 0 0.1
-0.84 0 0.1
-0.82 0 0.1
-0.8 0 0.1
-0.78 0 0.1
-0.76 0 0.1
-0.74 0 0.1
-0.72 0 0.1
-0.7 0 0.1
-0.68 0 0.1
-0.66 0 0.1
-0.64 0 0.1
-0.62 0 0.1
-0.6 0 0.1
-0.58 0 0.1
-0.56 0 0.1
-0.54 0 0.1
-0.52 0 0.1
-0.5 0 0.1
-0.48 0 0.1
-0.46 0 0.1
-0.44 0 0.1
-0.42 0 0.1
-0.4 0 0.1
-0.38 0 0.1
-0.36 0 0.1
-0.34 0 0.1
-0.32 0 0.1
-0.3 0 0.1
-0.28 0 0.1
-0.26 0 0.1
-0.24 0 0.1
-0.22 0 0.1
-0.2 0 0.1
-0.18 0 0.1
-0.16 0 0.1
-0.14 0 0.1
-0.12 0 0.1
-0.1 0 0.1
-0.08 0 0.1
-0.06 0 0.1
-0.04 0 0.1
-0.02 0 0.1
0.0182781 0.00745351 0.1
0.0366672 0.0146286 0.1
0.0551632 0.0215237 0.1
0.0737617 0.0281372 0.1
0.0924585 0.0344675 0.1
0.111249 0.0405131 0.1
0.13013 0.0462728 0.1
0.149095 0.0517451 0.1
0.168142 0.0569289 0.1
0.187265 0.0618228 0.1
0.20646 0.0664258 0.1
0.225723 0.0707368 0.1
0.245049 0.0747549 0.1
0.264434 0.078479 0.1
0.283873 0.0819084 0.1
0.303362 0.0850422 0.1
0.322896 0.0878798 0.1
0.342472 0.0904204 0.1
0.362083 0.0926635 0.1
0.381726 0.0946086 0.1
0.401397 0.0962552 0.1
0.42109 0.0976029 0.1
0.440802 0.0986514 0.1
0.460527 0.0994006 0.1
0.480261 0.0998501 0.1
0.5 0.1 0.1
0.519739 0.0998501 0.1
0.539473 0.0994006 0.1
0.559198 0.0986514 0.1
0.57891 0.0976029 0.1
0.598603 0.0962552 0.1
0.618274 0.0946086 0.1
0.637917 0.0926635 0.1
0.657528 0.0904204 0.1
0.677104 0.0878798 0.1
0.696638 0.0850422 0.1
0.716127 0.0819084 0.1
0.735566 0.078479 0.1
0.754951 0.0747549 0.1
0.774277 0.0707368 0.1
0.79354 0.0664258 0.1
0.812735 0.0618228 0.1
0.831858 0.0569289 0.1
0.850905 0.0517451 0.1
0.86987 0.0462728 0.1
0.888751 0.0405131 0.1
0.907542 0.0344675 0.1
0.926238 0.0281372 0.1
0.944837 0.0215237 0.1
0.963333 0.0146286 0.1
0.981722 0.00745351 0.1
1.02 0 0.1
1.04 0 0.1
1.06 0 0.1
1.08 0 0.1
1.1 0 0.1
1.12 0 0.1
1.14 0 0.1
1.16 0 0.1
1.18 0 0.1
1.2 0 0.1
1.22 0 0.1
1.24 0 0.1
1.26 0 0.1
1.28 0 0.1
1.3 0 0.1
1.32 0 0.1
1.34 0 0.1
1.36 0 0.1
1.38 0 0.1
1.4 0 0.1
1.42 0 0.1
1.44 0 0.1
1.46 0 0.1
1.48 0 0.1
1.5 0 0.1
1.52 0 0.1
1.54 0 0.1
1.56 0 0.1
1.58 0 0.1
1.6 0 0.1
1.62 0 0.1
1.64 0 0.1
1.66 0 0.1
1.68 0 0.1
1.7 0 0.1
1.72 0 0.1
1.74 0 0.1
1.76 0 0.1
1.78 0 0.1
1.8 0 0.1
1.82 0 0.1
1.84 0 0.1
1.86 0 0.1
1.88 0 0.1
1.9 0 0.1
1.92 0 0.1
1.94 0 0.1
1.96 0 0.1
1.98 0 0.1
2 0.0199133 0.1
2 0.0414128 0.1
2 0.0646247 0.1
2 0.0896856 0.1
2 0.116743 0.1
2 0.145955 0.1
2 0.177494 0.1
2 0.211545 0.1
2 0.248309 0.1
2 0.288001 0.1
2 0.330854 0.1
2 0.377121 0.1
2 0.427073 0.1
2 0.481004 0.1
2 0.539231 0.1
2 0.602096 0.1
2 0.669968 0.1
2 0.743247 0.1
2 0.822362 0.1
2 0.907779 0.1
1.9 1 0.1
1.8 1 0.1
1.7 1 0.1
1.6 1 0.1
1.5 1 0.1
1.4 1 0.1
1.3 1 0.1
1.2 1 0.1
1.1 1 0.1
1 1 0.1
0.9 1 0.1
0.8 1 0.1
0.7 1 0.1
0.6 1 0.1
0.5 1 0.1
0.4 1 0.1
0.3 1 0.1
0.2 1 0.1
0.1 1 0.1
3.69793e-12 1 0.1
-0.1 1 0.1
-0.2 1 0.1
-0.3 1 0.1
-0.4 1 0.1
-0.5 1 0.1
-0.6 1 0.1
-0.7 1 0.1
-0.8 1 0.1
-0.9 1 0.1
1.08758 0.0158154 0
-0.0898513 0.0203294 0
0.0966181 0.0537636 0
0.90205 0.0548881 0
1.21055 0.0202058 0
-0.209811 0.0159577 0
1.3305 0.0176902 0
-0.33 0.0173205 0
1.45324 0.0148141 0
-0.448654 0.0159854 0
1.56842 0.0191785 0
-0.569936 0.0166364 0
0.193292 0.0805369 0
0.805051 0.0813623 0
0.709096 0.100353 0
0.288591 0.0996656 0
0.390184 0.111848 0
0.61033 0.111742 0
0.488809 0.116278 0
1.67175 0.0169692 0
-0.67 0.0169809 0
-0.955017 0.454039 0
1.95131 0.44569 0
1.74981 0.0168753 0
-0.75 0.0173205 0
-0.968032 0.266538 0
1.96871 0.266267 0
0.978232 0.0305687 0
0.0208675 0.026451 0
-0.150454 0.91842 0
1.13854 0.907437 0
1.45012 0.904365 0
-0.445923 0.908903 0
-0.853423 0.0157019 0
1.84881 0.016319 0
0.853689 0.915652 0
0.153944 0.912184 0
0.545151 0.914125 0
0.549913 0.115152 0
1.51 0.0173205 0
-0.506989 0.01651 0
1.27 0.0173205 0
1.14976 0.0173333 0
-0.268171 0.0206442 0
-0.150501 0.0153244 0
-0.391384 0.0153993 0
1.38886 0.0171544 0
-0.973694 0.161724 0
1.97441 0.162392 0
-0.945221 0.633523 0
1.94544 0.63312 0
1.91008 0.0186068 0
-0.91 0.0169616 0
-0.030664 0.0194327 0
1.03074 0.0165456 0
-0.966065 0.353575 0
1.96128 0.359765 0
1.93879 0.781254 0
-0.937057 0.781882 0
-0.980746 0.080709 0
1.9772 0.0760699 0
0.058735 0.0409372 0
0.355202 0.913001 0
0.86356 0.0661005 0
0.134223 0.0651111 0
0.941972 0.0397386 0
-0.653034 0.915003 0
1.65328 0.904589 0
0.770126 0.0881325 0
0.232946 0.0902008 0
0.330582 0.105648 0
0.670612 0.108365 0
0.428707 0.116145 0
1.80993 0.016629 0
-0.810168 0.0172178 0
-0.71 0.0173205 0
1.63047 0.0175504 0
1.70842 0.0169661 0
-0.628824 0.0181787 0
-0.949815 0.0133898 0
1.95 0.0173205 0
1.85542 0.907891 0
-0.85 0.913397 0
1.9833 0.0307692 0
-0.983315 0.0309709 0
-0.750025 0.916468 0
-0.701107 0.836904 0
-0.607741 0.836428 0
-0.656448 0.759827 0
-0.572936 0.758144 0
-0.61411 0.691195 0
-0.539534 0.689068 0
-0.578542 0.626111 0
-0.507461 0.624216 0
-0.544001 0.566638 0
-0.477696 0.564279 0
-0.511582 0.51001 0
-0.451689 0.507147 0
-0.481834 0.457732 0
-0.426137 0.454624 0
-0.453236 0.407539 0
-0.398845 0.406233 0
-0.507958 0.409496 0
-0.368427 0.460177 0
-0.344602 0.405209 0
-0.315696 0.447824 0
-0.294128 0.402169 0
-0.262844 0.444518 0
-0.241968 0.388746 0
-0.209878 0.439557 0
-0.185184 0.391135 0
-0.156687 0.437338 0
-0.133719 0.390776 0
-0.104405 0.434306 0
-0.0818745 0.388334 0
-0.0528785 0.431165 0
-0.0305984 0.385639 0
-0.00180552 0.427863 0
0.0194564 0.382608 0
0.0485809 0.42449 0
0.0701962 0.37973 0
0.0985483 0.421145 0
0.119893 0.377339 0
0.147837 0.417911 0
0.172552 0.36751 0
0.197018 0.412597 0
0.221203 0.37141 0
0.24512 0.409646 0
-0.48178 0.364657 0
-0.531053 0.364782 0
-0.0599102 0.344151 0
-0.324909 0.359566 0
0.266181 0.368462 0
0.292132 0.407649 0
0.311992 0.365779 0
0.338918 0.404821 0
0.357567 0.355909 0
0.384723 0.40053 0
0.404675 0.359681 0
0.430617 0.398558 0
0.450457 0.35827 0
0.474237 0.395182 0
0.496746 0.34898 0
0.520548 0.397931 0
0.542071 0.353121 0
0.566011 0.389914 0
0.585061 0.350856 0
0.609352 0.38696 0
0.629069 0.348168 0
0.655979 0.391217 0
0.67472 0.346182 0
0.699346 0.381414 0
0.719333 0.341965 0
0.743718 0.377547 0
0.764028 0.339036 0
0.788201 0.373582 0
0.807659 0.336101 0
0.832821 0.372249 0
0.852309 0.334017 0
0.877785 0.370339 0
0.897875 0.331141 0
0.922904 0.366281 0
0.943173 0.327335 0
0.968282 0.363358 0
0.989029 0.324222 0
1.01391 0.361511 0
1.03465 0.321428 0
1.05949 0.358447 0
1.08389 0.312052 0
1.10575 0.355104 0
1.12889 0.31562 0
1.15067 0.353235 0
1.17157 0.312819 0
1.19626 0.349369 0
1.21618 0.309863 0
1.2416 0.346914 0
1.26131 0.30715 0
1.28691 0.344312 0
1.30571 0.303752 0
1.33144 0.341222 0
1.35018 0.300911 0
1.3758 0.338308 0
1.39501 0.298931 0
1.42015 0.335235 0
1.43904 0.296349 0
1.46355 0.330194 0
1.48256 0.293347 0
1.50685 0.326967 0
1.52589 0.29055 0
1.54996 0.325305 0
1.56909 0.287929 0
[...]
CELL_DATA 3694
SCALARS rho float
LOOKUP_TABLE default
0.736245
0.672634
0.803869
0.813902
0.826998
0.805213
0.791826
0.800284
0.81078
0.802864
0.818091
0.818083
0.840374
0.789602
0.801051
0.752015
0.803329
0.80309
0.761447
0.850226
0.817818
0.823663
0.700791
0.80346
0.697424
0.839305
0.72038
0.806557
0.837074
0.798838
0.799016
0.718563
0.803608
0.824811
0.80302
0.798165
0.837446
0.823446
0.825304
0.778132
0.804761
0.81746
0.834442
0.825389
0.805154
0.813789
0.801152
0.674887
0.680803
0.72352
0.802144
0.802964
0.847013
0.802156
0.636933
0.838348
0.802849
0.819614
0.832581
0.754943
0.796413
0.816175
0.842429
0.7999
0.842991
0.831323
0.807837
0.814488
0.736441
0.858528
0.803181
0.807672
0.823687
0.803292
0.825042
0.802943
0.814153
0.799884
0.814707
0.802824
0.716773
0.818534
0.802378
0.776771
0.810583
0.799836
0.818965
0.717747
0.735757
0.825511
0.799865
0.802545
0.82066
0.816034
0.676346
0.806626
0.724138
0.818552
0.81317
0.840306
0.815529
0.763765
0.717684
0.810569
0.810023
0.816169
0.818536
0.807123
0.716904
0.815122
0.799385
0.725177
0.720173
0.823918
0.868052
0.802356
0.800437
0.812971
0.803171
0.802254
0.765845
0.822407
0.820342
0.770706
0.703422
0.759296
0.818175
0.777926
0.843794
0.70337
0.767372
0.800424
0.808022
0.778101
0.801265
0.796231
0.805569
0.802477
0.798258
0.815452
0.81457
0.712382
0.817729
0.814555
0.758393
0.676825
0.678519
0.79839
0.816909
0.813171
0.746127
0.80278
0.56188
0.77933
0.690971
0.764659
0.714705
0.784467
0.609287
0.793255
0.8374
0.646652
0.782466
0.738087
0.844502
0.559872
0.817361
0.80068
0.803199
0.674836
0.801607
0.664848
0.858059
0.551742
0.800005
0.641381
0.872343
0.833829
0.821297
0.745128
0.814887
0.721058
0.82753
0.737211
0.650363
0.803159
0.677834
0.824044
0.801772
0.851275
0.791862
0.70203
0.815875
0.798668
0.743589
0.852887
0.811466
0.849054
0.737612
0.744746
0.771484
0.794473
0.832252
0.834132
0.816874
0.815075
0.671578
0.804726
0.728713
0.803253
0.712381
0.797945
0.795792
0.801607
0.826343
0.764895
0.830976
0.7504
0.826287
0.820498
0.81687
0.853104
0.829436
0.706873
0.827674
0.681786
0.788068
0.810729
0.85144
0.830716
0.809109
0.794552
0.747048
0.818436
0.83715
0.818258
0.717022
0.800555
0.69895
0.793039
0.795652
0.810773
0.641986
0.807786
0.758896
0.797905
0.803139
0.760209
0.816234
0.865682
0.784157
0.690124
0.804473
0.801975
0.649044
0.793191
0.778425
0.802394
0.839274
0.815878
0.611058
0.816216
0.810086
0.797713
0.816453
0.802743
0.815391
0.815129
0.835543
0.757199
0.801966
0.835374
0.81075
0.803178
0.796293
0.816093
0.728228
0.590614
0.817691
0.829523
0.821159
0.804405
0.686328
0.816451
0.816207
0.817459
0.716695
0.797836
0.816192
0.556886
0.802887
0.86925
0.680483
0.757839
0.83913
0.827477
0.815924
0.705174
0.809507
0.816192
0.80393
0.801941
0.812137
0.83697
0.817567
0.76779
0.807124
0.803114
0.648405
0.821762
0.828494
0.674139
0.791864
0.819671
0.820774
0.680949
0.670629
0.822171
0.82476
0.809662
0.733061
0.708566
0.715257
0.735162
0.821072
0.777756
0.804276
0.735
0.742027
0.82322
0.811031
0.819403
0.770792
0.816231
0.814815
0.818213
0.81684
0.802827
0.807776
0.80421
0.689358
0.802777
0.812983
0.699635
0.807502
0.805226
0.820237
0.786165
0.806003
0.79206
0.816063
0.821752
0.820963
0.79856
0.686975
0.714574
0.799554
0.810957
0.627646
0.803988
0.807828
0.817352
0.744796
0.804361
0.81722
0.812495
0.818668
0.805153
0.797485
0.765527
0.804686
0.843978
0.820293
0.705164
0.803913
0.705491
0.703729
0.803192
0.616941
0.771185
0.785079
0.807972
0.814479
0.825883
0.817966
0.813323
0.820974
0.828876
0.802887
0.765661
0.809801
0.661693
0.820038
0.758248
0.729729
0.693194
0.814957
0.854244
0.820065
0.809102
0.822148
0.816361
0.78719
0.759554
0.810489
0.694622
0.791451
0.843928
0.826489
0.800927
0.864302
0.813459
0.81731
0.818424
0.83096
0.634103
0.799507
0.733935
0.798304
0.734788
0.819647
0.808752
0.788053
0.678466
0.815913
0.830041
0.812845
0.803081
0.803871
0.825065
0.803967
0.714576
0.790432
0.803144
0.815846
0.814842
0.81351
0.871823
0.828468
0.809509
0.832704
0.684307
0.824147
0.838155
0.817141
0.629915
0.816345
0.809394
0.845946
0.82214
0.803009
0.595517
0.810297
0.6992
0.80622
0.802937
0.812539
0.814612
0.825222
0.805185
0.811262
0.816934
0.727223
0.863216
0.80209
0.850585
0.817287
0.579652
0.804003
0.796885
0.81254
0.818542
0.659322
0.802892
0.809764
0.813153
0.807231
0.794088
0.816621
0.818182
0.797076
0.804312
0.822207
0.837284
0.733063
0.806406
0.810036
0.814035
0.684125
0.805461
0.816813
0.799607
0.804328
0.539351
0.833536
0.765073
0.815822
0.818613
0.831484
0.846625
0.817006
0.812579
0.719253
0.799327
0.852652
0.809364
0.711311
0.800484
0.802671
0.872408
0.845757
0.819903
0.802166
0.809747
0.756465
0.816408
0.814108
0.588515
0.802858
0.732266
0.750487
0.80336
0.812348
0.781178
0.821469
0.816292
0.838258
0.816807
0.800626
0.809761
0.738266
0.738216
0.804292
0.808941
0.821807
0.802525
0.752071
0.692025
0.814624
0.815425
0.814043
0.598119
0.81471
0.817349
0.825455
0.803205
0.809468
0.82043
0.811891
0.839977
0.80308
0.812766
0.824381
0.816618
0.818389
0.822118
0.692879
0.784485
0.795596
0.803287
0.848069
0.802143
0.803446
0.637465
0.811535
0.814487
0.811007
0.819902
0.805919
0.814162
0.728304
0.844116
0.706155
0.800757
0.818246
0.807377
0.662909
0.6766
0.815731
0.805818
0.804542
0.786413
0.801624
0.829918
0.814401
0.805139
0.802423
0.813211
0.621938
0.813361
0.803356
0.703286
0.816394
0.627253
0.78508
0.816462
0.838186
0.806835
0.813517
0.793436
0.796333
0.804354
0.801535
0.813009
0.811363
0.809926
0.803327
0.757358
0.804203
0.813567
0.812992
0.816931
0.812515
0.816899
0.81604
0.83468
0.740584
0.806933
0.816636
0.802765
0.547503
0.686857
0.811636
0.814335
0.816258
0.780544
0.808746
0.813164
0.803497
0.800088
0.803016
0.820569
0.821421
0.816106
0.785862
0.808965
0.806592
0.594307
0.774621
0.758701
0.807108
0.736746
0.68132
0.798072
0.768193
0.8284
0.816138
0.815824
0.808466
0.54517
0.815939
0.587048
0.700876
0.825417
0.869897
0.743635
0.817485
0.85328
0.697098
0.816337
0.809114
0.815105
0.807332
0.658392
0.85496
0.737225
0.732795
0.803477
0.80474
0.799907
0.833428
0.816289
0.693119
0.81614
0.800408
0.696827
0.840078
0.798631
0.624901
0.773601
0.816677
0.80882
0.815922
0.784493
0.728207
0.771432
0.837083
0.690166
0.816954
0.818091
0.827651
0.766202
0.822867
0.694874
0.804753
0.662626
0.702179
0.80116
0.823053
0.789524
0.815762
0.816417
0.816289
0.815115
0.581656
0.802652
0.816201
0.744426
0.810204
0.816441
0.812807
0.713976
0.688459
0.742408
0.625381
0.807345
0.683895
0.816684
0.802061
0.816118
0.83701
0.686567
0.805204
0.820553
0.8329
0.740181
0.782816
0.764967
0.773921
0.813192
0.588333
0.673795
0.816375
0.805509
0.813152
0.804735
0.715407
0.781111
0.727328
0.760587
0.800103
0.832575
0.812503
0.692784
0.824177
0.818504
0.811911
0.690255
0.689112
0.684171
0.872379
0.816878
0.817467
0.612323
0.712783
0.643614
0.80378
0.80066
0.673711
0.812272
0.824976
0.751058
0.800031
0.732062
0.815171
0.693967
0.815924
0.810549
0.802355
0.803186
0.826041
0.745412
0.816776
0.816163
0.780823
0.563814
0.816703
0.811893
0.759218
0.814996
0.747293
0.803321
0.827036
0.66867
0.819042
0.802805
0.809986
0.588367
0.654308
0.736618
0.806567
0.813049
0.811801
0.821883
0.815166
0.816949
0.705852
0.802085
0.814071
0.826964
0.704946
0.729178
0.813268
0.812598
0.698444
0.814414
0.775308
0.699453
0.812042
0.697492
0.805105
0.66447
0.802951
0.729605
0.67002
0.812123
0.786545
0.745542
0.63341
0.840579
0.821077
0.815797
0.771279
0.81534
0.800433
0.786917
0.800357
0.801867
0.816012
0.734322
0.809848
0.80042
0.819665
0.60179
0.801805
0.813834
0.814772
0.812529
0.813069
0.747613
0.803766
0.764712
0.75213
0.819485
0.651828
0.819412
0.818551
0.803176
0.816482
0.817708
0.723846
0.768485
0.822909
0.786256
0.803902
0.81693
0.875241
0.818825
0.799268
0.817776
0.8164
0.794239
0.819386
0.817705
0.773989
0.702631
0.841762
0.797092
0.803272
0.822807
0.781963
0.81876
0.824786
0.819552
0.81784
0.870798
0.803199
0.805231
0.819166
0.80319
0.816434
0.807135
0.737986
0.816343
0.820576
0.753815
0.712406
0.816214
0.84344
0.822514
0.661523
0.822583
0.774325
0.809273
0.802304
0.731245
0.803183
0.799152
0.815737
0.81775
0.697314
0.708162
0.802537
0.787732
0.802093
0.825349
0.721135
0.816145
0.802756
0.800691
0.823912
0.81649
0.715839
0.816653
0.764073
0.802611
0.832606
0.803558
0.774399
0.797926
0.794635
0.816146
0.624446
0.816157
0.691355
0.684977
0.803655
0.82041
0.816169
0.802776
0.816187
0.809177
0.726447
0.787877
0.85752
0.803113
0.833969
0.807583
0.551051
0.762178
0.781026
0.651665
0.73957
0.58303
0.82065
0.814344
0.814702
0.802584
0.767033
0.687046
0.765743
0.752383
0.782541
0.816126
0.844923
0.820253
0.806004
0.81928
0.824247
0.802989
0.808032
0.708383
0.803406
0.757296
0.808854
0.798371
0.753157
0.822997
0.788806
0.803766
0.790847
0.841352
0.729064
0.801214
0.799951
0.805067
0.619655
0.81652
0.816409
0.822147
0.636946
0.816299
0.816273
0.798995
0.804023
0.793524
0.776425
0.806768
0.795558
0.81696
0.753036
0.804712
0.875461
0.76382
0.749408
0.807875
0.784082
0.843123
0.800825
0.78075
0.816242
0.79841
0.792833
0.808215
0.826311
0.836333
0.799919
0.577829
0.821249
0.828909
0.772416
0.83141
0.838723
0.823621
0.826972
0.807432
0.833516
0.82755
0.783976
0.809371
0.812328
0.807231
0.82348
0.803523
0.827335
0.793097
0.803704
0.805883
0.728572
0.807241
0.565426
0.81884
0.826047
0.829301
0.806219
0.818431
0.824659
0.819574
0.821622
0.839346
0.83373
0.788914
0.800643
0.822495
0.8163
0.817868
0.800641
0.806547
0.865846
0.820864
0.847832
0.816042
0.800993
0.824647
0.799888
0.833411
0.814357
0.816143
0.805444
0.728937
0.803081
0.80468
0.81609
0.803461
0.802726
0.822152
0.80467
0.804328
0.7784
0.819828
0.718967
0.814495
0.781432
0.759785
0.803708
0.813458
0.8189
0.717584
0.820162
0.815361
0.826545
0.817946
0.790428
0.817244
0.847278
0.833283
0.815605
0.81191
0.80181
0.745311
0.681759
0.816201
0.820634
0.772016
0.815253
0.807994
0.812705
0.80567
0.798958
0.776564
0.802521
0.80038
0.8419
0.818274
0.811691
0.80637
0.605995
0.733225
0.802308
0.784343
0.804357
0.816576
0.806159
0.817036
0.780268
0.816244
0.80504
0.811606
0.803975
0.818686
0.803214
0.81684
0.811782
0.816746
0.813693
0.719399
0.815305
0.816671
0.599981
0.816017
0.796961
0.80315
0.859109
0.819097
0.811606
0.872692
0.816242
0.816339
0.817746
0.819659
0.816103
0.764837
0.830213
0.801683
0.803293
0.815339
0.816237
0.817638
0.816149
0.814247
0.823073
0.804037
0.813343
0.809262
0.81549
0.820097
0.816183
0.81264
0.820053
0.808994
0.692119
0.662264
0.802773
0.808936
0.803452
0.81216
0.819171
0.817908
0.803013
0.804249
0.800905
0.801073
0.817731
0.844742
0.819376
0.811824
0.819289
0.819009
0.846131
0.818284
0.821296
0.785948
0.816644
0.806889
0.801719
0.792259
0.811584
0.819311
0.816011
0.816092
0.835881
0.806904
0.813666
0.817437
0.821691
0.803611
0.803377
0.805615
0.811807
0.816099
0.801745
0.803847
0.817787
0.822593
0.801129
0.648418
0.804349
0.797513
0.817517
0.798677
0.802829
0.74924
0.841335
0.802836
0.800045
0.835365
0.830363
0.810392
0.826889
0.800759
0.818687
0.818164
0.819516
0.803691
0.81911
0.730803
0.823041
0.811557
0.800434
0.813277
0.821287
0.799258
0.804101
0.783307
0.815266
0.816386
0.816483
0.819307
0.806524
0.817934
0.816703
0.826574
0.822023
0.838197
0.806132
0.696533
0.818732
0.840966
0.820541
0.804814
0.800288
0.803563
0.816966
0.814281
0.816872
0.744231
0.740289
0.801052
0.803038
0.816557
0.817345
0.799593
0.656767
0.709531
0.808112
0.768929
0.816778
0.704183
0.803081
0.729199
0.803219
0.820185
0.803148
0.818143
0.81366
0.798658
0.808761
0.794316
0.829735
0.816503
0.801504
0.803645
0.816686
0.82235
0.750651
0.823241
0.803828
0.783139
0.816388
0.80395
0.810795
0.815697
0.815986
0.835806
0.793575
0.799285
0.816274
0.75979
0.806829
0.815824
0.801083
0.8168
0.841122
0.802467
0.843641
0.809302
0.791002
0.812711
0.802653
0.851902
0.788487
0.803195
0.816904
0.832192
0.808462
0.814619
0.816601
0.802954
0.80274
0.825968
0.783367
0.815181
0.816224
0.650531
0.816418
0.713782
0.817679
0.838698
0.825119
0.803989
0.815515
0.816165
0.726943
0.815759
0.801204
0.801686
0.80111
0.816562
0.864124
0.801439
0.801269
0.785732
0.841132
0.827912
0.82029
0.814035
0.747721
0.804182
0.803332
0.731823
0.799849
0.715549
0.811268
0.800976
0.678022
0.880388
0.703574
0.772222
0.801707
0.744772
0.808456
0.79925
0.803053
0.662202
0.796854
0.784368
0.799336
0.731426
0.819421
0.823113
0.884668
0.809524
0.831489
0.647109
0.800306
0.787522
0.746299
0.752831
0.770228
0.708384
0.803175
0.79966
0.803245
0.764621
0.629624
0.811558
0.615882
0.821682
0.823214
0.811543
0.736996
0.812584
0.796254
0.819738
0.783152
0.807952
0.797237
0.81076
0.717807
0.801668
0.723775
0.801512
0.79909
0.68969
0.803825
0.81613
0.816175
0.803122
0.762053
0.81588
0.731428
0.692146
0.802406
0.816185
0.874644
0.816106
0.8153
0.88071
0.865662
0.831267
0.716274
0.80213
0.81194
0.821563
0.798717
0.684611
0.723751
0.680573
0.802395
0.701794
0.769259
0.799664
0.623502
0.688611
0.836464
0.774465
0.74654
0.830995
0.760233
0.769093
0.656368
0.732783
0.785882
0.820216
0.869714
0.838175
0.816389
0.795297
0.799929
0.717481
0.816299
0.695489
0.796925
0.816193
0.78341
0.763378
0.802296
0.783564
0.802292
0.800944
0.81245
0.811057
0.86738
0.59479
0.546965
0.802518
0.807585
0.700358
0.810308
0.802886
0.83793
0.803541
0.80243
0.57222
0.566808
0.80829
0.813123
0.816238
0.729339
0.803176
0.811092
0.686959
0.812163
0.802757
0.814746
0.803186
0.801082
0.802308
0.815229
0.802961
0.816891
0.80334
0.862362
0.815618
0.802552
0.720718
0.673212
0.816166
0.590315
0.813291
0.810298
0.836309
0.814547
0.803152
0.810792
0.814209
0.81385
0.815973
0.801719
0.853896
0.856805
0.802615
0.65953
0.809116
0.82227
0.799507
0.803197
0.820537
0.736499
0.803246
0.825675
0.821837
0.816335
0.816031
0.767445
0.745131
0.801197
0.834455
0.803212
0.814869
0.804853
0.804072
0.805372
0.814874
0.809135
0.799108
0.806929
0.806359
0.824659
0.806742
0.806343
0.81821
0.807176
0.803371
0.813922
0.802972
0.802857
0.805873
0.808141
0.814063
0.774271
0.805399
0.802732
0.81617
0.799967
0.803818
0.806912
0.83231
0.805099
0.655319
0.800972
0.816063
0.804729
0.814767
0.763891
0.815863
0.752
0.803719
0.802271
0.804127
0.819096
0.851399
0.804433
0.80326
0.746625
0.830078
0.81609
0.820975
0.824821
0.81539
0.738759
0.81873
0.725236
0.801174
0.828094
0.802488
0.704417
0.82636
0.815313
0.817076
0.824649
0.816381
0.773894
0.817815
0.655218
0.714299
0.816186
0.823159
0.681855
0.819912
0.660642
0.821992
0.80718
0.817355
0.803184
0.805983
0.815479
0.83184
0.825027
0.670101
0.814033
0.842471
0.781891
0.846691
0.800332
0.709635
0.838974
0.820128
0.836042
0.693051
0.689364
0.833395
0.665159
0.831129
0.816167
0.829126
0.806358
0.827434
0.788008
0.825953
0.824583
0.710969
0.865925
0.82341
0.822419
0.823577
0.760331
0.802909
0.533715
0.803932
0.821561
0.814488
0.804825
0.826485
0.816222
0.798427
0.820807
0.803027
0.686932
0.792654
0.834308
0.815438
0.71868
0.800077
0.821565
0.581675
0.815771
0.816558
0.802729
0.81002
0.728479
0.81848
0.80305
0.803536
0.796156
0.794845
0.798028
0.794685
0.803285
0.813393
0.819359
0.815031
0.576593
0.893045
0.709593
0.798032
0.741486
0.791594
0.816181
0.816647
0.816555
0.60806
0.819688
0.817269
0.804094
0.818646
0.836793
0.839582
0.783077
0.798553
0.799612
0.728155
0.75427
0.816287
0.76493
0.815265
0.819817
0.815832
0.813599
0.801991
0.776459
0.812177
0.817024
0.729752
0.810742
0.816824
0.818919
0.808013
0.809629
0.766029
0.815698
0.808356
0.803222
0.807602
0.620194
0.806674
0.804517
0.806097
0.822022
0.845588
0.80489
0.775514
0.805462
0.771844
0.821002
0.806664
0.813767
0.816199
0.850163
0.803471
0.74499
0.819856
0.816289
0.728595
0.801344
0.817157
0.758859
0.81364
0.573424
0.806804
0.687333
0.80165
0.81164
0.813381
0.818084
0.804331
0.81643
0.818517
0.801345
0.804798
0.844525
0.81706
0.796413
0.816985
0.802453
0.802018
0.800565
0.801567
0.80789
0.815688
0.801926
0.771321
0.819223
0.813449
0.808979
0.816207
0.590588
0.803463
0.81375
0.816312
0.788497
0.749821
0.718054
0.813491
0.816015
0.826575
0.790379
0.606554
0.77242
0.645069
0.817624
0.744882
0.813202
0.830463
0.699809
0.800027
0.834385
0.751419
0.800708
0.803204
0.81645
0.802911
0.700415
0.800973
0.555394
0.802099
0.802609
0.802296
0.616867
0.802987
0.80353
0.803262
0.729762
0.738674
0.803501
0.777302
0.81661
0.723532
0.708217
0.81606
0.801457
0.75369
0.854397
0.814886
0.813261
0.671461
0.802895
0.800792
0.800746
0.802548
0.659518
0.803378
0.816309
0.656687
0.687277
0.805884
0.791181
0.816201
0.823628
0.815939
0.816158
0.817312
0.803741
0.816247
0.815864
0.813927
0.829441
0.802857
0.802026
0.810669
0.729974
0.809684
0.815719
0.862994
0.81156
0.640665
0.775905
0.802357
0.776573
0.817566
0.812705
0.830437
0.814383
0.864799
0.802399
0.81551
0.597658
0.815952
0.834256
0.80296
0.815341
0.628001
0.816208
0.802748
0.817525
0.802335
0.818342
0.816858
0.754462
0.803668
0.803155
0.835532
0.862153
0.819809
0.817017
0.724086
0.743717
0.802613
0.803165
0.812369
0.818857
0.799905
0.802992
0.820231
0.807322
0.807678
0.738925
0.8028
0.818271
0.814697
0.769178
0.76036
0.812539
0.796479
0.857307
0.720078
0.835025
0.811818
0.709717
0.799852
0.815365
0.787447
0.80095
0.799698
0.816014
0.778329
0.774432
0.814361
0.695616
0.799064
0.766664
0.815903
0.818118
0.802219
0.788459
0.739974
0.753601
0.774795
0.815661
0.819731
0.806583
0.671983
0.802875
0.79656
0.777945
0.809704
0.813901
0.799705
0.803591
0.640013
0.804425
0.805034
0.8517
0.803806
0.809393
0.833794
0.805702
0.81098
0.852583
0.617891
0.80414
0.817071
0.805516
0.805127
0.805819
0.804685
0.804791
0.804301
0.805904
0.806711
0.726306
0.805795
0.807389
0.80747
0.815959
0.808499
0.819169
0.803147
0.8036
0.815608
0.815755
0.810909
0.803363
0.81618
0.813502
0.810489
0.816914
0.710461
0.814881
0.832036
0.815932
0.854647
0.750738
0.80889
0.81613
0.801337
0.626996
0.803328
0.773183
0.82262
0.629477
0.816545
0.830086
0.815713
0.812557
0.802264
0.827202
0.819737
0.8038
0.765677
0.817924
0.758854
0.552598
0.815438
0.691936
0.6975
0.820352
0.828242
0.828096
0.817546
0.84795
0.587712
0.876701
0.805349
0.826571
0.824932
0.813864
0.684788
0.815952
0.823421
0.817286
0.801541
0.77373
0.822245
0.570637
0.813835
0.843647
0.803222
0.840126
0.822208
0.803286
0.672966
0.843484
0.821176
0.836975
0.801195
0.814567
0.803089
0.834373
0.802953
0.81452
0.831975
0.829856
0.822026
0.824999
0.830998
0.738679
0.66625
0.573346
0.828035
0.826533
0.768133
0.757696
0.807243
0.825124
0.84682
0.596585
0.823861
0.822788
0.821894
0.8204
0.804055
0.820812
0.6638
0.746062
0.82111
0.797914
0.870129
0.890198
0.776977
0.804783
0.671314
0.835638
0.733167
0.722105
0.819194
0.801776
0.783866
0.668043
0.802292
0.816112
0.789183
0.715502
0.801365
0.817232
0.79813
0.683544
0.823943
0.792971
0.816706
0.833844
0.815251
0.79661
0.817111
0.816891
0.786042
0.804198
0.714286
0.840695
0.7933
0.811945
0.782388
0.804594
0.701284
0.801028
0.813611
0.812253
0.811107
0.809602
0.808509
0.807762
0.80614
0.805031
0.806943
0.728242
0.805581
0.801595
0.796095
0.803419
0.844491
0.718288
0.80327
0.776397
0.884039
0.854454
0.798159
0.726089
0.803674
0.797702
0.721518
0.803432
0.80203
0.736396
0.803775
0.790913
0.797822
0.801408
0.738405
0.780786
0.805277
0.748984
0.764742
0.770665
0.801728
0.815637
0.808735
0.760094
0.751853
0.799654
0.814758
0.80338
0.793631
0.801293
0.92842
0.860779
0.818504
0.816054
0.722995
0.844771
0.748621
0.826284
0.817024
0.89814
0.816196
0.797665
0.592225
0.816201
0.79778
0.816212
0.798204
0.845884
0.531085
0.833397
0.801652
0.805891
0.804888
0.804082
0.855976
0.801495
0.818247
0.702966
0.664121
0.668363
0.816235
0.51217
0.798158
0.723816
0.84215
0.814916
0.562336
0.802694
0.815603
0.815294
0.720278
0.802033
0.52918
0.797728
0.81633
0.79785
0.802859
0.798091
0.816465
0.834327
0.803275
0.798801
0.816811
0.799069
0.816946
0.814416
0.79936
0.817102
0.814736
0.817287
0.799468
0.817495
0.681138
0.799664
0.817731
0.803124
0.799854
0.817969
0.700561
0.816157
0.798668
0.816196
0.798592
0.810902
0.838544
0.861622
0.801168
0.800937
0.818867
0.815602
0.800581
0.800205
0.863518
0.81284
0.818553
0.811355
0.850247
0.829188
0.817521
0.825993
0.846687
0.816111
0.802062
0.820062
0.812183
0.802494
0.81595
0.80046
0.808104
0.783314
0.80725
0.816053