# vtk DataFile Version 1.0
unstructured grid
ascii
DATASET UNSTRUCTURED_GRID
points 3920 float
-1 0 0
-1 1 0
2 0 0
2 1 0
0 0 0
1 0 0
-1 1 0.1
-1 0 0.1
0 0 0.1
1 0 0.1
2 0 0.1
2 1 0.1
-0.98 0 0
-0.96 0 0
-0.94 0 0
-0.92 0 0
-0.9 0 0
-0.88 0 0
-0.86 0 0
-0.84 0 0
-0.82 0 0
-0.8 0 0
-0.78 0 0
-0.76 0 0
-0.74 0 0
-0.72 0 0
-0.7 0 0
-0.68 0 0
-0.66 0 0
-0.64 0 0
-0.62 0 0
-0.6 0 0
-0.58 0 0
-0.56 0 0
-0.54 0 0
-0.52 0 0
-0.5 0 0
-0.48 0 0
-0.46 0 0
-0.44 0 0
-0.42 0 0
-0.4 0 0
-0.38 0 0
-0.36 0 0
-0.34 0 0
-0.32 0 0
-0.3 0 0
-0.28 0 0
-0.26 0 0
-0.24 0 0
-0.22 0 0
-0.2 0 0
-0.18 0 0
-0.16 0 0
-0.14 0 0
-0.12 0 0
-0.1 0 0
-0.08 0 0
-0.06 0 0
-0.04 0 0
-0.02 0 0
1.02 0 0
1.04 0 0
1.06 0 0
1.08 0 0
1.1 0 0
1.12 0 0
1.14 0 0
1.16 0 0
1.18 0 0
1.2 0 0
1.22 0 0
1.24 0 0
1.26 0 0
1.28 0 0
1.3 0 0
1.32 0 0
1.34 0 0
1.36 0 0
1.38 0 0
1.4 0 0
1.42 0 0
1.44 0 0
1.46 0 0
1.48 0 0
1.5 0 0
1.52 0 0
1.54 0 0
1.56 0 0
1.58 0 0
1.6 0 0
1.62 0 0
1.64 0 0
1.66 0 0
1.68 0 0
1.7 0 0
1.72 0 0
1.74 0 0
1.76 0 0
1.78 0 0
1.8 0 0
1.82 0 0
1.84 0 0
1.86 0 0
1.88 0 0
1.9 0 0
1.92 0 0
1.94 0 0
1.96 0 0
1.98 0 0
2 0.0199133 0
2 0.0414128 0
2 0.0646247 0
2 0.0896856 0
2 0.116743 0
2 0.145955 0
2 0.177494 0
2 0.211545 0
2 0.248309 0
2 0.288001 0
2 0.330854 0
2 0.377121 0
2 0.427073 0
2 0.481004 0
2 0.539231 0
2 0.602096 0
2 0.669968 0
2 0.743247 0
2 0.822362 0
2 0.907779 0
1.9 1 0
1.8 1 0
1.7 1 0
1.6 1 0
1.5 1 0
1.4 1 0
1.3 1 0
1.2 1 0
1.1 1 0
1 1 0
0.9 1 0
0.8 1 0
0.7 1 0
0.6 1 0
0.5 1 0
0.4 1 0
0.3 1 0
0.2 1 0
0.1 1 0
3.69793e-12 1 0
-0.1 1 0
-0.2 1 0
-0.3 1 0
-0.4 1 0
-0.5 1 0
-0.6 1 0
-0.7 1 0
-0.8 1 0
-0.9 1 0
-1 0.907779 0
-1 0.822362 0
-1 0.743247 0
-1 0.669968 0
-1 0.602096 0
-1 0.539231 0
-1 0.481004 0
-1 0.427073 0
-1 0.377121 0
-1 0.330854 0
-1 0.288001 0
-1 0.248309 0
-1 0.211545 0
-1 0.177494 0
-1 0.145955 0
-1 0.116743 0
-1 0.0896856 0
-1 0.0646247 0
-1 0.0414128 0
-1 0.0199133 0
0.0182781 0.00745351 0
0.0366672 0.0146286 0
0.0551632 0.0215237 0
0.0737617 0.0281372 0
0.0924585 0.0344675 0
0.111249 0.0405131 0
0.13013 0.0462728 0
0.149095 0.0517451 0
0.168142 0.0569289 0
0.187265 0.0618228 0
0.20646 0.0664258 0
0.225723 0.0707368 0
0.245049 0.0747549 0
0.264434 0.078479 0
0.283873 0.0819084 0
0.303362 0.0850422 0
0.322896 0.0878798 0
0.342472 0.0904204 0
0.362083 0.0926635 0
0.381726 0.0946086 0
0.401397 0.0962552 0
0.42109 0.0976029 0
0.440802 0.0986514 0
0.460527 0.0994006 0
0.480261 0.0998501 0
0.5 0.1 0
0.519739 0.0998501 0
0.539473 0.0994006 0
0.559198 0.0986514 0
0.57891 0.0976029 0
0.598603 0.0962552 0
0.618274 0.0946086 0
0.637917 0.0926635 0
0.657528 0.0904204 0
0.677104 0.0878798 0
0.696638 0.0850422 0
0.716127 0.0819084 0
0.735566 0.078479 0
0.754951 0.0747549 0
0.774277 0.0707368 0
0.79354 0.0664258 0
0.812735 0.0618228 0
0.831858 0.0569289 0
0.850905 0.0517451 0
0.86987 0.0462728 0
0.888751 0.0405131 0
0.907542 0.0344675 0
0.926238 0.0281372 0
0.944837 0.0215237 0
0.963333 0.0146286 0
0.981722 0.00745351 0
-1 0.907779 0.1
-1 0.822362 0.1
-1 0.743247 0.1
-1 0.669968 0.1
-1 0.602096 0.1
-1 0.539231 0.1
-1 0.481004 0.1
-1 0.427073 0.1
-1 0.377121 0.1
-1 0.330854 0.1
-1 0.288001 0.1
-1 0.248309 0.1
-1 0.211545 0.1
-1 0.177494 0.1
-1 0.145955 0.1
-1 0.116743 0.1
-1 0.0896856 0.1
-1 0.0646247 0.1
-1 0.0414128 0.1
-1 0.0199133 0.1
-0.98 0 0.1
-0.96 0 0.1
-0.94 0 0.1
-0.92 0 0.1
-0.9 0 0.1
-0.88 0 0.1
-0.86 0 0.1
-0.84 0 0.1
-0.82 0 0.1
-0.8 0 0.1
-0.78 0 0.1
-0.76 0 0.1
-0.74 0 0.1
-0.72 0 0.1
-0.7 0 0.1
-0.68 0 0.1
-0.66 0 0.1
-0.64 0 0.1
-0.62 0 0.1
-0.6 0 0.1
-0.58 0 0.1
-0.56 0 0.1
-0.54 0 0.1
-0.52 0 0.1
-0.5 0 0.1
-0.48 0 0.1
-0.46 0 0.1
-0.44 0 0.1
-0.42 0 0.1
-0.4 0 0.1
-0.38 0 0.1
-0.36 0 0.1
-0.34 0 0.1
-0.32 0 0.1
-0.3 0 0.1
-0.28 0 0.1
-0.26 0 0.1
-0.24 0 0.1
-0.22 0 0.1
-0.2 0 0.1
-0.18 0 0.1
-0.16 0 0.1
-0.14 0 0.1
-0.12 0 0.1
-0.1 0 0.1
-0.08 0 0.1
-0.06 0 0.1
-0.04 0 0.1
-0.02 0 0.1
0.0182781 0.00745351 0.1
0.0366672 0.0146286 0.1
0.0551632 0.0215237 0.1
0.0737617 0.0281372 0.1
0.0924585 0.0344675 0.1
0.111249 0.0405131 0.1
0.13013 0.0462728 0.1
0.149095 0.0517451 0.1
0.168142 0.0569289 0.1
0.187265 0.0618228 0.1
0.20646 0.0664258 0.1
0.225723 0.0707368 0.1
0.245049 0.0747549 0.1
0.264434 0.078479 0.1
0.283873 0.0819084 0.1
0.303362 0.0850422 0.1
0.322896 0.0878798 0.1
0.342472 0.0904204 0.1
0.362083 0.0926635 0.1
0.381726 0.0946086 0.1
0.401397 0.0962552 0.1
0.42109 0.0976029 0.1
0.440802 0.0986514 0.1
0.460527 0.0994006 0.1
0.480261 0.0998501 0.1
0.5 0.1 0.1
0.519739 0.0998501 0.1
0.539473 0.0994006 0.1
0.559198 0.0986514 0.1
0.57891 0.0976029 0.1
0.598603 0.0962552 0.1
0.618274 0.0946086 0.1
0.637917 0.0926635 0.1
0.657528 0.0904204 0.1
0.677104 0.0878798 0.1
0.696638 0.0850422 0.1
0.716127 0.0819084 0.1
0.735566 0.078479 0.1
0.754951 0.0747549 0.1
0.774277 0.0707368 0.1
0.79354 0.0664258 0.1
0.812735 0.0618228 0.1
0.831858 0.0569289 0.1
0.850905 0.0517451 0.1
0.86987 0.0462728 0.1
0.888751 0.0405131 0.1
0.907542 0.0344675 0.1
0.926238 0.0281372 0.1
0.944837 0.0215237 0.1
0.963333 0.0146286 0.1
0.981722 0.00745351 0.1
1.02 0 0.1
1.04 0 0.1
1.06 0 0.1
1.08 0 0.1
1.1 0 0.1
1.12 0 0.1
1.14 0 0.1
1.16 0 0.1
1.18 0 0.1
1.2 0 0.1
1.22 0 0.1
1.24 0 0.1
1.26 0 0.1
1.28 0 0.1
1.3 0 0.1
1.32 0 0.1
1.34 0 0.1
1.36 0 0.1
1.38 0 0.1
1.4 0 0.1
1.42 0 0.1
1.44 0 0.1
1.46 0 0.1
1.48 0 0.1
1.5 0 0.1
1.52 0 0.1
1.54 0 0.1
1.56 0 0.1
1.58 0 0.1
1.6 0 0.1
1.62 0 0.1
1.64 0 0.1
1.66 0 0.1
1.68 0 0.1
1.7 0 0.1
1.72 0 0.1
1.74 0 0.1
1.76 0 0.1
1.78 0 0.1
1.8 0 0.1
1.82 0 0.1
1.84 0 0.1
1.86 0 0.1
1.88 0 0.1
1.9 0 0.1
1.92 0 0.1
1.94 0 0.1
1.96 0 0.1
1.98 0 0.1
2 0.0199133 0.1
2 0.0414128 0.1
2 0.0646247 0.1
2 0.0896856 0.1
2 0.116743 0.1
2 0.145955 0.1
2 0.177494 0.1
2 0.211545 0.1
2 0.248309 0.1
2 0.288001 0.1
2 0.330854 0.1
2 0.377121 0.1
2 0.427073 0.1
2 0.481004 0.1
2 0.539231 0.1
2 0.602096 0.1
2 0.669968 0.1
2 0.743247 0.1
2 0.822362 0.1
2 0.907779 0.1
1.9 1 0.1
1.8 1 0.1
1.7 1 0.1
1.6 1 0.1
1.5 1 0.1
1.4 1 0.1
1.3 1 0.1
1.2 1 0.1
1.1 1 0.1
1 1 0.1
0.9 1 0.1
0.8 1 0.1
0.7 1 0.1
0.6 1 0.1
0.5 1 0.1
0.4 1 0.1
0.3 1 0.1
0.2 1 0.1
0.1 1 0.1
3.69793e-12 1 0.1
-0.1 1 0.1
-0.2 1 0.1
-0.3 1 0.1
-0.4 1 0.1
-0.5 1 0.1
-0.6 1 0.1
-0.7 1 0.1
-0.8 1 0.1
-0.9 1 0.1
1.08758 0.0158154 0
-0.0898513 0.0203294 0
0.0966181 0.0537636 0
0.90205 0.0548881 0
1.21055 0.0202058 0
-0.209811 0.0159577 0
1.3305 0.0176902 0
-0.33 0.0173205 0
1.45324 0.0148141 0
-0.448654 0.0159854 0
1.56842 0.0191785 0
-0.569936 0.0166364 0
0.193292 0.0805369 0
0.805051 0.0813623 0
0.709096 0.100353 0
0.288591 0.0996656 0
0.390184 0.111848 0
0.61033 0.111742 0
0.488809 0.116278 0
1.67175 0.0169692 0
-0.67 0.0169809 0
-0.955017 0.454039 0
1.95131 0.44569 0
1.74981 0.0168753 0
-0.75 0.0173205 0
-0.968032 0.266538 0
1.96871 0.266267 0
0.978232 0.0305687 0
0.0208675 0.026451 0
-0.150454 0.91842 0
1.13854 0.907437 0
1.45012 0.904365 0
-0.445923 0.908903 0
-0.853423 0.0157019 0
1.84881 0.016319 0
0.853689 0.915652 0
0.153944 0.912184 0
0.545151 0.914125 0
0.549913 0.115152 0
1.51 0.0173205 0
-0.506989 0.01651 0
1.27 0.0173205 0
1.14976 0.0173333 0
-0.268171 0.0206442 0
-0.150501 0.0153244 0
-0.391384 0.0153993 0
1.38886 0.0171544 0
-0.973694 0.161724 0
1.97441 0.162392 0
-0.945221 0.633523 0
1.94544 0.63312 0
1.91008 0.0186068 0
-0.91 0.0169616 0
-0.030664 0.0194327 0
1.03074 0.0165456 0
-0.966065 0.353575 0
1.96128 0.359765 0
1.93879 0.781254 0
-0.937057 0.781882 0
-0.980746 0.080709 0
1.9772 0.0760699 0
0.058735 0.0409372 0
0.355202 0.913001 0
0.86356 0.0661005 0
0.134223 0.0651111 0
0.941972 0.0397386 0
-0.653034 0.915003 0
1.65328 0.904589 0
0.770126 0.0881325 0
0.232946 0.0902008 0
0.330582 0.105648 0
0.670612 0.108365 0
0.428707 0.116145 0
1.80993 0.016629 0
-0.810168 0.0172178 0
-0.71 0.0173205 0
1.63047 0.0175504 0
1.70842 0.0169661 0
-0.628824 0.0181787 0
-0.949815 0.0133898 0
1.95 0.0173205 0
1.85542 0.907891 0
-0.85 0.913397 0
1.9833 0.0307692 0
-0.983315 0.0309709 0
-0.750025 0.916468 0
-0.701107 0.836904 0
-0.607741 0.836428 0
-0.656448 0.759827 0
-0.572936 0.758144 0
-0.61411 0.691195 0
-0.539534 0.689068 0
-0.578542 0.626111 0
-0.507461 0.624216 0
-0.544001 0.566638 0
-0.477696 0.564279 0
-0.511582 0.51001 0
-0.451689 0.507147 0
-0.481834 0.457732 0
-0.426137 0.454624 0
-0.453236 0.407539 0
-0.398845 0.406233 0
-0.507958 0.409496 0
-0.368427 0.460177 0
-0.344602 0.405209 0
-0.315696 0.447824 0
-0.294128 0.402169 0
-0.262844 0.444518 0
-0.241968 0.388746 0
-0.209878 0.439557 0
-0.185184 0.391135 0
-0.156687 0.437338 0
-0.133719 0.390776 0
-0.104405 0.434306 0
-0.0818745 0.388334 0
-0.0528785 0.431165 0
-0.0305984 0.385639 0
-0.00180552 0.427863 0
0.0194564 0.382608 0
0.0485809 0.42449 0
0.0701962 0.37973 0
0.0985483 0.421145 0
0.119893 0.377339 0
0.147837 0.417911 0
0.172552 0.36751 0
0.197018 0.412597 0
0.221203 0.37141 0
0.24512 0.409646 0
-0.48178 0.364657 0
-0.531053 0.364782 0
-0.0599102 0.344151 0
-0.324909 0.359566 0
0.266181 0.368462 0
0.292132 0.407649 0
0.311992 0.365779 0
0.338918 0.404821 0
0.357567 0.355909 0
0.384723 0.40053 0
0.404675 0.359681 0
0.430617 0.398558 0
0.450457 0.35827 0
0.474237 0.395182 0
0.496746 0.34898 0
0.520548 0.397931 0
0.542071 0.353121 0
0.566011 0.389914 0
0.585061 0.350856 0
0.609352 0.38696 0
0.629069 0.348168 0
0.655979 0.391217 0
0.67472 0.346182 0
0.699346 0.381414 0
0.719333 0.341965 0
0.743718 0.377547 0
0.764028 0.339036 0
0.788201 0.373582 0
0.807659 0.336101 0
0.832821 0.372249 0
0.852309 0.334017 0
0.877785 0.370339 0
0.897875 0.331141 0
0.922904 0.366281 0
0.943173 0.327335 0
0.968282 0.363358 0
0.989029 0.324222 0
1.01391 0.361511 0
1.03465 0.321428 0
1.05949 0.358447 0
1.08389 0.312052 0
1.10575 0.355104 0
1.12889 0.31562 0
1.15067 0.353235 0
1.17157 0.312819 0
1.19626 0.349369 0
1.21618 0.309863 0
1.2416 0.346914 0
1.26131 0.30715 0
1.28691 0.344312 0
1.30571 0.303752 0
1.33144 0.341222 0
1.35018 0.300911 0
1.3758 0.338308 0
1.39501 0.298931 0
1.42015 0.335235 0
1.43904 0.296349 0
1.46355 0.330194 0
1.48256 0.293347 0
1.50685 0.326967 0
1.52589 0.29055 0
1.54996 0.325305 0
1.56909 0.287929 0
[...]
CELL_DATA 3694
SCALARS rho float
LOOKUP_TABLE default
0.734414
0.669344
0.803641
0.812199
0.825955
0.804889
0.791338
0.799466
0.809246
0.802472
0.816573
0.816566
0.839927
0.789045
0.800314
0.749234
0.803133
0.802718
0.759092
0.849587
0.816613
0.822377
0.694974
0.803218
0.691532
0.838784
0.71958
0.805718
0.83642
0.798146
0.79835
0.718225
0.803278
0.824142
0.802502
0.79666
0.836737
0.822178
0.824229
0.778067
0.80444
0.81708
0.833753
0.824707
0.804877
0.812083
0.800255
0.661592
0.678209
0.718819
0.801886
0.802845
0.846342
0.801837
0.625652
0.837635
0.802315
0.818388
0.832402
0.753329
0.795993
0.814259
0.841593
0.79908
0.8421
0.830264
0.807121
0.81273
0.736519
0.85788
0.803062
0.807374
0.8224
0.803096
0.823823
0.802817
0.813927
0.799217
0.813148
0.80258
0.711843
0.817818
0.802118
0.77667
0.809126
0.799165
0.817731
0.712986
0.736331
0.824546
0.798526
0.802148
0.819902
0.814819
0.673824
0.806291
0.722241
0.817067
0.811553
0.839442
0.813847
0.761445
0.719225
0.809054
0.808564
0.814255
0.817044
0.80679
0.714634
0.813615
0.799025
0.720558
0.721434
0.822956
0.867523
0.801969
0.79908
0.811353
0.803046
0.801872
0.765438
0.822201
0.819057
0.76912
0.705053
0.757809
0.816716
0.776082
0.843117
0.698543
0.766899
0.800108
0.807705
0.777125
0.800366
0.794973
0.80524
0.802225
0.797499
0.81378
0.813032
0.709005
0.816232
0.812822
0.756941
0.664076
0.676022
0.797624
0.81527
0.812867
0.74316
0.80254
0.552228
0.7779
0.682548
0.762375
0.712682
0.783065
0.604781
0.792766
0.837263
0.643368
0.781667
0.736263
0.843637
0.550496
0.816969
0.799941
0.802334
0.672216
0.801439
0.661129
0.857401
0.531597
0.799656
0.629947
0.871923
0.832777
0.820036
0.745025
0.813386
0.722081
0.826343
0.737312
0.647168
0.802999
0.671754
0.822787
0.801516
0.850526
0.791504
0.70544
0.813969
0.797896
0.741048
0.852366
0.81116
0.848437
0.735792
0.741689
0.770451
0.793194
0.831167
0.833999
0.816644
0.813379
0.667572
0.804409
0.725616
0.803087
0.706587
0.796816
0.795424
0.801287
0.825128
0.762685
0.829864
0.74876
0.825069
0.819275
0.815223
0.852661
0.829204
0.701137
0.826491
0.688965
0.787461
0.809382
0.850693
0.829653
0.807594
0.794067
0.744142
0.816938
0.836218
0.81675
0.713709
0.799162
0.692988
0.791585
0.79528
0.809356
0.635441
0.807319
0.756797
0.797615
0.803024
0.758425
0.814426
0.865265
0.784049
0.693141
0.804195
0.801141
0.645764
0.791614
0.777456
0.80226
0.83857
0.814015
0.606533
0.814451
0.809922
0.796201
0.814733
0.802503
0.81514
0.814013
0.835377
0.755431
0.801676
0.834353
0.809969
0.803064
0.795865
0.814179
0.728336
0.585842
0.8162
0.829391
0.819815
0.80393
0.678952
0.81473
0.814454
0.816224
0.711446
0.79671
0.814285
0.535171
0.802717
0.868841
0.674998
0.755267
0.838228
0.826529
0.814018
0.708212
0.809206
0.814279
0.803622
0.801422
0.811898
0.836255
0.816837
0.766718
0.806817
0.80295
0.64521
0.820414
0.827333
0.670119
0.790386
0.818239
0.820669
0.677707
0.687053
0.820838
0.823539
0.80933
0.733719
0.705805
0.71254
0.731192
0.81972
0.775904
0.803966
0.731011
0.741972
0.821953
0.809593
0.818643
0.769206
0.814425
0.8131
0.816708
0.815329
0.802639
0.807323
0.803432
0.693149
0.802611
0.81255
0.692521
0.806672
0.804914
0.81883
0.78549
0.805715
0.791555
0.814166
0.820403
0.819586
0.797763
0.678735
0.70893
0.799213
0.81067
0.62036
0.803694
0.807008
0.817028
0.742263
0.80408
0.815747
0.810873
0.817192
0.804845
0.797086
0.76363
0.803835
0.843111
0.819588
0.707876
0.803402
0.700632
0.705128
0.802873
0.613464
0.770126
0.784479
0.807865
0.812678
0.824795
0.816506
0.812186
0.819596
0.827756
0.802744
0.763783
0.809549
0.65753
0.818654
0.756492
0.726585
0.685013
0.813241
0.853688
0.818681
0.808301
0.821854
0.814615
0.786567
0.75744
0.808955
0.692347
0.790954
0.84319
0.826389
0.800649
0.863722
0.813165
0.815959
0.816926
0.830829
0.627626
0.798092
0.729876
0.797548
0.735096
0.818532
0.808464
0.786714
0.685989
0.814073
0.829798
0.811202
0.802759
0.803628
0.823838
0.803674
0.709179
0.790093
0.803037
0.814029
0.813383
0.811989
0.871374
0.827306
0.809178
0.831634
0.681033
0.822875
0.837189
0.815572
0.626534
0.81459
0.808967
0.84511
0.820807
0.802842
0.590924
0.809883
0.694425
0.805923
0.80282
0.811786
0.812811
0.825004
0.804893
0.810991
0.815415
0.722682
0.862631
0.801792
0.849823
0.815801
0.572085
0.80373
0.796469
0.810942
0.817054
0.645016
0.802741
0.809431
0.812781
0.806919
0.793669
0.814937
0.816714
0.795572
0.803456
0.8209
0.836556
0.728911
0.806086
0.809244
0.812502
0.681564
0.805017
0.815458
0.798946
0.803879
0.517494
0.832479
0.762849
0.81393
0.817136
0.830419
0.84591
0.815532
0.810931
0.714501
0.7986
0.852093
0.807848
0.709255
0.799943
0.802551
0.871964
0.844921
0.818483
0.801901
0.809465
0.75487
0.814757
0.813617
0.583388
0.802463
0.728183
0.749937
0.802901
0.810726
0.780767
0.820954
0.814586
0.837659
0.815405
0.800311
0.808403
0.738725
0.736087
0.803995
0.80749
0.820603
0.802001
0.751501
0.687364
0.81285
0.814952
0.813792
0.593228
0.812974
0.81622
0.824217
0.80288
0.808165
0.81913
0.811644
0.83904
0.802902
0.812464
0.823257
0.814936
0.817336
0.821096
0.687186
0.783931
0.794356
0.802988
0.847263
0.801994
0.802258
0.63416
0.810414
0.812912
0.810543
0.81848
0.805602
0.812419
0.726419
0.84325
0.708079
0.800159
0.816737
0.807049
0.649043
0.684712
0.814938
0.805498
0.804039
0.784832
0.801456
0.828815
0.812938
0.804815
0.801967
0.811689
0.618607
0.811733
0.80284
0.696517
0.814992
0.614725
0.78336
0.814906
0.83747
0.805348
0.811816
0.791862
0.795042
0.803836
0.801357
0.811366
0.810911
0.808392
0.803168
0.757144
0.803956
0.811844
0.811298
0.815758
0.810868
0.815299
0.814233
0.833935
0.737084
0.806473
0.815024
0.802236
0.540537
0.680397
0.810864
0.812577
0.814554
0.780146
0.807938
0.812398
0.802987
0.79977
0.802562
0.819502
0.820325
0.814316
0.784261
0.807634
0.805102
0.535771
0.773483
0.756684
0.806081
0.734984
0.673657
0.797314
0.767158
0.827278
0.814223
0.814009
0.808189
0.538318
0.815195
0.581934
0.693914
0.82418
0.869495
0.740413
0.816001
0.852568
0.693921
0.814783
0.80883
0.814697
0.807188
0.655185
0.854251
0.737305
0.728725
0.803176
0.804454
0.799338
0.833242
0.814515
0.690007
0.815065
0.800188
0.689547
0.839142
0.797862
0.620799
0.77246
0.815064
0.807336
0.81415
0.78427
0.723721
0.769387
0.836741
0.687773
0.815325
0.816827
0.826466
0.764739
0.821554
0.690191
0.804445
0.65959
0.699926
0.800056
0.822365
0.787887
0.813869
0.814746
0.814552
0.813281
0.575344
0.802485
0.814267
0.742731
0.809909
0.814788
0.811141
0.715945
0.693734
0.74069
0.618422
0.8071
0.680491
0.815009
0.801803
0.814325
0.836733
0.686195
0.804036
0.819306
0.832138
0.736705
0.781236
0.764614
0.772549
0.811808
0.558728
0.67003
0.81464
0.805189
0.81179
0.80443
0.711623
0.779806
0.723177
0.760579
0.799378
0.831504
0.812065
0.69047
0.822905
0.817417
0.810312
0.683836
0.694458
0.680352
0.871905
0.815264
0.816085
0.607547
0.710623
0.640227
0.803273
0.800231
0.670816
0.811752
0.824125
0.748174
0.799197
0.728684
0.813516
0.691637
0.814044
0.810315
0.800988
0.803042
0.825203
0.743654
0.815114
0.814288
0.78005
0.549516
0.815917
0.810338
0.757223
0.813163
0.747581
0.802734
0.826044
0.654749
0.817582
0.802658
0.809848
0.58144
0.619671
0.734489
0.80624
0.811505
0.810224
0.82056
0.814411
0.815368
0.70369
0.801845
0.81258
0.825795
0.702722
0.724855
0.811605
0.811422
0.695189
0.814164
0.773959
0.702855
0.811739
0.695144
0.803738
0.66144
0.802852
0.730404
0.665422
0.810592
0.785934
0.743488
0.630023
0.839781
0.820933
0.814368
0.769849
0.813488
0.799959
0.785659
0.799743
0.801579
0.814627
0.730474
0.809556
0.799874
0.818233
0.59686
0.8012
0.812384
0.813353
0.811023
0.811591
0.745513
0.80255
0.763719
0.750033
0.818082
0.64447
0.818023
0.817139
0.803043
0.81504
0.816272
0.719139
0.768446
0.82162
0.784844
0.803641
0.815472
0.874883
0.81751
0.797761
0.816232
0.814677
0.79382
0.817942
0.816399
0.772854
0.696224
0.840857
0.796862
0.803134
0.822423
0.780672
0.817297
0.824648
0.818119
0.816308
0.870313
0.803062
0.80474
0.817717
0.803058
0.814804
0.806816
0.734723
0.814731
0.819185
0.753907
0.706669
0.81462
0.842874
0.822189
0.649945
0.821261
0.773313
0.807771
0.801778
0.728911
0.803094
0.798476
0.81533
0.816393
0.691627
0.703038
0.802094
0.787412
0.801367
0.824499
0.722426
0.814286
0.802304
0.799952
0.823065
0.814781
0.711631
0.815057
0.762662
0.802344
0.832406
0.803259
0.772821
0.797795
0.79456
0.814426
0.570185
0.814235
0.696041
0.675091
0.803365
0.81901
0.814295
0.80246
0.81445
0.807997
0.722973
0.787396
0.856866
0.802985
0.833197
0.807282
0.539554
0.762231
0.779229
0.645879
0.736739
0.576506
0.819771
0.812558
0.813513
0.802358
0.76657
0.683595
0.763738
0.752097
0.781779
0.814205
0.844652
0.818847
0.805699
0.819143
0.823403
0.802527
0.807319
0.703187
0.803027
0.755744
0.808535
0.797603
0.750807
0.821945
0.788207
0.803439
0.789244
0.840602
0.727168
0.800764
0.799226
0.804769
0.61631
0.814823
0.814699
0.821405
0.62885
0.814576
0.814586
0.798315
0.803746
0.793034
0.77466
0.805924
0.79408
0.815331
0.753175
0.803311
0.875095
0.762135
0.74716
0.806506
0.783833
0.842246
0.799403
0.778932
0.814942
0.798058
0.792348
0.807922
0.825093
0.835336
0.799606
0.57186
0.819921
0.827811
0.771883
0.830314
0.83787
0.822374
0.825822
0.80713
0.832533
0.826368
0.783539
0.808676
0.81073
0.805797
0.822191
0.803286
0.827176
0.792734
0.802849
0.805574
0.725525
0.806941
0.559096
0.81739
0.824827
0.828159
0.805487
0.817835
0.823404
0.81922
0.820272
0.838407
0.832682
0.787342
0.800219
0.821176
0.814765
0.816348
0.800045
0.80624
0.865321
0.819486
0.847032
0.814467
0.800469
0.824421
0.799573
0.833224
0.812827
0.8148
0.805141
0.724865
0.802789
0.804389
0.814388
0.803213
0.801653
0.821892
0.804393
0.804043
0.777611
0.819534
0.716376
0.813813
0.779645
0.758283
0.803437
0.813089
0.818799
0.713765
0.818756
0.815006
0.826353
0.816497
0.789237
0.815652
0.847005
0.832701
0.814456
0.811531
0.801431
0.742785
0.675416
0.814378
0.820259
0.770192
0.813784
0.807565
0.811159
0.805227
0.798229
0.775834
0.80229
0.799843
0.841098
0.816781
0.811157
0.806069
0.601636
0.729836
0.802018
0.782759
0.8039
0.81508
0.805711
0.815419
0.779475
0.814453
0.804595
0.81003
0.803524
0.817248
0.803121
0.815198
0.81025
0.815204
0.812201
0.716032
0.813872
0.815003
0.595341
0.814211
0.796547
0.802557
0.858484
0.817771
0.810052
0.872267
0.814631
0.814709
0.816202
0.818237
0.814659
0.763796
0.830099
0.801073
0.802998
0.813949
0.814569
0.816079
0.814413
0.812823
0.82254
0.803805
0.81189
0.808837
0.814821
0.819758
0.81443
0.811158
0.818685
0.808713
0.697435
0.657651
0.802454
0.808227
0.803157
0.810651
0.817781
0.81651
0.802721
0.803479
0.800316
0.800613
0.816281
0.844049
0.817932
0.811166
0.817884
0.817548
0.845654
0.816871
0.820745
0.785323
0.815186
0.806589
0.800888
0.791753
0.81018
0.817892
0.81426
0.814499
0.835784
0.805522
0.811968
0.816001
0.82129
0.803326
0.803001
0.805315
0.810208
0.81438
0.801362
0.802463
0.816254
0.822275
0.800542
0.573768
0.804068
0.796395
0.816893
0.798384
0.802595
0.747576
0.840427
0.802546
0.799488
0.834347
0.829241
0.809993
0.825688
0.800215
0.817223
0.816845
0.818082
0.803423
0.817661
0.726491
0.821738
0.811291
0.799818
0.812774
0.819923
0.798893
0.803792
0.781702
0.814924
0.814663
0.814774
0.817871
0.806205
0.816401
0.815079
0.82555
0.821749
0.837232
0.805689
0.694257
0.817307
0.840265
0.81915
0.804362
0.799797
0.803113
0.815655
0.813869
0.815292
0.743277
0.736799
0.800463
0.802767
0.814962
0.815926
0.79809
0.650759
0.707402
0.807796
0.768924
0.815123
0.701957
0.802952
0.727245
0.803105
0.819616
0.80304
0.816638
0.812056
0.798377
0.808334
0.792851
0.829625
0.814807
0.800925
0.803261
0.815174
0.821061
0.748474
0.822149
0.803525
0.782997
0.814678
0.803619
0.810124
0.813816
0.81425
0.834864
0.792091
0.798686
0.814552
0.758268
0.806345
0.813959
0.800798
0.815237
0.840949
0.802002
0.842852
0.808156
0.789823
0.811039
0.802537
0.851631
0.78818
0.803031
0.815265
0.831109
0.808131
0.812925
0.814962
0.802633
0.802557
0.825707
0.782117
0.813485
0.814539
0.641004
0.814746
0.711744
0.817373
0.837822
0.823917
0.803663
0.813727
0.81438
0.72473
0.813908
0.800449
0.801372
0.800584
0.814984
0.863566
0.800989
0.800682
0.785047
0.840208
0.82772
0.818924
0.812475
0.745988
0.802876
0.803259
0.729893
0.799012
0.713413
0.809692
0.800782
0.675161
0.880061
0.701469
0.771847
0.800835
0.742273
0.80812
0.798571
0.802949
0.659009
0.796515
0.783745
0.798603
0.727187
0.818
0.82181
0.884402
0.809198
0.830841
0.643702
0.799582
0.786274
0.743158
0.750371
0.768122
0.704454
0.802946
0.798933
0.80302
0.762963
0.62555
0.81117
0.611062
0.820508
0.822351
0.81124
0.736197
0.811498
0.794715
0.81845
0.782367
0.80645
0.796914
0.809206
0.715751
0.80122
0.721367
0.801066
0.798414
0.684041
0.803373
0.81427
0.814335
0.802975
0.760494
0.814108
0.732248
0.689641
0.802115
0.814331
0.874214
0.814227
0.813628
0.880414
0.86522
0.830474
0.718182
0.801751
0.811631
0.820882
0.797328
0.679083
0.721801
0.673813
0.802263
0.705012
0.767858
0.799088
0.613506
0.688178
0.835699
0.772876
0.744479
0.82995
0.758414
0.769026
0.624027
0.730441
0.784454
0.819068
0.869298
0.837396
0.814694
0.793987
0.799355
0.714757
0.814537
0.693007
0.796791
0.814307
0.783284
0.761837
0.801055
0.782148
0.802027
0.800482
0.810878
0.810816
0.866911
0.564182
0.5357
0.802196
0.806382
0.697063
0.809628
0.802641
0.837109
0.80333
0.802229
0.56514
0.5517
0.808151
0.811535
0.814446
0.724931
0.803047
0.809896
0.683108
0.810541
0.802553
0.812929
0.803083
0.799981
0.802099
0.813378
0.802833
0.816756
0.803061
0.861809
0.813737
0.802374
0.721171
0.668534
0.8145
0.583149
0.812085
0.809737
0.835435
0.813043
0.802876
0.810481
0.812422
0.812243
0.814052
0.801436
0.853475
0.856163
0.802
0.653369
0.807722
0.822136
0.799256
0.803052
0.819351
0.73272
0.80316
0.824671
0.820705
0.814839
0.81433
0.766025
0.745379
0.800472
0.833522
0.802507
0.813641
0.804189
0.803386
0.804724
0.813057
0.808554
0.798361
0.806652
0.805725
0.824301
0.806465
0.806067
0.816717
0.80656
0.803296
0.812148
0.802865
0.80272
0.805599
0.807538
0.81229
0.773144
0.805128
0.802588
0.814216
0.799449
0.803579
0.806636
0.831319
0.804836
0.647826
0.800567
0.814528
0.804471
0.814513
0.762456
0.814289
0.74986
0.803512
0.802044
0.803882
0.818654
0.850673
0.804182
0.803174
0.746912
0.829027
0.814211
0.819645
0.824668
0.814041
0.735511
0.81728
0.720606
0.80086
0.826989
0.802229
0.697822
0.825206
0.814046
0.815458
0.823444
0.814647
0.772862
0.816294
0.645768
0.708689
0.814307
0.821909
0.673156
0.818492
0.657591
0.820701
0.806459
0.815778
0.803085
0.805246
0.814172
0.831231
0.824852
0.669842
0.812286
0.841591
0.781112
0.845885
0.800108
0.704028
0.838033
0.818721
0.835043
0.686029
0.680829
0.832345
0.653997
0.830032
0.814326
0.827985
0.806079
0.826251
0.787396
0.824733
0.823327
0.705923
0.865379
0.82212
0.8211
0.82337
0.758531
0.802698
0.520972
0.802517
0.82021
0.812796
0.804532
0.825297
0.814254
0.797696
0.819428
0.802882
0.677313
0.792159
0.833877
0.813652
0.714502
0.798638
0.821328
0.573699
0.814018
0.814861
0.80242
0.809705
0.724999
0.817323
0.802927
0.803348
0.795752
0.793349
0.797695
0.794526
0.803213
0.811643
0.819092
0.813377
0.570743
0.892838
0.70437
0.797682
0.738649
0.791221
0.814231
0.814979
0.814857
0.602946
0.818365
0.816989
0.803713
0.81737
0.836227
0.839191
0.782628
0.79827
0.799304
0.723791
0.751908
0.814512
0.763445
0.814948
0.818409
0.814078
0.813276
0.80184
0.774676
0.811838
0.815408
0.727719
0.810378
0.815183
0.81745
0.807594
0.809255
0.764006
0.813844
0.807977
0.803058
0.807224
0.615
0.806286
0.804134
0.805712
0.820714
0.845253
0.804501
0.773566
0.805075
0.771289
0.819658
0.80522
0.812006
0.81424
0.849863
0.803269
0.743974
0.819572
0.814509
0.726383
0.800616
0.815552
0.758147
0.811879
0.567468
0.806363
0.684905
0.800915
0.810665
0.811792
0.816559
0.804028
0.81517
0.81709
0.800823
0.804027
0.844018
0.815471
0.796007
0.815565
0.80163
0.801197
0.80009
0.801045
0.806547
0.813876
0.801409
0.76928
0.817788
0.812481
0.80867
0.814251
0.585081
0.803143
0.813468
0.814563
0.786909
0.747538
0.719091
0.811743
0.814094
0.825405
0.788764
0.601469
0.771006
0.638287
0.816064
0.745079
0.811461
0.82978
0.693259
0.799471
0.833391
0.748569
0.800437
0.803056
0.814874
0.801847
0.698092
0.800517
0.546255
0.801571
0.802294
0.802068
0.559739
0.80282
0.803294
0.803049
0.727906
0.736796
0.803297
0.775921
0.814922
0.721463
0.705949
0.814307
0.80117
0.752001
0.853839
0.813094
0.811523
0.668362
0.802648
0.800392
0.800283
0.802348
0.655385
0.803097
0.814572
0.653322
0.684533
0.805601
0.789952
0.814393
0.82275
0.814311
0.81451
0.815765
0.803518
0.81447
0.814252
0.812954
0.82893
0.80226
0.801644
0.81012
0.725624
0.80938
0.814107
0.862512
0.810502
0.636785
0.77397
0.802041
0.775828
0.816019
0.811134
0.829612
0.813765
0.864314
0.801673
0.813876
0.592098
0.815309
0.833444
0.802816
0.813511
0.623571
0.814729
0.802615
0.815976
0.802102
0.816863
0.81526
0.754545
0.803418
0.80306
0.834701
0.861612
0.819389
0.81539
0.725246
0.740536
0.802386
0.802888
0.811722
0.81742
0.799342
0.802721
0.818879
0.805919
0.807345
0.739362
0.802595
0.816874
0.813319
0.767783
0.760339
0.8111
0.796221
0.856685
0.71804
0.834153
0.810348
0.711894
0.799495
0.813732
0.787279
0.800534
0.799532
0.814331
0.77676
0.774302
0.812648
0.696529
0.798425
0.764913
0.814185
0.816597
0.801837
0.787035
0.737715
0.751622
0.773464
0.813888
0.81831
0.805168
0.654225
0.801611
0.795235
0.777596
0.809531
0.81222
0.799348
0.802904
0.631659
0.803757
0.804383
0.850944
0.803563
0.808823
0.832872
0.805064
0.809466
0.851882
0.610915
0.803893
0.815454
0.805235
0.80485
0.805533
0.804425
0.804519
0.804044
0.805615
0.806094
0.723721
0.805503
0.806779
0.806235
0.814442
0.807914
0.817979
0.803025
0.803381
0.814014
0.814199
0.809354
0.80329
0.816013
0.812867
0.809258
0.81535
0.707353
0.813206
0.831058
0.814196
0.853935
0.749121
0.807462
0.814238
0.800502
0.595762
0.803145
0.771831
0.8213
0.626195
0.814863
0.829052
0.813925
0.811314
0.801935
0.826676
0.818726
0.803418
0.764227
0.816416
0.758181
0.545165
0.813571
0.695932
0.693896
0.820178
0.827155
0.826951
0.816008
0.847173
0.56833
0.876265
0.805052
0.825435
0.823746
0.812297
0.680508
0.814111
0.822189
0.81571
0.800705
0.773498
0.82205
0.563824
0.81257
0.842795
0.803003
0.83921
0.820935
0.803216
0.667674
0.842893
0.819863
0.836
0.800674
0.813268
0.802982
0.833345
0.802682
0.813181
0.830899
0.828735
0.821811
0.823748
0.83053
0.73895
0.65957
0.561646
0.826872
0.82533
0.766824
0.755845
0.805782
0.823885
0.846529
0.589176
0.822588
0.821483
0.820559
0.819007
0.803745
0.820575
0.655879
0.74338
0.819745
0.797072
0.869564
0.889932
0.776017
0.803354
0.668638
0.835233
0.729286
0.717157
0.818923
0.801441
0.783126
0.658504
0.80204
0.814344
0.788593
0.710155
0.799921
0.816948
0.797765
0.674166
0.823099
0.79257
0.815051
0.832831
0.814947
0.795121
0.815509
0.815262
0.78558
0.803815
0.709194
0.84034
0.792821
0.810501
0.781587
0.804206
0.694304
0.800647
0.813279
0.811917
0.810751
0.809225
0.808134
0.807377
0.805751
0.804642
0.80656
0.723776
0.805192
0.801288
0.795695
0.803157
0.844161
0.713811
0.803095
0.775808
0.883777
0.853877
0.797816
0.722296
0.803092
0.797502
0.717945
0.803167
0.801492
0.733217
0.803481
0.789347
0.79698
0.800886
0.736744
0.779068
0.803937
0.746375
0.76399
0.768719
0.801209
0.81399
0.808406
0.757861
0.750793
0.799356
0.812982
0.803202
0.792484
0.800946
0.928565
0.860298
0.817155
0.814121
0.723658
0.843985
0.746986
0.825763
0.816115
0.897985
0.814299
0.796835
0.587079
0.814334
0.79695
0.814373
0.797373
0.84525
0.518247
0.832398
0.801406
0.805403
0.804665
0.803567
0.855383
0.801106
0.816767
0.700831
0.649952
0.665815
0.814421
0.500167
0.79739
0.720871
0.841493
0.814311
0.556175
0.801623
0.81383
0.813493
0.718302
0.801499
0.522829
0.796854
0.814567
0.796973
0.802569
0.797214
0.814745
0.83358
0.803205
0.797922
0.815154
0.798188
0.81531
0.813615
0.798471
0.815486
0.813062
0.815691
0.798571
0.81592
0.678701
0.798764
0.816176
0.802974
0.798953
0.816434
0.696625
0.81433
0.797972
0.814262
0.797977
0.809407
0.837877
0.861004
0.800774
0.800039
0.817392
0.815122
0.799682
0.799306
0.863017
0.811796
0.817058
0.809859
0.849587
0.828041
0.816029
0.825263
0.84585
0.814266
0.801162
0.818647
0.811217
0.801586
0.814165
0.799731
0.807104
0.782721
0.806374
0.814424
0.81044