# vtk DataFile Version 1.0
unstructured grid
ascii
DATASET UNSTRUCTURED_GRID
points 3920 float
-1 0 0
-1 1 0
2 0 0
2 1 0
0 0 0
1 0 0
-1 1 0.1
-1 0 0.1
0 0 0.1
1 0 0.1
2 0 0.1
2 1 0.1
-0.98 0 0
-0.96 0 0
-0.94 0 0
-0.92 0 0
-0.9 0 0
-0.88 0 0
-0.86 0 0
-0.84 0 0
-0.82 0 0
-0.8 0 0
-0.78 0 0
-0.76 0 0
-0.74 0 0
-0.72 0 0
-0.7 0 0
-0.68 0 0
-0.66 0 0
-0.64 0 0
-0.62 0 0
-0.6 0 0
-0.58 0 0
-0.56 0 0
-0.54 0 0
-0.52 0 0
-0.5 0 0
-0.48 0 0
-0.46 0 0
-0.44 0 0
-0.42 0 0
-0.4 0 0
-0.38 0 0
-0.36 0 0
-0.34 0 0
-0.32 0 0
-0.3 0 0
-0.28 0 0
-0.26 0 0
-0.24 0 0
-0.22 0 0
-0.2 0 0
-0.18 0 0
-0.16 0 0
-0.14 0 0
-0.12 0 0
-0.1 0 0
-0.08 0 0
-0.06 0 0
-0.04 0 0
-0.02 0 0
1.02 0 0
1.04 0 0
1.06 0 0
1.08 0 0
1.1 0 0
1.12 0 0
1.14 0 0
1.16 0 0
1.18 0 0
1.2 0 0
1.22 0 0
1.24 0 0
1.26 0 0
1.28 0 0
1.3 0 0
1.32 0 0
1.34 0 0
1.36 0 0
1.38 0 0
1.4 0 0
1.42 0 0
1.44 0 0
1.46 0 0
1.48 0 0
1.5 0 0
1.52 0 0
1.54 0 0
1.56 0 0
1.58 0 0
1.6 0 0
1.62 0 0
1.64 0 0
1.66 0 0
1.68 0 0
1.7 0 0
1.72 0 0
1.74 0 0
1.76 0 0
1.78 0 0
1.8 0 0
1.82 0 0
1.84 0 0
1.86 0 0
1.88 0 0
1.9 0 0
1.92 0 0
1.94 0 0
1.96 0 0
1.98 0 0
2 0.0199133 0
2 0.0414128 0
2 0.0646247 0
2 0.0896856 0
2 0.116743 0
2 0.145955 0
2 0.177494 0
2 0.211545 0
2 0.248309 0
2 0.288001 0
2 0.330854 0
2 0.377121 0
2 0.427073 0
2 0.481004 0
2 0.539231 0
2 0.602096 0
2 0.669968 0
2 0.743247 0
2 0.822362 0
2 0.907779 0
1.9 1 0
1.8 1 0
1.7 1 0
1.6 1 0
1.5 1 0
1.4 1 0
1.3 1 0
1.2 1 0
1.1 1 0
1 1 0
0.9 1 0
0.8 1 0
0.7 1 0
0.6 1 0
0.5 1 0
0.4 1 0
0.3 1 0
0.2 1 0
0.1 1 0
3.69793e-12 1 0
-0.1 1 0
-0.2 1 0
-0.3 1 0
-0.4 1 0
-0.5 1 0
-0.6 1 0
-0.7 1 0
-0.8 1 0
-0.9 1 0
-1 0.907779 0
-1 0.822362 0
-1 0.743247 0
-1 0.669968 0
-1 0.602096 0
-1 0.539231 0
-1 0.481004 0
-1 0.427073 0
-1 0.377121 0
-1 0.330854 0
-1 0.288001 0
-1 0.248309 0
-1 0.211545 0
-1 0.177494 0
-1 0.145955 0
-1 0.116743 0
-1 0.0896856 0
-1 0.0646247 0
-1 0.0414128 0
-1 0.0199133 0
0.0182781 0.00745351 0
0.0366672 0.0146286 0
0.0551632 0.0215237 0
0.0737617 0.0281372 0
0.0924585 0.0344675 0
0.111249 0.0405131 0
0.13013 0.0462728 0
0.149095 0.0517451 0
0.168142 0.0569289 0
0.187265 0.0618228 0
0.20646 0.0664258 0
0.225723 0.0707368 0
0.245049 0.0747549 0
0.264434 0.078479 0
0.283873 0.0819084 0
0.303362 0.0850422 0
0.322896 0.0878798 0
0.342472 0.0904204 0
0.362083 0.0926635 0
0.381726 0.0946086 0
0.401397 0.0962552 0
0.42109 0.0976029 0
0.440802 0.0986514 0
0.460527 0.0994006 0
0.480261 0.0998501 0
0.5 0.1 0
0.519739 0.0998501 0
0.539473 0.0994006 0
0.559198 0.0986514 0
0.57891 0.0976029 0
0.598603 0.0962552 0
0.618274 0.0946086 0
0.637917 0.0926635 0
0.657528 0.0904204 0
0.677104 0.0878798 0
0.696638 0.0850422 0
0.716127 0.0819084 0
0.735566 0.078479 0
0.754951 0.0747549 0
0.774277 0.0707368 0
0.79354 0.0664258 0
0.812735 0.0618228 0
0.831858 0.0569289 0
0.850905 0.0517451 0
0.86987 0.0462728 0
0.888751 0.0405131 0
0.907542 0.0344675 0
0.926238 0.0281372 0
0.944837 0.0215237 0
0.963333 0.0146286 0
0.981722 0.00745351 0
-1 0.907779 0.1
-1 0.822362 0.1
-1 0.743247 0.1
-1 0.669968 0.1
-1 0.602096 0.1
-1 0.539231 0.1
-1 0.481004 0.1
-1 0.427073 0.1
-1 0.377121 0.1
-1 0.330854 0.1
-1 0.288001 0.1
-1 0.248309 0.1
-1 0.211545 0.1
-1 0.177494 0.1
-1 0.145955 0.1
-1 0.116743 0.1
-1 0.0896856 0.1
-1 0.0646247 0.1
-1 0.0414128 0.1
-1 0.0199133 0.1
-0.98 0 0.1
-0.96 0 0.1
-0.94 0 0.1
-0.92 0 0.1
-0.9 0 0.1
-0.88 0 0.1
-0.86 0 0.1
-0.84 0 0.1
-0.82 0 0.1
-0.8 0 0.1
-0.78 0 0.1
-0.76 0 0.1
-0.74 0 0.1
-0.72 0 0.1
-0.7 0 0.1
-0.68 0 0.1
-0.66 0 0.1
-0.64 0 0.1
-0.62 0 0.1
-0.6 0 0.1
-0.58 0 0.1
-0.56 0 0.1
-0.54 0 0.1
-0.52 0 0.1
-0.5 0 0.1
-0.48 0 0.1
-0.46 0 0.1
-0.44 0 0.1
-0.42 0 0.1
-0.4 0 0.1
-0.38 0 0.1
-0.36 0 0.1
-0.34 0 0.1
-0.32 0 0.1
-0.3 0 0.1
-0.28 0 0.1
-0.26 0 0.1
-0.24 0 0.1
-0.22 0 0.1
-0.2 0 0.1
-0.18 0 0.1
-0.16 0 0.1
-0.14 0 0.1
-0.12 0 0.1
-0.1 0 0.1
-0.08 0 0.1
-0.06 0 0.1
-0.04 0 0.1
-0.02 0 0.1
0.0182781 0.00745351 0.1
0.0366672 0.0146286 0.1
0.0551632 0.0215237 0.1
0.0737617 0.0281372 0.1
0.0924585 0.0344675 0.1
0.111249 0.0405131 0.1
0.13013 0.0462728 0.1
0.149095 0.0517451 0.1
0.168142 0.0569289 0.1
0.187265 0.0618228 0.1
0.20646 0.0664258 0.1
0.225723 0.0707368 0.1
0.245049 0.0747549 0.1
0.264434 0.078479 0.1
0.283873 0.0819084 0.1
0.303362 0.0850422 0.1
0.322896 0.0878798 0.1
0.342472 0.0904204 0.1
0.362083 0.0926635 0.1
0.381726 0.0946086 0.1
0.401397 0.0962552 0.1
0.42109 0.0976029 0.1
0.440802 0.0986514 0.1
0.460527 0.0994006 0.1
0.480261 0.0998501 0.1
0.5 0.1 0.1
0.519739 0.0998501 0.1
0.539473 0.0994006 0.1
0.559198 0.0986514 0.1
0.57891 0.0976029 0.1
0.598603 0.0962552 0.1
0.618274 0.0946086 0.1
0.637917 0.0926635 0.1
0.657528 0.0904204 0.1
0.677104 0.0878798 0.1
0.696638 0.0850422 0.1
0.716127 0.0819084 0.1
0.735566 0.078479 0.1
0.754951 0.0747549 0.1
0.774277 0.0707368 0.1
0.79354 0.0664258 0.1
0.812735 0.0618228 0.1
0.831858 0.0569289 0.1
0.850905 0.0517451 0.1
0.86987 0.0462728 0.1
0.888751 0.0405131 0.1
0.907542 0.0344675 0.1
0.926238 0.0281372 0.1
0.944837 0.0215237 0.1
0.963333 0.0146286 0.1
0.981722 0.00745351 0.1
1.02 0 0.1
1.04 0 0.1
1.06 0 0.1
1.08 0 0.1
1.1 0 0.1
1.12 0 0.1
1.14 0 0.1
1.16 0 0.1
1.18 0 0.1
1.2 0 0.1
1.22 0 0.1
1.24 0 0.1
1.26 0 0.1
1.28 0 0.1
1.3 0 0.1
1.32 0 0.1
1.34 0 0.1
1.36 0 0.1
1.38 0 0.1
1.4 0 0.1
1.42 0 0.1
1.44 0 0.1
1.46 0 0.1
1.48 0 0.1
1.5 0 0.1
1.52 0 0.1
1.54 0 0.1
1.56 0 0.1
1.58 0 0.1
1.6 0 0.1
1.62 0 0.1
1.64 0 0.1
1.66 0 0.1
1.68 0 0.1
1.7 0 0.1
1.72 0 0.1
1.74 0 0.1
1.76 0 0.1
1.78 0 0.1
1.8 0 0.1
1.82 0 0.1
1.84 0 0.1
1.86 0 0.1
1.88 0 0.1
1.9 0 0.1
1.92 0 0.1
1.94 0 0.1
1.96 0 0.1
1.98 0 0.1
2 0.0199133 0.1
2 0.0414128 0.1
2 0.0646247 0.1
2 0.0896856 0.1
2 0.116743 0.1
2 0.145955 0.1
2 0.177494 0.1
2 0.211545 0.1
2 0.248309 0.1
2 0.288001 0.1
2 0.330854 0.1
2 0.377121 0.1
2 0.427073 0.1
2 0.481004 0.1
2 0.539231 0.1
2 0.602096 0.1
2 0.669968 0.1
2 0.743247 0.1
2 0.822362 0.1
2 0.907779 0.1
1.9 1 0.1
1.8 1 0.1
1.7 1 0.1
1.6 1 0.1
1.5 1 0.1
1.4 1 0.1
1.3 1 0.1
1.2 1 0.1
1.1 1 0.1
1 1 0.1
0.9 1 0.1
0.8 1 0.1
0.7 1 0.1
0.6 1 0.1
0.5 1 0.1
0.4 1 0.1
0.3 1 0.1
0.2 1 0.1
0.1 1 0.1
3.69793e-12 1 0.1
-0.1 1 0.1
-0.2 1 0.1
-0.3 1 0.1
-0.4 1 0.1
-0.5 1 0.1
-0.6 1 0.1
-0.7 1 0.1
-0.8 1 0.1
-0.9 1 0.1
1.08758 0.0158154 0
-0.0898513 0.0203294 0
0.0966181 0.0537636 0
0.90205 0.0548881 0
1.21055 0.0202058 0
-0.209811 0.0159577 0
1.3305 0.0176902 0
-0.33 0.0173205 0
1.45324 0.0148141 0
-0.448654 0.0159854 0
1.56842 0.0191785 0
-0.569936 0.0166364 0
0.193292 0.0805369 0
0.805051 0.0813623 0
0.709096 0.100353 0
0.288591 0.0996656 0
0.390184 0.111848 0
0.61033 0.111742 0
0.488809 0.116278 0
1.67175 0.0169692 0
-0.67 0.0169809 0
-0.955017 0.454039 0
1.95131 0.44569 0
1.74981 0.0168753 0
-0.75 0.0173205 0
-0.968032 0.266538 0
1.96871 0.266267 0
0.978232 0.0305687 0
0.0208675 0.026451 0
-0.150454 0.91842 0
1.13854 0.907437 0
1.45012 0.904365 0
-0.445923 0.908903 0
-0.853423 0.0157019 0
1.84881 0.016319 0
0.853689 0.915652 0
0.153944 0.912184 0
0.545151 0.914125 0
0.549913 0.115152 0
1.51 0.0173205 0
-0.506989 0.01651 0
1.27 0.0173205 0
1.14976 0.0173333 0
-0.268171 0.0206442 0
-0.150501 0.0153244 0
-0.391384 0.0153993 0
1.38886 0.0171544 0
-0.973694 0.161724 0
1.97441 0.162392 0
-0.945221 0.633523 0
1.94544 0.63312 0
1.91008 0.0186068 0
-0.91 0.0169616 0
-0.030664 0.0194327 0
1.03074 0.0165456 0
-0.966065 0.353575 0
1.96128 0.359765 0
1.93879 0.781254 0
-0.937057 0.781882 0
-0.980746 0.080709 0
1.9772 0.0760699 0
0.058735 0.0409372 0
0.355202 0.913001 0
0.86356 0.0661005 0
0.134223 0.0651111 0
0.941972 0.0397386 0
-0.653034 0.915003 0
1.65328 0.904589 0
0.770126 0.0881325 0
0.232946 0.0902008 0
0.330582 0.105648 0
0.670612 0.108365 0
0.428707 0.116145 0
1.80993 0.016629 0
-0.810168 0.0172178 0
-0.71 0.0173205 0
1.63047 0.0175504 0
1.70842 0.0169661 0
-0.628824 0.0181787 0
-0.949815 0.0133898 0
1.95 0.0173205 0
1.85542 0.907891 0
-0.85 0.913397 0
1.9833 0.0307692 0
-0.983315 0.0309709 0
-0.750025 0.916468 0
-0.701107 0.836904 0
-0.607741 0.836428 0
-0.656448 0.759827 0
-0.572936 0.758144 0
-0.61411 0.691195 0
-0.539534 0.689068 0
-0.578542 0.626111 0
-0.507461 0.624216 0
-0.544001 0.566638 0
-0.477696 0.564279 0
-0.511582 0.51001 0
-0.451689 0.507147 0
-0.481834 0.457732 0
-0.426137 0.454624 0
-0.453236 0.407539 0
-0.398845 0.406233 0
-0.507958 0.409496 0
-0.368427 0.460177 0
-0.344602 0.405209 0
-0.315696 0.447824 0
-0.294128 0.402169 0
-0.262844 0.444518 0
-0.241968 0.388746 0
-0.209878 0.439557 0
-0.185184 0.391135 0
-0.156687 0.437338 0
-0.133719 0.390776 0
-0.104405 0.434306 0
-0.0818745 0.388334 0
-0.0528785 0.431165 0
-0.0305984 0.385639 0
-0.00180552 0.427863 0
0.0194564 0.382608 0
0.0485809 0.42449 0
0.0701962 0.37973 0
0.0985483 0.421145 0
0.119893 0.377339 0
0.147837 0.417911 0
0.172552 0.36751 0
0.197018 0.412597 0
0.221203 0.37141 0
0.24512 0.409646 0
-0.48178 0.364657 0
-0.531053 0.364782 0
-0.0599102 0.344151 0
-0.324909 0.359566 0
0.266181 0.368462 0
0.292132 0.407649 0
0.311992 0.365779 0
0.338918 0.404821 0
0.357567 0.355909 0
0.384723 0.40053 0
0.404675 0.359681 0
0.430617 0.398558 0
0.450457 0.35827 0
0.474237 0.395182 0
0.496746 0.34898 0
0.520548 0.397931 0
0.542071 0.353121 0
0.566011 0.389914 0
0.585061 0.350856 0
0.609352 0.38696 0
0.629069 0.348168 0
0.655979 0.391217 0
0.67472 0.346182 0
0.699346 0.381414 0
0.719333 0.341965 0
0.743718 0.377547 0
0.764028 0.339036 0
0.788201 0.373582 0
0.807659 0.336101 0
0.832821 0.372249 0
0.852309 0.334017 0
0.877785 0.370339 0
0.897875 0.331141 0
0.922904 0.366281 0
0.943173 0.327335 0
0.968282 0.363358 0
0.989029 0.324222 0
1.01391 0.361511 0
1.03465 0.321428 0
1.05949 0.358447 0
1.08389 0.312052 0
1.10575 0.355104 0
1.12889 0.31562 0
1.15067 0.353235 0
1.17157 0.312819 0
1.19626 0.349369 0
1.21618 0.309863 0
1.2416 0.346914 0
1.26131 0.30715 0
1.28691 0.344312 0
1.30571 0.303752 0
1.33144 0.341222 0
1.35018 0.300911 0
1.3758 0.338308 0
1.39501 0.298931 0
1.42015 0.335235 0
1.43904 0.296349 0
1.46355 0.330194 0
1.48256 0.293347 0
1.50685 0.326967 0
1.52589 0.29055 0
1.54996 0.325305 0
1.56909 0.287929 0
[...]
CELL_DATA 3694
SCALARS rho float
LOOKUP_TABLE default
0.734375
0.669274
0.803637
0.812161
0.825933
0.804881
0.791327
0.799434
0.809213
0.802464
0.81654
0.816533
0.839903
0.789033
0.800289
0.749174
0.803129
0.80271
0.759042
0.849574
0.816588
0.822349
0.694846
0.803213
0.691403
0.838754
0.71956
0.805685
0.836385
0.79812
0.798326
0.718217
0.80327
0.824114
0.802493
0.796628
0.836722
0.822151
0.824206
0.778074
0.804432
0.817076
0.833719
0.824677
0.804871
0.812046
0.800217
0.661232
0.678154
0.718714
0.801881
0.802843
0.846328
0.80183
0.625419
0.83762
0.802304
0.818362
0.832402
0.753295
0.795985
0.814217
0.841575
0.799047
0.842082
0.830241
0.807099
0.812692
0.736531
0.857866
0.803059
0.807368
0.822373
0.803092
0.823797
0.802815
0.813921
0.799195
0.813115
0.802575
0.711728
0.817788
0.802111
0.776678
0.809095
0.799143
0.817705
0.712874
0.736361
0.824526
0.798498
0.80214
0.819868
0.814793
0.673771
0.806283
0.7222
0.817035
0.811517
0.839424
0.813811
0.761395
0.719286
0.809021
0.808533
0.814213
0.817011
0.806782
0.714576
0.813582
0.799018
0.720456
0.721489
0.822936
0.867512
0.801961
0.799051
0.811318
0.803044
0.801864
0.765431
0.822198
0.819029
0.769087
0.705106
0.757777
0.816685
0.776043
0.843103
0.698439
0.766891
0.800101
0.807698
0.777104
0.800328
0.794946
0.805233
0.802219
0.797468
0.813744
0.812999
0.708933
0.816199
0.812784
0.75691
0.663735
0.67597
0.797592
0.815235
0.81286
0.743093
0.802534
0.552038
0.77787
0.682335
0.762326
0.712639
0.783035
0.604693
0.792755
0.837263
0.643297
0.781649
0.736224
0.843618
0.550312
0.816964
0.799916
0.802299
0.67216
0.801435
0.661051
0.857388
0.531257
0.799648
0.629705
0.871885
0.832755
0.820009
0.745031
0.813353
0.722112
0.826317
0.737321
0.6471
0.802995
0.671367
0.82276
0.801511
0.85051
0.791496
0.705553
0.813927
0.797865
0.740991
0.852334
0.811153
0.848425
0.735753
0.741621
0.770429
0.793167
0.831144
0.833999
0.816638
0.813342
0.667488
0.804401
0.72555
0.803084
0.706454
0.796792
0.795417
0.80128
0.825102
0.762637
0.82984
0.748725
0.825043
0.819249
0.815187
0.852637
0.829203
0.701009
0.826466
0.689091
0.787448
0.809353
0.850677
0.82963
0.807561
0.794048
0.744077
0.816906
0.836198
0.816717
0.713639
0.799132
0.692829
0.791554
0.795272
0.809325
0.635305
0.807312
0.756753
0.797609
0.803021
0.758387
0.814386
0.865231
0.784053
0.693227
0.804189
0.801109
0.645694
0.79158
0.777435
0.802258
0.838556
0.813974
0.606445
0.814412
0.809924
0.796169
0.814695
0.802497
0.815134
0.813989
0.835377
0.755394
0.801669
0.834332
0.809939
0.803061
0.795856
0.814137
0.728346
0.585747
0.816168
0.829391
0.819787
0.803908
0.678788
0.814693
0.814415
0.816197
0.711325
0.796687
0.814243
0.534814
0.802713
0.868833
0.674651
0.755211
0.838209
0.826509
0.813976
0.708307
0.809199
0.814237
0.803614
0.801411
0.811892
0.83624
0.816807
0.766695
0.806811
0.802946
0.645142
0.820384
0.827308
0.670035
0.790355
0.818208
0.820671
0.677638
0.687297
0.820809
0.823513
0.809323
0.733754
0.705747
0.712482
0.731103
0.819691
0.775865
0.803959
0.730921
0.741963
0.821925
0.809562
0.818608
0.769173
0.814385
0.813062
0.816676
0.815296
0.802635
0.807316
0.803406
0.693258
0.802607
0.812545
0.692354
0.806639
0.804907
0.818799
0.785475
0.805708
0.791544
0.814124
0.820374
0.819557
0.79773
0.678547
0.708801
0.799205
0.810664
0.62021
0.803687
0.806976
0.817024
0.742206
0.804074
0.815715
0.810838
0.81716
0.804838
0.797077
0.76359
0.803801
0.843093
0.819559
0.70797
0.803393
0.700527
0.705169
0.802865
0.613389
0.770103
0.784466
0.807867
0.812639
0.824772
0.816474
0.812162
0.819567
0.827732
0.802741
0.763743
0.809543
0.657443
0.818624
0.756454
0.726518
0.684808
0.813203
0.853677
0.818652
0.808269
0.82185
0.814577
0.786554
0.757395
0.808922
0.692299
0.790944
0.843174
0.826388
0.800643
0.86371
0.813158
0.81593
0.816894
0.830827
0.627491
0.798062
0.729785
0.797517
0.735111
0.818509
0.808457
0.786685
0.6861
0.814033
0.829797
0.811166
0.802751
0.803623
0.823812
0.803667
0.709054
0.790087
0.803034
0.813989
0.813351
0.811956
0.871365
0.827281
0.80917
0.831611
0.680964
0.822848
0.837169
0.815538
0.626459
0.814552
0.808961
0.845092
0.820778
0.802838
0.590832
0.809877
0.694322
0.805916
0.802817
0.811757
0.812771
0.825001
0.804887
0.810985
0.815382
0.72258
0.862618
0.801785
0.849807
0.815769
0.571935
0.803724
0.79646
0.810907
0.817022
0.644671
0.802738
0.809424
0.812776
0.806912
0.79366
0.8149
0.816682
0.79554
0.803422
0.820872
0.836541
0.728819
0.806079
0.809213
0.812469
0.68151
0.805009
0.815429
0.798925
0.803871
0.517126
0.832456
0.762801
0.813888
0.817104
0.830396
0.845895
0.8155
0.810895
0.71439
0.798573
0.852081
0.807815
0.709211
0.79993
0.802549
0.871955
0.844904
0.818452
0.801894
0.809458
0.754836
0.814721
0.813608
0.583284
0.802455
0.728093
0.749928
0.802893
0.810691
0.780759
0.82093
0.814549
0.83763
0.815375
0.800304
0.808374
0.738746
0.736042
0.803988
0.807459
0.820577
0.80199
0.751492
0.687264
0.812811
0.814944
0.813785
0.593128
0.812937
0.816196
0.824191
0.802872
0.808138
0.819102
0.811638
0.83902
0.802898
0.812457
0.823233
0.814899
0.817313
0.821075
0.687063
0.783919
0.79433
0.802981
0.847246
0.801991
0.802233
0.634089
0.81039
0.812878
0.810536
0.818449
0.805594
0.81238
0.72638
0.843232
0.708149
0.800142
0.816705
0.807042
0.648708
0.684883
0.814901
0.805491
0.80403
0.784798
0.801452
0.828791
0.812906
0.804807
0.801959
0.811656
0.61853
0.811698
0.80283
0.696358
0.814962
0.614484
0.783323
0.814872
0.837455
0.805316
0.811779
0.791828
0.795015
0.803826
0.801353
0.81133
0.810905
0.808359
0.803165
0.757132
0.803951
0.811806
0.811261
0.815733
0.810832
0.815264
0.814193
0.833919
0.737005
0.806465
0.814989
0.802226
0.540394
0.680256
0.810835
0.812538
0.814517
0.780139
0.807907
0.81237
0.802978
0.799763
0.802554
0.819479
0.820301
0.814277
0.784227
0.807605
0.80507
0.534798
0.773458
0.756639
0.806059
0.734947
0.673487
0.797282
0.767136
0.827254
0.814181
0.813969
0.808183
0.538178
0.815164
0.58183
0.693754
0.824153
0.869487
0.740343
0.815969
0.852553
0.693854
0.814749
0.808823
0.814692
0.807192
0.655117
0.854237
0.737313
0.728635
0.80317
0.804447
0.799322
0.833242
0.814477
0.689941
0.815042
0.800184
0.68938
0.839122
0.79783
0.620716
0.772435
0.815029
0.807304
0.814111
0.784266
0.72362
0.769344
0.83673
0.687722
0.81529
0.8168
0.826441
0.764708
0.821525
0.69009
0.804438
0.659525
0.699879
0.800033
0.822337
0.787852
0.813827
0.81471
0.814514
0.81324
0.575209
0.802481
0.814225
0.742695
0.809902
0.814752
0.811105
0.71601
0.693854
0.740653
0.618278
0.807099
0.68042
0.814972
0.801797
0.814286
0.836722
0.686102
0.804012
0.81928
0.832122
0.736629
0.781203
0.764602
0.77252
0.811778
0.558199
0.66982
0.814602
0.805182
0.811761
0.804423
0.711542
0.779778
0.723082
0.760592
0.799352
0.831482
0.81206
0.690421
0.822878
0.817394
0.810277
0.683695
0.694619
0.680272
0.871895
0.815229
0.816055
0.607451
0.710577
0.640155
0.803264
0.800222
0.670754
0.811743
0.824108
0.748112
0.799163
0.728606
0.81348
0.691588
0.814003
0.810309
0.800959
0.803039
0.825186
0.743616
0.815077
0.814247
0.780033
0.549249
0.815881
0.810305
0.757179
0.813122
0.747603
0.802721
0.826023
0.654403
0.817551
0.802655
0.809848
0.581294
0.618669
0.734443
0.806232
0.811471
0.81019
0.820532
0.814379
0.815334
0.703645
0.801839
0.812548
0.82577
0.702675
0.724759
0.811569
0.811397
0.69512
0.81416
0.773931
0.702941
0.811732
0.695095
0.803709
0.661375
0.802849
0.730435
0.665326
0.810559
0.785921
0.743445
0.629949
0.839765
0.820934
0.814337
0.769819
0.813448
0.799948
0.785632
0.799725
0.801573
0.814597
0.730389
0.80955
0.79986
0.818202
0.596759
0.801184
0.812353
0.813322
0.810991
0.811559
0.745467
0.802524
0.763698
0.749987
0.818051
0.644315
0.817993
0.817109
0.80304
0.815009
0.816242
0.719031
0.768455
0.821592
0.784814
0.803636
0.815441
0.874876
0.817482
0.797729
0.816199
0.81464
0.793811
0.817911
0.816371
0.772829
0.69608
0.840838
0.796857
0.803131
0.822418
0.780645
0.817265
0.824646
0.818088
0.816274
0.870303
0.803059
0.804732
0.817686
0.803055
0.814768
0.806809
0.734649
0.814696
0.819155
0.753925
0.706539
0.814585
0.842844
0.822186
0.649682
0.821233
0.773291
0.807739
0.801767
0.728862
0.803093
0.798453
0.815325
0.816364
0.691472
0.702926
0.802086
0.787406
0.801344
0.824482
0.722472
0.814245
0.802296
0.799927
0.823048
0.814744
0.71154
0.815022
0.762632
0.802339
0.832403
0.803252
0.772787
0.797797
0.794564
0.814388
0.568945
0.814193
0.69614
0.674848
0.803359
0.818979
0.814254
0.802453
0.814412
0.807972
0.722899
0.78738
0.856852
0.802982
0.833181
0.807276
0.539336
0.762244
0.77919
0.645758
0.736678
0.576367
0.819753
0.812519
0.813487
0.802352
0.766563
0.683522
0.763696
0.752088
0.781763
0.814162
0.844641
0.818817
0.805693
0.819142
0.823386
0.802519
0.807297
0.703059
0.803019
0.755711
0.808528
0.797571
0.750757
0.821923
0.788194
0.803431
0.789209
0.840586
0.727124
0.800755
0.799201
0.804762
0.616235
0.814786
0.814662
0.821371
0.628682
0.814538
0.814549
0.798291
0.80374
0.793023
0.774623
0.805891
0.794049
0.815295
0.753191
0.803281
0.875088
0.762098
0.747112
0.806477
0.783829
0.842227
0.799372
0.778893
0.814914
0.798051
0.792338
0.807916
0.825067
0.835315
0.799599
0.571732
0.819892
0.827788
0.771873
0.830291
0.837852
0.822348
0.825797
0.807123
0.832513
0.826342
0.78353
0.808656
0.810695
0.805766
0.822163
0.803281
0.827174
0.792727
0.802814
0.805568
0.72546
0.806934
0.55897
0.817359
0.824801
0.828135
0.805464
0.817819
0.823377
0.819217
0.820243
0.838387
0.83266
0.787309
0.800209
0.821148
0.814732
0.816315
0.800029
0.806234
0.86531
0.819456
0.847016
0.814433
0.800458
0.824417
0.799566
0.833221
0.812794
0.814771
0.805134
0.724772
0.802782
0.804383
0.814351
0.803208
0.80163
0.821888
0.804392
0.804037
0.777595
0.81953
0.716312
0.813792
0.779607
0.758251
0.803431
0.813083
0.818799
0.713683
0.818725
0.815001
0.82635
0.816465
0.789212
0.815618
0.846993
0.832675
0.814432
0.811526
0.801423
0.742731
0.675279
0.814338
0.820246
0.770153
0.813752
0.807558
0.811126
0.80522
0.798201
0.775819
0.802285
0.79983
0.841081
0.816749
0.811148
0.806061
0.601556
0.729758
0.802012
0.782726
0.803893
0.815048
0.805704
0.815384
0.779458
0.814414
0.804588
0.809996
0.803516
0.817217
0.803119
0.815163
0.810217
0.81517
0.812168
0.71596
0.813842
0.814966
0.595246
0.814171
0.796538
0.802544
0.858471
0.817743
0.810018
0.872259
0.814596
0.814674
0.816168
0.818206
0.814628
0.763774
0.830097
0.801057
0.802991
0.813919
0.814533
0.816045
0.814375
0.812792
0.822527
0.803801
0.811859
0.80883
0.8148
0.819754
0.814392
0.811126
0.818656
0.808707
0.6976
0.657555
0.802446
0.808205
0.80315
0.810619
0.817751
0.81648
0.802714
0.803452
0.800301
0.800604
0.81625
0.844035
0.8179
0.811147
0.817854
0.817517
0.845632
0.81684
0.82073
0.785309
0.815154
0.806583
0.800855
0.791742
0.810149
0.817861
0.814221
0.814464
0.835785
0.805493
0.811931
0.81597
0.821286
0.803319
0.802993
0.805308
0.810173
0.814342
0.801354
0.802433
0.816221
0.822273
0.800527
0.570745
0.804061
0.796371
0.816876
0.798378
0.80259
0.74754
0.840408
0.80254
0.799472
0.834325
0.829217
0.809987
0.825662
0.800202
0.817192
0.816817
0.818051
0.803417
0.81763
0.726395
0.82171
0.811285
0.7998
0.812766
0.819893
0.798885
0.803784
0.781668
0.81492
0.814625
0.814737
0.81784
0.806198
0.816368
0.815043
0.825529
0.821746
0.837212
0.805682
0.694208
0.817277
0.840251
0.81912
0.804354
0.799785
0.803105
0.815627
0.813864
0.815258
0.743258
0.736722
0.800447
0.802761
0.814927
0.815895
0.798057
0.650633
0.707357
0.807789
0.768935
0.815087
0.701885
0.802949
0.727203
0.803102
0.819601
0.803038
0.816605
0.812021
0.798372
0.808327
0.79282
0.829626
0.81477
0.80091
0.803253
0.815141
0.821033
0.748428
0.822126
0.803517
0.783003
0.81464
0.803611
0.810104
0.813775
0.814212
0.834844
0.79206
0.798667
0.814514
0.758236
0.806337
0.813918
0.800792
0.815203
0.840945
0.801994
0.842835
0.808131
0.789798
0.811003
0.802534
0.85162
0.788174
0.803027
0.815229
0.831086
0.808123
0.812888
0.814927
0.802625
0.802553
0.825705
0.78209
0.813448
0.814502
0.640801
0.814709
0.711701
0.817368
0.837803
0.823891
0.803653
0.813688
0.814341
0.724683
0.813868
0.800424
0.801364
0.800572
0.814949
0.863555
0.80098
0.800667
0.785032
0.840189
0.827718
0.818895
0.812441
0.745952
0.802848
0.803258
0.729852
0.798979
0.713368
0.809658
0.800778
0.675101
0.880054
0.701424
0.771832
0.800797
0.74222
0.808113
0.798547
0.802947
0.658942
0.796508
0.783732
0.798577
0.727092
0.81797
0.821783
0.884397
0.809191
0.830809
0.643629
0.799557
0.786248
0.74309
0.750317
0.768077
0.70437
0.802941
0.798907
0.803015
0.762927
0.625466
0.811165
0.610965
0.820483
0.822333
0.811233
0.736181
0.811475
0.794682
0.818423
0.78235
0.806417
0.796907
0.809172
0.715707
0.801211
0.721316
0.801058
0.798391
0.68392
0.803365
0.814229
0.814295
0.802972
0.760461
0.81407
0.732276
0.689588
0.802108
0.814291
0.874206
0.814185
0.813592
0.880408
0.865212
0.830457
0.718241
0.801743
0.811624
0.820853
0.797298
0.678964
0.72176
0.673667
0.80226
0.705089
0.767828
0.799071
0.613301
0.688086
0.835683
0.772842
0.744435
0.829928
0.758376
0.76903
0.623108
0.730391
0.784424
0.819043
0.86929
0.83738
0.814657
0.793959
0.799339
0.714699
0.814498
0.692955
0.796789
0.814266
0.783284
0.761805
0.801029
0.782118
0.802021
0.800472
0.810844
0.81081
0.866902
0.563602
0.535485
0.802189
0.806357
0.696993
0.809608
0.802636
0.837092
0.803326
0.802224
0.564998
0.551422
0.808148
0.8115
0.814407
0.724832
0.803044
0.809871
0.683027
0.810505
0.802548
0.812889
0.803081
0.799958
0.802094
0.813338
0.80283
0.816752
0.803055
0.861798
0.813696
0.802369
0.721189
0.668436
0.814463
0.582998
0.812059
0.809727
0.835417
0.813011
0.802869
0.810474
0.812383
0.812208
0.81401
0.801429
0.853448
0.856149
0.801985
0.65324
0.807692
0.822131
0.799251
0.803049
0.819326
0.732637
0.803159
0.824649
0.820681
0.814807
0.814293
0.765995
0.745393
0.800449
0.833502
0.802485
0.813615
0.804172
0.803368
0.804707
0.813017
0.808542
0.798332
0.806646
0.80571
0.824297
0.80646
0.806061
0.816684
0.806546
0.803295
0.812109
0.802862
0.802716
0.805593
0.807525
0.812251
0.773119
0.805122
0.802585
0.814173
0.799434
0.803574
0.80663
0.831298
0.80483
0.647667
0.800558
0.814495
0.804465
0.814507
0.762424
0.814254
0.749813
0.803507
0.802038
0.803877
0.818648
0.850658
0.804176
0.803172
0.746925
0.829004
0.814169
0.819616
0.824663
0.814012
0.735437
0.817249
0.720501
0.800854
0.826966
0.802223
0.697666
0.825181
0.814019
0.815423
0.823418
0.814609
0.77284
0.816261
0.645564
0.708562
0.814266
0.821882
0.672958
0.818461
0.657526
0.820674
0.806437
0.815744
0.803083
0.805223
0.814144
0.831205
0.824846
0.669751
0.812248
0.841572
0.781096
0.845868
0.800104
0.703903
0.838013
0.818691
0.835022
0.685872
0.680628
0.832323
0.653742
0.830009
0.814285
0.82796
0.806073
0.826226
0.787383
0.824707
0.8233
0.705813
0.865368
0.822093
0.821071
0.823365
0.758492
0.802693
0.520757
0.802487
0.820181
0.812759
0.804526
0.825272
0.814211
0.797666
0.819399
0.802879
0.677077
0.792148
0.833865
0.813613
0.714412
0.798607
0.821322
0.573542
0.81398
0.814823
0.802414
0.809697
0.724925
0.817298
0.802924
0.803344
0.795743
0.793318
0.797688
0.794531
0.803211
0.811605
0.819086
0.813341
0.570615
0.892835
0.704242
0.797675
0.738588
0.791213
0.814188
0.814943
0.814819
0.60284
0.818337
0.816983
0.803705
0.817342
0.836202
0.839181
0.78262
0.798264
0.799297
0.723694
0.751857
0.814473
0.763414
0.814941
0.818378
0.81404
0.813268
0.801837
0.774638
0.81183
0.815373
0.727672
0.81037
0.815147
0.817418
0.807587
0.809247
0.763963
0.813803
0.807969
0.803055
0.807216
0.614892
0.806278
0.804126
0.805703
0.820686
0.845243
0.804493
0.773524
0.805067
0.771279
0.819629
0.805189
0.811968
0.814197
0.849852
0.803265
0.743953
0.819568
0.81447
0.726336
0.800593
0.815517
0.758134
0.81184
0.56734
0.806356
0.684854
0.800892
0.810645
0.811758
0.816526
0.804021
0.815143
0.817059
0.800811
0.804001
0.843997
0.815436
0.795999
0.815534
0.801599
0.801166
0.800079
0.801033
0.806518
0.813836
0.801398
0.769237
0.817757
0.812461
0.808663
0.814208
0.584968
0.803136
0.813461
0.814525
0.786875
0.747489
0.719137
0.811705
0.814052
0.82538
0.788729
0.601365
0.770976
0.638145
0.81603
0.7451
0.811423
0.829744
0.693112
0.799456
0.83337
0.748507
0.800431
0.803053
0.81484
0.801825
0.698043
0.800508
0.546075
0.80156
0.802286
0.802063
0.558469
0.802816
0.803289
0.803045
0.727867
0.736757
0.803293
0.775892
0.814885
0.721419
0.705901
0.814269
0.801164
0.751966
0.853828
0.813055
0.811486
0.668296
0.802642
0.800383
0.800273
0.802343
0.655299
0.80309
0.814534
0.65325
0.684475
0.805594
0.789927
0.814353
0.822731
0.814275
0.814475
0.815731
0.803514
0.814431
0.814217
0.812933
0.828916
0.802246
0.801637
0.810111
0.725527
0.809373
0.814072
0.862502
0.81048
0.636705
0.773929
0.802034
0.775813
0.815986
0.811099
0.829594
0.813747
0.864304
0.801651
0.813841
0.591984
0.815291
0.833427
0.802812
0.813471
0.62348
0.814697
0.802612
0.815943
0.802096
0.816831
0.815225
0.754554
0.803412
0.803058
0.834684
0.861601
0.819384
0.815355
0.725284
0.740467
0.80238
0.802882
0.811703
0.817389
0.799326
0.802715
0.81885
0.805889
0.807337
0.73938
0.80259
0.816844
0.813289
0.767753
0.760344
0.811069
0.796216
0.856672
0.717997
0.834134
0.810317
0.711952
0.799488
0.813696
0.787277
0.800525
0.799529
0.814294
0.776727
0.774303
0.812611
0.696519
0.798403
0.764876
0.814147
0.816564
0.801829
0.787005
0.737667
0.75158
0.773436
0.813849
0.818279
0.805137
0.653671
0.801584
0.795207
0.77759
0.809527
0.812183
0.799341
0.802885
0.631484
0.80374
0.804366
0.850928
0.803558
0.808812
0.832852
0.805049
0.809433
0.851867
0.610771
0.803888
0.815418
0.805229
0.804844
0.805527
0.80442
0.804513
0.804039
0.805609
0.80608
0.723666
0.805497
0.806765
0.806209
0.814409
0.807902
0.817954
0.803022
0.803377
0.813979
0.814165
0.80932
0.803288
0.816008
0.812849
0.809232
0.815316
0.707287
0.81317
0.831037
0.814158
0.85392
0.749087
0.807431
0.814196
0.80047
0.595053
0.803141
0.771802
0.821271
0.626125
0.814826
0.82903
0.813885
0.811287
0.801928
0.826649
0.818704
0.80341
0.764196
0.816383
0.758169
0.545012
0.813531
0.696056
0.693819
0.820173
0.827131
0.826926
0.815975
0.847157
0.567961
0.876213
0.805046
0.825411
0.823721
0.812263
0.680418
0.814071
0.822162
0.815676
0.800672
0.773497
0.822044
0.563688
0.812543
0.842777
0.802999
0.839191
0.820908
0.803215
0.667562
0.84286
0.819835
0.83598
0.800662
0.81324
0.802979
0.833324
0.802676
0.813152
0.830877
0.828711
0.821806
0.823721
0.830518
0.738973
0.659428
0.561419
0.826847
0.825305
0.766796
0.755805
0.805751
0.823858
0.846519
0.589021
0.822561
0.821455
0.820531
0.818977
0.803738
0.820569
0.655708
0.74332
0.819716
0.797033
0.869521
0.889927
0.775996
0.803323
0.668581
0.835222
0.729198
0.717045
0.818916
0.801434
0.78311
0.658292
0.802033
0.814305
0.788581
0.710035
0.79989
0.816941
0.797757
0.673944
0.823081
0.792562
0.815015
0.832809
0.81494
0.795089
0.815474
0.815227
0.785571
0.803807
0.709082
0.84033
0.792811
0.81047
0.78157
0.804198
0.694134
0.800638
0.813271
0.811909
0.810742
0.809216
0.808125
0.807369
0.805743
0.804634
0.806552
0.723676
0.805184
0.801281
0.795687
0.80315
0.844151
0.713713
0.803091
0.775797
0.883772
0.853836
0.797809
0.722214
0.803079
0.797497
0.717861
0.803161
0.80148
0.733149
0.803474
0.789313
0.796942
0.800875
0.736707
0.779032
0.803909
0.746319
0.763975
0.768678
0.801198
0.813954
0.808398
0.757813
0.750771
0.799349
0.812943
0.803198
0.79246
0.800938
0.928569
0.860288
0.817126
0.814078
0.723689
0.843969
0.746952
0.825749
0.816096
0.897983
0.814257
0.796798
0.586973
0.814293
0.796912
0.814332
0.797337
0.845237
0.518022
0.832377
0.801401
0.805395
0.80466
0.803557
0.855341
0.801097
0.816735
0.700786
0.647713
0.665761
0.814381
0.499939
0.797358
0.720808
0.841479
0.814273
0.556046
0.8016
0.813792
0.813454
0.718261
0.801487
0.522704
0.796813
0.814528
0.796933
0.802561
0.797174
0.814708
0.833564
0.803203
0.797883
0.815118
0.798149
0.815274
0.813578
0.798433
0.815451
0.813026
0.815656
0.798532
0.815886
0.67865
0.798725
0.816143
0.80297
0.798913
0.816401
0.696542
0.81429
0.797945
0.814219
0.797943
0.809375
0.837839
0.860992
0.800766
0.8
0.81736
0.815113
0.799643
0.799267
0.862971
0.811774
0.817025
0.809827
0.849574
0.828016
0.815996
0.825228
0.845832
0.814226
0.801123
0.818617
0.811197
0.801547
0.814126
0.799706