# vtk DataFile Version 1.0
unstructured grid
ascii
DATASET UNSTRUCTURED_GRID
points 3920 float
-1 0 0
-1 1 0
2 0 0
2 1 0
0 0 0
1 0 0
-1 1 0.1
-1 0 0.1
0 0 0.1
1 0 0.1
2 0 0.1
2 1 0.1
-0.98 0 0
-0.96 0 0
-0.94 0 0
-0.92 0 0
-0.9 0 0
-0.88 0 0
-0.86 0 0
-0.84 0 0
-0.82 0 0
-0.8 0 0
-0.78 0 0
-0.76 0 0
-0.74 0 0
-0.72 0 0
-0.7 0 0
-0.68 0 0
-0.66 0 0
-0.64 0 0
-0.62 0 0
-0.6 0 0
-0.58 0 0
-0.56 0 0
-0.54 0 0
-0.52 0 0
-0.5 0 0
-0.48 0 0
-0.46 0 0
-0.44 0 0
-0.42 0 0
-0.4 0 0
-0.38 0 0
-0.36 0 0
-0.34 0 0
-0.32 0 0
-0.3 0 0
-0.28 0 0
-0.26 0 0
-0.24 0 0
-0.22 0 0
-0.2 0 0
-0.18 0 0
-0.16 0 0
-0.14 0 0
-0.12 0 0
-0.1 0 0
-0.08 0 0
-0.06 0 0
-0.04 0 0
-0.02 0 0
1.02 0 0
1.04 0 0
1.06 0 0
1.08 0 0
1.1 0 0
1.12 0 0
1.14 0 0
1.16 0 0
1.18 0 0
1.2 0 0
1.22 0 0
1.24 0 0
1.26 0 0
1.28 0 0
1.3 0 0
1.32 0 0
1.34 0 0
1.36 0 0
1.38 0 0
1.4 0 0
1.42 0 0
1.44 0 0
1.46 0 0
1.48 0 0
1.5 0 0
1.52 0 0
1.54 0 0
1.56 0 0
1.58 0 0
1.6 0 0
1.62 0 0
1.64 0 0
1.66 0 0
1.68 0 0
1.7 0 0
1.72 0 0
1.74 0 0
1.76 0 0
1.78 0 0
1.8 0 0
1.82 0 0
1.84 0 0
1.86 0 0
1.88 0 0
1.9 0 0
1.92 0 0
1.94 0 0
1.96 0 0
1.98 0 0
2 0.0199133 0
2 0.0414128 0
2 0.0646247 0
2 0.0896856 0
2 0.116743 0
2 0.145955 0
2 0.177494 0
2 0.211545 0
2 0.248309 0
2 0.288001 0
2 0.330854 0
2 0.377121 0
2 0.427073 0
2 0.481004 0
2 0.539231 0
2 0.602096 0
2 0.669968 0
2 0.743247 0
2 0.822362 0
2 0.907779 0
1.9 1 0
1.8 1 0
1.7 1 0
1.6 1 0
1.5 1 0
1.4 1 0
1.3 1 0
1.2 1 0
1.1 1 0
1 1 0
0.9 1 0
0.8 1 0
0.7 1 0
0.6 1 0
0.5 1 0
0.4 1 0
0.3 1 0
0.2 1 0
0.1 1 0
3.69793e-12 1 0
-0.1 1 0
-0.2 1 0
-0.3 1 0
-0.4 1 0
-0.5 1 0
-0.6 1 0
-0.7 1 0
-0.8 1 0
-0.9 1 0
-1 0.907779 0
-1 0.822362 0
-1 0.743247 0
-1 0.669968 0
-1 0.602096 0
-1 0.539231 0
-1 0.481004 0
-1 0.427073 0
-1 0.377121 0
-1 0.330854 0
-1 0.288001 0
-1 0.248309 0
-1 0.211545 0
-1 0.177494 0
-1 0.145955 0
-1 0.116743 0
-1 0.0896856 0
-1 0.0646247 0
-1 0.0414128 0
-1 0.0199133 0
0.0182781 0.00745351 0
0.0366672 0.0146286 0
0.0551632 0.0215237 0
0.0737617 0.0281372 0
0.0924585 0.0344675 0
0.111249 0.0405131 0
0.13013 0.0462728 0
0.149095 0.0517451 0
0.168142 0.0569289 0
0.187265 0.0618228 0
0.20646 0.0664258 0
0.225723 0.0707368 0
0.245049 0.0747549 0
0.264434 0.078479 0
0.283873 0.0819084 0
0.303362 0.0850422 0
0.322896 0.0878798 0
0.342472 0.0904204 0
0.362083 0.0926635 0
0.381726 0.0946086 0
0.401397 0.0962552 0
0.42109 0.0976029 0
0.440802 0.0986514 0
0.460527 0.0994006 0
0.480261 0.0998501 0
0.5 0.1 0
0.519739 0.0998501 0
0.539473 0.0994006 0
0.559198 0.0986514 0
0.57891 0.0976029 0
0.598603 0.0962552 0
0.618274 0.0946086 0
0.637917 0.0926635 0
0.657528 0.0904204 0
0.677104 0.0878798 0
0.696638 0.0850422 0
0.716127 0.0819084 0
0.735566 0.078479 0
0.754951 0.0747549 0
0.774277 0.0707368 0
0.79354 0.0664258 0
0.812735 0.0618228 0
0.831858 0.0569289 0
0.850905 0.0517451 0
0.86987 0.0462728 0
0.888751 0.0405131 0
0.907542 0.0344675 0
0.926238 0.0281372 0
0.944837 0.0215237 0
0.963333 0.0146286 0
0.981722 0.00745351 0
-1 0.907779 0.1
-1 0.822362 0.1
-1 0.743247 0.1
-1 0.669968 0.1
-1 0.602096 0.1
-1 0.539231 0.1
-1 0.481004 0.1
-1 0.427073 0.1
-1 0.377121 0.1
-1 0.330854 0.1
-1 0.288001 0.1
-1 0.248309 0.1
-1 0.211545 0.1
-1 0.177494 0.1
-1 0.145955 0.1
-1 0.116743 0.1
-1 0.0896856 0.1
-1 0.0646247 0.1
-1 0.0414128 0.1
-1 0.0199133 0.1
-0.98 0 0.1
-0.96 0 0.1
-0.94 0 0.1
-0.92 0 0.1
-0.9 0 0.1
-0.88 0 0.1
-0.86 0 0.1
-0.84 0 0.1
-0.82 0 0.1
-0.8 0 0.1
-0.78 0 0.1
-0.76 0 0.1
-0.74 0 0.1
-0.72 0 0.1
-0.7 0 0.1
-0.68 0 0.1
-0.66 0 0.1
-0.64 0 0.1
-0.62 0 0.1
-0.6 0 0.1
-0.58 0 0.1
-0.56 0 0.1
-0.54 0 0.1
-0.52 0 0.1
-0.5 0 0.1
-0.48 0 0.1
-0.46 0 0.1
-0.44 0 0.1
-0.42 0 0.1
-0.4 0 0.1
-0.38 0 0.1
-0.36 0 0.1
-0.34 0 0.1
-0.32 0 0.1
-0.3 0 0.1
-0.28 0 0.1
-0.26 0 0.1
-0.24 0 0.1
-0.22 0 0.1
-0.2 0 0.1
-0.18 0 0.1
-0.16 0 0.1
-0.14 0 0.1
-0.12 0 0.1
-0.1 0 0.1
-0.08 0 0.1
-0.06 0 0.1
-0.04 0 0.1
-0.02 0 0.1
0.0182781 0.00745351 0.1
0.0366672 0.0146286 0.1
0.0551632 0.0215237 0.1
0.0737617 0.0281372 0.1
0.0924585 0.0344675 0.1
0.111249 0.0405131 0.1
0.13013 0.0462728 0.1
0.149095 0.0517451 0.1
0.168142 0.0569289 0.1
0.187265 0.0618228 0.1
0.20646 0.0664258 0.1
0.225723 0.0707368 0.1
0.245049 0.0747549 0.1
0.264434 0.078479 0.1
0.283873 0.0819084 0.1
0.303362 0.0850422 0.1
0.322896 0.0878798 0.1
0.342472 0.0904204 0.1
0.362083 0.0926635 0.1
0.381726 0.0946086 0.1
0.401397 0.0962552 0.1
0.42109 0.0976029 0.1
0.440802 0.0986514 0.1
0.460527 0.0994006 0.1
0.480261 0.0998501 0.1
0.5 0.1 0.1
0.519739 0.0998501 0.1
0.539473 0.0994006 0.1
0.559198 0.0986514 0.1
0.57891 0.0976029 0.1
0.598603 0.0962552 0.1
0.618274 0.0946086 0.1
0.637917 0.0926635 0.1
0.657528 0.0904204 0.1
0.677104 0.0878798 0.1
0.696638 0.0850422 0.1
0.716127 0.0819084 0.1
0.735566 0.078479 0.1
0.754951 0.0747549 0.1
0.774277 0.0707368 0.1
0.79354 0.0664258 0.1
0.812735 0.0618228 0.1
0.831858 0.0569289 0.1
0.850905 0.0517451 0.1
0.86987 0.0462728 0.1
0.888751 0.0405131 0.1
0.907542 0.0344675 0.1
0.926238 0.0281372 0.1
0.944837 0.0215237 0.1
0.963333 0.0146286 0.1
0.981722 0.00745351 0.1
1.02 0 0.1
1.04 0 0.1
1.06 0 0.1
1.08 0 0.1
1.1 0 0.1
1.12 0 0.1
1.14 0 0.1
1.16 0 0.1
1.18 0 0.1
1.2 0 0.1
1.22 0 0.1
1.24 0 0.1
1.26 0 0.1
1.28 0 0.1
1.3 0 0.1
1.32 0 0.1
1.34 0 0.1
1.36 0 0.1
1.38 0 0.1
1.4 0 0.1
1.42 0 0.1
1.44 0 0.1
1.46 0 0.1
1.48 0 0.1
1.5 0 0.1
1.52 0 0.1
1.54 0 0.1
1.56 0 0.1
1.58 0 0.1
1.6 0 0.1
1.62 0 0.1
1.64 0 0.1
1.66 0 0.1
1.68 0 0.1
1.7 0 0.1
1.72 0 0.1
1.74 0 0.1
1.76 0 0.1
1.78 0 0.1
1.8 0 0.1
1.82 0 0.1
1.84 0 0.1
1.86 0 0.1
1.88 0 0.1
1.9 0 0.1
1.92 0 0.1
1.94 0 0.1
1.96 0 0.1
1.98 0 0.1
2 0.0199133 0.1
2 0.0414128 0.1
2 0.0646247 0.1
2 0.0896856 0.1
2 0.116743 0.1
2 0.145955 0.1
2 0.177494 0.1
2 0.211545 0.1
2 0.248309 0.1
2 0.288001 0.1
2 0.330854 0.1
2 0.377121 0.1
2 0.427073 0.1
2 0.481004 0.1
2 0.539231 0.1
2 0.602096 0.1
2 0.669968 0.1
2 0.743247 0.1
2 0.822362 0.1
2 0.907779 0.1
1.9 1 0.1
1.8 1 0.1
1.7 1 0.1
1.6 1 0.1
1.5 1 0.1
1.4 1 0.1
1.3 1 0.1
1.2 1 0.1
1.1 1 0.1
1 1 0.1
0.9 1 0.1
0.8 1 0.1
0.7 1 0.1
0.6 1 0.1
0.5 1 0.1
0.4 1 0.1
0.3 1 0.1
0.2 1 0.1
0.1 1 0.1
3.69793e-12 1 0.1
-0.1 1 0.1
-0.2 1 0.1
-0.3 1 0.1
-0.4 1 0.1
-0.5 1 0.1
-0.6 1 0.1
-0.7 1 0.1
-0.8 1 0.1
-0.9 1 0.1
1.08758 0.0158154 0
-0.0898513 0.0203294 0
0.0966181 0.0537636 0
0.90205 0.0548881 0
1.21055 0.0202058 0
-0.209811 0.0159577 0
1.3305 0.0176902 0
-0.33 0.0173205 0
1.45324 0.0148141 0
-0.448654 0.0159854 0
1.56842 0.0191785 0
-0.569936 0.0166364 0
0.193292 0.0805369 0
0.805051 0.0813623 0
0.709096 0.100353 0
0.288591 0.0996656 0
0.390184 0.111848 0
0.61033 0.111742 0
0.488809 0.116278 0
1.67175 0.0169692 0
-0.67 0.0169809 0
-0.955017 0.454039 0
1.95131 0.44569 0
1.74981 0.0168753 0
-0.75 0.0173205 0
-0.968032 0.266538 0
1.96871 0.266267 0
0.978232 0.0305687 0
0.0208675 0.026451 0
-0.150454 0.91842 0
1.13854 0.907437 0
1.45012 0.904365 0
-0.445923 0.908903 0
-0.853423 0.0157019 0
1.84881 0.016319 0
0.853689 0.915652 0
0.153944 0.912184 0
0.545151 0.914125 0
0.549913 0.115152 0
1.51 0.0173205 0
-0.506989 0.01651 0
1.27 0.0173205 0
1.14976 0.0173333 0
-0.268171 0.0206442 0
-0.150501 0.0153244 0
-0.391384 0.0153993 0
1.38886 0.0171544 0
-0.973694 0.161724 0
1.97441 0.162392 0
-0.945221 0.633523 0
1.94544 0.63312 0
1.91008 0.0186068 0
-0.91 0.0169616 0
-0.030664 0.0194327 0
1.03074 0.0165456 0
-0.966065 0.353575 0
1.96128 0.359765 0
1.93879 0.781254 0
-0.937057 0.781882 0
-0.980746 0.080709 0
1.9772 0.0760699 0
0.058735 0.0409372 0
0.355202 0.913001 0
0.86356 0.0661005 0
0.134223 0.0651111 0
0.941972 0.0397386 0
-0.653034 0.915003 0
1.65328 0.904589 0
0.770126 0.0881325 0
0.232946 0.0902008 0
0.330582 0.105648 0
0.670612 0.108365 0
0.428707 0.116145 0
1.80993 0.016629 0
-0.810168 0.0172178 0
-0.71 0.0173205 0
1.63047 0.0175504 0
1.70842 0.0169661 0
-0.628824 0.0181787 0
-0.949815 0.0133898 0
1.95 0.0173205 0
1.85542 0.907891 0
-0.85 0.913397 0
1.9833 0.0307692 0
-0.983315 0.0309709 0
-0.750025 0.916468 0
-0.701107 0.836904 0
-0.607741 0.836428 0
-0.656448 0.759827 0
-0.572936 0.758144 0
-0.61411 0.691195 0
-0.539534 0.689068 0
-0.578542 0.626111 0
-0.507461 0.624216 0
-0.544001 0.566638 0
-0.477696 0.564279 0
-0.511582 0.51001 0
-0.451689 0.507147 0
-0.481834 0.457732 0
-0.426137 0.454624 0
-0.453236 0.407539 0
-0.398845 0.406233 0
-0.507958 0.409496 0
-0.368427 0.460177 0
-0.344602 0.405209 0
-0.315696 0.447824 0
-0.294128 0.402169 0
-0.262844 0.444518 0
-0.241968 0.388746 0
-0.209878 0.439557 0
-0.185184 0.391135 0
-0.156687 0.437338 0
-0.133719 0.390776 0
-0.104405 0.434306 0
-0.0818745 0.388334 0
-0.0528785 0.431165 0
-0.0305984 0.385639 0
-0.00180552 0.427863 0
0.0194564 0.382608 0
0.0485809 0.42449 0
0.0701962 0.37973 0
0.0985483 0.421145 0
0.119893 0.377339 0
0.147837 0.417911 0
0.172552 0.36751 0
0.197018 0.412597 0
0.221203 0.37141 0
0.24512 0.409646 0
-0.48178 0.364657 0
-0.531053 0.364782 0
-0.0599102 0.344151 0
-0.324909 0.359566 0
0.266181 0.368462 0
0.292132 0.407649 0
0.311992 0.365779 0
0.338918 0.404821 0
0.357567 0.355909 0
0.384723 0.40053 0
0.404675 0.359681 0
0.430617 0.398558 0
0.450457 0.35827 0
0.474237 0.395182 0
0.496746 0.34898 0
0.520548 0.397931 0
0.542071 0.353121 0
0.566011 0.389914 0
0.585061 0.350856 0
0.609352 0.38696 0
0.629069 0.348168 0
0.655979 0.391217 0
0.67472 0.346182 0
0.699346 0.381414 0
0.719333 0.341965 0
0.743718 0.377547 0
0.764028 0.339036 0
0.788201 0.373582 0
0.807659 0.336101 0
0.832821 0.372249 0
0.852309 0.334017 0
0.877785 0.370339 0
0.897875 0.331141 0
0.922904 0.366281 0
0.943173 0.327335 0
0.968282 0.363358 0
0.989029 0.324222 0
1.01391 0.361511 0
1.03465 0.321428 0
1.05949 0.358447 0
1.08389 0.312052 0
1.10575 0.355104 0
1.12889 0.31562 0
1.15067 0.353235 0
1.17157 0.312819 0
1.19626 0.349369 0
1.21618 0.309863 0
1.2416 0.346914 0
1.26131 0.30715 0
1.28691 0.344312 0
1.30571 0.303752 0
1.33144 0.341222 0
1.35018 0.300911 0
1.3758 0.338308 0
1.39501 0.298931 0
1.42015 0.335235 0
1.43904 0.296349 0
1.46355 0.330194 0
1.48256 0.293347 0
1.50685 0.326967 0
1.52589 0.29055 0
1.54996 0.325305 0
1.56909 0.287929 0
[...]
CELL_DATA 3694
SCALARS rho float
LOOKUP_TABLE default
0.831464
0.808631
0.816185
0.872928
0.877006
0.814617
0.824152
0.811153
0.869046
0.81034
0.872946
0.872978
0.844618
0.824881
0.811009
0.841332
0.809826
0.810242
0.844863
0.888517
0.872056
0.874727
0.819644
0.816688
0.818275
0.844177
0.803908
0.819961
0.840557
0.80475
0.804535
0.802148
0.810413
0.834116
0.811514
0.862009
0.881149
0.874963
0.876159
0.822628
0.813689
0.828367
0.839556
0.834687
0.832469
0.872828
0.813662
0.793134
0.808401
0.826528
0.818438
0.808086
0.886766
0.825873
0.797148
0.881909
0.811328
0.873034
0.839596
0.840295
0.827499
0.880721
0.885488
0.810646
0.886405
0.879705
0.819926
0.874421
0.805576
0.894427
0.806815
0.823193
0.874817
0.810104
0.875959
0.808241
0.834644
0.807615
0.871833
0.817903
0.812649
0.829964
0.805389
0.822055
0.868564
0.80767
0.872657
0.812014
0.805251
0.87564
0.862559
0.809388
0.832035
0.871108
0.804974
0.817834
0.824528
0.872718
0.871373
0.884332
0.874388
0.846017
0.797357
0.868799
0.868224
0.880646
0.872873
0.818367
0.804182
0.871592
0.825248
0.827043
0.798447
0.874757
0.899267
0.808757
0.863027
0.871191
0.806708
0.808557
0.819644
0.838179
0.873428
0.848396
0.790977
0.822561
0.872662
0.852442
0.884769
0.821703
0.820578
0.831567
0.82288
0.826613
0.813935
0.860462
0.815252
0.80559
0.804458
0.874117
0.871526
0.825334
0.87275
0.874151
0.822052
0.794864
0.806001
0.805789
0.874554
0.826517
0.825543
0.807823
0.777028
0.852155
0.800587
0.846649
0.820776
0.854925
0.783808
0.827393
0.841758
0.7955
0.826501
0.832647
0.887171
0.774721
0.827876
0.810558
0.816069
0.805235
0.812236
0.806797
0.894213
0.772513
0.825364
0.798997
0.853253
0.881168
0.873912
0.809563
0.871422
0.80225
0.877211
0.808535
0.79658
0.810445
0.779204
0.875318
0.81834
0.890699
0.828972
0.79096
0.879732
0.806534
0.81972
0.846631
0.828428
0.887368
0.832564
0.8252
0.825214
0.859429
0.880279
0.84116
0.833829
0.874182
0.809165
0.812998
0.831912
0.80884
0.816408
0.86103
0.821559
0.825823
0.876453
0.846765
0.879491
0.837788
0.876432
0.873496
0.874768
0.846584
0.837598
0.81989
0.87726
0.781753
0.827798
0.868421
0.890636
0.879323
0.867911
0.829033
0.82566
0.872712
0.882823
0.872837
0.82727
0.863161
0.800192
0.859411
0.821753
0.868567
0.799286
0.818319
0.843867
0.830816
0.806539
0.844397
0.878223
0.851544
0.824999
0.786101
0.83191
0.813693
0.797023
0.859529
0.826576
0.809744
0.882374
0.878789
0.785503
0.877124
0.83422
0.861765
0.876263
0.807335
0.833814
0.870285
0.841057
0.842589
0.804531
0.882071
0.823867
0.806883
0.826615
0.880432
0.801766
0.775202
0.872662
0.840173
0.873638
0.832437
0.81203
0.876256
0.876784
0.871866
0.815543
0.860863
0.880555
0.775235
0.806384
0.89808
0.781775
0.843534
0.88388
0.876738
0.879804
0.792889
0.827266
0.880705
0.811402
0.809896
0.833445
0.880856
0.829264
0.824033
0.823688
0.808048
0.794945
0.873695
0.877819
0.81059
0.858775
0.872797
0.837996
0.812079
0.774842
0.873934
0.875808
0.821323
0.803464
0.822679
0.82567
0.825355
0.873566
0.852287
0.811934
0.826349
0.808151
0.874878
0.868723
0.831177
0.848633
0.878171
0.874195
0.872845
0.872536
0.812473
0.818065
0.816109
0.785028
0.805334
0.824187
0.810955
0.820897
0.815634
0.872928
0.825826
0.832183
0.828029
0.879983
0.873639
0.873218
0.807168
0.811039
0.817604
0.823974
0.828578
0.795719
0.811905
0.821189
0.828495
0.82054
0.824055
0.872362
0.870795
0.872795
0.814879
0.825697
0.846595
0.817962
0.886741
0.831156
0.792713
0.812878
0.822841
0.791419
0.809317
0.783044
0.825324
0.827445
0.83338
0.875071
0.876516
0.872595
0.869274
0.873314
0.878281
0.809627
0.846729
0.832818
0.805447
0.873018
0.842889
0.832534
0.802272
0.874378
0.890321
0.873162
0.82233
0.837949
0.876799
0.827583
0.844203
0.868858
0.81181
0.824217
0.885456
0.839254
0.81933
0.897475
0.827323
0.871955
0.872726
0.839576
0.798435
0.862604
0.826146
0.804788
0.807275
0.872823
0.827062
0.856598
0.779033
0.878378
0.837226
0.871248
0.809437
0.817648
0.875987
0.811636
0.814389
0.828605
0.806645
0.87772
0.871045
0.870742
0.900604
0.877912
0.823185
0.88054
0.813901
0.875181
0.88367
0.873378
0.789124
0.87706
0.820876
0.888061
0.873942
0.810913
0.77768
0.821471
0.820955
0.819416
0.808332
0.825541
0.87528
0.835526
0.81627
0.833295
0.872663
0.824382
0.896754
0.805279
0.890233
0.872503
0.779259
0.812315
0.827502
0.870681
0.87285
0.797728
0.809706
0.822358
0.824366
0.819805
0.822713
0.875478
0.872717
0.861391
0.817438
0.874229
0.881266
0.827149
0.819085
0.823148
0.871196
0.80983
0.814843
0.871678
0.806818
0.813138
0.771196
0.880941
0.846892
0.879279
0.872826
0.879823
0.887022
0.872285
0.871018
0.813901
0.807348
0.889145
0.868081
0.819065
0.806717
0.808909
0.900805
0.887721
0.872945
0.80444
0.830453
0.84088
0.874549
0.825178
0.775723
0.809901
0.83129
0.814974
0.811554
0.870659
0.825535
0.838524
0.87572
0.840864
0.871797
0.822407
0.867863
0.806684
0.834479
0.812466
0.867605
0.874262
0.810792
0.815993
0.818254
0.874895
0.826677
0.833784
0.778976
0.874404
0.871637
0.875959
0.809516
0.867603
0.873452
0.831918
0.884626
0.811909
0.827619
0.875803
0.875424
0.871928
0.873898
0.818215
0.827393
0.859922
0.809674
0.889032
0.810886
0.864
0.791037
0.868296
0.87188
0.821869
0.872828
0.81666
0.873761
0.827345
0.886895
0.792591
0.808532
0.872752
0.819344
0.799536
0.778031
0.828598
0.817399
0.813806
0.856271
0.812235
0.878903
0.870803
0.814186
0.810243
0.870564
0.785241
0.871612
0.811926
0.812407
0.871588
0.794795
0.855637
0.872895
0.881956
0.866578
0.872435
0.859741
0.860676
0.813496
0.812857
0.871407
0.822554
0.868493
0.810056
0.814542
0.819482
0.872704
0.871709
0.871428
0.870951
0.873815
0.877828
0.87962
0.826017
0.817014
0.873949
0.811428
0.768368
0.814026
0.824639
0.874223
0.875627
0.825468
0.821941
0.826265
0.812257
0.82242
0.811038
0.873304
0.873874
0.877504
0.855945
0.867436
0.866409
0.774208
0.826625
0.826006
0.865948
0.830811
0.81094
0.803903
0.82397
0.878013
0.88055
0.877605
0.830205
0.766193
0.828203
0.774052
0.814565
0.875965
0.898458
0.837453
0.872556
0.891559
0.819394
0.872814
0.831503
0.826184
0.833399
0.801113
0.89276
0.808715
0.831358
0.824464
0.814809
0.804948
0.839345
0.877413
0.816992
0.870592
0.81529
0.81295
0.884763
0.806599
0.789589
0.826663
0.873934
0.867592
0.876799
0.825696
0.82481
0.849461
0.843472
0.811535
0.874396
0.872249
0.877342
0.845221
0.874273
0.818802
0.814346
0.801666
0.816606
0.862595
0.833065
0.857732
0.879204
0.875024
0.876496
0.876743
0.776306
0.804448
0.881174
0.834852
0.826285
0.87464
0.871346
0.796799
0.784987
0.833844
0.793518
0.833647
0.813186
0.875309
0.803637
0.877623
0.84322
0.785686
0.865016
0.87353
0.878877
0.835603
0.854372
0.817793
0.848953
0.869767
0.778175
0.777405
0.87653
0.816173
0.869702
0.813904
0.826664
0.852615
0.817595
0.815603
0.809393
0.880323
0.823383
0.811575
0.875156
0.872061
0.870186
0.815392
0.784648
0.814194
0.901399
0.874091
0.872063
0.785556
0.821759
0.795486
0.812543
0.804045
0.806772
0.823479
0.875105
0.840692
0.811017
0.816372
0.873554
0.812806
0.879273
0.833706
0.863999
0.807368
0.875454
0.836232
0.87509
0.879742
0.826994
0.776344
0.829339
0.869912
0.82608
0.876521
0.81038
0.812702
0.876754
0.797126
0.872748
0.804217
0.834122
0.780034
0.781418
0.833744
0.816752
0.87063
0.869974
0.873988
0.827557
0.873502
0.817336
0.803164
0.870822
0.877132
0.817986
0.82935
0.87181
0.869092
0.819363
0.835629
0.849421
0.790883
0.827413
0.815181
0.865433
0.803006
0.807562
0.803184
0.809287
0.869905
0.827698
0.837665
0.791059
0.88399
0.837716
0.871413
0.848046
0.87748
0.804784
0.855696
0.80786
0.821578
0.871307
0.832899
0.82913
0.806734
0.872839
0.781659
0.810454
0.870385
0.87075
0.869987
0.870106
0.819834
0.86436
0.822359
0.822269
0.872958
0.802669
0.872918
0.872637
0.807682
0.871832
0.872356
0.819132
0.818967
0.874608
0.855813
0.820099
0.872134
0.901488
0.87271
0.862544
0.873216
0.876236
0.823091
0.87277
0.872083
0.826572
0.817423
0.885666
0.829918
0.807847
0.832
0.852889
0.872802
0.838742
0.872847
0.873094
0.900454
0.807894
0.814845
0.87282
0.808022
0.874143
0.820739
0.820385
0.873737
0.873067
0.812959
0.818941
0.873329
0.843052
0.832285
0.801163
0.874113
0.826131
0.867944
0.810309
0.831865
0.806915
0.805695
0.826958
0.872171
0.798347
0.822658
0.810543
0.827392
0.812452
0.874999
0.799445
0.87931
0.810687
0.810578
0.874092
0.875989
0.826337
0.87362
0.824361
0.819365
0.841204
0.810303
0.85043
0.829973
0.828897
0.875885
0.778151
0.880835
0.787103
0.802943
0.811087
0.873006
0.879703
0.808532
0.87636
0.867231
0.830959
0.82654
0.893839
0.807798
0.87952
0.827617
0.773776
0.816264
0.853815
0.804169
0.836105
0.778522
0.872509
0.874611
0.870295
0.80538
0.820641
0.815127
0.846925
0.813053
0.827191
0.880703
0.845028
0.872977
0.82013
0.837146
0.874116
0.810997
0.820257
0.805719
0.810898
0.840756
0.823863
0.805581
0.841633
0.874577
0.827332
0.810931
0.858541
0.883948
0.809474
0.807149
0.809053
0.816703
0.783369
0.875697
0.875924
0.832915
0.797834
0.876157
0.875243
0.805581
0.813075
0.82676
0.851675
0.820436
0.860696
0.87438
0.812523
0.865279
0.90175
0.82616
0.839922
0.866927
0.825734
0.886534
0.8633
0.853614
0.871273
0.82313
0.828177
0.824857
0.87654
0.882727
0.821399
0.774702
0.873794
0.878291
0.822924
0.879789
0.883188
0.875116
0.877207
0.825731
0.880798
0.877404
0.826812
0.82149
0.870499
0.866678
0.874785
0.811604
0.838567
0.829554
0.816782
0.829941
0.832255
0.82912
0.773444
0.872813
0.876444
0.878503
0.818364
0.829155
0.875481
0.829778
0.873718
0.884272
0.881135
0.857489
0.803708
0.874128
0.872522
0.872911
0.808296
0.822018
0.897706
0.87329
0.888953
0.872926
0.807861
0.83577
0.830999
0.841905
0.871387
0.871305
0.818627
0.81857
0.809135
0.815597
0.875389
0.818866
0.863504
0.833652
0.83311
0.814236
0.826509
0.831293
0.806142
0.826827
0.854124
0.823058
0.811809
0.825188
0.837094
0.827554
0.873035
0.827036
0.837642
0.872529
0.857076
0.873789
0.846005
0.838666
0.870613
0.82374
0.80743
0.838413
0.814122
0.878536
0.837941
0.849674
0.871347
0.818559
0.870404
0.815389
0.806601
0.825492
0.805165
0.806299
0.884831
0.872815
0.82274
0.832182
0.783443
0.817415
0.821616
0.855258
0.813281
0.872258
0.815844
0.874187
0.826941
0.877808
0.814486
0.86983
0.812768
0.872767
0.805665
0.874629
0.869675
0.872859
0.870603
0.828295
0.871124
0.875123
0.779843
0.877753
0.826596
0.812415
0.894564
0.872827
0.869695
0.900908
0.873668
0.874078
0.873223
0.872933
0.871647
0.822833
0.839995
0.810229
0.809667
0.870928
0.874767
0.873385
0.876278
0.87047
0.832365
0.816025
0.870099
0.820353
0.82719
0.830772
0.876746
0.869861
0.873177
0.828911
0.786755
0.806111
0.808511
0.82104
0.809768
0.869779
0.872855
0.872284
0.808774
0.816201
0.80877
0.80685
0.87245
0.885495
0.872824
0.823638
0.872891
0.8728
0.844338
0.872524
0.831084
0.827667
0.872014
0.821107
0.813415
0.827285
0.869022
0.872932
0.876465
0.873249
0.841883
0.866372
0.872583
0.872246
0.831
0.810568
0.810765
0.817752
0.870087
0.875797
0.807221
0.864734
0.87307
0.831958
0.809218
0.77526
0.813737
0.860827
0.828436
0.830985
0.816767
0.83749
0.885434
0.822606
0.805712
0.882155
0.879214
0.82192
0.87699
0.807454
0.872811
0.872327
0.872873
0.81142
0.872839
0.828264
0.874449
0.830269
0.80806
0.824173
0.873538
0.826306
0.811637
0.854634
0.826614
0.876238
0.875974
0.872884
0.818361
0.873112
0.874236
0.876696
0.832399
0.883622
0.815698
0.813432
0.87274
0.883123
0.873107
0.813862
0.804469
0.812103
0.871653
0.825203
0.873447
0.814049
0.835565
0.809046
0.820607
0.873564
0.872117
0.862779
0.805041
0.819339
0.821987
0.819268
0.874906
0.798107
0.808062
0.82893
0.806149
0.830118
0.806883
0.87285
0.871639
0.818508
0.819534
0.860045
0.840266
0.875665
0.809834
0.811144
0.872511
0.874421
0.840607
0.874859
0.810797
0.824089
0.875904
0.811139
0.822757
0.878763
0.876057
0.882003
0.859649
0.803228
0.876113
0.841934
0.816739
0.878727
0.820493
0.87316
0.843718
0.809941
0.885887
0.867025
0.857198
0.871265
0.808582
0.846884
0.827355
0.810495
0.874603
0.880141
0.820897
0.87362
0.874433
0.808929
0.812425
0.835338
0.8533
0.874298
0.875163
0.801307
0.875009
0.820534
0.829583
0.883404
0.876112
0.832229
0.876531
0.877484
0.829335
0.878265
0.811576
0.803986
0.808166
0.87327
0.896967
0.807699
0.809445
0.825997
0.885436
0.83732
0.873269
0.871431
0.837267
0.864809
0.80584
0.830193
0.810878
0.823138
0.869578
0.813767
0.808955
0.904534
0.814998
0.820281
0.814011
0.838215
0.822051
0.806143
0.807953
0.803119
0.820884
0.827406
0.807768
0.829691
0.872966
0.874475
0.906405
0.823546
0.837746
0.797451
0.809756
0.855812
0.838336
0.825903
0.84885
0.823695
0.816237
0.808435
0.816144
0.826358
0.792104
0.822846
0.787827
0.874223
0.873638
0.825434
0.810827
0.868635
0.861036
0.873125
0.826267
0.867208
0.820033
0.869126
0.823378
0.808295
0.828544
0.807916
0.805311
0.816804
0.812297
0.879287
0.878912
0.809362
0.843945
0.876746
0.804166
0.813725
0.80674
0.879296
0.902261
0.879687
0.87398
0.904125
0.896237
0.877888
0.798168
0.808341
0.825402
0.832225
0.862103
0.816034
0.825691
0.811641
0.809662
0.792497
0.826494
0.804632
0.795217
0.78748
0.880949
0.850324
0.838217
0.879489
0.844118
0.819125
0.783543
0.832636
0.855602
0.873277
0.898556
0.882108
0.875541
0.860108
0.805322
0.826631
0.877152
0.815319
0.829669
0.880092
0.82459
0.844399
0.86358
0.854377
0.819507
0.806393
0.870424
0.833602
0.897852
0.780323
0.771017
0.807824
0.86635
0.820643
0.822207
0.808273
0.882415
0.813198
0.804104
0.777304
0.778529
0.833572
0.871061
0.877815
0.826726
0.807026
0.868267
0.815657
0.8705
0.806556
0.875789
0.80549
0.862385
0.803402
0.877281
0.804272
0.836342
0.809786
0.895693
0.878634
0.804095
0.79776
0.810941
0.874672
0.782418
0.8695
0.821491
0.881748
0.871259
0.809319
0.825847
0.874433
0.871821
0.880279
0.802981
0.848473
0.893185
0.811718
0.806991
0.867579
0.837646
0.816969
0.808993
0.873545
0.833515
0.80547
0.875917
0.87427
0.872165
0.875297
0.845285
0.809693
0.811245
0.881084
0.813729
0.870433
0.81569
0.81472
0.816327
0.875995
0.820498
0.807471
0.825935
0.817542
0.833456
0.824003
0.822377
0.872827
0.818505
0.805566
0.873804
0.808443
0.804564
0.820501
0.819496
0.874
0.826635
0.81886
0.810358
0.881562
0.80336
0.812167
0.827746
0.880056
0.817246
0.804529
0.804788
0.872408
0.81604
0.831473
0.824556
0.8728
0.82263
0.811967
0.803604
0.813479
0.829093
0.890419
0.81467
0.805696
0.810629
0.87892
0.879656
0.873658
0.8377
0.870878
0.821026
0.872797
0.820041
0.823467
0.877799
0.806171
0.810638
0.876824
0.870754
0.874168
0.875837
0.876521
0.82616
0.872939
0.80325
0.819998
0.87988
0.874871
0.808977
0.872935
0.801657
0.874212
0.819384
0.873583
0.806673
0.817999
0.87089
0.837847
0.837199
0.774685
0.87364
0.886042
0.827112
0.888149
0.815482
0.821323
0.884081
0.873065
0.882543
0.814629
0.808628
0.880951
0.803324
0.879601
0.878925
0.878353
0.829165
0.877355
0.827201
0.876429
0.875507
0.823923
0.89805
0.874772
0.87414
0.83555
0.84409
0.807893
0.770092
0.864851
0.873717
0.873461
0.829902
0.876797
0.882029
0.803616
0.873301
0.809196
0.804468
0.826491
0.838737
0.876356
0.827673
0.862887
0.83383
0.781865
0.876143
0.87576
0.830812
0.824079
0.831906
0.872346
0.807914
0.811353
0.825202
0.860313
0.830467
0.828585
0.805673
0.872718
0.831387
0.87342
0.772449
0.911333
0.806876
0.823195
0.836997
0.829107
0.88144
0.875097
0.875769
0.784897
0.87313
0.82939
0.812043
0.872519
0.840122
0.841527
0.826648
0.818528
0.82144
0.829053
0.842135
0.87748
0.844755
0.827181
0.873049
0.876254
0.82564
0.810976
0.851639
0.824227
0.87418
0.810338
0.822399
0.874624
0.872788
0.818605
0.820854
0.847073
0.878251
0.818755
0.809938
0.817924
0.791025
0.816238
0.812829
0.815484
0.87419
0.844024
0.813352
0.851227
0.814407
0.822905
0.873608
0.86637
0.873379
0.881769
0.8458
0.81122
0.814672
0.830787
0.877612
0.830216
0.811436
0.87401
0.81882
0.873216
0.771803
0.816707
0.810312
0.811818
0.867581
0.87126
0.873004
0.813359
0.871401
0.872673
0.808689
0.81682
0.8436
0.873702
0.825039
0.871954
0.81415
0.813632
0.805345
0.809152
0.866822
0.877294
0.80981
0.849493
0.872892
0.868808
0.825004
0.881699
0.777749
0.830664
0.829605
0.87683
0.857265
0.840303
0.796773
0.872829
0.88036
0.87694
0.858284
0.782957
0.848465
0.801594
0.873381
0.80923
0.872344
0.837918
0.816083
0.805504
0.881417
0.840888
0.819375
0.809018
0.873194
0.863499
0.816595
0.8065
0.773851
0.810013
0.808123
0.816316
0.775381
0.80733
0.811201
0.814354
0.827775
0.833578
0.813336
0.851106
0.875556
0.826913
0.820304
0.876562
0.820478
0.840282
0.890485
0.875602
0.872384
0.807005
0.817662
0.804039
0.805773
0.804722
0.804044
0.810111
0.876514
0.801433
0.812796
0.832279
0.857833
0.878158
0.874112
0.873761
0.87428
0.873118
0.814623
0.877461
0.87339
0.869177
0.836312
0.812042
0.807982
0.821939
0.828101
0.824667
0.873287
0.895074
0.867986
0.796132
0.851501
0.807361
0.825815
0.87316
0.87061
0.877812
0.82628
0.896346
0.812866
0.873485
0.781457
0.827413
0.880036
0.805403
0.877087
0.791549
0.871956
0.809413
0.873245
0.804253
0.872785
0.873767
0.813205
0.818859
0.805407
0.881011
0.895423
0.829972
0.874364
0.801525
0.837484
0.805671
0.80951
0.824169
0.872819
0.804569
0.808889
0.8733
0.866672
0.819983
0.807679
0.80713
0.872463
0.870566
0.826485
0.815778
0.869564
0.830053
0.893215
0.824649
0.880997
0.869286
0.796066
0.827122
0.873372
0.826274
0.803857
0.830646
0.874877
0.852348
0.82134
0.873598
0.790962
0.803395
0.846954
0.875534
0.872882
0.808489
0.857008
0.835749
0.841343
0.848816
0.876435
0.872937
0.866253
0.786762
0.864076
0.86091
0.824134
0.834173
0.872687
0.826145
0.814104
0.799761
0.815167
0.816032
0.891048
0.812764
0.820762
0.880593
0.816773
0.869079
0.891029
0.792301
0.814135
0.87418
0.821286
0.819542
0.823012
0.816734
0.81785
0.815205
0.824681
0.818115
0.830195
0.826494
0.818757
0.866493
0.872155
0.820053
0.872834
0.805918
0.814791
0.872923
0.872469
0.86924
0.80565
0.835867
0.825233
0.868106
0.87321
0.824287
0.873597
0.879864
0.875963
0.89251
0.837613
0.867563
0.880054
0.812937
0.783567
0.810656
0.847999
0.874192
0.786045
0.87535
0.878887
0.876827
0.869249
0.807141
0.840527
0.872474
0.811689
0.844656
0.872869
0.818526
0.770081
0.877973
0.786346
0.819442
0.836633
0.87793
0.877788
0.873042
0.888699
0.781311
0.855335
0.828068
0.876962
0.876026
0.871437
0.814704
0.878439
0.875104
0.873553
0.813206
0.820718
0.836682
0.775016
0.869945
0.886563
0.814074
0.884726
0.874369
0.805872
0.810555
0.843363
0.873789
0.882981
0.808368
0.870475
0.805308
0.881584
0.808581
0.870406
0.880126
0.878815
0.835704
0.875661
0.837383
0.806408
0.80807
0.77997
0.877707
0.876832
0.825535
0.823985
0.866708
0.875904
0.845144
0.784337
0.875065
0.874398
0.873879
0.873174
0.829129
0.834201
0.80571
0.822421
0.873509
0.806794
0.853089
0.910445
0.826677
0.865365
0.803773
0.839765
0.821332
0.820967
0.832355
0.829925
0.827106
0.805024
0.804688
0.877018
0.82678
0.821724
0.863601
0.830192
0.829837
0.805853
0.874246
0.829499
0.874841
0.881107
0.827843
0.861209
0.873964
0.874366
0.827716
0.812407
0.823797
0.84253
0.825697
0.869221
0.826556
0.813177
0.80708
0.803439
0.826245
0.8246
0.82363
0.821195
0.81937
0.818615
0.815654
0.813872
0.817088
0.826268
0.814874
0.803316
0.824159
0.81043
0.843857
0.826752
0.809156
0.824771
0.905718
0.849153
0.822275
0.830543
0.813221
0.830262
0.80984
0.810795
0.810121
0.834902
0.825431
0.858492
0.8065
0.808844
0.813429
0.85365
0.865399
0.839931
0.821092
0.84914
0.809504
0.873849
0.820436
0.844642
0.817268
0.820322
0.875111
0.810156
0.858604
0.803866
0.929766
0.893319
0.872573
0.880776
0.798831
0.886605
0.836343
0.83431
0.870474
0.913862
0.880343
0.804877
0.77779
0.879645
0.805486
0.878989
0.806579
0.88554
0.767342
0.880781
0.817214
0.815657
0.832028
0.813304
0.848015
0.806551
0.872781
0.814668
0.768927
0.799671
0.878384
0.761628
0.805058
0.829801
0.883551
0.836463
0.764972
0.863574
0.876326
0.876401
0.823704
0.810371
0.760434
0.807306
0.877242
0.807773
0.808334
0.808353
0.876255
0.879716
0.805843
0.809923
0.874978
0.810404
0.874561
0.827722
0.810984
0.874168
0.873432
0.873831
0.811309
0.873536
0.805853
0.811682
0.873271
0.807498
0.811953
0.873045
0.82083
0.878534
0.803875
0.88121
0.83069
0.86889
0.84147
0.896167
0.805376
0.813436
0.872749
0.826818
0.81295
0.812429
0.851579
0.868727
0.872855
0.869201
0.888724
0.878301
0.872643
0.835353
0.888518
0.878874
0.815026
0.872826
0.867901
0.815885
0.877131
0.81019
0.86602
0.82492
0.821425