# vtk DataFile Version 1.0
unstructured grid
ascii
DATASET UNSTRUCTURED_GRID
points 3920 float
-1 0 0
-1 1 0
2 0 0
2 1 0
0 0 0
1 0 0
-1 1 0.1
-1 0 0.1
0 0 0.1
1 0 0.1
2 0 0.1
2 1 0.1
-0.98 0 0
-0.96 0 0
-0.94 0 0
-0.92 0 0
-0.9 0 0
-0.88 0 0
-0.86 0 0
-0.84 0 0
-0.82 0 0
-0.8 0 0
-0.78 0 0
-0.76 0 0
-0.74 0 0
-0.72 0 0
-0.7 0 0
-0.68 0 0
-0.66 0 0
-0.64 0 0
-0.62 0 0
-0.6 0 0
-0.58 0 0
-0.56 0 0
-0.54 0 0
-0.52 0 0
-0.5 0 0
-0.48 0 0
-0.46 0 0
-0.44 0 0
-0.42 0 0
-0.4 0 0
-0.38 0 0
-0.36 0 0
-0.34 0 0
-0.32 0 0
-0.3 0 0
-0.28 0 0
-0.26 0 0
-0.24 0 0
-0.22 0 0
-0.2 0 0
-0.18 0 0
-0.16 0 0
-0.14 0 0
-0.12 0 0
-0.1 0 0
-0.08 0 0
-0.06 0 0
-0.04 0 0
-0.02 0 0
1.02 0 0
1.04 0 0
1.06 0 0
1.08 0 0
1.1 0 0
1.12 0 0
1.14 0 0
1.16 0 0
1.18 0 0
1.2 0 0
1.22 0 0
1.24 0 0
1.26 0 0
1.28 0 0
1.3 0 0
1.32 0 0
1.34 0 0
1.36 0 0
1.38 0 0
1.4 0 0
1.42 0 0
1.44 0 0
1.46 0 0
1.48 0 0
1.5 0 0
1.52 0 0
1.54 0 0
1.56 0 0
1.58 0 0
1.6 0 0
1.62 0 0
1.64 0 0
1.66 0 0
1.68 0 0
1.7 0 0
1.72 0 0
1.74 0 0
1.76 0 0
1.78 0 0
1.8 0 0
1.82 0 0
1.84 0 0
1.86 0 0
1.88 0 0
1.9 0 0
1.92 0 0
1.94 0 0
1.96 0 0
1.98 0 0
2 0.0199133 0
2 0.0414128 0
2 0.0646247 0
2 0.0896856 0
2 0.116743 0
2 0.145955 0
2 0.177494 0
2 0.211545 0
2 0.248309 0
2 0.288001 0
2 0.330854 0
2 0.377121 0
2 0.427073 0
2 0.481004 0
2 0.539231 0
2 0.602096 0
2 0.669968 0
2 0.743247 0
2 0.822362 0
2 0.907779 0
1.9 1 0
1.8 1 0
1.7 1 0
1.6 1 0
1.5 1 0
1.4 1 0
1.3 1 0
1.2 1 0
1.1 1 0
1 1 0
0.9 1 0
0.8 1 0
0.7 1 0
0.6 1 0
0.5 1 0
0.4 1 0
0.3 1 0
0.2 1 0
0.1 1 0
3.69793e-12 1 0
-0.1 1 0
-0.2 1 0
-0.3 1 0
-0.4 1 0
-0.5 1 0
-0.6 1 0
-0.7 1 0
-0.8 1 0
-0.9 1 0
-1 0.907779 0
-1 0.822362 0
-1 0.743247 0
-1 0.669968 0
-1 0.602096 0
-1 0.539231 0
-1 0.481004 0
-1 0.427073 0
-1 0.377121 0
-1 0.330854 0
-1 0.288001 0
-1 0.248309 0
-1 0.211545 0
-1 0.177494 0
-1 0.145955 0
-1 0.116743 0
-1 0.0896856 0
-1 0.0646247 0
-1 0.0414128 0
-1 0.0199133 0
0.0182781 0.00745351 0
0.0366672 0.0146286 0
0.0551632 0.0215237 0
0.0737617 0.0281372 0
0.0924585 0.0344675 0
0.111249 0.0405131 0
0.13013 0.0462728 0
0.149095 0.0517451 0
0.168142 0.0569289 0
0.187265 0.0618228 0
0.20646 0.0664258 0
0.225723 0.0707368 0
0.245049 0.0747549 0
0.264434 0.078479 0
0.283873 0.0819084 0
0.303362 0.0850422 0
0.322896 0.0878798 0
0.342472 0.0904204 0
0.362083 0.0926635 0
0.381726 0.0946086 0
0.401397 0.0962552 0
0.42109 0.0976029 0
0.440802 0.0986514 0
0.460527 0.0994006 0
0.480261 0.0998501 0
0.5 0.1 0
0.519739 0.0998501 0
0.539473 0.0994006 0
0.559198 0.0986514 0
0.57891 0.0976029 0
0.598603 0.0962552 0
0.618274 0.0946086 0
0.637917 0.0926635 0
0.657528 0.0904204 0
0.677104 0.0878798 0
0.696638 0.0850422 0
0.716127 0.0819084 0
0.735566 0.078479 0
0.754951 0.0747549 0
0.774277 0.0707368 0
0.79354 0.0664258 0
0.812735 0.0618228 0
0.831858 0.0569289 0
0.850905 0.0517451 0
0.86987 0.0462728 0
0.888751 0.0405131 0
0.907542 0.0344675 0
0.926238 0.0281372 0
0.944837 0.0215237 0
0.963333 0.0146286 0
0.981722 0.00745351 0
-1 0.907779 0.1
-1 0.822362 0.1
-1 0.743247 0.1
-1 0.669968 0.1
-1 0.602096 0.1
-1 0.539231 0.1
-1 0.481004 0.1
-1 0.427073 0.1
-1 0.377121 0.1
-1 0.330854 0.1
-1 0.288001 0.1
-1 0.248309 0.1
-1 0.211545 0.1
-1 0.177494 0.1
-1 0.145955 0.1
-1 0.116743 0.1
-1 0.0896856 0.1
-1 0.0646247 0.1
-1 0.0414128 0.1
-1 0.0199133 0.1
-0.98 0 0.1
-0.96 0 0.1
-0.94 0 0.1
-0.92 0 0.1
-0.9 0 0.1
-0.88 0 0.1
-0.86 0 0.1
-0.84 0 0.1
-0.82 0 0.1
-0.8 0 0.1
-0.78 0 0.1
-0.76 0 0.1
-0.74 0 0.1
-0.72 0 0.1
-0.7 0 0.1
-0.68 0 0.1
-0.66 0 0.1
-0.64 0 0.1
-0.62 0 0.1
-0.6 0 0.1
-0.58 0 0.1
-0.56 0 0.1
-0.54 0 0.1
-0.52 0 0.1
-0.5 0 0.1
-0.48 0 0.1
-0.46 0 0.1
-0.44 0 0.1
-0.42 0 0.1
-0.4 0 0.1
-0.38 0 0.1
-0.36 0 0.1
-0.34 0 0.1
-0.32 0 0.1
-0.3 0 0.1
-0.28 0 0.1
-0.26 0 0.1
-0.24 0 0.1
-0.22 0 0.1
-0.2 0 0.1
-0.18 0 0.1
-0.16 0 0.1
-0.14 0 0.1
-0.12 0 0.1
-0.1 0 0.1
-0.08 0 0.1
-0.06 0 0.1
-0.04 0 0.1
-0.02 0 0.1
0.0182781 0.00745351 0.1
0.0366672 0.0146286 0.1
0.0551632 0.0215237 0.1
0.0737617 0.0281372 0.1
0.0924585 0.0344675 0.1
0.111249 0.0405131 0.1
0.13013 0.0462728 0.1
0.149095 0.0517451 0.1
0.168142 0.0569289 0.1
0.187265 0.0618228 0.1
0.20646 0.0664258 0.1
0.225723 0.0707368 0.1
0.245049 0.0747549 0.1
0.264434 0.078479 0.1
0.283873 0.0819084 0.1
0.303362 0.0850422 0.1
0.322896 0.0878798 0.1
0.342472 0.0904204 0.1
0.362083 0.0926635 0.1
0.381726 0.0946086 0.1
0.401397 0.0962552 0.1
0.42109 0.0976029 0.1
0.440802 0.0986514 0.1
0.460527 0.0994006 0.1
0.480261 0.0998501 0.1
0.5 0.1 0.1
0.519739 0.0998501 0.1
0.539473 0.0994006 0.1
0.559198 0.0986514 0.1
0.57891 0.0976029 0.1
0.598603 0.0962552 0.1
0.618274 0.0946086 0.1
0.637917 0.0926635 0.1
0.657528 0.0904204 0.1
0.677104 0.0878798 0.1
0.696638 0.0850422 0.1
0.716127 0.0819084 0.1
0.735566 0.078479 0.1
0.754951 0.0747549 0.1
0.774277 0.0707368 0.1
0.79354 0.0664258 0.1
0.812735 0.0618228 0.1
0.831858 0.0569289 0.1
0.850905 0.0517451 0.1
0.86987 0.0462728 0.1
0.888751 0.0405131 0.1
0.907542 0.0344675 0.1
0.926238 0.0281372 0.1
0.944837 0.0215237 0.1
0.963333 0.0146286 0.1
0.981722 0.00745351 0.1
1.02 0 0.1
1.04 0 0.1
1.06 0 0.1
1.08 0 0.1
1.1 0 0.1
1.12 0 0.1
1.14 0 0.1
1.16 0 0.1
1.18 0 0.1
1.2 0 0.1
1.22 0 0.1
1.24 0 0.1
1.26 0 0.1
1.28 0 0.1
1.3 0 0.1
1.32 0 0.1
1.34 0 0.1
1.36 0 0.1
1.38 0 0.1
1.4 0 0.1
1.42 0 0.1
1.44 0 0.1
1.46 0 0.1
1.48 0 0.1
1.5 0 0.1
1.52 0 0.1
1.54 0 0.1
1.56 0 0.1
1.58 0 0.1
1.6 0 0.1
1.62 0 0.1
1.64 0 0.1
1.66 0 0.1
1.68 0 0.1
1.7 0 0.1
1.72 0 0.1
1.74 0 0.1
1.76 0 0.1
1.78 0 0.1
1.8 0 0.1
1.82 0 0.1
1.84 0 0.1
1.86 0 0.1
1.88 0 0.1
1.9 0 0.1
1.92 0 0.1
1.94 0 0.1
1.96 0 0.1
1.98 0 0.1
2 0.0199133 0.1
2 0.0414128 0.1
2 0.0646247 0.1
2 0.0896856 0.1
2 0.116743 0.1
2 0.145955 0.1
2 0.177494 0.1
2 0.211545 0.1
2 0.248309 0.1
2 0.288001 0.1
2 0.330854 0.1
2 0.377121 0.1
2 0.427073 0.1
2 0.481004 0.1
2 0.539231 0.1
2 0.602096 0.1
2 0.669968 0.1
2 0.743247 0.1
2 0.822362 0.1
2 0.907779 0.1
1.9 1 0.1
1.8 1 0.1
1.7 1 0.1
1.6 1 0.1
1.5 1 0.1
1.4 1 0.1
1.3 1 0.1
1.2 1 0.1
1.1 1 0.1
1 1 0.1
0.9 1 0.1
0.8 1 0.1
0.7 1 0.1
0.6 1 0.1
0.5 1 0.1
0.4 1 0.1
0.3 1 0.1
0.2 1 0.1
0.1 1 0.1
3.69793e-12 1 0.1
-0.1 1 0.1
-0.2 1 0.1
-0.3 1 0.1
-0.4 1 0.1
-0.5 1 0.1
-0.6 1 0.1
-0.7 1 0.1
-0.8 1 0.1
-0.9 1 0.1
1.08758 0.0158154 0
-0.0898513 0.0203294 0
0.0966181 0.0537636 0
0.90205 0.0548881 0
1.21055 0.0202058 0
-0.209811 0.0159577 0
1.3305 0.0176902 0
-0.33 0.0173205 0
1.45324 0.0148141 0
-0.448654 0.0159854 0
1.56842 0.0191785 0
-0.569936 0.0166364 0
0.193292 0.0805369 0
0.805051 0.0813623 0
0.709096 0.100353 0
0.288591 0.0996656 0
0.390184 0.111848 0
0.61033 0.111742 0
0.488809 0.116278 0
1.67175 0.0169692 0
-0.67 0.0169809 0
-0.955017 0.454039 0
1.95131 0.44569 0
1.74981 0.0168753 0
-0.75 0.0173205 0
-0.968032 0.266538 0
1.96871 0.266267 0
0.978232 0.0305687 0
0.0208675 0.026451 0
-0.150454 0.91842 0
1.13854 0.907437 0
1.45012 0.904365 0
-0.445923 0.908903 0
-0.853423 0.0157019 0
1.84881 0.016319 0
0.853689 0.915652 0
0.153944 0.912184 0
0.545151 0.914125 0
0.549913 0.115152 0
1.51 0.0173205 0
-0.506989 0.01651 0
1.27 0.0173205 0
1.14976 0.0173333 0
-0.268171 0.0206442 0
-0.150501 0.0153244 0
-0.391384 0.0153993 0
1.38886 0.0171544 0
-0.973694 0.161724 0
1.97441 0.162392 0
-0.945221 0.633523 0
1.94544 0.63312 0
1.91008 0.0186068 0
-0.91 0.0169616 0
-0.030664 0.0194327 0
1.03074 0.0165456 0
-0.966065 0.353575 0
1.96128 0.359765 0
1.93879 0.781254 0
-0.937057 0.781882 0
-0.980746 0.080709 0
1.9772 0.0760699 0
0.058735 0.0409372 0
0.355202 0.913001 0
0.86356 0.0661005 0
0.134223 0.0651111 0
0.941972 0.0397386 0
-0.653034 0.915003 0
1.65328 0.904589 0
0.770126 0.0881325 0
0.232946 0.0902008 0
0.330582 0.105648 0
0.670612 0.108365 0
0.428707 0.116145 0
1.80993 0.016629 0
-0.810168 0.0172178 0
-0.71 0.0173205 0
1.63047 0.0175504 0
1.70842 0.0169661 0
-0.628824 0.0181787 0
-0.949815 0.0133898 0
1.95 0.0173205 0
1.85542 0.907891 0
-0.85 0.913397 0
1.9833 0.0307692 0
-0.983315 0.0309709 0
-0.750025 0.916468 0
-0.701107 0.836904 0
-0.607741 0.836428 0
-0.656448 0.759827 0
-0.572936 0.758144 0
-0.61411 0.691195 0
-0.539534 0.689068 0
-0.578542 0.626111 0
-0.507461 0.624216 0
-0.544001 0.566638 0
-0.477696 0.564279 0
-0.511582 0.51001 0
-0.451689 0.507147 0
-0.481834 0.457732 0
-0.426137 0.454624 0
-0.453236 0.407539 0
-0.398845 0.406233 0
-0.507958 0.409496 0
-0.368427 0.460177 0
-0.344602 0.405209 0
-0.315696 0.447824 0
-0.294128 0.402169 0
-0.262844 0.444518 0
-0.241968 0.388746 0
-0.209878 0.439557 0
-0.185184 0.391135 0
-0.156687 0.437338 0
-0.133719 0.390776 0
-0.104405 0.434306 0
-0.0818745 0.388334 0
-0.0528785 0.431165 0
-0.0305984 0.385639 0
-0.00180552 0.427863 0
0.0194564 0.382608 0
0.0485809 0.42449 0
0.0701962 0.37973 0
0.0985483 0.421145 0
0.119893 0.377339 0
0.147837 0.417911 0
0.172552 0.36751 0
0.197018 0.412597 0
0.221203 0.37141 0
0.24512 0.409646 0
-0.48178 0.364657 0
-0.531053 0.364782 0
-0.0599102 0.344151 0
-0.324909 0.359566 0
0.266181 0.368462 0
0.292132 0.407649 0
0.311992 0.365779 0
0.338918 0.404821 0
0.357567 0.355909 0
0.384723 0.40053 0
0.404675 0.359681 0
0.430617 0.398558 0
0.450457 0.35827 0
0.474237 0.395182 0
0.496746 0.34898 0
0.520548 0.397931 0
0.542071 0.353121 0
0.566011 0.389914 0
0.585061 0.350856 0
0.609352 0.38696 0
0.629069 0.348168 0
0.655979 0.391217 0
0.67472 0.346182 0
0.699346 0.381414 0
0.719333 0.341965 0
0.743718 0.377547 0
0.764028 0.339036 0
0.788201 0.373582 0
0.807659 0.336101 0
0.832821 0.372249 0
0.852309 0.334017 0
0.877785 0.370339 0
0.897875 0.331141 0
0.922904 0.366281 0
0.943173 0.327335 0
0.968282 0.363358 0
0.989029 0.324222 0
1.01391 0.361511 0
1.03465 0.321428 0
1.05949 0.358447 0
1.08389 0.312052 0
1.10575 0.355104 0
1.12889 0.31562 0
1.15067 0.353235 0
1.17157 0.312819 0
1.19626 0.349369 0
1.21618 0.309863 0
1.2416 0.346914 0
1.26131 0.30715 0
1.28691 0.344312 0
1.30571 0.303752 0
1.33144 0.341222 0
1.35018 0.300911 0
1.3758 0.338308 0
1.39501 0.298931 0
1.42015 0.335235 0
1.43904 0.296349 0
1.46355 0.330194 0
1.48256 0.293347 0
1.50685 0.326967 0
1.52589 0.29055 0
1.54996 0.325305 0
1.56909 0.287929 0
[...]
CELL_DATA 3694
SCALARS rho float
LOOKUP_TABLE default
0.734391
0.669303
0.803639
0.812177
0.825942
0.804884
0.791332
0.799447
0.809226
0.802467
0.816553
0.816546
0.839913
0.789038
0.800299
0.749199
0.80313
0.802713
0.759062
0.849579
0.816598
0.822361
0.694898
0.803215
0.691456
0.838766
0.719568
0.805698
0.836399
0.798131
0.798336
0.71822
0.803273
0.824125
0.802497
0.796641
0.836728
0.822162
0.824215
0.778071
0.804435
0.817077
0.833733
0.824689
0.804874
0.812061
0.800233
0.66138
0.678176
0.718757
0.801883
0.802844
0.846334
0.801833
0.625515
0.837626
0.802308
0.818373
0.832402
0.753309
0.795988
0.814234
0.841582
0.799061
0.842089
0.83025
0.807108
0.812708
0.736526
0.857872
0.80306
0.80737
0.822384
0.803094
0.823807
0.802816
0.813924
0.799204
0.813128
0.802577
0.711775
0.817801
0.802114
0.776675
0.809107
0.799152
0.817715
0.71292
0.736349
0.824534
0.79851
0.802143
0.819882
0.814803
0.673793
0.806286
0.722217
0.817048
0.811532
0.839431
0.813826
0.761415
0.719261
0.809034
0.808546
0.81423
0.817024
0.806785
0.7146
0.813595
0.799021
0.720498
0.721466
0.822944
0.867516
0.801964
0.799063
0.811332
0.803045
0.801868
0.765434
0.822199
0.81904
0.7691
0.705084
0.75779
0.816698
0.776059
0.843109
0.698482
0.766895
0.800104
0.807701
0.777112
0.800344
0.794957
0.805236
0.802222
0.797481
0.813759
0.813013
0.708963
0.816213
0.8128
0.756923
0.663876
0.675991
0.797605
0.815249
0.812863
0.743121
0.802537
0.552116
0.777882
0.682423
0.762346
0.712657
0.783047
0.604729
0.79276
0.837263
0.643326
0.781656
0.73624
0.843626
0.550387
0.816966
0.799926
0.802313
0.672183
0.801437
0.661083
0.857393
0.531396
0.799651
0.629804
0.871901
0.832764
0.82002
0.745029
0.813366
0.7221
0.826328
0.737318
0.647128
0.802997
0.671528
0.822771
0.801513
0.850516
0.791499
0.705506
0.813945
0.797877
0.741014
0.852347
0.811155
0.84843
0.735769
0.741649
0.770438
0.793178
0.831154
0.833999
0.81664
0.813357
0.667522
0.804404
0.725577
0.803085
0.706508
0.796802
0.79542
0.801283
0.825113
0.762657
0.82985
0.748739
0.825053
0.81926
0.815202
0.852647
0.829203
0.701062
0.826477
0.689039
0.787453
0.809365
0.850684
0.829639
0.807574
0.794056
0.744103
0.816919
0.836206
0.816731
0.713668
0.799144
0.692895
0.791566
0.795275
0.809338
0.635361
0.807314
0.756771
0.797612
0.803022
0.758403
0.814402
0.865245
0.784051
0.693192
0.804191
0.801123
0.645723
0.791594
0.777444
0.802259
0.838562
0.813991
0.606481
0.814428
0.809923
0.796182
0.814711
0.802499
0.815137
0.813999
0.835377
0.755409
0.801672
0.834341
0.809952
0.803062
0.79586
0.814154
0.728342
0.585786
0.816181
0.829391
0.819798
0.803917
0.678855
0.814708
0.814431
0.816208
0.711375
0.796696
0.81426
0.53496
0.802715
0.868836
0.674795
0.755234
0.838217
0.826517
0.813993
0.708268
0.809202
0.814254
0.803617
0.801416
0.811895
0.836246
0.816819
0.766705
0.806813
0.802948
0.64517
0.820396
0.827319
0.67007
0.790368
0.818221
0.82067
0.677666
0.687196
0.820821
0.823524
0.809326
0.73374
0.705771
0.712506
0.731139
0.819703
0.775881
0.803962
0.730958
0.741967
0.821936
0.809574
0.818623
0.769186
0.814401
0.813078
0.816689
0.81531
0.802637
0.807319
0.803417
0.693213
0.802609
0.812547
0.692423
0.806653
0.804909
0.818812
0.785481
0.805711
0.791549
0.814142
0.820386
0.819569
0.797743
0.678624
0.708854
0.799208
0.810666
0.620272
0.80369
0.806989
0.817026
0.742229
0.804077
0.815728
0.810852
0.817173
0.804841
0.797081
0.763607
0.803815
0.843101
0.819571
0.707932
0.803397
0.70057
0.705152
0.802868
0.61342
0.770112
0.784471
0.807866
0.812655
0.824781
0.816487
0.812171
0.819579
0.827742
0.802742
0.76376
0.809546
0.657479
0.818637
0.75647
0.726546
0.684893
0.813219
0.853682
0.818664
0.808282
0.821852
0.814593
0.78656
0.757413
0.808935
0.692318
0.790948
0.843181
0.826388
0.800646
0.863715
0.813161
0.815942
0.816907
0.830828
0.627546
0.798074
0.729822
0.79753
0.735105
0.818518
0.80846
0.786697
0.686055
0.814049
0.829797
0.811181
0.802755
0.803625
0.823823
0.80367
0.709105
0.790089
0.803035
0.814005
0.813364
0.81197
0.871369
0.827291
0.809173
0.83162
0.680992
0.822859
0.837177
0.815552
0.62649
0.814567
0.808964
0.845099
0.82079
0.802839
0.590869
0.80988
0.694364
0.805919
0.802818
0.811769
0.812788
0.825002
0.80489
0.810987
0.815396
0.722622
0.862623
0.801788
0.849814
0.815782
0.571996
0.803727
0.796464
0.810922
0.817035
0.644813
0.802739
0.809427
0.812778
0.806915
0.793664
0.814915
0.816695
0.795553
0.803436
0.820883
0.836547
0.728857
0.806082
0.809226
0.812482
0.681532
0.805012
0.815441
0.798934
0.803875
0.517276
0.832465
0.76282
0.813905
0.817117
0.830406
0.845901
0.815513
0.810909
0.714435
0.798584
0.852086
0.807828
0.709229
0.799935
0.80255
0.871959
0.844911
0.818465
0.801897
0.809461
0.75485
0.814736
0.813612
0.583327
0.802458
0.72813
0.749931
0.802896
0.810705
0.780762
0.82094
0.814564
0.837642
0.815387
0.800307
0.808386
0.738737
0.736061
0.803991
0.807471
0.820588
0.801995
0.751496
0.687305
0.812827
0.814947
0.813788
0.593169
0.812952
0.816205
0.824202
0.802875
0.808149
0.819113
0.81164
0.839028
0.8029
0.81246
0.823243
0.814914
0.817322
0.821083
0.687114
0.783924
0.79434
0.802984
0.847253
0.801992
0.802243
0.634118
0.8104
0.812892
0.810539
0.818461
0.805597
0.812396
0.726396
0.843239
0.70812
0.800149
0.816718
0.807045
0.648845
0.684813
0.814916
0.805494
0.804034
0.784812
0.801454
0.828801
0.812919
0.80481
0.801962
0.811669
0.618561
0.811712
0.802834
0.696423
0.814974
0.614583
0.783338
0.814886
0.837461
0.80533
0.811794
0.791842
0.795026
0.80383
0.801355
0.811345
0.810907
0.808372
0.803166
0.757137
0.803953
0.811821
0.811276
0.815743
0.810847
0.815278
0.81421
0.833926
0.737038
0.806468
0.815003
0.80223
0.540452
0.680313
0.810847
0.812554
0.814532
0.780142
0.80792
0.812381
0.802982
0.799766
0.802557
0.819489
0.820311
0.814293
0.784241
0.807617
0.805083
0.535195
0.773468
0.756658
0.806068
0.734962
0.673557
0.797295
0.767145
0.827264
0.814198
0.813985
0.808185
0.538236
0.815176
0.581873
0.69382
0.824164
0.869491
0.740371
0.815982
0.852559
0.693881
0.814763
0.808826
0.814694
0.80719
0.655144
0.854243
0.73731
0.728672
0.803173
0.80445
0.799329
0.833242
0.814492
0.689968
0.815051
0.800185
0.689448
0.83913
0.797843
0.62075
0.772445
0.815043
0.807317
0.814127
0.784268
0.723662
0.769362
0.836734
0.687743
0.815304
0.816811
0.826451
0.764721
0.821537
0.690131
0.804441
0.659552
0.699898
0.800042
0.822348
0.787866
0.813844
0.814725
0.814529
0.813257
0.575265
0.802483
0.814242
0.74271
0.809905
0.814767
0.81112
0.715983
0.693805
0.740668
0.618337
0.807099
0.680449
0.814987
0.8018
0.814302
0.836727
0.686141
0.804022
0.819291
0.832129
0.73666
0.781216
0.764607
0.772532
0.81179
0.558416
0.669906
0.814618
0.805185
0.811773
0.804425
0.711575
0.77979
0.723121
0.760586
0.799363
0.831491
0.812062
0.690441
0.822889
0.817403
0.810291
0.683753
0.694553
0.680304
0.871899
0.815243
0.816068
0.60749
0.710596
0.640184
0.803268
0.800226
0.67078
0.811747
0.824115
0.748137
0.799177
0.728638
0.813495
0.691608
0.81402
0.810311
0.800971
0.80304
0.825193
0.743632
0.815092
0.814264
0.78004
0.549358
0.815896
0.810319
0.757197
0.813139
0.747594
0.802726
0.826031
0.654545
0.817564
0.802656
0.809848
0.581354
0.619081
0.734462
0.806235
0.811485
0.810204
0.820544
0.814393
0.815348
0.703663
0.801841
0.812561
0.82578
0.702694
0.724798
0.811584
0.811407
0.695148
0.814162
0.773942
0.702906
0.811735
0.695115
0.803721
0.661402
0.80285
0.730423
0.665366
0.810572
0.785927
0.743463
0.629979
0.839771
0.820933
0.81435
0.769832
0.813465
0.799952
0.785643
0.799733
0.801575
0.814609
0.730424
0.809552
0.799866
0.818215
0.5968
0.801191
0.812365
0.813335
0.811004
0.811572
0.745486
0.802535
0.763707
0.750006
0.818064
0.644379
0.818006
0.817121
0.803041
0.815022
0.816254
0.719075
0.768451
0.821603
0.784826
0.803638
0.815453
0.874879
0.817493
0.797742
0.816212
0.814655
0.793815
0.817923
0.816382
0.772839
0.696139
0.840846
0.796859
0.803132
0.82242
0.780656
0.817278
0.824647
0.8181
0.816288
0.870307
0.80306
0.804735
0.817699
0.803057
0.814783
0.806812
0.734679
0.814711
0.819167
0.753917
0.706593
0.814599
0.842856
0.822187
0.64979
0.821245
0.7733
0.807752
0.801771
0.728882
0.803093
0.798462
0.815327
0.816376
0.691536
0.702972
0.802089
0.787409
0.801353
0.824489
0.722453
0.814262
0.802299
0.799938
0.823055
0.814759
0.711577
0.815037
0.762644
0.802341
0.832404
0.803255
0.772801
0.797796
0.794562
0.814404
0.569453
0.81421
0.696099
0.674948
0.803361
0.818992
0.814271
0.802456
0.814427
0.807982
0.722929
0.787387
0.856857
0.802983
0.833187
0.807278
0.539425
0.762239
0.779206
0.645808
0.736703
0.576424
0.819761
0.812535
0.813498
0.802355
0.766566
0.683552
0.763713
0.752092
0.781769
0.81418
0.844645
0.818829
0.805695
0.819142
0.823393
0.802522
0.807306
0.703111
0.803022
0.755725
0.808531
0.797584
0.750778
0.821932
0.7882
0.803434
0.789223
0.840593
0.727142
0.800759
0.799211
0.804765
0.616266
0.814802
0.814677
0.821385
0.628751
0.814553
0.814564
0.798301
0.803743
0.793028
0.774638
0.805905
0.794062
0.81531
0.753184
0.803293
0.875091
0.762113
0.747132
0.806489
0.78383
0.842235
0.799385
0.778909
0.814926
0.798054
0.792342
0.807918
0.825078
0.835323
0.799602
0.571784
0.819904
0.827797
0.771877
0.8303
0.83786
0.822359
0.825807
0.807126
0.832521
0.826353
0.783534
0.808665
0.81071
0.805779
0.822174
0.803283
0.827175
0.79273
0.802828
0.80557
0.725487
0.806937
0.559021
0.817371
0.824812
0.828145
0.805473
0.817826
0.823388
0.819218
0.820255
0.838395
0.832669
0.787322
0.800213
0.821159
0.814746
0.816328
0.800035
0.806236
0.865315
0.819468
0.847022
0.814447
0.800462
0.824419
0.799569
0.833222
0.812808
0.814783
0.805137
0.72481
0.802785
0.804386
0.814366
0.80321
0.801639
0.821889
0.804392
0.804039
0.777601
0.819531
0.716338
0.813801
0.779622
0.758264
0.803434
0.813086
0.818799
0.713717
0.818738
0.815003
0.826351
0.816478
0.789222
0.815632
0.846997
0.832686
0.814442
0.811528
0.801426
0.742753
0.675335
0.814355
0.820252
0.770169
0.813765
0.807561
0.811139
0.805223
0.798212
0.775825
0.802287
0.799835
0.841088
0.816762
0.811152
0.806064
0.601589
0.72979
0.802014
0.782739
0.803896
0.815061
0.805707
0.815398
0.779465
0.81443
0.804591
0.81001
0.803519
0.81723
0.80312
0.815177
0.810231
0.815184
0.812182
0.71599
0.813854
0.814981
0.595285
0.814188
0.796542
0.802549
0.858476
0.817754
0.810032
0.872262
0.81461
0.814688
0.816182
0.818219
0.814641
0.763783
0.830098
0.801063
0.802993
0.813932
0.814548
0.816059
0.81439
0.812805
0.822532
0.803803
0.811872
0.808832
0.814808
0.819756
0.814408
0.81114
0.818668
0.80871
0.697533
0.657594
0.802449
0.808214
0.803153
0.810632
0.817763
0.816492
0.802717
0.803463
0.800307
0.800608
0.816263
0.844041
0.817913
0.811155
0.817866
0.81753
0.845641
0.816853
0.820736
0.785315
0.815167
0.806586
0.800869
0.791746
0.810162
0.817874
0.814237
0.814478
0.835785
0.805505
0.811946
0.815983
0.821287
0.803322
0.802997
0.805311
0.810188
0.814358
0.801357
0.802445
0.816235
0.822274
0.800533
0.572001
0.804064
0.796381
0.816883
0.79838
0.802592
0.747555
0.840416
0.802542
0.799478
0.834334
0.829227
0.809989
0.825672
0.800208
0.817204
0.816828
0.818064
0.803419
0.817642
0.726435
0.821721
0.811287
0.799807
0.812769
0.819905
0.798889
0.803787
0.781682
0.814922
0.814641
0.814752
0.817853
0.806201
0.816381
0.815058
0.825537
0.821747
0.83722
0.805685
0.694228
0.817289
0.840257
0.819132
0.804357
0.79979
0.803108
0.815638
0.813866
0.815272
0.743266
0.736754
0.800454
0.802764
0.814942
0.815908
0.798071
0.650685
0.707376
0.807792
0.76893
0.815101
0.701915
0.80295
0.72722
0.803103
0.819607
0.803039
0.816618
0.812035
0.798374
0.80833
0.792833
0.829626
0.814785
0.800916
0.803256
0.815155
0.821044
0.748446
0.822136
0.80352
0.783
0.814656
0.803615
0.810112
0.813792
0.814228
0.834853
0.792073
0.798675
0.814529
0.758249
0.80634
0.813935
0.800794
0.815217
0.840946
0.801997
0.842842
0.808141
0.789808
0.811018
0.802535
0.851625
0.788176
0.803029
0.815244
0.831095
0.808126
0.812903
0.814941
0.802628
0.802555
0.825706
0.782101
0.813463
0.814517
0.640884
0.814724
0.711718
0.81737
0.837811
0.823901
0.803657
0.813704
0.814357
0.724702
0.813884
0.800434
0.801367
0.800577
0.814963
0.863559
0.800983
0.800673
0.785038
0.840197
0.827719
0.818907
0.812455
0.745967
0.802859
0.803259
0.729869
0.798993
0.713386
0.809672
0.80078
0.675126
0.880057
0.701442
0.771838
0.800813
0.742242
0.808116
0.798557
0.802948
0.658969
0.796511
0.783738
0.798588
0.727131
0.817982
0.821794
0.884399
0.809194
0.830822
0.643659
0.799567
0.786259
0.743118
0.750339
0.768095
0.704404
0.802943
0.798918
0.803017
0.762942
0.6255
0.811167
0.611005
0.820494
0.82234
0.811236
0.736188
0.811485
0.794695
0.818434
0.782357
0.806431
0.79691
0.809186
0.715725
0.801215
0.721337
0.801061
0.7984
0.683969
0.803368
0.814246
0.814311
0.802973
0.760474
0.814086
0.732264
0.68961
0.80211
0.814307
0.874209
0.814202
0.813607
0.880411
0.865215
0.830464
0.718217
0.801746
0.811627
0.820865
0.79731
0.679013
0.721777
0.673727
0.802261
0.705057
0.76784
0.799078
0.613385
0.688125
0.835689
0.772856
0.744453
0.829937
0.758392
0.769028
0.623486
0.730412
0.784436
0.819053
0.869293
0.837386
0.814672
0.79397
0.799345
0.714723
0.814514
0.692976
0.79679
0.814283
0.783284
0.761818
0.80104
0.78213
0.802023
0.800476
0.810858
0.810813
0.866906
0.563839
0.535573
0.802192
0.806367
0.697021
0.809617
0.802638
0.837099
0.803328
0.802226
0.565056
0.551535
0.808149
0.811514
0.814423
0.724872
0.803045
0.809881
0.68306
0.81052
0.80255
0.812906
0.803082
0.799967
0.802096
0.813354
0.802831
0.816754
0.803057
0.861802
0.813713
0.802371
0.721182
0.668476
0.814478
0.58306
0.812069
0.809731
0.835424
0.813024
0.802872
0.810477
0.812399
0.812222
0.814028
0.801432
0.853459
0.856155
0.801991
0.653293
0.807704
0.822133
0.799253
0.803051
0.819336
0.732671
0.803159
0.824658
0.820691
0.81482
0.814308
0.766007
0.745387
0.800458
0.83351
0.802494
0.813625
0.804179
0.803375
0.804714
0.813033
0.808547
0.798344
0.806648
0.805716
0.824298
0.806462
0.806064
0.816698
0.806552
0.803296
0.812125
0.802863
0.802718
0.805596
0.80753
0.812267
0.773129
0.805124
0.802587
0.81419
0.79944
0.803576
0.806632
0.831306
0.804832
0.647732
0.800562
0.814508
0.804467
0.814509
0.762437
0.814268
0.749832
0.803509
0.802041
0.803879
0.818651
0.850664
0.804178
0.803173
0.74692
0.829013
0.814186
0.819628
0.824665
0.814024
0.735467
0.817261
0.720544
0.800856
0.826975
0.802226
0.69773
0.825191
0.81403
0.815438
0.823429
0.814625
0.772849
0.816275
0.645648
0.708614
0.814283
0.821893
0.673039
0.818474
0.657553
0.820685
0.806446
0.815758
0.803084
0.805232
0.814156
0.831216
0.824849
0.669787
0.812264
0.84158
0.781103
0.845875
0.800106
0.703954
0.838021
0.818703
0.835031
0.685937
0.68071
0.832332
0.653847
0.830018
0.814302
0.82797
0.806075
0.826236
0.787388
0.824717
0.823311
0.705858
0.865373
0.822104
0.821083
0.823367
0.758508
0.802695
0.520845
0.802499
0.820193
0.812774
0.804528
0.825282
0.814228
0.797679
0.819411
0.802881
0.677174
0.792152
0.83387
0.813629
0.714449
0.79862
0.821325
0.573606
0.813995
0.814839
0.802416
0.8097
0.724955
0.817308
0.802925
0.803345
0.795747
0.793331
0.797691
0.794529
0.803212
0.81162
0.819088
0.813356
0.570667
0.892836
0.704295
0.797678
0.738613
0.791216
0.814206
0.814957
0.814835
0.602883
0.818348
0.816986
0.803708
0.817354
0.836212
0.839185
0.782623
0.798267
0.7993
0.723734
0.751878
0.814489
0.763427
0.814944
0.818391
0.814055
0.813271
0.801838
0.774654
0.811833
0.815388
0.727691
0.810373
0.815162
0.817431
0.807589
0.80925
0.763981
0.81382
0.807972
0.803056
0.807219
0.614936
0.806282
0.804129
0.805707
0.820698
0.845247
0.804496
0.773541
0.80507
0.771283
0.819641
0.805202
0.811984
0.814214
0.849856
0.803266
0.743962
0.81957
0.814486
0.726355
0.800603
0.815531
0.758139
0.811856
0.567392
0.806359
0.684875
0.800902
0.810653
0.811772
0.816539
0.804024
0.815154
0.817072
0.800816
0.804012
0.844006
0.81545
0.796002
0.815547
0.801612
0.801179
0.800084
0.801038
0.80653
0.813852
0.801402
0.769255
0.81777
0.812469
0.808666
0.814225
0.585014
0.803139
0.813464
0.814541
0.786889
0.747509
0.719118
0.811721
0.814069
0.82539
0.788743
0.601407
0.770988
0.638203
0.816044
0.745091
0.811439
0.829759
0.693172
0.799463
0.833379
0.748533
0.800434
0.803054
0.814854
0.801834
0.698063
0.800511
0.546149
0.801565
0.802289
0.802065
0.558989
0.802817
0.803291
0.803047
0.727883
0.736773
0.803294
0.775904
0.8149
0.721437
0.705921
0.814284
0.801167
0.75198
0.853833
0.813071
0.811501
0.668323
0.802644
0.800386
0.800277
0.802345
0.655334
0.803093
0.814549
0.65328
0.684499
0.805597
0.789937
0.814369
0.822739
0.81429
0.814489
0.815745
0.803516
0.814447
0.814231
0.812942
0.828922
0.802252
0.80164
0.810115
0.725567
0.809376
0.814086
0.862506
0.810489
0.636738
0.773946
0.802037
0.775819
0.815999
0.811113
0.829601
0.813754
0.864308
0.80166
0.813855
0.592031
0.815298
0.833434
0.802814
0.813487
0.623517
0.81471
0.802613
0.815956
0.802098
0.816844
0.815239
0.75455
0.803414
0.803058
0.834691
0.861606
0.819386
0.815369
0.725269
0.740495
0.802382
0.802884
0.811711
0.817402
0.799333
0.802717
0.818862
0.805901
0.80734
0.739373
0.802592
0.816856
0.813301
0.767765
0.760342
0.811081
0.796218
0.856677
0.718014
0.834142
0.81033
0.711928
0.799491
0.813711
0.787278
0.800529
0.799531
0.814309
0.776741
0.774303
0.812626
0.696523
0.798412
0.764891
0.814163
0.816578
0.801832
0.787018
0.737687
0.751597
0.773447
0.813865
0.818292
0.80515
0.653899
0.801595
0.795218
0.777592
0.809528
0.812198
0.799344
0.802893
0.631556
0.803747
0.804373
0.850935
0.80356
0.808816
0.83286
0.805055
0.809446
0.851873
0.61083
0.80389
0.815433
0.805231
0.804846
0.80553
0.804422
0.804515
0.804041
0.805611
0.806086
0.723689
0.8055
0.806771
0.806219
0.814422
0.807907
0.817964
0.803023
0.803378
0.813993
0.814179
0.809334
0.803289
0.81601
0.812856
0.809242
0.81533
0.707314
0.813185
0.831046
0.814174
0.853926
0.749101
0.807444
0.814213
0.800483
0.595344
0.803143
0.771814
0.821283
0.626154
0.814841
0.829039
0.813901
0.811298
0.801931
0.82666
0.818713
0.803414
0.764209
0.816397
0.758174
0.545075
0.813547
0.696005
0.693851
0.820175
0.827141
0.826936
0.815989
0.847163
0.568112
0.876234
0.805048
0.825421
0.823731
0.812277
0.680455
0.814087
0.822173
0.81569
0.800686
0.773497
0.822046
0.563744
0.812554
0.842784
0.803001
0.839199
0.820919
0.803216
0.667608
0.842873
0.819847
0.835988
0.800667
0.813251
0.80298
0.833332
0.802679
0.813164
0.830886
0.828721
0.821808
0.823732
0.830523
0.738963
0.659486
0.561512
0.826857
0.825315
0.766807
0.755821
0.805764
0.823869
0.846523
0.589084
0.822572
0.821466
0.820542
0.818989
0.803741
0.820571
0.655778
0.743345
0.819728
0.797049
0.869539
0.889929
0.776004
0.803336
0.668604
0.835226
0.729234
0.717091
0.818919
0.801437
0.783117
0.658379
0.802036
0.814321
0.788586
0.710084
0.799903
0.816944
0.797761
0.674035
0.823088
0.792565
0.815029
0.832818
0.814942
0.795102
0.815488
0.815241
0.785575
0.80381
0.709128
0.840334
0.792815
0.810482
0.781577
0.804201
0.694204
0.800642
0.813274
0.811912
0.810746
0.80922
0.808129
0.807372
0.805746
0.804637
0.806555
0.723717
0.805188
0.801284
0.79569
0.803153
0.844155
0.713753
0.803093
0.775801
0.883774
0.853853
0.797811
0.722247
0.803085
0.797499
0.717896
0.803163
0.801485
0.733177
0.803477
0.789327
0.796958
0.80088
0.736722
0.779047
0.80392
0.746342
0.763981
0.768695
0.801202
0.813969
0.808401
0.757833
0.75078
0.799352
0.812959
0.8032
0.79247
0.800941
0.928567
0.860292
0.817138
0.814096
0.723676
0.843975
0.746966
0.825755
0.816104
0.897984
0.814274
0.796813
0.587017
0.81431
0.796928
0.814349
0.797352
0.845243
0.518114
0.832385
0.801403
0.805398
0.804662
0.803561
0.855358
0.801101
0.816748
0.700804
0.648638
0.665783
0.814398
0.500032
0.797371
0.720834
0.841485
0.814289
0.556099
0.801609
0.813807
0.81347
0.718278
0.801492
0.522755
0.79683
0.814544
0.79695
0.802564
0.797191
0.814723
0.83357
0.803204
0.7979
0.815133
0.798165
0.815289
0.813593
0.798449
0.815465
0.813041
0.815671
0.798548
0.8159
0.678671
0.798741
0.816156
0.802972
0.79893
0.816415
0.696576
0.814307
0.797956
0.814237
0.797957
0.809388
0.837855
0.860997
0.800769
0.800016
0.817373
0.815117
0.799659
0.799283
0.86299
0.811783
0.817038
0.80984
0.849579
0.828026
0.816009
0.825242
0.845839
0.814242
0.80114
0.818629
0.811205
0.801564
0.814142
0.799716