# vtk DataFile Version 1.0
unstructured grid
ascii
DATASET UNSTRUCTURED_GRID
points 3920 float
-1 0 0
-1 1 0
2 0 0
2 1 0
0 0 0
1 0 0
-1 1 0.1
-1 0 0.1
0 0 0.1
1 0 0.1
2 0 0.1
2 1 0.1
-0.98 0 0
-0.96 0 0
-0.94 0 0
-0.92 0 0
-0.9 0 0
-0.88 0 0
-0.86 0 0
-0.84 0 0
-0.82 0 0
-0.8 0 0
-0.78 0 0
-0.76 0 0
-0.74 0 0
-0.72 0 0
-0.7 0 0
-0.68 0 0
-0.66 0 0
-0.64 0 0
-0.62 0 0
-0.6 0 0
-0.58 0 0
-0.56 0 0
-0.54 0 0
-0.52 0 0
-0.5 0 0
-0.48 0 0
-0.46 0 0
-0.44 0 0
-0.42 0 0
-0.4 0 0
-0.38 0 0
-0.36 0 0
-0.34 0 0
-0.32 0 0
-0.3 0 0
-0.28 0 0
-0.26 0 0
-0.24 0 0
-0.22 0 0
-0.2 0 0
-0.18 0 0
-0.16 0 0
-0.14 0 0
-0.12 0 0
-0.1 0 0
-0.08 0 0
-0.06 0 0
-0.04 0 0
-0.02 0 0
1.02 0 0
1.04 0 0
1.06 0 0
1.08 0 0
1.1 0 0
1.12 0 0
1.14 0 0
1.16 0 0
1.18 0 0
1.2 0 0
1.22 0 0
1.24 0 0
1.26 0 0
1.28 0 0
1.3 0 0
1.32 0 0
1.34 0 0
1.36 0 0
1.38 0 0
1.4 0 0
1.42 0 0
1.44 0 0
1.46 0 0
1.48 0 0
1.5 0 0
1.52 0 0
1.54 0 0
1.56 0 0
1.58 0 0
1.6 0 0
1.62 0 0
1.64 0 0
1.66 0 0
1.68 0 0
1.7 0 0
1.72 0 0
1.74 0 0
1.76 0 0
1.78 0 0
1.8 0 0
1.82 0 0
1.84 0 0
1.86 0 0
1.88 0 0
1.9 0 0
1.92 0 0
1.94 0 0
1.96 0 0
1.98 0 0
2 0.0199133 0
2 0.0414128 0
2 0.0646247 0
2 0.0896856 0
2 0.116743 0
2 0.145955 0
2 0.177494 0
2 0.211545 0
2 0.248309 0
2 0.288001 0
2 0.330854 0
2 0.377121 0
2 0.427073 0
2 0.481004 0
2 0.539231 0
2 0.602096 0
2 0.669968 0
2 0.743247 0
2 0.822362 0
2 0.907779 0
1.9 1 0
1.8 1 0
1.7 1 0
1.6 1 0
1.5 1 0
1.4 1 0
1.3 1 0
1.2 1 0
1.1 1 0
1 1 0
0.9 1 0
0.8 1 0
0.7 1 0
0.6 1 0
0.5 1 0
0.4 1 0
0.3 1 0
0.2 1 0
0.1 1 0
3.69793e-12 1 0
-0.1 1 0
-0.2 1 0
-0.3 1 0
-0.4 1 0
-0.5 1 0
-0.6 1 0
-0.7 1 0
-0.8 1 0
-0.9 1 0
-1 0.907779 0
-1 0.822362 0
-1 0.743247 0
-1 0.669968 0
-1 0.602096 0
-1 0.539231 0
-1 0.481004 0
-1 0.427073 0
-1 0.377121 0
-1 0.330854 0
-1 0.288001 0
-1 0.248309 0
-1 0.211545 0
-1 0.177494 0
-1 0.145955 0
-1 0.116743 0
-1 0.0896856 0
-1 0.0646247 0
-1 0.0414128 0
-1 0.0199133 0
0.0182781 0.00745351 0
0.0366672 0.0146286 0
0.0551632 0.0215237 0
0.0737617 0.0281372 0
0.0924585 0.0344675 0
0.111249 0.0405131 0
0.13013 0.0462728 0
0.149095 0.0517451 0
0.168142 0.0569289 0
0.187265 0.0618228 0
0.20646 0.0664258 0
0.225723 0.0707368 0
0.245049 0.0747549 0
0.264434 0.078479 0
0.283873 0.0819084 0
0.303362 0.0850422 0
0.322896 0.0878798 0
0.342472 0.0904204 0
0.362083 0.0926635 0
0.381726 0.0946086 0
0.401397 0.0962552 0
0.42109 0.0976029 0
0.440802 0.0986514 0
0.460527 0.0994006 0
0.480261 0.0998501 0
0.5 0.1 0
0.519739 0.0998501 0
0.539473 0.0994006 0
0.559198 0.0986514 0
0.57891 0.0976029 0
0.598603 0.0962552 0
0.618274 0.0946086 0
0.637917 0.0926635 0
0.657528 0.0904204 0
0.677104 0.0878798 0
0.696638 0.0850422 0
0.716127 0.0819084 0
0.735566 0.078479 0
0.754951 0.0747549 0
0.774277 0.0707368 0
0.79354 0.0664258 0
0.812735 0.0618228 0
0.831858 0.0569289 0
0.850905 0.0517451 0
0.86987 0.0462728 0
0.888751 0.0405131 0
0.907542 0.0344675 0
0.926238 0.0281372 0
0.944837 0.0215237 0
0.963333 0.0146286 0
0.981722 0.00745351 0
-1 0.907779 0.1
-1 0.822362 0.1
-1 0.743247 0.1
-1 0.669968 0.1
-1 0.602096 0.1
-1 0.539231 0.1
-1 0.481004 0.1
-1 0.427073 0.1
-1 0.377121 0.1
-1 0.330854 0.1
-1 0.288001 0.1
-1 0.248309 0.1
-1 0.211545 0.1
-1 0.177494 0.1
-1 0.145955 0.1
-1 0.116743 0.1
-1 0.0896856 0.1
-1 0.0646247 0.1
-1 0.0414128 0.1
-1 0.0199133 0.1
-0.98 0 0.1
-0.96 0 0.1
-0.94 0 0.1
-0.92 0 0.1
-0.9 0 0.1
-0.88 0 0.1
-0.86 0 0.1
-0.84 0 0.1
-0.82 0 0.1
-0.8 0 0.1
-0.78 0 0.1
-0.76 0 0.1
-0.74 0 0.1
-0.72 0 0.1
-0.7 0 0.1
-0.68 0 0.1
-0.66 0 0.1
-0.64 0 0.1
-0.62 0 0.1
-0.6 0 0.1
-0.58 0 0.1
-0.56 0 0.1
-0.54 0 0.1
-0.52 0 0.1
-0.5 0 0.1
-0.48 0 0.1
-0.46 0 0.1
-0.44 0 0.1
-0.42 0 0.1
-0.4 0 0.1
-0.38 0 0.1
-0.36 0 0.1
-0.34 0 0.1
-0.32 0 0.1
-0.3 0 0.1
-0.28 0 0.1
-0.26 0 0.1
-0.24 0 0.1
-0.22 0 0.1
-0.2 0 0.1
-0.18 0 0.1
-0.16 0 0.1
-0.14 0 0.1
-0.12 0 0.1
-0.1 0 0.1
-0.08 0 0.1
-0.06 0 0.1
-0.04 0 0.1
-0.02 0 0.1
0.0182781 0.00745351 0.1
0.0366672 0.0146286 0.1
0.0551632 0.0215237 0.1
0.0737617 0.0281372 0.1
0.0924585 0.0344675 0.1
0.111249 0.0405131 0.1
0.13013 0.0462728 0.1
0.149095 0.0517451 0.1
0.168142 0.0569289 0.1
0.187265 0.0618228 0.1
0.20646 0.0664258 0.1
0.225723 0.0707368 0.1
0.245049 0.0747549 0.1
0.264434 0.078479 0.1
0.283873 0.0819084 0.1
0.303362 0.0850422 0.1
0.322896 0.0878798 0.1
0.342472 0.0904204 0.1
0.362083 0.0926635 0.1
0.381726 0.0946086 0.1
0.401397 0.0962552 0.1
0.42109 0.0976029 0.1
0.440802 0.0986514 0.1
0.460527 0.0994006 0.1
0.480261 0.0998501 0.1
0.5 0.1 0.1
0.519739 0.0998501 0.1
0.539473 0.0994006 0.1
0.559198 0.0986514 0.1
0.57891 0.0976029 0.1
0.598603 0.0962552 0.1
0.618274 0.0946086 0.1
0.637917 0.0926635 0.1
0.657528 0.0904204 0.1
0.677104 0.0878798 0.1
0.696638 0.0850422 0.1
0.716127 0.0819084 0.1
0.735566 0.078479 0.1
0.754951 0.0747549 0.1
0.774277 0.0707368 0.1
0.79354 0.0664258 0.1
0.812735 0.0618228 0.1
0.831858 0.0569289 0.1
0.850905 0.0517451 0.1
0.86987 0.0462728 0.1
0.888751 0.0405131 0.1
0.907542 0.0344675 0.1
0.926238 0.0281372 0.1
0.944837 0.0215237 0.1
0.963333 0.0146286 0.1
0.981722 0.00745351 0.1
1.02 0 0.1
1.04 0 0.1
1.06 0 0.1
1.08 0 0.1
1.1 0 0.1
1.12 0 0.1
1.14 0 0.1
1.16 0 0.1
1.18 0 0.1
1.2 0 0.1
1.22 0 0.1
1.24 0 0.1
1.26 0 0.1
1.28 0 0.1
1.3 0 0.1
1.32 0 0.1
1.34 0 0.1
1.36 0 0.1
1.38 0 0.1
1.4 0 0.1
1.42 0 0.1
1.44 0 0.1
1.46 0 0.1
1.48 0 0.1
1.5 0 0.1
1.52 0 0.1
1.54 0 0.1
1.56 0 0.1
1.58 0 0.1
1.6 0 0.1
1.62 0 0.1
1.64 0 0.1
1.66 0 0.1
1.68 0 0.1
1.7 0 0.1
1.72 0 0.1
1.74 0 0.1
1.76 0 0.1
1.78 0 0.1
1.8 0 0.1
1.82 0 0.1
1.84 0 0.1
1.86 0 0.1
1.88 0 0.1
1.9 0 0.1
1.92 0 0.1
1.94 0 0.1
1.96 0 0.1
1.98 0 0.1
2 0.0199133 0.1
2 0.0414128 0.1
2 0.0646247 0.1
2 0.0896856 0.1
2 0.116743 0.1
2 0.145955 0.1
2 0.177494 0.1
2 0.211545 0.1
2 0.248309 0.1
2 0.288001 0.1
2 0.330854 0.1
2 0.377121 0.1
2 0.427073 0.1
2 0.481004 0.1
2 0.539231 0.1
2 0.602096 0.1
2 0.669968 0.1
2 0.743247 0.1
2 0.822362 0.1
2 0.907779 0.1
1.9 1 0.1
1.8 1 0.1
1.7 1 0.1
1.6 1 0.1
1.5 1 0.1
1.4 1 0.1
1.3 1 0.1
1.2 1 0.1
1.1 1 0.1
1 1 0.1
0.9 1 0.1
0.8 1 0.1
0.7 1 0.1
0.6 1 0.1
0.5 1 0.1
0.4 1 0.1
0.3 1 0.1
0.2 1 0.1
0.1 1 0.1
3.69793e-12 1 0.1
-0.1 1 0.1
-0.2 1 0.1
-0.3 1 0.1
-0.4 1 0.1
-0.5 1 0.1
-0.6 1 0.1
-0.7 1 0.1
-0.8 1 0.1
-0.9 1 0.1
1.08758 0.0158154 0
-0.0898513 0.0203294 0
0.0966181 0.0537636 0
0.90205 0.0548881 0
1.21055 0.0202058 0
-0.209811 0.0159577 0
1.3305 0.0176902 0
-0.33 0.0173205 0
1.45324 0.0148141 0
-0.448654 0.0159854 0
1.56842 0.0191785 0
-0.569936 0.0166364 0
0.193292 0.0805369 0
0.805051 0.0813623 0
0.709096 0.100353 0
0.288591 0.0996656 0
0.390184 0.111848 0
0.61033 0.111742 0
0.488809 0.116278 0
1.67175 0.0169692 0
-0.67 0.0169809 0
-0.955017 0.454039 0
1.95131 0.44569 0
1.74981 0.0168753 0
-0.75 0.0173205 0
-0.968032 0.266538 0
1.96871 0.266267 0
0.978232 0.0305687 0
0.0208675 0.026451 0
-0.150454 0.91842 0
1.13854 0.907437 0
1.45012 0.904365 0
-0.445923 0.908903 0
-0.853423 0.0157019 0
1.84881 0.016319 0
0.853689 0.915652 0
0.153944 0.912184 0
0.545151 0.914125 0
0.549913 0.115152 0
1.51 0.0173205 0
-0.506989 0.01651 0
1.27 0.0173205 0
1.14976 0.0173333 0
-0.268171 0.0206442 0
-0.150501 0.0153244 0
-0.391384 0.0153993 0
1.38886 0.0171544 0
-0.973694 0.161724 0
1.97441 0.162392 0
-0.945221 0.633523 0
1.94544 0.63312 0
1.91008 0.0186068 0
-0.91 0.0169616 0
-0.030664 0.0194327 0
1.03074 0.0165456 0
-0.966065 0.353575 0
1.96128 0.359765 0
1.93879 0.781254 0
-0.937057 0.781882 0
-0.980746 0.080709 0
1.9772 0.0760699 0
0.058735 0.0409372 0
0.355202 0.913001 0
0.86356 0.0661005 0
0.134223 0.0651111 0
0.941972 0.0397386 0
-0.653034 0.915003 0
1.65328 0.904589 0
0.770126 0.0881325 0
0.232946 0.0902008 0
0.330582 0.105648 0
0.670612 0.108365 0
0.428707 0.116145 0
1.80993 0.016629 0
-0.810168 0.0172178 0
-0.71 0.0173205 0
1.63047 0.0175504 0
1.70842 0.0169661 0
-0.628824 0.0181787 0
-0.949815 0.0133898 0
1.95 0.0173205 0
1.85542 0.907891 0
-0.85 0.913397 0
1.9833 0.0307692 0
-0.983315 0.0309709 0
-0.750025 0.916468 0
-0.701107 0.836904 0
-0.607741 0.836428 0
-0.656448 0.759827 0
-0.572936 0.758144 0
-0.61411 0.691195 0
-0.539534 0.689068 0
-0.578542 0.626111 0
-0.507461 0.624216 0
-0.544001 0.566638 0
-0.477696 0.564279 0
-0.511582 0.51001 0
-0.451689 0.507147 0
-0.481834 0.457732 0
-0.426137 0.454624 0
-0.453236 0.407539 0
-0.398845 0.406233 0
-0.507958 0.409496 0
-0.368427 0.460177 0
-0.344602 0.405209 0
-0.315696 0.447824 0
-0.294128 0.402169 0
-0.262844 0.444518 0
-0.241968 0.388746 0
-0.209878 0.439557 0
-0.185184 0.391135 0
-0.156687 0.437338 0
-0.133719 0.390776 0
-0.104405 0.434306 0
-0.0818745 0.388334 0
-0.0528785 0.431165 0
-0.0305984 0.385639 0
-0.00180552 0.427863 0
0.0194564 0.382608 0
0.0485809 0.42449 0
0.0701962 0.37973 0
0.0985483 0.421145 0
0.119893 0.377339 0
0.147837 0.417911 0
0.172552 0.36751 0
0.197018 0.412597 0
0.221203 0.37141 0
0.24512 0.409646 0
-0.48178 0.364657 0
-0.531053 0.364782 0
-0.0599102 0.344151 0
-0.324909 0.359566 0
0.266181 0.368462 0
0.292132 0.407649 0
0.311992 0.365779 0
0.338918 0.404821 0
0.357567 0.355909 0
0.384723 0.40053 0
0.404675 0.359681 0
0.430617 0.398558 0
0.450457 0.35827 0
0.474237 0.395182 0
0.496746 0.34898 0
0.520548 0.397931 0
0.542071 0.353121 0
0.566011 0.389914 0
0.585061 0.350856 0
0.609352 0.38696 0
0.629069 0.348168 0
0.655979 0.391217 0
0.67472 0.346182 0
0.699346 0.381414 0
0.719333 0.341965 0
0.743718 0.377547 0
0.764028 0.339036 0
0.788201 0.373582 0
0.807659 0.336101 0
0.832821 0.372249 0
0.852309 0.334017 0
0.877785 0.370339 0
0.897875 0.331141 0
0.922904 0.366281 0
0.943173 0.327335 0
0.968282 0.363358 0
0.989029 0.324222 0
1.01391 0.361511 0
1.03465 0.321428 0
1.05949 0.358447 0
1.08389 0.312052 0
1.10575 0.355104 0
1.12889 0.31562 0
1.15067 0.353235 0
1.17157 0.312819 0
1.19626 0.349369 0
1.21618 0.309863 0
1.2416 0.346914 0
1.26131 0.30715 0
1.28691 0.344312 0
1.30571 0.303752 0
1.33144 0.341222 0
1.35018 0.300911 0
1.3758 0.338308 0
1.39501 0.298931 0
1.42015 0.335235 0
1.43904 0.296349 0
1.46355 0.330194 0
1.48256 0.293347 0
1.50685 0.326967 0
1.52589 0.29055 0
1.54996 0.325305 0
1.56909 0.287929 0
[...]
CELL_DATA 3694
SCALARS rho float
LOOKUP_TABLE default
0.739925
0.679251
0.804287
0.817243
0.829092
0.805707
0.792698
0.800992
0.813805
0.80335
0.821101
0.821092
0.840371
0.790592
0.801716
0.757102
0.803655
0.803567
0.765832
0.851551
0.820221
0.826229
0.710654
0.803902
0.707486
0.839332
0.721767
0.807348
0.837288
0.799295
0.799455
0.719642
0.804056
0.825271
0.803604
0.80111
0.838914
0.825976
0.827461
0.778736
0.805243
0.817925
0.834703
0.82584
0.805637
0.817135
0.801948
0.685256
0.686053
0.731323
0.802612
0.803175
0.8484
0.802749
0.657202
0.839822
0.803435
0.822059
0.832661
0.758189
0.797186
0.819893
0.844131
0.800592
0.844799
0.833453
0.808561
0.817927
0.737232
0.859868
0.803382
0.808179
0.826254
0.803622
0.827478
0.803164
0.814475
0.800415
0.817784
0.803269
0.723776
0.819118
0.802674
0.777427
0.813463
0.800362
0.821425
0.724387
0.736414
0.827461
0.80251
0.803012
0.821221
0.818455
0.681457
0.80714
0.727953
0.821501
0.816354
0.842061
0.818835
0.768085
0.717921
0.813558
0.812904
0.819883
0.821498
0.807637
0.719723
0.818104
0.800044
0.732839
0.720542
0.825863
0.869166
0.802805
0.803114
0.816153
0.803377
0.802697
0.766965
0.822556
0.822902
0.773854
0.703391
0.761855
0.82107
0.781457
0.845194
0.712012
0.768556
0.801016
0.808537
0.779801
0.802069
0.798744
0.806069
0.80277
0.798732
0.818739
0.817608
0.718832
0.820697
0.81795
0.760904
0.687417
0.68358
0.798894
0.820143
0.813626
0.750983
0.803107
0.585742
0.782185
0.699997
0.768925
0.718768
0.787259
0.618621
0.79415
0.837365
0.653292
0.783872
0.741751
0.84626
0.582821
0.817834
0.801333
0.804004
0.680149
0.801914
0.672305
0.859419
0.610271
0.800643
0.661122
0.871913
0.835946
0.823812
0.745944
0.817856
0.721431
0.829905
0.738265
0.656791
0.803444
0.669935
0.826551
0.802238
0.85281
0.792604
0.701245
0.819574
0.799203
0.747636
0.852785
0.811939
0.850339
0.741269
0.749731
0.773333
0.797022
0.834431
0.834152
0.817199
0.818405
0.679498
0.8052
0.734542
0.80353
0.721118
0.80023
0.796453
0.802202
0.828772
0.769053
0.833206
0.753699
0.828723
0.82294
0.82012
0.852961
0.829615
0.716303
0.83004
0.676627
0.789177
0.813397
0.852971
0.832853
0.812097
0.795121
0.751809
0.821407
0.839037
0.82125
0.723316
0.803297
0.704362
0.795895
0.796321
0.813575
0.654723
0.808398
0.762935
0.79849
0.803333
0.763742
0.819768
0.865345
0.784741
0.689272
0.804997
0.802736
0.655675
0.796259
0.780114
0.802634
0.84073
0.819505
0.620435
0.819677
0.810375
0.800668
0.819836
0.803063
0.815757
0.817363
0.835582
0.760712
0.802267
0.837431
0.811479
0.80337
0.797073
0.819807
0.728984
0.600531
0.820645
0.829576
0.823833
0.804871
0.69826
0.819833
0.819645
0.819921
0.724434
0.800116
0.819896
0.615181
0.803139
0.870132
0.673104
0.762568
0.840958
0.829392
0.819623
0.704362
0.810004
0.819905
0.804375
0.802481
0.812501
0.838447
0.818171
0.769723
0.807645
0.803383
0.654828
0.824448
0.83082
0.682078
0.79476
0.822517
0.820917
0.687419
0.660339
0.824828
0.827198
0.810167
0.733789
0.714028
0.720601
0.741565
0.823764
0.781297
0.804732
0.741492
0.742963
0.825749
0.813875
0.819993
0.773945
0.819763
0.818179
0.821196
0.819833
0.803164
0.808375
0.80497
0.687984
0.80301
0.813533
0.709802
0.808282
0.805717
0.823035
0.787357
0.80653
0.792992
0.819748
0.824439
0.823702
0.799122
0.69949
0.723132
0.800178
0.811423
0.642308
0.804428
0.808601
0.817783
0.748845
0.80488
0.82014
0.815686
0.821598
0.805635
0.79821
0.769208
0.805495
0.84574
0.820842
0.70474
0.804511
0.714129
0.703934
0.803618
0.624154
0.773073
0.78622
0.808245
0.817993
0.828067
0.820863
0.815595
0.823714
0.831123
0.803143
0.769312
0.810239
0.670001
0.822791
0.761737
0.735618
0.702323
0.818323
0.855413
0.822816
0.809856
0.822303
0.819787
0.788325
0.763613
0.813514
0.699204
0.792337
0.845442
0.826543
0.801432
0.865512
0.8139
0.819994
0.821396
0.831026
0.646847
0.802288
0.740531
0.798785
0.735693
0.821879
0.809247
0.790728
0.672199
0.819502
0.830217
0.816074
0.803502
0.804318
0.827517
0.804401
0.722472
0.791186
0.803329
0.819395
0.817732
0.816513
0.87278
0.830795
0.810024
0.834856
0.690822
0.826686
0.840104
0.820244
0.636983
0.819789
0.809986
0.847647
0.824797
0.803305
0.605067
0.810872
0.707892
0.80672
0.803147
0.813247
0.818127
0.825464
0.805665
0.811686
0.819942
0.734537
0.864437
0.802407
0.852146
0.820231
0.59735
0.804431
0.797652
0.815687
0.821494
0.677565
0.803158
0.810276
0.813664
0.807734
0.794838
0.819937
0.821094
0.800014
0.805121
0.824812
0.838784
0.739855
0.80692
0.810775
0.817062
0.689306
0.806047
0.819502
0.800104
0.804904
0.614512
0.835662
0.769251
0.819497
0.821543
0.833626
0.848095
0.819926
0.815817
0.726095
0.799866
0.853826
0.812353
0.715448
0.800935
0.802886
0.873356
0.847459
0.822725
0.802452
0.810222
0.759672
0.81966
0.814676
0.598912
0.803339
0.739221
0.751995
0.803919
0.815537
0.782111
0.821729
0.819647
0.838433
0.819589
0.801203
0.812449
0.738831
0.742428
0.804742
0.811807
0.824211
0.803094
0.753598
0.700709
0.818092
0.815994
0.814416
0.608044
0.818112
0.819609
0.827926
0.80363
0.81205
0.823019
0.812305
0.841872
0.8034
0.813218
0.826634
0.81993
0.820505
0.824173
0.70294
0.78557
0.798076
0.803693
0.849715
0.802413
0.805818
0.644177
0.813781
0.817594
0.811593
0.822728
0.806418
0.817577
0.732092
0.845875
0.706109
0.801284
0.821238
0.807889
0.680541
0.670537
0.816394
0.806324
0.805149
0.789496
0.80193
0.832133
0.817296
0.805626
0.802949
0.816217
0.628987
0.816564
0.803946
0.713006
0.819176
0.650989
0.788392
0.81954
0.839667
0.809762
0.816852
0.796497
0.7989
0.804964
0.801857
0.816238
0.811942
0.81295
0.803605
0.758244
0.804658
0.816943
0.816315
0.819273
0.815753
0.820062
0.819571
0.836213
0.746288
0.807537
0.81982
0.803356
0.563234
0.697939
0.812352
0.817774
0.819608
0.781485
0.809503
0.813863
0.80409
0.800668
0.803562
0.822709
0.823618
0.819606
0.788978
0.811601
0.809526
0.647209
0.776587
0.762076
0.809195
0.740289
0.693845
0.798527
0.770075
0.83065
0.819853
0.819367
0.808954
0.560708
0.816578
0.597418
0.711377
0.827889
0.870768
0.7494
0.820426
0.854742
0.703361
0.81941
0.809595
0.815617
0.807645
0.664857
0.856418
0.738297
0.739719
0.804031
0.805202
0.80033
0.833516
0.819763
0.699283
0.818298
0.800804
0.707795
0.841971
0.799165
0.633377
0.775579
0.819861
0.811749
0.819391
0.785162
0.735439
0.775297
0.83706
0.695004
0.820171
0.82061
0.830021
0.76915
0.825484
0.703521
0.805229
0.668735
0.706716
0.803396
0.823548
0.792693
0.819439
0.819708
0.8197
0.818691
0.594405
0.802875
0.819948
0.747836
0.810683
0.8197
0.816077
0.713787
0.685427
0.745864
0.639525
0.807697
0.690645
0.819985
0.802332
0.819625
0.837007
0.682403
0.807539
0.823038
0.834469
0.746305
0.785905
0.765802
0.776689
0.815934
0.637929
0.665905
0.819781
0.806009
0.815851
0.805204
0.722407
0.783747
0.733606
0.761311
0.800711
0.834728
0.81306
0.69744
0.826716
0.820683
0.81506
0.701184
0.686814
0.691644
0.873384
0.820065
0.820211
0.621973
0.717128
0.650577
0.804375
0.801014
0.679539
0.812871
0.826718
0.756284
0.800742
0.737169
0.818428
0.698665
0.819579
0.810923
0.805052
0.803419
0.827758
0.748941
0.820052
0.819811
0.782229
0.601805
0.817346
0.814958
0.762558
0.818568
0.747992
0.803954
0.829037
0.684025
0.821939
0.803005
0.810271
0.602372
0.666544
0.740836
0.80707
0.816096
0.814907
0.824518
0.815823
0.820073
0.710205
0.802341
0.817018
0.829303
0.709426
0.736446
0.816534
0.814942
0.704819
0.81469
0.778031
0.697967
0.812504
0.702228
0.807802
0.670568
0.803128
0.730053
0.678983
0.815143
0.787677
0.749591
0.640475
0.842208
0.82123
0.81863
0.774158
0.818945
0.800816
0.789457
0.800868
0.802394
0.818759
0.740996
0.810334
0.800874
0.822511
0.611762
0.802399
0.816705
0.817585
0.815504
0.815992
0.751031
0.806189
0.766576
0.755578
0.822274
0.665522
0.822173
0.821356
0.803403
0.81934
0.820555
0.731065
0.769194
0.825481
0.789059
0.804384
0.819819
0.876027
0.821442
0.802216
0.820836
0.819785
0.794991
0.822255
0.820304
0.775955
0.712804
0.843596
0.797609
0.803504
0.823185
0.784568
0.821666
0.824908
0.822401
0.820877
0.871825
0.803432
0.805843
0.822043
0.803415
0.81965
0.807651
0.743104
0.819526
0.823343
0.754552
0.721383
0.819361
0.843511
0.822854
0.678537
0.825216
0.77612
0.812235
0.802863
0.735843
0.803338
0.799619
0.816254
0.820445
0.702214
0.717001
0.803057
0.788474
0.802787
0.827086
0.721317
0.819768
0.803294
0.801346
0.825646
0.819851
0.723387
0.819804
0.766507
0.8031
0.832626
0.803982
0.777525
0.798358
0.795069
0.819525
0.654845
0.819886
0.688444
0.697075
0.80408
0.823196
0.819814
0.803175
0.819597
0.811532
0.732836
0.788505
0.858874
0.803335
0.835553
0.808105
0.583923
0.762872
0.784471
0.662928
0.744879
0.596239
0.822448
0.817832
0.817072
0.802857
0.768223
0.693869
0.769591
0.75328
0.783911
0.819852
0.844809
0.823049
0.806516
0.819454
0.825973
0.803536
0.808756
0.714665
0.803901
0.76042
0.809368
0.798871
0.757622
0.825109
0.78989
0.804218
0.793958
0.842892
0.731958
0.801648
0.800545
0.805556
0.626753
0.819858
0.819772
0.822676
0.65261
0.819686
0.819593
0.799462
0.804461
0.794411
0.77984
0.807566
0.798451
0.820177
0.753805
0.807473
0.876261
0.766667
0.753749
0.81058
0.784781
0.844904
0.803622
0.784227
0.818827
0.79905
0.79373
0.808717
0.828744
0.838344
0.800488
0.589996
0.823895
0.831113
0.773623
0.833609
0.840457
0.826108
0.829277
0.807954
0.835498
0.829917
0.784926
0.810071
0.815472
0.81006
0.826052
0.803913
0.827452
0.793855
0.804518
0.806425
0.734339
0.807767
0.579394
0.821719
0.828486
0.831589
0.806964
0.818964
0.827165
0.819994
0.824311
0.841245
0.835837
0.791974
0.800994
0.825123
0.819335
0.820882
0.80116
0.807068
0.866951
0.823606
0.849464
0.819152
0.801474
0.824883
0.800514
0.833409
0.81738
0.81881
0.80595
0.735139
0.803473
0.805153
0.819435
0.803915
0.804906
0.822455
0.805052
0.804785
0.77985
0.82019
0.722221
0.815139
0.784861
0.762366
0.804128
0.813967
0.819043
0.724602
0.82296
0.815833
0.826716
0.820821
0.792839
0.820391
0.84712
0.833555
0.8179
0.812451
0.802221
0.750114
0.693002
0.819761
0.820853
0.775547
0.818163
0.808574
0.815755
0.80626
0.799476
0.777963
0.802796
0.800822
0.843536
0.821236
0.8123
0.806871
0.615173
0.738379
0.802837
0.787436
0.804935
0.819538
0.806746
0.82023
0.781703
0.81975
0.805627
0.814711
0.804548
0.821541
0.803369
0.820081
0.814802
0.819798
0.816644
0.72575
0.818143
0.819959
0.609578
0.819546
0.797714
0.803782
0.860406
0.821736
0.81467
0.873605
0.819422
0.819554
0.820805
0.822484
0.818964
0.766757
0.830253
0.802272
0.803701
0.818096
0.81952
0.820724
0.819556
0.817069
0.823515
0.804459
0.816217
0.809834
0.816102
0.820506
0.81962
0.815569
0.822774
0.80948
0.6901
0.671386
0.803171
0.809646
0.803864
0.815139
0.821935
0.820686
0.803397
0.805009
0.801436
0.8015
0.820608
0.846169
0.822246
0.812485
0.822079
0.821908
0.846122
0.82109
0.821767
0.787105
0.819534
0.807393
0.802481
0.793184
0.814364
0.822132
0.819446
0.819236
0.835832
0.809633
0.816996
0.820285
0.822095
0.804025
0.803869
0.806111
0.814954
0.819475
0.802152
0.806576
0.820824
0.82294
0.801672
0.652563
0.804797
0.799781
0.818073
0.799286
0.803252
0.752588
0.843175
0.803367
0.800475
0.837417
0.832613
0.810961
0.829292
0.801236
0.821593
0.820788
0.822366
0.804103
0.821988
0.737932
0.82564
0.811995
0.800952
0.813857
0.824003
0.799929
0.804552
0.786435
0.815745
0.819771
0.819843
0.822158
0.807029
0.820973
0.81991
0.828634
0.82233
0.840145
0.806717
0.701118
0.821563
0.84241
0.82331
0.805398
0.80067
0.804127
0.819574
0.814811
0.819993
0.7462
0.746426
0.801592
0.803534
0.819707
0.820161
0.802537
0.668242
0.713817
0.808623
0.769634
0.820042
0.705536
0.803303
0.733124
0.803405
0.82068
0.803331
0.821127
0.816821
0.799165
0.809339
0.797186
0.829752
0.81984
0.802065
0.804144
0.81968
0.824921
0.754878
0.825429
0.804262
0.783728
0.81975
0.80441
0.811471
0.819352
0.819393
0.83771
0.796479
0.799674
0.819659
0.762855
0.80744
0.819452
0.801604
0.81989
0.841017
0.802995
0.845252
0.811594
0.793389
0.815993
0.802861
0.85168
0.789199
0.803485
0.82014
0.834368
0.808975
0.817945
0.819834
0.803364
0.803069
0.826229
0.785897
0.818513
0.819541
0.667191
0.819711
0.717883
0.818099
0.840475
0.827522
0.804407
0.819012
0.819659
0.73135
0.819364
0.801896
0.801992
0.801601
0.819681
0.865291
0.801889
0.801821
0.786942
0.843004
0.828069
0.823008
0.817112
0.7512
0.806767
0.803457
0.735698
0.800561
0.719846
0.814371
0.801327
0.68378
0.881111
0.707816
0.773007
0.802498
0.749539
0.808979
0.799736
0.803238
0.668636
0.797464
0.785541
0.799892
0.738519
0.822244
0.825711
0.885275
0.810035
0.831816
0.654095
0.800927
0.790039
0.751913
0.756901
0.774192
0.715712
0.803588
0.800235
0.803653
0.767429
0.638013
0.812105
0.625599
0.824027
0.824977
0.812009
0.738781
0.814761
0.799256
0.822302
0.784531
0.810912
0.797819
0.813823
0.721943
0.802134
0.728541
0.801967
0.799552
0.699774
0.804391
0.819752
0.819766
0.803379
0.765185
0.81935
0.73191
0.697199
0.802745
0.819799
0.875564
0.819762
0.818587
0.881376
0.866608
0.832893
0.716175
0.802563
0.81241
0.822091
0.801451
0.694719
0.727674
0.69226
0.802632
0.70051
0.771651
0.800074
0.643063
0.68488
0.838034
0.777605
0.750598
0.833096
0.763819
0.769731
0.668912
0.737386
0.788713
0.822512
0.870609
0.839769
0.819724
0.797899
0.80036
0.722827
0.819753
0.700492
0.797317
0.819861
0.783938
0.766473
0.804765
0.786381
0.802779
0.801364
0.815549
0.811439
0.868378
0.641244
0.578554
0.802901
0.809982
0.706795
0.810992
0.803226
0.839603
0.803918
0.802673
0.587767
0.605989
0.808554
0.816253
0.819744
0.736555
0.803391
0.813473
0.694467
0.815355
0.803037
0.818288
0.803353
0.80331
0.802551
0.818832
0.803142
0.817058
0.803736
0.86352
0.819273
0.802783
0.721314
0.68228
0.819446
0.604826
0.815693
0.810935
0.838083
0.817521
0.803535
0.811273
0.817699
0.817015
0.819696
0.801994
0.853697
0.858135
0.803244
0.671204
0.811873
0.822387
0.799962
0.80345
0.822905
0.743036
0.803389
0.827699
0.824103
0.819299
0.819373
0.77031
0.745818
0.801868
0.836344
0.803916
0.817314
0.805554
0.804773
0.806074
0.818418
0.809797
0.79966
0.807438
0.807057
0.825014
0.807244
0.806843
0.821171
0.807867
0.803497
0.81739
0.803166
0.803054
0.806364
0.808819
0.81753
0.776223
0.805883
0.802993
0.819951
0.800334
0.804217
0.807424
0.834309
0.805564
0.669051
0.801333
0.8191
0.80518
0.815147
0.766362
0.818972
0.755516
0.804083
0.802524
0.804544
0.819562
0.852889
0.804866
0.803403
0.747321
0.832191
0.819746
0.823622
0.824936
0.818066
0.743873
0.821609
0.732377
0.801749
0.830309
0.802796
0.713558
0.828671
0.817833
0.820271
0.827058
0.819787
0.775719
0.82083
0.671396
0.72311
0.819841
0.825653
0.695084
0.822734
0.666789
0.824565
0.807914
0.820476
0.803355
0.806727
0.818075
0.832143
0.825182
0.661326
0.817452
0.844258
0.783287
0.848336
0.800736
0.718858
0.840878
0.822926
0.838056
0.704305
0.701361
0.835507
0.681646
0.833332
0.819759
0.831414
0.806879
0.829801
0.789115
0.828393
0.827091
0.719644
0.867069
0.825981
0.825048
0.823789
0.763885
0.803217
0.585398
0.806719
0.82425
0.817811
0.805368
0.82886
0.820025
0.79887
0.823549
0.803281
0.698912
0.793551
0.834498
0.81893
0.726136
0.802903
0.821844
0.600153
0.819206
0.819898
0.803322
0.810514
0.734851
0.820791
0.803264
0.803869
0.796891
0.797769
0.7987
0.795145
0.803408
0.816818
0.819689
0.818286
0.588449
0.893536
0.716047
0.798668
0.746784
0.792384
0.819953
0.819935
0.819897
0.618299
0.822319
0.817651
0.804609
0.821188
0.836981
0.839655
0.784052
0.799064
0.800174
0.735496
0.758744
0.819764
0.76792
0.815692
0.822615
0.81927
0.814064
0.802265
0.779901
0.812673
0.820216
0.73281
0.811266
0.820064
0.821835
0.808601
0.810163
0.769903
0.819308
0.808893
0.803511
0.80815
0.63092
0.807218
0.805042
0.806642
0.824628
0.845529
0.80542
0.779212
0.806002
0.773084
0.823677
0.80951
0.817211
0.81999
0.849996
0.803821
0.747027
0.820225
0.819775
0.732995
0.802017
0.82033
0.760454
0.817086
0.585202
0.807393
0.692244
0.802334
0.813625
0.816511
0.821107
0.804794
0.818937
0.821349
0.80185
0.805559
0.844555
0.820203
0.797149
0.819801
0.803214
0.802777
0.800961
0.802084
0.810548
0.819226
0.802463
0.775182
0.822074
0.815419
0.809482
0.819993
0.601623
0.804047
0.814174
0.819745
0.791584
0.754219
0.718398
0.816912
0.819738
0.828918
0.793511
0.61657
0.775268
0.658116
0.820714
0.745559
0.816611
0.830838
0.710227
0.800453
0.836388
0.756595
0.801203
0.803461
0.819565
0.80507
0.705102
0.801392
0.57815
0.80265
0.802995
0.802712
0.650913
0.803246
0.803915
0.803646
0.733494
0.742438
0.803871
0.780082
0.819935
0.727686
0.712779
0.819497
0.801981
0.757075
0.855568
0.818387
0.816662
0.67769
0.803347
0.801138
0.801148
0.802797
0.66777
0.803782
0.81972
0.663521
0.692792
0.806355
0.793657
0.819736
0.82542
0.819149
0.819405
0.820376
0.80414
0.819729
0.819043
0.815905
0.82974
0.803484
0.802451
0.811295
0.737168
0.810176
0.818897
0.864018
0.813689
0.648592
0.779583
0.802726
0.777985
0.82063
0.815804
0.832122
0.815016
0.865826
0.8031
0.818728
0.609738
0.81654
0.835914
0.803173
0.818909
0.636971
0.81914
0.802986
0.820592
0.802601
0.821276
0.820016
0.755152
0.804126
0.803314
0.837226
0.863288
0.820258
0.820229
0.724429
0.749428
0.802895
0.803553
0.813018
0.82171
0.800321
0.803363
0.82292
0.810093
0.808199
0.739634
0.80309
0.821047
0.817431
0.771562
0.761082
0.815388
0.797027
0.858598
0.724176
0.836798
0.814724
0.709296
0.800512
0.818582
0.787985
0.8013
0.800098
0.819324
0.781421
0.77508
0.817719
0.6938
0.79947
0.770106
0.819276
0.821133
0.802657
0.791274
0.744395
0.757483
0.777485
0.819132
0.822557
0.809376
0.677943
0.805386
0.799186
0.778842
0.809993
0.817203
0.800365
0.804287
0.655889
0.805123
0.805737
0.853249
0.804213
0.810044
0.835661
0.806399
0.813969
0.854025
0.632261
0.804562
0.820266
0.806021
0.805621
0.806333
0.805141
0.805273
0.804745
0.806427
0.807407
0.731355
0.80633
0.808072
0.809924
0.818962
0.809172
0.821543
0.803342
0.803994
0.818755
0.818831
0.813973
0.803488
0.816397
0.814143
0.812936
0.820005
0.716491
0.818172
0.83401
0.819336
0.85611
0.753992
0.811712
0.819807
0.802094
0.658069
0.803648
0.775915
0.825251
0.63617
0.819858
0.832166
0.819209
0.815029
0.802634
0.827406
0.821774
0.804308
0.768601
0.820914
0.7604
0.569112
0.819067
0.690576
0.704472
0.820536
0.830424
0.830392
0.820592
0.849539
0.628089
0.876315
0.805897
0.828846
0.827302
0.816955
0.693008
0.819541
0.825881
0.820404
0.802302
0.774436
0.822442
0.585548
0.816351
0.84538
0.803618
0.841981
0.824747
0.803407
0.682978
0.843572
0.82379
0.838942
0.80169
0.817147
0.803262
0.836442
0.803316
0.817177
0.834138
0.832105
0.822258
0.827498
0.831258
0.739411
0.678425
0.601446
0.830366
0.828939
0.770396
0.760794
0.810121
0.8276
0.846699
0.612058
0.826401
0.82539
0.824553
0.823172
0.804631
0.821093
0.677637
0.750386
0.823827
0.798484
0.869789
0.890804
0.778674
0.807598
0.676739
0.835795
0.739255
0.729858
0.81953
0.802406
0.785189
0.683121
0.802574
0.819576
0.790245
0.724129
0.804203
0.817611
0.798834
0.696453
0.825674
0.793782
0.81997
0.835886
0.815671
0.799525
0.820279
0.820106
0.787
0.804717
0.722844
0.840747
0.794163
0.814802
0.783798
0.805125
0.71021
0.801358
0.814078
0.812741
0.811626
0.81014
0.809046
0.808313
0.806685
0.805568
0.807491
0.735543
0.806126
0.801889
0.796818
0.803811
0.844439
0.726092
0.803563
0.777627
0.88464
0.854321
0.79878
0.732901
0.804318
0.798181
0.72641
0.803831
0.802587
0.742231
0.804323
0.793963
0.798386
0.801916
0.74116
0.784107
0.807925
0.753866
0.766309
0.774392
0.802253
0.81888
0.809245
0.764327
0.753907
0.800195
0.818229
0.80369
0.795953
0.801614
0.928234
0.861803
0.821185
0.8198
0.723548
0.846376
0.751907
0.826661
0.818881
0.898531
0.819882
0.798174
0.603303
0.819835
0.798302
0.8198
0.798759
0.847201
0.581498
0.835411
0.802098
0.806501
0.805311
0.804695
0.855865
0.801886
0.821182
0.707255
0.647143
0.673509
0.81978
0.562915
0.798645
0.72947
0.843518
0.815339
0.57451
0.80487
0.819071
0.81881
0.724252
0.802597
0.544563
0.798331
0.819786
0.79847
0.803229
0.79873
0.819847
0.83587
0.803396
0.799496
0.820079
0.79978
0.820177
0.815111
0.800093
0.820295
0.818024
0.820442
0.800221
0.820613
0.686058
0.800431
0.820809
0.80337
0.800627
0.82101
0.708017
0.819724
0.7991
0.819945
0.799193
0.813853
0.838744
0.862903
0.801535
0.801734
0.821795
0.816151
0.801372
0.800988
0.863291
0.814944
0.82152
0.814307
0.851612
0.831486
0.820481
0.826442
0.848391
0.819708
0.80288
0.822875
0.814151
0.803326
0.819441
0.801102
0.810139
0.784064