# vtk DataFile Version 1.0
unstructured grid
ascii
DATASET UNSTRUCTURED_GRID
points 3920 float
-1 0 0
-1 1 0
2 0 0
2 1 0
0 0 0
1 0 0
-1 1 0.1
-1 0 0.1
0 0 0.1
1 0 0.1
2 0 0.1
2 1 0.1
-0.98 0 0
-0.96 0 0
-0.94 0 0
-0.92 0 0
-0.9 0 0
-0.88 0 0
-0.86 0 0
-0.84 0 0
-0.82 0 0
-0.8 0 0
-0.78 0 0
-0.76 0 0
-0.74 0 0
-0.72 0 0
-0.7 0 0
-0.68 0 0
-0.66 0 0
-0.64 0 0
-0.62 0 0
-0.6 0 0
-0.58 0 0
-0.56 0 0
-0.54 0 0
-0.52 0 0
-0.5 0 0
-0.48 0 0
-0.46 0 0
-0.44 0 0
-0.42 0 0
-0.4 0 0
-0.38 0 0
-0.36 0 0
-0.34 0 0
-0.32 0 0
-0.3 0 0
-0.28 0 0
-0.26 0 0
-0.24 0 0
-0.22 0 0
-0.2 0 0
-0.18 0 0
-0.16 0 0
-0.14 0 0
-0.12 0 0
-0.1 0 0
-0.08 0 0
-0.06 0 0
-0.04 0 0
-0.02 0 0
1.02 0 0
1.04 0 0
1.06 0 0
1.08 0 0
1.1 0 0
1.12 0 0
1.14 0 0
1.16 0 0
1.18 0 0
1.2 0 0
1.22 0 0
1.24 0 0
1.26 0 0
1.28 0 0
1.3 0 0
1.32 0 0
1.34 0 0
1.36 0 0
1.38 0 0
1.4 0 0
1.42 0 0
1.44 0 0
1.46 0 0
1.48 0 0
1.5 0 0
1.52 0 0
1.54 0 0
1.56 0 0
1.58 0 0
1.6 0 0
1.62 0 0
1.64 0 0
1.66 0 0
1.68 0 0
1.7 0 0
1.72 0 0
1.74 0 0
1.76 0 0
1.78 0 0
1.8 0 0
1.82 0 0
1.84 0 0
1.86 0 0
1.88 0 0
1.9 0 0
1.92 0 0
1.94 0 0
1.96 0 0
1.98 0 0
2 0.0199133 0
2 0.0414128 0
2 0.0646247 0
2 0.0896856 0
2 0.116743 0
2 0.145955 0
2 0.177494 0
2 0.211545 0
2 0.248309 0
2 0.288001 0
2 0.330854 0
2 0.377121 0
2 0.427073 0
2 0.481004 0
2 0.539231 0
2 0.602096 0
2 0.669968 0
2 0.743247 0
2 0.822362 0
2 0.907779 0
1.9 1 0
1.8 1 0
1.7 1 0
1.6 1 0
1.5 1 0
1.4 1 0
1.3 1 0
1.2 1 0
1.1 1 0
1 1 0
0.9 1 0
0.8 1 0
0.7 1 0
0.6 1 0
0.5 1 0
0.4 1 0
0.3 1 0
0.2 1 0
0.1 1 0
3.69793e-12 1 0
-0.1 1 0
-0.2 1 0
-0.3 1 0
-0.4 1 0
-0.5 1 0
-0.6 1 0
-0.7 1 0
-0.8 1 0
-0.9 1 0
-1 0.907779 0
-1 0.822362 0
-1 0.743247 0
-1 0.669968 0
-1 0.602096 0
-1 0.539231 0
-1 0.481004 0
-1 0.427073 0
-1 0.377121 0
-1 0.330854 0
-1 0.288001 0
-1 0.248309 0
-1 0.211545 0
-1 0.177494 0
-1 0.145955 0
-1 0.116743 0
-1 0.0896856 0
-1 0.0646247 0
-1 0.0414128 0
-1 0.0199133 0
0.0182781 0.00745351 0
0.0366672 0.0146286 0
0.0551632 0.0215237 0
0.0737617 0.0281372 0
0.0924585 0.0344675 0
0.111249 0.0405131 0
0.13013 0.0462728 0
0.149095 0.0517451 0
0.168142 0.0569289 0
0.187265 0.0618228 0
0.20646 0.0664258 0
0.225723 0.0707368 0
0.245049 0.0747549 0
0.264434 0.078479 0
0.283873 0.0819084 0
0.303362 0.0850422 0
0.322896 0.0878798 0
0.342472 0.0904204 0
0.362083 0.0926635 0
0.381726 0.0946086 0
0.401397 0.0962552 0
0.42109 0.0976029 0
0.440802 0.0986514 0
0.460527 0.0994006 0
0.480261 0.0998501 0
0.5 0.1 0
0.519739 0.0998501 0
0.539473 0.0994006 0
0.559198 0.0986514 0
0.57891 0.0976029 0
0.598603 0.0962552 0
0.618274 0.0946086 0
0.637917 0.0926635 0
0.657528 0.0904204 0
0.677104 0.0878798 0
0.696638 0.0850422 0
0.716127 0.0819084 0
0.735566 0.078479 0
0.754951 0.0747549 0
0.774277 0.0707368 0
0.79354 0.0664258 0
0.812735 0.0618228 0
0.831858 0.0569289 0
0.850905 0.0517451 0
0.86987 0.0462728 0
0.888751 0.0405131 0
0.907542 0.0344675 0
0.926238 0.0281372 0
0.944837 0.0215237 0
0.963333 0.0146286 0
0.981722 0.00745351 0
-1 0.907779 0.1
-1 0.822362 0.1
-1 0.743247 0.1
-1 0.669968 0.1
-1 0.602096 0.1
-1 0.539231 0.1
-1 0.481004 0.1
-1 0.427073 0.1
-1 0.377121 0.1
-1 0.330854 0.1
-1 0.288001 0.1
-1 0.248309 0.1
-1 0.211545 0.1
-1 0.177494 0.1
-1 0.145955 0.1
-1 0.116743 0.1
-1 0.0896856 0.1
-1 0.0646247 0.1
-1 0.0414128 0.1
-1 0.0199133 0.1
-0.98 0 0.1
-0.96 0 0.1
-0.94 0 0.1
-0.92 0 0.1
-0.9 0 0.1
-0.88 0 0.1
-0.86 0 0.1
-0.84 0 0.1
-0.82 0 0.1
-0.8 0 0.1
-0.78 0 0.1
-0.76 0 0.1
-0.74 0 0.1
-0.72 0 0.1
-0.7 0 0.1
-0.68 0 0.1
-0.66 0 0.1
-0.64 0 0.1
-0.62 0 0.1
-0.6 0 0.1
-0.58 0 0.1
-0.56 0 0.1
-0.54 0 0.1
-0.52 0 0.1
-0.5 0 0.1
-0.48 0 0.1
-0.46 0 0.1
-0.44 0 0.1
-0.42 0 0.1
-0.4 0 0.1
-0.38 0 0.1
-0.36 0 0.1
-0.34 0 0.1
-0.32 0 0.1
-0.3 0 0.1
-0.28 0 0.1
-0.26 0 0.1
-0.24 0 0.1
-0.22 0 0.1
-0.2 0 0.1
-0.18 0 0.1
-0.16 0 0.1
-0.14 0 0.1
-0.12 0 0.1
-0.1 0 0.1
-0.08 0 0.1
-0.06 0 0.1
-0.04 0 0.1
-0.02 0 0.1
0.0182781 0.00745351 0.1
0.0366672 0.0146286 0.1
0.0551632 0.0215237 0.1
0.0737617 0.0281372 0.1
0.0924585 0.0344675 0.1
0.111249 0.0405131 0.1
0.13013 0.0462728 0.1
0.149095 0.0517451 0.1
0.168142 0.0569289 0.1
0.187265 0.0618228 0.1
0.20646 0.0664258 0.1
0.225723 0.0707368 0.1
0.245049 0.0747549 0.1
0.264434 0.078479 0.1
0.283873 0.0819084 0.1
0.303362 0.0850422 0.1
0.322896 0.0878798 0.1
0.342472 0.0904204 0.1
0.362083 0.0926635 0.1
0.381726 0.0946086 0.1
0.401397 0.0962552 0.1
0.42109 0.0976029 0.1
0.440802 0.0986514 0.1
0.460527 0.0994006 0.1
0.480261 0.0998501 0.1
0.5 0.1 0.1
0.519739 0.0998501 0.1
0.539473 0.0994006 0.1
0.559198 0.0986514 0.1
0.57891 0.0976029 0.1
0.598603 0.0962552 0.1
0.618274 0.0946086 0.1
0.637917 0.0926635 0.1
0.657528 0.0904204 0.1
0.677104 0.0878798 0.1
0.696638 0.0850422 0.1
0.716127 0.0819084 0.1
0.735566 0.078479 0.1
0.754951 0.0747549 0.1
0.774277 0.0707368 0.1
0.79354 0.0664258 0.1
0.812735 0.0618228 0.1
0.831858 0.0569289 0.1
0.850905 0.0517451 0.1
0.86987 0.0462728 0.1
0.888751 0.0405131 0.1
0.907542 0.0344675 0.1
0.926238 0.0281372 0.1
0.944837 0.0215237 0.1
0.963333 0.0146286 0.1
0.981722 0.00745351 0.1
1.02 0 0.1
1.04 0 0.1
1.06 0 0.1
1.08 0 0.1
1.1 0 0.1
1.12 0 0.1
1.14 0 0.1
1.16 0 0.1
1.18 0 0.1
1.2 0 0.1
1.22 0 0.1
1.24 0 0.1
1.26 0 0.1
1.28 0 0.1
1.3 0 0.1
1.32 0 0.1
1.34 0 0.1
1.36 0 0.1
1.38 0 0.1
1.4 0 0.1
1.42 0 0.1
1.44 0 0.1
1.46 0 0.1
1.48 0 0.1
1.5 0 0.1
1.52 0 0.1
1.54 0 0.1
1.56 0 0.1
1.58 0 0.1
1.6 0 0.1
1.62 0 0.1
1.64 0 0.1
1.66 0 0.1
1.68 0 0.1
1.7 0 0.1
1.72 0 0.1
1.74 0 0.1
1.76 0 0.1
1.78 0 0.1
1.8 0 0.1
1.82 0 0.1
1.84 0 0.1
1.86 0 0.1
1.88 0 0.1
1.9 0 0.1
1.92 0 0.1
1.94 0 0.1
1.96 0 0.1
1.98 0 0.1
2 0.0199133 0.1
2 0.0414128 0.1
2 0.0646247 0.1
2 0.0896856 0.1
2 0.116743 0.1
2 0.145955 0.1
2 0.177494 0.1
2 0.211545 0.1
2 0.248309 0.1
2 0.288001 0.1
2 0.330854 0.1
2 0.377121 0.1
2 0.427073 0.1
2 0.481004 0.1
2 0.539231 0.1
2 0.602096 0.1
2 0.669968 0.1
2 0.743247 0.1
2 0.822362 0.1
2 0.907779 0.1
1.9 1 0.1
1.8 1 0.1
1.7 1 0.1
1.6 1 0.1
1.5 1 0.1
1.4 1 0.1
1.3 1 0.1
1.2 1 0.1
1.1 1 0.1
1 1 0.1
0.9 1 0.1
0.8 1 0.1
0.7 1 0.1
0.6 1 0.1
0.5 1 0.1
0.4 1 0.1
0.3 1 0.1
0.2 1 0.1
0.1 1 0.1
3.69793e-12 1 0.1
-0.1 1 0.1
-0.2 1 0.1
-0.3 1 0.1
-0.4 1 0.1
-0.5 1 0.1
-0.6 1 0.1
-0.7 1 0.1
-0.8 1 0.1
-0.9 1 0.1
1.08758 0.0158154 0
-0.0898513 0.0203294 0
0.0966181 0.0537636 0
0.90205 0.0548881 0
1.21055 0.0202058 0
-0.209811 0.0159577 0
1.3305 0.0176902 0
-0.33 0.0173205 0
1.45324 0.0148141 0
-0.448654 0.0159854 0
1.56842 0.0191785 0
-0.569936 0.0166364 0
0.193292 0.0805369 0
0.805051 0.0813623 0
0.709096 0.100353 0
0.288591 0.0996656 0
0.390184 0.111848 0
0.61033 0.111742 0
0.488809 0.116278 0
1.67175 0.0169692 0
-0.67 0.0169809 0
-0.955017 0.454039 0
1.95131 0.44569 0
1.74981 0.0168753 0
-0.75 0.0173205 0
-0.968032 0.266538 0
1.96871 0.266267 0
0.978232 0.0305687 0
0.0208675 0.026451 0
-0.150454 0.91842 0
1.13854 0.907437 0
1.45012 0.904365 0
-0.445923 0.908903 0
-0.853423 0.0157019 0
1.84881 0.016319 0
0.853689 0.915652 0
0.153944 0.912184 0
0.545151 0.914125 0
0.549913 0.115152 0
1.51 0.0173205 0
-0.506989 0.01651 0
1.27 0.0173205 0
1.14976 0.0173333 0
-0.268171 0.0206442 0
-0.150501 0.0153244 0
-0.391384 0.0153993 0
1.38886 0.0171544 0
-0.973694 0.161724 0
1.97441 0.162392 0
-0.945221 0.633523 0
1.94544 0.63312 0
1.91008 0.0186068 0
-0.91 0.0169616 0
-0.030664 0.0194327 0
1.03074 0.0165456 0
-0.966065 0.353575 0
1.96128 0.359765 0
1.93879 0.781254 0
-0.937057 0.781882 0
-0.980746 0.080709 0
1.9772 0.0760699 0
0.058735 0.0409372 0
0.355202 0.913001 0
0.86356 0.0661005 0
0.134223 0.0651111 0
0.941972 0.0397386 0
-0.653034 0.915003 0
1.65328 0.904589 0
0.770126 0.0881325 0
0.232946 0.0902008 0
0.330582 0.105648 0
0.670612 0.108365 0
0.428707 0.116145 0
1.80993 0.016629 0
-0.810168 0.0172178 0
-0.71 0.0173205 0
1.63047 0.0175504 0
1.70842 0.0169661 0
-0.628824 0.0181787 0
-0.949815 0.0133898 0
1.95 0.0173205 0
1.85542 0.907891 0
-0.85 0.913397 0
1.9833 0.0307692 0
-0.983315 0.0309709 0
-0.750025 0.916468 0
-0.701107 0.836904 0
-0.607741 0.836428 0
-0.656448 0.759827 0
-0.572936 0.758144 0
-0.61411 0.691195 0
-0.539534 0.689068 0
-0.578542 0.626111 0
-0.507461 0.624216 0
-0.544001 0.566638 0
-0.477696 0.564279 0
-0.511582 0.51001 0
-0.451689 0.507147 0
-0.481834 0.457732 0
-0.426137 0.454624 0
-0.453236 0.407539 0
-0.398845 0.406233 0
-0.507958 0.409496 0
-0.368427 0.460177 0
-0.344602 0.405209 0
-0.315696 0.447824 0
-0.294128 0.402169 0
-0.262844 0.444518 0
-0.241968 0.388746 0
-0.209878 0.439557 0
-0.185184 0.391135 0
-0.156687 0.437338 0
-0.133719 0.390776 0
-0.104405 0.434306 0
-0.0818745 0.388334 0
-0.0528785 0.431165 0
-0.0305984 0.385639 0
-0.00180552 0.427863 0
0.0194564 0.382608 0
0.0485809 0.42449 0
0.0701962 0.37973 0
0.0985483 0.421145 0
0.119893 0.377339 0
0.147837 0.417911 0
0.172552 0.36751 0
0.197018 0.412597 0
0.221203 0.37141 0
0.24512 0.409646 0
-0.48178 0.364657 0
-0.531053 0.364782 0
-0.0599102 0.344151 0
-0.324909 0.359566 0
0.266181 0.368462 0
0.292132 0.407649 0
0.311992 0.365779 0
0.338918 0.404821 0
0.357567 0.355909 0
0.384723 0.40053 0
0.404675 0.359681 0
0.430617 0.398558 0
0.450457 0.35827 0
0.474237 0.395182 0
0.496746 0.34898 0
0.520548 0.397931 0
0.542071 0.353121 0
0.566011 0.389914 0
0.585061 0.350856 0
0.609352 0.38696 0
0.629069 0.348168 0
0.655979 0.391217 0
0.67472 0.346182 0
0.699346 0.381414 0
0.719333 0.341965 0
0.743718 0.377547 0
0.764028 0.339036 0
0.788201 0.373582 0
0.807659 0.336101 0
0.832821 0.372249 0
0.852309 0.334017 0
0.877785 0.370339 0
0.897875 0.331141 0
0.922904 0.366281 0
0.943173 0.327335 0
0.968282 0.363358 0
0.989029 0.324222 0
1.01391 0.361511 0
1.03465 0.321428 0
1.05949 0.358447 0
1.08389 0.312052 0
1.10575 0.355104 0
1.12889 0.31562 0
1.15067 0.353235 0
1.17157 0.312819 0
1.19626 0.349369 0
1.21618 0.309863 0
1.2416 0.346914 0
1.26131 0.30715 0
1.28691 0.344312 0
1.30571 0.303752 0
1.33144 0.341222 0
1.35018 0.300911 0
1.3758 0.338308 0
1.39501 0.298931 0
1.42015 0.335235 0
1.43904 0.296349 0
1.46355 0.330194 0
1.48256 0.293347 0
1.50685 0.326967 0
1.52589 0.29055 0
1.54996 0.325305 0
1.56909 0.287929 0
[...]
CELL_DATA 3694
SCALARS rho float
LOOKUP_TABLE default
0.90741
0.886458
0.824365
0.94017
0.933555
0.824296
0.842727
0.819997
0.929546
0.817118
0.921433
0.92233
0.859392
0.845456
0.819861
0.898874
0.814496
0.818137
0.902118
0.941135
0.929274
0.934691
0.879563
0.825247
0.878813
0.859611
0.865472
0.830047
0.850304
0.806185
0.805855
0.86537
0.818015
0.844464
0.82097
0.918327
0.935991
0.931982
0.932756
0.860682
0.822873
0.839736
0.849459
0.845059
0.853559
0.94046
0.823517
0.867006
0.892381
0.88362
0.828241
0.810853
0.939899
0.840384
0.871717
0.936697
0.8207
0.930435
0.851831
0.912962
0.846157
0.948669
0.942079
0.818943
0.945132
0.939199
0.830097
0.943363
0.862028
0.946471
0.807715
0.834392
0.934579
0.815052
0.93433
0.81134
0.852358
0.811313
0.931677
0.827302
0.868664
0.840745
0.806716
0.860604
0.926568
0.81195
0.930086
0.86785
0.862491
0.931836
0.919432
0.816448
0.842496
0.928384
0.893368
0.828075
0.907506
0.92224
0.935054
0.941398
0.935215
0.903084
0.862997
0.92857
0.926129
0.948617
0.922087
0.828709
0.866231
0.929959
0.8407
0.883752
0.862545
0.931615
0.947373
0.815575
0.919915
0.935115
0.807518
0.815002
0.861456
0.858402
0.930897
0.909187
0.862612
0.863149
0.927803
0.909488
0.938276
0.882751
0.860736
0.855035
0.834046
0.856454
0.823778
0.918041
0.825041
0.807109
0.805515
0.934938
0.930886
0.887539
0.926565
0.941888
0.864057
0.867209
0.893244
0.808356
0.916914
0.837918
0.873097
0.810992
0.869271
0.912749
0.867901
0.904082
0.90567
0.914138
0.878234
0.847823
0.853969
0.884637
0.8532
0.907321
0.945335
0.868684
0.838959
0.818936
0.82603
0.891148
0.818825
0.88507
0.946665
0.866326
0.84048
0.871921
0.859091
0.942519
0.93135
0.861982
0.929999
0.864927
0.938728
0.864267
0.885987
0.814723
0.864477
0.933079
0.828068
0.945521
0.857124
0.863633
0.952897
0.809094
0.866589
0.854915
0.840925
0.939618
0.909127
0.873254
0.85969
0.9167
0.941752
0.854424
0.848023
0.938374
0.882698
0.822212
0.891954
0.812136
0.87236
0.925086
0.836078
0.840303
0.937842
0.904607
0.941227
0.911963
0.937749
0.930947
0.916738
0.85479
0.849451
0.878058
0.938998
0.864458
0.852501
0.92544
0.945685
0.937995
0.927459
0.860006
0.872569
0.920439
0.940983
0.921257
0.888832
0.919903
0.866942
0.916372
0.836436
0.925776
0.875149
0.828875
0.901963
0.856348
0.807281
0.907073
0.929248
0.859033
0.860145
0.862731
0.852052
0.823562
0.884795
0.915809
0.855947
0.814858
0.936746
0.947541
0.878519
0.929317
0.858738
0.918115
0.919533
0.810249
0.848704
0.926423
0.852776
0.907234
0.805659
0.943011
0.834046
0.808171
0.84471
0.950888
0.86182
0.876003
0.92715
0.856166
0.928794
0.859958
0.874762
0.920166
0.928719
0.929123
0.870482
0.924296
0.946073
0.866791
0.807662
0.94262
0.865191
0.901005
0.941621
0.932881
0.9521
0.864055
0.839873
0.947472
0.819417
0.817601
0.851044
0.935675
0.839967
0.860659
0.835296
0.810811
0.885664
0.931191
0.939285
0.882838
0.91565
0.925897
0.858574
0.887856
0.864286
0.93202
0.93335
0.832473
0.862515
0.891149
0.892307
0.876831
0.928533
0.909282
0.820822
0.878472
0.861385
0.931708
0.926208
0.841725
0.910379
0.929524
0.940247
0.922756
0.928527
0.818612
0.828653
0.826088
0.863007
0.806361
0.835355
0.870943
0.831045
0.825182
0.927579
0.849291
0.851243
0.85022
0.948863
0.931364
0.929782
0.811014
0.87379
0.872864
0.838053
0.841196
0.874105
0.81995
0.831435
0.839779
0.866748
0.836656
0.928559
0.93509
0.923847
0.824198
0.842738
0.9045
0.827937
0.944956
0.841686
0.863308
0.822901
0.88365
0.862258
0.817075
0.880396
0.859703
0.855235
0.858676
0.946266
0.933315
0.928114
0.925665
0.929381
0.937767
0.813832
0.904585
0.849839
0.880996
0.927274
0.906264
0.892632
0.868231
0.93979
0.939997
0.928458
0.832658
0.858737
0.921631
0.852413
0.902484
0.929382
0.899121
0.843268
0.940021
0.855937
0.829999
0.9472
0.839022
0.929495
0.920521
0.852008
0.876506
0.919084
0.878945
0.80606
0.864946
0.929344
0.839702
0.916164
0.863837
0.944926
0.848545
0.936452
0.815771
0.826545
0.934232
0.819354
0.870369
0.857082
0.807863
0.942656
0.928976
0.930483
0.94625
0.939245
0.834166
0.941587
0.887684
0.934992
0.943358
0.924667
0.881213
0.922357
0.831741
0.945022
0.931342
0.815836
0.876799
0.832423
0.883496
0.829559
0.811626
0.835506
0.946115
0.84709
0.825596
0.850177
0.92801
0.878793
0.946797
0.80651
0.945744
0.928334
0.870182
0.820066
0.845951
0.933785
0.923312
0.869563
0.813742
0.833656
0.835629
0.830188
0.83894
0.918575
0.927334
0.91762
0.827484
0.930247
0.936166
0.880664
0.82931
0.833352
0.931203
0.892044
0.825115
0.929108
0.810556
0.822986
0.865952
0.942417
0.904677
0.951372
0.924621
0.939493
0.94116
0.928866
0.93663
0.868655
0.810881
0.939272
0.927699
0.903693
0.810442
0.813249
0.946463
0.944971
0.925786
0.805487
0.845205
0.912136
0.927379
0.835949
0.874631
0.817687
0.88851
0.862856
0.820778
0.935065
0.859273
0.859711
0.92689
0.85053
0.929114
0.835155
0.924737
0.863144
0.898863
0.820883
0.925232
0.93161
0.819835
0.863193
0.882616
0.94456
0.836881
0.849732
0.875584
0.941715
0.928119
0.936763
0.816488
0.924542
0.930884
0.846775
0.944316
0.817476
0.839551
0.932726
0.919279
0.92778
0.929659
0.880017
0.856503
0.918057
0.815693
0.945531
0.816597
0.920481
0.882789
0.924509
0.932351
0.832878
0.926582
0.826509
0.942622
0.908479
0.944904
0.862697
0.814437
0.919959
0.829992
0.869861
0.864187
0.839285
0.827278
0.824047
0.913364
0.81901
0.938706
0.928997
0.82363
0.817697
0.930542
0.88001
0.935771
0.821522
0.871256
0.928982
0.870788
0.911911
0.928634
0.937404
0.924579
0.940158
0.916111
0.91793
0.823702
0.819774
0.936439
0.833683
0.928921
0.813941
0.860995
0.829642
0.941341
0.939355
0.928434
0.936619
0.923621
0.937597
0.934933
0.875804
0.827643
0.926449
0.820335
0.868961
0.876657
0.834703
0.943651
0.928081
0.859356
0.832151
0.836118
0.82193
0.835252
0.819809
0.929368
0.930197
0.934321
0.91285
0.924378
0.924517
0.86623
0.858669
0.867563
0.930895
0.910839
0.874664
0.804855
0.860472
0.936687
0.949572
0.94275
0.845295
0.868521
0.839064
0.874323
0.873225
0.936515
0.942466
0.895428
0.928047
0.945347
0.889474
0.929251
0.847663
0.837337
0.859349
0.886438
0.946466
0.864263
0.888122
0.837854
0.823612
0.806194
0.850671
0.924497
0.889567
0.926402
0.824155
0.872798
0.944246
0.809613
0.879821
0.859731
0.925385
0.926076
0.936934
0.859228
0.879067
0.906637
0.859225
0.894783
0.918591
0.929563
0.938882
0.915915
0.933527
0.882423
0.823409
0.888084
0.898946
0.925154
0.843451
0.913945
0.952164
0.926555
0.926449
0.948224
0.871925
0.805072
0.950503
0.911819
0.838154
0.926385
0.937835
0.864065
0.864088
0.912246
0.873611
0.859553
0.8858
0.917833
0.804673
0.933906
0.858549
0.865135
0.92147
0.931035
0.935862
0.893412
0.911537
0.860722
0.920201
0.926723
0.86655
0.864665
0.92252
0.825895
0.926536
0.822753
0.887426
0.920874
0.869627
0.86132
0.816677
0.941603
0.834424
0.900198
0.93534
0.928164
0.933628
0.876913
0.863366
0.884533
0.947589
0.92296
0.929359
0.877524
0.900423
0.883192
0.822383
0.805697
0.889747
0.834277
0.933709
0.89821
0.819717
0.867484
0.935155
0.897291
0.949302
0.853182
0.920573
0.809062
0.933345
0.909125
0.917634
0.942709
0.856312
0.867777
0.840028
0.931212
0.867163
0.948372
0.862427
0.822511
0.933015
0.86836
0.923497
0.80457
0.857982
0.87171
0.865849
0.899512
0.827006
0.931288
0.932281
0.92965
0.838343
0.925173
0.901047
0.804416
0.929626
0.936233
0.898711
0.886175
0.937676
0.925825
0.888064
0.859119
0.919419
0.864525
0.839267
0.896418
0.922112
0.888229
0.810838
0.863367
0.881074
0.930227
0.85391
0.90039
0.881346
0.939706
0.857588
0.928971
0.91728
0.949276
0.807045
0.921495
0.81234
0.833393
0.928683
0.890628
0.842742
0.810935
0.925313
0.876126
0.819479
0.928364
0.928267
0.929405
0.928659
0.8654
0.920949
0.861661
0.865217
0.928253
0.874924
0.92906
0.929023
0.809329
0.929121
0.928879
0.872089
0.861203
0.931215
0.913898
0.830347
0.928925
0.943914
0.930271
0.919013
0.920583
0.922079
0.839416
0.924407
0.929534
0.85905
0.87596
0.944424
0.857033
0.809707
0.842984
0.920089
0.925143
0.854938
0.924922
0.922282
0.947171
0.809835
0.8251
0.924784
0.810177
0.927268
0.83136
0.869026
0.928414
0.928124
0.86174
0.875173
0.92932
0.852174
0.843993
0.870994
0.932945
0.858561
0.927006
0.819262
0.896612
0.809053
0.808267
0.837958
0.929437
0.866735
0.882557
0.817232
0.858107
0.822192
0.932617
0.863527
0.940512
0.81913
0.819269
0.932637
0.919812
0.886074
0.92666
0.862143
0.829296
0.857346
0.817805
0.910197
0.859134
0.859856
0.93001
0.866083
0.950851
0.864596
0.869453
0.818474
0.928378
0.941621
0.814208
0.929364
0.923846
0.890975
0.860208
0.946037
0.809782
0.93523
0.841159
0.867899
0.86153
0.91047
0.878956
0.895187
0.872274
0.932597
0.945177
0.927278
0.806805
0.860952
0.885902
0.90488
0.861432
0.854693
0.95125
0.857375
0.92736
0.830577
0.856613
0.931925
0.820097
0.830622
0.8678
0.81943
0.916012
0.83534
0.807748
0.900254
0.930597
0.850528
0.818734
0.915071
0.938703
0.865781
0.811557
0.815708
0.82616
0.879571
0.920446
0.922913
0.843334
0.873619
0.925966
0.927814
0.808722
0.821076
0.846457
0.909116
0.830435
0.917151
0.917853
0.861881
0.92176
0.944819
0.864775
0.898919
0.923709
0.859064
0.944426
0.91976
0.910031
0.928489
0.836633
0.85021
0.836612
0.93774
0.942897
0.833636
0.872248
0.929784
0.936852
0.860145
0.940951
0.939813
0.932124
0.935468
0.838262
0.938973
0.938582
0.858257
0.831944
0.933698
0.923698
0.933969
0.81828
0.85274
0.855989
0.826933
0.846302
0.892985
0.843922
0.870697
0.926494
0.937259
0.939812
0.828434
0.83992
0.935553
0.840923
0.930373
0.943443
0.94181
0.914202
0.805128
0.932051
0.929168
0.923356
0.813666
0.833094
0.945852
0.928361
0.945027
0.929953
0.812651
0.848162
0.853243
0.858261
0.931119
0.928633
0.82862
0.870014
0.814781
0.824647
0.93064
0.828462
0.927028
0.845704
0.860342
0.822784
0.857837
0.843185
0.866519
0.837015
0.910977
0.863302
0.819165
0.836603
0.85752
0.887972
0.92655
0.838574
0.850605
0.92847
0.924164
0.920228
0.858275
0.848872
0.927307
0.834848
0.812063
0.897513
0.878001
0.933202
0.859407
0.907442
0.929298
0.829627
0.931312
0.825703
0.809942
0.858267
0.806749
0.809541
0.940557
0.924269
0.833437
0.851785
0.87927
0.867672
0.833452
0.912433
0.823376
0.928938
0.826727
0.919083
0.85634
0.927776
0.824587
0.932207
0.822386
0.928106
0.805992
0.918997
0.930093
0.928158
0.929633
0.889188
0.928751
0.919268
0.876735
0.938284
0.844038
0.822138
0.945829
0.930303
0.931057
0.945744
0.929387
0.928437
0.921495
0.926013
0.929173
0.862007
0.854008
0.819126
0.816305
0.928244
0.928657
0.919964
0.930656
0.928167
0.842755
0.824258
0.928129
0.83133
0.837626
0.842009
0.930186
0.928689
0.929395
0.842652
0.863714
0.879943
0.813594
0.831339
0.817097
0.929431
0.929351
0.929292
0.814083
0.826402
0.814941
0.810901
0.928675
0.939013
0.924211
0.834028
0.928737
0.924198
0.853431
0.929148
0.84178
0.85413
0.929185
0.831666
0.82323
0.84822
0.926332
0.927863
0.934302
0.930121
0.855706
0.922988
0.939798
0.929029
0.841892
0.81772
0.818986
0.8274
0.933527
0.931257
0.811427
0.921197
0.922786
0.843073
0.816088
0.864996
0.822038
0.926484
0.839084
0.854792
0.825955
0.913018
0.944127
0.834735
0.808744
0.942655
0.940669
0.833136
0.938161
0.811928
0.925938
0.929812
0.925182
0.818469
0.925385
0.883376
0.933104
0.843885
0.813167
0.834962
0.929552
0.842263
0.819951
0.911785
0.837755
0.923231
0.920603
0.925884
0.828273
0.920756
0.924682
0.933284
0.844209
0.943479
0.826248
0.899435
0.92851
0.937181
0.927394
0.82399
0.806489
0.821326
0.928987
0.83617
0.926034
0.864551
0.892999
0.815625
0.83121
0.927616
0.929088
0.919309
0.87786
0.901097
0.832653
0.8611
0.918659
0.865984
0.81048
0.904726
0.806584
0.840809
0.808537
0.92356
0.934384
0.829821
0.830288
0.916789
0.857115
0.921433
0.817228
0.820068
0.92901
0.93088
0.900127
0.931364
0.818589
0.860042
0.92419
0.819398
0.833311
0.950862
0.933412
0.939875
0.916267
0.804108
0.927398
0.915508
0.827317
0.948607
0.831743
0.927229
0.857038
0.818518
0.941475
0.9233
0.923377
0.938068
0.813013
0.856997
0.857949
0.81493
0.917494
0.941838
0.831707
0.938965
0.925041
0.815013
0.81851
0.846854
0.922585
0.937682
0.928962
0.87327
0.925507
0.903477
0.841023
0.940445
0.933849
0.859718
0.942975
0.931569
0.898118
0.947327
0.820839
0.805116
0.813451
0.927748
0.946173
0.812455
0.816648
0.850117
0.944874
0.84939
0.92884
0.932068
0.908728
0.921609
0.806617
0.904432
0.819297
0.900154
0.931965
0.821621
0.889891
0.94608
0.902097
0.860484
0.824267
0.897246
0.832914
0.80952
0.811095
0.886573
0.834252
0.855496
0.813317
0.885669
0.927223
0.933646
0.945678
0.834931
0.847884
0.883333
0.817182
0.920559
0.895753
0.870098
0.9057
0.88534
0.824779
0.814554
0.82457
0.864549
0.880207
0.83394
0.877808
0.931473
0.93134
0.836789
0.865135
0.924788
0.917379
0.930669
0.852167
0.926027
0.832938
0.930523
0.902967
0.813845
0.89473
0.813081
0.807476
0.879879
0.821857
0.941579
0.936317
0.812813
0.91366
0.938194
0.86362
0.893814
0.809373
0.938292
0.947277
0.944904
0.935906
0.944899
0.942202
0.933922
0.864328
0.813664
0.836848
0.842639
0.918823
0.880719
0.904939
0.875789
0.814882
0.864911
0.861865
0.806576
0.872313
0.865539
0.936146
0.909065
0.899968
0.938041
0.904438
0.861269
0.866319
0.896181
0.913243
0.930173
0.9438
0.937375
0.925324
0.917167
0.807426
0.891797
0.925197
0.893628
0.859268
0.942695
0.860234
0.912886
0.920274
0.912869
0.829638
0.809488
0.932474
0.851354
0.94472
0.86693
0.867316
0.812021
0.92302
0.887931
0.83263
0.812029
0.938309
0.819983
0.804948
0.870615
0.868081
0.858004
0.933531
0.928746
0.881636
0.808119
0.925036
0.884562
0.935043
0.808575
0.947309
0.805349
0.924115
0.8045
0.949539
0.804439
0.856529
0.816217
0.945089
0.951447
0.804799
0.861867
0.881205
0.9298
0.872243
0.926439
0.832039
0.938441
0.930327
0.814714
0.837654
0.945405
0.934534
0.953773
0.804297
0.859482
0.945162
0.821344
0.877972
0.924494
0.854723
0.827156
0.811922
0.930826
0.890643
0.805604
0.93174
0.931048
0.929365
0.931853
0.91854
0.862719
0.820173
0.938405
0.823848
0.927609
0.825661
0.824755
0.826465
0.947115
0.830799
0.812849
0.838536
0.827515
0.843999
0.83567
0.833433
0.924996
0.82852
0.80594
0.944562
0.812255
0.804839
0.830822
0.82961
0.94441
0.859175
0.828638
0.815357
0.955423
0.804078
0.819266
0.841498
0.937746
0.826511
0.875345
0.806919
0.929742
0.824896
0.844979
0.862588
0.93058
0.865853
0.818272
0.804665
0.821225
0.839986
0.94477
0.823014
0.806265
0.863075
0.9368
0.9458
0.930162
0.852679
0.927987
0.869509
0.927148
0.872877
0.836826
0.935682
0.808222
0.869678
0.93455
0.927883
0.917074
0.933272
0.921631
0.858722
0.924058
0.87366
0.876194
0.941501
0.931896
0.873081
0.926423
0.88928
0.930961
0.829518
0.920675
0.808053
0.827993
0.927979
0.848005
0.850673
0.864622
0.943017
0.943922
0.854734
0.944441
0.824456
0.87933
0.943124
0.926354
0.942502
0.875716
0.872084
0.941492
0.871639
0.940548
0.937361
0.939331
0.844296
0.938166
0.850515
0.936756
0.934988
0.883512
0.94673
0.933093
0.931104
0.848334
0.905024
0.810823
0.866531
0.921398
0.929413
0.939256
0.846704
0.935739
0.956058
0.80398
0.927642
0.8125
0.869916
0.846071
0.848852
0.94331
0.887396
0.919314
0.845983
0.870761
0.937897
0.918772
0.850017
0.835609
0.891693
0.92917
0.810439
0.816827
0.841664
0.916652
0.853035
0.859497
0.805881
0.942955
0.843337
0.935814
0.871691
0.947571
0.867969
0.836698
0.896074
0.855992
0.953966
0.920245
0.918167
0.875566
0.930481
0.840976
0.821271
0.929952
0.849977
0.851145
0.8584
0.829926
0.83357
0.886297
0.900593
0.925412
0.916765
0.83875
0.927094
0.936917
0.836846
0.817118
0.908934
0.835069
0.919929
0.866063
0.833264
0.919855
0.922982
0.829093
0.831591
0.904918
0.94853
0.82982
0.813925
0.828447
0.876012
0.826905
0.822422
0.825796
0.930414
0.853344
0.823479
0.907936
0.824631
0.860277
0.929351
0.923471
0.943548
0.955456
0.855234
0.817026
0.864612
0.84214
0.925146
0.89773
0.820609
0.918878
0.862306
0.943726
0.872194
0.827447
0.895165
0.82146
0.927906
0.933424
0.919349
0.821938
0.928696
0.928753
0.814757
0.826924
0.852532
0.92322
0.841383
0.929183
0.824275
0.823807
0.80788
0.81592
0.923596
0.943786
0.817079
0.906843
0.926706
0.929275
0.836815
0.954327
0.874276
0.849573
0.84221
0.924393
0.913892
0.899306
0.862406
0.942711
0.952992
0.935147
0.914717
0.874894
0.916432
0.875665
0.919027
0.862035
0.942345
0.848261
0.87526
0.808024
0.940408
0.898924
0.829862
0.812074
0.928604
0.929264
0.896126
0.810054
0.869153
0.818737
0.812707
0.824907
0.865621
0.809084
0.81758
0.821537
0.907652
0.906165
0.820013
0.917713
0.91743
0.901925
0.897803
0.932953
0.831679
0.910218
0.940131
0.94558
0.941964
0.88811
0.826782
0.806102
0.808539
0.805807
0.880841
0.816808
0.925068
0.884917
0.891521
0.853423
0.92151
0.931435
0.931793
0.931321
0.929528
0.924749
0.822368
0.927418
0.93105
0.928917
0.846591
0.821688
0.812943
0.832728
0.88382
0.836155
0.931836
0.942271
0.924601
0.881835
0.908438
0.811122
0.859048
0.922601
0.93246
0.934269
0.836527
0.94368
0.822594
0.933036
0.873324
0.838171
0.935976
0.806013
0.947797
0.879062
0.929259
0.81378
0.923313
0.805505
0.925706
0.924695
0.862154
0.82859
0.805392
0.937025
0.944465
0.840972
0.916849
0.864065
0.895822
0.807639
0.815324
0.834765
0.927696
0.805521
0.813763
0.929752
0.923392
0.830893
0.863545
0.809529
0.929299
0.927733
0.862113
0.861751
0.927218
0.857359
0.944585
0.902768
0.937717
0.927624
0.864863
0.843562
0.933782
0.859692
0.804276
0.858527
0.931255
0.910728
0.860756
0.940567
0.865395
0.803957
0.906055
0.933744
0.919067
0.814346
0.914515
0.897823
0.902116
0.921507
0.940276
0.925712
0.923039
0.866155
0.920963
0.918014
0.860094
0.857258
0.938906
0.841745
0.824269
0.873995
0.825191
0.826072
0.946292
0.820136
0.831395
0.937829
0.826937
0.928763
0.944592
0.874257
0.822188
0.917656
0.832093
0.829634
0.834568
0.825825
0.827375
0.823791
0.837016
0.828062
0.893866
0.839927
0.828999
0.923388
0.92957
0.830266
0.930055
0.806346
0.822487
0.931454
0.930255
0.930648
0.806038
0.855442
0.835506
0.925067
0.926397
0.889355
0.937195
0.937441
0.934646
0.946549
0.9147
0.924901
0.94661
0.822621
0.866956
0.815571
0.921898
0.932939
0.881629
0.921294
0.936618
0.941367
0.92633
0.810468
0.859682
0.928295
0.820652
0.919235
0.924814
0.862152
0.86873
0.950505
0.863083
0.886405
0.85353
0.935711
0.937283
0.923893
0.944318
0.867822
0.86039
0.842815
0.934649
0.933488
0.932722
0.883156
0.943463
0.932225
0.922117
0.822938
0.860436
0.851619
0.870322
0.927141
0.943808
0.821204
0.943225
0.931217
0.806471
0.879628
0.852637
0.93045
0.942438
0.814003
0.927589
0.805175
0.941772
0.813096
0.927342
0.940839
0.93967
0.849432
0.936281
0.84774
0.862189
0.877007
0.868986
0.938469
0.93729
0.861041
0.86473
0.924162
0.935752
0.855869
0.871911
0.933816
0.931894
0.930047
0.926952
0.845516
0.847175
0.874861
0.868168
0.928477
0.810458
0.857993
0.948541
0.857079
0.922026
0.891434
0.849933
0.87175
0.875142
0.844761
0.848618
0.852966
0.872958
0.805824
0.932537
0.848748
0.878307
0.920053
0.842186
0.851066
0.871092
0.935436
0.854746
0.920447
0.940366
0.839746
0.917477
0.920525
0.920248
0.857285
0.821798
0.88205
0.852226
0.843875
0.927096
0.853139
0.822986
0.869184
0.804396
0.837839
0.835874
0.834315
0.832476
0.830567
0.829281
0.826294
0.824079
0.827704
0.881516
0.825198
0.804468
0.839643
0.816813
0.854009
0.886007
0.812898
0.859383
0.945132
0.860028
0.835365
0.889919
0.822947
0.858018
0.867174
0.817433
0.81852
0.894052
0.838952
0.914889
0.809852
0.815236
0.865553
0.910732
0.922021
0.898542
0.861374
0.906621
0.816395
0.933385
0.831352
0.902717
0.863481
0.831803
0.944371
0.814583
0.928769
0.805314
0.950177
0.941758
0.929955
0.954459
0.862084
0.942346
0.914819
0.84462
0.932579
0.948134
0.944195
0.806145
0.873319
0.9388
0.807259
0.933952
0.808657
0.938084
0.865938
0.939181
0.826441
0.826174
0.854832
0.823237
0.855535
0.809918
0.926304
0.903699
0.863846
0.893945
0.929623
0.86511
0.807077
0.891186
0.938705
0.859658
0.871654
0.927889
0.941025
0.945219
0.905003
0.818183
0.867698
0.811986
0.922651
0.813152
0.812574
0.814302
0.918709
0.93578
0.807094
0.817268
0.916408
0.818126
0.916371
0.838457
0.818984
0.916535
0.937577
0.916784
0.820189
0.917079
0.895163
0.820807
0.917487
0.809604
0.821381
0.918052
0.884544
0.935493
0.804754
0.951444
0.859739
0.927914
0.851169
0.947149
0.807578
0.82318
0.922641
0.837573
0.822604
0.821997
0.860022
0.926073
0.921045
0.928304
0.941709
0.940001
0.927622
0.845706
0.945872
0.939699
0.825067
0.927348
0.928908
0.825827
0.937805
0.818054
0.932109
0.859885