# vtk DataFile Version 1.0
unstructured grid
ascii
DATASET UNSTRUCTURED_GRID
points 3920 float
-1 0 0
-1 1 0
2 0 0
2 1 0
0 0 0
1 0 0
-1 1 0.1
-1 0 0.1
0 0 0.1
1 0 0.1
2 0 0.1
2 1 0.1
-0.98 0 0
-0.96 0 0
-0.94 0 0
-0.92 0 0
-0.9 0 0
-0.88 0 0
-0.86 0 0
-0.84 0 0
-0.82 0 0
-0.8 0 0
-0.78 0 0
-0.76 0 0
-0.74 0 0
-0.72 0 0
-0.7 0 0
-0.68 0 0
-0.66 0 0
-0.64 0 0
-0.62 0 0
-0.6 0 0
-0.58 0 0
-0.56 0 0
-0.54 0 0
-0.52 0 0
-0.5 0 0
-0.48 0 0
-0.46 0 0
-0.44 0 0
-0.42 0 0
-0.4 0 0
-0.38 0 0
-0.36 0 0
-0.34 0 0
-0.32 0 0
-0.3 0 0
-0.28 0 0
-0.26 0 0
-0.24 0 0
-0.22 0 0
-0.2 0 0
-0.18 0 0
-0.16 0 0
-0.14 0 0
-0.12 0 0
-0.1 0 0
-0.08 0 0
-0.06 0 0
-0.04 0 0
-0.02 0 0
1.02 0 0
1.04 0 0
1.06 0 0
1.08 0 0
1.1 0 0
1.12 0 0
1.14 0 0
1.16 0 0
1.18 0 0
1.2 0 0
1.22 0 0
1.24 0 0
1.26 0 0
1.28 0 0
1.3 0 0
1.32 0 0
1.34 0 0
1.36 0 0
1.38 0 0
1.4 0 0
1.42 0 0
1.44 0 0
1.46 0 0
1.48 0 0
1.5 0 0
1.52 0 0
1.54 0 0
1.56 0 0
1.58 0 0
1.6 0 0
1.62 0 0
1.64 0 0
1.66 0 0
1.68 0 0
1.7 0 0
1.72 0 0
1.74 0 0
1.76 0 0
1.78 0 0
1.8 0 0
1.82 0 0
1.84 0 0
1.86 0 0
1.88 0 0
1.9 0 0
1.92 0 0
1.94 0 0
1.96 0 0
1.98 0 0
2 0.0199133 0
2 0.0414128 0
2 0.0646247 0
2 0.0896856 0
2 0.116743 0
2 0.145955 0
2 0.177494 0
2 0.211545 0
2 0.248309 0
2 0.288001 0
2 0.330854 0
2 0.377121 0
2 0.427073 0
2 0.481004 0
2 0.539231 0
2 0.602096 0
2 0.669968 0
2 0.743247 0
2 0.822362 0
2 0.907779 0
1.9 1 0
1.8 1 0
1.7 1 0
1.6 1 0
1.5 1 0
1.4 1 0
1.3 1 0
1.2 1 0
1.1 1 0
1 1 0
0.9 1 0
0.8 1 0
0.7 1 0
0.6 1 0
0.5 1 0
0.4 1 0
0.3 1 0
0.2 1 0
0.1 1 0
3.69793e-12 1 0
-0.1 1 0
-0.2 1 0
-0.3 1 0
-0.4 1 0
-0.5 1 0
-0.6 1 0
-0.7 1 0
-0.8 1 0
-0.9 1 0
-1 0.907779 0
-1 0.822362 0
-1 0.743247 0
-1 0.669968 0
-1 0.602096 0
-1 0.539231 0
-1 0.481004 0
-1 0.427073 0
-1 0.377121 0
-1 0.330854 0
-1 0.288001 0
-1 0.248309 0
-1 0.211545 0
-1 0.177494 0
-1 0.145955 0
-1 0.116743 0
-1 0.0896856 0
-1 0.0646247 0
-1 0.0414128 0
-1 0.0199133 0
0.0182781 0.00745351 0
0.0366672 0.0146286 0
0.0551632 0.0215237 0
0.0737617 0.0281372 0
0.0924585 0.0344675 0
0.111249 0.0405131 0
0.13013 0.0462728 0
0.149095 0.0517451 0
0.168142 0.0569289 0
0.187265 0.0618228 0
0.20646 0.0664258 0
0.225723 0.0707368 0
0.245049 0.0747549 0
0.264434 0.078479 0
0.283873 0.0819084 0
0.303362 0.0850422 0
0.322896 0.0878798 0
0.342472 0.0904204 0
0.362083 0.0926635 0
0.381726 0.0946086 0
0.401397 0.0962552 0
0.42109 0.0976029 0
0.440802 0.0986514 0
0.460527 0.0994006 0
0.480261 0.0998501 0
0.5 0.1 0
0.519739 0.0998501 0
0.539473 0.0994006 0
0.559198 0.0986514 0
0.57891 0.0976029 0
0.598603 0.0962552 0
0.618274 0.0946086 0
0.637917 0.0926635 0
0.657528 0.0904204 0
0.677104 0.0878798 0
0.696638 0.0850422 0
0.716127 0.0819084 0
0.735566 0.078479 0
0.754951 0.0747549 0
0.774277 0.0707368 0
0.79354 0.0664258 0
0.812735 0.0618228 0
0.831858 0.0569289 0
0.850905 0.0517451 0
0.86987 0.0462728 0
0.888751 0.0405131 0
0.907542 0.0344675 0
0.926238 0.0281372 0
0.944837 0.0215237 0
0.963333 0.0146286 0
0.981722 0.00745351 0
-1 0.907779 0.1
-1 0.822362 0.1
-1 0.743247 0.1
-1 0.669968 0.1
-1 0.602096 0.1
-1 0.539231 0.1
-1 0.481004 0.1
-1 0.427073 0.1
-1 0.377121 0.1
-1 0.330854 0.1
-1 0.288001 0.1
-1 0.248309 0.1
-1 0.211545 0.1
-1 0.177494 0.1
-1 0.145955 0.1
-1 0.116743 0.1
-1 0.0896856 0.1
-1 0.0646247 0.1
-1 0.0414128 0.1
-1 0.0199133 0.1
-0.98 0 0.1
-0.96 0 0.1
-0.94 0 0.1
-0.92 0 0.1
-0.9 0 0.1
-0.88 0 0.1
-0.86 0 0.1
-0.84 0 0.1
-0.82 0 0.1
-0.8 0 0.1
-0.78 0 0.1
-0.76 0 0.1
-0.74 0 0.1
-0.72 0 0.1
-0.7 0 0.1
-0.68 0 0.1
-0.66 0 0.1
-0.64 0 0.1
-0.62 0 0.1
-0.6 0 0.1
-0.58 0 0.1
-0.56 0 0.1
-0.54 0 0.1
-0.52 0 0.1
-0.5 0 0.1
-0.48 0 0.1
-0.46 0 0.1
-0.44 0 0.1
-0.42 0 0.1
-0.4 0 0.1
-0.38 0 0.1
-0.36 0 0.1
-0.34 0 0.1
-0.32 0 0.1
-0.3 0 0.1
-0.28 0 0.1
-0.26 0 0.1
-0.24 0 0.1
-0.22 0 0.1
-0.2 0 0.1
-0.18 0 0.1
-0.16 0 0.1
-0.14 0 0.1
-0.12 0 0.1
-0.1 0 0.1
-0.08 0 0.1
-0.06 0 0.1
-0.04 0 0.1
-0.02 0 0.1
0.0182781 0.00745351 0.1
0.0366672 0.0146286 0.1
0.0551632 0.0215237 0.1
0.0737617 0.0281372 0.1
0.0924585 0.0344675 0.1
0.111249 0.0405131 0.1
0.13013 0.0462728 0.1
0.149095 0.0517451 0.1
0.168142 0.0569289 0.1
0.187265 0.0618228 0.1
0.20646 0.0664258 0.1
0.225723 0.0707368 0.1
0.245049 0.0747549 0.1
0.264434 0.078479 0.1
0.283873 0.0819084 0.1
0.303362 0.0850422 0.1
0.322896 0.0878798 0.1
0.342472 0.0904204 0.1
0.362083 0.0926635 0.1
0.381726 0.0946086 0.1
0.401397 0.0962552 0.1
0.42109 0.0976029 0.1
0.440802 0.0986514 0.1
0.460527 0.0994006 0.1
0.480261 0.0998501 0.1
0.5 0.1 0.1
0.519739 0.0998501 0.1
0.539473 0.0994006 0.1
0.559198 0.0986514 0.1
0.57891 0.0976029 0.1
0.598603 0.0962552 0.1
0.618274 0.0946086 0.1
0.637917 0.0926635 0.1
0.657528 0.0904204 0.1
0.677104 0.0878798 0.1
0.696638 0.0850422 0.1
0.716127 0.0819084 0.1
0.735566 0.078479 0.1
0.754951 0.0747549 0.1
0.774277 0.0707368 0.1
0.79354 0.0664258 0.1
0.812735 0.0618228 0.1
0.831858 0.0569289 0.1
0.850905 0.0517451 0.1
0.86987 0.0462728 0.1
0.888751 0.0405131 0.1
0.907542 0.0344675 0.1
0.926238 0.0281372 0.1
0.944837 0.0215237 0.1
0.963333 0.0146286 0.1
0.981722 0.00745351 0.1
1.02 0 0.1
1.04 0 0.1
1.06 0 0.1
1.08 0 0.1
1.1 0 0.1
1.12 0 0.1
1.14 0 0.1
1.16 0 0.1
1.18 0 0.1
1.2 0 0.1
1.22 0 0.1
1.24 0 0.1
1.26 0 0.1
1.28 0 0.1
1.3 0 0.1
1.32 0 0.1
1.34 0 0.1
1.36 0 0.1
1.38 0 0.1
1.4 0 0.1
1.42 0 0.1
1.44 0 0.1
1.46 0 0.1
1.48 0 0.1
1.5 0 0.1
1.52 0 0.1
1.54 0 0.1
1.56 0 0.1
1.58 0 0.1
1.6 0 0.1
1.62 0 0.1
1.64 0 0.1
1.66 0 0.1
1.68 0 0.1
1.7 0 0.1
1.72 0 0.1
1.74 0 0.1
1.76 0 0.1
1.78 0 0.1
1.8 0 0.1
1.82 0 0.1
1.84 0 0.1
1.86 0 0.1
1.88 0 0.1
1.9 0 0.1
1.92 0 0.1
1.94 0 0.1
1.96 0 0.1
1.98 0 0.1
2 0.0199133 0.1
2 0.0414128 0.1
2 0.0646247 0.1
2 0.0896856 0.1
2 0.116743 0.1
2 0.145955 0.1
2 0.177494 0.1
2 0.211545 0.1
2 0.248309 0.1
2 0.288001 0.1
2 0.330854 0.1
2 0.377121 0.1
2 0.427073 0.1
2 0.481004 0.1
2 0.539231 0.1
2 0.602096 0.1
2 0.669968 0.1
2 0.743247 0.1
2 0.822362 0.1
2 0.907779 0.1
1.9 1 0.1
1.8 1 0.1
1.7 1 0.1
1.6 1 0.1
1.5 1 0.1
1.4 1 0.1
1.3 1 0.1
1.2 1 0.1
1.1 1 0.1
1 1 0.1
0.9 1 0.1
0.8 1 0.1
0.7 1 0.1
0.6 1 0.1
0.5 1 0.1
0.4 1 0.1
0.3 1 0.1
0.2 1 0.1
0.1 1 0.1
3.69793e-12 1 0.1
-0.1 1 0.1
-0.2 1 0.1
-0.3 1 0.1
-0.4 1 0.1
-0.5 1 0.1
-0.6 1 0.1
-0.7 1 0.1
-0.8 1 0.1
-0.9 1 0.1
1.08758 0.0158154 0
-0.0898513 0.0203294 0
0.0966181 0.0537636 0
0.90205 0.0548881 0
1.21055 0.0202058 0
-0.209811 0.0159577 0
1.3305 0.0176902 0
-0.33 0.0173205 0
1.45324 0.0148141 0
-0.448654 0.0159854 0
1.56842 0.0191785 0
-0.569936 0.0166364 0
0.193292 0.0805369 0
0.805051 0.0813623 0
0.709096 0.100353 0
0.288591 0.0996656 0
0.390184 0.111848 0
0.61033 0.111742 0
0.488809 0.116278 0
1.67175 0.0169692 0
-0.67 0.0169809 0
-0.955017 0.454039 0
1.95131 0.44569 0
1.74981 0.0168753 0
-0.75 0.0173205 0
-0.968032 0.266538 0
1.96871 0.266267 0
0.978232 0.0305687 0
0.0208675 0.026451 0
-0.150454 0.91842 0
1.13854 0.907437 0
1.45012 0.904365 0
-0.445923 0.908903 0
-0.853423 0.0157019 0
1.84881 0.016319 0
0.853689 0.915652 0
0.153944 0.912184 0
0.545151 0.914125 0
0.549913 0.115152 0
1.51 0.0173205 0
-0.506989 0.01651 0
1.27 0.0173205 0
1.14976 0.0173333 0
-0.268171 0.0206442 0
-0.150501 0.0153244 0
-0.391384 0.0153993 0
1.38886 0.0171544 0
-0.973694 0.161724 0
1.97441 0.162392 0
-0.945221 0.633523 0
1.94544 0.63312 0
1.91008 0.0186068 0
-0.91 0.0169616 0
-0.030664 0.0194327 0
1.03074 0.0165456 0
-0.966065 0.353575 0
1.96128 0.359765 0
1.93879 0.781254 0
-0.937057 0.781882 0
-0.980746 0.080709 0
1.9772 0.0760699 0
0.058735 0.0409372 0
0.355202 0.913001 0
0.86356 0.0661005 0
0.134223 0.0651111 0
0.941972 0.0397386 0
-0.653034 0.915003 0
1.65328 0.904589 0
0.770126 0.0881325 0
0.232946 0.0902008 0
0.330582 0.105648 0
0.670612 0.108365 0
0.428707 0.116145 0
1.80993 0.016629 0
-0.810168 0.0172178 0
-0.71 0.0173205 0
1.63047 0.0175504 0
1.70842 0.0169661 0
-0.628824 0.0181787 0
-0.949815 0.0133898 0
1.95 0.0173205 0
1.85542 0.907891 0
-0.85 0.913397 0
1.9833 0.0307692 0
-0.983315 0.0309709 0
-0.750025 0.916468 0
-0.701107 0.836904 0
-0.607741 0.836428 0
-0.656448 0.759827 0
-0.572936 0.758144 0
-0.61411 0.691195 0
-0.539534 0.689068 0
-0.578542 0.626111 0
-0.507461 0.624216 0
-0.544001 0.566638 0
-0.477696 0.564279 0
-0.511582 0.51001 0
-0.451689 0.507147 0
-0.481834 0.457732 0
-0.426137 0.454624 0
-0.453236 0.407539 0
-0.398845 0.406233 0
-0.507958 0.409496 0
-0.368427 0.460177 0
-0.344602 0.405209 0
-0.315696 0.447824 0
-0.294128 0.402169 0
-0.262844 0.444518 0
-0.241968 0.388746 0
-0.209878 0.439557 0
-0.185184 0.391135 0
-0.156687 0.437338 0
-0.133719 0.390776 0
-0.104405 0.434306 0
-0.0818745 0.388334 0
-0.0528785 0.431165 0
-0.0305984 0.385639 0
-0.00180552 0.427863 0
0.0194564 0.382608 0
0.0485809 0.42449 0
0.0701962 0.37973 0
0.0985483 0.421145 0
0.119893 0.377339 0
0.147837 0.417911 0
0.172552 0.36751 0
0.197018 0.412597 0
0.221203 0.37141 0
0.24512 0.409646 0
-0.48178 0.364657 0
-0.531053 0.364782 0
-0.0599102 0.344151 0
-0.324909 0.359566 0
0.266181 0.368462 0
0.292132 0.407649 0
0.311992 0.365779 0
0.338918 0.404821 0
0.357567 0.355909 0
0.384723 0.40053 0
0.404675 0.359681 0
0.430617 0.398558 0
0.450457 0.35827 0
0.474237 0.395182 0
0.496746 0.34898 0
0.520548 0.397931 0
0.542071 0.353121 0
0.566011 0.389914 0
0.585061 0.350856 0
0.609352 0.38696 0
0.629069 0.348168 0
0.655979 0.391217 0
0.67472 0.346182 0
0.699346 0.381414 0
0.719333 0.341965 0
0.743718 0.377547 0
0.764028 0.339036 0
0.788201 0.373582 0
0.807659 0.336101 0
0.832821 0.372249 0
0.852309 0.334017 0
0.877785 0.370339 0
0.897875 0.331141 0
0.922904 0.366281 0
0.943173 0.327335 0
0.968282 0.363358 0
0.989029 0.324222 0
1.01391 0.361511 0
1.03465 0.321428 0
1.05949 0.358447 0
1.08389 0.312052 0
1.10575 0.355104 0
1.12889 0.31562 0
1.15067 0.353235 0
1.17157 0.312819 0
1.19626 0.349369 0
1.21618 0.309863 0
1.2416 0.346914 0
1.26131 0.30715 0
1.28691 0.344312 0
1.30571 0.303752 0
1.33144 0.341222 0
1.35018 0.300911 0
1.3758 0.338308 0
1.39501 0.298931 0
1.42015 0.335235 0
1.43904 0.296349 0
1.46355 0.330194 0
1.48256 0.293347 0
1.50685 0.326967 0
1.52589 0.29055 0
1.54996 0.325305 0
1.56909 0.287929 0
[...]
CELL_DATA 3694
SCALARS rho float
LOOKUP_TABLE default
0.749762
0.697253
0.805445
0.82643
0.834401
0.806871
0.795087
0.802142
0.821927
0.804261
0.829172
0.829159
0.839317
0.793248
0.80281
0.768971
0.804425
0.804495
0.776353
0.854659
0.826425
0.832913
0.730512
0.805121
0.72781
0.838292
0.730624
0.808672
0.836657
0.79986
0.799987
0.728376
0.804975
0.82556
0.804676
0.808717
0.842434
0.832558
0.83295
0.781774
0.806363
0.818739
0.834278
0.826096
0.807116
0.826336
0.803287
0.700269
0.700564
0.747132
0.803953
0.803743
0.851685
0.804431
0.690194
0.843354
0.804496
0.828386
0.83232
0.766779
0.79935
0.830401
0.848294
0.8017
0.849243
0.838846
0.809813
0.827445
0.742755
0.862981
0.803838
0.809508
0.832943
0.804415
0.833775
0.803753
0.815326
0.801176
0.826096
0.804541
0.737261
0.819785
0.803135
0.780503
0.821104
0.801113
0.827802
0.73736
0.742278
0.832349
0.809285
0.803862
0.821785
0.824697
0.695647
0.808375
0.73823
0.829374
0.825015
0.846381
0.827908
0.778454
0.725111
0.821561
0.820547
0.830378
0.829415
0.808873
0.729553
0.826108
0.8019
0.748377
0.727487
0.830744
0.871621
0.803599
0.80998
0.824812
0.803832
0.803475
0.771448
0.822647
0.829581
0.782011
0.711242
0.768318
0.828783
0.790256
0.848519
0.730915
0.773023
0.802895
0.809841
0.784014
0.80343
0.805169
0.807258
0.803235
0.799322
0.827748
0.825794
0.734695
0.828646
0.827325
0.767378
0.702585
0.697624
0.799543
0.82895
0.814701
0.761119
0.80375
0.64303
0.789571
0.714795
0.779201
0.729773
0.794442
0.644612
0.796619
0.836609
0.671846
0.787467
0.751539
0.850562
0.640187
0.818646
0.802395
0.805382
0.694908
0.802848
0.692331
0.862587
0.649372
0.802445
0.693228
0.868654
0.841285
0.830356
0.750897
0.825814
0.729533
0.836014
0.745032
0.674588
0.804207
0.679493
0.833064
0.803581
0.85648
0.795099
0.709686
0.830007
0.799934
0.756745
0.850988
0.813121
0.853339
0.751051
0.760094
0.778218
0.803553
0.839959
0.833631
0.818007
0.82756
0.700062
0.806288
0.748607
0.804181
0.737269
0.806083
0.798336
0.803898
0.835038
0.779158
0.838881
0.762463
0.835014
0.829262
0.828982
0.851166
0.829569
0.734785
0.836119
0.686095
0.792203
0.820362
0.856626
0.83827
0.820076
0.796949
0.761775
0.829351
0.84373
0.829259
0.738681
0.810345
0.716633
0.803178
0.798225
0.820973
0.684292
0.809634
0.773039
0.800471
0.803772
0.772915
0.829628
0.862572
0.787439
0.698268
0.806586
0.804031
0.674192
0.804114
0.784296
0.803353
0.844213
0.829686
0.646527
0.829276
0.811311
0.808301
0.829158
0.803672
0.816684
0.82305
0.83505
0.769886
0.802687
0.842602
0.812637
0.803826
0.799238
0.830297
0.73495
0.628329
0.82855
0.829287
0.830856
0.806047
0.720298
0.829152
0.829167
0.826294
0.739005
0.805956
0.830353
0.653287
0.803635
0.871946
0.682937
0.773697
0.845479
0.834184
0.830053
0.712773
0.811303
0.830395
0.805358
0.8034
0.813499
0.842
0.818905
0.77494
0.809003
0.80399
0.672602
0.831502
0.83678
0.702591
0.802147
0.830067
0.821148
0.704755
0.669719
0.831792
0.833507
0.811375
0.739708
0.728392
0.734505
0.754389
0.830841
0.790112
0.805762
0.754572
0.748088
0.832329
0.821406
0.820627
0.782111
0.829613
0.827448
0.829183
0.827864
0.804104
0.809594
0.806296
0.696919
0.803435
0.814585
0.727533
0.809569
0.806908
0.830435
0.790474
0.80808
0.795585
0.830137
0.831494
0.830919
0.799898
0.721082
0.739054
0.801952
0.812633
0.676149
0.805433
0.809879
0.818622
0.757896
0.806353
0.827939
0.824367
0.829416
0.806796
0.800233
0.778511
0.806875
0.850051
0.82142
0.712904
0.805644
0.732874
0.711747
0.804473
0.64531
0.778005
0.789494
0.809307
0.827766
0.833633
0.828589
0.821392
0.830938
0.83686
0.803849
0.778561
0.811506
0.691923
0.830056
0.770835
0.749727
0.717255
0.827598
0.858062
0.830077
0.811071
0.822357
0.829263
0.791409
0.773735
0.821634
0.711732
0.794767
0.84909
0.826458
0.802885
0.868245
0.814942
0.827052
0.829345
0.83082
0.677577
0.80944
0.753794
0.799392
0.742513
0.827579
0.810568
0.797614
0.681461
0.82955
0.830143
0.824882
0.804326
0.805559
0.833863
0.805382
0.737251
0.793784
0.803769
0.829304
0.825436
0.824581
0.8748
0.83676
0.811311
0.840303
0.708169
0.83329
0.844962
0.828625
0.657684
0.829327
0.811232
0.851794
0.831761
0.804114
0.632388
0.812063
0.727343
0.808003
0.803727
0.814338
0.827905
0.825791
0.806872
0.812843
0.828023
0.749009
0.867205
0.802868
0.855886
0.828107
0.645426
0.80544
0.799797
0.824222
0.829382
0.701171
0.803877
0.81152
0.814724
0.808986
0.796935
0.829027
0.828864
0.807584
0.806493
0.831623
0.842399
0.753569
0.8082
0.811955
0.825214
0.703615
0.807245
0.826581
0.800781
0.806045
0.646989
0.84103
0.779389
0.829844
0.829366
0.839055
0.851611
0.82773
0.824654
0.739372
0.80062
0.856499
0.820341
0.726676
0.801555
0.803525
0.875347
0.851601
0.830203
0.802865
0.811494
0.76815
0.828544
0.815662
0.628831
0.804241
0.75387
0.758113
0.80498
0.824213
0.785429
0.821869
0.828879
0.837746
0.826953
0.802843
0.819472
0.744617
0.753453
0.805783
0.819383
0.830421
0.804107
0.759639
0.720803
0.827714
0.816981
0.815384
0.636476
0.827505
0.825378
0.834325
0.804468
0.818736
0.82979
0.813422
0.846569
0.804282
0.814301
0.832397
0.82901
0.825861
0.829367
0.724139
0.788818
0.804425
0.804517
0.853693
0.803229
0.811871
0.663215
0.819493
0.826006
0.812728
0.830218
0.807629
0.827008
0.742272
0.850185
0.713944
0.802082
0.829249
0.809127
0.703801
0.679782
0.817242
0.807565
0.806325
0.797321
0.80286
0.83777
0.825017
0.806768
0.803881
0.824294
0.650083
0.825292
0.80504
0.730172
0.82654
0.686362
0.796736
0.827847
0.843217
0.817508
0.826017
0.804336
0.805464
0.806123
0.802835
0.825049
0.813074
0.821059
0.80433
0.76245
0.805956
0.826241
0.825433
0.825287
0.824587
0.828639
0.829418
0.839929
0.757928
0.808767
0.828473
0.804427
0.6157
0.720035
0.813475
0.827295
0.828825
0.784862
0.810733
0.814954
0.805203
0.802326
0.804578
0.828141
0.829216
0.829347
0.796877
0.818444
0.817289
0.659872
0.781334
0.769553
0.814498
0.749782
0.716998
0.799071
0.775235
0.836396
0.830347
0.829256
0.810295
0.613183
0.817408
0.627219
0.730125
0.834289
0.872547
0.76241
0.828291
0.858208
0.719706
0.827703
0.810898
0.816563
0.808728
0.682728
0.859858
0.745065
0.75429
0.80559
0.806341
0.800858
0.833177
0.82941
0.715546
0.823775
0.801998
0.727194
0.846663
0.799887
0.657128
0.780406
0.828512
0.81953
0.829023
0.788009
0.749774
0.784775
0.836202
0.708336
0.828922
0.827158
0.836112
0.776901
0.832327
0.72325
0.806367
0.685539
0.719084
0.809099
0.82396
0.800749
0.829793
0.828722
0.829125
0.828681
0.631427
0.803249
0.830556
0.756931
0.811908
0.828602
0.825022
0.721664
0.694841
0.755088
0.673145
0.808769
0.708433
0.829022
0.802701
0.829389
0.83618
0.692603
0.813484
0.829492
0.838275
0.759828
0.793758
0.769539
0.783932
0.823158
0.664647
0.675265
0.829189
0.807226
0.822945
0.806319
0.738736
0.7906
0.746099
0.76542
0.801646
0.840175
0.81413
0.710177
0.833317
0.826228
0.823599
0.722837
0.695855
0.710704
0.87553
0.828724
0.827457
0.648814
0.728896
0.670394
0.805493
0.801438
0.695526
0.813946
0.831021
0.768326
0.801894
0.748024
0.827335
0.711538
0.829861
0.812007
0.811995
0.803933
0.831991
0.758319
0.829008
0.830076
0.786025
0.651826
0.818138
0.823221
0.76996
0.828547
0.753055
0.805101
0.834071
0.703181
0.829654
0.80334
0.81126
0.641514
0.678551
0.751905
0.80826
0.824307
0.823303
0.831419
0.816691
0.828527
0.722044
0.80269
0.824906
0.835313
0.72163
0.751477
0.825469
0.82094
0.721249
0.815298
0.785147
0.707108
0.813627
0.715192
0.814783
0.687354
0.803637
0.736672
0.701273
0.82326
0.790831
0.760097
0.661088
0.846179
0.821457
0.826155
0.781696
0.829041
0.801288
0.796027
0.801612
0.803904
0.826012
0.755383
0.811614
0.801501
0.830062
0.640084
0.803404
0.824343
0.825043
0.823474
0.823796
0.75922
0.812374
0.771947
0.763514
0.829655
0.694329
0.829467
0.828789
0.803943
0.826947
0.828125
0.745001
0.77293
0.832188
0.796251
0.805742
0.827523
0.877556
0.828296
0.809864
0.829067
0.829117
0.797099
0.829878
0.8271
0.780744
0.731876
0.848117
0.799543
0.804045
0.823643
0.791339
0.829411
0.825005
0.829963
0.829036
0.874036
0.803985
0.80705
0.829696
0.803972
0.828411
0.808939
0.753796
0.828176
0.830647
0.759057
0.738318
0.827897
0.842441
0.823315
0.704111
0.832108
0.780747
0.82013
0.803839
0.747808
0.803765
0.800209
0.817192
0.827545
0.714259
0.735423
0.803987
0.791193
0.803976
0.831378
0.728467
0.829939
0.804284
0.802408
0.829931
0.829097
0.740166
0.828352
0.772526
0.804482
0.832076
0.804887
0.785579
0.800135
0.797006
0.828841
0.668067
0.830431
0.697917
0.715229
0.805029
0.830558
0.830069
0.803923
0.82902
0.817544
0.747707
0.790742
0.862029
0.803883
0.839411
0.809513
0.641819
0.766938
0.793087
0.689915
0.757654
0.634109
0.826917
0.827514
0.823156
0.803305
0.772709
0.711709
0.779186
0.75782
0.787539
0.830386
0.843456
0.830442
0.807835
0.819858
0.830241
0.804559
0.809999
0.727306
0.804889
0.768684
0.810684
0.799514
0.768605
0.830469
0.792818
0.805172
0.80188
0.846612
0.740963
0.802291
0.801443
0.806783
0.64793
0.829027
0.829027
0.823133
0.685224
0.829026
0.828705
0.800044
0.805519
0.796843
0.788439
0.808917
0.80586
0.828928
0.758555
0.814648
0.877838
0.77317
0.764675
0.817629
0.787672
0.84928
0.810836
0.792909
0.825574
0.800858
0.796253
0.810028
0.835029
0.843383
0.802116
0.625685
0.830834
0.836725
0.7778
0.839198
0.844722
0.832564
0.835188
0.809343
0.840469
0.836001
0.788114
0.811269
0.824002
0.817491
0.832755
0.804856
0.827441
0.796328
0.805893
0.807925
0.748382
0.8092
0.623375
0.829382
0.834788
0.837438
0.808269
0.81968
0.83367
0.82068
0.831374
0.845958
0.841154
0.79975
0.80141
0.832001
0.827506
0.828968
0.801938
0.808424
0.869397
0.830834
0.853413
0.82757
0.802193
0.825197
0.802477
0.832795
0.825515
0.825812
0.807253
0.747508
0.804258
0.80634
0.828638
0.80521
0.810464
0.822967
0.806284
0.805906
0.783847
0.82086
0.732218
0.816149
0.793445
0.768822
0.805107
0.815024
0.819422
0.740806
0.83036
0.816787
0.826836
0.828477
0.799063
0.82891
0.845574
0.833234
0.823772
0.813596
0.802879
0.761928
0.716311
0.829713
0.821041
0.784442
0.825936
0.809798
0.823975
0.807474
0.800172
0.782045
0.803241
0.801414
0.847525
0.829155
0.813397
0.808286
0.640965
0.749255
0.804341
0.795288
0.806088
0.827473
0.807954
0.828905
0.785549
0.829508
0.806826
0.823104
0.805679
0.829129
0.80371
0.828913
0.82292
0.82802
0.824544
0.741069
0.825684
0.828955
0.636689
0.829386
0.799811
0.80492
0.863403
0.828659
0.822927
0.875504
0.828067
0.828314
0.829036
0.829975
0.82658
0.77218
0.829999
0.803257
0.804544
0.825381
0.828508
0.829044
0.828971
0.824554
0.823967
0.805612
0.823867
0.811049
0.817006
0.821173
0.829139
0.82339
0.829944
0.810795
0.699176
0.694596
0.8039
0.810859
0.804727
0.823123
0.829239
0.828038
0.804146
0.806319
0.802254
0.802114
0.82827
0.849576
0.829874
0.813575
0.829466
0.829629
0.844864
0.82853
0.822298
0.790313
0.827243
0.808691
0.803772
0.795733
0.821694
0.829611
0.828957
0.827766
0.835124
0.816745
0.826145
0.827861
0.822629
0.804932
0.804839
0.807369
0.823486
0.828782
0.802785
0.813642
0.828985
0.823422
0.802533
0.663824
0.805889
0.805598
0.818843
0.801289
0.804458
0.761485
0.847718
0.804876
0.801021
0.842575
0.838351
0.812164
0.835487
0.801925
0.829338
0.827663
0.82993
0.805053
0.829642
0.752431
0.832428
0.81315
0.801715
0.814875
0.831152
0.801818
0.805551
0.794373
0.816722
0.829107
0.829087
0.829732
0.808276
0.829137
0.828638
0.833848
0.822834
0.844997
0.807923
0.713644
0.829074
0.845871
0.830619
0.806569
0.801128
0.805221
0.826398
0.815806
0.82844
0.753279
0.759953
0.802436
0.804944
0.828251
0.827635
0.810175
0.694734
0.725461
0.809908
0.773217
0.828955
0.715862
0.803871
0.743654
0.803798
0.821272
0.803786
0.82912
0.825408
0.800658
0.810561
0.804519
0.829387
0.829007
0.802984
0.805151
0.82772
0.831629
0.765589
0.831007
0.805199
0.78634
0.829004
0.805386
0.812599
0.829626
0.828806
0.842459
0.803896
0.800104
0.828994
0.770951
0.808651
0.82964
0.803103
0.828238
0.839903
0.803937
0.849163
0.817435
0.799548
0.824974
0.803475
0.849861
0.791848
0.804254
0.828956
0.839881
0.810229
0.827084
0.828648
0.804146
0.803999
0.826473
0.792472
0.827671
0.828643
0.696877
0.828729
0.729005
0.818937
0.844863
0.833726
0.805637
0.828735
0.829372
0.743032
0.829466
0.803059
0.802393
0.802345
0.828121
0.867912
0.802578
0.802706
0.790099
0.84763
0.828129
0.830167
0.825424
0.76043
0.81341
0.803776
0.746081
0.801715
0.731472
0.822756
0.802391
0.699561
0.882461
0.719394
0.776241
0.803817
0.761321
0.810272
0.800368
0.803765
0.68639
0.799224
0.788873
0.80068
0.753138
0.829732
0.832494
0.886287
0.811312
0.831615
0.673867
0.801896
0.796547
0.76459
0.76563
0.783854
0.732923
0.804756
0.801078
0.804808
0.77383
0.66149
0.813251
0.65243
0.830061
0.82935
0.813136
0.74631
0.820289
0.806994
0.828996
0.788051
0.818784
0.799505
0.822071
0.733119
0.802877
0.741062
0.80268
0.80013
0.721274
0.805494
0.829924
0.829822
0.804054
0.773428
0.828981
0.738432
0.71105
0.80331
0.829941
0.877474
0.830051
0.827596
0.882565
0.868618
0.836874
0.723938
0.803297
0.81353
0.822607
0.808463
0.716991
0.738263
0.715489
0.803345
0.709552
0.777251
0.800565
0.68045
0.695122
0.841853
0.785685
0.761107
0.83841
0.77308
0.773433
0.681158
0.749331
0.79597
0.828403
0.872469
0.843653
0.828887
0.804557
0.800902
0.736667
0.829332
0.714183
0.799147
0.830194
0.786662
0.77461
0.811072
0.793634
0.804169
0.801945
0.823928
0.812524
0.870528
0.66757
0.637683
0.803566
0.816109
0.723291
0.812139
0.803909
0.843706
0.804921
0.803053
0.634397
0.654883
0.809635
0.824739
0.829506
0.751059
0.803869
0.819573
0.713454
0.824036
0.803567
0.828163
0.803692
0.808994
0.802906
0.828921
0.803451
0.817598
0.804578
0.866128
0.829549
0.803159
0.727681
0.704512
0.828426
0.644553
0.821868
0.812097
0.842469
0.825499
0.804322
0.812445
0.827388
0.825616
0.830216
0.802341
0.8517
0.861232
0.804354
0.69772
0.819104
0.822613
0.801313
0.804093
0.82901
0.757109
0.803706
0.832799
0.829904
0.82724
0.828567
0.777842
0.751286
0.802988
0.841053
0.80514
0.82363
0.806826
0.806027
0.807337
0.828299
0.81101
0.800428
0.808842
0.80834
0.825401
0.808608
0.808201
0.829092
0.809138
0.803794
0.826999
0.803739
0.803399
0.807682
0.810067
0.827135
0.780975
0.807172
0.803747
0.830678
0.800746
0.805191
0.808857
0.839335
0.806784
0.697455
0.801792
0.827278
0.806362
0.816091
0.772422
0.827386
0.763533
0.805006
0.802884
0.805595
0.820263
0.856439
0.80598
0.803733
0.752717
0.837546
0.830034
0.830568
0.825053
0.825099
0.754536
0.829273
0.746207
0.80339
0.835959
0.803313
0.729717
0.834604
0.824381
0.828948
0.833279
0.829193
0.780391
0.82892
0.700255
0.739826
0.830128
0.832129
0.717588
0.830213
0.683742
0.831283
0.809195
0.828911
0.803783
0.808036
0.82486
0.831943
0.825379
0.670188
0.826901
0.848652
0.786967
0.852325
0.801949
0.737012
0.845607
0.830329
0.843104
0.725191
0.721102
0.84084
0.707067
0.838932
0.829821
0.837263
0.808354
0.835889
0.792096
0.834699
0.833601
0.737712
0.869618
0.832686
0.83193
0.824149
0.773073
0.80385
0.638805
0.813963
0.831314
0.826941
0.806925
0.834977
0.830832
0.799408
0.83078
0.803951
0.717161
0.796017
0.83413
0.828639
0.742632
0.810195
0.822395
0.648413
0.828718
0.829073
0.805055
0.811714
0.749586
0.826714
0.803822
0.804724
0.798961
0.805255
0.800787
0.797031
0.803717
0.826276
0.820378
0.827188
0.623439
0.894198
0.728805
0.800481
0.759458
0.794954
0.830649
0.82893
0.829077
0.647776
0.82922
0.818483
0.805676
0.827812
0.83639
0.838921
0.787307
0.80057
0.801797
0.750677
0.7697
0.829423
0.775786
0.816642
0.830022
0.828791
0.815122
0.803094
0.788548
0.813813
0.828887
0.7419
0.812466
0.828894
0.829609
0.809847
0.81139
0.779535
0.829431
0.810108
0.804248
0.809385
0.660717
0.808423
0.806155
0.807844
0.831443
0.844311
0.806556
0.788343
0.807179
0.777318
0.830706
0.816991
0.826735
0.830749
0.848371
0.804696
0.754115
0.820912
0.829463
0.744641
0.803146
0.828935
0.766004
0.826617
0.619868
0.808613
0.70578
0.803494
0.818625
0.824995
0.82922
0.805889
0.825448
0.828869
0.802643
0.806877
0.843467
0.828712
0.799211
0.827278
0.804507
0.804054
0.801465
0.802922
0.81745
0.829096
0.803362
0.784659
0.829647
0.82037
0.810766
0.830733
0.633028
0.80571
0.815207
0.829245
0.799425
0.76524
0.725228
0.826357
0.830259
0.83494
0.801482
0.645625
0.782716
0.687716
0.829045
0.75067
0.82601
0.830714
0.729696
0.800994
0.841415
0.768553
0.802645
0.804109
0.827995
0.810575
0.717918
0.801981
0.637856
0.803605
0.803688
0.803909
0.664003
0.803793
0.80483
0.804709
0.743521
0.752462
0.804867
0.78732
0.829054
0.73885
0.725162
0.829015
0.803475
0.766011
0.858228
0.82812
0.826037
0.694715
0.80462
0.801558
0.801682
0.803202
0.689651
0.804654
0.829145
0.682512
0.707811
0.807737
0.800033
0.829597
0.829867
0.827898
0.828273
0.828632
0.805219
0.829403
0.827688
0.820881
0.829724
0.804607
0.803152
0.81244
0.751795
0.811426
0.827541
0.86625
0.819081
0.67059
0.788674
0.803353
0.782067
0.828878
0.82418
0.836269
0.816007
0.868066
0.804313
0.827504
0.643241
0.817406
0.839978
0.803574
0.828879
0.661709
0.826978
0.803668
0.828854
0.803002
0.829113
0.828579
0.759851
0.805428
0.803647
0.841389
0.865835
0.820926
0.828963
0.73173
0.762368
0.803371
0.804366
0.814066
0.829293
0.800836
0.804112
0.829994
0.817342
0.809471
0.74574
0.803662
0.828391
0.824635
0.777155
0.765478
0.822947
0.799015
0.861584
0.735246
0.841179
0.822461
0.717826
0.80238
0.827358
0.790514
0.801723
0.801803
0.828406
0.789345
0.778495
0.826966
0.703932
0.799933
0.778939
0.828575
0.829218
0.80341
0.798475
0.755774
0.76747
0.784525
0.828769
0.830046
0.816684
0.690098
0.811804
0.8059
0.782313
0.811043
0.826259
0.802221
0.805518
0.688191
0.806383
0.807009
0.856952
0.805227
0.81124
0.840312
0.807669
0.821972
0.857441
0.667409
0.805648
0.828943
0.80739
0.806944
0.807735
0.80635
0.806544
0.805895
0.807866
0.808694
0.744316
0.80782
0.809329
0.81621
0.827032
0.810415
0.827658
0.803739
0.805077
0.827294
0.827134
0.822224
0.803792
0.817034
0.815164
0.819221
0.828355
0.731782
0.827196
0.838964
0.828743
0.85957
0.762637
0.819148
0.830172
0.803371
0.6778
0.804459
0.783071
0.832136
0.655327
0.828939
0.837425
0.828934
0.821402
0.803239
0.8272
0.826917
0.805353
0.776295
0.828928
0.765894
0.622409
0.829252
0.699444
0.721942
0.82094
0.835979
0.836271
0.828783
0.853373
0.665908
0.872853
0.80744
0.834674
0.833411
0.825312
0.713085
0.829591
0.832256
0.828831
0.803591
0.77762
0.822793
0.631167
0.822867
0.849622
0.804688
0.846572
0.831361
0.803725
0.706197
0.842497
0.830635
0.843856
0.802455
0.823875
0.803606
0.841653
0.804036
0.824143
0.839619
0.83784
0.82269
0.833978
0.831141
0.74485
0.704221
0.654108
0.836345
0.835144
0.775945
0.767982
0.817714
0.834014
0.845273
0.652808
0.833011
0.832186
0.831525
0.830492
0.806266
0.821669
0.70423
0.759723
0.830979
0.799262
0.86687
0.891789
0.783004
0.814942
0.691806
0.835335
0.751456
0.744801
0.820245
0.804222
0.788662
0.708514
0.802993
0.82919
0.793099
0.740933
0.811551
0.818444
0.800933
0.716902
0.829959
0.796305
0.828884
0.841023
0.816612
0.807012
0.828867
0.828853
0.790071
0.80581
0.740244
0.839931
0.796535
0.822382
0.787407
0.806261
0.725606
0.801753
0.815141
0.813866
0.812836
0.811376
0.810271
0.809566
0.807888
0.806733
0.808721
0.75019
0.807323
0.802258
0.79885
0.804688
0.843251
0.74279
0.804254
0.781577
0.885627
0.852341
0.800553
0.748192
0.805495
0.800053
0.737472
0.804737
0.803542
0.75583
0.805879
0.801729
0.799149
0.802727
0.749353
0.792468
0.814763
0.765609
0.771393
0.783662
0.80312
0.82774
0.810464
0.774711
0.760439
0.801763
0.827861
0.804457
0.801946
0.802017
0.926898
0.864032
0.828238
0.8304
0.729858
0.850272
0.76065
0.826888
0.823525
0.898897
0.830279
0.79883
0.6352
0.830052
0.798988
0.829852
0.799531
0.850295
0.635343
0.840476
0.803386
0.807709
0.806722
0.80586
0.853871
0.802461
0.829021
0.718929
0.655892
0.687781
0.829677
0.621789
0.799252
0.74355
0.846754
0.815877
0.608341
0.810421
0.8287
0.828602
0.734991
0.80357
0.599022
0.799173
0.829372
0.799353
0.803924
0.799661
0.829164
0.8396
0.803716
0.800577
0.829004
0.800908
0.828972
0.81604
0.801286
0.828963
0.82704
0.828985
0.801444
0.829031
0.699618
0.80169
0.829099
0.803913
0.801903
0.829178
0.725969
0.829697
0.799608
0.83056
0.800743
0.821735
0.838011
0.865842
0.802027
0.803076
0.829605
0.817077
0.802698
0.802288
0.860698
0.820259
0.829451
0.822195
0.854829
0.837363
0.828403
0.826632
0.852538
0.829788
0.804261
0.830321
0.819105
0.804748
0.829149
0.802125
0.815304
0.786549
0.809367