# vtk DataFile Version 1.0
unstructured grid
ascii
DATASET UNSTRUCTURED_GRID
points 3920 float
-1 0 0
-1 1 0
2 0 0
2 1 0
0 0 0
1 0 0
-1 1 0.1
-1 0 0.1
0 0 0.1
1 0 0.1
2 0 0.1
2 1 0.1
-0.98 0 0
-0.96 0 0
-0.94 0 0
-0.92 0 0
-0.9 0 0
-0.88 0 0
-0.86 0 0
-0.84 0 0
-0.82 0 0
-0.8 0 0
-0.78 0 0
-0.76 0 0
-0.74 0 0
-0.72 0 0
-0.7 0 0
-0.68 0 0
-0.66 0 0
-0.64 0 0
-0.62 0 0
-0.6 0 0
-0.58 0 0
-0.56 0 0
-0.54 0 0
-0.52 0 0
-0.5 0 0
-0.48 0 0
-0.46 0 0
-0.44 0 0
-0.42 0 0
-0.4 0 0
-0.38 0 0
-0.36 0 0
-0.34 0 0
-0.32 0 0
-0.3 0 0
-0.28 0 0
-0.26 0 0
-0.24 0 0
-0.22 0 0
-0.2 0 0
-0.18 0 0
-0.16 0 0
-0.14 0 0
-0.12 0 0
-0.1 0 0
-0.08 0 0
-0.06 0 0
-0.04 0 0
-0.02 0 0
1.02 0 0
1.04 0 0
1.06 0 0
1.08 0 0
1.1 0 0
1.12 0 0
1.14 0 0
1.16 0 0
1.18 0 0
1.2 0 0
1.22 0 0
1.24 0 0
1.26 0 0
1.28 0 0
1.3 0 0
1.32 0 0
1.34 0 0
1.36 0 0
1.38 0 0
1.4 0 0
1.42 0 0
1.44 0 0
1.46 0 0
1.48 0 0
1.5 0 0
1.52 0 0
1.54 0 0
1.56 0 0
1.58 0 0
1.6 0 0
1.62 0 0
1.64 0 0
1.66 0 0
1.68 0 0
1.7 0 0
1.72 0 0
1.74 0 0
1.76 0 0
1.78 0 0
1.8 0 0
1.82 0 0
1.84 0 0
1.86 0 0
1.88 0 0
1.9 0 0
1.92 0 0
1.94 0 0
1.96 0 0
1.98 0 0
2 0.0199133 0
2 0.0414128 0
2 0.0646247 0
2 0.0896856 0
2 0.116743 0
2 0.145955 0
2 0.177494 0
2 0.211545 0
2 0.248309 0
2 0.288001 0
2 0.330854 0
2 0.377121 0
2 0.427073 0
2 0.481004 0
2 0.539231 0
2 0.602096 0
2 0.669968 0
2 0.743247 0
2 0.822362 0
2 0.907779 0
1.9 1 0
1.8 1 0
1.7 1 0
1.6 1 0
1.5 1 0
1.4 1 0
1.3 1 0
1.2 1 0
1.1 1 0
1 1 0
0.9 1 0
0.8 1 0
0.7 1 0
0.6 1 0
0.5 1 0
0.4 1 0
0.3 1 0
0.2 1 0
0.1 1 0
3.69793e-12 1 0
-0.1 1 0
-0.2 1 0
-0.3 1 0
-0.4 1 0
-0.5 1 0
-0.6 1 0
-0.7 1 0
-0.8 1 0
-0.9 1 0
-1 0.907779 0
-1 0.822362 0
-1 0.743247 0
-1 0.669968 0
-1 0.602096 0
-1 0.539231 0
-1 0.481004 0
-1 0.427073 0
-1 0.377121 0
-1 0.330854 0
-1 0.288001 0
-1 0.248309 0
-1 0.211545 0
-1 0.177494 0
-1 0.145955 0
-1 0.116743 0
-1 0.0896856 0
-1 0.0646247 0
-1 0.0414128 0
-1 0.0199133 0
0.0182781 0.00745351 0
0.0366672 0.0146286 0
0.0551632 0.0215237 0
0.0737617 0.0281372 0
0.0924585 0.0344675 0
0.111249 0.0405131 0
0.13013 0.0462728 0
0.149095 0.0517451 0
0.168142 0.0569289 0
0.187265 0.0618228 0
0.20646 0.0664258 0
0.225723 0.0707368 0
0.245049 0.0747549 0
0.264434 0.078479 0
0.283873 0.0819084 0
0.303362 0.0850422 0
0.322896 0.0878798 0
0.342472 0.0904204 0
0.362083 0.0926635 0
0.381726 0.0946086 0
0.401397 0.0962552 0
0.42109 0.0976029 0
0.440802 0.0986514 0
0.460527 0.0994006 0
0.480261 0.0998501 0
0.5 0.1 0
0.519739 0.0998501 0
0.539473 0.0994006 0
0.559198 0.0986514 0
0.57891 0.0976029 0
0.598603 0.0962552 0
0.618274 0.0946086 0
0.637917 0.0926635 0
0.657528 0.0904204 0
0.677104 0.0878798 0
0.696638 0.0850422 0
0.716127 0.0819084 0
0.735566 0.078479 0
0.754951 0.0747549 0
0.774277 0.0707368 0
0.79354 0.0664258 0
0.812735 0.0618228 0
0.831858 0.0569289 0
0.850905 0.0517451 0
0.86987 0.0462728 0
0.888751 0.0405131 0
0.907542 0.0344675 0
0.926238 0.0281372 0
0.944837 0.0215237 0
0.963333 0.0146286 0
0.981722 0.00745351 0
-1 0.907779 0.1
-1 0.822362 0.1
-1 0.743247 0.1
-1 0.669968 0.1
-1 0.602096 0.1
-1 0.539231 0.1
-1 0.481004 0.1
-1 0.427073 0.1
-1 0.377121 0.1
-1 0.330854 0.1
-1 0.288001 0.1
-1 0.248309 0.1
-1 0.211545 0.1
-1 0.177494 0.1
-1 0.145955 0.1
-1 0.116743 0.1
-1 0.0896856 0.1
-1 0.0646247 0.1
-1 0.0414128 0.1
-1 0.0199133 0.1
-0.98 0 0.1
-0.96 0 0.1
-0.94 0 0.1
-0.92 0 0.1
-0.9 0 0.1
-0.88 0 0.1
-0.86 0 0.1
-0.84 0 0.1
-0.82 0 0.1
-0.8 0 0.1
-0.78 0 0.1
-0.76 0 0.1
-0.74 0 0.1
-0.72 0 0.1
-0.7 0 0.1
-0.68 0 0.1
-0.66 0 0.1
-0.64 0 0.1
-0.62 0 0.1
-0.6 0 0.1
-0.58 0 0.1
-0.56 0 0.1
-0.54 0 0.1
-0.52 0 0.1
-0.5 0 0.1
-0.48 0 0.1
-0.46 0 0.1
-0.44 0 0.1
-0.42 0 0.1
-0.4 0 0.1
-0.38 0 0.1
-0.36 0 0.1
-0.34 0 0.1
-0.32 0 0.1
-0.3 0 0.1
-0.28 0 0.1
-0.26 0 0.1
-0.24 0 0.1
-0.22 0 0.1
-0.2 0 0.1
-0.18 0 0.1
-0.16 0 0.1
-0.14 0 0.1
-0.12 0 0.1
-0.1 0 0.1
-0.08 0 0.1
-0.06 0 0.1
-0.04 0 0.1
-0.02 0 0.1
0.0182781 0.00745351 0.1
0.0366672 0.0146286 0.1
0.0551632 0.0215237 0.1
0.0737617 0.0281372 0.1
0.0924585 0.0344675 0.1
0.111249 0.0405131 0.1
0.13013 0.0462728 0.1
0.149095 0.0517451 0.1
0.168142 0.0569289 0.1
0.187265 0.0618228 0.1
0.20646 0.0664258 0.1
0.225723 0.0707368 0.1
0.245049 0.0747549 0.1
0.264434 0.078479 0.1
0.283873 0.0819084 0.1
0.303362 0.0850422 0.1
0.322896 0.0878798 0.1
0.342472 0.0904204 0.1
0.362083 0.0926635 0.1
0.381726 0.0946086 0.1
0.401397 0.0962552 0.1
0.42109 0.0976029 0.1
0.440802 0.0986514 0.1
0.460527 0.0994006 0.1
0.480261 0.0998501 0.1
0.5 0.1 0.1
0.519739 0.0998501 0.1
0.539473 0.0994006 0.1
0.559198 0.0986514 0.1
0.57891 0.0976029 0.1
0.598603 0.0962552 0.1
0.618274 0.0946086 0.1
0.637917 0.0926635 0.1
0.657528 0.0904204 0.1
0.677104 0.0878798 0.1
0.696638 0.0850422 0.1
0.716127 0.0819084 0.1
0.735566 0.078479 0.1
0.754951 0.0747549 0.1
0.774277 0.0707368 0.1
0.79354 0.0664258 0.1
0.812735 0.0618228 0.1
0.831858 0.0569289 0.1
0.850905 0.0517451 0.1
0.86987 0.0462728 0.1
0.888751 0.0405131 0.1
0.907542 0.0344675 0.1
0.926238 0.0281372 0.1
0.944837 0.0215237 0.1
0.963333 0.0146286 0.1
0.981722 0.00745351 0.1
1.02 0 0.1
1.04 0 0.1
1.06 0 0.1
1.08 0 0.1
1.1 0 0.1
1.12 0 0.1
1.14 0 0.1
1.16 0 0.1
1.18 0 0.1
1.2 0 0.1
1.22 0 0.1
1.24 0 0.1
1.26 0 0.1
1.28 0 0.1
1.3 0 0.1
1.32 0 0.1
1.34 0 0.1
1.36 0 0.1
1.38 0 0.1
1.4 0 0.1
1.42 0 0.1
1.44 0 0.1
1.46 0 0.1
1.48 0 0.1
1.5 0 0.1
1.52 0 0.1
1.54 0 0.1
1.56 0 0.1
1.58 0 0.1
1.6 0 0.1
1.62 0 0.1
1.64 0 0.1
1.66 0 0.1
1.68 0 0.1
1.7 0 0.1
1.72 0 0.1
1.74 0 0.1
1.76 0 0.1
1.78 0 0.1
1.8 0 0.1
1.82 0 0.1
1.84 0 0.1
1.86 0 0.1
1.88 0 0.1
1.9 0 0.1
1.92 0 0.1
1.94 0 0.1
1.96 0 0.1
1.98 0 0.1
2 0.0199133 0.1
2 0.0414128 0.1
2 0.0646247 0.1
2 0.0896856 0.1
2 0.116743 0.1
2 0.145955 0.1
2 0.177494 0.1
2 0.211545 0.1
2 0.248309 0.1
2 0.288001 0.1
2 0.330854 0.1
2 0.377121 0.1
2 0.427073 0.1
2 0.481004 0.1
2 0.539231 0.1
2 0.602096 0.1
2 0.669968 0.1
2 0.743247 0.1
2 0.822362 0.1
2 0.907779 0.1
1.9 1 0.1
1.8 1 0.1
1.7 1 0.1
1.6 1 0.1
1.5 1 0.1
1.4 1 0.1
1.3 1 0.1
1.2 1 0.1
1.1 1 0.1
1 1 0.1
0.9 1 0.1
0.8 1 0.1
0.7 1 0.1
0.6 1 0.1
0.5 1 0.1
0.4 1 0.1
0.3 1 0.1
0.2 1 0.1
0.1 1 0.1
3.69793e-12 1 0.1
-0.1 1 0.1
-0.2 1 0.1
-0.3 1 0.1
-0.4 1 0.1
-0.5 1 0.1
-0.6 1 0.1
-0.7 1 0.1
-0.8 1 0.1
-0.9 1 0.1
1.08758 0.0158154 0
-0.0898513 0.0203294 0
0.0966181 0.0537636 0
0.90205 0.0548881 0
1.21055 0.0202058 0
-0.209811 0.0159577 0
1.3305 0.0176902 0
-0.33 0.0173205 0
1.45324 0.0148141 0
-0.448654 0.0159854 0
1.56842 0.0191785 0
-0.569936 0.0166364 0
0.193292 0.0805369 0
0.805051 0.0813623 0
0.709096 0.100353 0
0.288591 0.0996656 0
0.390184 0.111848 0
0.61033 0.111742 0
0.488809 0.116278 0
1.67175 0.0169692 0
-0.67 0.0169809 0
-0.955017 0.454039 0
1.95131 0.44569 0
1.74981 0.0168753 0
-0.75 0.0173205 0
-0.968032 0.266538 0
1.96871 0.266267 0
0.978232 0.0305687 0
0.0208675 0.026451 0
-0.150454 0.91842 0
1.13854 0.907437 0
1.45012 0.904365 0
-0.445923 0.908903 0
-0.853423 0.0157019 0
1.84881 0.016319 0
0.853689 0.915652 0
0.153944 0.912184 0
0.545151 0.914125 0
0.549913 0.115152 0
1.51 0.0173205 0
-0.506989 0.01651 0
1.27 0.0173205 0
1.14976 0.0173333 0
-0.268171 0.0206442 0
-0.150501 0.0153244 0
-0.391384 0.0153993 0
1.38886 0.0171544 0
-0.973694 0.161724 0
1.97441 0.162392 0
-0.945221 0.633523 0
1.94544 0.63312 0
1.91008 0.0186068 0
-0.91 0.0169616 0
-0.030664 0.0194327 0
1.03074 0.0165456 0
-0.966065 0.353575 0
1.96128 0.359765 0
1.93879 0.781254 0
-0.937057 0.781882 0
-0.980746 0.080709 0
1.9772 0.0760699 0
0.058735 0.0409372 0
0.355202 0.913001 0
0.86356 0.0661005 0
0.134223 0.0651111 0
0.941972 0.0397386 0
-0.653034 0.915003 0
1.65328 0.904589 0
0.770126 0.0881325 0
0.232946 0.0902008 0
0.330582 0.105648 0
0.670612 0.108365 0
0.428707 0.116145 0
1.80993 0.016629 0
-0.810168 0.0172178 0
-0.71 0.0173205 0
1.63047 0.0175504 0
1.70842 0.0169661 0
-0.628824 0.0181787 0
-0.949815 0.0133898 0
1.95 0.0173205 0
1.85542 0.907891 0
-0.85 0.913397 0
1.9833 0.0307692 0
-0.983315 0.0309709 0
-0.750025 0.916468 0
-0.701107 0.836904 0
-0.607741 0.836428 0
-0.656448 0.759827 0
-0.572936 0.758144 0
-0.61411 0.691195 0
-0.539534 0.689068 0
-0.578542 0.626111 0
-0.507461 0.624216 0
-0.544001 0.566638 0
-0.477696 0.564279 0
-0.511582 0.51001 0
-0.451689 0.507147 0
-0.481834 0.457732 0
-0.426137 0.454624 0
-0.453236 0.407539 0
-0.398845 0.406233 0
-0.507958 0.409496 0
-0.368427 0.460177 0
-0.344602 0.405209 0
-0.315696 0.447824 0
-0.294128 0.402169 0
-0.262844 0.444518 0
-0.241968 0.388746 0
-0.209878 0.439557 0
-0.185184 0.391135 0
-0.156687 0.437338 0
-0.133719 0.390776 0
-0.104405 0.434306 0
-0.0818745 0.388334 0
-0.0528785 0.431165 0
-0.0305984 0.385639 0
-0.00180552 0.427863 0
0.0194564 0.382608 0
0.0485809 0.42449 0
0.0701962 0.37973 0
0.0985483 0.421145 0
0.119893 0.377339 0
0.147837 0.417911 0
0.172552 0.36751 0
0.197018 0.412597 0
0.221203 0.37141 0
0.24512 0.409646 0
-0.48178 0.364657 0
-0.531053 0.364782 0
-0.0599102 0.344151 0
-0.324909 0.359566 0
0.266181 0.368462 0
0.292132 0.407649 0
0.311992 0.365779 0
0.338918 0.404821 0
0.357567 0.355909 0
0.384723 0.40053 0
0.404675 0.359681 0
0.430617 0.398558 0
0.450457 0.35827 0
0.474237 0.395182 0
0.496746 0.34898 0
0.520548 0.397931 0
0.542071 0.353121 0
0.566011 0.389914 0
0.585061 0.350856 0
0.609352 0.38696 0
0.629069 0.348168 0
0.655979 0.391217 0
0.67472 0.346182 0
0.699346 0.381414 0
0.719333 0.341965 0
0.743718 0.377547 0
0.764028 0.339036 0
0.788201 0.373582 0
0.807659 0.336101 0
0.832821 0.372249 0
0.852309 0.334017 0
0.877785 0.370339 0
0.897875 0.331141 0
0.922904 0.366281 0
0.943173 0.327335 0
0.968282 0.363358 0
0.989029 0.324222 0
1.01391 0.361511 0
1.03465 0.321428 0
1.05949 0.358447 0
1.08389 0.312052 0
1.10575 0.355104 0
1.12889 0.31562 0
1.15067 0.353235 0
1.17157 0.312819 0
1.19626 0.349369 0
1.21618 0.309863 0
1.2416 0.346914 0
1.26131 0.30715 0
1.28691 0.344312 0
1.30571 0.303752 0
1.33144 0.341222 0
1.35018 0.300911 0
1.3758 0.338308 0
1.39501 0.298931 0
1.42015 0.335235 0
1.43904 0.296349 0
1.46355 0.330194 0
1.48256 0.293347 0
1.50685 0.326967 0
1.52589 0.29055 0
1.54996 0.325305 0
1.56909 0.287929 0
[...]
CELL_DATA 3694
SCALARS rho float
LOOKUP_TABLE default
0.734351
0.669231
0.803634
0.812138
0.82592
0.804877
0.791321
0.799413
0.809192
0.802459
0.816519
0.816513
0.839888
0.789026
0.800273
0.749137
0.803126
0.802705
0.75901
0.849565
0.816572
0.822332
0.694766
0.803209
0.691323
0.838735
0.719547
0.805663
0.836362
0.798104
0.798311
0.718211
0.803265
0.824095
0.802487
0.796608
0.836713
0.822134
0.824192
0.778078
0.804427
0.817074
0.833697
0.824658
0.804867
0.812023
0.800192
0.661005
0.67812
0.718649
0.801877
0.802841
0.84632
0.801826
0.625275
0.837611
0.802297
0.818346
0.832401
0.753274
0.795979
0.814191
0.841564
0.799026
0.84207
0.830227
0.807085
0.812668
0.736539
0.857858
0.803057
0.807364
0.822356
0.803089
0.823781
0.802813
0.813917
0.799182
0.813094
0.802571
0.711655
0.817769
0.802107
0.776684
0.809075
0.799129
0.817688
0.712803
0.73638
0.824513
0.79848
0.802135
0.819845
0.814777
0.673738
0.806279
0.722176
0.817015
0.811496
0.839413
0.813788
0.761364
0.719325
0.809
0.808513
0.814187
0.816991
0.806778
0.71454
0.813562
0.799013
0.720391
0.721524
0.822923
0.867505
0.801956
0.799034
0.811296
0.803042
0.80186
0.765427
0.822197
0.819012
0.769066
0.705139
0.757757
0.816665
0.776018
0.843094
0.698374
0.766886
0.800097
0.807693
0.77709
0.800303
0.79493
0.805228
0.802215
0.797447
0.813721
0.812978
0.708889
0.816179
0.812761
0.75689
0.663521
0.675937
0.797572
0.815213
0.812855
0.743052
0.802531
0.551921
0.777851
0.682201
0.762295
0.712613
0.783017
0.604639
0.792749
0.837263
0.643254
0.781639
0.736201
0.843607
0.550197
0.816962
0.7999
0.802277
0.672126
0.801433
0.661003
0.857379
0.531047
0.799644
0.629555
0.87186
0.832741
0.819992
0.745035
0.813333
0.722131
0.826302
0.737327
0.647058
0.802993
0.671115
0.822744
0.801508
0.8505
0.791492
0.705624
0.813902
0.797845
0.740955
0.852313
0.811148
0.848417
0.73573
0.741578
0.770415
0.79315
0.83113
0.833999
0.816634
0.813319
0.667436
0.804397
0.725508
0.803081
0.70637
0.796778
0.795412
0.801276
0.825086
0.762608
0.829826
0.748704
0.825026
0.819233
0.815165
0.852622
0.829202
0.70093
0.826451
0.689168
0.78744
0.809335
0.850668
0.829616
0.807541
0.794036
0.744036
0.816886
0.836186
0.816697
0.713595
0.799114
0.692729
0.791535
0.795267
0.809307
0.63522
0.807307
0.756725
0.797605
0.803019
0.758364
0.814362
0.865209
0.784056
0.693282
0.804185
0.801089
0.645651
0.791559
0.777422
0.802256
0.838547
0.813949
0.606391
0.814388
0.809926
0.796149
0.814672
0.802493
0.81513
0.813975
0.835377
0.755371
0.801665
0.834318
0.80992
0.80306
0.79585
0.814111
0.728353
0.585689
0.816148
0.829392
0.819769
0.803895
0.678685
0.81467
0.814392
0.816181
0.711248
0.796672
0.814217
0.534595
0.802711
0.868828
0.674426
0.755177
0.838198
0.826497
0.81395
0.708367
0.809195
0.814211
0.803609
0.801405
0.811889
0.836231
0.816787
0.766681
0.806806
0.802944
0.6451
0.820367
0.827293
0.669983
0.790336
0.818189
0.820673
0.677595
0.687452
0.820791
0.823497
0.809318
0.733776
0.705711
0.712446
0.731047
0.819673
0.77584
0.803954
0.730865
0.741957
0.821909
0.809543
0.818585
0.769152
0.814361
0.813039
0.816656
0.815276
0.802633
0.807312
0.80339
0.693327
0.802604
0.812542
0.69225
0.806618
0.804902
0.81878
0.785466
0.805704
0.791538
0.814099
0.820356
0.819538
0.797708
0.67843
0.70872
0.799201
0.81066
0.620116
0.803683
0.806956
0.817021
0.742171
0.80407
0.815696
0.810816
0.81714
0.804833
0.797072
0.763565
0.80378
0.843082
0.81954
0.70803
0.803387
0.700462
0.705194
0.80286
0.613343
0.770089
0.784458
0.807868
0.812615
0.824757
0.816455
0.812147
0.819548
0.827717
0.802739
0.763719
0.80954
0.657389
0.818606
0.756431
0.726476
0.68468
0.81318
0.85367
0.818633
0.80825
0.821847
0.814554
0.786546
0.757367
0.808901
0.692269
0.790937
0.843165
0.826387
0.80064
0.863703
0.813154
0.815912
0.816873
0.830826
0.627408
0.798043
0.729728
0.797497
0.73512
0.818494
0.808454
0.786668
0.686168
0.814008
0.829796
0.811144
0.802747
0.80362
0.823796
0.803663
0.708975
0.790083
0.803033
0.813964
0.813332
0.811936
0.87136
0.827266
0.809166
0.831597
0.680921
0.822831
0.837156
0.815517
0.626413
0.814528
0.808957
0.845081
0.82076
0.802836
0.590775
0.809874
0.694258
0.805912
0.802815
0.811738
0.812747
0.824999
0.804883
0.810981
0.815362
0.722517
0.862611
0.80178
0.849797
0.815749
0.571842
0.80372
0.796455
0.810886
0.817002
0.644456
0.802736
0.809419
0.812773
0.806908
0.793655
0.814878
0.816663
0.79552
0.8034
0.820855
0.836532
0.728761
0.806074
0.809194
0.812448
0.681476
0.805005
0.815411
0.798911
0.803867
0.516899
0.832442
0.762771
0.813862
0.817084
0.830382
0.845886
0.81548
0.810872
0.71432
0.798556
0.852074
0.807795
0.709184
0.799921
0.802547
0.87195
0.844893
0.818434
0.80189
0.809454
0.754815
0.814699
0.813603
0.583219
0.80245
0.728037
0.749922
0.802888
0.810669
0.780754
0.820914
0.814526
0.837611
0.815356
0.8003
0.808356
0.73876
0.736014
0.803984
0.807439
0.820561
0.801984
0.751486
0.687203
0.812787
0.81494
0.813782
0.593065
0.812913
0.816181
0.824175
0.802867
0.80812
0.819085
0.811634
0.839008
0.802896
0.812453
0.823218
0.814876
0.8173
0.821061
0.686986
0.783912
0.794313
0.802976
0.847235
0.801989
0.802217
0.634045
0.810375
0.812857
0.810533
0.81843
0.80559
0.812357
0.726355
0.84322
0.708193
0.800132
0.816684
0.807037
0.648498
0.68499
0.814878
0.805487
0.804025
0.784777
0.80145
0.828777
0.812887
0.804802
0.801954
0.811635
0.618483
0.811676
0.802824
0.696259
0.814943
0.614334
0.7833
0.814851
0.837446
0.805297
0.811756
0.791807
0.794998
0.80382
0.801351
0.811308
0.810901
0.808338
0.803163
0.757125
0.803947
0.811783
0.811238
0.815718
0.81081
0.815242
0.814169
0.83391
0.736956
0.806461
0.814967
0.802219
0.540306
0.680168
0.810816
0.812515
0.814494
0.780134
0.807887
0.812352
0.802972
0.799759
0.80255
0.819465
0.820287
0.814253
0.784206
0.807588
0.80505
0.534199
0.773443
0.756612
0.806046
0.734924
0.673381
0.797262
0.767122
0.82724
0.814155
0.813945
0.808179
0.538091
0.815144
0.581766
0.693654
0.824137
0.869482
0.740299
0.815949
0.852544
0.693812
0.814728
0.808819
0.814689
0.807194
0.655074
0.854228
0.737318
0.728579
0.803166
0.804443
0.799312
0.833242
0.814453
0.6899
0.815028
0.800181
0.689275
0.83911
0.79781
0.620664
0.77242
0.815007
0.807284
0.814087
0.784264
0.723557
0.769316
0.836723
0.687691
0.815268
0.816783
0.826425
0.764689
0.821508
0.690028
0.804434
0.659485
0.699849
0.800018
0.822318
0.78783
0.813801
0.814687
0.81449
0.813215
0.575126
0.802479
0.814199
0.742673
0.809898
0.81473
0.811083
0.71605
0.693929
0.740631
0.618189
0.807098
0.680375
0.81495
0.801793
0.814261
0.836716
0.686041
0.803996
0.819263
0.832112
0.736582
0.781182
0.764594
0.772502
0.81176
0.557872
0.66969
0.814579
0.805177
0.811743
0.804418
0.711492
0.779761
0.723022
0.760601
0.799336
0.831467
0.812057
0.690391
0.822861
0.817379
0.810255
0.683608
0.69472
0.680222
0.871889
0.815207
0.816037
0.607391
0.710549
0.640109
0.803258
0.800216
0.670716
0.811738
0.824097
0.748073
0.799142
0.728558
0.813458
0.691557
0.813977
0.810305
0.800941
0.803037
0.825175
0.743593
0.815055
0.814221
0.780023
0.549084
0.815858
0.810284
0.757152
0.813098
0.747617
0.802712
0.82601
0.654186
0.817531
0.802653
0.809848
0.581203
0.61804
0.734416
0.806227
0.81145
0.810169
0.820514
0.814358
0.815313
0.703616
0.801835
0.812528
0.825755
0.702646
0.724699
0.811546
0.811381
0.695077
0.814158
0.773913
0.702996
0.811728
0.695064
0.803691
0.661335
0.802848
0.730455
0.665266
0.810538
0.785913
0.743418
0.629903
0.839754
0.820934
0.814318
0.769801
0.813423
0.799941
0.785616
0.799715
0.801569
0.814579
0.730337
0.809546
0.799852
0.818183
0.596696
0.801175
0.812333
0.813303
0.810971
0.811539
0.745437
0.802508
0.763685
0.749958
0.818033
0.644219
0.817975
0.81709
0.803038
0.81499
0.816222
0.718964
0.768461
0.821575
0.784796
0.803633
0.815421
0.874871
0.817464
0.797709
0.816178
0.814617
0.793806
0.817891
0.816353
0.772814
0.69599
0.840826
0.796854
0.803129
0.822416
0.780628
0.817245
0.824645
0.818069
0.816254
0.870297
0.803057
0.804727
0.817666
0.803054
0.814746
0.806804
0.734603
0.814674
0.819137
0.753936
0.706458
0.814564
0.842825
0.822184
0.649517
0.821215
0.773277
0.807719
0.80176
0.728831
0.803091
0.798437
0.815322
0.816346
0.691374
0.702856
0.802081
0.787402
0.801329
0.824471
0.722501
0.81422
0.802291
0.799911
0.823037
0.814721
0.711483
0.815001
0.762613
0.802335
0.832401
0.803247
0.772767
0.797798
0.794567
0.814365
0.568176
0.814166
0.696201
0.674696
0.803354
0.818961
0.814229
0.802448
0.814388
0.807956
0.722852
0.787369
0.856844
0.80298
0.833171
0.807272
0.539202
0.762253
0.779166
0.645683
0.736641
0.576281
0.819742
0.812495
0.813472
0.802349
0.766558
0.683477
0.763669
0.752082
0.781752
0.814136
0.844634
0.818798
0.805689
0.819141
0.823375
0.802514
0.807283
0.702979
0.803014
0.755691
0.808523
0.797551
0.750726
0.821909
0.788187
0.803426
0.789188
0.840577
0.727096
0.80075
0.799185
0.804758
0.616189
0.814764
0.814639
0.821349
0.628577
0.814515
0.814526
0.798275
0.803736
0.793017
0.774599
0.80587
0.794029
0.815273
0.753201
0.803262
0.875083
0.762075
0.747083
0.806459
0.783826
0.842216
0.799353
0.778869
0.814897
0.798046
0.792332
0.807912
0.825051
0.835302
0.799595
0.571652
0.819874
0.827773
0.771866
0.830276
0.837841
0.822331
0.825782
0.807119
0.8325
0.826327
0.783525
0.808644
0.810674
0.805747
0.822146
0.803277
0.827172
0.792722
0.802791
0.805563
0.72542
0.80693
0.558891
0.817339
0.824785
0.82812
0.805449
0.81781
0.82336
0.819215
0.820225
0.838375
0.832646
0.787288
0.800204
0.82113
0.814712
0.816294
0.800019
0.80623
0.865304
0.819438
0.847005
0.814412
0.80045
0.824415
0.799562
0.833219
0.812774
0.814753
0.80513
0.724713
0.802777
0.804379
0.814328
0.803205
0.801616
0.821885
0.804391
0.804033
0.777584
0.819527
0.716271
0.813779
0.779583
0.75823
0.803427
0.81308
0.818799
0.713632
0.818707
0.814998
0.826348
0.816446
0.789197
0.815596
0.846985
0.832658
0.814417
0.811522
0.801418
0.742698
0.675194
0.814313
0.820238
0.770129
0.813732
0.807554
0.811105
0.805216
0.798183
0.775809
0.802281
0.799821
0.841071
0.816729
0.811143
0.806057
0.601507
0.72971
0.802008
0.782705
0.803888
0.815028
0.805699
0.815362
0.779447
0.81439
0.804583
0.809974
0.803512
0.817198
0.803118
0.81514
0.810197
0.81515
0.812148
0.715916
0.813822
0.814944
0.595188
0.814147
0.796533
0.802535
0.858463
0.817725
0.809997
0.872253
0.814574
0.814652
0.816148
0.818187
0.814609
0.763761
0.830096
0.801047
0.802986
0.813901
0.814511
0.816024
0.814351
0.812773
0.822518
0.803798
0.811839
0.808825
0.814787
0.819753
0.814368
0.811107
0.818638
0.808703
0.697705
0.657495
0.802441
0.808192
0.803145
0.810599
0.817732
0.816461
0.802709
0.803435
0.800291
0.800598
0.81623
0.844026
0.817881
0.811136
0.817835
0.817497
0.845618
0.816822
0.820721
0.785301
0.815135
0.806579
0.800835
0.791735
0.810131
0.817842
0.814197
0.814443
0.835786
0.805475
0.811908
0.815951
0.821283
0.803315
0.802989
0.805304
0.810152
0.814319
0.801349
0.802415
0.8162
0.822271
0.800517
0.568794
0.804057
0.796357
0.816865
0.798374
0.802587
0.747519
0.840396
0.802536
0.799463
0.834312
0.829202
0.809983
0.825646
0.800194
0.817172
0.816799
0.818032
0.803413
0.81761
0.726335
0.821693
0.811281
0.799789
0.812761
0.819875
0.798881
0.80378
0.781647
0.814917
0.814602
0.814714
0.817821
0.806194
0.816347
0.815022
0.825515
0.821743
0.837199
0.805678
0.694178
0.817257
0.840242
0.819101
0.804349
0.799778
0.803101
0.815609
0.813861
0.815237
0.743246
0.736675
0.800438
0.802758
0.814906
0.815877
0.798038
0.650555
0.70733
0.807784
0.768942
0.815064
0.70184
0.802948
0.727178
0.8031
0.819591
0.803037
0.816585
0.811999
0.798368
0.808323
0.792801
0.829627
0.814747
0.800902
0.803248
0.815121
0.821016
0.748399
0.822112
0.803513
0.783007
0.814617
0.803606
0.810092
0.813749
0.814189
0.834832
0.79204
0.798655
0.814491
0.758216
0.806332
0.813893
0.800788
0.815182
0.840943
0.801989
0.842825
0.808116
0.789783
0.81098
0.802533
0.851613
0.78817
0.803025
0.815207
0.831072
0.808118
0.812865
0.814905
0.80262
0.802551
0.825704
0.782074
0.813425
0.814479
0.640675
0.814687
0.711674
0.817366
0.837792
0.823875
0.803647
0.813663
0.814317
0.724654
0.813842
0.800408
0.80136
0.800565
0.814928
0.863548
0.800974
0.800658
0.785023
0.840176
0.827716
0.818877
0.81242
0.745929
0.802831
0.803257
0.729827
0.798957
0.71334
0.809637
0.800775
0.675063
0.880051
0.701396
0.771822
0.800774
0.742187
0.808108
0.798532
0.802946
0.658899
0.796504
0.783724
0.79856
0.727034
0.817951
0.821765
0.884393
0.809186
0.830789
0.643584
0.799541
0.786232
0.743047
0.750283
0.768049
0.704318
0.802938
0.798891
0.803012
0.762904
0.625414
0.811161
0.610905
0.820468
0.822321
0.811229
0.736171
0.811461
0.794661
0.818406
0.78234
0.806397
0.796903
0.809151
0.71568
0.801206
0.721284
0.801052
0.798376
0.683844
0.80336
0.814204
0.81427
0.80297
0.76044
0.814046
0.732294
0.689555
0.802103
0.814265
0.8742
0.81416
0.813569
0.880405
0.865206
0.830447
0.718278
0.801738
0.81162
0.820835
0.79728
0.678891
0.721734
0.673575
0.802259
0.705137
0.767809
0.79906
0.613173
0.688025
0.835673
0.772821
0.744408
0.829914
0.758352
0.769032
0.622532
0.730361
0.784405
0.819028
0.869285
0.83737
0.814634
0.793942
0.799328
0.714664
0.814474
0.692922
0.796788
0.81424
0.783284
0.761784
0.801013
0.782099
0.802018
0.800466
0.810822
0.810807
0.866896
0.563243
0.535351
0.802184
0.806341
0.69695
0.809596
0.802632
0.837082
0.803323
0.802221
0.56491
0.551249
0.808145
0.811479
0.814382
0.72477
0.803043
0.809855
0.682977
0.810483
0.802545
0.812865
0.803079
0.799943
0.802091
0.813313
0.802828
0.81675
0.803051
0.861791
0.81367
0.802367
0.7212
0.668375
0.814441
0.582904
0.812043
0.80972
0.835405
0.812991
0.802865
0.81047
0.812359
0.812186
0.813984
0.801425
0.853431
0.856141
0.801976
0.653159
0.807673
0.822128
0.799247
0.803047
0.81931
0.732585
0.803157
0.824636
0.820666
0.814787
0.81427
0.765976
0.745402
0.800434
0.83349
0.802472
0.813598
0.804162
0.803356
0.804696
0.812992
0.808535
0.798314
0.806642
0.805701
0.824295
0.806456
0.806058
0.816664
0.806538
0.803294
0.812085
0.802861
0.802714
0.80559
0.807517
0.812227
0.773104
0.805118
0.802583
0.814146
0.799425
0.803571
0.806626
0.831285
0.804827
0.647568
0.800553
0.814474
0.804462
0.814503
0.762405
0.814233
0.749783
0.803504
0.802035
0.803873
0.818645
0.850649
0.804173
0.803171
0.746934
0.82899
0.814144
0.819599
0.82466
0.813995
0.735391
0.817229
0.720435
0.80085
0.826951
0.802219
0.697568
0.825166
0.814002
0.815402
0.823403
0.814586
0.772826
0.816241
0.645438
0.708483
0.814241
0.821866
0.672835
0.818442
0.657486
0.820656
0.806423
0.815723
0.803082
0.805209
0.814127
0.831189
0.824843
0.669701
0.812224
0.841561
0.781085
0.845857
0.800101
0.703825
0.838001
0.818672
0.835009
0.685774
0.680503
0.832309
0.653584
0.829994
0.81426
0.827945
0.806069
0.82621
0.787375
0.82469
0.823283
0.705744
0.865361
0.822075
0.821054
0.823361
0.758469
0.80269
0.520623
0.802468
0.820163
0.812736
0.804522
0.825256
0.814184
0.797648
0.81938
0.802877
0.676929
0.792142
0.833858
0.813588
0.714355
0.798588
0.821318
0.573444
0.813956
0.814801
0.802409
0.809693
0.724878
0.817283
0.802923
0.803341
0.795738
0.793298
0.797684
0.794534
0.80321
0.811581
0.819082
0.813319
0.570536
0.892832
0.704162
0.79767
0.73855
0.791208
0.814162
0.81492
0.814797
0.602775
0.818319
0.816979
0.8037
0.817325
0.836185
0.839175
0.782614
0.798261
0.799293
0.723634
0.751826
0.814449
0.763395
0.814936
0.81836
0.814016
0.813264
0.801835
0.774615
0.811825
0.815352
0.727642
0.810365
0.815125
0.817398
0.807582
0.809242
0.763936
0.813778
0.807964
0.803052
0.807211
0.614826
0.806273
0.804121
0.805698
0.820669
0.845236
0.804488
0.773499
0.805062
0.771272
0.819611
0.80517
0.811944
0.81417
0.849845
0.803262
0.74394
0.819566
0.814446
0.726307
0.800578
0.815496
0.758125
0.811816
0.56726
0.806352
0.684822
0.800878
0.810632
0.811736
0.816505
0.804017
0.815127
0.81704
0.800804
0.803984
0.843983
0.815415
0.795993
0.815515
0.801579
0.801145
0.800073
0.801026
0.8065
0.813811
0.801391
0.76921
0.817738
0.812449
0.808659
0.814181
0.584898
0.803132
0.813457
0.814501
0.786854
0.747459
0.719166
0.811681
0.814026
0.825365
0.788708
0.6013
0.770958
0.638057
0.816009
0.745114
0.8114
0.829721
0.69302
0.799447
0.833357
0.748469
0.800428
0.803051
0.814819
0.801811
0.698012
0.800502
0.545964
0.801554
0.802282
0.80206
0.557682
0.802813
0.803286
0.803042
0.727842
0.736732
0.80329
0.775874
0.814863
0.721392
0.705871
0.814245
0.80116
0.751944
0.853821
0.813031
0.811462
0.668256
0.802639
0.800378
0.800267
0.802339
0.655245
0.803086
0.81451
0.653206
0.684439
0.80559
0.789911
0.814329
0.82272
0.814253
0.814452
0.81571
0.803511
0.814407
0.814195
0.812921
0.828908
0.802238
0.801632
0.810105
0.725467
0.809369
0.81405
0.862496
0.810466
0.636654
0.773903
0.802029
0.775803
0.815965
0.811078
0.829584
0.813735
0.864298
0.801636
0.813819
0.591913
0.81528
0.833417
0.80281
0.813446
0.623424
0.814677
0.802611
0.815922
0.802092
0.816811
0.815204
0.75456
0.803409
0.803056
0.834673
0.861594
0.819381
0.815333
0.725308
0.740424
0.802376
0.802878
0.811691
0.81737
0.799317
0.80271
0.818832
0.80587
0.807332
0.739391
0.802587
0.816825
0.813271
0.767734
0.760348
0.81105
0.796212
0.856664
0.71797
0.834123
0.810297
0.711988
0.799483
0.813674
0.787276
0.800519
0.799527
0.814272
0.776707
0.774304
0.812588
0.696511
0.798388
0.764853
0.814124
0.816544
0.801824
0.786987
0.737638
0.751554
0.773419
0.813825
0.81826
0.805118
0.653322
0.801567
0.79519
0.777586
0.809524
0.812161
0.799336
0.802873
0.631376
0.803729
0.804355
0.850918
0.803555
0.808805
0.83284
0.805039
0.809413
0.851858
0.610681
0.803885
0.815397
0.805225
0.80484
0.805524
0.804416
0.804509
0.804035
0.805605
0.806071
0.723632
0.805494
0.806757
0.806192
0.814388
0.807894
0.817938
0.80302
0.803374
0.813958
0.814144
0.8093
0.803287
0.816005
0.812837
0.809216
0.815295
0.707246
0.813147
0.831024
0.814135
0.853911
0.749065
0.807412
0.81417
0.800449
0.594612
0.803139
0.771785
0.821254
0.626081
0.814803
0.829017
0.813861
0.811271
0.801923
0.826631
0.818691
0.803405
0.764177
0.816363
0.758161
0.544917
0.813505
0.696134
0.693772
0.82017
0.827117
0.826911
0.815954
0.847147
0.567732
0.876179
0.805042
0.825396
0.823705
0.812242
0.680362
0.814046
0.822146
0.815655
0.800652
0.773497
0.82204
0.563603
0.812526
0.842766
0.802996
0.839179
0.820891
0.803214
0.667492
0.842839
0.819818
0.835967
0.800655
0.813223
0.802978
0.83331
0.802672
0.813135
0.830862
0.828696
0.821802
0.823705
0.830511
0.738988
0.659339
0.561278
0.826831
0.825289
0.766778
0.755779
0.805732
0.823842
0.846512
0.588925
0.822544
0.821437
0.820513
0.818958
0.803734
0.820565
0.655602
0.743283
0.819698
0.797009
0.869493
0.889924
0.775983
0.803304
0.668546
0.835216
0.729143
0.716975
0.818912
0.80143
0.7831
0.658159
0.802029
0.814281
0.788573
0.70996
0.799871
0.816937
0.797753
0.673806
0.82307
0.792556
0.814992
0.832796
0.814935
0.795069
0.815453
0.815205
0.785565
0.803802
0.709011
0.840324
0.792805
0.81045
0.781559
0.804193
0.694028
0.800633
0.813266
0.811904
0.810737
0.809211
0.80812
0.807364
0.805738
0.804629
0.806546
0.723613
0.805179
0.801276
0.795681
0.803147
0.844144
0.713652
0.803089
0.775789
0.883769
0.853809
0.797804
0.722163
0.803071
0.797495
0.717808
0.803157
0.801473
0.733106
0.803471
0.789292
0.796917
0.800868
0.736684
0.779009
0.803891
0.746285
0.763966
0.768652
0.801191
0.813932
0.808393
0.757783
0.750758
0.799346
0.812919
0.803196
0.792445
0.800933
0.928571
0.860282
0.817108
0.814052
0.72371
0.843958
0.74693
0.82574
0.816084
0.897981
0.814231
0.796773
0.586908
0.814268
0.796888
0.814308
0.797313
0.845229
0.517882
0.832364
0.801398
0.80539
0.804656
0.803551
0.855314
0.801093
0.816715
0.700758
0.646292
0.665728
0.814357
0.499798
0.797337
0.720769
0.841471
0.814248
0.555966
0.801586
0.813768
0.813429
0.718235
0.801481
0.522626
0.796787
0.814504
0.796906
0.802557
0.797148
0.814684
0.833554
0.803202
0.797858
0.815095
0.798124
0.815252
0.813554
0.798408
0.815429
0.813003
0.815635
0.798506
0.815865
0.678618
0.798699
0.816122
0.802968
0.798888
0.816381
0.69649
0.814266
0.797928
0.814193
0.79792
0.809355
0.837815
0.860984
0.800761
0.799976
0.81734
0.815108
0.799618
0.799241
0.862941
0.811761
0.817005
0.809807
0.849565
0.828001
0.815976
0.825205
0.845821
0.814201
0.801098
0.818598
0.811184
0.801522
0.814102
0.79969
0.80707
0.78267