# vtk DataFile Version 1.0
unstructured grid
ascii
DATASET UNSTRUCTURED_GRID
points 3920 float
-1 0 0
-1 1 0
2 0 0
2 1 0
0 0 0
1 0 0
-1 1 0.1
-1 0 0.1
0 0 0.1
1 0 0.1
2 0 0.1
2 1 0.1
-0.98 0 0
-0.96 0 0
-0.94 0 0
-0.92 0 0
-0.9 0 0
-0.88 0 0
-0.86 0 0
-0.84 0 0
-0.82 0 0
-0.8 0 0
-0.78 0 0
-0.76 0 0
-0.74 0 0
-0.72 0 0
-0.7 0 0
-0.68 0 0
-0.66 0 0
-0.64 0 0
-0.62 0 0
-0.6 0 0
-0.58 0 0
-0.56 0 0
-0.54 0 0
-0.52 0 0
-0.5 0 0
-0.48 0 0
-0.46 0 0
-0.44 0 0
-0.42 0 0
-0.4 0 0
-0.38 0 0
-0.36 0 0
-0.34 0 0
-0.32 0 0
-0.3 0 0
-0.28 0 0
-0.26 0 0
-0.24 0 0
-0.22 0 0
-0.2 0 0
-0.18 0 0
-0.16 0 0
-0.14 0 0
-0.12 0 0
-0.1 0 0
-0.08 0 0
-0.06 0 0
-0.04 0 0
-0.02 0 0
1.02 0 0
1.04 0 0
1.06 0 0
1.08 0 0
1.1 0 0
1.12 0 0
1.14 0 0
1.16 0 0
1.18 0 0
1.2 0 0
1.22 0 0
1.24 0 0
1.26 0 0
1.28 0 0
1.3 0 0
1.32 0 0
1.34 0 0
1.36 0 0
1.38 0 0
1.4 0 0
1.42 0 0
1.44 0 0
1.46 0 0
1.48 0 0
1.5 0 0
1.52 0 0
1.54 0 0
1.56 0 0
1.58 0 0
1.6 0 0
1.62 0 0
1.64 0 0
1.66 0 0
1.68 0 0
1.7 0 0
1.72 0 0
1.74 0 0
1.76 0 0
1.78 0 0
1.8 0 0
1.82 0 0
1.84 0 0
1.86 0 0
1.88 0 0
1.9 0 0
1.92 0 0
1.94 0 0
1.96 0 0
1.98 0 0
2 0.0199133 0
2 0.0414128 0
2 0.0646247 0
2 0.0896856 0
2 0.116743 0
2 0.145955 0
2 0.177494 0
2 0.211545 0
2 0.248309 0
2 0.288001 0
2 0.330854 0
2 0.377121 0
2 0.427073 0
2 0.481004 0
2 0.539231 0
2 0.602096 0
2 0.669968 0
2 0.743247 0
2 0.822362 0
2 0.907779 0
1.9 1 0
1.8 1 0
1.7 1 0
1.6 1 0
1.5 1 0
1.4 1 0
1.3 1 0
1.2 1 0
1.1 1 0
1 1 0
0.9 1 0
0.8 1 0
0.7 1 0
0.6 1 0
0.5 1 0
0.4 1 0
0.3 1 0
0.2 1 0
0.1 1 0
3.69793e-12 1 0
-0.1 1 0
-0.2 1 0
-0.3 1 0
-0.4 1 0
-0.5 1 0
-0.6 1 0
-0.7 1 0
-0.8 1 0
-0.9 1 0
-1 0.907779 0
-1 0.822362 0
-1 0.743247 0
-1 0.669968 0
-1 0.602096 0
-1 0.539231 0
-1 0.481004 0
-1 0.427073 0
-1 0.377121 0
-1 0.330854 0
-1 0.288001 0
-1 0.248309 0
-1 0.211545 0
-1 0.177494 0
-1 0.145955 0
-1 0.116743 0
-1 0.0896856 0
-1 0.0646247 0
-1 0.0414128 0
-1 0.0199133 0
0.0182781 0.00745351 0
0.0366672 0.0146286 0
0.0551632 0.0215237 0
0.0737617 0.0281372 0
0.0924585 0.0344675 0
0.111249 0.0405131 0
0.13013 0.0462728 0
0.149095 0.0517451 0
0.168142 0.0569289 0
0.187265 0.0618228 0
0.20646 0.0664258 0
0.225723 0.0707368 0
0.245049 0.0747549 0
0.264434 0.078479 0
0.283873 0.0819084 0
0.303362 0.0850422 0
0.322896 0.0878798 0
0.342472 0.0904204 0
0.362083 0.0926635 0
0.381726 0.0946086 0
0.401397 0.0962552 0
0.42109 0.0976029 0
0.440802 0.0986514 0
0.460527 0.0994006 0
0.480261 0.0998501 0
0.5 0.1 0
0.519739 0.0998501 0
0.539473 0.0994006 0
0.559198 0.0986514 0
0.57891 0.0976029 0
0.598603 0.0962552 0
0.618274 0.0946086 0
0.637917 0.0926635 0
0.657528 0.0904204 0
0.677104 0.0878798 0
0.696638 0.0850422 0
0.716127 0.0819084 0
0.735566 0.078479 0
0.754951 0.0747549 0
0.774277 0.0707368 0
0.79354 0.0664258 0
0.812735 0.0618228 0
0.831858 0.0569289 0
0.850905 0.0517451 0
0.86987 0.0462728 0
0.888751 0.0405131 0
0.907542 0.0344675 0
0.926238 0.0281372 0
0.944837 0.0215237 0
0.963333 0.0146286 0
0.981722 0.00745351 0
-1 0.907779 0.1
-1 0.822362 0.1
-1 0.743247 0.1
-1 0.669968 0.1
-1 0.602096 0.1
-1 0.539231 0.1
-1 0.481004 0.1
-1 0.427073 0.1
-1 0.377121 0.1
-1 0.330854 0.1
-1 0.288001 0.1
-1 0.248309 0.1
-1 0.211545 0.1
-1 0.177494 0.1
-1 0.145955 0.1
-1 0.116743 0.1
-1 0.0896856 0.1
-1 0.0646247 0.1
-1 0.0414128 0.1
-1 0.0199133 0.1
-0.98 0 0.1
-0.96 0 0.1
-0.94 0 0.1
-0.92 0 0.1
-0.9 0 0.1
-0.88 0 0.1
-0.86 0 0.1
-0.84 0 0.1
-0.82 0 0.1
-0.8 0 0.1
-0.78 0 0.1
-0.76 0 0.1
-0.74 0 0.1
-0.72 0 0.1
-0.7 0 0.1
-0.68 0 0.1
-0.66 0 0.1
-0.64 0 0.1
-0.62 0 0.1
-0.6 0 0.1
-0.58 0 0.1
-0.56 0 0.1
-0.54 0 0.1
-0.52 0 0.1
-0.5 0 0.1
-0.48 0 0.1
-0.46 0 0.1
-0.44 0 0.1
-0.42 0 0.1
-0.4 0 0.1
-0.38 0 0.1
-0.36 0 0.1
-0.34 0 0.1
-0.32 0 0.1
-0.3 0 0.1
-0.28 0 0.1
-0.26 0 0.1
-0.24 0 0.1
-0.22 0 0.1
-0.2 0 0.1
-0.18 0 0.1
-0.16 0 0.1
-0.14 0 0.1
-0.12 0 0.1
-0.1 0 0.1
-0.08 0 0.1
-0.06 0 0.1
-0.04 0 0.1
-0.02 0 0.1
0.0182781 0.00745351 0.1
0.0366672 0.0146286 0.1
0.0551632 0.0215237 0.1
0.0737617 0.0281372 0.1
0.0924585 0.0344675 0.1
0.111249 0.0405131 0.1
0.13013 0.0462728 0.1
0.149095 0.0517451 0.1
0.168142 0.0569289 0.1
0.187265 0.0618228 0.1
0.20646 0.0664258 0.1
0.225723 0.0707368 0.1
0.245049 0.0747549 0.1
0.264434 0.078479 0.1
0.283873 0.0819084 0.1
0.303362 0.0850422 0.1
0.322896 0.0878798 0.1
0.342472 0.0904204 0.1
0.362083 0.0926635 0.1
0.381726 0.0946086 0.1
0.401397 0.0962552 0.1
0.42109 0.0976029 0.1
0.440802 0.0986514 0.1
0.460527 0.0994006 0.1
0.480261 0.0998501 0.1
0.5 0.1 0.1
0.519739 0.0998501 0.1
0.539473 0.0994006 0.1
0.559198 0.0986514 0.1
0.57891 0.0976029 0.1
0.598603 0.0962552 0.1
0.618274 0.0946086 0.1
0.637917 0.0926635 0.1
0.657528 0.0904204 0.1
0.677104 0.0878798 0.1
0.696638 0.0850422 0.1
0.716127 0.0819084 0.1
0.735566 0.078479 0.1
0.754951 0.0747549 0.1
0.774277 0.0707368 0.1
0.79354 0.0664258 0.1
0.812735 0.0618228 0.1
0.831858 0.0569289 0.1
0.850905 0.0517451 0.1
0.86987 0.0462728 0.1
0.888751 0.0405131 0.1
0.907542 0.0344675 0.1
0.926238 0.0281372 0.1
0.944837 0.0215237 0.1
0.963333 0.0146286 0.1
0.981722 0.00745351 0.1
1.02 0 0.1
1.04 0 0.1
1.06 0 0.1
1.08 0 0.1
1.1 0 0.1
1.12 0 0.1
1.14 0 0.1
1.16 0 0.1
1.18 0 0.1
1.2 0 0.1
1.22 0 0.1
1.24 0 0.1
1.26 0 0.1
1.28 0 0.1
1.3 0 0.1
1.32 0 0.1
1.34 0 0.1
1.36 0 0.1
1.38 0 0.1
1.4 0 0.1
1.42 0 0.1
1.44 0 0.1
1.46 0 0.1
1.48 0 0.1
1.5 0 0.1
1.52 0 0.1
1.54 0 0.1
1.56 0 0.1
1.58 0 0.1
1.6 0 0.1
1.62 0 0.1
1.64 0 0.1
1.66 0 0.1
1.68 0 0.1
1.7 0 0.1
1.72 0 0.1
1.74 0 0.1
1.76 0 0.1
1.78 0 0.1
1.8 0 0.1
1.82 0 0.1
1.84 0 0.1
1.86 0 0.1
1.88 0 0.1
1.9 0 0.1
1.92 0 0.1
1.94 0 0.1
1.96 0 0.1
1.98 0 0.1
2 0.0199133 0.1
2 0.0414128 0.1
2 0.0646247 0.1
2 0.0896856 0.1
2 0.116743 0.1
2 0.145955 0.1
2 0.177494 0.1
2 0.211545 0.1
2 0.248309 0.1
2 0.288001 0.1
2 0.330854 0.1
2 0.377121 0.1
2 0.427073 0.1
2 0.481004 0.1
2 0.539231 0.1
2 0.602096 0.1
2 0.669968 0.1
2 0.743247 0.1
2 0.822362 0.1
2 0.907779 0.1
1.9 1 0.1
1.8 1 0.1
1.7 1 0.1
1.6 1 0.1
1.5 1 0.1
1.4 1 0.1
1.3 1 0.1
1.2 1 0.1
1.1 1 0.1
1 1 0.1
0.9 1 0.1
0.8 1 0.1
0.7 1 0.1
0.6 1 0.1
0.5 1 0.1
0.4 1 0.1
0.3 1 0.1
0.2 1 0.1
0.1 1 0.1
3.69793e-12 1 0.1
-0.1 1 0.1
-0.2 1 0.1
-0.3 1 0.1
-0.4 1 0.1
-0.5 1 0.1
-0.6 1 0.1
-0.7 1 0.1
-0.8 1 0.1
-0.9 1 0.1
1.08758 0.0158154 0
-0.0898513 0.0203294 0
0.0966181 0.0537636 0
0.90205 0.0548881 0
1.21055 0.0202058 0
-0.209811 0.0159577 0
1.3305 0.0176902 0
-0.33 0.0173205 0
1.45324 0.0148141 0
-0.448654 0.0159854 0
1.56842 0.0191785 0
-0.569936 0.0166364 0
0.193292 0.0805369 0
0.805051 0.0813623 0
0.709096 0.100353 0
0.288591 0.0996656 0
0.390184 0.111848 0
0.61033 0.111742 0
0.488809 0.116278 0
1.67175 0.0169692 0
-0.67 0.0169809 0
-0.955017 0.454039 0
1.95131 0.44569 0
1.74981 0.0168753 0
-0.75 0.0173205 0
-0.968032 0.266538 0
1.96871 0.266267 0
0.978232 0.0305687 0
0.0208675 0.026451 0
-0.150454 0.91842 0
1.13854 0.907437 0
1.45012 0.904365 0
-0.445923 0.908903 0
-0.853423 0.0157019 0
1.84881 0.016319 0
0.853689 0.915652 0
0.153944 0.912184 0
0.545151 0.914125 0
0.549913 0.115152 0
1.51 0.0173205 0
-0.506989 0.01651 0
1.27 0.0173205 0
1.14976 0.0173333 0
-0.268171 0.0206442 0
-0.150501 0.0153244 0
-0.391384 0.0153993 0
1.38886 0.0171544 0
-0.973694 0.161724 0
1.97441 0.162392 0
-0.945221 0.633523 0
1.94544 0.63312 0
1.91008 0.0186068 0
-0.91 0.0169616 0
-0.030664 0.0194327 0
1.03074 0.0165456 0
-0.966065 0.353575 0
1.96128 0.359765 0
1.93879 0.781254 0
-0.937057 0.781882 0
-0.980746 0.080709 0
1.9772 0.0760699 0
0.058735 0.0409372 0
0.355202 0.913001 0
0.86356 0.0661005 0
0.134223 0.0651111 0
0.941972 0.0397386 0
-0.653034 0.915003 0
1.65328 0.904589 0
0.770126 0.0881325 0
0.232946 0.0902008 0
0.330582 0.105648 0
0.670612 0.108365 0
0.428707 0.116145 0
1.80993 0.016629 0
-0.810168 0.0172178 0
-0.71 0.0173205 0
1.63047 0.0175504 0
1.70842 0.0169661 0
-0.628824 0.0181787 0
-0.949815 0.0133898 0
1.95 0.0173205 0
1.85542 0.907891 0
-0.85 0.913397 0
1.9833 0.0307692 0
-0.983315 0.0309709 0
-0.750025 0.916468 0
-0.701107 0.836904 0
-0.607741 0.836428 0
-0.656448 0.759827 0
-0.572936 0.758144 0
-0.61411 0.691195 0
-0.539534 0.689068 0
-0.578542 0.626111 0
-0.507461 0.624216 0
-0.544001 0.566638 0
-0.477696 0.564279 0
-0.511582 0.51001 0
-0.451689 0.507147 0
-0.481834 0.457732 0
-0.426137 0.454624 0
-0.453236 0.407539 0
-0.398845 0.406233 0
-0.507958 0.409496 0
-0.368427 0.460177 0
-0.344602 0.405209 0
-0.315696 0.447824 0
-0.294128 0.402169 0
-0.262844 0.444518 0
-0.241968 0.388746 0
-0.209878 0.439557 0
-0.185184 0.391135 0
-0.156687 0.437338 0
-0.133719 0.390776 0
-0.104405 0.434306 0
-0.0818745 0.388334 0
-0.0528785 0.431165 0
-0.0305984 0.385639 0
-0.00180552 0.427863 0
0.0194564 0.382608 0
0.0485809 0.42449 0
0.0701962 0.37973 0
0.0985483 0.421145 0
0.119893 0.377339 0
0.147837 0.417911 0
0.172552 0.36751 0
0.197018 0.412597 0
0.221203 0.37141 0
0.24512 0.409646 0
-0.48178 0.364657 0
-0.531053 0.364782 0
-0.0599102 0.344151 0
-0.324909 0.359566 0
0.266181 0.368462 0
0.292132 0.407649 0
0.311992 0.365779 0
0.338918 0.404821 0
0.357567 0.355909 0
0.384723 0.40053 0
0.404675 0.359681 0
0.430617 0.398558 0
0.450457 0.35827 0
0.474237 0.395182 0
0.496746 0.34898 0
0.520548 0.397931 0
0.542071 0.353121 0
0.566011 0.389914 0
0.585061 0.350856 0
0.609352 0.38696 0
0.629069 0.348168 0
0.655979 0.391217 0
0.67472 0.346182 0
0.699346 0.381414 0
0.719333 0.341965 0
0.743718 0.377547 0
0.764028 0.339036 0
0.788201 0.373582 0
0.807659 0.336101 0
0.832821 0.372249 0
0.852309 0.334017 0
0.877785 0.370339 0
0.897875 0.331141 0
0.922904 0.366281 0
0.943173 0.327335 0
0.968282 0.363358 0
0.989029 0.324222 0
1.01391 0.361511 0
1.03465 0.321428 0
1.05949 0.358447 0
1.08389 0.312052 0
1.10575 0.355104 0
1.12889 0.31562 0
1.15067 0.353235 0
1.17157 0.312819 0
1.19626 0.349369 0
1.21618 0.309863 0
1.2416 0.346914 0
1.26131 0.30715 0
1.28691 0.344312 0
1.30571 0.303752 0
1.33144 0.341222 0
1.35018 0.300911 0
1.3758 0.338308 0
1.39501 0.298931 0
1.42015 0.335235 0
1.43904 0.296349 0
1.46355 0.330194 0
1.48256 0.293347 0
1.50685 0.326967 0
1.52589 0.29055 0
1.54996 0.325305 0
1.56909 0.287929 0
[...]
CELL_DATA 3694
SCALARS rho float
LOOKUP_TABLE default
0.734991
0.670381
0.803713
0.812747
0.826285
0.805
0.791493
0.799805
0.809737
0.802599
0.817059
0.817052
0.840145
0.789222
0.800598
0.750127
0.803198
0.80284
0.759845
0.849786
0.816995
0.822786
0.696869
0.803294
0.693448
0.83905
0.719873
0.806068
0.836739
0.798421
0.798611
0.718338
0.803392
0.824434
0.802661
0.797139
0.836958
0.822581
0.824568
0.778013
0.80455
0.817173
0.834079
0.825005
0.804966
0.812632
0.800644
0.666642
0.679026
0.720363
0.801967
0.802884
0.846551
0.801936
0.629127
0.837857
0.802482
0.818777
0.832431
0.753838
0.796125
0.814879
0.841855
0.799422
0.842381
0.830599
0.807386
0.813297
0.73642
0.858082
0.803101
0.80747
0.82281
0.803161
0.82421
0.802858
0.814003
0.799471
0.813648
0.802657
0.713532
0.818127
0.802212
0.776616
0.809591
0.799421
0.818123
0.714624
0.735986
0.82485
0.79895
0.802277
0.820243
0.815204
0.674619
0.806404
0.72284
0.817542
0.812072
0.839714
0.814388
0.762187
0.718465
0.809538
0.80903
0.814874
0.817521
0.806902
0.715455
0.814097
0.799138
0.722076
0.72078
0.823259
0.867687
0.802095
0.79951
0.811872
0.803088
0.801996
0.765543
0.822244
0.819465
0.769621
0.704378
0.758291
0.817183
0.776669
0.843328
0.700096
0.767029
0.800207
0.807809
0.777439
0.800755
0.795369
0.805352
0.802317
0.797818
0.814318
0.813525
0.710078
0.816711
0.81338
0.75741
0.668859
0.676809
0.797946
0.815797
0.812969
0.744138
0.802625
0.555112
0.778351
0.685577
0.763105
0.713321
0.783507
0.606184
0.79292
0.837277
0.644405
0.781923
0.736838
0.843909
0.553309
0.817067
0.800227
0.802698
0.673041
0.801492
0.662301
0.857606
0.537028
0.799765
0.633547
0.872205
0.83311
0.820437
0.745008
0.813866
0.721643
0.826719
0.737207
0.648178
0.80305
0.676083
0.823187
0.801597
0.85076
0.791611
0.703946
0.814586
0.79822
0.741891
0.852644
0.811261
0.848629
0.736366
0.742699
0.770781
0.793597
0.831511
0.83401
0.816722
0.813925
0.668835
0.804518
0.726603
0.803142
0.708538
0.797171
0.795541
0.801386
0.825514
0.76339
0.830216
0.749277
0.825456
0.819663
0.815752
0.852878
0.829247
0.703022
0.826867
0.686542
0.787653
0.80981
0.850927
0.829989
0.808078
0.794267
0.7451
0.817418
0.836511
0.817233
0.714763
0.799604
0.695226
0.792045
0.795398
0.809807
0.637503
0.80745
0.757464
0.797703
0.803062
0.758989
0.815009
0.865525
0.784021
0.691954
0.804281
0.801484
0.6468
0.792115
0.777769
0.802303
0.838789
0.814617
0.60794
0.81502
0.809925
0.796682
0.815287
0.802588
0.815224
0.814365
0.835399
0.755989
0.801777
0.834676
0.810289
0.803101
0.796
0.814798
0.728248
0.587327
0.816677
0.8294
0.820243
0.804141
0.681378
0.815284
0.815019
0.816616
0.713227
0.797064
0.814902
0.540868
0.802776
0.868966
0.678935
0.756092
0.838512
0.826827
0.814635
0.70694
0.809303
0.814898
0.803729
0.801587
0.811978
0.836478
0.81715
0.767059
0.806916
0.803005
0.64622
0.820843
0.827701
0.671387
0.790855
0.818697
0.820658
0.678729
0.681508
0.821262
0.823927
0.809441
0.733307
0.706677
0.713399
0.732506
0.820151
0.776493
0.804073
0.732329
0.741998
0.822356
0.810052
0.818987
0.769707
0.815008
0.813652
0.81719
0.815813
0.802699
0.807453
0.803734
0.691658
0.802669
0.812664
0.694951
0.807018
0.805019
0.819279
0.785706
0.805805
0.791714
0.81478
0.820833
0.820025
0.798101
0.681491
0.710828
0.79932
0.810763
0.622637
0.803795
0.807346
0.817114
0.743103
0.804168
0.816218
0.811394
0.817664
0.804949
0.797212
0.764232
0.804191
0.843384
0.81989
0.706661
0.803557
0.702198
0.704566
0.802983
0.614557
0.770465
0.784666
0.80786
0.813259
0.825139
0.816973
0.812545
0.820036
0.828111
0.80279
0.764378
0.809629
0.65884
0.819096
0.757046
0.727588
0.687929
0.813793
0.85386
0.819123
0.808632
0.821934
0.815178
0.786764
0.758111
0.809446
0.693065
0.791112
0.84342
0.826403
0.800737
0.863902
0.813263
0.816389
0.817406
0.830858
0.629663
0.798541
0.731218
0.797865
0.734911
0.818885
0.808556
0.787136
0.683644
0.814667
0.829844
0.81173
0.802871
0.803705
0.824228
0.803775
0.711014
0.790191
0.803072
0.814616
0.813849
0.812476
0.871512
0.827674
0.809288
0.831972
0.682066
0.82328
0.837494
0.816076
0.627596
0.815156
0.809086
0.845372
0.821232
0.802895
0.592354
0.809997
0.695955
0.80602
0.802857
0.812096
0.813392
0.825059
0.80499
0.811081
0.815902
0.724186
0.862812
0.801896
0.850062
0.816277
0.574357
0.803823
0.796599
0.811455
0.81753
0.650056
0.80279
0.809543
0.812884
0.807022
0.793802
0.815479
0.817184
0.79605
0.803816
0.821316
0.836783
0.730281
0.806192
0.809571
0.812993
0.682371
0.805147
0.81589
0.799198
0.804012
0.523377
0.832813
0.763558
0.814541
0.817609
0.830756
0.846133
0.816003
0.81146
0.716123
0.798893
0.852265
0.808332
0.709903
0.800126
0.802589
0.8721
0.845184
0.818937
0.801996
0.809555
0.755373
0.815288
0.813758
0.584998
0.802591
0.729516
0.750081
0.803038
0.811247
0.780886
0.821191
0.815135
0.837939
0.815852
0.80041
0.808835
0.738478
0.73676
0.804097
0.807953
0.820985
0.802165
0.751653
0.68885
0.813422
0.815085
0.813875
0.594763
0.813534
0.816577
0.824611
0.802993
0.808579
0.819543
0.811723
0.839335
0.802959
0.812565
0.823613
0.815477
0.817667
0.821418
0.689021
0.784101
0.794746
0.803094
0.847516
0.802041
0.802632
0.635203
0.810767
0.813417
0.810667
0.818934
0.805708
0.812981
0.727014
0.843522
0.70721
0.800368
0.81722
0.807159
0.653944
0.681938
0.815295
0.805605
0.804189
0.785333
0.801509
0.829164
0.813405
0.804926
0.802105
0.812176
0.619654
0.812256
0.802997
0.698827
0.815439
0.618367
0.783907
0.815405
0.837693
0.805823
0.812364
0.792362
0.79545
0.803993
0.801413
0.811894
0.81103
0.808883
0.80322
0.757229
0.804033
0.812399
0.811843
0.816129
0.811397
0.815813
0.814816
0.834167
0.73824
0.806604
0.815542
0.802401
0.542689
0.682491
0.811181
0.813144
0.815102
0.780258
0.808272
0.812708
0.803142
0.79987
0.802698
0.819838
0.820671
0.814893
0.784769
0.808056
0.805578
0.551821
0.773851
0.757344
0.806403
0.73554
0.676169
0.797633
0.767486
0.827634
0.814842
0.814595
0.808276
0.540434
0.815513
0.583539
0.696254
0.824573
0.869618
0.741452
0.816475
0.852791
0.694925
0.815281
0.808921
0.814802
0.807177
0.656197
0.854473
0.737209
0.730054
0.80327
0.804549
0.799542
0.833271
0.815087
0.69099
0.815404
0.800257
0.691993
0.839437
0.798185
0.62208
0.772828
0.815582
0.80781
0.814721
0.784324
0.725206
0.770039
0.83687
0.688527
0.815849
0.817228
0.826842
0.7652
0.821972
0.691687
0.804549
0.660548
0.700637
0.800403
0.822662
0.788408
0.814481
0.815284
0.815111
0.813873
0.577381
0.802544
0.814893
0.743266
0.810005
0.81532
0.811677
0.715096
0.691769
0.741232
0.620595
0.807148
0.681565
0.815548
0.801896
0.814903
0.83684
0.687089
0.804404
0.819702
0.832375
0.73783
0.781736
0.764741
0.772981
0.812249
0.56693
0.672952
0.815199
0.805297
0.812224
0.804533
0.712833
0.780217
0.724576
0.760475
0.79966
0.831843
0.81218
0.691201
0.82331
0.81776
0.810825
0.685921
0.692297
0.681559
0.872051
0.815782
0.816526
0.609045
0.711304
0.641292
0.803427
0.800373
0.671729
0.811902
0.824391
0.749102
0.799547
0.729822
0.814048
0.692372
0.814652
0.810391
0.801421
0.80309
0.825465
0.744208
0.815648
0.814894
0.780295
0.55366
0.81627
0.810837
0.757876
0.813755
0.747353
0.802925
0.826357
0.659691
0.818049
0.80271
0.809861
0.583642
0.633807
0.735161
0.80635
0.811999
0.81073
0.820982
0.814738
0.815875
0.704372
0.801932
0.813057
0.826166
0.703423
0.72627
0.81214
0.811794
0.696218
0.814229
0.774384
0.701545
0.81184
0.695884
0.804172
0.662396
0.802883
0.73002
0.666874
0.811082
0.786126
0.744137
0.631086
0.840031
0.820939
0.814824
0.7703
0.814087
0.800115
0.786054
0.799963
0.801669
0.815069
0.731724
0.80965
0.800059
0.818691
0.598408
0.801405
0.812847
0.813806
0.811505
0.812064
0.746205
0.802934
0.764031
0.750722
0.81853
0.646803
0.818467
0.81759
0.803086
0.815501
0.816731
0.720718
0.768374
0.82203
0.78529
0.803723
0.815938
0.874991
0.817928
0.798241
0.816727
0.815232
0.793953
0.818403
0.816814
0.773221
0.698348
0.841142
0.796929
0.803179
0.822519
0.781078
0.817765
0.824677
0.818577
0.816799
0.870462
0.803107
0.804884
0.81818
0.803101
0.815327
0.806921
0.735812
0.815249
0.819629
0.753757
0.708581
0.815131
0.843147
0.822264
0.653832
0.821682
0.773637
0.808251
0.801943
0.729649
0.803123
0.79874
0.815433
0.816825
0.693794
0.704702
0.80223
0.787503
0.801639
0.824765
0.721842
0.814886
0.802439
0.800239
0.82333
0.815331
0.712986
0.815569
0.763119
0.802428
0.832452
0.803363
0.773319
0.797792
0.794528
0.81498
0.589268
0.814857
0.694372
0.678605
0.803465
0.819457
0.814901
0.80257
0.815009
0.80837
0.724086
0.787585
0.85707
0.803027
0.833438
0.807378
0.542913
0.762112
0.779801
0.647703
0.737642
0.578606
0.820046
0.813134
0.813889
0.802441
0.766695
0.684684
0.764375
0.752191
0.782021
0.814826
0.844759
0.819296
0.805798
0.819166
0.823667
0.802666
0.807584
0.705019
0.803152
0.756233
0.80864
0.797926
0.751555
0.822277
0.788397
0.803552
0.789753
0.840836
0.72781
0.800906
0.799509
0.804867
0.617358
0.815369
0.81525
0.821741
0.631385
0.815131
0.815128
0.798581
0.803839
0.793188
0.77522
0.806274
0.794549
0.815854
0.753014
0.803756
0.875206
0.762685
0.747873
0.806941
0.783896
0.842522
0.799854
0.77951
0.815355
0.798169
0.7925
0.808016
0.82548
0.835651
0.799705
0.5738
0.820344
0.828159
0.772037
0.830661
0.838138
0.82277
0.826186
0.807226
0.832843
0.826743
0.783667
0.808928
0.811243
0.806254
0.822601
0.803365
0.827214
0.792843
0.803211
0.805672
0.726495
0.807036
0.56101
0.817854
0.825215
0.828521
0.805761
0.818043
0.823803
0.819304
0.820702
0.838703
0.833014
0.787841
0.800358
0.821596
0.815257
0.816835
0.800254
0.80634
0.865483
0.819925
0.847283
0.814972
0.800641
0.824479
0.799669
0.833266
0.813317
0.815228
0.80524
0.726235
0.802892
0.804486
0.814936
0.803291
0.80199
0.821961
0.804452
0.804138
0.77786
0.819613
0.7173
0.814066
0.780214
0.75877
0.803529
0.813191
0.818806
0.714988
0.819205
0.815103
0.826402
0.81696
0.789612
0.816163
0.847119
0.832961
0.814819
0.811636
0.801553
0.743589
0.677457
0.814967
0.820404
0.77077
0.814254
0.80769
0.811654
0.805357
0.798525
0.776061
0.802374
0.800026
0.841349
0.817259
0.811314
0.806166
0.602982
0.730976
0.802109
0.783261
0.804036
0.815559
0.805842
0.815938
0.779726
0.815031
0.804726
0.810535
0.803658
0.817708
0.803152
0.815726
0.810741
0.815698
0.812678
0.717104
0.81433
0.815539
0.596789
0.814794
0.796677
0.802751
0.858678
0.818194
0.81055
0.872397
0.815148
0.815233
0.816697
0.818691
0.815121
0.764125
0.830121
0.801282
0.803102
0.814393
0.815106
0.816579
0.814972
0.813277
0.822724
0.803879
0.812354
0.808961
0.815071
0.819837
0.814995
0.811632
0.819121
0.808802
0.695216
0.659102
0.802565
0.808489
0.80326
0.811134
0.818225
0.816956
0.802824
0.80378
0.800519
0.80076
0.816745
0.844265
0.818393
0.811403
0.818333
0.818015
0.845873
0.817322
0.820936
0.785519
0.815652
0.806687
0.80123
0.791912
0.810627
0.818345
0.814824
0.81501
0.835784
0.805962
0.812515
0.81646
0.821391
0.803425
0.803125
0.805414
0.810721
0.814933
0.801485
0.802902
0.816745
0.822347
0.800743
0.610032
0.804162
0.796746
0.817116
0.798472
0.802669
0.748101
0.840713
0.802636
0.799683
0.834669
0.829596
0.810104
0.826069
0.800399
0.817691
0.817265
0.81854
0.803515
0.818124
0.72791
0.822153
0.811377
0.800039
0.81292
0.820358
0.799008
0.803899
0.78221
0.815017
0.815218
0.815324
0.81833
0.806312
0.816892
0.815601
0.825873
0.821822
0.837537
0.805819
0.694975
0.817762
0.840484
0.819594
0.804495
0.799962
0.803246
0.816072
0.813975
0.815799
0.743569
0.737929
0.800666
0.802852
0.815474
0.816379
0.798568
0.65266
0.708074
0.8079
0.76883
0.815655
0.702918
0.802994
0.727861
0.803143
0.819816
0.803075
0.81712
0.812571
0.798466
0.808458
0.793316
0.829624
0.815352
0.80112
0.803388
0.815658
0.821471
0.749164
0.822494
0.80363
0.782967
0.815228
0.803734
0.810366
0.814424
0.814809
0.835161
0.792562
0.79891
0.815106
0.758748
0.806486
0.814562
0.800888
0.815738
0.840991
0.802143
0.843099
0.808517
0.790193
0.811577
0.802574
0.851742
0.788268
0.803084
0.815792
0.831452
0.808241
0.81347
0.815489
0.802744
0.802615
0.825764
0.78251
0.814031
0.815081
0.644032
0.815284
0.712387
0.817456
0.838097
0.824298
0.803773
0.814304
0.814956
0.725429
0.814506
0.80074
0.80148
0.800757
0.81549
0.863739
0.80113
0.800883
0.785266
0.840499
0.827768
0.81936
0.812975
0.746535
0.80329
0.803283
0.730502
0.799364
0.714087
0.810198
0.800843
0.676064
0.880159
0.702133
0.771996
0.801209
0.743068
0.808232
0.798836
0.802982
0.660017
0.796622
0.78394
0.798894
0.728577
0.818454
0.822225
0.884481
0.809306
0.831142
0.644773
0.799863
0.786667
0.744171
0.75118
0.768794
0.705708
0.803019
0.799219
0.803091
0.763504
0.626824
0.811277
0.612573
0.82088
0.822621
0.811341
0.736439
0.81184
0.795204
0.81886
0.782619
0.80693
0.797016
0.809704
0.716399
0.801359
0.722128
0.801205
0.798678
0.685857
0.803507
0.814871
0.814929
0.803023
0.760985
0.81468
0.731871
0.69043
0.802218
0.81493
0.874346
0.814834
0.814166
0.880503
0.865356
0.830722
0.717378
0.801874
0.811734
0.821173
0.797768
0.680851
0.722416
0.675998
0.802305
0.703796
0.768313
0.799295
0.616598
0.68907
0.835938
0.773378
0.74513
0.83028
0.758989
0.769006
0.637065
0.731181
0.784905
0.819431
0.869425
0.83764
0.81524
0.7944
0.799561
0.715619
0.815105
0.693789
0.796821
0.814917
0.7833
0.762323
0.801447
0.782595
0.80211
0.800631
0.811382
0.810895
0.867056
0.57317
0.539023
0.802307
0.806762
0.698105
0.809875
0.802728
0.837367
0.803398
0.802302
0.567291
0.556036
0.808192
0.812044
0.815024
0.726385
0.80309
0.810274
0.684326
0.811062
0.802625
0.813516
0.803118
0.800327
0.802175
0.813976
0.802877
0.816802
0.803159
0.86198
0.814345
0.802437
0.72096
0.670013
0.815036
0.585427
0.812466
0.809907
0.83571
0.813525
0.802973
0.810584
0.812999
0.812759
0.814674
0.801536
0.853701
0.856363
0.802206
0.655321
0.808166
0.822185
0.799335
0.803099
0.819727
0.733949
0.803189
0.824987
0.821064
0.815318
0.814877
0.766472
0.745219
0.800747
0.833816
0.802765
0.81403
0.804416
0.803627
0.804946
0.813643
0.808736
0.798662
0.806738
0.805935
0.824387
0.806552
0.806154
0.817195
0.80676
0.803321
0.81272
0.802899
0.802767
0.805686
0.807731
0.812862
0.773508
0.805214
0.802634
0.814848
0.799633
0.803658
0.806721
0.831631
0.80492
0.65021
0.800699
0.81502
0.804554
0.814597
0.762921
0.814793
0.750564
0.803579
0.802127
0.803962
0.818771
0.8509
0.804264
0.803202
0.746749
0.829359
0.814818
0.820068
0.824725
0.814471
0.736593
0.817743
0.722158
0.800958
0.827339
0.802323
0.700095
0.825572
0.814448
0.815978
0.823827
0.815206
0.773193
0.816781
0.648801
0.710557
0.814914
0.822306
0.676061
0.818945
0.658554
0.821112
0.806726
0.816284
0.803118
0.805521
0.814588
0.831497
0.824916
0.671267
0.812849
0.841868
0.78136
0.846138
0.800179
0.705871
0.83833
0.81917
0.835359
0.688348
0.683752
0.832677
0.657736
0.830379
0.81492
0.828347
0.806165
0.826627
0.78759
0.825121
0.823726
0.707564
0.865548
0.822531
0.82152
0.823443
0.759099
0.802771
0.524289
0.802967
0.820641
0.813341
0.804623
0.825674
0.814891
0.797999
0.819868
0.802929
0.68073
0.792315
0.834027
0.814228
0.715849
0.799095
0.82141
0.576098
0.814583
0.815407
0.802514
0.809809
0.726115
0.817689
0.802967
0.803409
0.795879
0.793824
0.797795
0.794514
0.803236
0.812207
0.819183
0.813909
0.572667
0.892898
0.706201
0.797793
0.739555
0.791331
0.814862
0.815515
0.815403
0.604553
0.818786
0.817084
0.803839
0.817776
0.836481
0.839325
0.78276
0.79836
0.799401
0.72522
0.75266
0.815084
0.763913
0.815055
0.818858
0.814643
0.813385
0.801888
0.775242
0.811952
0.815927
0.728409
0.810497
0.81571
0.81792
0.807716
0.809379
0.764649
0.814443
0.808102
0.803111
0.807349
0.616637
0.806414
0.804261
0.805838
0.821131
0.845373
0.80463
0.774187
0.805203
0.77145
0.820086
0.80568
0.812574
0.814874
0.849978
0.803335
0.744288
0.819648
0.815083
0.727081
0.800892
0.816067
0.758355
0.812447
0.569405
0.806492
0.68567
0.801191
0.810971
0.812302
0.817047
0.804131
0.81557
0.817546
0.800992
0.804327
0.844242
0.815981
0.796135
0.816018
0.801966
0.801533
0.800247
0.801213
0.806974
0.814461
0.801574
0.769931
0.818247
0.812785
0.80877
0.814884
0.586814
0.803243
0.813562
0.815127
0.787413
0.748263
0.718568
0.812307
0.814715
0.825776
0.789277
0.603067
0.771451
0.640427
0.816564
0.744886
0.812022
0.83011
0.695428
0.799666
0.833705
0.749485
0.800522
0.803104
0.81538
0.802181
0.698824
0.800663
0.548994
0.801737
0.802403
0.80214
0.579406
0.802876
0.803373
0.803117
0.728492
0.737389
0.803362
0.776356
0.815465
0.722116
0.706664
0.814872
0.80126
0.752534
0.854012
0.813673
0.812083
0.66934
0.802726
0.800522
0.800433
0.80242
0.656685
0.803195
0.815132
0.654381
0.685399
0.805693
0.790339
0.814976
0.823025
0.814834
0.81504
0.816261
0.803589
0.815043
0.814769
0.813259
0.829112
0.802455
0.801767
0.810282
0.727055
0.80948
0.814625
0.86266
0.810835
0.638002
0.774587
0.80215
0.776061
0.816515
0.811637
0.82987
0.81399
0.864463
0.801944
0.814401
0.593838
0.815539
0.833698
0.802866
0.814102
0.62496
0.815202
0.802657
0.816473
0.802187
0.817336
0.815773
0.754454
0.803496
0.803091
0.834962
0.86178
0.819496
0.815913
0.724737
0.741561
0.802468
0.802985
0.811957
0.817879
0.799543
0.802817
0.81931
0.806365
0.807456
0.739135
0.802667
0.81732
0.813758
0.768236
0.760294
0.811559
0.796298
0.856879
0.718683
0.834427
0.810818
0.711027
0.799607
0.814257
0.787314
0.800673
0.799576
0.814872
0.777256
0.774312
0.8132
0.696476
0.798673
0.765467
0.814738
0.817084
0.801961
0.787485
0.73843
0.752248
0.773883
0.814459
0.818764
0.805618
0.661802
0.80201
0.795654
0.77769
0.809586
0.812761
0.79946
0.803147
0.634283
0.803986
0.804606
0.851181
0.803643
0.808997
0.833162
0.805277
0.80995
0.852101
0.613095
0.803974
0.815973
0.805324
0.804938
0.805624
0.804509
0.804606
0.804128
0.805705
0.806295
0.724539
0.805594
0.806975
0.806625
0.814928
0.808097
0.818356
0.803066
0.803451
0.814526
0.814698
0.809852
0.803314
0.81607
0.813097
0.809647
0.815852
0.708338
0.813745
0.831366
0.814755
0.854157
0.749631
0.807917
0.814849
0.800847
0.606306
0.803204
0.772257
0.82172
0.62723
0.815404
0.829379
0.814501
0.811708
0.802047
0.826932
0.819044
0.803545
0.764684
0.816899
0.758375
0.547462
0.814174
0.694285
0.695038
0.82024
0.827499
0.827314
0.816501
0.847417
0.574038
0.876607
0.805144
0.825795
0.824122
0.8128
0.681865
0.814706
0.82258
0.816216
0.801049
0.773538
0.82212
0.565892
0.812972
0.843062
0.803073
0.839499
0.82134
0.803239
0.669353
0.843188
0.820281
0.836308
0.800843
0.81368
0.803017
0.83367
0.802778
0.813607
0.83124
0.82909
0.821887
0.824146
0.83069
0.738723
0.661703
0.565125
0.827241
0.825712
0.767247
0.75645
0.806248
0.824279
0.846641
0.591512
0.822993
0.821898
0.820985
0.819452
0.803841
0.820657
0.658422
0.744268
0.820181
0.797443
0.869905
0.890011
0.776325
0.803808
0.669481
0.835372
0.730581
0.718807
0.819016
0.801545
0.783362
0.661643
0.802131
0.814914
0.78878
0.711923
0.80038
0.817044
0.797877
0.677394
0.823363
0.792691
0.815583
0.833151
0.815049
0.795594
0.816023
0.815785
0.785719
0.803942
0.710859
0.840463
0.792973
0.810962
0.781844
0.804335
0.69676
0.800774
0.813391
0.81203
0.810871
0.809348
0.808257
0.807505
0.805879
0.804771
0.806687
0.725249
0.805321
0.801394
0.795821
0.803247
0.844282
0.715262
0.803153
0.775985
0.883855
0.854211
0.797924
0.723518
0.803281
0.797557
0.719173
0.803258
0.801664
0.734236
0.803572
0.789844
0.797351
0.801055
0.737291
0.779614
0.804362
0.747208
0.764216
0.769338
0.801376
0.814519
0.808516
0.758572
0.751123
0.79945
0.813555
0.80326
0.792845
0.801061
0.928512
0.860446
0.817585
0.814746
0.723295
0.844231
0.747502
0.825947
0.816399
0.898028
0.814912
0.7972
0.588694
0.814937
0.797314
0.814967
0.797735
0.845447
0.521715
0.832713
0.801484
0.805546
0.804734
0.803723
0.85572
0.801231
0.81724
0.701506
0.665006
0.666619
0.815007
0.503684
0.797714
0.721806
0.841697
0.814629
0.558126
0.801959
0.814402
0.814074
0.718926
0.801669
0.52473
0.797246
0.815135
0.797366
0.802672
0.797606
0.815299
0.833813
0.803227
0.798311
0.815687
0.798575
0.815836
0.813976
0.798859
0.816005
0.813601
0.816203
0.798967
0.816425
0.67947
0.79916
0.816675
0.803024
0.799348
0.816926
0.697877
0.81492
0.798253
0.814888
0.798278
0.809885
0.838213
0.861196
0.800902
0.800429
0.817863
0.81526
0.800073
0.799699
0.863352
0.812125
0.817536
0.810337
0.849793
0.828404
0.816506
0.8256
0.846113
0.814862
0.801554
0.819099
0.81152
0.80198
0.814741
0.800013
0.807417
0.782998
0.806759
0.814947
0.810809