# vtk DataFile Version 1.0
unstructured grid
ascii
DATASET UNSTRUCTURED_GRID
points 3920 float
-1 0 0
-1 1 0
2 0 0
2 1 0
0 0 0
1 0 0
-1 1 0.1
-1 0 0.1
0 0 0.1
1 0 0.1
2 0 0.1
2 1 0.1
-0.98 0 0
-0.96 0 0
-0.94 0 0
-0.92 0 0
-0.9 0 0
-0.88 0 0
-0.86 0 0
-0.84 0 0
-0.82 0 0
-0.8 0 0
-0.78 0 0
-0.76 0 0
-0.74 0 0
-0.72 0 0
-0.7 0 0
-0.68 0 0
-0.66 0 0
-0.64 0 0
-0.62 0 0
-0.6 0 0
-0.58 0 0
-0.56 0 0
-0.54 0 0
-0.52 0 0
-0.5 0 0
-0.48 0 0
-0.46 0 0
-0.44 0 0
-0.42 0 0
-0.4 0 0
-0.38 0 0
-0.36 0 0
-0.34 0 0
-0.32 0 0
-0.3 0 0
-0.28 0 0
-0.26 0 0
-0.24 0 0
-0.22 0 0
-0.2 0 0
-0.18 0 0
-0.16 0 0
-0.14 0 0
-0.12 0 0
-0.1 0 0
-0.08 0 0
-0.06 0 0
-0.04 0 0
-0.02 0 0
1.02 0 0
1.04 0 0
1.06 0 0
1.08 0 0
1.1 0 0
1.12 0 0
1.14 0 0
1.16 0 0
1.18 0 0
1.2 0 0
1.22 0 0
1.24 0 0
1.26 0 0
1.28 0 0
1.3 0 0
1.32 0 0
1.34 0 0
1.36 0 0
1.38 0 0
1.4 0 0
1.42 0 0
1.44 0 0
1.46 0 0
1.48 0 0
1.5 0 0
1.52 0 0
1.54 0 0
1.56 0 0
1.58 0 0
1.6 0 0
1.62 0 0
1.64 0 0
1.66 0 0
1.68 0 0
1.7 0 0
1.72 0 0
1.74 0 0
1.76 0 0
1.78 0 0
1.8 0 0
1.82 0 0
1.84 0 0
1.86 0 0
1.88 0 0
1.9 0 0
1.92 0 0
1.94 0 0
1.96 0 0
1.98 0 0
2 0.0199133 0
2 0.0414128 0
2 0.0646247 0
2 0.0896856 0
2 0.116743 0
2 0.145955 0
2 0.177494 0
2 0.211545 0
2 0.248309 0
2 0.288001 0
2 0.330854 0
2 0.377121 0
2 0.427073 0
2 0.481004 0
2 0.539231 0
2 0.602096 0
2 0.669968 0
2 0.743247 0
2 0.822362 0
2 0.907779 0
1.9 1 0
1.8 1 0
1.7 1 0
1.6 1 0
1.5 1 0
1.4 1 0
1.3 1 0
1.2 1 0
1.1 1 0
1 1 0
0.9 1 0
0.8 1 0
0.7 1 0
0.6 1 0
0.5 1 0
0.4 1 0
0.3 1 0
0.2 1 0
0.1 1 0
3.69793e-12 1 0
-0.1 1 0
-0.2 1 0
-0.3 1 0
-0.4 1 0
-0.5 1 0
-0.6 1 0
-0.7 1 0
-0.8 1 0
-0.9 1 0
-1 0.907779 0
-1 0.822362 0
-1 0.743247 0
-1 0.669968 0
-1 0.602096 0
-1 0.539231 0
-1 0.481004 0
-1 0.427073 0
-1 0.377121 0
-1 0.330854 0
-1 0.288001 0
-1 0.248309 0
-1 0.211545 0
-1 0.177494 0
-1 0.145955 0
-1 0.116743 0
-1 0.0896856 0
-1 0.0646247 0
-1 0.0414128 0
-1 0.0199133 0
0.0182781 0.00745351 0
0.0366672 0.0146286 0
0.0551632 0.0215237 0
0.0737617 0.0281372 0
0.0924585 0.0344675 0
0.111249 0.0405131 0
0.13013 0.0462728 0
0.149095 0.0517451 0
0.168142 0.0569289 0
0.187265 0.0618228 0
0.20646 0.0664258 0
0.225723 0.0707368 0
0.245049 0.0747549 0
0.264434 0.078479 0
0.283873 0.0819084 0
0.303362 0.0850422 0
0.322896 0.0878798 0
0.342472 0.0904204 0
0.362083 0.0926635 0
0.381726 0.0946086 0
0.401397 0.0962552 0
0.42109 0.0976029 0
0.440802 0.0986514 0
0.460527 0.0994006 0
0.480261 0.0998501 0
0.5 0.1 0
0.519739 0.0998501 0
0.539473 0.0994006 0
0.559198 0.0986514 0
0.57891 0.0976029 0
0.598603 0.0962552 0
0.618274 0.0946086 0
0.637917 0.0926635 0
0.657528 0.0904204 0
0.677104 0.0878798 0
0.696638 0.0850422 0
0.716127 0.0819084 0
0.735566 0.078479 0
0.754951 0.0747549 0
0.774277 0.0707368 0
0.79354 0.0664258 0
0.812735 0.0618228 0
0.831858 0.0569289 0
0.850905 0.0517451 0
0.86987 0.0462728 0
0.888751 0.0405131 0
0.907542 0.0344675 0
0.926238 0.0281372 0
0.944837 0.0215237 0
0.963333 0.0146286 0
0.981722 0.00745351 0
-1 0.907779 0.1
-1 0.822362 0.1
-1 0.743247 0.1
-1 0.669968 0.1
-1 0.602096 0.1
-1 0.539231 0.1
-1 0.481004 0.1
-1 0.427073 0.1
-1 0.377121 0.1
-1 0.330854 0.1
-1 0.288001 0.1
-1 0.248309 0.1
-1 0.211545 0.1
-1 0.177494 0.1
-1 0.145955 0.1
-1 0.116743 0.1
-1 0.0896856 0.1
-1 0.0646247 0.1
-1 0.0414128 0.1
-1 0.0199133 0.1
-0.98 0 0.1
-0.96 0 0.1
-0.94 0 0.1
-0.92 0 0.1
-0.9 0 0.1
-0.88 0 0.1
-0.86 0 0.1
-0.84 0 0.1
-0.82 0 0.1
-0.8 0 0.1
-0.78 0 0.1
-0.76 0 0.1
-0.74 0 0.1
-0.72 0 0.1
-0.7 0 0.1
-0.68 0 0.1
-0.66 0 0.1
-0.64 0 0.1
-0.62 0 0.1
-0.6 0 0.1
-0.58 0 0.1
-0.56 0 0.1
-0.54 0 0.1
-0.52 0 0.1
-0.5 0 0.1
-0.48 0 0.1
-0.46 0 0.1
-0.44 0 0.1
-0.42 0 0.1
-0.4 0 0.1
-0.38 0 0.1
-0.36 0 0.1
-0.34 0 0.1
-0.32 0 0.1
-0.3 0 0.1
-0.28 0 0.1
-0.26 0 0.1
-0.24 0 0.1
-0.22 0 0.1
-0.2 0 0.1
-0.18 0 0.1
-0.16 0 0.1
-0.14 0 0.1
-0.12 0 0.1
-0.1 0 0.1
-0.08 0 0.1
-0.06 0 0.1
-0.04 0 0.1
-0.02 0 0.1
0.0182781 0.00745351 0.1
0.0366672 0.0146286 0.1
0.0551632 0.0215237 0.1
0.0737617 0.0281372 0.1
0.0924585 0.0344675 0.1
0.111249 0.0405131 0.1
0.13013 0.0462728 0.1
0.149095 0.0517451 0.1
0.168142 0.0569289 0.1
0.187265 0.0618228 0.1
0.20646 0.0664258 0.1
0.225723 0.0707368 0.1
0.245049 0.0747549 0.1
0.264434 0.078479 0.1
0.283873 0.0819084 0.1
0.303362 0.0850422 0.1
0.322896 0.0878798 0.1
0.342472 0.0904204 0.1
0.362083 0.0926635 0.1
0.381726 0.0946086 0.1
0.401397 0.0962552 0.1
0.42109 0.0976029 0.1
0.440802 0.0986514 0.1
0.460527 0.0994006 0.1
0.480261 0.0998501 0.1
0.5 0.1 0.1
0.519739 0.0998501 0.1
0.539473 0.0994006 0.1
0.559198 0.0986514 0.1
0.57891 0.0976029 0.1
0.598603 0.0962552 0.1
0.618274 0.0946086 0.1
0.637917 0.0926635 0.1
0.657528 0.0904204 0.1
0.677104 0.0878798 0.1
0.696638 0.0850422 0.1
0.716127 0.0819084 0.1
0.735566 0.078479 0.1
0.754951 0.0747549 0.1
0.774277 0.0707368 0.1
0.79354 0.0664258 0.1
0.812735 0.0618228 0.1
0.831858 0.0569289 0.1
0.850905 0.0517451 0.1
0.86987 0.0462728 0.1
0.888751 0.0405131 0.1
0.907542 0.0344675 0.1
0.926238 0.0281372 0.1
0.944837 0.0215237 0.1
0.963333 0.0146286 0.1
0.981722 0.00745351 0.1
1.02 0 0.1
1.04 0 0.1
1.06 0 0.1
1.08 0 0.1
1.1 0 0.1
1.12 0 0.1
1.14 0 0.1
1.16 0 0.1
1.18 0 0.1
1.2 0 0.1
1.22 0 0.1
1.24 0 0.1
1.26 0 0.1
1.28 0 0.1
1.3 0 0.1
1.32 0 0.1
1.34 0 0.1
1.36 0 0.1
1.38 0 0.1
1.4 0 0.1
1.42 0 0.1
1.44 0 0.1
1.46 0 0.1
1.48 0 0.1
1.5 0 0.1
1.52 0 0.1
1.54 0 0.1
1.56 0 0.1
1.58 0 0.1
1.6 0 0.1
1.62 0 0.1
1.64 0 0.1
1.66 0 0.1
1.68 0 0.1
1.7 0 0.1
1.72 0 0.1
1.74 0 0.1
1.76 0 0.1
1.78 0 0.1
1.8 0 0.1
1.82 0 0.1
1.84 0 0.1
1.86 0 0.1
1.88 0 0.1
1.9 0 0.1
1.92 0 0.1
1.94 0 0.1
1.96 0 0.1
1.98 0 0.1
2 0.0199133 0.1
2 0.0414128 0.1
2 0.0646247 0.1
2 0.0896856 0.1
2 0.116743 0.1
2 0.145955 0.1
2 0.177494 0.1
2 0.211545 0.1
2 0.248309 0.1
2 0.288001 0.1
2 0.330854 0.1
2 0.377121 0.1
2 0.427073 0.1
2 0.481004 0.1
2 0.539231 0.1
2 0.602096 0.1
2 0.669968 0.1
2 0.743247 0.1
2 0.822362 0.1
2 0.907779 0.1
1.9 1 0.1
1.8 1 0.1
1.7 1 0.1
1.6 1 0.1
1.5 1 0.1
1.4 1 0.1
1.3 1 0.1
1.2 1 0.1
1.1 1 0.1
1 1 0.1
0.9 1 0.1
0.8 1 0.1
0.7 1 0.1
0.6 1 0.1
0.5 1 0.1
0.4 1 0.1
0.3 1 0.1
0.2 1 0.1
0.1 1 0.1
3.69793e-12 1 0.1
-0.1 1 0.1
-0.2 1 0.1
-0.3 1 0.1
-0.4 1 0.1
-0.5 1 0.1
-0.6 1 0.1
-0.7 1 0.1
-0.8 1 0.1
-0.9 1 0.1
1.08758 0.0158154 0
-0.0898513 0.0203294 0
0.0966181 0.0537636 0
0.90205 0.0548881 0
1.21055 0.0202058 0
-0.209811 0.0159577 0
1.3305 0.0176902 0
-0.33 0.0173205 0
1.45324 0.0148141 0
-0.448654 0.0159854 0
1.56842 0.0191785 0
-0.569936 0.0166364 0
0.193292 0.0805369 0
0.805051 0.0813623 0
0.709096 0.100353 0
0.288591 0.0996656 0
0.390184 0.111848 0
0.61033 0.111742 0
0.488809 0.116278 0
1.67175 0.0169692 0
-0.67 0.0169809 0
-0.955017 0.454039 0
1.95131 0.44569 0
1.74981 0.0168753 0
-0.75 0.0173205 0
-0.968032 0.266538 0
1.96871 0.266267 0
0.978232 0.0305687 0
0.0208675 0.026451 0
-0.150454 0.91842 0
1.13854 0.907437 0
1.45012 0.904365 0
-0.445923 0.908903 0
-0.853423 0.0157019 0
1.84881 0.016319 0
0.853689 0.915652 0
0.153944 0.912184 0
0.545151 0.914125 0
0.549913 0.115152 0
1.51 0.0173205 0
-0.506989 0.01651 0
1.27 0.0173205 0
1.14976 0.0173333 0
-0.268171 0.0206442 0
-0.150501 0.0153244 0
-0.391384 0.0153993 0
1.38886 0.0171544 0
-0.973694 0.161724 0
1.97441 0.162392 0
-0.945221 0.633523 0
1.94544 0.63312 0
1.91008 0.0186068 0
-0.91 0.0169616 0
-0.030664 0.0194327 0
1.03074 0.0165456 0
-0.966065 0.353575 0
1.96128 0.359765 0
1.93879 0.781254 0
-0.937057 0.781882 0
-0.980746 0.080709 0
1.9772 0.0760699 0
0.058735 0.0409372 0
0.355202 0.913001 0
0.86356 0.0661005 0
0.134223 0.0651111 0
0.941972 0.0397386 0
-0.653034 0.915003 0
1.65328 0.904589 0
0.770126 0.0881325 0
0.232946 0.0902008 0
0.330582 0.105648 0
0.670612 0.108365 0
0.428707 0.116145 0
1.80993 0.016629 0
-0.810168 0.0172178 0
-0.71 0.0173205 0
1.63047 0.0175504 0
1.70842 0.0169661 0
-0.628824 0.0181787 0
-0.949815 0.0133898 0
1.95 0.0173205 0
1.85542 0.907891 0
-0.85 0.913397 0
1.9833 0.0307692 0
-0.983315 0.0309709 0
-0.750025 0.916468 0
-0.701107 0.836904 0
-0.607741 0.836428 0
-0.656448 0.759827 0
-0.572936 0.758144 0
-0.61411 0.691195 0
-0.539534 0.689068 0
-0.578542 0.626111 0
-0.507461 0.624216 0
-0.544001 0.566638 0
-0.477696 0.564279 0
-0.511582 0.51001 0
-0.451689 0.507147 0
-0.481834 0.457732 0
-0.426137 0.454624 0
-0.453236 0.407539 0
-0.398845 0.406233 0
-0.507958 0.409496 0
-0.368427 0.460177 0
-0.344602 0.405209 0
-0.315696 0.447824 0
-0.294128 0.402169 0
-0.262844 0.444518 0
-0.241968 0.388746 0
-0.209878 0.439557 0
-0.185184 0.391135 0
-0.156687 0.437338 0
-0.133719 0.390776 0
-0.104405 0.434306 0
-0.0818745 0.388334 0
-0.0528785 0.431165 0
-0.0305984 0.385639 0
-0.00180552 0.427863 0
0.0194564 0.382608 0
0.0485809 0.42449 0
0.0701962 0.37973 0
0.0985483 0.421145 0
0.119893 0.377339 0
0.147837 0.417911 0
0.172552 0.36751 0
0.197018 0.412597 0
0.221203 0.37141 0
0.24512 0.409646 0
-0.48178 0.364657 0
-0.531053 0.364782 0
-0.0599102 0.344151 0
-0.324909 0.359566 0
0.266181 0.368462 0
0.292132 0.407649 0
0.311992 0.365779 0
0.338918 0.404821 0
0.357567 0.355909 0
0.384723 0.40053 0
0.404675 0.359681 0
0.430617 0.398558 0
0.450457 0.35827 0
0.474237 0.395182 0
0.496746 0.34898 0
0.520548 0.397931 0
0.542071 0.353121 0
0.566011 0.389914 0
0.585061 0.350856 0
0.609352 0.38696 0
0.629069 0.348168 0
0.655979 0.391217 0
0.67472 0.346182 0
0.699346 0.381414 0
0.719333 0.341965 0
0.743718 0.377547 0
0.764028 0.339036 0
0.788201 0.373582 0
0.807659 0.336101 0
0.832821 0.372249 0
0.852309 0.334017 0
0.877785 0.370339 0
0.897875 0.331141 0
0.922904 0.366281 0
0.943173 0.327335 0
0.968282 0.363358 0
0.989029 0.324222 0
1.01391 0.361511 0
1.03465 0.321428 0
1.05949 0.358447 0
1.08389 0.312052 0
1.10575 0.355104 0
1.12889 0.31562 0
1.15067 0.353235 0
1.17157 0.312819 0
1.19626 0.349369 0
1.21618 0.309863 0
1.2416 0.346914 0
1.26131 0.30715 0
1.28691 0.344312 0
1.30571 0.303752 0
1.33144 0.341222 0
1.35018 0.300911 0
1.3758 0.338308 0
1.39501 0.298931 0
1.42015 0.335235 0
1.43904 0.296349 0
1.46355 0.330194 0
1.48256 0.293347 0
1.50685 0.326967 0
1.52589 0.29055 0
1.54996 0.325305 0
1.56909 0.287929 0
[...]
CELL_DATA 3694
SCALARS rho float
LOOKUP_TABLE default
0.767835
0.726636
0.807462
0.839582
0.844122
0.809047
0.799468
0.804488
0.834282
0.806023
0.841714
0.841691
0.838945
0.798176
0.80505
0.787284
0.805758
0.806303
0.793081
0.861652
0.837122
0.844064
0.756674
0.807224
0.754423
0.83796
0.748035
0.811399
0.836748
0.800867
0.80092
0.745761
0.806744
0.826973
0.806814
0.82112
0.850274
0.843584
0.842878
0.788306
0.808454
0.820793
0.834664
0.82745
0.810746
0.839497
0.805971
0.725543
0.726305
0.769514
0.806257
0.80457
0.858941
0.807786
0.723497
0.851204
0.806629
0.839163
0.832859
0.782786
0.803713
0.844493
0.856599
0.803971
0.857889
0.848617
0.812402
0.840838
0.75407
0.869845
0.804507
0.812133
0.8441
0.805775
0.844511
0.804618
0.817851
0.802657
0.838634
0.806732
0.757437
0.821734
0.803862
0.787127
0.833103
0.80263
0.838626
0.757114
0.754289
0.84173
0.821105
0.805542
0.823593
0.835478
0.721188
0.810716
0.757153
0.841724
0.837774
0.854891
0.841073
0.794912
0.740015
0.833825
0.832548
0.844461
0.841816
0.811242
0.747856
0.838401
0.805465
0.770489
0.741775
0.840191
0.877531
0.805195
0.821835
0.837565
0.804498
0.805016
0.780488
0.824125
0.840682
0.79671
0.727622
0.780042
0.840909
0.804711
0.855922
0.75695
0.781946
0.80721
0.81243
0.791862
0.80614
0.817073
0.809495
0.803976
0.800343
0.84086
0.838231
0.758934
0.841003
0.840628
0.779249
0.727761
0.722927
0.800813
0.842102
0.817082
0.7774
0.804869
0.686559
0.803179
0.737988
0.795566
0.749898
0.807604
0.684254
0.801525
0.836543
0.703542
0.794244
0.769505
0.859028
0.683884
0.820688
0.804572
0.808118
0.721202
0.804234
0.723597
0.869527
0.686287
0.805955
0.726171
0.864803
0.851005
0.84132
0.761051
0.838062
0.746083
0.846571
0.75859
0.705202
0.805416
0.704728
0.84402
0.805872
0.864114
0.80052
0.727701
0.844027
0.80133
0.772004
0.849342
0.815759
0.860237
0.769043
0.776708
0.787451
0.815589
0.849894
0.833947
0.820282
0.840748
0.730726
0.808339
0.7703
0.805278
0.75957
0.817628
0.801638
0.807284
0.845759
0.795423
0.848977
0.778818
0.845764
0.840026
0.842175
0.849503
0.830495
0.759513
0.846644
0.709102
0.798188
0.831836
0.864237
0.848065
0.832343
0.801381
0.777877
0.841785
0.852691
0.841745
0.762187
0.822299
0.738421
0.815737
0.801576
0.832776
0.720113
0.81209
0.789827
0.805042
0.804399
0.789113
0.843371
0.859469
0.793336
0.717174
0.810317
0.806625
0.705765
0.81694
0.79208
0.804383
0.851963
0.843559
0.686264
0.842867
0.814183
0.820737
0.842622
0.804733
0.819151
0.833438
0.835281
0.78627
0.803311
0.852129
0.815185
0.804488
0.803467
0.844368
0.747172
0.670294
0.84086
0.83005
0.842325
0.80938
0.747699
0.842614
0.84271
0.83714
0.759996
0.817475
0.844415
0.68992
0.804404
0.877055
0.708053
0.791088
0.854227
0.843429
0.844073
0.730632
0.814072
0.844479
0.807198
0.805269
0.816225
0.849862
0.820936
0.784801
0.811707
0.80497
0.703204
0.843032
0.847177
0.73306
0.814825
0.842107
0.822826
0.732869
0.695558
0.84323
0.844247
0.813817
0.751861
0.752166
0.757398
0.773581
0.842368
0.80458
0.807678
0.774089
0.758508
0.843346
0.833304
0.822536
0.796851
0.843349
0.840695
0.841633
0.840249
0.805597
0.81202
0.808925
0.716221
0.804047
0.816912
0.751288
0.812263
0.809105
0.842321
0.796306
0.811666
0.800818
0.844148
0.843026
0.842617
0.801463
0.74774
0.761154
0.805299
0.815317
0.71431
0.807281
0.812559
0.820697
0.773061
0.809226
0.84011
0.837126
0.841704
0.808948
0.804121
0.794291
0.809632
0.858525
0.823235
0.730036
0.807899
0.758668
0.727868
0.806136
0.681759
0.787341
0.796056
0.812381
0.841321
0.843617
0.840715
0.831917
0.842644
0.847006
0.804915
0.794311
0.814606
0.724365
0.841764
0.787068
0.771368
0.740334
0.840859
0.864507
0.841777
0.81369
0.823793
0.842809
0.797499
0.790483
0.833986
0.734397
0.799214
0.856797
0.827538
0.805382
0.87456
0.81731
0.838511
0.841779
0.831559
0.715416
0.821504
0.773522
0.800477
0.756351
0.837811
0.813372
0.810361
0.704827
0.843353
0.830999
0.837738
0.805905
0.807746
0.844651
0.807205
0.758442
0.799403
0.804395
0.843021
0.837464
0.8369
0.880103
0.847163
0.81389
0.850143
0.736061
0.844358
0.854115
0.841379
0.692784
0.842909
0.813732
0.86006
0.843195
0.805385
0.67385
0.814507
0.754188
0.810418
0.804571
0.8168
0.841464
0.827223
0.809086
0.815768
0.840459
0.769943
0.873575
0.803597
0.863611
0.840359
0.689543
0.807279
0.804113
0.83688
0.841744
0.72935
0.80497
0.814036
0.817045
0.811397
0.800688
0.842356
0.841051
0.820009
0.809243
0.842879
0.850317
0.7738
0.810618
0.814532
0.837608
0.729002
0.80957
0.838053
0.802145
0.808275
0.683787
0.850784
0.795658
0.843807
0.841651
0.848865
0.859125
0.839895
0.837524
0.759279
0.802101
0.862989
0.832614
0.747201
0.802798
0.804431
0.880596
0.859859
0.842162
0.803468
0.814427
0.783968
0.841658
0.817933
0.672405
0.806031
0.775171
0.769991
0.807068
0.836966
0.792334
0.823453
0.842244
0.837742
0.838691
0.805837
0.831008
0.756489
0.772535
0.807713
0.831359
0.841065
0.806157
0.771388
0.748774
0.84118
0.81923
0.817978
0.678262
0.840829
0.835748
0.845184
0.806107
0.830037
0.840976
0.816167
0.855528
0.805695
0.816748
0.842598
0.842325
0.83588
0.839105
0.751934
0.795463
0.816301
0.80608
0.861733
0.804421
0.823072
0.696116
0.830061
0.838621
0.815127
0.842196
0.8099
0.840331
0.760988
0.858657
0.730222
0.803732
0.841739
0.81152
0.731768
0.703139
0.819448
0.809881
0.808641
0.810625
0.80424
0.847808
0.837055
0.808916
0.805732
0.836615
0.686271
0.838109
0.807218
0.753469
0.838272
0.720132
0.810377
0.840468
0.851117
0.82966
0.839144
0.817151
0.817432
0.808429
0.804303
0.83791
0.815478
0.83341
0.805503
0.771113
0.808317
0.839456
0.838503
0.83585
0.837454
0.841561
0.843124
0.848001
0.775881
0.811184
0.841424
0.806544
0.667882
0.748105
0.815977
0.840686
0.842171
0.791883
0.813366
0.817399
0.807405
0.805346
0.806592
0.838141
0.839326
0.842999
0.810248
0.829885
0.829463
0.691337
0.790088
0.782468
0.825232
0.767411
0.745298
0.799998
0.784973
0.846549
0.844424
0.842958
0.813344
0.665218
0.819571
0.670641
0.754609
0.845146
0.877598
0.78205
0.840544
0.865568
0.7458
0.840299
0.813976
0.818779
0.811868
0.713
0.867173
0.758675
0.775494
0.808612
0.808422
0.801754
0.833669
0.843044
0.74185
0.833948
0.80386
0.752187
0.855615
0.801303
0.694214
0.789406
0.841473
0.831659
0.842589
0.794163
0.770577
0.800115
0.836132
0.732341
0.842022
0.838152
0.84665
0.791573
0.843642
0.750656
0.80846
0.714414
0.741396
0.820343
0.825539
0.81392
0.843758
0.841941
0.84262
0.842392
0.678384
0.803745
0.844709
0.773867
0.814517
0.841741
0.837976
0.738067
0.716286
0.772234
0.711478
0.81191
0.736485
0.84232
0.803196
0.843059
0.836148
0.715981
0.824547
0.840371
0.846581
0.779993
0.807342
0.777303
0.797798
0.834784
0.69764
0.701144
0.842692
0.809495
0.834464
0.808385
0.76274
0.803792
0.765027
0.773974
0.803601
0.850013
0.816467
0.733168
0.844384
0.836368
0.836253
0.750449
0.716056
0.739339
0.880988
0.841717
0.839086
0.688526
0.750114
0.70356
0.80772
0.802149
0.723056
0.816313
0.840103
0.786805
0.804244
0.765393
0.840356
0.734764
0.843798
0.814955
0.823791
0.804754
0.840927
0.775545
0.842259
0.844029
0.793411
0.690472
0.820268
0.835676
0.782778
0.842248
0.763435
0.807396
0.843542
0.729743
0.841848
0.803764
0.814177
0.686911
0.706238
0.771122
0.810529
0.836733
0.835855
0.842768
0.818907
0.841334
0.743538
0.803147
0.837083
0.845748
0.743673
0.773137
0.838423
0.831655
0.747149
0.817646
0.798813
0.726729
0.816129
0.738445
0.826468
0.716187
0.804342
0.750186
0.732631
0.835609
0.797124
0.778238
0.69591
0.854313
0.823115
0.838034
0.795963
0.842827
0.802155
0.808698
0.803108
0.806648
0.837647
0.776468
0.814457
0.802782
0.842102
0.681732
0.805482
0.836312
0.836858
0.835709
0.8359
0.773407
0.823655
0.782166
0.777173
0.84147
0.728028
0.841183
0.840627
0.804758
0.83891
0.840081
0.765266
0.780717
0.84334
0.80927
0.80821
0.83959
0.882208
0.839561
0.822233
0.841756
0.842574
0.800893
0.841988
0.838316
0.78959
0.756876
0.856858
0.804075
0.804895
0.825235
0.804396
0.841614
0.82634
0.842004
0.841647
0.879597
0.804841
0.809407
0.84182
0.804819
0.841432
0.81143
0.770752
0.841092
0.842429
0.768367
0.761388
0.840703
0.841873
0.824924
0.733161
0.843474
0.789494
0.83234
0.805844
0.768079
0.804367
0.80136
0.819395
0.839039
0.736049
0.760526
0.805799
0.797084
0.806373
0.840357
0.743209
0.843836
0.806238
0.804604
0.838989
0.842514
0.764149
0.841211
0.783491
0.806917
0.832468
0.806595
0.799977
0.804418
0.801595
0.84224
0.698371
0.844545
0.719212
0.739936
0.806777
0.842406
0.844016
0.805359
0.842496
0.828425
0.769935
0.795901
0.868957
0.804701
0.847649
0.812497
0.683538
0.775384
0.807189
0.724707
0.777619
0.681203
0.836297
0.841004
0.833855
0.804008
0.781718
0.739602
0.795098
0.767083
0.794562
0.84449
0.842552
0.842319
0.810323
0.82176
0.83923
0.80659
0.812589
0.747824
0.806806
0.784229
0.813329
0.80074
0.786381
0.840323
0.79853
0.806991
0.814914
0.854466
0.757344
0.803569
0.803315
0.809024
0.68416
0.842392
0.842431
0.824792
0.720829
0.842468
0.841979
0.801227
0.80743
0.801559
0.802931
0.811664
0.818307
0.842032
0.768274
0.826472
0.88253
0.784683
0.782777
0.829252
0.793917
0.857843
0.822869
0.807057
0.836763
0.80419
0.801385
0.812713
0.845773
0.852754
0.805008
0.673368
0.84221
0.846738
0.786148
0.849196
0.853197
0.843455
0.845519
0.812192
0.849772
0.846532
0.794725
0.813809
0.836651
0.829405
0.843923
0.806516
0.828531
0.801655
0.808644
0.811281
0.770125
0.812335
0.673785
0.841491
0.845545
0.847721
0.810895
0.821639
0.844633
0.82256
0.84291
0.854935
0.850845
0.812839
0.802066
0.843344
0.839994
0.841496
0.803526
0.81104
0.875329
0.842536
0.861422
0.840261
0.803635
0.826655
0.806858
0.833095
0.837901
0.837223
0.809661
0.766303
0.80573
0.808492
0.841951
0.807507
0.821559
0.824671
0.80969
0.807935
0.791678
0.822759
0.750472
0.818474
0.807517
0.780568
0.806872
0.817362
0.821318
0.764544
0.842237
0.819017
0.828058
0.840531
0.81127
0.841828
0.84438
0.833759
0.834265
0.816014
0.80416
0.780889
0.74576
0.843498
0.822701
0.799466
0.838027
0.812234
0.836401
0.809822
0.801559
0.790059
0.80394
0.802572
0.855641
0.841527
0.81578
0.811724
0.681213
0.766604
0.807082
0.808774
0.808337
0.839751
0.810321
0.841947
0.793037
0.843195
0.809139
0.83565
0.807872
0.84114
0.804169
0.842065
0.835264
0.840578
0.836725
0.764328
0.83757
0.842214
0.677777
0.843083
0.803953
0.8072
0.870115
0.839987
0.835373
0.880646
0.840967
0.84132
0.841718
0.841929
0.838542
0.78248
0.830728
0.805307
0.806135
0.83704
0.841685
0.841813
0.842434
0.836389
0.825557
0.807625
0.835841
0.813508
0.81921
0.823042
0.842675
0.835504
0.841541
0.813697
0.719203
0.727275
0.805295
0.813413
0.806381
0.835366
0.840958
0.839775
0.805565
0.80895
0.80394
0.803338
0.840319
0.85701
0.841986
0.815998
0.841279
0.841825
0.844005
0.840366
0.824013
0.796706
0.839305
0.81119
0.806353
0.800767
0.83343
0.841529
0.84246
0.840555
0.835193
0.828438
0.83926
0.839812
0.824314
0.806626
0.806728
0.809694
0.836133
0.842166
0.804015
0.825424
0.841589
0.825035
0.804314
0.694026
0.807879
0.817157
0.82087
0.805816
0.8065
0.778043
0.856485
0.807694
0.802104
0.852085
0.848514
0.814629
0.846135
0.803313
0.841535
0.838945
0.841969
0.806782
0.841761
0.773491
0.843681
0.815847
0.803275
0.817179
0.842776
0.805571
0.807441
0.807954
0.818961
0.842561
0.842499
0.841765
0.810627
0.841769
0.841665
0.843495
0.824498
0.854143
0.810279
0.73629
0.841003
0.853475
0.842404
0.80885
0.801953
0.807347
0.837639
0.818064
0.841228
0.766682
0.780098
0.804181
0.807495
0.841095
0.839485
0.822533
0.728355
0.746624
0.812434
0.780747
0.842168
0.736416
0.804717
0.7628
0.804361
0.823069
0.804437
0.841567
0.838126
0.80313
0.813006
0.817008
0.830061
0.842365
0.804864
0.807122
0.840102
0.842775
0.783487
0.841047
0.806978
0.792138
0.842402
0.807265
0.81507
0.843537
0.842246
0.851492
0.816468
0.800771
0.842426
0.786224
0.811056
0.843514
0.805747
0.840922
0.839367
0.80584
0.857171
0.828172
0.811652
0.837947
0.804337
0.8482
0.797593
0.805488
0.84211
0.849799
0.812703
0.840236
0.841734
0.805662
0.805465
0.827795
0.80529
0.840868
0.841901
0.729234
0.841957
0.74935
0.821032
0.853467
0.844361
0.809051
0.842316
0.843019
0.763398
0.843283
0.805404
0.802982
0.803858
0.840873
0.874085
0.803949
0.804536
0.796032
0.856503
0.829212
0.841762
0.837941
0.777403
0.824918
0.804207
0.764966
0.804051
0.752433
0.835297
0.804006
0.72671
0.886783
0.740598
0.783138
0.806491
0.780316
0.812824
0.801642
0.804526
0.716359
0.802276
0.795552
0.802342
0.774355
0.841667
0.843747
0.890101
0.813898
0.832335
0.706771
0.803901
0.809106
0.783789
0.780196
0.79938
0.758039
0.806737
0.802845
0.806785
0.78521
0.698145
0.815653
0.691955
0.840547
0.838449
0.815568
0.76083
0.830661
0.819573
0.840105
0.794644
0.830998
0.802376
0.834514
0.753434
0.804371
0.762328
0.8041
0.801224
0.749482
0.807653
0.843821
0.843661
0.805098
0.788783
0.842541
0.751852
0.735532
0.804314
0.843829
0.882601
0.844008
0.840697
0.886672
0.874029
0.845292
0.740184
0.804727
0.815953
0.824332
0.820487
0.746317
0.757682
0.744474
0.80436
0.729016
0.787388
0.801466
0.717283
0.718398
0.849937
0.800066
0.779188
0.848098
0.789288
0.781193
0.708851
0.769485
0.809034
0.838783
0.877609
0.85174
0.842216
0.816623
0.8019
0.759349
0.842927
0.738353
0.803548
0.844189
0.792645
0.789783
0.822491
0.806871
0.806608
0.803052
0.83647
0.815409
0.876065
0.700424
0.679791
0.804821
0.827125
0.74912
0.814627
0.805128
0.852024
0.806619
0.803555
0.682533
0.693308
0.812731
0.837367
0.843194
0.772094
0.804594
0.830409
0.741821
0.836792
0.804434
0.84179
0.804143
0.82019
0.803361
0.8427
0.803823
0.819744
0.806152
0.872309
0.843459
0.803647
0.740928
0.735531
0.841585
0.689903
0.832671
0.814546
0.851108
0.837755
0.805784
0.814969
0.840881
0.838354
0.844296
0.802807
0.849813
0.868096
0.806591
0.731131
0.830814
0.824179
0.803487
0.805095
0.839572
0.777814
0.804123
0.842354
0.840182
0.839513
0.841865
0.792218
0.762418
0.805255
0.850061
0.807606
0.834489
0.809335
0.808515
0.809859
0.841931
0.81351
0.802058
0.811719
0.810876
0.826876
0.811322
0.810822
0.841458
0.811679
0.804194
0.840434
0.80456
0.803842
0.810165
0.812591
0.840567
0.789781
0.809547
0.804881
0.844905
0.801341
0.80693
0.811891
0.848702
0.809007
0.730763
0.802605
0.839757
0.808499
0.818494
0.783479
0.840061
0.777327
0.806623
0.803361
0.807482
0.822166
0.863919
0.807986
0.804179
0.763784
0.847277
0.84399
0.841943
0.826369
0.836537
0.771477
0.841374
0.766378
0.806463
0.846011
0.804191
0.75227
0.844953
0.835411
0.842006
0.843927
0.842697
0.789239
0.841444
0.732185
0.762725
0.844095
0.843036
0.744838
0.842178
0.712947
0.842431
0.811806
0.841758
0.804387
0.810658
0.836085
0.832634
0.826742
0.696224
0.840236
0.857234
0.794095
0.860388
0.803847
0.761463
0.854603
0.842204
0.852483
0.751695
0.746428
0.850546
0.736028
0.848937
0.843662
0.847538
0.811569
0.84642
0.797909
0.845456
0.844567
0.762465
0.875678
0.843851
0.843275
0.825693
0.789222
0.804936
0.67929
0.825861
0.842847
0.840079
0.810387
0.845523
0.845116
0.800221
0.84248
0.804974
0.741819
0.800796
0.834558
0.842203
0.766265
0.822307
0.824167
0.692649
0.842193
0.842453
0.808926
0.814221
0.771581
0.837173
0.804641
0.806185
0.802906
0.81778
0.805375
0.801562
0.804131
0.839598
0.822308
0.840196
0.670888
0.897438
0.749333
0.80383
0.779216
0.800464
0.844853
0.842181
0.842462
0.689295
0.840534
0.820571
0.807741
0.838861
0.83652
0.838803
0.794059
0.803062
0.804688
0.772501
0.787372
0.843065
0.790641
0.818865
0.841882
0.842279
0.817449
0.804297
0.803052
0.816217
0.84192
0.758349
0.814917
0.84204
0.841867
0.812292
0.813847
0.795446
0.843258
0.812517
0.805446
0.81178
0.700888
0.810757
0.808298
0.810152
0.842697
0.843496
0.808754
0.803148
0.809441
0.785791
0.842175
0.828956
0.840105
0.844999
0.846968
0.806204
0.767522
0.822806
0.843122
0.76489
0.805443
0.84193
0.776757
0.839993
0.667964
0.811001
0.730113
0.805847
0.828767
0.837629
0.841817
0.807898
0.836434
0.840797
0.804266
0.809514
0.84284
0.841589
0.803124
0.839122
0.807111
0.806641
0.802413
0.804643
0.828957
0.842774
0.80519
0.800017
0.841673
0.830438
0.813418
0.844969
0.676946
0.809453
0.817661
0.842793
0.81257
0.783389
0.739436
0.839667
0.844342
0.845384
0.81457
0.68703
0.796829
0.723317
0.841828
0.761214
0.839289
0.83153
0.755022
0.802024
0.850771
0.78697
0.805128
0.805129
0.840724
0.821634
0.7409
0.803127
0.681575
0.805563
0.804997
0.805895
0.694554
0.804674
0.806457
0.806474
0.76201
0.770659
0.806543
0.801024
0.842403
0.758943
0.747284
0.842531
0.806116
0.782414
0.864671
0.841667
0.839295
0.723354
0.806814
0.802284
0.80269
0.803783
0.722202
0.806264
0.842645
0.713899
0.733661
0.811203
0.812313
0.843334
0.839021
0.840854
0.841347
0.841277
0.807077
0.843043
0.840557
0.830924
0.830654
0.806857
0.804521
0.814877
0.773004
0.814007
0.840396
0.871985
0.829433
0.705262
0.803438
0.804516
0.790145
0.841553
0.836726
0.844882
0.818317
0.873766
0.806739
0.84045
0.6868
0.819563
0.848374
0.804141
0.842595
0.698909
0.839154
0.804672
0.841532
0.803586
0.841394
0.841479
0.769503
0.80774
0.804082
0.849837
0.871951
0.822794
0.842066
0.746747
0.781974
0.804149
0.805865
0.816453
0.841309
0.801675
0.805484
0.841494
0.829123
0.811951
0.75818
0.80461
0.840132
0.836233
0.787292
0.774493
0.834855
0.803661
0.868307
0.755375
0.849851
0.834518
0.735795
0.806182
0.840292
0.796113
0.802294
0.805949
0.841625
0.803364
0.785689
0.840179
0.725507
0.800624
0.794367
0.841932
0.841786
0.804901
0.811337
0.774951
0.784638
0.798125
0.84231
0.842005
0.828527
0.715831
0.823276
0.817931
0.789573
0.814048
0.839322
0.805917
0.807984
0.723521
0.808876
0.809529
0.864626
0.807021
0.813729
0.849277
0.810195
0.834238
0.864751
0.707447
0.807586
0.841998
0.809977
0.809388
0.810456
0.808532
0.808846
0.80795
0.810735
0.811242
0.765641
0.810878
0.811864
0.827354
0.839411
0.812945
0.838262
0.8043
0.806925
0.84006
0.839712
0.834672
0.804201
0.8193
0.817504
0.830225
0.841054
0.755897
0.840284
0.848267
0.84217
0.866913
0.778831
0.831018
0.844178
0.805924
0.707777
0.805817
0.796849
0.843495
0.68879
0.842239
0.847062
0.842532
0.832389
0.804356
0.828211
0.836706
0.807371
0.790923
0.841374
0.776536
0.67301
0.843098
0.718581
0.748419
0.822754
0.845937
0.846567
0.841391
0.861237
0.70077
0.86868
0.810698
0.844919
0.843946
0.837865
0.741902
0.843396
0.843062
0.841656
0.806165
0.784424
0.824443
0.67942
0.833919
0.858015
0.806465
0.855402
0.842406
0.804155
0.737125
0.841916
0.841908
0.853076
0.804011
0.835076
0.804055
0.851222
0.805361
0.835542
0.849492
0.847992
0.824391
0.844922
0.831933
0.756015
0.735936
0.694313
0.846758
0.845796
0.786135
0.780586
0.829745
0.844881
0.844207
0.695973
0.844078
0.843443
0.84296
0.842282
0.80979
0.82352
0.73538
0.775106
0.842598
0.800843
0.863499
0.895497
0.791209
0.826878
0.718555
0.835639
0.769978
0.766055
0.822251
0.808159
0.795339
0.73776
0.803613
0.842771
0.79859
0.764061
0.823637
0.820568
0.805455
0.742706
0.839055
0.801659
0.842079
0.850499
0.818847
0.819433
0.841834
0.841937
0.796443
0.807908
0.764189
0.839705
0.801053
0.834309
0.79421
0.808438
0.747935
0.802304
0.817505
0.81627
0.815321
0.813867
0.812707
0.812001
0.810205
0.808967
0.811093
0.771375
0.809612
0.802761
0.802632
0.806287
0.842508
0.766372
0.805414
0.789461
0.889425
0.850499
0.803745
0.770578
0.807823
0.804496
0.755849
0.806371
0.8055
0.776484
0.80898
0.814672
0.800684
0.804387
0.76426
0.80647
0.826331
0.784157
0.781238
0.798973
0.804883
0.840758
0.812889
0.791544
0.772689
0.804485
0.841338
0.805754
0.813809
0.802636
0.926977
0.869822
0.839693
0.844537
0.742988
0.858244
0.777001
0.828171
0.833207
0.901667
0.844309
0.800014
0.679252
0.843985
0.800275
0.843696
0.800976
0.857389
0.675863
0.849874
0.80553
0.81009
0.810291
0.808156
0.851927
0.803554
0.841295
0.740175
0.684389
0.713504
0.84344
0.664673
0.800411
0.765774
0.854171
0.818115
0.65575
0.821526
0.842229
0.842203
0.754672
0.805513
0.653887
0.800922
0.842981
0.801206
0.805217
0.801611
0.842629
0.847782
0.804142
0.802794
0.842242
0.803203
0.842123
0.818351
0.803674
0.842022
0.840111
0.841949
0.803921
0.841895
0.724064
0.804226
0.841857
0.804776
0.804478
0.841827
0.75229
0.843488
0.800442
0.84472
0.804687
0.833902
0.837951
0.872451
0.8029
0.805754
0.841912
0.819281
0.805346
0.804901
0.857884
0.830517
0.841881
0.834372
0.861929
0.847676
0.840719
0.827906
0.860803
0.843631
0.807015
0.842254
0.829214
0.80755
0.842762
0.804222
0.825827
0.792104