# vtk DataFile Version 1.0
unstructured grid
ascii
DATASET UNSTRUCTURED_GRID
points 3920 float
-1 0 0
-1 1 0
2 0 0
2 1 0
0 0 0
1 0 0
-1 1 0.1
-1 0 0.1
0 0 0.1
1 0 0.1
2 0 0.1
2 1 0.1
-0.98 0 0
-0.96 0 0
-0.94 0 0
-0.92 0 0
-0.9 0 0
-0.88 0 0
-0.86 0 0
-0.84 0 0
-0.82 0 0
-0.8 0 0
-0.78 0 0
-0.76 0 0
-0.74 0 0
-0.72 0 0
-0.7 0 0
-0.68 0 0
-0.66 0 0
-0.64 0 0
-0.62 0 0
-0.6 0 0
-0.58 0 0
-0.56 0 0
-0.54 0 0
-0.52 0 0
-0.5 0 0
-0.48 0 0
-0.46 0 0
-0.44 0 0
-0.42 0 0
-0.4 0 0
-0.38 0 0
-0.36 0 0
-0.34 0 0
-0.32 0 0
-0.3 0 0
-0.28 0 0
-0.26 0 0
-0.24 0 0
-0.22 0 0
-0.2 0 0
-0.18 0 0
-0.16 0 0
-0.14 0 0
-0.12 0 0
-0.1 0 0
-0.08 0 0
-0.06 0 0
-0.04 0 0
-0.02 0 0
1.02 0 0
1.04 0 0
1.06 0 0
1.08 0 0
1.1 0 0
1.12 0 0
1.14 0 0
1.16 0 0
1.18 0 0
1.2 0 0
1.22 0 0
1.24 0 0
1.26 0 0
1.28 0 0
1.3 0 0
1.32 0 0
1.34 0 0
1.36 0 0
1.38 0 0
1.4 0 0
1.42 0 0
1.44 0 0
1.46 0 0
1.48 0 0
1.5 0 0
1.52 0 0
1.54 0 0
1.56 0 0
1.58 0 0
1.6 0 0
1.62 0 0
1.64 0 0
1.66 0 0
1.68 0 0
1.7 0 0
1.72 0 0
1.74 0 0
1.76 0 0
1.78 0 0
1.8 0 0
1.82 0 0
1.84 0 0
1.86 0 0
1.88 0 0
1.9 0 0
1.92 0 0
1.94 0 0
1.96 0 0
1.98 0 0
2 0.0199133 0
2 0.0414128 0
2 0.0646247 0
2 0.0896856 0
2 0.116743 0
2 0.145955 0
2 0.177494 0
2 0.211545 0
2 0.248309 0
2 0.288001 0
2 0.330854 0
2 0.377121 0
2 0.427073 0
2 0.481004 0
2 0.539231 0
2 0.602096 0
2 0.669968 0
2 0.743247 0
2 0.822362 0
2 0.907779 0
1.9 1 0
1.8 1 0
1.7 1 0
1.6 1 0
1.5 1 0
1.4 1 0
1.3 1 0
1.2 1 0
1.1 1 0
1 1 0
0.9 1 0
0.8 1 0
0.7 1 0
0.6 1 0
0.5 1 0
0.4 1 0
0.3 1 0
0.2 1 0
0.1 1 0
3.69793e-12 1 0
-0.1 1 0
-0.2 1 0
-0.3 1 0
-0.4 1 0
-0.5 1 0
-0.6 1 0
-0.7 1 0
-0.8 1 0
-0.9 1 0
-1 0.907779 0
-1 0.822362 0
-1 0.743247 0
-1 0.669968 0
-1 0.602096 0
-1 0.539231 0
-1 0.481004 0
-1 0.427073 0
-1 0.377121 0
-1 0.330854 0
-1 0.288001 0
-1 0.248309 0
-1 0.211545 0
-1 0.177494 0
-1 0.145955 0
-1 0.116743 0
-1 0.0896856 0
-1 0.0646247 0
-1 0.0414128 0
-1 0.0199133 0
0.0182781 0.00745351 0
0.0366672 0.0146286 0
0.0551632 0.0215237 0
0.0737617 0.0281372 0
0.0924585 0.0344675 0
0.111249 0.0405131 0
0.13013 0.0462728 0
0.149095 0.0517451 0
0.168142 0.0569289 0
0.187265 0.0618228 0
0.20646 0.0664258 0
0.225723 0.0707368 0
0.245049 0.0747549 0
0.264434 0.078479 0
0.283873 0.0819084 0
0.303362 0.0850422 0
0.322896 0.0878798 0
0.342472 0.0904204 0
0.362083 0.0926635 0
0.381726 0.0946086 0
0.401397 0.0962552 0
0.42109 0.0976029 0
0.440802 0.0986514 0
0.460527 0.0994006 0
0.480261 0.0998501 0
0.5 0.1 0
0.519739 0.0998501 0
0.539473 0.0994006 0
0.559198 0.0986514 0
0.57891 0.0976029 0
0.598603 0.0962552 0
0.618274 0.0946086 0
0.637917 0.0926635 0
0.657528 0.0904204 0
0.677104 0.0878798 0
0.696638 0.0850422 0
0.716127 0.0819084 0
0.735566 0.078479 0
0.754951 0.0747549 0
0.774277 0.0707368 0
0.79354 0.0664258 0
0.812735 0.0618228 0
0.831858 0.0569289 0
0.850905 0.0517451 0
0.86987 0.0462728 0
0.888751 0.0405131 0
0.907542 0.0344675 0
0.926238 0.0281372 0
0.944837 0.0215237 0
0.963333 0.0146286 0
0.981722 0.00745351 0
-1 0.907779 0.1
-1 0.822362 0.1
-1 0.743247 0.1
-1 0.669968 0.1
-1 0.602096 0.1
-1 0.539231 0.1
-1 0.481004 0.1
-1 0.427073 0.1
-1 0.377121 0.1
-1 0.330854 0.1
-1 0.288001 0.1
-1 0.248309 0.1
-1 0.211545 0.1
-1 0.177494 0.1
-1 0.145955 0.1
-1 0.116743 0.1
-1 0.0896856 0.1
-1 0.0646247 0.1
-1 0.0414128 0.1
-1 0.0199133 0.1
-0.98 0 0.1
-0.96 0 0.1
-0.94 0 0.1
-0.92 0 0.1
-0.9 0 0.1
-0.88 0 0.1
-0.86 0 0.1
-0.84 0 0.1
-0.82 0 0.1
-0.8 0 0.1
-0.78 0 0.1
-0.76 0 0.1
-0.74 0 0.1
-0.72 0 0.1
-0.7 0 0.1
-0.68 0 0.1
-0.66 0 0.1
-0.64 0 0.1
-0.62 0 0.1
-0.6 0 0.1
-0.58 0 0.1
-0.56 0 0.1
-0.54 0 0.1
-0.52 0 0.1
-0.5 0 0.1
-0.48 0 0.1
-0.46 0 0.1
-0.44 0 0.1
-0.42 0 0.1
-0.4 0 0.1
-0.38 0 0.1
-0.36 0 0.1
-0.34 0 0.1
-0.32 0 0.1
-0.3 0 0.1
-0.28 0 0.1
-0.26 0 0.1
-0.24 0 0.1
-0.22 0 0.1
-0.2 0 0.1
-0.18 0 0.1
-0.16 0 0.1
-0.14 0 0.1
-0.12 0 0.1
-0.1 0 0.1
-0.08 0 0.1
-0.06 0 0.1
-0.04 0 0.1
-0.02 0 0.1
0.0182781 0.00745351 0.1
0.0366672 0.0146286 0.1
0.0551632 0.0215237 0.1
0.0737617 0.0281372 0.1
0.0924585 0.0344675 0.1
0.111249 0.0405131 0.1
0.13013 0.0462728 0.1
0.149095 0.0517451 0.1
0.168142 0.0569289 0.1
0.187265 0.0618228 0.1
0.20646 0.0664258 0.1
0.225723 0.0707368 0.1
0.245049 0.0747549 0.1
0.264434 0.078479 0.1
0.283873 0.0819084 0.1
0.303362 0.0850422 0.1
0.322896 0.0878798 0.1
0.342472 0.0904204 0.1
0.362083 0.0926635 0.1
0.381726 0.0946086 0.1
0.401397 0.0962552 0.1
0.42109 0.0976029 0.1
0.440802 0.0986514 0.1
0.460527 0.0994006 0.1
0.480261 0.0998501 0.1
0.5 0.1 0.1
0.519739 0.0998501 0.1
0.539473 0.0994006 0.1
0.559198 0.0986514 0.1
0.57891 0.0976029 0.1
0.598603 0.0962552 0.1
0.618274 0.0946086 0.1
0.637917 0.0926635 0.1
0.657528 0.0904204 0.1
0.677104 0.0878798 0.1
0.696638 0.0850422 0.1
0.716127 0.0819084 0.1
0.735566 0.078479 0.1
0.754951 0.0747549 0.1
0.774277 0.0707368 0.1
0.79354 0.0664258 0.1
0.812735 0.0618228 0.1
0.831858 0.0569289 0.1
0.850905 0.0517451 0.1
0.86987 0.0462728 0.1
0.888751 0.0405131 0.1
0.907542 0.0344675 0.1
0.926238 0.0281372 0.1
0.944837 0.0215237 0.1
0.963333 0.0146286 0.1
0.981722 0.00745351 0.1
1.02 0 0.1
1.04 0 0.1
1.06 0 0.1
1.08 0 0.1
1.1 0 0.1
1.12 0 0.1
1.14 0 0.1
1.16 0 0.1
1.18 0 0.1
1.2 0 0.1
1.22 0 0.1
1.24 0 0.1
1.26 0 0.1
1.28 0 0.1
1.3 0 0.1
1.32 0 0.1
1.34 0 0.1
1.36 0 0.1
1.38 0 0.1
1.4 0 0.1
1.42 0 0.1
1.44 0 0.1
1.46 0 0.1
1.48 0 0.1
1.5 0 0.1
1.52 0 0.1
1.54 0 0.1
1.56 0 0.1
1.58 0 0.1
1.6 0 0.1
1.62 0 0.1
1.64 0 0.1
1.66 0 0.1
1.68 0 0.1
1.7 0 0.1
1.72 0 0.1
1.74 0 0.1
1.76 0 0.1
1.78 0 0.1
1.8 0 0.1
1.82 0 0.1
1.84 0 0.1
1.86 0 0.1
1.88 0 0.1
1.9 0 0.1
1.92 0 0.1
1.94 0 0.1
1.96 0 0.1
1.98 0 0.1
2 0.0199133 0.1
2 0.0414128 0.1
2 0.0646247 0.1
2 0.0896856 0.1
2 0.116743 0.1
2 0.145955 0.1
2 0.177494 0.1
2 0.211545 0.1
2 0.248309 0.1
2 0.288001 0.1
2 0.330854 0.1
2 0.377121 0.1
2 0.427073 0.1
2 0.481004 0.1
2 0.539231 0.1
2 0.602096 0.1
2 0.669968 0.1
2 0.743247 0.1
2 0.822362 0.1
2 0.907779 0.1
1.9 1 0.1
1.8 1 0.1
1.7 1 0.1
1.6 1 0.1
1.5 1 0.1
1.4 1 0.1
1.3 1 0.1
1.2 1 0.1
1.1 1 0.1
1 1 0.1
0.9 1 0.1
0.8 1 0.1
0.7 1 0.1
0.6 1 0.1
0.5 1 0.1
0.4 1 0.1
0.3 1 0.1
0.2 1 0.1
0.1 1 0.1
3.69793e-12 1 0.1
-0.1 1 0.1
-0.2 1 0.1
-0.3 1 0.1
-0.4 1 0.1
-0.5 1 0.1
-0.6 1 0.1
-0.7 1 0.1
-0.8 1 0.1
-0.9 1 0.1
1.08758 0.0158154 0
-0.0898513 0.0203294 0
0.0966181 0.0537636 0
0.90205 0.0548881 0
1.21055 0.0202058 0
-0.209811 0.0159577 0
1.3305 0.0176902 0
-0.33 0.0173205 0
1.45324 0.0148141 0
-0.448654 0.0159854 0
1.56842 0.0191785 0
-0.569936 0.0166364 0
0.193292 0.0805369 0
0.805051 0.0813623 0
0.709096 0.100353 0
0.288591 0.0996656 0
0.390184 0.111848 0
0.61033 0.111742 0
0.488809 0.116278 0
1.67175 0.0169692 0
-0.67 0.0169809 0
-0.955017 0.454039 0
1.95131 0.44569 0
1.74981 0.0168753 0
-0.75 0.0173205 0
-0.968032 0.266538 0
1.96871 0.266267 0
0.978232 0.0305687 0
0.0208675 0.026451 0
-0.150454 0.91842 0
1.13854 0.907437 0
1.45012 0.904365 0
-0.445923 0.908903 0
-0.853423 0.0157019 0
1.84881 0.016319 0
0.853689 0.915652 0
0.153944 0.912184 0
0.545151 0.914125 0
0.549913 0.115152 0
1.51 0.0173205 0
-0.506989 0.01651 0
1.27 0.0173205 0
1.14976 0.0173333 0
-0.268171 0.0206442 0
-0.150501 0.0153244 0
-0.391384 0.0153993 0
1.38886 0.0171544 0
-0.973694 0.161724 0
1.97441 0.162392 0
-0.945221 0.633523 0
1.94544 0.63312 0
1.91008 0.0186068 0
-0.91 0.0169616 0
-0.030664 0.0194327 0
1.03074 0.0165456 0
-0.966065 0.353575 0
1.96128 0.359765 0
1.93879 0.781254 0
-0.937057 0.781882 0
-0.980746 0.080709 0
1.9772 0.0760699 0
0.058735 0.0409372 0
0.355202 0.913001 0
0.86356 0.0661005 0
0.134223 0.0651111 0
0.941972 0.0397386 0
-0.653034 0.915003 0
1.65328 0.904589 0
0.770126 0.0881325 0
0.232946 0.0902008 0
0.330582 0.105648 0
0.670612 0.108365 0
0.428707 0.116145 0
1.80993 0.016629 0
-0.810168 0.0172178 0
-0.71 0.0173205 0
1.63047 0.0175504 0
1.70842 0.0169661 0
-0.628824 0.0181787 0
-0.949815 0.0133898 0
1.95 0.0173205 0
1.85542 0.907891 0
-0.85 0.913397 0
1.9833 0.0307692 0
-0.983315 0.0309709 0
-0.750025 0.916468 0
-0.701107 0.836904 0
-0.607741 0.836428 0
-0.656448 0.759827 0
-0.572936 0.758144 0
-0.61411 0.691195 0
-0.539534 0.689068 0
-0.578542 0.626111 0
-0.507461 0.624216 0
-0.544001 0.566638 0
-0.477696 0.564279 0
-0.511582 0.51001 0
-0.451689 0.507147 0
-0.481834 0.457732 0
-0.426137 0.454624 0
-0.453236 0.407539 0
-0.398845 0.406233 0
-0.507958 0.409496 0
-0.368427 0.460177 0
-0.344602 0.405209 0
-0.315696 0.447824 0
-0.294128 0.402169 0
-0.262844 0.444518 0
-0.241968 0.388746 0
-0.209878 0.439557 0
-0.185184 0.391135 0
-0.156687 0.437338 0
-0.133719 0.390776 0
-0.104405 0.434306 0
-0.0818745 0.388334 0
-0.0528785 0.431165 0
-0.0305984 0.385639 0
-0.00180552 0.427863 0
0.0194564 0.382608 0
0.0485809 0.42449 0
0.0701962 0.37973 0
0.0985483 0.421145 0
0.119893 0.377339 0
0.147837 0.417911 0
0.172552 0.36751 0
0.197018 0.412597 0
0.221203 0.37141 0
0.24512 0.409646 0
-0.48178 0.364657 0
-0.531053 0.364782 0
-0.0599102 0.344151 0
-0.324909 0.359566 0
0.266181 0.368462 0
0.292132 0.407649 0
0.311992 0.365779 0
0.338918 0.404821 0
0.357567 0.355909 0
0.384723 0.40053 0
0.404675 0.359681 0
0.430617 0.398558 0
0.450457 0.35827 0
0.474237 0.395182 0
0.496746 0.34898 0
0.520548 0.397931 0
0.542071 0.353121 0
0.566011 0.389914 0
0.585061 0.350856 0
0.609352 0.38696 0
0.629069 0.348168 0
0.655979 0.391217 0
0.67472 0.346182 0
0.699346 0.381414 0
0.719333 0.341965 0
0.743718 0.377547 0
0.764028 0.339036 0
0.788201 0.373582 0
0.807659 0.336101 0
0.832821 0.372249 0
0.852309 0.334017 0
0.877785 0.370339 0
0.897875 0.331141 0
0.922904 0.366281 0
0.943173 0.327335 0
0.968282 0.363358 0
0.989029 0.324222 0
1.01391 0.361511 0
1.03465 0.321428 0
1.05949 0.358447 0
1.08389 0.312052 0
1.10575 0.355104 0
1.12889 0.31562 0
1.15067 0.353235 0
1.17157 0.312819 0
1.19626 0.349369 0
1.21618 0.309863 0
1.2416 0.346914 0
1.26131 0.30715 0
1.28691 0.344312 0
1.30571 0.303752 0
1.33144 0.341222 0
1.35018 0.300911 0
1.3758 0.338308 0
1.39501 0.298931 0
1.42015 0.335235 0
1.43904 0.296349 0
1.46355 0.330194 0
1.48256 0.293347 0
1.50685 0.326967 0
1.52589 0.29055 0
1.54996 0.325305 0
1.56909 0.287929 0
[...]
CELL_DATA 3694
SCALARS rho float
LOOKUP_TABLE default
0.734797
0.670031
0.803689
0.812561
0.826174
0.804964
0.791442
0.799706
0.809571
0.802557
0.816894
0.816888
0.840098
0.789164
0.800513
0.749828
0.803176
0.802799
0.759593
0.849719
0.816867
0.822648
0.696237
0.803269
0.692808
0.838993
0.719781
0.805969
0.836663
0.79834
0.798533
0.718306
0.803355
0.824358
0.802608
0.796977
0.836884
0.822445
0.824454
0.778027
0.804514
0.81714
0.833998
0.824927
0.80494
0.812446
0.800534
0.665015
0.67875
0.719849
0.80194
0.802871
0.846482
0.801904
0.627957
0.837783
0.802427
0.818646
0.832423
0.753667
0.796082
0.814668
0.841767
0.799322
0.842287
0.830486
0.807308
0.813104
0.736446
0.858014
0.803088
0.807439
0.822672
0.803139
0.82408
0.802844
0.813982
0.799393
0.813479
0.802631
0.712975
0.818045
0.802182
0.776629
0.809434
0.799343
0.817991
0.714085
0.736089
0.824748
0.798808
0.802234
0.820153
0.815074
0.674351
0.806367
0.722638
0.817381
0.811896
0.839623
0.814205
0.761938
0.718699
0.809374
0.808873
0.814663
0.81736
0.806866
0.715189
0.813934
0.799101
0.721571
0.720976
0.823157
0.867632
0.802053
0.799366
0.811697
0.803074
0.801955
0.765508
0.822235
0.819328
0.769452
0.704594
0.758131
0.817025
0.776472
0.843257
0.699576
0.766986
0.800177
0.807775
0.777335
0.800645
0.795236
0.805316
0.802287
0.797726
0.814136
0.813358
0.709717
0.816549
0.813191
0.757255
0.667316
0.676544
0.797853
0.815619
0.812937
0.743814
0.802597
0.554126
0.778199
0.684594
0.76286
0.713105
0.783358
0.605705
0.79287
0.837276
0.644055
0.781838
0.736645
0.843818
0.55235
0.817033
0.800141
0.802594
0.672763
0.801474
0.661905
0.857538
0.535122
0.79973
0.632338
0.872159
0.832998
0.820302
0.74501
0.813704
0.721791
0.826592
0.737241
0.647837
0.803033
0.674884
0.823052
0.80157
0.850682
0.791578
0.704423
0.814376
0.798125
0.741612
0.852585
0.811229
0.848565
0.736173
0.742364
0.770672
0.793461
0.831395
0.834009
0.8167
0.81374
0.668409
0.804482
0.726272
0.803124
0.707893
0.797052
0.795502
0.801354
0.825384
0.763153
0.830098
0.749103
0.825325
0.819533
0.815573
0.852831
0.829233
0.702395
0.82674
0.687475
0.78759
0.809666
0.850849
0.829876
0.807915
0.794218
0.744782
0.817256
0.836413
0.817069
0.714409
0.799455
0.694505
0.791891
0.795359
0.809655
0.636808
0.807405
0.75724
0.797677
0.803049
0.758799
0.814811
0.86548
0.784028
0.692346
0.804255
0.801385
0.646451
0.791947
0.777665
0.802289
0.838716
0.814412
0.60746
0.814827
0.809923
0.79652
0.815099
0.80256
0.8152
0.814247
0.835394
0.755802
0.801745
0.834568
0.8102
0.803089
0.795956
0.814588
0.728274
0.586821
0.816516
0.829399
0.820099
0.804093
0.68057
0.815096
0.814827
0.816484
0.712639
0.796945
0.814692
0.538868
0.802756
0.868925
0.677826
0.755815
0.838417
0.826727
0.814425
0.707349
0.809272
0.814687
0.803694
0.801533
0.811955
0.836403
0.817066
0.766946
0.806884
0.802986
0.645879
0.820698
0.827578
0.670959
0.790697
0.818542
0.820663
0.678385
0.683806
0.821119
0.823796
0.809406
0.733432
0.706384
0.713109
0.732071
0.820006
0.776296
0.804038
0.731892
0.742011
0.82222
0.809897
0.818898
0.769538
0.814809
0.813465
0.817027
0.815649
0.802679
0.807408
0.803646
0.692146
0.80265
0.812624
0.694149
0.806921
0.804984
0.819127
0.785634
0.805777
0.791662
0.814571
0.820688
0.819877
0.798003
0.680577
0.710201
0.799285
0.810734
0.621869
0.803762
0.807251
0.817085
0.742825
0.804139
0.816059
0.811218
0.817504
0.804915
0.79717
0.76403
0.80409
0.843293
0.81981
0.707043
0.803505
0.701674
0.704756
0.802947
0.614189
0.770353
0.784605
0.807862
0.813062
0.825023
0.816815
0.812424
0.819887
0.827992
0.802775
0.764178
0.809605
0.658397
0.818947
0.75686
0.727252
0.686982
0.813606
0.853803
0.818974
0.80854
0.821912
0.814987
0.7867
0.757886
0.80928
0.692823
0.79106
0.843343
0.826403
0.800708
0.863842
0.813233
0.816244
0.817243
0.830852
0.628975
0.79839
0.730773
0.797773
0.734971
0.818766
0.808526
0.786994
0.684584
0.814465
0.829829
0.811551
0.802835
0.803679
0.824097
0.803742
0.710408
0.790161
0.80306
0.814416
0.813692
0.812311
0.871466
0.82755
0.809253
0.831858
0.681718
0.823143
0.837392
0.815905
0.62724
0.814964
0.809045
0.845284
0.821088
0.802877
0.591868
0.809958
0.695442
0.805988
0.802845
0.81201
0.813195
0.825042
0.804958
0.811054
0.815737
0.723687
0.862752
0.801863
0.849982
0.816116
0.573582
0.803792
0.796557
0.811281
0.817369
0.648384
0.802774
0.809507
0.812849
0.806989
0.793758
0.815295
0.817025
0.795889
0.803715
0.821176
0.836707
0.729827
0.806157
0.80948
0.812827
0.682098
0.805102
0.815744
0.799122
0.803967
0.521308
0.832701
0.76332
0.814333
0.817449
0.830643
0.846058
0.815844
0.811281
0.715588
0.798806
0.852208
0.808169
0.709685
0.800068
0.802577
0.872055
0.845096
0.818783
0.801965
0.809527
0.755203
0.815108
0.813712
0.584452
0.802548
0.729072
0.750033
0.802991
0.811071
0.780848
0.821136
0.814949
0.83787
0.815701
0.800377
0.80869
0.738553
0.736533
0.804063
0.807797
0.820856
0.802111
0.751602
0.688351
0.813227
0.815042
0.813851
0.594243
0.813344
0.816457
0.824478
0.802956
0.80844
0.819404
0.811699
0.839236
0.80294
0.812534
0.823493
0.815293
0.817556
0.82131
0.688407
0.784046
0.794615
0.803059
0.847431
0.802025
0.802507
0.634851
0.810649
0.813246
0.810624
0.81878
0.805673
0.81279
0.726814
0.843431
0.70748
0.800302
0.817057
0.807123
0.65232
0.682937
0.815201
0.80557
0.804138
0.785165
0.801491
0.829047
0.813247
0.804889
0.802058
0.812011
0.619304
0.812079
0.802945
0.698064
0.815288
0.617132
0.783723
0.815236
0.837619
0.805663
0.812178
0.792194
0.795313
0.803941
0.801395
0.811715
0.810988
0.808717
0.803202
0.75722
0.804008
0.81221
0.811658
0.816005
0.811218
0.815639
0.814618
0.834089
0.737857
0.806559
0.815366
0.802346
0.541962
0.681791
0.811092
0.812951
0.814916
0.780222
0.808179
0.812621
0.80309
0.799837
0.802651
0.819725
0.820555
0.814697
0.784599
0.807914
0.805417
0.546134
0.773729
0.757125
0.806295
0.735353
0.675332
0.797542
0.767378
0.827514
0.814632
0.814396
0.808249
0.539718
0.815428
0.582995
0.695479
0.82444
0.869578
0.741105
0.816315
0.852716
0.694587
0.815112
0.808893
0.814766
0.807179
0.655856
0.854399
0.73724
0.729611
0.80324
0.804518
0.799479
0.833263
0.814893
0.690658
0.81529
0.800235
0.691183
0.839338
0.798091
0.621645
0.772706
0.815407
0.80765
0.814527
0.784308
0.724714
0.769821
0.836839
0.688273
0.815671
0.817093
0.826716
0.765045
0.821831
0.691185
0.804515
0.660225
0.700397
0.800286
0.822583
0.788233
0.814273
0.815102
0.814921
0.813672
0.576698
0.802525
0.81468
0.743086
0.809975
0.815139
0.811495
0.715367
0.692472
0.741049
0.619862
0.807134
0.681203
0.815365
0.801866
0.814707
0.836819
0.686872
0.804281
0.819569
0.832296
0.737455
0.781568
0.764712
0.772836
0.8121
0.564112
0.672055
0.815009
0.805262
0.812078
0.804499
0.712427
0.780079
0.724113
0.7605
0.799576
0.831729
0.81214
0.690955
0.823174
0.817645
0.810651
0.685225
0.692996
0.681152
0.872002
0.815607
0.816377
0.608536
0.711075
0.640933
0.803376
0.800327
0.671421
0.811853
0.824302
0.748791
0.799446
0.729446
0.813868
0.692125
0.814445
0.81037
0.801276
0.803074
0.825378
0.744021
0.815467
0.814688
0.780214
0.552229
0.816178
0.810668
0.757659
0.813553
0.747417
0.802864
0.826252
0.65808
0.817891
0.802693
0.809859
0.582903
0.629236
0.734935
0.806314
0.811832
0.810559
0.82084
0.814651
0.815704
0.704143
0.801904
0.812896
0.826041
0.703187
0.725799
0.811958
0.811669
0.695872
0.814214
0.774241
0.701997
0.811808
0.695635
0.804026
0.662074
0.802873
0.73014
0.666384
0.810916
0.786063
0.743919
0.630728
0.839948
0.820938
0.81467
0.770148
0.813883
0.800064
0.785922
0.799895
0.80164
0.81492
0.731307
0.809621
0.8
0.818536
0.597884
0.80134
0.812691
0.813653
0.811342
0.811904
0.745976
0.802805
0.763928
0.750494
0.818378
0.646019
0.818317
0.817438
0.803072
0.815345
0.816576
0.720195
0.768392
0.821892
0.78514
0.803696
0.815781
0.874956
0.817787
0.798079
0.81656
0.815044
0.793909
0.818247
0.816674
0.773099
0.697643
0.841046
0.79691
0.803164
0.822487
0.780942
0.817606
0.824672
0.818422
0.816632
0.870413
0.803092
0.804835
0.818024
0.803087
0.81515
0.806887
0.735451
0.815074
0.819479
0.753795
0.707947
0.814958
0.843083
0.822238
0.652537
0.82154
0.77353
0.808089
0.801889
0.729401
0.803113
0.798662
0.815397
0.81668
0.693098
0.704147
0.802184
0.787475
0.801557
0.824676
0.722026
0.814682
0.802393
0.800153
0.823241
0.815145
0.712532
0.815396
0.762968
0.802401
0.832443
0.803329
0.773152
0.797793
0.794537
0.814792
0.582778
0.814645
0.694977
0.677451
0.803433
0.819306
0.814695
0.802534
0.814819
0.808244
0.723713
0.787538
0.857002
0.803013
0.833357
0.807348
0.541755
0.762143
0.779609
0.647088
0.737339
0.577901
0.819954
0.812938
0.813762
0.802414
0.766654
0.684317
0.764161
0.752171
0.781941
0.814615
0.844738
0.819144
0.805766
0.819162
0.823579
0.802618
0.807506
0.704422
0.803111
0.756069
0.808606
0.797833
0.751304
0.822165
0.788335
0.803515
0.789582
0.840758
0.7276
0.800859
0.799425
0.804835
0.617006
0.815184
0.815063
0.821654
0.63053
0.814942
0.814944
0.798502
0.803809
0.793138
0.775032
0.806175
0.794392
0.815677
0.75306
0.803606
0.87517
0.762502
0.747634
0.806795
0.783877
0.842429
0.799702
0.779316
0.815216
0.798133
0.792451
0.807986
0.82535
0.835545
0.799672
0.57315
0.820201
0.828042
0.771986
0.830544
0.838048
0.822637
0.826064
0.807195
0.832739
0.826616
0.783626
0.808853
0.811069
0.8061
0.822463
0.803338
0.827205
0.792809
0.803109
0.805642
0.726169
0.807006
0.560359
0.817697
0.825084
0.828399
0.80568
0.817981
0.823668
0.819275
0.820557
0.838603
0.832902
0.787673
0.800313
0.821454
0.815091
0.81667
0.800188
0.806307
0.865429
0.819777
0.847199
0.814801
0.800585
0.824462
0.799639
0.833258
0.813151
0.815083
0.805207
0.725782
0.802859
0.804454
0.81475
0.803265
0.801877
0.821939
0.804434
0.804107
0.777778
0.819587
0.716999
0.813991
0.780023
0.758609
0.803499
0.813156
0.818807
0.714578
0.819053
0.81507
0.826389
0.816803
0.789486
0.81599
0.847097
0.832896
0.814697
0.8116
0.801512
0.743319
0.676773
0.814767
0.82037
0.770576
0.814095
0.807648
0.811487
0.805313
0.798437
0.775986
0.802347
0.799967
0.841265
0.817098
0.811262
0.806137
0.602519
0.730599
0.802079
0.783092
0.80399
0.815397
0.805797
0.815762
0.779644
0.814835
0.804681
0.810364
0.803612
0.817553
0.803142
0.815547
0.810575
0.815531
0.812517
0.716744
0.814175
0.815357
0.596298
0.814596
0.796635
0.802689
0.858614
0.818051
0.810381
0.872354
0.814973
0.815055
0.816529
0.818538
0.814965
0.764016
0.830118
0.801216
0.803068
0.814243
0.814924
0.816409
0.814782
0.813124
0.82267
0.803855
0.812197
0.808918
0.814998
0.81981
0.814803
0.811472
0.818974
0.808774
0.69593
0.658612
0.802528
0.808411
0.803227
0.810971
0.818075
0.816805
0.802791
0.803693
0.800455
0.800712
0.816588
0.844193
0.818237
0.811333
0.818181
0.817858
0.845822
0.81717
0.82088
0.785455
0.815494
0.806655
0.801131
0.79186
0.810476
0.818192
0.814632
0.814837
0.835788
0.805814
0.812329
0.816305
0.821357
0.803393
0.803084
0.805381
0.810547
0.814745
0.801444
0.802754
0.816579
0.822322
0.800679
0.599238
0.804131
0.796628
0.81705
0.798445
0.802644
0.747924
0.840617
0.802607
0.799622
0.834561
0.829477
0.810065
0.825941
0.80034
0.817533
0.817123
0.818386
0.803484
0.817968
0.727438
0.822013
0.81135
0.79997
0.812872
0.820211
0.79897
0.803864
0.78204
0.814986
0.81503
0.815138
0.818175
0.806277
0.816726
0.815424
0.825765
0.821798
0.837434
0.805774
0.694733
0.817609
0.840411
0.819444
0.804449
0.79991
0.803201
0.815931
0.813938
0.815628
0.743472
0.737552
0.800602
0.802824
0.815301
0.816226
0.798407
0.65202
0.707848
0.807866
0.768855
0.815474
0.702617
0.80298
0.727653
0.80313
0.819758
0.803064
0.816957
0.812396
0.798437
0.808416
0.79316
0.829626
0.815167
0.801058
0.803346
0.815494
0.821333
0.748932
0.822378
0.803596
0.782973
0.815041
0.803697
0.810294
0.814217
0.81462
0.835062
0.792404
0.798842
0.814918
0.758586
0.806438
0.814357
0.800858
0.815568
0.840984
0.802095
0.843016
0.808396
0.790069
0.811395
0.802561
0.851721
0.788241
0.803066
0.815613
0.831336
0.808205
0.813285
0.815311
0.802708
0.802596
0.825745
0.782378
0.813846
0.814897
0.643016
0.815101
0.71217
0.817428
0.838005
0.82417
0.803747
0.814108
0.814761
0.725193
0.814303
0.800653
0.801445
0.800701
0.815318
0.863682
0.801082
0.800819
0.785194
0.840402
0.827754
0.819213
0.812806
0.746351
0.80315
0.803275
0.730297
0.799262
0.71386
0.810027
0.800823
0.67576
0.880127
0.701909
0.771964
0.801104
0.742801
0.808196
0.798757
0.802971
0.659677
0.796587
0.783876
0.798808
0.728115
0.818301
0.822085
0.884455
0.809271
0.831067
0.644412
0.799779
0.786535
0.743833
0.750912
0.768569
0.705287
0.802995
0.799134
0.803068
0.763324
0.626392
0.81124
0.61206
0.820755
0.82253
0.811309
0.736359
0.811725
0.795039
0.818722
0.782536
0.806768
0.796982
0.809535
0.716181
0.801312
0.721872
0.801158
0.798599
0.685249
0.803461
0.814667
0.814727
0.803007
0.76082
0.814486
0.731993
0.690164
0.802185
0.814727
0.874302
0.814628
0.813984
0.880474
0.865311
0.830639
0.71764
0.801833
0.811702
0.821096
0.79762
0.680257
0.722209
0.675267
0.802291
0.704223
0.768163
0.799231
0.615554
0.688852
0.835858
0.773209
0.744911
0.830169
0.758796
0.769012
0.632837
0.730932
0.784753
0.819309
0.869383
0.837558
0.815054
0.794261
0.799497
0.715329
0.814912
0.693526
0.796815
0.814709
0.783296
0.762159
0.801315
0.782444
0.802083
0.800582
0.811211
0.810873
0.867008
0.570083
0.53788
0.802271
0.806635
0.697754
0.809802
0.802699
0.837281
0.803375
0.802278
0.56656
0.554535
0.808183
0.811872
0.814828
0.725902
0.803076
0.810147
0.683916
0.810885
0.802601
0.813316
0.803106
0.800211
0.802151
0.813773
0.802863
0.816793
0.803127
0.861923
0.814138
0.802417
0.721032
0.669514
0.814854
0.584662
0.812338
0.809851
0.835618
0.813362
0.802941
0.810552
0.812803
0.812584
0.814462
0.801504
0.853657
0.856296
0.80214
0.654664
0.808016
0.822175
0.799309
0.803084
0.819601
0.733539
0.803179
0.824881
0.820943
0.815156
0.814692
0.766322
0.745267
0.800665
0.833717
0.802687
0.813899
0.804345
0.803552
0.804878
0.813444
0.808678
0.798573
0.80671
0.805869
0.824358
0.806524
0.806126
0.817033
0.806697
0.803313
0.812526
0.802887
0.802751
0.805657
0.807669
0.812668
0.773387
0.805186
0.802619
0.814633
0.799576
0.803632
0.806694
0.831526
0.804892
0.649409
0.800656
0.814853
0.804526
0.814572
0.762767
0.814622
0.750331
0.803556
0.8021
0.803936
0.818732
0.850824
0.804236
0.803193
0.746802
0.829247
0.814611
0.819926
0.824712
0.814326
0.736235
0.817587
0.721644
0.800926
0.827221
0.802293
0.699346
0.825449
0.814313
0.815802
0.823698
0.815016
0.773084
0.816617
0.647785
0.709938
0.814708
0.822172
0.675097
0.818792
0.658229
0.820974
0.806647
0.816113
0.803107
0.805439
0.814448
0.831429
0.8249
0.670852
0.812658
0.841775
0.781279
0.846053
0.800155
0.705258
0.83823
0.819019
0.835253
0.687577
0.682786
0.832566
0.656493
0.830263
0.814718
0.828225
0.806138
0.8265
0.787526
0.82499
0.823592
0.707016
0.865492
0.822392
0.821378
0.823423
0.758908
0.802747
0.523149
0.802816
0.820496
0.813156
0.804595
0.825547
0.814674
0.797911
0.81972
0.802914
0.679606
0.792264
0.833986
0.814032
0.715398
0.798941
0.821387
0.57528
0.814391
0.815221
0.802485
0.809776
0.725741
0.817566
0.802953
0.803388
0.795837
0.793665
0.797764
0.794515
0.803229
0.812016
0.819156
0.813729
0.572024
0.892879
0.705603
0.797756
0.739251
0.791297
0.814647
0.815334
0.815218
0.604008
0.818644
0.817055
0.803797
0.817639
0.836418
0.839288
0.782718
0.79833
0.799369
0.724744
0.752408
0.81489
0.763756
0.815021
0.818707
0.814451
0.813351
0.801872
0.775052
0.811916
0.815752
0.728182
0.810458
0.815531
0.817761
0.807674
0.809339
0.764433
0.814239
0.808061
0.803094
0.807308
0.616083
0.806372
0.804219
0.805797
0.82099
0.845344
0.804588
0.773979
0.805161
0.771398
0.819942
0.805525
0.812381
0.814658
0.849953
0.803313
0.744185
0.819623
0.814888
0.726846
0.800809
0.815893
0.758286
0.812254
0.568755
0.806448
0.685412
0.801108
0.810868
0.812129
0.816882
0.804098
0.815435
0.817392
0.800937
0.80424
0.844187
0.815808
0.796093
0.815865
0.801869
0.801437
0.800196
0.801158
0.80683
0.814262
0.80152
0.769713
0.818092
0.812683
0.808738
0.814668
0.586227
0.803212
0.813533
0.814935
0.787243
0.748019
0.718725
0.812115
0.814504
0.825651
0.789105
0.602525
0.771302
0.639706
0.816395
0.744936
0.811832
0.830031
0.694708
0.799605
0.8336
0.749179
0.800494
0.803088
0.815209
0.802069
0.698577
0.800615
0.548059
0.801683
0.802368
0.802116
0.572711
0.802858
0.803347
0.803094
0.728294
0.737189
0.80334
0.77621
0.815281
0.721896
0.706423
0.81468
0.801231
0.752355
0.853955
0.813476
0.811893
0.669011
0.8027
0.800479
0.800383
0.802397
0.656246
0.803163
0.814941
0.654024
0.685107
0.805666
0.790209
0.814778
0.822933
0.814657
0.814861
0.816093
0.803566
0.814848
0.814594
0.813157
0.82906
0.802392
0.801726
0.810229
0.72658
0.809448
0.814449
0.862611
0.810724
0.637591
0.77438
0.802115
0.775984
0.816347
0.811467
0.829783
0.813925
0.864414
0.801862
0.814223
0.593249
0.815471
0.833613
0.802849
0.813901
0.624489
0.815042
0.802643
0.816305
0.802159
0.817176
0.815599
0.75448
0.80347
0.803081
0.834874
0.861724
0.819459
0.815736
0.724904
0.741218
0.802441
0.802954
0.811888
0.817724
0.799481
0.802785
0.819165
0.806215
0.80742
0.739209
0.802643
0.817169
0.81361
0.768086
0.760307
0.811404
0.796275
0.856814
0.718466
0.834335
0.810659
0.711324
0.799571
0.814079
0.787304
0.800628
0.799565
0.814689
0.77709
0.774308
0.813013
0.69653
0.798599
0.765281
0.81455
0.81692
0.80192
0.787334
0.738189
0.752037
0.773742
0.814265
0.818611
0.805466
0.659394
0.801876
0.795513
0.77766
0.809572
0.812578
0.799424
0.803072
0.633399
0.803915
0.804537
0.851102
0.803617
0.80894
0.833065
0.80521
0.809786
0.852028
0.612359
0.803947
0.815797
0.805295
0.804909
0.805594
0.804481
0.804577
0.8041
0.805676
0.806231
0.724264
0.805565
0.806913
0.806494
0.814763
0.808039
0.818229
0.803052
0.803428
0.814352
0.814529
0.809684
0.803306
0.816057
0.81303
0.809516
0.815682
0.708006
0.813562
0.831263
0.814566
0.854083
0.749459
0.807763
0.814641
0.800748
0.602782
0.803185
0.772114
0.821578
0.626881
0.81522
0.829269
0.814305
0.811575
0.802011
0.826875
0.818937
0.803503
0.76453
0.816736
0.758311
0.546686
0.813969
0.694815
0.694653
0.820225
0.827383
0.827192
0.816334
0.847335
0.572077
0.876559
0.805115
0.825674
0.823996
0.81263
0.681408
0.814504
0.822448
0.816044
0.80095
0.773527
0.822102
0.56519
0.812836
0.842973
0.80305
0.839402
0.821203
0.803232
0.668788
0.84312
0.82014
0.836204
0.800788
0.813541
0.803006
0.833561
0.802747
0.813463
0.831125
0.828971
0.821867
0.824012
0.830644
0.738785
0.660987
0.563933
0.827116
0.825584
0.767107
0.75625
0.806091
0.824146
0.846617
0.590726
0.822856
0.821758
0.820841
0.819301
0.803811
0.820634
0.65757
0.743974
0.820034
0.797337
0.869838
0.889986
0.776223
0.803655
0.669196
0.835334
0.730152
0.718261
0.818988
0.801512
0.783284
0.660597
0.802102
0.81472
0.788719
0.711336
0.800226
0.817015
0.797842
0.676327
0.823275
0.792653
0.815402
0.833043
0.815017
0.795435
0.815849
0.815608
0.785674
0.8039
0.710305
0.840432
0.792923
0.810806
0.781759
0.804292
0.695954
0.800732
0.813356
0.811994
0.810833
0.809308
0.808217
0.807463
0.805837
0.804728
0.806645
0.72476
0.805279
0.801359
0.79578
0.803217
0.844253
0.714778
0.803134
0.775927
0.88383
0.854145
0.797888
0.723109
0.80322
0.797542
0.71877
0.803228
0.801608
0.733895
0.803542
0.789677
0.797246
0.801
0.73711
0.779431
0.804219
0.746929
0.764141
0.76913
0.801321
0.81434
0.808481
0.758333
0.751014
0.799419
0.81336
0.803241
0.792724
0.801023
0.928531
0.860397
0.81744
0.814534
0.723406
0.844149
0.747328
0.825894
0.816304
0.898015
0.814703
0.797097
0.588147
0.814732
0.797211
0.814765
0.797631
0.845382
0.520522
0.832607
0.801458
0.805497
0.804716
0.803671
0.855651
0.80119
0.81708
0.701278
0.663668
0.666348
0.814808
0.502473
0.797621
0.721491
0.841629
0.814564
0.557466
0.801846
0.814208
0.813877
0.718716
0.801613
0.52408
0.797135
0.814942
0.797255
0.802638
0.797494
0.815111
0.833735
0.80322
0.7982
0.815506
0.798464
0.815657
0.813882
0.798747
0.815829
0.813418
0.81603
0.798854
0.816254
0.679211
0.799047
0.816506
0.803007
0.799236
0.81676
0.697456
0.81472
0.798171
0.814675
0.798213
0.809723
0.838134
0.861132
0.80086
0.800318
0.817704
0.815215
0.799962
0.799587
0.863297
0.812014
0.817374
0.810176
0.849724
0.828282
0.816345
0.825513
0.846025
0.814659
0.801444
0.818947
0.811418
0.80187
0.814545