# vtk DataFile Version 1.0
unstructured grid
ascii
DATASET UNSTRUCTURED_GRID
points 3920 float
-1 0 0
-1 1 0
2 0 0
2 1 0
0 0 0
1 0 0
-1 1 0.1
-1 0 0.1
0 0 0.1
1 0 0.1
2 0 0.1
2 1 0.1
-0.98 0 0
-0.96 0 0
-0.94 0 0
-0.92 0 0
-0.9 0 0
-0.88 0 0
-0.86 0 0
-0.84 0 0
-0.82 0 0
-0.8 0 0
-0.78 0 0
-0.76 0 0
-0.74 0 0
-0.72 0 0
-0.7 0 0
-0.68 0 0
-0.66 0 0
-0.64 0 0
-0.62 0 0
-0.6 0 0
-0.58 0 0
-0.56 0 0
-0.54 0 0
-0.52 0 0
-0.5 0 0
-0.48 0 0
-0.46 0 0
-0.44 0 0
-0.42 0 0
-0.4 0 0
-0.38 0 0
-0.36 0 0
-0.34 0 0
-0.32 0 0
-0.3 0 0
-0.28 0 0
-0.26 0 0
-0.24 0 0
-0.22 0 0
-0.2 0 0
-0.18 0 0
-0.16 0 0
-0.14 0 0
-0.12 0 0
-0.1 0 0
-0.08 0 0
-0.06 0 0
-0.04 0 0
-0.02 0 0
1.02 0 0
1.04 0 0
1.06 0 0
1.08 0 0
1.1 0 0
1.12 0 0
1.14 0 0
1.16 0 0
1.18 0 0
1.2 0 0
1.22 0 0
1.24 0 0
1.26 0 0
1.28 0 0
1.3 0 0
1.32 0 0
1.34 0 0
1.36 0 0
1.38 0 0
1.4 0 0
1.42 0 0
1.44 0 0
1.46 0 0
1.48 0 0
1.5 0 0
1.52 0 0
1.54 0 0
1.56 0 0
1.58 0 0
1.6 0 0
1.62 0 0
1.64 0 0
1.66 0 0
1.68 0 0
1.7 0 0
1.72 0 0
1.74 0 0
1.76 0 0
1.78 0 0
1.8 0 0
1.82 0 0
1.84 0 0
1.86 0 0
1.88 0 0
1.9 0 0
1.92 0 0
1.94 0 0
1.96 0 0
1.98 0 0
2 0.0199133 0
2 0.0414128 0
2 0.0646247 0
2 0.0896856 0
2 0.116743 0
2 0.145955 0
2 0.177494 0
2 0.211545 0
2 0.248309 0
2 0.288001 0
2 0.330854 0
2 0.377121 0
2 0.427073 0
2 0.481004 0
2 0.539231 0
2 0.602096 0
2 0.669968 0
2 0.743247 0
2 0.822362 0
2 0.907779 0
1.9 1 0
1.8 1 0
1.7 1 0
1.6 1 0
1.5 1 0
1.4 1 0
1.3 1 0
1.2 1 0
1.1 1 0
1 1 0
0.9 1 0
0.8 1 0
0.7 1 0
0.6 1 0
0.5 1 0
0.4 1 0
0.3 1 0
0.2 1 0
0.1 1 0
3.69793e-12 1 0
-0.1 1 0
-0.2 1 0
-0.3 1 0
-0.4 1 0
-0.5 1 0
-0.6 1 0
-0.7 1 0
-0.8 1 0
-0.9 1 0
-1 0.907779 0
-1 0.822362 0
-1 0.743247 0
-1 0.669968 0
-1 0.602096 0
-1 0.539231 0
-1 0.481004 0
-1 0.427073 0
-1 0.377121 0
-1 0.330854 0
-1 0.288001 0
-1 0.248309 0
-1 0.211545 0
-1 0.177494 0
-1 0.145955 0
-1 0.116743 0
-1 0.0896856 0
-1 0.0646247 0
-1 0.0414128 0
-1 0.0199133 0
0.0182781 0.00745351 0
0.0366672 0.0146286 0
0.0551632 0.0215237 0
0.0737617 0.0281372 0
0.0924585 0.0344675 0
0.111249 0.0405131 0
0.13013 0.0462728 0
0.149095 0.0517451 0
0.168142 0.0569289 0
0.187265 0.0618228 0
0.20646 0.0664258 0
0.225723 0.0707368 0
0.245049 0.0747549 0
0.264434 0.078479 0
0.283873 0.0819084 0
0.303362 0.0850422 0
0.322896 0.0878798 0
0.342472 0.0904204 0
0.362083 0.0926635 0
0.381726 0.0946086 0
0.401397 0.0962552 0
0.42109 0.0976029 0
0.440802 0.0986514 0
0.460527 0.0994006 0
0.480261 0.0998501 0
0.5 0.1 0
0.519739 0.0998501 0
0.539473 0.0994006 0
0.559198 0.0986514 0
0.57891 0.0976029 0
0.598603 0.0962552 0
0.618274 0.0946086 0
0.637917 0.0926635 0
0.657528 0.0904204 0
0.677104 0.0878798 0
0.696638 0.0850422 0
0.716127 0.0819084 0
0.735566 0.078479 0
0.754951 0.0747549 0
0.774277 0.0707368 0
0.79354 0.0664258 0
0.812735 0.0618228 0
0.831858 0.0569289 0
0.850905 0.0517451 0
0.86987 0.0462728 0
0.888751 0.0405131 0
0.907542 0.0344675 0
0.926238 0.0281372 0
0.944837 0.0215237 0
0.963333 0.0146286 0
0.981722 0.00745351 0
-1 0.907779 0.1
-1 0.822362 0.1
-1 0.743247 0.1
-1 0.669968 0.1
-1 0.602096 0.1
-1 0.539231 0.1
-1 0.481004 0.1
-1 0.427073 0.1
-1 0.377121 0.1
-1 0.330854 0.1
-1 0.288001 0.1
-1 0.248309 0.1
-1 0.211545 0.1
-1 0.177494 0.1
-1 0.145955 0.1
-1 0.116743 0.1
-1 0.0896856 0.1
-1 0.0646247 0.1
-1 0.0414128 0.1
-1 0.0199133 0.1
-0.98 0 0.1
-0.96 0 0.1
-0.94 0 0.1
-0.92 0 0.1
-0.9 0 0.1
-0.88 0 0.1
-0.86 0 0.1
-0.84 0 0.1
-0.82 0 0.1
-0.8 0 0.1
-0.78 0 0.1
-0.76 0 0.1
-0.74 0 0.1
-0.72 0 0.1
-0.7 0 0.1
-0.68 0 0.1
-0.66 0 0.1
-0.64 0 0.1
-0.62 0 0.1
-0.6 0 0.1
-0.58 0 0.1
-0.56 0 0.1
-0.54 0 0.1
-0.52 0 0.1
-0.5 0 0.1
-0.48 0 0.1
-0.46 0 0.1
-0.44 0 0.1
-0.42 0 0.1
-0.4 0 0.1
-0.38 0 0.1
-0.36 0 0.1
-0.34 0 0.1
-0.32 0 0.1
-0.3 0 0.1
-0.28 0 0.1
-0.26 0 0.1
-0.24 0 0.1
-0.22 0 0.1
-0.2 0 0.1
-0.18 0 0.1
-0.16 0 0.1
-0.14 0 0.1
-0.12 0 0.1
-0.1 0 0.1
-0.08 0 0.1
-0.06 0 0.1
-0.04 0 0.1
-0.02 0 0.1
0.0182781 0.00745351 0.1
0.0366672 0.0146286 0.1
0.0551632 0.0215237 0.1
0.0737617 0.0281372 0.1
0.0924585 0.0344675 0.1
0.111249 0.0405131 0.1
0.13013 0.0462728 0.1
0.149095 0.0517451 0.1
0.168142 0.0569289 0.1
0.187265 0.0618228 0.1
0.20646 0.0664258 0.1
0.225723 0.0707368 0.1
0.245049 0.0747549 0.1
0.264434 0.078479 0.1
0.283873 0.0819084 0.1
0.303362 0.0850422 0.1
0.322896 0.0878798 0.1
0.342472 0.0904204 0.1
0.362083 0.0926635 0.1
0.381726 0.0946086 0.1
0.401397 0.0962552 0.1
0.42109 0.0976029 0.1
0.440802 0.0986514 0.1
0.460527 0.0994006 0.1
0.480261 0.0998501 0.1
0.5 0.1 0.1
0.519739 0.0998501 0.1
0.539473 0.0994006 0.1
0.559198 0.0986514 0.1
0.57891 0.0976029 0.1
0.598603 0.0962552 0.1
0.618274 0.0946086 0.1
0.637917 0.0926635 0.1
0.657528 0.0904204 0.1
0.677104 0.0878798 0.1
0.696638 0.0850422 0.1
0.716127 0.0819084 0.1
0.735566 0.078479 0.1
0.754951 0.0747549 0.1
0.774277 0.0707368 0.1
0.79354 0.0664258 0.1
0.812735 0.0618228 0.1
0.831858 0.0569289 0.1
0.850905 0.0517451 0.1
0.86987 0.0462728 0.1
0.888751 0.0405131 0.1
0.907542 0.0344675 0.1
0.926238 0.0281372 0.1
0.944837 0.0215237 0.1
0.963333 0.0146286 0.1
0.981722 0.00745351 0.1
1.02 0 0.1
1.04 0 0.1
1.06 0 0.1
1.08 0 0.1
1.1 0 0.1
1.12 0 0.1
1.14 0 0.1
1.16 0 0.1
1.18 0 0.1
1.2 0 0.1
1.22 0 0.1
1.24 0 0.1
1.26 0 0.1
1.28 0 0.1
1.3 0 0.1
1.32 0 0.1
1.34 0 0.1
1.36 0 0.1
1.38 0 0.1
1.4 0 0.1
1.42 0 0.1
1.44 0 0.1
1.46 0 0.1
1.48 0 0.1
1.5 0 0.1
1.52 0 0.1
1.54 0 0.1
1.56 0 0.1
1.58 0 0.1
1.6 0 0.1
1.62 0 0.1
1.64 0 0.1
1.66 0 0.1
1.68 0 0.1
1.7 0 0.1
1.72 0 0.1
1.74 0 0.1
1.76 0 0.1
1.78 0 0.1
1.8 0 0.1
1.82 0 0.1
1.84 0 0.1
1.86 0 0.1
1.88 0 0.1
1.9 0 0.1
1.92 0 0.1
1.94 0 0.1
1.96 0 0.1
1.98 0 0.1
2 0.0199133 0.1
2 0.0414128 0.1
2 0.0646247 0.1
2 0.0896856 0.1
2 0.116743 0.1
2 0.145955 0.1
2 0.177494 0.1
2 0.211545 0.1
2 0.248309 0.1
2 0.288001 0.1
2 0.330854 0.1
2 0.377121 0.1
2 0.427073 0.1
2 0.481004 0.1
2 0.539231 0.1
2 0.602096 0.1
2 0.669968 0.1
2 0.743247 0.1
2 0.822362 0.1
2 0.907779 0.1
1.9 1 0.1
1.8 1 0.1
1.7 1 0.1
1.6 1 0.1
1.5 1 0.1
1.4 1 0.1
1.3 1 0.1
1.2 1 0.1
1.1 1 0.1
1 1 0.1
0.9 1 0.1
0.8 1 0.1
0.7 1 0.1
0.6 1 0.1
0.5 1 0.1
0.4 1 0.1
0.3 1 0.1
0.2 1 0.1
0.1 1 0.1
3.69793e-12 1 0.1
-0.1 1 0.1
-0.2 1 0.1
-0.3 1 0.1
-0.4 1 0.1
-0.5 1 0.1
-0.6 1 0.1
-0.7 1 0.1
-0.8 1 0.1
-0.9 1 0.1
1.08758 0.0158154 0
-0.0898513 0.0203294 0
0.0966181 0.0537636 0
0.90205 0.0548881 0
1.21055 0.0202058 0
-0.209811 0.0159577 0
1.3305 0.0176902 0
-0.33 0.0173205 0
1.45324 0.0148141 0
-0.448654 0.0159854 0
1.56842 0.0191785 0
-0.569936 0.0166364 0
0.193292 0.0805369 0
0.805051 0.0813623 0
0.709096 0.100353 0
0.288591 0.0996656 0
0.390184 0.111848 0
0.61033 0.111742 0
0.488809 0.116278 0
1.67175 0.0169692 0
-0.67 0.0169809 0
-0.955017 0.454039 0
1.95131 0.44569 0
1.74981 0.0168753 0
-0.75 0.0173205 0
-0.968032 0.266538 0
1.96871 0.266267 0
0.978232 0.0305687 0
0.0208675 0.026451 0
-0.150454 0.91842 0
1.13854 0.907437 0
1.45012 0.904365 0
-0.445923 0.908903 0
-0.853423 0.0157019 0
1.84881 0.016319 0
0.853689 0.915652 0
0.153944 0.912184 0
0.545151 0.914125 0
0.549913 0.115152 0
1.51 0.0173205 0
-0.506989 0.01651 0
1.27 0.0173205 0
1.14976 0.0173333 0
-0.268171 0.0206442 0
-0.150501 0.0153244 0
-0.391384 0.0153993 0
1.38886 0.0171544 0
-0.973694 0.161724 0
1.97441 0.162392 0
-0.945221 0.633523 0
1.94544 0.63312 0
1.91008 0.0186068 0
-0.91 0.0169616 0
-0.030664 0.0194327 0
1.03074 0.0165456 0
-0.966065 0.353575 0
1.96128 0.359765 0
1.93879 0.781254 0
-0.937057 0.781882 0
-0.980746 0.080709 0
1.9772 0.0760699 0
0.058735 0.0409372 0
0.355202 0.913001 0
0.86356 0.0661005 0
0.134223 0.0651111 0
0.941972 0.0397386 0
-0.653034 0.915003 0
1.65328 0.904589 0
0.770126 0.0881325 0
0.232946 0.0902008 0
0.330582 0.105648 0
0.670612 0.108365 0
0.428707 0.116145 0
1.80993 0.016629 0
-0.810168 0.0172178 0
-0.71 0.0173205 0
1.63047 0.0175504 0
1.70842 0.0169661 0
-0.628824 0.0181787 0
-0.949815 0.0133898 0
1.95 0.0173205 0
1.85542 0.907891 0
-0.85 0.913397 0
1.9833 0.0307692 0
-0.983315 0.0309709 0
-0.750025 0.916468 0
-0.701107 0.836904 0
-0.607741 0.836428 0
-0.656448 0.759827 0
-0.572936 0.758144 0
-0.61411 0.691195 0
-0.539534 0.689068 0
-0.578542 0.626111 0
-0.507461 0.624216 0
-0.544001 0.566638 0
-0.477696 0.564279 0
-0.511582 0.51001 0
-0.451689 0.507147 0
-0.481834 0.457732 0
-0.426137 0.454624 0
-0.453236 0.407539 0
-0.398845 0.406233 0
-0.507958 0.409496 0
-0.368427 0.460177 0
-0.344602 0.405209 0
-0.315696 0.447824 0
-0.294128 0.402169 0
-0.262844 0.444518 0
-0.241968 0.388746 0
-0.209878 0.439557 0
-0.185184 0.391135 0
-0.156687 0.437338 0
-0.133719 0.390776 0
-0.104405 0.434306 0
-0.0818745 0.388334 0
-0.0528785 0.431165 0
-0.0305984 0.385639 0
-0.00180552 0.427863 0
0.0194564 0.382608 0
0.0485809 0.42449 0
0.0701962 0.37973 0
0.0985483 0.421145 0
0.119893 0.377339 0
0.147837 0.417911 0
0.172552 0.36751 0
0.197018 0.412597 0
0.221203 0.37141 0
0.24512 0.409646 0
-0.48178 0.364657 0
-0.531053 0.364782 0
-0.0599102 0.344151 0
-0.324909 0.359566 0
0.266181 0.368462 0
0.292132 0.407649 0
0.311992 0.365779 0
0.338918 0.404821 0
0.357567 0.355909 0
0.384723 0.40053 0
0.404675 0.359681 0
0.430617 0.398558 0
0.450457 0.35827 0
0.474237 0.395182 0
0.496746 0.34898 0
0.520548 0.397931 0
0.542071 0.353121 0
0.566011 0.389914 0
0.585061 0.350856 0
0.609352 0.38696 0
0.629069 0.348168 0
0.655979 0.391217 0
0.67472 0.346182 0
0.699346 0.381414 0
0.719333 0.341965 0
0.743718 0.377547 0
0.764028 0.339036 0
0.788201 0.373582 0
0.807659 0.336101 0
0.832821 0.372249 0
0.852309 0.334017 0
0.877785 0.370339 0
0.897875 0.331141 0
0.922904 0.366281 0
0.943173 0.327335 0
0.968282 0.363358 0
0.989029 0.324222 0
1.01391 0.361511 0
1.03465 0.321428 0
1.05949 0.358447 0
1.08389 0.312052 0
1.10575 0.355104 0
1.12889 0.31562 0
1.15067 0.353235 0
1.17157 0.312819 0
1.19626 0.349369 0
1.21618 0.309863 0
1.2416 0.346914 0
1.26131 0.30715 0
1.28691 0.344312 0
1.30571 0.303752 0
1.33144 0.341222 0
1.35018 0.300911 0
1.3758 0.338308 0
1.39501 0.298931 0
1.42015 0.335235 0
1.43904 0.296349 0
1.46355 0.330194 0
1.48256 0.293347 0
1.50685 0.326967 0
1.52589 0.29055 0
1.54996 0.325305 0
1.56909 0.287929 0
[...]
CELL_DATA 3694
SCALARS rho float
LOOKUP_TABLE default
0.823532
0.801091
0.81471
0.90255
0.874922
0.822085
0.804599
0.82273
0.887437
0.81845
0.902304
0.902067
0.826124
0.804227
0.822514
0.825617
0.811395
0.819172
0.830117
0.875875
0.874185
0.889968
0.803701
0.814041
0.802978
0.825792
0.797149
0.825381
0.826418
0.806383
0.806005
0.796623
0.818831
0.824958
0.822864
0.861404
0.866244
0.887658
0.874943
0.812735
0.821529
0.82342
0.826183
0.825007
0.816097
0.902554
0.825702
0.790848
0.803599
0.807161
0.811511
0.806101
0.874205
0.813377
0.790981
0.867094
0.822789
0.878131
0.824444
0.831509
0.81044
0.916591
0.879053
0.821539
0.881821
0.881163
0.825285
0.906173
0.804281
0.882716
0.80476
0.819598
0.890058
0.811398
0.88558
0.806237
0.81901
0.812076
0.895983
0.812421
0.798893
0.824175
0.805914
0.812772
0.881773
0.812866
0.877965
0.798842
0.802964
0.868418
0.855807
0.817304
0.824736
0.872043
0.802769
0.822065
0.820752
0.900511
0.896549
0.878655
0.904839
0.831876
0.79815
0.885775
0.880833
0.916455
0.901186
0.82256
0.796732
0.893443
0.810935
0.807346
0.799049
0.86671
0.884877
0.81639
0.857254
0.896237
0.804628
0.815562
0.807198
0.822179
0.884217
0.836929
0.795572
0.803888
0.896124
0.841474
0.871238
0.806462
0.807418
0.815416
0.820154
0.80358
0.825821
0.850012
0.82287
0.806136
0.805742
0.904084
0.894559
0.811578
0.898775
0.905206
0.803825
0.791606
0.803154
0.808834
0.907315
0.822072
0.80302
0.809519
0.781323
0.840918
0.794088
0.832707
0.818094
0.843806
0.785706
0.809314
0.824928
0.793727
0.804001
0.82429
0.881729
0.780224
0.823667
0.821449
0.826219
0.801438
0.805433
0.799434
0.882993
0.780424
0.811444
0.792046
0.830877
0.883326
0.883694
0.806553
0.89232
0.797538
0.886454
0.801326
0.794812
0.808562
0.78591
0.887374
0.810564
0.881883
0.813131
0.794076
0.915371
0.809676
0.801959
0.828344
0.819917
0.873525
0.825364
0.803111
0.805745
0.84886
0.884297
0.824371
0.820834
0.904449
0.800009
0.821462
0.816973
0.80877
0.800255
0.849515
0.804768
0.812727
0.887155
0.832636
0.884512
0.829637
0.887543
0.879535
0.907663
0.828266
0.824137
0.803191
0.886122
0.788293
0.808515
0.873441
0.881378
0.880853
0.883264
0.817412
0.803182
0.901662
0.879389
0.901873
0.813193
0.859045
0.794474
0.851017
0.804924
0.879134
0.792193
0.825083
0.830106
0.814715
0.80455
0.833063
0.912183
0.82996
0.813953
0.792944
0.81576
0.825663
0.794444
0.856018
0.803589
0.805452
0.867571
0.913484
0.786295
0.910517
0.819552
0.860892
0.909491
0.808882
0.82053
0.864547
0.825039
0.831588
0.805221
0.883197
0.824734
0.805091
0.809723
0.916231
0.802164
0.781103
0.897922
0.823348
0.891072
0.819217
0.798711
0.909459
0.909981
0.875675
0.799813
0.849392
0.916202
0.781721
0.805521
0.879552
0.787053
0.828141
0.8796
0.869704
0.915364
0.794714
0.819229
0.91652
0.819076
0.819334
0.818043
0.866501
0.824168
0.805283
0.818424
0.807246
0.793955
0.893065
0.885547
0.80096
0.850419
0.897845
0.821798
0.803668
0.784824
0.892243
0.885369
0.822959
0.801885
0.811724
0.814135
0.803874
0.891916
0.841149
0.819761
0.804862
0.805978
0.887195
0.881028
0.824563
0.837428
0.912093
0.904831
0.901178
0.897387
0.80961
0.825009
0.826175
0.791902
0.804188
0.823632
0.797911
0.825101
0.820908
0.896397
0.804124
0.816868
0.809484
0.915431
0.89313
0.894596
0.811887
0.798078
0.800777
0.810587
0.819435
0.790311
0.818526
0.824958
0.823399
0.802141
0.815031
0.895141
0.895644
0.899661
0.821177
0.809722
0.833367
0.825894
0.881063
0.824494
0.795737
0.824246
0.807149
0.796126
0.817371
0.786211
0.805359
0.809197
0.818732
0.90823
0.876636
0.895816
0.863556
0.894681
0.882758
0.807147
0.833727
0.817973
0.797276
0.89306
0.83155
0.817324
0.794781
0.905155
0.873743
0.892903
0.824724
0.821986
0.910172
0.807885
0.830323
0.886922
0.809753
0.804663
0.875329
0.822583
0.809898
0.884183
0.821574
0.884794
0.901636
0.824154
0.79223
0.858694
0.804801
0.806293
0.801041
0.870434
0.818353
0.845728
0.787143
0.912697
0.824356
0.897423
0.816268
0.814842
0.886462
0.818495
0.799391
0.81241
0.804965
0.911574
0.889279
0.891192
0.884246
0.885546
0.822856
0.883687
0.804818
0.889281
0.882326
0.902843
0.789073
0.910543
0.824352
0.882033
0.892132
0.808678
0.782403
0.824176
0.806503
0.820062
0.805982
0.824829
0.908365
0.823925
0.820405
0.818516
0.898352
0.804125
0.883624
0.806125
0.881716
0.896382
0.782074
0.817917
0.810944
0.89434
0.900559
0.791791
0.807335
0.823019
0.823595
0.820846
0.804592
0.908444
0.8971
0.859224
0.825928
0.889342
0.867385
0.806056
0.820777
0.82476
0.893075
0.804218
0.824785
0.88432
0.811098
0.824088
0.780475
0.88343
0.832841
0.91455
0.899479
0.881985
0.876509
0.894703
0.89726
0.799341
0.811734
0.872516
0.883802
0.81585
0.810891
0.805509
0.884442
0.881233
0.896877
0.804848
0.817762
0.83155
0.90562
0.82412
0.780582
0.818904
0.811885
0.803632
0.822442
0.895388
0.810826
0.822648
0.908207
0.826497
0.888233
0.811191
0.87277
0.80349
0.822805
0.81951
0.878354
0.879669
0.821743
0.803979
0.805096
0.90726
0.824621
0.819622
0.782151
0.905617
0.868184
0.887972
0.817153
0.868111
0.885708
0.818396
0.881683
0.809721
0.820676
0.877139
0.908305
0.86503
0.867771
0.803567
0.80942
0.849124
0.815834
0.881528
0.805614
0.854522
0.79078
0.860592
0.896658
0.824046
0.897265
0.821578
0.904975
0.822646
0.88164
0.796287
0.815791
0.902047
0.821115
0.792692
0.786633
0.824199
0.820972
0.824725
0.846766
0.805236
0.882637
0.888771
0.822324
0.819315
0.890789
0.786948
0.897633
0.823502
0.79852
0.887459
0.789904
0.84797
0.899854
0.868027
0.877009
0.901834
0.856219
0.850788
0.824777
0.80545
0.897684
0.82383
0.88595
0.808753
0.809398
0.815803
0.902974
0.900422
0.870628
0.897152
0.904486
0.911634
0.866261
0.803891
0.824952
0.904194
0.822488
0.776739
0.800342
0.824773
0.906037
0.907926
0.810266
0.824877
0.824867
0.823646
0.810297
0.821512
0.86841
0.871348
0.911053
0.84644
0.869255
0.876951
0.782695
0.803256
0.802777
0.855888
0.825637
0.79825
0.805048
0.805766
0.882251
0.916335
0.911354
0.81699
0.77572
0.823946
0.779911
0.799568
0.887937
0.879255
0.820049
0.896709
0.881554
0.808884
0.899268
0.817122
0.823663
0.819116
0.797151
0.882554
0.80088
0.811868
0.814357
0.819809
0.806279
0.82485
0.911
0.807257
0.86373
0.805067
0.798833
0.881766
0.810302
0.788455
0.803715
0.904437
0.880675
0.909872
0.81232
0.804335
0.836826
0.825355
0.806628
0.906785
0.878964
0.886254
0.835755
0.891313
0.805131
0.820419
0.798243
0.811346
0.851074
0.824808
0.852201
0.914572
0.906803
0.909563
0.910756
0.780755
0.803763
0.917422
0.82816
0.819628
0.906021
0.898702
0.79696
0.789863
0.827914
0.788907
0.819616
0.803612
0.908266
0.80414
0.911268
0.825277
0.789182
0.855528
0.881266
0.865234
0.817398
0.84319
0.811209
0.840054
0.880628
0.783419
0.784929
0.909758
0.821807
0.879057
0.820717
0.811529
0.842429
0.800731
0.80928
0.818607
0.883449
0.823885
0.81045
0.889312
0.867256
0.893401
0.800958
0.790765
0.803681
0.885823
0.905302
0.887645
0.786
0.814752
0.792961
0.824133
0.805443
0.801423
0.824146
0.861794
0.824289
0.822448
0.800548
0.90262
0.80877
0.914349
0.817818
0.860866
0.806263
0.862141
0.827321
0.907999
0.914786
0.807279
0.781763
0.824259
0.890618
0.802772
0.91056
0.806155
0.824467
0.871725
0.792029
0.89903
0.803241
0.819156
0.782132
0.786132
0.822491
0.822343
0.891975
0.891816
0.890341
0.823951
0.90314
0.812887
0.803738
0.890119
0.884053
0.811934
0.809589
0.899246
0.86465
0.808311
0.8207
0.839807
0.792881
0.820293
0.809282
0.865161
0.798909
0.805216
0.800989
0.799483
0.889493
0.808831
0.825651
0.789984
0.875161
0.821647
0.888617
0.838204
0.91191
0.806921
0.845043
0.813293
0.812083
0.885386
0.814126
0.818577
0.811426
0.89779
0.783533
0.821709
0.886836
0.886098
0.888536
0.887553
0.802428
0.855786
0.80538
0.802896
0.893715
0.794036
0.892105
0.892552
0.805624
0.89098
0.892885
0.801344
0.810616
0.888782
0.844928
0.815088
0.893197
0.882129
0.884251
0.86366
0.903654
0.909347
0.805122
0.898422
0.881761
0.803517
0.801359
0.881541
0.814846
0.80617
0.824069
0.842446
0.898517
0.822482
0.897551
0.902681
0.885157
0.806064
0.825023
0.898097
0.80611
0.904648
0.820244
0.801835
0.903286
0.895314
0.808006
0.80178
0.901722
0.827205
0.823399
0.793162
0.891736
0.805654
0.882683
0.821272
0.819993
0.805199
0.808666
0.823822
0.886264
0.793754
0.806254
0.818818
0.812133
0.824556
0.862305
0.798898
0.914032
0.820609
0.821761
0.860708
0.9091
0.810147
0.903192
0.804277
0.8128
0.823978
0.817594
0.839058
0.816715
0.816269
0.908349
0.784393
0.916888
0.790695
0.794642
0.817395
0.89603
0.914682
0.81445
0.909242
0.860551
0.815214
0.815963
0.882606
0.805855
0.866906
0.817497
0.780401
0.809256
0.844167
0.795881
0.820819
0.781605
0.859694
0.90724
0.868362
0.805224
0.806933
0.804951
0.833675
0.808675
0.806866
0.916692
0.826431
0.896207
0.819314
0.821183
0.861009
0.821605
0.824984
0.796771
0.820485
0.833324
0.821335
0.808181
0.827207
0.870686
0.807817
0.819387
0.852873
0.87328
0.799229
0.811867
0.817426
0.819651
0.785584
0.908642
0.908819
0.824841
0.791332
0.909031
0.907192
0.809116
0.818226
0.80867
0.839951
0.825345
0.855431
0.906876
0.806983
0.866821
0.882936
0.802869
0.82614
0.870156
0.811807
0.881901
0.861256
0.844222
0.878998
0.809154
0.81
0.81863
0.88748
0.882622
0.809736
0.780013
0.889748
0.881112
0.808117
0.884024
0.876361
0.885904
0.882671
0.818035
0.878607
0.886063
0.810903
0.824681
0.893944
0.873869
0.889886
0.814938
0.823049
0.813101
0.825932
0.815428
0.8178
0.816687
0.77926
0.897176
0.88727
0.884976
0.825704
0.824013
0.888461
0.823672
0.892887
0.881832
0.88314
0.849365
0.804828
0.891259
0.897846
0.901553
0.814806
0.819084
0.882986
0.894396
0.881703
0.900001
0.813362
0.823373
0.814575
0.824317
0.893371
0.882237
0.819855
0.801047
0.814616
0.819701
0.907326
0.813962
0.851871
0.823238
0.819369
0.81908
0.807135
0.823121
0.797518
0.824491
0.844559
0.803785
0.816856
0.823338
0.821038
0.811939
0.896006
0.823207
0.82335
0.894681
0.846638
0.90528
0.826799
0.825721
0.867236
0.823701
0.812225
0.823708
0.800893
0.912673
0.822248
0.837117
0.89088
0.824227
0.891497
0.824693
0.810602
0.807689
0.805386
0.809831
0.876852
0.900115
0.824314
0.815968
0.786338
0.800839
0.812991
0.844698
0.824006
0.895552
0.824378
0.906337
0.806789
0.911556
0.824533
0.891466
0.823505
0.895338
0.804246
0.907111
0.888933
0.899471
0.889621
0.813603
0.888027
0.907853
0.78312
0.911494
0.810209
0.824359
0.882378
0.885796
0.890079
0.883766
0.902865
0.904277
0.903448
0.896284
0.890384
0.805321
0.82352
0.821471
0.816158
0.884799
0.906074
0.904388
0.909033
0.885599
0.824633
0.815309
0.886181
0.824262
0.82422
0.823676
0.909865
0.887042
0.891349
0.817788
0.791649
0.797275
0.813979
0.824913
0.817088
0.888086
0.89177
0.890036
0.81402
0.825922
0.816338
0.81123
0.894278
0.87365
0.89836
0.824527
0.893366
0.898953
0.827424
0.892083
0.824214
0.808389
0.892651
0.819617
0.825462
0.808713
0.879354
0.895003
0.909276
0.901261
0.824532
0.86952
0.901782
0.892375
0.824061
0.817042
0.82026
0.820365
0.893165
0.908093
0.811637
0.86428
0.902422
0.823868
0.817767
0.783596
0.81925
0.85004
0.824056
0.814485
0.811981
0.829979
0.881917
0.813395
0.809031
0.883102
0.884696
0.82384
0.88681
0.812632
0.898236
0.883572
0.897426
0.816738
0.897881
0.807735
0.890645
0.818705
0.814287
0.824196
0.893782
0.811219
0.819876
0.843922
0.823723
0.909288
0.909034
0.896886
0.821437
0.90322
0.905318
0.873455
0.823223
0.881947
0.824847
0.810294
0.894173
0.870224
0.89524
0.824479
0.806416
0.822752
0.88109
0.823873
0.902701
0.802443
0.817366
0.817248
0.813502
0.902777
0.890772
0.864078
0.796008
0.813901
0.820899
0.811449
0.907601
0.794332
0.806129
0.820891
0.804175
0.824156
0.805287
0.900978
0.896713
0.805016
0.824506
0.853084
0.823221
0.908499
0.81915
0.821323
0.897075
0.88787
0.827307
0.873543
0.818663
0.813917
0.908689
0.820224
0.82443
0.913793
0.908557
0.878635
0.852747
0.804194
0.908867
0.833556
0.825154
0.91349
0.810559
0.901259
0.825531
0.820068
0.877624
0.859223
0.846337
0.898821
0.805239
0.827606
0.812528
0.808968
0.907292
0.883789
0.822215
0.903426
0.905717
0.815529
0.809089
0.824016
0.843747
0.90468
0.906906
0.793258
0.906914
0.8161
0.82332
0.877672
0.884259
0.819079
0.909611
0.911036
0.818858
0.912679
0.823486
0.804739
0.814395
0.9017
0.883211
0.812995
0.818506
0.80409
0.881877
0.82376
0.891646
0.894611
0.827931
0.860293
0.804852
0.821609
0.821943
0.815494
0.890881
0.805049
0.802709
0.885459
0.813074
0.812458
0.825819
0.823747
0.822002
0.810037
0.805649
0.798224
0.805193
0.808732
0.81448
0.809597
0.895491
0.890714
0.886003
0.822247
0.825685
0.793882
0.819284
0.844942
0.821009
0.802931
0.836185
0.809067
0.812722
0.815989
0.8131
0.802839
0.789786
0.823865
0.787067
0.877087
0.861292
0.820723
0.800731
0.860178
0.859737
0.883432
0.803924
0.880276
0.804817
0.888678
0.816889
0.814619
0.817091
0.813605
0.807738
0.80289
0.823317
0.914026
0.913303
0.807392
0.834304
0.909759
0.800902
0.807187
0.808933
0.913955
0.885973
0.914777
0.903741
0.883928
0.878199
0.865713
0.797139
0.814117
0.821542
0.824686
0.856274
0.802907
0.819255
0.798945
0.805297
0.793302
0.802978
0.806641
0.789898
0.789691
0.869501
0.838603
0.825909
0.879772
0.832016
0.810258
0.786835
0.820385
0.844565
0.873463
0.880787
0.87192
0.90797
0.85015
0.807606
0.814587
0.910613
0.808026
0.816178
0.915355
0.813288
0.834399
0.855082
0.843139
0.812039
0.809632
0.892676
0.817808
0.881743
0.784081
0.779162
0.81219
0.859726
0.809181
0.824618
0.810737
0.873901
0.813323
0.803916
0.780927
0.78254
0.818513
0.894812
0.911562
0.806049
0.805125
0.863879
0.804633
0.895161
0.806569
0.909398
0.803619
0.850902
0.80368
0.911755
0.802612
0.820344
0.815586
0.881801
0.913748
0.803919
0.799667
0.800501
0.905714
0.783291
0.867641
0.824595
0.875183
0.891957
0.814121
0.819832
0.907204
0.897232
0.916242
0.803805
0.828088
0.881727
0.823719
0.797274
0.874423
0.821448
0.804988
0.807127
0.876606
0.814627
0.804231
0.87088
0.874346
0.895076
0.907037
0.837227
0.804833
0.822711
0.876673
0.825533
0.871436
0.826014
0.825818
0.825896
0.909535
0.825042
0.813969
0.817266
0.825895
0.824634
0.817535
0.818332
0.89986
0.825717
0.804582
0.90618
0.805674
0.803153
0.818455
0.825418
0.906244
0.803424
0.818822
0.806977
0.918335
0.804156
0.816119
0.816831
0.877913
0.818833
0.795201
0.806671
0.897363
0.818935
0.82008
0.803959
0.899509
0.802705
0.81424
0.803827
0.817475
0.823886
0.881202
0.818358
0.804588
0.804932
0.879232
0.914766
0.889378
0.822139
0.881568
0.801878
0.896821
0.801646
0.811857
0.88061
0.807287
0.7979
0.88217
0.874941
0.906675
0.883877
0.909776
0.805213
0.901336
0.794343
0.802273
0.914972
0.885547
0.797079
0.896987
0.799027
0.88745
0.825428
0.904705
0.805178
0.825886
0.878358
0.825605
0.822722
0.784232
0.905026
0.881619
0.806337
0.881352
0.80523
0.803973
0.881808
0.895886
0.882484
0.800115
0.79689
0.883026
0.79439
0.883818
0.913348
0.884735
0.816086
0.885918
0.807216
0.887147
0.888378
0.806966
0.883977
0.889746
0.891146
0.822819
0.832146
0.808941
0.779111
0.86646
0.892744
0.903098
0.814826
0.884943
0.919179
0.804195
0.894264
0.807085
0.795424
0.807902
0.825646
0.909319
0.810995
0.860985
0.822997
0.783264
0.908657
0.908824
0.81468
0.820416
0.815775
0.871445
0.806027
0.812075
0.808399
0.855123
0.813737
0.816382
0.804823
0.904216
0.822704
0.902243
0.778986
0.889691
0.797124
0.808504
0.821423
0.812364
0.918012
0.907698
0.908866
0.784764
0.886426
0.82267
0.822441
0.880819
0.826164
0.826465
0.810432
0.805161
0.809031
0.809519
0.827485
0.911098
0.835729
0.822844
0.894998
0.908882
0.823183
0.805244
0.83991
0.823735
0.906148
0.799412
0.823969
0.906966
0.899781
0.824963
0.824306
0.833725
0.912795
0.824128
0.809016
0.824512
0.788124
0.824276
0.823256
0.824466
0.889053
0.827167
0.823719
0.839975
0.824206
0.80772
0.89087
0.873648
0.905168
0.918683
0.827495
0.812828
0.802435
0.82354
0.911294
0.819398
0.823237
0.90606
0.804997
0.90516
0.778902
0.824631
0.806279
0.823927
0.855443
0.895191
0.903147
0.819865
0.87608
0.893837
0.815978
0.825967
0.827379
0.904255
0.808933
0.890095
0.825823
0.825567
0.80789
0.817434
0.868403
0.910906
0.818883
0.836835
0.896572
0.856482
0.819502
0.918484
0.781641
0.814905
0.820455
0.910152
0.84917
0.826302
0.798431
0.90412
0.916276
0.883716
0.852674
0.783638
0.838294
0.793655
0.904606
0.805927
0.903462
0.825608
0.800658
0.808181
0.880244
0.824284
0.809159
0.807351
0.901159
0.853426
0.809913
0.810178
0.779983
0.820573
0.812848
0.810348
0.783198
0.806862
0.814933
0.812212
0.822208
0.824506
0.812744
0.840737
0.908616
0.81853
0.812773
0.909491
0.811395
0.830603
0.873943
0.908532
0.903193
0.800865
0.812802
0.805676
0.808532
0.804095
0.79634
0.815895
0.909649
0.796532
0.805552
0.816079
0.846917
0.912086
0.862268
0.903026
0.904774
0.901928
0.814394
0.911043
0.901885
0.857395
0.825078
0.823896
0.813378
0.824277
0.807678
0.820614
0.901476
0.877889
0.858022
0.792458
0.840257
0.811066
0.807446
0.902913
0.893065
0.866392
0.82454
0.880012
0.824958
0.902237
0.782863
0.823949
0.869537
0.803836
0.911092
0.789116
0.89353
0.806387
0.902816
0.80445
0.898849
0.904057
0.806943
0.814821
0.803796
0.871887
0.880862
0.823885
0.907042
0.798795
0.82005
0.806051
0.814503
0.824294
0.895712
0.805511
0.812934
0.890109
0.871798
0.822066
0.802865
0.807437
0.890653
0.882729
0.802994
0.808184
0.883848
0.81462
0.880879
0.817565
0.873616
0.884817
0.795444
0.811868
0.901873
0.814074
0.804361
0.816595
0.906165
0.84096
0.811327
0.90387
0.791636
0.804117
0.834903
0.907512
0.902911
0.815007
0.84654
0.823183
0.828961
0.841083
0.90929
0.896531
0.87143
0.788606
0.85658
0.851754
0.810178
0.818968
0.901468
0.811556
0.825536
0.792505
0.825841
0.825929
0.882142
0.81622
0.824614
0.875222
0.825764
0.88646
0.880937
0.788556
0.817537
0.906595
0.817778
0.817867
0.817315
0.818502
0.81807
0.817942
0.816674
0.825831
0.817688
0.816354
0.825402
0.861027
0.895908
0.825228
0.87474
0.804009
0.813639
0.900247
0.898141
0.888972
0.804848
0.82007
0.824498
0.865019
0.901711
0.812047
0.903001
0.876669
0.908324
0.882611
0.831205
0.876565
0.915428
0.825096
0.786096
0.810809
0.841026
0.891606
0.787854
0.908014
0.878003
0.910023
0.86885
0.810476
0.823831
0.864628
0.821722
0.837555
0.900463
0.805218
0.77753
0.91278
0.792347
0.807587
0.821019
0.87948
0.883689
0.901933
0.880834
0.784071
0.831816
0.815781
0.880989
0.882651
0.894857
0.803338
0.912732
0.884365
0.904173
0.825344
0.812432
0.821876
0.780035
0.872404
0.881069
0.812474
0.8814
0.886176
0.80484
0.799673
0.827246
0.888111
0.881821
0.81497
0.876195
0.803462
0.882572
0.812408
0.879403
0.883223
0.884061
0.822178
0.888607
0.825256
0.804386
0.797511
0.782846
0.885125
0.8864
0.804323
0.803268
0.875886
0.887616
0.826869
0.784386
0.888894
0.890286
0.891759
0.89497
0.81479
0.8225
0.79568
0.80238
0.893396
0.811282
0.831306
0.890235
0.805409
0.868935
0.80086
0.825839
0.802028
0.802402
0.822656
0.814182
0.806327
0.795136
0.805046
0.910296
0.807045
0.80365
0.86357
0.822368
0.813011
0.795784
0.863397
0.812645
0.907258
0.881001
0.822256
0.857735
0.905592
0.906439
0.810958
0.822606
0.806107
0.82667
0.80751
0.883139
0.804196
0.8233
0.796766
0.804231
0.822762
0.823005
0.823942
0.823791
0.823672
0.824316
0.824034
0.823749
0.824187
0.805852
0.824086
0.804127
0.807824
0.815324
0.826733
0.8095
0.809185
0.808698
0.884912
0.82857
0.808187
0.813798
0.82495
0.815523
0.798615
0.815471
0.820531
0.818803
0.814399
0.85191
0.810575
0.816481
0.801152
0.84308
0.863832
0.824638
0.806127
0.836589
0.818013
0.903289
0.822455
0.830541
0.803658
0.808479
0.9075
0.810435
0.85144
0.804923
0.899837
0.87663
0.886681
0.91704
0.79992
0.878786
0.831136
0.824911
0.859033
0.891146
0.915805
0.806419
0.781369
0.914546
0.807652
0.913408
0.809231
0.870946
0.777706
0.879652
0.809779
0.825041
0.816114
0.82466
0.829061
0.809971
0.898519
0.814348
0.781354
0.801281
0.912426
0.775082
0.807414
0.815979
0.870006
0.821667
0.775289
0.852323
0.909094
0.909609
0.818414
0.820138
0.773031
0.813108
0.910802
0.814475
0.812431
0.815866
0.90952
0.865348
0.804719
0.819537
0.907981
0.820614
0.9074
0.82408
0.821642
0.906761
0.902618
0.906102
0.823061
0.905388
0.804316
0.823701
0.904572
0.806412
0.824232
0.903677
0.807475
0.912709
0.804935
0.917539
0.818481
0.88494
0.826662
0.883818
0.807345
0.825571
0.900533
0.824154
0.825227
0.824771
0.829856
0.858701
0.901709
0.885773
0.876987
0.885239
0.897716
0.825187
0.882089
0.913326
0.826167
0.896912
0.855367
0.826251
0.910463
0.820323
0.857223
0.815287