# vtk DataFile Version 1.0
unstructured grid
ascii
DATASET UNSTRUCTURED_GRID
points 3920 float
-1 0 0
-1 1 0
2 0 0
2 1 0
0 0 0
1 0 0
-1 1 0.1
-1 0 0.1
0 0 0.1
1 0 0.1
2 0 0.1
2 1 0.1
-0.98 0 0
-0.96 0 0
-0.94 0 0
-0.92 0 0
-0.9 0 0
-0.88 0 0
-0.86 0 0
-0.84 0 0
-0.82 0 0
-0.8 0 0
-0.78 0 0
-0.76 0 0
-0.74 0 0
-0.72 0 0
-0.7 0 0
-0.68 0 0
-0.66 0 0
-0.64 0 0
-0.62 0 0
-0.6 0 0
-0.58 0 0
-0.56 0 0
-0.54 0 0
-0.52 0 0
-0.5 0 0
-0.48 0 0
-0.46 0 0
-0.44 0 0
-0.42 0 0
-0.4 0 0
-0.38 0 0
-0.36 0 0
-0.34 0 0
-0.32 0 0
-0.3 0 0
-0.28 0 0
-0.26 0 0
-0.24 0 0
-0.22 0 0
-0.2 0 0
-0.18 0 0
-0.16 0 0
-0.14 0 0
-0.12 0 0
-0.1 0 0
-0.08 0 0
-0.06 0 0
-0.04 0 0
-0.02 0 0
1.02 0 0
1.04 0 0
1.06 0 0
1.08 0 0
1.1 0 0
1.12 0 0
1.14 0 0
1.16 0 0
1.18 0 0
1.2 0 0
1.22 0 0
1.24 0 0
1.26 0 0
1.28 0 0
1.3 0 0
1.32 0 0
1.34 0 0
1.36 0 0
1.38 0 0
1.4 0 0
1.42 0 0
1.44 0 0
1.46 0 0
1.48 0 0
1.5 0 0
1.52 0 0
1.54 0 0
1.56 0 0
1.58 0 0
1.6 0 0
1.62 0 0
1.64 0 0
1.66 0 0
1.68 0 0
1.7 0 0
1.72 0 0
1.74 0 0
1.76 0 0
1.78 0 0
1.8 0 0
1.82 0 0
1.84 0 0
1.86 0 0
1.88 0 0
1.9 0 0
1.92 0 0
1.94 0 0
1.96 0 0
1.98 0 0
2 0.0199133 0
2 0.0414128 0
2 0.0646247 0
2 0.0896856 0
2 0.116743 0
2 0.145955 0
2 0.177494 0
2 0.211545 0
2 0.248309 0
2 0.288001 0
2 0.330854 0
2 0.377121 0
2 0.427073 0
2 0.481004 0
2 0.539231 0
2 0.602096 0
2 0.669968 0
2 0.743247 0
2 0.822362 0
2 0.907779 0
1.9 1 0
1.8 1 0
1.7 1 0
1.6 1 0
1.5 1 0
1.4 1 0
1.3 1 0
1.2 1 0
1.1 1 0
1 1 0
0.9 1 0
0.8 1 0
0.7 1 0
0.6 1 0
0.5 1 0
0.4 1 0
0.3 1 0
0.2 1 0
0.1 1 0
3.69793e-12 1 0
-0.1 1 0
-0.2 1 0
-0.3 1 0
-0.4 1 0
-0.5 1 0
-0.6 1 0
-0.7 1 0
-0.8 1 0
-0.9 1 0
-1 0.907779 0
-1 0.822362 0
-1 0.743247 0
-1 0.669968 0
-1 0.602096 0
-1 0.539231 0
-1 0.481004 0
-1 0.427073 0
-1 0.377121 0
-1 0.330854 0
-1 0.288001 0
-1 0.248309 0
-1 0.211545 0
-1 0.177494 0
-1 0.145955 0
-1 0.116743 0
-1 0.0896856 0
-1 0.0646247 0
-1 0.0414128 0
-1 0.0199133 0
0.0182781 0.00745351 0
0.0366672 0.0146286 0
0.0551632 0.0215237 0
0.0737617 0.0281372 0
0.0924585 0.0344675 0
0.111249 0.0405131 0
0.13013 0.0462728 0
0.149095 0.0517451 0
0.168142 0.0569289 0
0.187265 0.0618228 0
0.20646 0.0664258 0
0.225723 0.0707368 0
0.245049 0.0747549 0
0.264434 0.078479 0
0.283873 0.0819084 0
0.303362 0.0850422 0
0.322896 0.0878798 0
0.342472 0.0904204 0
0.362083 0.0926635 0
0.381726 0.0946086 0
0.401397 0.0962552 0
0.42109 0.0976029 0
0.440802 0.0986514 0
0.460527 0.0994006 0
0.480261 0.0998501 0
0.5 0.1 0
0.519739 0.0998501 0
0.539473 0.0994006 0
0.559198 0.0986514 0
0.57891 0.0976029 0
0.598603 0.0962552 0
0.618274 0.0946086 0
0.637917 0.0926635 0
0.657528 0.0904204 0
0.677104 0.0878798 0
0.696638 0.0850422 0
0.716127 0.0819084 0
0.735566 0.078479 0
0.754951 0.0747549 0
0.774277 0.0707368 0
0.79354 0.0664258 0
0.812735 0.0618228 0
0.831858 0.0569289 0
0.850905 0.0517451 0
0.86987 0.0462728 0
0.888751 0.0405131 0
0.907542 0.0344675 0
0.926238 0.0281372 0
0.944837 0.0215237 0
0.963333 0.0146286 0
0.981722 0.00745351 0
-1 0.907779 0.1
-1 0.822362 0.1
-1 0.743247 0.1
-1 0.669968 0.1
-1 0.602096 0.1
-1 0.539231 0.1
-1 0.481004 0.1
-1 0.427073 0.1
-1 0.377121 0.1
-1 0.330854 0.1
-1 0.288001 0.1
-1 0.248309 0.1
-1 0.211545 0.1
-1 0.177494 0.1
-1 0.145955 0.1
-1 0.116743 0.1
-1 0.0896856 0.1
-1 0.0646247 0.1
-1 0.0414128 0.1
-1 0.0199133 0.1
-0.98 0 0.1
-0.96 0 0.1
-0.94 0 0.1
-0.92 0 0.1
-0.9 0 0.1
-0.88 0 0.1
-0.86 0 0.1
-0.84 0 0.1
-0.82 0 0.1
-0.8 0 0.1
-0.78 0 0.1
-0.76 0 0.1
-0.74 0 0.1
-0.72 0 0.1
-0.7 0 0.1
-0.68 0 0.1
-0.66 0 0.1
-0.64 0 0.1
-0.62 0 0.1
-0.6 0 0.1
-0.58 0 0.1
-0.56 0 0.1
-0.54 0 0.1
-0.52 0 0.1
-0.5 0 0.1
-0.48 0 0.1
-0.46 0 0.1
-0.44 0 0.1
-0.42 0 0.1
-0.4 0 0.1
-0.38 0 0.1
-0.36 0 0.1
-0.34 0 0.1
-0.32 0 0.1
-0.3 0 0.1
-0.28 0 0.1
-0.26 0 0.1
-0.24 0 0.1
-0.22 0 0.1
-0.2 0 0.1
-0.18 0 0.1
-0.16 0 0.1
-0.14 0 0.1
-0.12 0 0.1
-0.1 0 0.1
-0.08 0 0.1
-0.06 0 0.1
-0.04 0 0.1
-0.02 0 0.1
0.0182781 0.00745351 0.1
0.0366672 0.0146286 0.1
0.0551632 0.0215237 0.1
0.0737617 0.0281372 0.1
0.0924585 0.0344675 0.1
0.111249 0.0405131 0.1
0.13013 0.0462728 0.1
0.149095 0.0517451 0.1
0.168142 0.0569289 0.1
0.187265 0.0618228 0.1
0.20646 0.0664258 0.1
0.225723 0.0707368 0.1
0.245049 0.0747549 0.1
0.264434 0.078479 0.1
0.283873 0.0819084 0.1
0.303362 0.0850422 0.1
0.322896 0.0878798 0.1
0.342472 0.0904204 0.1
0.362083 0.0926635 0.1
0.381726 0.0946086 0.1
0.401397 0.0962552 0.1
0.42109 0.0976029 0.1
0.440802 0.0986514 0.1
0.460527 0.0994006 0.1
0.480261 0.0998501 0.1
0.5 0.1 0.1
0.519739 0.0998501 0.1
0.539473 0.0994006 0.1
0.559198 0.0986514 0.1
0.57891 0.0976029 0.1
0.598603 0.0962552 0.1
0.618274 0.0946086 0.1
0.637917 0.0926635 0.1
0.657528 0.0904204 0.1
0.677104 0.0878798 0.1
0.696638 0.0850422 0.1
0.716127 0.0819084 0.1
0.735566 0.078479 0.1
0.754951 0.0747549 0.1
0.774277 0.0707368 0.1
0.79354 0.0664258 0.1
0.812735 0.0618228 0.1
0.831858 0.0569289 0.1
0.850905 0.0517451 0.1
0.86987 0.0462728 0.1
0.888751 0.0405131 0.1
0.907542 0.0344675 0.1
0.926238 0.0281372 0.1
0.944837 0.0215237 0.1
0.963333 0.0146286 0.1
0.981722 0.00745351 0.1
1.02 0 0.1
1.04 0 0.1
1.06 0 0.1
1.08 0 0.1
1.1 0 0.1
1.12 0 0.1
1.14 0 0.1
1.16 0 0.1
1.18 0 0.1
1.2 0 0.1
1.22 0 0.1
1.24 0 0.1
1.26 0 0.1
1.28 0 0.1
1.3 0 0.1
1.32 0 0.1
1.34 0 0.1
1.36 0 0.1
1.38 0 0.1
1.4 0 0.1
1.42 0 0.1
1.44 0 0.1
1.46 0 0.1
1.48 0 0.1
1.5 0 0.1
1.52 0 0.1
1.54 0 0.1
1.56 0 0.1
1.58 0 0.1
1.6 0 0.1
1.62 0 0.1
1.64 0 0.1
1.66 0 0.1
1.68 0 0.1
1.7 0 0.1
1.72 0 0.1
1.74 0 0.1
1.76 0 0.1
1.78 0 0.1
1.8 0 0.1
1.82 0 0.1
1.84 0 0.1
1.86 0 0.1
1.88 0 0.1
1.9 0 0.1
1.92 0 0.1
1.94 0 0.1
1.96 0 0.1
1.98 0 0.1
2 0.0199133 0.1
2 0.0414128 0.1
2 0.0646247 0.1
2 0.0896856 0.1
2 0.116743 0.1
2 0.145955 0.1
2 0.177494 0.1
2 0.211545 0.1
2 0.248309 0.1
2 0.288001 0.1
2 0.330854 0.1
2 0.377121 0.1
2 0.427073 0.1
2 0.481004 0.1
2 0.539231 0.1
2 0.602096 0.1
2 0.669968 0.1
2 0.743247 0.1
2 0.822362 0.1
2 0.907779 0.1
1.9 1 0.1
1.8 1 0.1
1.7 1 0.1
1.6 1 0.1
1.5 1 0.1
1.4 1 0.1
1.3 1 0.1
1.2 1 0.1
1.1 1 0.1
1 1 0.1
0.9 1 0.1
0.8 1 0.1
0.7 1 0.1
0.6 1 0.1
0.5 1 0.1
0.4 1 0.1
0.3 1 0.1
0.2 1 0.1
0.1 1 0.1
3.69793e-12 1 0.1
-0.1 1 0.1
-0.2 1 0.1
-0.3 1 0.1
-0.4 1 0.1
-0.5 1 0.1
-0.6 1 0.1
-0.7 1 0.1
-0.8 1 0.1
-0.9 1 0.1
1.08758 0.0158154 0
-0.0898513 0.0203294 0
0.0966181 0.0537636 0
0.90205 0.0548881 0
1.21055 0.0202058 0
-0.209811 0.0159577 0
1.3305 0.0176902 0
-0.33 0.0173205 0
1.45324 0.0148141 0
-0.448654 0.0159854 0
1.56842 0.0191785 0
-0.569936 0.0166364 0
0.193292 0.0805369 0
0.805051 0.0813623 0
0.709096 0.100353 0
0.288591 0.0996656 0
0.390184 0.111848 0
0.61033 0.111742 0
0.488809 0.116278 0
1.67175 0.0169692 0
-0.67 0.0169809 0
-0.955017 0.454039 0
1.95131 0.44569 0
1.74981 0.0168753 0
-0.75 0.0173205 0
-0.968032 0.266538 0
1.96871 0.266267 0
0.978232 0.0305687 0
0.0208675 0.026451 0
-0.150454 0.91842 0
1.13854 0.907437 0
1.45012 0.904365 0
-0.445923 0.908903 0
-0.853423 0.0157019 0
1.84881 0.016319 0
0.853689 0.915652 0
0.153944 0.912184 0
0.545151 0.914125 0
0.549913 0.115152 0
1.51 0.0173205 0
-0.506989 0.01651 0
1.27 0.0173205 0
1.14976 0.0173333 0
-0.268171 0.0206442 0
-0.150501 0.0153244 0
-0.391384 0.0153993 0
1.38886 0.0171544 0
-0.973694 0.161724 0
1.97441 0.162392 0
-0.945221 0.633523 0
1.94544 0.63312 0
1.91008 0.0186068 0
-0.91 0.0169616 0
-0.030664 0.0194327 0
1.03074 0.0165456 0
-0.966065 0.353575 0
1.96128 0.359765 0
1.93879 0.781254 0
-0.937057 0.781882 0
-0.980746 0.080709 0
1.9772 0.0760699 0
0.058735 0.0409372 0
0.355202 0.913001 0
0.86356 0.0661005 0
0.134223 0.0651111 0
0.941972 0.0397386 0
-0.653034 0.915003 0
1.65328 0.904589 0
0.770126 0.0881325 0
0.232946 0.0902008 0
0.330582 0.105648 0
0.670612 0.108365 0
0.428707 0.116145 0
1.80993 0.016629 0
-0.810168 0.0172178 0
-0.71 0.0173205 0
1.63047 0.0175504 0
1.70842 0.0169661 0
-0.628824 0.0181787 0
-0.949815 0.0133898 0
1.95 0.0173205 0
1.85542 0.907891 0
-0.85 0.913397 0
1.9833 0.0307692 0
-0.983315 0.0309709 0
-0.750025 0.916468 0
-0.701107 0.836904 0
-0.607741 0.836428 0
-0.656448 0.759827 0
-0.572936 0.758144 0
-0.61411 0.691195 0
-0.539534 0.689068 0
-0.578542 0.626111 0
-0.507461 0.624216 0
-0.544001 0.566638 0
-0.477696 0.564279 0
-0.511582 0.51001 0
-0.451689 0.507147 0
-0.481834 0.457732 0
-0.426137 0.454624 0
-0.453236 0.407539 0
-0.398845 0.406233 0
-0.507958 0.409496 0
-0.368427 0.460177 0
-0.344602 0.405209 0
-0.315696 0.447824 0
-0.294128 0.402169 0
-0.262844 0.444518 0
-0.241968 0.388746 0
-0.209878 0.439557 0
-0.185184 0.391135 0
-0.156687 0.437338 0
-0.133719 0.390776 0
-0.104405 0.434306 0
-0.0818745 0.388334 0
-0.0528785 0.431165 0
-0.0305984 0.385639 0
-0.00180552 0.427863 0
0.0194564 0.382608 0
0.0485809 0.42449 0
0.0701962 0.37973 0
0.0985483 0.421145 0
0.119893 0.377339 0
0.147837 0.417911 0
0.172552 0.36751 0
0.197018 0.412597 0
0.221203 0.37141 0
0.24512 0.409646 0
-0.48178 0.364657 0
-0.531053 0.364782 0
-0.0599102 0.344151 0
-0.324909 0.359566 0
0.266181 0.368462 0
0.292132 0.407649 0
0.311992 0.365779 0
0.338918 0.404821 0
0.357567 0.355909 0
0.384723 0.40053 0
0.404675 0.359681 0
0.430617 0.398558 0
0.450457 0.35827 0
0.474237 0.395182 0
0.496746 0.34898 0
0.520548 0.397931 0
0.542071 0.353121 0
0.566011 0.389914 0
0.585061 0.350856 0
0.609352 0.38696 0
0.629069 0.348168 0
0.655979 0.391217 0
0.67472 0.346182 0
0.699346 0.381414 0
0.719333 0.341965 0
0.743718 0.377547 0
0.764028 0.339036 0
0.788201 0.373582 0
0.807659 0.336101 0
0.832821 0.372249 0
0.852309 0.334017 0
0.877785 0.370339 0
0.897875 0.331141 0
0.922904 0.366281 0
0.943173 0.327335 0
0.968282 0.363358 0
0.989029 0.324222 0
1.01391 0.361511 0
1.03465 0.321428 0
1.05949 0.358447 0
1.08389 0.312052 0
1.10575 0.355104 0
1.12889 0.31562 0
1.15067 0.353235 0
1.17157 0.312819 0
1.19626 0.349369 0
1.21618 0.309863 0
1.2416 0.346914 0
1.26131 0.30715 0
1.28691 0.344312 0
1.30571 0.303752 0
1.33144 0.341222 0
1.35018 0.300911 0
1.3758 0.338308 0
1.39501 0.298931 0
1.42015 0.335235 0
1.43904 0.296349 0
1.46355 0.330194 0
1.48256 0.293347 0
1.50685 0.326967 0
1.52589 0.29055 0
1.54996 0.325305 0
1.56909 0.287929 0
[...]
CELL_DATA 3694
SCALARS rho float
LOOKUP_TABLE default
0.734447
0.669403
0.803645
0.81223
0.825974
0.804895
0.791346
0.799492
0.809274
0.802479
0.8166
0.816594
0.839946
0.789055
0.800334
0.749285
0.803137
0.802724
0.759135
0.849598
0.816635
0.822401
0.695083
0.803222
0.691642
0.838807
0.719598
0.805745
0.836448
0.798167
0.798369
0.718232
0.803284
0.824166
0.802511
0.796687
0.836749
0.822201
0.824248
0.778061
0.804446
0.817084
0.833781
0.82473
0.804883
0.812115
0.800287
0.661896
0.678255
0.718908
0.80189
0.802848
0.846354
0.801842
0.625849
0.837648
0.802324
0.818411
0.832403
0.753358
0.796001
0.814295
0.841608
0.799106
0.842116
0.830283
0.807139
0.812763
0.736508
0.857891
0.803064
0.807379
0.822424
0.8031
0.823845
0.80282
0.813932
0.799234
0.813177
0.802584
0.711941
0.817843
0.802124
0.776664
0.809153
0.799183
0.817753
0.713081
0.736306
0.824563
0.798551
0.802155
0.81993
0.814841
0.67387
0.806297
0.722275
0.817094
0.811582
0.839458
0.813879
0.761487
0.719174
0.809081
0.808591
0.814291
0.817071
0.806796
0.714682
0.813642
0.799031
0.720646
0.721388
0.822973
0.867532
0.801976
0.799105
0.811383
0.803049
0.801879
0.765443
0.822203
0.81908
0.769149
0.705008
0.757837
0.816743
0.776116
0.843129
0.698632
0.766906
0.800114
0.807711
0.777142
0.800397
0.794995
0.805247
0.802231
0.797525
0.813811
0.813061
0.709066
0.816259
0.812854
0.756968
0.664364
0.676067
0.79765
0.815301
0.812873
0.743216
0.802545
0.552389
0.777926
0.682729
0.762417
0.712719
0.78309
0.604857
0.792774
0.837264
0.643428
0.781681
0.736296
0.843652
0.550654
0.816973
0.799962
0.802362
0.672263
0.801442
0.661196
0.857413
0.531889
0.799662
0.630152
0.871955
0.832796
0.820059
0.745021
0.813413
0.722056
0.826364
0.737305
0.647226
0.803001
0.672071
0.82281
0.801521
0.850539
0.79151
0.705345
0.814005
0.797921
0.741096
0.852392
0.811165
0.848448
0.735825
0.741747
0.77047
0.793217
0.831187
0.833999
0.816649
0.813411
0.667644
0.804415
0.725672
0.80309
0.7067
0.796836
0.795431
0.801292
0.82515
0.762725
0.829884
0.748789
0.825091
0.819297
0.815253
0.85268
0.829205
0.701245
0.826513
0.688858
0.787472
0.809407
0.850706
0.829672
0.807621
0.794082
0.744197
0.816966
0.836234
0.816778
0.71377
0.799187
0.693123
0.791611
0.795287
0.809382
0.635558
0.807325
0.756835
0.797621
0.803026
0.758457
0.814459
0.865292
0.784045
0.693068
0.8042
0.801167
0.645824
0.791642
0.777474
0.802263
0.838583
0.81405
0.606608
0.814484
0.80992
0.796229
0.814765
0.802508
0.815145
0.814033
0.835378
0.755463
0.801682
0.834372
0.809993
0.803066
0.795873
0.814215
0.728327
0.585923
0.816227
0.829391
0.81984
0.803947
0.679092
0.814762
0.814486
0.816246
0.71155
0.796731
0.814321
0.535477
0.802721
0.868848
0.675282
0.755314
0.838245
0.826546
0.814054
0.708132
0.809211
0.814315
0.803628
0.801431
0.811903
0.836268
0.816862
0.766737
0.806823
0.802953
0.645269
0.820438
0.827354
0.670191
0.790413
0.818266
0.820667
0.677765
0.686852
0.820862
0.823561
0.809337
0.73369
0.705855
0.712589
0.731268
0.819745
0.775938
0.803972
0.731087
0.741978
0.821976
0.809619
0.818672
0.769235
0.814458
0.813132
0.816736
0.815357
0.802642
0.807329
0.803454
0.693056
0.802614
0.812555
0.692662
0.806698
0.80492
0.818855
0.785502
0.80572
0.791564
0.814201
0.820428
0.819611
0.797789
0.678895
0.709041
0.799219
0.810675
0.620489
0.8037
0.807034
0.817032
0.742311
0.804085
0.815774
0.810903
0.817219
0.804851
0.797093
0.763665
0.803862
0.843127
0.819612
0.707797
0.803411
0.700722
0.705094
0.802879
0.613528
0.770145
0.784489
0.807864
0.812712
0.824814
0.816533
0.812206
0.819622
0.827776
0.802747
0.763817
0.809554
0.657604
0.818679
0.756523
0.726643
0.685186
0.813272
0.853698
0.818707
0.808326
0.821858
0.814648
0.786579
0.757478
0.808983
0.692388
0.790963
0.843203
0.82639
0.800654
0.863732
0.813171
0.815984
0.816953
0.830831
0.627741
0.798118
0.729954
0.797573
0.735084
0.818552
0.808469
0.786738
0.685894
0.814107
0.829799
0.811232
0.802766
0.803632
0.823861
0.80368
0.709286
0.790099
0.803039
0.814063
0.81341
0.812017
0.871382
0.827327
0.809184
0.831653
0.681092
0.822898
0.837207
0.815601
0.626598
0.814623
0.808973
0.845125
0.820831
0.802845
0.591002
0.809889
0.694512
0.805928
0.802822
0.811809
0.812844
0.825006
0.804899
0.810997
0.815443
0.722769
0.862641
0.801798
0.849837
0.815829
0.572212
0.803736
0.796476
0.810972
0.817081
0.645308
0.802744
0.809438
0.812786
0.806925
0.793677
0.814968
0.816741
0.7956
0.803484
0.820924
0.836569
0.728991
0.806092
0.809269
0.81253
0.68161
0.805023
0.815483
0.798964
0.803886
0.51781
0.832498
0.762889
0.813965
0.817163
0.830438
0.845922
0.815559
0.810961
0.714595
0.798622
0.852102
0.807875
0.709292
0.799954
0.802553
0.871972
0.844936
0.818509
0.801906
0.80947
0.754899
0.814788
0.813624
0.583478
0.80247
0.72826
0.749944
0.802908
0.810756
0.780773
0.820973
0.814617
0.837682
0.815431
0.800316
0.808428
0.738707
0.736126
0.804001
0.807516
0.820625
0.80201
0.751509
0.687448
0.812882
0.814959
0.813797
0.593314
0.813007
0.81624
0.82424
0.802887
0.808189
0.819153
0.811648
0.839057
0.802905
0.81247
0.823277
0.814967
0.817354
0.821115
0.687291
0.78394
0.794378
0.802994
0.847277
0.801996
0.802279
0.634221
0.810434
0.812941
0.810548
0.818506
0.805608
0.812451
0.726454
0.843265
0.70802
0.800172
0.816765
0.807055
0.649328
0.684567
0.814967
0.805505
0.804047
0.784861
0.801459
0.828835
0.812965
0.804821
0.801974
0.811717
0.618672
0.811763
0.802848
0.696651
0.815018
0.614931
0.783391
0.814934
0.837483
0.805376
0.811848
0.791891
0.795066
0.803845
0.80136
0.811396
0.810916
0.80842
0.803171
0.757152
0.80396
0.811876
0.811329
0.815779
0.810898
0.815328
0.814267
0.833948
0.73715
0.806479
0.815053
0.802245
0.540659
0.680517
0.810888
0.812609
0.814585
0.780152
0.807964
0.81242
0.802995
0.799775
0.802569
0.819521
0.820344
0.81435
0.78429
0.807658
0.805129
0.53661
0.773504
0.756722
0.806099
0.735016
0.673801
0.79734
0.767176
0.827299
0.814259
0.814043
0.808194
0.538438
0.81522
0.582023
0.69405
0.824202
0.869502
0.740472
0.816028
0.852581
0.693978
0.814811
0.808835
0.814702
0.807185
0.655243
0.854264
0.737298
0.728802
0.803182
0.804459
0.799352
0.833243
0.814548
0.690063
0.815084
0.800192
0.689689
0.839159
0.797887
0.62087
0.772481
0.815094
0.807363
0.814183
0.784272
0.723807
0.769425
0.83675
0.687816
0.815355
0.81685
0.826488
0.764765
0.821577
0.690276
0.804451
0.659645
0.699967
0.800076
0.822389
0.787917
0.813904
0.814777
0.814584
0.813315
0.57546
0.802489
0.814303
0.742762
0.809914
0.814819
0.811172
0.715891
0.693632
0.740721
0.618544
0.807101
0.680553
0.81504
0.801809
0.814358
0.836742
0.68627
0.804057
0.819329
0.832151
0.73677
0.781265
0.764623
0.772574
0.811833
0.559181
0.670211
0.814672
0.805195
0.811815
0.804436
0.711692
0.779829
0.723258
0.760568
0.799398
0.831524
0.81207
0.690512
0.822929
0.817436
0.810341
0.683955
0.694323
0.680421
0.871913
0.815294
0.81611
0.60763
0.710662
0.64029
0.803282
0.80024
0.670868
0.81176
0.824141
0.748227
0.799224
0.72875
0.813547
0.691679
0.814079
0.81032
0.801013
0.803045
0.825218
0.743685
0.815144
0.814323
0.780063
0.549744
0.815946
0.810367
0.75726
0.813197
0.747563
0.802745
0.826062
0.655042
0.817609
0.802661
0.809848
0.581565
0.620517
0.734527
0.806246
0.811533
0.810253
0.820585
0.814438
0.815397
0.703729
0.80185
0.812607
0.825816
0.702762
0.724936
0.811636
0.811443
0.695248
0.814168
0.773983
0.702782
0.811745
0.695187
0.803763
0.661495
0.802853
0.730378
0.665505
0.81062
0.785945
0.743525
0.630086
0.839795
0.820932
0.814394
0.769875
0.813523
0.799968
0.785681
0.799757
0.801584
0.814652
0.730546
0.809562
0.799885
0.818259
0.596947
0.801213
0.81241
0.813379
0.811051
0.811618
0.745553
0.802572
0.763736
0.750073
0.818107
0.644603
0.818049
0.817165
0.803045
0.815066
0.816299
0.71923
0.768439
0.821643
0.784869
0.803646
0.815499
0.874889
0.817534
0.797789
0.81626
0.814709
0.793828
0.817968
0.816423
0.772875
0.696347
0.840873
0.796866
0.803136
0.822427
0.780696
0.817323
0.82465
0.818145
0.816336
0.870321
0.803064
0.804747
0.817744
0.803061
0.814834
0.806822
0.734785
0.814761
0.819211
0.753893
0.70678
0.814649
0.842897
0.822192
0.65017
0.821285
0.773331
0.807799
0.801787
0.728953
0.803096
0.798496
0.815334
0.816418
0.691757
0.703134
0.802101
0.787417
0.801386
0.824514
0.722388
0.81432
0.802311
0.799973
0.82308
0.814813
0.711709
0.815086
0.762688
0.802349
0.832409
0.803265
0.772849
0.797793
0.794556
0.814458
0.571243
0.814271
0.695956
0.675297
0.803371
0.819035
0.81433
0.802467
0.814482
0.808018
0.723037
0.78741
0.856877
0.802987
0.83321
0.807288
0.53974
0.76222
0.779261
0.645982
0.736791
0.576625
0.819787
0.812591
0.813534
0.802363
0.766577
0.683657
0.763775
0.752104
0.781792
0.814241
0.844661
0.818873
0.805705
0.819144
0.823418
0.802534
0.807337
0.703295
0.803034
0.755772
0.808541
0.797629
0.75085
0.821964
0.788218
0.803445
0.789273
0.840615
0.727205
0.800772
0.799247
0.804774
0.616373
0.814855
0.814731
0.821433
0.628994
0.814607
0.814617
0.798335
0.803751
0.793042
0.774692
0.80595
0.794107
0.815361
0.753162
0.803336
0.875101
0.762166
0.747201
0.806531
0.783836
0.842262
0.799428
0.778965
0.814966
0.798064
0.792357
0.807927
0.825116
0.835354
0.799611
0.57197
0.819945
0.827831
0.771891
0.830334
0.837886
0.822397
0.825842
0.807135
0.832551
0.826389
0.783546
0.808693
0.81076
0.805823
0.822214
0.80329
0.827179
0.79274
0.802877
0.80558
0.725581
0.806946
0.559204
0.817417
0.824849
0.82818
0.805506
0.817848
0.823427
0.819224
0.820297
0.838424
0.832701
0.787371
0.800227
0.8212
0.814794
0.816376
0.800058
0.806246
0.86533
0.819511
0.847047
0.814496
0.80048
0.824424
0.799578
0.833226
0.812855
0.814825
0.805146
0.724944
0.802795
0.804395
0.81442
0.803217
0.801672
0.821895
0.804395
0.804048
0.777625
0.819538
0.71643
0.813829
0.779678
0.758311
0.803443
0.813094
0.8188
0.713835
0.818781
0.815011
0.826356
0.816523
0.789258
0.815681
0.847014
0.832722
0.814477
0.811536
0.801437
0.742831
0.675533
0.814412
0.82027
0.770225
0.813811
0.807572
0.811187
0.805234
0.798251
0.775847
0.802295
0.799854
0.841112
0.816809
0.811165
0.806074
0.601704
0.729901
0.802023
0.782788
0.803907
0.815108
0.805718
0.815449
0.779489
0.814486
0.804602
0.810059
0.803531
0.817275
0.803123
0.815229
0.810279
0.815232
0.812228
0.716093
0.813899
0.815034
0.595421
0.814245
0.796554
0.802569
0.858495
0.817795
0.81008
0.872274
0.81466
0.814739
0.81623
0.818263
0.814686
0.763815
0.8301
0.801086
0.803004
0.813975
0.8146
0.816107
0.814445
0.812849
0.822552
0.803809
0.811917
0.808843
0.814838
0.819761
0.814463
0.811186
0.81871
0.808718
0.697297
0.657733
0.80246
0.808245
0.803163
0.810679
0.817806
0.816535
0.802727
0.803501
0.800329
0.800622
0.816308
0.844062
0.817958
0.811182
0.81791
0.817575
0.845673
0.816897
0.820757
0.785334
0.815213
0.806595
0.800914
0.791762
0.810205
0.817918
0.814292
0.814528
0.835784
0.805548
0.812
0.816027
0.821294
0.803332
0.803008
0.80532
0.810238
0.814412
0.801368
0.802488
0.816282
0.822278
0.800554
0.576244
0.804073
0.796415
0.816908
0.798389
0.802599
0.747606
0.840443
0.802551
0.7995
0.834365
0.829261
0.809998
0.825709
0.800227
0.81725
0.816869
0.818108
0.803428
0.817688
0.726573
0.821762
0.811296
0.799832
0.812782
0.819947
0.7989
0.803798
0.781731
0.814929
0.814695
0.814806
0.817898
0.806211
0.816429
0.815109
0.825569
0.821753
0.83725
0.805696
0.694298
0.817333
0.840278
0.819175
0.804368
0.799808
0.80312
0.815679
0.813874
0.815322
0.743293
0.736864
0.800476
0.802772
0.814991
0.815952
0.798117
0.650867
0.707441
0.807802
0.768915
0.815153
0.702016
0.802954
0.72728
0.803107
0.819629
0.803042
0.816665
0.812085
0.798382
0.80834
0.792878
0.829624
0.814838
0.800937
0.803268
0.815202
0.821084
0.748513
0.822169
0.803531
0.782992
0.814709
0.803626
0.81014
0.813851
0.814282
0.834881
0.792118
0.798702
0.814583
0.758295
0.806352
0.813994
0.800803
0.815266
0.840952
0.802009
0.842866
0.808176
0.789844
0.81107
0.802539
0.851641
0.788185
0.803034
0.815295
0.831129
0.808137
0.812956
0.814993
0.802639
0.80256
0.825709
0.782139
0.813517
0.81457
0.641177
0.814777
0.71178
0.817377
0.837838
0.823938
0.80367
0.81376
0.814414
0.72477
0.813943
0.80047
0.801378
0.800594
0.815013
0.863576
0.800996
0.800695
0.785059
0.840225
0.827723
0.818949
0.812504
0.746019
0.8029
0.803261
0.729928
0.799039
0.713451
0.809721
0.800785
0.675213
0.880066
0.701507
0.771859
0.800865
0.742319
0.808127
0.798591
0.802951
0.659067
0.796521
0.783756
0.798625
0.727267
0.818026
0.821834
0.884406
0.809204
0.830866
0.643764
0.799602
0.786297
0.743216
0.750418
0.76816
0.704525
0.80295
0.798954
0.803024
0.762994
0.625621
0.811175
0.611145
0.82053
0.822366
0.811246
0.73621
0.811518
0.794743
0.818474
0.782381
0.806477
0.796919
0.809234
0.715788
0.801227
0.72141
0.801074
0.798434
0.684145
0.803379
0.814305
0.814369
0.802978
0.760522
0.814141
0.732223
0.689686
0.802121
0.814366
0.874222
0.814262
0.813659
0.880419
0.865228
0.830488
0.718132
0.801758
0.811637
0.820905
0.797353
0.679184
0.721836
0.673938
0.802265
0.704946
0.767884
0.799102
0.613681
0.688252
0.835712
0.772904
0.744516
0.829969
0.758447
0.769024
0.624804
0.730483
0.784479
0.819089
0.869305
0.83741
0.814725
0.79401
0.799369
0.714806
0.814569
0.693052
0.796793
0.814342
0.783284
0.761865
0.801078
0.782173
0.802031
0.80049
0.810907
0.810821
0.866919
0.564677
0.535885
0.802202
0.806404
0.697122
0.809645
0.802646
0.837124
0.803334
0.802234
0.565262
0.551938
0.808154
0.811564
0.814479
0.725014
0.80305
0.809918
0.683177
0.810571
0.802557
0.812963
0.803085
0.800001
0.802104
0.813413
0.802836
0.81676
0.803067
0.861819
0.813772
0.802378
0.721157
0.668618
0.814531
0.583278
0.812106
0.809746
0.835451
0.813071
0.802882
0.810487
0.812455
0.812273
0.814088
0.801442
0.853496
0.856174
0.802012
0.65348
0.807747
0.82214
0.79926
0.803055
0.819373
0.73279
0.803162
0.824689
0.820726
0.814866
0.814362
0.76605
0.745367
0.800491
0.833539
0.802524
0.813663
0.804203
0.803401
0.804738
0.81309
0.808565
0.798384
0.806656
0.805738
0.824304
0.80647
0.806072
0.816744
0.806572
0.803298
0.812181
0.802866
0.802722
0.805604
0.807549
0.812323
0.773164
0.805132
0.802591
0.814252
0.799461
0.803584
0.80664
0.831336
0.80484
0.647962
0.800574
0.814556
0.804475
0.814518
0.762482
0.814318
0.749901
0.803515
0.802049
0.803886
0.818659
0.850686
0.804186
0.803176
0.746901
0.829046
0.814245
0.819669
0.824672
0.814066
0.735573
0.817306
0.720696
0.800866
0.827009
0.802235
0.697954
0.825227
0.814069
0.815488
0.823466
0.814679
0.772881
0.816322
0.645941
0.708797
0.814342
0.821932
0.673324
0.818518
0.657646
0.820725
0.806477
0.815807
0.803087
0.805265
0.814196
0.831252
0.824856
0.669928
0.812318
0.841607
0.781126
0.845899
0.800112
0.704134
0.83805
0.818747
0.835061
0.686163
0.680999
0.832364
0.654213
0.830052
0.81436
0.828005
0.806084
0.826273
0.787407
0.824755
0.82335
0.706017
0.865389
0.822144
0.821124
0.823375
0.758563
0.802702
0.521157
0.802543
0.820235
0.812827
0.804537
0.825319
0.814291
0.79772
0.819454
0.802885
0.677513
0.792167
0.833887
0.813685
0.71458
0.798664
0.821333
0.573834
0.81405
0.814892
0.802425
0.809711
0.725063
0.817344
0.802929
0.803351
0.795759
0.793377
0.797701
0.794523
0.803214
0.811675
0.819098
0.813408
0.570852
0.892842
0.704478
0.797688
0.738701
0.791227
0.814267
0.81501
0.814888
0.603036
0.818389
0.816995
0.80372
0.817393
0.836248
0.839199
0.782636
0.798275
0.799309
0.723873
0.751951
0.814545
0.763472
0.814954
0.818435
0.81411
0.813282
0.801843
0.774709
0.811844
0.815438
0.727759
0.810384
0.815213
0.817477
0.8076
0.809262
0.764043
0.813879
0.807984
0.803061
0.807231
0.615091
0.806293
0.804141
0.805719
0.820738
0.845261
0.804509
0.773602
0.805082
0.771298
0.819683
0.805246
0.812039
0.814276
0.849872
0.803273
0.743991
0.819576
0.814542
0.726423
0.800636
0.815582
0.758158
0.811911
0.567578
0.80637
0.684949
0.800935
0.810682
0.811821
0.816587
0.804034
0.815193
0.817116
0.800832
0.804049
0.844036
0.8155
0.796014
0.815591
0.801656
0.801223
0.8001
0.801054
0.806571
0.813909
0.801418
0.769318
0.817814
0.812499
0.808675
0.814287
0.585178
0.803149
0.813473
0.814596
0.786937
0.747579
0.719053
0.811776
0.81413
0.825426
0.788793
0.601559
0.771031
0.638408
0.816092
0.745061
0.811494
0.829809
0.693385
0.799484
0.833409
0.748621
0.800442
0.803059
0.814903
0.801866
0.698134
0.800525
0.546409
0.801581
0.8023
0.802072
0.560825
0.802823
0.803299
0.803053
0.727939
0.73683
0.8033
0.775946
0.814953
0.7215
0.70599
0.81434
0.801175
0.752032
0.853849
0.813128
0.811556
0.668418
0.802652
0.800399
0.800291
0.802352
0.655458
0.803103
0.814604
0.653383
0.684583
0.805606
0.789974
0.814426
0.822765
0.814341
0.814541
0.815793
0.803522
0.814503
0.814281
0.812971
0.828942
0.802271
0.801651
0.810129
0.725707
0.809385
0.814137
0.862521
0.810521
0.636854
0.774006
0.802048
0.775841
0.816048
0.811162
0.829626
0.813781
0.864323
0.801692
0.813907
0.592196
0.815324
0.833459
0.802819
0.813545
0.623648
0.814756
0.802617
0.816005
0.802107
0.81689
0.815289
0.754537
0.803422
0.803062
0.834716
0.861622
0.819393
0.81542
0.725214
0.740595
0.802391
0.802894
0.811738
0.817446
0.799355
0.802727
0.818904
0.805944
0.807351
0.739347
0.8026
0.816899
0.813344
0.767809
0.760334
0.811126
0.796226
0.856696
0.718077
0.834168
0.810375
0.711845
0.799502
0.813762
0.78728
0.800542
0.799535
0.814362
0.776789
0.774302
0.81268
0.696536
0.798443
0.764945
0.814217
0.816625
0.801844
0.787061
0.737756
0.751658
0.773488
0.81392
0.818336
0.805193
0.65469
0.801633
0.795259
0.777601
0.809535
0.812251
0.799355
0.80292
0.631808
0.803771
0.804397
0.850958
0.803568
0.808832
0.832888
0.805077
0.809493
0.851894
0.611038
0.803898
0.815483
0.80524
0.804855
0.805538
0.80443
0.804524
0.804049
0.80562
0.806106
0.723768
0.805509
0.80679
0.806257
0.814469
0.807924
0.818001
0.803027
0.803385
0.814043
0.814228
0.809383
0.803291
0.816017
0.812883
0.80928
0.815379
0.707409
0.813237
0.831075
0.814229
0.853948
0.74915
0.807488
0.814273
0.800528
0.596365
0.803148
0.771855
0.821324
0.626255
0.814894
0.829071
0.813958
0.811336
0.801942
0.826698
0.818744
0.803425
0.764253
0.816444
0.758191
0.545295
0.813606
0.695828
0.693961
0.820183
0.827174
0.826971
0.816037
0.847187
0.568646
0.876306
0.805057
0.825455
0.823768
0.812326
0.680586
0.814145
0.822211
0.815739
0.800731
0.773499
0.822054
0.563941
0.812593
0.84281
0.803007
0.839227
0.820958
0.803218
0.667769
0.842919
0.819887
0.836018
0.800684
0.813291
0.802984
0.833364
0.802688
0.813205
0.830919
0.828755
0.821816
0.823771
0.83054
0.73893
0.659691
0.56184
0.826893
0.825352
0.766848
0.75588
0.805809
0.823907
0.846538
0.589308
0.822611
0.821507
0.820584
0.819032
0.80375
0.82058
0.656024
0.743431
0.81977
0.797103
0.869599
0.889937
0.776034
0.80338
0.668686
0.835242
0.729361
0.717253
0.818928
0.801447
0.783139
0.658685
0.802045
0.814377
0.788604
0.710257
0.799947
0.816953
0.797772
0.674354
0.823114
0.792577
0.815081
0.832849
0.814952
0.795148
0.815539
0.815292
0.785588
0.803822
0.70929
0.840348
0.79283
0.810527
0.781602
0.804213
0.694448
0.800654
0.813285
0.811923
0.810758
0.809231
0.80814
0.807384
0.805758
0.804649
0.806567
0.723861
0.8052
0.801294
0.795702
0.803162
0.84417
0.713894
0.803099
0.775818
0.883782
0.853911
0.797822
0.722366
0.803104
0.797505
0.718017
0.803172
0.801502
0.733276
0.803486
0.789375
0.797011
0.800896
0.736775
0.7791
0.803962
0.746423
0.764002
0.768755
0.801219
0.814021
0.808412
0.757901
0.750811
0.799361
0.813015
0.803205
0.792505
0.800952
0.928562
0.860306
0.81718
0.814157
0.723631
0.843999
0.747016
0.825775
0.816131
0.897988
0.814334
0.796866
0.587169
0.814369
0.79698
0.814407
0.797402
0.845262
0.51844
0.832416
0.80141
0.80541
0.804669
0.803575
0.855416
0.801113
0.816794
0.70087
0.65182
0.665861
0.814455
0.500362
0.797416
0.720924
0.841504
0.814342
0.556284
0.801642
0.813863
0.813527
0.718338
0.801508
0.522936
0.796887
0.814599
0.797006
0.802575
0.797247
0.814777
0.833593
0.803206
0.797954
0.815185
0.798219
0.81534
0.813645
0.798502
0.815516
0.813093
0.815721
0.798604
0.815949
0.678745
0.798796
0.816205
0.802976
0.798985
0.816463
0.696697
0.814364
0.797994
0.814298
0.798005
0.809434
0.837907
0.861015
0.800781
0.80007
0.817419
0.815129
0.799713
0.799337
0.863055
0.811815
0.817085
0.809887
0.849599
0.828062
0.816056
0.825291
0.845865
0.8143
0.801194
0.818673
0.811234
0.801618
0.814198
0.799751