# vtk DataFile Version 1.0
unstructured grid
ascii
DATASET UNSTRUCTURED_GRID
points 3920 float
-1 0 0
-1 1 0
2 0 0
2 1 0
0 0 0
1 0 0
-1 1 0.1
-1 0 0.1
0 0 0.1
1 0 0.1
2 0 0.1
2 1 0.1
-0.98 0 0
-0.96 0 0
-0.94 0 0
-0.92 0 0
-0.9 0 0
-0.88 0 0
-0.86 0 0
-0.84 0 0
-0.82 0 0
-0.8 0 0
-0.78 0 0
-0.76 0 0
-0.74 0 0
-0.72 0 0
-0.7 0 0
-0.68 0 0
-0.66 0 0
-0.64 0 0
-0.62 0 0
-0.6 0 0
-0.58 0 0
-0.56 0 0
-0.54 0 0
-0.52 0 0
-0.5 0 0
-0.48 0 0
-0.46 0 0
-0.44 0 0
-0.42 0 0
-0.4 0 0
-0.38 0 0
-0.36 0 0
-0.34 0 0
-0.32 0 0
-0.3 0 0
-0.28 0 0
-0.26 0 0
-0.24 0 0
-0.22 0 0
-0.2 0 0
-0.18 0 0
-0.16 0 0
-0.14 0 0
-0.12 0 0
-0.1 0 0
-0.08 0 0
-0.06 0 0
-0.04 0 0
-0.02 0 0
1.02 0 0
1.04 0 0
1.06 0 0
1.08 0 0
1.1 0 0
1.12 0 0
1.14 0 0
1.16 0 0
1.18 0 0
1.2 0 0
1.22 0 0
1.24 0 0
1.26 0 0
1.28 0 0
1.3 0 0
1.32 0 0
1.34 0 0
1.36 0 0
1.38 0 0
1.4 0 0
1.42 0 0
1.44 0 0
1.46 0 0
1.48 0 0
1.5 0 0
1.52 0 0
1.54 0 0
1.56 0 0
1.58 0 0
1.6 0 0
1.62 0 0
1.64 0 0
1.66 0 0
1.68 0 0
1.7 0 0
1.72 0 0
1.74 0 0
1.76 0 0
1.78 0 0
1.8 0 0
1.82 0 0
1.84 0 0
1.86 0 0
1.88 0 0
1.9 0 0
1.92 0 0
1.94 0 0
1.96 0 0
1.98 0 0
2 0.0199133 0
2 0.0414128 0
2 0.0646247 0
2 0.0896856 0
2 0.116743 0
2 0.145955 0
2 0.177494 0
2 0.211545 0
2 0.248309 0
2 0.288001 0
2 0.330854 0
2 0.377121 0
2 0.427073 0
2 0.481004 0
2 0.539231 0
2 0.602096 0
2 0.669968 0
2 0.743247 0
2 0.822362 0
2 0.907779 0
1.9 1 0
1.8 1 0
1.7 1 0
1.6 1 0
1.5 1 0
1.4 1 0
1.3 1 0
1.2 1 0
1.1 1 0
1 1 0
0.9 1 0
0.8 1 0
0.7 1 0
0.6 1 0
0.5 1 0
0.4 1 0
0.3 1 0
0.2 1 0
0.1 1 0
3.69793e-12 1 0
-0.1 1 0
-0.2 1 0
-0.3 1 0
-0.4 1 0
-0.5 1 0
-0.6 1 0
-0.7 1 0
-0.8 1 0
-0.9 1 0
-1 0.907779 0
-1 0.822362 0
-1 0.743247 0
-1 0.669968 0
-1 0.602096 0
-1 0.539231 0
-1 0.481004 0
-1 0.427073 0
-1 0.377121 0
-1 0.330854 0
-1 0.288001 0
-1 0.248309 0
-1 0.211545 0
-1 0.177494 0
-1 0.145955 0
-1 0.116743 0
-1 0.0896856 0
-1 0.0646247 0
-1 0.0414128 0
-1 0.0199133 0
0.0182781 0.00745351 0
0.0366672 0.0146286 0
0.0551632 0.0215237 0
0.0737617 0.0281372 0
0.0924585 0.0344675 0
0.111249 0.0405131 0
0.13013 0.0462728 0
0.149095 0.0517451 0
0.168142 0.0569289 0
0.187265 0.0618228 0
0.20646 0.0664258 0
0.225723 0.0707368 0
0.245049 0.0747549 0
0.264434 0.078479 0
0.283873 0.0819084 0
0.303362 0.0850422 0
0.322896 0.0878798 0
0.342472 0.0904204 0
0.362083 0.0926635 0
0.381726 0.0946086 0
0.401397 0.0962552 0
0.42109 0.0976029 0
0.440802 0.0986514 0
0.460527 0.0994006 0
0.480261 0.0998501 0
0.5 0.1 0
0.519739 0.0998501 0
0.539473 0.0994006 0
0.559198 0.0986514 0
0.57891 0.0976029 0
0.598603 0.0962552 0
0.618274 0.0946086 0
0.637917 0.0926635 0
0.657528 0.0904204 0
0.677104 0.0878798 0
0.696638 0.0850422 0
0.716127 0.0819084 0
0.735566 0.078479 0
0.754951 0.0747549 0
0.774277 0.0707368 0
0.79354 0.0664258 0
0.812735 0.0618228 0
0.831858 0.0569289 0
0.850905 0.0517451 0
0.86987 0.0462728 0
0.888751 0.0405131 0
0.907542 0.0344675 0
0.926238 0.0281372 0
0.944837 0.0215237 0
0.963333 0.0146286 0
0.981722 0.00745351 0
-1 0.907779 0.1
-1 0.822362 0.1
-1 0.743247 0.1
-1 0.669968 0.1
-1 0.602096 0.1
-1 0.539231 0.1
-1 0.481004 0.1
-1 0.427073 0.1
-1 0.377121 0.1
-1 0.330854 0.1
-1 0.288001 0.1
-1 0.248309 0.1
-1 0.211545 0.1
-1 0.177494 0.1
-1 0.145955 0.1
-1 0.116743 0.1
-1 0.0896856 0.1
-1 0.0646247 0.1
-1 0.0414128 0.1
-1 0.0199133 0.1
-0.98 0 0.1
-0.96 0 0.1
-0.94 0 0.1
-0.92 0 0.1
-0.9 0 0.1
-0.88 0 0.1
-0.86 0 0.1
-0.84 0 0.1
-0.82 0 0.1
-0.8 0 0.1
-0.78 0 0.1
-0.76 0 0.1
-0.74 0 0.1
-0.72 0 0.1
-0.7 0 0.1
-0.68 0 0.1
-0.66 0 0.1
-0.64 0 0.1
-0.62 0 0.1
-0.6 0 0.1
-0.58 0 0.1
-0.56 0 0.1
-0.54 0 0.1
-0.52 0 0.1
-0.5 0 0.1
-0.48 0 0.1
-0.46 0 0.1
-0.44 0 0.1
-0.42 0 0.1
-0.4 0 0.1
-0.38 0 0.1
-0.36 0 0.1
-0.34 0 0.1
-0.32 0 0.1
-0.3 0 0.1
-0.28 0 0.1
-0.26 0 0.1
-0.24 0 0.1
-0.22 0 0.1
-0.2 0 0.1
-0.18 0 0.1
-0.16 0 0.1
-0.14 0 0.1
-0.12 0 0.1
-0.1 0 0.1
-0.08 0 0.1
-0.06 0 0.1
-0.04 0 0.1
-0.02 0 0.1
0.0182781 0.00745351 0.1
0.0366672 0.0146286 0.1
0.0551632 0.0215237 0.1
0.0737617 0.0281372 0.1
0.0924585 0.0344675 0.1
0.111249 0.0405131 0.1
0.13013 0.0462728 0.1
0.149095 0.0517451 0.1
0.168142 0.0569289 0.1
0.187265 0.0618228 0.1
0.20646 0.0664258 0.1
0.225723 0.0707368 0.1
0.245049 0.0747549 0.1
0.264434 0.078479 0.1
0.283873 0.0819084 0.1
0.303362 0.0850422 0.1
0.322896 0.0878798 0.1
0.342472 0.0904204 0.1
0.362083 0.0926635 0.1
0.381726 0.0946086 0.1
0.401397 0.0962552 0.1
0.42109 0.0976029 0.1
0.440802 0.0986514 0.1
0.460527 0.0994006 0.1
0.480261 0.0998501 0.1
0.5 0.1 0.1
0.519739 0.0998501 0.1
0.539473 0.0994006 0.1
0.559198 0.0986514 0.1
0.57891 0.0976029 0.1
0.598603 0.0962552 0.1
0.618274 0.0946086 0.1
0.637917 0.0926635 0.1
0.657528 0.0904204 0.1
0.677104 0.0878798 0.1
0.696638 0.0850422 0.1
0.716127 0.0819084 0.1
0.735566 0.078479 0.1
0.754951 0.0747549 0.1
0.774277 0.0707368 0.1
0.79354 0.0664258 0.1
0.812735 0.0618228 0.1
0.831858 0.0569289 0.1
0.850905 0.0517451 0.1
0.86987 0.0462728 0.1
0.888751 0.0405131 0.1
0.907542 0.0344675 0.1
0.926238 0.0281372 0.1
0.944837 0.0215237 0.1
0.963333 0.0146286 0.1
0.981722 0.00745351 0.1
1.02 0 0.1
1.04 0 0.1
1.06 0 0.1
1.08 0 0.1
1.1 0 0.1
1.12 0 0.1
1.14 0 0.1
1.16 0 0.1
1.18 0 0.1
1.2 0 0.1
1.22 0 0.1
1.24 0 0.1
1.26 0 0.1
1.28 0 0.1
1.3 0 0.1
1.32 0 0.1
1.34 0 0.1
1.36 0 0.1
1.38 0 0.1
1.4 0 0.1
1.42 0 0.1
1.44 0 0.1
1.46 0 0.1
1.48 0 0.1
1.5 0 0.1
1.52 0 0.1
1.54 0 0.1
1.56 0 0.1
1.58 0 0.1
1.6 0 0.1
1.62 0 0.1
1.64 0 0.1
1.66 0 0.1
1.68 0 0.1
1.7 0 0.1
1.72 0 0.1
1.74 0 0.1
1.76 0 0.1
1.78 0 0.1
1.8 0 0.1
1.82 0 0.1
1.84 0 0.1
1.86 0 0.1
1.88 0 0.1
1.9 0 0.1
1.92 0 0.1
1.94 0 0.1
1.96 0 0.1
1.98 0 0.1
2 0.0199133 0.1
2 0.0414128 0.1
2 0.0646247 0.1
2 0.0896856 0.1
2 0.116743 0.1
2 0.145955 0.1
2 0.177494 0.1
2 0.211545 0.1
2 0.248309 0.1
2 0.288001 0.1
2 0.330854 0.1
2 0.377121 0.1
2 0.427073 0.1
2 0.481004 0.1
2 0.539231 0.1
2 0.602096 0.1
2 0.669968 0.1
2 0.743247 0.1
2 0.822362 0.1
2 0.907779 0.1
1.9 1 0.1
1.8 1 0.1
1.7 1 0.1
1.6 1 0.1
1.5 1 0.1
1.4 1 0.1
1.3 1 0.1
1.2 1 0.1
1.1 1 0.1
1 1 0.1
0.9 1 0.1
0.8 1 0.1
0.7 1 0.1
0.6 1 0.1
0.5 1 0.1
0.4 1 0.1
0.3 1 0.1
0.2 1 0.1
0.1 1 0.1
3.69793e-12 1 0.1
-0.1 1 0.1
-0.2 1 0.1
-0.3 1 0.1
-0.4 1 0.1
-0.5 1 0.1
-0.6 1 0.1
-0.7 1 0.1
-0.8 1 0.1
-0.9 1 0.1
1.08758 0.0158154 0
-0.0898513 0.0203294 0
0.0966181 0.0537636 0
0.90205 0.0548881 0
1.21055 0.0202058 0
-0.209811 0.0159577 0
1.3305 0.0176902 0
-0.33 0.0173205 0
1.45324 0.0148141 0
-0.448654 0.0159854 0
1.56842 0.0191785 0
-0.569936 0.0166364 0
0.193292 0.0805369 0
0.805051 0.0813623 0
0.709096 0.100353 0
0.288591 0.0996656 0
0.390184 0.111848 0
0.61033 0.111742 0
0.488809 0.116278 0
1.67175 0.0169692 0
-0.67 0.0169809 0
-0.955017 0.454039 0
1.95131 0.44569 0
1.74981 0.0168753 0
-0.75 0.0173205 0
-0.968032 0.266538 0
1.96871 0.266267 0
0.978232 0.0305687 0
0.0208675 0.026451 0
-0.150454 0.91842 0
1.13854 0.907437 0
1.45012 0.904365 0
-0.445923 0.908903 0
-0.853423 0.0157019 0
1.84881 0.016319 0
0.853689 0.915652 0
0.153944 0.912184 0
0.545151 0.914125 0
0.549913 0.115152 0
1.51 0.0173205 0
-0.506989 0.01651 0
1.27 0.0173205 0
1.14976 0.0173333 0
-0.268171 0.0206442 0
-0.150501 0.0153244 0
-0.391384 0.0153993 0
1.38886 0.0171544 0
-0.973694 0.161724 0
1.97441 0.162392 0
-0.945221 0.633523 0
1.94544 0.63312 0
1.91008 0.0186068 0
-0.91 0.0169616 0
-0.030664 0.0194327 0
1.03074 0.0165456 0
-0.966065 0.353575 0
1.96128 0.359765 0
1.93879 0.781254 0
-0.937057 0.781882 0
-0.980746 0.080709 0
1.9772 0.0760699 0
0.058735 0.0409372 0
0.355202 0.913001 0
0.86356 0.0661005 0
0.134223 0.0651111 0
0.941972 0.0397386 0
-0.653034 0.915003 0
1.65328 0.904589 0
0.770126 0.0881325 0
0.232946 0.0902008 0
0.330582 0.105648 0
0.670612 0.108365 0
0.428707 0.116145 0
1.80993 0.016629 0
-0.810168 0.0172178 0
-0.71 0.0173205 0
1.63047 0.0175504 0
1.70842 0.0169661 0
-0.628824 0.0181787 0
-0.949815 0.0133898 0
1.95 0.0173205 0
1.85542 0.907891 0
-0.85 0.913397 0
1.9833 0.0307692 0
-0.983315 0.0309709 0
-0.750025 0.916468 0
-0.701107 0.836904 0
-0.607741 0.836428 0
-0.656448 0.759827 0
-0.572936 0.758144 0
-0.61411 0.691195 0
-0.539534 0.689068 0
-0.578542 0.626111 0
-0.507461 0.624216 0
-0.544001 0.566638 0
-0.477696 0.564279 0
-0.511582 0.51001 0
-0.451689 0.507147 0
-0.481834 0.457732 0
-0.426137 0.454624 0
-0.453236 0.407539 0
-0.398845 0.406233 0
-0.507958 0.409496 0
-0.368427 0.460177 0
-0.344602 0.405209 0
-0.315696 0.447824 0
-0.294128 0.402169 0
-0.262844 0.444518 0
-0.241968 0.388746 0
-0.209878 0.439557 0
-0.185184 0.391135 0
-0.156687 0.437338 0
-0.133719 0.390776 0
-0.104405 0.434306 0
-0.0818745 0.388334 0
-0.0528785 0.431165 0
-0.0305984 0.385639 0
-0.00180552 0.427863 0
0.0194564 0.382608 0
0.0485809 0.42449 0
0.0701962 0.37973 0
0.0985483 0.421145 0
0.119893 0.377339 0
0.147837 0.417911 0
0.172552 0.36751 0
0.197018 0.412597 0
0.221203 0.37141 0
0.24512 0.409646 0
-0.48178 0.364657 0
-0.531053 0.364782 0
-0.0599102 0.344151 0
-0.324909 0.359566 0
0.266181 0.368462 0
0.292132 0.407649 0
0.311992 0.365779 0
0.338918 0.404821 0
0.357567 0.355909 0
0.384723 0.40053 0
0.404675 0.359681 0
0.430617 0.398558 0
0.450457 0.35827 0
0.474237 0.395182 0
0.496746 0.34898 0
0.520548 0.397931 0
0.542071 0.353121 0
0.566011 0.389914 0
0.585061 0.350856 0
0.609352 0.38696 0
0.629069 0.348168 0
0.655979 0.391217 0
0.67472 0.346182 0
0.699346 0.381414 0
0.719333 0.341965 0
0.743718 0.377547 0
0.764028 0.339036 0
0.788201 0.373582 0
0.807659 0.336101 0
0.832821 0.372249 0
0.852309 0.334017 0
0.877785 0.370339 0
0.897875 0.331141 0
0.922904 0.366281 0
0.943173 0.327335 0
0.968282 0.363358 0
0.989029 0.324222 0
1.01391 0.361511 0
1.03465 0.321428 0
1.05949 0.358447 0
1.08389 0.312052 0
1.10575 0.355104 0
1.12889 0.31562 0
1.15067 0.353235 0
1.17157 0.312819 0
1.19626 0.349369 0
1.21618 0.309863 0
1.2416 0.346914 0
1.26131 0.30715 0
1.28691 0.344312 0
1.30571 0.303752 0
1.33144 0.341222 0
1.35018 0.300911 0
1.3758 0.338308 0
1.39501 0.298931 0
1.42015 0.335235 0
1.43904 0.296349 0
1.46355 0.330194 0
1.48256 0.293347 0
1.50685 0.326967 0
1.52589 0.29055 0
1.54996 0.325305 0
1.56909 0.287929 0
[...]
CELL_DATA 3694
SCALARS rho float
LOOKUP_TABLE default
0.734343
0.669217
0.803633
0.812131
0.825915
0.804875
0.791319
0.799406
0.809185
0.802458
0.816512
0.816506
0.839883
0.789023
0.800268
0.749124
0.803125
0.802703
0.759
0.849563
0.816567
0.822327
0.69474
0.803208
0.691296
0.838729
0.719542
0.805656
0.836354
0.798099
0.798306
0.71821
0.803263
0.824089
0.802485
0.796601
0.83671
0.822128
0.824187
0.77808
0.804426
0.817073
0.83369
0.824652
0.804866
0.812015
0.800184
0.660928
0.678108
0.718627
0.801876
0.802841
0.846317
0.801825
0.625227
0.837608
0.802295
0.818341
0.832401
0.753267
0.795977
0.814182
0.841561
0.799019
0.842066
0.830223
0.807081
0.81266
0.736542
0.857855
0.803057
0.807362
0.82235
0.803088
0.823775
0.802812
0.813916
0.799177
0.813087
0.80257
0.711631
0.817762
0.802106
0.776686
0.809069
0.799125
0.817683
0.712779
0.736386
0.824509
0.798474
0.802133
0.819838
0.814771
0.673727
0.806277
0.722167
0.817008
0.811488
0.839409
0.81378
0.761354
0.719339
0.808994
0.808507
0.814178
0.816985
0.806776
0.714528
0.813555
0.799011
0.72037
0.721536
0.822919
0.867503
0.801955
0.799028
0.811289
0.803041
0.801858
0.765426
0.822197
0.819006
0.769059
0.705151
0.75775
0.816659
0.77601
0.843091
0.698353
0.766885
0.800095
0.807692
0.777086
0.800295
0.794924
0.805226
0.802214
0.797441
0.813714
0.812972
0.708874
0.816172
0.812753
0.756884
0.663449
0.675926
0.797565
0.815205
0.812854
0.743038
0.802529
0.551882
0.777845
0.682156
0.762285
0.712604
0.78301
0.604621
0.792747
0.837263
0.643239
0.781635
0.736193
0.843603
0.550159
0.816961
0.799895
0.802269
0.672115
0.801432
0.660986
0.857376
0.530977
0.799642
0.629505
0.871851
0.832736
0.819986
0.745036
0.813326
0.722137
0.826296
0.737329
0.647044
0.802992
0.67103
0.822738
0.801507
0.850497
0.79149
0.705648
0.813893
0.797838
0.740943
0.852306
0.811147
0.848414
0.735722
0.741564
0.770411
0.793144
0.831125
0.833999
0.816633
0.813312
0.667418
0.804395
0.725495
0.80308
0.706342
0.796773
0.79541
0.801274
0.825081
0.762598
0.829821
0.748696
0.825021
0.819227
0.815157
0.852617
0.829202
0.700903
0.826445
0.689195
0.787437
0.809329
0.850665
0.829611
0.807534
0.794032
0.744023
0.816879
0.836182
0.81669
0.71358
0.799108
0.692695
0.791528
0.795266
0.8093
0.635192
0.807306
0.756716
0.797604
0.803019
0.758356
0.814353
0.865201
0.784057
0.6933
0.804184
0.801082
0.645636
0.791552
0.777418
0.802255
0.838544
0.81394
0.606372
0.81438
0.809927
0.796142
0.814664
0.802492
0.815129
0.81397
0.835377
0.755363
0.801663
0.834314
0.809914
0.803059
0.795848
0.814102
0.728355
0.585669
0.816141
0.829392
0.819763
0.80389
0.678651
0.814662
0.814384
0.816175
0.711223
0.796667
0.814208
0.534521
0.80271
0.868826
0.67435
0.755165
0.838194
0.826493
0.813942
0.708387
0.809194
0.814202
0.803608
0.801402
0.811887
0.836228
0.816781
0.766676
0.806805
0.802943
0.645086
0.82036
0.827288
0.669965
0.790329
0.818183
0.820673
0.677581
0.687505
0.820785
0.823492
0.809316
0.733784
0.705699
0.712434
0.731028
0.819667
0.775832
0.803953
0.730846
0.741955
0.821903
0.809536
0.818577
0.769145
0.814352
0.813031
0.816649
0.815269
0.802632
0.80731
0.803384
0.69335
0.802604
0.812541
0.692215
0.806611
0.804901
0.818774
0.785463
0.805703
0.791536
0.81409
0.82035
0.819532
0.797701
0.67839
0.708693
0.7992
0.810659
0.620085
0.803681
0.806949
0.81702
0.742159
0.804069
0.815689
0.810809
0.817133
0.804832
0.79707
0.763557
0.803772
0.843078
0.819534
0.70805
0.803385
0.70044
0.705203
0.802859
0.613327
0.770084
0.784456
0.807868
0.812606
0.824752
0.816448
0.812142
0.819542
0.827712
0.802739
0.76371
0.809538
0.657371
0.8186
0.756424
0.726462
0.684636
0.813172
0.853668
0.818627
0.808243
0.821846
0.814546
0.786543
0.757358
0.808894
0.692259
0.790935
0.843162
0.826387
0.800639
0.8637
0.813152
0.815906
0.816867
0.830826
0.62738
0.798037
0.729709
0.79749
0.735123
0.818489
0.808452
0.786662
0.686191
0.813999
0.829796
0.811137
0.802745
0.803619
0.823791
0.803661
0.708949
0.790081
0.803032
0.813956
0.813325
0.811929
0.871358
0.827261
0.809164
0.831592
0.680907
0.822825
0.837152
0.81551
0.626397
0.81452
0.808956
0.845078
0.820755
0.802835
0.590756
0.809872
0.694237
0.805911
0.802815
0.811732
0.812739
0.824998
0.804882
0.810979
0.815355
0.722495
0.862608
0.801779
0.849794
0.815743
0.571811
0.803719
0.796453
0.810879
0.816995
0.644384
0.802735
0.809417
0.812772
0.806907
0.793653
0.81487
0.816656
0.795514
0.803392
0.820849
0.836528
0.728741
0.806073
0.809187
0.812441
0.681465
0.805003
0.815405
0.798906
0.803865
0.516823
0.832438
0.762761
0.813854
0.817078
0.830378
0.845883
0.815474
0.810865
0.714297
0.79855
0.852072
0.807788
0.709175
0.799918
0.802546
0.871948
0.844889
0.818427
0.801889
0.809453
0.754808
0.814692
0.813602
0.583197
0.802449
0.728018
0.749921
0.802886
0.810662
0.780753
0.820909
0.814518
0.837605
0.81535
0.800299
0.80835
0.738764
0.736005
0.803982
0.807433
0.820556
0.801982
0.751484
0.687182
0.812779
0.814938
0.81378
0.593045
0.812905
0.816176
0.824169
0.802866
0.808115
0.819079
0.811633
0.839004
0.802895
0.812452
0.823213
0.814869
0.817295
0.821057
0.686961
0.78391
0.794308
0.802974
0.847232
0.801988
0.802212
0.63403
0.81037
0.81285
0.810532
0.818424
0.805588
0.812349
0.726347
0.843216
0.708208
0.800129
0.816677
0.807035
0.648428
0.685026
0.81487
0.805485
0.804023
0.78477
0.801449
0.828772
0.81288
0.804801
0.801952
0.811628
0.618467
0.811668
0.802823
0.696226
0.814937
0.614284
0.783293
0.814844
0.837443
0.80529
0.811749
0.7918
0.794993
0.803818
0.80135
0.811301
0.8109
0.808331
0.803162
0.757122
0.803946
0.811775
0.81123
0.815712
0.810802
0.815235
0.814161
0.833907
0.73694
0.80646
0.81496
0.802217
0.540276
0.680138
0.81081
0.812507
0.814486
0.780133
0.80788
0.812346
0.80297
0.799757
0.802548
0.819461
0.820282
0.814245
0.784199
0.807582
0.805044
0.533999
0.773438
0.756602
0.806041
0.734916
0.673346
0.797255
0.767118
0.827235
0.814146
0.813936
0.808178
0.538062
0.815137
0.581744
0.693621
0.824131
0.869481
0.740284
0.815942
0.852541
0.693798
0.814721
0.808818
0.814688
0.807195
0.65506
0.854224
0.73732
0.72856
0.803165
0.804442
0.799309
0.833242
0.814444
0.689886
0.815023
0.80018
0.68924
0.839106
0.797803
0.620647
0.772415
0.815
0.807277
0.814079
0.784263
0.723536
0.769307
0.836721
0.68768
0.81526
0.816777
0.82642
0.764682
0.821502
0.690007
0.804432
0.659472
0.699839
0.800014
0.822312
0.787823
0.813793
0.81468
0.814482
0.813207
0.575098
0.802478
0.81419
0.742665
0.809897
0.814722
0.811075
0.716064
0.693955
0.740623
0.618159
0.807098
0.68036
0.814942
0.801792
0.814253
0.836714
0.68602
0.803991
0.819258
0.832109
0.736566
0.781175
0.764592
0.772496
0.811754
0.557762
0.669647
0.814571
0.805176
0.811737
0.804417
0.711475
0.779756
0.723002
0.760604
0.799331
0.831463
0.812056
0.690381
0.822856
0.817375
0.810248
0.683578
0.694754
0.680205
0.871887
0.8152
0.816031
0.607371
0.710539
0.640094
0.803256
0.800214
0.670704
0.811736
0.824093
0.74806
0.799135
0.728542
0.81345
0.691547
0.813969
0.810304
0.800935
0.803036
0.825171
0.743586
0.815048
0.814213
0.78002
0.549028
0.81585
0.810277
0.757142
0.813089
0.747622
0.80271
0.826005
0.654113
0.817525
0.802652
0.809848
0.581173
0.617828
0.734406
0.806226
0.811444
0.810162
0.820508
0.814351
0.815306
0.703607
0.801833
0.812521
0.82575
0.702636
0.724679
0.811539
0.811376
0.695063
0.814157
0.773907
0.703014
0.811726
0.695053
0.803685
0.661322
0.802848
0.730462
0.665246
0.810531
0.785911
0.743409
0.629888
0.839751
0.820935
0.814311
0.769794
0.813414
0.799939
0.78561
0.799711
0.801568
0.814573
0.730319
0.809544
0.799849
0.818177
0.596674
0.801172
0.812327
0.813297
0.810964
0.811533
0.745428
0.802503
0.763681
0.749948
0.818026
0.644186
0.817969
0.817084
0.803037
0.814983
0.816216
0.718941
0.768463
0.821569
0.784789
0.803631
0.815415
0.87487
0.817458
0.797702
0.816171
0.814609
0.793804
0.817885
0.816348
0.772809
0.695959
0.840822
0.796853
0.803128
0.822415
0.780623
0.817239
0.824644
0.818062
0.816247
0.870295
0.803056
0.804725
0.81766
0.803053
0.814739
0.806803
0.734587
0.814667
0.81913
0.75394
0.706431
0.814557
0.842819
0.822184
0.649462
0.821209
0.773273
0.807712
0.801758
0.728821
0.803091
0.798432
0.815321
0.81634
0.691341
0.702833
0.80208
0.787401
0.801325
0.824467
0.722511
0.814211
0.80229
0.799906
0.823033
0.814713
0.711464
0.814994
0.762606
0.802334
0.832401
0.803246
0.77276
0.797798
0.794568
0.814357
0.567919
0.814158
0.696222
0.674644
0.803353
0.818955
0.81422
0.802446
0.81438
0.807951
0.722837
0.787365
0.856841
0.80298
0.833167
0.80727
0.539157
0.762256
0.779158
0.645658
0.736628
0.576252
0.819738
0.812486
0.813466
0.802347
0.766556
0.683462
0.76366
0.75208
0.781749
0.814128
0.844632
0.818791
0.805687
0.81914
0.823371
0.802513
0.807278
0.702952
0.803012
0.755684
0.808522
0.797544
0.750716
0.821904
0.788184
0.803424
0.789181
0.840573
0.727087
0.800748
0.799179
0.804757
0.616174
0.814756
0.814631
0.821341
0.628542
0.814507
0.814518
0.79827
0.803735
0.793015
0.774592
0.805863
0.794023
0.815266
0.753205
0.803256
0.875082
0.762067
0.747073
0.806453
0.783825
0.842212
0.799347
0.77886
0.814891
0.798045
0.79233
0.80791
0.825046
0.835297
0.799594
0.571625
0.819868
0.827768
0.771864
0.830271
0.837838
0.822326
0.825777
0.807118
0.832495
0.826321
0.783523
0.808639
0.810667
0.805741
0.82214
0.803276
0.827172
0.792721
0.802784
0.805562
0.725406
0.806929
0.558865
0.817333
0.824779
0.828115
0.805444
0.817806
0.823355
0.819215
0.820219
0.838371
0.832642
0.787281
0.800202
0.821124
0.814705
0.816288
0.800015
0.806228
0.865301
0.819432
0.847002
0.814405
0.800448
0.824415
0.79956
0.833219
0.812767
0.814747
0.805129
0.724694
0.802776
0.804377
0.81432
0.803204
0.801612
0.821885
0.804391
0.804031
0.777581
0.819526
0.716258
0.813775
0.779575
0.758224
0.803426
0.813079
0.818799
0.713615
0.8187
0.814997
0.826348
0.816439
0.789191
0.815589
0.846983
0.832652
0.814412
0.811521
0.801417
0.742686
0.675166
0.814305
0.820236
0.770121
0.813726
0.807553
0.811098
0.805214
0.798177
0.775806
0.80228
0.799818
0.841067
0.816722
0.811141
0.806056
0.60149
0.729693
0.802007
0.782698
0.803886
0.815021
0.805698
0.815355
0.779444
0.814382
0.804582
0.809967
0.80351
0.817192
0.803117
0.815133
0.81019
0.815143
0.812142
0.715901
0.813816
0.814936
0.595168
0.814139
0.796531
0.802533
0.85846
0.817719
0.80999
0.872251
0.814567
0.814644
0.816141
0.818181
0.814603
0.763756
0.830096
0.801044
0.802984
0.813895
0.814503
0.816017
0.814343
0.812767
0.822515
0.803797
0.811833
0.808824
0.814782
0.819752
0.81436
0.8111
0.818631
0.808702
0.69774
0.657475
0.80244
0.808187
0.803144
0.810592
0.817726
0.816455
0.802708
0.803429
0.800288
0.800596
0.816224
0.844023
0.817875
0.811132
0.817829
0.817491
0.845613
0.816815
0.820718
0.785299
0.815128
0.806578
0.800828
0.791733
0.810124
0.817836
0.81419
0.814436
0.835786
0.805468
0.811901
0.815944
0.821282
0.803314
0.802987
0.805303
0.810145
0.814311
0.801347
0.802409
0.816194
0.822271
0.800514
0.568126
0.804056
0.796352
0.816861
0.798372
0.802586
0.747511
0.840392
0.802535
0.799459
0.834307
0.829197
0.809982
0.825641
0.800191
0.817165
0.816793
0.818026
0.803411
0.817604
0.726315
0.821687
0.81128
0.799785
0.812759
0.819869
0.798879
0.803778
0.781639
0.814916
0.814594
0.814706
0.817815
0.806192
0.81634
0.815014
0.825511
0.821743
0.837195
0.805676
0.694168
0.817251
0.840239
0.819095
0.804348
0.799776
0.803099
0.815603
0.81386
0.81523
0.743242
0.736659
0.800435
0.802757
0.814899
0.81587
0.798031
0.650528
0.70732
0.807783
0.768945
0.815057
0.701824
0.802947
0.727169
0.8031
0.819588
0.803036
0.816578
0.811992
0.798367
0.808321
0.792795
0.829627
0.814739
0.800899
0.803246
0.815114
0.82101
0.748389
0.822107
0.803511
0.783009
0.814609
0.803605
0.810088
0.813741
0.814181
0.834828
0.792034
0.798651
0.814483
0.758209
0.806331
0.813885
0.800787
0.815175
0.840943
0.801987
0.842822
0.808111
0.789778
0.810973
0.802532
0.851611
0.788169
0.803024
0.8152
0.831067
0.808117
0.812857
0.814897
0.802619
0.80255
0.825703
0.782068
0.813418
0.814472
0.640633
0.814679
0.711665
0.817365
0.837788
0.82387
0.803645
0.813655
0.814309
0.724644
0.813834
0.800403
0.801358
0.800563
0.814921
0.863545
0.800973
0.800655
0.78502
0.840172
0.827716
0.81887
0.812413
0.745921
0.802825
0.803257
0.729818
0.79895
0.71333
0.80963
0.800775
0.675051
0.880049
0.701387
0.771819
0.800765
0.742176
0.808107
0.798527
0.802945
0.658885
0.796502
0.783722
0.798554
0.727014
0.817944
0.821759
0.884392
0.809184
0.830782
0.643569
0.799536
0.786226
0.743033
0.750271
0.768039
0.7043
0.802937
0.798885
0.803011
0.762896
0.625397
0.81116
0.610884
0.820463
0.822318
0.811227
0.736168
0.811457
0.794654
0.8184
0.782336
0.806391
0.796901
0.809144
0.715671
0.801205
0.721274
0.801051
0.79837
0.683818
0.803359
0.814195
0.814261
0.802969
0.760433
0.814038
0.7323
0.689544
0.802102
0.814257
0.874198
0.814151
0.813562
0.880403
0.865204
0.830444
0.718291
0.801737
0.811618
0.820829
0.797274
0.678866
0.721726
0.673545
0.802258
0.705153
0.767802
0.799057
0.61313
0.688004
0.83567
0.772814
0.744399
0.829909
0.758344
0.769033
0.622338
0.73035
0.784398
0.819023
0.869283
0.837366
0.814626
0.793936
0.799325
0.714652
0.814466
0.692911
0.796788
0.814231
0.783284
0.761778
0.801007
0.782093
0.802017
0.800464
0.810815
0.810805
0.866894
0.563123
0.535306
0.802182
0.806335
0.696935
0.809592
0.802631
0.837078
0.803322
0.80222
0.56488
0.551192
0.808145
0.811472
0.814374
0.72475
0.803042
0.80985
0.68296
0.810476
0.802544
0.812857
0.803079
0.799939
0.80209
0.813304
0.802827
0.816749
0.803049
0.861788
0.813662
0.802366
0.721203
0.668354
0.814433
0.582873
0.812038
0.809718
0.835402
0.812984
0.802864
0.810469
0.812351
0.812179
0.813975
0.801424
0.853426
0.856138
0.801973
0.653132
0.807667
0.822127
0.799246
0.803047
0.819305
0.732568
0.803157
0.824632
0.820661
0.81478
0.814262
0.76597
0.745406
0.800429
0.833486
0.802467
0.813593
0.804158
0.803352
0.804693
0.812984
0.808533
0.798308
0.806641
0.805698
0.824294
0.806455
0.806056
0.816658
0.806535
0.803293
0.812077
0.80286
0.802714
0.805589
0.807515
0.812219
0.773099
0.805117
0.802583
0.814137
0.799422
0.80357
0.806625
0.83128
0.804825
0.647535
0.800551
0.814467
0.80446
0.814501
0.762398
0.814226
0.749773
0.803503
0.802033
0.803872
0.818644
0.850645
0.804172
0.803171
0.746936
0.828986
0.814135
0.819593
0.824659
0.813989
0.735376
0.817223
0.720413
0.800848
0.826946
0.802217
0.697535
0.825161
0.813997
0.815394
0.823397
0.814578
0.772822
0.816234
0.645395
0.708456
0.814232
0.82186
0.672793
0.818436
0.657472
0.820651
0.806418
0.815715
0.803081
0.805204
0.814121
0.831183
0.824842
0.669685
0.812216
0.841557
0.781082
0.845854
0.8001
0.703799
0.837997
0.818666
0.835005
0.685741
0.680461
0.832305
0.65353
0.829989
0.814252
0.82794
0.806068
0.826205
0.787372
0.824685
0.823278
0.705721
0.865359
0.82207
0.821048
0.82336
0.758461
0.802689
0.520579
0.802462
0.820157
0.812728
0.804521
0.825251
0.814175
0.797641
0.819374
0.802877
0.67688
0.792139
0.833856
0.81358
0.714337
0.798582
0.821317
0.573411
0.813948
0.814793
0.802408
0.809691
0.724862
0.817278
0.802922
0.80334
0.795736
0.793291
0.797682
0.794535
0.80321
0.811573
0.81908
0.813311
0.570509
0.892832
0.704135
0.797669
0.738537
0.791207
0.814153
0.814912
0.814789
0.602753
0.818313
0.816977
0.803698
0.81732
0.83618
0.839173
0.782612
0.798259
0.799292
0.723614
0.751816
0.814441
0.763388
0.814934
0.818353
0.814008
0.813262
0.801834
0.774607
0.811824
0.815344
0.727632
0.810363
0.815117
0.817392
0.807581
0.80924
0.763927
0.81377
0.807962
0.803052
0.807209
0.614804
0.806271
0.804119
0.805696
0.820663
0.845234
0.804486
0.77349
0.80506
0.77127
0.819605
0.805163
0.811936
0.814161
0.849843
0.803261
0.743936
0.819565
0.814438
0.726297
0.800573
0.815488
0.758123
0.811808
0.567233
0.80635
0.684811
0.800873
0.810628
0.811729
0.816498
0.804016
0.815121
0.817034
0.800802
0.803979
0.843978
0.815408
0.795991
0.815509
0.801573
0.801138
0.80007
0.801024
0.806494
0.813803
0.801389
0.7692
0.817732
0.812444
0.808657
0.814172
0.584874
0.80313
0.813455
0.814493
0.786847
0.747449
0.719176
0.811673
0.814017
0.825359
0.788701
0.601278
0.770952
0.638027
0.816002
0.745119
0.811392
0.829713
0.692989
0.799444
0.833353
0.748456
0.800427
0.80305
0.814812
0.801807
0.698002
0.8005
0.545927
0.801552
0.80228
0.802059
0.557419
0.802813
0.803285
0.803041
0.727834
0.736724
0.803289
0.775868
0.814855
0.721383
0.705862
0.814237
0.801159
0.751936
0.853819
0.813023
0.811454
0.668242
0.802638
0.800376
0.800265
0.802338
0.655227
0.803085
0.814502
0.653191
0.684427
0.805588
0.789905
0.81432
0.822716
0.814246
0.814445
0.815703
0.80351
0.814399
0.814188
0.812916
0.828905
0.802235
0.80163
0.810103
0.725446
0.809367
0.814043
0.862494
0.810462
0.636638
0.773895
0.802028
0.7758
0.815958
0.811071
0.82958
0.813731
0.864296
0.801632
0.813811
0.59189
0.815276
0.833413
0.80281
0.813438
0.623406
0.81467
0.80261
0.815915
0.802091
0.816804
0.815197
0.754562
0.803408
0.803056
0.834669
0.861592
0.81938
0.815326
0.725316
0.74041
0.802375
0.802876
0.811687
0.817363
0.799313
0.802709
0.818826
0.805864
0.807331
0.739395
0.802586
0.816819
0.813265
0.767727
0.760349
0.811043
0.796211
0.856662
0.717961
0.834119
0.81029
0.712
0.799482
0.813667
0.787276
0.800517
0.799527
0.814264
0.7767
0.774304
0.81258
0.696508
0.798384
0.764846
0.814116
0.816537
0.801823
0.78698
0.737628
0.751545
0.773413
0.813817
0.818254
0.805112
0.653204
0.801562
0.795184
0.777585
0.809523
0.812153
0.799335
0.802869
0.63134
0.803725
0.804352
0.850915
0.803554
0.808803
0.832836
0.805036
0.809406
0.851855
0.610651
0.803884
0.815389
0.805224
0.804839
0.805522
0.804415
0.804508
0.804034
0.805604
0.806069
0.723621
0.805492
0.806754
0.806187
0.814382
0.807892
0.817933
0.803019
0.803373
0.813951
0.814137
0.809293
0.803287
0.816004
0.812833
0.80921
0.815288
0.707233
0.813139
0.83102
0.814127
0.853908
0.749058
0.807406
0.814162
0.800442
0.594463
0.803138
0.771779
0.821248
0.626066
0.814796
0.829012
0.813853
0.811265
0.801921
0.826625
0.818687
0.803403
0.764171
0.816356
0.758158
0.544886
0.813497
0.69616
0.693756
0.820169
0.827112
0.826906
0.815947
0.847143
0.567655
0.876168
0.80504
0.825391
0.8237
0.812235
0.680343
0.814037
0.822141
0.815647
0.800645
0.773497
0.822039
0.563574
0.812521
0.842762
0.802995
0.839175
0.820885
0.803214
0.667469
0.842832
0.819812
0.835962
0.800653
0.813217
0.802977
0.833306
0.80267
0.813129
0.830858
0.828691
0.821801
0.823699
0.830509
0.738994
0.659309
0.561231
0.826826
0.825283
0.766772
0.755771
0.805725
0.823836
0.84651
0.588892
0.822538
0.821432
0.820507
0.818952
0.803732
0.820563
0.655567
0.74327
0.819692
0.797
0.869483
0.889923
0.775979
0.803298
0.668534
0.835213
0.729125
0.716951
0.81891
0.801428
0.783097
0.658115
0.802028
0.814273
0.78857
0.709935
0.799865
0.816935
0.797751
0.673759
0.823067
0.792555
0.814985
0.832791
0.814934
0.795062
0.815445
0.815198
0.785563
0.8038
0.708988
0.840322
0.792803
0.810444
0.781556
0.804191
0.693992
0.800632
0.813265
0.811902
0.810736
0.80921
0.808119
0.807362
0.805736
0.804627
0.806545
0.723592
0.805177
0.801275
0.79568
0.803145
0.844142
0.713632
0.803088
0.775787
0.883768
0.8538
0.797803
0.722146
0.803069
0.797494
0.71779
0.803156
0.801471
0.733092
0.803469
0.789286
0.796909
0.800866
0.736676
0.779001
0.803885
0.746273
0.763963
0.768644
0.801189
0.813925
0.808392
0.757773
0.750753
0.799344
0.812911
0.803195
0.79244
0.800932
0.928572
0.86028
0.817102
0.814043
0.723716
0.843955
0.746923
0.825737
0.81608
0.897981
0.814223
0.796765
0.586886
0.814259
0.79688
0.814299
0.797305
0.845227
0.517836
0.832359
0.801397
0.805389
0.804655
0.803549
0.855305
0.801091
0.816709
0.700748
0.645811
0.665717
0.814349
0.499751
0.79733
0.720756
0.841468
0.81424
0.55594
0.801582
0.81376
0.813421
0.718226
0.801478
0.5226
0.796778
0.814496
0.796897
0.802555
0.797139
0.814677
0.833551
0.803202
0.797849
0.815088
0.798116
0.815245
0.813545
0.7984
0.815422
0.812996
0.815628
0.798497
0.815858
0.678607
0.79869
0.816115
0.802967
0.798879
0.816374
0.696472
0.814257
0.797923
0.814184
0.797912
0.809348
0.837807
0.860981
0.800759
0.799967
0.817333
0.815107
0.79961
0.799233
0.862931
0.811756
0.816998
0.8098
0.849562
0.827996
0.815969
0.825197
0.845817
0.814192
0.80109
0.818592
0.81118
0.801514
0.814094
0.799685
0.807065
0.782663
0.806301
0.814359