# vtk DataFile Version 1.0
unstructured grid
ascii
DATASET UNSTRUCTURED_GRID
points 3920 float
-1 0 0
-1 1 0
2 0 0
2 1 0
0 0 0
1 0 0
-1 1 0.1
-1 0 0.1
0 0 0.1
1 0 0.1
2 0 0.1
2 1 0.1
-0.98 0 0
-0.96 0 0
-0.94 0 0
-0.92 0 0
-0.9 0 0
-0.88 0 0
-0.86 0 0
-0.84 0 0
-0.82 0 0
-0.8 0 0
-0.78 0 0
-0.76 0 0
-0.74 0 0
-0.72 0 0
-0.7 0 0
-0.68 0 0
-0.66 0 0
-0.64 0 0
-0.62 0 0
-0.6 0 0
-0.58 0 0
-0.56 0 0
-0.54 0 0
-0.52 0 0
-0.5 0 0
-0.48 0 0
-0.46 0 0
-0.44 0 0
-0.42 0 0
-0.4 0 0
-0.38 0 0
-0.36 0 0
-0.34 0 0
-0.32 0 0
-0.3 0 0
-0.28 0 0
-0.26 0 0
-0.24 0 0
-0.22 0 0
-0.2 0 0
-0.18 0 0
-0.16 0 0
-0.14 0 0
-0.12 0 0
-0.1 0 0
-0.08 0 0
-0.06 0 0
-0.04 0 0
-0.02 0 0
1.02 0 0
1.04 0 0
1.06 0 0
1.08 0 0
1.1 0 0
1.12 0 0
1.14 0 0
1.16 0 0
1.18 0 0
1.2 0 0
1.22 0 0
1.24 0 0
1.26 0 0
1.28 0 0
1.3 0 0
1.32 0 0
1.34 0 0
1.36 0 0
1.38 0 0
1.4 0 0
1.42 0 0
1.44 0 0
1.46 0 0
1.48 0 0
1.5 0 0
1.52 0 0
1.54 0 0
1.56 0 0
1.58 0 0
1.6 0 0
1.62 0 0
1.64 0 0
1.66 0 0
1.68 0 0
1.7 0 0
1.72 0 0
1.74 0 0
1.76 0 0
1.78 0 0
1.8 0 0
1.82 0 0
1.84 0 0
1.86 0 0
1.88 0 0
1.9 0 0
1.92 0 0
1.94 0 0
1.96 0 0
1.98 0 0
2 0.0199133 0
2 0.0414128 0
2 0.0646247 0
2 0.0896856 0
2 0.116743 0
2 0.145955 0
2 0.177494 0
2 0.211545 0
2 0.248309 0
2 0.288001 0
2 0.330854 0
2 0.377121 0
2 0.427073 0
2 0.481004 0
2 0.539231 0
2 0.602096 0
2 0.669968 0
2 0.743247 0
2 0.822362 0
2 0.907779 0
1.9 1 0
1.8 1 0
1.7 1 0
1.6 1 0
1.5 1 0
1.4 1 0
1.3 1 0
1.2 1 0
1.1 1 0
1 1 0
0.9 1 0
0.8 1 0
0.7 1 0
0.6 1 0
0.5 1 0
0.4 1 0
0.3 1 0
0.2 1 0
0.1 1 0
3.69793e-12 1 0
-0.1 1 0
-0.2 1 0
-0.3 1 0
-0.4 1 0
-0.5 1 0
-0.6 1 0
-0.7 1 0
-0.8 1 0
-0.9 1 0
-1 0.907779 0
-1 0.822362 0
-1 0.743247 0
-1 0.669968 0
-1 0.602096 0
-1 0.539231 0
-1 0.481004 0
-1 0.427073 0
-1 0.377121 0
-1 0.330854 0
-1 0.288001 0
-1 0.248309 0
-1 0.211545 0
-1 0.177494 0
-1 0.145955 0
-1 0.116743 0
-1 0.0896856 0
-1 0.0646247 0
-1 0.0414128 0
-1 0.0199133 0
0.0182781 0.00745351 0
0.0366672 0.0146286 0
0.0551632 0.0215237 0
0.0737617 0.0281372 0
0.0924585 0.0344675 0
0.111249 0.0405131 0
0.13013 0.0462728 0
0.149095 0.0517451 0
0.168142 0.0569289 0
0.187265 0.0618228 0
0.20646 0.0664258 0
0.225723 0.0707368 0
0.245049 0.0747549 0
0.264434 0.078479 0
0.283873 0.0819084 0
0.303362 0.0850422 0
0.322896 0.0878798 0
0.342472 0.0904204 0
0.362083 0.0926635 0
0.381726 0.0946086 0
0.401397 0.0962552 0
0.42109 0.0976029 0
0.440802 0.0986514 0
0.460527 0.0994006 0
0.480261 0.0998501 0
0.5 0.1 0
0.519739 0.0998501 0
0.539473 0.0994006 0
0.559198 0.0986514 0
0.57891 0.0976029 0
0.598603 0.0962552 0
0.618274 0.0946086 0
0.637917 0.0926635 0
0.657528 0.0904204 0
0.677104 0.0878798 0
0.696638 0.0850422 0
0.716127 0.0819084 0
0.735566 0.078479 0
0.754951 0.0747549 0
0.774277 0.0707368 0
0.79354 0.0664258 0
0.812735 0.0618228 0
0.831858 0.0569289 0
0.850905 0.0517451 0
0.86987 0.0462728 0
0.888751 0.0405131 0
0.907542 0.0344675 0
0.926238 0.0281372 0
0.944837 0.0215237 0
0.963333 0.0146286 0
0.981722 0.00745351 0
-1 0.907779 0.1
-1 0.822362 0.1
-1 0.743247 0.1
-1 0.669968 0.1
-1 0.602096 0.1
-1 0.539231 0.1
-1 0.481004 0.1
-1 0.427073 0.1
-1 0.377121 0.1
-1 0.330854 0.1
-1 0.288001 0.1
-1 0.248309 0.1
-1 0.211545 0.1
-1 0.177494 0.1
-1 0.145955 0.1
-1 0.116743 0.1
-1 0.0896856 0.1
-1 0.0646247 0.1
-1 0.0414128 0.1
-1 0.0199133 0.1
-0.98 0 0.1
-0.96 0 0.1
-0.94 0 0.1
-0.92 0 0.1
-0.9 0 0.1
-0.88 0 0.1
-0.86 0 0.1
-0.84 0 0.1
-0.82 0 0.1
-0.8 0 0.1
-0.78 0 0.1
-0.76 0 0.1
-0.74 0 0.1
-0.72 0 0.1
-0.7 0 0.1
-0.68 0 0.1
-0.66 0 0.1
-0.64 0 0.1
-0.62 0 0.1
-0.6 0 0.1
-0.58 0 0.1
-0.56 0 0.1
-0.54 0 0.1
-0.52 0 0.1
-0.5 0 0.1
-0.48 0 0.1
-0.46 0 0.1
-0.44 0 0.1
-0.42 0 0.1
-0.4 0 0.1
-0.38 0 0.1
-0.36 0 0.1
-0.34 0 0.1
-0.32 0 0.1
-0.3 0 0.1
-0.28 0 0.1
-0.26 0 0.1
-0.24 0 0.1
-0.22 0 0.1
-0.2 0 0.1
-0.18 0 0.1
-0.16 0 0.1
-0.14 0 0.1
-0.12 0 0.1
-0.1 0 0.1
-0.08 0 0.1
-0.06 0 0.1
-0.04 0 0.1
-0.02 0 0.1
0.0182781 0.00745351 0.1
0.0366672 0.0146286 0.1
0.0551632 0.0215237 0.1
0.0737617 0.0281372 0.1
0.0924585 0.0344675 0.1
0.111249 0.0405131 0.1
0.13013 0.0462728 0.1
0.149095 0.0517451 0.1
0.168142 0.0569289 0.1
0.187265 0.0618228 0.1
0.20646 0.0664258 0.1
0.225723 0.0707368 0.1
0.245049 0.0747549 0.1
0.264434 0.078479 0.1
0.283873 0.0819084 0.1
0.303362 0.0850422 0.1
0.322896 0.0878798 0.1
0.342472 0.0904204 0.1
0.362083 0.0926635 0.1
0.381726 0.0946086 0.1
0.401397 0.0962552 0.1
0.42109 0.0976029 0.1
0.440802 0.0986514 0.1
0.460527 0.0994006 0.1
0.480261 0.0998501 0.1
0.5 0.1 0.1
0.519739 0.0998501 0.1
0.539473 0.0994006 0.1
0.559198 0.0986514 0.1
0.57891 0.0976029 0.1
0.598603 0.0962552 0.1
0.618274 0.0946086 0.1
0.637917 0.0926635 0.1
0.657528 0.0904204 0.1
0.677104 0.0878798 0.1
0.696638 0.0850422 0.1
0.716127 0.0819084 0.1
0.735566 0.078479 0.1
0.754951 0.0747549 0.1
0.774277 0.0707368 0.1
0.79354 0.0664258 0.1
0.812735 0.0618228 0.1
0.831858 0.0569289 0.1
0.850905 0.0517451 0.1
0.86987 0.0462728 0.1
0.888751 0.0405131 0.1
0.907542 0.0344675 0.1
0.926238 0.0281372 0.1
0.944837 0.0215237 0.1
0.963333 0.0146286 0.1
0.981722 0.00745351 0.1
1.02 0 0.1
1.04 0 0.1
1.06 0 0.1
1.08 0 0.1
1.1 0 0.1
1.12 0 0.1
1.14 0 0.1
1.16 0 0.1
1.18 0 0.1
1.2 0 0.1
1.22 0 0.1
1.24 0 0.1
1.26 0 0.1
1.28 0 0.1
1.3 0 0.1
1.32 0 0.1
1.34 0 0.1
1.36 0 0.1
1.38 0 0.1
1.4 0 0.1
1.42 0 0.1
1.44 0 0.1
1.46 0 0.1
1.48 0 0.1
1.5 0 0.1
1.52 0 0.1
1.54 0 0.1
1.56 0 0.1
1.58 0 0.1
1.6 0 0.1
1.62 0 0.1
1.64 0 0.1
1.66 0 0.1
1.68 0 0.1
1.7 0 0.1
1.72 0 0.1
1.74 0 0.1
1.76 0 0.1
1.78 0 0.1
1.8 0 0.1
1.82 0 0.1
1.84 0 0.1
1.86 0 0.1
1.88 0 0.1
1.9 0 0.1
1.92 0 0.1
1.94 0 0.1
1.96 0 0.1
1.98 0 0.1
2 0.0199133 0.1
2 0.0414128 0.1
2 0.0646247 0.1
2 0.0896856 0.1
2 0.116743 0.1
2 0.145955 0.1
2 0.177494 0.1
2 0.211545 0.1
2 0.248309 0.1
2 0.288001 0.1
2 0.330854 0.1
2 0.377121 0.1
2 0.427073 0.1
2 0.481004 0.1
2 0.539231 0.1
2 0.602096 0.1
2 0.669968 0.1
2 0.743247 0.1
2 0.822362 0.1
2 0.907779 0.1
1.9 1 0.1
1.8 1 0.1
1.7 1 0.1
1.6 1 0.1
1.5 1 0.1
1.4 1 0.1
1.3 1 0.1
1.2 1 0.1
1.1 1 0.1
1 1 0.1
0.9 1 0.1
0.8 1 0.1
0.7 1 0.1
0.6 1 0.1
0.5 1 0.1
0.4 1 0.1
0.3 1 0.1
0.2 1 0.1
0.1 1 0.1
3.69793e-12 1 0.1
-0.1 1 0.1
-0.2 1 0.1
-0.3 1 0.1
-0.4 1 0.1
-0.5 1 0.1
-0.6 1 0.1
-0.7 1 0.1
-0.8 1 0.1
-0.9 1 0.1
1.08758 0.0158154 0
-0.0898513 0.0203294 0
0.0966181 0.0537636 0
0.90205 0.0548881 0
1.21055 0.0202058 0
-0.209811 0.0159577 0
1.3305 0.0176902 0
-0.33 0.0173205 0
1.45324 0.0148141 0
-0.448654 0.0159854 0
1.56842 0.0191785 0
-0.569936 0.0166364 0
0.193292 0.0805369 0
0.805051 0.0813623 0
0.709096 0.100353 0
0.288591 0.0996656 0
0.390184 0.111848 0
0.61033 0.111742 0
0.488809 0.116278 0
1.67175 0.0169692 0
-0.67 0.0169809 0
-0.955017 0.454039 0
1.95131 0.44569 0
1.74981 0.0168753 0
-0.75 0.0173205 0
-0.968032 0.266538 0
1.96871 0.266267 0
0.978232 0.0305687 0
0.0208675 0.026451 0
-0.150454 0.91842 0
1.13854 0.907437 0
1.45012 0.904365 0
-0.445923 0.908903 0
-0.853423 0.0157019 0
1.84881 0.016319 0
0.853689 0.915652 0
0.153944 0.912184 0
0.545151 0.914125 0
0.549913 0.115152 0
1.51 0.0173205 0
-0.506989 0.01651 0
1.27 0.0173205 0
1.14976 0.0173333 0
-0.268171 0.0206442 0
-0.150501 0.0153244 0
-0.391384 0.0153993 0
1.38886 0.0171544 0
-0.973694 0.161724 0
1.97441 0.162392 0
-0.945221 0.633523 0
1.94544 0.63312 0
1.91008 0.0186068 0
-0.91 0.0169616 0
-0.030664 0.0194327 0
1.03074 0.0165456 0
-0.966065 0.353575 0
1.96128 0.359765 0
1.93879 0.781254 0
-0.937057 0.781882 0
-0.980746 0.080709 0
1.9772 0.0760699 0
0.058735 0.0409372 0
0.355202 0.913001 0
0.86356 0.0661005 0
0.134223 0.0651111 0
0.941972 0.0397386 0
-0.653034 0.915003 0
1.65328 0.904589 0
0.770126 0.0881325 0
0.232946 0.0902008 0
0.330582 0.105648 0
0.670612 0.108365 0
0.428707 0.116145 0
1.80993 0.016629 0
-0.810168 0.0172178 0
-0.71 0.0173205 0
1.63047 0.0175504 0
1.70842 0.0169661 0
-0.628824 0.0181787 0
-0.949815 0.0133898 0
1.95 0.0173205 0
1.85542 0.907891 0
-0.85 0.913397 0
1.9833 0.0307692 0
-0.983315 0.0309709 0
-0.750025 0.916468 0
-0.701107 0.836904 0
-0.607741 0.836428 0
-0.656448 0.759827 0
-0.572936 0.758144 0
-0.61411 0.691195 0
-0.539534 0.689068 0
-0.578542 0.626111 0
-0.507461 0.624216 0
-0.544001 0.566638 0
-0.477696 0.564279 0
-0.511582 0.51001 0
-0.451689 0.507147 0
-0.481834 0.457732 0
-0.426137 0.454624 0
-0.453236 0.407539 0
-0.398845 0.406233 0
-0.507958 0.409496 0
-0.368427 0.460177 0
-0.344602 0.405209 0
-0.315696 0.447824 0
-0.294128 0.402169 0
-0.262844 0.444518 0
-0.241968 0.388746 0
-0.209878 0.439557 0
-0.185184 0.391135 0
-0.156687 0.437338 0
-0.133719 0.390776 0
-0.104405 0.434306 0
-0.0818745 0.388334 0
-0.0528785 0.431165 0
-0.0305984 0.385639 0
-0.00180552 0.427863 0
0.0194564 0.382608 0
0.0485809 0.42449 0
0.0701962 0.37973 0
0.0985483 0.421145 0
0.119893 0.377339 0
0.147837 0.417911 0
0.172552 0.36751 0
0.197018 0.412597 0
0.221203 0.37141 0
0.24512 0.409646 0
-0.48178 0.364657 0
-0.531053 0.364782 0
-0.0599102 0.344151 0
-0.324909 0.359566 0
0.266181 0.368462 0
0.292132 0.407649 0
0.311992 0.365779 0
0.338918 0.404821 0
0.357567 0.355909 0
0.384723 0.40053 0
0.404675 0.359681 0
0.430617 0.398558 0
0.450457 0.35827 0
0.474237 0.395182 0
0.496746 0.34898 0
0.520548 0.397931 0
0.542071 0.353121 0
0.566011 0.389914 0
0.585061 0.350856 0
0.609352 0.38696 0
0.629069 0.348168 0
0.655979 0.391217 0
0.67472 0.346182 0
0.699346 0.381414 0
0.719333 0.341965 0
0.743718 0.377547 0
0.764028 0.339036 0
0.788201 0.373582 0
0.807659 0.336101 0
0.832821 0.372249 0
0.852309 0.334017 0
0.877785 0.370339 0
0.897875 0.331141 0
0.922904 0.366281 0
0.943173 0.327335 0
0.968282 0.363358 0
0.989029 0.324222 0
1.01391 0.361511 0
1.03465 0.321428 0
1.05949 0.358447 0
1.08389 0.312052 0
1.10575 0.355104 0
1.12889 0.31562 0
1.15067 0.353235 0
1.17157 0.312819 0
1.19626 0.349369 0
1.21618 0.309863 0
1.2416 0.346914 0
1.26131 0.30715 0
1.28691 0.344312 0
1.30571 0.303752 0
1.33144 0.341222 0
1.35018 0.300911 0
1.3758 0.338308 0
1.39501 0.298931 0
1.42015 0.335235 0
1.43904 0.296349 0
1.46355 0.330194 0
1.48256 0.293347 0
1.50685 0.326967 0
1.52589 0.29055 0
1.54996 0.325305 0
1.56909 0.287929 0
[...]
CELL_DATA 3694
SCALARS rho float
LOOKUP_TABLE default
0.734364
0.669254
0.803635
0.812151
0.825927
0.804879
0.791324
0.799424
0.809203
0.802462
0.81653
0.816524
0.839896
0.789029
0.800282
0.749157
0.803127
0.802708
0.759027
0.84957
0.816581
0.822342
0.694809
0.803211
0.691366
0.838746
0.719554
0.805675
0.836375
0.798113
0.798319
0.718214
0.803268
0.824105
0.80249
0.796619
0.836718
0.822143
0.824199
0.778076
0.80443
0.817075
0.833709
0.824669
0.804869
0.812035
0.800206
0.661128
0.678138
0.718684
0.801879
0.802842
0.846324
0.801828
0.625353
0.837616
0.802301
0.818355
0.832401
0.753285
0.795982
0.814205
0.84157
0.799038
0.842076
0.830235
0.807093
0.812681
0.736535
0.857862
0.803058
0.807366
0.822365
0.803091
0.823789
0.802814
0.81392
0.799189
0.813105
0.802573
0.711694
0.817779
0.802109
0.776681
0.809086
0.799137
0.817697
0.712841
0.73637
0.82452
0.79849
0.802137
0.819857
0.814785
0.673756
0.806281
0.722189
0.817025
0.811507
0.839419
0.8138
0.761381
0.719304
0.809011
0.808524
0.814201
0.817002
0.80678
0.714559
0.813573
0.799015
0.720426
0.721505
0.82293
0.867509
0.801959
0.799043
0.811308
0.803043
0.801862
0.76543
0.822198
0.819021
0.769077
0.705121
0.757768
0.816676
0.776031
0.843099
0.698409
0.766889
0.800099
0.807696
0.777098
0.800317
0.794939
0.80523
0.802217
0.797458
0.813734
0.81299
0.708913
0.81619
0.812774
0.756901
0.663637
0.675955
0.797583
0.815225
0.812858
0.743074
0.802533
0.551985
0.777861
0.682274
0.762312
0.712627
0.783027
0.604668
0.792752
0.837263
0.643277
0.781644
0.736214
0.843613
0.550259
0.816963
0.799909
0.802289
0.672145
0.801434
0.661029
0.857384
0.53116
0.799646
0.629636
0.871874
0.832748
0.820001
0.745032
0.813344
0.722121
0.82631
0.737324
0.647081
0.802994
0.671252
0.822753
0.80151
0.850506
0.791494
0.705585
0.813916
0.797855
0.740974
0.852324
0.811151
0.848421
0.735743
0.741602
0.770423
0.793159
0.831138
0.833999
0.816636
0.813332
0.667464
0.804399
0.725531
0.803082
0.706415
0.796786
0.795414
0.801278
0.825095
0.762624
0.829834
0.748715
0.825035
0.819241
0.815177
0.85263
0.829202
0.700973
0.826459
0.689126
0.787444
0.809345
0.850673
0.829624
0.807552
0.794043
0.744058
0.816897
0.836192
0.816708
0.713619
0.799124
0.692783
0.791545
0.79527
0.809317
0.635266
0.80731
0.75674
0.797607
0.80302
0.758377
0.814375
0.865221
0.784055
0.693252
0.804187
0.8011
0.645674
0.79157
0.777429
0.802257
0.838551
0.813962
0.60642
0.814401
0.809925
0.79616
0.814684
0.802495
0.815132
0.813983
0.835377
0.755383
0.801667
0.834326
0.809931
0.803061
0.795853
0.814125
0.728349
0.58572
0.816159
0.829391
0.819778
0.803902
0.678741
0.814682
0.814405
0.81619
0.71129
0.79668
0.814231
0.534713
0.802712
0.868831
0.674549
0.755195
0.838204
0.826504
0.813964
0.708334
0.809197
0.814225
0.803612
0.801408
0.811891
0.836236
0.816798
0.766689
0.806809
0.802945
0.645123
0.820376
0.827301
0.670011
0.790346
0.8182
0.820672
0.677618
0.687368
0.820801
0.823506
0.80932
0.733764
0.70573
0.712466
0.731077
0.819683
0.775853
0.803957
0.730895
0.741961
0.821918
0.809553
0.818598
0.769163
0.814374
0.813052
0.816666
0.815287
0.802634
0.807314
0.803399
0.69329
0.802606
0.812543
0.692306
0.806629
0.804904
0.818791
0.785471
0.805706
0.791541
0.814113
0.820366
0.819548
0.79772
0.678493
0.708764
0.799203
0.810662
0.620167
0.803685
0.806967
0.817023
0.74219
0.804072
0.815706
0.810828
0.817151
0.804836
0.797075
0.763579
0.803792
0.843088
0.81955
0.707998
0.80339
0.700497
0.70518
0.802863
0.613368
0.770097
0.784463
0.807867
0.812628
0.824765
0.816466
0.812155
0.819558
0.827725
0.80274
0.763732
0.809542
0.657419
0.818616
0.756444
0.726499
0.684749
0.813193
0.853674
0.818643
0.80826
0.821849
0.814566
0.786551
0.757382
0.808912
0.692285
0.790941
0.84317
0.826388
0.800642
0.863707
0.813156
0.815922
0.816884
0.830827
0.627453
0.798053
0.729759
0.797508
0.735115
0.818502
0.808456
0.786677
0.686131
0.814021
0.829796
0.811156
0.802749
0.803621
0.823805
0.803665
0.709018
0.790085
0.803034
0.813978
0.813342
0.811947
0.871363
0.827274
0.809168
0.831604
0.680944
0.82284
0.837163
0.815529
0.626438
0.814541
0.808959
0.845087
0.82077
0.802837
0.590806
0.809875
0.694293
0.805914
0.802816
0.811748
0.81276
0.825
0.804885
0.810983
0.815373
0.722551
0.862615
0.801783
0.849803
0.81576
0.571893
0.803722
0.796457
0.810898
0.817013
0.644573
0.802737
0.809421
0.812774
0.80691
0.793658
0.81489
0.816673
0.795531
0.803412
0.820864
0.836537
0.728792
0.806077
0.809205
0.812459
0.681494
0.805007
0.815421
0.798918
0.803869
0.517022
0.83245
0.762787
0.813876
0.817095
0.83039
0.845891
0.815491
0.810884
0.714358
0.798565
0.852078
0.807806
0.709199
0.799926
0.802548
0.871953
0.844899
0.818444
0.801892
0.809456
0.754827
0.814711
0.813606
0.583254
0.802453
0.728067
0.749925
0.802891
0.810681
0.780757
0.820923
0.814538
0.837621
0.815366
0.800302
0.808366
0.738752
0.736029
0.803986
0.80745
0.82057
0.801988
0.751489
0.687236
0.8128
0.814942
0.813784
0.593099
0.812926
0.816189
0.824183
0.80287
0.80813
0.819094
0.811636
0.839014
0.802897
0.812455
0.823226
0.814889
0.817307
0.821069
0.687028
0.783916
0.794322
0.802978
0.847241
0.80199
0.802226
0.634069
0.810383
0.812868
0.810535
0.81844
0.805592
0.81237
0.726368
0.843226
0.708169
0.800138
0.816695
0.807039
0.648612
0.684932
0.814891
0.805489
0.804028
0.784789
0.801451
0.828785
0.812897
0.804805
0.801956
0.811646
0.618508
0.811688
0.802828
0.696313
0.814953
0.614415
0.783313
0.814862
0.837451
0.805307
0.811769
0.791819
0.795007
0.803824
0.801352
0.81132
0.810903
0.808349
0.803164
0.757129
0.803949
0.811795
0.81125
0.815726
0.810822
0.815254
0.814182
0.833915
0.736983
0.806463
0.814979
0.802223
0.540353
0.680215
0.810826
0.812527
0.814506
0.780136
0.807898
0.812361
0.802975
0.799761
0.802552
0.819473
0.820295
0.814266
0.784218
0.807597
0.805061
0.534522
0.773451
0.756627
0.806053
0.734936
0.673438
0.797273
0.76713
0.827248
0.814169
0.813958
0.808181
0.538138
0.815155
0.5818
0.693708
0.824146
0.869485
0.740323
0.815959
0.852549
0.693834
0.81474
0.808821
0.814691
0.807193
0.655097
0.854233
0.737315
0.728609
0.803168
0.804445
0.799318
0.833242
0.814466
0.689922
0.815035
0.800182
0.689332
0.839117
0.797821
0.620692
0.772428
0.815019
0.807295
0.8141
0.784265
0.723591
0.769331
0.836727
0.687708
0.81528
0.816792
0.826434
0.764699
0.821517
0.690062
0.804436
0.659507
0.699865
0.800026
0.822328
0.787842
0.813815
0.8147
0.814503
0.813229
0.575171
0.80248
0.814213
0.742685
0.809901
0.814742
0.811095
0.716028
0.693889
0.740643
0.618237
0.807099
0.680399
0.814962
0.801795
0.814275
0.836719
0.686074
0.804005
0.819272
0.832118
0.736607
0.781193
0.764598
0.772512
0.81177
0.558049
0.66976
0.814591
0.80518
0.811753
0.804421
0.711519
0.779771
0.723055
0.760596
0.799345
0.831475
0.812058
0.690407
0.82287
0.817387
0.810267
0.683655
0.694665
0.680249
0.871893
0.815219
0.816047
0.607423
0.710564
0.640134
0.803261
0.800219
0.670737
0.811741
0.824103
0.748094
0.799154
0.728584
0.81347
0.691574
0.813991
0.810307
0.80095
0.803038
0.825181
0.743606
0.815067
0.814235
0.780029
0.549173
0.81587
0.810295
0.757166
0.813111
0.747609
0.802717
0.826017
0.654303
0.817542
0.802654
0.809848
0.581252
0.618381
0.734431
0.80623
0.811462
0.81018
0.820524
0.81437
0.815324
0.703632
0.801837
0.812539
0.825763
0.702662
0.724731
0.811559
0.81139
0.6951
0.814159
0.773923
0.702966
0.81173
0.69508
0.803701
0.661357
0.802849
0.730444
0.665299
0.810549
0.785918
0.743432
0.629928
0.83976
0.820934
0.814328
0.769811
0.813436
0.799945
0.785625
0.799721
0.801571
0.814589
0.730365
0.809548
0.799856
0.818193
0.59673
0.80118
0.812344
0.813313
0.810982
0.81155
0.745453
0.802517
0.763692
0.749974
0.818043
0.644271
0.817985
0.8171
0.803039
0.815
0.816233
0.719
0.768458
0.821584
0.784806
0.803634
0.815432
0.874874
0.817473
0.79772
0.816189
0.814629
0.793809
0.817902
0.816363
0.772822
0.696038
0.840833
0.796856
0.80313
0.822417
0.780638
0.817256
0.824645
0.818079
0.816265
0.8703
0.803058
0.80473
0.817677
0.803055
0.814758
0.806807
0.734628
0.814686
0.819147
0.75393
0.706502
0.814575
0.842836
0.822185
0.649606
0.821225
0.773285
0.80773
0.801764
0.728848
0.803092
0.798446
0.815324
0.816356
0.691427
0.702894
0.802084
0.787404
0.801337
0.824477
0.722485
0.814233
0.802294
0.79992
0.823043
0.814733
0.711514
0.815013
0.762623
0.802337
0.832402
0.803249
0.772778
0.797797
0.794565
0.814378
0.568592
0.814181
0.696168
0.674778
0.803357
0.818971
0.814243
0.802451
0.814401
0.807965
0.722877
0.787375
0.856848
0.802981
0.833176
0.807274
0.539274
0.762248
0.779179
0.645724
0.736661
0.576328
0.819748
0.812508
0.81348
0.802351
0.76656
0.683502
0.763683
0.752085
0.781758
0.81415
0.844638
0.818808
0.805691
0.819141
0.823381
0.802517
0.80729
0.703022
0.803017
0.755702
0.808526
0.797562
0.750743
0.821916
0.788191
0.803428
0.7892
0.840582
0.727111
0.800753
0.799193
0.80476
0.616214
0.814776
0.814651
0.821361
0.628634
0.814527
0.814538
0.798284
0.803738
0.79302
0.774612
0.805882
0.79404
0.815285
0.753195
0.803272
0.875086
0.762087
0.747099
0.806468
0.783827
0.842222
0.799364
0.778882
0.814906
0.798049
0.792335
0.807914
0.82506
0.835309
0.799598
0.571695
0.819884
0.827781
0.77187
0.830284
0.837847
0.82234
0.82579
0.807121
0.832507
0.826335
0.783528
0.80865
0.810686
0.805757
0.822155
0.803279
0.827173
0.792725
0.802803
0.805566
0.725442
0.806933
0.558934
0.81735
0.824794
0.828128
0.805457
0.817815
0.823369
0.819216
0.820235
0.838381
0.832654
0.787299
0.800207
0.82114
0.814723
0.816305
0.800024
0.806232
0.865307
0.819448
0.847011
0.814423
0.800454
0.824417
0.799564
0.83322
0.812785
0.814763
0.805132
0.724745
0.80278
0.804381
0.81434
0.803206
0.801624
0.821887
0.804391
0.804035
0.77759
0.819528
0.716293
0.813786
0.779596
0.758241
0.803429
0.813082
0.818799
0.71366
0.818717
0.814999
0.826349
0.816456
0.789205
0.815608
0.846989
0.832667
0.814425
0.811524
0.801421
0.742716
0.67524
0.814327
0.820243
0.770142
0.813743
0.807556
0.811116
0.805218
0.798193
0.775815
0.802283
0.799826
0.841076
0.81674
0.811145
0.806059
0.601533
0.729736
0.80201
0.782716
0.80389
0.815039
0.805702
0.815374
0.779453
0.814403
0.804586
0.809986
0.803514
0.817209
0.803118
0.815152
0.810208
0.815161
0.812159
0.71594
0.813833
0.814956
0.595219
0.81416
0.796536
0.80254
0.858467
0.817735
0.810009
0.872256
0.814586
0.814664
0.816159
0.818198
0.814619
0.763768
0.830097
0.801052
0.802988
0.813911
0.814523
0.816035
0.814364
0.812783
0.822523
0.803799
0.81185
0.808828
0.814794
0.819754
0.814381
0.811117
0.818647
0.808705
0.697648
0.657527
0.802444
0.808199
0.803148
0.81061
0.817742
0.816471
0.802712
0.803444
0.800296
0.800601
0.816241
0.844031
0.817891
0.811142
0.817845
0.817508
0.845626
0.816832
0.820726
0.785306
0.815145
0.806581
0.800846
0.791739
0.810141
0.817852
0.81421
0.814454
0.835785
0.805484
0.811921
0.815961
0.821284
0.803317
0.802991
0.805306
0.810164
0.814332
0.801352
0.802425
0.816212
0.822272
0.800522
0.569856
0.80406
0.796365
0.816871
0.798376
0.802588
0.74753
0.840403
0.802538
0.799468
0.834319
0.82921
0.809985
0.825655
0.800198
0.817183
0.816809
0.818042
0.803415
0.817621
0.726368
0.821702
0.811283
0.799795
0.812763
0.819885
0.798883
0.803782
0.781658
0.814918
0.814615
0.814727
0.817832
0.806196
0.816358
0.815033
0.825522
0.821745
0.837206
0.80568
0.694195
0.817268
0.840247
0.819111
0.804352
0.799782
0.803103
0.815619
0.813863
0.815248
0.743252
0.736701
0.800443
0.80276
0.814918
0.815887
0.798048
0.650597
0.707345
0.807787
0.768938
0.815076
0.701864
0.802949
0.727191
0.803101
0.819597
0.803037
0.816596
0.812011
0.79837
0.808325
0.792811
0.829627
0.814759
0.800906
0.803251
0.815132
0.821025
0.748414
0.82212
0.803515
0.783005
0.81463
0.803609
0.810099
0.813763
0.814201
0.834839
0.792051
0.798661
0.814503
0.758227
0.806335
0.813907
0.80079
0.815193
0.840944
0.801991
0.842831
0.808124
0.789791
0.810993
0.802533
0.851617
0.788172
0.803026
0.815219
0.831079
0.808121
0.812877
0.814917
0.802623
0.802552
0.825704
0.782083
0.813438
0.814492
0.640743
0.814699
0.711688
0.817367
0.837798
0.823884
0.80365
0.813677
0.81433
0.72467
0.813856
0.800417
0.801362
0.800569
0.81494
0.863552
0.800977
0.800663
0.785028
0.840183
0.827717
0.818886
0.812432
0.745941
0.80284
0.803257
0.729841
0.798969
0.713355
0.809649
0.800777
0.675084
0.880053
0.701411
0.771828
0.800787
0.742205
0.808111
0.79854
0.802947
0.658922
0.796506
0.783729
0.798569
0.727065
0.817961
0.821775
0.884395
0.809188
0.8308
0.643609
0.79955
0.78624
0.74307
0.750301
0.768064
0.704346
0.80294
0.7989
0.803014
0.762916
0.625442
0.811163
0.610937
0.820476
0.822327
0.811231
0.736176
0.811469
0.794672
0.818415
0.782346
0.806408
0.796905
0.809162
0.715695
0.801209
0.721302
0.801055
0.798384
0.683885
0.803363
0.814218
0.814283
0.802971
0.760451
0.814059
0.732284
0.689573
0.802105
0.814279
0.874203
0.814174
0.813582
0.880407
0.865209
0.830453
0.718258
0.801741
0.811622
0.820845
0.79729
0.678931
0.721748
0.673625
0.802259
0.705111
0.767819
0.799066
0.613242
0.688058
0.835678
0.772833
0.744423
0.829921
0.758365
0.769031
0.622844
0.730377
0.784415
0.819037
0.869288
0.837375
0.814646
0.793951
0.799334
0.714683
0.814487
0.69294
0.796789
0.814254
0.783284
0.761795
0.801022
0.782109
0.80202
0.800469
0.810834
0.810809
0.866899
0.563437
0.535423
0.802186
0.806349
0.696973
0.809603
0.802634
0.837087
0.803324
0.802223
0.564958
0.551342
0.808147
0.81149
0.814396
0.724804
0.803043
0.809864
0.683004
0.810495
0.802547
0.812878
0.80308
0.799951
0.802093
0.813326
0.802829
0.816751
0.803053
0.861794
0.813684
0.802368
0.721194
0.668408
0.814453
0.582955
0.812052
0.809724
0.835412
0.813002
0.802867
0.810472
0.812372
0.812198
0.813998
0.801427
0.853441
0.856145
0.801981
0.653203
0.807683
0.82213
0.799249
0.803048
0.819319
0.732613
0.803158
0.824643
0.820674
0.814797
0.814282
0.765986
0.745397
0.800442
0.833497
0.802479
0.813607
0.804167
0.803362
0.804702
0.813005
0.808539
0.798324
0.806644
0.805706
0.824296
0.806458
0.80606
0.816675
0.806542
0.803294
0.812098
0.802862
0.802715
0.805592
0.807521
0.81224
0.773112
0.80512
0.802584
0.81416
0.79943
0.803573
0.806628
0.831292
0.804828
0.647622
0.800556
0.814485
0.804463
0.814505
0.762415
0.814245
0.749799
0.803506
0.802037
0.803875
0.818647
0.850654
0.804175
0.803172
0.746929
0.828998
0.814158
0.819608
0.824661
0.814004
0.735416
0.81724
0.72047
0.800852
0.826959
0.802221
0.697621
0.825174
0.814011
0.815413
0.823411
0.814598
0.772834
0.816252
0.645506
0.708526
0.814254
0.821875
0.672901
0.818452
0.657508
0.820666
0.806431
0.815734
0.803083
0.805216
0.814136
0.831198
0.824845
0.669727
0.812237
0.841567
0.781091
0.845863
0.800102
0.703867
0.838007
0.818682
0.835016
0.685827
0.680571
0.832317
0.65367
0.830002
0.814274
0.827954
0.806071
0.826219
0.787379
0.824699
0.823292
0.705781
0.865365
0.822085
0.821063
0.823363
0.758482
0.802692
0.520696
0.802478
0.820173
0.812748
0.804524
0.825265
0.814198
0.797658
0.81939
0.802878
0.677009
0.792145
0.833862
0.813601
0.714386
0.798598
0.82132
0.573497
0.813969
0.814813
0.802412
0.809695
0.724903
0.817291
0.802924
0.803343
0.795741
0.793309
0.797686
0.794532
0.803211
0.811594
0.819084
0.813331
0.570579
0.892834
0.704206
0.797673
0.738571
0.791211
0.814176
0.814932
0.814809
0.60281
0.818329
0.816981
0.803702
0.817335
0.836194
0.839178
0.782617
0.798263
0.799296
0.723667
0.751843
0.814462
0.763405
0.814938
0.81837
0.814029
0.813266
0.801836
0.774628
0.811828
0.815363
0.727658
0.810367
0.815137
0.817409
0.807585
0.809245
0.763951
0.813792
0.807966
0.803054
0.807214
0.614862
0.806276
0.804124
0.805701
0.820678
0.84524
0.804491
0.773513
0.805065
0.771276
0.819621
0.80518
0.811957
0.814184
0.849849
0.803263
0.743947
0.819567
0.814459
0.726323
0.800586
0.815507
0.75813
0.811829
0.567303
0.806354
0.684839
0.800886
0.810639
0.811748
0.816516
0.804019
0.815136
0.817051
0.800808
0.803993
0.843991
0.815426
0.795996
0.815526
0.80159
0.801156
0.800076
0.80103
0.80651
0.813825
0.801395
0.769224
0.817748
0.812455
0.808661
0.814195
0.584936
0.803134
0.813459
0.814514
0.786865
0.747476
0.71915
0.811694
0.81404
0.825373
0.788719
0.601335
0.770968
0.638105
0.81602
0.745106
0.811413
0.829733
0.69307
0.799452
0.833364
0.74849
0.80043
0.803052
0.81483
0.801819
0.698029
0.800505
0.546024
0.801557
0.802284
0.802062
0.558107
0.802815
0.803287
0.803044
0.727856
0.736745
0.803291
0.775883
0.814875
0.721407
0.705888
0.814258
0.801162
0.751956
0.853825
0.813044
0.811475
0.668278
0.802641
0.800381
0.80027
0.802341
0.655274
0.803088
0.814523
0.65323
0.684458
0.805592
0.789919
0.814342
0.822726
0.814265
0.814464
0.815722
0.803512
0.81442
0.814207
0.812927
0.828912
0.802242
0.801634
0.810108
0.725499
0.809371
0.814062
0.8625
0.810474
0.636682
0.773917
0.802032
0.775808
0.815976
0.81109
0.829589
0.813741
0.864302
0.801644
0.813831
0.591952
0.815286
0.833422
0.802811
0.81346
0.623455
0.814687
0.802612
0.815933
0.802094
0.816822
0.815215
0.754556
0.803411
0.803057
0.834679
0.861598
0.819382
0.815345
0.725295
0.740447
0.802378
0.80288
0.811698
0.81738
0.799322
0.802713
0.818842
0.80588
0.807335
0.739385
0.802589
0.816835
0.813281
0.767744
0.760346
0.81106
0.796214
0.856669
0.717984
0.834129
0.810308
0.711968
0.799486
0.813686
0.787277
0.800522
0.799528
0.814284
0.776718
0.774303
0.8126
0.696515
0.798396
0.764866
0.814137
0.816555
0.801827
0.786997
0.737654
0.751568
0.773428
0.813838
0.818271
0.805129
0.653511
0.801576
0.795199
0.777588
0.809525
0.812173
0.799339
0.80288
0.631435
0.803735
0.804361
0.850924
0.803557
0.808809
0.832847
0.805044
0.809424
0.851863
0.61073
0.803887
0.815408
0.805227
0.804842
0.805526
0.804418
0.804511
0.804037
0.805607
0.806076
0.723651
0.805496
0.806761
0.806201
0.814399
0.807898
0.817947
0.803021
0.803375
0.813969
0.814156
0.809311
0.803288
0.816007
0.812843
0.809224
0.815307
0.707268
0.813159
0.831031
0.814148
0.853916
0.749077
0.807422
0.814184
0.80046
0.594851
0.80314
0.771794
0.821263
0.626105
0.814816
0.829024
0.813874
0.81128
0.801925
0.826641
0.818698
0.803408
0.764187
0.816374
0.758165
0.544969
0.813519
0.696091
0.693798
0.820171
0.827125
0.826919
0.815965
0.847152
0.567856
0.876198
0.805044
0.825404
0.823714
0.812254
0.680392
0.814059
0.822155
0.815666
0.800663
0.773497
0.822042
0.563649
0.812535
0.842772
0.802998
0.839185
0.8209
0.803215
0.66753
0.84285
0.819827
0.835974
0.800659
0.813232
0.802978
0.833317
0.802674
0.813144
0.83087
0.828704
0.821804
0.823714
0.830515
0.73898
0.659387
0.561354
0.82684
0.825297
0.766787
0.755793
0.805742
0.823851
0.846516
0.588977
0.822553
0.821447
0.820523
0.818968
0.803736
0.820567
0.65566
0.743303
0.819708
0.797022
0.869508
0.889926
0.77599
0.803314
0.668565
0.835219
0.729173
0.717013
0.818914
0.801432
0.783106
0.658231
0.802031
0.814294
0.788577
0.71
0.799881
0.816939
0.797755
0.67388
0.823076
0.792559
0.815004
0.832803
0.814937
0.79508
0.815464
0.815217
0.785568
0.803804
0.709049
0.840327
0.792808
0.810461
0.781565
0.804195
0.694086
0.800636
0.813269
0.811907
0.81074
0.809214
0.808123
0.807367
0.80574
0.804631
0.806549
0.723647
0.805182
0.801279
0.795684
0.803149
0.844148
0.713685
0.80309
0.775793
0.883771
0.853824
0.797806
0.72219
0.803076
0.797496
0.717836
0.803159
0.801477
0.733129
0.803473
0.789304
0.796931
0.800872
0.736696
0.779021
0.803901
0.746303
0.763971
0.768666
0.801195
0.813944
0.808396
0.757799
0.750765
0.799348
0.812932
0.803197
0.792453
0.800936
0.92857
0.860286
0.817118
0.814066
0.723698
0.843964
0.746942
0.825745
0.816091
0.897982
0.814245
0.796786
0.586943
0.814282
0.796901
0.814321
0.797326
0.845234
0.517958
0.832371
0.8014
0.805393
0.804658
0.803554
0.855329
0.801095
0.816726
0.700773
0.647064
0.665746
0.81437
0.499874
0.797348
0.72079
0.841475
0.814262
0.556009
0.801594
0.813781
0.813443
0.718249
0.801484
0.522668
0.796801
0.814517
0.796921
0.802559
0.797162
0.814697
0.83356
0.803203
0.797872
0.815108
0.798138
0.815264
0.813567
0.798422
0.815441
0.813015
0.815647
0.79852
0.815876
0.678635
0.798713
0.816133
0.802969
0.798902
0.816392
0.696518
0.814279
0.797938
0.814207
0.797932
0.809366
0.837828
0.860988
0.800763
0.799989
0.817351
0.815111
0.799632
0.799255
0.862957
0.811768
0.817016
0.809818
0.84957
0.828009
0.815987
0.825217
0.845827
0.814214
0.801112
0.818608
0.811191
0.801536
0.814115
0.799698
0.807077
0.782681