# vtk DataFile Version 1.0
unstructured grid
ascii
DATASET UNSTRUCTURED_GRID
points 3920 float
-1 0 0
-1 1 0
2 0 0
2 1 0
0 0 0
1 0 0
-1 1 0.1
-1 0 0.1
0 0 0.1
1 0 0.1
2 0 0.1
2 1 0.1
-0.98 0 0
-0.96 0 0
-0.94 0 0
-0.92 0 0
-0.9 0 0
-0.88 0 0
-0.86 0 0
-0.84 0 0
-0.82 0 0
-0.8 0 0
-0.78 0 0
-0.76 0 0
-0.74 0 0
-0.72 0 0
-0.7 0 0
-0.68 0 0
-0.66 0 0
-0.64 0 0
-0.62 0 0
-0.6 0 0
-0.58 0 0
-0.56 0 0
-0.54 0 0
-0.52 0 0
-0.5 0 0
-0.48 0 0
-0.46 0 0
-0.44 0 0
-0.42 0 0
-0.4 0 0
-0.38 0 0
-0.36 0 0
-0.34 0 0
-0.32 0 0
-0.3 0 0
-0.28 0 0
-0.26 0 0
-0.24 0 0
-0.22 0 0
-0.2 0 0
-0.18 0 0
-0.16 0 0
-0.14 0 0
-0.12 0 0
-0.1 0 0
-0.08 0 0
-0.06 0 0
-0.04 0 0
-0.02 0 0
1.02 0 0
1.04 0 0
1.06 0 0
1.08 0 0
1.1 0 0
1.12 0 0
1.14 0 0
1.16 0 0
1.18 0 0
1.2 0 0
1.22 0 0
1.24 0 0
1.26 0 0
1.28 0 0
1.3 0 0
1.32 0 0
1.34 0 0
1.36 0 0
1.38 0 0
1.4 0 0
1.42 0 0
1.44 0 0
1.46 0 0
1.48 0 0
1.5 0 0
1.52 0 0
1.54 0 0
1.56 0 0
1.58 0 0
1.6 0 0
1.62 0 0
1.64 0 0
1.66 0 0
1.68 0 0
1.7 0 0
1.72 0 0
1.74 0 0
1.76 0 0
1.78 0 0
1.8 0 0
1.82 0 0
1.84 0 0
1.86 0 0
1.88 0 0
1.9 0 0
1.92 0 0
1.94 0 0
1.96 0 0
1.98 0 0
2 0.0199133 0
2 0.0414128 0
2 0.0646247 0
2 0.0896856 0
2 0.116743 0
2 0.145955 0
2 0.177494 0
2 0.211545 0
2 0.248309 0
2 0.288001 0
2 0.330854 0
2 0.377121 0
2 0.427073 0
2 0.481004 0
2 0.539231 0
2 0.602096 0
2 0.669968 0
2 0.743247 0
2 0.822362 0
2 0.907779 0
1.9 1 0
1.8 1 0
1.7 1 0
1.6 1 0
1.5 1 0
1.4 1 0
1.3 1 0
1.2 1 0
1.1 1 0
1 1 0
0.9 1 0
0.8 1 0
0.7 1 0
0.6 1 0
0.5 1 0
0.4 1 0
0.3 1 0
0.2 1 0
0.1 1 0
3.69793e-12 1 0
-0.1 1 0
-0.2 1 0
-0.3 1 0
-0.4 1 0
-0.5 1 0
-0.6 1 0
-0.7 1 0
-0.8 1 0
-0.9 1 0
-1 0.907779 0
-1 0.822362 0
-1 0.743247 0
-1 0.669968 0
-1 0.602096 0
-1 0.539231 0
-1 0.481004 0
-1 0.427073 0
-1 0.377121 0
-1 0.330854 0
-1 0.288001 0
-1 0.248309 0
-1 0.211545 0
-1 0.177494 0
-1 0.145955 0
-1 0.116743 0
-1 0.0896856 0
-1 0.0646247 0
-1 0.0414128 0
-1 0.0199133 0
0.0182781 0.00745351 0
0.0366672 0.0146286 0
0.0551632 0.0215237 0
0.0737617 0.0281372 0
0.0924585 0.0344675 0
0.111249 0.0405131 0
0.13013 0.0462728 0
0.149095 0.0517451 0
0.168142 0.0569289 0
0.187265 0.0618228 0
0.20646 0.0664258 0
0.225723 0.0707368 0
0.245049 0.0747549 0
0.264434 0.078479 0
0.283873 0.0819084 0
0.303362 0.0850422 0
0.322896 0.0878798 0
0.342472 0.0904204 0
0.362083 0.0926635 0
0.381726 0.0946086 0
0.401397 0.0962552 0
0.42109 0.0976029 0
0.440802 0.0986514 0
0.460527 0.0994006 0
0.480261 0.0998501 0
0.5 0.1 0
0.519739 0.0998501 0
0.539473 0.0994006 0
0.559198 0.0986514 0
0.57891 0.0976029 0
0.598603 0.0962552 0
0.618274 0.0946086 0
0.637917 0.0926635 0
0.657528 0.0904204 0
0.677104 0.0878798 0
0.696638 0.0850422 0
0.716127 0.0819084 0
0.735566 0.078479 0
0.754951 0.0747549 0
0.774277 0.0707368 0
0.79354 0.0664258 0
0.812735 0.0618228 0
0.831858 0.0569289 0
0.850905 0.0517451 0
0.86987 0.0462728 0
0.888751 0.0405131 0
0.907542 0.0344675 0
0.926238 0.0281372 0
0.944837 0.0215237 0
0.963333 0.0146286 0
0.981722 0.00745351 0
-1 0.907779 0.1
-1 0.822362 0.1
-1 0.743247 0.1
-1 0.669968 0.1
-1 0.602096 0.1
-1 0.539231 0.1
-1 0.481004 0.1
-1 0.427073 0.1
-1 0.377121 0.1
-1 0.330854 0.1
-1 0.288001 0.1
-1 0.248309 0.1
-1 0.211545 0.1
-1 0.177494 0.1
-1 0.145955 0.1
-1 0.116743 0.1
-1 0.0896856 0.1
-1 0.0646247 0.1
-1 0.0414128 0.1
-1 0.0199133 0.1
-0.98 0 0.1
-0.96 0 0.1
-0.94 0 0.1
-0.92 0 0.1
-0.9 0 0.1
-0.88 0 0.1
-0.86 0 0.1
-0.84 0 0.1
-0.82 0 0.1
-0.8 0 0.1
-0.78 0 0.1
-0.76 0 0.1
-0.74 0 0.1
-0.72 0 0.1
-0.7 0 0.1
-0.68 0 0.1
-0.66 0 0.1
-0.64 0 0.1
-0.62 0 0.1
-0.6 0 0.1
-0.58 0 0.1
-0.56 0 0.1
-0.54 0 0.1
-0.52 0 0.1
-0.5 0 0.1
-0.48 0 0.1
-0.46 0 0.1
-0.44 0 0.1
-0.42 0 0.1
-0.4 0 0.1
-0.38 0 0.1
-0.36 0 0.1
-0.34 0 0.1
-0.32 0 0.1
-0.3 0 0.1
-0.28 0 0.1
-0.26 0 0.1
-0.24 0 0.1
-0.22 0 0.1
-0.2 0 0.1
-0.18 0 0.1
-0.16 0 0.1
-0.14 0 0.1
-0.12 0 0.1
-0.1 0 0.1
-0.08 0 0.1
-0.06 0 0.1
-0.04 0 0.1
-0.02 0 0.1
0.0182781 0.00745351 0.1
0.0366672 0.0146286 0.1
0.0551632 0.0215237 0.1
0.0737617 0.0281372 0.1
0.0924585 0.0344675 0.1
0.111249 0.0405131 0.1
0.13013 0.0462728 0.1
0.149095 0.0517451 0.1
0.168142 0.0569289 0.1
0.187265 0.0618228 0.1
0.20646 0.0664258 0.1
0.225723 0.0707368 0.1
0.245049 0.0747549 0.1
0.264434 0.078479 0.1
0.283873 0.0819084 0.1
0.303362 0.0850422 0.1
0.322896 0.0878798 0.1
0.342472 0.0904204 0.1
0.362083 0.0926635 0.1
0.381726 0.0946086 0.1
0.401397 0.0962552 0.1
0.42109 0.0976029 0.1
0.440802 0.0986514 0.1
0.460527 0.0994006 0.1
0.480261 0.0998501 0.1
0.5 0.1 0.1
0.519739 0.0998501 0.1
0.539473 0.0994006 0.1
0.559198 0.0986514 0.1
0.57891 0.0976029 0.1
0.598603 0.0962552 0.1
0.618274 0.0946086 0.1
0.637917 0.0926635 0.1
0.657528 0.0904204 0.1
0.677104 0.0878798 0.1
0.696638 0.0850422 0.1
0.716127 0.0819084 0.1
0.735566 0.078479 0.1
0.754951 0.0747549 0.1
0.774277 0.0707368 0.1
0.79354 0.0664258 0.1
0.812735 0.0618228 0.1
0.831858 0.0569289 0.1
0.850905 0.0517451 0.1
0.86987 0.0462728 0.1
0.888751 0.0405131 0.1
0.907542 0.0344675 0.1
0.926238 0.0281372 0.1
0.944837 0.0215237 0.1
0.963333 0.0146286 0.1
0.981722 0.00745351 0.1
1.02 0 0.1
1.04 0 0.1
1.06 0 0.1
1.08 0 0.1
1.1 0 0.1
1.12 0 0.1
1.14 0 0.1
1.16 0 0.1
1.18 0 0.1
1.2 0 0.1
1.22 0 0.1
1.24 0 0.1
1.26 0 0.1
1.28 0 0.1
1.3 0 0.1
1.32 0 0.1
1.34 0 0.1
1.36 0 0.1
1.38 0 0.1
1.4 0 0.1
1.42 0 0.1
1.44 0 0.1
1.46 0 0.1
1.48 0 0.1
1.5 0 0.1
1.52 0 0.1
1.54 0 0.1
1.56 0 0.1
1.58 0 0.1
1.6 0 0.1
1.62 0 0.1
1.64 0 0.1
1.66 0 0.1
1.68 0 0.1
1.7 0 0.1
1.72 0 0.1
1.74 0 0.1
1.76 0 0.1
1.78 0 0.1
1.8 0 0.1
1.82 0 0.1
1.84 0 0.1
1.86 0 0.1
1.88 0 0.1
1.9 0 0.1
1.92 0 0.1
1.94 0 0.1
1.96 0 0.1
1.98 0 0.1
2 0.0199133 0.1
2 0.0414128 0.1
2 0.0646247 0.1
2 0.0896856 0.1
2 0.116743 0.1
2 0.145955 0.1
2 0.177494 0.1
2 0.211545 0.1
2 0.248309 0.1
2 0.288001 0.1
2 0.330854 0.1
2 0.377121 0.1
2 0.427073 0.1
2 0.481004 0.1
2 0.539231 0.1
2 0.602096 0.1
2 0.669968 0.1
2 0.743247 0.1
2 0.822362 0.1
2 0.907779 0.1
1.9 1 0.1
1.8 1 0.1
1.7 1 0.1
1.6 1 0.1
1.5 1 0.1
1.4 1 0.1
1.3 1 0.1
1.2 1 0.1
1.1 1 0.1
1 1 0.1
0.9 1 0.1
0.8 1 0.1
0.7 1 0.1
0.6 1 0.1
0.5 1 0.1
0.4 1 0.1
0.3 1 0.1
0.2 1 0.1
0.1 1 0.1
3.69793e-12 1 0.1
-0.1 1 0.1
-0.2 1 0.1
-0.3 1 0.1
-0.4 1 0.1
-0.5 1 0.1
-0.6 1 0.1
-0.7 1 0.1
-0.8 1 0.1
-0.9 1 0.1
1.08758 0.0158154 0
-0.0898513 0.0203294 0
0.0966181 0.0537636 0
0.90205 0.0548881 0
1.21055 0.0202058 0
-0.209811 0.0159577 0
1.3305 0.0176902 0
-0.33 0.0173205 0
1.45324 0.0148141 0
-0.448654 0.0159854 0
1.56842 0.0191785 0
-0.569936 0.0166364 0
0.193292 0.0805369 0
0.805051 0.0813623 0
0.709096 0.100353 0
0.288591 0.0996656 0
0.390184 0.111848 0
0.61033 0.111742 0
0.488809 0.116278 0
1.67175 0.0169692 0
-0.67 0.0169809 0
-0.955017 0.454039 0
1.95131 0.44569 0
1.74981 0.0168753 0
-0.75 0.0173205 0
-0.968032 0.266538 0
1.96871 0.266267 0
0.978232 0.0305687 0
0.0208675 0.026451 0
-0.150454 0.91842 0
1.13854 0.907437 0
1.45012 0.904365 0
-0.445923 0.908903 0
-0.853423 0.0157019 0
1.84881 0.016319 0
0.853689 0.915652 0
0.153944 0.912184 0
0.545151 0.914125 0
0.549913 0.115152 0
1.51 0.0173205 0
-0.506989 0.01651 0
1.27 0.0173205 0
1.14976 0.0173333 0
-0.268171 0.0206442 0
-0.150501 0.0153244 0
-0.391384 0.0153993 0
1.38886 0.0171544 0
-0.973694 0.161724 0
1.97441 0.162392 0
-0.945221 0.633523 0
1.94544 0.63312 0
1.91008 0.0186068 0
-0.91 0.0169616 0
-0.030664 0.0194327 0
1.03074 0.0165456 0
-0.966065 0.353575 0
1.96128 0.359765 0
1.93879 0.781254 0
-0.937057 0.781882 0
-0.980746 0.080709 0
1.9772 0.0760699 0
0.058735 0.0409372 0
0.355202 0.913001 0
0.86356 0.0661005 0
0.134223 0.0651111 0
0.941972 0.0397386 0
-0.653034 0.915003 0
1.65328 0.904589 0
0.770126 0.0881325 0
0.232946 0.0902008 0
0.330582 0.105648 0
0.670612 0.108365 0
0.428707 0.116145 0
1.80993 0.016629 0
-0.810168 0.0172178 0
-0.71 0.0173205 0
1.63047 0.0175504 0
1.70842 0.0169661 0
-0.628824 0.0181787 0
-0.949815 0.0133898 0
1.95 0.0173205 0
1.85542 0.907891 0
-0.85 0.913397 0
1.9833 0.0307692 0
-0.983315 0.0309709 0
-0.750025 0.916468 0
-0.701107 0.836904 0
-0.607741 0.836428 0
-0.656448 0.759827 0
-0.572936 0.758144 0
-0.61411 0.691195 0
-0.539534 0.689068 0
-0.578542 0.626111 0
-0.507461 0.624216 0
-0.544001 0.566638 0
-0.477696 0.564279 0
-0.511582 0.51001 0
-0.451689 0.507147 0
-0.481834 0.457732 0
-0.426137 0.454624 0
-0.453236 0.407539 0
-0.398845 0.406233 0
-0.507958 0.409496 0
-0.368427 0.460177 0
-0.344602 0.405209 0
-0.315696 0.447824 0
-0.294128 0.402169 0
-0.262844 0.444518 0
-0.241968 0.388746 0
-0.209878 0.439557 0
-0.185184 0.391135 0
-0.156687 0.437338 0
-0.133719 0.390776 0
-0.104405 0.434306 0
-0.0818745 0.388334 0
-0.0528785 0.431165 0
-0.0305984 0.385639 0
-0.00180552 0.427863 0
0.0194564 0.382608 0
0.0485809 0.42449 0
0.0701962 0.37973 0
0.0985483 0.421145 0
0.119893 0.377339 0
0.147837 0.417911 0
0.172552 0.36751 0
0.197018 0.412597 0
0.221203 0.37141 0
0.24512 0.409646 0
-0.48178 0.364657 0
-0.531053 0.364782 0
-0.0599102 0.344151 0
-0.324909 0.359566 0
0.266181 0.368462 0
0.292132 0.407649 0
0.311992 0.365779 0
0.338918 0.404821 0
0.357567 0.355909 0
0.384723 0.40053 0
0.404675 0.359681 0
0.430617 0.398558 0
0.450457 0.35827 0
0.474237 0.395182 0
0.496746 0.34898 0
0.520548 0.397931 0
0.542071 0.353121 0
0.566011 0.389914 0
0.585061 0.350856 0
0.609352 0.38696 0
0.629069 0.348168 0
0.655979 0.391217 0
0.67472 0.346182 0
0.699346 0.381414 0
0.719333 0.341965 0
0.743718 0.377547 0
0.764028 0.339036 0
0.788201 0.373582 0
0.807659 0.336101 0
0.832821 0.372249 0
0.852309 0.334017 0
0.877785 0.370339 0
0.897875 0.331141 0
0.922904 0.366281 0
0.943173 0.327335 0
0.968282 0.363358 0
0.989029 0.324222 0
1.01391 0.361511 0
1.03465 0.321428 0
1.05949 0.358447 0
1.08389 0.312052 0
1.10575 0.355104 0
1.12889 0.31562 0
1.15067 0.353235 0
1.17157 0.312819 0
1.19626 0.349369 0
1.21618 0.309863 0
1.2416 0.346914 0
1.26131 0.30715 0
1.28691 0.344312 0
1.30571 0.303752 0
1.33144 0.341222 0
1.35018 0.300911 0
1.3758 0.338308 0
1.39501 0.298931 0
1.42015 0.335235 0
1.43904 0.296349 0
1.46355 0.330194 0
1.48256 0.293347 0
1.50685 0.326967 0
1.52589 0.29055 0
1.54996 0.325305 0
1.56909 0.287929 0
[...]
CELL_DATA 3694
SCALARS rho float
LOOKUP_TABLE default
0.734345
0.66922
0.803633
0.812132
0.825916
0.804875
0.791319
0.799408
0.809187
0.802458
0.816514
0.816507
0.839884
0.789024
0.800269
0.749127
0.803125
0.802704
0.759002
0.849563
0.816568
0.822328
0.694746
0.803209
0.691302
0.83873
0.719543
0.805658
0.836356
0.7981
0.798307
0.71821
0.803264
0.82409
0.802485
0.796603
0.836711
0.82213
0.824188
0.778079
0.804426
0.817073
0.833691
0.824653
0.804866
0.812017
0.800185
0.660945
0.678111
0.718632
0.801876
0.802841
0.846318
0.801825
0.625237
0.837609
0.802296
0.818342
0.832401
0.753268
0.795978
0.814184
0.841561
0.799021
0.842067
0.830224
0.807082
0.812662
0.736541
0.857856
0.803057
0.807363
0.822351
0.803089
0.823776
0.802813
0.813917
0.799178
0.813088
0.802571
0.711636
0.817763
0.802106
0.776685
0.80907
0.799126
0.817684
0.712785
0.736385
0.82451
0.798476
0.802133
0.819839
0.814773
0.673729
0.806277
0.722169
0.817009
0.81149
0.83941
0.813782
0.761356
0.719336
0.808995
0.808508
0.81418
0.816986
0.806776
0.71453
0.813556
0.799012
0.720375
0.721533
0.82292
0.867503
0.801955
0.799029
0.811291
0.803042
0.801858
0.765426
0.822197
0.819008
0.76906
0.705148
0.757752
0.81666
0.776012
0.843092
0.698357
0.766885
0.800095
0.807692
0.777087
0.800297
0.794925
0.805227
0.802214
0.797442
0.813716
0.812973
0.708877
0.816174
0.812755
0.756885
0.663465
0.675928
0.797566
0.815207
0.812854
0.743041
0.80253
0.551891
0.777846
0.682166
0.762287
0.712606
0.783012
0.604625
0.792747
0.837263
0.643242
0.781636
0.736194
0.843604
0.550167
0.816961
0.799896
0.802271
0.672117
0.801432
0.66099
0.857377
0.530992
0.799642
0.629516
0.871853
0.832737
0.819988
0.745036
0.813328
0.722136
0.826297
0.737328
0.647047
0.802992
0.671049
0.822739
0.801507
0.850498
0.791491
0.705643
0.813895
0.797839
0.740946
0.852307
0.811147
0.848415
0.735723
0.741567
0.770412
0.793146
0.831126
0.833999
0.816633
0.813313
0.667422
0.804395
0.725498
0.803081
0.706349
0.796774
0.79541
0.801275
0.825082
0.7626
0.829822
0.748698
0.825022
0.819228
0.815159
0.852618
0.829202
0.700909
0.826447
0.689189
0.787438
0.809331
0.850665
0.829613
0.807535
0.794033
0.744026
0.816881
0.836183
0.816692
0.713584
0.799109
0.692702
0.79153
0.795266
0.809302
0.635198
0.807306
0.756718
0.797604
0.803019
0.758358
0.814355
0.865203
0.784057
0.693296
0.804184
0.801084
0.645639
0.791553
0.777419
0.802256
0.838544
0.813942
0.606377
0.814382
0.809926
0.796144
0.814666
0.802492
0.815129
0.813971
0.835377
0.755365
0.801664
0.834315
0.809915
0.803059
0.795849
0.814104
0.728355
0.585673
0.816143
0.829392
0.819764
0.803891
0.678658
0.814663
0.814385
0.816177
0.711229
0.796668
0.81421
0.534537
0.80271
0.868827
0.674367
0.755168
0.838195
0.826494
0.813944
0.708383
0.809194
0.814204
0.803608
0.801403
0.811888
0.836229
0.816782
0.766677
0.806805
0.802943
0.645089
0.820362
0.827289
0.669969
0.79033
0.818184
0.820673
0.677584
0.687493
0.820786
0.823493
0.809317
0.733782
0.705701
0.712437
0.731032
0.819668
0.775834
0.803953
0.730851
0.741956
0.821904
0.809538
0.818579
0.769146
0.814354
0.813033
0.81665
0.815271
0.802632
0.807311
0.803385
0.693345
0.802604
0.812541
0.692223
0.806612
0.804901
0.818776
0.785464
0.805703
0.791536
0.814092
0.820352
0.819533
0.797703
0.678399
0.708699
0.7992
0.810659
0.620092
0.803682
0.806951
0.817021
0.742161
0.80407
0.815691
0.81081
0.817135
0.804832
0.797071
0.763559
0.803774
0.843079
0.819535
0.708046
0.803385
0.700445
0.705201
0.802859
0.613331
0.770085
0.784456
0.807868
0.812608
0.824753
0.81645
0.812143
0.819544
0.827714
0.802739
0.763712
0.809539
0.657375
0.818601
0.756425
0.726465
0.684646
0.813174
0.853668
0.818628
0.808244
0.821847
0.814547
0.786544
0.75736
0.808896
0.692261
0.790936
0.843162
0.826387
0.800639
0.863701
0.813153
0.815907
0.816868
0.830826
0.627386
0.798038
0.729713
0.797492
0.735123
0.81849
0.808453
0.786663
0.686186
0.814001
0.829796
0.811138
0.802745
0.803619
0.823792
0.803662
0.708955
0.790081
0.803032
0.813958
0.813327
0.81193
0.871358
0.827262
0.809164
0.831593
0.68091
0.822826
0.837153
0.815512
0.626401
0.814522
0.808956
0.845078
0.820756
0.802835
0.59076
0.809873
0.694241
0.805911
0.802815
0.811733
0.812741
0.824998
0.804882
0.81098
0.815357
0.7225
0.862609
0.801779
0.849795
0.815744
0.571818
0.803719
0.796453
0.81088
0.816997
0.6444
0.802735
0.809418
0.812772
0.806907
0.793653
0.814872
0.816658
0.795515
0.803394
0.82085
0.836529
0.728745
0.806073
0.809189
0.812443
0.681467
0.805004
0.815407
0.798907
0.803866
0.51684
0.832439
0.762764
0.813856
0.817079
0.830379
0.845883
0.815475
0.810867
0.714302
0.798551
0.852072
0.807789
0.709177
0.799919
0.802547
0.871948
0.84489
0.818429
0.801889
0.809453
0.75481
0.814693
0.813602
0.583202
0.802449
0.728022
0.749921
0.802887
0.810663
0.780753
0.82091
0.81452
0.837606
0.815351
0.800299
0.808351
0.738763
0.736007
0.803983
0.807434
0.820557
0.801982
0.751485
0.687186
0.81278
0.814939
0.81378
0.593049
0.812907
0.816177
0.82417
0.802866
0.808116
0.81908
0.811634
0.839005
0.802895
0.812452
0.823214
0.81487
0.817296
0.821058
0.686966
0.78391
0.794309
0.802975
0.847232
0.801988
0.802213
0.634034
0.810371
0.812851
0.810532
0.818425
0.805589
0.812351
0.726348
0.843217
0.708205
0.80013
0.816679
0.807036
0.648444
0.685018
0.814871
0.805486
0.804024
0.784772
0.801449
0.828773
0.812882
0.804801
0.801952
0.81163
0.61847
0.81167
0.802823
0.696234
0.814938
0.614295
0.783294
0.814846
0.837444
0.805292
0.81175
0.791802
0.794994
0.803819
0.801351
0.811302
0.810901
0.808333
0.803162
0.757123
0.803946
0.811777
0.811232
0.815714
0.810804
0.815237
0.814162
0.833907
0.736944
0.80646
0.814961
0.802218
0.540282
0.680145
0.810811
0.812508
0.814487
0.780133
0.807882
0.812347
0.802971
0.799758
0.802548
0.819462
0.820283
0.814247
0.784201
0.807583
0.805045
0.534043
0.773439
0.756604
0.806042
0.734918
0.673353
0.797256
0.767119
0.827236
0.814148
0.813938
0.808178
0.538069
0.815139
0.581749
0.693628
0.824132
0.869481
0.740288
0.815943
0.852542
0.693801
0.814723
0.808818
0.814688
0.807195
0.655063
0.854225
0.73732
0.728565
0.803165
0.804442
0.799309
0.833242
0.814446
0.689889
0.815024
0.80018
0.689248
0.839107
0.797804
0.620651
0.772416
0.815002
0.807279
0.814081
0.784263
0.723541
0.769309
0.836721
0.687683
0.815262
0.816779
0.826421
0.764684
0.821503
0.690012
0.804432
0.659475
0.699841
0.800015
0.822313
0.787824
0.813795
0.814681
0.814484
0.813209
0.575104
0.802478
0.814192
0.742667
0.809897
0.814724
0.811077
0.716061
0.693949
0.740625
0.618166
0.807098
0.680363
0.814944
0.801792
0.814255
0.836714
0.686025
0.803992
0.819259
0.83211
0.736569
0.781176
0.764592
0.772497
0.811755
0.557786
0.669656
0.814573
0.805176
0.811738
0.804417
0.711479
0.779757
0.723007
0.760603
0.799332
0.831464
0.812056
0.690383
0.822857
0.817376
0.81025
0.683585
0.694747
0.680209
0.871888
0.815201
0.816032
0.607375
0.710541
0.640098
0.803257
0.800214
0.670706
0.811737
0.824094
0.748063
0.799136
0.728545
0.813452
0.691549
0.813971
0.810304
0.800936
0.803036
0.825172
0.743587
0.815049
0.814215
0.78002
0.549041
0.815851
0.810278
0.757144
0.813091
0.747621
0.80271
0.826006
0.654129
0.817526
0.802652
0.809848
0.581179
0.617875
0.734408
0.806226
0.811445
0.810163
0.82051
0.814353
0.815307
0.703609
0.801834
0.812523
0.825751
0.702638
0.724683
0.811541
0.811377
0.695066
0.814157
0.773909
0.70301
0.811727
0.695056
0.803686
0.661325
0.802848
0.73046
0.665251
0.810533
0.785911
0.743411
0.629892
0.839752
0.820935
0.814313
0.769796
0.813416
0.799939
0.785611
0.799712
0.801568
0.814574
0.730323
0.809544
0.799849
0.818178
0.596679
0.801172
0.812328
0.813298
0.810965
0.811534
0.74543
0.802504
0.763682
0.74995
0.818028
0.644193
0.81797
0.817085
0.803037
0.814985
0.816217
0.718946
0.768462
0.82157
0.784791
0.803632
0.815416
0.87487
0.817459
0.797704
0.816172
0.81461
0.793804
0.817886
0.816349
0.77281
0.695966
0.840823
0.796853
0.803128
0.822415
0.780624
0.81724
0.824644
0.818063
0.816248
0.870295
0.803057
0.804726
0.817661
0.803053
0.81474
0.806803
0.734591
0.814669
0.819132
0.753939
0.706437
0.814558
0.84282
0.822184
0.649474
0.821211
0.773274
0.807714
0.801759
0.728823
0.803091
0.798433
0.815321
0.816341
0.691348
0.702838
0.80208
0.787401
0.801326
0.824468
0.722509
0.814213
0.80229
0.799907
0.823034
0.814715
0.711469
0.814995
0.762608
0.802335
0.832401
0.803246
0.772761
0.797798
0.794568
0.814359
0.567976
0.81416
0.696217
0.674656
0.803353
0.818956
0.814222
0.802447
0.814382
0.807952
0.72284
0.787366
0.856841
0.80298
0.833168
0.807271
0.539167
0.762255
0.77916
0.645664
0.736631
0.576259
0.819739
0.812488
0.813468
0.802348
0.766557
0.683465
0.763662
0.75208
0.78175
0.81413
0.844632
0.818793
0.805687
0.819141
0.823372
0.802513
0.807279
0.702958
0.803013
0.755686
0.808522
0.797545
0.750718
0.821905
0.788184
0.803425
0.789183
0.840574
0.727089
0.800748
0.799181
0.804757
0.616177
0.814758
0.814633
0.821343
0.62855
0.814509
0.81452
0.798271
0.803735
0.793015
0.774593
0.805865
0.794024
0.815268
0.753204
0.803257
0.875082
0.762069
0.747075
0.806454
0.783825
0.842213
0.799348
0.778862
0.814892
0.798045
0.79233
0.807911
0.825047
0.835298
0.799594
0.571631
0.81987
0.827769
0.771865
0.830273
0.837838
0.822327
0.825778
0.807118
0.832496
0.826323
0.783524
0.80864
0.810668
0.805742
0.822142
0.803276
0.827172
0.792721
0.802785
0.805562
0.725409
0.806929
0.558871
0.817334
0.824781
0.828116
0.805445
0.817807
0.823356
0.819215
0.82022
0.838372
0.832643
0.787283
0.800202
0.821126
0.814706
0.816289
0.800016
0.806228
0.865302
0.819433
0.847002
0.814406
0.800449
0.824415
0.799561
0.833219
0.812768
0.814749
0.805129
0.724698
0.802776
0.804378
0.814322
0.803204
0.801613
0.821885
0.804391
0.804032
0.777582
0.819526
0.716261
0.813776
0.779577
0.758225
0.803426
0.813079
0.818799
0.713619
0.818702
0.814997
0.826348
0.816441
0.789193
0.815591
0.846983
0.832654
0.814413
0.811522
0.801417
0.742689
0.675172
0.814307
0.820236
0.770123
0.813727
0.807553
0.811099
0.805214
0.798178
0.775807
0.80228
0.799819
0.841068
0.816724
0.811141
0.806056
0.601494
0.729697
0.802007
0.782699
0.803887
0.815023
0.805698
0.815356
0.779445
0.814383
0.804582
0.809969
0.80351
0.817193
0.803117
0.815135
0.810191
0.815144
0.812143
0.715904
0.813817
0.814938
0.595172
0.814141
0.796531
0.802533
0.858461
0.817721
0.809992
0.872252
0.814568
0.814646
0.816142
0.818182
0.814604
0.763757
0.830096
0.801044
0.802985
0.813896
0.814505
0.816019
0.814345
0.812768
0.822516
0.803797
0.811834
0.808824
0.814783
0.819752
0.814362
0.811101
0.818633
0.808702
0.697732
0.657479
0.80244
0.808188
0.803144
0.810593
0.817728
0.816456
0.802708
0.80343
0.800289
0.800596
0.816225
0.844024
0.817876
0.811132
0.81783
0.817492
0.845614
0.816817
0.820719
0.785299
0.81513
0.806578
0.800829
0.791734
0.810126
0.817837
0.814191
0.814437
0.835786
0.80547
0.811902
0.815946
0.821283
0.803314
0.802987
0.805303
0.810146
0.814313
0.801348
0.80241
0.816195
0.822271
0.800515
0.568275
0.804056
0.796353
0.816862
0.798373
0.802586
0.747513
0.840393
0.802535
0.79946
0.834308
0.829198
0.809982
0.825642
0.800192
0.817167
0.816795
0.818027
0.803412
0.817605
0.726319
0.821688
0.81128
0.799786
0.812759
0.81987
0.798879
0.803778
0.781641
0.814916
0.814596
0.814708
0.817816
0.806193
0.816342
0.815016
0.825512
0.821743
0.837196
0.805676
0.694171
0.817253
0.84024
0.819096
0.804348
0.799776
0.803099
0.815605
0.81386
0.815231
0.743243
0.736663
0.800436
0.802757
0.8149
0.815872
0.798032
0.650534
0.707322
0.807783
0.768944
0.815058
0.701828
0.802947
0.727171
0.8031
0.819589
0.803036
0.81658
0.811994
0.798367
0.808322
0.792796
0.829627
0.814741
0.800899
0.803247
0.815116
0.821011
0.748391
0.822108
0.803511
0.783008
0.814611
0.803605
0.810089
0.813743
0.814182
0.834829
0.792035
0.798651
0.814485
0.758211
0.806331
0.813887
0.800787
0.815176
0.840943
0.801987
0.842822
0.808112
0.789779
0.810974
0.802532
0.851611
0.788169
0.803025
0.815202
0.831068
0.808117
0.812859
0.814899
0.802619
0.80255
0.825704
0.78207
0.813419
0.814473
0.640642
0.814681
0.711667
0.817365
0.837789
0.823871
0.803645
0.813657
0.814311
0.724646
0.813836
0.800404
0.801359
0.800563
0.814923
0.863546
0.800973
0.800656
0.785021
0.840173
0.827716
0.818872
0.812415
0.745923
0.802826
0.803257
0.72982
0.798952
0.713332
0.809632
0.800775
0.675053
0.880049
0.701389
0.77182
0.800767
0.742178
0.808107
0.798528
0.802945
0.658888
0.796503
0.783722
0.798555
0.727018
0.817946
0.821761
0.884393
0.809185
0.830783
0.643572
0.799537
0.786227
0.743036
0.750274
0.768041
0.704304
0.802938
0.798886
0.803012
0.762898
0.6254
0.81116
0.610889
0.820464
0.822318
0.811228
0.736169
0.811458
0.794656
0.818401
0.782337
0.806392
0.796902
0.809146
0.715673
0.801205
0.721276
0.801051
0.798372
0.683824
0.803359
0.814197
0.814263
0.80297
0.760435
0.814039
0.732299
0.689547
0.802102
0.814259
0.874199
0.814153
0.813564
0.880404
0.865205
0.830444
0.718288
0.801737
0.811618
0.82083
0.797275
0.678872
0.721728
0.673552
0.802258
0.70515
0.767804
0.799058
0.61314
0.688009
0.83567
0.772816
0.744401
0.82991
0.758346
0.769033
0.622381
0.730353
0.7844
0.819024
0.869283
0.837367
0.814628
0.793937
0.799326
0.714654
0.814468
0.692914
0.796788
0.814233
0.783284
0.761779
0.801008
0.782095
0.802017
0.800464
0.810817
0.810806
0.866894
0.563149
0.535316
0.802183
0.806337
0.696938
0.809593
0.802631
0.837079
0.803322
0.80222
0.564887
0.551205
0.808145
0.811473
0.814376
0.724754
0.803042
0.809851
0.682963
0.810478
0.802544
0.812858
0.803079
0.79994
0.80209
0.813306
0.802828
0.816749
0.803049
0.861789
0.813664
0.802366
0.721202
0.668359
0.814435
0.582879
0.812039
0.809719
0.835402
0.812985
0.802864
0.810469
0.812353
0.812181
0.813977
0.801424
0.853427
0.856139
0.801973
0.653138
0.807668
0.822128
0.799247
0.803047
0.819306
0.732571
0.803157
0.824633
0.820662
0.814781
0.814264
0.765971
0.745405
0.80043
0.833487
0.802468
0.813594
0.804159
0.803353
0.804694
0.812986
0.808533
0.79831
0.806641
0.805699
0.824295
0.806455
0.806057
0.816659
0.806536
0.803294
0.812079
0.802861
0.802714
0.805589
0.807515
0.812221
0.7731
0.805117
0.802583
0.814139
0.799423
0.80357
0.806625
0.831281
0.804826
0.647543
0.800551
0.814469
0.804461
0.814502
0.7624
0.814228
0.749776
0.803504
0.802034
0.803872
0.818644
0.850646
0.804172
0.803171
0.746936
0.828987
0.814137
0.819594
0.824659
0.81399
0.735379
0.817224
0.720417
0.800849
0.826948
0.802218
0.697542
0.825162
0.813998
0.815396
0.823398
0.814579
0.772823
0.816236
0.645405
0.708462
0.814234
0.821861
0.672802
0.818437
0.657475
0.820652
0.806419
0.815717
0.803082
0.805205
0.814122
0.831185
0.824842
0.669688
0.812218
0.841558
0.781083
0.845854
0.8001
0.703804
0.837997
0.818667
0.835006
0.685748
0.68047
0.832306
0.653542
0.82999
0.814254
0.827941
0.806068
0.826206
0.787373
0.824686
0.823279
0.705726
0.865359
0.822071
0.821049
0.82336
0.758463
0.802689
0.520589
0.802463
0.820159
0.81273
0.804521
0.825252
0.814177
0.797643
0.819376
0.802877
0.676891
0.79214
0.833856
0.813582
0.714341
0.798583
0.821317
0.573418
0.81395
0.814795
0.802408
0.809692
0.724866
0.817279
0.802922
0.803341
0.795737
0.793293
0.797683
0.794534
0.80321
0.811575
0.819081
0.813313
0.570515
0.892832
0.704141
0.797669
0.73854
0.791207
0.814155
0.814914
0.814791
0.602758
0.818315
0.816978
0.803698
0.817321
0.836181
0.839173
0.782613
0.79826
0.799292
0.723618
0.751818
0.814443
0.76339
0.814935
0.818355
0.81401
0.813263
0.801834
0.774609
0.811824
0.815346
0.727635
0.810364
0.815119
0.817393
0.807581
0.809241
0.763929
0.813772
0.807962
0.803052
0.807209
0.614809
0.806272
0.80412
0.805697
0.820664
0.845235
0.804487
0.773492
0.805061
0.771271
0.819607
0.805165
0.811938
0.814163
0.849844
0.803261
0.743937
0.819565
0.81444
0.726299
0.800574
0.81549
0.758123
0.81181
0.567239
0.806351
0.684813
0.800874
0.810629
0.811731
0.8165
0.804016
0.815122
0.817035
0.800802
0.80398
0.843979
0.815409
0.795992
0.81551
0.801574
0.80114
0.800071
0.801024
0.806496
0.813805
0.80139
0.769203
0.817733
0.812445
0.808657
0.814174
0.58488
0.803131
0.813456
0.814495
0.786848
0.747451
0.719173
0.811675
0.814019
0.825361
0.788702
0.601283
0.770953
0.638034
0.816003
0.745118
0.811394
0.829715
0.692996
0.799444
0.833354
0.748459
0.800427
0.80305
0.814813
0.801808
0.698004
0.8005
0.545935
0.801552
0.80228
0.802059
0.557477
0.802813
0.803285
0.803042
0.727836
0.736725
0.803289
0.775869
0.814857
0.721385
0.705864
0.814239
0.801159
0.751938
0.853819
0.813025
0.811456
0.668245
0.802638
0.800376
0.800265
0.802339
0.655231
0.803085
0.814504
0.653194
0.684429
0.805589
0.789906
0.814322
0.822717
0.814248
0.814447
0.815705
0.80351
0.8144
0.814189
0.812917
0.828906
0.802236
0.801631
0.810104
0.725451
0.809368
0.814045
0.862495
0.810463
0.636641
0.773897
0.802028
0.7758
0.81596
0.811073
0.829581
0.813732
0.864297
0.801633
0.813813
0.591895
0.815277
0.833414
0.80281
0.81344
0.62341
0.814672
0.80261
0.815916
0.802091
0.816806
0.815198
0.754561
0.803408
0.803056
0.83467
0.861593
0.81938
0.815327
0.725314
0.740413
0.802375
0.802876
0.811688
0.817365
0.799314
0.802709
0.818827
0.805865
0.807331
0.739394
0.802587
0.81682
0.813266
0.767729
0.760349
0.811045
0.796211
0.856662
0.717963
0.83412
0.810292
0.711998
0.799482
0.813669
0.787276
0.800518
0.799527
0.814266
0.776701
0.774304
0.812582
0.696509
0.798385
0.764847
0.814118
0.816539
0.801823
0.786982
0.73763
0.751547
0.773414
0.813818
0.818255
0.805114
0.653231
0.801563
0.795185
0.777585
0.809523
0.812155
0.799335
0.80287
0.631348
0.803726
0.804353
0.850916
0.803554
0.808803
0.832837
0.805037
0.809407
0.851856
0.610658
0.803884
0.815391
0.805224
0.804839
0.805523
0.804415
0.804508
0.804034
0.805604
0.806069
0.723623
0.805493
0.806755
0.806188
0.814383
0.807892
0.817934
0.80302
0.803373
0.813952
0.814139
0.809294
0.803287
0.816004
0.812834
0.809211
0.81529
0.707236
0.813141
0.831021
0.814129
0.853908
0.74906
0.807407
0.814164
0.800443
0.594496
0.803138
0.77178
0.821249
0.62607
0.814797
0.829013
0.813855
0.811267
0.801922
0.826626
0.818688
0.803404
0.764172
0.816358
0.758159
0.544893
0.813499
0.696154
0.69376
0.820169
0.827113
0.826907
0.815949
0.847144
0.567672
0.87617
0.805041
0.825392
0.823701
0.812237
0.680347
0.814039
0.822142
0.815649
0.800646
0.773497
0.822039
0.563581
0.812522
0.842763
0.802995
0.839176
0.820886
0.803214
0.667474
0.842833
0.819813
0.835963
0.800653
0.813218
0.802977
0.833307
0.802671
0.81313
0.830859
0.828692
0.821801
0.8237
0.830509
0.738993
0.659316
0.561242
0.826827
0.825284
0.766773
0.755773
0.805726
0.823838
0.846511
0.588899
0.822539
0.821433
0.820508
0.818953
0.803733
0.820564
0.655574
0.743273
0.819693
0.797002
0.869486
0.889923
0.77598
0.803299
0.668537
0.835214
0.729129
0.716956
0.818911
0.801429
0.783098
0.658124
0.802028
0.814275
0.788571
0.70994
0.799866
0.816935
0.797751
0.673769
0.823068
0.792555
0.814986
0.832792
0.814934
0.795064
0.815447
0.815199
0.785564
0.8038
0.708993
0.840322
0.792803
0.810445
0.781556
0.804191
0.694
0.800632
0.813265
0.811903
0.810736
0.80921
0.808119
0.807362
0.805736
0.804627
0.806545
0.723597
0.805178
0.801275
0.79568
0.803146
0.844143
0.713636
0.803088
0.775787
0.883768
0.853802
0.797803
0.722149
0.803069
0.797494
0.717794
0.803156
0.801471
0.733095
0.80347
0.789287
0.79691
0.800866
0.736678
0.779003
0.803886
0.746275
0.763963
0.768645
0.801189
0.813926
0.808392
0.757776
0.750754
0.799345
0.812913
0.803195
0.792441
0.800932
0.928572
0.860281
0.817103
0.814045
0.723715
0.843956
0.746924
0.825738
0.816081
0.897981
0.814225
0.796767
0.586891
0.814261
0.796882
0.814301
0.797307
0.845227
0.517846
0.83236
0.801397
0.805389
0.804655
0.80355
0.855307
0.801091
0.81671
0.700751
0.645918
0.665719
0.81435
0.499761
0.797331
0.720759
0.841468
0.814242
0.555945
0.801583
0.813761
0.813423
0.718228
0.801479
0.522606
0.79678
0.814498
0.796899
0.802556
0.797141
0.814678
0.833552
0.803202
0.797851
0.81509
0.798118
0.815246
0.813547
0.798402
0.815424
0.812997
0.815629
0.798499
0.815859
0.678609
0.798692
0.816116
0.802967
0.798881
0.816375
0.696476
0.814259
0.797924
0.814186
0.797914
0.809349
0.837809
0.860982
0.800759
0.799969
0.817335
0.815107
0.799612
0.799235
0.862933
0.811757
0.817
0.809802
0.849563
0.827997
0.815971
0.825199
0.845818
0.814194
0.801092
0.818593
0.811181
0.801516