# vtk DataFile Version 1.0
unstructured grid
ascii
DATASET UNSTRUCTURED_GRID
points 3920 float
-1 0 0
-1 1 0
2 0 0
2 1 0
0 0 0
1 0 0
-1 1 0.1
-1 0 0.1
0 0 0.1
1 0 0.1
2 0 0.1
2 1 0.1
-0.98 0 0
-0.96 0 0
-0.94 0 0
-0.92 0 0
-0.9 0 0
-0.88 0 0
-0.86 0 0
-0.84 0 0
-0.82 0 0
-0.8 0 0
-0.78 0 0
-0.76 0 0
-0.74 0 0
-0.72 0 0
-0.7 0 0
-0.68 0 0
-0.66 0 0
-0.64 0 0
-0.62 0 0
-0.6 0 0
-0.58 0 0
-0.56 0 0
-0.54 0 0
-0.52 0 0
-0.5 0 0
-0.48 0 0
-0.46 0 0
-0.44 0 0
-0.42 0 0
-0.4 0 0
-0.38 0 0
-0.36 0 0
-0.34 0 0
-0.32 0 0
-0.3 0 0
-0.28 0 0
-0.26 0 0
-0.24 0 0
-0.22 0 0
-0.2 0 0
-0.18 0 0
-0.16 0 0
-0.14 0 0
-0.12 0 0
-0.1 0 0
-0.08 0 0
-0.06 0 0
-0.04 0 0
-0.02 0 0
1.02 0 0
1.04 0 0
1.06 0 0
1.08 0 0
1.1 0 0
1.12 0 0
1.14 0 0
1.16 0 0
1.18 0 0
1.2 0 0
1.22 0 0
1.24 0 0
1.26 0 0
1.28 0 0
1.3 0 0
1.32 0 0
1.34 0 0
1.36 0 0
1.38 0 0
1.4 0 0
1.42 0 0
1.44 0 0
1.46 0 0
1.48 0 0
1.5 0 0
1.52 0 0
1.54 0 0
1.56 0 0
1.58 0 0
1.6 0 0
1.62 0 0
1.64 0 0
1.66 0 0
1.68 0 0
1.7 0 0
1.72 0 0
1.74 0 0
1.76 0 0
1.78 0 0
1.8 0 0
1.82 0 0
1.84 0 0
1.86 0 0
1.88 0 0
1.9 0 0
1.92 0 0
1.94 0 0
1.96 0 0
1.98 0 0
2 0.0199133 0
2 0.0414128 0
2 0.0646247 0
2 0.0896856 0
2 0.116743 0
2 0.145955 0
2 0.177494 0
2 0.211545 0
2 0.248309 0
2 0.288001 0
2 0.330854 0
2 0.377121 0
2 0.427073 0
2 0.481004 0
2 0.539231 0
2 0.602096 0
2 0.669968 0
2 0.743247 0
2 0.822362 0
2 0.907779 0
1.9 1 0
1.8 1 0
1.7 1 0
1.6 1 0
1.5 1 0
1.4 1 0
1.3 1 0
1.2 1 0
1.1 1 0
1 1 0
0.9 1 0
0.8 1 0
0.7 1 0
0.6 1 0
0.5 1 0
0.4 1 0
0.3 1 0
0.2 1 0
0.1 1 0
3.69793e-12 1 0
-0.1 1 0
-0.2 1 0
-0.3 1 0
-0.4 1 0
-0.5 1 0
-0.6 1 0
-0.7 1 0
-0.8 1 0
-0.9 1 0
-1 0.907779 0
-1 0.822362 0
-1 0.743247 0
-1 0.669968 0
-1 0.602096 0
-1 0.539231 0
-1 0.481004 0
-1 0.427073 0
-1 0.377121 0
-1 0.330854 0
-1 0.288001 0
-1 0.248309 0
-1 0.211545 0
-1 0.177494 0
-1 0.145955 0
-1 0.116743 0
-1 0.0896856 0
-1 0.0646247 0
-1 0.0414128 0
-1 0.0199133 0
0.0182781 0.00745351 0
0.0366672 0.0146286 0
0.0551632 0.0215237 0
0.0737617 0.0281372 0
0.0924585 0.0344675 0
0.111249 0.0405131 0
0.13013 0.0462728 0
0.149095 0.0517451 0
0.168142 0.0569289 0
0.187265 0.0618228 0
0.20646 0.0664258 0
0.225723 0.0707368 0
0.245049 0.0747549 0
0.264434 0.078479 0
0.283873 0.0819084 0
0.303362 0.0850422 0
0.322896 0.0878798 0
0.342472 0.0904204 0
0.362083 0.0926635 0
0.381726 0.0946086 0
0.401397 0.0962552 0
0.42109 0.0976029 0
0.440802 0.0986514 0
0.460527 0.0994006 0
0.480261 0.0998501 0
0.5 0.1 0
0.519739 0.0998501 0
0.539473 0.0994006 0
0.559198 0.0986514 0
0.57891 0.0976029 0
0.598603 0.0962552 0
0.618274 0.0946086 0
0.637917 0.0926635 0
0.657528 0.0904204 0
0.677104 0.0878798 0
0.696638 0.0850422 0
0.716127 0.0819084 0
0.735566 0.078479 0
0.754951 0.0747549 0
0.774277 0.0707368 0
0.79354 0.0664258 0
0.812735 0.0618228 0
0.831858 0.0569289 0
0.850905 0.0517451 0
0.86987 0.0462728 0
0.888751 0.0405131 0
0.907542 0.0344675 0
0.926238 0.0281372 0
0.944837 0.0215237 0
0.963333 0.0146286 0
0.981722 0.00745351 0
-1 0.907779 0.1
-1 0.822362 0.1
-1 0.743247 0.1
-1 0.669968 0.1
-1 0.602096 0.1
-1 0.539231 0.1
-1 0.481004 0.1
-1 0.427073 0.1
-1 0.377121 0.1
-1 0.330854 0.1
-1 0.288001 0.1
-1 0.248309 0.1
-1 0.211545 0.1
-1 0.177494 0.1
-1 0.145955 0.1
-1 0.116743 0.1
-1 0.0896856 0.1
-1 0.0646247 0.1
-1 0.0414128 0.1
-1 0.0199133 0.1
-0.98 0 0.1
-0.96 0 0.1
-0.94 0 0.1
-0.92 0 0.1
-0.9 0 0.1
-0.88 0 0.1
-0.86 0 0.1
-0.84 0 0.1
-0.82 0 0.1
-0.8 0 0.1
-0.78 0 0.1
-0.76 0 0.1
-0.74 0 0.1
-0.72 0 0.1
-0.7 0 0.1
-0.68 0 0.1
-0.66 0 0.1
-0.64 0 0.1
-0.62 0 0.1
-0.6 0 0.1
-0.58 0 0.1
-0.56 0 0.1
-0.54 0 0.1
-0.52 0 0.1
-0.5 0 0.1
-0.48 0 0.1
-0.46 0 0.1
-0.44 0 0.1
-0.42 0 0.1
-0.4 0 0.1
-0.38 0 0.1
-0.36 0 0.1
-0.34 0 0.1
-0.32 0 0.1
-0.3 0 0.1
-0.28 0 0.1
-0.26 0 0.1
-0.24 0 0.1
-0.22 0 0.1
-0.2 0 0.1
-0.18 0 0.1
-0.16 0 0.1
-0.14 0 0.1
-0.12 0 0.1
-0.1 0 0.1
-0.08 0 0.1
-0.06 0 0.1
-0.04 0 0.1
-0.02 0 0.1
0.0182781 0.00745351 0.1
0.0366672 0.0146286 0.1
0.0551632 0.0215237 0.1
0.0737617 0.0281372 0.1
0.0924585 0.0344675 0.1
0.111249 0.0405131 0.1
0.13013 0.0462728 0.1
0.149095 0.0517451 0.1
0.168142 0.0569289 0.1
0.187265 0.0618228 0.1
0.20646 0.0664258 0.1
0.225723 0.0707368 0.1
0.245049 0.0747549 0.1
0.264434 0.078479 0.1
0.283873 0.0819084 0.1
0.303362 0.0850422 0.1
0.322896 0.0878798 0.1
0.342472 0.0904204 0.1
0.362083 0.0926635 0.1
0.381726 0.0946086 0.1
0.401397 0.0962552 0.1
0.42109 0.0976029 0.1
0.440802 0.0986514 0.1
0.460527 0.0994006 0.1
0.480261 0.0998501 0.1
0.5 0.1 0.1
0.519739 0.0998501 0.1
0.539473 0.0994006 0.1
0.559198 0.0986514 0.1
0.57891 0.0976029 0.1
0.598603 0.0962552 0.1
0.618274 0.0946086 0.1
0.637917 0.0926635 0.1
0.657528 0.0904204 0.1
0.677104 0.0878798 0.1
0.696638 0.0850422 0.1
0.716127 0.0819084 0.1
0.735566 0.078479 0.1
0.754951 0.0747549 0.1
0.774277 0.0707368 0.1
0.79354 0.0664258 0.1
0.812735 0.0618228 0.1
0.831858 0.0569289 0.1
0.850905 0.0517451 0.1
0.86987 0.0462728 0.1
0.888751 0.0405131 0.1
0.907542 0.0344675 0.1
0.926238 0.0281372 0.1
0.944837 0.0215237 0.1
0.963333 0.0146286 0.1
0.981722 0.00745351 0.1
1.02 0 0.1
1.04 0 0.1
1.06 0 0.1
1.08 0 0.1
1.1 0 0.1
1.12 0 0.1
1.14 0 0.1
1.16 0 0.1
1.18 0 0.1
1.2 0 0.1
1.22 0 0.1
1.24 0 0.1
1.26 0 0.1
1.28 0 0.1
1.3 0 0.1
1.32 0 0.1
1.34 0 0.1
1.36 0 0.1
1.38 0 0.1
1.4 0 0.1
1.42 0 0.1
1.44 0 0.1
1.46 0 0.1
1.48 0 0.1
1.5 0 0.1
1.52 0 0.1
1.54 0 0.1
1.56 0 0.1
1.58 0 0.1
1.6 0 0.1
1.62 0 0.1
1.64 0 0.1
1.66 0 0.1
1.68 0 0.1
1.7 0 0.1
1.72 0 0.1
1.74 0 0.1
1.76 0 0.1
1.78 0 0.1
1.8 0 0.1
1.82 0 0.1
1.84 0 0.1
1.86 0 0.1
1.88 0 0.1
1.9 0 0.1
1.92 0 0.1
1.94 0 0.1
1.96 0 0.1
1.98 0 0.1
2 0.0199133 0.1
2 0.0414128 0.1
2 0.0646247 0.1
2 0.0896856 0.1
2 0.116743 0.1
2 0.145955 0.1
2 0.177494 0.1
2 0.211545 0.1
2 0.248309 0.1
2 0.288001 0.1
2 0.330854 0.1
2 0.377121 0.1
2 0.427073 0.1
2 0.481004 0.1
2 0.539231 0.1
2 0.602096 0.1
2 0.669968 0.1
2 0.743247 0.1
2 0.822362 0.1
2 0.907779 0.1
1.9 1 0.1
1.8 1 0.1
1.7 1 0.1
1.6 1 0.1
1.5 1 0.1
1.4 1 0.1
1.3 1 0.1
1.2 1 0.1
1.1 1 0.1
1 1 0.1
0.9 1 0.1
0.8 1 0.1
0.7 1 0.1
0.6 1 0.1
0.5 1 0.1
0.4 1 0.1
0.3 1 0.1
0.2 1 0.1
0.1 1 0.1
3.69793e-12 1 0.1
-0.1 1 0.1
-0.2 1 0.1
-0.3 1 0.1
-0.4 1 0.1
-0.5 1 0.1
-0.6 1 0.1
-0.7 1 0.1
-0.8 1 0.1
-0.9 1 0.1
1.08758 0.0158154 0
-0.0898513 0.0203294 0
0.0966181 0.0537636 0
0.90205 0.0548881 0
1.21055 0.0202058 0
-0.209811 0.0159577 0
1.3305 0.0176902 0
-0.33 0.0173205 0
1.45324 0.0148141 0
-0.448654 0.0159854 0
1.56842 0.0191785 0
-0.569936 0.0166364 0
0.193292 0.0805369 0
0.805051 0.0813623 0
0.709096 0.100353 0
0.288591 0.0996656 0
0.390184 0.111848 0
0.61033 0.111742 0
0.488809 0.116278 0
1.67175 0.0169692 0
-0.67 0.0169809 0
-0.955017 0.454039 0
1.95131 0.44569 0
1.74981 0.0168753 0
-0.75 0.0173205 0
-0.968032 0.266538 0
1.96871 0.266267 0
0.978232 0.0305687 0
0.0208675 0.026451 0
-0.150454 0.91842 0
1.13854 0.907437 0
1.45012 0.904365 0
-0.445923 0.908903 0
-0.853423 0.0157019 0
1.84881 0.016319 0
0.853689 0.915652 0
0.153944 0.912184 0
0.545151 0.914125 0
0.549913 0.115152 0
1.51 0.0173205 0
-0.506989 0.01651 0
1.27 0.0173205 0
1.14976 0.0173333 0
-0.268171 0.0206442 0
-0.150501 0.0153244 0
-0.391384 0.0153993 0
1.38886 0.0171544 0
-0.973694 0.161724 0
1.97441 0.162392 0
-0.945221 0.633523 0
1.94544 0.63312 0
1.91008 0.0186068 0
-0.91 0.0169616 0
-0.030664 0.0194327 0
1.03074 0.0165456 0
-0.966065 0.353575 0
1.96128 0.359765 0
1.93879 0.781254 0
-0.937057 0.781882 0
-0.980746 0.080709 0
1.9772 0.0760699 0
0.058735 0.0409372 0
0.355202 0.913001 0
0.86356 0.0661005 0
0.134223 0.0651111 0
0.941972 0.0397386 0
-0.653034 0.915003 0
1.65328 0.904589 0
0.770126 0.0881325 0
0.232946 0.0902008 0
0.330582 0.105648 0
0.670612 0.108365 0
0.428707 0.116145 0
1.80993 0.016629 0
-0.810168 0.0172178 0
-0.71 0.0173205 0
1.63047 0.0175504 0
1.70842 0.0169661 0
-0.628824 0.0181787 0
-0.949815 0.0133898 0
1.95 0.0173205 0
1.85542 0.907891 0
-0.85 0.913397 0
1.9833 0.0307692 0
-0.983315 0.0309709 0
-0.750025 0.916468 0
-0.701107 0.836904 0
-0.607741 0.836428 0
-0.656448 0.759827 0
-0.572936 0.758144 0
-0.61411 0.691195 0
-0.539534 0.689068 0
-0.578542 0.626111 0
-0.507461 0.624216 0
-0.544001 0.566638 0
-0.477696 0.564279 0
-0.511582 0.51001 0
-0.451689 0.507147 0
-0.481834 0.457732 0
-0.426137 0.454624 0
-0.453236 0.407539 0
-0.398845 0.406233 0
-0.507958 0.409496 0
-0.368427 0.460177 0
-0.344602 0.405209 0
-0.315696 0.447824 0
-0.294128 0.402169 0
-0.262844 0.444518 0
-0.241968 0.388746 0
-0.209878 0.439557 0
-0.185184 0.391135 0
-0.156687 0.437338 0
-0.133719 0.390776 0
-0.104405 0.434306 0
-0.0818745 0.388334 0
-0.0528785 0.431165 0
-0.0305984 0.385639 0
-0.00180552 0.427863 0
0.0194564 0.382608 0
0.0485809 0.42449 0
0.0701962 0.37973 0
0.0985483 0.421145 0
0.119893 0.377339 0
0.147837 0.417911 0
0.172552 0.36751 0
0.197018 0.412597 0
0.221203 0.37141 0
0.24512 0.409646 0
-0.48178 0.364657 0
-0.531053 0.364782 0
-0.0599102 0.344151 0
-0.324909 0.359566 0
0.266181 0.368462 0
0.292132 0.407649 0
0.311992 0.365779 0
0.338918 0.404821 0
0.357567 0.355909 0
0.384723 0.40053 0
0.404675 0.359681 0
0.430617 0.398558 0
0.450457 0.35827 0
0.474237 0.395182 0
0.496746 0.34898 0
0.520548 0.397931 0
0.542071 0.353121 0
0.566011 0.389914 0
0.585061 0.350856 0
0.609352 0.38696 0
0.629069 0.348168 0
0.655979 0.391217 0
0.67472 0.346182 0
0.699346 0.381414 0
0.719333 0.341965 0
0.743718 0.377547 0
0.764028 0.339036 0
0.788201 0.373582 0
0.807659 0.336101 0
0.832821 0.372249 0
0.852309 0.334017 0
0.877785 0.370339 0
0.897875 0.331141 0
0.922904 0.366281 0
0.943173 0.327335 0
0.968282 0.363358 0
0.989029 0.324222 0
1.01391 0.361511 0
1.03465 0.321428 0
1.05949 0.358447 0
1.08389 0.312052 0
1.10575 0.355104 0
1.12889 0.31562 0
1.15067 0.353235 0
1.17157 0.312819 0
1.19626 0.349369 0
1.21618 0.309863 0
1.2416 0.346914 0
1.26131 0.30715 0
1.28691 0.344312 0
1.30571 0.303752 0
1.33144 0.341222 0
1.35018 0.300911 0
1.3758 0.338308 0
1.39501 0.298931 0
1.42015 0.335235 0
1.43904 0.296349 0
1.46355 0.330194 0
1.48256 0.293347 0
1.50685 0.326967 0
1.52589 0.29055 0
1.54996 0.325305 0
1.56909 0.287929 0
[...]
CELL_DATA 3694
SCALARS rho float
LOOKUP_TABLE default
0.734563
0.66961
0.80366
0.81234
0.82604
0.804918
0.791378
0.799579
0.809373
0.802505
0.816698
0.816692
0.840012
0.789091
0.800404
0.749464
0.80315
0.802749
0.759286
0.849638
0.816712
0.822483
0.695463
0.803238
0.692026
0.838888
0.71966
0.805837
0.836542
0.798234
0.798433
0.718259
0.803308
0.824245
0.802543
0.796783
0.836794
0.822282
0.824316
0.778047
0.804469
0.8171
0.833873
0.824811
0.804904
0.812225
0.800391
0.662932
0.678419
0.719218
0.801907
0.802855
0.846396
0.801863
0.62654
0.837692
0.802359
0.818489
0.832411
0.75346
0.796028
0.814419
0.841661
0.799194
0.842173
0.83035
0.807204
0.812877
0.736478
0.857932
0.803072
0.8074
0.822506
0.803113
0.823923
0.802828
0.813951
0.799294
0.813278
0.8026
0.712282
0.817926
0.802143
0.776647
0.809246
0.799245
0.817832
0.713412
0.736229
0.824624
0.798636
0.802181
0.820023
0.814918
0.674029
0.806321
0.722395
0.81719
0.811687
0.839512
0.813987
0.761636
0.719008
0.809179
0.808685
0.814415
0.817167
0.80682
0.71485
0.813739
0.799055
0.720952
0.721241
0.823034
0.867565
0.802001
0.799191
0.811487
0.803057
0.801904
0.765464
0.822215
0.819162
0.769249
0.70486
0.757934
0.816837
0.776233
0.843171
0.698943
0.766933
0.800136
0.807733
0.777206
0.800502
0.795075
0.80527
0.80225
0.797605
0.813919
0.81316
0.709281
0.816356
0.812966
0.757062
0.665344
0.676225
0.797732
0.815407
0.812895
0.743413
0.802563
0.552956
0.778016
0.683347
0.762563
0.712846
0.783178
0.605133
0.792806
0.837269
0.643635
0.781733
0.736411
0.843707
0.551208
0.816991
0.800032
0.802459
0.672428
0.801453
0.66143
0.857454
0.532922
0.799685
0.630869
0.872058
0.832863
0.820139
0.745009
0.81351
0.721971
0.82644
0.737283
0.647428
0.803012
0.673089
0.82289
0.801537
0.850586
0.791534
0.705031
0.814128
0.798002
0.741266
0.85248
0.811187
0.848487
0.73594
0.741951
0.770537
0.793298
0.831256
0.834004
0.816668
0.81352
0.667896
0.804438
0.72587
0.803102
0.707094
0.796907
0.795455
0.801313
0.825228
0.762866
0.829955
0.748893
0.825169
0.819375
0.81536
0.852746
0.829214
0.701624
0.826589
0.688484
0.787511
0.809493
0.850754
0.82974
0.807719
0.794135
0.74439
0.817062
0.836294
0.816875
0.71398
0.799276
0.693582
0.791703
0.795311
0.809473
0.635968
0.807351
0.756969
0.797641
0.803034
0.75857
0.814576
0.865385
0.784038
0.692822
0.80422
0.801256
0.646031
0.791743
0.777537
0.802272
0.838627
0.81417
0.606885
0.814598
0.80992
0.796325
0.814876
0.802526
0.815165
0.814104
0.835384
0.755575
0.801703
0.834437
0.810076
0.803074
0.795901
0.814339
0.728301
0.586216
0.816323
0.829395
0.819926
0.804007
0.679578
0.814874
0.8146
0.816325
0.711909
0.796802
0.814444
0.536559
0.802733
0.868873
0.676195
0.755479
0.838302
0.826606
0.814177
0.707866
0.809232
0.814439
0.80365
0.801466
0.811923
0.836312
0.816945
0.766807
0.806844
0.802964
0.64547
0.820525
0.827429
0.670444
0.790507
0.818358
0.820667
0.67797
0.686177
0.820947
0.82364
0.80936
0.733599
0.706029
0.71276
0.731533
0.819831
0.776056
0.803995
0.731352
0.742001
0.822057
0.809711
0.818767
0.769335
0.814575
0.813242
0.816833
0.815454
0.802655
0.807355
0.80353
0.692745
0.802626
0.812576
0.693153
0.80679
0.804942
0.818946
0.785546
0.80574
0.791597
0.814325
0.820515
0.8197
0.797875
0.679449
0.709423
0.799241
0.810696
0.620941
0.803721
0.807122
0.817049
0.74248
0.804103
0.815869
0.811008
0.817314
0.804872
0.797119
0.763785
0.803957
0.843182
0.819693
0.707538
0.803443
0.701036
0.704979
0.802902
0.613748
0.770214
0.784528
0.807864
0.812829
0.824884
0.816627
0.812278
0.81971
0.827848
0.802756
0.763936
0.809573
0.657865
0.818768
0.756634
0.726843
0.685781
0.813383
0.853733
0.818796
0.808413
0.821877
0.814761
0.786619
0.757613
0.809082
0.692532
0.790995
0.843249
0.826397
0.800672
0.863769
0.813192
0.81607
0.81705
0.830841
0.628146
0.798208
0.730224
0.797653
0.735045
0.818623
0.808489
0.786822
0.685558
0.814227
0.829808
0.811338
0.802789
0.803648
0.823939
0.803701
0.709656
0.790121
0.803046
0.81418
0.813503
0.812115
0.87141
0.827401
0.809207
0.831721
0.681299
0.82298
0.837268
0.815703
0.626812
0.814736
0.808996
0.845178
0.820917
0.802856
0.591286
0.809911
0.694818
0.805948
0.802829
0.81189
0.812961
0.825019
0.804919
0.811018
0.815541
0.723072
0.862678
0.80182
0.849885
0.815924
0.572661
0.803755
0.796504
0.811075
0.817177
0.646319
0.802754
0.809462
0.812806
0.806947
0.793704
0.815077
0.816836
0.795696
0.803581
0.821008
0.836615
0.729267
0.806114
0.809355
0.812629
0.681771
0.805049
0.81557
0.799025
0.803912
0.518927
0.832565
0.763032
0.814088
0.817258
0.830506
0.845968
0.815654
0.811067
0.714922
0.798694
0.852137
0.807973
0.709422
0.799995
0.802561
0.871999
0.844989
0.8186
0.801926
0.80949
0.754999
0.814894
0.813653
0.583798
0.802496
0.728528
0.749973
0.802935
0.810861
0.780799
0.82104
0.814728
0.837762
0.815521
0.800337
0.808515
0.738652
0.73626
0.804022
0.807609
0.820702
0.802045
0.75154
0.687745
0.812997
0.814985
0.813817
0.593619
0.813119
0.816312
0.824319
0.80291
0.808272
0.819237
0.811667
0.839116
0.802917
0.812492
0.823349
0.815076
0.817421
0.821179
0.687659
0.783976
0.794456
0.803016
0.847328
0.802006
0.802354
0.634429
0.810505
0.813043
0.810572
0.818597
0.80563
0.812564
0.726573
0.84332
0.707829
0.80022
0.816862
0.807079
0.650312
0.68407
0.815067
0.805527
0.804077
0.784961
0.801469
0.828905
0.813059
0.804844
0.802001
0.811815
0.618885
0.811868
0.80288
0.697118
0.815108
0.61565
0.783501
0.815035
0.837528
0.805471
0.811958
0.791991
0.795147
0.803877
0.801372
0.811503
0.810938
0.808519
0.803182
0.757184
0.803976
0.811987
0.811439
0.815854
0.811005
0.815432
0.814384
0.833995
0.737384
0.806505
0.815158
0.802279
0.541087
0.680936
0.81097
0.812723
0.814696
0.780176
0.808052
0.812499
0.803027
0.799796
0.802596
0.819589
0.820414
0.814465
0.784392
0.807743
0.805225
0.539587
0.773578
0.756855
0.806164
0.735127
0.674305
0.797421
0.767243
0.82737
0.814383
0.81416
0.808213
0.538859
0.815306
0.582342
0.694521
0.824281
0.869527
0.740681
0.816123
0.852626
0.694179
0.814912
0.808856
0.814721
0.807181
0.655446
0.854309
0.737278
0.729069
0.803201
0.804479
0.799398
0.83325
0.814663
0.690259
0.815152
0.800206
0.690182
0.839218
0.797969
0.621124
0.772555
0.815198
0.807458
0.814297
0.784285
0.724106
0.769555
0.836784
0.687967
0.815461
0.816931
0.826564
0.764858
0.821662
0.690575
0.804473
0.659837
0.700109
0.800145
0.822468
0.788021
0.814027
0.814885
0.814696
0.813434
0.575867
0.802501
0.814429
0.742869
0.809935
0.814925
0.81128
0.715712
0.693284
0.740829
0.618976
0.807111
0.680767
0.815148
0.801828
0.814474
0.836774
0.686504
0.804131
0.819409
0.832199
0.736996
0.781365
0.764657
0.77266
0.811922
0.560767
0.670839
0.814785
0.805218
0.811902
0.804457
0.711934
0.779912
0.72354
0.760538
0.799468
0.831592
0.812091
0.690658
0.82301
0.817505
0.810444
0.684373
0.693871
0.680662
0.871943
0.815398
0.816199
0.607927
0.710798
0.640503
0.803313
0.800269
0.671051
0.81179
0.824194
0.748414
0.799315
0.728979
0.813654
0.691826
0.814201
0.810339
0.8011
0.803055
0.825271
0.743796
0.815252
0.814444
0.780114
0.550548
0.816044
0.810467
0.757392
0.813316
0.747508
0.802788
0.826125
0.656047
0.817703
0.802672
0.809853
0.582005
0.623399
0.734662
0.806269
0.811633
0.810355
0.820669
0.814526
0.815499
0.703866
0.801868
0.812703
0.825891
0.702902
0.725221
0.811743
0.811518
0.695453
0.814185
0.774069
0.702537
0.811767
0.695335
0.80385
0.661686
0.80286
0.730295
0.665794
0.810719
0.785985
0.743655
0.6303
0.839846
0.820935
0.814486
0.769965
0.813643
0.800001
0.785761
0.799808
0.801603
0.814741
0.730797
0.809582
0.799927
0.818351
0.597255
0.801259
0.812504
0.81347
0.811148
0.811713
0.745692
0.802649
0.7638
0.750212
0.818197
0.645068
0.818138
0.817256
0.803054
0.815159
0.816391
0.719549
0.768421
0.821726
0.784959
0.803663
0.815593
0.874911
0.817618
0.797885
0.81636
0.814821
0.793855
0.818061
0.816506
0.772949
0.696774
0.840931
0.796882
0.803145
0.822445
0.780777
0.817418
0.82466
0.818237
0.816435
0.870352
0.803074
0.804776
0.817837
0.80307
0.814939
0.806844
0.735005
0.814865
0.8193
0.753851
0.707165
0.814752
0.842978
0.822206
0.650948
0.82137
0.773397
0.807895
0.801822
0.729101
0.803102
0.79856
0.815354
0.816505
0.692204
0.703468
0.802129
0.787437
0.801453
0.824568
0.722262
0.814441
0.802337
0.800044
0.823134
0.814923
0.71198
0.81519
0.762781
0.802367
0.832422
0.803287
0.772949
0.797793
0.794549
0.814569
0.574936
0.814395
0.695668
0.676008
0.803392
0.819125
0.814452
0.802489
0.814594
0.808093
0.72326
0.787458
0.856918
0.802996
0.833259
0.807308
0.540394
0.76219
0.779376
0.646345
0.736971
0.577045
0.819842
0.812707
0.81361
0.80238
0.766602
0.683875
0.763902
0.75213
0.781842
0.814365
0.844695
0.818963
0.805726
0.819152
0.823471
0.802562
0.807402
0.703668
0.803059
0.75587
0.808563
0.79771
0.751
0.822031
0.788257
0.803469
0.789375
0.840663
0.727335
0.800801
0.799317
0.804795
0.616585
0.814965
0.814842
0.821526
0.629497
0.814719
0.814726
0.798401
0.803771
0.793074
0.774804
0.806042
0.794201
0.815466
0.753123
0.803426
0.875124
0.762277
0.747344
0.806618
0.783851
0.842317
0.799519
0.779081
0.815049
0.798087
0.792389
0.807947
0.825193
0.835417
0.799632
0.572358
0.82003
0.827901
0.771923
0.830404
0.83794
0.822477
0.825916
0.807156
0.832614
0.826465
0.783573
0.808753
0.810863
0.805915
0.822297
0.803307
0.82719
0.792764
0.802976
0.805602
0.725775
0.806967
0.559584
0.81751
0.824927
0.828253
0.805573
0.817895
0.823507
0.819239
0.820383
0.838483
0.832768
0.787471
0.800256
0.821285
0.814893
0.816474
0.800106
0.806267
0.865363
0.8196
0.847097
0.814598
0.800516
0.824437
0.7996
0.833239
0.812954
0.814911
0.805167
0.72522
0.802817
0.804415
0.81453
0.803234
0.80174
0.82191
0.804405
0.804068
0.777676
0.819554
0.716618
0.813889
0.779792
0.758409
0.803462
0.813114
0.818804
0.71408
0.818872
0.81503
0.826368
0.816616
0.789334
0.815784
0.847051
0.832795
0.81455
0.811557
0.801462
0.742992
0.675941
0.81453
0.820309
0.770341
0.813905
0.807596
0.811287
0.805259
0.798325
0.775893
0.802313
0.799895
0.841163
0.816905
0.811197
0.806097
0.601965
0.730131
0.802042
0.782888
0.803934
0.815204
0.805743
0.815553
0.77954
0.814603
0.804627
0.81016
0.803557
0.817367
0.803129
0.815335
0.810377
0.815332
0.812324
0.716308
0.813991
0.815142
0.595709
0.814362
0.796581
0.802611
0.858534
0.81788
0.810181
0.872301
0.814765
0.814845
0.81633
0.818355
0.814779
0.763881
0.830109
0.801133
0.803025
0.814064
0.814708
0.816208
0.814557
0.81294
0.822594
0.803825
0.81201
0.808867
0.814898
0.819775
0.814576
0.811281
0.818798
0.808738
0.696834
0.658022
0.802483
0.808308
0.803185
0.810776
0.817896
0.816625
0.802749
0.803578
0.800375
0.800652
0.816401
0.844105
0.818051
0.811238
0.818
0.817669
0.845736
0.816988
0.820801
0.785374
0.815306
0.806615
0.801003
0.791795
0.810295
0.818009
0.814405
0.814631
0.835788
0.805636
0.812109
0.81612
0.821313
0.803352
0.803033
0.805341
0.810341
0.814523
0.801394
0.802576
0.816381
0.822291
0.8006
0.584254
0.804093
0.796485
0.816959
0.798409
0.802614
0.747711
0.840501
0.80257
0.799545
0.83443
0.829333
0.810019
0.825786
0.800267
0.817344
0.816953
0.818201
0.803447
0.817781
0.726859
0.821845
0.811315
0.799883
0.812812
0.820035
0.798924
0.80382
0.781833
0.814947
0.814806
0.814917
0.81799
0.806234
0.816528
0.815214
0.825634
0.821768
0.837311
0.805721
0.694441
0.817425
0.840322
0.819265
0.804395
0.799843
0.803146
0.815763
0.813893
0.815423
0.743352
0.737091
0.800521
0.802789
0.815094
0.816043
0.798213
0.651245
0.707575
0.807824
0.76889
0.81526
0.70222
0.802963
0.727403
0.803114
0.819676
0.80305
0.816762
0.812189
0.798401
0.808364
0.792971
0.829626
0.814948
0.80098
0.803294
0.815299
0.821167
0.748651
0.822238
0.803553
0.782981
0.81482
0.80365
0.810197
0.813973
0.814395
0.834941
0.792213
0.798754
0.814695
0.758392
0.80638
0.814115
0.800821
0.815366
0.840966
0.802038
0.842916
0.808249
0.789918
0.811178
0.802546
0.851676
0.788204
0.803045
0.815401
0.831198
0.80816
0.813066
0.815099
0.802662
0.802572
0.825721
0.782218
0.813626
0.814679
0.64178
0.814885
0.711909
0.817394
0.837893
0.824015
0.8037
0.813876
0.814529
0.72491
0.814063
0.800541
0.8014
0.800632
0.815115
0.863611
0.801025
0.80074
0.785104
0.840283
0.827734
0.819037
0.812604
0.746129
0.802983
0.803266
0.73005
0.79913
0.713586
0.809823
0.800798
0.675394
0.880086
0.701639
0.771902
0.800967
0.742478
0.80815
0.798655
0.802958
0.659269
0.796543
0.783796
0.798697
0.727547
0.818118
0.821918
0.884422
0.809227
0.830952
0.643979
0.799672
0.786375
0.74342
0.750581
0.768295
0.704776
0.802965
0.799025
0.803039
0.763103
0.625875
0.811196
0.611444
0.820604
0.82242
0.811268
0.736259
0.811587
0.794841
0.818556
0.782433
0.806574
0.79694
0.809334
0.715917
0.801256
0.721562
0.801102
0.798498
0.684508
0.803406
0.814425
0.814489
0.802988
0.76062
0.814256
0.732145
0.689844
0.802142
0.814486
0.874248
0.814384
0.813767
0.880437
0.865255
0.830538
0.717967
0.801783
0.81166
0.820983
0.797441
0.679537
0.721959
0.674375
0.802274
0.704724
0.767976
0.79915
0.614294
0.688483
0.835761
0.773005
0.744646
0.830035
0.758562
0.769018
0.627454
0.730631
0.78457
0.819162
0.869331
0.837459
0.814835
0.794093
0.799416
0.714979
0.814683
0.693208
0.796801
0.814464
0.783288
0.761962
0.801156
0.782263
0.802049
0.800521
0.811008
0.81084
0.866949
0.566414
0.536533
0.802225
0.80648
0.69733
0.809704
0.802664
0.837176
0.803348
0.802249
0.565689
0.552776
0.808166
0.811666
0.814595
0.725308
0.803058
0.809994
0.68342
0.810675
0.802572
0.813081
0.803092
0.80007
0.80212
0.813533
0.802845
0.816774
0.803087
0.861853
0.813894
0.802391
0.721111
0.668913
0.814638
0.583733
0.812183
0.809781
0.835506
0.813168
0.802902
0.810509
0.812571
0.812376
0.814213
0.801463
0.85357
0.856214
0.802058
0.653869
0.807836
0.822155
0.799277
0.803065
0.819449
0.733037
0.803168
0.824752
0.820798
0.814963
0.814472
0.76614
0.745331
0.800559
0.833598
0.802587
0.813741
0.804255
0.803457
0.80479
0.813208
0.808604
0.798459
0.806675
0.805784
0.82432
0.806489
0.80609
0.81684
0.806616
0.803303
0.812296
0.802874
0.802732
0.805622
0.807591
0.812438
0.773238
0.80515
0.8026
0.814379
0.799503
0.8036
0.806659
0.831399
0.804858
0.648437
0.800602
0.814655
0.804493
0.814537
0.762576
0.814419
0.750042
0.803529
0.802066
0.803903
0.818682
0.850732
0.804203
0.803182
0.746867
0.829113
0.814367
0.819754
0.824689
0.814152
0.735791
0.8174
0.721009
0.800886
0.82708
0.802255
0.698413
0.8253
0.81415
0.815593
0.823543
0.814791
0.772948
0.81642
0.646547
0.709174
0.814464
0.822012
0.673908
0.818609
0.657839
0.820808
0.806542
0.815909
0.803094
0.805332
0.81428
0.831324
0.824873
0.670268
0.812432
0.841663
0.781177
0.84595
0.800127
0.704505
0.83811
0.818837
0.835125
0.686629
0.681589
0.832431
0.654964
0.830122
0.814479
0.828078
0.806103
0.826348
0.787447
0.824833
0.82343
0.706347
0.865423
0.822226
0.821208
0.823393
0.758677
0.802717
0.521804
0.802633
0.820322
0.812937
0.804557
0.825395
0.814418
0.797795
0.819542
0.802895
0.678204
0.7922
0.833923
0.813801
0.714849
0.798756
0.821353
0.574308
0.814164
0.815002
0.802446
0.809733
0.725287
0.817418
0.802937
0.803364
0.795785
0.793472
0.797723
0.794517
0.803219
0.811789
0.819118
0.813515
0.571237
0.892854
0.704849
0.797711
0.738882
0.791251
0.814394
0.815118
0.814998
0.603355
0.818474
0.817016
0.803746
0.817475
0.836318
0.839231
0.782663
0.798293
0.799329
0.724161
0.752102
0.81466
0.763566
0.814977
0.818525
0.814224
0.813306
0.801853
0.774822
0.811869
0.815543
0.727898
0.810409
0.815319
0.817571
0.807624
0.809288
0.764172
0.813999
0.80801
0.803072
0.807257
0.615417
0.80632
0.804167
0.805745
0.820822
0.845293
0.804535
0.773726
0.805109
0.771331
0.819769
0.805339
0.812153
0.814403
0.849905
0.803286
0.744055
0.819591
0.814658
0.726562
0.800704
0.815685
0.7582
0.812025
0.567965
0.806395
0.685102
0.801002
0.810744
0.811924
0.816685
0.804056
0.815274
0.817208
0.800869
0.804125
0.844097
0.815603
0.796041
0.815682
0.801743
0.801312
0.800133
0.801091
0.806657
0.814027
0.801453
0.769448
0.817907
0.81256
0.808697
0.814414
0.585523
0.803171
0.813494
0.814709
0.787039
0.747724
0.718932
0.811889
0.814254
0.825501
0.788896
0.601877
0.771121
0.638834
0.816193
0.74501
0.811606
0.829906
0.693821
0.799528
0.833472
0.748805
0.800459
0.803069
0.815005
0.801933
0.69828
0.800556
0.546948
0.801616
0.802323
0.802087
0.564621
0.802835
0.803315
0.803067
0.728057
0.736949
0.803314
0.776033
0.815063
0.721631
0.706133
0.814453
0.801194
0.752138
0.853884
0.813244
0.811668
0.668614
0.802668
0.800426
0.800323
0.802367
0.655717
0.803123
0.814716
0.653595
0.684756
0.805628
0.790052
0.814543
0.822821
0.814446
0.814647
0.815893
0.803537
0.814618
0.814386
0.813032
0.828984
0.802314
0.801676
0.810161
0.725995
0.809407
0.814241
0.862551
0.810588
0.637097
0.774129
0.80207
0.775889
0.816148
0.811264
0.829678
0.813835
0.864353
0.801758
0.814012
0.592541
0.815377
0.83351
0.802829
0.813664
0.623924
0.814851
0.802626
0.816105
0.802125
0.816985
0.815393
0.754516
0.803438
0.803068
0.834768
0.861656
0.819413
0.815526
0.72511
0.7408
0.802408
0.802914
0.811795
0.817539
0.799401
0.802747
0.818991
0.806034
0.807375
0.7393
0.802614
0.816989
0.813432
0.7679
0.760323
0.811219
0.796244
0.856735
0.718205
0.834223
0.81047
0.71168
0.799525
0.813868
0.787289
0.800572
0.799547
0.814471
0.776888
0.774303
0.812791
0.696552
0.798503
0.765056
0.814328
0.816723
0.801869
0.787151
0.737899
0.751783
0.773572
0.814035
0.818427
0.805284
0.656262
0.801714
0.795343
0.777621
0.80955
0.81236
0.799378
0.802977
0.632329
0.803824
0.804449
0.851005
0.803584
0.808869
0.832947
0.805125
0.809591
0.851939
0.611471
0.803915
0.815588
0.805258
0.804873
0.805557
0.804447
0.804542
0.804066
0.805639
0.80615
0.723931
0.805528
0.806833
0.806335
0.814567
0.807964
0.818077
0.803035
0.803399
0.814146
0.814328
0.809483
0.803296
0.816033
0.812938
0.809358
0.81548
0.707606
0.813345
0.831138
0.814341
0.853992
0.749252
0.807579
0.814396
0.800618
0.598454
0.803161
0.771941
0.821408
0.626463
0.815003
0.829137
0.814074
0.811416
0.801965
0.826774
0.818808
0.803451
0.764344
0.816541
0.758231
0.545752
0.813727
0.695481
0.694189
0.8202
0.827243
0.827045
0.816136
0.847236
0.569755
0.876442
0.805077
0.825528
0.823844
0.812427
0.680856
0.814265
0.82229
0.815841
0.80082
0.773506
0.822073
0.564352
0.812674
0.842864
0.803022
0.839285
0.82104
0.803222
0.668104
0.843008
0.819971
0.83608
0.80072
0.813374
0.802991
0.833429
0.802708
0.813291
0.830987
0.828827
0.821836
0.823851
0.830576
0.738872
0.660117
0.562522
0.826967
0.825429
0.766933
0.756002
0.805903
0.823987
0.846572
0.589774
0.822693
0.82159
0.820669
0.819122
0.803771
0.820599
0.656532
0.74361
0.819858
0.7972
0.869714
0.889953
0.776097
0.803471
0.668855
0.835276
0.729622
0.717586
0.818949
0.80147
0.783188
0.659314
0.802064
0.814491
0.788642
0.710613
0.800039
0.816975
0.797796
0.675004
0.823167
0.792603
0.815188
0.832914
0.814975
0.795243
0.815642
0.815398
0.785617
0.803848
0.709625
0.840379
0.792861
0.81062
0.781654
0.80424
0.694945
0.80068
0.813309
0.811947
0.810783
0.809257
0.808166
0.807411
0.805784
0.804676
0.806593
0.724158
0.805226
0.801316
0.795728
0.80318
0.844203
0.714185
0.80311
0.775854
0.883797
0.854021
0.797844
0.722611
0.803145
0.797519
0.718265
0.803191
0.801539
0.73348
0.803505
0.789475
0.797108
0.800932
0.736885
0.779209
0.804047
0.74659
0.764048
0.768879
0.801254
0.814127
0.808436
0.758044
0.750878
0.79938
0.81313
0.803217
0.792577
0.800976
0.928552
0.860336
0.817266
0.814282
0.723549
0.844049
0.747119
0.825818
0.816188
0.897997
0.814457
0.79696
0.58749
0.81449
0.797074
0.814526
0.797495
0.845301
0.519117
0.832479
0.801427
0.805439
0.804687
0.803608
0.855527
0.801138
0.81689
0.701005
0.658045
0.666022
0.814572
0.501048
0.797499
0.721111
0.841545
0.814443
0.556674
0.801709
0.813978
0.813643
0.718463
0.801544
0.523311
0.796991
0.814713
0.79711
0.802596
0.79735
0.814888
0.83364
0.803211
0.798056
0.815292
0.798321
0.815446
0.813746
0.798603
0.81562
0.813201
0.815824
0.798709
0.816051
0.678899
0.798902
0.816305
0.802987
0.799091
0.816562
0.696947
0.814483
0.798063
0.814424
0.798096
0.80953
0.838008
0.861054
0.800807
0.800175
0.817514
0.815157
0.799818
0.799443
0.863177
0.811881
0.817181
0.809983
0.849641
0.828135
0.816152
0.825385
0.845918
0.81442
0.8013
0.818764
0.811295
0.801724
0.814314
0.799821
0.807184
0.782829
0.806512