# vtk DataFile Version 1.0
unstructured grid
ascii
DATASET UNSTRUCTURED_GRID
points 3920 float
-1 0 0
-1 1 0
2 0 0
2 1 0
0 0 0
1 0 0
-1 1 0.1
-1 0 0.1
0 0 0.1
1 0 0.1
2 0 0.1
2 1 0.1
-0.98 0 0
-0.96 0 0
-0.94 0 0
-0.92 0 0
-0.9 0 0
-0.88 0 0
-0.86 0 0
-0.84 0 0
-0.82 0 0
-0.8 0 0
-0.78 0 0
-0.76 0 0
-0.74 0 0
-0.72 0 0
-0.7 0 0
-0.68 0 0
-0.66 0 0
-0.64 0 0
-0.62 0 0
-0.6 0 0
-0.58 0 0
-0.56 0 0
-0.54 0 0
-0.52 0 0
-0.5 0 0
-0.48 0 0
-0.46 0 0
-0.44 0 0
-0.42 0 0
-0.4 0 0
-0.38 0 0
-0.36 0 0
-0.34 0 0
-0.32 0 0
-0.3 0 0
-0.28 0 0
-0.26 0 0
-0.24 0 0
-0.22 0 0
-0.2 0 0
-0.18 0 0
-0.16 0 0
-0.14 0 0
-0.12 0 0
-0.1 0 0
-0.08 0 0
-0.06 0 0
-0.04 0 0
-0.02 0 0
1.02 0 0
1.04 0 0
1.06 0 0
1.08 0 0
1.1 0 0
1.12 0 0
1.14 0 0
1.16 0 0
1.18 0 0
1.2 0 0
1.22 0 0
1.24 0 0
1.26 0 0
1.28 0 0
1.3 0 0
1.32 0 0
1.34 0 0
1.36 0 0
1.38 0 0
1.4 0 0
1.42 0 0
1.44 0 0
1.46 0 0
1.48 0 0
1.5 0 0
1.52 0 0
1.54 0 0
1.56 0 0
1.58 0 0
1.6 0 0
1.62 0 0
1.64 0 0
1.66 0 0
1.68 0 0
1.7 0 0
1.72 0 0
1.74 0 0
1.76 0 0
1.78 0 0
1.8 0 0
1.82 0 0
1.84 0 0
1.86 0 0
1.88 0 0
1.9 0 0
1.92 0 0
1.94 0 0
1.96 0 0
1.98 0 0
2 0.0199133 0
2 0.0414128 0
2 0.0646247 0
2 0.0896856 0
2 0.116743 0
2 0.145955 0
2 0.177494 0
2 0.211545 0
2 0.248309 0
2 0.288001 0
2 0.330854 0
2 0.377121 0
2 0.427073 0
2 0.481004 0
2 0.539231 0
2 0.602096 0
2 0.669968 0
2 0.743247 0
2 0.822362 0
2 0.907779 0
1.9 1 0
1.8 1 0
1.7 1 0
1.6 1 0
1.5 1 0
1.4 1 0
1.3 1 0
1.2 1 0
1.1 1 0
1 1 0
0.9 1 0
0.8 1 0
0.7 1 0
0.6 1 0
0.5 1 0
0.4 1 0
0.3 1 0
0.2 1 0
0.1 1 0
3.69793e-12 1 0
-0.1 1 0
-0.2 1 0
-0.3 1 0
-0.4 1 0
-0.5 1 0
-0.6 1 0
-0.7 1 0
-0.8 1 0
-0.9 1 0
-1 0.907779 0
-1 0.822362 0
-1 0.743247 0
-1 0.669968 0
-1 0.602096 0
-1 0.539231 0
-1 0.481004 0
-1 0.427073 0
-1 0.377121 0
-1 0.330854 0
-1 0.288001 0
-1 0.248309 0
-1 0.211545 0
-1 0.177494 0
-1 0.145955 0
-1 0.116743 0
-1 0.0896856 0
-1 0.0646247 0
-1 0.0414128 0
-1 0.0199133 0
0.0182781 0.00745351 0
0.0366672 0.0146286 0
0.0551632 0.0215237 0
0.0737617 0.0281372 0
0.0924585 0.0344675 0
0.111249 0.0405131 0
0.13013 0.0462728 0
0.149095 0.0517451 0
0.168142 0.0569289 0
0.187265 0.0618228 0
0.20646 0.0664258 0
0.225723 0.0707368 0
0.245049 0.0747549 0
0.264434 0.078479 0
0.283873 0.0819084 0
0.303362 0.0850422 0
0.322896 0.0878798 0
0.342472 0.0904204 0
0.362083 0.0926635 0
0.381726 0.0946086 0
0.401397 0.0962552 0
0.42109 0.0976029 0
0.440802 0.0986514 0
0.460527 0.0994006 0
0.480261 0.0998501 0
0.5 0.1 0
0.519739 0.0998501 0
0.539473 0.0994006 0
0.559198 0.0986514 0
0.57891 0.0976029 0
0.598603 0.0962552 0
0.618274 0.0946086 0
0.637917 0.0926635 0
0.657528 0.0904204 0
0.677104 0.0878798 0
0.696638 0.0850422 0
0.716127 0.0819084 0
0.735566 0.078479 0
0.754951 0.0747549 0
0.774277 0.0707368 0
0.79354 0.0664258 0
0.812735 0.0618228 0
0.831858 0.0569289 0
0.850905 0.0517451 0
0.86987 0.0462728 0
0.888751 0.0405131 0
0.907542 0.0344675 0
0.926238 0.0281372 0
0.944837 0.0215237 0
0.963333 0.0146286 0
0.981722 0.00745351 0
-1 0.907779 0.1
-1 0.822362 0.1
-1 0.743247 0.1
-1 0.669968 0.1
-1 0.602096 0.1
-1 0.539231 0.1
-1 0.481004 0.1
-1 0.427073 0.1
-1 0.377121 0.1
-1 0.330854 0.1
-1 0.288001 0.1
-1 0.248309 0.1
-1 0.211545 0.1
-1 0.177494 0.1
-1 0.145955 0.1
-1 0.116743 0.1
-1 0.0896856 0.1
-1 0.0646247 0.1
-1 0.0414128 0.1
-1 0.0199133 0.1
-0.98 0 0.1
-0.96 0 0.1
-0.94 0 0.1
-0.92 0 0.1
-0.9 0 0.1
-0.88 0 0.1
-0.86 0 0.1
-0.84 0 0.1
-0.82 0 0.1
-0.8 0 0.1
-0.78 0 0.1
-0.76 0 0.1
-0.74 0 0.1
-0.72 0 0.1
-0.7 0 0.1
-0.68 0 0.1
-0.66 0 0.1
-0.64 0 0.1
-0.62 0 0.1
-0.6 0 0.1
-0.58 0 0.1
-0.56 0 0.1
-0.54 0 0.1
-0.52 0 0.1
-0.5 0 0.1
-0.48 0 0.1
-0.46 0 0.1
-0.44 0 0.1
-0.42 0 0.1
-0.4 0 0.1
-0.38 0 0.1
-0.36 0 0.1
-0.34 0 0.1
-0.32 0 0.1
-0.3 0 0.1
-0.28 0 0.1
-0.26 0 0.1
-0.24 0 0.1
-0.22 0 0.1
-0.2 0 0.1
-0.18 0 0.1
-0.16 0 0.1
-0.14 0 0.1
-0.12 0 0.1
-0.1 0 0.1
-0.08 0 0.1
-0.06 0 0.1
-0.04 0 0.1
-0.02 0 0.1
0.0182781 0.00745351 0.1
0.0366672 0.0146286 0.1
0.0551632 0.0215237 0.1
0.0737617 0.0281372 0.1
0.0924585 0.0344675 0.1
0.111249 0.0405131 0.1
0.13013 0.0462728 0.1
0.149095 0.0517451 0.1
0.168142 0.0569289 0.1
0.187265 0.0618228 0.1
0.20646 0.0664258 0.1
0.225723 0.0707368 0.1
0.245049 0.0747549 0.1
0.264434 0.078479 0.1
0.283873 0.0819084 0.1
0.303362 0.0850422 0.1
0.322896 0.0878798 0.1
0.342472 0.0904204 0.1
0.362083 0.0926635 0.1
0.381726 0.0946086 0.1
0.401397 0.0962552 0.1
0.42109 0.0976029 0.1
0.440802 0.0986514 0.1
0.460527 0.0994006 0.1
0.480261 0.0998501 0.1
0.5 0.1 0.1
0.519739 0.0998501 0.1
0.539473 0.0994006 0.1
0.559198 0.0986514 0.1
0.57891 0.0976029 0.1
0.598603 0.0962552 0.1
0.618274 0.0946086 0.1
0.637917 0.0926635 0.1
0.657528 0.0904204 0.1
0.677104 0.0878798 0.1
0.696638 0.0850422 0.1
0.716127 0.0819084 0.1
0.735566 0.078479 0.1
0.754951 0.0747549 0.1
0.774277 0.0707368 0.1
0.79354 0.0664258 0.1
0.812735 0.0618228 0.1
0.831858 0.0569289 0.1
0.850905 0.0517451 0.1
0.86987 0.0462728 0.1
0.888751 0.0405131 0.1
0.907542 0.0344675 0.1
0.926238 0.0281372 0.1
0.944837 0.0215237 0.1
0.963333 0.0146286 0.1
0.981722 0.00745351 0.1
1.02 0 0.1
1.04 0 0.1
1.06 0 0.1
1.08 0 0.1
1.1 0 0.1
1.12 0 0.1
1.14 0 0.1
1.16 0 0.1
1.18 0 0.1
1.2 0 0.1
1.22 0 0.1
1.24 0 0.1
1.26 0 0.1
1.28 0 0.1
1.3 0 0.1
1.32 0 0.1
1.34 0 0.1
1.36 0 0.1
1.38 0 0.1
1.4 0 0.1
1.42 0 0.1
1.44 0 0.1
1.46 0 0.1
1.48 0 0.1
1.5 0 0.1
1.52 0 0.1
1.54 0 0.1
1.56 0 0.1
1.58 0 0.1
1.6 0 0.1
1.62 0 0.1
1.64 0 0.1
1.66 0 0.1
1.68 0 0.1
1.7 0 0.1
1.72 0 0.1
1.74 0 0.1
1.76 0 0.1
1.78 0 0.1
1.8 0 0.1
1.82 0 0.1
1.84 0 0.1
1.86 0 0.1
1.88 0 0.1
1.9 0 0.1
1.92 0 0.1
1.94 0 0.1
1.96 0 0.1
1.98 0 0.1
2 0.0199133 0.1
2 0.0414128 0.1
2 0.0646247 0.1
2 0.0896856 0.1
2 0.116743 0.1
2 0.145955 0.1
2 0.177494 0.1
2 0.211545 0.1
2 0.248309 0.1
2 0.288001 0.1
2 0.330854 0.1
2 0.377121 0.1
2 0.427073 0.1
2 0.481004 0.1
2 0.539231 0.1
2 0.602096 0.1
2 0.669968 0.1
2 0.743247 0.1
2 0.822362 0.1
2 0.907779 0.1
1.9 1 0.1
1.8 1 0.1
1.7 1 0.1
1.6 1 0.1
1.5 1 0.1
1.4 1 0.1
1.3 1 0.1
1.2 1 0.1
1.1 1 0.1
1 1 0.1
0.9 1 0.1
0.8 1 0.1
0.7 1 0.1
0.6 1 0.1
0.5 1 0.1
0.4 1 0.1
0.3 1 0.1
0.2 1 0.1
0.1 1 0.1
3.69793e-12 1 0.1
-0.1 1 0.1
-0.2 1 0.1
-0.3 1 0.1
-0.4 1 0.1
-0.5 1 0.1
-0.6 1 0.1
-0.7 1 0.1
-0.8 1 0.1
-0.9 1 0.1
1.08758 0.0158154 0
-0.0898513 0.0203294 0
0.0966181 0.0537636 0
0.90205 0.0548881 0
1.21055 0.0202058 0
-0.209811 0.0159577 0
1.3305 0.0176902 0
-0.33 0.0173205 0
1.45324 0.0148141 0
-0.448654 0.0159854 0
1.56842 0.0191785 0
-0.569936 0.0166364 0
0.193292 0.0805369 0
0.805051 0.0813623 0
0.709096 0.100353 0
0.288591 0.0996656 0
0.390184 0.111848 0
0.61033 0.111742 0
0.488809 0.116278 0
1.67175 0.0169692 0
-0.67 0.0169809 0
-0.955017 0.454039 0
1.95131 0.44569 0
1.74981 0.0168753 0
-0.75 0.0173205 0
-0.968032 0.266538 0
1.96871 0.266267 0
0.978232 0.0305687 0
0.0208675 0.026451 0
-0.150454 0.91842 0
1.13854 0.907437 0
1.45012 0.904365 0
-0.445923 0.908903 0
-0.853423 0.0157019 0
1.84881 0.016319 0
0.853689 0.915652 0
0.153944 0.912184 0
0.545151 0.914125 0
0.549913 0.115152 0
1.51 0.0173205 0
-0.506989 0.01651 0
1.27 0.0173205 0
1.14976 0.0173333 0
-0.268171 0.0206442 0
-0.150501 0.0153244 0
-0.391384 0.0153993 0
1.38886 0.0171544 0
-0.973694 0.161724 0
1.97441 0.162392 0
-0.945221 0.633523 0
1.94544 0.63312 0
1.91008 0.0186068 0
-0.91 0.0169616 0
-0.030664 0.0194327 0
1.03074 0.0165456 0
-0.966065 0.353575 0
1.96128 0.359765 0
1.93879 0.781254 0
-0.937057 0.781882 0
-0.980746 0.080709 0
1.9772 0.0760699 0
0.058735 0.0409372 0
0.355202 0.913001 0
0.86356 0.0661005 0
0.134223 0.0651111 0
0.941972 0.0397386 0
-0.653034 0.915003 0
1.65328 0.904589 0
0.770126 0.0881325 0
0.232946 0.0902008 0
0.330582 0.105648 0
0.670612 0.108365 0
0.428707 0.116145 0
1.80993 0.016629 0
-0.810168 0.0172178 0
-0.71 0.0173205 0
1.63047 0.0175504 0
1.70842 0.0169661 0
-0.628824 0.0181787 0
-0.949815 0.0133898 0
1.95 0.0173205 0
1.85542 0.907891 0
-0.85 0.913397 0
1.9833 0.0307692 0
-0.983315 0.0309709 0
-0.750025 0.916468 0
-0.701107 0.836904 0
-0.607741 0.836428 0
-0.656448 0.759827 0
-0.572936 0.758144 0
-0.61411 0.691195 0
-0.539534 0.689068 0
-0.578542 0.626111 0
-0.507461 0.624216 0
-0.544001 0.566638 0
-0.477696 0.564279 0
-0.511582 0.51001 0
-0.451689 0.507147 0
-0.481834 0.457732 0
-0.426137 0.454624 0
-0.453236 0.407539 0
-0.398845 0.406233 0
-0.507958 0.409496 0
-0.368427 0.460177 0
-0.344602 0.405209 0
-0.315696 0.447824 0
-0.294128 0.402169 0
-0.262844 0.444518 0
-0.241968 0.388746 0
-0.209878 0.439557 0
-0.185184 0.391135 0
-0.156687 0.437338 0
-0.133719 0.390776 0
-0.104405 0.434306 0
-0.0818745 0.388334 0
-0.0528785 0.431165 0
-0.0305984 0.385639 0
-0.00180552 0.427863 0
0.0194564 0.382608 0
0.0485809 0.42449 0
0.0701962 0.37973 0
0.0985483 0.421145 0
0.119893 0.377339 0
0.147837 0.417911 0
0.172552 0.36751 0
0.197018 0.412597 0
0.221203 0.37141 0
0.24512 0.409646 0
-0.48178 0.364657 0
-0.531053 0.364782 0
-0.0599102 0.344151 0
-0.324909 0.359566 0
0.266181 0.368462 0
0.292132 0.407649 0
0.311992 0.365779 0
0.338918 0.404821 0
0.357567 0.355909 0
0.384723 0.40053 0
0.404675 0.359681 0
0.430617 0.398558 0
0.450457 0.35827 0
0.474237 0.395182 0
0.496746 0.34898 0
0.520548 0.397931 0
0.542071 0.353121 0
0.566011 0.389914 0
0.585061 0.350856 0
0.609352 0.38696 0
0.629069 0.348168 0
0.655979 0.391217 0
0.67472 0.346182 0
0.699346 0.381414 0
0.719333 0.341965 0
0.743718 0.377547 0
0.764028 0.339036 0
0.788201 0.373582 0
0.807659 0.336101 0
0.832821 0.372249 0
0.852309 0.334017 0
0.877785 0.370339 0
0.897875 0.331141 0
0.922904 0.366281 0
0.943173 0.327335 0
0.968282 0.363358 0
0.989029 0.324222 0
1.01391 0.361511 0
1.03465 0.321428 0
1.05949 0.358447 0
1.08389 0.312052 0
1.10575 0.355104 0
1.12889 0.31562 0
1.15067 0.353235 0
1.17157 0.312819 0
1.19626 0.349369 0
1.21618 0.309863 0
1.2416 0.346914 0
1.26131 0.30715 0
1.28691 0.344312 0
1.30571 0.303752 0
1.33144 0.341222 0
1.35018 0.300911 0
1.3758 0.338308 0
1.39501 0.298931 0
1.42015 0.335235 0
1.43904 0.296349 0
1.46355 0.330194 0
1.48256 0.293347 0
1.50685 0.326967 0
1.52589 0.29055 0
1.54996 0.325305 0
1.56909 0.287929 0
[...]
CELL_DATA 3694
SCALARS rho float
LOOKUP_TABLE default
0.734348
0.669224
0.803633
0.812135
0.825918
0.804876
0.79132
0.79941
0.809189
0.802459
0.816516
0.81651
0.839885
0.789024
0.800271
0.749131
0.803126
0.802704
0.759005
0.849564
0.816569
0.82233
0.694754
0.803209
0.69131
0.838732
0.719545
0.80566
0.836359
0.798102
0.798309
0.718211
0.803264
0.824092
0.802486
0.796605
0.836712
0.822131
0.82419
0.778079
0.804427
0.817073
0.833694
0.824656
0.804866
0.812019
0.800188
0.66097
0.678114
0.718639
0.801877
0.802841
0.846318
0.801825
0.625253
0.83761
0.802296
0.818344
0.832401
0.75327
0.795978
0.814187
0.841563
0.799023
0.842068
0.830225
0.807083
0.812664
0.73654
0.857857
0.803057
0.807363
0.822353
0.803089
0.823778
0.802813
0.813917
0.799179
0.81309
0.802571
0.711644
0.817766
0.802107
0.776685
0.809072
0.799127
0.817686
0.712792
0.736383
0.824511
0.798478
0.802134
0.819842
0.814774
0.673733
0.806278
0.722172
0.817012
0.811492
0.839411
0.813785
0.761359
0.719331
0.808997
0.80851
0.814183
0.816988
0.806777
0.714534
0.813559
0.799012
0.720382
0.721529
0.822921
0.867504
0.801955
0.799031
0.811293
0.803042
0.801859
0.765427
0.822197
0.81901
0.769063
0.705145
0.757754
0.816662
0.776014
0.843093
0.698364
0.766886
0.800096
0.807693
0.777088
0.8003
0.794927
0.805227
0.802214
0.797444
0.813718
0.812975
0.708882
0.816176
0.812757
0.756887
0.663488
0.675932
0.797568
0.815209
0.812855
0.743046
0.80253
0.551903
0.777848
0.68218
0.762291
0.712608
0.783014
0.604631
0.792748
0.837263
0.643247
0.781637
0.736197
0.843605
0.550179
0.816961
0.799898
0.802273
0.672121
0.801433
0.660995
0.857378
0.531014
0.799643
0.629532
0.871856
0.832739
0.819989
0.745035
0.81333
0.722134
0.826299
0.737328
0.647051
0.802993
0.671076
0.822741
0.801507
0.850499
0.791491
0.705635
0.813898
0.797841
0.74095
0.852309
0.811148
0.848416
0.735726
0.741572
0.770413
0.793147
0.831128
0.833999
0.816634
0.813316
0.667428
0.804396
0.725502
0.803081
0.706358
0.796775
0.795411
0.801275
0.825084
0.762603
0.829823
0.7487
0.825024
0.81923
0.815161
0.85262
0.829202
0.700917
0.826448
0.68918
0.787439
0.809333
0.850666
0.829614
0.807538
0.794035
0.74403
0.816883
0.836184
0.816694
0.713588
0.799111
0.692713
0.791532
0.795267
0.809304
0.635207
0.807307
0.756721
0.797605
0.803019
0.75836
0.814358
0.865205
0.784057
0.69329
0.804184
0.801086
0.645644
0.791556
0.77742
0.802256
0.838545
0.813945
0.606382
0.814385
0.809926
0.796146
0.814668
0.802493
0.81513
0.813973
0.835377
0.755367
0.801664
0.834316
0.809917
0.80306
0.795849
0.814107
0.728354
0.585679
0.816145
0.829392
0.819766
0.803892
0.678669
0.814666
0.814388
0.816178
0.711237
0.79667
0.814213
0.534561
0.80271
0.868827
0.674391
0.755171
0.838196
0.826495
0.813946
0.708376
0.809194
0.814207
0.803609
0.801404
0.811888
0.83623
0.816784
0.766679
0.806806
0.802943
0.645093
0.820364
0.827291
0.669975
0.790333
0.818186
0.820673
0.677589
0.687476
0.820788
0.823495
0.809317
0.73378
0.705705
0.712441
0.731038
0.81967
0.775836
0.803953
0.730857
0.741956
0.821906
0.80954
0.818582
0.769149
0.814357
0.813036
0.816652
0.815273
0.802632
0.807311
0.803387
0.693338
0.802604
0.812541
0.692234
0.806615
0.804901
0.818778
0.785465
0.805704
0.791537
0.814095
0.820354
0.819535
0.797705
0.678412
0.708707
0.7992
0.810659
0.620102
0.803682
0.806953
0.817021
0.742165
0.80407
0.815693
0.810813
0.817137
0.804833
0.797071
0.763561
0.803776
0.84308
0.819537
0.708039
0.803386
0.700452
0.705198
0.80286
0.613336
0.770087
0.784457
0.807868
0.812611
0.824755
0.816452
0.812144
0.819546
0.827715
0.802739
0.763715
0.809539
0.657381
0.818603
0.756428
0.72647
0.68466
0.813176
0.853669
0.81863
0.808246
0.821847
0.81455
0.786545
0.757363
0.808898
0.692264
0.790936
0.843163
0.826387
0.800639
0.863702
0.813153
0.815909
0.81687
0.830826
0.627395
0.79804
0.72972
0.797494
0.735122
0.818492
0.808453
0.786665
0.686178
0.814004
0.829796
0.811141
0.802746
0.803619
0.823793
0.803662
0.708963
0.790082
0.803032
0.81396
0.813329
0.811933
0.871359
0.827263
0.809165
0.831595
0.680914
0.822828
0.837154
0.815514
0.626406
0.814524
0.808957
0.84508
0.820758
0.802835
0.590766
0.809873
0.694248
0.805912
0.802815
0.811735
0.812743
0.824999
0.804882
0.81098
0.815359
0.722507
0.86261
0.80178
0.849796
0.815746
0.571828
0.80372
0.796454
0.810883
0.816999
0.644423
0.802736
0.809418
0.812772
0.806907
0.793654
0.814874
0.81666
0.795517
0.803396
0.820852
0.83653
0.728752
0.806073
0.809191
0.812445
0.681471
0.805004
0.815409
0.798909
0.803866
0.516864
0.83244
0.762767
0.813858
0.817081
0.83038
0.845884
0.815477
0.810869
0.714309
0.798553
0.852073
0.807791
0.70918
0.79992
0.802547
0.871949
0.844891
0.818431
0.801889
0.809454
0.754812
0.814696
0.813603
0.583209
0.802449
0.728028
0.749922
0.802887
0.810666
0.780754
0.820912
0.814522
0.837608
0.815353
0.800299
0.808353
0.738762
0.73601
0.803983
0.807436
0.820559
0.801983
0.751485
0.687193
0.812783
0.814939
0.813781
0.593056
0.812909
0.816178
0.824172
0.802867
0.808118
0.819082
0.811634
0.839006
0.802895
0.812452
0.823216
0.814873
0.817297
0.821059
0.686975
0.783911
0.794311
0.802975
0.847234
0.801989
0.802215
0.634038
0.810373
0.812854
0.810532
0.818427
0.805589
0.812353
0.726351
0.843218
0.7082
0.800131
0.816681
0.807036
0.648466
0.685006
0.814874
0.805486
0.804024
0.784774
0.80145
0.828774
0.812884
0.804802
0.801953
0.811632
0.618475
0.811672
0.802824
0.696244
0.81494
0.614311
0.783297
0.814848
0.837445
0.805294
0.811753
0.791804
0.794996
0.80382
0.801351
0.811305
0.810901
0.808335
0.803162
0.757124
0.803947
0.811779
0.811234
0.815715
0.810806
0.815239
0.814165
0.833908
0.736949
0.80646
0.814964
0.802218
0.540292
0.680154
0.810813
0.812511
0.81449
0.780133
0.807884
0.812349
0.802971
0.799758
0.802549
0.819463
0.820285
0.814249
0.784203
0.807585
0.805047
0.534107
0.77344
0.756607
0.806044
0.73492
0.673365
0.797258
0.76712
0.827237
0.814151
0.813941
0.808178
0.538078
0.815141
0.581756
0.693639
0.824134
0.869482
0.740292
0.815946
0.852543
0.693805
0.814725
0.808819
0.814689
0.807195
0.655068
0.854226
0.737319
0.728571
0.803166
0.804443
0.799311
0.833242
0.814449
0.689894
0.815026
0.80018
0.689259
0.839108
0.797806
0.620656
0.772418
0.815004
0.807281
0.814083
0.784264
0.723547
0.769312
0.836722
0.687686
0.815264
0.81678
0.826423
0.764686
0.821505
0.690019
0.804433
0.659479
0.699844
0.800016
0.822315
0.787827
0.813797
0.814684
0.814487
0.813212
0.575113
0.802478
0.814194
0.742669
0.809898
0.814726
0.811079
0.716057
0.693941
0.740627
0.618175
0.807098
0.680368
0.814946
0.801792
0.814258
0.836715
0.686031
0.803994
0.819261
0.832111
0.736575
0.781179
0.764593
0.772499
0.811757
0.557821
0.66967
0.814575
0.805177
0.81174
0.804418
0.711484
0.779759
0.723013
0.760602
0.799334
0.831465
0.812056
0.690386
0.822859
0.817377
0.810252
0.683594
0.694736
0.680214
0.871888
0.815204
0.816034
0.607382
0.710544
0.640102
0.803257
0.800215
0.67071
0.811737
0.824095
0.748067
0.799139
0.728551
0.813454
0.691553
0.813974
0.810305
0.800938
0.803036
0.825173
0.74359
0.815052
0.814217
0.780021
0.549058
0.815854
0.810281
0.757147
0.813094
0.747619
0.802711
0.826008
0.654152
0.817528
0.802652
0.809848
0.581189
0.617943
0.734411
0.806227
0.811447
0.810166
0.820512
0.814355
0.815309
0.703612
0.801834
0.812525
0.825752
0.702641
0.72469
0.811543
0.811379
0.695071
0.814157
0.77391
0.703004
0.811727
0.695059
0.803688
0.661329
0.802848
0.730458
0.665257
0.810535
0.785912
0.743414
0.629896
0.839753
0.820935
0.814315
0.769798
0.813419
0.79994
0.785613
0.799713
0.801569
0.814576
0.730329
0.809545
0.79985
0.81818
0.596686
0.801173
0.81233
0.8133
0.810968
0.811536
0.745433
0.802506
0.763683
0.749954
0.81803
0.644204
0.817972
0.817087
0.803038
0.814987
0.816219
0.718953
0.768462
0.821572
0.784793
0.803632
0.815418
0.874871
0.817461
0.797706
0.816175
0.814613
0.793805
0.817888
0.816351
0.772811
0.695976
0.840824
0.796854
0.803128
0.822416
0.780626
0.817242
0.824644
0.818066
0.816251
0.870296
0.803057
0.804726
0.817663
0.803053
0.814743
0.806803
0.734596
0.814671
0.819134
0.753938
0.706445
0.81456
0.842822
0.822184
0.649492
0.821213
0.773275
0.807716
0.801759
0.728826
0.803091
0.798435
0.815322
0.816343
0.691359
0.702846
0.80208
0.787402
0.801327
0.824469
0.722506
0.814216
0.80229
0.799909
0.823035
0.814717
0.711475
0.814998
0.76261
0.802335
0.832401
0.803246
0.772764
0.797798
0.794568
0.814361
0.568058
0.814162
0.696211
0.674672
0.803354
0.818958
0.814225
0.802447
0.814385
0.807954
0.722845
0.787367
0.856842
0.80298
0.833169
0.807271
0.539181
0.762254
0.779163
0.645672
0.736635
0.576268
0.81974
0.812491
0.813469
0.802348
0.766557
0.68347
0.763665
0.752081
0.781751
0.814132
0.844633
0.818795
0.805688
0.819141
0.823373
0.802513
0.807281
0.702966
0.803013
0.755688
0.808523
0.797548
0.750721
0.821907
0.788185
0.803425
0.789185
0.840575
0.727092
0.800749
0.799182
0.804757
0.616182
0.81476
0.814635
0.821345
0.628561
0.814511
0.814522
0.798273
0.803735
0.793016
0.774596
0.805867
0.794026
0.81527
0.753203
0.803259
0.875083
0.762071
0.747078
0.806456
0.783826
0.842214
0.79935
0.778865
0.814894
0.798045
0.792331
0.807911
0.825049
0.8353
0.799595
0.57164
0.819872
0.827771
0.771865
0.830274
0.83784
0.822329
0.825779
0.807118
0.832498
0.826324
0.783524
0.808642
0.810671
0.805744
0.822143
0.803277
0.827172
0.792721
0.802788
0.805563
0.725413
0.80693
0.558879
0.817336
0.824782
0.828117
0.805447
0.817808
0.823358
0.819215
0.820222
0.838373
0.832644
0.787285
0.800203
0.821127
0.814708
0.816291
0.800017
0.806229
0.865303
0.819435
0.847004
0.814409
0.800449
0.824415
0.799561
0.833219
0.81277
0.814751
0.805129
0.724704
0.802777
0.804378
0.814324
0.803204
0.801614
0.821885
0.804391
0.804032
0.777583
0.819527
0.716265
0.813777
0.779579
0.758227
0.803427
0.81308
0.818799
0.713624
0.818704
0.814997
0.826348
0.816443
0.789194
0.815593
0.846984
0.832656
0.814414
0.811522
0.801418
0.742692
0.675181
0.81431
0.820237
0.770125
0.813729
0.807553
0.811102
0.805215
0.79818
0.775808
0.80228
0.79982
0.841069
0.816726
0.811142
0.806056
0.601499
0.729702
0.802007
0.782701
0.803887
0.815025
0.805699
0.815359
0.779446
0.814386
0.804583
0.809971
0.803511
0.817195
0.803117
0.815137
0.810194
0.815146
0.812145
0.715909
0.81382
0.814941
0.595179
0.814143
0.796532
0.802534
0.858462
0.817722
0.809994
0.872252
0.814571
0.814648
0.816145
0.818184
0.814606
0.763758
0.830096
0.801045
0.802985
0.813898
0.814507
0.816021
0.814348
0.81277
0.822517
0.803797
0.811836
0.808825
0.814785
0.819752
0.814365
0.811104
0.818635
0.808703
0.697721
0.657486
0.802441
0.80819
0.803145
0.810595
0.81773
0.816458
0.802709
0.803432
0.80029
0.800597
0.816227
0.844025
0.817878
0.811134
0.817832
0.817494
0.845616
0.816819
0.82072
0.7853
0.815132
0.806578
0.800832
0.791734
0.810128
0.817839
0.814194
0.814439
0.835786
0.805472
0.811905
0.815948
0.821283
0.803315
0.802988
0.805303
0.810149
0.814315
0.801348
0.802412
0.816197
0.822271
0.800516
0.568488
0.804057
0.796355
0.816863
0.798373
0.802586
0.747515
0.840394
0.802535
0.799461
0.83431
0.8292
0.809983
0.825644
0.800193
0.817169
0.816796
0.818029
0.803412
0.817607
0.726326
0.82169
0.811281
0.799787
0.81276
0.819872
0.79888
0.803779
0.781643
0.814916
0.814598
0.81471
0.817818
0.806193
0.816344
0.815018
0.825513
0.821743
0.837197
0.805677
0.694174
0.817255
0.840241
0.819098
0.804348
0.799777
0.8031
0.815607
0.813861
0.815234
0.743244
0.736668
0.800437
0.802757
0.814903
0.815874
0.798034
0.650542
0.707325
0.807784
0.768944
0.815061
0.701833
0.802947
0.727174
0.8031
0.81959
0.803036
0.816582
0.811996
0.798367
0.808322
0.792798
0.829627
0.814743
0.8009
0.803247
0.815118
0.821013
0.748394
0.82211
0.803512
0.783008
0.814614
0.803606
0.81009
0.813745
0.814185
0.83483
0.792037
0.798653
0.814487
0.758213
0.806331
0.813889
0.800787
0.815179
0.840943
0.801988
0.842824
0.808114
0.78978
0.810977
0.802532
0.851612
0.78817
0.803025
0.815204
0.831069
0.808118
0.812862
0.814901
0.80262
0.802551
0.825704
0.782071
0.813422
0.814476
0.640655
0.814683
0.71167
0.817365
0.83779
0.823873
0.803646
0.81366
0.814313
0.72465
0.813839
0.800406
0.801359
0.800564
0.814925
0.863547
0.800974
0.800657
0.785022
0.840175
0.827716
0.818874
0.812417
0.745925
0.802828
0.803257
0.729823
0.798954
0.713335
0.809634
0.800775
0.675057
0.88005
0.701392
0.771821
0.80077
0.742182
0.808107
0.79853
0.802946
0.658893
0.796503
0.783723
0.798557
0.727025
0.817948
0.821763
0.884393
0.809185
0.830785
0.643577
0.799539
0.786229
0.743041
0.750278
0.768044
0.70431
0.802938
0.798888
0.803012
0.7629
0.625406
0.811161
0.610895
0.820465
0.82232
0.811228
0.73617
0.811459
0.794658
0.818403
0.782338
0.806394
0.796902
0.809148
0.715676
0.801206
0.72128
0.801052
0.798373
0.683832
0.80336
0.8142
0.814266
0.80297
0.760437
0.814042
0.732297
0.68955
0.802102
0.814262
0.874199
0.814156
0.813566
0.880404
0.865205
0.830446
0.718284
0.801738
0.811619
0.820832
0.797277
0.67888
0.72173
0.673561
0.802258
0.705144
0.767806
0.799059
0.613154
0.688016
0.835671
0.772818
0.744404
0.829912
0.758348
0.769032
0.622443
0.730356
0.784402
0.819026
0.869284
0.837368
0.81463
0.793939
0.799327
0.714658
0.81447
0.692917
0.796788
0.814236
0.783284
0.761781
0.80101
0.782097
0.802017
0.800465
0.810819
0.810806
0.866895
0.563188
0.535331
0.802183
0.806338
0.696943
0.809594
0.802631
0.83708
0.803323
0.802221
0.564896
0.551223
0.808145
0.811475
0.814379
0.724761
0.803042
0.809853
0.682969
0.81048
0.802544
0.812861
0.803079
0.799941
0.80209
0.813309
0.802828
0.816749
0.80305
0.861789
0.813666
0.802366
0.721201
0.668365
0.814438
0.58289
0.812041
0.809719
0.835404
0.812988
0.802864
0.810469
0.812355
0.812183
0.81398
0.801425
0.853429
0.85614
0.801974
0.653147
0.80767
0.822128
0.799247
0.803047
0.819308
0.732577
0.803157
0.824634
0.820664
0.814783
0.814266
0.765973
0.745404
0.800431
0.833488
0.802469
0.813596
0.80416
0.803354
0.804695
0.812988
0.808534
0.798312
0.806642
0.8057
0.824295
0.806456
0.806057
0.816661
0.806536
0.803294
0.812082
0.802861
0.802714
0.805589
0.807516
0.812224
0.773102
0.805118
0.802583
0.814142
0.799424
0.80357
0.806626
0.831283
0.804826
0.647553
0.800552
0.814471
0.804461
0.814502
0.762402
0.81423
0.749779
0.803504
0.802034
0.803873
0.818645
0.850647
0.804172
0.803171
0.746935
0.828988
0.81414
0.819596
0.824659
0.813992
0.735384
0.817226
0.720425
0.800849
0.826949
0.802218
0.697553
0.825164
0.814
0.815398
0.8234
0.814582
0.772824
0.816238
0.645418
0.70847
0.814237
0.821863
0.672816
0.818439
0.65748
0.820654
0.806421
0.815719
0.803082
0.805206
0.814124
0.831186
0.824843
0.669693
0.812221
0.841559
0.781084
0.845856
0.8001
0.703813
0.837999
0.818669
0.835007
0.685759
0.680483
0.832307
0.653559
0.829992
0.814257
0.827943
0.806069
0.826208
0.787373
0.824688
0.823281
0.705733
0.86536
0.822073
0.821051
0.823361
0.758465
0.80269
0.520603
0.802465
0.820161
0.812733
0.804521
0.825254
0.81418
0.797645
0.819378
0.802877
0.676906
0.792141
0.833857
0.813585
0.714347
0.798585
0.821318
0.573428
0.813952
0.814797
0.802409
0.809692
0.724871
0.817281
0.802922
0.803341
0.795737
0.793295
0.797683
0.794534
0.80321
0.811577
0.819081
0.813315
0.570524
0.892832
0.70415
0.79767
0.738544
0.791208
0.814158
0.814917
0.814793
0.602765
0.818317
0.816978
0.803699
0.817323
0.836183
0.839174
0.782613
0.79826
0.799293
0.723625
0.751821
0.814445
0.763392
0.814935
0.818357
0.814012
0.813263
0.801835
0.774611
0.811824
0.815348
0.727638
0.810364
0.815121
0.817395
0.807582
0.809241
0.763932
0.813774
0.807963
0.803052
0.80721
0.614816
0.806272
0.80412
0.805697
0.820666
0.845235
0.804487
0.773495
0.805061
0.771271
0.819608
0.805167
0.81194
0.814166
0.849844
0.803261
0.743938
0.819565
0.814443
0.726302
0.800576
0.815492
0.758124
0.811812
0.567248
0.806351
0.684817
0.800875
0.81063
0.811733
0.816502
0.804016
0.815124
0.817037
0.800803
0.803982
0.843981
0.815412
0.795992
0.815512
0.801576
0.801142
0.800072
0.801025
0.806498
0.813808
0.80139
0.769205
0.817735
0.812447
0.808658
0.814177
0.584887
0.803131
0.813456
0.814498
0.786851
0.747455
0.71917
0.811678
0.814022
0.825362
0.788704
0.60129
0.770955
0.638043
0.816006
0.745116
0.811396
0.829717
0.693006
0.799445
0.833355
0.748463
0.800427
0.803051
0.814815
0.801809
0.698007
0.800501
0.545947
0.801553
0.802281
0.80206
0.557561
0.802813
0.803285
0.803042
0.727839
0.736728
0.80329
0.775871
0.814859
0.721388
0.705867
0.814241
0.80116
0.75194
0.85382
0.813027
0.811458
0.668249
0.802639
0.800377
0.800266
0.802339
0.655237
0.803085
0.814507
0.653199
0.684433
0.805589
0.789908
0.814325
0.822718
0.81425
0.814449
0.815707
0.80351
0.814403
0.814192
0.812919
0.828907
0.802237
0.801631
0.810104
0.725457
0.809368
0.814047
0.862495
0.810464
0.636647
0.773899
0.802029
0.775801
0.815962
0.811075
0.829582
0.813733
0.864297
0.801634
0.813815
0.591903
0.815278
0.833415
0.80281
0.813442
0.623416
0.814674
0.80261
0.815919
0.802092
0.816808
0.8152
0.754561
0.803409
0.803056
0.834671
0.861593
0.81938
0.81533
0.725311
0.740417
0.802376
0.802877
0.811689
0.817367
0.799315
0.80271
0.818829
0.805867
0.807332
0.739393
0.802587
0.816822
0.813268
0.767731
0.760349
0.811047
0.796212
0.856663
0.717966
0.834121
0.810294
0.711994
0.799483
0.813671
0.787276
0.800518
0.799527
0.814268
0.776704
0.774304
0.812584
0.696509
0.798386
0.76485
0.81412
0.816541
0.801824
0.786984
0.737633
0.75155
0.773416
0.813821
0.818257
0.805116
0.653268
0.801565
0.795187
0.777586
0.809523
0.812157
0.799336
0.802872
0.631359
0.803727
0.804354
0.850917
0.803554
0.808804
0.832839
0.805038
0.809409
0.851857
0.610668
0.803884
0.815393
0.805225
0.80484
0.805523
0.804416
0.804509
0.804035
0.805604
0.80607
0.723627
0.805493
0.806755
0.80619
0.814385
0.807893
0.817936
0.80302
0.803373
0.813954
0.814141
0.809296
0.803287
0.816004
0.812835
0.809213
0.815292
0.70724
0.813143
0.831022
0.814131
0.853909
0.749062
0.807409
0.814166
0.800446
0.594543
0.803138
0.771782
0.821251
0.626074
0.8148
0.829015
0.813858
0.811268
0.801922
0.826628
0.818689
0.803404
0.764174
0.81636
0.75816
0.544903
0.813501
0.696146
0.693765
0.820169
0.827115
0.826909
0.815951
0.847145
0.567697
0.876174
0.805041
0.825393
0.823703
0.812239
0.680353
0.814042
0.822143
0.815651
0.800649
0.773497
0.82204
0.56359
0.812524
0.842764
0.802996
0.839177
0.820888
0.803214
0.667482
0.842835
0.819815
0.835965
0.800654
0.81322
0.802977
0.833308
0.802671
0.813132
0.83086
0.828694
0.821801
0.823702
0.83051
0.738991
0.659325
0.561257
0.826829
0.825286
0.766775
0.755775
0.805729
0.823839
0.846511
0.58891
0.822541
0.821435
0.82051
0.818955
0.803733
0.820564
0.655586
0.743277
0.819695
0.797005
0.869489
0.889923
0.775981
0.803301
0.668541
0.835215
0.729135
0.716964
0.818911
0.801429
0.783099
0.658139
0.802029
0.814277
0.788572
0.709948
0.799868
0.816936
0.797752
0.673784
0.823069
0.792556
0.814989
0.832794
0.814934
0.795066
0.815449
0.815202
0.785564
0.803801
0.709001
0.840323
0.792804
0.810448
0.781558
0.804192
0.694012
0.800632
0.813266
0.811903
0.810737
0.809211
0.80812
0.807363
0.805737
0.804628
0.806546
0.723604
0.805178
0.801276
0.795681
0.803146
0.844143
0.713643
0.803089
0.775788
0.883769
0.853805
0.797803
0.722155
0.80307
0.797494
0.7178
0.803157
0.801472
0.7331
0.80347
0.789289
0.796913
0.800867
0.73668
0.779006
0.803888
0.746279
0.763964
0.768648
0.80119
0.813929
0.808393
0.757779
0.750756
0.799345
0.812915
0.803195
0.792443
0.800933
0.928572
0.860281
0.817105
0.814048
0.723713
0.843957
0.746927
0.825739
0.816082
0.897981
0.814227
0.796769
0.586898
0.814264
0.796884
0.814304
0.79731
0.845228
0.517861
0.832362
0.801397
0.805389
0.804656
0.80355
0.85531
0.801092
0.816712
0.700754
0.646072
0.665723
0.814353
0.499776
0.797334
0.720763
0.841469
0.814244
0.555954
0.801584
0.813764
0.813426
0.718231
0.801479
0.522614
0.796783
0.814501
0.796902
0.802556
0.797144
0.814681
0.833553
0.803202
0.797854
0.815092
0.79812
0.815249
0.81355
0.798405
0.815426
0.813
0.815632
0.798502
0.815862
0.678613
0.798695
0.816119
0.802968
0.798884
0.816377
0.696482
0.814262
0.797926
0.814189
0.797917
0.809352
0.837811
0.860982
0.80076
0.799972
0.817337
0.815108
0.799614
0.799237
0.862936
0.811759
0.817002
0.809804
0.849564
0.827999
0.815973
0.825202
0.845819
0.814197
0.801094
0.818595
0.811182
0.801518
0.814098
0.799687
0.807068
0.782667