# vtk DataFile Version 1.0
unstructured grid
ascii
DATASET UNSTRUCTURED_GRID
points 3920 float
-1 0 0
-1 1 0
2 0 0
2 1 0
0 0 0
1 0 0
-1 1 0.1
-1 0 0.1
0 0 0.1
1 0 0.1
2 0 0.1
2 1 0.1
-0.98 0 0
-0.96 0 0
-0.94 0 0
-0.92 0 0
-0.9 0 0
-0.88 0 0
-0.86 0 0
-0.84 0 0
-0.82 0 0
-0.8 0 0
-0.78 0 0
-0.76 0 0
-0.74 0 0
-0.72 0 0
-0.7 0 0
-0.68 0 0
-0.66 0 0
-0.64 0 0
-0.62 0 0
-0.6 0 0
-0.58 0 0
-0.56 0 0
-0.54 0 0
-0.52 0 0
-0.5 0 0
-0.48 0 0
-0.46 0 0
-0.44 0 0
-0.42 0 0
-0.4 0 0
-0.38 0 0
-0.36 0 0
-0.34 0 0
-0.32 0 0
-0.3 0 0
-0.28 0 0
-0.26 0 0
-0.24 0 0
-0.22 0 0
-0.2 0 0
-0.18 0 0
-0.16 0 0
-0.14 0 0
-0.12 0 0
-0.1 0 0
-0.08 0 0
-0.06 0 0
-0.04 0 0
-0.02 0 0
1.02 0 0
1.04 0 0
1.06 0 0
1.08 0 0
1.1 0 0
1.12 0 0
1.14 0 0
1.16 0 0
1.18 0 0
1.2 0 0
1.22 0 0
1.24 0 0
1.26 0 0
1.28 0 0
1.3 0 0
1.32 0 0
1.34 0 0
1.36 0 0
1.38 0 0
1.4 0 0
1.42 0 0
1.44 0 0
1.46 0 0
1.48 0 0
1.5 0 0
1.52 0 0
1.54 0 0
1.56 0 0
1.58 0 0
1.6 0 0
1.62 0 0
1.64 0 0
1.66 0 0
1.68 0 0
1.7 0 0
1.72 0 0
1.74 0 0
1.76 0 0
1.78 0 0
1.8 0 0
1.82 0 0
1.84 0 0
1.86 0 0
1.88 0 0
1.9 0 0
1.92 0 0
1.94 0 0
1.96 0 0
1.98 0 0
2 0.0199133 0
2 0.0414128 0
2 0.0646247 0
2 0.0896856 0
2 0.116743 0
2 0.145955 0
2 0.177494 0
2 0.211545 0
2 0.248309 0
2 0.288001 0
2 0.330854 0
2 0.377121 0
2 0.427073 0
2 0.481004 0
2 0.539231 0
2 0.602096 0
2 0.669968 0
2 0.743247 0
2 0.822362 0
2 0.907779 0
1.9 1 0
1.8 1 0
1.7 1 0
1.6 1 0
1.5 1 0
1.4 1 0
1.3 1 0
1.2 1 0
1.1 1 0
1 1 0
0.9 1 0
0.8 1 0
0.7 1 0
0.6 1 0
0.5 1 0
0.4 1 0
0.3 1 0
0.2 1 0
0.1 1 0
3.69793e-12 1 0
-0.1 1 0
-0.2 1 0
-0.3 1 0
-0.4 1 0
-0.5 1 0
-0.6 1 0
-0.7 1 0
-0.8 1 0
-0.9 1 0
-1 0.907779 0
-1 0.822362 0
-1 0.743247 0
-1 0.669968 0
-1 0.602096 0
-1 0.539231 0
-1 0.481004 0
-1 0.427073 0
-1 0.377121 0
-1 0.330854 0
-1 0.288001 0
-1 0.248309 0
-1 0.211545 0
-1 0.177494 0
-1 0.145955 0
-1 0.116743 0
-1 0.0896856 0
-1 0.0646247 0
-1 0.0414128 0
-1 0.0199133 0
0.0182781 0.00745351 0
0.0366672 0.0146286 0
0.0551632 0.0215237 0
0.0737617 0.0281372 0
0.0924585 0.0344675 0
0.111249 0.0405131 0
0.13013 0.0462728 0
0.149095 0.0517451 0
0.168142 0.0569289 0
0.187265 0.0618228 0
0.20646 0.0664258 0
0.225723 0.0707368 0
0.245049 0.0747549 0
0.264434 0.078479 0
0.283873 0.0819084 0
0.303362 0.0850422 0
0.322896 0.0878798 0
0.342472 0.0904204 0
0.362083 0.0926635 0
0.381726 0.0946086 0
0.401397 0.0962552 0
0.42109 0.0976029 0
0.440802 0.0986514 0
0.460527 0.0994006 0
0.480261 0.0998501 0
0.5 0.1 0
0.519739 0.0998501 0
0.539473 0.0994006 0
0.559198 0.0986514 0
0.57891 0.0976029 0
0.598603 0.0962552 0
0.618274 0.0946086 0
0.637917 0.0926635 0
0.657528 0.0904204 0
0.677104 0.0878798 0
0.696638 0.0850422 0
0.716127 0.0819084 0
0.735566 0.078479 0
0.754951 0.0747549 0
0.774277 0.0707368 0
0.79354 0.0664258 0
0.812735 0.0618228 0
0.831858 0.0569289 0
0.850905 0.0517451 0
0.86987 0.0462728 0
0.888751 0.0405131 0
0.907542 0.0344675 0
0.926238 0.0281372 0
0.944837 0.0215237 0
0.963333 0.0146286 0
0.981722 0.00745351 0
-1 0.907779 0.1
-1 0.822362 0.1
-1 0.743247 0.1
-1 0.669968 0.1
-1 0.602096 0.1
-1 0.539231 0.1
-1 0.481004 0.1
-1 0.427073 0.1
-1 0.377121 0.1
-1 0.330854 0.1
-1 0.288001 0.1
-1 0.248309 0.1
-1 0.211545 0.1
-1 0.177494 0.1
-1 0.145955 0.1
-1 0.116743 0.1
-1 0.0896856 0.1
-1 0.0646247 0.1
-1 0.0414128 0.1
-1 0.0199133 0.1
-0.98 0 0.1
-0.96 0 0.1
-0.94 0 0.1
-0.92 0 0.1
-0.9 0 0.1
-0.88 0 0.1
-0.86 0 0.1
-0.84 0 0.1
-0.82 0 0.1
-0.8 0 0.1
-0.78 0 0.1
-0.76 0 0.1
-0.74 0 0.1
-0.72 0 0.1
-0.7 0 0.1
-0.68 0 0.1
-0.66 0 0.1
-0.64 0 0.1
-0.62 0 0.1
-0.6 0 0.1
-0.58 0 0.1
-0.56 0 0.1
-0.54 0 0.1
-0.52 0 0.1
-0.5 0 0.1
-0.48 0 0.1
-0.46 0 0.1
-0.44 0 0.1
-0.42 0 0.1
-0.4 0 0.1
-0.38 0 0.1
-0.36 0 0.1
-0.34 0 0.1
-0.32 0 0.1
-0.3 0 0.1
-0.28 0 0.1
-0.26 0 0.1
-0.24 0 0.1
-0.22 0 0.1
-0.2 0 0.1
-0.18 0 0.1
-0.16 0 0.1
-0.14 0 0.1
-0.12 0 0.1
-0.1 0 0.1
-0.08 0 0.1
-0.06 0 0.1
-0.04 0 0.1
-0.02 0 0.1
0.0182781 0.00745351 0.1
0.0366672 0.0146286 0.1
0.0551632 0.0215237 0.1
0.0737617 0.0281372 0.1
0.0924585 0.0344675 0.1
0.111249 0.0405131 0.1
0.13013 0.0462728 0.1
0.149095 0.0517451 0.1
0.168142 0.0569289 0.1
0.187265 0.0618228 0.1
0.20646 0.0664258 0.1
0.225723 0.0707368 0.1
0.245049 0.0747549 0.1
0.264434 0.078479 0.1
0.283873 0.0819084 0.1
0.303362 0.0850422 0.1
0.322896 0.0878798 0.1
0.342472 0.0904204 0.1
0.362083 0.0926635 0.1
0.381726 0.0946086 0.1
0.401397 0.0962552 0.1
0.42109 0.0976029 0.1
0.440802 0.0986514 0.1
0.460527 0.0994006 0.1
0.480261 0.0998501 0.1
0.5 0.1 0.1
0.519739 0.0998501 0.1
0.539473 0.0994006 0.1
0.559198 0.0986514 0.1
0.57891 0.0976029 0.1
0.598603 0.0962552 0.1
0.618274 0.0946086 0.1
0.637917 0.0926635 0.1
0.657528 0.0904204 0.1
0.677104 0.0878798 0.1
0.696638 0.0850422 0.1
0.716127 0.0819084 0.1
0.735566 0.078479 0.1
0.754951 0.0747549 0.1
0.774277 0.0707368 0.1
0.79354 0.0664258 0.1
0.812735 0.0618228 0.1
0.831858 0.0569289 0.1
0.850905 0.0517451 0.1
0.86987 0.0462728 0.1
0.888751 0.0405131 0.1
0.907542 0.0344675 0.1
0.926238 0.0281372 0.1
0.944837 0.0215237 0.1
0.963333 0.0146286 0.1
0.981722 0.00745351 0.1
1.02 0 0.1
1.04 0 0.1
1.06 0 0.1
1.08 0 0.1
1.1 0 0.1
1.12 0 0.1
1.14 0 0.1
1.16 0 0.1
1.18 0 0.1
1.2 0 0.1
1.22 0 0.1
1.24 0 0.1
1.26 0 0.1
1.28 0 0.1
1.3 0 0.1
1.32 0 0.1
1.34 0 0.1
1.36 0 0.1
1.38 0 0.1
1.4 0 0.1
1.42 0 0.1
1.44 0 0.1
1.46 0 0.1
1.48 0 0.1
1.5 0 0.1
1.52 0 0.1
1.54 0 0.1
1.56 0 0.1
1.58 0 0.1
1.6 0 0.1
1.62 0 0.1
1.64 0 0.1
1.66 0 0.1
1.68 0 0.1
1.7 0 0.1
1.72 0 0.1
1.74 0 0.1
1.76 0 0.1
1.78 0 0.1
1.8 0 0.1
1.82 0 0.1
1.84 0 0.1
1.86 0 0.1
1.88 0 0.1
1.9 0 0.1
1.92 0 0.1
1.94 0 0.1
1.96 0 0.1
1.98 0 0.1
2 0.0199133 0.1
2 0.0414128 0.1
2 0.0646247 0.1
2 0.0896856 0.1
2 0.116743 0.1
2 0.145955 0.1
2 0.177494 0.1
2 0.211545 0.1
2 0.248309 0.1
2 0.288001 0.1
2 0.330854 0.1
2 0.377121 0.1
2 0.427073 0.1
2 0.481004 0.1
2 0.539231 0.1
2 0.602096 0.1
2 0.669968 0.1
2 0.743247 0.1
2 0.822362 0.1
2 0.907779 0.1
1.9 1 0.1
1.8 1 0.1
1.7 1 0.1
1.6 1 0.1
1.5 1 0.1
1.4 1 0.1
1.3 1 0.1
1.2 1 0.1
1.1 1 0.1
1 1 0.1
0.9 1 0.1
0.8 1 0.1
0.7 1 0.1
0.6 1 0.1
0.5 1 0.1
0.4 1 0.1
0.3 1 0.1
0.2 1 0.1
0.1 1 0.1
3.69793e-12 1 0.1
-0.1 1 0.1
-0.2 1 0.1
-0.3 1 0.1
-0.4 1 0.1
-0.5 1 0.1
-0.6 1 0.1
-0.7 1 0.1
-0.8 1 0.1
-0.9 1 0.1
1.08758 0.0158154 0
-0.0898513 0.0203294 0
0.0966181 0.0537636 0
0.90205 0.0548881 0
1.21055 0.0202058 0
-0.209811 0.0159577 0
1.3305 0.0176902 0
-0.33 0.0173205 0
1.45324 0.0148141 0
-0.448654 0.0159854 0
1.56842 0.0191785 0
-0.569936 0.0166364 0
0.193292 0.0805369 0
0.805051 0.0813623 0
0.709096 0.100353 0
0.288591 0.0996656 0
0.390184 0.111848 0
0.61033 0.111742 0
0.488809 0.116278 0
1.67175 0.0169692 0
-0.67 0.0169809 0
-0.955017 0.454039 0
1.95131 0.44569 0
1.74981 0.0168753 0
-0.75 0.0173205 0
-0.968032 0.266538 0
1.96871 0.266267 0
0.978232 0.0305687 0
0.0208675 0.026451 0
-0.150454 0.91842 0
1.13854 0.907437 0
1.45012 0.904365 0
-0.445923 0.908903 0
-0.853423 0.0157019 0
1.84881 0.016319 0
0.853689 0.915652 0
0.153944 0.912184 0
0.545151 0.914125 0
0.549913 0.115152 0
1.51 0.0173205 0
-0.506989 0.01651 0
1.27 0.0173205 0
1.14976 0.0173333 0
-0.268171 0.0206442 0
-0.150501 0.0153244 0
-0.391384 0.0153993 0
1.38886 0.0171544 0
-0.973694 0.161724 0
1.97441 0.162392 0
-0.945221 0.633523 0
1.94544 0.63312 0
1.91008 0.0186068 0
-0.91 0.0169616 0
-0.030664 0.0194327 0
1.03074 0.0165456 0
-0.966065 0.353575 0
1.96128 0.359765 0
1.93879 0.781254 0
-0.937057 0.781882 0
-0.980746 0.080709 0
1.9772 0.0760699 0
0.058735 0.0409372 0
0.355202 0.913001 0
0.86356 0.0661005 0
0.134223 0.0651111 0
0.941972 0.0397386 0
-0.653034 0.915003 0
1.65328 0.904589 0
0.770126 0.0881325 0
0.232946 0.0902008 0
0.330582 0.105648 0
0.670612 0.108365 0
0.428707 0.116145 0
1.80993 0.016629 0
-0.810168 0.0172178 0
-0.71 0.0173205 0
1.63047 0.0175504 0
1.70842 0.0169661 0
-0.628824 0.0181787 0
-0.949815 0.0133898 0
1.95 0.0173205 0
1.85542 0.907891 0
-0.85 0.913397 0
1.9833 0.0307692 0
-0.983315 0.0309709 0
-0.750025 0.916468 0
-0.701107 0.836904 0
-0.607741 0.836428 0
-0.656448 0.759827 0
-0.572936 0.758144 0
-0.61411 0.691195 0
-0.539534 0.689068 0
-0.578542 0.626111 0
-0.507461 0.624216 0
-0.544001 0.566638 0
-0.477696 0.564279 0
-0.511582 0.51001 0
-0.451689 0.507147 0
-0.481834 0.457732 0
-0.426137 0.454624 0
-0.453236 0.407539 0
-0.398845 0.406233 0
-0.507958 0.409496 0
-0.368427 0.460177 0
-0.344602 0.405209 0
-0.315696 0.447824 0
-0.294128 0.402169 0
-0.262844 0.444518 0
-0.241968 0.388746 0
-0.209878 0.439557 0
-0.185184 0.391135 0
-0.156687 0.437338 0
-0.133719 0.390776 0
-0.104405 0.434306 0
-0.0818745 0.388334 0
-0.0528785 0.431165 0
-0.0305984 0.385639 0
-0.00180552 0.427863 0
0.0194564 0.382608 0
0.0485809 0.42449 0
0.0701962 0.37973 0
0.0985483 0.421145 0
0.119893 0.377339 0
0.147837 0.417911 0
0.172552 0.36751 0
0.197018 0.412597 0
0.221203 0.37141 0
0.24512 0.409646 0
-0.48178 0.364657 0
-0.531053 0.364782 0
-0.0599102 0.344151 0
-0.324909 0.359566 0
0.266181 0.368462 0
0.292132 0.407649 0
0.311992 0.365779 0
0.338918 0.404821 0
0.357567 0.355909 0
0.384723 0.40053 0
0.404675 0.359681 0
0.430617 0.398558 0
0.450457 0.35827 0
0.474237 0.395182 0
0.496746 0.34898 0
0.520548 0.397931 0
0.542071 0.353121 0
0.566011 0.389914 0
0.585061 0.350856 0
0.609352 0.38696 0
0.629069 0.348168 0
0.655979 0.391217 0
0.67472 0.346182 0
0.699346 0.381414 0
0.719333 0.341965 0
0.743718 0.377547 0
0.764028 0.339036 0
0.788201 0.373582 0
0.807659 0.336101 0
0.832821 0.372249 0
0.852309 0.334017 0
0.877785 0.370339 0
0.897875 0.331141 0
0.922904 0.366281 0
0.943173 0.327335 0
0.968282 0.363358 0
0.989029 0.324222 0
1.01391 0.361511 0
1.03465 0.321428 0
1.05949 0.358447 0
1.08389 0.312052 0
1.10575 0.355104 0
1.12889 0.31562 0
1.15067 0.353235 0
1.17157 0.312819 0
1.19626 0.349369 0
1.21618 0.309863 0
1.2416 0.346914 0
1.26131 0.30715 0
1.28691 0.344312 0
1.30571 0.303752 0
1.33144 0.341222 0
1.35018 0.300911 0
1.3758 0.338308 0
1.39501 0.298931 0
1.42015 0.335235 0
1.43904 0.296349 0
1.46355 0.330194 0
1.48256 0.293347 0
1.50685 0.326967 0
1.52589 0.29055 0
1.54996 0.325305 0
1.56909 0.287929 0
[...]
CELL_DATA 3694
SCALARS rho float
LOOKUP_TABLE default
0.770064
0.791405
0.815977
0.944371
0.843798
0.813944
0.830407
0.817545
0.900959
0.815627
0.908513
0.908726
0.800292
0.83157
0.817435
0.832066
0.812637
0.815657
0.831902
0.815104
0.857061
0.873883
0.833553
0.816284
0.832567
0.800122
0.82386
0.808345
0.799675
0.807331
0.806879
0.822912
0.815381
0.801523
0.815996
0.855153
0.797522
0.873266
0.846377
0.806508
0.814394
0.805289
0.79981
0.801091
0.813096
0.946433
0.814814
0.826524
0.766981
0.83766
0.818898
0.809267
0.813687
0.819296
0.831432
0.797687
0.816303
0.863099
0.802998
0.775296
0.824264
0.979242
0.831321
0.817797
0.837691
0.84947
0.80835
0.957493
0.80747
0.824514
0.807589
0.813577
0.874199
0.812898
0.866872
0.809869
0.809654
0.812448
0.917071
0.818203
0.833948
0.802781
0.80737
0.805581
0.887538
0.813096
0.864322
0.832916
0.810578
0.826936
0.834448
0.815244
0.801885
0.853975
0.76124
0.81259
0.765854
0.90311
0.923184
0.833117
0.943227
0.834011
0.812771
0.896887
0.88622
0.977326
0.904233
0.812218
0.825773
0.908074
0.823245
0.838183
0.811501
0.823777
0.821036
0.815067
0.837998
0.922707
0.807354
0.814587
0.81796
0.802171
0.874874
0.798194
0.811391
0.832541
0.901515
0.833199
0.808192
0.82867
0.818274
0.814592
0.812733
0.836141
0.814619
0.808786
0.813663
0.807867
0.806487
0.940505
0.913523
0.815831
0.908411
0.951823
0.832466
0.827255
0.762501
0.809782
0.928688
0.808915
0.840974
0.810694
0.832025
0.796805
0.82869
0.833451
0.764451
0.801346
0.793395
0.8256
0.802394
0.775135
0.83456
0.771529
0.836273
0.832337
0.805162
0.817628
0.812124
0.765899
0.815092
0.795351
0.825752
0.829147
0.822305
0.831864
0.799775
0.84983
0.87215
0.806591
0.905367
0.82115
0.862998
0.819636
0.770998
0.812271
0.82116
0.871309
0.819297
0.828946
0.815564
0.815267
0.981702
0.810355
0.834736
0.799534
0.8113
0.810133
0.770643
0.84115
0.830683
0.810109
0.85355
0.80291
0.809292
0.943542
0.807785
0.814603
0.819394
0.811064
0.83663
0.787432
0.826595
0.820159
0.865557
0.829756
0.855184
0.77321
0.866381
0.86513
0.930262
0.7998
0.803187
0.835354
0.86213
0.819194
0.827517
0.86631
0.828914
0.850254
0.891542
0.801791
0.841455
0.904019
0.838524
0.906414
0.816269
0.843865
0.826892
0.830817
0.826479
0.880914
0.826231
0.810074
0.816107
0.81433
0.806992
0.796793
0.960988
0.7999
0.806554
0.812469
0.814885
0.814734
0.777685
0.849108
0.836479
0.812083
0.799963
0.9714
0.795028
0.955559
0.803759
0.854659
0.944439
0.810279
0.810284
0.833033
0.80242
0.790083
0.806277
0.848178
0.805894
0.807643
0.825552
0.974531
0.807769
0.796092
0.906753
0.803138
0.883259
0.801512
0.834748
0.94466
0.953345
0.86089
0.836228
0.788197
0.97855
0.829111
0.807684
0.803727
0.822233
0.833545
0.836363
0.827392
0.979764
0.816201
0.812656
0.979034
0.814988
0.816466
0.810164
0.799928
0.802929
0.830658
0.813918
0.810351
0.768952
0.882079
0.860413
0.810843
0.832059
0.893764
0.803118
0.791278
0.819806
0.880257
0.867662
0.810325
0.810475
0.796078
0.797198
0.840759
0.884772
0.834077
0.814778
0.840766
0.805962
0.873351
0.884736
0.802172
0.795385
0.960821
0.946015
0.906809
0.910306
0.814534
0.810389
0.812028
0.81358
0.806736
0.806811
0.834874
0.807517
0.813909
0.890167
0.833439
0.814941
0.825866
0.973414
0.881995
0.885682
0.812382
0.835388
0.837296
0.822571
0.812137
0.828366
0.814739
0.807307
0.805945
0.835752
0.818309
0.90372
0.923711
0.902399
0.814093
0.825193
0.815447
0.810098
0.835544
0.802374
0.813674
0.814791
0.829941
0.810449
0.815078
0.777196
0.832179
0.82459
0.804898
0.969227
0.849576
0.902339
0.833989
0.886049
0.856206
0.811313
0.813024
0.813177
0.809847
0.889319
0.792263
0.821772
0.829514
0.946486
0.801017
0.889576
0.80658
0.801784
0.949222
0.828814
0.818883
0.899412
0.761128
0.829924
0.820597
0.804103
0.820396
0.822464
0.808972
0.881811
0.904433
0.80398
0.823805
0.845197
0.840469
0.807131
0.819804
0.844148
0.813641
0.802189
0.818233
0.969023
0.802847
0.92984
0.814557
0.816372
0.868397
0.814836
0.83562
0.817133
0.80707
0.966696
0.897639
0.906752
0.816847
0.860404
0.811326
0.851669
0.795723
0.872649
0.842726
0.919499
0.781978
0.951139
0.808815
0.833733
0.880486
0.81295
0.79415
0.808436
0.82611
0.813818
0.809856
0.805207
0.968249
0.804583
0.814254
0.811992
0.912413
0.839626
0.822567
0.807206
0.830428
0.906348
0.831553
0.814693
0.822853
0.917595
0.904103
0.830878
0.81157
0.810396
0.807244
0.812816
0.828376
0.937658
0.903458
0.851611
0.810446
0.87836
0.802577
0.84041
0.813219
0.806149
0.911014
0.769702
0.812939
0.882017
0.811828
0.814659
0.827812
0.850474
0.830709
0.97909
0.903124
0.851098
0.820539
0.903936
0.931539
0.83465
0.81213
0.800668
0.892923
0.763507
0.811703
0.810732
0.816775
0.833712
0.892667
0.805924
0.812836
0.776036
0.934833
0.805902
0.807604
0.815734
0.836923
0.821255
0.815835
0.924469
0.816757
0.800669
0.944959
0.799814
0.890246
0.821409
0.86641
0.811981
0.793598
0.814771
0.88149
0.863152
0.816463
0.822354
0.822341
0.96255
0.805386
0.810503
0.803579
0.950268
0.840864
0.868396
0.815035
0.854783
0.877702
0.812332
0.840419
0.813878
0.809802
0.852837
0.937649
0.828212
0.831554
0.830539
0.824503
0.805492
0.814288
0.832089
0.813607
0.817849
0.776793
0.825274
0.920065
0.807508
0.892128
0.813374
0.955236
0.767107
0.836189
0.811583
0.815255
0.906402
0.812365
0.831565
0.818639
0.802982
0.813497
0.813799
0.829613
0.815569
0.854171
0.897704
0.814176
0.816236
0.906474
0.783657
0.926284
0.815821
0.835647
0.889528
0.831424
0.841711
0.918349
0.796908
0.879974
0.946067
0.84927
0.814909
0.814133
0.81634
0.928375
0.807422
0.897736
0.811916
0.804749
0.817006
0.95095
0.943181
0.849271
0.931718
0.924929
0.964644
0.802735
0.841115
0.810935
0.928225
0.816514
0.833079
0.831696
0.805472
0.959515
0.944882
0.818412
0.806826
0.804785
0.815457
0.822297
0.816223
0.835777
0.843166
0.960574
0.83106
0.858227
0.879435
0.82642
0.837564
0.840259
0.788782
0.768838
0.833729
0.805768
0.829204
0.85626
0.976545
0.966036
0.814164
0.833722
0.803296
0.806888
0.836354
0.868649
0.804115
0.833656
0.905746
0.826832
0.798601
0.917692
0.813148
0.80614
0.803564
0.776596
0.82735
0.820754
0.837396
0.819017
0.814468
0.807087
0.80267
0.95435
0.794914
0.829044
0.819129
0.835848
0.840114
0.810974
0.79144
0.837187
0.927818
0.886985
0.960121
0.81206
0.839915
0.833883
0.800767
0.765736
0.928115
0.867742
0.862484
0.777607
0.87712
0.825015
0.814305
0.76994
0.764708
0.791075
0.801733
0.845402
0.982856
0.938343
0.94993
0.97347
0.827395
0.805198
0.981776
0.77095
0.811999
0.935304
0.937002
0.815623
0.818181
0.770519
0.828278
0.802759
0.800432
0.935647
0.80497
0.961013
0.801015
0.821108
0.816392
0.868684
0.795283
0.834625
0.821232
0.803873
0.779029
0.879951
0.827735
0.821837
0.947919
0.813643
0.876695
0.814481
0.823166
0.782066
0.83619
0.806804
0.816955
0.851639
0.806931
0.761192
0.872383
0.836592
0.918
0.833398
0.815518
0.809121
0.819669
0.927282
0.887659
0.80216
0.768186
0.783158
0.81525
0.806592
0.772272
0.806575
0.794759
0.833894
0.817744
0.834243
0.936928
0.76332
0.972419
0.810177
0.84593
0.808572
0.79715
0.774227
0.933507
0.973171
0.829061
0.830712
0.802754
0.908143
0.840401
0.975785
0.80925
0.81542
0.834357
0.829548
0.898969
0.804677
0.805186
0.828851
0.824406
0.790232
0.812526
0.910352
0.911698
0.880443
0.803424
0.921921
0.763328
0.80454
0.901835
0.86146
0.766424
0.837743
0.934233
0.83829
0.802451
0.802028
0.77937
0.818129
0.810594
0.76706
0.853465
0.77231
0.809164
0.813456
0.816065
0.90527
0.826118
0.795582
0.785332
0.823821
0.803416
0.893479
0.780239
0.975367
0.808237
0.785648
0.813413
0.820427
0.885577
0.835661
0.812726
0.81223
0.893978
0.805722
0.817015
0.893789
0.889803
0.901691
0.897586
0.833388
0.821994
0.828005
0.835505
0.892678
0.828879
0.89065
0.894131
0.808825
0.897198
0.897474
0.837671
0.807779
0.875874
0.807544
0.817259
0.90073
0.805213
0.877788
0.858637
0.91295
0.945667
0.828256
0.896008
0.874545
0.836601
0.836373
0.838133
0.810983
0.809084
0.803484
0.782646
0.901207
0.804542
0.894986
0.911571
0.819564
0.809374
0.812946
0.898098
0.809405
0.931372
0.812964
0.837087
0.928535
0.888123
0.807004
0.837238
0.925136
0.799672
0.804215
0.832205
0.878398
0.8321
0.891201
0.816705
0.795764
0.807746
0.809718
0.805548
0.884464
0.826189
0.83261
0.815912
0.815258
0.81587
0.799832
0.813825
0.971032
0.816113
0.817491
0.794701
0.942449
0.828438
0.925274
0.833907
0.818411
0.801942
0.814809
0.80234
0.805801
0.805563
0.948677
0.825762
0.97502
0.819034
0.831051
0.814618
0.888921
0.973425
0.813796
0.95118
0.830367
0.824976
0.802431
0.824871
0.808888
0.805657
0.814302
0.831765
0.807831
0.837764
0.821517
0.82153
0.826842
0.792192
0.965245
0.846019
0.807574
0.820012
0.803972
0.821126
0.80507
0.83036
0.973768
0.800842
0.889969
0.814038
0.804799
0.797077
0.81593
0.807977
0.82895
0.815669
0.774318
0.812225
0.809122
0.820455
0.83929
0.828647
0.815319
0.8446
0.817654
0.826455
0.81243
0.816348
0.814226
0.780582
0.940583
0.943929
0.801585
0.82994
0.947441
0.941686
0.810335
0.814709
0.82708
0.823708
0.807973
0.84182
0.927673
0.809112
0.858581
0.81053
0.839207
0.811389
0.862458
0.813326
0.836156
0.849583
0.839102
0.870795
0.823397
0.824556
0.813417
0.866446
0.845208
0.821978
0.824869
0.88174
0.85343
0.820061
0.853962
0.829692
0.87063
0.859387
0.814079
0.841778
0.862578
0.818595
0.807206
0.917522
0.87294
0.874793
0.814209
0.804402
0.817484
0.810954
0.814999
0.816981
0.814581
0.830257
0.899707
0.866738
0.858328
0.809733
0.803579
0.870756
0.80468
0.882744
0.84057
0.849507
0.835023
0.805842
0.878682
0.914079
0.910488
0.814567
0.814006
0.818829
0.886726
0.831439
0.921456
0.813509
0.804778
0.816491
0.801709
0.910372
0.878277
0.814158
0.837038
0.813768
0.814505
0.945812
0.817811
0.789039
0.805174
0.802589
0.814639
0.829138
0.805596
0.82694
0.804606
0.837218
0.834114
0.814532
0.807237
0.80443
0.825459
0.890876
0.806603
0.80455
0.899957
0.783783
0.921964
0.800654
0.800377
0.841778
0.807853
0.812619
0.819199
0.830083
0.964391
0.800887
0.820927
0.900983
0.810076
0.909445
0.812535
0.811323
0.82593
0.807377
0.810823
0.826807
0.905821
0.806758
0.813017
0.788492
0.835067
0.819656
0.824154
0.814233
0.907347
0.811663
0.926091
0.830484
0.958136
0.813403
0.911474
0.814939
0.898497
0.805726
0.930702
0.903826
0.915764
0.901804
0.819967
0.893567
0.935442
0.797477
0.964778
0.824039
0.815771
0.8229
0.880692
0.906668
0.814742
0.928559
0.931823
0.913475
0.89438
0.897099
0.829255
0.80392
0.8172
0.814411
0.885811
0.938561
0.915142
0.951709
0.889912
0.802508
0.815686
0.893458
0.8094
0.804219
0.804742
0.95402
0.897228
0.887701
0.813824
0.816225
0.817509
0.813508
0.807473
0.814786
0.901274
0.891137
0.891605
0.813517
0.811537
0.815552
0.811925
0.900346
0.814743
0.896593
0.806063
0.893175
0.899782
0.799989
0.89442
0.80301
0.827491
0.900678
0.813643
0.815031
0.827118
0.879634
0.895151
0.956098
0.925036
0.802645
0.862505
0.943127
0.897603
0.803498
0.814576
0.81587
0.813943
0.917811
0.949154
0.812164
0.853416
0.91232
0.804093
0.816294
0.823352
0.814686
0.785822
0.803659
0.816194
0.817921
0.772897
0.838376
0.819691
0.810173
0.847353
0.85623
0.808476
0.864647
0.81301
0.901798
0.877821
0.895631
0.814472
0.898674
0.839409
0.876588
0.812141
0.814215
0.806076
0.884586
0.822592
0.81507
0.825404
0.80663
0.946271
0.942793
0.896714
0.813141
0.910812
0.930304
0.840911
0.804981
0.842527
0.812047
0.762012
0.896204
0.808565
0.888551
0.813802
0.807634
0.815525
0.874539
0.806271
0.922154
0.824385
0.835198
0.816097
0.818688
0.92538
0.894383
0.85954
0.824163
0.764789
0.812515
0.805798
0.932906
0.824131
0.809501
0.770678
0.806398
0.803113
0.807714
0.907714
0.922506
0.823188
0.809631
0.836118
0.802791
0.941056
0.816797
0.815686
0.910738
0.876379
0.809545
0.846524
0.815042
0.804544
0.944412
0.81545
0.806516
0.977455
0.953168
0.838763
0.837494
0.804643
0.94794
0.774883
0.811085
0.97264
0.820871
0.919556
0.801496
0.816255
0.826364
0.825693
0.784293
0.937904
0.810714
0.80055
0.81354
0.812521
0.929429
0.852668
0.811527
0.941627
0.932353
0.814352
0.814534
0.803956
0.781226
0.944929
0.942019
0.831667
0.938031
0.764119
0.806087
0.83274
0.865082
0.801809
0.961001
0.958646
0.784806
0.969847
0.816987
0.805654
0.81423
0.922298
0.820838
0.813183
0.816685
0.833252
0.839432
0.804136
0.887037
0.91515
0.775845
0.841309
0.806065
0.772438
0.817854
0.77019
0.910812
0.817202
0.775658
0.812814
0.762134
0.803548
0.813837
0.816321
0.811842
0.811035
0.80898
0.779789
0.825161
0.826043
0.814502
0.838586
0.895115
0.876233
0.808957
0.811381
0.800325
0.78606
0.817266
0.786385
0.834564
0.841092
0.835282
0.823349
0.816969
0.815504
0.816636
0.839678
0.794244
0.807911
0.804023
0.857418
0.800058
0.810306
0.824732
0.822018
0.853473
0.874672
0.835173
0.885583
0.82492
0.904379
0.766753
0.814264
0.794209
0.813612
0.808817
0.829227
0.815305
0.971195
0.967649
0.811179
0.779028
0.96023
0.814948
0.770826
0.810056
0.970275
0.818335
0.973638
0.940519
0.808838
0.805882
0.805919
0.816977
0.813734
0.809411
0.80219
0.838914
0.827079
0.76722
0.832283
0.812175
0.819317
0.838591
0.807815
0.830892
0.822122
0.812074
0.804738
0.79908
0.847601
0.80076
0.808997
0.825259
0.799467
0.810146
0.851355
0.810263
0.818053
0.942455
0.816712
0.808639
0.801412
0.953199
0.773679
0.806981
0.97562
0.807865
0.780218
0.823835
0.803819
0.819137
0.810562
0.912573
0.811829
0.814505
0.828199
0.831853
0.812399
0.831581
0.80555
0.80675
0.811514
0.824107
0.814758
0.805091
0.830845
0.83074
0.806352
0.917793
0.958695
0.839449
0.808026
0.839345
0.811813
0.924744
0.808755
0.972561
0.805172
0.791965
0.804558
0.978764
0.80474
0.805964
0.814134
0.818699
0.981713
0.804679
0.80897
0.818652
0.938841
0.828352
0.846981
0.807399
0.830068
0.905799
0.813469
0.810785
0.966548
0.923422
0.958636
0.804428
0.800121
0.822951
0.816279
0.825104
0.871498
0.805705
0.821409
0.810553
0.858566
0.836383
0.805101
0.834686
0.850469
0.907473
0.946241
0.776493
0.81185
0.817256
0.836284
0.81418
0.854896
0.812486
0.813369
0.811554
0.97121
0.808131
0.814186
0.815249
0.810649
0.802934
0.814986
0.814885
0.906482
0.809796
0.805182
0.963856
0.809837
0.80519
0.814758
0.808935
0.962851
0.837152
0.814634
0.812345
0.960495
0.804334
0.814516
0.815576
0.842273
0.814661
0.82936
0.807964
0.914365
0.814807
0.809727
0.835377
0.921445
0.836868
0.814165
0.804991
0.814781
0.80404
0.827118
0.814822
0.80578
0.813267
0.848207
0.972013
0.88227
0.805616
0.878323
0.838111
0.90016
0.838605
0.821563
0.854008
0.808838
0.8343
0.859813
0.862756
0.924852
0.865672
0.947405
0.833586
0.91117
0.832033
0.83813
0.974456
0.871292
0.834664
0.892226
0.767375
0.876861
0.808845
0.919985
0.807072
0.810143
0.870743
0.800395
0.805673
0.820986
0.957417
0.83627
0.831807
0.831656
0.819201
0.836108
0.840712
0.89142
0.845352
0.834902
0.834609
0.849758
0.832883
0.85414
0.968127
0.858445
0.815974
0.862744
0.829977
0.866924
0.87104
0.833487
0.820966
0.875112
0.87909
0.805801
0.79795
0.810366
0.830576
0.859321
0.883163
0.941458
0.816513
0.86367
0.965599
0.804145
0.887222
0.810756
0.831993
0.828046
0.800831
0.960267
0.82991
0.850827
0.80611
0.831087
0.957159
0.940028
0.817203
0.810778
0.826803
0.848362
0.809073
0.813591
0.826437
0.843256
0.818027
0.804407
0.805437
0.957968
0.806435
0.936079
0.825667
0.811857
0.830186
0.824399
0.823914
0.819221
0.985211
0.93597
0.940127
0.813904
0.880437
0.80682
0.815328
0.871046
0.800052
0.800586
0.820378
0.822616
0.82282
0.837453
0.822744
0.955184
0.777071
0.807402
0.892919
0.957379
0.807913
0.813999
0.825902
0.808402
0.926352
0.827965
0.809027
0.93106
0.900387
0.810406
0.80968
0.823409
0.971339
0.810353
0.812065
0.811118
0.818984
0.811832
0.814815
0.812627
0.878858
0.800415
0.814163
0.836371
0.813414
0.821834
0.884
0.873413
0.959964
0.964468
0.800411
0.813712
0.825913
0.805446
0.955843
0.788167
0.817025
0.923757
0.823764
0.960927
0.823552
0.81118
0.763833
0.816408
0.793918
0.918811
0.908521
0.814647
0.863639
0.89674
0.815226
0.811048
0.799914
0.922877
0.825137
0.89404
0.813852
0.814243
0.809093
0.815976
0.858101
0.965105
0.816487
0.832664
0.897251
0.794006
0.812483
0.987596
0.815643
0.815639
0.809863
0.950868
0.836567
0.814321
0.810848
0.95683
0.974617
0.861931
0.845208
0.814691
0.781069
0.826551
0.915294
0.808135
0.955505
0.799905
0.835737
0.809342
0.843861
0.832908
0.821067
0.81091
0.921979
0.787155
0.769322
0.811115
0.832804
0.816577
0.81282
0.818007
0.825256
0.808567
0.81403
0.815669
0.767189
0.774962
0.814866
0.784056
0.93809
0.772297
0.770858
0.955474
0.820132
0.778685
0.803091
0.965567
0.953853
0.77932
0.817537
0.80712
0.809693
0.806372
0.807798
0.814233
0.949248
0.784483
0.776122
0.811701
0.789464
0.961797
0.803062
0.932146
0.935298
0.916846
0.815431
0.956177
0.928622
0.797225
0.801174
0.815953
0.813331
0.807192
0.838869
0.811963
0.928719
0.807872
0.812717
0.79165
0.835676
0.81164
0.827699
0.914853
0.913873
0.809095
0.805113
0.812275
0.815615
0.932828
0.823355
0.804108
0.815207
0.806254
0.969625
0.800395
0.904008
0.811209
0.91592
0.80599
0.904388
0.924863
0.810404
0.817146
0.805128
0.821223
0.816548
0.804036
0.92648
0.816609
0.833022
0.808294
0.813679
0.80582
0.897937
0.806192
0.812876
0.885216
0.867382
0.811775
0.814761
0.80943
0.891565
0.88191
0.838307
0.810319
0.88894
0.812396
0.820825
0.7683
0.827231
0.89288
0.818758
0.821472
0.932933
0.808078
0.804309
0.807226
0.942608
0.808752
0.809059
0.946184
0.821224
0.80419
0.80393
0.950236
0.907572
0.814317
0.814221
0.800964
0.801662
0.778751
0.960555
0.893838
0.867996
0.824197
0.828212
0.82087
0.816491
0.806776
0.938964
0.821356
0.813742
0.830346
0.812926
0.812059
0.829777
0.814641
0.80783
0.83343
0.811108
0.898992
0.825105
0.827074
0.814905
0.925287
0.815169
0.815008
0.815413
0.814977
0.814818
0.814892
0.815624
0.810305
0.802412
0.815986
0.809407
0.83586
0.910827
0.808614
0.855837
0.806237
0.81573
0.925174
0.917852
0.904888
0.805495
0.806429
0.805372
0.843387
0.919468
0.804978
0.939562
0.839567
0.95359
0.828255
0.772375
0.877405
0.974222
0.815683
0.827115
0.812999
0.778859
0.878239
0.774196
0.938711
0.845503
0.962315
0.851028
0.811146
0.800296
0.825028
0.815417
0.776589
0.90912
0.821993
0.833305
0.980773
0.813927
0.810377
0.806198
0.851392
0.858959
0.914174
0.829491
0.829698
0.79985
0.81639
0.857154
0.862978
0.916347
0.816594
0.969903
0.868708
0.920476
0.815411
0.804045
0.806204
0.831321
0.858604
0.834053
0.815391
0.838542
0.874268
0.805408
0.822748
0.799393
0.879755
0.843099
0.814603
0.866896
0.805358
0.847646
0.812558
0.874582
0.852035
0.856371
0.806267
0.87001
0.801235
0.808258
0.827739
0.831471
0.860702
0.864952
0.835087
0.836796
0.87784
0.869119
0.800736
0.829858
0.873219
0.877261
0.881247
0.889559
0.816912
0.806379
0.831298
0.838021
0.88538
0.811948
0.799544
0.815475
0.833352
0.864082
0.763428
0.800977
0.838808
0.838852
0.806732
0.817597
0.831553
0.833056
0.806453
0.957473
0.829698
0.83754
0.855374
0.807049
0.818293
0.83303
0.794279
0.819574
0.933716
0.846138
0.807464
0.84723
0.92422
0.928833
0.820633
0.815
0.835232
0.800773
0.827701
0.888204
0.834277
0.814476
0.831707
0.804716
0.808031
0.808448
0.809008
0.809635
0.810155
0.810892
0.812292
0.813787
0.811584
0.839303
0.813041
0.804816
0.825955
0.814014
0.800601
0.832446
0.811677
0.82191
0.806546
0.799812
0.824062
0.829304
0.815187
0.810357
0.829725
0.814132
0.8168
0.826429
0.818495
0.840449
0.811395
0.815477
0.827659
0.829228
0.850047
0.824447
0.823633
0.825502
0.816106
0.936143
0.810678
0.824113
0.825585
0.822262
0.960337
0.812582
0.78622
0.805996
0.811568
0.802385
0.883627
0.991573
0.809599
0.828306
0.771981
0.801835
0.791025
0.812355
0.976811
0.807218
0.82081
0.972209
0.808503
0.967163
0.809778
0.805189
0.830544
0.844359
0.818827
0.812032
0.810343
0.814576
0.79923
0.810857
0.904929
0.762664
0.821124
0.758535
0.962144
0.830634
0.808488
0.812526
0.798395
0.800327
0.817484
0.788167
0.959005
0.961411
0.765757
0.816758
0.834027
0.813573
0.952406
0.814671
0.812554
0.815653
0.943936
0.7956
0.805553
0.817627
0.931838
0.817924
0.928094
0.803262
0.818034
0.924379
0.938141
0.920697
0.817689
0.917036
0.759882
0.817354
0.913402
0.809208
0.816901
0.909932
0.81909
0.965678
0.805491
0.978768
0.801
0.895182
0.799425
0.823946
0.808572
0.815207
0.900071
0.805128
0.815809
0.816377
0.79982
0.811192
0.903211
0.896583
0.818236
0.85879
0.907891
0.800617
0.834318
0.969292
0.813107
0.89105
0.791827
0.812341
0.962136
0.817559
0.790197
0.801823
0.807006
0.931984