# vtk DataFile Version 1.0
unstructured grid
ascii
DATASET UNSTRUCTURED_GRID
points 3920 float
-1 0 0
-1 1 0
2 0 0
2 1 0
0 0 0
1 0 0
-1 1 0.1
-1 0 0.1
0 0 0.1
1 0 0.1
2 0 0.1
2 1 0.1
-0.98 0 0
-0.96 0 0
-0.94 0 0
-0.92 0 0
-0.9 0 0
-0.88 0 0
-0.86 0 0
-0.84 0 0
-0.82 0 0
-0.8 0 0
-0.78 0 0
-0.76 0 0
-0.74 0 0
-0.72 0 0
-0.7 0 0
-0.68 0 0
-0.66 0 0
-0.64 0 0
-0.62 0 0
-0.6 0 0
-0.58 0 0
-0.56 0 0
-0.54 0 0
-0.52 0 0
-0.5 0 0
-0.48 0 0
-0.46 0 0
-0.44 0 0
-0.42 0 0
-0.4 0 0
-0.38 0 0
-0.36 0 0
-0.34 0 0
-0.32 0 0
-0.3 0 0
-0.28 0 0
-0.26 0 0
-0.24 0 0
-0.22 0 0
-0.2 0 0
-0.18 0 0
-0.16 0 0
-0.14 0 0
-0.12 0 0
-0.1 0 0
-0.08 0 0
-0.06 0 0
-0.04 0 0
-0.02 0 0
1.02 0 0
1.04 0 0
1.06 0 0
1.08 0 0
1.1 0 0
1.12 0 0
1.14 0 0
1.16 0 0
1.18 0 0
1.2 0 0
1.22 0 0
1.24 0 0
1.26 0 0
1.28 0 0
1.3 0 0
1.32 0 0
1.34 0 0
1.36 0 0
1.38 0 0
1.4 0 0
1.42 0 0
1.44 0 0
1.46 0 0
1.48 0 0
1.5 0 0
1.52 0 0
1.54 0 0
1.56 0 0
1.58 0 0
1.6 0 0
1.62 0 0
1.64 0 0
1.66 0 0
1.68 0 0
1.7 0 0
1.72 0 0
1.74 0 0
1.76 0 0
1.78 0 0
1.8 0 0
1.82 0 0
1.84 0 0
1.86 0 0
1.88 0 0
1.9 0 0
1.92 0 0
1.94 0 0
1.96 0 0
1.98 0 0
2 0.0199133 0
2 0.0414128 0
2 0.0646247 0
2 0.0896856 0
2 0.116743 0
2 0.145955 0
2 0.177494 0
2 0.211545 0
2 0.248309 0
2 0.288001 0
2 0.330854 0
2 0.377121 0
2 0.427073 0
2 0.481004 0
2 0.539231 0
2 0.602096 0
2 0.669968 0
2 0.743247 0
2 0.822362 0
2 0.907779 0
1.9 1 0
1.8 1 0
1.7 1 0
1.6 1 0
1.5 1 0
1.4 1 0
1.3 1 0
1.2 1 0
1.1 1 0
1 1 0
0.9 1 0
0.8 1 0
0.7 1 0
0.6 1 0
0.5 1 0
0.4 1 0
0.3 1 0
0.2 1 0
0.1 1 0
3.69793e-12 1 0
-0.1 1 0
-0.2 1 0
-0.3 1 0
-0.4 1 0
-0.5 1 0
-0.6 1 0
-0.7 1 0
-0.8 1 0
-0.9 1 0
-1 0.907779 0
-1 0.822362 0
-1 0.743247 0
-1 0.669968 0
-1 0.602096 0
-1 0.539231 0
-1 0.481004 0
-1 0.427073 0
-1 0.377121 0
-1 0.330854 0
-1 0.288001 0
-1 0.248309 0
-1 0.211545 0
-1 0.177494 0
-1 0.145955 0
-1 0.116743 0
-1 0.0896856 0
-1 0.0646247 0
-1 0.0414128 0
-1 0.0199133 0
0.0182781 0.00745351 0
0.0366672 0.0146286 0
0.0551632 0.0215237 0
0.0737617 0.0281372 0
0.0924585 0.0344675 0
0.111249 0.0405131 0
0.13013 0.0462728 0
0.149095 0.0517451 0
0.168142 0.0569289 0
0.187265 0.0618228 0
0.20646 0.0664258 0
0.225723 0.0707368 0
0.245049 0.0747549 0
0.264434 0.078479 0
0.283873 0.0819084 0
0.303362 0.0850422 0
0.322896 0.0878798 0
0.342472 0.0904204 0
0.362083 0.0926635 0
0.381726 0.0946086 0
0.401397 0.0962552 0
0.42109 0.0976029 0
0.440802 0.0986514 0
0.460527 0.0994006 0
0.480261 0.0998501 0
0.5 0.1 0
0.519739 0.0998501 0
0.539473 0.0994006 0
0.559198 0.0986514 0
0.57891 0.0976029 0
0.598603 0.0962552 0
0.618274 0.0946086 0
0.637917 0.0926635 0
0.657528 0.0904204 0
0.677104 0.0878798 0
0.696638 0.0850422 0
0.716127 0.0819084 0
0.735566 0.078479 0
0.754951 0.0747549 0
0.774277 0.0707368 0
0.79354 0.0664258 0
0.812735 0.0618228 0
0.831858 0.0569289 0
0.850905 0.0517451 0
0.86987 0.0462728 0
0.888751 0.0405131 0
0.907542 0.0344675 0
0.926238 0.0281372 0
0.944837 0.0215237 0
0.963333 0.0146286 0
0.981722 0.00745351 0
-1 0.907779 0.1
-1 0.822362 0.1
-1 0.743247 0.1
-1 0.669968 0.1
-1 0.602096 0.1
-1 0.539231 0.1
-1 0.481004 0.1
-1 0.427073 0.1
-1 0.377121 0.1
-1 0.330854 0.1
-1 0.288001 0.1
-1 0.248309 0.1
-1 0.211545 0.1
-1 0.177494 0.1
-1 0.145955 0.1
-1 0.116743 0.1
-1 0.0896856 0.1
-1 0.0646247 0.1
-1 0.0414128 0.1
-1 0.0199133 0.1
-0.98 0 0.1
-0.96 0 0.1
-0.94 0 0.1
-0.92 0 0.1
-0.9 0 0.1
-0.88 0 0.1
-0.86 0 0.1
-0.84 0 0.1
-0.82 0 0.1
-0.8 0 0.1
-0.78 0 0.1
-0.76 0 0.1
-0.74 0 0.1
-0.72 0 0.1
-0.7 0 0.1
-0.68 0 0.1
-0.66 0 0.1
-0.64 0 0.1
-0.62 0 0.1
-0.6 0 0.1
-0.58 0 0.1
-0.56 0 0.1
-0.54 0 0.1
-0.52 0 0.1
-0.5 0 0.1
-0.48 0 0.1
-0.46 0 0.1
-0.44 0 0.1
-0.42 0 0.1
-0.4 0 0.1
-0.38 0 0.1
-0.36 0 0.1
-0.34 0 0.1
-0.32 0 0.1
-0.3 0 0.1
-0.28 0 0.1
-0.26 0 0.1
-0.24 0 0.1
-0.22 0 0.1
-0.2 0 0.1
-0.18 0 0.1
-0.16 0 0.1
-0.14 0 0.1
-0.12 0 0.1
-0.1 0 0.1
-0.08 0 0.1
-0.06 0 0.1
-0.04 0 0.1
-0.02 0 0.1
0.0182781 0.00745351 0.1
0.0366672 0.0146286 0.1
0.0551632 0.0215237 0.1
0.0737617 0.0281372 0.1
0.0924585 0.0344675 0.1
0.111249 0.0405131 0.1
0.13013 0.0462728 0.1
0.149095 0.0517451 0.1
0.168142 0.0569289 0.1
0.187265 0.0618228 0.1
0.20646 0.0664258 0.1
0.225723 0.0707368 0.1
0.245049 0.0747549 0.1
0.264434 0.078479 0.1
0.283873 0.0819084 0.1
0.303362 0.0850422 0.1
0.322896 0.0878798 0.1
0.342472 0.0904204 0.1
0.362083 0.0926635 0.1
0.381726 0.0946086 0.1
0.401397 0.0962552 0.1
0.42109 0.0976029 0.1
0.440802 0.0986514 0.1
0.460527 0.0994006 0.1
0.480261 0.0998501 0.1
0.5 0.1 0.1
0.519739 0.0998501 0.1
0.539473 0.0994006 0.1
0.559198 0.0986514 0.1
0.57891 0.0976029 0.1
0.598603 0.0962552 0.1
0.618274 0.0946086 0.1
0.637917 0.0926635 0.1
0.657528 0.0904204 0.1
0.677104 0.0878798 0.1
0.696638 0.0850422 0.1
0.716127 0.0819084 0.1
0.735566 0.078479 0.1
0.754951 0.0747549 0.1
0.774277 0.0707368 0.1
0.79354 0.0664258 0.1
0.812735 0.0618228 0.1
0.831858 0.0569289 0.1
0.850905 0.0517451 0.1
0.86987 0.0462728 0.1
0.888751 0.0405131 0.1
0.907542 0.0344675 0.1
0.926238 0.0281372 0.1
0.944837 0.0215237 0.1
0.963333 0.0146286 0.1
0.981722 0.00745351 0.1
1.02 0 0.1
1.04 0 0.1
1.06 0 0.1
1.08 0 0.1
1.1 0 0.1
1.12 0 0.1
1.14 0 0.1
1.16 0 0.1
1.18 0 0.1
1.2 0 0.1
1.22 0 0.1
1.24 0 0.1
1.26 0 0.1
1.28 0 0.1
1.3 0 0.1
1.32 0 0.1
1.34 0 0.1
1.36 0 0.1
1.38 0 0.1
1.4 0 0.1
1.42 0 0.1
1.44 0 0.1
1.46 0 0.1
1.48 0 0.1
1.5 0 0.1
1.52 0 0.1
1.54 0 0.1
1.56 0 0.1
1.58 0 0.1
1.6 0 0.1
1.62 0 0.1
1.64 0 0.1
1.66 0 0.1
1.68 0 0.1
1.7 0 0.1
1.72 0 0.1
1.74 0 0.1
1.76 0 0.1
1.78 0 0.1
1.8 0 0.1
1.82 0 0.1
1.84 0 0.1
1.86 0 0.1
1.88 0 0.1
1.9 0 0.1
1.92 0 0.1
1.94 0 0.1
1.96 0 0.1
1.98 0 0.1
2 0.0199133 0.1
2 0.0414128 0.1
2 0.0646247 0.1
2 0.0896856 0.1
2 0.116743 0.1
2 0.145955 0.1
2 0.177494 0.1
2 0.211545 0.1
2 0.248309 0.1
2 0.288001 0.1
2 0.330854 0.1
2 0.377121 0.1
2 0.427073 0.1
2 0.481004 0.1
2 0.539231 0.1
2 0.602096 0.1
2 0.669968 0.1
2 0.743247 0.1
2 0.822362 0.1
2 0.907779 0.1
1.9 1 0.1
1.8 1 0.1
1.7 1 0.1
1.6 1 0.1
1.5 1 0.1
1.4 1 0.1
1.3 1 0.1
1.2 1 0.1
1.1 1 0.1
1 1 0.1
0.9 1 0.1
0.8 1 0.1
0.7 1 0.1
0.6 1 0.1
0.5 1 0.1
0.4 1 0.1
0.3 1 0.1
0.2 1 0.1
0.1 1 0.1
3.69793e-12 1 0.1
-0.1 1 0.1
-0.2 1 0.1
-0.3 1 0.1
-0.4 1 0.1
-0.5 1 0.1
-0.6 1 0.1
-0.7 1 0.1
-0.8 1 0.1
-0.9 1 0.1
1.08758 0.0158154 0
-0.0898513 0.0203294 0
0.0966181 0.0537636 0
0.90205 0.0548881 0
1.21055 0.0202058 0
-0.209811 0.0159577 0
1.3305 0.0176902 0
-0.33 0.0173205 0
1.45324 0.0148141 0
-0.448654 0.0159854 0
1.56842 0.0191785 0
-0.569936 0.0166364 0
0.193292 0.0805369 0
0.805051 0.0813623 0
0.709096 0.100353 0
0.288591 0.0996656 0
0.390184 0.111848 0
0.61033 0.111742 0
0.488809 0.116278 0
1.67175 0.0169692 0
-0.67 0.0169809 0
-0.955017 0.454039 0
1.95131 0.44569 0
1.74981 0.0168753 0
-0.75 0.0173205 0
-0.968032 0.266538 0
1.96871 0.266267 0
0.978232 0.0305687 0
0.0208675 0.026451 0
-0.150454 0.91842 0
1.13854 0.907437 0
1.45012 0.904365 0
-0.445923 0.908903 0
-0.853423 0.0157019 0
1.84881 0.016319 0
0.853689 0.915652 0
0.153944 0.912184 0
0.545151 0.914125 0
0.549913 0.115152 0
1.51 0.0173205 0
-0.506989 0.01651 0
1.27 0.0173205 0
1.14976 0.0173333 0
-0.268171 0.0206442 0
-0.150501 0.0153244 0
-0.391384 0.0153993 0
1.38886 0.0171544 0
-0.973694 0.161724 0
1.97441 0.162392 0
-0.945221 0.633523 0
1.94544 0.63312 0
1.91008 0.0186068 0
-0.91 0.0169616 0
-0.030664 0.0194327 0
1.03074 0.0165456 0
-0.966065 0.353575 0
1.96128 0.359765 0
1.93879 0.781254 0
-0.937057 0.781882 0
-0.980746 0.080709 0
1.9772 0.0760699 0
0.058735 0.0409372 0
0.355202 0.913001 0
0.86356 0.0661005 0
0.134223 0.0651111 0
0.941972 0.0397386 0
-0.653034 0.915003 0
1.65328 0.904589 0
0.770126 0.0881325 0
0.232946 0.0902008 0
0.330582 0.105648 0
0.670612 0.108365 0
0.428707 0.116145 0
1.80993 0.016629 0
-0.810168 0.0172178 0
-0.71 0.0173205 0
1.63047 0.0175504 0
1.70842 0.0169661 0
-0.628824 0.0181787 0
-0.949815 0.0133898 0
1.95 0.0173205 0
1.85542 0.907891 0
-0.85 0.913397 0
1.9833 0.0307692 0
-0.983315 0.0309709 0
-0.750025 0.916468 0
-0.701107 0.836904 0
-0.607741 0.836428 0
-0.656448 0.759827 0
-0.572936 0.758144 0
-0.61411 0.691195 0
-0.539534 0.689068 0
-0.578542 0.626111 0
-0.507461 0.624216 0
-0.544001 0.566638 0
-0.477696 0.564279 0
-0.511582 0.51001 0
-0.451689 0.507147 0
-0.481834 0.457732 0
-0.426137 0.454624 0
-0.453236 0.407539 0
-0.398845 0.406233 0
-0.507958 0.409496 0
-0.368427 0.460177 0
-0.344602 0.405209 0
-0.315696 0.447824 0
-0.294128 0.402169 0
-0.262844 0.444518 0
-0.241968 0.388746 0
-0.209878 0.439557 0
-0.185184 0.391135 0
-0.156687 0.437338 0
-0.133719 0.390776 0
-0.104405 0.434306 0
-0.0818745 0.388334 0
-0.0528785 0.431165 0
-0.0305984 0.385639 0
-0.00180552 0.427863 0
0.0194564 0.382608 0
0.0485809 0.42449 0
0.0701962 0.37973 0
0.0985483 0.421145 0
0.119893 0.377339 0
0.147837 0.417911 0
0.172552 0.36751 0
0.197018 0.412597 0
0.221203 0.37141 0
0.24512 0.409646 0
-0.48178 0.364657 0
-0.531053 0.364782 0
-0.0599102 0.344151 0
-0.324909 0.359566 0
0.266181 0.368462 0
0.292132 0.407649 0
0.311992 0.365779 0
0.338918 0.404821 0
0.357567 0.355909 0
0.384723 0.40053 0
0.404675 0.359681 0
0.430617 0.398558 0
0.450457 0.35827 0
0.474237 0.395182 0
0.496746 0.34898 0
0.520548 0.397931 0
0.542071 0.353121 0
0.566011 0.389914 0
0.585061 0.350856 0
0.609352 0.38696 0
0.629069 0.348168 0
0.655979 0.391217 0
0.67472 0.346182 0
0.699346 0.381414 0
0.719333 0.341965 0
0.743718 0.377547 0
0.764028 0.339036 0
0.788201 0.373582 0
0.807659 0.336101 0
0.832821 0.372249 0
0.852309 0.334017 0
0.877785 0.370339 0
0.897875 0.331141 0
0.922904 0.366281 0
0.943173 0.327335 0
0.968282 0.363358 0
0.989029 0.324222 0
1.01391 0.361511 0
1.03465 0.321428 0
1.05949 0.358447 0
1.08389 0.312052 0
1.10575 0.355104 0
1.12889 0.31562 0
1.15067 0.353235 0
1.17157 0.312819 0
1.19626 0.349369 0
1.21618 0.309863 0
1.2416 0.346914 0
1.26131 0.30715 0
1.28691 0.344312 0
1.30571 0.303752 0
1.33144 0.341222 0
1.35018 0.300911 0
1.3758 0.338308 0
1.39501 0.298931 0
1.42015 0.335235 0
1.43904 0.296349 0
1.46355 0.330194 0
1.48256 0.293347 0
1.50685 0.326967 0
1.52589 0.29055 0
1.54996 0.325305 0
1.56909 0.287929 0
[...]
CELL_DATA 3694
SCALARS rho float
LOOKUP_TABLE default
0.742345
0.683655
0.804587
0.819169
0.830418
0.806018
0.793354
0.80128
0.815603
0.803598
0.822871
0.822861
0.840148
0.791329
0.801995
0.760225
0.803855
0.803818
0.768561
0.852434
0.82172
0.827788
0.716332
0.80422
0.713298
0.839106
0.723594
0.807708
0.837191
0.799441
0.799595
0.721404
0.804303
0.825399
0.803889
0.802941
0.839903
0.827518
0.828822
0.779379
0.80554
0.818193
0.834654
0.825958
0.806041
0.819063
0.802286
0.688952
0.689545
0.735818
0.802961
0.803311
0.849324
0.80322
0.668075
0.840813
0.803718
0.823571
0.832649
0.760323
0.79779
0.822006
0.845227
0.800869
0.845951
0.834788
0.808911
0.819898
0.73828
0.860749
0.803499
0.808555
0.827813
0.803827
0.828973
0.803305
0.814734
0.800613
0.819591
0.803598
0.727635
0.819334
0.802807
0.778068
0.8152
0.80056
0.822946
0.728054
0.737537
0.828719
0.804194
0.803244
0.821411
0.819968
0.684854
0.807479
0.730461
0.823242
0.818212
0.843189
0.820743
0.770769
0.719209
0.815342
0.814645
0.821995
0.823245
0.807979
0.721942
0.819869
0.800557
0.737256
0.721794
0.827124
0.869908
0.803024
0.804812
0.818011
0.803495
0.802912
0.768001
0.822595
0.824465
0.775909
0.704723
0.763605
0.822788
0.78368
0.846131
0.717211
0.769606
0.801513
0.808907
0.780993
0.802412
0.800379
0.806388
0.802903
0.798879
0.820639
0.819399
0.722937
0.822449
0.819901
0.762641
0.691234
0.686946
0.799062
0.822013
0.813948
0.753908
0.803283
0.604512
0.784054
0.704048
0.771579
0.721442
0.78908
0.62493
0.794837
0.837252
0.657734
0.784885
0.744161
0.847384
0.601166
0.818102
0.801604
0.804362
0.683689
0.802136
0.677255
0.860311
0.628175
0.801143
0.6716
0.87119
0.83727
0.825351
0.74691
0.819616
0.722994
0.831366
0.739689
0.661061
0.803631
0.670352
0.828082
0.802586
0.853806
0.793233
0.702625
0.821678
0.799387
0.750161
0.852411
0.812289
0.851203
0.743674
0.752719
0.774657
0.798681
0.835788
0.834092
0.817456
0.820324
0.684703
0.805489
0.738206
0.803699
0.725891
0.801741
0.796956
0.802676
0.83026
0.771656
0.834591
0.755871
0.830216
0.824447
0.821997
0.852593
0.829677
0.721648
0.831497
0.677589
0.790013
0.815042
0.853964
0.834191
0.813886
0.795504
0.754683
0.823159
0.840238
0.823011
0.727303
0.805025
0.707221
0.797714
0.79683
0.815279
0.662849
0.80875
0.765513
0.798998
0.803446
0.76604
0.821782
0.864735
0.785328
0.690712
0.805437
0.803067
0.660111
0.798175
0.781297
0.8028
0.841709
0.82157
0.626771
0.821654
0.810599
0.802507
0.821775
0.803232
0.816045
0.818792
0.835527
0.763007
0.802389
0.838723
0.811809
0.803485
0.797675
0.821918
0.730096
0.607288
0.822392
0.829557
0.825446
0.805121
0.704836
0.821771
0.821612
0.821447
0.728689
0.801624
0.822001
0.632425
0.803275
0.870745
0.673734
0.765482
0.842125
0.830628
0.821726
0.70577
0.810381
0.822014
0.804634
0.802728
0.812796
0.839441
0.818402
0.771117
0.808029
0.803541
0.659093
0.826066
0.832256
0.687284
0.796603
0.824211
0.820998
0.691694
0.660641
0.826431
0.828695
0.810513
0.734923
0.717607
0.724085
0.745277
0.825385
0.783526
0.805004
0.74526
0.743966
0.827291
0.815596
0.820199
0.776001
0.821775
0.820114
0.822954
0.821598
0.803395
0.808721
0.80532
0.689337
0.803128
0.813855
0.715117
0.808635
0.806036
0.824706
0.788229
0.806966
0.79371
0.821843
0.826057
0.825345
0.799319
0.70608
0.727829
0.800665
0.81178
0.651821
0.804691
0.808953
0.818058
0.751365
0.805288
0.821872
0.817549
0.823331
0.805944
0.79877
0.771571
0.805861
0.846866
0.821038
0.706109
0.804817
0.719297
0.705286
0.803848
0.629105
0.774417
0.787099
0.808505
0.82
0.829439
0.822584
0.817047
0.825359
0.83252
0.803312
0.771658
0.810605
0.675517
0.824442
0.764017
0.739304
0.706473
0.820259
0.856209
0.824466
0.810196
0.822328
0.821747
0.789178
0.766199
0.815313
0.702226
0.793004
0.846437
0.826574
0.801812
0.866314
0.814214
0.821622
0.823148
0.831048
0.655081
0.804039
0.744353
0.798938
0.737097
0.823291
0.80963
0.792475
0.672947
0.821545
0.830274
0.817952
0.803726
0.804644
0.829019
0.804659
0.726791
0.791843
0.803439
0.821418
0.819458
0.818292
0.87343
0.832231
0.810391
0.836199
0.695116
0.828231
0.841337
0.822057
0.64186
0.821757
0.810349
0.84874
0.8264
0.803503
0.611614
0.811223
0.713182
0.807073
0.803284
0.813564
0.820135
0.825618
0.805987
0.812027
0.821713
0.738723
0.865245
0.802541
0.853155
0.821973
0.610987
0.804694
0.798251
0.81753
0.823237
0.685411
0.803332
0.810631
0.813989
0.808083
0.795405
0.821845
0.82282
0.801849
0.805484
0.826392
0.839789
0.743786
0.807272
0.811109
0.818851
0.692755
0.806376
0.821134
0.800285
0.805213
0.627779
0.836991
0.771863
0.821588
0.823277
0.834965
0.849062
0.821659
0.817699
0.729897
0.800061
0.854627
0.814142
0.718172
0.801108
0.803033
0.874
0.84855
0.824408
0.802572
0.810595
0.761782
0.821541
0.814981
0.606069
0.803584
0.743298
0.753399
0.804204
0.817399
0.782916
0.821761
0.821574
0.838326
0.821261
0.801646
0.814107
0.739955
0.745181
0.805016
0.813546
0.825697
0.803364
0.754999
0.706096
0.820077
0.816301
0.81471
0.614889
0.820065
0.821042
0.829437
0.803858
0.813662
0.824595
0.812639
0.843074
0.803617
0.813543
0.828043
0.821837
0.821866
0.825493
0.708892
0.786428
0.799695
0.803916
0.850774
0.802603
0.807356
0.648699
0.815227
0.819416
0.811931
0.824413
0.806746
0.819536
0.734581
0.847
0.707447
0.801498
0.822998
0.808235
0.688216
0.671317
0.816649
0.806661
0.805469
0.791457
0.80215
0.833511
0.819025
0.805931
0.803201
0.817998
0.633909
0.81843
0.804238
0.718127
0.82085
0.663257
0.790469
0.821343
0.840663
0.811538
0.818776
0.79841
0.800562
0.805278
0.802091
0.818117
0.81228
0.814751
0.803785
0.759084
0.805001
0.818884
0.818234
0.820745
0.817635
0.821901
0.821584
0.837239
0.749649
0.807883
0.821669
0.80364
0.575454
0.704324
0.812675
0.819746
0.821533
0.782311
0.809846
0.81418
0.804388
0.801115
0.803835
0.824075
0.825009
0.821604
0.790957
0.81324
0.811305
0.647868
0.777937
0.76422
0.810581
0.742619
0.700766
0.798664
0.771444
0.832048
0.821964
0.821387
0.809344
0.572863
0.816831
0.604554
0.716998
0.8294
0.871373
0.752889
0.822167
0.855696
0.70745
0.821211
0.809976
0.815915
0.807895
0.669166
0.857367
0.739727
0.743777
0.804463
0.805503
0.800471
0.833509
0.821746
0.703328
0.819685
0.801099
0.713636
0.843172
0.79935
0.639124
0.776944
0.82171
0.813515
0.821375
0.785816
0.739583
0.777719
0.836888
0.698217
0.822033
0.82216
0.831479
0.771091
0.827069
0.708848
0.80553
0.672785
0.709712
0.804872
0.823705
0.794678
0.82153
0.821606
0.821653
0.820729
0.603367
0.802981
0.822077
0.75008
0.811041
0.821583
0.817973
0.71519
0.686676
0.748136
0.648856
0.807938
0.695089
0.821886
0.802439
0.821626
0.836846
0.683656
0.809053
0.824566
0.835522
0.749975
0.787887
0.766561
0.778513
0.817602
0.648269
0.666092
0.821732
0.806336
0.8175
0.805499
0.726745
0.785484
0.737197
0.762131
0.800953
0.836071
0.813385
0.700508
0.828261
0.822073
0.816906
0.707451
0.688076
0.696503
0.874061
0.821915
0.821865
0.628518
0.719994
0.655309
0.804676
0.801136
0.683404
0.813194
0.827881
0.759474
0.801029
0.740201
0.820314
0.701772
0.821659
0.811231
0.806749
0.803555
0.828904
0.751261
0.821942
0.821886
0.783266
0.624118
0.817588
0.816769
0.764683
0.820604
0.74899
0.804259
0.830317
0.689918
0.823658
0.803099
0.810523
0.612235
0.6678
0.743596
0.807396
0.817896
0.816735
0.826112
0.816084
0.821896
0.713074
0.802442
0.818772
0.830748
0.712386
0.740673
0.818428
0.816433
0.708964
0.814831
0.779826
0.699447
0.812839
0.705365
0.809486
0.674614
0.803245
0.731316
0.684783
0.816934
0.788538
0.752227
0.645341
0.84327
0.821314
0.820329
0.776053
0.820998
0.800952
0.791131
0.801066
0.802799
0.820419
0.74495
0.810708
0.801048
0.824205
0.618597
0.802664
0.818426
0.819278
0.817275
0.817739
0.753252
0.807752
0.767968
0.757787
0.823943
0.673821
0.823829
0.823034
0.80354
0.821048
0.822254
0.735129
0.769973
0.827043
0.79088
0.804748
0.821539
0.876578
0.823035
0.804043
0.822628
0.821725
0.795562
0.82396
0.821893
0.77731
0.718428
0.844763
0.798082
0.803642
0.823367
0.786287
0.823389
0.824986
0.824097
0.822659
0.872515
0.803572
0.806174
0.823752
0.803554
0.821514
0.808011
0.746148
0.821375
0.824999
0.75544
0.72636
0.821195
0.843313
0.823038
0.686829
0.826808
0.777394
0.814013
0.803124
0.738839
0.803438
0.799778
0.816552
0.822077
0.704948
0.722175
0.803309
0.789135
0.803094
0.828242
0.722624
0.821828
0.80356
0.801618
0.826804
0.821779
0.72795
0.82164
0.768164
0.803466
0.832535
0.804222
0.779556
0.798767
0.795504
0.821464
0.656259
0.822005
0.689771
0.702605
0.804329
0.824862
0.821887
0.803381
0.82155
0.813041
0.73678
0.788967
0.859763
0.803471
0.836609
0.80851
0.609008
0.7637
0.786636
0.670147
0.748206
0.605506
0.823648
0.819826
0.818566
0.802984
0.769286
0.698344
0.772038
0.754186
0.784915
0.82197
0.844537
0.824719
0.806879
0.81959
0.827125
0.803811
0.809104
0.718017
0.804166
0.762474
0.809742
0.799036
0.760447
0.826454
0.790703
0.804473
0.79591
0.843906
0.734121
0.801829
0.800778
0.805885
0.631702
0.821776
0.821702
0.82284
0.662251
0.821628
0.821504
0.79962
0.804737
0.795087
0.782016
0.807932
0.800275
0.822039
0.754761
0.809188
0.876818
0.768523
0.756532
0.812255
0.785451
0.846043
0.805373
0.786408
0.820414
0.799542
0.794428
0.809093
0.830236
0.839611
0.800923
0.598536
0.825496
0.832488
0.774643
0.834979
0.841576
0.82763
0.830705
0.80835
0.836754
0.831374
0.785726
0.810412
0.817316
0.811791
0.827613
0.804157
0.827514
0.794496
0.804879
0.806855
0.737976
0.80818
0.589754
0.82343
0.829981
0.833005
0.807321
0.819199
0.828694
0.820233
0.82593
0.842449
0.837156
0.793911
0.801112
0.826713
0.82112
0.822654
0.801369
0.807447
0.867692
0.825251
0.850517
0.820971
0.801671
0.825032
0.801042
0.833302
0.819166
0.820434
0.806304
0.738698
0.803686
0.805467
0.821359
0.804255
0.806349
0.822652
0.805325
0.805079
0.78093
0.820425
0.724553
0.815441
0.787017
0.764124
0.804383
0.814292
0.819167
0.728925
0.824631
0.816135
0.826815
0.822532
0.794433
0.822222
0.846799
0.833537
0.819355
0.812796
0.802407
0.753156
0.699626
0.821788
0.8209
0.777803
0.819897
0.808924
0.817557
0.806595
0.799658
0.779033
0.802923
0.800986
0.844599
0.822984
0.812627
0.80727
0.621404
0.741433
0.803241
0.789413
0.805248
0.82129
0.807083
0.822082
0.782759
0.821749
0.805955
0.81654
0.804853
0.82324
0.803457
0.821954
0.816595
0.82159
0.8184
0.729749
0.819845
0.821854
0.616101
0.821558
0.798299
0.804083
0.861263
0.823338
0.816481
0.87423
0.821271
0.821418
0.822597
0.824169
0.820673
0.768175
0.830257
0.802532
0.803927
0.819763
0.821415
0.822529
0.821508
0.818767
0.823691
0.804758
0.817941
0.810186
0.816379
0.820741
0.821587
0.817319
0.82441
0.809863
0.691422
0.677373
0.803374
0.809989
0.804095
0.816913
0.823593
0.822353
0.803602
0.805358
0.801655
0.801675
0.82232
0.847118
0.823952
0.812805
0.823749
0.823627
0.845882
0.822769
0.82196
0.787983
0.821255
0.807755
0.80281
0.793893
0.816055
0.823815
0.821412
0.82107
0.835723
0.811322
0.818918
0.821986
0.822295
0.804265
0.804131
0.806452
0.8168
0.821413
0.802332
0.80828
0.822606
0.82313
0.801903
0.652588
0.805084
0.801283
0.81832
0.799815
0.803559
0.754789
0.844347
0.803778
0.800629
0.838707
0.83401
0.811316
0.830769
0.801425
0.823316
0.822386
0.824062
0.804352
0.823697
0.742055
0.827215
0.812339
0.801156
0.814168
0.825636
0.800457
0.804816
0.788434
0.816053
0.821712
0.821771
0.823856
0.807371
0.822756
0.821769
0.829943
0.822524
0.841377
0.807052
0.704141
0.823252
0.843376
0.824967
0.805718
0.800801
0.804421
0.821168
0.815121
0.821815
0.747874
0.750099
0.801818
0.803912
0.821542
0.821848
0.804361
0.675461
0.716643
0.808986
0.770368
0.821926
0.707501
0.803443
0.735708
0.803509
0.820887
0.803443
0.822886
0.818668
0.799548
0.809691
0.799005
0.829709
0.821758
0.802309
0.804416
0.821447
0.826484
0.757594
0.826809
0.80451
0.784273
0.82168
0.804671
0.811798
0.821431
0.821346
0.838923
0.798318
0.799788
0.8216
0.764872
0.807779
0.821518
0.802001
0.821698
0.840805
0.803249
0.846299
0.81307
0.794968
0.817894
0.803002
0.851305
0.789836
0.803675
0.822011
0.835723
0.80933
0.819863
0.821705
0.80358
0.803297
0.826361
0.787569
0.820433
0.821451
0.676446
0.821609
0.720585
0.818375
0.841617
0.829002
0.804674
0.821009
0.821652
0.734244
0.821417
0.802191
0.802109
0.801804
0.821502
0.866068
0.802082
0.802058
0.787827
0.844192
0.828157
0.824643
0.818922
0.753487
0.808404
0.803534
0.73825
0.800847
0.722682
0.8162
0.801585
0.687601
0.881618
0.710615
0.773666
0.802836
0.752566
0.809344
0.799906
0.803361
0.672924
0.79793
0.78644
0.800099
0.742639
0.823929
0.827286
0.885711
0.8104
0.831824
0.658831
0.801177
0.791699
0.75531
0.759414
0.776666
0.720279
0.803885
0.800455
0.803948
0.769261
0.643697
0.812448
0.632166
0.825487
0.82615
0.812342
0.740489
0.81617
0.801125
0.823868
0.785521
0.812695
0.798261
0.815637
0.724667
0.80234
0.731661
0.802166
0.799705
0.705786
0.804688
0.821813
0.821808
0.803545
0.767244
0.821333
0.733152
0.700554
0.802906
0.821854
0.87619
0.821841
0.820486
0.88185
0.867262
0.833975
0.717561
0.802767
0.812742
0.822273
0.803184
0.700854
0.73026
0.699007
0.802797
0.701983
0.773248
0.80021
0.654795
0.686189
0.839074
0.779645
0.753237
0.834416
0.766149
0.770506
0.670319
0.740383
0.790549
0.823953
0.871227
0.840818
0.821642
0.799583
0.800508
0.726305
0.821727
0.703814
0.797737
0.821945
0.78453
0.768509
0.806354
0.788218
0.803146
0.801529
0.817373
0.811757
0.869056
0.651322
0.603934
0.803089
0.811515
0.710969
0.811323
0.803412
0.840693
0.804173
0.802782
0.59946
0.62768
0.808825
0.818088
0.821744
0.740711
0.803515
0.814985
0.699329
0.817218
0.803184
0.82031
0.803444
0.804782
0.802653
0.820884
0.803228
0.817222
0.803961
0.864295
0.821353
0.80289
0.722459
0.688105
0.82134
0.614999
0.817206
0.811275
0.839228
0.819285
0.803747
0.811618
0.819694
0.818863
0.821813
0.802096
0.853263
0.859013
0.803535
0.678479
0.813563
0.822491
0.800302
0.803609
0.824379
0.746906
0.803471
0.828993
0.825526
0.821052
0.821296
0.772198
0.746912
0.802154
0.83755
0.804238
0.818842
0.805896
0.805106
0.806418
0.82044
0.810146
0.799862
0.807837
0.80741
0.825182
0.807629
0.807221
0.822919
0.808221
0.803572
0.819374
0.803298
0.803151
0.806726
0.809172
0.819513
0.77757
0.806232
0.803171
0.822102
0.800447
0.80447
0.807835
0.835576
0.805889
0.677262
0.801467
0.820886
0.805491
0.815438
0.768037
0.82079
0.757758
0.804319
0.802628
0.804816
0.819801
0.85386
0.805156
0.803487
0.748397
0.83352
0.821825
0.825224
0.825024
0.819696
0.746917
0.82332
0.73641
0.802197
0.831691
0.802944
0.71833
0.830103
0.819394
0.822124
0.82854
0.821737
0.777011
0.822602
0.680326
0.728013
0.821918
0.827178
0.702006
0.824418
0.670863
0.826131
0.808269
0.822296
0.80346
0.807083
0.81967
0.832154
0.825295
0.661202
0.819414
0.8454
0.784308
0.849396
0.801036
0.724096
0.842085
0.824597
0.839324
0.710504
0.707414
0.836829
0.689808
0.834703
0.821802
0.832829
0.807302
0.831259
0.789944
0.829888
0.82862
0.724715
0.867831
0.827543
0.826639
0.823944
0.766197
0.803389
0.611949
0.808449
0.825869
0.819729
0.805813
0.830323
0.822189
0.799002
0.825194
0.803445
0.704487
0.794236
0.834477
0.820926
0.730628
0.804671
0.822046
0.614031
0.821173
0.821817
0.803809
0.810863
0.738768
0.822244
0.8034
0.804086
0.797462
0.79961
0.799263
0.795554
0.803484
0.818781
0.819924
0.820172
0.596777
0.893895
0.719472
0.799162
0.750093
0.793052
0.822098
0.82183
0.821817
0.62549
0.823917
0.81792
0.804896
0.822747
0.836899
0.839547
0.784874
0.799451
0.800607
0.739765
0.761567
0.821749
0.769887
0.815988
0.824287
0.821238
0.814385
0.802459
0.782089
0.813012
0.822068
0.735023
0.811617
0.821937
0.823562
0.808955
0.810517
0.772361
0.821364
0.809239
0.803696
0.808498
0.638368
0.807553
0.805343
0.806973
0.826208
0.845305
0.805728
0.781529
0.806323
0.774126
0.825292
0.811251
0.819183
0.822145
0.849672
0.804045
0.748721
0.820465
0.821764
0.735883
0.802306
0.822173
0.761795
0.819059
0.593433
0.807736
0.695502
0.802632
0.814941
0.818345
0.822883
0.805082
0.820488
0.823039
0.802066
0.805911
0.844357
0.822033
0.797717
0.821489
0.803548
0.803105
0.801106
0.802312
0.8122
0.821245
0.802705
0.777603
0.823772
0.816725
0.809852
0.822145
0.609274
0.804515
0.814487
0.821708
0.793537
0.75703
0.719606
0.818874
0.821856
0.830364
0.795475
0.623619
0.777143
0.666319
0.82252
0.746537
0.818566
0.83086
0.715981
0.800603
0.837653
0.759762
0.801579
0.803622
0.821385
0.806501
0.708209
0.801559
0.59739
0.802905
0.803189
0.803015
0.652214
0.803393
0.804153
0.803914
0.735949
0.744912
0.804123
0.781911
0.821847
0.730422
0.715795
0.821464
0.802377
0.759298
0.856366
0.820387
0.818614
0.681825
0.803678
0.80126
0.801301
0.802912
0.67326
0.804013
0.821673
0.668112
0.696445
0.806735
0.795288
0.82175
0.826607
0.821012
0.821284
0.822171
0.804415
0.821716
0.820893
0.817215
0.829801
0.80378
0.802648
0.811632
0.741328
0.810536
0.820746
0.864719
0.81508
0.653938
0.781889
0.802904
0.779062
0.822424
0.817626
0.833238
0.815316
0.866525
0.803414
0.820596
0.618073
0.816809
0.837005
0.803283
0.820943
0.643029
0.82088
0.803146
0.822388
0.802716
0.823013
0.821853
0.756105
0.804468
0.803402
0.838333
0.864052
0.82049
0.822089
0.725806
0.752893
0.803029
0.803771
0.813329
0.82341
0.800457
0.803566
0.824542
0.8118
0.808555
0.740845
0.803246
0.822713
0.819089
0.773156
0.761995
0.817105
0.797519
0.859453
0.726878
0.837944
0.816468
0.710793
0.801037
0.82045
0.78855
0.801417
0.800501
0.821231
0.783422
0.775813
0.819652
0.695419
0.799589
0.772335
0.821213
0.822905
0.802867
0.793093
0.747261
0.759999
0.779259
0.821117
0.824241
0.811094
0.679747
0.806995
0.800878
0.779659
0.810267
0.819111
0.800884
0.804613
0.665482
0.80546
0.806081
0.854252
0.804475
0.810389
0.836859
0.806746
0.815751
0.854969
0.641891
0.804843
0.822119
0.806398
0.805981
0.806724
0.805459
0.805614
0.805046
0.806833
0.807763
0.734626
0.806752
0.808424
0.811487
0.820735
0.809526
0.823024
0.803448
0.80427
0.820591
0.820635
0.815787
0.803564
0.816589
0.81445
0.814483
0.821814
0.72038
0.820074
0.835265
0.821288
0.857063
0.756132
0.813432
0.821898
0.802417
0.664168
0.803853
0.777714
0.826842
0.640695
0.821764
0.833478
0.821206
0.816578
0.802807
0.827363
0.823091
0.804589
0.770524
0.822676
0.761716
0.581776
0.821134
0.691927
0.708956
0.820686
0.831791
0.831813
0.822378
0.850568
0.644414
0.875538
0.806335
0.830261
0.828766
0.818771
0.698257
0.821585
0.82739
0.822222
0.802628
0.775088
0.822588
0.596704
0.817915
0.846492
0.80389
0.843162
0.826296
0.803484
0.689248
0.84337
0.825376
0.840185
0.801899
0.818739
0.803355
0.837742
0.803513
0.818803
0.835487
0.8335
0.822427
0.829022
0.831296
0.74045
0.685739
0.620778
0.831805
0.830417
0.771941
0.762807
0.811874
0.829113
0.846418
0.623072
0.827948
0.826966
0.826157
0.824831
0.805095
0.821299
0.685558
0.753037
0.82546
0.79868
0.869148
0.891232
0.779879
0.809336
0.680349
0.835752
0.742783
0.734221
0.819771
0.802914
0.786156
0.691052
0.802695
0.821556
0.791039
0.729001
0.805969
0.81788
0.799407
0.702797
0.826831
0.79445
0.821854
0.837172
0.815965
0.801353
0.822119
0.821968
0.787791
0.805011
0.727785
0.84062
0.79482
0.816523
0.784814
0.805432
0.714684
0.80147
0.814401
0.813077
0.811981
0.810497
0.809396
0.808667
0.807017
0.805884
0.807834
0.739743
0.806454
0.801996
0.797374
0.804042
0.844219
0.730713
0.803741
0.778625
0.885072
0.853883
0.799257
0.737029
0.804631
0.798635
0.729323
0.804069
0.802842
0.745828
0.804759
0.795885
0.798578
0.802136
0.743186
0.786213
0.809585
0.756921
0.76757
0.776751
0.802488
0.820758
0.809591
0.766996
0.755516
0.800608
0.820216
0.803886
0.797491
0.801731
0.928161
0.862506
0.822808
0.82193
0.724691
0.847418
0.754068
0.826782
0.820119
0.898825
0.821976
0.798334
0.611037
0.821902
0.798472
0.821842
0.798949
0.84809
0.608404
0.836684
0.802427
0.806836
0.805681
0.805009
0.855441
0.802052
0.822918
0.710077
0.646279
0.676916
0.821799
0.593554
0.798801
0.733082
0.844443
0.815454
0.58281
0.806312
0.821055
0.820818
0.726869
0.802855
0.556919
0.798543
0.821761
0.798691
0.803422
0.798963
0.821785
0.836906
0.803473
0.799764
0.821965
0.800058
0.822045
0.815384
0.800385
0.822147
0.819926
0.822277
0.800522
0.822431
0.689313
0.800741
0.822609
0.803512
0.800942
0.822793
0.712726
0.821755
0.799231
0.822076
0.79952
0.815619
0.838621
0.863747
0.801678
0.802071
0.823528
0.816442
0.801702
0.80131
0.862715
0.816318
0.82327
0.816073
0.852517
0.832907
0.82223
0.82654
0.849484
0.821755
0.803233
0.824553
0.815459
0.80369
0.821434