# vtk DataFile Version 1.0
unstructured grid
ascii
DATASET UNSTRUCTURED_GRID
points 3920 float
-1 0 0
-1 1 0
2 0 0
2 1 0
0 0 0
1 0 0
-1 1 0.1
-1 0 0.1
0 0 0.1
1 0 0.1
2 0 0.1
2 1 0.1
-0.98 0 0
-0.96 0 0
-0.94 0 0
-0.92 0 0
-0.9 0 0
-0.88 0 0
-0.86 0 0
-0.84 0 0
-0.82 0 0
-0.8 0 0
-0.78 0 0
-0.76 0 0
-0.74 0 0
-0.72 0 0
-0.7 0 0
-0.68 0 0
-0.66 0 0
-0.64 0 0
-0.62 0 0
-0.6 0 0
-0.58 0 0
-0.56 0 0
-0.54 0 0
-0.52 0 0
-0.5 0 0
-0.48 0 0
-0.46 0 0
-0.44 0 0
-0.42 0 0
-0.4 0 0
-0.38 0 0
-0.36 0 0
-0.34 0 0
-0.32 0 0
-0.3 0 0
-0.28 0 0
-0.26 0 0
-0.24 0 0
-0.22 0 0
-0.2 0 0
-0.18 0 0
-0.16 0 0
-0.14 0 0
-0.12 0 0
-0.1 0 0
-0.08 0 0
-0.06 0 0
-0.04 0 0
-0.02 0 0
1.02 0 0
1.04 0 0
1.06 0 0
1.08 0 0
1.1 0 0
1.12 0 0
1.14 0 0
1.16 0 0
1.18 0 0
1.2 0 0
1.22 0 0
1.24 0 0
1.26 0 0
1.28 0 0
1.3 0 0
1.32 0 0
1.34 0 0
1.36 0 0
1.38 0 0
1.4 0 0
1.42 0 0
1.44 0 0
1.46 0 0
1.48 0 0
1.5 0 0
1.52 0 0
1.54 0 0
1.56 0 0
1.58 0 0
1.6 0 0
1.62 0 0
1.64 0 0
1.66 0 0
1.68 0 0
1.7 0 0
1.72 0 0
1.74 0 0
1.76 0 0
1.78 0 0
1.8 0 0
1.82 0 0
1.84 0 0
1.86 0 0
1.88 0 0
1.9 0 0
1.92 0 0
1.94 0 0
1.96 0 0
1.98 0 0
2 0.0199133 0
2 0.0414128 0
2 0.0646247 0
2 0.0896856 0
2 0.116743 0
2 0.145955 0
2 0.177494 0
2 0.211545 0
2 0.248309 0
2 0.288001 0
2 0.330854 0
2 0.377121 0
2 0.427073 0
2 0.481004 0
2 0.539231 0
2 0.602096 0
2 0.669968 0
2 0.743247 0
2 0.822362 0
2 0.907779 0
1.9 1 0
1.8 1 0
1.7 1 0
1.6 1 0
1.5 1 0
1.4 1 0
1.3 1 0
1.2 1 0
1.1 1 0
1 1 0
0.9 1 0
0.8 1 0
0.7 1 0
0.6 1 0
0.5 1 0
0.4 1 0
0.3 1 0
0.2 1 0
0.1 1 0
3.69793e-12 1 0
-0.1 1 0
-0.2 1 0
-0.3 1 0
-0.4 1 0
-0.5 1 0
-0.6 1 0
-0.7 1 0
-0.8 1 0
-0.9 1 0
-1 0.907779 0
-1 0.822362 0
-1 0.743247 0
-1 0.669968 0
-1 0.602096 0
-1 0.539231 0
-1 0.481004 0
-1 0.427073 0
-1 0.377121 0
-1 0.330854 0
-1 0.288001 0
-1 0.248309 0
-1 0.211545 0
-1 0.177494 0
-1 0.145955 0
-1 0.116743 0
-1 0.0896856 0
-1 0.0646247 0
-1 0.0414128 0
-1 0.0199133 0
0.0182781 0.00745351 0
0.0366672 0.0146286 0
0.0551632 0.0215237 0
0.0737617 0.0281372 0
0.0924585 0.0344675 0
0.111249 0.0405131 0
0.13013 0.0462728 0
0.149095 0.0517451 0
0.168142 0.0569289 0
0.187265 0.0618228 0
0.20646 0.0664258 0
0.225723 0.0707368 0
0.245049 0.0747549 0
0.264434 0.078479 0
0.283873 0.0819084 0
0.303362 0.0850422 0
0.322896 0.0878798 0
0.342472 0.0904204 0
0.362083 0.0926635 0
0.381726 0.0946086 0
0.401397 0.0962552 0
0.42109 0.0976029 0
0.440802 0.0986514 0
0.460527 0.0994006 0
0.480261 0.0998501 0
0.5 0.1 0
0.519739 0.0998501 0
0.539473 0.0994006 0
0.559198 0.0986514 0
0.57891 0.0976029 0
0.598603 0.0962552 0
0.618274 0.0946086 0
0.637917 0.0926635 0
0.657528 0.0904204 0
0.677104 0.0878798 0
0.696638 0.0850422 0
0.716127 0.0819084 0
0.735566 0.078479 0
0.754951 0.0747549 0
0.774277 0.0707368 0
0.79354 0.0664258 0
0.812735 0.0618228 0
0.831858 0.0569289 0
0.850905 0.0517451 0
0.86987 0.0462728 0
0.888751 0.0405131 0
0.907542 0.0344675 0
0.926238 0.0281372 0
0.944837 0.0215237 0
0.963333 0.0146286 0
0.981722 0.00745351 0
-1 0.907779 0.1
-1 0.822362 0.1
-1 0.743247 0.1
-1 0.669968 0.1
-1 0.602096 0.1
-1 0.539231 0.1
-1 0.481004 0.1
-1 0.427073 0.1
-1 0.377121 0.1
-1 0.330854 0.1
-1 0.288001 0.1
-1 0.248309 0.1
-1 0.211545 0.1
-1 0.177494 0.1
-1 0.145955 0.1
-1 0.116743 0.1
-1 0.0896856 0.1
-1 0.0646247 0.1
-1 0.0414128 0.1
-1 0.0199133 0.1
-0.98 0 0.1
-0.96 0 0.1
-0.94 0 0.1
-0.92 0 0.1
-0.9 0 0.1
-0.88 0 0.1
-0.86 0 0.1
-0.84 0 0.1
-0.82 0 0.1
-0.8 0 0.1
-0.78 0 0.1
-0.76 0 0.1
-0.74 0 0.1
-0.72 0 0.1
-0.7 0 0.1
-0.68 0 0.1
-0.66 0 0.1
-0.64 0 0.1
-0.62 0 0.1
-0.6 0 0.1
-0.58 0 0.1
-0.56 0 0.1
-0.54 0 0.1
-0.52 0 0.1
-0.5 0 0.1
-0.48 0 0.1
-0.46 0 0.1
-0.44 0 0.1
-0.42 0 0.1
-0.4 0 0.1
-0.38 0 0.1
-0.36 0 0.1
-0.34 0 0.1
-0.32 0 0.1
-0.3 0 0.1
-0.28 0 0.1
-0.26 0 0.1
-0.24 0 0.1
-0.22 0 0.1
-0.2 0 0.1
-0.18 0 0.1
-0.16 0 0.1
-0.14 0 0.1
-0.12 0 0.1
-0.1 0 0.1
-0.08 0 0.1
-0.06 0 0.1
-0.04 0 0.1
-0.02 0 0.1
0.0182781 0.00745351 0.1
0.0366672 0.0146286 0.1
0.0551632 0.0215237 0.1
0.0737617 0.0281372 0.1
0.0924585 0.0344675 0.1
0.111249 0.0405131 0.1
0.13013 0.0462728 0.1
0.149095 0.0517451 0.1
0.168142 0.0569289 0.1
0.187265 0.0618228 0.1
0.20646 0.0664258 0.1
0.225723 0.0707368 0.1
0.245049 0.0747549 0.1
0.264434 0.078479 0.1
0.283873 0.0819084 0.1
0.303362 0.0850422 0.1
0.322896 0.0878798 0.1
0.342472 0.0904204 0.1
0.362083 0.0926635 0.1
0.381726 0.0946086 0.1
0.401397 0.0962552 0.1
0.42109 0.0976029 0.1
0.440802 0.0986514 0.1
0.460527 0.0994006 0.1
0.480261 0.0998501 0.1
0.5 0.1 0.1
0.519739 0.0998501 0.1
0.539473 0.0994006 0.1
0.559198 0.0986514 0.1
0.57891 0.0976029 0.1
0.598603 0.0962552 0.1
0.618274 0.0946086 0.1
0.637917 0.0926635 0.1
0.657528 0.0904204 0.1
0.677104 0.0878798 0.1
0.696638 0.0850422 0.1
0.716127 0.0819084 0.1
0.735566 0.078479 0.1
0.754951 0.0747549 0.1
0.774277 0.0707368 0.1
0.79354 0.0664258 0.1
0.812735 0.0618228 0.1
0.831858 0.0569289 0.1
0.850905 0.0517451 0.1
0.86987 0.0462728 0.1
0.888751 0.0405131 0.1
0.907542 0.0344675 0.1
0.926238 0.0281372 0.1
0.944837 0.0215237 0.1
0.963333 0.0146286 0.1
0.981722 0.00745351 0.1
1.02 0 0.1
1.04 0 0.1
1.06 0 0.1
1.08 0 0.1
1.1 0 0.1
1.12 0 0.1
1.14 0 0.1
1.16 0 0.1
1.18 0 0.1
1.2 0 0.1
1.22 0 0.1
1.24 0 0.1
1.26 0 0.1
1.28 0 0.1
1.3 0 0.1
1.32 0 0.1
1.34 0 0.1
1.36 0 0.1
1.38 0 0.1
1.4 0 0.1
1.42 0 0.1
1.44 0 0.1
1.46 0 0.1
1.48 0 0.1
1.5 0 0.1
1.52 0 0.1
1.54 0 0.1
1.56 0 0.1
1.58 0 0.1
1.6 0 0.1
1.62 0 0.1
1.64 0 0.1
1.66 0 0.1
1.68 0 0.1
1.7 0 0.1
1.72 0 0.1
1.74 0 0.1
1.76 0 0.1
1.78 0 0.1
1.8 0 0.1
1.82 0 0.1
1.84 0 0.1
1.86 0 0.1
1.88 0 0.1
1.9 0 0.1
1.92 0 0.1
1.94 0 0.1
1.96 0 0.1
1.98 0 0.1
2 0.0199133 0.1
2 0.0414128 0.1
2 0.0646247 0.1
2 0.0896856 0.1
2 0.116743 0.1
2 0.145955 0.1
2 0.177494 0.1
2 0.211545 0.1
2 0.248309 0.1
2 0.288001 0.1
2 0.330854 0.1
2 0.377121 0.1
2 0.427073 0.1
2 0.481004 0.1
2 0.539231 0.1
2 0.602096 0.1
2 0.669968 0.1
2 0.743247 0.1
2 0.822362 0.1
2 0.907779 0.1
1.9 1 0.1
1.8 1 0.1
1.7 1 0.1
1.6 1 0.1
1.5 1 0.1
1.4 1 0.1
1.3 1 0.1
1.2 1 0.1
1.1 1 0.1
1 1 0.1
0.9 1 0.1
0.8 1 0.1
0.7 1 0.1
0.6 1 0.1
0.5 1 0.1
0.4 1 0.1
0.3 1 0.1
0.2 1 0.1
0.1 1 0.1
3.69793e-12 1 0.1
-0.1 1 0.1
-0.2 1 0.1
-0.3 1 0.1
-0.4 1 0.1
-0.5 1 0.1
-0.6 1 0.1
-0.7 1 0.1
-0.8 1 0.1
-0.9 1 0.1
1.08758 0.0158154 0
-0.0898513 0.0203294 0
0.0966181 0.0537636 0
0.90205 0.0548881 0
1.21055 0.0202058 0
-0.209811 0.0159577 0
1.3305 0.0176902 0
-0.33 0.0173205 0
1.45324 0.0148141 0
-0.448654 0.0159854 0
1.56842 0.0191785 0
-0.569936 0.0166364 0
0.193292 0.0805369 0
0.805051 0.0813623 0
0.709096 0.100353 0
0.288591 0.0996656 0
0.390184 0.111848 0
0.61033 0.111742 0
0.488809 0.116278 0
1.67175 0.0169692 0
-0.67 0.0169809 0
-0.955017 0.454039 0
1.95131 0.44569 0
1.74981 0.0168753 0
-0.75 0.0173205 0
-0.968032 0.266538 0
1.96871 0.266267 0
0.978232 0.0305687 0
0.0208675 0.026451 0
-0.150454 0.91842 0
1.13854 0.907437 0
1.45012 0.904365 0
-0.445923 0.908903 0
-0.853423 0.0157019 0
1.84881 0.016319 0
0.853689 0.915652 0
0.153944 0.912184 0
0.545151 0.914125 0
0.549913 0.115152 0
1.51 0.0173205 0
-0.506989 0.01651 0
1.27 0.0173205 0
1.14976 0.0173333 0
-0.268171 0.0206442 0
-0.150501 0.0153244 0
-0.391384 0.0153993 0
1.38886 0.0171544 0
-0.973694 0.161724 0
1.97441 0.162392 0
-0.945221 0.633523 0
1.94544 0.63312 0
1.91008 0.0186068 0
-0.91 0.0169616 0
-0.030664 0.0194327 0
1.03074 0.0165456 0
-0.966065 0.353575 0
1.96128 0.359765 0
1.93879 0.781254 0
-0.937057 0.781882 0
-0.980746 0.080709 0
1.9772 0.0760699 0
0.058735 0.0409372 0
0.355202 0.913001 0
0.86356 0.0661005 0
0.134223 0.0651111 0
0.941972 0.0397386 0
-0.653034 0.915003 0
1.65328 0.904589 0
0.770126 0.0881325 0
0.232946 0.0902008 0
0.330582 0.105648 0
0.670612 0.108365 0
0.428707 0.116145 0
1.80993 0.016629 0
-0.810168 0.0172178 0
-0.71 0.0173205 0
1.63047 0.0175504 0
1.70842 0.0169661 0
-0.628824 0.0181787 0
-0.949815 0.0133898 0
1.95 0.0173205 0
1.85542 0.907891 0
-0.85 0.913397 0
1.9833 0.0307692 0
-0.983315 0.0309709 0
-0.750025 0.916468 0
-0.701107 0.836904 0
-0.607741 0.836428 0
-0.656448 0.759827 0
-0.572936 0.758144 0
-0.61411 0.691195 0
-0.539534 0.689068 0
-0.578542 0.626111 0
-0.507461 0.624216 0
-0.544001 0.566638 0
-0.477696 0.564279 0
-0.511582 0.51001 0
-0.451689 0.507147 0
-0.481834 0.457732 0
-0.426137 0.454624 0
-0.453236 0.407539 0
-0.398845 0.406233 0
-0.507958 0.409496 0
-0.368427 0.460177 0
-0.344602 0.405209 0
-0.315696 0.447824 0
-0.294128 0.402169 0
-0.262844 0.444518 0
-0.241968 0.388746 0
-0.209878 0.439557 0
-0.185184 0.391135 0
-0.156687 0.437338 0
-0.133719 0.390776 0
-0.104405 0.434306 0
-0.0818745 0.388334 0
-0.0528785 0.431165 0
-0.0305984 0.385639 0
-0.00180552 0.427863 0
0.0194564 0.382608 0
0.0485809 0.42449 0
0.0701962 0.37973 0
0.0985483 0.421145 0
0.119893 0.377339 0
0.147837 0.417911 0
0.172552 0.36751 0
0.197018 0.412597 0
0.221203 0.37141 0
0.24512 0.409646 0
-0.48178 0.364657 0
-0.531053 0.364782 0
-0.0599102 0.344151 0
-0.324909 0.359566 0
0.266181 0.368462 0
0.292132 0.407649 0
0.311992 0.365779 0
0.338918 0.404821 0
0.357567 0.355909 0
0.384723 0.40053 0
0.404675 0.359681 0
0.430617 0.398558 0
0.450457 0.35827 0
0.474237 0.395182 0
0.496746 0.34898 0
0.520548 0.397931 0
0.542071 0.353121 0
0.566011 0.389914 0
0.585061 0.350856 0
0.609352 0.38696 0
0.629069 0.348168 0
0.655979 0.391217 0
0.67472 0.346182 0
0.699346 0.381414 0
0.719333 0.341965 0
0.743718 0.377547 0
0.764028 0.339036 0
0.788201 0.373582 0
0.807659 0.336101 0
0.832821 0.372249 0
0.852309 0.334017 0
0.877785 0.370339 0
0.897875 0.331141 0
0.922904 0.366281 0
0.943173 0.327335 0
0.968282 0.363358 0
0.989029 0.324222 0
1.01391 0.361511 0
1.03465 0.321428 0
1.05949 0.358447 0
1.08389 0.312052 0
1.10575 0.355104 0
1.12889 0.31562 0
1.15067 0.353235 0
1.17157 0.312819 0
1.19626 0.349369 0
1.21618 0.309863 0
1.2416 0.346914 0
1.26131 0.30715 0
1.28691 0.344312 0
1.30571 0.303752 0
1.33144 0.341222 0
1.35018 0.300911 0
1.3758 0.338308 0
1.39501 0.298931 0
1.42015 0.335235 0
1.43904 0.296349 0
1.46355 0.330194 0
1.48256 0.293347 0
1.50685 0.326967 0
1.52589 0.29055 0
1.54996 0.325305 0
1.56909 0.287929 0
[...]
CELL_DATA 3694
SCALARS rho float
LOOKUP_TABLE default
0.737026
0.674057
0.803979
0.814645
0.827433
0.805349
0.792045
0.80055
0.811439
0.803005
0.818744
0.818737
0.840447
0.789849
0.801295
0.753166
0.803415
0.803226
0.762426
0.850483
0.818326
0.824209
0.703142
0.803576
0.699816
0.83938
0.720661
0.806828
0.837199
0.799027
0.799196
0.718725
0.803734
0.824992
0.803211
0.798801
0.837735
0.823983
0.825754
0.778267
0.804894
0.81762
0.834577
0.825566
0.805284
0.814533
0.801443
0.678595
0.681923
0.725397
0.802266
0.803019
0.847285
0.802309
0.641807
0.838637
0.803044
0.820132
0.832658
0.755629
0.796608
0.817024
0.842773
0.800163
0.84336
0.831767
0.808089
0.815258
0.736574
0.858789
0.803233
0.807808
0.824233
0.803379
0.825557
0.803
0.814251
0.800082
0.81538
0.802941
0.71861
0.818746
0.802465
0.776941
0.811206
0.800037
0.819486
0.719505
0.735826
0.825913
0.800428
0.802685
0.820859
0.816546
0.677436
0.806767
0.72495
0.81919
0.813872
0.840663
0.816262
0.76473
0.717584
0.811219
0.810646
0.817017
0.819178
0.807265
0.717658
0.81577
0.799554
0.72702
0.720139
0.824318
0.868261
0.802491
0.801008
0.813671
0.803224
0.802386
0.766089
0.822503
0.820887
0.771375
0.703172
0.759922
0.818801
0.778699
0.844068
0.705366
0.767636
0.800576
0.808162
0.778518
0.801556
0.796759
0.805707
0.802562
0.79846
0.81618
0.815233
0.713811
0.818373
0.815313
0.759005
0.680505
0.679599
0.798604
0.817621
0.8133
0.747318
0.80287
0.566565
0.779933
0.693715
0.765609
0.715572
0.785057
0.611279
0.793478
0.837458
0.648075
0.782812
0.738865
0.844859
0.564398
0.817526
0.800922
0.803481
0.675969
0.801688
0.666457
0.858325
0.563477
0.800169
0.646188
0.87236
0.834269
0.821831
0.745278
0.815532
0.720922
0.82803
0.737357
0.651744
0.803234
0.67547
0.824576
0.801893
0.851581
0.792043
0.701514
0.816719
0.798883
0.744602
0.852959
0.811599
0.849302
0.738389
0.74597
0.771934
0.795009
0.832707
0.834197
0.816972
0.815815
0.673303
0.804858
0.730013
0.803326
0.7146
0.798417
0.79596
0.80176
0.826856
0.765817
0.831442
0.751097
0.826802
0.821015
0.817586
0.853175
0.829535
0.709159
0.828172
0.679754
0.788342
0.8113
0.851745
0.831161
0.809759
0.794696
0.748214
0.819079
0.837537
0.818907
0.71842
0.801142
0.700691
0.793651
0.795822
0.811376
0.644818
0.807976
0.759779
0.798052
0.803189
0.760964
0.817029
0.86571
0.784291
0.689521
0.804609
0.80225
0.650465
0.793856
0.77884
0.802456
0.83956
0.816701
0.613058
0.816991
0.8102
0.798351
0.817206
0.802832
0.8155
0.815597
0.835615
0.757948
0.802056
0.835801
0.810998
0.803227
0.79649
0.816941
0.72833
0.59273
0.818331
0.829594
0.82173
0.804532
0.689259
0.817203
0.816975
0.817981
0.718685
0.798307
0.817037
0.569705
0.802954
0.869404
0.678166
0.758905
0.839504
0.82787
0.816768
0.704606
0.809642
0.817039
0.804054
0.802122
0.812243
0.837261
0.817785
0.768257
0.807264
0.803185
0.649785
0.822336
0.828983
0.67587
0.792485
0.820284
0.820853
0.682345
0.666562
0.822738
0.825276
0.809802
0.733162
0.709748
0.716416
0.736733
0.821648
0.778531
0.804402
0.736585
0.74214
0.823757
0.811645
0.819609
0.771462
0.817026
0.815564
0.81886
0.817491
0.802915
0.80796
0.804475
0.688577
0.802839
0.813164
0.702289
0.80777
0.80536
0.820837
0.78646
0.806141
0.792292
0.816903
0.822327
0.821549
0.798791
0.690151
0.716741
0.799714
0.811085
0.630868
0.804109
0.808093
0.817484
0.745807
0.804497
0.817852
0.813199
0.819302
0.805285
0.79767
0.766326
0.804964
0.844336
0.820495
0.704794
0.804108
0.707493
0.703531
0.803311
0.618465
0.771644
0.785357
0.808054
0.81527
0.82634
0.818593
0.813799
0.821561
0.829347
0.802954
0.766452
0.80992
0.663494
0.820629
0.758992
0.731046
0.69592
0.815706
0.854464
0.820655
0.809361
0.82226
0.817126
0.78747
0.760443
0.811149
0.695601
0.791673
0.844229
0.826533
0.801058
0.864533
0.813584
0.817884
0.819068
0.831008
0.636915
0.800103
0.735545
0.798508
0.734882
0.820115
0.808885
0.788616
0.676083
0.816725
0.830141
0.813558
0.8032
0.803989
0.825584
0.804087
0.716614
0.790612
0.803192
0.816647
0.815467
0.814164
0.871995
0.828957
0.809651
0.833153
0.685715
0.824686
0.838556
0.817819
0.631403
0.817115
0.809571
0.84629
0.822707
0.803087
0.597552
0.810469
0.701189
0.806355
0.802992
0.812776
0.815403
0.825308
0.805315
0.811382
0.817588
0.729016
0.863449
0.802185
0.850897
0.817925
0.583216
0.80412
0.797079
0.813232
0.819181
0.664391
0.802961
0.809905
0.813304
0.807369
0.794277
0.817355
0.818812
0.79771
0.804592
0.822762
0.83758
0.734712
0.806546
0.810289
0.814695
0.68523
0.805637
0.817389
0.799803
0.804504
0.553242
0.833978
0.766
0.816659
0.819247
0.831931
0.846916
0.817638
0.813294
0.721037
0.799537
0.852873
0.810014
0.712193
0.80065
0.802727
0.872578
0.846101
0.82051
0.80225
0.809877
0.757142
0.817125
0.814307
0.590748
0.803001
0.733912
0.750808
0.803533
0.813051
0.781396
0.821575
0.817038
0.838381
0.817405
0.800775
0.810337
0.738277
0.739121
0.804416
0.80956
0.822315
0.802715
0.752397
0.693987
0.815402
0.815617
0.814152
0.600251
0.81547
0.817823
0.825978
0.803326
0.810018
0.820982
0.812006
0.840366
0.803164
0.812894
0.824854
0.817351
0.818828
0.822544
0.695226
0.784747
0.796115
0.803401
0.8484
0.802213
0.803943
0.638898
0.812004
0.815168
0.811198
0.82051
0.806056
0.814926
0.729111
0.844473
0.705928
0.800949
0.818894
0.807518
0.667799
0.674295
0.815958
0.805957
0.804737
0.787078
0.801704
0.830381
0.815027
0.805274
0.802588
0.813865
0.623411
0.814067
0.803548
0.705816
0.816993
0.632971
0.785802
0.817134
0.838477
0.807468
0.814258
0.794099
0.796874
0.804553
0.801619
0.813722
0.81155
0.810585
0.8034
0.757499
0.804322
0.814319
0.813731
0.817425
0.813231
0.817593
0.816835
0.834984
0.741979
0.807118
0.817336
0.802957
0.550724
0.689491
0.811879
0.815105
0.817002
0.78076
0.809006
0.813397
0.803689
0.800237
0.803185
0.821015
0.82188
0.816892
0.786535
0.809528
0.807227
0.623896
0.775103
0.759527
0.807536
0.737498
0.684383
0.798272
0.768648
0.828872
0.816986
0.816622
0.808597
0.548343
0.816166
0.589276
0.703544
0.82594
0.870049
0.744958
0.818122
0.853569
0.698459
0.817008
0.809245
0.815277
0.807449
0.659779
0.855248
0.737377
0.734434
0.803621
0.804865
0.800066
0.833506
0.817067
0.694454
0.81659
0.800511
0.699617
0.840466
0.79885
0.626706
0.774085
0.817376
0.809455
0.816699
0.784642
0.729979
0.772286
0.837161
0.691197
0.817661
0.818626
0.82815
0.766822
0.823424
0.696838
0.804883
0.663938
0.703147
0.801622
0.823241
0.790213
0.816599
0.817145
0.81705
0.815924
0.584368
0.802712
0.817058
0.745149
0.810335
0.81716
0.813531
0.713647
0.68715
0.743141
0.628468
0.807474
0.685358
0.817414
0.802141
0.816906
0.837083
0.685028
0.805693
0.82108
0.833211
0.7416
0.78348
0.765126
0.774501
0.813781
0.603177
0.671686
0.817134
0.805646
0.81373
0.804864
0.716989
0.781662
0.728925
0.760759
0.800337
0.833024
0.812685
0.69378
0.824716
0.818959
0.812603
0.692863
0.688042
0.685807
0.872562
0.817578
0.818056
0.614401
0.71371
0.645093
0.803973
0.800784
0.674961
0.812479
0.825326
0.752246
0.8003
0.733367
0.815891
0.694971
0.816755
0.810657
0.802931
0.803247
0.826386
0.746161
0.817499
0.816991
0.781166
0.571198
0.816924
0.812563
0.760035
0.815803
0.747408
0.803537
0.82745
0.67334
0.819667
0.802858
0.810073
0.591372
0.661517
0.737524
0.806706
0.813714
0.812482
0.822445
0.815397
0.817632
0.70678
0.80216
0.81471
0.827456
0.705901
0.730911
0.813991
0.813091
0.699835
0.81453
0.775878
0.698623
0.812172
0.698502
0.805682
0.665779
0.802997
0.729545
0.671993
0.812781
0.786822
0.746413
0.6349
0.840907
0.821166
0.816408
0.771884
0.816157
0.800572
0.787447
0.800545
0.802004
0.816602
0.735884
0.80998
0.800589
0.820278
0.603936
0.802017
0.814454
0.815378
0.813176
0.813703
0.748463
0.804276
0.765158
0.752982
0.820084
0.654962
0.820005
0.819155
0.803235
0.817099
0.818322
0.725666
0.768635
0.823456
0.78685
0.804028
0.817554
0.875373
0.819384
0.799905
0.818443
0.817153
0.794429
0.820004
0.81826
0.774471
0.705146
0.842136
0.79722
0.803332
0.822962
0.782507
0.819388
0.824845
0.820166
0.818501
0.870986
0.803259
0.805425
0.819786
0.803248
0.817142
0.807276
0.73927
0.817043
0.821169
0.753977
0.714641
0.816904
0.843543
0.822648
0.66595
0.823144
0.774763
0.809916
0.802493
0.732239
0.803223
0.799344
0.815911
0.818327
0.698908
0.710247
0.802698
0.787907
0.802344
0.825699
0.720971
0.816966
0.802923
0.800937
0.82426
0.817236
0.717577
0.817344
0.764668
0.802738
0.832686
0.803676
0.775065
0.798036
0.794738
0.816898
0.640305
0.817009
0.690035
0.688391
0.803772
0.821008
0.816996
0.802889
0.816947
0.809673
0.727893
0.788035
0.857784
0.80317
0.834284
0.807722
0.556998
0.762319
0.78178
0.65416
0.740755
0.585842
0.821013
0.815127
0.815201
0.802662
0.767297
0.688529
0.766585
0.752537
0.782877
0.816977
0.844988
0.820853
0.806141
0.819349
0.824594
0.803161
0.808285
0.71017
0.803546
0.757955
0.808994
0.798582
0.754142
0.823436
0.789075
0.803892
0.791521
0.841659
0.729792
0.80136
0.80018
0.805199
0.621137
0.81726
0.817157
0.822339
0.64048
0.817053
0.817009
0.799192
0.804142
0.793746
0.777166
0.807037
0.79618
0.817667
0.753179
0.805304
0.875597
0.764517
0.750356
0.808454
0.78424
0.843486
0.801425
0.781511
0.816793
0.798574
0.793056
0.80835
0.826825
0.836749
0.800066
0.580415
0.821814
0.82937
0.772693
0.831869
0.839075
0.824148
0.827457
0.807571
0.833925
0.828049
0.7842
0.809616
0.813019
0.80784
0.824027
0.803627
0.827397
0.793281
0.803989
0.806026
0.729853
0.807381
0.568339
0.819461
0.826563
0.829781
0.806477
0.818637
0.82519
0.819723
0.822197
0.839736
0.834168
0.789574
0.800764
0.823055
0.816961
0.818523
0.80083
0.806687
0.866053
0.821451
0.84816
0.816723
0.801161
0.824735
0.800045
0.833483
0.815016
0.816713
0.80558
0.73051
0.803191
0.804808
0.816833
0.80358
0.803175
0.822254
0.804804
0.804452
0.778752
0.819944
0.719849
0.814721
0.782181
0.760416
0.803823
0.813609
0.818959
0.719176
0.820763
0.815505
0.826619
0.818567
0.790929
0.817933
0.847336
0.833424
0.816087
0.812067
0.801935
0.746372
0.684383
0.817004
0.820742
0.772782
0.815884
0.808167
0.813371
0.805847
0.799169
0.7769
0.8026
0.800544
0.842229
0.818916
0.811902
0.806507
0.607939
0.734538
0.802446
0.785009
0.804535
0.817219
0.806337
0.817737
0.780618
0.817032
0.805216
0.812287
0.80415
0.819302
0.803254
0.817554
0.81244
0.817412
0.814334
0.720816
0.815917
0.817398
0.602031
0.816811
0.797151
0.803366
0.85936
0.819661
0.812276
0.872855
0.816941
0.817047
0.818413
0.820267
0.816721
0.765298
0.830256
0.801894
0.803407
0.815932
0.816963
0.818311
0.816909
0.814856
0.823253
0.804148
0.813964
0.809434
0.815712
0.820242
0.816951
0.813275
0.820636
0.809124
0.691148
0.664257
0.802887
0.809184
0.803567
0.812808
0.819765
0.818506
0.803121
0.804517
0.801096
0.80122
0.818352
0.845023
0.819995
0.812056
0.819888
0.819635
0.846222
0.818888
0.821486
0.786232
0.817269
0.807025
0.801995
0.792489
0.812182
0.819918
0.816779
0.816781
0.835931
0.807489
0.814406
0.818051
0.821854
0.803725
0.803516
0.805749
0.812499
0.81685
0.801872
0.804432
0.818448
0.822725
0.801324
0.653394
0.804471
0.797982
0.817729
0.798828
0.80294
0.749949
0.841712
0.802974
0.800211
0.835791
0.830834
0.810558
0.827397
0.800929
0.819315
0.818724
0.82013
0.803804
0.819731
0.732521
0.823595
0.811678
0.800626
0.813481
0.821868
0.799429
0.804226
0.783981
0.815408
0.817139
0.817229
0.819921
0.806662
0.818595
0.817409
0.827001
0.822128
0.838598
0.806308
0.697513
0.819342
0.84125
0.821135
0.804992
0.80043
0.803735
0.817523
0.814456
0.817555
0.744678
0.741712
0.801246
0.803167
0.817248
0.817952
0.800229
0.659338
0.710445
0.808252
0.769088
0.817498
0.704589
0.803139
0.730034
0.803267
0.820382
0.803195
0.81879
0.814355
0.798789
0.808934
0.794932
0.829798
0.817243
0.801701
0.803787
0.817337
0.822897
0.751571
0.823698
0.803949
0.783304
0.817135
0.804079
0.811033
0.816528
0.816746
0.836198
0.794199
0.799445
0.817028
0.760436
0.807023
0.816647
0.801218
0.817475
0.841181
0.802636
0.843964
0.809782
0.791497
0.813439
0.802707
0.851955
0.788656
0.803271
0.817617
0.832646
0.808603
0.815358
0.817314
0.803071
0.802826
0.826078
0.783894
0.815922
0.816959
0.654521
0.817146
0.714656
0.817804
0.83906
0.825627
0.804116
0.816301
0.816949
0.727888
0.816576
0.801457
0.801781
0.801281
0.817244
0.864345
0.801587
0.801466
0.786031
0.841516
0.827982
0.820872
0.814708
0.748459
0.804732
0.803364
0.732647
0.800117
0.716465
0.811948
0.801067
0.679256
0.880506
0.704479
0.772378
0.801997
0.745823
0.8086
0.799448
0.803101
0.663582
0.79701
0.784653
0.79956
0.733123
0.820029
0.823666
0.884759
0.809664
0.831641
0.648596
0.80054
0.788046
0.747587
0.753827
0.771106
0.710035
0.803283
0.799886
0.803352
0.765308
0.631412
0.811718
0.617977
0.822176
0.82357
0.811673
0.737382
0.813037
0.796903
0.820284
0.783492
0.808594
0.797386
0.81143
0.718688
0.801819
0.724803
0.801661
0.799279
0.692029
0.803998
0.816951
0.816987
0.803189
0.762714
0.816658
0.731388
0.693225
0.802505
0.817004
0.874808
0.816937
0.816028
0.880815
0.865831
0.831593
0.715983
0.80226
0.812072
0.821757
0.799301
0.686926
0.724585
0.683346
0.802457
0.701043
0.769844
0.799826
0.627926
0.687212
0.836778
0.775135
0.747414
0.831432
0.761002
0.769201
0.663523
0.733779
0.786483
0.820699
0.869872
0.838495
0.817129
0.795847
0.800094
0.718643
0.817071
0.696557
0.797007
0.817027
0.78351
0.764031
0.802817
0.78416
0.802419
0.801089
0.813129
0.811165
0.867562
0.608588
0.552699
0.80263
0.80809
0.701765
0.810549
0.80298
0.838268
0.80364
0.802497
0.575457
0.574773
0.808356
0.81381
0.817025
0.73109
0.803232
0.811594
0.688607
0.812867
0.802834
0.815545
0.803229
0.801542
0.802377
0.816045
0.803009
0.816944
0.80345
0.862581
0.816449
0.802615
0.720742
0.675217
0.816891
0.593428
0.813798
0.810516
0.83667
0.815194
0.803259
0.810926
0.814993
0.814546
0.816823
0.801804
0.853943
0.857064
0.802832
0.662158
0.809708
0.822317
0.799625
0.803263
0.821037
0.738031
0.803282
0.826094
0.822313
0.816979
0.816773
0.768047
0.745194
0.801441
0.834843
0.803464
0.815387
0.805092
0.804315
0.805614
0.815673
0.809361
0.799334
0.807063
0.806595
0.824805
0.806874
0.806475
0.818852
0.807409
0.803403
0.8147
0.803023
0.802909
0.806003
0.80837
0.814841
0.774749
0.805527
0.802801
0.817038
0.800108
0.803925
0.807046
0.832724
0.805222
0.658487
0.801094
0.816725
0.804848
0.814877
0.764495
0.816543
0.752869
0.803814
0.802344
0.804238
0.819273
0.851694
0.804548
0.803296
0.746698
0.830518
0.816921
0.82154
0.824871
0.815963
0.740039
0.819352
0.727031
0.801322
0.828557
0.802577
0.70684
0.826846
0.815849
0.817777
0.825158
0.81714
0.77434
0.81847
0.659121
0.716487
0.817016
0.823688
0.685215
0.820519
0.661962
0.82254
0.807434
0.818038
0.803228
0.806239
0.816033
0.83199
0.825085
0.667794
0.814797
0.842835
0.782233
0.847022
0.800437
0.711869
0.839365
0.820729
0.836459
0.695824
0.692523
0.833834
0.669432
0.83159
0.816979
0.829606
0.806494
0.827933
0.788282
0.826469
0.825115
0.713017
0.866141
0.823956
0.82298
0.823649
0.761092
0.802992
0.541459
0.804531
0.822136
0.815227
0.804966
0.826986
0.817096
0.798613
0.821394
0.803093
0.690272
0.792878
0.834439
0.816222
0.7204
0.800684
0.821651
0.585424
0.816539
0.817299
0.80288
0.810157
0.729925
0.818966
0.803105
0.803624
0.796342
0.795474
0.798195
0.794826
0.803317
0.814159
0.819458
0.815751
0.579113
0.893109
0.711414
0.798195
0.742671
0.791784
0.817046
0.817374
0.817296
0.610219
0.82025
0.817376
0.804238
0.819187
0.83692
0.83969
0.783306
0.798685
0.799757
0.729906
0.755259
0.817066
0.765559
0.815386
0.820418
0.816601
0.813726
0.802063
0.777207
0.812312
0.817725
0.730529
0.810887
0.817538
0.819549
0.808185
0.809778
0.766878
0.816516
0.808504
0.803298
0.807752
0.622442
0.806826
0.804664
0.806249
0.822577
0.845671
0.805039
0.776328
0.805612
0.772129
0.821574
0.807277
0.814539
0.81707
0.850229
0.803564
0.745458
0.81997
0.81707
0.729539
0.80159
0.817853
0.75922
0.814412
0.575935
0.806981
0.688381
0.8019
0.812046
0.814068
0.818741
0.804458
0.816963
0.819127
0.80152
0.805063
0.844625
0.817749
0.796599
0.817592
0.802728
0.802296
0.800709
0.801745
0.808458
0.816485
0.802107
0.772173
0.819838
0.813851
0.809116
0.817076
0.592938
0.803615
0.813871
0.817079
0.789164
0.750783
0.718024
0.814257
0.816865
0.827069
0.791058
0.60867
0.773018
0.647992
0.818298
0.74502
0.813964
0.830615
0.702383
0.80019
0.834799
0.752595
0.800837
0.803271
0.817132
0.803355
0.701415
0.801117
0.55983
0.802286
0.802719
0.802405
0.6345
0.803055
0.803633
0.803363
0.730556
0.739474
0.803598
0.777886
0.817347
0.724418
0.70919
0.816828
0.801593
0.754408
0.854618
0.815674
0.81402
0.672799
0.803014
0.800909
0.800888
0.802618
0.661305
0.80349
0.81707
0.658148
0.688459
0.806014
0.791697
0.816997
0.823991
0.816646
0.816875
0.81798
0.803846
0.817028
0.816562
0.814332
0.829595
0.803072
0.802154
0.810885
0.731708
0.809819
0.816417
0.863181
0.812002
0.64236
0.776714
0.802465
0.776913
0.818234
0.813384
0.830776
0.814603
0.864987
0.802649
0.816219
0.600225
0.816172
0.83459
0.803017
0.816147
0.629929
0.816844
0.80281
0.818194
0.802411
0.818977
0.817551
0.754556
0.803788
0.803196
0.835875
0.862367
0.819981
0.817723
0.723965
0.745025
0.802693
0.803272
0.8126
0.819472
0.80006
0.803095
0.820806
0.807918
0.807821
0.738977
0.802879
0.818868
0.815284
0.769761
0.760471
0.813154
0.796616
0.857557
0.720951
0.835386
0.812447
0.70929
0.80002
0.816074
0.787556
0.801069
0.799787
0.816747
0.778989
0.77455
0.815108
0.694747
0.799231
0.767402
0.816654
0.818773
0.80235
0.789057
0.740932
0.754438
0.775358
0.81644
0.820339
0.807184
0.675368
0.803406
0.797116
0.778148
0.80978
0.814634
0.799873
0.803837
0.643633
0.804665
0.805275
0.852009
0.803914
0.809617
0.834177
0.805942
0.81163
0.852867
0.621002
0.804253
0.817772
0.805649
0.805258
0.805954
0.804806
0.804919
0.804419
0.806041
0.806945
0.727405
0.805934
0.807622
0.807988
0.816613
0.808727
0.81967
0.803198
0.803703
0.816299
0.816427
0.811579
0.803395
0.816246
0.813725
0.811006
0.817589
0.711782
0.81561
0.832444
0.816691
0.854936
0.751427
0.809498
0.816967
0.801612
0.63782
0.803412
0.773756
0.823181
0.630903
0.817278
0.830518
0.816498
0.813081
0.802374
0.827297
0.820158
0.803943
0.766292
0.818573
0.759202
0.556008
0.816261
0.691193
0.699036
0.820415
0.828698
0.828579
0.818209
0.848269
0.597355
0.876703
0.805491
0.827049
0.825432
0.81454
0.686612
0.816764
0.823942
0.817968
0.801816
0.773894
0.822314
0.573752
0.81437
0.843998
0.803326
0.840506
0.822748
0.803317
0.675216
0.843586
0.821733
0.83738
0.801367
0.815117
0.803133
0.834803
0.803054
0.815088
0.832426
0.830327
0.822103
0.825529
0.831144
0.738817
0.669055
0.578969
0.828526
0.827041
0.768686
0.758457
0.807864
0.825648
0.846888
0.599851
0.8244
0.823342
0.822462
0.820995
0.804204
0.820898
0.667084
0.747134
0.821692
0.798156
0.870161
0.890289
0.777393
0.805388
0.672472
0.83576
0.734687
0.724035
0.819294
0.801936
0.784192
0.671818
0.802374
0.816888
0.789447
0.717612
0.801976
0.81734
0.798306
0.686983
0.824292
0.793169
0.817426
0.834267
0.815369
0.797238
0.817806
0.817598
0.786271
0.804343
0.716332
0.840793
0.793516
0.812562
0.782736
0.804743
0.703744
0.801138
0.81374
0.812386
0.811249
0.809751
0.808657
0.807914
0.806292
0.805181
0.807094
0.730015
0.805733
0.801686
0.796278
0.803526
0.844575
0.720114
0.803347
0.776686
0.884129
0.854498
0.798318
0.727654
0.803889
0.797819
0.722828
0.803541
0.80222
0.737716
0.803917
0.791572
0.798063
0.801583
0.739083
0.781507
0.805842
0.750073
0.765105
0.771481
0.801908
0.816353
0.808876
0.761028
0.752335
0.799794
0.815537
0.803462
0.794113
0.801395
0.928328
0.860965
0.819078
0.816912
0.72304
0.845093
0.749317
0.826453
0.8174
0.898181
0.817035
0.797886
0.594573
0.817025
0.798005
0.817023
0.798429
0.846139
0.538517
0.833814
0.801768
0.806085
0.805001
0.804281
0.856039
0.80162
0.818882
0.703884
0.658035
0.669464
0.817033
0.518261
0.79837
0.725062
0.842416
0.815017
0.564969
0.803142
0.816381
0.816085
0.721124
0.80222
0.532224
0.797985
0.817103
0.798111
0.802964
0.798355
0.817217
0.834632
0.803306
0.799074
0.817532
0.799343
0.817657
0.814651
0.799635
0.817803
0.815464
0.817978
0.799754
0.818176
0.682189
0.799953
0.818402
0.803189
0.800145
0.81863
0.702225
0.816962
0.798851
0.817054
0.798719
0.811543
0.838663
0.861869
0.801289
0.801227
0.8195
0.815798
0.800871
0.800496
0.863542
0.813276
0.819195
0.811995
0.850514
0.82967
0.818163
0.826166
0.847032
0.816924
0.802355
0.820667
0.812585
0.802785
0.816733
0.800699
0.808521