# vtk DataFile Version 1.0
unstructured grid
ascii
DATASET UNSTRUCTURED_GRID
points 3920 float
-1 0 0
-1 1 0
2 0 0
2 1 0
0 0 0
1 0 0
-1 1 0.1
-1 0 0.1
0 0 0.1
1 0 0.1
2 0 0.1
2 1 0.1
-0.98 0 0
-0.96 0 0
-0.94 0 0
-0.92 0 0
-0.9 0 0
-0.88 0 0
-0.86 0 0
-0.84 0 0
-0.82 0 0
-0.8 0 0
-0.78 0 0
-0.76 0 0
-0.74 0 0
-0.72 0 0
-0.7 0 0
-0.68 0 0
-0.66 0 0
-0.64 0 0
-0.62 0 0
-0.6 0 0
-0.58 0 0
-0.56 0 0
-0.54 0 0
-0.52 0 0
-0.5 0 0
-0.48 0 0
-0.46 0 0
-0.44 0 0
-0.42 0 0
-0.4 0 0
-0.38 0 0
-0.36 0 0
-0.34 0 0
-0.32 0 0
-0.3 0 0
-0.28 0 0
-0.26 0 0
-0.24 0 0
-0.22 0 0
-0.2 0 0
-0.18 0 0
-0.16 0 0
-0.14 0 0
-0.12 0 0
-0.1 0 0
-0.08 0 0
-0.06 0 0
-0.04 0 0
-0.02 0 0
1.02 0 0
1.04 0 0
1.06 0 0
1.08 0 0
1.1 0 0
1.12 0 0
1.14 0 0
1.16 0 0
1.18 0 0
1.2 0 0
1.22 0 0
1.24 0 0
1.26 0 0
1.28 0 0
1.3 0 0
1.32 0 0
1.34 0 0
1.36 0 0
1.38 0 0
1.4 0 0
1.42 0 0
1.44 0 0
1.46 0 0
1.48 0 0
1.5 0 0
1.52 0 0
1.54 0 0
1.56 0 0
1.58 0 0
1.6 0 0
1.62 0 0
1.64 0 0
1.66 0 0
1.68 0 0
1.7 0 0
1.72 0 0
1.74 0 0
1.76 0 0
1.78 0 0
1.8 0 0
1.82 0 0
1.84 0 0
1.86 0 0
1.88 0 0
1.9 0 0
1.92 0 0
1.94 0 0
1.96 0 0
1.98 0 0
2 0.0199133 0
2 0.0414128 0
2 0.0646247 0
2 0.0896856 0
2 0.116743 0
2 0.145955 0
2 0.177494 0
2 0.211545 0
2 0.248309 0
2 0.288001 0
2 0.330854 0
2 0.377121 0
2 0.427073 0
2 0.481004 0
2 0.539231 0
2 0.602096 0
2 0.669968 0
2 0.743247 0
2 0.822362 0
2 0.907779 0
1.9 1 0
1.8 1 0
1.7 1 0
1.6 1 0
1.5 1 0
1.4 1 0
1.3 1 0
1.2 1 0
1.1 1 0
1 1 0
0.9 1 0
0.8 1 0
0.7 1 0
0.6 1 0
0.5 1 0
0.4 1 0
0.3 1 0
0.2 1 0
0.1 1 0
3.69793e-12 1 0
-0.1 1 0
-0.2 1 0
-0.3 1 0
-0.4 1 0
-0.5 1 0
-0.6 1 0
-0.7 1 0
-0.8 1 0
-0.9 1 0
-1 0.907779 0
-1 0.822362 0
-1 0.743247 0
-1 0.669968 0
-1 0.602096 0
-1 0.539231 0
-1 0.481004 0
-1 0.427073 0
-1 0.377121 0
-1 0.330854 0
-1 0.288001 0
-1 0.248309 0
-1 0.211545 0
-1 0.177494 0
-1 0.145955 0
-1 0.116743 0
-1 0.0896856 0
-1 0.0646247 0
-1 0.0414128 0
-1 0.0199133 0
0.0182781 0.00745351 0
0.0366672 0.0146286 0
0.0551632 0.0215237 0
0.0737617 0.0281372 0
0.0924585 0.0344675 0
0.111249 0.0405131 0
0.13013 0.0462728 0
0.149095 0.0517451 0
0.168142 0.0569289 0
0.187265 0.0618228 0
0.20646 0.0664258 0
0.225723 0.0707368 0
0.245049 0.0747549 0
0.264434 0.078479 0
0.283873 0.0819084 0
0.303362 0.0850422 0
0.322896 0.0878798 0
0.342472 0.0904204 0
0.362083 0.0926635 0
0.381726 0.0946086 0
0.401397 0.0962552 0
0.42109 0.0976029 0
0.440802 0.0986514 0
0.460527 0.0994006 0
0.480261 0.0998501 0
0.5 0.1 0
0.519739 0.0998501 0
0.539473 0.0994006 0
0.559198 0.0986514 0
0.57891 0.0976029 0
0.598603 0.0962552 0
0.618274 0.0946086 0
0.637917 0.0926635 0
0.657528 0.0904204 0
0.677104 0.0878798 0
0.696638 0.0850422 0
0.716127 0.0819084 0
0.735566 0.078479 0
0.754951 0.0747549 0
0.774277 0.0707368 0
0.79354 0.0664258 0
0.812735 0.0618228 0
0.831858 0.0569289 0
0.850905 0.0517451 0
0.86987 0.0462728 0
0.888751 0.0405131 0
0.907542 0.0344675 0
0.926238 0.0281372 0
0.944837 0.0215237 0
0.963333 0.0146286 0
0.981722 0.00745351 0
-1 0.907779 0.1
-1 0.822362 0.1
-1 0.743247 0.1
-1 0.669968 0.1
-1 0.602096 0.1
-1 0.539231 0.1
-1 0.481004 0.1
-1 0.427073 0.1
-1 0.377121 0.1
-1 0.330854 0.1
-1 0.288001 0.1
-1 0.248309 0.1
-1 0.211545 0.1
-1 0.177494 0.1
-1 0.145955 0.1
-1 0.116743 0.1
-1 0.0896856 0.1
-1 0.0646247 0.1
-1 0.0414128 0.1
-1 0.0199133 0.1
-0.98 0 0.1
-0.96 0 0.1
-0.94 0 0.1
-0.92 0 0.1
-0.9 0 0.1
-0.88 0 0.1
-0.86 0 0.1
-0.84 0 0.1
-0.82 0 0.1
-0.8 0 0.1
-0.78 0 0.1
-0.76 0 0.1
-0.74 0 0.1
-0.72 0 0.1
-0.7 0 0.1
-0.68 0 0.1
-0.66 0 0.1
-0.64 0 0.1
-0.62 0 0.1
-0.6 0 0.1
-0.58 0 0.1
-0.56 0 0.1
-0.54 0 0.1
-0.52 0 0.1
-0.5 0 0.1
-0.48 0 0.1
-0.46 0 0.1
-0.44 0 0.1
-0.42 0 0.1
-0.4 0 0.1
-0.38 0 0.1
-0.36 0 0.1
-0.34 0 0.1
-0.32 0 0.1
-0.3 0 0.1
-0.28 0 0.1
-0.26 0 0.1
-0.24 0 0.1
-0.22 0 0.1
-0.2 0 0.1
-0.18 0 0.1
-0.16 0 0.1
-0.14 0 0.1
-0.12 0 0.1
-0.1 0 0.1
-0.08 0 0.1
-0.06 0 0.1
-0.04 0 0.1
-0.02 0 0.1
0.0182781 0.00745351 0.1
0.0366672 0.0146286 0.1
0.0551632 0.0215237 0.1
0.0737617 0.0281372 0.1
0.0924585 0.0344675 0.1
0.111249 0.0405131 0.1
0.13013 0.0462728 0.1
0.149095 0.0517451 0.1
0.168142 0.0569289 0.1
0.187265 0.0618228 0.1
0.20646 0.0664258 0.1
0.225723 0.0707368 0.1
0.245049 0.0747549 0.1
0.264434 0.078479 0.1
0.283873 0.0819084 0.1
0.303362 0.0850422 0.1
0.322896 0.0878798 0.1
0.342472 0.0904204 0.1
0.362083 0.0926635 0.1
0.381726 0.0946086 0.1
0.401397 0.0962552 0.1
0.42109 0.0976029 0.1
0.440802 0.0986514 0.1
0.460527 0.0994006 0.1
0.480261 0.0998501 0.1
0.5 0.1 0.1
0.519739 0.0998501 0.1
0.539473 0.0994006 0.1
0.559198 0.0986514 0.1
0.57891 0.0976029 0.1
0.598603 0.0962552 0.1
0.618274 0.0946086 0.1
0.637917 0.0926635 0.1
0.657528 0.0904204 0.1
0.677104 0.0878798 0.1
0.696638 0.0850422 0.1
0.716127 0.0819084 0.1
0.735566 0.078479 0.1
0.754951 0.0747549 0.1
0.774277 0.0707368 0.1
0.79354 0.0664258 0.1
0.812735 0.0618228 0.1
0.831858 0.0569289 0.1
0.850905 0.0517451 0.1
0.86987 0.0462728 0.1
0.888751 0.0405131 0.1
0.907542 0.0344675 0.1
0.926238 0.0281372 0.1
0.944837 0.0215237 0.1
0.963333 0.0146286 0.1
0.981722 0.00745351 0.1
1.02 0 0.1
1.04 0 0.1
1.06 0 0.1
1.08 0 0.1
1.1 0 0.1
1.12 0 0.1
1.14 0 0.1
1.16 0 0.1
1.18 0 0.1
1.2 0 0.1
1.22 0 0.1
1.24 0 0.1
1.26 0 0.1
1.28 0 0.1
1.3 0 0.1
1.32 0 0.1
1.34 0 0.1
1.36 0 0.1
1.38 0 0.1
1.4 0 0.1
1.42 0 0.1
1.44 0 0.1
1.46 0 0.1
1.48 0 0.1
1.5 0 0.1
1.52 0 0.1
1.54 0 0.1
1.56 0 0.1
1.58 0 0.1
1.6 0 0.1
1.62 0 0.1
1.64 0 0.1
1.66 0 0.1
1.68 0 0.1
1.7 0 0.1
1.72 0 0.1
1.74 0 0.1
1.76 0 0.1
1.78 0 0.1
1.8 0 0.1
1.82 0 0.1
1.84 0 0.1
1.86 0 0.1
1.88 0 0.1
1.9 0 0.1
1.92 0 0.1
1.94 0 0.1
1.96 0 0.1
1.98 0 0.1
2 0.0199133 0.1
2 0.0414128 0.1
2 0.0646247 0.1
2 0.0896856 0.1
2 0.116743 0.1
2 0.145955 0.1
2 0.177494 0.1
2 0.211545 0.1
2 0.248309 0.1
2 0.288001 0.1
2 0.330854 0.1
2 0.377121 0.1
2 0.427073 0.1
2 0.481004 0.1
2 0.539231 0.1
2 0.602096 0.1
2 0.669968 0.1
2 0.743247 0.1
2 0.822362 0.1
2 0.907779 0.1
1.9 1 0.1
1.8 1 0.1
1.7 1 0.1
1.6 1 0.1
1.5 1 0.1
1.4 1 0.1
1.3 1 0.1
1.2 1 0.1
1.1 1 0.1
1 1 0.1
0.9 1 0.1
0.8 1 0.1
0.7 1 0.1
0.6 1 0.1
0.5 1 0.1
0.4 1 0.1
0.3 1 0.1
0.2 1 0.1
0.1 1 0.1
3.69793e-12 1 0.1
-0.1 1 0.1
-0.2 1 0.1
-0.3 1 0.1
-0.4 1 0.1
-0.5 1 0.1
-0.6 1 0.1
-0.7 1 0.1
-0.8 1 0.1
-0.9 1 0.1
1.08758 0.0158154 0
-0.0898513 0.0203294 0
0.0966181 0.0537636 0
0.90205 0.0548881 0
1.21055 0.0202058 0
-0.209811 0.0159577 0
1.3305 0.0176902 0
-0.33 0.0173205 0
1.45324 0.0148141 0
-0.448654 0.0159854 0
1.56842 0.0191785 0
-0.569936 0.0166364 0
0.193292 0.0805369 0
0.805051 0.0813623 0
0.709096 0.100353 0
0.288591 0.0996656 0
0.390184 0.111848 0
0.61033 0.111742 0
0.488809 0.116278 0
1.67175 0.0169692 0
-0.67 0.0169809 0
-0.955017 0.454039 0
1.95131 0.44569 0
1.74981 0.0168753 0
-0.75 0.0173205 0
-0.968032 0.266538 0
1.96871 0.266267 0
0.978232 0.0305687 0
0.0208675 0.026451 0
-0.150454 0.91842 0
1.13854 0.907437 0
1.45012 0.904365 0
-0.445923 0.908903 0
-0.853423 0.0157019 0
1.84881 0.016319 0
0.853689 0.915652 0
0.153944 0.912184 0
0.545151 0.914125 0
0.549913 0.115152 0
1.51 0.0173205 0
-0.506989 0.01651 0
1.27 0.0173205 0
1.14976 0.0173333 0
-0.268171 0.0206442 0
-0.150501 0.0153244 0
-0.391384 0.0153993 0
1.38886 0.0171544 0
-0.973694 0.161724 0
1.97441 0.162392 0
-0.945221 0.633523 0
1.94544 0.63312 0
1.91008 0.0186068 0
-0.91 0.0169616 0
-0.030664 0.0194327 0
1.03074 0.0165456 0
-0.966065 0.353575 0
1.96128 0.359765 0
1.93879 0.781254 0
-0.937057 0.781882 0
-0.980746 0.080709 0
1.9772 0.0760699 0
0.058735 0.0409372 0
0.355202 0.913001 0
0.86356 0.0661005 0
0.134223 0.0651111 0
0.941972 0.0397386 0
-0.653034 0.915003 0
1.65328 0.904589 0
0.770126 0.0881325 0
0.232946 0.0902008 0
0.330582 0.105648 0
0.670612 0.108365 0
0.428707 0.116145 0
1.80993 0.016629 0
-0.810168 0.0172178 0
-0.71 0.0173205 0
1.63047 0.0175504 0
1.70842 0.0169661 0
-0.628824 0.0181787 0
-0.949815 0.0133898 0
1.95 0.0173205 0
1.85542 0.907891 0
-0.85 0.913397 0
1.9833 0.0307692 0
-0.983315 0.0309709 0
-0.750025 0.916468 0
-0.701107 0.836904 0
-0.607741 0.836428 0
-0.656448 0.759827 0
-0.572936 0.758144 0
-0.61411 0.691195 0
-0.539534 0.689068 0
-0.578542 0.626111 0
-0.507461 0.624216 0
-0.544001 0.566638 0
-0.477696 0.564279 0
-0.511582 0.51001 0
-0.451689 0.507147 0
-0.481834 0.457732 0
-0.426137 0.454624 0
-0.453236 0.407539 0
-0.398845 0.406233 0
-0.507958 0.409496 0
-0.368427 0.460177 0
-0.344602 0.405209 0
-0.315696 0.447824 0
-0.294128 0.402169 0
-0.262844 0.444518 0
-0.241968 0.388746 0
-0.209878 0.439557 0
-0.185184 0.391135 0
-0.156687 0.437338 0
-0.133719 0.390776 0
-0.104405 0.434306 0
-0.0818745 0.388334 0
-0.0528785 0.431165 0
-0.0305984 0.385639 0
-0.00180552 0.427863 0
0.0194564 0.382608 0
0.0485809 0.42449 0
0.0701962 0.37973 0
0.0985483 0.421145 0
0.119893 0.377339 0
0.147837 0.417911 0
0.172552 0.36751 0
0.197018 0.412597 0
0.221203 0.37141 0
0.24512 0.409646 0
-0.48178 0.364657 0
-0.531053 0.364782 0
-0.0599102 0.344151 0
-0.324909 0.359566 0
0.266181 0.368462 0
0.292132 0.407649 0
0.311992 0.365779 0
0.338918 0.404821 0
0.357567 0.355909 0
0.384723 0.40053 0
0.404675 0.359681 0
0.430617 0.398558 0
0.450457 0.35827 0
0.474237 0.395182 0
0.496746 0.34898 0
0.520548 0.397931 0
0.542071 0.353121 0
0.566011 0.389914 0
0.585061 0.350856 0
0.609352 0.38696 0
0.629069 0.348168 0
0.655979 0.391217 0
0.67472 0.346182 0
0.699346 0.381414 0
0.719333 0.341965 0
0.743718 0.377547 0
0.764028 0.339036 0
0.788201 0.373582 0
0.807659 0.336101 0
0.832821 0.372249 0
0.852309 0.334017 0
0.877785 0.370339 0
0.897875 0.331141 0
0.922904 0.366281 0
0.943173 0.327335 0
0.968282 0.363358 0
0.989029 0.324222 0
1.01391 0.361511 0
1.03465 0.321428 0
1.05949 0.358447 0
1.08389 0.312052 0
1.10575 0.355104 0
1.12889 0.31562 0
1.15067 0.353235 0
1.17157 0.312819 0
1.19626 0.349369 0
1.21618 0.309863 0
1.2416 0.346914 0
1.26131 0.30715 0
1.28691 0.344312 0
1.30571 0.303752 0
1.33144 0.341222 0
1.35018 0.300911 0
1.3758 0.338308 0
1.39501 0.298931 0
1.42015 0.335235 0
1.43904 0.296349 0
1.46355 0.330194 0
1.48256 0.293347 0
1.50685 0.326967 0
1.52589 0.29055 0
1.54996 0.325305 0
1.56909 0.287929 0
[...]
CELL_DATA 3694
SCALARS rho float
LOOKUP_TABLE default
0.73466
0.669785
0.803672
0.812432
0.826096
0.804937
0.791404
0.799633
0.809455
0.802526
0.81678
0.816773
0.840059
0.789121
0.80045
0.749616
0.803161
0.80277
0.759414
0.849672
0.816777
0.822552
0.695785
0.803251
0.692351
0.838945
0.719709
0.805895
0.836602
0.798279
0.798475
0.718278
0.803328
0.824298
0.80257
0.796864
0.836832
0.82235
0.824374
0.778038
0.804488
0.817117
0.833934
0.824866
0.80492
0.812316
0.800453
0.663799
0.678556
0.719481
0.801921
0.802862
0.846432
0.801881
0.627127
0.83773
0.802387
0.818555
0.832417
0.753546
0.796051
0.814522
0.841705
0.799249
0.84222
0.830407
0.807249
0.812971
0.736462
0.857967
0.803079
0.807416
0.822575
0.803124
0.823988
0.802835
0.813966
0.799336
0.813361
0.802613
0.712569
0.817982
0.802159
0.776638
0.809324
0.799286
0.817898
0.713691
0.736168
0.824676
0.798707
0.802203
0.820085
0.814983
0.674162
0.80634
0.722496
0.817269
0.811774
0.839558
0.814077
0.761762
0.718875
0.80926
0.808763
0.814517
0.817247
0.806839
0.71499
0.81382
0.799074
0.721209
0.721125
0.823086
0.867593
0.802023
0.799264
0.811574
0.803064
0.801925
0.765482
0.822226
0.819231
0.769334
0.704745
0.758015
0.816915
0.776333
0.843208
0.699206
0.766954
0.800154
0.807751
0.777259
0.800563
0.795142
0.805289
0.802266
0.797657
0.814009
0.813242
0.709462
0.816436
0.813059
0.757142
0.666165
0.676357
0.797783
0.815494
0.812913
0.743579
0.802577
0.55344
0.778092
0.683865
0.762687
0.712954
0.783253
0.60537
0.792833
0.837274
0.64381
0.781776
0.736508
0.843753
0.55168
0.817008
0.800078
0.802517
0.672567
0.801462
0.661627
0.857489
0.53382
0.799703
0.631478
0.872119
0.832919
0.820207
0.745008
0.81359
0.721897
0.826504
0.737265
0.647598
0.803021
0.673866
0.822958
0.801551
0.850626
0.791552
0.704773
0.814231
0.798055
0.741409
0.852537
0.811205
0.84852
0.736037
0.742122
0.770592
0.793366
0.831314
0.834007
0.816682
0.813611
0.668109
0.804456
0.726037
0.803111
0.707426
0.796968
0.795474
0.80133
0.825293
0.762986
0.830015
0.74898
0.825234
0.819441
0.815448
0.852791
0.829223
0.701945
0.826652
0.68812
0.787544
0.809565
0.850793
0.829797
0.8078
0.794177
0.744552
0.817142
0.836343
0.816956
0.714158
0.79935
0.693965
0.791781
0.795331
0.809548
0.636316
0.807373
0.757082
0.797657
0.80304
0.758666
0.814673
0.865441
0.784034
0.692621
0.804235
0.801311
0.646205
0.791828
0.77759
0.802279
0.838664
0.81427
0.607123
0.814692
0.809922
0.796406
0.814968
0.80254
0.81518
0.814164
0.83539
0.755669
0.80172
0.834491
0.810131
0.80308
0.795924
0.814441
0.728287
0.586467
0.816403
0.829399
0.819998
0.804052
0.67999
0.814966
0.814694
0.816391
0.712212
0.796862
0.814546
0.537501
0.802743
0.868895
0.676896
0.755619
0.83835
0.826657
0.814279
0.707647
0.809249
0.814541
0.803668
0.801494
0.811938
0.836351
0.817001
0.766864
0.806861
0.802973
0.64564
0.820597
0.827491
0.670658
0.790586
0.818434
0.820667
0.678142
0.685434
0.821019
0.823705
0.809379
0.733526
0.706177
0.712905
0.731756
0.819904
0.776156
0.804013
0.731576
0.742015
0.822125
0.809788
0.818829
0.76942
0.814672
0.813334
0.816913
0.815535
0.802665
0.807376
0.803579
0.692492
0.802636
0.812596
0.693566
0.806848
0.804959
0.819021
0.785582
0.805757
0.791624
0.814426
0.820587
0.819773
0.79793
0.679918
0.709746
0.799259
0.810712
0.621326
0.803738
0.807179
0.817064
0.742622
0.804118
0.815948
0.811095
0.817393
0.80489
0.79714
0.763887
0.804015
0.843228
0.819747
0.707327
0.803468
0.701301
0.704887
0.802921
0.613931
0.770271
0.78456
0.807864
0.812925
0.824942
0.816705
0.812339
0.819784
0.827908
0.802764
0.764037
0.809587
0.658086
0.818842
0.756728
0.727013
0.68628
0.813475
0.853762
0.81887
0.80847
0.821894
0.814854
0.786653
0.757726
0.809164
0.692652
0.791022
0.843289
0.826401
0.800687
0.8638
0.81321
0.816143
0.81713
0.830847
0.62849
0.798284
0.730452
0.797704
0.735013
0.818683
0.808505
0.786894
0.685219
0.814325
0.829817
0.811426
0.802808
0.803661
0.824005
0.803718
0.709968
0.790138
0.803052
0.814278
0.813582
0.812196
0.871434
0.827463
0.809226
0.831778
0.681473
0.823048
0.83732
0.815787
0.62699
0.81483
0.809016
0.845222
0.820988
0.802865
0.591527
0.80993
0.695077
0.805965
0.802836
0.811944
0.813058
0.825029
0.804935
0.811034
0.815622
0.723328
0.862709
0.801838
0.849926
0.816004
0.573042
0.80377
0.796526
0.81116
0.817257
0.647176
0.802762
0.809481
0.812823
0.806964
0.793726
0.815167
0.816914
0.795776
0.803639
0.821078
0.836653
0.729499
0.806132
0.80941
0.812711
0.681907
0.80507
0.815642
0.799066
0.803935
0.519899
0.832622
0.763152
0.814189
0.817337
0.830563
0.846006
0.815733
0.811156
0.715198
0.798742
0.852167
0.808054
0.709531
0.800025
0.802568
0.872023
0.845034
0.818676
0.801943
0.809506
0.755084
0.814983
0.813678
0.584069
0.802518
0.728754
0.749997
0.802958
0.810948
0.780819
0.821091
0.814819
0.837816
0.815596
0.800354
0.808587
0.738608
0.736374
0.804039
0.807687
0.820766
0.802072
0.751565
0.687997
0.813092
0.815009
0.813832
0.593878
0.813212
0.816372
0.824385
0.802929
0.808342
0.819306
0.811681
0.839166
0.802926
0.81251
0.823409
0.815166
0.817477
0.821234
0.68797
0.784005
0.794523
0.803034
0.847371
0.802014
0.802418
0.634605
0.810565
0.813127
0.810593
0.818673
0.805648
0.812657
0.726673
0.843366
0.707677
0.800254
0.816943
0.807097
0.651146
0.683627
0.815129
0.805545
0.804102
0.785046
0.801479
0.828964
0.813137
0.804863
0.802024
0.811896
0.619059
0.811955
0.802907
0.697511
0.815183
0.616263
0.783594
0.815118
0.837566
0.805551
0.812049
0.792076
0.795216
0.803903
0.801381
0.811591
0.810959
0.808601
0.80319
0.757208
0.803989
0.812079
0.811529
0.815917
0.811093
0.815517
0.81448
0.834035
0.73758
0.806527
0.815244
0.802307
0.541449
0.681291
0.811024
0.812817
0.814787
0.780195
0.808108
0.812553
0.803053
0.799813
0.802619
0.819646
0.820473
0.814561
0.784478
0.807814
0.805305
0.542227
0.77364
0.756967
0.806219
0.735221
0.674732
0.797473
0.767299
0.82743
0.814485
0.814257
0.808229
0.539215
0.815362
0.582612
0.69492
0.824347
0.869549
0.740857
0.816203
0.852664
0.694348
0.814995
0.808872
0.81474
0.80718
0.655616
0.854347
0.737261
0.729295
0.803217
0.804495
0.799432
0.833256
0.814758
0.690425
0.81521
0.800218
0.690598
0.839268
0.798021
0.62134
0.772618
0.815284
0.807538
0.814392
0.784295
0.724359
0.769666
0.836812
0.688094
0.815548
0.816998
0.826627
0.764936
0.821732
0.690828
0.80449
0.659998
0.700229
0.800204
0.822522
0.788109
0.814128
0.814975
0.814789
0.813532
0.576211
0.802511
0.814532
0.742959
0.809952
0.815014
0.811369
0.715565
0.69297
0.740921
0.619343
0.807122
0.680948
0.815238
0.801844
0.81457
0.836799
0.686668
0.804194
0.819475
0.83224
0.737187
0.78145
0.764686
0.772733
0.811996
0.562139
0.671347
0.814877
0.805236
0.811975
0.804475
0.712139
0.779981
0.723778
0.760519
0.799514
0.831649
0.812111
0.690781
0.823078
0.817563
0.81053
0.684727
0.693501
0.680865
0.871968
0.815484
0.816273
0.60818
0.710913
0.640681
0.803339
0.800293
0.671205
0.811816
0.824239
0.748571
0.799371
0.729172
0.813742
0.69195
0.814302
0.810353
0.801173
0.803063
0.825316
0.74389
0.815341
0.814545
0.780155
0.551239
0.816107
0.81055
0.757503
0.813414
0.747467
0.802819
0.826178
0.656894
0.817781
0.802681
0.809856
0.582377
0.625823
0.734775
0.806288
0.811715
0.810439
0.82074
0.814584
0.815584
0.703981
0.801883
0.812783
0.825954
0.703021
0.725462
0.811832
0.811581
0.695627
0.8142
0.774141
0.702321
0.811784
0.695459
0.803924
0.661847
0.802865
0.730228
0.666039
0.810801
0.786017
0.743765
0.630478
0.839888
0.820937
0.814562
0.770042
0.813742
0.800027
0.785828
0.799844
0.801618
0.814815
0.731009
0.809599
0.799957
0.818428
0.597516
0.801293
0.812581
0.813546
0.811229
0.811792
0.745809
0.802714
0.763852
0.750328
0.818273
0.645462
0.818212
0.817331
0.803061
0.815236
0.816468
0.719817
0.768407
0.821795
0.785034
0.803677
0.815671
0.87493
0.817688
0.797966
0.816443
0.814913
0.793877
0.818138
0.816576
0.773011
0.697135
0.840979
0.796895
0.803153
0.822462
0.780846
0.817496
0.824666
0.818314
0.816517
0.870378
0.803081
0.8048
0.817914
0.803077
0.815026
0.806862
0.73519
0.814951
0.819374
0.753824
0.70749
0.814837
0.843031
0.822219
0.651608
0.821441
0.773452
0.807976
0.80185
0.729226
0.803107
0.798603
0.815372
0.816577
0.692575
0.70375
0.802151
0.787453
0.801497
0.824613
0.722161
0.81454
0.80236
0.80009
0.823179
0.815015
0.71221
0.815275
0.762858
0.802381
0.832434
0.803304
0.773034
0.797793
0.794544
0.814661
0.57814
0.814498
0.695403
0.676608
0.803409
0.8192
0.814552
0.802508
0.814687
0.808156
0.723448
0.787498
0.856953
0.803003
0.8333
0.807325
0.540954
0.762168
0.779473
0.646653
0.737124
0.5774
0.819889
0.812802
0.813673
0.802394
0.766624
0.684058
0.76401
0.752153
0.781883
0.814468
0.844719
0.819038
0.805742
0.819158
0.823516
0.802585
0.807447
0.70398
0.803081
0.755953
0.808581
0.797763
0.751126
0.822087
0.788289
0.803488
0.789461
0.840703
0.727443
0.800825
0.799363
0.804811
0.616759
0.815055
0.814933
0.821586
0.629925
0.814811
0.814816
0.798444
0.803786
0.793101
0.774899
0.8061
0.794281
0.815553
0.753095
0.803501
0.875143
0.76237
0.747464
0.806692
0.783862
0.842364
0.799595
0.779179
0.815118
0.798106
0.792415
0.807964
0.825259
0.835471
0.799649
0.572686
0.820101
0.82796
0.771949
0.830462
0.837985
0.822543
0.825977
0.807172
0.832666
0.826528
0.783596
0.808797
0.810948
0.805992
0.822366
0.80332
0.827198
0.792783
0.803033
0.805619
0.725939
0.806984
0.559905
0.817587
0.824993
0.828314
0.805619
0.817934
0.823574
0.819254
0.820456
0.838534
0.832824
0.787555
0.80028
0.821355
0.814975
0.816555
0.80014
0.806284
0.865391
0.819673
0.84714
0.814682
0.800545
0.824448
0.799617
0.83325
0.813036
0.814983
0.805184
0.725453
0.802834
0.804431
0.814621
0.803247
0.801797
0.821922
0.804418
0.804084
0.777718
0.819568
0.716775
0.813934
0.779888
0.758491
0.803477
0.813131
0.818807
0.714287
0.818947
0.815046
0.826378
0.816694
0.789397
0.815869
0.847077
0.832845
0.814611
0.811575
0.801483
0.743128
0.676286
0.814628
0.82034
0.770439
0.813984
0.807617
0.81137
0.805281
0.798373
0.775932
0.802327
0.799925
0.841206
0.816985
0.811224
0.806114
0.602195
0.730324
0.802057
0.782973
0.803957
0.815284
0.805765
0.81564
0.779583
0.814698
0.804649
0.810245
0.803579
0.817444
0.803134
0.815423
0.810459
0.815414
0.812404
0.716489
0.814067
0.815231
0.595953
0.814458
0.796604
0.802644
0.858568
0.817951
0.810264
0.872324
0.814851
0.814932
0.816413
0.818431
0.814856
0.763937
0.830114
0.801168
0.803043
0.814138
0.814797
0.816292
0.81465
0.813017
0.822628
0.803837
0.812088
0.808888
0.814943
0.81979
0.81467
0.81136
0.818871
0.808754
0.696453
0.658267
0.802502
0.808353
0.803202
0.810857
0.81797
0.8167
0.802766
0.803627
0.800408
0.800677
0.816479
0.844142
0.818128
0.811279
0.818075
0.817747
0.84578
0.817063
0.820836
0.785408
0.815384
0.806632
0.801058
0.791822
0.81037
0.818085
0.814499
0.814716
0.83579
0.80571
0.8122
0.816196
0.821331
0.803369
0.803054
0.805358
0.810426
0.814615
0.801415
0.80265
0.816463
0.822304
0.800633
0.59063
0.804109
0.796545
0.817
0.798424
0.802627
0.7478
0.84055
0.802585
0.799577
0.834485
0.829393
0.810038
0.825851
0.800297
0.817423
0.817024
0.818277
0.803462
0.817858
0.7271
0.821915
0.81133
0.79992
0.812837
0.820108
0.798943
0.803839
0.781919
0.814963
0.814899
0.815008
0.818067
0.806252
0.81661
0.815301
0.825688
0.821781
0.837363
0.805743
0.694563
0.817501
0.840359
0.819339
0.804417
0.799871
0.803168
0.815833
0.813912
0.815508
0.743401
0.737282
0.800555
0.802804
0.81518
0.816119
0.798294
0.651567
0.707688
0.807842
0.768874
0.815349
0.702384
0.80297
0.727507
0.803121
0.819713
0.803055
0.816843
0.812275
0.798416
0.808385
0.79305
0.829628
0.815039
0.801013
0.803315
0.81538
0.821236
0.748768
0.822297
0.803571
0.782977
0.814912
0.803669
0.810239
0.814074
0.814488
0.834991
0.792292
0.798791
0.814787
0.758473
0.806404
0.814215
0.800836
0.81545
0.840977
0.802061
0.842958
0.80831
0.789981
0.811268
0.802553
0.851701
0.78822
0.803054
0.815489
0.831255
0.808179
0.813157
0.815186
0.802681
0.802582
0.825732
0.782285
0.813717
0.814769
0.642293
0.814974
0.712018
0.817408
0.83794
0.82408
0.803724
0.813972
0.814625
0.725028
0.814162
0.800589
0.801419
0.80066
0.815199
0.863641
0.801049
0.800773
0.785141
0.840333
0.827744
0.81911
0.812688
0.746221
0.803053
0.80327
0.730152
0.799186
0.7137
0.809907
0.800808
0.675546
0.880104
0.701751
0.771936
0.801025
0.742612
0.80817
0.798698
0.802964
0.659438
0.796561
0.78383
0.798744
0.727783
0.818194
0.821987
0.884437
0.809246
0.831008
0.644158
0.799717
0.786442
0.743591
0.750718
0.768409
0.704988
0.802977
0.799071
0.803051
0.763194
0.626089
0.811214
0.6117
0.820667
0.822466
0.811285
0.7363
0.811645
0.794924
0.818625
0.782475
0.806654
0.796958
0.809418
0.716027
0.801279
0.721691
0.801125
0.798541
0.684816
0.803428
0.814525
0.814587
0.802996
0.760703
0.814351
0.73208
0.689977
0.80216
0.814585
0.874271
0.814484
0.813857
0.880453
0.865279
0.83058
0.717829
0.801803
0.811678
0.821036
0.797516
0.679836
0.722063
0.674746
0.802281
0.704526
0.768053
0.799184
0.614816
0.688646
0.835801
0.77309
0.744757
0.830091
0.758659
0.769015
0.629688
0.730756
0.784646
0.819223
0.869353
0.837501
0.814926
0.794163
0.79945
0.715124
0.814778
0.69334
0.796808
0.814565
0.783292
0.762044
0.801223
0.782339
0.802063
0.800546
0.811092
0.810855
0.866974
0.567918
0.537088
0.802244
0.806545
0.697506
0.809747
0.802679
0.83722
0.803359
0.802261
0.56605
0.553499
0.808174
0.811751
0.814691
0.725555
0.803065
0.810058
0.683626
0.810762
0.802584
0.813178
0.803098
0.800129
0.802133
0.813632
0.802852
0.816784
0.803104
0.861883
0.813995
0.802401
0.721078
0.669162
0.814728
0.584118
0.812248
0.809811
0.835553
0.813248
0.802918
0.810527
0.812667
0.812462
0.814316
0.80148
0.853619
0.856249
0.802092
0.654199
0.807911
0.822165
0.79929
0.803073
0.819512
0.733246
0.803173
0.824806
0.820858
0.815043
0.814563
0.766216
0.745302
0.800603
0.833648
0.802629
0.813807
0.804293
0.803497
0.804827
0.813305
0.808635
0.798508
0.80669
0.80582
0.824336
0.806504
0.806105
0.81692
0.80665
0.803307
0.812391
0.802879
0.80274
0.805637
0.807624
0.812533
0.7733
0.805165
0.802608
0.814484
0.799534
0.803613
0.806674
0.831452
0.804872
0.64884
0.800624
0.814737
0.804507
0.814553
0.762655
0.814503
0.750161
0.80354
0.802081
0.803917
0.818703
0.850771
0.804217
0.803186
0.746839
0.829169
0.814468
0.819826
0.8247
0.814224
0.735975
0.817477
0.721273
0.800903
0.827139
0.802271
0.6988
0.825362
0.814218
0.815679
0.823608
0.814884
0.773004
0.816502
0.64706
0.709491
0.814565
0.822079
0.674402
0.818685
0.658001
0.820877
0.806588
0.815993
0.803099
0.805378
0.814349
0.831374
0.824886
0.670532
0.812525
0.84171
0.781219
0.845993
0.800139
0.704818
0.83816
0.818913
0.835178
0.687023
0.682086
0.832487
0.655599
0.83018
0.814578
0.828139
0.806118
0.826412
0.78748
0.824898
0.823497
0.706625
0.865452
0.822295
0.821279
0.823407
0.758773
0.80273
0.522358
0.802709
0.820394
0.813027
0.804573
0.825458
0.814524
0.797845
0.819616
0.802902
0.678787
0.792226
0.833953
0.813896
0.715078
0.798833
0.821368
0.57471
0.814258
0.815093
0.802463
0.809751
0.725476
0.817479
0.802944
0.803374
0.795807
0.793552
0.797741
0.794516
0.803223
0.811883
0.819135
0.813603
0.571563
0.892865
0.705162
0.79773
0.739035
0.79127
0.814498
0.815207
0.815089
0.603626
0.818545
0.817033
0.803767
0.817543
0.836368
0.839258
0.782686
0.798309
0.799346
0.724404
0.752229
0.814755
0.763645
0.814996
0.8186
0.814318
0.813325
0.801861
0.774918
0.811888
0.815629
0.728015
0.81043
0.815407
0.81765
0.807644
0.809309
0.764281
0.814098
0.808031
0.803081
0.807278
0.615693
0.806341
0.804189
0.805766
0.820892
0.845319
0.804557
0.773831
0.80513
0.771359
0.819841
0.805416
0.812247
0.814508
0.849931
0.803297
0.744108
0.819604
0.814753
0.72668
0.800748
0.815771
0.758235
0.81212
0.568292
0.806416
0.685231
0.801047
0.810796
0.812009
0.816767
0.804073
0.815341
0.817284
0.800897
0.804174
0.844142
0.815688
0.796062
0.815758
0.801797
0.801365
0.800159
0.801119
0.806729
0.814124
0.801481
0.769558
0.817984
0.812611
0.808714
0.814519
0.585814
0.803189
0.813511
0.814802
0.787124
0.747847
0.71884
0.811982
0.814357
0.825564
0.788983
0.602145
0.771196
0.639195
0.816277
0.744974
0.8117
0.829968
0.694189
0.79956
0.833526
0.748961
0.800474
0.803077
0.815089
0.80199
0.698404
0.80058
0.547407
0.801643
0.802342
0.802099
0.567922
0.802844
0.803328
0.803078
0.728156
0.737049
0.803325
0.776107
0.815153
0.721741
0.706254
0.814547
0.801209
0.752228
0.853914
0.81334
0.811761
0.668779
0.802681
0.800448
0.800348
0.802379
0.655937
0.80314
0.814809
0.653773
0.684902
0.805645
0.790117
0.81464
0.822868
0.814533
0.814736
0.815976
0.803549
0.814713
0.814472
0.813084
0.829019
0.802347
0.801697
0.81019
0.726238
0.809424
0.814327
0.862576
0.810645
0.637302
0.774234
0.802089
0.775928
0.81623
0.811348
0.829722
0.813875
0.864379
0.801802
0.8141
0.592834
0.815419
0.833553
0.802837
0.813762
0.624158
0.81493
0.802633
0.816188
0.802139
0.817064
0.815478
0.754499
0.803452
0.803073
0.834813
0.861685
0.819432
0.815613
0.725023
0.740974
0.802422
0.802931
0.811836
0.817616
0.799434
0.802763
0.819063
0.806109
0.807394
0.739261
0.802626
0.817064
0.813506
0.767977
0.760315
0.811296
0.796258
0.856768
0.718314
0.83427
0.810548
0.711536
0.799544
0.813955
0.787296
0.800595
0.799556
0.814561
0.776972
0.774305
0.812883
0.696548
0.798544
0.76515
0.81442
0.816805
0.80189
0.787227
0.73802
0.751889
0.773643
0.81413
0.818503
0.80536
0.657569
0.801781
0.795414
0.777637
0.809561
0.81245
0.799397
0.803017
0.632773
0.803862
0.804486
0.851046
0.803598
0.808899
0.832996
0.805161
0.809672
0.851976
0.611839
0.803928
0.815675
0.805274
0.804888
0.805573
0.804461
0.804557
0.80408
0.805655
0.806184
0.72407
0.805544
0.806867
0.806402
0.814649
0.807995
0.81814
0.803042
0.803411
0.814232
0.814411
0.809566
0.8033
0.816045
0.812979
0.809424
0.815564
0.707772
0.813435
0.83119
0.814434
0.854031
0.749338
0.807656
0.814497
0.800673
0.600241
0.803171
0.772013
0.821479
0.626636
0.815093
0.829192
0.814169
0.811482
0.801984
0.826828
0.818862
0.803473
0.764422
0.816622
0.758263
0.546139
0.813827
0.695199
0.694382
0.820212
0.827302
0.827106
0.816218
0.847277
0.57071
0.876518
0.805093
0.825589
0.823907
0.812511
0.681085
0.814363
0.822356
0.815925
0.800876
0.773516
0.822087
0.564699
0.812741
0.842909
0.803033
0.839334
0.821108
0.803226
0.668388
0.843066
0.820042
0.836132
0.800748
0.813444
0.802997
0.833484
0.802724
0.813363
0.831045
0.828887
0.82185
0.823918
0.830607
0.738831
0.660478
0.563104
0.827029
0.825493
0.767005
0.756104
0.805981
0.824053
0.846596
0.590168
0.822761
0.82166
0.820741
0.819197
0.803788
0.820615
0.656963
0.74376
0.819931
0.797259
0.869784
0.889967
0.776149
0.803548
0.668997
0.835303
0.729842
0.717866
0.818966
0.801488
0.783228
0.659847
0.80208
0.814586
0.788674
0.710913
0.800117
0.816992
0.797816
0.675554
0.823212
0.792624
0.815277
0.832968
0.814993
0.795323
0.815728
0.815485
0.785641
0.803869
0.709907
0.840405
0.792887
0.810697
0.781697
0.804262
0.695364
0.800702
0.813329
0.811967
0.810804
0.809279
0.808187
0.807433
0.805806
0.804698
0.806615
0.724408
0.805248
0.801334
0.79575
0.803195
0.844229
0.714432
0.80312
0.775884
0.883811
0.854092
0.797862
0.722818
0.803176
0.79753
0.718474
0.803206
0.801567
0.733653
0.803521
0.789559
0.797167
0.80096
0.736977
0.779301
0.804119
0.746731
0.764086
0.768984
0.801282
0.814215
0.808455
0.758164
0.750934
0.799396
0.813225
0.803227
0.792638
0.800996
0.928544
0.860362
0.817338
0.814386
0.723486
0.844091
0.747206
0.825852
0.816237
0.898005
0.814559
0.797019
0.587762
0.81459
0.797133
0.814625
0.797553
0.845335
0.519696
0.832533
0.80144
0.805463
0.8047
0.803634
0.855594
0.80116
0.816969
0.701118
0.662194
0.666157
0.81467
0.501636
0.797551
0.721269
0.84158
0.814512
0.557002
0.801766
0.814073
0.81374
0.718568
0.801573
0.523629
0.797053
0.814808
0.797172
0.802614
0.797412
0.814981
0.83368
0.803214
0.798118
0.81538
0.798382
0.815533
0.813809
0.798664
0.815707
0.813291
0.815909
0.798771
0.816135
0.679028
0.798964
0.816389
0.802995
0.799153
0.816644
0.697158
0.814581
0.798109
0.814527
0.798161
0.809611
0.838072
0.861087
0.800829
0.800236
0.817593
0.815182
0.79988
0.799505
0.86325
0.811937
0.817261
0.810063
0.849676
0.828196
0.816232
0.825447
0.845962
0.814519
0.801362
0.81884
0.811347
0.801787
0.81441
0.799866
0.807238
0.78289
0.806575