# vtk DataFile Version 1.0
unstructured grid
ascii
DATASET UNSTRUCTURED_GRID
points 3920 float
-1 0 0
-1 1 0
2 0 0
2 1 0
0 0 0
1 0 0
-1 1 0.1
-1 0 0.1
0 0 0.1
1 0 0.1
2 0 0.1
2 1 0.1
-0.98 0 0
-0.96 0 0
-0.94 0 0
-0.92 0 0
-0.9 0 0
-0.88 0 0
-0.86 0 0
-0.84 0 0
-0.82 0 0
-0.8 0 0
-0.78 0 0
-0.76 0 0
-0.74 0 0
-0.72 0 0
-0.7 0 0
-0.68 0 0
-0.66 0 0
-0.64 0 0
-0.62 0 0
-0.6 0 0
-0.58 0 0
-0.56 0 0
-0.54 0 0
-0.52 0 0
-0.5 0 0
-0.48 0 0
-0.46 0 0
-0.44 0 0
-0.42 0 0
-0.4 0 0
-0.38 0 0
-0.36 0 0
-0.34 0 0
-0.32 0 0
-0.3 0 0
-0.28 0 0
-0.26 0 0
-0.24 0 0
-0.22 0 0
-0.2 0 0
-0.18 0 0
-0.16 0 0
-0.14 0 0
-0.12 0 0
-0.1 0 0
-0.08 0 0
-0.06 0 0
-0.04 0 0
-0.02 0 0
1.02 0 0
1.04 0 0
1.06 0 0
1.08 0 0
1.1 0 0
1.12 0 0
1.14 0 0
1.16 0 0
1.18 0 0
1.2 0 0
1.22 0 0
1.24 0 0
1.26 0 0
1.28 0 0
1.3 0 0
1.32 0 0
1.34 0 0
1.36 0 0
1.38 0 0
1.4 0 0
1.42 0 0
1.44 0 0
1.46 0 0
1.48 0 0
1.5 0 0
1.52 0 0
1.54 0 0
1.56 0 0
1.58 0 0
1.6 0 0
1.62 0 0
1.64 0 0
1.66 0 0
1.68 0 0
1.7 0 0
1.72 0 0
1.74 0 0
1.76 0 0
1.78 0 0
1.8 0 0
1.82 0 0
1.84 0 0
1.86 0 0
1.88 0 0
1.9 0 0
1.92 0 0
1.94 0 0
1.96 0 0
1.98 0 0
2 0.0199133 0
2 0.0414128 0
2 0.0646247 0
2 0.0896856 0
2 0.116743 0
2 0.145955 0
2 0.177494 0
2 0.211545 0
2 0.248309 0
2 0.288001 0
2 0.330854 0
2 0.377121 0
2 0.427073 0
2 0.481004 0
2 0.539231 0
2 0.602096 0
2 0.669968 0
2 0.743247 0
2 0.822362 0
2 0.907779 0
1.9 1 0
1.8 1 0
1.7 1 0
1.6 1 0
1.5 1 0
1.4 1 0
1.3 1 0
1.2 1 0
1.1 1 0
1 1 0
0.9 1 0
0.8 1 0
0.7 1 0
0.6 1 0
0.5 1 0
0.4 1 0
0.3 1 0
0.2 1 0
0.1 1 0
3.69793e-12 1 0
-0.1 1 0
-0.2 1 0
-0.3 1 0
-0.4 1 0
-0.5 1 0
-0.6 1 0
-0.7 1 0
-0.8 1 0
-0.9 1 0
-1 0.907779 0
-1 0.822362 0
-1 0.743247 0
-1 0.669968 0
-1 0.602096 0
-1 0.539231 0
-1 0.481004 0
-1 0.427073 0
-1 0.377121 0
-1 0.330854 0
-1 0.288001 0
-1 0.248309 0
-1 0.211545 0
-1 0.177494 0
-1 0.145955 0
-1 0.116743 0
-1 0.0896856 0
-1 0.0646247 0
-1 0.0414128 0
-1 0.0199133 0
0.0182781 0.00745351 0
0.0366672 0.0146286 0
0.0551632 0.0215237 0
0.0737617 0.0281372 0
0.0924585 0.0344675 0
0.111249 0.0405131 0
0.13013 0.0462728 0
0.149095 0.0517451 0
0.168142 0.0569289 0
0.187265 0.0618228 0
0.20646 0.0664258 0
0.225723 0.0707368 0
0.245049 0.0747549 0
0.264434 0.078479 0
0.283873 0.0819084 0
0.303362 0.0850422 0
0.322896 0.0878798 0
0.342472 0.0904204 0
0.362083 0.0926635 0
0.381726 0.0946086 0
0.401397 0.0962552 0
0.42109 0.0976029 0
0.440802 0.0986514 0
0.460527 0.0994006 0
0.480261 0.0998501 0
0.5 0.1 0
0.519739 0.0998501 0
0.539473 0.0994006 0
0.559198 0.0986514 0
0.57891 0.0976029 0
0.598603 0.0962552 0
0.618274 0.0946086 0
0.637917 0.0926635 0
0.657528 0.0904204 0
0.677104 0.0878798 0
0.696638 0.0850422 0
0.716127 0.0819084 0
0.735566 0.078479 0
0.754951 0.0747549 0
0.774277 0.0707368 0
0.79354 0.0664258 0
0.812735 0.0618228 0
0.831858 0.0569289 0
0.850905 0.0517451 0
0.86987 0.0462728 0
0.888751 0.0405131 0
0.907542 0.0344675 0
0.926238 0.0281372 0
0.944837 0.0215237 0
0.963333 0.0146286 0
0.981722 0.00745351 0
-1 0.907779 0.1
-1 0.822362 0.1
-1 0.743247 0.1
-1 0.669968 0.1
-1 0.602096 0.1
-1 0.539231 0.1
-1 0.481004 0.1
-1 0.427073 0.1
-1 0.377121 0.1
-1 0.330854 0.1
-1 0.288001 0.1
-1 0.248309 0.1
-1 0.211545 0.1
-1 0.177494 0.1
-1 0.145955 0.1
-1 0.116743 0.1
-1 0.0896856 0.1
-1 0.0646247 0.1
-1 0.0414128 0.1
-1 0.0199133 0.1
-0.98 0 0.1
-0.96 0 0.1
-0.94 0 0.1
-0.92 0 0.1
-0.9 0 0.1
-0.88 0 0.1
-0.86 0 0.1
-0.84 0 0.1
-0.82 0 0.1
-0.8 0 0.1
-0.78 0 0.1
-0.76 0 0.1
-0.74 0 0.1
-0.72 0 0.1
-0.7 0 0.1
-0.68 0 0.1
-0.66 0 0.1
-0.64 0 0.1
-0.62 0 0.1
-0.6 0 0.1
-0.58 0 0.1
-0.56 0 0.1
-0.54 0 0.1
-0.52 0 0.1
-0.5 0 0.1
-0.48 0 0.1
-0.46 0 0.1
-0.44 0 0.1
-0.42 0 0.1
-0.4 0 0.1
-0.38 0 0.1
-0.36 0 0.1
-0.34 0 0.1
-0.32 0 0.1
-0.3 0 0.1
-0.28 0 0.1
-0.26 0 0.1
-0.24 0 0.1
-0.22 0 0.1
-0.2 0 0.1
-0.18 0 0.1
-0.16 0 0.1
-0.14 0 0.1
-0.12 0 0.1
-0.1 0 0.1
-0.08 0 0.1
-0.06 0 0.1
-0.04 0 0.1
-0.02 0 0.1
0.0182781 0.00745351 0.1
0.0366672 0.0146286 0.1
0.0551632 0.0215237 0.1
0.0737617 0.0281372 0.1
0.0924585 0.0344675 0.1
0.111249 0.0405131 0.1
0.13013 0.0462728 0.1
0.149095 0.0517451 0.1
0.168142 0.0569289 0.1
0.187265 0.0618228 0.1
0.20646 0.0664258 0.1
0.225723 0.0707368 0.1
0.245049 0.0747549 0.1
0.264434 0.078479 0.1
0.283873 0.0819084 0.1
0.303362 0.0850422 0.1
0.322896 0.0878798 0.1
0.342472 0.0904204 0.1
0.362083 0.0926635 0.1
0.381726 0.0946086 0.1
0.401397 0.0962552 0.1
0.42109 0.0976029 0.1
0.440802 0.0986514 0.1
0.460527 0.0994006 0.1
0.480261 0.0998501 0.1
0.5 0.1 0.1
0.519739 0.0998501 0.1
0.539473 0.0994006 0.1
0.559198 0.0986514 0.1
0.57891 0.0976029 0.1
0.598603 0.0962552 0.1
0.618274 0.0946086 0.1
0.637917 0.0926635 0.1
0.657528 0.0904204 0.1
0.677104 0.0878798 0.1
0.696638 0.0850422 0.1
0.716127 0.0819084 0.1
0.735566 0.078479 0.1
0.754951 0.0747549 0.1
0.774277 0.0707368 0.1
0.79354 0.0664258 0.1
0.812735 0.0618228 0.1
0.831858 0.0569289 0.1
0.850905 0.0517451 0.1
0.86987 0.0462728 0.1
0.888751 0.0405131 0.1
0.907542 0.0344675 0.1
0.926238 0.0281372 0.1
0.944837 0.0215237 0.1
0.963333 0.0146286 0.1
0.981722 0.00745351 0.1
1.02 0 0.1
1.04 0 0.1
1.06 0 0.1
1.08 0 0.1
1.1 0 0.1
1.12 0 0.1
1.14 0 0.1
1.16 0 0.1
1.18 0 0.1
1.2 0 0.1
1.22 0 0.1
1.24 0 0.1
1.26 0 0.1
1.28 0 0.1
1.3 0 0.1
1.32 0 0.1
1.34 0 0.1
1.36 0 0.1
1.38 0 0.1
1.4 0 0.1
1.42 0 0.1
1.44 0 0.1
1.46 0 0.1
1.48 0 0.1
1.5 0 0.1
1.52 0 0.1
1.54 0 0.1
1.56 0 0.1
1.58 0 0.1
1.6 0 0.1
1.62 0 0.1
1.64 0 0.1
1.66 0 0.1
1.68 0 0.1
1.7 0 0.1
1.72 0 0.1
1.74 0 0.1
1.76 0 0.1
1.78 0 0.1
1.8 0 0.1
1.82 0 0.1
1.84 0 0.1
1.86 0 0.1
1.88 0 0.1
1.9 0 0.1
1.92 0 0.1
1.94 0 0.1
1.96 0 0.1
1.98 0 0.1
2 0.0199133 0.1
2 0.0414128 0.1
2 0.0646247 0.1
2 0.0896856 0.1
2 0.116743 0.1
2 0.145955 0.1
2 0.177494 0.1
2 0.211545 0.1
2 0.248309 0.1
2 0.288001 0.1
2 0.330854 0.1
2 0.377121 0.1
2 0.427073 0.1
2 0.481004 0.1
2 0.539231 0.1
2 0.602096 0.1
2 0.669968 0.1
2 0.743247 0.1
2 0.822362 0.1
2 0.907779 0.1
1.9 1 0.1
1.8 1 0.1
1.7 1 0.1
1.6 1 0.1
1.5 1 0.1
1.4 1 0.1
1.3 1 0.1
1.2 1 0.1
1.1 1 0.1
1 1 0.1
0.9 1 0.1
0.8 1 0.1
0.7 1 0.1
0.6 1 0.1
0.5 1 0.1
0.4 1 0.1
0.3 1 0.1
0.2 1 0.1
0.1 1 0.1
3.69793e-12 1 0.1
-0.1 1 0.1
-0.2 1 0.1
-0.3 1 0.1
-0.4 1 0.1
-0.5 1 0.1
-0.6 1 0.1
-0.7 1 0.1
-0.8 1 0.1
-0.9 1 0.1
1.08758 0.0158154 0
-0.0898513 0.0203294 0
0.0966181 0.0537636 0
0.90205 0.0548881 0
1.21055 0.0202058 0
-0.209811 0.0159577 0
1.3305 0.0176902 0
-0.33 0.0173205 0
1.45324 0.0148141 0
-0.448654 0.0159854 0
1.56842 0.0191785 0
-0.569936 0.0166364 0
0.193292 0.0805369 0
0.805051 0.0813623 0
0.709096 0.100353 0
0.288591 0.0996656 0
0.390184 0.111848 0
0.61033 0.111742 0
0.488809 0.116278 0
1.67175 0.0169692 0
-0.67 0.0169809 0
-0.955017 0.454039 0
1.95131 0.44569 0
1.74981 0.0168753 0
-0.75 0.0173205 0
-0.968032 0.266538 0
1.96871 0.266267 0
0.978232 0.0305687 0
0.0208675 0.026451 0
-0.150454 0.91842 0
1.13854 0.907437 0
1.45012 0.904365 0
-0.445923 0.908903 0
-0.853423 0.0157019 0
1.84881 0.016319 0
0.853689 0.915652 0
0.153944 0.912184 0
0.545151 0.914125 0
0.549913 0.115152 0
1.51 0.0173205 0
-0.506989 0.01651 0
1.27 0.0173205 0
1.14976 0.0173333 0
-0.268171 0.0206442 0
-0.150501 0.0153244 0
-0.391384 0.0153993 0
1.38886 0.0171544 0
-0.973694 0.161724 0
1.97441 0.162392 0
-0.945221 0.633523 0
1.94544 0.63312 0
1.91008 0.0186068 0
-0.91 0.0169616 0
-0.030664 0.0194327 0
1.03074 0.0165456 0
-0.966065 0.353575 0
1.96128 0.359765 0
1.93879 0.781254 0
-0.937057 0.781882 0
-0.980746 0.080709 0
1.9772 0.0760699 0
0.058735 0.0409372 0
0.355202 0.913001 0
0.86356 0.0661005 0
0.134223 0.0651111 0
0.941972 0.0397386 0
-0.653034 0.915003 0
1.65328 0.904589 0
0.770126 0.0881325 0
0.232946 0.0902008 0
0.330582 0.105648 0
0.670612 0.108365 0
0.428707 0.116145 0
1.80993 0.016629 0
-0.810168 0.0172178 0
-0.71 0.0173205 0
1.63047 0.0175504 0
1.70842 0.0169661 0
-0.628824 0.0181787 0
-0.949815 0.0133898 0
1.95 0.0173205 0
1.85542 0.907891 0
-0.85 0.913397 0
1.9833 0.0307692 0
-0.983315 0.0309709 0
-0.750025 0.916468 0
-0.701107 0.836904 0
-0.607741 0.836428 0
-0.656448 0.759827 0
-0.572936 0.758144 0
-0.61411 0.691195 0
-0.539534 0.689068 0
-0.578542 0.626111 0
-0.507461 0.624216 0
-0.544001 0.566638 0
-0.477696 0.564279 0
-0.511582 0.51001 0
-0.451689 0.507147 0
-0.481834 0.457732 0
-0.426137 0.454624 0
-0.453236 0.407539 0
-0.398845 0.406233 0
-0.507958 0.409496 0
-0.368427 0.460177 0
-0.344602 0.405209 0
-0.315696 0.447824 0
-0.294128 0.402169 0
-0.262844 0.444518 0
-0.241968 0.388746 0
-0.209878 0.439557 0
-0.185184 0.391135 0
-0.156687 0.437338 0
-0.133719 0.390776 0
-0.104405 0.434306 0
-0.0818745 0.388334 0
-0.0528785 0.431165 0
-0.0305984 0.385639 0
-0.00180552 0.427863 0
0.0194564 0.382608 0
0.0485809 0.42449 0
0.0701962 0.37973 0
0.0985483 0.421145 0
0.119893 0.377339 0
0.147837 0.417911 0
0.172552 0.36751 0
0.197018 0.412597 0
0.221203 0.37141 0
0.24512 0.409646 0
-0.48178 0.364657 0
-0.531053 0.364782 0
-0.0599102 0.344151 0
-0.324909 0.359566 0
0.266181 0.368462 0
0.292132 0.407649 0
0.311992 0.365779 0
0.338918 0.404821 0
0.357567 0.355909 0
0.384723 0.40053 0
0.404675 0.359681 0
0.430617 0.398558 0
0.450457 0.35827 0
0.474237 0.395182 0
0.496746 0.34898 0
0.520548 0.397931 0
0.542071 0.353121 0
0.566011 0.389914 0
0.585061 0.350856 0
0.609352 0.38696 0
0.629069 0.348168 0
0.655979 0.391217 0
0.67472 0.346182 0
0.699346 0.381414 0
0.719333 0.341965 0
0.743718 0.377547 0
0.764028 0.339036 0
0.788201 0.373582 0
0.807659 0.336101 0
0.832821 0.372249 0
0.852309 0.334017 0
0.877785 0.370339 0
0.897875 0.331141 0
0.922904 0.366281 0
0.943173 0.327335 0
0.968282 0.363358 0
0.989029 0.324222 0
1.01391 0.361511 0
1.03465 0.321428 0
1.05949 0.358447 0
1.08389 0.312052 0
1.10575 0.355104 0
1.12889 0.31562 0
1.15067 0.353235 0
1.17157 0.312819 0
1.19626 0.349369 0
1.21618 0.309863 0
1.2416 0.346914 0
1.26131 0.30715 0
1.28691 0.344312 0
1.30571 0.303752 0
1.33144 0.341222 0
1.35018 0.300911 0
1.3758 0.338308 0
1.39501 0.298931 0
1.42015 0.335235 0
1.43904 0.296349 0
1.46355 0.330194 0
1.48256 0.293347 0
1.50685 0.326967 0
1.52589 0.29055 0
1.54996 0.325305 0
1.56909 0.287929 0
[...]
CELL_DATA 3694
SCALARS rho float
LOOKUP_TABLE default
0.734357
0.669241
0.803634
0.812144
0.825923
0.804878
0.791322
0.799418
0.809197
0.80246
0.816524
0.816517
0.839891
0.789027
0.800277
0.749145
0.803127
0.802706
0.759017
0.849567
0.816575
0.822336
0.694784
0.80321
0.691341
0.83874
0.719549
0.805668
0.836367
0.798108
0.798314
0.718213
0.803266
0.824099
0.802488
0.796612
0.836715
0.822138
0.824195
0.778077
0.804429
0.817074
0.833702
0.824663
0.804868
0.812028
0.800198
0.661055
0.678127
0.718663
0.801878
0.802842
0.846322
0.801827
0.625307
0.837613
0.802299
0.81835
0.832401
0.753278
0.79598
0.814197
0.841567
0.799031
0.842072
0.83023
0.807088
0.812673
0.736537
0.85786
0.803058
0.807365
0.822359
0.80309
0.823784
0.802813
0.813918
0.799185
0.813098
0.802572
0.711671
0.817773
0.802108
0.776683
0.809079
0.799133
0.817692
0.712819
0.736376
0.824516
0.798484
0.802136
0.81985
0.81478
0.673745
0.80628
0.722181
0.817019
0.811501
0.839415
0.813793
0.761371
0.719317
0.809005
0.808518
0.814193
0.816996
0.806779
0.714548
0.813566
0.799014
0.720406
0.721516
0.822926
0.867507
0.801957
0.799038
0.811301
0.803042
0.801861
0.765428
0.822197
0.819016
0.769071
0.705132
0.757761
0.81667
0.776024
0.843096
0.698389
0.766887
0.800098
0.807694
0.777093
0.800309
0.794933
0.805229
0.802216
0.797452
0.813727
0.812983
0.708899
0.816184
0.812766
0.756894
0.663569
0.675944
0.797576
0.815218
0.812856
0.743061
0.802531
0.551947
0.777855
0.682231
0.762302
0.712618
0.783021
0.604651
0.79275
0.837263
0.643264
0.781641
0.736206
0.84361
0.550222
0.816962
0.799904
0.802282
0.672134
0.801433
0.661013
0.857381
0.531093
0.799645
0.629589
0.871866
0.832744
0.819996
0.745034
0.813337
0.722127
0.826305
0.737326
0.647067
0.802993
0.671172
0.822747
0.801508
0.850503
0.791493
0.705608
0.813907
0.797849
0.740963
0.852317
0.811149
0.848419
0.735735
0.741588
0.770418
0.793154
0.831133
0.833999
0.816635
0.813324
0.667447
0.804398
0.725518
0.803082
0.706389
0.796781
0.795413
0.801277
0.82509
0.762615
0.829829
0.748708
0.82503
0.819236
0.81517
0.852626
0.829202
0.700947
0.826454
0.689151
0.787442
0.809339
0.85067
0.829619
0.807545
0.794039
0.744045
0.81689
0.836189
0.816701
0.713605
0.799118
0.692751
0.791539
0.795268
0.809311
0.635239
0.807308
0.756731
0.797606
0.80302
0.758369
0.814367
0.865214
0.784056
0.69327
0.804186
0.801094
0.64566
0.791564
0.777425
0.802256
0.838549
0.813954
0.606403
0.814394
0.809925
0.796153
0.814677
0.802494
0.815131
0.813978
0.835377
0.755376
0.801666
0.834321
0.809925
0.80306
0.795852
0.814117
0.728351
0.585702
0.816152
0.829391
0.819773
0.803898
0.678708
0.814675
0.814397
0.816185
0.711265
0.796675
0.814223
0.534643
0.802711
0.868829
0.674477
0.755184
0.8382
0.8265
0.813956
0.708354
0.809196
0.814217
0.80361
0.801406
0.811889
0.836233
0.816792
0.766684
0.806807
0.802944
0.645109
0.820371
0.827297
0.669994
0.79034
0.818194
0.820672
0.677605
0.687417
0.820795
0.823501
0.809319
0.733771
0.705719
0.712454
0.731059
0.819677
0.775845
0.803955
0.730878
0.741959
0.821912
0.809547
0.81859
0.769156
0.814366
0.813044
0.81666
0.815281
0.802633
0.807313
0.803393
0.693312
0.802605
0.812542
0.692273
0.806623
0.804903
0.818785
0.785468
0.805705
0.791539
0.814104
0.82036
0.819542
0.797713
0.678456
0.708738
0.799202
0.810661
0.620137
0.803684
0.806961
0.817022
0.742178
0.804071
0.8157
0.810821
0.817144
0.804834
0.797073
0.763571
0.803785
0.843084
0.819544
0.708017
0.803388
0.700476
0.705189
0.802861
0.613353
0.770092
0.78446
0.807867
0.81262
0.82476
0.816459
0.81215
0.819552
0.827721
0.80274
0.763724
0.80954
0.657401
0.81861
0.756436
0.726486
0.684708
0.813185
0.853671
0.818637
0.808254
0.821848
0.814559
0.786548
0.757373
0.808906
0.692275
0.790939
0.843167
0.826388
0.800641
0.863705
0.813155
0.815916
0.816878
0.830827
0.627426
0.798047
0.729741
0.797502
0.735118
0.818497
0.808454
0.786672
0.686153
0.814013
0.829796
0.811149
0.802748
0.80362
0.8238
0.803664
0.708993
0.790083
0.803033
0.81397
0.813336
0.81194
0.871361
0.827269
0.809167
0.8316
0.680931
0.822834
0.837159
0.815522
0.626423
0.814533
0.808958
0.845084
0.820764
0.802836
0.590787
0.809874
0.694272
0.805913
0.802816
0.811742
0.812752
0.824999
0.804884
0.810982
0.815367
0.722531
0.862613
0.801781
0.8498
0.815754
0.571863
0.803721
0.796456
0.810891
0.817006
0.644504
0.802736
0.80942
0.812773
0.806909
0.793656
0.814883
0.816667
0.795525
0.803405
0.820858
0.836534
0.728773
0.806075
0.809198
0.812453
0.681483
0.805006
0.815415
0.798914
0.803868
0.516949
0.832446
0.762778
0.813868
0.817089
0.830385
0.845888
0.815485
0.810877
0.714335
0.79856
0.852076
0.807799
0.70919
0.799923
0.802547
0.871951
0.844895
0.818438
0.801891
0.809455
0.75482
0.814704
0.813604
0.583234
0.802451
0.728049
0.749924
0.802889
0.810674
0.780755
0.820918
0.814531
0.837615
0.815361
0.800301
0.80836
0.738757
0.73602
0.803985
0.807444
0.820565
0.801985
0.751487
0.687216
0.812792
0.814941
0.813782
0.593079
0.812918
0.816184
0.824178
0.802869
0.808124
0.819088
0.811635
0.839011
0.802896
0.812454
0.823221
0.814881
0.817303
0.821064
0.687003
0.783914
0.794317
0.802977
0.847237
0.801989
0.802221
0.634055
0.810379
0.812862
0.810534
0.818434
0.805591
0.812362
0.72636
0.843223
0.708183
0.800135
0.816689
0.807038
0.648545
0.684966
0.814883
0.805488
0.804026
0.784782
0.80145
0.82878
0.812891
0.804803
0.801955
0.81164
0.618493
0.811681
0.802826
0.696281
0.814947
0.614367
0.783305
0.814856
0.837448
0.805301
0.811761
0.791812
0.795002
0.803822
0.801352
0.811313
0.810902
0.808343
0.803163
0.757126
0.803948
0.811788
0.811243
0.815721
0.810815
0.815247
0.814174
0.833912
0.736967
0.806462
0.814972
0.802221
0.540325
0.680187
0.81082
0.81252
0.814499
0.780135
0.807892
0.812356
0.802973
0.79976
0.802551
0.819468
0.82029
0.814258
0.784211
0.807592
0.805055
0.534331
0.773446
0.756618
0.806049
0.734929
0.673405
0.797266
0.767125
0.827243
0.814161
0.81395
0.80818
0.538111
0.815148
0.58178
0.693676
0.82414
0.869484
0.740309
0.815953
0.852546
0.693821
0.814733
0.80882
0.81469
0.807194
0.655084
0.85423
0.737317
0.728592
0.803167
0.804444
0.799314
0.833242
0.814458
0.689909
0.815031
0.800181
0.689299
0.839113
0.797814
0.620676
0.772423
0.815012
0.807288
0.814092
0.784264
0.723571
0.769323
0.836724
0.687698
0.815273
0.816787
0.826429
0.764693
0.821512
0.690042
0.804434
0.659494
0.699856
0.800022
0.822322
0.787835
0.813807
0.814692
0.814495
0.813221
0.575144
0.802479
0.814204
0.742678
0.809899
0.814735
0.811088
0.716041
0.693913
0.740636
0.618209
0.807098
0.680385
0.814955
0.801794
0.814267
0.836717
0.686055
0.804
0.819267
0.832115
0.736592
0.781186
0.764596
0.772506
0.811764
0.557944
0.669718
0.814584
0.805178
0.811747
0.804419
0.711503
0.779765
0.723036
0.760599
0.79934
0.831471
0.812057
0.690398
0.822865
0.817383
0.81026
0.683627
0.694697
0.680233
0.871891
0.815212
0.816041
0.607404
0.710555
0.640119
0.80326
0.800217
0.670725
0.811739
0.824099
0.748082
0.799147
0.728569
0.813463
0.691564
0.813983
0.810306
0.800945
0.803037
0.825178
0.743598
0.81506
0.814227
0.780025
0.54912
0.815863
0.810289
0.757158
0.813103
0.747614
0.802714
0.826013
0.654234
0.817536
0.802653
0.809848
0.581223
0.61818
0.734422
0.806228
0.811455
0.810174
0.820518
0.814363
0.815317
0.703623
0.801836
0.812532
0.825758
0.702652
0.724712
0.811551
0.811385
0.695087
0.814158
0.773917
0.702983
0.811729
0.695071
0.803695
0.661344
0.802848
0.730451
0.66528
0.810543
0.785915
0.743424
0.629914
0.839757
0.820934
0.814322
0.769805
0.813428
0.799942
0.785619
0.799717
0.80157
0.814583
0.730348
0.809546
0.799853
0.818187
0.59671
0.801177
0.812337
0.813307
0.810975
0.811544
0.745444
0.802512
0.763688
0.749964
0.818037
0.64424
0.817979
0.817094
0.803038
0.814994
0.816227
0.718979
0.768459
0.821579
0.7848
0.803633
0.815425
0.874872
0.817468
0.797713
0.816182
0.814622
0.793807
0.817896
0.816357
0.772817
0.69601
0.840829
0.796855
0.803129
0.822417
0.780632
0.81725
0.824645
0.818073
0.816258
0.870298
0.803057
0.804728
0.817671
0.803054
0.814751
0.806805
0.734613
0.814679
0.819141
0.753933
0.706476
0.814568
0.842829
0.822184
0.649553
0.821219
0.77328
0.807723
0.801762
0.728838
0.803092
0.798441
0.815323
0.81635
0.691396
0.702872
0.802082
0.787403
0.801333
0.824473
0.722495
0.814225
0.802292
0.799915
0.823039
0.814726
0.711496
0.815006
0.762617
0.802336
0.832402
0.803248
0.772771
0.797798
0.794566
0.81437
0.568347
0.814172
0.696187
0.674729
0.803355
0.818965
0.814234
0.802449
0.814393
0.80796
0.722863
0.787371
0.856845
0.802981
0.833173
0.807273
0.539232
0.762251
0.779172
0.6457
0.736649
0.5763
0.819744
0.8125
0.813475
0.80235
0.766559
0.683487
0.763675
0.752083
0.781755
0.814142
0.844636
0.818802
0.805689
0.819141
0.823377
0.802515
0.807286
0.702996
0.803015
0.755696
0.808524
0.797555
0.750733
0.821912
0.788188
0.803427
0.789193
0.840579
0.727102
0.800751
0.799188
0.804759
0.6162
0.814769
0.814644
0.821354
0.6286
0.81452
0.814531
0.798279
0.803737
0.793018
0.774605
0.805875
0.794034
0.815278
0.753199
0.803266
0.875084
0.76208
0.747089
0.806463
0.783827
0.842218
0.799358
0.778874
0.814901
0.798047
0.792333
0.807913
0.825055
0.835305
0.799596
0.57167
0.819878
0.827776
0.771868
0.83028
0.837844
0.822335
0.825785
0.80712
0.832503
0.82633
0.783526
0.808646
0.810679
0.805751
0.82215
0.803278
0.827173
0.792723
0.802796
0.805564
0.725429
0.806931
0.558909
0.817344
0.824788
0.828123
0.805452
0.817812
0.823364
0.819216
0.820229
0.838377
0.832649
0.787293
0.800205
0.821134
0.814716
0.816299
0.800021
0.80623
0.865305
0.819442
0.847008
0.814417
0.800452
0.824416
0.799563
0.83322
0.812778
0.814757
0.805131
0.724726
0.802778
0.80438
0.814333
0.803205
0.801619
0.821886
0.804391
0.804034
0.777587
0.819528
0.71628
0.813782
0.779588
0.758235
0.803428
0.813081
0.818799
0.713643
0.818711
0.814998
0.826349
0.81645
0.7892
0.815601
0.846987
0.832662
0.81442
0.811523
0.801419
0.742705
0.675213
0.814319
0.82024
0.770134
0.813737
0.807555
0.811109
0.805216
0.798187
0.775812
0.802282
0.799823
0.841073
0.816734
0.811144
0.806058
0.601518
0.72972
0.802009
0.782709
0.803889
0.815032
0.8057
0.815367
0.77945
0.814395
0.804584
0.809979
0.803513
0.817202
0.803118
0.815145
0.810201
0.815154
0.812153
0.715926
0.813827
0.814949
0.595201
0.814152
0.796534
0.802537
0.858465
0.817729
0.810002
0.872254
0.814579
0.814657
0.816152
0.818192
0.814613
0.763764
0.830096
0.801049
0.802987
0.813905
0.814516
0.816029
0.814357
0.812777
0.82252
0.803798
0.811844
0.808826
0.81479
0.819753
0.814374
0.811111
0.818642
0.808704
0.697681
0.657508
0.802443
0.808195
0.803146
0.810603
0.817737
0.816465
0.80271
0.803438
0.800293
0.800599
0.816235
0.844028
0.817885
0.811138
0.817839
0.817502
0.845621
0.816826
0.820723
0.785303
0.815139
0.80658
0.80084
0.791737
0.810135
0.817846
0.814203
0.814447
0.835785
0.805479
0.811913
0.815955
0.821284
0.803316
0.80299
0.805305
0.810157
0.814324
0.80135
0.802419
0.816205
0.822271
0.800519
0.569231
0.804058
0.79636
0.816868
0.798374
0.802587
0.747523
0.840399
0.802537
0.799465
0.834315
0.829205
0.809984
0.82565
0.800196
0.817176
0.816803
0.818036
0.803414
0.817615
0.726348
0.821697
0.811282
0.799792
0.812762
0.819879
0.798882
0.803781
0.781651
0.814917
0.814607
0.814719
0.817825
0.806195
0.816352
0.815026
0.825518
0.821744
0.837202
0.805678
0.694185
0.817262
0.840244
0.819105
0.80435
0.79978
0.803102
0.815613
0.813862
0.815242
0.743248
0.736686
0.80044
0.802759
0.814911
0.815881
0.798042
0.650572
0.707336
0.807785
0.768941
0.815069
0.70185
0.802948
0.727183
0.803101
0.819593
0.803037
0.816589
0.812004
0.798369
0.808324
0.792805
0.829627
0.814752
0.800904
0.803249
0.815125
0.82102
0.748405
0.822115
0.803514
0.783006
0.814622
0.803607
0.810095
0.813755
0.814194
0.834835
0.792045
0.798657
0.814496
0.75822
0.806333
0.813899
0.800789
0.815187
0.840944
0.80199
0.842827
0.80812
0.789786
0.810985
0.802533
0.851615
0.788171
0.803026
0.815212
0.831075
0.808119
0.81287
0.81491
0.802621
0.802551
0.825704
0.782078
0.81343
0.814484
0.640703
0.814692
0.71168
0.817366
0.837795
0.823879
0.803648
0.813669
0.814323
0.72466
0.813848
0.800412
0.801361
0.800567
0.814933
0.863549
0.800976
0.80066
0.785025
0.840179
0.827716
0.818881
0.812425
0.745934
0.802835
0.803257
0.729833
0.798962
0.713346
0.809642
0.800776
0.675072
0.880051
0.701402
0.771824
0.800779
0.742194
0.808109
0.798535
0.802946
0.658909
0.796505
0.783726
0.798564
0.727047
0.817955
0.821769
0.884394
0.809187
0.830793
0.643594
0.799545
0.786235
0.743057
0.75029
0.768055
0.704329
0.802939
0.798894
0.803013
0.762909
0.625426
0.811162
0.610918
0.820471
0.822324
0.81123
0.736173
0.811464
0.794666
0.818409
0.782342
0.806402
0.796904
0.809156
0.715686
0.801207
0.721291
0.801054
0.798379
0.683861
0.803361
0.81421
0.814275
0.80297
0.760445
0.814051
0.73229
0.689563
0.802104
0.814271
0.874201
0.814166
0.813575
0.880405
0.865207
0.830449
0.71827
0.801739
0.811621
0.820839
0.797284
0.678907
0.72174
0.673596
0.802259
0.705126
0.767813
0.799063
0.613201
0.688039
0.835675
0.772826
0.744414
0.829917
0.758357
0.769031
0.62266
0.730367
0.784409
0.819032
0.869286
0.837372
0.814639
0.793946
0.799331
0.714672
0.814479
0.692929
0.796789
0.814246
0.783284
0.761789
0.801016
0.782104
0.802018
0.800467
0.810827
0.810807
0.866897
0.563323
0.535381
0.802185
0.806344
0.696959
0.809599
0.802633
0.837084
0.803324
0.802222
0.564929
0.551288
0.808146
0.811484
0.814388
0.724784
0.803043
0.809859
0.682988
0.810488
0.802546
0.81287
0.80308
0.799947
0.802091
0.813318
0.802829
0.81675
0.803051
0.861792
0.813676
0.802367
0.721197
0.668388
0.814446
0.582925
0.812047
0.809722
0.835408
0.812995
0.802866
0.810471
0.812364
0.812191
0.81399
0.801426
0.853435
0.856143
0.801978
0.653177
0.807677
0.822129
0.799248
0.803048
0.819314
0.732596
0.803158
0.824639
0.82067
0.814791
0.814275
0.76598
0.7454
0.800437
0.833493
0.802475
0.813602
0.804164
0.803359
0.804699
0.812998
0.808537
0.798319
0.806643
0.805703
0.824295
0.806457
0.806058
0.816669
0.80654
0.803294
0.812091
0.802861
0.802715
0.805591
0.807519
0.812233
0.773108
0.805119
0.802584
0.814152
0.799427
0.803571
0.806627
0.831287
0.804827
0.64759
0.800554
0.814479
0.804462
0.814503
0.762409
0.814238
0.74979
0.803505
0.802035
0.803874
0.818646
0.850651
0.804174
0.803172
0.746932
0.828994
0.814149
0.819602
0.82466
0.813999
0.735402
0.817233
0.720449
0.800851
0.826955
0.80222
0.69759
0.825169
0.814006
0.815406
0.823406
0.814591
0.772829
0.816245
0.645466
0.7085
0.814246
0.821869
0.672862
0.818446
0.657495
0.82066
0.806426
0.815727
0.803082
0.805212
0.814131
0.831193
0.824844
0.669711
0.812229
0.841564
0.781088
0.845859
0.800101
0.703842
0.838003
0.818676
0.835012
0.685796
0.680531
0.832312
0.653619
0.829997
0.814266
0.827949
0.80607
0.826214
0.787376
0.824694
0.823287
0.705759
0.865363
0.822079
0.821058
0.823362
0.758474
0.802691
0.520653
0.802472
0.820167
0.812741
0.804523
0.82526
0.81419
0.797652
0.819384
0.802878
0.676962
0.792143
0.83386
0.813594
0.714368
0.798592
0.821319
0.573465
0.813961
0.814806
0.80241
0.809694
0.724888
0.817287
0.802923
0.803342
0.795739
0.793302
0.797685
0.794533
0.803211
0.811586
0.819083
0.813324
0.570553
0.892833
0.70418
0.797671
0.738558
0.791209
0.814168
0.814925
0.814802
0.602789
0.818323
0.81698
0.803701
0.817329
0.836189
0.839176
0.782615
0.798261
0.799294
0.723647
0.751833
0.814454
0.763399
0.814937
0.818364
0.814021
0.813265
0.801835
0.77462
0.811826
0.815356
0.727649
0.810366
0.81513
0.817403
0.807583
0.809243
0.763942
0.813784
0.807965
0.803053
0.807212
0.614841
0.806274
0.804122
0.805699
0.820673
0.845238
0.804489
0.773504
0.805063
0.771274
0.819615
0.805174
0.811949
0.814176
0.849847
0.803262
0.743943
0.819566
0.814452
0.726313
0.800581
0.8155
0.758127
0.811821
0.567278
0.806353
0.684829
0.800881
0.810635
0.811741
0.81651
0.804018
0.81513
0.817045
0.800805
0.803988
0.843986
0.81542
0.795994
0.81552
0.801584
0.80115
0.800074
0.801028
0.806504
0.813817
0.801393
0.769216
0.817742
0.812451
0.808659
0.814187
0.584914
0.803133
0.813458
0.814506
0.786858
0.747466
0.719159
0.811687
0.814032
0.825368
0.788712
0.601314
0.770962
0.638076
0.816013
0.745111
0.811405
0.829726
0.693041
0.799449
0.83336
0.748477
0.800429
0.803051
0.814823
0.801814
0.698019
0.800503
0.545989
0.801555
0.802283
0.802061
0.557856
0.802814
0.803286
0.803043
0.727848
0.736737
0.803291
0.775878
0.814868
0.721398
0.705878
0.81425
0.801161
0.751948
0.853823
0.813036
0.811467
0.668265
0.80264
0.800379
0.800268
0.80234
0.655257
0.803087
0.814515
0.653216
0.684447
0.805591
0.789914
0.814334
0.822723
0.814258
0.814457
0.815715
0.803511
0.814412
0.8142
0.812923
0.82891
0.80224
0.801633
0.810106
0.72548
0.80937
0.814055
0.862498
0.810469
0.636666
0.773909
0.80203
0.775805
0.81597
0.811083
0.829586
0.813737
0.8643
0.80164
0.813824
0.591929
0.815282
0.833419
0.802811
0.813452
0.623437
0.814681
0.802611
0.815927
0.802093
0.816815
0.815209
0.754558
0.80341
0.803057
0.834675
0.861596
0.819381
0.815338
0.725302
0.740433
0.802377
0.802878
0.811694
0.817374
0.799319
0.802711
0.818836
0.805874
0.807333
0.739389
0.802588
0.816829
0.813275
0.767738
0.760347
0.811054
0.796213
0.856666
0.717976
0.834125
0.810301
0.71198
0.799484
0.813679
0.787276
0.80052
0.799528
0.814277
0.776711
0.774303
0.812593
0.696513
0.798392
0.764858
0.814129
0.816549
0.801825
0.786991
0.737644
0.75156
0.773422
0.81383
0.818264
0.805123
0.6534
0.801571
0.795193
0.777587
0.809524
0.812166
0.799337
0.802876
0.6314
0.803731
0.804358
0.850921
0.803555
0.808807
0.832843
0.805041
0.809417
0.85186
0.610701
0.803886
0.815401
0.805226
0.804841
0.805525
0.804417
0.80451
0.804036
0.805606
0.806073
0.72364
0.805494
0.806759
0.806196
0.814393
0.807896
0.817942
0.80302
0.803374
0.813962
0.814149
0.809304
0.803287
0.816006
0.812839
0.809219
0.8153
0.707255
0.813152
0.831027
0.81414
0.853913
0.74907
0.807416
0.814176
0.800454
0.59471
0.803139
0.771789
0.821258
0.626091
0.814808
0.82902
0.813867
0.811275
0.801924
0.826635
0.818694
0.803406
0.764181
0.816368
0.758163
0.544938
0.813511
0.696116
0.693782
0.82017
0.82712
0.826914
0.815959
0.847149
0.567782
0.876187
0.805043
0.825399
0.823709
0.812247
0.680374
0.814051
0.82215
0.815659
0.800656
0.773497
0.822041
0.563622
0.81253
0.842768
0.802997
0.839181
0.820895
0.803214
0.667508
0.842844
0.819821
0.83597
0.800657
0.813226
0.802978
0.833313
0.802673
0.813138
0.830866
0.8287
0.821803
0.823708
0.830513
0.738985
0.659359
0.56131
0.826835
0.825292
0.766782
0.755785
0.805736
0.823846
0.846514
0.588946
0.822547
0.821441
0.820517
0.818962
0.803735
0.820566
0.655626
0.743291
0.819702
0.797014
0.869499
0.889925
0.775986
0.803308
0.668554
0.835217
0.729155
0.71699
0.818913
0.801431
0.783103
0.658188
0.80203
0.814286
0.788575
0.709976
0.799875
0.816938
0.797754
0.673836
0.823073
0.792558
0.814997
0.832799
0.814936
0.795073
0.815457
0.81521
0.785566
0.803803
0.709027
0.840325
0.792806
0.810455
0.781562
0.804194
0.694052
0.800634
0.813267
0.811905
0.810739
0.809212
0.808121
0.807365
0.805739
0.80463
0.806548
0.723627
0.80518
0.801277
0.795683
0.803147
0.844146
0.713666
0.80309
0.775791
0.88377
0.853815
0.797805
0.722174
0.803073
0.797495
0.71782
0.803158
0.801475
0.733116
0.803471
0.789297
0.796923
0.80087
0.736689
0.779014
0.803895
0.746292
0.763968
0.768658
0.801193
0.813937
0.808394
0.75779
0.750761
0.799346
0.812924
0.803196
0.792449
0.800934
0.928571
0.860284
0.817112
0.814058
0.723705
0.843961
0.746935
0.825742
0.816087
0.897981
0.814237
0.796779
0.586922
0.814274
0.796893
0.814313
0.797319
0.845231
0.517913
0.832367
0.801399
0.805391
0.804657
0.803553
0.85532
0.801094
0.81672
0.700764
0.646609
0.665735
0.814362
0.499829
0.797342
0.720778
0.841472
0.814254
0.555984
0.801589
0.813773
0.813435
0.71824
0.801482
0.522643
0.796793
0.81451
0.796912
0.802558
0.797154
0.81469
0.833557
0.803202
0.797864
0.8151
0.79813
0.815257
0.813559
0.798414
0.815434
0.813008
0.81564
0.798512
0.815869
0.678625
0.798705
0.816126
0.802968
0.798894
0.816385
0.696501
0.814271
0.797932
0.814199
0.797925
0.809359
0.837821
0.860985
0.800762
0.799981
0.817344
0.815109
0.799624
0.799247
0.862948
0.811764
0.81701
0.809812
0.849567
0.828005
0.815981
0.82521
0.845824
0.814206
0.801104
0.818602
0.811187
0.801528
0.814107
0.799693
0.807072
0.782674
0.806315