# vtk DataFile Version 1.0
unstructured grid
ascii
DATASET UNSTRUCTURED_GRID
points 3920 float
-1 0 0
-1 1 0
2 0 0
2 1 0
0 0 0
1 0 0
-1 1 0.1
-1 0 0.1
0 0 0.1
1 0 0.1
2 0 0.1
2 1 0.1
-0.98 0 0
-0.96 0 0
-0.94 0 0
-0.92 0 0
-0.9 0 0
-0.88 0 0
-0.86 0 0
-0.84 0 0
-0.82 0 0
-0.8 0 0
-0.78 0 0
-0.76 0 0
-0.74 0 0
-0.72 0 0
-0.7 0 0
-0.68 0 0
-0.66 0 0
-0.64 0 0
-0.62 0 0
-0.6 0 0
-0.58 0 0
-0.56 0 0
-0.54 0 0
-0.52 0 0
-0.5 0 0
-0.48 0 0
-0.46 0 0
-0.44 0 0
-0.42 0 0
-0.4 0 0
-0.38 0 0
-0.36 0 0
-0.34 0 0
-0.32 0 0
-0.3 0 0
-0.28 0 0
-0.26 0 0
-0.24 0 0
-0.22 0 0
-0.2 0 0
-0.18 0 0
-0.16 0 0
-0.14 0 0
-0.12 0 0
-0.1 0 0
-0.08 0 0
-0.06 0 0
-0.04 0 0
-0.02 0 0
1.02 0 0
1.04 0 0
1.06 0 0
1.08 0 0
1.1 0 0
1.12 0 0
1.14 0 0
1.16 0 0
1.18 0 0
1.2 0 0
1.22 0 0
1.24 0 0
1.26 0 0
1.28 0 0
1.3 0 0
1.32 0 0
1.34 0 0
1.36 0 0
1.38 0 0
1.4 0 0
1.42 0 0
1.44 0 0
1.46 0 0
1.48 0 0
1.5 0 0
1.52 0 0
1.54 0 0
1.56 0 0
1.58 0 0
1.6 0 0
1.62 0 0
1.64 0 0
1.66 0 0
1.68 0 0
1.7 0 0
1.72 0 0
1.74 0 0
1.76 0 0
1.78 0 0
1.8 0 0
1.82 0 0
1.84 0 0
1.86 0 0
1.88 0 0
1.9 0 0
1.92 0 0
1.94 0 0
1.96 0 0
1.98 0 0
2 0.0199133 0
2 0.0414128 0
2 0.0646247 0
2 0.0896856 0
2 0.116743 0
2 0.145955 0
2 0.177494 0
2 0.211545 0
2 0.248309 0
2 0.288001 0
2 0.330854 0
2 0.377121 0
2 0.427073 0
2 0.481004 0
2 0.539231 0
2 0.602096 0
2 0.669968 0
2 0.743247 0
2 0.822362 0
2 0.907779 0
1.9 1 0
1.8 1 0
1.7 1 0
1.6 1 0
1.5 1 0
1.4 1 0
1.3 1 0
1.2 1 0
1.1 1 0
1 1 0
0.9 1 0
0.8 1 0
0.7 1 0
0.6 1 0
0.5 1 0
0.4 1 0
0.3 1 0
0.2 1 0
0.1 1 0
3.69793e-12 1 0
-0.1 1 0
-0.2 1 0
-0.3 1 0
-0.4 1 0
-0.5 1 0
-0.6 1 0
-0.7 1 0
-0.8 1 0
-0.9 1 0
-1 0.907779 0
-1 0.822362 0
-1 0.743247 0
-1 0.669968 0
-1 0.602096 0
-1 0.539231 0
-1 0.481004 0
-1 0.427073 0
-1 0.377121 0
-1 0.330854 0
-1 0.288001 0
-1 0.248309 0
-1 0.211545 0
-1 0.177494 0
-1 0.145955 0
-1 0.116743 0
-1 0.0896856 0
-1 0.0646247 0
-1 0.0414128 0
-1 0.0199133 0
0.0182781 0.00745351 0
0.0366672 0.0146286 0
0.0551632 0.0215237 0
0.0737617 0.0281372 0
0.0924585 0.0344675 0
0.111249 0.0405131 0
0.13013 0.0462728 0
0.149095 0.0517451 0
0.168142 0.0569289 0
0.187265 0.0618228 0
0.20646 0.0664258 0
0.225723 0.0707368 0
0.245049 0.0747549 0
0.264434 0.078479 0
0.283873 0.0819084 0
0.303362 0.0850422 0
0.322896 0.0878798 0
0.342472 0.0904204 0
0.362083 0.0926635 0
0.381726 0.0946086 0
0.401397 0.0962552 0
0.42109 0.0976029 0
0.440802 0.0986514 0
0.460527 0.0994006 0
0.480261 0.0998501 0
0.5 0.1 0
0.519739 0.0998501 0
0.539473 0.0994006 0
0.559198 0.0986514 0
0.57891 0.0976029 0
0.598603 0.0962552 0
0.618274 0.0946086 0
0.637917 0.0926635 0
0.657528 0.0904204 0
0.677104 0.0878798 0
0.696638 0.0850422 0
0.716127 0.0819084 0
0.735566 0.078479 0
0.754951 0.0747549 0
0.774277 0.0707368 0
0.79354 0.0664258 0
0.812735 0.0618228 0
0.831858 0.0569289 0
0.850905 0.0517451 0
0.86987 0.0462728 0
0.888751 0.0405131 0
0.907542 0.0344675 0
0.926238 0.0281372 0
0.944837 0.0215237 0
0.963333 0.0146286 0
0.981722 0.00745351 0
-1 0.907779 0.1
-1 0.822362 0.1
-1 0.743247 0.1
-1 0.669968 0.1
-1 0.602096 0.1
-1 0.539231 0.1
-1 0.481004 0.1
-1 0.427073 0.1
-1 0.377121 0.1
-1 0.330854 0.1
-1 0.288001 0.1
-1 0.248309 0.1
-1 0.211545 0.1
-1 0.177494 0.1
-1 0.145955 0.1
-1 0.116743 0.1
-1 0.0896856 0.1
-1 0.0646247 0.1
-1 0.0414128 0.1
-1 0.0199133 0.1
-0.98 0 0.1
-0.96 0 0.1
-0.94 0 0.1
-0.92 0 0.1
-0.9 0 0.1
-0.88 0 0.1
-0.86 0 0.1
-0.84 0 0.1
-0.82 0 0.1
-0.8 0 0.1
-0.78 0 0.1
-0.76 0 0.1
-0.74 0 0.1
-0.72 0 0.1
-0.7 0 0.1
-0.68 0 0.1
-0.66 0 0.1
-0.64 0 0.1
-0.62 0 0.1
-0.6 0 0.1
-0.58 0 0.1
-0.56 0 0.1
-0.54 0 0.1
-0.52 0 0.1
-0.5 0 0.1
-0.48 0 0.1
-0.46 0 0.1
-0.44 0 0.1
-0.42 0 0.1
-0.4 0 0.1
-0.38 0 0.1
-0.36 0 0.1
-0.34 0 0.1
-0.32 0 0.1
-0.3 0 0.1
-0.28 0 0.1
-0.26 0 0.1
-0.24 0 0.1
-0.22 0 0.1
-0.2 0 0.1
-0.18 0 0.1
-0.16 0 0.1
-0.14 0 0.1
-0.12 0 0.1
-0.1 0 0.1
-0.08 0 0.1
-0.06 0 0.1
-0.04 0 0.1
-0.02 0 0.1
0.0182781 0.00745351 0.1
0.0366672 0.0146286 0.1
0.0551632 0.0215237 0.1
0.0737617 0.0281372 0.1
0.0924585 0.0344675 0.1
0.111249 0.0405131 0.1
0.13013 0.0462728 0.1
0.149095 0.0517451 0.1
0.168142 0.0569289 0.1
0.187265 0.0618228 0.1
0.20646 0.0664258 0.1
0.225723 0.0707368 0.1
0.245049 0.0747549 0.1
0.264434 0.078479 0.1
0.283873 0.0819084 0.1
0.303362 0.0850422 0.1
0.322896 0.0878798 0.1
0.342472 0.0904204 0.1
0.362083 0.0926635 0.1
0.381726 0.0946086 0.1
0.401397 0.0962552 0.1
0.42109 0.0976029 0.1
0.440802 0.0986514 0.1
0.460527 0.0994006 0.1
0.480261 0.0998501 0.1
0.5 0.1 0.1
0.519739 0.0998501 0.1
0.539473 0.0994006 0.1
0.559198 0.0986514 0.1
0.57891 0.0976029 0.1
0.598603 0.0962552 0.1
0.618274 0.0946086 0.1
0.637917 0.0926635 0.1
0.657528 0.0904204 0.1
0.677104 0.0878798 0.1
0.696638 0.0850422 0.1
0.716127 0.0819084 0.1
0.735566 0.078479 0.1
0.754951 0.0747549 0.1
0.774277 0.0707368 0.1
0.79354 0.0664258 0.1
0.812735 0.0618228 0.1
0.831858 0.0569289 0.1
0.850905 0.0517451 0.1
0.86987 0.0462728 0.1
0.888751 0.0405131 0.1
0.907542 0.0344675 0.1
0.926238 0.0281372 0.1
0.944837 0.0215237 0.1
0.963333 0.0146286 0.1
0.981722 0.00745351 0.1
1.02 0 0.1
1.04 0 0.1
1.06 0 0.1
1.08 0 0.1
1.1 0 0.1
1.12 0 0.1
1.14 0 0.1
1.16 0 0.1
1.18 0 0.1
1.2 0 0.1
1.22 0 0.1
1.24 0 0.1
1.26 0 0.1
1.28 0 0.1
1.3 0 0.1
1.32 0 0.1
1.34 0 0.1
1.36 0 0.1
1.38 0 0.1
1.4 0 0.1
1.42 0 0.1
1.44 0 0.1
1.46 0 0.1
1.48 0 0.1
1.5 0 0.1
1.52 0 0.1
1.54 0 0.1
1.56 0 0.1
1.58 0 0.1
1.6 0 0.1
1.62 0 0.1
1.64 0 0.1
1.66 0 0.1
1.68 0 0.1
1.7 0 0.1
1.72 0 0.1
1.74 0 0.1
1.76 0 0.1
1.78 0 0.1
1.8 0 0.1
1.82 0 0.1
1.84 0 0.1
1.86 0 0.1
1.88 0 0.1
1.9 0 0.1
1.92 0 0.1
1.94 0 0.1
1.96 0 0.1
1.98 0 0.1
2 0.0199133 0.1
2 0.0414128 0.1
2 0.0646247 0.1
2 0.0896856 0.1
2 0.116743 0.1
2 0.145955 0.1
2 0.177494 0.1
2 0.211545 0.1
2 0.248309 0.1
2 0.288001 0.1
2 0.330854 0.1
2 0.377121 0.1
2 0.427073 0.1
2 0.481004 0.1
2 0.539231 0.1
2 0.602096 0.1
2 0.669968 0.1
2 0.743247 0.1
2 0.822362 0.1
2 0.907779 0.1
1.9 1 0.1
1.8 1 0.1
1.7 1 0.1
1.6 1 0.1
1.5 1 0.1
1.4 1 0.1
1.3 1 0.1
1.2 1 0.1
1.1 1 0.1
1 1 0.1
0.9 1 0.1
0.8 1 0.1
0.7 1 0.1
0.6 1 0.1
0.5 1 0.1
0.4 1 0.1
0.3 1 0.1
0.2 1 0.1
0.1 1 0.1
3.69793e-12 1 0.1
-0.1 1 0.1
-0.2 1 0.1
-0.3 1 0.1
-0.4 1 0.1
-0.5 1 0.1
-0.6 1 0.1
-0.7 1 0.1
-0.8 1 0.1
-0.9 1 0.1
1.08758 0.0158154 0
-0.0898513 0.0203294 0
0.0966181 0.0537636 0
0.90205 0.0548881 0
1.21055 0.0202058 0
-0.209811 0.0159577 0
1.3305 0.0176902 0
-0.33 0.0173205 0
1.45324 0.0148141 0
-0.448654 0.0159854 0
1.56842 0.0191785 0
-0.569936 0.0166364 0
0.193292 0.0805369 0
0.805051 0.0813623 0
0.709096 0.100353 0
0.288591 0.0996656 0
0.390184 0.111848 0
0.61033 0.111742 0
0.488809 0.116278 0
1.67175 0.0169692 0
-0.67 0.0169809 0
-0.955017 0.454039 0
1.95131 0.44569 0
1.74981 0.0168753 0
-0.75 0.0173205 0
-0.968032 0.266538 0
1.96871 0.266267 0
0.978232 0.0305687 0
0.0208675 0.026451 0
-0.150454 0.91842 0
1.13854 0.907437 0
1.45012 0.904365 0
-0.445923 0.908903 0
-0.853423 0.0157019 0
1.84881 0.016319 0
0.853689 0.915652 0
0.153944 0.912184 0
0.545151 0.914125 0
0.549913 0.115152 0
1.51 0.0173205 0
-0.506989 0.01651 0
1.27 0.0173205 0
1.14976 0.0173333 0
-0.268171 0.0206442 0
-0.150501 0.0153244 0
-0.391384 0.0153993 0
1.38886 0.0171544 0
-0.973694 0.161724 0
1.97441 0.162392 0
-0.945221 0.633523 0
1.94544 0.63312 0
1.91008 0.0186068 0
-0.91 0.0169616 0
-0.030664 0.0194327 0
1.03074 0.0165456 0
-0.966065 0.353575 0
1.96128 0.359765 0
1.93879 0.781254 0
-0.937057 0.781882 0
-0.980746 0.080709 0
1.9772 0.0760699 0
0.058735 0.0409372 0
0.355202 0.913001 0
0.86356 0.0661005 0
0.134223 0.0651111 0
0.941972 0.0397386 0
-0.653034 0.915003 0
1.65328 0.904589 0
0.770126 0.0881325 0
0.232946 0.0902008 0
0.330582 0.105648 0
0.670612 0.108365 0
0.428707 0.116145 0
1.80993 0.016629 0
-0.810168 0.0172178 0
-0.71 0.0173205 0
1.63047 0.0175504 0
1.70842 0.0169661 0
-0.628824 0.0181787 0
-0.949815 0.0133898 0
1.95 0.0173205 0
1.85542 0.907891 0
-0.85 0.913397 0
1.9833 0.0307692 0
-0.983315 0.0309709 0
-0.750025 0.916468 0
-0.701107 0.836904 0
-0.607741 0.836428 0
-0.656448 0.759827 0
-0.572936 0.758144 0
-0.61411 0.691195 0
-0.539534 0.689068 0
-0.578542 0.626111 0
-0.507461 0.624216 0
-0.544001 0.566638 0
-0.477696 0.564279 0
-0.511582 0.51001 0
-0.451689 0.507147 0
-0.481834 0.457732 0
-0.426137 0.454624 0
-0.453236 0.407539 0
-0.398845 0.406233 0
-0.507958 0.409496 0
-0.368427 0.460177 0
-0.344602 0.405209 0
-0.315696 0.447824 0
-0.294128 0.402169 0
-0.262844 0.444518 0
-0.241968 0.388746 0
-0.209878 0.439557 0
-0.185184 0.391135 0
-0.156687 0.437338 0
-0.133719 0.390776 0
-0.104405 0.434306 0
-0.0818745 0.388334 0
-0.0528785 0.431165 0
-0.0305984 0.385639 0
-0.00180552 0.427863 0
0.0194564 0.382608 0
0.0485809 0.42449 0
0.0701962 0.37973 0
0.0985483 0.421145 0
0.119893 0.377339 0
0.147837 0.417911 0
0.172552 0.36751 0
0.197018 0.412597 0
0.221203 0.37141 0
0.24512 0.409646 0
-0.48178 0.364657 0
-0.531053 0.364782 0
-0.0599102 0.344151 0
-0.324909 0.359566 0
0.266181 0.368462 0
0.292132 0.407649 0
0.311992 0.365779 0
0.338918 0.404821 0
0.357567 0.355909 0
0.384723 0.40053 0
0.404675 0.359681 0
0.430617 0.398558 0
0.450457 0.35827 0
0.474237 0.395182 0
0.496746 0.34898 0
0.520548 0.397931 0
0.542071 0.353121 0
0.566011 0.389914 0
0.585061 0.350856 0
0.609352 0.38696 0
0.629069 0.348168 0
0.655979 0.391217 0
0.67472 0.346182 0
0.699346 0.381414 0
0.719333 0.341965 0
0.743718 0.377547 0
0.764028 0.339036 0
0.788201 0.373582 0
0.807659 0.336101 0
0.832821 0.372249 0
0.852309 0.334017 0
0.877785 0.370339 0
0.897875 0.331141 0
0.922904 0.366281 0
0.943173 0.327335 0
0.968282 0.363358 0
0.989029 0.324222 0
1.01391 0.361511 0
1.03465 0.321428 0
1.05949 0.358447 0
1.08389 0.312052 0
1.10575 0.355104 0
1.12889 0.31562 0
1.15067 0.353235 0
1.17157 0.312819 0
1.19626 0.349369 0
1.21618 0.309863 0
1.2416 0.346914 0
1.26131 0.30715 0
1.28691 0.344312 0
1.30571 0.303752 0
1.33144 0.341222 0
1.35018 0.300911 0
1.3758 0.338308 0
1.39501 0.298931 0
1.42015 0.335235 0
1.43904 0.296349 0
1.46355 0.330194 0
1.48256 0.293347 0
1.50685 0.326967 0
1.52589 0.29055 0
1.54996 0.325305 0
1.56909 0.287929 0
[...]
CELL_DATA 3694
SCALARS rho float
LOOKUP_TABLE default
0.75779
0.710152
0.806012
0.832383
0.839158
0.807531
0.796293
0.802931
0.827735
0.804845
0.835051
0.835034
0.838833
0.79463
0.803556
0.777348
0.804841
0.805072
0.784083
0.858093
0.831649
0.838337
0.741573
0.805708
0.739056
0.837824
0.736703
0.809546
0.836394
0.800259
0.800367
0.734438
0.805541
0.825851
0.805358
0.814715
0.846157
0.83793
0.837808
0.784024
0.807002
0.819282
0.834146
0.82637
0.808141
0.832289
0.804189
0.709335
0.711822
0.756521
0.804575
0.803993
0.855229
0.805344
0.703571
0.847083
0.805179
0.833652
0.832215
0.773946
0.800571
0.836578
0.852379
0.802469
0.853502
0.843644
0.810624
0.833455
0.746851
0.866406
0.804065
0.810243
0.838368
0.804836
0.839024
0.804016
0.815954
0.801702
0.831941
0.805135
0.744706
0.820294
0.80341
0.782803
0.826845
0.801647
0.83309
0.744589
0.746562
0.836896
0.814967
0.804401
0.82225
0.829957
0.706788
0.809065
0.746582
0.835198
0.83089
0.850563
0.833904
0.78609
0.730404
0.827353
0.826291
0.836554
0.835253
0.809572
0.73598
0.831897
0.802868
0.757642
0.732601
0.835302
0.874625
0.80411
0.815693
0.830683
0.804062
0.803973
0.774495
0.822911
0.834984
0.788756
0.717124
0.772268
0.834537
0.797093
0.852102
0.742196
0.776025
0.80417
0.810572
0.786424
0.804342
0.810757
0.807939
0.80351
0.799739
0.83373
0.831617
0.745441
0.834466
0.833319
0.771381
0.711638
0.708658
0.800023
0.834992
0.815356
0.767134
0.804131
0.660772
0.795833
0.723179
0.786807
0.73863
0.80054
0.66204
0.798023
0.836252
0.685646
0.789484
0.759528
0.854738
0.658005
0.819189
0.803123
0.806293
0.706376
0.803216
0.706089
0.86605
0.662952
0.803394
0.706489
0.866685
0.846065
0.835702
0.754579
0.831593
0.735302
0.841187
0.74973
0.687925
0.804565
0.68821
0.838407
0.804194
0.860258
0.796791
0.716031
0.83616
0.800448
0.762143
0.849975
0.813835
0.856709
0.759044
0.766263
0.781207
0.809202
0.844839
0.833427
0.818566
0.833546
0.713493
0.806916
0.758321
0.80453
0.745921
0.81137
0.799212
0.804813
0.840284
0.786714
0.84384
0.769759
0.840271
0.834522
0.835034
0.850148
0.829631
0.74504
0.841279
0.694077
0.793986
0.825936
0.860397
0.843079
0.825882
0.798431
0.767714
0.8352
0.848132
0.835123
0.749133
0.816125
0.724391
0.80918
0.799116
0.826659
0.699579
0.810393
0.780754
0.801847
0.803988
0.780308
0.835771
0.860928
0.789435
0.705074
0.807637
0.804894
0.687945
0.810297
0.786684
0.803639
0.847908
0.835819
0.664009
0.835391
0.812125
0.814312
0.835264
0.804034
0.817305
0.828076
0.834824
0.777323
0.802937
0.847287
0.813419
0.804047
0.800412
0.836466
0.739389
0.646708
0.834357
0.829255
0.836397
0.807079
0.73145
0.835257
0.835272
0.83159
0.746932
0.811238
0.836528
0.666778
0.80391
0.874537
0.691626
0.781693
0.849779
0.838671
0.836207
0.719054
0.812061
0.836572
0.805933
0.804009
0.814204
0.845742
0.819452
0.778171
0.809752
0.804307
0.685927
0.837065
0.841881
0.715943
0.808206
0.835798
0.821491
0.717135
0.678631
0.837323
0.838757
0.812082
0.744034
0.738935
0.744698
0.76189
0.836402
0.796952
0.806346
0.762319
0.751886
0.837697
0.827115
0.821129
0.78887
0.835755
0.833438
0.835035
0.833687
0.80453
0.810338
0.80716
0.703792
0.803664
0.815249
0.736635
0.810422
0.807561
0.836118
0.792162
0.809076
0.797105
0.836298
0.837059
0.83654
0.800458
0.731685
0.747644
0.802852
0.813356
0.692333
0.805998
0.810723
0.819172
0.76326
0.807125
0.833703
0.830234
0.835221
0.807442
0.801295
0.785799
0.80778
0.854229
0.82188
0.719005
0.806354
0.744064
0.717572
0.804993
0.661125
0.781021
0.791521
0.810194
0.833808
0.838524
0.834341
0.826482
0.836562
0.84184
0.804163
0.785831
0.81234
0.706092
0.835681
0.77821
0.759431
0.725624
0.833596
0.861204
0.835699
0.811881
0.822604
0.835382
0.793219
0.781442
0.827442
0.721666
0.795995
0.852861
0.82655
0.803553
0.871427
0.815581
0.832594
0.835194
0.830795
0.693936
0.815273
0.761635
0.799823
0.747301
0.832569
0.811331
0.803531
0.689572
0.835675
0.830183
0.830767
0.80484
0.806167
0.839134
0.805946
0.745244
0.795531
0.803979
0.835414
0.831158
0.830375
0.877524
0.841862
0.81206
0.845138
0.720468
0.83868
0.849465
0.834555
0.672941
0.835452
0.81199
0.855868
0.83729
0.804485
0.650578
0.812793
0.739051
0.808696
0.803975
0.815089
0.83395
0.826064
0.807526
0.813615
0.83386
0.757385
0.870409
0.803151
0.859711
0.833894
0.663976
0.805999
0.801013
0.830075
0.835208
0.711779
0.804201
0.812249
0.815384
0.809676
0.797947
0.835107
0.834635
0.81359
0.807395
0.837086
0.846179
0.761767
0.8089
0.81275
0.831025
0.714716
0.807973
0.832128
0.801266
0.806749
0.66047
0.845825
0.786956
0.835987
0.835169
0.843873
0.855298
0.833491
0.830538
0.746724
0.801158
0.859657
0.826148
0.7357
0.801991
0.803781
0.87805
0.855676
0.835909
0.803105
0.81228
0.775239
0.834555
0.816309
0.647836
0.80481
0.763065
0.762196
0.805645
0.830077
0.787675
0.822195
0.834949
0.837441
0.832587
0.803647
0.825073
0.74883
0.762028
0.806371
0.825134
0.835628
0.804761
0.76366
0.733024
0.833741
0.817638
0.816043
0.654706
0.833508
0.830422
0.839629
0.804991
0.824236
0.835225
0.814137
0.85098
0.804689
0.81496
0.837392
0.835085
0.830701
0.834093
0.736077
0.790879
0.809978
0.805024
0.857667
0.803553
0.817191
0.677476
0.824567
0.831867
0.813436
0.83593
0.808299
0.832998
0.750547
0.854361
0.719791
0.802641
0.835114
0.809817
0.714351
0.68785
0.817866
0.808244
0.807054
0.803645
0.803226
0.842699
0.830742
0.807425
0.804488
0.830087
0.665764
0.831179
0.805735
0.739094
0.832173
0.699766
0.803258
0.83373
0.84696
0.823327
0.831959
0.810515
0.811111
0.80685
0.803223
0.830938
0.813778
0.826871
0.804684
0.765581
0.806602
0.832199
0.831354
0.83044
0.83047
0.834613
0.835539
0.843775
0.764831
0.809514
0.834448
0.805119
0.63853
0.731803
0.814241
0.833302
0.834888
0.787133
0.811553
0.815707
0.805905
0.803133
0.805222
0.833001
0.834149
0.835463
0.803236
0.824008
0.823116
0.670874
0.784087
0.774014
0.819416
0.757592
0.728573
0.799468
0.778435
0.841378
0.836519
0.835362
0.811114
0.635885
0.818008
0.646146
0.739786
0.839592
0.875114
0.771226
0.83408
0.861859
0.731272
0.833577
0.811721
0.817176
0.809658
0.695959
0.863495
0.749768
0.763439
0.806406
0.80696
0.801216
0.833064
0.83554
0.727169
0.828687
0.802483
0.737054
0.851069
0.80041
0.67339
0.78325
0.834492
0.825315
0.835114
0.79003
0.758102
0.79197
0.835847
0.718835
0.834949
0.83252
0.841277
0.783497
0.837814
0.735178
0.806995
0.698163
0.72889
0.814283
0.824325
0.807077
0.835935
0.83476
0.835225
0.834765
0.651676
0.80345
0.836741
0.764459
0.812621
0.834621
0.830923
0.727439
0.702309
0.762707
0.689376
0.80971
0.720764
0.835096
0.802909
0.83551
0.835835
0.700743
0.818736
0.834803
0.842189
0.768783
0.800154
0.772339
0.790177
0.828774
0.676583
0.684153
0.835298
0.807904
0.828524
0.806945
0.749337
0.796577
0.753121
0.768458
0.802304
0.845011
0.814805
0.720264
0.838707
0.831153
0.829448
0.734404
0.702964
0.723279
0.878338
0.834717
0.833055
0.666171
0.738258
0.684851
0.8062
0.801715
0.707591
0.814637
0.835266
0.776734
0.802687
0.754293
0.833291
0.721714
0.836006
0.812792
0.817706
0.804211
0.836188
0.766013
0.835072
0.836238
0.788319
0.666546
0.818731
0.829041
0.774381
0.834627
0.75676
0.805839
0.838687
0.71293
0.835432
0.803512
0.812077
0.661015
0.688256
0.760528
0.80893
0.830123
0.829138
0.836917
0.817314
0.834469
0.731497
0.802877
0.830667
0.840428
0.73132
0.760692
0.831376
0.826133
0.732701
0.81592
0.791309
0.713968
0.814303
0.725398
0.820456
0.699965
0.803843
0.741455
0.714933
0.829062
0.792742
0.768299
0.676225
0.850152
0.821783
0.831835
0.788136
0.835143
0.80161
0.801801
0.802132
0.804636
0.831617
0.764618
0.812383
0.801944
0.835793
0.658254
0.804074
0.830053
0.830707
0.829252
0.829543
0.764159
0.817755
0.775339
0.768258
0.835314
0.708517
0.835093
0.834454
0.804208
0.83265
0.833826
0.752742
0.775651
0.837611
0.802325
0.806418
0.833256
0.879961
0.833764
0.815842
0.834986
0.835217
0.798124
0.835631
0.832552
0.783532
0.74203
0.852421
0.800941
0.804323
0.823997
0.79726
0.83519
0.8252
0.835694
0.834933
0.876884
0.804261
0.807792
0.835452
0.80424
0.8344
0.809648
0.759976
0.834135
0.836297
0.762393
0.747531
0.833825
0.841895
0.823661
0.715424
0.837612
0.783536
0.825928
0.804477
0.756895
0.803946
0.800644
0.817807
0.833096
0.72199
0.746167
0.804594
0.793072
0.804761
0.835608
0.73369
0.836093
0.804912
0.803136
0.834168
0.835193
0.750654
0.834302
0.776174
0.805143
0.831896
0.805423
0.792222
0.801495
0.798499
0.834911
0.678718
0.83661
0.705334
0.724405
0.805572
0.83623
0.836231
0.804394
0.835109
0.822781
0.757601
0.792505
0.86548
0.804144
0.843346
0.810327
0.65795
0.769919
0.799791
0.704978
0.766667
0.654469
0.831277
0.833541
0.828364
0.80356
0.775723
0.723993
0.786564
0.761193
0.789684
0.836562
0.842747
0.836122
0.808542
0.820273
0.834461
0.805202
0.810803
0.734688
0.805497
0.775634
0.811435
0.799984
0.776739
0.835275
0.794492
0.80575
0.808148
0.850436
0.746703
0.802725
0.80208
0.807436
0.663647
0.83511
0.835114
0.823533
0.700079
0.835116
0.834752
0.80048
0.806097
0.798176
0.795244
0.809806
0.811858
0.834957
0.762
0.820384
0.880276
0.77703
0.772915
0.823273
0.789713
0.853493
0.816664
0.799636
0.831019
0.801753
0.797744
0.810765
0.840281
0.847988
0.802889
0.646253
0.836341
0.84164
0.780558
0.844108
0.848874
0.83788
0.840252
0.810126
0.845033
0.84116
0.790222
0.812046
0.829851
0.823243
0.838184
0.805363
0.827544
0.797961
0.806795
0.808844
0.758154
0.810053
0.645319
0.835132
0.840047
0.842483
0.809111
0.820194
0.839018
0.821154
0.836939
0.850376
0.845917
0.806007
0.801673
0.837497
0.833353
0.834841
0.80248
0.809159
0.872396
0.836457
0.857364
0.833466
0.802685
0.825467
0.803761
0.832585
0.831326
0.83134
0.807951
0.754488
0.804738
0.806976
0.834686
0.805834
0.815559
0.823343
0.807342
0.806512
0.786311
0.821321
0.738644
0.816841
0.800138
0.772772
0.805647
0.815684
0.819839
0.75129
0.83604
0.817395
0.827002
0.834209
0.804611
0.83489
0.844745
0.833151
0.828874
0.814302
0.80331
0.770541
0.72888
0.835858
0.821392
0.791449
0.831673
0.81053
0.829788
0.808207
0.800676
0.784613
0.803495
0.801829
0.851503
0.834984
0.8141
0.809234
0.658686
0.755529
0.805079
0.801663
0.806792
0.833265
0.808677
0.834917
0.787869
0.835643
0.807554
0.828937
0.806374
0.834848
0.803875
0.834951
0.828719
0.833889
0.830305
0.751409
0.831365
0.835017
0.654705
0.835503
0.800958
0.805657
0.866753
0.834149
0.828743
0.878149
0.834019
0.834296
0.834953
0.835679
0.832281
0.775592
0.829959
0.803921
0.805051
0.830994
0.83453
0.834986
0.835055
0.830224
0.824334
0.806185
0.829579
0.811783
0.817634
0.821639
0.835241
0.829139
0.835529
0.811576
0.70622
0.708785
0.804365
0.811648
0.805246
0.828902
0.834866
0.83367
0.804611
0.807171
0.802823
0.802534
0.833999
0.8532
0.835627
0.814298
0.835124
0.835407
0.844193
0.834194
0.822708
0.792248
0.832973
0.809397
0.804633
0.797173
0.827354
0.835302
0.83504
0.833687
0.834815
0.82242
0.832086
0.833559
0.823025
0.805461
0.805443
0.808048
0.829333
0.834846
0.803204
0.819359
0.834879
0.823782
0.803128
0.67443
0.806489
0.810868
0.81939
0.802631
0.805015
0.768871
0.852033
0.805632
0.801416
0.847249
0.843338
0.812895
0.840697
0.802403
0.835115
0.833138
0.835661
0.805587
0.835396
0.761193
0.83789
0.813861
0.802251
0.815537
0.836748
0.802842
0.80614
0.800792
0.817345
0.835204
0.83518
0.83546
0.808964
0.835041
0.834635
0.838561
0.823199
0.849497
0.808651
0.723579
0.834768
0.849541
0.83627
0.807286
0.801443
0.8059
0.83186
0.816446
0.834375
0.757903
0.768899
0.803023
0.805632
0.834195
0.833304
0.816149
0.709199
0.734771
0.810629
0.775882
0.835009
0.723087
0.804135
0.75215
0.804
0.821716
0.803998
0.834971
0.83128
0.801302
0.811301
0.810514
0.82932
0.835087
0.80361
0.805772
0.83354
0.837048
0.773751
0.835916
0.805756
0.788325
0.835088
0.805979
0.813339
0.835757
0.834877
0.846892
0.809933
0.800405
0.835079
0.777786
0.809394
0.835771
0.803808
0.834142
0.839347
0.80454
0.853093
0.822586
0.805055
0.830875
0.803719
0.848839
0.79369
0.804621
0.834997
0.844755
0.810945
0.833052
0.834658
0.80464
0.804413
0.826703
0.798267
0.833662
0.834683
0.710051
0.834771
0.737954
0.819489
0.849083
0.838929
0.8067
0.834809
0.835493
0.752112
0.835586
0.803837
0.802631
0.802857
0.834041
0.871024
0.803042
0.803316
0.791819
0.851999
0.82825
0.835753
0.83126
0.768022
0.818975
0.803915
0.75447
0.802505
0.740727
0.828589
0.802814
0.711464
0.884752
0.728688
0.778689
0.804699
0.769946
0.81101
0.800831
0.803987
0.699497
0.800028
0.790931
0.80125
0.762125
0.835429
0.837956
0.888351
0.812051
0.831614
0.688221
0.802575
0.802277
0.77323
0.770844
0.791126
0.743957
0.805303
0.801681
0.805353
0.777635
0.677557
0.813956
0.669725
0.835192
0.833633
0.813802
0.751331
0.825259
0.813069
0.834402
0.790005
0.824597
0.800259
0.827891
0.74209
0.803374
0.750548
0.803155
0.800546
0.733389
0.806178
0.836077
0.835972
0.804369
0.780341
0.835068
0.743156
0.721793
0.803665
0.836098
0.880132
0.836208
0.83357
0.88475
0.871336
0.840888
0.729637
0.803773
0.814201
0.823032
0.814257
0.729694
0.746839
0.727581
0.803625
0.716343
0.780547
0.800914
0.695679
0.703227
0.845749
0.792329
0.769293
0.843164
0.780491
0.776129
0.690882
0.758376
0.802074
0.833476
0.87509
0.847579
0.834953
0.810256
0.80128
0.74677
0.835455
0.724795
0.800543
0.836363
0.788677
0.781449
0.816521
0.799775
0.804825
0.80234
0.829761
0.813279
0.873336
0.679468
0.653958
0.803994
0.821411
0.734731
0.812891
0.804315
0.847761
0.805418
0.80326
0.655194
0.669528
0.810515
0.830589
0.83564
0.759668
0.804115
0.824824
0.725922
0.8299
0.803869
0.834224
0.803864
0.814162
0.803094
0.83502
0.803604
0.818103
0.805075
0.86923
0.835678
0.80336
0.732449
0.718029
0.83444
0.664063
0.827126
0.812837
0.846694
0.831277
0.804796
0.813132
0.833413
0.831495
0.836381
0.802534
0.85058
0.864646
0.805078
0.712122
0.824773
0.822892
0.801879
0.804402
0.834176
0.766182
0.803857
0.837455
0.83493
0.833029
0.834609
0.78429
0.755221
0.803741
0.845465
0.80594
0.828926
0.807642
0.806836
0.808145
0.834362
0.811781
0.800991
0.809625
0.809156
0.825719
0.80935
0.808929
0.834918
0.809947
0.803933
0.833008
0.803974
0.803577
0.808379
0.810861
0.833145
0.783746
0.80785
0.804067
0.83687
0.801024
0.805718
0.809679
0.843928
0.807424
0.711499
0.802095
0.83312
0.806987
0.816706
0.776097
0.833275
0.768328
0.805493
0.80308
0.80616
0.820753
0.860141
0.806572
0.803888
0.756608
0.84232
0.83619
0.836074
0.825239
0.830638
0.760717
0.83502
0.75393
0.804213
0.840891
0.803627
0.738202
0.839677
0.829758
0.834967
0.838488
0.835303
0.783207
0.834791
0.713288
0.748991
0.836294
0.837451
0.728412
0.83592
0.696529
0.836703
0.810022
0.834872
0.803978
0.808882
0.830319
0.831935
0.825595
0.679102
0.832891
0.852875
0.789139
0.856302
0.802444
0.747184
0.850033
0.836008
0.847714
0.736001
0.730852
0.845611
0.718419
0.843846
0.83597
0.842305
0.809224
0.841048
0.793796
0.839957
0.838949
0.748325
0.872685
0.838113
0.837427
0.824445
0.780445
0.804216
0.653962
0.819732
0.836878
0.832903
0.807869
0.840143
0.837034
0.799784
0.836402
0.804261
0.726354
0.797363
0.834005
0.834706
0.752983
0.81606
0.822793
0.667074
0.834783
0.835163
0.806138
0.812409
0.759389
0.831819
0.804078
0.805163
0.800032
0.811291
0.802132
0.798508
0.803853
0.832254
0.820844
0.833137
0.64385
0.896039
0.736206
0.801373
0.768391
0.79664
0.836838
0.834988
0.835169
0.665763
0.834705
0.819024
0.806329
0.833196
0.836141
0.838572
0.789454
0.801221
0.802562
0.759963
0.777798
0.835555
0.782459
0.81724
0.835696
0.834862
0.815775
0.803419
0.795366
0.81451
0.834896
0.747663
0.81319
0.83493
0.835405
0.810601
0.812124
0.786921
0.83555
0.810826
0.804612
0.810117
0.678152
0.809133
0.806829
0.808558
0.836904
0.843659
0.807237
0.795331
0.807882
0.780107
0.836247
0.822763
0.832728
0.836945
0.847463
0.805154
0.75873
0.821383
0.835598
0.753681
0.803905
0.834936
0.76964
0.83261
0.640587
0.809346
0.716424
0.804264
0.823336
0.83085
0.835115
0.8065
0.830806
0.834561
0.803185
0.807733
0.842902
0.834676
0.800282
0.832944
0.805364
0.804901
0.801814
0.803491
0.823043
0.835192
0.803966
0.791861
0.835373
0.82505
0.811498
0.836927
0.652044
0.80676
0.815855
0.835359
0.805712
0.773517
0.730309
0.832333
0.836426
0.840058
0.807775
0.663512
0.789095
0.702952
0.834991
0.754456
0.831977
0.830763
0.739968
0.801375
0.846011
0.776929
0.8033
0.804423
0.833906
0.815631
0.728008
0.802381
0.655528
0.804229
0.804131
0.804446
0.674716
0.804099
0.805332
0.80521
0.751696
0.760581
0.805353
0.793544
0.835139
0.747758
0.734913
0.835105
0.804184
0.773382
0.861374
0.834168
0.831999
0.707279
0.805221
0.801828
0.802047
0.803424
0.703855
0.80516
0.835249
0.696244
0.719175
0.808709
0.805665
0.835736
0.834192
0.833857
0.834267
0.834533
0.805753
0.83553
0.833625
0.825567
0.829815
0.805333
0.803611
0.813166
0.760625
0.812145
0.833471
0.869116
0.823993
0.685785
0.795647
0.803754
0.784641
0.834791
0.830016
0.840385
0.816682
0.870935
0.805113
0.833452
0.662002
0.818006
0.844028
0.803783
0.83497
0.677972
0.832741
0.803956
0.834766
0.803226
0.834915
0.834545
0.763254
0.806064
0.80381
0.845491
0.8689
0.821398
0.834994
0.736998
0.771164
0.803643
0.804847
0.814765
0.835014
0.801175
0.804562
0.835546
0.82305
0.81019
0.750108
0.803988
0.834025
0.830234
0.78045
0.768635
0.828649
0.800443
0.86493
0.744139
0.845407
0.828204
0.724102
0.803424
0.833299
0.79237
0.801983
0.80309
0.83443
0.795861
0.780967
0.83294
0.711477
0.80026
0.786038
0.834625
0.835105
0.803899
0.804517
0.764429
0.775289
0.790639
0.834842
0.835752
0.822417
0.699159
0.817301
0.811611
0.784701
0.81188
0.832196
0.803232
0.806314
0.702959
0.807191
0.807822
0.860754
0.805766
0.811995
0.844695
0.808475
0.827764
0.861059
0.684489
0.806222
0.834961
0.808112
0.807633
0.808485
0.806981
0.807202
0.806497
0.80865
0.809511
0.753858
0.808654
0.810125
0.82159
0.832848
0.811204
0.83284
0.803945
0.805603
0.833202
0.832999
0.828046
0.803931
0.817582
0.815854
0.824561
0.834265
0.742503
0.833159
0.84352
0.834807
0.863221
0.769848
0.824869
0.836337
0.804224
0.688544
0.804871
0.789264
0.837638
0.669788
0.835006
0.84215
0.835018
0.826752
0.803631
0.827292
0.831636
0.805991
0.782852
0.834777
0.769506
0.644508
0.835367
0.706252
0.733618
0.821314
0.840862
0.841322
0.834676
0.857254
0.678929
0.870741
0.80833
0.839697
0.838569
0.831156
0.72568
0.835719
0.837535
0.834784
0.804452
0.780022
0.823111
0.652014
0.828255
0.853754
0.8052
0.850915
0.83674
0.803861
0.719569
0.841949
0.836103
0.84839
0.802977
0.829327
0.803779
0.846355
0.804474
0.829674
0.84447
0.842824
0.823037
0.839317
0.831172
0.748872
0.717708
0.670118
0.84145
0.840356
0.779279
0.772289
0.823499
0.83932
0.844503
0.671172
0.838401
0.83765
0.837054
0.836144
0.807236
0.822087
0.717098
0.765223
0.836573
0.799831
0.865122
0.893844
0.785573
0.820723
0.703485
0.835158
0.758423
0.753149
0.820734
0.80533
0.790667
0.720199
0.803236
0.835295
0.794687
0.750384
0.817406
0.818989
0.802251
0.726784
0.834192
0.797926
0.834929
0.845681
0.817206
0.813012
0.834858
0.834873
0.792068
0.80647
0.750366
0.839534
0.797795
0.828091
0.789434
0.806941
0.733843
0.801991
0.815798
0.81455
0.813567
0.812111
0.810992
0.810304
0.808594
0.807426
0.809443
0.758854
0.808031
0.802471
0.799875
0.805188
0.842623
0.753002
0.804617
0.784138
0.887682
0.851239
0.801404
0.75808
0.806253
0.80142
0.74404
0.805244
0.804174
0.765103
0.806715
0.807944
0.799702
0.803277
0.754539
0.799094
0.820379
0.774056
0.774684
0.790819
0.803705
0.833706
0.811166
0.782479
0.76463
0.802483
0.833893
0.804854
0.807329
0.802262
0.927433
0.866901
0.833776
0.836576
0.734569
0.854192
0.767924
0.827124
0.828006
0.900545
0.836451
0.799297
0.654151
0.836216
0.799482
0.836007
0.800069
0.853729
0.650489
0.845091
0.803962
0.808448
0.807746
0.806594
0.852734
0.802843
0.83482
0.728253
0.665714
0.698985
0.835823
0.637849
0.799701
0.753487
0.850291
0.816477
0.628788
0.81551
0.834768
0.83467
0.743673
0.804215
0.623034
0.799789
0.835501
0.799995
0.80436
0.800334
0.835271
0.84346
0.803851
0.801338
0.835067
0.801695
0.835015
0.816708
0.802106
0.834983
0.832995
0.834981
0.802286
0.835
0.710298
0.802549
0.83504
0.8042
0.80277
0.835088
0.737538
0.835839
0.799975
0.836746
0.802038
0.827505
0.837687
0.869155
0.802349
0.803978
0.835416
0.817695
0.803591
0.803168
0.859175
0.825122
0.835298
0.827968
0.858325
0.842424
0.83421
0.826875
0.856619
0.835933
0.805183
0.836019
0.823789
0.805691
0.835248
0.802832
0.820129
0.788489
0.810244
0.833983
0.814033