# vtk DataFile Version 1.0
unstructured grid
ascii
DATASET UNSTRUCTURED_GRID
points 3920 float
-1 0 0
-1 1 0
2 0 0
2 1 0
0 0 0
1 0 0
-1 1 0.1
-1 0 0.1
0 0 0.1
1 0 0.1
2 0 0.1
2 1 0.1
-0.98 0 0
-0.96 0 0
-0.94 0 0
-0.92 0 0
-0.9 0 0
-0.88 0 0
-0.86 0 0
-0.84 0 0
-0.82 0 0
-0.8 0 0
-0.78 0 0
-0.76 0 0
-0.74 0 0
-0.72 0 0
-0.7 0 0
-0.68 0 0
-0.66 0 0
-0.64 0 0
-0.62 0 0
-0.6 0 0
-0.58 0 0
-0.56 0 0
-0.54 0 0
-0.52 0 0
-0.5 0 0
-0.48 0 0
-0.46 0 0
-0.44 0 0
-0.42 0 0
-0.4 0 0
-0.38 0 0
-0.36 0 0
-0.34 0 0
-0.32 0 0
-0.3 0 0
-0.28 0 0
-0.26 0 0
-0.24 0 0
-0.22 0 0
-0.2 0 0
-0.18 0 0
-0.16 0 0
-0.14 0 0
-0.12 0 0
-0.1 0 0
-0.08 0 0
-0.06 0 0
-0.04 0 0
-0.02 0 0
1.02 0 0
1.04 0 0
1.06 0 0
1.08 0 0
1.1 0 0
1.12 0 0
1.14 0 0
1.16 0 0
1.18 0 0
1.2 0 0
1.22 0 0
1.24 0 0
1.26 0 0
1.28 0 0
1.3 0 0
1.32 0 0
1.34 0 0
1.36 0 0
1.38 0 0
1.4 0 0
1.42 0 0
1.44 0 0
1.46 0 0
1.48 0 0
1.5 0 0
1.52 0 0
1.54 0 0
1.56 0 0
1.58 0 0
1.6 0 0
1.62 0 0
1.64 0 0
1.66 0 0
1.68 0 0
1.7 0 0
1.72 0 0
1.74 0 0
1.76 0 0
1.78 0 0
1.8 0 0
1.82 0 0
1.84 0 0
1.86 0 0
1.88 0 0
1.9 0 0
1.92 0 0
1.94 0 0
1.96 0 0
1.98 0 0
2 0.0199133 0
2 0.0414128 0
2 0.0646247 0
2 0.0896856 0
2 0.116743 0
2 0.145955 0
2 0.177494 0
2 0.211545 0
2 0.248309 0
2 0.288001 0
2 0.330854 0
2 0.377121 0
2 0.427073 0
2 0.481004 0
2 0.539231 0
2 0.602096 0
2 0.669968 0
2 0.743247 0
2 0.822362 0
2 0.907779 0
1.9 1 0
1.8 1 0
1.7 1 0
1.6 1 0
1.5 1 0
1.4 1 0
1.3 1 0
1.2 1 0
1.1 1 0
1 1 0
0.9 1 0
0.8 1 0
0.7 1 0
0.6 1 0
0.5 1 0
0.4 1 0
0.3 1 0
0.2 1 0
0.1 1 0
3.69793e-12 1 0
-0.1 1 0
-0.2 1 0
-0.3 1 0
-0.4 1 0
-0.5 1 0
-0.6 1 0
-0.7 1 0
-0.8 1 0
-0.9 1 0
-1 0.907779 0
-1 0.822362 0
-1 0.743247 0
-1 0.669968 0
-1 0.602096 0
-1 0.539231 0
-1 0.481004 0
-1 0.427073 0
-1 0.377121 0
-1 0.330854 0
-1 0.288001 0
-1 0.248309 0
-1 0.211545 0
-1 0.177494 0
-1 0.145955 0
-1 0.116743 0
-1 0.0896856 0
-1 0.0646247 0
-1 0.0414128 0
-1 0.0199133 0
0.0182781 0.00745351 0
0.0366672 0.0146286 0
0.0551632 0.0215237 0
0.0737617 0.0281372 0
0.0924585 0.0344675 0
0.111249 0.0405131 0
0.13013 0.0462728 0
0.149095 0.0517451 0
0.168142 0.0569289 0
0.187265 0.0618228 0
0.20646 0.0664258 0
0.225723 0.0707368 0
0.245049 0.0747549 0
0.264434 0.078479 0
0.283873 0.0819084 0
0.303362 0.0850422 0
0.322896 0.0878798 0
0.342472 0.0904204 0
0.362083 0.0926635 0
0.381726 0.0946086 0
0.401397 0.0962552 0
0.42109 0.0976029 0
0.440802 0.0986514 0
0.460527 0.0994006 0
0.480261 0.0998501 0
0.5 0.1 0
0.519739 0.0998501 0
0.539473 0.0994006 0
0.559198 0.0986514 0
0.57891 0.0976029 0
0.598603 0.0962552 0
0.618274 0.0946086 0
0.637917 0.0926635 0
0.657528 0.0904204 0
0.677104 0.0878798 0
0.696638 0.0850422 0
0.716127 0.0819084 0
0.735566 0.078479 0
0.754951 0.0747549 0
0.774277 0.0707368 0
0.79354 0.0664258 0
0.812735 0.0618228 0
0.831858 0.0569289 0
0.850905 0.0517451 0
0.86987 0.0462728 0
0.888751 0.0405131 0
0.907542 0.0344675 0
0.926238 0.0281372 0
0.944837 0.0215237 0
0.963333 0.0146286 0
0.981722 0.00745351 0
-1 0.907779 0.1
-1 0.822362 0.1
-1 0.743247 0.1
-1 0.669968 0.1
-1 0.602096 0.1
-1 0.539231 0.1
-1 0.481004 0.1
-1 0.427073 0.1
-1 0.377121 0.1
-1 0.330854 0.1
-1 0.288001 0.1
-1 0.248309 0.1
-1 0.211545 0.1
-1 0.177494 0.1
-1 0.145955 0.1
-1 0.116743 0.1
-1 0.0896856 0.1
-1 0.0646247 0.1
-1 0.0414128 0.1
-1 0.0199133 0.1
-0.98 0 0.1
-0.96 0 0.1
-0.94 0 0.1
-0.92 0 0.1
-0.9 0 0.1
-0.88 0 0.1
-0.86 0 0.1
-0.84 0 0.1
-0.82 0 0.1
-0.8 0 0.1
-0.78 0 0.1
-0.76 0 0.1
-0.74 0 0.1
-0.72 0 0.1
-0.7 0 0.1
-0.68 0 0.1
-0.66 0 0.1
-0.64 0 0.1
-0.62 0 0.1
-0.6 0 0.1
-0.58 0 0.1
-0.56 0 0.1
-0.54 0 0.1
-0.52 0 0.1
-0.5 0 0.1
-0.48 0 0.1
-0.46 0 0.1
-0.44 0 0.1
-0.42 0 0.1
-0.4 0 0.1
-0.38 0 0.1
-0.36 0 0.1
-0.34 0 0.1
-0.32 0 0.1
-0.3 0 0.1
-0.28 0 0.1
-0.26 0 0.1
-0.24 0 0.1
-0.22 0 0.1
-0.2 0 0.1
-0.18 0 0.1
-0.16 0 0.1
-0.14 0 0.1
-0.12 0 0.1
-0.1 0 0.1
-0.08 0 0.1
-0.06 0 0.1
-0.04 0 0.1
-0.02 0 0.1
0.0182781 0.00745351 0.1
0.0366672 0.0146286 0.1
0.0551632 0.0215237 0.1
0.0737617 0.0281372 0.1
0.0924585 0.0344675 0.1
0.111249 0.0405131 0.1
0.13013 0.0462728 0.1
0.149095 0.0517451 0.1
0.168142 0.0569289 0.1
0.187265 0.0618228 0.1
0.20646 0.0664258 0.1
0.225723 0.0707368 0.1
0.245049 0.0747549 0.1
0.264434 0.078479 0.1
0.283873 0.0819084 0.1
0.303362 0.0850422 0.1
0.322896 0.0878798 0.1
0.342472 0.0904204 0.1
0.362083 0.0926635 0.1
0.381726 0.0946086 0.1
0.401397 0.0962552 0.1
0.42109 0.0976029 0.1
0.440802 0.0986514 0.1
0.460527 0.0994006 0.1
0.480261 0.0998501 0.1
0.5 0.1 0.1
0.519739 0.0998501 0.1
0.539473 0.0994006 0.1
0.559198 0.0986514 0.1
0.57891 0.0976029 0.1
0.598603 0.0962552 0.1
0.618274 0.0946086 0.1
0.637917 0.0926635 0.1
0.657528 0.0904204 0.1
0.677104 0.0878798 0.1
0.696638 0.0850422 0.1
0.716127 0.0819084 0.1
0.735566 0.078479 0.1
0.754951 0.0747549 0.1
0.774277 0.0707368 0.1
0.79354 0.0664258 0.1
0.812735 0.0618228 0.1
0.831858 0.0569289 0.1
0.850905 0.0517451 0.1
0.86987 0.0462728 0.1
0.888751 0.0405131 0.1
0.907542 0.0344675 0.1
0.926238 0.0281372 0.1
0.944837 0.0215237 0.1
0.963333 0.0146286 0.1
0.981722 0.00745351 0.1
1.02 0 0.1
1.04 0 0.1
1.06 0 0.1
1.08 0 0.1
1.1 0 0.1
1.12 0 0.1
1.14 0 0.1
1.16 0 0.1
1.18 0 0.1
1.2 0 0.1
1.22 0 0.1
1.24 0 0.1
1.26 0 0.1
1.28 0 0.1
1.3 0 0.1
1.32 0 0.1
1.34 0 0.1
1.36 0 0.1
1.38 0 0.1
1.4 0 0.1
1.42 0 0.1
1.44 0 0.1
1.46 0 0.1
1.48 0 0.1
1.5 0 0.1
1.52 0 0.1
1.54 0 0.1
1.56 0 0.1
1.58 0 0.1
1.6 0 0.1
1.62 0 0.1
1.64 0 0.1
1.66 0 0.1
1.68 0 0.1
1.7 0 0.1
1.72 0 0.1
1.74 0 0.1
1.76 0 0.1
1.78 0 0.1
1.8 0 0.1
1.82 0 0.1
1.84 0 0.1
1.86 0 0.1
1.88 0 0.1
1.9 0 0.1
1.92 0 0.1
1.94 0 0.1
1.96 0 0.1
1.98 0 0.1
2 0.0199133 0.1
2 0.0414128 0.1
2 0.0646247 0.1
2 0.0896856 0.1
2 0.116743 0.1
2 0.145955 0.1
2 0.177494 0.1
2 0.211545 0.1
2 0.248309 0.1
2 0.288001 0.1
2 0.330854 0.1
2 0.377121 0.1
2 0.427073 0.1
2 0.481004 0.1
2 0.539231 0.1
2 0.602096 0.1
2 0.669968 0.1
2 0.743247 0.1
2 0.822362 0.1
2 0.907779 0.1
1.9 1 0.1
1.8 1 0.1
1.7 1 0.1
1.6 1 0.1
1.5 1 0.1
1.4 1 0.1
1.3 1 0.1
1.2 1 0.1
1.1 1 0.1
1 1 0.1
0.9 1 0.1
0.8 1 0.1
0.7 1 0.1
0.6 1 0.1
0.5 1 0.1
0.4 1 0.1
0.3 1 0.1
0.2 1 0.1
0.1 1 0.1
3.69793e-12 1 0.1
-0.1 1 0.1
-0.2 1 0.1
-0.3 1 0.1
-0.4 1 0.1
-0.5 1 0.1
-0.6 1 0.1
-0.7 1 0.1
-0.8 1 0.1
-0.9 1 0.1
1.08758 0.0158154 0
-0.0898513 0.0203294 0
0.0966181 0.0537636 0
0.90205 0.0548881 0
1.21055 0.0202058 0
-0.209811 0.0159577 0
1.3305 0.0176902 0
-0.33 0.0173205 0
1.45324 0.0148141 0
-0.448654 0.0159854 0
1.56842 0.0191785 0
-0.569936 0.0166364 0
0.193292 0.0805369 0
0.805051 0.0813623 0
0.709096 0.100353 0
0.288591 0.0996656 0
0.390184 0.111848 0
0.61033 0.111742 0
0.488809 0.116278 0
1.67175 0.0169692 0
-0.67 0.0169809 0
-0.955017 0.454039 0
1.95131 0.44569 0
1.74981 0.0168753 0
-0.75 0.0173205 0
-0.968032 0.266538 0
1.96871 0.266267 0
0.978232 0.0305687 0
0.0208675 0.026451 0
-0.150454 0.91842 0
1.13854 0.907437 0
1.45012 0.904365 0
-0.445923 0.908903 0
-0.853423 0.0157019 0
1.84881 0.016319 0
0.853689 0.915652 0
0.153944 0.912184 0
0.545151 0.914125 0
0.549913 0.115152 0
1.51 0.0173205 0
-0.506989 0.01651 0
1.27 0.0173205 0
1.14976 0.0173333 0
-0.268171 0.0206442 0
-0.150501 0.0153244 0
-0.391384 0.0153993 0
1.38886 0.0171544 0
-0.973694 0.161724 0
1.97441 0.162392 0
-0.945221 0.633523 0
1.94544 0.63312 0
1.91008 0.0186068 0
-0.91 0.0169616 0
-0.030664 0.0194327 0
1.03074 0.0165456 0
-0.966065 0.353575 0
1.96128 0.359765 0
1.93879 0.781254 0
-0.937057 0.781882 0
-0.980746 0.080709 0
1.9772 0.0760699 0
0.058735 0.0409372 0
0.355202 0.913001 0
0.86356 0.0661005 0
0.134223 0.0651111 0
0.941972 0.0397386 0
-0.653034 0.915003 0
1.65328 0.904589 0
0.770126 0.0881325 0
0.232946 0.0902008 0
0.330582 0.105648 0
0.670612 0.108365 0
0.428707 0.116145 0
1.80993 0.016629 0
-0.810168 0.0172178 0
-0.71 0.0173205 0
1.63047 0.0175504 0
1.70842 0.0169661 0
-0.628824 0.0181787 0
-0.949815 0.0133898 0
1.95 0.0173205 0
1.85542 0.907891 0
-0.85 0.913397 0
1.9833 0.0307692 0
-0.983315 0.0309709 0
-0.750025 0.916468 0
-0.701107 0.836904 0
-0.607741 0.836428 0
-0.656448 0.759827 0
-0.572936 0.758144 0
-0.61411 0.691195 0
-0.539534 0.689068 0
-0.578542 0.626111 0
-0.507461 0.624216 0
-0.544001 0.566638 0
-0.477696 0.564279 0
-0.511582 0.51001 0
-0.451689 0.507147 0
-0.481834 0.457732 0
-0.426137 0.454624 0
-0.453236 0.407539 0
-0.398845 0.406233 0
-0.507958 0.409496 0
-0.368427 0.460177 0
-0.344602 0.405209 0
-0.315696 0.447824 0
-0.294128 0.402169 0
-0.262844 0.444518 0
-0.241968 0.388746 0
-0.209878 0.439557 0
-0.185184 0.391135 0
-0.156687 0.437338 0
-0.133719 0.390776 0
-0.104405 0.434306 0
-0.0818745 0.388334 0
-0.0528785 0.431165 0
-0.0305984 0.385639 0
-0.00180552 0.427863 0
0.0194564 0.382608 0
0.0485809 0.42449 0
0.0701962 0.37973 0
0.0985483 0.421145 0
0.119893 0.377339 0
0.147837 0.417911 0
0.172552 0.36751 0
0.197018 0.412597 0
0.221203 0.37141 0
0.24512 0.409646 0
-0.48178 0.364657 0
-0.531053 0.364782 0
-0.0599102 0.344151 0
-0.324909 0.359566 0
0.266181 0.368462 0
0.292132 0.407649 0
0.311992 0.365779 0
0.338918 0.404821 0
0.357567 0.355909 0
0.384723 0.40053 0
0.404675 0.359681 0
0.430617 0.398558 0
0.450457 0.35827 0
0.474237 0.395182 0
0.496746 0.34898 0
0.520548 0.397931 0
0.542071 0.353121 0
0.566011 0.389914 0
0.585061 0.350856 0
0.609352 0.38696 0
0.629069 0.348168 0
0.655979 0.391217 0
0.67472 0.346182 0
0.699346 0.381414 0
0.719333 0.341965 0
0.743718 0.377547 0
0.764028 0.339036 0
0.788201 0.373582 0
0.807659 0.336101 0
0.832821 0.372249 0
0.852309 0.334017 0
0.877785 0.370339 0
0.897875 0.331141 0
0.922904 0.366281 0
0.943173 0.327335 0
0.968282 0.363358 0
0.989029 0.324222 0
1.01391 0.361511 0
1.03465 0.321428 0
1.05949 0.358447 0
1.08389 0.312052 0
1.10575 0.355104 0
1.12889 0.31562 0
1.15067 0.353235 0
1.17157 0.312819 0
1.19626 0.349369 0
1.21618 0.309863 0
1.2416 0.346914 0
1.26131 0.30715 0
1.28691 0.344312 0
1.30571 0.303752 0
1.33144 0.341222 0
1.35018 0.300911 0
1.3758 0.338308 0
1.39501 0.298931 0
1.42015 0.335235 0
1.43904 0.296349 0
1.46355 0.330194 0
1.48256 0.293347 0
1.50685 0.326967 0
1.52589 0.29055 0
1.54996 0.325305 0
1.56909 0.287929 0
[...]
CELL_DATA 3694
SCALARS rho float
LOOKUP_TABLE default
0.799814
0.768889
0.812843
0.868089
0.862672
0.815505
0.806096
0.810669
0.860232
0.809762
0.867606
0.867552
0.843785
0.805401
0.81057
0.81633
0.809004
0.810341
0.820854
0.875096
0.857996
0.865685
0.790023
0.81268
0.78831
0.84305
0.779279
0.82017
0.840881
0.802173
0.801951
0.777603
0.810945
0.833233
0.812178
0.84539
0.865223
0.865011
0.861874
0.807461
0.814591
0.828091
0.839396
0.833774
0.820833
0.868057
0.814252
0.764191
0.767967
0.798821
0.811567
0.80722
0.87286
0.814847
0.763914
0.866109
0.811899
0.860231
0.838241
0.81156
0.811779
0.874625
0.87217
0.809732
0.873832
0.866991
0.820675
0.869954
0.783421
0.882749
0.806231
0.819235
0.865731
0.809174
0.865148
0.807227
0.826313
0.805044
0.865049
0.812008
0.786143
0.828851
0.804564
0.806776
0.857767
0.804918
0.859867
0.785822
0.783494
0.85964
0.843679
0.808702
0.830631
0.856494
0.76361
0.817815
0.790841
0.867039
0.865054
0.870867
0.869327
0.822474
0.773446
0.859451
0.857207
0.874583
0.867245
0.818487
0.77913
0.863999
0.812125
0.799426
0.774785
0.858192
0.888832
0.807862
0.844545
0.864857
0.806159
0.807502
0.800555
0.832868
0.862558
0.823152
0.764603
0.798538
0.865692
0.830661
0.87015
0.791383
0.801425
0.818334
0.819636
0.802775
0.814621
0.839332
0.816259
0.804873
0.802087
0.868954
0.864339
0.794059
0.866497
0.869488
0.79824
0.765976
0.764928
0.80276
0.869971
0.824578
0.798442
0.806963
0.736292
0.828082
0.772943
0.823108
0.785444
0.831772
0.735285
0.810171
0.841078
0.750263
0.803864
0.801256
0.874664
0.733872
0.827976
0.809777
0.816882
0.763741
0.807996
0.766645
0.882562
0.735367
0.812674
0.766117
0.861258
0.869064
0.862815
0.788509
0.863508
0.77797
0.866578
0.786238
0.75157
0.808823
0.748366
0.865222
0.811072
0.878326
0.81382
0.764863
0.874101
0.803833
0.794478
0.85018
0.823226
0.873606
0.800915
0.798293
0.802589
0.8381
0.868415
0.839321
0.827791
0.869156
0.771778
0.814244
0.802923
0.807821
0.788774
0.839012
0.807109
0.814265
0.866183
0.822934
0.867852
0.808233
0.866261
0.861051
0.870158
0.85036
0.836363
0.791137
0.866559
0.751814
0.808449
0.854701
0.878412
0.86654
0.857907
0.817182
0.798707
0.867335
0.869472
0.86747
0.796605
0.845363
0.773186
0.839349
0.807173
0.856791
0.76253
0.81993
0.818282
0.817098
0.806107
0.817532
0.873094
0.857733
0.810942
0.757592
0.819891
0.814405
0.752181
0.841574
0.802839
0.807431
0.866751
0.873474
0.737189
0.872205
0.825751
0.845039
0.871553
0.806537
0.826901
0.853368
0.840236
0.815072
0.803468
0.869804
0.823473
0.806323
0.810878
0.874469
0.778368
0.724016
0.866216
0.836663
0.865022
0.822792
0.781965
0.871536
0.871924
0.858398
0.788378
0.838868
0.874546
0.738513
0.805786
0.887232
0.751104
0.819259
0.870589
0.861045
0.874131
0.767114
0.821486
0.87462
0.812114
0.808946
0.824769
0.864912
0.828238
0.801237
0.818736
0.807339
0.749712
0.865762
0.866811
0.773799
0.838655
0.866401
0.831965
0.773736
0.741973
0.865694
0.864943
0.821363
0.781584
0.788783
0.792949
0.798073
0.865223
0.83051
0.81301
0.799089
0.78654
0.864777
0.857647
0.829726
0.823353
0.873058
0.869337
0.867269
0.865941
0.809681
0.819688
0.817212
0.756646
0.805117
0.824595
0.782925
0.820996
0.815562
0.866163
0.804625
0.820726
0.810185
0.874219
0.865769
0.865868
0.804316
0.781444
0.78995
0.811653
0.822752
0.758242
0.812335
0.821226
0.828047
0.795077
0.815719
0.865145
0.864477
0.866824
0.815251
0.810898
0.821729
0.818629
0.874171
0.830148
0.766802
0.814082
0.792808
0.764848
0.80971
0.733357
0.802299
0.808414
0.824223
0.870881
0.862716
0.865545
0.852148
0.865903
0.866211
0.808058
0.821757
0.823073
0.766845
0.865223
0.815622
0.803849
0.774685
0.869507
0.876991
0.865209
0.822127
0.832627
0.872009
0.80769
0.818844
0.859924
0.773466
0.806065
0.871474
0.834713
0.810709
0.886523
0.824745
0.861485
0.867345
0.837349
0.759685
0.84481
0.798828
0.802333
0.784795
0.857553
0.820673
0.833895
0.74848
0.873169
0.836669
0.865401
0.80912
0.813437
0.865395
0.812115
0.787282
0.81273
0.806225
0.872693
0.862234
0.862658
0.890505
0.866805
0.82151
0.86848
0.77642
0.865749
0.871058
0.868082
0.741822
0.872203
0.821874
0.875361
0.865664
0.808946
0.726973
0.822486
0.789744
0.817242
0.807182
0.824937
0.870994
0.833828
0.8155
0.824171
0.866313
0.796806
0.885656
0.803962
0.877977
0.865629
0.738405
0.812315
0.812333
0.863866
0.86708
0.767339
0.808152
0.82167
0.824761
0.818418
0.8066
0.870826
0.866015
0.844158
0.818155
0.864956
0.865446
0.799933
0.817566
0.822885
0.863609
0.769994
0.816677
0.861113
0.803858
0.814581
0.733925
0.868907
0.823193
0.873827
0.86678
0.867292
0.873429
0.86495
0.865266
0.787391
0.804528
0.875602
0.85821
0.783295
0.803787
0.807206
0.890881
0.875156
0.866224
0.803763
0.822246
0.812441
0.869563
0.825496
0.725611
0.809742
0.804361
0.793629
0.812396
0.864316
0.808405
0.832909
0.870929
0.841654
0.862506
0.811877
0.854043
0.78512
0.804508
0.813103
0.855838
0.861757
0.810888
0.794499
0.785756
0.870479
0.82701
0.82602
0.729992
0.869711
0.855722
0.865984
0.80953
0.852249
0.86308
0.823913
0.872069
0.809613
0.824094
0.862174
0.870763
0.855041
0.857762
0.787316
0.808369
0.838509
0.80952
0.876627
0.807817
0.844293
0.744265
0.850233
0.865299
0.822959
0.866301
0.816637
0.869315
0.794203
0.874319
0.766695
0.806202
0.867509
0.818579
0.769272
0.747057
0.827189
0.816618
0.815336
0.83524
0.807888
0.866734
0.861892
0.815303
0.809633
0.862407
0.736595
0.865583
0.812875
0.784453
0.86209
0.761451
0.835677
0.866915
0.866053
0.85456
0.867647
0.841761
0.83984
0.815006
0.808048
0.865567
0.823299
0.859324
0.808714
0.79558
0.814236
0.868222
0.866886
0.856364
0.865196
0.868783
0.87275
0.863456
0.798861
0.818832
0.86881
0.811872
0.722296
0.783323
0.824207
0.869839
0.870808
0.807772
0.821875
0.825657
0.813246
0.811283
0.811429
0.857312
0.858767
0.872494
0.834974
0.852464
0.854433
0.739011
0.80202
0.799552
0.845041
0.799011
0.780446
0.80153
0.8016
0.865802
0.87453
0.872589
0.821172
0.719847
0.827117
0.723875
0.786002
0.865964
0.887699
0.81153
0.865772
0.879345
0.784183
0.866688
0.822171
0.826246
0.824286
0.75787
0.880818
0.786164
0.804535
0.815166
0.814431
0.802519
0.838814
0.872501
0.780735
0.853459
0.808005
0.784245
0.872143
0.803714
0.743023
0.802045
0.868873
0.856712
0.871902
0.810394
0.797265
0.826825
0.841726
0.772377
0.869745
0.859817
0.86661
0.818248
0.865729
0.786875
0.81452
0.758746
0.779418
0.841266
0.832121
0.838824
0.8738
0.870159
0.87168
0.872159
0.730359
0.804506
0.874853
0.804255
0.821786
0.869708
0.865992
0.772298
0.756748
0.802969
0.755693
0.824526
0.776345
0.87068
0.803286
0.872604
0.84161
0.756788
0.845479
0.861691
0.862229
0.809406
0.832184
0.800071
0.823096
0.85829
0.743754
0.745729
0.871764
0.816183
0.85766
0.814378
0.796657
0.827972
0.791118
0.797489
0.807498
0.868355
0.824203
0.772831
0.865762
0.855868
0.86327
0.785052
0.756487
0.778611
0.891565
0.869142
0.862559
0.738346
0.786381
0.750399
0.813713
0.801839
0.76569
0.824068
0.857147
0.815658
0.810501
0.790766
0.868232
0.774177
0.873795
0.824241
0.846646
0.806468
0.857795
0.806097
0.870441
0.874074
0.805848
0.738774
0.827872
0.861976
0.799682
0.872028
0.790122
0.813578
0.861599
0.767603
0.866665
0.804466
0.825367
0.736807
0.749863
0.803361
0.817528
0.862884
0.862505
0.865105
0.82655
0.868225
0.780753
0.803169
0.862356
0.865638
0.78122
0.802096
0.866373
0.852287
0.784871
0.82849
0.823829
0.764341
0.823456
0.777319
0.84939
0.760349
0.806531
0.780687
0.773107
0.861526
0.808449
0.808981
0.744406
0.869718
0.831891
0.862298
0.821918
0.872692
0.802115
0.832009
0.805169
0.812493
0.86118
0.806134
0.82206
0.803791
0.86639
0.733173
0.810067
0.860926
0.860965
0.861224
0.860969
0.795145
0.845047
0.800236
0.797142
0.865259
0.768275
0.864732
0.864592
0.806964
0.863399
0.864455
0.792051
0.802073
0.865105
0.833251
0.814247
0.864351
0.891587
0.861935
0.846641
0.868098
0.871504
0.806972
0.866513
0.860597
0.801976
0.788539
0.873005
0.817021
0.806998
0.83182
0.828398
0.866503
0.833786
0.866334
0.867766
0.890364
0.807052
0.816503
0.866433
0.807148
0.869065
0.818453
0.794245
0.868435
0.86597
0.793641
0.79096
0.867737
0.844724
0.831532
0.770445
0.865717
0.803263
0.857698
0.81018
0.801132
0.806288
0.802577
0.82701
0.862123
0.771324
0.793377
0.809651
0.811685
0.81297
0.857361
0.775873
0.87381
0.810809
0.809831
0.856075
0.871293
0.797151
0.868325
0.800214
0.812609
0.838606
0.810806
0.825921
0.818602
0.816813
0.871055
0.744472
0.874681
0.759084
0.774624
0.811319
0.866112
0.87406
0.807856
0.871523
0.849233
0.802329
0.813231
0.881992
0.80705
0.863371
0.819959
0.734026
0.798379
0.832848
0.766926
0.808622
0.733002
0.853865
0.870416
0.854579
0.804989
0.800999
0.779107
0.822547
0.792953
0.805875
0.874609
0.845806
0.86612
0.817117
0.830624
0.856271
0.811469
0.820836
0.779532
0.811509
0.812327
0.820743
0.802687
0.815614
0.859245
0.807905
0.811546
0.839595
0.869446
0.785407
0.804704
0.806868
0.81539
0.734592
0.871003
0.871199
0.831573
0.762586
0.871374
0.870399
0.802313
0.812716
0.809477
0.828895
0.820688
0.842098
0.869766
0.793312
0.849845
0.892007
0.800174
0.812748
0.852339
0.809989
0.873685
0.846291
0.832782
0.858979
0.810368
0.810866
0.819829
0.866246
0.870125
0.810734
0.726799
0.864675
0.865707
0.80381
0.867893
0.869196
0.864573
0.865205
0.81943
0.867268
0.866488
0.809466
0.821947
0.863629
0.853467
0.865612
0.810883
0.835062
0.814005
0.817528
0.819506
0.803064
0.820104
0.727301
0.866125
0.866089
0.86707
0.819271
0.82879
0.865759
0.829619
0.865672
0.871566
0.868883
0.837301
0.801802
0.865566
0.866062
0.867423
0.805809
0.818
0.886768
0.865828
0.876297
0.866972
0.805376
0.833329
0.817333
0.839288
0.863831
0.860085
0.816366
0.791983
0.808791
0.814641
0.870531
0.813154
0.842153
0.831612
0.823186
0.813676
0.805146
0.829818
0.781025
0.826468
0.833151
0.798758
0.811599
0.825037
0.830471
0.798036
0.866056
0.8265
0.834599
0.865145
0.833784
0.868953
0.847218
0.838682
0.854537
0.82393
0.80556
0.811314
0.782405
0.873307
0.832221
0.826021
0.862997
0.81993
0.862583
0.817062
0.803598
0.804922
0.804786
0.803436
0.870981
0.866946
0.823603
0.821139
0.733646
0.791583
0.813065
0.833533
0.814697
0.865168
0.81759
0.869478
0.805338
0.872793
0.816082
0.862293
0.813984
0.865555
0.805458
0.869965
0.861187
0.86679
0.862042
0.798238
0.8619
0.870479
0.730124
0.872685
0.811457
0.8133
0.882816
0.862541
0.86166
0.890816
0.868279
0.868933
0.868051
0.866046
0.863065
0.800308
0.836866
0.809702
0.809754
0.860682
0.869819
0.868402
0.871432
0.86059
0.832148
0.813168
0.860499
0.821352
0.826855
0.830125
0.871871
0.860627
0.864721
0.821213
0.759033
0.768889
0.807595
0.821618
0.810249
0.860927
0.864547
0.863543
0.808312
0.817164
0.806569
0.804234
0.864965
0.87128
0.866522
0.823873
0.865099
0.866658
0.846499
0.864367
0.830737
0.807915
0.864085
0.818112
0.814073
0.809372
0.857228
0.865604
0.871594
0.867558
0.840275
0.851694
0.867682
0.864211
0.831081
0.810875
0.811281
0.816361
0.863136
0.870951
0.805179
0.848548
0.86772
0.831683
0.807331
0.741491
0.813519
0.838513
0.828167
0.816979
0.811425
0.807744
0.872697
0.813823
0.802646
0.869723
0.867551
0.822586
0.866373
0.804795
0.866427
0.861418
0.866311
0.811323
0.866381
0.801076
0.865622
0.823357
0.805463
0.824792
0.865795
0.812728
0.812547
0.832851
0.826545
0.871485
0.871266
0.866128
0.817616
0.867917
0.869249
0.861907
0.831229
0.871067
0.817581
0.77522
0.865185
0.868093
0.865955
0.815545
0.801834
0.813019
0.860032
0.825675
0.868092
0.791412
0.809471
0.80706
0.813386
0.868185
0.863595
0.846931
0.769264
0.783258
0.819666
0.802481
0.870255
0.771619
0.807176
0.796192
0.805623
0.829905
0.806363
0.867222
0.865225
0.80781
0.820887
0.840673
0.836751
0.87097
0.808454
0.812086
0.865819
0.864578
0.813409
0.860351
0.811548
0.810194
0.871157
0.812105
0.823008
0.873521
0.871213
0.868451
0.840297
0.80106
0.871306
0.813896
0.818564
0.873445
0.811303
0.867503
0.843444
0.809892
0.872269
0.848687
0.834044
0.86604
0.806948
0.849665
0.812284
0.808909
0.869988
0.868267
0.820089
0.868619
0.869517
0.808485
0.8095
0.834143
0.828873
0.869271
0.870282
0.768412
0.870205
0.785078
0.828436
0.869643
0.864785
0.822494
0.871733
0.872503
0.797255
0.873128
0.811713
0.802823
0.8058
0.867692
0.885894
0.805461
0.807813
0.804544
0.872863
0.835376
0.864888
0.864329
0.807539
0.847127
0.805627
0.797903
0.810269
0.788228
0.861931
0.807946
0.768673
0.895615
0.777943
0.804048
0.814656
0.81089
0.820272
0.803028
0.80692
0.760639
0.807604
0.807832
0.804996
0.802679
0.865759
0.865664
0.898076
0.821415
0.837437
0.753104
0.808101
0.832277
0.812839
0.799145
0.826222
0.792883
0.811773
0.805931
0.811856
0.800363
0.74638
0.82356
0.741373
0.860857
0.855722
0.822843
0.787604
0.85046
0.844071
0.862048
0.803872
0.856267
0.807429
0.860789
0.788723
0.806386
0.796622
0.805832
0.802421
0.78539
0.813518
0.873789
0.873562
0.808058
0.81645
0.871845
0.781788
0.775276
0.805444
0.873803
0.892686
0.87404
0.868797
0.895202
0.884778
0.861376
0.773796
0.806792
0.823396
0.831158
0.843518
0.783542
0.791852
0.780472
0.807337
0.766057
0.801054
0.801802
0.759974
0.758689
0.865398
0.825966
0.809772
0.866359
0.817626
0.802229
0.752053
0.802271
0.833094
0.858878
0.887874
0.867173
0.870776
0.839228
0.802549
0.794453
0.872271
0.777517
0.817773
0.874288
0.810166
0.817173
0.844159
0.831188
0.812177
0.803768
0.863065
0.824052
0.886929
0.746071
0.730869
0.806516
0.848224
0.78664
0.822632
0.807482
0.867804
0.811287
0.804204
0.733846
0.741195
0.824108
0.864217
0.87279
0.799285
0.806286
0.851316
0.780702
0.864165
0.80591
0.871465
0.805264
0.841087
0.803697
0.872581
0.804578
0.828937
0.809811
0.884195
0.873464
0.804312
0.773638
0.775492
0.869691
0.739586
0.853657
0.822513
0.86745
0.863267
0.808946
0.822246
0.870343
0.865496
0.874399
0.802486
0.851241
0.881082
0.81234
0.771723
0.85439
0.83189
0.807893
0.807896
0.860112
0.80707
0.805398
0.860628
0.859993
0.864947
0.870414
0.818424
0.789203
0.811025
0.867045
0.814779
0.85573
0.817132
0.816052
0.817704
0.871579
0.821604
0.804599
0.818833
0.819015
0.833397
0.818204
0.817643
0.866881
0.819853
0.805489
0.869796
0.807119
0.804651
0.816815
0.820756
0.869883
0.802011
0.81607
0.808226
0.875027
0.801351
0.811613
0.819273
0.866375
0.815266
0.770588
0.802468
0.865841
0.814549
0.825941
0.80006
0.866762
0.797173
0.810942
0.803665
0.812708
0.829262
0.877934
0.813635
0.805538
0.790128
0.865681
0.874017
0.864455
0.83321
0.859508
0.794708
0.866016
0.79287
0.812677
0.865112
0.805261
0.783232
0.864734
0.857155
0.869569
0.864432
0.871772
0.802895
0.867376
0.770821
0.792006
0.874169
0.864241
0.77926
0.866231
0.758129
0.864295
0.820157
0.868676
0.806304
0.819059
0.858414
0.837816
0.833401
0.741936
0.869289
0.873145
0.805331
0.875392
0.808095
0.792748
0.87129
0.866033
0.869897
0.785014
0.779757
0.868642
0.772807
0.867683
0.873561
0.866913
0.819297
0.8664
0.807226
0.86602
0.865714
0.79495
0.887275
0.865555
0.865515
0.832405
0.817497
0.807041
0.730727
0.849417
0.865622
0.868447
0.818597
0.86567
0.875229
0.80185
0.865783
0.80796
0.776074
0.80864
0.839348
0.871589
0.798884
0.845913
0.831134
0.741334
0.871292
0.871096
0.818005
0.821497
0.803674
0.857411
0.807109
0.810102
0.809591
0.841733
0.815913
0.816795
0.805542
0.868735
0.829358
0.86806
0.724415
0.904405
0.780588
0.809891
0.809921
0.812788
0.874971
0.87044
0.871133
0.73897
0.862994
0.827866
0.813383
0.86069
0.840737
0.842743
0.808675
0.807893
0.810296
0.801691
0.816429
0.872535
0.817572
0.826238
0.865738
0.871403
0.825115
0.807637
0.829026
0.824119
0.869424
0.78602
0.822836
0.869925
0.866857
0.820126
0.821741
0.822866
0.87314
0.820186
0.808671
0.81954
0.748275
0.818175
0.814465
0.817441
0.864795
0.84617
0.815198
0.829416
0.816367
0.803289
0.864908
0.853157
0.869307
0.875118
0.848649
0.81016
0.791844
0.829884
0.872639
0.7985
0.811385
0.869288
0.797597
0.869244
0.722478
0.818508
0.770699
0.812147
0.84784
0.864459
0.867839
0.813594
0.858057
0.865018
0.806623
0.817878
0.845664
0.868644
0.809994
0.863248
0.815002
0.814348
0.802564
0.807406
0.851695
0.872372
0.808558
0.826759
0.866035
0.84931
0.820652
0.875088
0.729183
0.818576
0.825046
0.872011
0.837144
0.813368
0.772773
0.868742
0.874438
0.865328
0.839348
0.736809
0.822566
0.765406
0.868468
0.788559
0.868329
0.837127
0.787104
0.802593
0.868299
0.81574
0.810335
0.807912
0.867494
0.842033
0.779249
0.803878
0.73204
0.80963
0.806985
0.810678
0.741294
0.806443
0.810637
0.811245
0.794882
0.802483
0.811148
0.826048
0.870959
0.793408
0.784359
0.871689
0.811788
0.81161
0.877174
0.871123
0.868247
0.766127
0.81221
0.801939
0.803068
0.804622
0.764906
0.810178
0.87172
0.758665
0.774092
0.821256
0.834992
0.873044
0.856373
0.868395
0.869201
0.86768
0.812153
0.87252
0.867843
0.849797
0.83633
0.812731
0.806279
0.822766
0.800819
0.821301
0.867671
0.88327
0.849091
0.751859
0.829674
0.805914
0.804785
0.867937
0.863306
0.861277
0.826074
0.884948
0.813601
0.868032
0.736612
0.827081
0.864366
0.805243
0.872346
0.74655
0.864294
0.807739
0.867935
0.80404
0.86656
0.868651
0.794091
0.81357
0.805295
0.865891
0.88377
0.829836
0.86976
0.778257
0.811435
0.805193
0.809255
0.8242
0.865694
0.802447
0.808338
0.864388
0.852713
0.819245
0.7862
0.806391
0.86386
0.859661
0.801035
0.797511
0.859277
0.816609
0.881102
0.790321
0.866277
0.859425
0.770762
0.813743
0.867871
0.812491
0.802276
0.819281
0.869945
0.828737
0.805272
0.868801
0.763665
0.8014
0.821631
0.870679
0.867744
0.807152
0.835114
0.806558
0.814025
0.823038
0.8716
0.86611
0.852285
0.756978
0.84509
0.840528
0.806737
0.824909
0.867549
0.813147
0.815252
0.764909
0.816481
0.817329
0.878869
0.811903
0.821731
0.866217
0.81814
0.859864
0.878499
0.752997
0.812952
0.869556
0.816619
0.81587
0.817239
0.814618
0.815127
0.813682
0.81769
0.819403
0.799293
0.818121
0.819968
0.848745
0.865193
0.821102
0.858867
0.805541
0.811883
0.867073
0.866125
0.860959
0.805576
0.828384
0.825286
0.851513
0.867654
0.791784
0.86842
0.865835
0.871113
0.880612
0.808018
0.855124
0.874256
0.81347
0.751249
0.809417
0.822033
0.865707
0.738018
0.870671
0.865298
0.871958
0.853804
0.805508
0.836338
0.855432
0.812678
0.8175
0.867064
0.797646
0.725858
0.873048
0.758465
0.785752
0.830613
0.864839
0.866103
0.867607
0.875924
0.746288
0.864404
0.818286
0.864473
0.86419
0.86439
0.780332
0.873207
0.864003
0.868535
0.813862
0.804938
0.831681
0.731032
0.855642
0.873619
0.811286
0.871793
0.863997
0.805651
0.776175
0.844886
0.864143
0.87021
0.806129
0.857271
0.805165
0.869037
0.807936
0.858353
0.867963
0.867095
0.831446
0.865947
0.837407
0.784812
0.774642
0.741874
0.866476
0.866095
0.801258
0.798705
0.854247
0.865761
0.8468
0.743728
0.865524
0.865434
0.865473
0.865859
0.817865
0.830645
0.773322
0.796382
0.865643
0.803935
0.860612
0.903169
0.803686
0.85068
0.761772
0.840286
0.794553
0.793489
0.829471
0.817036
0.80569
0.774253
0.804107
0.872102
0.80726
0.793723
0.847381
0.827904
0.815484
0.776986
0.856078
0.81332
0.870149
0.868251
0.826218
0.843393
0.869124
0.869623
0.809994
0.81375
0.795408
0.843564
0.808407
0.858797
0.803949
0.81472
0.779947
0.802016
0.825085
0.823984
0.823313
0.821647
0.820351
0.819791
0.817438
0.815601
0.81862
0.798792
0.816641
0.802476
0.809068
0.810236
0.845454
0.798271
0.808276
0.805534
0.89738
0.85197
0.809576
0.802414
0.81434
0.817602
0.78465
0.810538
0.809566
0.807552
0.815798
0.839104
0.803641
0.806904
0.789769
0.831916
0.848936
0.813789
0.800304
0.825779
0.807882
0.868549
0.820368
0.819777
0.795002
0.809851
0.870631
0.809105
0.835619
0.802345
0.928582
0.881179
0.862611
0.874657
0.775219
0.873238
0.80647
0.83424
0.851282
0.907833
0.874432
0.802465
0.730644
0.874024
0.802839
0.873616
0.804036
0.871116
0.727615
0.867535
0.810467
0.817391
0.821061
0.81468
0.852119
0.804249
0.866471
0.777621
0.733513
0.757123
0.87321
0.719466
0.80217
0.799522
0.868339
0.82914
0.712443
0.842094
0.871499
0.871703
0.789339
0.809724
0.711517
0.804486
0.872349
0.805104
0.807469
0.805876
0.871558
0.863237
0.805514
0.808327
0.870363
0.809165
0.869955
0.826331
0.810246
0.869561
0.868229
0.869177
0.810966
0.868795
0.765434
0.811639
0.868411
0.806689
0.812115
0.868029
0.788622
0.873298
0.801501
0.874866
0.819539
0.859196
0.841886
0.884902
0.803039
0.814057
0.867005
0.826892
0.813464
0.812777
0.856961
0.849953
0.867336
0.859686
0.875521
0.867073
0.866137
0.834173
0.876067
0.873522
0.815823
0.866241
0.848162
0.816741
0.872195
0.809025
0.845321