# vtk DataFile Version 1.0
unstructured grid
ascii
DATASET UNSTRUCTURED_GRID
points 3920 float
-1 0 0
-1 1 0
2 0 0
2 1 0
0 0 0
1 0 0
-1 1 0.1
-1 0 0.1
0 0 0.1
1 0 0.1
2 0 0.1
2 1 0.1
-0.98 0 0
-0.96 0 0
-0.94 0 0
-0.92 0 0
-0.9 0 0
-0.88 0 0
-0.86 0 0
-0.84 0 0
-0.82 0 0
-0.8 0 0
-0.78 0 0
-0.76 0 0
-0.74 0 0
-0.72 0 0
-0.7 0 0
-0.68 0 0
-0.66 0 0
-0.64 0 0
-0.62 0 0
-0.6 0 0
-0.58 0 0
-0.56 0 0
-0.54 0 0
-0.52 0 0
-0.5 0 0
-0.48 0 0
-0.46 0 0
-0.44 0 0
-0.42 0 0
-0.4 0 0
-0.38 0 0
-0.36 0 0
-0.34 0 0
-0.32 0 0
-0.3 0 0
-0.28 0 0
-0.26 0 0
-0.24 0 0
-0.22 0 0
-0.2 0 0
-0.18 0 0
-0.16 0 0
-0.14 0 0
-0.12 0 0
-0.1 0 0
-0.08 0 0
-0.06 0 0
-0.04 0 0
-0.02 0 0
1.02 0 0
1.04 0 0
1.06 0 0
1.08 0 0
1.1 0 0
1.12 0 0
1.14 0 0
1.16 0 0
1.18 0 0
1.2 0 0
1.22 0 0
1.24 0 0
1.26 0 0
1.28 0 0
1.3 0 0
1.32 0 0
1.34 0 0
1.36 0 0
1.38 0 0
1.4 0 0
1.42 0 0
1.44 0 0
1.46 0 0
1.48 0 0
1.5 0 0
1.52 0 0
1.54 0 0
1.56 0 0
1.58 0 0
1.6 0 0
1.62 0 0
1.64 0 0
1.66 0 0
1.68 0 0
1.7 0 0
1.72 0 0
1.74 0 0
1.76 0 0
1.78 0 0
1.8 0 0
1.82 0 0
1.84 0 0
1.86 0 0
1.88 0 0
1.9 0 0
1.92 0 0
1.94 0 0
1.96 0 0
1.98 0 0
2 0.0199133 0
2 0.0414128 0
2 0.0646247 0
2 0.0896856 0
2 0.116743 0
2 0.145955 0
2 0.177494 0
2 0.211545 0
2 0.248309 0
2 0.288001 0
2 0.330854 0
2 0.377121 0
2 0.427073 0
2 0.481004 0
2 0.539231 0
2 0.602096 0
2 0.669968 0
2 0.743247 0
2 0.822362 0
2 0.907779 0
1.9 1 0
1.8 1 0
1.7 1 0
1.6 1 0
1.5 1 0
1.4 1 0
1.3 1 0
1.2 1 0
1.1 1 0
1 1 0
0.9 1 0
0.8 1 0
0.7 1 0
0.6 1 0
0.5 1 0
0.4 1 0
0.3 1 0
0.2 1 0
0.1 1 0
3.69793e-12 1 0
-0.1 1 0
-0.2 1 0
-0.3 1 0
-0.4 1 0
-0.5 1 0
-0.6 1 0
-0.7 1 0
-0.8 1 0
-0.9 1 0
-1 0.907779 0
-1 0.822362 0
-1 0.743247 0
-1 0.669968 0
-1 0.602096 0
-1 0.539231 0
-1 0.481004 0
-1 0.427073 0
-1 0.377121 0
-1 0.330854 0
-1 0.288001 0
-1 0.248309 0
-1 0.211545 0
-1 0.177494 0
-1 0.145955 0
-1 0.116743 0
-1 0.0896856 0
-1 0.0646247 0
-1 0.0414128 0
-1 0.0199133 0
0.0182781 0.00745351 0
0.0366672 0.0146286 0
0.0551632 0.0215237 0
0.0737617 0.0281372 0
0.0924585 0.0344675 0
0.111249 0.0405131 0
0.13013 0.0462728 0
0.149095 0.0517451 0
0.168142 0.0569289 0
0.187265 0.0618228 0
0.20646 0.0664258 0
0.225723 0.0707368 0
0.245049 0.0747549 0
0.264434 0.078479 0
0.283873 0.0819084 0
0.303362 0.0850422 0
0.322896 0.0878798 0
0.342472 0.0904204 0
0.362083 0.0926635 0
0.381726 0.0946086 0
0.401397 0.0962552 0
0.42109 0.0976029 0
0.440802 0.0986514 0
0.460527 0.0994006 0
0.480261 0.0998501 0
0.5 0.1 0
0.519739 0.0998501 0
0.539473 0.0994006 0
0.559198 0.0986514 0
0.57891 0.0976029 0
0.598603 0.0962552 0
0.618274 0.0946086 0
0.637917 0.0926635 0
0.657528 0.0904204 0
0.677104 0.0878798 0
0.696638 0.0850422 0
0.716127 0.0819084 0
0.735566 0.078479 0
0.754951 0.0747549 0
0.774277 0.0707368 0
0.79354 0.0664258 0
0.812735 0.0618228 0
0.831858 0.0569289 0
0.850905 0.0517451 0
0.86987 0.0462728 0
0.888751 0.0405131 0
0.907542 0.0344675 0
0.926238 0.0281372 0
0.944837 0.0215237 0
0.963333 0.0146286 0
0.981722 0.00745351 0
-1 0.907779 0.1
-1 0.822362 0.1
-1 0.743247 0.1
-1 0.669968 0.1
-1 0.602096 0.1
-1 0.539231 0.1
-1 0.481004 0.1
-1 0.427073 0.1
-1 0.377121 0.1
-1 0.330854 0.1
-1 0.288001 0.1
-1 0.248309 0.1
-1 0.211545 0.1
-1 0.177494 0.1
-1 0.145955 0.1
-1 0.116743 0.1
-1 0.0896856 0.1
-1 0.0646247 0.1
-1 0.0414128 0.1
-1 0.0199133 0.1
-0.98 0 0.1
-0.96 0 0.1
-0.94 0 0.1
-0.92 0 0.1
-0.9 0 0.1
-0.88 0 0.1
-0.86 0 0.1
-0.84 0 0.1
-0.82 0 0.1
-0.8 0 0.1
-0.78 0 0.1
-0.76 0 0.1
-0.74 0 0.1
-0.72 0 0.1
-0.7 0 0.1
-0.68 0 0.1
-0.66 0 0.1
-0.64 0 0.1
-0.62 0 0.1
-0.6 0 0.1
-0.58 0 0.1
-0.56 0 0.1
-0.54 0 0.1
-0.52 0 0.1
-0.5 0 0.1
-0.48 0 0.1
-0.46 0 0.1
-0.44 0 0.1
-0.42 0 0.1
-0.4 0 0.1
-0.38 0 0.1
-0.36 0 0.1
-0.34 0 0.1
-0.32 0 0.1
-0.3 0 0.1
-0.28 0 0.1
-0.26 0 0.1
-0.24 0 0.1
-0.22 0 0.1
-0.2 0 0.1
-0.18 0 0.1
-0.16 0 0.1
-0.14 0 0.1
-0.12 0 0.1
-0.1 0 0.1
-0.08 0 0.1
-0.06 0 0.1
-0.04 0 0.1
-0.02 0 0.1
0.0182781 0.00745351 0.1
0.0366672 0.0146286 0.1
0.0551632 0.0215237 0.1
0.0737617 0.0281372 0.1
0.0924585 0.0344675 0.1
0.111249 0.0405131 0.1
0.13013 0.0462728 0.1
0.149095 0.0517451 0.1
0.168142 0.0569289 0.1
0.187265 0.0618228 0.1
0.20646 0.0664258 0.1
0.225723 0.0707368 0.1
0.245049 0.0747549 0.1
0.264434 0.078479 0.1
0.283873 0.0819084 0.1
0.303362 0.0850422 0.1
0.322896 0.0878798 0.1
0.342472 0.0904204 0.1
0.362083 0.0926635 0.1
0.381726 0.0946086 0.1
0.401397 0.0962552 0.1
0.42109 0.0976029 0.1
0.440802 0.0986514 0.1
0.460527 0.0994006 0.1
0.480261 0.0998501 0.1
0.5 0.1 0.1
0.519739 0.0998501 0.1
0.539473 0.0994006 0.1
0.559198 0.0986514 0.1
0.57891 0.0976029 0.1
0.598603 0.0962552 0.1
0.618274 0.0946086 0.1
0.637917 0.0926635 0.1
0.657528 0.0904204 0.1
0.677104 0.0878798 0.1
0.696638 0.0850422 0.1
0.716127 0.0819084 0.1
0.735566 0.078479 0.1
0.754951 0.0747549 0.1
0.774277 0.0707368 0.1
0.79354 0.0664258 0.1
0.812735 0.0618228 0.1
0.831858 0.0569289 0.1
0.850905 0.0517451 0.1
0.86987 0.0462728 0.1
0.888751 0.0405131 0.1
0.907542 0.0344675 0.1
0.926238 0.0281372 0.1
0.944837 0.0215237 0.1
0.963333 0.0146286 0.1
0.981722 0.00745351 0.1
1.02 0 0.1
1.04 0 0.1
1.06 0 0.1
1.08 0 0.1
1.1 0 0.1
1.12 0 0.1
1.14 0 0.1
1.16 0 0.1
1.18 0 0.1
1.2 0 0.1
1.22 0 0.1
1.24 0 0.1
1.26 0 0.1
1.28 0 0.1
1.3 0 0.1
1.32 0 0.1
1.34 0 0.1
1.36 0 0.1
1.38 0 0.1
1.4 0 0.1
1.42 0 0.1
1.44 0 0.1
1.46 0 0.1
1.48 0 0.1
1.5 0 0.1
1.52 0 0.1
1.54 0 0.1
1.56 0 0.1
1.58 0 0.1
1.6 0 0.1
1.62 0 0.1
1.64 0 0.1
1.66 0 0.1
1.68 0 0.1
1.7 0 0.1
1.72 0 0.1
1.74 0 0.1
1.76 0 0.1
1.78 0 0.1
1.8 0 0.1
1.82 0 0.1
1.84 0 0.1
1.86 0 0.1
1.88 0 0.1
1.9 0 0.1
1.92 0 0.1
1.94 0 0.1
1.96 0 0.1
1.98 0 0.1
2 0.0199133 0.1
2 0.0414128 0.1
2 0.0646247 0.1
2 0.0896856 0.1
2 0.116743 0.1
2 0.145955 0.1
2 0.177494 0.1
2 0.211545 0.1
2 0.248309 0.1
2 0.288001 0.1
2 0.330854 0.1
2 0.377121 0.1
2 0.427073 0.1
2 0.481004 0.1
2 0.539231 0.1
2 0.602096 0.1
2 0.669968 0.1
2 0.743247 0.1
2 0.822362 0.1
2 0.907779 0.1
1.9 1 0.1
1.8 1 0.1
1.7 1 0.1
1.6 1 0.1
1.5 1 0.1
1.4 1 0.1
1.3 1 0.1
1.2 1 0.1
1.1 1 0.1
1 1 0.1
0.9 1 0.1
0.8 1 0.1
0.7 1 0.1
0.6 1 0.1
0.5 1 0.1
0.4 1 0.1
0.3 1 0.1
0.2 1 0.1
0.1 1 0.1
3.69793e-12 1 0.1
-0.1 1 0.1
-0.2 1 0.1
-0.3 1 0.1
-0.4 1 0.1
-0.5 1 0.1
-0.6 1 0.1
-0.7 1 0.1
-0.8 1 0.1
-0.9 1 0.1
1.08758 0.0158154 0
-0.0898513 0.0203294 0
0.0966181 0.0537636 0
0.90205 0.0548881 0
1.21055 0.0202058 0
-0.209811 0.0159577 0
1.3305 0.0176902 0
-0.33 0.0173205 0
1.45324 0.0148141 0
-0.448654 0.0159854 0
1.56842 0.0191785 0
-0.569936 0.0166364 0
0.193292 0.0805369 0
0.805051 0.0813623 0
0.709096 0.100353 0
0.288591 0.0996656 0
0.390184 0.111848 0
0.61033 0.111742 0
0.488809 0.116278 0
1.67175 0.0169692 0
-0.67 0.0169809 0
-0.955017 0.454039 0
1.95131 0.44569 0
1.74981 0.0168753 0
-0.75 0.0173205 0
-0.968032 0.266538 0
1.96871 0.266267 0
0.978232 0.0305687 0
0.0208675 0.026451 0
-0.150454 0.91842 0
1.13854 0.907437 0
1.45012 0.904365 0
-0.445923 0.908903 0
-0.853423 0.0157019 0
1.84881 0.016319 0
0.853689 0.915652 0
0.153944 0.912184 0
0.545151 0.914125 0
0.549913 0.115152 0
1.51 0.0173205 0
-0.506989 0.01651 0
1.27 0.0173205 0
1.14976 0.0173333 0
-0.268171 0.0206442 0
-0.150501 0.0153244 0
-0.391384 0.0153993 0
1.38886 0.0171544 0
-0.973694 0.161724 0
1.97441 0.162392 0
-0.945221 0.633523 0
1.94544 0.63312 0
1.91008 0.0186068 0
-0.91 0.0169616 0
-0.030664 0.0194327 0
1.03074 0.0165456 0
-0.966065 0.353575 0
1.96128 0.359765 0
1.93879 0.781254 0
-0.937057 0.781882 0
-0.980746 0.080709 0
1.9772 0.0760699 0
0.058735 0.0409372 0
0.355202 0.913001 0
0.86356 0.0661005 0
0.134223 0.0651111 0
0.941972 0.0397386 0
-0.653034 0.915003 0
1.65328 0.904589 0
0.770126 0.0881325 0
0.232946 0.0902008 0
0.330582 0.105648 0
0.670612 0.108365 0
0.428707 0.116145 0
1.80993 0.016629 0
-0.810168 0.0172178 0
-0.71 0.0173205 0
1.63047 0.0175504 0
1.70842 0.0169661 0
-0.628824 0.0181787 0
-0.949815 0.0133898 0
1.95 0.0173205 0
1.85542 0.907891 0
-0.85 0.913397 0
1.9833 0.0307692 0
-0.983315 0.0309709 0
-0.750025 0.916468 0
-0.701107 0.836904 0
-0.607741 0.836428 0
-0.656448 0.759827 0
-0.572936 0.758144 0
-0.61411 0.691195 0
-0.539534 0.689068 0
-0.578542 0.626111 0
-0.507461 0.624216 0
-0.544001 0.566638 0
-0.477696 0.564279 0
-0.511582 0.51001 0
-0.451689 0.507147 0
-0.481834 0.457732 0
-0.426137 0.454624 0
-0.453236 0.407539 0
-0.398845 0.406233 0
-0.507958 0.409496 0
-0.368427 0.460177 0
-0.344602 0.405209 0
-0.315696 0.447824 0
-0.294128 0.402169 0
-0.262844 0.444518 0
-0.241968 0.388746 0
-0.209878 0.439557 0
-0.185184 0.391135 0
-0.156687 0.437338 0
-0.133719 0.390776 0
-0.104405 0.434306 0
-0.0818745 0.388334 0
-0.0528785 0.431165 0
-0.0305984 0.385639 0
-0.00180552 0.427863 0
0.0194564 0.382608 0
0.0485809 0.42449 0
0.0701962 0.37973 0
0.0985483 0.421145 0
0.119893 0.377339 0
0.147837 0.417911 0
0.172552 0.36751 0
0.197018 0.412597 0
0.221203 0.37141 0
0.24512 0.409646 0
-0.48178 0.364657 0
-0.531053 0.364782 0
-0.0599102 0.344151 0
-0.324909 0.359566 0
0.266181 0.368462 0
0.292132 0.407649 0
0.311992 0.365779 0
0.338918 0.404821 0
0.357567 0.355909 0
0.384723 0.40053 0
0.404675 0.359681 0
0.430617 0.398558 0
0.450457 0.35827 0
0.474237 0.395182 0
0.496746 0.34898 0
0.520548 0.397931 0
0.542071 0.353121 0
0.566011 0.389914 0
0.585061 0.350856 0
0.609352 0.38696 0
0.629069 0.348168 0
0.655979 0.391217 0
0.67472 0.346182 0
0.699346 0.381414 0
0.719333 0.341965 0
0.743718 0.377547 0
0.764028 0.339036 0
0.788201 0.373582 0
0.807659 0.336101 0
0.832821 0.372249 0
0.852309 0.334017 0
0.877785 0.370339 0
0.897875 0.331141 0
0.922904 0.366281 0
0.943173 0.327335 0
0.968282 0.363358 0
0.989029 0.324222 0
1.01391 0.361511 0
1.03465 0.321428 0
1.05949 0.358447 0
1.08389 0.312052 0
1.10575 0.355104 0
1.12889 0.31562 0
1.15067 0.353235 0
1.17157 0.312819 0
1.19626 0.349369 0
1.21618 0.309863 0
1.2416 0.346914 0
1.26131 0.30715 0
1.28691 0.344312 0
1.30571 0.303752 0
1.33144 0.341222 0
1.35018 0.300911 0
1.3758 0.338308 0
1.39501 0.298931 0
1.42015 0.335235 0
1.43904 0.296349 0
1.46355 0.330194 0
1.48256 0.293347 0
1.50685 0.326967 0
1.52589 0.29055 0
1.54996 0.325305 0
1.56909 0.287929 0
[...]
CELL_DATA 3694
SCALARS rho float
LOOKUP_TABLE default
0.735273
0.670885
0.803744
0.813014
0.826446
0.805044
0.791563
0.799926
0.809977
0.802659
0.817297
0.81729
0.840205
0.789303
0.80071
0.750554
0.803226
0.802896
0.760207
0.849884
0.817183
0.822987
0.697762
0.803327
0.694352
0.839126
0.720002
0.806189
0.836835
0.798531
0.798718
0.718386
0.80344
0.824529
0.802742
0.797372
0.837067
0.822779
0.824735
0.778001
0.804595
0.817221
0.834181
0.825104
0.805
0.8129
0.800773
0.6688
0.679424
0.721085
0.802002
0.8029
0.846655
0.801979
0.630801
0.837967
0.802566
0.818968
0.832444
0.754086
0.796183
0.815179
0.841985
0.799543
0.842519
0.830763
0.80749
0.813572
0.736384
0.858182
0.803118
0.80751
0.823011
0.803188
0.8244
0.802876
0.814029
0.799578
0.813892
0.80269
0.7143
0.818229
0.802252
0.776604
0.809818
0.799528
0.818315
0.715367
0.735858
0.824999
0.799157
0.802339
0.820353
0.815392
0.675006
0.806449
0.723131
0.817775
0.812325
0.839847
0.814652
0.762543
0.718167
0.809775
0.809257
0.815174
0.817755
0.806947
0.715819
0.814333
0.799188
0.722785
0.720535
0.823407
0.867769
0.802156
0.79972
0.812126
0.803106
0.802057
0.765593
0.822257
0.819666
0.769864
0.704082
0.758514
0.817411
0.776953
0.843432
0.700836
0.76709
0.800247
0.807851
0.777584
0.800885
0.795563
0.805398
0.802355
0.797934
0.81458
0.813766
0.710595
0.816945
0.813652
0.757628
0.67091
0.677193
0.798062
0.816054
0.813008
0.744592
0.80266
0.556558
0.778571
0.686902
0.763456
0.713632
0.783723
0.606875
0.792988
0.837281
0.644909
0.78204
0.737119
0.844043
0.554716
0.817117
0.80034
0.802824
0.673444
0.801515
0.662871
0.857708
0.53985
0.799813
0.635267
0.872262
0.833273
0.820633
0.745001
0.814101
0.721449
0.826904
0.737168
0.648668
0.803073
0.6774
0.823382
0.801632
0.850876
0.791657
0.703322
0.814884
0.798338
0.74228
0.852717
0.811301
0.848724
0.736646
0.743166
0.770933
0.793794
0.831679
0.834013
0.816749
0.814191
0.669449
0.804562
0.727078
0.803166
0.709433
0.797344
0.795593
0.801429
0.825703
0.76373
0.830389
0.749529
0.825645
0.819854
0.81601
0.852937
0.829269
0.703903
0.827051
0.685219
0.787739
0.81002
0.851043
0.830154
0.808315
0.79433
0.745543
0.817652
0.836656
0.817469
0.715271
0.799819
0.696192
0.79227
0.79545
0.810028
0.638499
0.807518
0.757786
0.797739
0.803078
0.759263
0.815293
0.865581
0.784018
0.691415
0.804316
0.801606
0.647303
0.792359
0.777912
0.802321
0.838898
0.814909
0.608635
0.815297
0.80993
0.796916
0.815557
0.802624
0.815255
0.814538
0.835408
0.756261
0.801824
0.834835
0.810402
0.803118
0.796059
0.815098
0.728209
0.588059
0.81691
0.829403
0.820453
0.804202
0.682511
0.815554
0.815294
0.816808
0.71404
0.797237
0.815201
0.543859
0.802801
0.869029
0.680176
0.756487
0.838652
0.826974
0.814933
0.706402
0.809343
0.815197
0.803772
0.801671
0.812006
0.836588
0.817254
0.767217
0.806957
0.803028
0.64671
0.821054
0.827882
0.672002
0.791082
0.818921
0.820654
0.679227
0.678293
0.821471
0.824117
0.809485
0.733154
0.707101
0.713815
0.733115
0.820362
0.776778
0.804116
0.732941
0.741979
0.822553
0.810276
0.819097
0.769951
0.815291
0.813921
0.817426
0.816049
0.802725
0.807518
0.80385
0.690992
0.802694
0.812722
0.696058
0.807138
0.805062
0.819499
0.785804
0.805841
0.791785
0.815077
0.821044
0.82024
0.79822
0.682763
0.7117
0.799366
0.810801
0.623741
0.803836
0.807465
0.817155
0.74349
0.804205
0.816449
0.811648
0.817895
0.804991
0.797267
0.764523
0.804314
0.843519
0.819991
0.706166
0.803636
0.702944
0.704306
0.80303
0.615089
0.770621
0.78475
0.807861
0.813542
0.825308
0.817201
0.812721
0.820251
0.828285
0.80281
0.764667
0.80966
0.659477
0.819312
0.757316
0.728071
0.689209
0.814062
0.853946
0.819339
0.808748
0.821961
0.815452
0.786853
0.758436
0.809686
0.693415
0.791183
0.843534
0.826406
0.800775
0.863992
0.8133
0.8166
0.81764
0.830867
0.630651
0.79876
0.73184
0.79798
0.734837
0.819057
0.808593
0.787342
0.682274
0.814956
0.829868
0.811987
0.802919
0.803737
0.824419
0.803816
0.711851
0.790234
0.803087
0.8149
0.814077
0.812714
0.871581
0.827855
0.809332
0.832139
0.682568
0.823478
0.837644
0.816321
0.628112
0.815431
0.809145
0.845502
0.82144
0.802919
0.593058
0.810054
0.696687
0.80606
0.802874
0.812204
0.813674
0.825082
0.80503
0.811115
0.81614
0.724884
0.862903
0.801944
0.85018
0.816509
0.575502
0.803861
0.796657
0.811705
0.817763
0.652344
0.802811
0.809587
0.812933
0.807064
0.793862
0.815743
0.817413
0.796283
0.80394
0.82152
0.836895
0.730918
0.806236
0.809685
0.813232
0.682764
0.805212
0.816101
0.799304
0.80408
0.526429
0.832977
0.7639
0.814838
0.81784
0.830921
0.846244
0.816234
0.811718
0.716862
0.799007
0.852352
0.808569
0.71022
0.800217
0.802606
0.872169
0.845313
0.819159
0.802038
0.809592
0.755618
0.815547
0.813825
0.585785
0.802652
0.730143
0.750153
0.803109
0.811501
0.780939
0.821263
0.815403
0.838025
0.816071
0.800453
0.809046
0.738386
0.737086
0.804138
0.808179
0.821172
0.802248
0.751727
0.689564
0.8137
0.81515
0.813906
0.595513
0.813806
0.816752
0.824803
0.803041
0.808781
0.819746
0.811754
0.83948
0.802984
0.812604
0.823787
0.815741
0.81783
0.821576
0.689894
0.784178
0.794937
0.803137
0.847641
0.802062
0.802816
0.63571
0.810941
0.813664
0.810732
0.819156
0.805752
0.813254
0.727304
0.843656
0.706853
0.800465
0.817456
0.807203
0.656162
0.680503
0.815409
0.805649
0.804265
0.785577
0.801532
0.829336
0.813634
0.80497
0.802178
0.812414
0.620161
0.812511
0.803078
0.699879
0.815658
0.620158
0.784173
0.815649
0.837803
0.806054
0.81263
0.792606
0.795648
0.804072
0.801438
0.812151
0.811092
0.809122
0.803242
0.757241
0.804066
0.812669
0.812109
0.816311
0.811655
0.816064
0.815099
0.834282
0.738776
0.806671
0.815794
0.802485
0.543743
0.683481
0.811292
0.813419
0.815369
0.780309
0.808389
0.81282
0.803221
0.799913
0.802769
0.820004
0.820841
0.815174
0.785016
0.808263
0.805809
0.560104
0.774021
0.75765
0.806561
0.735811
0.677345
0.797749
0.767638
0.827808
0.815142
0.814879
0.808312
0.541471
0.81562
0.584324
0.697329
0.824766
0.86968
0.741947
0.816708
0.852901
0.695412
0.815525
0.808957
0.814856
0.807178
0.656689
0.854583
0.737174
0.730679
0.803311
0.804589
0.799639
0.833285
0.815365
0.691467
0.81557
0.800288
0.693118
0.839582
0.798301
0.622709
0.772998
0.815835
0.808041
0.814999
0.784346
0.725895
0.770354
0.836908
0.688895
0.816104
0.817425
0.827026
0.765425
0.822177
0.692404
0.804592
0.661015
0.700983
0.800573
0.822761
0.78866
0.814777
0.815546
0.815384
0.814161
0.57834
0.80257
0.815196
0.743527
0.810044
0.815579
0.811938
0.714742
0.690803
0.741496
0.62165
0.807166
0.682087
0.81581
0.801937
0.815184
0.836866
0.687298
0.804584
0.819896
0.832493
0.738364
0.78198
0.764778
0.773192
0.812465
0.570974
0.674008
0.815471
0.805341
0.812436
0.804576
0.713413
0.780418
0.725217
0.760448
0.799771
0.83201
0.81224
0.691557
0.823508
0.817928
0.811075
0.686906
0.691351
0.682144
0.872124
0.816035
0.816741
0.609778
0.711636
0.64181
0.803505
0.800447
0.672174
0.811975
0.824522
0.749545
0.799669
0.730343
0.814308
0.692731
0.814946
0.810419
0.801633
0.803111
0.825594
0.744479
0.815909
0.815187
0.780407
0.555763
0.816384
0.81108
0.758178
0.814042
0.747278
0.803016
0.82651
0.661861
0.818277
0.802732
0.809867
0.584692
0.639783
0.735488
0.806395
0.812241
0.810976
0.821188
0.814845
0.816123
0.704705
0.80197
0.81329
0.826348
0.703765
0.726934
0.8124
0.811975
0.696718
0.814247
0.774592
0.700938
0.811879
0.696245
0.804384
0.662862
0.802897
0.729869
0.667577
0.811321
0.786212
0.744453
0.631604
0.840155
0.820943
0.815047
0.77052
0.814377
0.800197
0.786248
0.800064
0.801708
0.815285
0.732315
0.809689
0.80015
0.818915
0.599165
0.8015
0.813073
0.814027
0.81174
0.812294
0.746525
0.803121
0.764175
0.751041
0.818749
0.647923
0.818684
0.817811
0.803106
0.815726
0.816955
0.721444
0.768356
0.822231
0.785507
0.803758
0.816166
0.875047
0.818133
0.798474
0.816969
0.815502
0.794012
0.818629
0.817018
0.77339
0.699334
0.841282
0.796953
0.803199
0.822567
0.781277
0.817994
0.824686
0.818801
0.817039
0.870537
0.803126
0.804958
0.818407
0.80312
0.815583
0.806964
0.736313
0.815502
0.819846
0.753714
0.709465
0.815381
0.843227
0.822303
0.655628
0.821888
0.773786
0.808486
0.802027
0.730007
0.803135
0.798847
0.815486
0.817037
0.694724
0.705489
0.802301
0.787542
0.801749
0.824896
0.721604
0.815178
0.80251
0.800351
0.82346
0.815599
0.713631
0.815819
0.76333
0.802464
0.832464
0.803406
0.773562
0.797795
0.794521
0.81525
0.598232
0.815158
0.693536
0.680173
0.803506
0.819676
0.815194
0.802617
0.815282
0.808552
0.724619
0.787647
0.857171
0.803045
0.833557
0.807417
0.544616
0.762079
0.780078
0.648587
0.738077
0.579597
0.820182
0.813414
0.814073
0.802475
0.766755
0.685213
0.764684
0.752218
0.782132
0.815127
0.844785
0.819516
0.80584
0.819174
0.823797
0.802738
0.807687
0.705833
0.803209
0.756472
0.808683
0.798042
0.751916
0.82244
0.788483
0.803599
0.790001
0.840952
0.728104
0.800982
0.799621
0.804908
0.617868
0.815635
0.815518
0.821849
0.632608
0.815401
0.815393
0.798688
0.803878
0.793258
0.775492
0.806397
0.794778
0.81611
0.752963
0.803973
0.875263
0.762939
0.748218
0.807154
0.783924
0.842658
0.800075
0.77979
0.815558
0.798218
0.792568
0.808055
0.82567
0.835806
0.799748
0.574708
0.820551
0.828329
0.772108
0.830831
0.83827
0.822965
0.826365
0.807266
0.832996
0.826927
0.783725
0.809029
0.811493
0.806477
0.822802
0.803398
0.827226
0.792889
0.803334
0.805712
0.726963
0.807075
0.561982
0.81808
0.825405
0.828699
0.805868
0.818127
0.823998
0.819348
0.820913
0.838848
0.833176
0.788083
0.800433
0.821802
0.815497
0.817073
0.800351
0.806381
0.865565
0.820141
0.847407
0.815219
0.800729
0.824504
0.799709
0.833276
0.813557
0.815437
0.805281
0.726863
0.802935
0.804526
0.815203
0.803324
0.802155
0.821991
0.804473
0.804178
0.777974
0.819649
0.717711
0.814164
0.780489
0.758996
0.803568
0.813239
0.818807
0.715573
0.819425
0.815149
0.82642
0.817186
0.789795
0.816412
0.847145
0.833042
0.814997
0.811687
0.801615
0.743976
0.678428
0.815252
0.820447
0.771051
0.814483
0.807751
0.811896
0.805422
0.798637
0.776165
0.802409
0.800116
0.841473
0.817493
0.811389
0.806205
0.603652
0.731499
0.802148
0.783505
0.804104
0.815793
0.805907
0.816192
0.779842
0.815312
0.804792
0.810782
0.803726
0.817933
0.803166
0.815984
0.81098
0.81594
0.812911
0.71762
0.814553
0.815801
0.597501
0.815077
0.796734
0.802843
0.858775
0.8184
0.810793
0.872463
0.815401
0.815489
0.816939
0.818914
0.815346
0.764278
0.830126
0.801378
0.803144
0.814609
0.815367
0.816823
0.815244
0.8135
0.822796
0.803911
0.812581
0.80902
0.815167
0.819879
0.81527
0.811863
0.819335
0.808839
0.694267
0.659808
0.802613
0.808592
0.803302
0.81137
0.818442
0.817175
0.802867
0.803893
0.800615
0.800838
0.816971
0.844372
0.818619
0.811497
0.818552
0.818244
0.845938
0.817543
0.821012
0.785608
0.81588
0.806727
0.801352
0.791984
0.810846
0.818567
0.815099
0.81526
0.835781
0.806176
0.812781
0.816684
0.821442
0.803466
0.803181
0.805455
0.810971
0.815203
0.801549
0.803117
0.816986
0.822385
0.800837
0.623136
0.804201
0.796918
0.817205
0.798508
0.802701
0.748357
0.840854
0.802676
0.799775
0.834827
0.829771
0.810158
0.826256
0.80049
0.81792
0.81747
0.818765
0.803553
0.818351
0.728572
0.822356
0.811411
0.800139
0.812989
0.820571
0.799057
0.803943
0.782458
0.815061
0.815488
0.815592
0.818554
0.806355
0.817132
0.815855
0.826032
0.821854
0.837686
0.805883
0.695325
0.817985
0.840592
0.819811
0.804563
0.800047
0.803316
0.816276
0.81403
0.816047
0.743707
0.738465
0.800762
0.802888
0.815724
0.816601
0.798801
0.653577
0.708401
0.807943
0.768801
0.815914
0.703316
0.803012
0.728162
0.80316
0.819895
0.803091
0.817355
0.812822
0.798505
0.808518
0.793542
0.829622
0.815619
0.801213
0.803445
0.815895
0.821672
0.749498
0.822664
0.803673
0.782964
0.815496
0.803781
0.810462
0.814718
0.815082
0.835307
0.792791
0.799009
0.815377
0.758982
0.806557
0.814854
0.800927
0.815983
0.840999
0.802217
0.843221
0.808694
0.790375
0.811839
0.80259
0.851768
0.788305
0.803107
0.816049
0.83162
0.808286
0.813736
0.815746
0.802792
0.80264
0.825792
0.782702
0.814297
0.815345
0.645475
0.815546
0.7127
0.817494
0.838233
0.824486
0.803804
0.814584
0.815236
0.725768
0.814796
0.800854
0.801532
0.800845
0.815737
0.863825
0.801206
0.800977
0.785366
0.840643
0.827786
0.819573
0.813219
0.746801
0.803492
0.803294
0.730799
0.799487
0.714415
0.810444
0.80087
0.676503
0.88021
0.702457
0.772037
0.801334
0.743451
0.808277
0.798942
0.802997
0.660507
0.79667
0.784028
0.799007
0.729228
0.818676
0.822429
0.884522
0.80935
0.831235
0.645295
0.799974
0.786859
0.744654
0.751554
0.769118
0.70631
0.80305
0.799331
0.803122
0.763754
0.627448
0.811329
0.613313
0.821063
0.822754
0.81138
0.736554
0.812008
0.795442
0.819061
0.782735
0.807164
0.797061
0.809946
0.716715
0.801434
0.722497
0.80128
0.798786
0.686723
0.803576
0.815162
0.815218
0.803043
0.761225
0.814958
0.731711
0.690815
0.802263
0.815221
0.874412
0.815129
0.814428
0.880548
0.865424
0.830844
0.71703
0.801935
0.811774
0.82127
0.797983
0.681698
0.722716
0.677032
0.802323
0.703214
0.768524
0.799391
0.618097
0.689282
0.836056
0.773622
0.745447
0.830442
0.759269
0.769002
0.642615
0.731541
0.785125
0.81961
0.869489
0.83776
0.815505
0.794602
0.799657
0.716036
0.815381
0.69417
0.796831
0.815212
0.783307
0.76256
0.801639
0.782812
0.802146
0.80071
0.811628
0.810925
0.867128
0.577587
0.5407
0.802357
0.806948
0.69861
0.809973
0.802763
0.837494
0.803427
0.802333
0.56837
0.558244
0.808203
0.812293
0.815305
0.727061
0.803109
0.810459
0.684916
0.811316
0.802655
0.8138
0.803133
0.800496
0.802208
0.814266
0.802897
0.816813
0.803199
0.862066
0.81464
0.802464
0.72086
0.670728
0.815297
0.586512
0.812653
0.809986
0.835845
0.81376
0.803013
0.810625
0.813279
0.81301
0.814974
0.801583
0.853758
0.856462
0.802302
0.656262
0.808382
0.822196
0.79937
0.80312
0.819912
0.734529
0.803201
0.825143
0.821239
0.815552
0.815144
0.766691
0.745162
0.800858
0.833961
0.802871
0.814221
0.804517
0.803731
0.805042
0.813928
0.80882
0.798776
0.806774
0.806029
0.82443
0.806588
0.80619
0.817428
0.806851
0.803332
0.812998
0.802914
0.802788
0.805722
0.807819
0.81314
0.773676
0.805251
0.802654
0.815154
0.799722
0.803692
0.806757
0.831785
0.804956
0.651352
0.800769
0.81526
0.804589
0.814628
0.763136
0.81504
0.750889
0.803607
0.802162
0.803996
0.818829
0.851012
0.804298
0.803215
0.746681
0.829522
0.815112
0.820276
0.824739
0.814681
0.737092
0.81797
0.722871
0.801001
0.827511
0.802362
0.701125
0.825751
0.814645
0.816231
0.824014
0.815478
0.773346
0.81702
0.650238
0.711421
0.815209
0.822501
0.677403
0.819167
0.659023
0.821313
0.806831
0.816531
0.803132
0.80563
0.814791
0.831583
0.824934
0.671729
0.813123
0.842004
0.781474
0.846263
0.80021
0.706733
0.838476
0.81939
0.835514
0.689427
0.685081
0.83284
0.659462
0.83055
0.815209
0.828524
0.806201
0.826811
0.787678
0.825311
0.823922
0.708338
0.865633
0.822732
0.821726
0.823466
0.759376
0.802802
0.526073
0.803187
0.820852
0.813606
0.804661
0.825859
0.815199
0.798113
0.820084
0.802949
0.682258
0.792385
0.834082
0.814508
0.71649
0.799318
0.821438
0.577304
0.814858
0.815673
0.802554
0.809851
0.726649
0.817868
0.802984
0.803435
0.795936
0.794055
0.797838
0.794517
0.803247
0.812481
0.819216
0.814168
0.573553
0.89293
0.707016
0.797841
0.73999
0.79138
0.815167
0.815777
0.815669
0.605339
0.818993
0.817119
0.803895
0.817974
0.836561
0.839373
0.782819
0.798399
0.799443
0.72589
0.753023
0.815363
0.764142
0.815096
0.819078
0.814918
0.813427
0.801909
0.775517
0.811997
0.816181
0.728724
0.810546
0.815968
0.81815
0.807775
0.80943
0.76496
0.814733
0.808154
0.803134
0.807401
0.617438
0.806468
0.804316
0.805893
0.821335
0.845411
0.804686
0.774487
0.805258
0.771525
0.820296
0.805904
0.81285
0.815181
0.85001
0.803363
0.744436
0.819682
0.815362
0.727421
0.801003
0.816319
0.758453
0.812723
0.570318
0.806555
0.686044
0.801303
0.811121
0.81255
0.817286
0.804174
0.815766
0.817769
0.801079
0.80444
0.844312
0.81623
0.796192
0.81624
0.802086
0.801653
0.800328
0.801298
0.807182
0.814745
0.801658
0.770245
0.818471
0.812934
0.808812
0.81519
0.587661
0.803285
0.813598
0.815401
0.787658
0.748613
0.718362
0.812581
0.815016
0.825958
0.789527
0.603848
0.771669
0.641461
0.816809
0.744827
0.812295
0.830209
0.696436
0.799759
0.833859
0.749923
0.80056
0.803125
0.815627
0.802345
0.699181
0.80074
0.550365
0.801822
0.802451
0.802171
0.588625
0.802901
0.803406
0.803146
0.728777
0.737677
0.80339
0.776569
0.81573
0.722434
0.707013
0.815147
0.8013
0.752794
0.854098
0.813953
0.812356
0.669816
0.80276
0.800592
0.800512
0.802451
0.657318
0.803235
0.815404
0.654897
0.68582
0.805728
0.790528
0.81526
0.82316
0.815089
0.815298
0.816503
0.80362
0.815322
0.815022
0.813409
0.829181
0.802549
0.801829
0.81036
0.727723
0.80952
0.814877
0.862735
0.810998
0.638597
0.774885
0.802199
0.776167
0.816758
0.811883
0.829997
0.814077
0.864538
0.802054
0.814657
0.594685
0.81563
0.833824
0.802887
0.814389
0.625639
0.815433
0.802676
0.816716
0.802223
0.817567
0.816024
0.754422
0.80353
0.803106
0.83509
0.861863
0.81955
0.816168
0.724517
0.74205
0.802502
0.803025
0.812049
0.818104
0.79964
0.802856
0.819521
0.806583
0.807501
0.73904
0.802697
0.817538
0.813973
0.768446
0.760281
0.811784
0.796328
0.856975
0.718996
0.834562
0.811047
0.710628
0.799655
0.814513
0.787328
0.800746
0.799591
0.815136
0.777498
0.774318
0.813468
0.696378
0.798778
0.765736
0.815007
0.817323
0.802022
0.787704
0.738777
0.752552
0.774088
0.814738
0.818986
0.805838
0.664904
0.802205
0.795858
0.777733
0.809602
0.813024
0.799509
0.803251
0.635548
0.804088
0.804703
0.851298
0.803677
0.809078
0.833305
0.805372
0.810187
0.852209
0.614153
0.804008
0.816227
0.805361
0.804976
0.805661
0.804544
0.804643
0.804163
0.805744
0.806386
0.724936
0.805633
0.807064
0.806816
0.815165
0.808182
0.818541
0.803084
0.803481
0.814775
0.814942
0.810095
0.803324
0.816086
0.813187
0.809838
0.816097
0.708814
0.814007
0.831518
0.815028
0.854268
0.74988
0.808139
0.815146
0.80097
0.611138
0.80323
0.772465
0.821926
0.627733
0.815668
0.829539
0.814782
0.811901
0.802099
0.827008
0.8192
0.803601
0.764907
0.817135
0.758467
0.548585
0.814467
0.693572
0.69559
0.820257
0.827667
0.827492
0.816742
0.847537
0.57687
0.876669
0.805183
0.825971
0.824307
0.813045
0.68252
0.814994
0.822772
0.816463
0.801172
0.773551
0.822141
0.566931
0.813168
0.843195
0.803103
0.839641
0.821538
0.803249
0.670163
0.843274
0.820486
0.836459
0.80093
0.813882
0.803034
0.83383
0.802817
0.813815
0.831407
0.829264
0.821912
0.824341
0.830751
0.738645
0.662724
0.566876
0.827422
0.8259
0.767443
0.756731
0.806475
0.824472
0.84667
0.592634
0.823191
0.822102
0.821193
0.819669
0.803882
0.820685
0.65963
0.744677
0.820394
0.797564
0.869991
0.890053
0.776466
0.80403
0.669892
0.835422
0.731177
0.719569
0.819049
0.801589
0.78347
0.663107
0.80217
0.815191
0.788865
0.712745
0.800604
0.81708
0.797925
0.67886
0.823493
0.792744
0.815842
0.833308
0.815088
0.795824
0.816275
0.816041
0.785781
0.803997
0.711642
0.840505
0.79304
0.811187
0.781962
0.804391
0.69786
0.80084
0.813435
0.812074
0.810919
0.8094
0.808308
0.807558
0.805934
0.804827
0.80674
0.725935
0.805376
0.801445
0.795877
0.803284
0.844318
0.715949
0.803178
0.776066
0.883895
0.854301
0.797972
0.7241
0.80337
0.797577
0.719728
0.803296
0.801751
0.734724
0.803611
0.790086
0.797473
0.801141
0.737543
0.779878
0.80457
0.747609
0.764322
0.769637
0.80146
0.814777
0.80856
0.758915
0.751277
0.799491
0.813833
0.803285
0.793021
0.801121
0.92849
0.86052
0.817795
0.815049
0.723148
0.844353
0.747753
0.826017
0.816539
0.898053
0.815209
0.797322
0.58948
0.81523
0.797436
0.815255
0.79786
0.845545
0.523552
0.832868
0.801518
0.805618
0.804759
0.803801
0.855809
0.801297
0.817472
0.701834
0.665842
0.667011
0.815291
0.505473
0.79783
0.722257
0.841798
0.814722
0.559074
0.802124
0.81468
0.814356
0.719229
0.801755
0.525704
0.79737
0.815411
0.79749
0.802714
0.79773
0.815569
0.833928
0.803237
0.798436
0.815947
0.798701
0.816092
0.814091
0.798988
0.816259
0.813863
0.816453
0.799094
0.816672
0.679844
0.799288
0.816918
0.803046
0.799476
0.817167
0.698479
0.815207
0.798363
0.815191
0.798371
0.810118
0.838311
0.861292
0.800969
0.800558
0.818094
0.815325
0.800202
0.799828
0.863427
0.812286
0.81777
0.810571
0.849895
0.828583
0.81674
0.825707
0.846242
0.815151
0.801683
0.81932
0.811669
0.802111
0.815021
0.800125
0.807571
0.783086
0.806885
0.815202