# vtk DataFile Version 1.0
unstructured grid
ascii
DATASET UNSTRUCTURED_GRID
points 3920 float
-1 0 0
-1 1 0
2 0 0
2 1 0
0 0 0
1 0 0
-1 1 0.1
-1 0 0.1
0 0 0.1
1 0 0.1
2 0 0.1
2 1 0.1
-0.98 0 0
-0.96 0 0
-0.94 0 0
-0.92 0 0
-0.9 0 0
-0.88 0 0
-0.86 0 0
-0.84 0 0
-0.82 0 0
-0.8 0 0
-0.78 0 0
-0.76 0 0
-0.74 0 0
-0.72 0 0
-0.7 0 0
-0.68 0 0
-0.66 0 0
-0.64 0 0
-0.62 0 0
-0.6 0 0
-0.58 0 0
-0.56 0 0
-0.54 0 0
-0.52 0 0
-0.5 0 0
-0.48 0 0
-0.46 0 0
-0.44 0 0
-0.42 0 0
-0.4 0 0
-0.38 0 0
-0.36 0 0
-0.34 0 0
-0.32 0 0
-0.3 0 0
-0.28 0 0
-0.26 0 0
-0.24 0 0
-0.22 0 0
-0.2 0 0
-0.18 0 0
-0.16 0 0
-0.14 0 0
-0.12 0 0
-0.1 0 0
-0.08 0 0
-0.06 0 0
-0.04 0 0
-0.02 0 0
1.02 0 0
1.04 0 0
1.06 0 0
1.08 0 0
1.1 0 0
1.12 0 0
1.14 0 0
1.16 0 0
1.18 0 0
1.2 0 0
1.22 0 0
1.24 0 0
1.26 0 0
1.28 0 0
1.3 0 0
1.32 0 0
1.34 0 0
1.36 0 0
1.38 0 0
1.4 0 0
1.42 0 0
1.44 0 0
1.46 0 0
1.48 0 0
1.5 0 0
1.52 0 0
1.54 0 0
1.56 0 0
1.58 0 0
1.6 0 0
1.62 0 0
1.64 0 0
1.66 0 0
1.68 0 0
1.7 0 0
1.72 0 0
1.74 0 0
1.76 0 0
1.78 0 0
1.8 0 0
1.82 0 0
1.84 0 0
1.86 0 0
1.88 0 0
1.9 0 0
1.92 0 0
1.94 0 0
1.96 0 0
1.98 0 0
2 0.0199133 0
2 0.0414128 0
2 0.0646247 0
2 0.0896856 0
2 0.116743 0
2 0.145955 0
2 0.177494 0
2 0.211545 0
2 0.248309 0
2 0.288001 0
2 0.330854 0
2 0.377121 0
2 0.427073 0
2 0.481004 0
2 0.539231 0
2 0.602096 0
2 0.669968 0
2 0.743247 0
2 0.822362 0
2 0.907779 0
1.9 1 0
1.8 1 0
1.7 1 0
1.6 1 0
1.5 1 0
1.4 1 0
1.3 1 0
1.2 1 0
1.1 1 0
1 1 0
0.9 1 0
0.8 1 0
0.7 1 0
0.6 1 0
0.5 1 0
0.4 1 0
0.3 1 0
0.2 1 0
0.1 1 0
3.69793e-12 1 0
-0.1 1 0
-0.2 1 0
-0.3 1 0
-0.4 1 0
-0.5 1 0
-0.6 1 0
-0.7 1 0
-0.8 1 0
-0.9 1 0
-1 0.907779 0
-1 0.822362 0
-1 0.743247 0
-1 0.669968 0
-1 0.602096 0
-1 0.539231 0
-1 0.481004 0
-1 0.427073 0
-1 0.377121 0
-1 0.330854 0
-1 0.288001 0
-1 0.248309 0
-1 0.211545 0
-1 0.177494 0
-1 0.145955 0
-1 0.116743 0
-1 0.0896856 0
-1 0.0646247 0
-1 0.0414128 0
-1 0.0199133 0
0.0182781 0.00745351 0
0.0366672 0.0146286 0
0.0551632 0.0215237 0
0.0737617 0.0281372 0
0.0924585 0.0344675 0
0.111249 0.0405131 0
0.13013 0.0462728 0
0.149095 0.0517451 0
0.168142 0.0569289 0
0.187265 0.0618228 0
0.20646 0.0664258 0
0.225723 0.0707368 0
0.245049 0.0747549 0
0.264434 0.078479 0
0.283873 0.0819084 0
0.303362 0.0850422 0
0.322896 0.0878798 0
0.342472 0.0904204 0
0.362083 0.0926635 0
0.381726 0.0946086 0
0.401397 0.0962552 0
0.42109 0.0976029 0
0.440802 0.0986514 0
0.460527 0.0994006 0
0.480261 0.0998501 0
0.5 0.1 0
0.519739 0.0998501 0
0.539473 0.0994006 0
0.559198 0.0986514 0
0.57891 0.0976029 0
0.598603 0.0962552 0
0.618274 0.0946086 0
0.637917 0.0926635 0
0.657528 0.0904204 0
0.677104 0.0878798 0
0.696638 0.0850422 0
0.716127 0.0819084 0
0.735566 0.078479 0
0.754951 0.0747549 0
0.774277 0.0707368 0
0.79354 0.0664258 0
0.812735 0.0618228 0
0.831858 0.0569289 0
0.850905 0.0517451 0
0.86987 0.0462728 0
0.888751 0.0405131 0
0.907542 0.0344675 0
0.926238 0.0281372 0
0.944837 0.0215237 0
0.963333 0.0146286 0
0.981722 0.00745351 0
-1 0.907779 0.1
-1 0.822362 0.1
-1 0.743247 0.1
-1 0.669968 0.1
-1 0.602096 0.1
-1 0.539231 0.1
-1 0.481004 0.1
-1 0.427073 0.1
-1 0.377121 0.1
-1 0.330854 0.1
-1 0.288001 0.1
-1 0.248309 0.1
-1 0.211545 0.1
-1 0.177494 0.1
-1 0.145955 0.1
-1 0.116743 0.1
-1 0.0896856 0.1
-1 0.0646247 0.1
-1 0.0414128 0.1
-1 0.0199133 0.1
-0.98 0 0.1
-0.96 0 0.1
-0.94 0 0.1
-0.92 0 0.1
-0.9 0 0.1
-0.88 0 0.1
-0.86 0 0.1
-0.84 0 0.1
-0.82 0 0.1
-0.8 0 0.1
-0.78 0 0.1
-0.76 0 0.1
-0.74 0 0.1
-0.72 0 0.1
-0.7 0 0.1
-0.68 0 0.1
-0.66 0 0.1
-0.64 0 0.1
-0.62 0 0.1
-0.6 0 0.1
-0.58 0 0.1
-0.56 0 0.1
-0.54 0 0.1
-0.52 0 0.1
-0.5 0 0.1
-0.48 0 0.1
-0.46 0 0.1
-0.44 0 0.1
-0.42 0 0.1
-0.4 0 0.1
-0.38 0 0.1
-0.36 0 0.1
-0.34 0 0.1
-0.32 0 0.1
-0.3 0 0.1
-0.28 0 0.1
-0.26 0 0.1
-0.24 0 0.1
-0.22 0 0.1
-0.2 0 0.1
-0.18 0 0.1
-0.16 0 0.1
-0.14 0 0.1
-0.12 0 0.1
-0.1 0 0.1
-0.08 0 0.1
-0.06 0 0.1
-0.04 0 0.1
-0.02 0 0.1
0.0182781 0.00745351 0.1
0.0366672 0.0146286 0.1
0.0551632 0.0215237 0.1
0.0737617 0.0281372 0.1
0.0924585 0.0344675 0.1
0.111249 0.0405131 0.1
0.13013 0.0462728 0.1
0.149095 0.0517451 0.1
0.168142 0.0569289 0.1
0.187265 0.0618228 0.1
0.20646 0.0664258 0.1
0.225723 0.0707368 0.1
0.245049 0.0747549 0.1
0.264434 0.078479 0.1
0.283873 0.0819084 0.1
0.303362 0.0850422 0.1
0.322896 0.0878798 0.1
0.342472 0.0904204 0.1
0.362083 0.0926635 0.1
0.381726 0.0946086 0.1
0.401397 0.0962552 0.1
0.42109 0.0976029 0.1
0.440802 0.0986514 0.1
0.460527 0.0994006 0.1
0.480261 0.0998501 0.1
0.5 0.1 0.1
0.519739 0.0998501 0.1
0.539473 0.0994006 0.1
0.559198 0.0986514 0.1
0.57891 0.0976029 0.1
0.598603 0.0962552 0.1
0.618274 0.0946086 0.1
0.637917 0.0926635 0.1
0.657528 0.0904204 0.1
0.677104 0.0878798 0.1
0.696638 0.0850422 0.1
0.716127 0.0819084 0.1
0.735566 0.078479 0.1
0.754951 0.0747549 0.1
0.774277 0.0707368 0.1
0.79354 0.0664258 0.1
0.812735 0.0618228 0.1
0.831858 0.0569289 0.1
0.850905 0.0517451 0.1
0.86987 0.0462728 0.1
0.888751 0.0405131 0.1
0.907542 0.0344675 0.1
0.926238 0.0281372 0.1
0.944837 0.0215237 0.1
0.963333 0.0146286 0.1
0.981722 0.00745351 0.1
1.02 0 0.1
1.04 0 0.1
1.06 0 0.1
1.08 0 0.1
1.1 0 0.1
1.12 0 0.1
1.14 0 0.1
1.16 0 0.1
1.18 0 0.1
1.2 0 0.1
1.22 0 0.1
1.24 0 0.1
1.26 0 0.1
1.28 0 0.1
1.3 0 0.1
1.32 0 0.1
1.34 0 0.1
1.36 0 0.1
1.38 0 0.1
1.4 0 0.1
1.42 0 0.1
1.44 0 0.1
1.46 0 0.1
1.48 0 0.1
1.5 0 0.1
1.52 0 0.1
1.54 0 0.1
1.56 0 0.1
1.58 0 0.1
1.6 0 0.1
1.62 0 0.1
1.64 0 0.1
1.66 0 0.1
1.68 0 0.1
1.7 0 0.1
1.72 0 0.1
1.74 0 0.1
1.76 0 0.1
1.78 0 0.1
1.8 0 0.1
1.82 0 0.1
1.84 0 0.1
1.86 0 0.1
1.88 0 0.1
1.9 0 0.1
1.92 0 0.1
1.94 0 0.1
1.96 0 0.1
1.98 0 0.1
2 0.0199133 0.1
2 0.0414128 0.1
2 0.0646247 0.1
2 0.0896856 0.1
2 0.116743 0.1
2 0.145955 0.1
2 0.177494 0.1
2 0.211545 0.1
2 0.248309 0.1
2 0.288001 0.1
2 0.330854 0.1
2 0.377121 0.1
2 0.427073 0.1
2 0.481004 0.1
2 0.539231 0.1
2 0.602096 0.1
2 0.669968 0.1
2 0.743247 0.1
2 0.822362 0.1
2 0.907779 0.1
1.9 1 0.1
1.8 1 0.1
1.7 1 0.1
1.6 1 0.1
1.5 1 0.1
1.4 1 0.1
1.3 1 0.1
1.2 1 0.1
1.1 1 0.1
1 1 0.1
0.9 1 0.1
0.8 1 0.1
0.7 1 0.1
0.6 1 0.1
0.5 1 0.1
0.4 1 0.1
0.3 1 0.1
0.2 1 0.1
0.1 1 0.1
3.69793e-12 1 0.1
-0.1 1 0.1
-0.2 1 0.1
-0.3 1 0.1
-0.4 1 0.1
-0.5 1 0.1
-0.6 1 0.1
-0.7 1 0.1
-0.8 1 0.1
-0.9 1 0.1
1.08758 0.0158154 0
-0.0898513 0.0203294 0
0.0966181 0.0537636 0
0.90205 0.0548881 0
1.21055 0.0202058 0
-0.209811 0.0159577 0
1.3305 0.0176902 0
-0.33 0.0173205 0
1.45324 0.0148141 0
-0.448654 0.0159854 0
1.56842 0.0191785 0
-0.569936 0.0166364 0
0.193292 0.0805369 0
0.805051 0.0813623 0
0.709096 0.100353 0
0.288591 0.0996656 0
0.390184 0.111848 0
0.61033 0.111742 0
0.488809 0.116278 0
1.67175 0.0169692 0
-0.67 0.0169809 0
-0.955017 0.454039 0
1.95131 0.44569 0
1.74981 0.0168753 0
-0.75 0.0173205 0
-0.968032 0.266538 0
1.96871 0.266267 0
0.978232 0.0305687 0
0.0208675 0.026451 0
-0.150454 0.91842 0
1.13854 0.907437 0
1.45012 0.904365 0
-0.445923 0.908903 0
-0.853423 0.0157019 0
1.84881 0.016319 0
0.853689 0.915652 0
0.153944 0.912184 0
0.545151 0.914125 0
0.549913 0.115152 0
1.51 0.0173205 0
-0.506989 0.01651 0
1.27 0.0173205 0
1.14976 0.0173333 0
-0.268171 0.0206442 0
-0.150501 0.0153244 0
-0.391384 0.0153993 0
1.38886 0.0171544 0
-0.973694 0.161724 0
1.97441 0.162392 0
-0.945221 0.633523 0
1.94544 0.63312 0
1.91008 0.0186068 0
-0.91 0.0169616 0
-0.030664 0.0194327 0
1.03074 0.0165456 0
-0.966065 0.353575 0
1.96128 0.359765 0
1.93879 0.781254 0
-0.937057 0.781882 0
-0.980746 0.080709 0
1.9772 0.0760699 0
0.058735 0.0409372 0
0.355202 0.913001 0
0.86356 0.0661005 0
0.134223 0.0651111 0
0.941972 0.0397386 0
-0.653034 0.915003 0
1.65328 0.904589 0
0.770126 0.0881325 0
0.232946 0.0902008 0
0.330582 0.105648 0
0.670612 0.108365 0
0.428707 0.116145 0
1.80993 0.016629 0
-0.810168 0.0172178 0
-0.71 0.0173205 0
1.63047 0.0175504 0
1.70842 0.0169661 0
-0.628824 0.0181787 0
-0.949815 0.0133898 0
1.95 0.0173205 0
1.85542 0.907891 0
-0.85 0.913397 0
1.9833 0.0307692 0
-0.983315 0.0309709 0
-0.750025 0.916468 0
-0.701107 0.836904 0
-0.607741 0.836428 0
-0.656448 0.759827 0
-0.572936 0.758144 0
-0.61411 0.691195 0
-0.539534 0.689068 0
-0.578542 0.626111 0
-0.507461 0.624216 0
-0.544001 0.566638 0
-0.477696 0.564279 0
-0.511582 0.51001 0
-0.451689 0.507147 0
-0.481834 0.457732 0
-0.426137 0.454624 0
-0.453236 0.407539 0
-0.398845 0.406233 0
-0.507958 0.409496 0
-0.368427 0.460177 0
-0.344602 0.405209 0
-0.315696 0.447824 0
-0.294128 0.402169 0
-0.262844 0.444518 0
-0.241968 0.388746 0
-0.209878 0.439557 0
-0.185184 0.391135 0
-0.156687 0.437338 0
-0.133719 0.390776 0
-0.104405 0.434306 0
-0.0818745 0.388334 0
-0.0528785 0.431165 0
-0.0305984 0.385639 0
-0.00180552 0.427863 0
0.0194564 0.382608 0
0.0485809 0.42449 0
0.0701962 0.37973 0
0.0985483 0.421145 0
0.119893 0.377339 0
0.147837 0.417911 0
0.172552 0.36751 0
0.197018 0.412597 0
0.221203 0.37141 0
0.24512 0.409646 0
-0.48178 0.364657 0
-0.531053 0.364782 0
-0.0599102 0.344151 0
-0.324909 0.359566 0
0.266181 0.368462 0
0.292132 0.407649 0
0.311992 0.365779 0
0.338918 0.404821 0
0.357567 0.355909 0
0.384723 0.40053 0
0.404675 0.359681 0
0.430617 0.398558 0
0.450457 0.35827 0
0.474237 0.395182 0
0.496746 0.34898 0
0.520548 0.397931 0
0.542071 0.353121 0
0.566011 0.389914 0
0.585061 0.350856 0
0.609352 0.38696 0
0.629069 0.348168 0
0.655979 0.391217 0
0.67472 0.346182 0
0.699346 0.381414 0
0.719333 0.341965 0
0.743718 0.377547 0
0.764028 0.339036 0
0.788201 0.373582 0
0.807659 0.336101 0
0.832821 0.372249 0
0.852309 0.334017 0
0.877785 0.370339 0
0.897875 0.331141 0
0.922904 0.366281 0
0.943173 0.327335 0
0.968282 0.363358 0
0.989029 0.324222 0
1.01391 0.361511 0
1.03465 0.321428 0
1.05949 0.358447 0
1.08389 0.312052 0
1.10575 0.355104 0
1.12889 0.31562 0
1.15067 0.353235 0
1.17157 0.312819 0
1.19626 0.349369 0
1.21618 0.309863 0
1.2416 0.346914 0
1.26131 0.30715 0
1.28691 0.344312 0
1.30571 0.303752 0
1.33144 0.341222 0
1.35018 0.300911 0
1.3758 0.338308 0
1.39501 0.298931 0
1.42015 0.335235 0
1.43904 0.296349 0
1.46355 0.330194 0
1.48256 0.293347 0
1.50685 0.326967 0
1.52589 0.29055 0
1.54996 0.325305 0
1.56909 0.287929 0
[...]
CELL_DATA 3694
SCALARS rho float
LOOKUP_TABLE default
0.734494
0.669488
0.803651
0.812276
0.826001
0.804904
0.791359
0.799528
0.809315
0.802489
0.816641
0.816634
0.839973
0.789069
0.800363
0.749359
0.803142
0.802734
0.759197
0.849614
0.816667
0.822434
0.695239
0.803228
0.6918
0.838841
0.719624
0.805782
0.836487
0.798196
0.798397
0.718244
0.803294
0.824198
0.802523
0.796727
0.836767
0.822234
0.824276
0.778055
0.804455
0.81709
0.833819
0.824764
0.804891
0.81216
0.80033
0.662327
0.678322
0.719035
0.801897
0.802851
0.846371
0.801851
0.626133
0.837666
0.802338
0.818443
0.832406
0.7534
0.796012
0.814346
0.841629
0.799143
0.842139
0.83031
0.807165
0.81281
0.736495
0.857908
0.803067
0.807387
0.822458
0.803105
0.823877
0.802823
0.81394
0.799259
0.813218
0.80259
0.712082
0.817877
0.802132
0.776656
0.809191
0.799209
0.817786
0.713218
0.736274
0.824588
0.798585
0.802165
0.819969
0.814872
0.673935
0.806307
0.722324
0.817133
0.811625
0.83948
0.813923
0.761548
0.719105
0.809121
0.808629
0.814342
0.81711
0.806806
0.714752
0.813682
0.799041
0.720772
0.721326
0.822998
0.867545
0.801986
0.79914
0.811426
0.803052
0.801889
0.765451
0.822207
0.819114
0.76919
0.704947
0.757877
0.816782
0.776164
0.843146
0.69876
0.766917
0.800123
0.807719
0.777168
0.80044
0.795028
0.805256
0.802239
0.79756
0.813856
0.813101
0.709154
0.816299
0.812901
0.757007
0.664771
0.676132
0.797686
0.815344
0.812882
0.743297
0.802552
0.552621
0.777962
0.682985
0.762477
0.712771
0.783126
0.604967
0.792787
0.837265
0.643513
0.781702
0.736343
0.843674
0.550881
0.816979
0.79999
0.802401
0.672331
0.801446
0.661292
0.85743
0.53231
0.799671
0.630447
0.871998
0.832823
0.820092
0.745015
0.813453
0.722021
0.826395
0.737296
0.647309
0.803006
0.672506
0.822843
0.801527
0.850558
0.791519
0.705215
0.814056
0.797956
0.741166
0.852429
0.811174
0.848464
0.735872
0.741831
0.770497
0.79325
0.831215
0.834
0.816656
0.813456
0.667747
0.804424
0.725753
0.803095
0.706862
0.796865
0.79544
0.801301
0.825182
0.762783
0.829913
0.748832
0.825123
0.819329
0.815297
0.852708
0.829208
0.701401
0.826544
0.688706
0.787488
0.809442
0.850725
0.8297
0.807661
0.794104
0.744276
0.817005
0.836259
0.816817
0.713856
0.799223
0.693314
0.791649
0.795296
0.809419
0.635726
0.807335
0.75689
0.797629
0.803029
0.758503
0.814508
0.865331
0.784042
0.692966
0.804208
0.801204
0.64591
0.791683
0.7775
0.802266
0.8386
0.8141
0.606718
0.814531
0.80992
0.796268
0.81481
0.802515
0.815153
0.814062
0.83538
0.755509
0.801691
0.834398
0.810027
0.803069
0.795884
0.814266
0.728316
0.586041
0.816267
0.829392
0.819875
0.803972
0.679292
0.814808
0.814533
0.816278
0.711698
0.796759
0.814372
0.535918
0.802726
0.868858
0.675672
0.755382
0.838268
0.826571
0.814105
0.708022
0.80922
0.814366
0.803637
0.801445
0.811911
0.836286
0.816896
0.766766
0.806831
0.802957
0.645351
0.820474
0.827385
0.670295
0.790452
0.818303
0.820666
0.677849
0.686572
0.820897
0.823593
0.809346
0.733652
0.705927
0.712659
0.731377
0.81978
0.775986
0.803981
0.731196
0.741988
0.822009
0.809657
0.818712
0.769276
0.814506
0.813177
0.816776
0.815397
0.802647
0.807339
0.803484
0.692928
0.802619
0.812563
0.692865
0.806736
0.804928
0.818892
0.78552
0.805728
0.791577
0.814252
0.820463
0.819648
0.797827
0.679123
0.709198
0.799227
0.810683
0.620674
0.803708
0.80707
0.817039
0.742381
0.804092
0.815813
0.810946
0.817258
0.804859
0.797103
0.763714
0.803901
0.843149
0.819645
0.707689
0.803423
0.700851
0.705046
0.802888
0.613619
0.770173
0.784505
0.807863
0.81276
0.824843
0.816571
0.812236
0.819658
0.827805
0.80275
0.763866
0.809561
0.657711
0.818716
0.756569
0.726725
0.685433
0.813318
0.853712
0.818743
0.808362
0.821865
0.814694
0.786595
0.757533
0.809023
0.692447
0.790976
0.843222
0.826393
0.800661
0.863747
0.813179
0.816019
0.816993
0.830835
0.627907
0.798155
0.730065
0.797609
0.735068
0.818581
0.808477
0.786772
0.685759
0.814156
0.829802
0.811276
0.802775
0.803638
0.823893
0.803688
0.709439
0.790108
0.803041
0.814111
0.813448
0.812057
0.871393
0.827357
0.809193
0.831681
0.681177
0.822931
0.837232
0.815643
0.626689
0.814669
0.808982
0.845146
0.820866
0.802849
0.591117
0.809897
0.694638
0.805936
0.802825
0.811842
0.812893
0.825011
0.804907
0.811005
0.815483
0.722894
0.862656
0.801807
0.849856
0.815868
0.572396
0.803743
0.796487
0.811014
0.817121
0.645725
0.802748
0.809447
0.812794
0.806933
0.793688
0.815013
0.81678
0.795639
0.803523
0.820958
0.836587
0.729104
0.8061
0.809304
0.812571
0.681676
0.805033
0.815519
0.79899
0.803896
0.518265
0.832525
0.762947
0.814016
0.817202
0.830466
0.845941
0.815598
0.811005
0.71473
0.798653
0.852117
0.807915
0.709345
0.799971
0.802556
0.871983
0.844958
0.818547
0.801914
0.809478
0.75494
0.814832
0.813635
0.583608
0.80248
0.72837
0.749956
0.802918
0.810799
0.780784
0.821001
0.814663
0.837716
0.815468
0.800324
0.808463
0.738684
0.736181
0.804009
0.807554
0.820656
0.802024
0.751521
0.68757
0.81293
0.814969
0.813805
0.593439
0.813053
0.816269
0.824272
0.802896
0.808223
0.819188
0.811656
0.839081
0.80291
0.812479
0.823306
0.815012
0.817382
0.821141
0.687442
0.783955
0.79441
0.803003
0.847298
0.802
0.80231
0.634307
0.810463
0.812983
0.810557
0.818543
0.805617
0.812497
0.726502
0.843288
0.70794
0.800191
0.816805
0.807064
0.649734
0.684364
0.815009
0.805513
0.804059
0.784902
0.801463
0.828863
0.813003
0.80483
0.801984
0.811757
0.618764
0.811806
0.802861
0.696844
0.815055
0.615226
0.783436
0.814976
0.837501
0.805415
0.811893
0.791932
0.795099
0.803857
0.801365
0.81144
0.810924
0.80846
0.803175
0.757166
0.803966
0.811921
0.811374
0.81581
0.810942
0.815371
0.814315
0.833967
0.737246
0.806489
0.815096
0.802258
0.540834
0.680689
0.810921
0.812656
0.814631
0.780162
0.808
0.812452
0.803007
0.799783
0.802579
0.819549
0.820373
0.814397
0.784332
0.807693
0.805169
0.537822
0.773534
0.756776
0.806126
0.735062
0.674009
0.797376
0.767204
0.827328
0.81431
0.814091
0.808202
0.538611
0.815255
0.582153
0.694244
0.824234
0.869512
0.740558
0.816067
0.852599
0.69406
0.814853
0.808843
0.814709
0.807183
0.655327
0.854282
0.737289
0.728912
0.803189
0.804467
0.799371
0.833245
0.814596
0.690143
0.815112
0.800198
0.689892
0.839183
0.797923
0.620973
0.772511
0.815137
0.807402
0.81423
0.784277
0.72393
0.769478
0.836764
0.687878
0.815399
0.816883
0.826519
0.764803
0.821612
0.690399
0.804459
0.659724
0.700025
0.800104
0.822422
0.787959
0.813955
0.814822
0.81463
0.813364
0.575627
0.802494
0.814355
0.742805
0.809923
0.814863
0.811217
0.715816
0.693489
0.740765
0.618721
0.807105
0.68064
0.815084
0.801817
0.814406
0.836755
0.686372
0.804087
0.819362
0.832171
0.736862
0.781306
0.764637
0.772609
0.81187
0.55983
0.670471
0.814719
0.805204
0.811851
0.804444
0.711792
0.779863
0.723375
0.760555
0.799427
0.831552
0.812078
0.690572
0.822962
0.817464
0.810384
0.684127
0.694136
0.680519
0.871925
0.815337
0.816147
0.60775
0.710718
0.640378
0.803294
0.800252
0.670943
0.811771
0.824162
0.748304
0.799262
0.728844
0.813591
0.69174
0.81413
0.810327
0.801048
0.803049
0.82524
0.743731
0.815189
0.814373
0.780084
0.550073
0.815987
0.810408
0.757314
0.813246
0.747539
0.802762
0.826087
0.655459
0.817648
0.802666
0.80985
0.581745
0.621713
0.734582
0.806255
0.811574
0.810295
0.820619
0.814474
0.815439
0.703785
0.801857
0.812647
0.825847
0.70282
0.725053
0.81168
0.811474
0.695332
0.814174
0.774018
0.702681
0.811753
0.695247
0.803799
0.661573
0.802856
0.730343
0.665623
0.810661
0.785961
0.743578
0.630176
0.839816
0.820932
0.814432
0.769912
0.813573
0.799981
0.785714
0.799778
0.801591
0.814689
0.730649
0.80957
0.799902
0.818297
0.597073
0.801231
0.812449
0.813416
0.811091
0.811657
0.74561
0.802603
0.763762
0.75013
0.818144
0.644793
0.818085
0.817202
0.803049
0.815104
0.816337
0.719361
0.768431
0.821677
0.784906
0.803653
0.815537
0.874898
0.817568
0.797828
0.816301
0.814755
0.793839
0.818006
0.816457
0.772905
0.696523
0.840897
0.796873
0.80314
0.822433
0.780729
0.817362
0.824654
0.818183
0.816376
0.870334
0.803068
0.804758
0.817782
0.803064
0.814877
0.80683
0.734876
0.814804
0.819247
0.753875
0.706939
0.814691
0.842931
0.822197
0.65049
0.82132
0.773358
0.807838
0.801801
0.729014
0.803098
0.798524
0.815341
0.816454
0.691943
0.703271
0.802112
0.787425
0.801413
0.824536
0.722336
0.81437
0.802321
0.800002
0.823102
0.814858
0.71182
0.815129
0.762726
0.802356
0.832414
0.803274
0.77289
0.797793
0.794553
0.814504
0.57276
0.814322
0.695839
0.675592
0.803379
0.819072
0.81438
0.802476
0.814528
0.808048
0.723128
0.78743
0.856894
0.802991
0.83323
0.807296
0.540007
0.762207
0.779308
0.646131
0.736865
0.576797
0.81981
0.812639
0.813565
0.80237
0.766587
0.683746
0.763827
0.752115
0.781813
0.814292
0.844674
0.81891
0.805713
0.819147
0.82344
0.802545
0.807363
0.703449
0.803044
0.755812
0.808549
0.797665
0.750911
0.821991
0.788234
0.803455
0.789315
0.840634
0.727259
0.800783
0.799276
0.804782
0.616463
0.8149
0.814776
0.821471
0.6292
0.814653
0.814662
0.798364
0.803759
0.793055
0.774738
0.805987
0.794146
0.815404
0.753145
0.803373
0.87511
0.762212
0.747259
0.806567
0.783842
0.842284
0.799465
0.779012
0.815
0.798073
0.79237
0.807935
0.825147
0.83538
0.79962
0.572129
0.81998
0.827859
0.771904
0.830362
0.837907
0.82243
0.825872
0.807143
0.832576
0.82642
0.783557
0.808717
0.810802
0.805861
0.822248
0.803297
0.827183
0.79275
0.802917
0.805589
0.72566
0.806955
0.55936
0.817455
0.824881
0.82821
0.805532
0.817867
0.823459
0.819229
0.820332
0.838448
0.832729
0.787412
0.800239
0.821235
0.814834
0.816416
0.800078
0.806254
0.865343
0.819547
0.847067
0.814538
0.800494
0.824429
0.799587
0.833231
0.812896
0.81486
0.805154
0.725058
0.802804
0.804403
0.814465
0.803224
0.801699
0.821901
0.804399
0.804056
0.777646
0.819544
0.716508
0.813854
0.779724
0.758351
0.80345
0.813101
0.818801
0.713935
0.818819
0.815018
0.826361
0.816561
0.789289
0.815724
0.847029
0.832752
0.814507
0.811544
0.801447
0.742897
0.6757
0.814461
0.820286
0.770272
0.813849
0.807581
0.811228
0.805244
0.798283
0.775866
0.802303
0.799871
0.841133
0.816848
0.811178
0.806083
0.601805
0.729996
0.80203
0.782829
0.803918
0.815147
0.805727
0.815492
0.77951
0.814534
0.804612
0.810101
0.803541
0.817313
0.803125
0.815272
0.810319
0.815273
0.812267
0.716181
0.813936
0.815078
0.595539
0.814293
0.796565
0.802585
0.858511
0.81783
0.810122
0.872285
0.814703
0.814783
0.816271
0.818301
0.814724
0.763842
0.830103
0.801105
0.803012
0.814011
0.814645
0.816149
0.814491
0.812886
0.822569
0.803815
0.811955
0.808852
0.814862
0.819766
0.81451
0.811225
0.818746
0.808726
0.697105
0.657851
0.802469
0.80827
0.803172
0.810719
0.817843
0.816572
0.802736
0.803532
0.800347
0.800634
0.816346
0.844079
0.817996
0.811204
0.817947
0.817614
0.845699
0.816934
0.820775
0.78535
0.815251
0.806603
0.80095
0.791775
0.810242
0.817955
0.814339
0.81457
0.835785
0.805584
0.812045
0.816065
0.821301
0.80334
0.803018
0.805328
0.81028
0.814457
0.801378
0.802524
0.816323
0.822282
0.800573
0.579642
0.804081
0.796444
0.816928
0.798397
0.802605
0.747649
0.840467
0.802558
0.799519
0.834392
0.82929
0.810006
0.825741
0.800243
0.817289
0.816904
0.818146
0.803435
0.817726
0.726691
0.821796
0.811303
0.799853
0.812793
0.819983
0.798909
0.803807
0.781773
0.814936
0.814741
0.814852
0.817935
0.80622
0.81647
0.815152
0.825595
0.821758
0.837275
0.805705
0.694357
0.817371
0.840296
0.819212
0.804378
0.799822
0.80313
0.815713
0.813881
0.815363
0.743317
0.736957
0.800494
0.802779
0.815034
0.815989
0.798156
0.651022
0.707496
0.80781
0.768904
0.815197
0.702102
0.802958
0.72733
0.80311
0.819648
0.803045
0.816705
0.812128
0.79839
0.808349
0.792916
0.829624
0.814883
0.800954
0.803278
0.815242
0.821118
0.74857
0.822197
0.803539
0.782987
0.814755
0.803635
0.810163
0.813901
0.814328
0.834906
0.792157
0.798724
0.814629
0.758335
0.806363
0.814044
0.80081
0.815307
0.840957
0.80202
0.842886
0.808206
0.789874
0.811115
0.802542
0.851655
0.788193
0.803038
0.815339
0.831157
0.808146
0.813001
0.815036
0.802648
0.802565
0.825713
0.782171
0.813562
0.814615
0.641425
0.814821
0.711833
0.817383
0.83786
0.82397
0.803682
0.813808
0.814461
0.724827
0.813992
0.800499
0.801387
0.800609
0.815055
0.86359
0.801007
0.800713
0.785077
0.840249
0.827727
0.818985
0.812545
0.746064
0.802933
0.803263
0.729978
0.799077
0.713506
0.809763
0.80079
0.675287
0.880074
0.701561
0.771877
0.800906
0.742384
0.808136
0.798618
0.802954
0.65915
0.79653
0.783773
0.798656
0.727382
0.818064
0.821868
0.884412
0.809213
0.830902
0.643853
0.799631
0.786329
0.7433
0.750485
0.768215
0.704628
0.802956
0.798984
0.80303
0.763039
0.625725
0.811183
0.611266
0.82056
0.822388
0.811254
0.73623
0.811546
0.794783
0.818508
0.782402
0.806517
0.796928
0.809275
0.715841
0.801238
0.721473
0.801084
0.798461
0.684294
0.80339
0.814354
0.814419
0.802982
0.760562
0.814189
0.732191
0.689751
0.802129
0.814415
0.874232
0.814312
0.813704
0.880426
0.865239
0.830508
0.718064
0.801767
0.811646
0.820937
0.797389
0.679329
0.721887
0.674118
0.802269
0.704855
0.767922
0.799122
0.613933
0.688353
0.835732
0.772945
0.744569
0.829996
0.758494
0.769021
0.625903
0.730544
0.784516
0.819119
0.869316
0.83743
0.81477
0.794044
0.799388
0.714877
0.814616
0.693116
0.796796
0.814393
0.783285
0.761905
0.80111
0.78221
0.802038
0.800503
0.810948
0.810829
0.866931
0.565388
0.53615
0.802212
0.806435
0.697207
0.809669
0.802654
0.837145
0.803339
0.80224
0.565437
0.552281
0.808158
0.811606
0.814527
0.725135
0.803053
0.809949
0.683277
0.810614
0.802563
0.813012
0.803088
0.800029
0.80211
0.813462
0.802839
0.816765
0.803075
0.861833
0.813822
0.802383
0.721137
0.668739
0.814575
0.583464
0.812138
0.80976
0.835473
0.813111
0.80289
0.810496
0.812503
0.812315
0.81414
0.80145
0.853527
0.85619
0.80203
0.653639
0.807784
0.822146
0.799267
0.803059
0.819404
0.732892
0.803164
0.824715
0.820755
0.814906
0.814407
0.766087
0.745351
0.800519
0.833563
0.80255
0.813695
0.804223
0.803423
0.804759
0.813139
0.80858
0.798416
0.806664
0.805756
0.82431
0.806477
0.806079
0.816784
0.806589
0.8033
0.812229
0.802869
0.802726
0.805611
0.807566
0.81237
0.773195
0.805139
0.802595
0.814304
0.799479
0.80359
0.806648
0.831362
0.804847
0.648157
0.800585
0.814597
0.804482
0.814526
0.762521
0.814359
0.749959
0.803521
0.802056
0.803893
0.818668
0.850705
0.804193
0.803178
0.746886
0.829073
0.814296
0.819704
0.824679
0.814101
0.735663
0.817345
0.720825
0.800874
0.827038
0.802243
0.698144
0.825257
0.814102
0.815531
0.823498
0.814725
0.772908
0.816362
0.64619
0.708952
0.814393
0.821964
0.673565
0.818555
0.657725
0.820759
0.806503
0.815849
0.80309
0.805291
0.81423
0.831282
0.824863
0.670064
0.812365
0.841629
0.781147
0.84592
0.800118
0.704286
0.838074
0.818784
0.835087
0.686355
0.681242
0.832391
0.654523
0.83008
0.814409
0.828035
0.806091
0.826304
0.787423
0.824787
0.823383
0.706153
0.865403
0.822178
0.821158
0.823382
0.75861
0.802708
0.521422
0.80258
0.820271
0.812872
0.804545
0.82535
0.814344
0.797754
0.81949
0.802889
0.677799
0.79218
0.833901
0.813733
0.71469
0.798701
0.821341
0.574028
0.814097
0.814937
0.802434
0.809719
0.725155
0.817374
0.802932
0.803356
0.795769
0.793416
0.79771
0.79452
0.803216
0.811722
0.819106
0.813452
0.57101
0.892846
0.704632
0.797698
0.738775
0.791236
0.81432
0.815054
0.814933
0.603166
0.818424
0.817003
0.80373
0.817426
0.836277
0.839212
0.782647
0.798282
0.799317
0.723992
0.752013
0.814592
0.76351
0.814963
0.818472
0.814157
0.813291
0.801847
0.774755
0.811854
0.815481
0.727816
0.810394
0.815257
0.817516
0.807609
0.809272
0.764096
0.813928
0.807994
0.803065
0.807241
0.615224
0.806304
0.804152
0.805729
0.820773
0.845274
0.804519
0.773653
0.805093
0.771311
0.819718
0.805284
0.812086
0.814329
0.849885
0.803278
0.744018
0.819581
0.81459
0.72648
0.800663
0.815624
0.758175
0.811958
0.567736
0.806379
0.685011
0.800962
0.810707
0.811863
0.816627
0.804043
0.815226
0.817154
0.800847
0.80408
0.844061
0.815542
0.796025
0.815628
0.801691
0.801259
0.800113
0.801069
0.806606
0.813958
0.801432
0.769371
0.817852
0.812523
0.808684
0.81434
0.585319
0.803158
0.813482
0.814642
0.786979
0.747639
0.719002
0.811822
0.814181
0.825457
0.788835
0.601689
0.771068
0.638582
0.816134
0.745039
0.81154
0.82985
0.693564
0.799502
0.833435
0.748697
0.800449
0.803063
0.814945
0.801894
0.698194
0.800537
0.54663
0.801594
0.802309
0.802078
0.562383
0.802828
0.803305
0.803059
0.727987
0.736879
0.803306
0.775981
0.814998
0.721554
0.706049
0.814386
0.801183
0.752075
0.853863
0.813176
0.811602
0.668499
0.802658
0.80041
0.800304
0.802358
0.655564
0.803111
0.81465
0.65347
0.684654
0.805615
0.790006
0.814475
0.822788
0.814384
0.814585
0.815834
0.803528
0.81455
0.814324
0.812996
0.828959
0.802288
0.801661
0.810141
0.725825
0.809394
0.81418
0.862533
0.810549
0.636954
0.774056
0.802057
0.775861
0.816089
0.811204
0.829647
0.813803
0.864335
0.801719
0.81395
0.592337
0.815345
0.833479
0.802823
0.813594
0.62376
0.814795
0.802621
0.816046
0.802114
0.816929
0.815332
0.754528
0.803428
0.803064
0.834737
0.861635
0.8194
0.815464
0.725171
0.740679
0.802398
0.802902
0.811761
0.817484
0.799374
0.802735
0.818939
0.805981
0.80736
0.739327
0.802605
0.816936
0.81338
0.767846
0.760329
0.811164
0.796233
0.856712
0.718129
0.834191
0.810414
0.711777
0.799511
0.813805
0.787284
0.800554
0.79954
0.814407
0.776829
0.774302
0.812726
0.696545
0.79847
0.76499
0.814262
0.816666
0.801854
0.787098
0.737814
0.751709
0.773522
0.813968
0.818373
0.80523
0.655345
0.801666
0.795293
0.777609
0.80954
0.812296
0.799364
0.802943
0.632022
0.803792
0.804417
0.850977
0.803574
0.808846
0.832912
0.805096
0.809533
0.851912
0.611215
0.803905
0.815526
0.805247
0.804862
0.805546
0.804437
0.804531
0.804056
0.805627
0.806123
0.723835
0.805516
0.806807
0.806289
0.81451
0.80794
0.818032
0.80303
0.803391
0.814086
0.814269
0.809424
0.803293
0.816023
0.812905
0.809312
0.815421
0.70749
0.813282
0.831101
0.814275
0.853966
0.749192
0.807525
0.814324
0.800565
0.597226
0.803153
0.77189
0.821358
0.626341
0.814939
0.829098
0.814006
0.811369
0.801951
0.82673
0.81877
0.803436
0.76429
0.816484
0.758207
0.545482
0.813656
0.695684
0.694054
0.82019
0.827202
0.827001
0.816077
0.847207
0.5691
0.876364
0.805065
0.825485
0.823799
0.812368
0.680696
0.814195
0.822243
0.815781
0.800768
0.773501
0.822062
0.56411
0.812626
0.842832
0.803013
0.83925
0.820992
0.80322
0.667906
0.842956
0.819922
0.836043
0.800698
0.813325
0.802987
0.833391
0.802696
0.81324
0.830947
0.828784
0.821824
0.823803
0.830554
0.738905
0.659866
0.562119
0.826923
0.825384
0.766883
0.75593
0.805847
0.82394
0.846552
0.589499
0.822644
0.821541
0.820619
0.819069
0.803758
0.820588
0.656233
0.743505
0.819806
0.797145
0.869647
0.889943
0.77606
0.803417
0.668755
0.835255
0.729468
0.71739
0.818937
0.801456
0.783159
0.658944
0.802053
0.814424
0.788619
0.710403
0.799985
0.816962
0.797781
0.674622
0.823135
0.792587
0.815125
0.832875
0.814961
0.795186
0.815581
0.815336
0.7856
0.803832
0.709428
0.84036
0.792842
0.810565
0.781623
0.804224
0.694654
0.800665
0.813295
0.811933
0.810768
0.809242
0.80815
0.807395
0.805768
0.80466
0.806577
0.723983
0.80521
0.801303
0.795713
0.803169
0.844183
0.714014
0.803103
0.775833
0.883788
0.853957
0.797831
0.722467
0.80312
0.797511
0.71812
0.80318
0.801516
0.733359
0.803493
0.789416
0.797054
0.80091
0.73682
0.779144
0.803997
0.746491
0.764021
0.768806
0.801233
0.814064
0.808421
0.75796
0.750839
0.799369
0.813062
0.80321
0.792534
0.800962
0.928557
0.860318
0.817215
0.814209
0.723596
0.844019
0.747058
0.825792
0.816154
0.897991
0.814385
0.796908
0.5873
0.814419
0.797022
0.814456
0.797443
0.845278
0.518717
0.832442
0.801417
0.805421
0.804676
0.803588
0.855463
0.801123
0.816833
0.700925
0.654429
0.665927
0.814503
0.500643
0.797453
0.721001
0.841521
0.814385
0.556444
0.801669
0.813911
0.813575
0.718389
0.801522
0.52309
0.796933
0.814646
0.797052
0.802583
0.797292
0.814823
0.833612
0.803208
0.797998
0.815229
0.798262
0.815383
0.813687
0.798544
0.815559
0.813138
0.815763
0.798648
0.815991
0.678808
0.79884
0.816246
0.80298
0.799029
0.816503
0.696799
0.814413
0.798024
0.81435
0.798043
0.809474
0.83795
0.861031
0.800792
0.800113
0.817458
0.81514
0.799757
0.799381
0.863106
0.811842
0.817125
0.809926
0.849616
0.828092
0.816095
0.82533
0.845886
0.81435
0.801237
0.818711
0.811259
0.801661
0.814246
0.79978
0.807147
0.782781
0.806448
0.814497