# vtk DataFile Version 1.0
unstructured grid
ascii
DATASET UNSTRUCTURED_GRID
points 3920 float
-1 0 0
-1 1 0
2 0 0
2 1 0
0 0 0
1 0 0
-1 1 0.1
-1 0 0.1
0 0 0.1
1 0 0.1
2 0 0.1
2 1 0.1
-0.98 0 0
-0.96 0 0
-0.94 0 0
-0.92 0 0
-0.9 0 0
-0.88 0 0
-0.86 0 0
-0.84 0 0
-0.82 0 0
-0.8 0 0
-0.78 0 0
-0.76 0 0
-0.74 0 0
-0.72 0 0
-0.7 0 0
-0.68 0 0
-0.66 0 0
-0.64 0 0
-0.62 0 0
-0.6 0 0
-0.58 0 0
-0.56 0 0
-0.54 0 0
-0.52 0 0
-0.5 0 0
-0.48 0 0
-0.46 0 0
-0.44 0 0
-0.42 0 0
-0.4 0 0
-0.38 0 0
-0.36 0 0
-0.34 0 0
-0.32 0 0
-0.3 0 0
-0.28 0 0
-0.26 0 0
-0.24 0 0
-0.22 0 0
-0.2 0 0
-0.18 0 0
-0.16 0 0
-0.14 0 0
-0.12 0 0
-0.1 0 0
-0.08 0 0
-0.06 0 0
-0.04 0 0
-0.02 0 0
1.02 0 0
1.04 0 0
1.06 0 0
1.08 0 0
1.1 0 0
1.12 0 0
1.14 0 0
1.16 0 0
1.18 0 0
1.2 0 0
1.22 0 0
1.24 0 0
1.26 0 0
1.28 0 0
1.3 0 0
1.32 0 0
1.34 0 0
1.36 0 0
1.38 0 0
1.4 0 0
1.42 0 0
1.44 0 0
1.46 0 0
1.48 0 0
1.5 0 0
1.52 0 0
1.54 0 0
1.56 0 0
1.58 0 0
1.6 0 0
1.62 0 0
1.64 0 0
1.66 0 0
1.68 0 0
1.7 0 0
1.72 0 0
1.74 0 0
1.76 0 0
1.78 0 0
1.8 0 0
1.82 0 0
1.84 0 0
1.86 0 0
1.88 0 0
1.9 0 0
1.92 0 0
1.94 0 0
1.96 0 0
1.98 0 0
2 0.0199133 0
2 0.0414128 0
2 0.0646247 0
2 0.0896856 0
2 0.116743 0
2 0.145955 0
2 0.177494 0
2 0.211545 0
2 0.248309 0
2 0.288001 0
2 0.330854 0
2 0.377121 0
2 0.427073 0
2 0.481004 0
2 0.539231 0
2 0.602096 0
2 0.669968 0
2 0.743247 0
2 0.822362 0
2 0.907779 0
1.9 1 0
1.8 1 0
1.7 1 0
1.6 1 0
1.5 1 0
1.4 1 0
1.3 1 0
1.2 1 0
1.1 1 0
1 1 0
0.9 1 0
0.8 1 0
0.7 1 0
0.6 1 0
0.5 1 0
0.4 1 0
0.3 1 0
0.2 1 0
0.1 1 0
3.69793e-12 1 0
-0.1 1 0
-0.2 1 0
-0.3 1 0
-0.4 1 0
-0.5 1 0
-0.6 1 0
-0.7 1 0
-0.8 1 0
-0.9 1 0
-1 0.907779 0
-1 0.822362 0
-1 0.743247 0
-1 0.669968 0
-1 0.602096 0
-1 0.539231 0
-1 0.481004 0
-1 0.427073 0
-1 0.377121 0
-1 0.330854 0
-1 0.288001 0
-1 0.248309 0
-1 0.211545 0
-1 0.177494 0
-1 0.145955 0
-1 0.116743 0
-1 0.0896856 0
-1 0.0646247 0
-1 0.0414128 0
-1 0.0199133 0
0.0182781 0.00745351 0
0.0366672 0.0146286 0
0.0551632 0.0215237 0
0.0737617 0.0281372 0
0.0924585 0.0344675 0
0.111249 0.0405131 0
0.13013 0.0462728 0
0.149095 0.0517451 0
0.168142 0.0569289 0
0.187265 0.0618228 0
0.20646 0.0664258 0
0.225723 0.0707368 0
0.245049 0.0747549 0
0.264434 0.078479 0
0.283873 0.0819084 0
0.303362 0.0850422 0
0.322896 0.0878798 0
0.342472 0.0904204 0
0.362083 0.0926635 0
0.381726 0.0946086 0
0.401397 0.0962552 0
0.42109 0.0976029 0
0.440802 0.0986514 0
0.460527 0.0994006 0
0.480261 0.0998501 0
0.5 0.1 0
0.519739 0.0998501 0
0.539473 0.0994006 0
0.559198 0.0986514 0
0.57891 0.0976029 0
0.598603 0.0962552 0
0.618274 0.0946086 0
0.637917 0.0926635 0
0.657528 0.0904204 0
0.677104 0.0878798 0
0.696638 0.0850422 0
0.716127 0.0819084 0
0.735566 0.078479 0
0.754951 0.0747549 0
0.774277 0.0707368 0
0.79354 0.0664258 0
0.812735 0.0618228 0
0.831858 0.0569289 0
0.850905 0.0517451 0
0.86987 0.0462728 0
0.888751 0.0405131 0
0.907542 0.0344675 0
0.926238 0.0281372 0
0.944837 0.0215237 0
0.963333 0.0146286 0
0.981722 0.00745351 0
-1 0.907779 0.1
-1 0.822362 0.1
-1 0.743247 0.1
-1 0.669968 0.1
-1 0.602096 0.1
-1 0.539231 0.1
-1 0.481004 0.1
-1 0.427073 0.1
-1 0.377121 0.1
-1 0.330854 0.1
-1 0.288001 0.1
-1 0.248309 0.1
-1 0.211545 0.1
-1 0.177494 0.1
-1 0.145955 0.1
-1 0.116743 0.1
-1 0.0896856 0.1
-1 0.0646247 0.1
-1 0.0414128 0.1
-1 0.0199133 0.1
-0.98 0 0.1
-0.96 0 0.1
-0.94 0 0.1
-0.92 0 0.1
-0.9 0 0.1
-0.88 0 0.1
-0.86 0 0.1
-0.84 0 0.1
-0.82 0 0.1
-0.8 0 0.1
-0.78 0 0.1
-0.76 0 0.1
-0.74 0 0.1
-0.72 0 0.1
-0.7 0 0.1
-0.68 0 0.1
-0.66 0 0.1
-0.64 0 0.1
-0.62 0 0.1
-0.6 0 0.1
-0.58 0 0.1
-0.56 0 0.1
-0.54 0 0.1
-0.52 0 0.1
-0.5 0 0.1
-0.48 0 0.1
-0.46 0 0.1
-0.44 0 0.1
-0.42 0 0.1
-0.4 0 0.1
-0.38 0 0.1
-0.36 0 0.1
-0.34 0 0.1
-0.32 0 0.1
-0.3 0 0.1
-0.28 0 0.1
-0.26 0 0.1
-0.24 0 0.1
-0.22 0 0.1
-0.2 0 0.1
-0.18 0 0.1
-0.16 0 0.1
-0.14 0 0.1
-0.12 0 0.1
-0.1 0 0.1
-0.08 0 0.1
-0.06 0 0.1
-0.04 0 0.1
-0.02 0 0.1
0.0182781 0.00745351 0.1
0.0366672 0.0146286 0.1
0.0551632 0.0215237 0.1
0.0737617 0.0281372 0.1
0.0924585 0.0344675 0.1
0.111249 0.0405131 0.1
0.13013 0.0462728 0.1
0.149095 0.0517451 0.1
0.168142 0.0569289 0.1
0.187265 0.0618228 0.1
0.20646 0.0664258 0.1
0.225723 0.0707368 0.1
0.245049 0.0747549 0.1
0.264434 0.078479 0.1
0.283873 0.0819084 0.1
0.303362 0.0850422 0.1
0.322896 0.0878798 0.1
0.342472 0.0904204 0.1
0.362083 0.0926635 0.1
0.381726 0.0946086 0.1
0.401397 0.0962552 0.1
0.42109 0.0976029 0.1
0.440802 0.0986514 0.1
0.460527 0.0994006 0.1
0.480261 0.0998501 0.1
0.5 0.1 0.1
0.519739 0.0998501 0.1
0.539473 0.0994006 0.1
0.559198 0.0986514 0.1
0.57891 0.0976029 0.1
0.598603 0.0962552 0.1
0.618274 0.0946086 0.1
0.637917 0.0926635 0.1
0.657528 0.0904204 0.1
0.677104 0.0878798 0.1
0.696638 0.0850422 0.1
0.716127 0.0819084 0.1
0.735566 0.078479 0.1
0.754951 0.0747549 0.1
0.774277 0.0707368 0.1
0.79354 0.0664258 0.1
0.812735 0.0618228 0.1
0.831858 0.0569289 0.1
0.850905 0.0517451 0.1
0.86987 0.0462728 0.1
0.888751 0.0405131 0.1
0.907542 0.0344675 0.1
0.926238 0.0281372 0.1
0.944837 0.0215237 0.1
0.963333 0.0146286 0.1
0.981722 0.00745351 0.1
1.02 0 0.1
1.04 0 0.1
1.06 0 0.1
1.08 0 0.1
1.1 0 0.1
1.12 0 0.1
1.14 0 0.1
1.16 0 0.1
1.18 0 0.1
1.2 0 0.1
1.22 0 0.1
1.24 0 0.1
1.26 0 0.1
1.28 0 0.1
1.3 0 0.1
1.32 0 0.1
1.34 0 0.1
1.36 0 0.1
1.38 0 0.1
1.4 0 0.1
1.42 0 0.1
1.44 0 0.1
1.46 0 0.1
1.48 0 0.1
1.5 0 0.1
1.52 0 0.1
1.54 0 0.1
1.56 0 0.1
1.58 0 0.1
1.6 0 0.1
1.62 0 0.1
1.64 0 0.1
1.66 0 0.1
1.68 0 0.1
1.7 0 0.1
1.72 0 0.1
1.74 0 0.1
1.76 0 0.1
1.78 0 0.1
1.8 0 0.1
1.82 0 0.1
1.84 0 0.1
1.86 0 0.1
1.88 0 0.1
1.9 0 0.1
1.92 0 0.1
1.94 0 0.1
1.96 0 0.1
1.98 0 0.1
2 0.0199133 0.1
2 0.0414128 0.1
2 0.0646247 0.1
2 0.0896856 0.1
2 0.116743 0.1
2 0.145955 0.1
2 0.177494 0.1
2 0.211545 0.1
2 0.248309 0.1
2 0.288001 0.1
2 0.330854 0.1
2 0.377121 0.1
2 0.427073 0.1
2 0.481004 0.1
2 0.539231 0.1
2 0.602096 0.1
2 0.669968 0.1
2 0.743247 0.1
2 0.822362 0.1
2 0.907779 0.1
1.9 1 0.1
1.8 1 0.1
1.7 1 0.1
1.6 1 0.1
1.5 1 0.1
1.4 1 0.1
1.3 1 0.1
1.2 1 0.1
1.1 1 0.1
1 1 0.1
0.9 1 0.1
0.8 1 0.1
0.7 1 0.1
0.6 1 0.1
0.5 1 0.1
0.4 1 0.1
0.3 1 0.1
0.2 1 0.1
0.1 1 0.1
3.69793e-12 1 0.1
-0.1 1 0.1
-0.2 1 0.1
-0.3 1 0.1
-0.4 1 0.1
-0.5 1 0.1
-0.6 1 0.1
-0.7 1 0.1
-0.8 1 0.1
-0.9 1 0.1
1.08758 0.0158154 0
-0.0898513 0.0203294 0
0.0966181 0.0537636 0
0.90205 0.0548881 0
1.21055 0.0202058 0
-0.209811 0.0159577 0
1.3305 0.0176902 0
-0.33 0.0173205 0
1.45324 0.0148141 0
-0.448654 0.0159854 0
1.56842 0.0191785 0
-0.569936 0.0166364 0
0.193292 0.0805369 0
0.805051 0.0813623 0
0.709096 0.100353 0
0.288591 0.0996656 0
0.390184 0.111848 0
0.61033 0.111742 0
0.488809 0.116278 0
1.67175 0.0169692 0
-0.67 0.0169809 0
-0.955017 0.454039 0
1.95131 0.44569 0
1.74981 0.0168753 0
-0.75 0.0173205 0
-0.968032 0.266538 0
1.96871 0.266267 0
0.978232 0.0305687 0
0.0208675 0.026451 0
-0.150454 0.91842 0
1.13854 0.907437 0
1.45012 0.904365 0
-0.445923 0.908903 0
-0.853423 0.0157019 0
1.84881 0.016319 0
0.853689 0.915652 0
0.153944 0.912184 0
0.545151 0.914125 0
0.549913 0.115152 0
1.51 0.0173205 0
-0.506989 0.01651 0
1.27 0.0173205 0
1.14976 0.0173333 0
-0.268171 0.0206442 0
-0.150501 0.0153244 0
-0.391384 0.0153993 0
1.38886 0.0171544 0
-0.973694 0.161724 0
1.97441 0.162392 0
-0.945221 0.633523 0
1.94544 0.63312 0
1.91008 0.0186068 0
-0.91 0.0169616 0
-0.030664 0.0194327 0
1.03074 0.0165456 0
-0.966065 0.353575 0
1.96128 0.359765 0
1.93879 0.781254 0
-0.937057 0.781882 0
-0.980746 0.080709 0
1.9772 0.0760699 0
0.058735 0.0409372 0
0.355202 0.913001 0
0.86356 0.0661005 0
0.134223 0.0651111 0
0.941972 0.0397386 0
-0.653034 0.915003 0
1.65328 0.904589 0
0.770126 0.0881325 0
0.232946 0.0902008 0
0.330582 0.105648 0
0.670612 0.108365 0
0.428707 0.116145 0
1.80993 0.016629 0
-0.810168 0.0172178 0
-0.71 0.0173205 0
1.63047 0.0175504 0
1.70842 0.0169661 0
-0.628824 0.0181787 0
-0.949815 0.0133898 0
1.95 0.0173205 0
1.85542 0.907891 0
-0.85 0.913397 0
1.9833 0.0307692 0
-0.983315 0.0309709 0
-0.750025 0.916468 0
-0.701107 0.836904 0
-0.607741 0.836428 0
-0.656448 0.759827 0
-0.572936 0.758144 0
-0.61411 0.691195 0
-0.539534 0.689068 0
-0.578542 0.626111 0
-0.507461 0.624216 0
-0.544001 0.566638 0
-0.477696 0.564279 0
-0.511582 0.51001 0
-0.451689 0.507147 0
-0.481834 0.457732 0
-0.426137 0.454624 0
-0.453236 0.407539 0
-0.398845 0.406233 0
-0.507958 0.409496 0
-0.368427 0.460177 0
-0.344602 0.405209 0
-0.315696 0.447824 0
-0.294128 0.402169 0
-0.262844 0.444518 0
-0.241968 0.388746 0
-0.209878 0.439557 0
-0.185184 0.391135 0
-0.156687 0.437338 0
-0.133719 0.390776 0
-0.104405 0.434306 0
-0.0818745 0.388334 0
-0.0528785 0.431165 0
-0.0305984 0.385639 0
-0.00180552 0.427863 0
0.0194564 0.382608 0
0.0485809 0.42449 0
0.0701962 0.37973 0
0.0985483 0.421145 0
0.119893 0.377339 0
0.147837 0.417911 0
0.172552 0.36751 0
0.197018 0.412597 0
0.221203 0.37141 0
0.24512 0.409646 0
-0.48178 0.364657 0
-0.531053 0.364782 0
-0.0599102 0.344151 0
-0.324909 0.359566 0
0.266181 0.368462 0
0.292132 0.407649 0
0.311992 0.365779 0
0.338918 0.404821 0
0.357567 0.355909 0
0.384723 0.40053 0
0.404675 0.359681 0
0.430617 0.398558 0
0.450457 0.35827 0
0.474237 0.395182 0
0.496746 0.34898 0
0.520548 0.397931 0
0.542071 0.353121 0
0.566011 0.389914 0
0.585061 0.350856 0
0.609352 0.38696 0
0.629069 0.348168 0
0.655979 0.391217 0
0.67472 0.346182 0
0.699346 0.381414 0
0.719333 0.341965 0
0.743718 0.377547 0
0.764028 0.339036 0
0.788201 0.373582 0
0.807659 0.336101 0
0.832821 0.372249 0
0.852309 0.334017 0
0.877785 0.370339 0
0.897875 0.331141 0
0.922904 0.366281 0
0.943173 0.327335 0
0.968282 0.363358 0
0.989029 0.324222 0
1.01391 0.361511 0
1.03465 0.321428 0
1.05949 0.358447 0
1.08389 0.312052 0
1.10575 0.355104 0
1.12889 0.31562 0
1.15067 0.353235 0
1.17157 0.312819 0
1.19626 0.349369 0
1.21618 0.309863 0
1.2416 0.346914 0
1.26131 0.30715 0
1.28691 0.344312 0
1.30571 0.303752 0
1.33144 0.341222 0
1.35018 0.300911 0
1.3758 0.338308 0
1.39501 0.298931 0
1.42015 0.335235 0
1.43904 0.296349 0
1.46355 0.330194 0
1.48256 0.293347 0
1.50685 0.326967 0
1.52589 0.29055 0
1.54996 0.325305 0
1.56909 0.287929 0
[...]
CELL_DATA 3694
SCALARS rho float
LOOKUP_TABLE default
0.780067
0.744013
0.810962
0.850608
0.84991
0.812218
0.805398
0.807008
0.844006
0.808002
0.850988
0.850963
0.840357
0.804323
0.807432
0.797151
0.807526
0.808386
0.802474
0.865041
0.844079
0.851131
0.769078
0.810914
0.767105
0.839448
0.760705
0.815272
0.838267
0.801388
0.801327
0.75861
0.808817
0.829503
0.809332
0.829706
0.854485
0.850642
0.848883
0.794915
0.811402
0.824001
0.836424
0.829967
0.814904
0.85054
0.809295
0.74166
0.743297
0.779893
0.81042
0.806029
0.862569
0.812626
0.740325
0.855411
0.809088
0.846188
0.834748
0.793464
0.809124
0.857306
0.860927
0.806308
0.862312
0.854248
0.816117
0.852266
0.764566
0.872901
0.805456
0.816215
0.851181
0.807647
0.851198
0.806108
0.821196
0.803966
0.848524
0.810701
0.769014
0.824768
0.804615
0.793843
0.842126
0.803873
0.845744
0.768777
0.765117
0.847199
0.828713
0.807332
0.826502
0.842495
0.738473
0.814397
0.770173
0.850665
0.848171
0.85941
0.851984
0.804234
0.75285
0.843385
0.841578
0.857255
0.850832
0.814918
0.760557
0.847838
0.810666
0.780727
0.754298
0.845719
0.879844
0.806801
0.829536
0.847964
0.805424
0.806583
0.788305
0.82688
0.848076
0.806005
0.74173
0.788316
0.849711
0.81357
0.859711
0.769684
0.789638
0.811814
0.816466
0.798887
0.809556
0.824487
0.812713
0.804803
0.80079
0.851677
0.847954
0.772031
0.850171
0.8519
0.787586
0.743701
0.740012
0.801523
0.852592
0.820707
0.786046
0.806086
0.70823
0.811792
0.752385
0.804894
0.763763
0.81588
0.706593
0.807218
0.838028
0.723321
0.800971
0.781615
0.863302
0.705699
0.823883
0.806841
0.811806
0.738652
0.807128
0.741435
0.872613
0.707436
0.81106
0.742761
0.863588
0.856405
0.848512
0.770632
0.847438
0.758877
0.852873
0.769465
0.724729
0.807454
0.722904
0.850959
0.810061
0.867774
0.805878
0.742423
0.856679
0.80233
0.781402
0.849616
0.819591
0.863605
0.781191
0.785379
0.794786
0.823102
0.855512
0.835711
0.823531
0.851766
0.747379
0.811153
0.78205
0.806689
0.770932
0.824863
0.80694
0.812181
0.852262
0.804758
0.854757
0.789807
0.852297
0.847025
0.852755
0.849778
0.832667
0.771216
0.852904
0.72655
0.804291
0.83985
0.86787
0.853752
0.841871
0.806469
0.786427
0.850829
0.857585
0.850907
0.774903
0.830209
0.752751
0.823742
0.806931
0.841441
0.737747
0.815679
0.799728
0.809835
0.80531
0.79936
0.855397
0.858819
0.7994
0.732857
0.814613
0.809844
0.725379
0.825577
0.799081
0.806489
0.856078
0.855914
0.708547
0.854535
0.817968
0.829333
0.853906
0.805871
0.822537
0.839864
0.83695
0.796741
0.803869
0.857349
0.818893
0.805466
0.808992
0.857133
0.758402
0.693936
0.849962
0.832175
0.85
0.813642
0.761051
0.853895
0.854266
0.844289
0.771267
0.824692
0.857174
0.71087
0.805254
0.87905
0.725964
0.800588
0.858917
0.848767
0.856724
0.745121
0.818103
0.857281
0.809591
0.807208
0.819785
0.854081
0.824063
0.792426
0.815886
0.806348
0.722817
0.850641
0.85331
0.749487
0.822922
0.850493
0.825698
0.749472
0.714645
0.850713
0.850975
0.817541
0.762887
0.766335
0.770978
0.782877
0.850114
0.813416
0.810367
0.783378
0.768293
0.850426
0.842153
0.825539
0.806205
0.85536
0.85185
0.850776
0.849608
0.808286
0.815575
0.812499
0.732093
0.804777
0.820442
0.76392
0.816127
0.812499
0.850466
0.802772
0.815876
0.80656
0.856791
0.850633
0.850472
0.802611
0.7611
0.772318
0.810411
0.819213
0.732869
0.809841
0.816421
0.823936
0.782331
0.813793
0.849116
0.847547
0.85057
0.812148
0.809539
0.803778
0.813514
0.862838
0.826139
0.744357
0.810722
0.771225
0.741863
0.80802
0.704047
0.794686
0.802214
0.816278
0.85304
0.849667
0.84956
0.838484
0.850517
0.853019
0.80681
0.803836
0.818477
0.741852
0.849807
0.797379
0.783008
0.754491
0.852022
0.867573
0.849831
0.817467
0.826556
0.854315
0.803689
0.80031
0.84371
0.749982
0.805206
0.860753
0.829873
0.809844
0.877177
0.820928
0.846525
0.850834
0.833587
0.734101
0.829527
0.782888
0.801034
0.767507
0.844172
0.817477
0.818382
0.722644
0.855561
0.833119
0.848313
0.807646
0.811569
0.851391
0.809622
0.769913
0.80491
0.805345
0.855044
0.846475
0.846489
0.882025
0.853315
0.817725
0.855692
0.752356
0.851336
0.859021
0.851211
0.713906
0.854506
0.817458
0.86421
0.850687
0.807588
0.697175
0.818182
0.767539
0.814287
0.806107
0.820412
0.853193
0.829791
0.812518
0.819473
0.849891
0.779857
0.876247
0.804282
0.867315
0.849474
0.710871
0.809867
0.809461
0.847124
0.850721
0.745111
0.806872
0.817812
0.82058
0.815261
0.806281
0.853292
0.849934
0.828489
0.813067
0.850252
0.854562
0.783238
0.814449
0.818261
0.847308
0.745666
0.812807
0.846127
0.803149
0.811148
0.705333
0.856215
0.804995
0.856343
0.850537
0.854523
0.862894
0.848932
0.848126
0.770624
0.803236
0.866105
0.842156
0.76138
0.803762
0.806241
0.882486
0.863999
0.850449
0.804021
0.818389
0.794493
0.852286
0.821346
0.695939
0.807998
0.785177
0.779423
0.80958
0.847384
0.798694
0.826374
0.853386
0.839166
0.847136
0.810727
0.839112
0.767109
0.784376
0.810404
0.840282
0.847888
0.80844
0.780673
0.76294
0.852743
0.822652
0.821459
0.701045
0.852128
0.842221
0.851875
0.807893
0.837655
0.84847
0.819898
0.860238
0.808172
0.820436
0.848887
0.853243
0.841938
0.84493
0.7653
0.801638
0.823694
0.807851
0.865678
0.80688
0.83002
0.716648
0.836576
0.848656
0.818731
0.850478
0.813416
0.851642
0.773789
0.862958
0.744179
0.805198
0.850903
0.815375
0.747308
0.721021
0.822756
0.813515
0.811694
0.819024
0.807125
0.85368
0.846119
0.811941
0.807769
0.846233
0.708062
0.848593
0.809827
0.765805
0.846741
0.737493
0.81911
0.850252
0.855333
0.838819
0.850138
0.825776
0.824923
0.811401
0.807363
0.848485
0.819101
0.843121
0.807363
0.779496
0.812387
0.850587
0.849409
0.842601
0.848053
0.851703
0.855097
0.852391
0.784791
0.814703
0.851707
0.809028
0.692058
0.761578
0.819637
0.852114
0.853289
0.798296
0.817158
0.82104
0.810105
0.810296
0.808929
0.844222
0.845539
0.854837
0.818683
0.837707
0.838647
0.711503
0.797293
0.790476
0.83173
0.779449
0.759064
0.800266
0.792596
0.852602
0.857203
0.85495
0.817428
0.689461
0.822839
0.694174
0.766871
0.851851
0.879548
0.792034
0.849615
0.869031
0.760946
0.850072
0.81794
0.822151
0.815889
0.731795
0.870543
0.769517
0.785438
0.813315
0.811578
0.802321
0.835501
0.854784
0.757327
0.840161
0.807608
0.764782
0.860323
0.802268
0.715371
0.796643
0.851745
0.840899
0.854263
0.800166
0.780403
0.809176
0.837766
0.748453
0.852426
0.845493
0.852935
0.801281
0.850927
0.764392
0.811582
0.732908
0.756511
0.827315
0.828231
0.822588
0.856299
0.852763
0.854043
0.854418
0.701386
0.804261
0.857641
0.785322
0.818465
0.852398
0.848705
0.751547
0.73278
0.783857
0.730218
0.815957
0.75246
0.853172
0.803601
0.854934
0.837773
0.732872
0.831377
0.847506
0.851169
0.789947
0.815785
0.784963
0.806889
0.843154
0.717357
0.71973
0.854099
0.812885
0.842664
0.811352
0.775127
0.812332
0.77549
0.782222
0.805416
0.855553
0.82
0.748933
0.851348
0.842603
0.846509
0.763636
0.732224
0.754922
0.882957
0.851989
0.847338
0.710266
0.764368
0.723493
0.810452
0.802529
0.740629
0.819857
0.845296
0.796542
0.806751
0.775735
0.85104
0.750534
0.856286
0.818631
0.831632
0.805723
0.84601
0.787057
0.85299
0.856558
0.800041
0.711374
0.8235
0.845577
0.790727
0.854253
0.773039
0.810183
0.849086
0.745537
0.850527
0.804265
0.817922
0.708864
0.724591
0.783149
0.814073
0.846539
0.845933
0.850253
0.822223
0.851294
0.758269
0.803501
0.846391
0.852083
0.758558
0.783193
0.849145
0.838431
0.76188
0.821095
0.807761
0.741945
0.819898
0.753982
0.83442
0.734574
0.805708
0.761841
0.748928
0.845305
0.803239
0.789461
0.716757
0.858616
0.825946
0.84675
0.805314
0.855002
0.802688
0.816799
0.804395
0.811305
0.845974
0.786589
0.818453
0.803761
0.850495
0.704351
0.807663
0.845264
0.845516
0.845184
0.845118
0.78263
0.8307
0.790066
0.785862
0.849721
0.74446
0.849341
0.849038
0.805995
0.847707
0.84874
0.77574
0.788266
0.85055
0.817438
0.812434
0.84849
0.883806
0.847243
0.830942
0.8513
0.853868
0.806535
0.850505
0.845977
0.796869
0.768887
0.861392
0.808893
0.806082
0.827963
0.812835
0.850381
0.828846
0.850433
0.851078
0.881656
0.80609
0.812646
0.850417
0.806125
0.851879
0.81539
0.780367
0.851381
0.85043
0.777235
0.772589
0.850832
0.84289
0.827669
0.748474
0.850838
0.796636
0.841747
0.807987
0.780422
0.805449
0.802017
0.822748
0.8471
0.750542
0.77252
0.807826
0.802809
0.809216
0.845483
0.755805
0.85624
0.808503
0.806886
0.844188
0.853685
0.776036
0.851333
0.791366
0.811192
0.834374
0.808695
0.809039
0.809223
0.806671
0.853496
0.717884
0.857399
0.735473
0.754166
0.809055
0.850482
0.856531
0.806866
0.853909
0.83525
0.781506
0.801567
0.872075
0.805987
0.852151
0.816722
0.705508
0.783498
0.815978
0.742125
0.788543
0.70413
0.841755
0.852603
0.840706
0.804846
0.789424
0.755317
0.804556
0.775933
0.80113
0.857318
0.843498
0.850455
0.81431
0.824706
0.844384
0.808963
0.816317
0.760786
0.809101
0.79465
0.817281
0.80142
0.796561
0.846279
0.804663
0.809209
0.823482
0.858578
0.768717
0.804693
0.805002
0.812595
0.706031
0.853444
0.853609
0.827564
0.738226
0.853768
0.852945
0.801868
0.810177
0.807343
0.811815
0.815639
0.826507
0.852434
0.77733
0.834695
0.88409
0.792474
0.793406
0.837359
0.799958
0.862253
0.831013
0.815881
0.844412
0.809368
0.807013
0.816826
0.852312
0.857869
0.809875
0.697073
0.849807
0.852664
0.793348
0.854917
0.857751
0.85039
0.851789
0.816411
0.855023
0.852845
0.80085
0.817516
0.846893
0.838082
0.85105
0.808852
0.83083
0.806963
0.812434
0.815575
0.782105
0.816569
0.697566
0.850152
0.852132
0.853746
0.814623
0.824731
0.851486
0.825584
0.850558
0.859703
0.85626
0.82122
0.802416
0.850718
0.849593
0.850821
0.804934
0.815155
0.877724
0.850435
0.865385
0.850228
0.804936
0.829234
0.811578
0.834956
0.847557
0.84521
0.81347
0.776599
0.807377
0.811813
0.853043
0.811582
0.828419
0.827481
0.813973
0.810967
0.798455
0.825766
0.762925
0.821995
0.816303
0.788773
0.80933
0.820896
0.824289
0.776679
0.850406
0.822411
0.830457
0.84928
0.819053
0.851858
0.845159
0.835602
0.84088
0.819679
0.805374
0.791605
0.759919
0.855638
0.825655
0.808571
0.84713
0.81587
0.846233
0.813158
0.802514
0.796948
0.804736
0.803464
0.859893
0.850578
0.819342
0.815803
0.704108
0.776814
0.811692
0.817198
0.81128
0.848998
0.813746
0.85223
0.799718
0.855083
0.812319
0.845727
0.810689
0.849735
0.804812
0.8526
0.844971
0.850216
0.84607
0.776734
0.846336
0.853003
0.70079
0.85504
0.809356
0.809925
0.873085
0.847747
0.845272
0.882479
0.851256
0.851771
0.851268
0.850277
0.847379
0.790383
0.832779
0.807399
0.807999
0.845443
0.852469
0.851501
0.853832
0.845114
0.828269
0.811095
0.844834
0.817185
0.822567
0.826045
0.854226
0.844765
0.849499
0.817776
0.735168
0.744249
0.806738
0.817123
0.808332
0.844875
0.84916
0.848138
0.807104
0.812524
0.805483
0.804358
0.849104
0.860796
0.850519
0.819561
0.849563
0.850527
0.844852
0.848814
0.826847
0.802901
0.848238
0.815193
0.809542
0.806587
0.841978
0.849919
0.85398
0.850684
0.836794
0.836633
0.850232
0.848506
0.827133
0.808751
0.808956
0.813363
0.846382
0.853409
0.805149
0.833473
0.851032
0.827798
0.805988
0.714085
0.810755
0.824392
0.824038
0.810592
0.810215
0.789175
0.861061
0.812346
0.802794
0.857316
0.854394
0.818339
0.852573
0.804488
0.850318
0.846693
0.850414
0.809088
0.850374
0.783206
0.850916
0.819661
0.804608
0.820619
0.850545
0.81074
0.809864
0.816423
0.822363
0.85386
0.853666
0.850257
0.814342
0.851195
0.852058
0.849235
0.8273
0.859033
0.813639
0.751817
0.849491
0.857447
0.850421
0.811904
0.802388
0.809995
0.84537
0.821497
0.851184
0.77669
0.790029
0.8058
0.811892
0.851219
0.848044
0.831239
0.74501
0.761078
0.816376
0.788183
0.852832
0.750845
0.806093
0.775668
0.805067
0.825974
0.805458
0.850733
0.848424
0.807698
0.816654
0.82509
0.832156
0.853414
0.806738
0.80948
0.849496
0.850051
0.794159
0.847196
0.809194
0.798245
0.853579
0.809553
0.818692
0.855968
0.85363
0.856486
0.824618
0.800852
0.853717
0.796438
0.814505
0.855874
0.81036
0.85074
0.840577
0.80792
0.861307
0.834839
0.819358
0.848705
0.806061
0.84857
0.803227
0.807515
0.852616
0.8554
0.816515
0.851221
0.852252
0.807269
0.80817
0.830282
0.813575
0.851885
0.852851
0.745303
0.852783
0.763368
0.824268
0.858104
0.850982
0.813333
0.854072
0.854828
0.776278
0.855523
0.80808
0.803403
0.805227
0.850843
0.876639
0.805216
0.806292
0.802526
0.861117
0.831509
0.849677
0.847853
0.788689
0.832425
0.804931
0.7776
0.806558
0.766448
0.845366
0.807344
0.743933
0.888005
0.755316
0.790142
0.809846
0.791137
0.816721
0.802453
0.805938
0.734852
0.807408
0.80179
0.803653
0.784164
0.850052
0.850966
0.891018
0.817771
0.83429
0.726445
0.805834
0.817119
0.793582
0.788453
0.808488
0.770943
0.810297
0.804347
0.81032
0.792907
0.718999
0.819296
0.71349
0.847192
0.843688
0.819358
0.77161
0.836998
0.828239
0.847555
0.801338
0.840363
0.80733
0.844408
0.767232
0.805807
0.775298
0.805445
0.801846
0.763145
0.810354
0.856225
0.85593
0.806831
0.798908
0.854214
0.763345
0.751538
0.805306
0.856212
0.884333
0.856544
0.851521
0.887812
0.87623
0.849956
0.753447
0.806161
0.819692
0.827163
0.828324
0.760694
0.770941
0.758455
0.806439
0.74401
0.794878
0.801909
0.735296
0.735084
0.854299
0.809062
0.7903
0.853705
0.799372
0.788667
0.727038
0.781653
0.817211
0.845333
0.879535
0.856067
0.853258
0.824183
0.802527
0.772654
0.854574
0.754058
0.808404
0.856811
0.79873
0.799748
0.829657
0.815185
0.81094
0.803979
0.84652
0.819084
0.878232
0.719951
0.702023
0.806074
0.834077
0.763683
0.81826
0.806464
0.856507
0.8094
0.804062
0.705205
0.714023
0.816574
0.847543
0.855086
0.781856
0.805548
0.837315
0.757144
0.847215
0.805415
0.85365
0.804737
0.827124
0.80378
0.854861
0.804379
0.822847
0.808026
0.874927
0.855887
0.804126
0.752977
0.751516
0.852359
0.71173
0.839651
0.818177
0.855834
0.847182
0.807447
0.818839
0.852482
0.848668
0.857068
0.803054
0.850133
0.871213
0.809177
0.74757
0.839225
0.826837
0.807679
0.8067
0.846342
0.787744
0.804725
0.84799
0.846588
0.848793
0.852944
0.801748
0.772387
0.807767
0.855092
0.810707
0.84162
0.812758
0.811804
0.813331
0.853802
0.817175
0.803271
0.816022
0.814498
0.829487
0.815577
0.814992
0.850525
0.815341
0.804799
0.851924
0.80616
0.804381
0.814201
0.816273
0.852058
0.797018
0.813396
0.807043
0.857957
0.801436
0.809411
0.816215
0.854047
0.812628
0.746935
0.803161
0.849386
0.811852
0.821977
0.791344
0.850037
0.785981
0.808975
0.803816
0.810255
0.825208
0.867511
0.811047
0.80484
0.773621
0.852961
0.856523
0.849576
0.82883
0.844598
0.780976
0.850054
0.776702
0.81138
0.852014
0.805092
0.764747
0.85128
0.842829
0.852284
0.850599
0.854099
0.796409
0.850787
0.747956
0.773762
0.856657
0.850029
0.758592
0.850458
0.731772
0.849746
0.815553
0.851655
0.805364
0.814368
0.84381
0.834605
0.82924
0.71516
0.851566
0.861688
0.800723
0.864424
0.807656
0.772948
0.859408
0.850388
0.857627
0.764507
0.759841
0.856002
0.751099
0.854691
0.855938
0.853581
0.81592
0.852751
0.80412
0.852064
0.851443
0.77423
0.878121
0.850993
0.850669
0.828341
0.799311
0.806142
0.701594
0.83417
0.850509
0.851054
0.814811
0.851965
0.858275
0.800425
0.850394
0.8067
0.755859
0.80666
0.836326
0.853932
0.777912
0.830535
0.827026
0.713896
0.853697
0.853517
0.813485
0.818105
0.782953
0.843786
0.806002
0.808396
0.808453
0.826049
0.810291
0.806652
0.804802
0.850886
0.825361
0.850879
0.69464
0.897838
0.762124
0.809058
0.789952
0.805917
0.857867
0.85297
0.853536
0.711029
0.848224
0.823833
0.810335
0.846279
0.838064
0.84019
0.80027
0.807659
0.809595
0.782655
0.797425
0.854826
0.800491
0.822267
0.850126
0.853797
0.821015
0.806802
0.81192
0.819893
0.852197
0.769618
0.818618
0.852573
0.85064
0.815913
0.817534
0.804861
0.855522
0.816139
0.80729
0.815378
0.721351
0.814202
0.811093
0.813476
0.850101
0.844379
0.811687
0.812098
0.812586
0.793039
0.849885
0.837706
0.851486
0.858096
0.84747
0.808391
0.777435
0.825825
0.854926
0.777609
0.807995
0.852095
0.785289
0.851377
0.692134
0.814499
0.74649
0.808562
0.834866
0.847793
0.851149
0.810748
0.843782
0.849325
0.80578
0.813158
0.843832
0.851619
0.808618
0.847714
0.810417
0.809862
0.803052
0.806288
0.836861
0.854722
0.807038
0.809101
0.850181
0.836458
0.817453
0.858043
0.699976
0.813903
0.821259
0.854327
0.82099
0.793976
0.752006
0.850943
0.857119
0.851764
0.823177
0.708871
0.806055
0.740728
0.851534
0.771018
0.850503
0.833647
0.767253
0.802701
0.856012
0.796672
0.809624
0.806733
0.850687
0.828446
0.756181
0.804087
0.703577
0.807632
0.806336
0.809605
0.714328
0.805633
0.80864
0.8096
0.774649
0.78274
0.80936
0.809896
0.853383
0.772297
0.76192
0.854065
0.810688
0.79323
0.867713
0.85338
0.850481
0.741034
0.810752
0.802724
0.803462
0.804468
0.739862
0.808266
0.854069
0.732708
0.750054
0.815248
0.820077
0.855353
0.844287
0.851306
0.851958
0.850921
0.810208
0.854815
0.850859
0.83692
0.832839
0.809514
0.80586
0.818504
0.782792
0.817952
0.850706
0.874416
0.835695
0.725182
0.81238
0.805662
0.797038
0.851143
0.846764
0.84969
0.821757
0.876104
0.809679
0.850948
0.708702
0.822869
0.852976
0.804872
0.854635
0.719482
0.848292
0.806574
0.851158
0.804179
0.850334
0.851604
0.778438
0.811783
0.804689
0.854455
0.874553
0.825792
0.852439
0.759115
0.791961
0.805041
0.807629
0.819961
0.849871
0.802195
0.807028
0.84933
0.837523
0.815744
0.768881
0.805685
0.848454
0.844537
0.794791
0.782871
0.843726
0.808522
0.871345
0.768994
0.854631
0.843665
0.749821
0.811237
0.850798
0.801855
0.802587
0.810582
0.852545
0.812129
0.792666
0.851291
0.7412
0.80071
0.803945
0.853154
0.851065
0.806387
0.819405
0.786526
0.795196
0.807041
0.853966
0.850337
0.837011
0.73305
0.830533
0.825507
0.796228
0.817785
0.850201
0.810998
0.811165
0.740701
0.812227
0.812984
0.868269
0.809663
0.817391
0.854294
0.81374
0.843791
0.868228
0.726942
0.810519
0.852279
0.814139
0.813386
0.814748
0.812056
0.812616
0.811177
0.815114
0.814903
0.778195
0.81531
0.815527
0.834464
0.848889
0.816641
0.845071
0.805017
0.810102
0.850222
0.849533
0.844571
0.804848
0.822481
0.82098
0.837334
0.850864
0.769559
0.851126
0.853576
0.853542
0.870293
0.789756
0.839734
0.856814
0.809019
0.72621
0.807857
0.805895
0.850854
0.709865
0.85316
0.852676
0.854307
0.8396
0.80543
0.830694
0.842559
0.809863
0.800623
0.850599
0.785073
0.696436
0.855395
0.734281
0.762871
0.825592
0.851864
0.852723
0.850906
0.865137
0.720292
0.867264
0.815175
0.851148
0.850505
0.847857
0.756991
0.855606
0.849947
0.851549
0.809322
0.791334
0.827153
0.702213
0.841302
0.862333
0.809544
0.86008
0.849601
0.804891
0.752625
0.842954
0.849418
0.858093
0.80545
0.842739
0.80464
0.856559
0.806806
0.843524
0.855127
0.853916
0.827157
0.851714
0.834003
0.766354
0.75137
0.714913
0.85297
0.852289
0.793708
0.78884
0.838675
0.851641
0.844986
0.716753
0.851102
0.850726
0.850496
0.850345
0.814342
0.826422
0.750629
0.784066
0.850401
0.801929
0.862556
0.896166
0.798202
0.835358
0.736325
0.837321
0.779717
0.776484
0.825318
0.812863
0.801884
0.752518
0.804245
0.854444
0.804772
0.774973
0.831993
0.823837
0.810411
0.756624
0.844211
0.807059
0.852743
0.855828
0.822263
0.827773
0.851981
0.85234
0.802427
0.81061
0.775435
0.84102
0.806876
0.843228
0.800951
0.811329
0.760985
0.802583
0.821076
0.819945
0.819072
0.817589
0.816386
0.815658
0.813601
0.812023
0.814644
0.781222
0.812856
0.803066
0.808145
0.808315
0.843465
0.777721
0.807046
0.796312
0.890343
0.850848
0.808901
0.781801
0.810722
0.809239
0.767578
0.808536
0.807546
0.78735
0.813653
0.823098
0.801718
0.805959
0.774678
0.815166
0.834101
0.794411
0.78917
0.808159
0.806618
0.851378
0.816673
0.801261
0.781861
0.809251
0.852917
0.807638
0.821208
0.803044
0.924959
0.87234
0.847643
0.857419
0.754904
0.862326
0.788056
0.830593
0.838897
0.901699
0.857004
0.800618
0.701917
0.856468
0.801005
0.855973
0.802001
0.860958
0.698274
0.855192
0.809521
0.813443
0.814412
0.811088
0.851998
0.804508
0.850256
0.754887
0.704747
0.731183
0.855517
0.68834
0.800971
0.778198
0.857994
0.821539
0.680822
0.82838
0.853872
0.854018
0.768172
0.807631
0.67944
0.802168
0.854644
0.80261
0.806588
0.803179
0.853906
0.852273
0.804878
0.804903
0.852921
0.80549
0.852595
0.821783
0.806207
0.852286
0.850945
0.852006
0.806618
0.851743
0.740798
0.807083
0.851489
0.805886
0.807439
0.85125
0.766056
0.855644
0.80064
0.857664
0.809405
0.843281
0.839374
0.875284
0.803592
0.809065
0.850723
0.822625
0.808554
0.807983
0.857493
0.836693
0.850899
0.843751
0.865365
0.853703
0.849873
0.83037
0.864898
0.855913
0.81062
0.850464
0.835292
0.811339
0.854542
0.806367
0.832138
0.798059