# vtk DataFile Version 1.0
unstructured grid
ascii
DATASET UNSTRUCTURED_GRID
points 3920 float
-1 0 0
-1 1 0
2 0 0
2 1 0
0 0 0
1 0 0
-1 1 0.1
-1 0 0.1
0 0 0.1
1 0 0.1
2 0 0.1
2 1 0.1
-0.98 0 0
-0.96 0 0
-0.94 0 0
-0.92 0 0
-0.9 0 0
-0.88 0 0
-0.86 0 0
-0.84 0 0
-0.82 0 0
-0.8 0 0
-0.78 0 0
-0.76 0 0
-0.74 0 0
-0.72 0 0
-0.7 0 0
-0.68 0 0
-0.66 0 0
-0.64 0 0
-0.62 0 0
-0.6 0 0
-0.58 0 0
-0.56 0 0
-0.54 0 0
-0.52 0 0
-0.5 0 0
-0.48 0 0
-0.46 0 0
-0.44 0 0
-0.42 0 0
-0.4 0 0
-0.38 0 0
-0.36 0 0
-0.34 0 0
-0.32 0 0
-0.3 0 0
-0.28 0 0
-0.26 0 0
-0.24 0 0
-0.22 0 0
-0.2 0 0
-0.18 0 0
-0.16 0 0
-0.14 0 0
-0.12 0 0
-0.1 0 0
-0.08 0 0
-0.06 0 0
-0.04 0 0
-0.02 0 0
1.02 0 0
1.04 0 0
1.06 0 0
1.08 0 0
1.1 0 0
1.12 0 0
1.14 0 0
1.16 0 0
1.18 0 0
1.2 0 0
1.22 0 0
1.24 0 0
1.26 0 0
1.28 0 0
1.3 0 0
1.32 0 0
1.34 0 0
1.36 0 0
1.38 0 0
1.4 0 0
1.42 0 0
1.44 0 0
1.46 0 0
1.48 0 0
1.5 0 0
1.52 0 0
1.54 0 0
1.56 0 0
1.58 0 0
1.6 0 0
1.62 0 0
1.64 0 0
1.66 0 0
1.68 0 0
1.7 0 0
1.72 0 0
1.74 0 0
1.76 0 0
1.78 0 0
1.8 0 0
1.82 0 0
1.84 0 0
1.86 0 0
1.88 0 0
1.9 0 0
1.92 0 0
1.94 0 0
1.96 0 0
1.98 0 0
2 0.0199133 0
2 0.0414128 0
2 0.0646247 0
2 0.0896856 0
2 0.116743 0
2 0.145955 0
2 0.177494 0
2 0.211545 0
2 0.248309 0
2 0.288001 0
2 0.330854 0
2 0.377121 0
2 0.427073 0
2 0.481004 0
2 0.539231 0
2 0.602096 0
2 0.669968 0
2 0.743247 0
2 0.822362 0
2 0.907779 0
1.9 1 0
1.8 1 0
1.7 1 0
1.6 1 0
1.5 1 0
1.4 1 0
1.3 1 0
1.2 1 0
1.1 1 0
1 1 0
0.9 1 0
0.8 1 0
0.7 1 0
0.6 1 0
0.5 1 0
0.4 1 0
0.3 1 0
0.2 1 0
0.1 1 0
3.69793e-12 1 0
-0.1 1 0
-0.2 1 0
-0.3 1 0
-0.4 1 0
-0.5 1 0
-0.6 1 0
-0.7 1 0
-0.8 1 0
-0.9 1 0
-1 0.907779 0
-1 0.822362 0
-1 0.743247 0
-1 0.669968 0
-1 0.602096 0
-1 0.539231 0
-1 0.481004 0
-1 0.427073 0
-1 0.377121 0
-1 0.330854 0
-1 0.288001 0
-1 0.248309 0
-1 0.211545 0
-1 0.177494 0
-1 0.145955 0
-1 0.116743 0
-1 0.0896856 0
-1 0.0646247 0
-1 0.0414128 0
-1 0.0199133 0
0.0182781 0.00745351 0
0.0366672 0.0146286 0
0.0551632 0.0215237 0
0.0737617 0.0281372 0
0.0924585 0.0344675 0
0.111249 0.0405131 0
0.13013 0.0462728 0
0.149095 0.0517451 0
0.168142 0.0569289 0
0.187265 0.0618228 0
0.20646 0.0664258 0
0.225723 0.0707368 0
0.245049 0.0747549 0
0.264434 0.078479 0
0.283873 0.0819084 0
0.303362 0.0850422 0
0.322896 0.0878798 0
0.342472 0.0904204 0
0.362083 0.0926635 0
0.381726 0.0946086 0
0.401397 0.0962552 0
0.42109 0.0976029 0
0.440802 0.0986514 0
0.460527 0.0994006 0
0.480261 0.0998501 0
0.5 0.1 0
0.519739 0.0998501 0
0.539473 0.0994006 0
0.559198 0.0986514 0
0.57891 0.0976029 0
0.598603 0.0962552 0
0.618274 0.0946086 0
0.637917 0.0926635 0
0.657528 0.0904204 0
0.677104 0.0878798 0
0.696638 0.0850422 0
0.716127 0.0819084 0
0.735566 0.078479 0
0.754951 0.0747549 0
0.774277 0.0707368 0
0.79354 0.0664258 0
0.812735 0.0618228 0
0.831858 0.0569289 0
0.850905 0.0517451 0
0.86987 0.0462728 0
0.888751 0.0405131 0
0.907542 0.0344675 0
0.926238 0.0281372 0
0.944837 0.0215237 0
0.963333 0.0146286 0
0.981722 0.00745351 0
-1 0.907779 0.1
-1 0.822362 0.1
-1 0.743247 0.1
-1 0.669968 0.1
-1 0.602096 0.1
-1 0.539231 0.1
-1 0.481004 0.1
-1 0.427073 0.1
-1 0.377121 0.1
-1 0.330854 0.1
-1 0.288001 0.1
-1 0.248309 0.1
-1 0.211545 0.1
-1 0.177494 0.1
-1 0.145955 0.1
-1 0.116743 0.1
-1 0.0896856 0.1
-1 0.0646247 0.1
-1 0.0414128 0.1
-1 0.0199133 0.1
-0.98 0 0.1
-0.96 0 0.1
-0.94 0 0.1
-0.92 0 0.1
-0.9 0 0.1
-0.88 0 0.1
-0.86 0 0.1
-0.84 0 0.1
-0.82 0 0.1
-0.8 0 0.1
-0.78 0 0.1
-0.76 0 0.1
-0.74 0 0.1
-0.72 0 0.1
-0.7 0 0.1
-0.68 0 0.1
-0.66 0 0.1
-0.64 0 0.1
-0.62 0 0.1
-0.6 0 0.1
-0.58 0 0.1
-0.56 0 0.1
-0.54 0 0.1
-0.52 0 0.1
-0.5 0 0.1
-0.48 0 0.1
-0.46 0 0.1
-0.44 0 0.1
-0.42 0 0.1
-0.4 0 0.1
-0.38 0 0.1
-0.36 0 0.1
-0.34 0 0.1
-0.32 0 0.1
-0.3 0 0.1
-0.28 0 0.1
-0.26 0 0.1
-0.24 0 0.1
-0.22 0 0.1
-0.2 0 0.1
-0.18 0 0.1
-0.16 0 0.1
-0.14 0 0.1
-0.12 0 0.1
-0.1 0 0.1
-0.08 0 0.1
-0.06 0 0.1
-0.04 0 0.1
-0.02 0 0.1
0.0182781 0.00745351 0.1
0.0366672 0.0146286 0.1
0.0551632 0.0215237 0.1
0.0737617 0.0281372 0.1
0.0924585 0.0344675 0.1
0.111249 0.0405131 0.1
0.13013 0.0462728 0.1
0.149095 0.0517451 0.1
0.168142 0.0569289 0.1
0.187265 0.0618228 0.1
0.20646 0.0664258 0.1
0.225723 0.0707368 0.1
0.245049 0.0747549 0.1
0.264434 0.078479 0.1
0.283873 0.0819084 0.1
0.303362 0.0850422 0.1
0.322896 0.0878798 0.1
0.342472 0.0904204 0.1
0.362083 0.0926635 0.1
0.381726 0.0946086 0.1
0.401397 0.0962552 0.1
0.42109 0.0976029 0.1
0.440802 0.0986514 0.1
0.460527 0.0994006 0.1
0.480261 0.0998501 0.1
0.5 0.1 0.1
0.519739 0.0998501 0.1
0.539473 0.0994006 0.1
0.559198 0.0986514 0.1
0.57891 0.0976029 0.1
0.598603 0.0962552 0.1
0.618274 0.0946086 0.1
0.637917 0.0926635 0.1
0.657528 0.0904204 0.1
0.677104 0.0878798 0.1
0.696638 0.0850422 0.1
0.716127 0.0819084 0.1
0.735566 0.078479 0.1
0.754951 0.0747549 0.1
0.774277 0.0707368 0.1
0.79354 0.0664258 0.1
0.812735 0.0618228 0.1
0.831858 0.0569289 0.1
0.850905 0.0517451 0.1
0.86987 0.0462728 0.1
0.888751 0.0405131 0.1
0.907542 0.0344675 0.1
0.926238 0.0281372 0.1
0.944837 0.0215237 0.1
0.963333 0.0146286 0.1
0.981722 0.00745351 0.1
1.02 0 0.1
1.04 0 0.1
1.06 0 0.1
1.08 0 0.1
1.1 0 0.1
1.12 0 0.1
1.14 0 0.1
1.16 0 0.1
1.18 0 0.1
1.2 0 0.1
1.22 0 0.1
1.24 0 0.1
1.26 0 0.1
1.28 0 0.1
1.3 0 0.1
1.32 0 0.1
1.34 0 0.1
1.36 0 0.1
1.38 0 0.1
1.4 0 0.1
1.42 0 0.1
1.44 0 0.1
1.46 0 0.1
1.48 0 0.1
1.5 0 0.1
1.52 0 0.1
1.54 0 0.1
1.56 0 0.1
1.58 0 0.1
1.6 0 0.1
1.62 0 0.1
1.64 0 0.1
1.66 0 0.1
1.68 0 0.1
1.7 0 0.1
1.72 0 0.1
1.74 0 0.1
1.76 0 0.1
1.78 0 0.1
1.8 0 0.1
1.82 0 0.1
1.84 0 0.1
1.86 0 0.1
1.88 0 0.1
1.9 0 0.1
1.92 0 0.1
1.94 0 0.1
1.96 0 0.1
1.98 0 0.1
2 0.0199133 0.1
2 0.0414128 0.1
2 0.0646247 0.1
2 0.0896856 0.1
2 0.116743 0.1
2 0.145955 0.1
2 0.177494 0.1
2 0.211545 0.1
2 0.248309 0.1
2 0.288001 0.1
2 0.330854 0.1
2 0.377121 0.1
2 0.427073 0.1
2 0.481004 0.1
2 0.539231 0.1
2 0.602096 0.1
2 0.669968 0.1
2 0.743247 0.1
2 0.822362 0.1
2 0.907779 0.1
1.9 1 0.1
1.8 1 0.1
1.7 1 0.1
1.6 1 0.1
1.5 1 0.1
1.4 1 0.1
1.3 1 0.1
1.2 1 0.1
1.1 1 0.1
1 1 0.1
0.9 1 0.1
0.8 1 0.1
0.7 1 0.1
0.6 1 0.1
0.5 1 0.1
0.4 1 0.1
0.3 1 0.1
0.2 1 0.1
0.1 1 0.1
3.69793e-12 1 0.1
-0.1 1 0.1
-0.2 1 0.1
-0.3 1 0.1
-0.4 1 0.1
-0.5 1 0.1
-0.6 1 0.1
-0.7 1 0.1
-0.8 1 0.1
-0.9 1 0.1
1.08758 0.0158154 0
-0.0898513 0.0203294 0
0.0966181 0.0537636 0
0.90205 0.0548881 0
1.21055 0.0202058 0
-0.209811 0.0159577 0
1.3305 0.0176902 0
-0.33 0.0173205 0
1.45324 0.0148141 0
-0.448654 0.0159854 0
1.56842 0.0191785 0
-0.569936 0.0166364 0
0.193292 0.0805369 0
0.805051 0.0813623 0
0.709096 0.100353 0
0.288591 0.0996656 0
0.390184 0.111848 0
0.61033 0.111742 0
0.488809 0.116278 0
1.67175 0.0169692 0
-0.67 0.0169809 0
-0.955017 0.454039 0
1.95131 0.44569 0
1.74981 0.0168753 0
-0.75 0.0173205 0
-0.968032 0.266538 0
1.96871 0.266267 0
0.978232 0.0305687 0
0.0208675 0.026451 0
-0.150454 0.91842 0
1.13854 0.907437 0
1.45012 0.904365 0
-0.445923 0.908903 0
-0.853423 0.0157019 0
1.84881 0.016319 0
0.853689 0.915652 0
0.153944 0.912184 0
0.545151 0.914125 0
0.549913 0.115152 0
1.51 0.0173205 0
-0.506989 0.01651 0
1.27 0.0173205 0
1.14976 0.0173333 0
-0.268171 0.0206442 0
-0.150501 0.0153244 0
-0.391384 0.0153993 0
1.38886 0.0171544 0
-0.973694 0.161724 0
1.97441 0.162392 0
-0.945221 0.633523 0
1.94544 0.63312 0
1.91008 0.0186068 0
-0.91 0.0169616 0
-0.030664 0.0194327 0
1.03074 0.0165456 0
-0.966065 0.353575 0
1.96128 0.359765 0
1.93879 0.781254 0
-0.937057 0.781882 0
-0.980746 0.080709 0
1.9772 0.0760699 0
0.058735 0.0409372 0
0.355202 0.913001 0
0.86356 0.0661005 0
0.134223 0.0651111 0
0.941972 0.0397386 0
-0.653034 0.915003 0
1.65328 0.904589 0
0.770126 0.0881325 0
0.232946 0.0902008 0
0.330582 0.105648 0
0.670612 0.108365 0
0.428707 0.116145 0
1.80993 0.016629 0
-0.810168 0.0172178 0
-0.71 0.0173205 0
1.63047 0.0175504 0
1.70842 0.0169661 0
-0.628824 0.0181787 0
-0.949815 0.0133898 0
1.95 0.0173205 0
1.85542 0.907891 0
-0.85 0.913397 0
1.9833 0.0307692 0
-0.983315 0.0309709 0
-0.750025 0.916468 0
-0.701107 0.836904 0
-0.607741 0.836428 0
-0.656448 0.759827 0
-0.572936 0.758144 0
-0.61411 0.691195 0
-0.539534 0.689068 0
-0.578542 0.626111 0
-0.507461 0.624216 0
-0.544001 0.566638 0
-0.477696 0.564279 0
-0.511582 0.51001 0
-0.451689 0.507147 0
-0.481834 0.457732 0
-0.426137 0.454624 0
-0.453236 0.407539 0
-0.398845 0.406233 0
-0.507958 0.409496 0
-0.368427 0.460177 0
-0.344602 0.405209 0
-0.315696 0.447824 0
-0.294128 0.402169 0
-0.262844 0.444518 0
-0.241968 0.388746 0
-0.209878 0.439557 0
-0.185184 0.391135 0
-0.156687 0.437338 0
-0.133719 0.390776 0
-0.104405 0.434306 0
-0.0818745 0.388334 0
-0.0528785 0.431165 0
-0.0305984 0.385639 0
-0.00180552 0.427863 0
0.0194564 0.382608 0
0.0485809 0.42449 0
0.0701962 0.37973 0
0.0985483 0.421145 0
0.119893 0.377339 0
0.147837 0.417911 0
0.172552 0.36751 0
0.197018 0.412597 0
0.221203 0.37141 0
0.24512 0.409646 0
-0.48178 0.364657 0
-0.531053 0.364782 0
-0.0599102 0.344151 0
-0.324909 0.359566 0
0.266181 0.368462 0
0.292132 0.407649 0
0.311992 0.365779 0
0.338918 0.404821 0
0.357567 0.355909 0
0.384723 0.40053 0
0.404675 0.359681 0
0.430617 0.398558 0
0.450457 0.35827 0
0.474237 0.395182 0
0.496746 0.34898 0
0.520548 0.397931 0
0.542071 0.353121 0
0.566011 0.389914 0
0.585061 0.350856 0
0.609352 0.38696 0
0.629069 0.348168 0
0.655979 0.391217 0
0.67472 0.346182 0
0.699346 0.381414 0
0.719333 0.341965 0
0.743718 0.377547 0
0.764028 0.339036 0
0.788201 0.373582 0
0.807659 0.336101 0
0.832821 0.372249 0
0.852309 0.334017 0
0.877785 0.370339 0
0.897875 0.331141 0
0.922904 0.366281 0
0.943173 0.327335 0
0.968282 0.363358 0
0.989029 0.324222 0
1.01391 0.361511 0
1.03465 0.321428 0
1.05949 0.358447 0
1.08389 0.312052 0
1.10575 0.355104 0
1.12889 0.31562 0
1.15067 0.353235 0
1.17157 0.312819 0
1.19626 0.349369 0
1.21618 0.309863 0
1.2416 0.346914 0
1.26131 0.30715 0
1.28691 0.344312 0
1.30571 0.303752 0
1.33144 0.341222 0
1.35018 0.300911 0
1.3758 0.338308 0
1.39501 0.298931 0
1.42015 0.335235 0
1.43904 0.296349 0
1.46355 0.330194 0
1.48256 0.293347 0
1.50685 0.326967 0
1.52589 0.29055 0
1.54996 0.325305 0
1.56909 0.287929 0
[...]
CELL_DATA 3694
SCALARS rho float
LOOKUP_TABLE default
0.745378
0.689402
0.805042
0.821891
0.831935
0.806452
0.794286
0.801669
0.817971
0.803908
0.825199
0.825188
0.839814
0.792353
0.802367
0.763971
0.804136
0.804141
0.771847
0.853279
0.823508
0.829694
0.72289
0.804701
0.720017
0.838777
0.726644
0.808177
0.836994
0.799628
0.79977
0.724412
0.804626
0.825508
0.804263
0.805191
0.840891
0.829398
0.830394
0.78041
0.805954
0.818492
0.834523
0.826055
0.806589
0.82179
0.802752
0.693984
0.694098
0.741005
0.803498
0.803524
0.850225
0.803878
0.67923
0.841805
0.804086
0.825388
0.832557
0.762952
0.79862
0.825218
0.846391
0.801241
0.847195
0.83632
0.809357
0.822738
0.740136
0.861584
0.803662
0.809069
0.829722
0.804119
0.83077
0.803527
0.815064
0.800864
0.82201
0.804107
0.732163
0.819574
0.802963
0.779108
0.817419
0.80081
0.824778
0.732415
0.739523
0.830121
0.806201
0.803537
0.821611
0.821772
0.689295
0.807948
0.733636
0.825508
0.820753
0.844401
0.823413
0.774
0.721661
0.817672
0.816865
0.825201
0.825526
0.808447
0.725303
0.822188
0.801288
0.742354
0.724156
0.828528
0.870534
0.803297
0.806844
0.820552
0.803656
0.803179
0.76955
0.822642
0.826379
0.778398
0.707391
0.765845
0.825009
0.786369
0.84705
0.723398
0.771153
0.802199
0.809409
0.78253
0.802886
0.802296
0.806831
0.803061
0.799072
0.823287
0.821777
0.728028
0.824742
0.822687
0.764882
0.696301
0.691341
0.799278
0.824579
0.814356
0.757328
0.803507
0.625862
0.78629
0.708964
0.774778
0.724852
0.791249
0.633351
0.795773
0.837022
0.663623
0.78622
0.747179
0.848584
0.6228
0.818398
0.801961
0.804847
0.688322
0.802509
0.6837
0.861162
0.638868
0.801853
0.682443
0.870148
0.838781
0.827225
0.748567
0.821922
0.725781
0.833104
0.742007
0.666698
0.803921
0.673905
0.829941
0.803126
0.854815
0.794123
0.705534
0.824865
0.799629
0.753262
0.851837
0.812743
0.852016
0.74669
0.756208
0.776383
0.800633
0.837357
0.833941
0.817773
0.823028
0.691376
0.80589
0.742692
0.803936
0.731285
0.803485
0.797709
0.803342
0.832044
0.774798
0.836203
0.758556
0.832007
0.826261
0.824582
0.852019
0.829683
0.72776
0.833226
0.680963
0.791132
0.817064
0.854966
0.835731
0.816212
0.796114
0.758047
0.825446
0.841562
0.825319
0.732227
0.807108
0.711382
0.799893
0.797591
0.817425
0.672792
0.809197
0.768655
0.799713
0.803602
0.768861
0.824728
0.863849
0.786248
0.693784
0.806031
0.803519
0.66599
0.800518
0.782824
0.803082
0.842684
0.824653
0.635218
0.824504
0.81093
0.804766
0.824519
0.803443
0.816406
0.820445
0.835369
0.765828
0.802528
0.840185
0.812218
0.80365
0.798514
0.825125
0.732099
0.616378
0.824671
0.829483
0.827457
0.805517
0.712192
0.824515
0.824433
0.823283
0.73357
0.803363
0.82519
0.642904
0.803448
0.871179
0.677349
0.768977
0.843397
0.831999
0.824912
0.708665
0.810881
0.825218
0.80499
0.803039
0.813178
0.840439
0.818664
0.772948
0.808557
0.803759
0.664722
0.828083
0.83395
0.693942
0.798816
0.826378
0.821091
0.697227
0.664096
0.828422
0.830495
0.810969
0.736925
0.722154
0.728483
0.749547
0.827411
0.786221
0.805383
0.749599
0.745674
0.829171
0.81778
0.820424
0.778491
0.824718
0.82286
0.825256
0.82392
0.803761
0.809165
0.805788
0.692409
0.803275
0.814238
0.721042
0.809091
0.806487
0.826826
0.789407
0.807551
0.794683
0.825008
0.828074
0.82741
0.799577
0.713296
0.733144
0.801368
0.812247
0.663331
0.805061
0.809406
0.818369
0.754447
0.805873
0.824122
0.820099
0.825581
0.806381
0.799564
0.774442
0.806348
0.848069
0.821246
0.708904
0.80522
0.725429
0.707931
0.80415
0.635822
0.776161
0.788283
0.808878
0.822936
0.831031
0.824808
0.818736
0.827427
0.834152
0.803581
0.774511
0.811089
0.682651
0.826524
0.766815
0.743805
0.711428
0.823006
0.856915
0.826548
0.810627
0.822362
0.824547
0.79032
0.769346
0.817681
0.706128
0.79395
0.847449
0.82657
0.802396
0.867028
0.814612
0.823652
0.825437
0.831004
0.66539
0.806154
0.74875
0.799137
0.739434
0.824934
0.810142
0.794546
0.67627
0.824575
0.830269
0.820544
0.804012
0.805135
0.83083
0.805016
0.731741
0.792772
0.803597
0.824393
0.821686
0.820637
0.87392
0.833928
0.810878
0.837744
0.700657
0.830116
0.842706
0.824486
0.648451
0.824581
0.810801
0.849896
0.828391
0.803813
0.620568
0.811656
0.719542
0.807568
0.803505
0.813948
0.823072
0.825753
0.806447
0.81247
0.82405
0.74352
0.865971
0.802695
0.854184
0.824246
0.628286
0.805068
0.799071
0.82003
0.825509
0.693157
0.803605
0.811101
0.814378
0.808564
0.796235
0.824508
0.825058
0.804092
0.805968
0.828339
0.840806
0.748312
0.807763
0.811527
0.82122
0.697246
0.806809
0.823171
0.800511
0.80562
0.636809
0.838511
0.775014
0.824741
0.825529
0.836507
0.850031
0.823911
0.820303
0.734357
0.800311
0.855341
0.816471
0.721655
0.801316
0.803281
0.87448
0.849703
0.826553
0.802709
0.811084
0.764376
0.824139
0.815337
0.615888
0.803896
0.748054
0.755503
0.804575
0.819948
0.784079
0.821816
0.824291
0.838111
0.823382
0.8023
0.816148
0.741913
0.748616
0.805401
0.815749
0.827477
0.803714
0.757079
0.712664
0.822955
0.816652
0.815085
0.624222
0.822856
0.822711
0.831261
0.804151
0.815609
0.826535
0.813072
0.844394
0.803957
0.813958
0.829693
0.824496
0.823417
0.826989
0.715885
0.787598
0.801591
0.804204
0.851875
0.802926
0.809146
0.654738
0.816898
0.821867
0.812342
0.826561
0.807207
0.822345
0.737726
0.848203
0.710114
0.801765
0.825306
0.808708
0.695862
0.674629
0.816948
0.807136
0.80589
0.793819
0.802523
0.835114
0.821259
0.806354
0.803516
0.820346
0.640618
0.820993
0.804621
0.723863
0.822972
0.675169
0.792991
0.823753
0.841662
0.813798
0.821491
0.800747
0.802521
0.805692
0.802484
0.820709
0.812691
0.817117
0.804056
0.760487
0.805518
0.821648
0.820935
0.822483
0.820238
0.824394
0.824532
0.838289
0.753538
0.808329
0.824189
0.804007
0.594053
0.711664
0.813071
0.822587
0.824246
0.783499
0.810282
0.814561
0.80478
0.801778
0.804187
0.825643
0.826619
0.82451
0.793343
0.815233
0.813571
0.652548
0.779646
0.766799
0.81215
0.745541
0.708501
0.798841
0.773253
0.833684
0.825172
0.824356
0.809861
0.591631
0.817127
0.614335
0.723255
0.831224
0.871795
0.757041
0.824436
0.856641
0.712664
0.823617
0.810474
0.816262
0.808271
0.674839
0.858302
0.742047
0.748507
0.80508
0.805934
0.800644
0.833416
0.824611
0.70851
0.821275
0.801582
0.720114
0.844491
0.79959
0.646787
0.778675
0.824228
0.815779
0.824242
0.786807
0.744333
0.780642
0.836617
0.702384
0.82458
0.824043
0.833212
0.773449
0.829022
0.715301
0.805959
0.6781
0.713565
0.806565
0.823855
0.797095
0.824687
0.824247
0.824438
0.823745
0.615761
0.803107
0.825332
0.752874
0.811513
0.824186
0.820614
0.717889
0.689988
0.75097
0.660298
0.808306
0.700796
0.82453
0.802561
0.82454
0.836587
0.687291
0.810809
0.826416
0.836603
0.754313
0.790268
0.767804
0.780706
0.819691
0.655942
0.669615
0.824508
0.806796
0.819551
0.805915
0.732017
0.787551
0.741398
0.76352
0.801266
0.837615
0.813774
0.704476
0.830144
0.823676
0.81941
0.714639
0.691219
0.702669
0.874587
0.824435
0.823949
0.637293
0.723655
0.661628
0.80507
0.801278
0.688453
0.813582
0.829123
0.763286
0.801417
0.74387
0.822929
0.705788
0.824783
0.811639
0.808795
0.803738
0.830122
0.754145
0.824559
0.824996
0.784637
0.639243
0.817868
0.81918
0.767237
0.823616
0.7507
0.804661
0.831756
0.696143
0.825875
0.803212
0.810876
0.625586
0.672112
0.747045
0.807847
0.820287
0.819191
0.828085
0.816393
0.824349
0.716753
0.802557
0.821058
0.83246
0.716187
0.745578
0.821063
0.81818
0.714221
0.815046
0.781979
0.702617
0.813271
0.709415
0.811532
0.679923
0.803439
0.733567
0.692089
0.819297
0.78969
0.755492
0.65191
0.844382
0.82141
0.8225
0.77834
0.824055
0.80111
0.793105
0.801314
0.803404
0.822509
0.749597
0.811201
0.80126
0.826373
0.627894
0.803008
0.820635
0.821432
0.81959
0.820001
0.756054
0.809579
0.769841
0.760508
0.826061
0.683521
0.825922
0.82517
0.803735
0.823242
0.824433
0.739793
0.771241
0.828959
0.793048
0.805287
0.82376
0.876918
0.825004
0.8063
0.825007
0.824475
0.796395
0.826149
0.823847
0.779032
0.724767
0.846031
0.798769
0.803837
0.82354
0.788327
0.825617
0.825044
0.826268
0.825016
0.873063
0.803773
0.806607
0.825951
0.803758
0.824071
0.808508
0.749762
0.823896
0.827091
0.756957
0.731992
0.82368
0.842973
0.823217
0.695363
0.828776
0.779043
0.816312
0.80346
0.74259
0.8036
0.799975
0.816891
0.824118
0.709045
0.728221
0.803622
0.790095
0.803507
0.829477
0.725062
0.824901
0.803902
0.801978
0.82804
0.824497
0.733399
0.824125
0.770265
0.804018
0.832372
0.804546
0.78201
0.79938
0.796165
0.824213
0.660945
0.825234
0.693092
0.708616
0.804674
0.826971
0.824993
0.803639
0.824336
0.814803
0.741554
0.789715
0.860612
0.803671
0.837701
0.809054
0.627353
0.765075
0.789257
0.679123
0.752257
0.618231
0.824946
0.822729
0.820331
0.803138
0.770842
0.704071
0.775006
0.755696
0.786239
0.825195
0.844108
0.826838
0.807391
0.81975
0.828355
0.804169
0.809548
0.722263
0.804514
0.764997
0.810246
0.79925
0.763886
0.827994
0.791799
0.804811
0.798283
0.844944
0.737195
0.802046
0.801078
0.806356
0.638435
0.824468
0.824425
0.823004
0.673348
0.824383
0.82418
0.799816
0.805132
0.796019
0.784644
0.808408
0.80248
0.824586
0.756371
0.811289
0.87717
0.770793
0.759948
0.81431
0.786461
0.847269
0.807501
0.78905
0.822358
0.800261
0.795373
0.809601
0.832026
0.841036
0.801574
0.610373
0.827482
0.834085
0.776101
0.836565
0.842775
0.829474
0.83239
0.808888
0.838163
0.833107
0.786856
0.81084
0.819815
0.813957
0.829527
0.804506
0.827538
0.795388
0.805365
0.807428
0.742447
0.808731
0.60479
0.825633
0.831777
0.834669
0.807784
0.819457
0.830549
0.820486
0.827951
0.843775
0.838662
0.79625
0.801249
0.828677
0.823488
0.824987
0.801628
0.807973
0.868318
0.82732
0.851611
0.823418
0.801911
0.825164
0.801766
0.833114
0.821529
0.822451
0.806806
0.742856
0.80396
0.805919
0.824069
0.804772
0.807997
0.822853
0.805742
0.805502
0.782361
0.82068
0.727963
0.815796
0.789627
0.766363
0.804745
0.814681
0.819315
0.734158
0.826752
0.816487
0.826882
0.824736
0.796297
0.824694
0.846307
0.833443
0.821057
0.813215
0.802631
0.756875
0.707362
0.824771
0.820973
0.780534
0.822144
0.809373
0.819952
0.807035
0.79989
0.780482
0.803075
0.801185
0.845713
0.825265
0.813022
0.8078
0.629689
0.745109
0.803842
0.79179
0.805662
0.823583
0.807525
0.824604
0.784149
0.824656
0.806387
0.818995
0.805254
0.825422
0.803577
0.824529
0.818959
0.823971
0.820691
0.734663
0.822022
0.824485
0.624962
0.824504
0.799111
0.80448
0.862063
0.825325
0.818891
0.874683
0.823791
0.823976
0.824977
0.826319
0.822871
0.770066
0.830196
0.802868
0.804225
0.821863
0.824049
0.824936
0.824293
0.82093
0.823856
0.805207
0.820156
0.810633
0.8167
0.820988
0.824408
0.819587
0.826465
0.810372
0.694575
0.684994
0.803624
0.810421
0.804402
0.819233
0.825689
0.824467
0.803862
0.805823
0.801928
0.801881
0.824526
0.848059
0.826143
0.813194
0.825869
0.825847
0.845482
0.824908
0.822155
0.789157
0.823479
0.808258
0.803259
0.794859
0.818179
0.825963
0.824234
0.823553
0.835509
0.813398
0.821627
0.824167
0.822493
0.804592
0.804469
0.806934
0.819301
0.824159
0.802547
0.810354
0.824963
0.823314
0.802191
0.656859
0.805492
0.803017
0.818596
0.800548
0.804041
0.757517
0.845621
0.804381
0.800813
0.840166
0.835641
0.811756
0.832533
0.801656
0.825544
0.824361
0.826233
0.804699
0.825896
0.746812
0.829153
0.812786
0.80141
0.814535
0.827682
0.801195
0.805177
0.790839
0.816411
0.824463
0.824489
0.826031
0.807847
0.825113
0.824313
0.831435
0.822722
0.842744
0.807491
0.708043
0.82541
0.844339
0.82706
0.806138
0.800955
0.804805
0.823132
0.815482
0.824266
0.750304
0.754439
0.8021
0.804475
0.824027
0.823999
0.806614
0.684286
0.720261
0.809479
0.771574
0.824529
0.711081
0.803653
0.738966
0.803647
0.821103
0.803609
0.82519
0.821181
0.800153
0.810138
0.801194
0.829608
0.824449
0.802618
0.804771
0.823772
0.828403
0.760934
0.828409
0.804846
0.785158
0.824403
0.805018
0.812202
0.824556
0.824132
0.840265
0.800533
0.799927
0.824354
0.767342
0.808219
0.824605
0.802604
0.824119
0.840455
0.803574
0.847389
0.814782
0.796812
0.820547
0.80324
0.850724
0.790768
0.803966
0.82458
0.837287
0.809806
0.822563
0.824277
0.803849
0.803659
0.826466
0.789548
0.823136
0.824124
0.686468
0.824251
0.724034
0.818686
0.842852
0.830772
0.805089
0.823918
0.824546
0.737891
0.824471
0.802587
0.802241
0.802053
0.823953
0.866749
0.802314
0.802354
0.789019
0.845491
0.828202
0.826695
0.821343
0.756325
0.810358
0.803651
0.741461
0.801233
0.726298
0.818653
0.802014
0.692585
0.881895
0.714209
0.774745
0.8033
0.756273
0.809836
0.800118
0.803562
0.678561
0.798638
0.787646
0.800362
0.747411
0.826079
0.829222
0.885881
0.810886
0.83177
0.66514
0.8015
0.793654
0.759348
0.762387
0.779652
0.725854
0.804348
0.800736
0.804406
0.771498
0.651272
0.812867
0.640933
0.827218
0.827412
0.812774
0.743071
0.817785
0.80342
0.825789
0.786832
0.814991
0.79894
0.818046
0.728133
0.80259
0.735593
0.802406
0.799898
0.712883
0.805078
0.824887
0.824834
0.803798
0.76976
0.824202
0.735376
0.704898
0.803099
0.824914
0.876642
0.824963
0.823136
0.882077
0.867759
0.835107
0.720224
0.803017
0.813167
0.822459
0.805263
0.708199
0.733536
0.706747
0.803076
0.70512
0.775231
0.800374
0.667618
0.689834
0.840151
0.782108
0.756504
0.835927
0.769002
0.771765
0.674696
0.744128
0.792739
0.825648
0.871672
0.841908
0.824334
0.801572
0.800689
0.730686
0.824567
0.708108
0.798371
0.825082
0.785462
0.770991
0.808221
0.790409
0.803703
0.801723
0.819821
0.812172
0.869592
0.658916
0.622935
0.803315
0.813314
0.716248
0.811733
0.803651
0.841848
0.804556
0.802908
0.61579
0.642446
0.809212
0.82057
0.824653
0.745491
0.803686
0.816765
0.705473
0.81977
0.803369
0.823283
0.80356
0.806469
0.802771
0.823938
0.803331
0.817431
0.80426
0.864974
0.824479
0.803015
0.724605
0.695395
0.823972
0.62858
0.819
0.811691
0.840465
0.821598
0.804024
0.812068
0.822599
0.82138
0.825035
0.80221
0.852625
0.859845
0.80392
0.687311
0.815666
0.822596
0.80085
0.803848
0.826132
0.751447
0.803582
0.830454
0.827192
0.823348
0.824004
0.774485
0.748766
0.802534
0.838884
0.80467
0.82067
0.806346
0.805549
0.806868
0.823415
0.810579
0.800119
0.808386
0.807865
0.825327
0.808163
0.807752
0.825202
0.808674
0.803677
0.82225
0.803518
0.803267
0.807241
0.809617
0.822388
0.779279
0.806733
0.803464
0.825409
0.800578
0.804832
0.808392
0.837003
0.806362
0.68681
0.801622
0.823257
0.805945
0.815804
0.770153
0.823237
0.760505
0.804665
0.802747
0.805212
0.820056
0.854832
0.80558
0.803604
0.750233
0.835043
0.824947
0.827212
0.825094
0.821724
0.750519
0.825524
0.741036
0.802851
0.833301
0.803121
0.723734
0.831796
0.821285
0.824645
0.830317
0.824513
0.778677
0.824937
0.690053
0.733569
0.825037
0.829029
0.709534
0.826563
0.67622
0.828052
0.808724
0.82474
0.803616
0.807547
0.821627
0.8321
0.825393
0.664579
0.82223
0.846631
0.785652
0.850504
0.801527
0.730092
0.843417
0.82672
0.840752
0.71746
0.714
0.83834
0.698309
0.836293
0.82483
0.834493
0.807873
0.832993
0.791061
0.831686
0.830477
0.730638
0.868488
0.829457
0.828605
0.824097
0.769027
0.803612
0.626437
0.810572
0.82789
0.822426
0.806409
0.832066
0.825529
0.799172
0.827265
0.803696
0.710535
0.795183
0.834369
0.823829
0.735979
0.806824
0.822264
0.631266
0.823998
0.82451
0.804463
0.811323
0.743496
0.823953
0.803606
0.804407
0.798275
0.80184
0.800033
0.796199
0.803596
0.821604
0.82019
0.822786
0.608353
0.893948
0.723753
0.799885
0.75411
0.793982
0.825392
0.824461
0.824511
0.635248
0.825897
0.818235
0.805276
0.82465
0.836716
0.839318
0.78603
0.800061
0.801259
0.74472
0.764998
0.824619
0.772281
0.816346
0.826412
0.824066
0.814779
0.802787
0.784733
0.813434
0.82459
0.738123
0.812061
0.824512
0.825798
0.809409
0.810971
0.775341
0.824427
0.80969
0.80397
0.808953
0.648276
0.807998
0.805742
0.807413
0.828157
0.844918
0.80614
0.78433
0.806752
0.775607
0.827304
0.813434
0.822029
0.825466
0.849154
0.804371
0.751155
0.820723
0.824644
0.739519
0.802692
0.824672
0.763715
0.821907
0.604837
0.808181
0.699734
0.803032
0.816408
0.820825
0.825224
0.805489
0.822366
0.825201
0.802332
0.806378
0.844011
0.824503
0.798525
0.823642
0.804003
0.803554
0.801276
0.802593
0.814213
0.824208
0.803008
0.780526
0.825947
0.818175
0.810347
0.825457
0.619679
0.80514
0.814885
0.824519
0.795896
0.760477
0.721927
0.821691
0.825078
0.832081
0.797864
0.633227
0.779402
0.676264
0.82493
0.748263
0.821368
0.83083
0.722458
0.800785
0.839077
0.763546
0.802161
0.803863
0.823834
0.808135
0.712212
0.801757
0.620679
0.803233
0.803426
0.803494
0.656856
0.803585
0.804489
0.804329
0.739045
0.748007
0.804506
0.784101
0.824519
0.733888
0.719659
0.824287
0.802976
0.762039
0.857075
0.823305
0.821407
0.687228
0.804185
0.801402
0.80148
0.80305
0.680378
0.804326
0.824458
0.674171
0.701181
0.807245
0.797198
0.824698
0.827891
0.823569
0.823878
0.824559
0.804834
0.824592
0.823415
0.818672
0.829809
0.804171
0.802886
0.812044
0.746126
0.811017
0.823269
0.865286
0.81666
0.661022
0.784676
0.803117
0.780512
0.824809
0.820073
0.834421
0.815668
0.867092
0.803835
0.823164
0.629272
0.817119
0.838156
0.803421
0.823949
0.651078
0.823145
0.803409
0.824778
0.802852
0.825269
0.824342
0.757699
0.804985
0.803516
0.839509
0.864713
0.820735
0.824631
0.728305
0.757021
0.803194
0.804059
0.813705
0.825589
0.800624
0.803829
0.82657
0.813913
0.809039
0.742927
0.803447
0.824823
0.821168
0.775137
0.763488
0.819293
0.798227
0.860251
0.730311
0.839183
0.818712
0.713734
0.801761
0.823019
0.78942
0.801551
0.801097
0.8239
0.785832
0.776978
0.822392
0.698968
0.799736
0.775047
0.82396
0.825236
0.803123
0.795261
0.750821
0.763095
0.781388
0.823991
0.82639
0.813227
0.684044
0.808892
0.802879
0.78087
0.810646
0.821786
0.801608
0.805048
0.676447
0.805906
0.806533
0.855269
0.804855
0.810819
0.838177
0.807199
0.81808
0.855901
0.653853
0.805255
0.824641
0.806934
0.806497
0.807273
0.805927
0.806108
0.805487
0.807395
0.808221
0.738717
0.807332
0.808874
0.813332
0.823071
0.80997
0.824785
0.803586
0.804693
0.823079
0.823046
0.818197
0.803672
0.816833
0.814813
0.816316
0.824234
0.725258
0.822732
0.836673
0.824073
0.858003
0.75878
0.815595
0.825051
0.802858
0.670248
0.804156
0.77988
0.828809
0.646764
0.824425
0.834975
0.824112
0.81843
0.803012
0.827305
0.824579
0.80496
0.772864
0.824987
0.763613
0.600583
0.824224
0.69498
0.714586
0.820853
0.833374
0.833487
0.824745
0.851628
0.65553
0.874435
0.806933
0.831924
0.830511
0.821207
0.704802
0.824614
0.829212
0.824665
0.803075
0.776156
0.822739
0.612542
0.819801
0.847677
0.804304
0.844452
0.828188
0.803601
0.696915
0.843028
0.827336
0.841573
0.802155
0.820683
0.803472
0.839218
0.803764
0.820814
0.837042
0.83513
0.822606
0.83087
0.831271
0.742281
0.694351
0.639302
0.833507
0.832186
0.773895
0.765289
0.814087
0.830942
0.845965
0.63721
0.829834
0.828908
0.828151
0.826928
0.805722
0.821527
0.694489
0.756211
0.827507
0.798939
0.868213
0.891387
0.781439
0.811485
0.685081
0.835614
0.746878
0.739197
0.820048
0.803601
0.787437
0.699569
0.802835
0.824413
0.792117
0.734561
0.808132
0.818197
0.800185
0.709614
0.82807
0.795368
0.824458
0.838627
0.81632
0.803575
0.824614
0.824515
0.78889
0.805403
0.733501
0.840364
0.795738
0.81872
0.786152
0.805842
0.719822
0.801597
0.814799
0.813496
0.812429
0.810956
0.809852
0.80913
0.807461
0.806309
0.808289
0.744571
0.806892
0.802117
0.798176
0.804359
0.843844
0.736154
0.803993
0.780015
0.885233
0.853249
0.799966
0.741961
0.805043
0.7993
0.733062
0.804399
0.803168
0.750167
0.805372
0.798213
0.798832
0.802409
0.745987
0.788757
0.811589
0.760623
0.769337
0.779607
0.80278
0.823355
0.810052
0.770232
0.757765
0.801239
0.823096
0.80417
0.799283
0.801865
0.927563
0.863074
0.824834
0.825185
0.726822
0.848501
0.756748
0.826872
0.821473
0.898781
0.82514
0.79855
0.62161
0.824991
0.798699
0.824864
0.799203
0.848938
0.622964
0.83812
0.802945
0.807273
0.806196
0.805421
0.854803
0.802246
0.825176
0.713703
0.649757
0.681381
0.824759
0.60887
0.799003
0.73756
0.845339
0.815636
0.593992
0.807959
0.823927
0.823756
0.730194
0.803183
0.576407
0.798822
0.824602
0.798984
0.803662
0.799271
0.824527
0.837964
0.803592
0.800121
0.824571
0.800433
0.824607
0.815712
0.800782
0.824666
0.822581
0.824755
0.800934
0.824868
0.693549
0.801167
0.825006
0.803706
0.801378
0.825151
0.718542
0.824748
0.799396
0.825333
0.800034
0.817911
0.83839
0.864526
0.801843
0.802535
0.825774
0.816775
0.802159
0.801756
0.861886
0.817875
0.825555
0.818365
0.853392
0.834578
0.824515
0.826613
0.850637
0.824792
0.803717
0.826687
0.81691
0.804188
0.82433
0.801705