# vtk DataFile Version 1.0
unstructured grid
ascii
DATASET UNSTRUCTURED_GRID
points 3920 float
-1 0 0
-1 1 0
2 0 0
2 1 0
0 0 0
1 0 0
-1 1 0.1
-1 0 0.1
0 0 0.1
1 0 0.1
2 0 0.1
2 1 0.1
-0.98 0 0
-0.96 0 0
-0.94 0 0
-0.92 0 0
-0.9 0 0
-0.88 0 0
-0.86 0 0
-0.84 0 0
-0.82 0 0
-0.8 0 0
-0.78 0 0
-0.76 0 0
-0.74 0 0
-0.72 0 0
-0.7 0 0
-0.68 0 0
-0.66 0 0
-0.64 0 0
-0.62 0 0
-0.6 0 0
-0.58 0 0
-0.56 0 0
-0.54 0 0
-0.52 0 0
-0.5 0 0
-0.48 0 0
-0.46 0 0
-0.44 0 0
-0.42 0 0
-0.4 0 0
-0.38 0 0
-0.36 0 0
-0.34 0 0
-0.32 0 0
-0.3 0 0
-0.28 0 0
-0.26 0 0
-0.24 0 0
-0.22 0 0
-0.2 0 0
-0.18 0 0
-0.16 0 0
-0.14 0 0
-0.12 0 0
-0.1 0 0
-0.08 0 0
-0.06 0 0
-0.04 0 0
-0.02 0 0
1.02 0 0
1.04 0 0
1.06 0 0
1.08 0 0
1.1 0 0
1.12 0 0
1.14 0 0
1.16 0 0
1.18 0 0
1.2 0 0
1.22 0 0
1.24 0 0
1.26 0 0
1.28 0 0
1.3 0 0
1.32 0 0
1.34 0 0
1.36 0 0
1.38 0 0
1.4 0 0
1.42 0 0
1.44 0 0
1.46 0 0
1.48 0 0
1.5 0 0
1.52 0 0
1.54 0 0
1.56 0 0
1.58 0 0
1.6 0 0
1.62 0 0
1.64 0 0
1.66 0 0
1.68 0 0
1.7 0 0
1.72 0 0
1.74 0 0
1.76 0 0
1.78 0 0
1.8 0 0
1.82 0 0
1.84 0 0
1.86 0 0
1.88 0 0
1.9 0 0
1.92 0 0
1.94 0 0
1.96 0 0
1.98 0 0
2 0.0199133 0
2 0.0414128 0
2 0.0646247 0
2 0.0896856 0
2 0.116743 0
2 0.145955 0
2 0.177494 0
2 0.211545 0
2 0.248309 0
2 0.288001 0
2 0.330854 0
2 0.377121 0
2 0.427073 0
2 0.481004 0
2 0.539231 0
2 0.602096 0
2 0.669968 0
2 0.743247 0
2 0.822362 0
2 0.907779 0
1.9 1 0
1.8 1 0
1.7 1 0
1.6 1 0
1.5 1 0
1.4 1 0
1.3 1 0
1.2 1 0
1.1 1 0
1 1 0
0.9 1 0
0.8 1 0
0.7 1 0
0.6 1 0
0.5 1 0
0.4 1 0
0.3 1 0
0.2 1 0
0.1 1 0
3.69793e-12 1 0
-0.1 1 0
-0.2 1 0
-0.3 1 0
-0.4 1 0
-0.5 1 0
-0.6 1 0
-0.7 1 0
-0.8 1 0
-0.9 1 0
-1 0.907779 0
-1 0.822362 0
-1 0.743247 0
-1 0.669968 0
-1 0.602096 0
-1 0.539231 0
-1 0.481004 0
-1 0.427073 0
-1 0.377121 0
-1 0.330854 0
-1 0.288001 0
-1 0.248309 0
-1 0.211545 0
-1 0.177494 0
-1 0.145955 0
-1 0.116743 0
-1 0.0896856 0
-1 0.0646247 0
-1 0.0414128 0
-1 0.0199133 0
0.0182781 0.00745351 0
0.0366672 0.0146286 0
0.0551632 0.0215237 0
0.0737617 0.0281372 0
0.0924585 0.0344675 0
0.111249 0.0405131 0
0.13013 0.0462728 0
0.149095 0.0517451 0
0.168142 0.0569289 0
0.187265 0.0618228 0
0.20646 0.0664258 0
0.225723 0.0707368 0
0.245049 0.0747549 0
0.264434 0.078479 0
0.283873 0.0819084 0
0.303362 0.0850422 0
0.322896 0.0878798 0
0.342472 0.0904204 0
0.362083 0.0926635 0
0.381726 0.0946086 0
0.401397 0.0962552 0
0.42109 0.0976029 0
0.440802 0.0986514 0
0.460527 0.0994006 0
0.480261 0.0998501 0
0.5 0.1 0
0.519739 0.0998501 0
0.539473 0.0994006 0
0.559198 0.0986514 0
0.57891 0.0976029 0
0.598603 0.0962552 0
0.618274 0.0946086 0
0.637917 0.0926635 0
0.657528 0.0904204 0
0.677104 0.0878798 0
0.696638 0.0850422 0
0.716127 0.0819084 0
0.735566 0.078479 0
0.754951 0.0747549 0
0.774277 0.0707368 0
0.79354 0.0664258 0
0.812735 0.0618228 0
0.831858 0.0569289 0
0.850905 0.0517451 0
0.86987 0.0462728 0
0.888751 0.0405131 0
0.907542 0.0344675 0
0.926238 0.0281372 0
0.944837 0.0215237 0
0.963333 0.0146286 0
0.981722 0.00745351 0
-1 0.907779 0.1
-1 0.822362 0.1
-1 0.743247 0.1
-1 0.669968 0.1
-1 0.602096 0.1
-1 0.539231 0.1
-1 0.481004 0.1
-1 0.427073 0.1
-1 0.377121 0.1
-1 0.330854 0.1
-1 0.288001 0.1
-1 0.248309 0.1
-1 0.211545 0.1
-1 0.177494 0.1
-1 0.145955 0.1
-1 0.116743 0.1
-1 0.0896856 0.1
-1 0.0646247 0.1
-1 0.0414128 0.1
-1 0.0199133 0.1
-0.98 0 0.1
-0.96 0 0.1
-0.94 0 0.1
-0.92 0 0.1
-0.9 0 0.1
-0.88 0 0.1
-0.86 0 0.1
-0.84 0 0.1
-0.82 0 0.1
-0.8 0 0.1
-0.78 0 0.1
-0.76 0 0.1
-0.74 0 0.1
-0.72 0 0.1
-0.7 0 0.1
-0.68 0 0.1
-0.66 0 0.1
-0.64 0 0.1
-0.62 0 0.1
-0.6 0 0.1
-0.58 0 0.1
-0.56 0 0.1
-0.54 0 0.1
-0.52 0 0.1
-0.5 0 0.1
-0.48 0 0.1
-0.46 0 0.1
-0.44 0 0.1
-0.42 0 0.1
-0.4 0 0.1
-0.38 0 0.1
-0.36 0 0.1
-0.34 0 0.1
-0.32 0 0.1
-0.3 0 0.1
-0.28 0 0.1
-0.26 0 0.1
-0.24 0 0.1
-0.22 0 0.1
-0.2 0 0.1
-0.18 0 0.1
-0.16 0 0.1
-0.14 0 0.1
-0.12 0 0.1
-0.1 0 0.1
-0.08 0 0.1
-0.06 0 0.1
-0.04 0 0.1
-0.02 0 0.1
0.0182781 0.00745351 0.1
0.0366672 0.0146286 0.1
0.0551632 0.0215237 0.1
0.0737617 0.0281372 0.1
0.0924585 0.0344675 0.1
0.111249 0.0405131 0.1
0.13013 0.0462728 0.1
0.149095 0.0517451 0.1
0.168142 0.0569289 0.1
0.187265 0.0618228 0.1
0.20646 0.0664258 0.1
0.225723 0.0707368 0.1
0.245049 0.0747549 0.1
0.264434 0.078479 0.1
0.283873 0.0819084 0.1
0.303362 0.0850422 0.1
0.322896 0.0878798 0.1
0.342472 0.0904204 0.1
0.362083 0.0926635 0.1
0.381726 0.0946086 0.1
0.401397 0.0962552 0.1
0.42109 0.0976029 0.1
0.440802 0.0986514 0.1
0.460527 0.0994006 0.1
0.480261 0.0998501 0.1
0.5 0.1 0.1
0.519739 0.0998501 0.1
0.539473 0.0994006 0.1
0.559198 0.0986514 0.1
0.57891 0.0976029 0.1
0.598603 0.0962552 0.1
0.618274 0.0946086 0.1
0.637917 0.0926635 0.1
0.657528 0.0904204 0.1
0.677104 0.0878798 0.1
0.696638 0.0850422 0.1
0.716127 0.0819084 0.1
0.735566 0.078479 0.1
0.754951 0.0747549 0.1
0.774277 0.0707368 0.1
0.79354 0.0664258 0.1
0.812735 0.0618228 0.1
0.831858 0.0569289 0.1
0.850905 0.0517451 0.1
0.86987 0.0462728 0.1
0.888751 0.0405131 0.1
0.907542 0.0344675 0.1
0.926238 0.0281372 0.1
0.944837 0.0215237 0.1
0.963333 0.0146286 0.1
0.981722 0.00745351 0.1
1.02 0 0.1
1.04 0 0.1
1.06 0 0.1
1.08 0 0.1
1.1 0 0.1
1.12 0 0.1
1.14 0 0.1
1.16 0 0.1
1.18 0 0.1
1.2 0 0.1
1.22 0 0.1
1.24 0 0.1
1.26 0 0.1
1.28 0 0.1
1.3 0 0.1
1.32 0 0.1
1.34 0 0.1
1.36 0 0.1
1.38 0 0.1
1.4 0 0.1
1.42 0 0.1
1.44 0 0.1
1.46 0 0.1
1.48 0 0.1
1.5 0 0.1
1.52 0 0.1
1.54 0 0.1
1.56 0 0.1
1.58 0 0.1
1.6 0 0.1
1.62 0 0.1
1.64 0 0.1
1.66 0 0.1
1.68 0 0.1
1.7 0 0.1
1.72 0 0.1
1.74 0 0.1
1.76 0 0.1
1.78 0 0.1
1.8 0 0.1
1.82 0 0.1
1.84 0 0.1
1.86 0 0.1
1.88 0 0.1
1.9 0 0.1
1.92 0 0.1
1.94 0 0.1
1.96 0 0.1
1.98 0 0.1
2 0.0199133 0.1
2 0.0414128 0.1
2 0.0646247 0.1
2 0.0896856 0.1
2 0.116743 0.1
2 0.145955 0.1
2 0.177494 0.1
2 0.211545 0.1
2 0.248309 0.1
2 0.288001 0.1
2 0.330854 0.1
2 0.377121 0.1
2 0.427073 0.1
2 0.481004 0.1
2 0.539231 0.1
2 0.602096 0.1
2 0.669968 0.1
2 0.743247 0.1
2 0.822362 0.1
2 0.907779 0.1
1.9 1 0.1
1.8 1 0.1
1.7 1 0.1
1.6 1 0.1
1.5 1 0.1
1.4 1 0.1
1.3 1 0.1
1.2 1 0.1
1.1 1 0.1
1 1 0.1
0.9 1 0.1
0.8 1 0.1
0.7 1 0.1
0.6 1 0.1
0.5 1 0.1
0.4 1 0.1
0.3 1 0.1
0.2 1 0.1
0.1 1 0.1
3.69793e-12 1 0.1
-0.1 1 0.1
-0.2 1 0.1
-0.3 1 0.1
-0.4 1 0.1
-0.5 1 0.1
-0.6 1 0.1
-0.7 1 0.1
-0.8 1 0.1
-0.9 1 0.1
1.08758 0.0158154 0
-0.0898513 0.0203294 0
0.0966181 0.0537636 0
0.90205 0.0548881 0
1.21055 0.0202058 0
-0.209811 0.0159577 0
1.3305 0.0176902 0
-0.33 0.0173205 0
1.45324 0.0148141 0
-0.448654 0.0159854 0
1.56842 0.0191785 0
-0.569936 0.0166364 0
0.193292 0.0805369 0
0.805051 0.0813623 0
0.709096 0.100353 0
0.288591 0.0996656 0
0.390184 0.111848 0
0.61033 0.111742 0
0.488809 0.116278 0
1.67175 0.0169692 0
-0.67 0.0169809 0
-0.955017 0.454039 0
1.95131 0.44569 0
1.74981 0.0168753 0
-0.75 0.0173205 0
-0.968032 0.266538 0
1.96871 0.266267 0
0.978232 0.0305687 0
0.0208675 0.026451 0
-0.150454 0.91842 0
1.13854 0.907437 0
1.45012 0.904365 0
-0.445923 0.908903 0
-0.853423 0.0157019 0
1.84881 0.016319 0
0.853689 0.915652 0
0.153944 0.912184 0
0.545151 0.914125 0
0.549913 0.115152 0
1.51 0.0173205 0
-0.506989 0.01651 0
1.27 0.0173205 0
1.14976 0.0173333 0
-0.268171 0.0206442 0
-0.150501 0.0153244 0
-0.391384 0.0153993 0
1.38886 0.0171544 0
-0.973694 0.161724 0
1.97441 0.162392 0
-0.945221 0.633523 0
1.94544 0.63312 0
1.91008 0.0186068 0
-0.91 0.0169616 0
-0.030664 0.0194327 0
1.03074 0.0165456 0
-0.966065 0.353575 0
1.96128 0.359765 0
1.93879 0.781254 0
-0.937057 0.781882 0
-0.980746 0.080709 0
1.9772 0.0760699 0
0.058735 0.0409372 0
0.355202 0.913001 0
0.86356 0.0661005 0
0.134223 0.0651111 0
0.941972 0.0397386 0
-0.653034 0.915003 0
1.65328 0.904589 0
0.770126 0.0881325 0
0.232946 0.0902008 0
0.330582 0.105648 0
0.670612 0.108365 0
0.428707 0.116145 0
1.80993 0.016629 0
-0.810168 0.0172178 0
-0.71 0.0173205 0
1.63047 0.0175504 0
1.70842 0.0169661 0
-0.628824 0.0181787 0
-0.949815 0.0133898 0
1.95 0.0173205 0
1.85542 0.907891 0
-0.85 0.913397 0
1.9833 0.0307692 0
-0.983315 0.0309709 0
-0.750025 0.916468 0
-0.701107 0.836904 0
-0.607741 0.836428 0
-0.656448 0.759827 0
-0.572936 0.758144 0
-0.61411 0.691195 0
-0.539534 0.689068 0
-0.578542 0.626111 0
-0.507461 0.624216 0
-0.544001 0.566638 0
-0.477696 0.564279 0
-0.511582 0.51001 0
-0.451689 0.507147 0
-0.481834 0.457732 0
-0.426137 0.454624 0
-0.453236 0.407539 0
-0.398845 0.406233 0
-0.507958 0.409496 0
-0.368427 0.460177 0
-0.344602 0.405209 0
-0.315696 0.447824 0
-0.294128 0.402169 0
-0.262844 0.444518 0
-0.241968 0.388746 0
-0.209878 0.439557 0
-0.185184 0.391135 0
-0.156687 0.437338 0
-0.133719 0.390776 0
-0.104405 0.434306 0
-0.0818745 0.388334 0
-0.0528785 0.431165 0
-0.0305984 0.385639 0
-0.00180552 0.427863 0
0.0194564 0.382608 0
0.0485809 0.42449 0
0.0701962 0.37973 0
0.0985483 0.421145 0
0.119893 0.377339 0
0.147837 0.417911 0
0.172552 0.36751 0
0.197018 0.412597 0
0.221203 0.37141 0
0.24512 0.409646 0
-0.48178 0.364657 0
-0.531053 0.364782 0
-0.0599102 0.344151 0
-0.324909 0.359566 0
0.266181 0.368462 0
0.292132 0.407649 0
0.311992 0.365779 0
0.338918 0.404821 0
0.357567 0.355909 0
0.384723 0.40053 0
0.404675 0.359681 0
0.430617 0.398558 0
0.450457 0.35827 0
0.474237 0.395182 0
0.496746 0.34898 0
0.520548 0.397931 0
0.542071 0.353121 0
0.566011 0.389914 0
0.585061 0.350856 0
0.609352 0.38696 0
0.629069 0.348168 0
0.655979 0.391217 0
0.67472 0.346182 0
0.699346 0.381414 0
0.719333 0.341965 0
0.743718 0.377547 0
0.764028 0.339036 0
0.788201 0.373582 0
0.807659 0.336101 0
0.832821 0.372249 0
0.852309 0.334017 0
0.877785 0.370339 0
0.897875 0.331141 0
0.922904 0.366281 0
0.943173 0.327335 0
0.968282 0.363358 0
0.989029 0.324222 0
1.01391 0.361511 0
1.03465 0.321428 0
1.05949 0.358447 0
1.08389 0.312052 0
1.10575 0.355104 0
1.12889 0.31562 0
1.15067 0.353235 0
1.17157 0.312819 0
1.19626 0.349369 0
1.21618 0.309863 0
1.2416 0.346914 0
1.26131 0.30715 0
1.28691 0.344312 0
1.30571 0.303752 0
1.33144 0.341222 0
1.35018 0.300911 0
1.3758 0.338308 0
1.39501 0.298931 0
1.42015 0.335235 0
1.43904 0.296349 0
1.46355 0.330194 0
1.48256 0.293347 0
1.50685 0.326967 0
1.52589 0.29055 0
1.54996 0.325305 0
1.56909 0.287929 0
[...]
CELL_DATA 3694
SCALARS rho float
LOOKUP_TABLE default
0.73568
0.671613
0.803793
0.813386
0.826679
0.805114
0.791668
0.800096
0.810315
0.80275
0.817631
0.817624
0.840272
0.789423
0.80087
0.751166
0.803268
0.802981
0.760726
0.85003
0.817451
0.823273
0.699031
0.803379
0.695638
0.839195
0.720174
0.806354
0.836932
0.798675
0.798858
0.718461
0.803512
0.82465
0.802867
0.797705
0.837228
0.823061
0.824976
0.778036
0.804663
0.817321
0.834288
0.825225
0.805056
0.813272
0.800951
0.671572
0.679999
0.722107
0.802058
0.802926
0.846808
0.802047
0.633341
0.838129
0.802693
0.819241
0.832497
0.754445
0.796273
0.815594
0.842173
0.799713
0.842719
0.831
0.807645
0.813956
0.736381
0.85833
0.803144
0.807573
0.823296
0.803231
0.824671
0.802903
0.814073
0.799723
0.814235
0.802743
0.715346
0.818358
0.802308
0.776654
0.81014
0.799673
0.818589
0.716375
0.735769
0.825216
0.799455
0.80243
0.820482
0.815663
0.675565
0.806521
0.723552
0.818103
0.81268
0.840042
0.81502
0.763055
0.717882
0.810109
0.80958
0.815589
0.818084
0.807018
0.7163
0.814665
0.799265
0.723789
0.72031
0.823624
0.867891
0.802245
0.800022
0.812481
0.803133
0.802145
0.765682
0.822315
0.819951
0.770217
0.703742
0.758834
0.817733
0.777361
0.843586
0.701895
0.767192
0.800312
0.807919
0.777794
0.801063
0.795844
0.805468
0.802409
0.798086
0.814946
0.814104
0.71134
0.817276
0.81403
0.75794
0.673571
0.677746
0.798216
0.816413
0.813072
0.745232
0.802711
0.558709
0.77889
0.688679
0.76396
0.71408
0.784035
0.607875
0.793093
0.837327
0.645635
0.782212
0.737524
0.844238
0.556802
0.817219
0.800499
0.802996
0.674024
0.801552
0.663693
0.857858
0.544273
0.799888
0.637809
0.872284
0.833509
0.820913
0.745036
0.814432
0.721238
0.827169
0.737153
0.649374
0.803108
0.678094
0.823662
0.801687
0.851046
0.791732
0.702644
0.815298
0.798494
0.742825
0.852784
0.811365
0.848865
0.737051
0.743825
0.771155
0.794079
0.831922
0.834058
0.816795
0.814562
0.670334
0.80463
0.727761
0.803202
0.710676
0.797597
0.795672
0.801498
0.825974
0.764218
0.830637
0.749894
0.825917
0.820126
0.816372
0.853007
0.829336
0.70515
0.827314
0.683599
0.78787
0.810319
0.851212
0.830392
0.808649
0.794416
0.74617
0.817983
0.836866
0.817802
0.716002
0.800129
0.69744
0.792593
0.79553
0.810342
0.639945
0.807632
0.758251
0.797799
0.803103
0.759659
0.815686
0.865615
0.784059
0.690777
0.804373
0.801778
0.648028
0.792709
0.778121
0.80235
0.839058
0.815314
0.609639
0.815682
0.809985
0.797251
0.815933
0.802675
0.815306
0.814788
0.835461
0.756654
0.801888
0.835063
0.810555
0.803142
0.796151
0.815513
0.728192
0.589116
0.817239
0.829447
0.820751
0.80428
0.684112
0.81593
0.815676
0.817083
0.71516
0.79749
0.815614
0.548638
0.802837
0.869125
0.680822
0.757053
0.838855
0.827187
0.815346
0.705787
0.809407
0.815612
0.803838
0.801794
0.812053
0.83675
0.817388
0.767448
0.807022
0.803064
0.647416
0.821353
0.828141
0.672891
0.791411
0.819238
0.820696
0.679944
0.674632
0.821766
0.824389
0.809556
0.733057
0.707712
0.714417
0.733973
0.820662
0.777188
0.804182
0.733804
0.741971
0.822835
0.810594
0.819225
0.770303
0.815684
0.814296
0.817757
0.816383
0.802766
0.807628
0.804015
0.690189
0.802729
0.812832
0.697572
0.8073
0.805129
0.81981
0.785949
0.805901
0.791893
0.815488
0.821343
0.820545
0.798381
0.684539
0.712911
0.79944
0.81086
0.625353
0.803899
0.807625
0.817235
0.744033
0.804265
0.816774
0.812004
0.818221
0.805057
0.797353
0.764944
0.804483
0.843714
0.82012
0.705634
0.803758
0.704008
0.704003
0.8031
0.615858
0.770849
0.784879
0.807897
0.813934
0.825551
0.817524
0.812975
0.820556
0.828535
0.802841
0.765083
0.809711
0.660398
0.819619
0.757707
0.728763
0.690939
0.814437
0.854074
0.819645
0.808903
0.822037
0.815833
0.786987
0.758904
0.810024
0.693919
0.79129
0.843702
0.826434
0.800835
0.864125
0.813361
0.816899
0.817971
0.830901
0.632083
0.799074
0.732718
0.798132
0.734779
0.819306
0.808654
0.787641
0.680527
0.815356
0.829938
0.812347
0.802989
0.80379
0.824692
0.803879
0.713001
0.790306
0.803111
0.815296
0.8144
0.813049
0.871686
0.828114
0.809403
0.832378
0.683292
0.823761
0.83786
0.816666
0.62886
0.815814
0.809249
0.845691
0.821736
0.802955
0.594077
0.810156
0.697736
0.806124
0.802899
0.812351
0.814067
0.825137
0.805092
0.811169
0.816474
0.725865
0.863037
0.80201
0.850353
0.816837
0.577187
0.803919
0.796746
0.812056
0.818091
0.655304
0.802844
0.809657
0.813024
0.807131
0.793952
0.816112
0.817737
0.796616
0.804108
0.82181
0.83706
0.731817
0.806304
0.80984
0.81357
0.683331
0.805319
0.816401
0.799446
0.804188
0.5312
0.833214
0.764392
0.815248
0.818166
0.83116
0.846406
0.816559
0.812079
0.717872
0.799158
0.85248
0.808904
0.710676
0.800341
0.802632
0.872273
0.845502
0.819473
0.802095
0.80965
0.755973
0.815908
0.813947
0.586918
0.802743
0.731033
0.750274
0.80322
0.811857
0.781026
0.821345
0.815776
0.838122
0.816382
0.800521
0.809348
0.738307
0.737559
0.804202
0.8085
0.82144
0.802373
0.751853
0.69059
0.814086
0.815269
0.813956
0.596595
0.814185
0.817004
0.825079
0.803112
0.809071
0.820035
0.811804
0.839691
0.803022
0.812666
0.824038
0.816109
0.818066
0.821805
0.691141
0.784298
0.795214
0.803201
0.847823
0.802094
0.803081
0.63644
0.811191
0.81401
0.810849
0.819471
0.80582
0.813635
0.727723
0.843851
0.706478
0.800601
0.817789
0.807273
0.659027
0.678687
0.815544
0.805717
0.804386
0.785928
0.801568
0.829582
0.813957
0.80504
0.802288
0.812749
0.620897
0.812868
0.803202
0.701321
0.815969
0.623076
0.784554
0.815991
0.837966
0.806383
0.813002
0.792955
0.795936
0.804196
0.801476
0.812511
0.811207
0.80946
0.803276
0.75727
0.80412
0.813045
0.812479
0.816573
0.812016
0.816415
0.815493
0.834451
0.739532
0.806783
0.816148
0.802611
0.545279
0.684893
0.811443
0.813803
0.815742
0.780394
0.808547
0.812972
0.803344
0.799982
0.802879
0.820242
0.821086
0.815564
0.785371
0.808559
0.806139
0.573512
0.774266
0.758085
0.806792
0.736202
0.679012
0.797899
0.767861
0.828059
0.815557
0.815274
0.80837
0.542983
0.815756
0.585455
0.698826
0.825041
0.869775
0.742654
0.817035
0.853062
0.696115
0.815866
0.809015
0.81496
0.807232
0.657398
0.854744
0.737164
0.731566
0.803375
0.80465
0.799766
0.833342
0.815752
0.692155
0.815811
0.800335
0.694683
0.839792
0.798456
0.623618
0.773244
0.816189
0.808369
0.815385
0.784393
0.726865
0.770806
0.836982
0.689425
0.816461
0.817706
0.82729
0.765751
0.822468
0.693435
0.804658
0.661686
0.701482
0.80082
0.822885
0.789023
0.815188
0.815912
0.815763
0.81456
0.579729
0.802605
0.815614
0.743903
0.810106
0.815941
0.812302
0.714353
0.689664
0.741878
0.62319
0.807234
0.682839
0.816177
0.801993
0.815575
0.836924
0.687185
0.804845
0.820174
0.832666
0.739125
0.782331
0.764843
0.773498
0.812771
0.577246
0.674341
0.81585
0.80541
0.812738
0.804641
0.714246
0.780709
0.726104
0.76048
0.799927
0.832249
0.812351
0.692069
0.823791
0.818171
0.811427
0.688307
0.690241
0.682987
0.872234
0.81639
0.817047
0.610835
0.712115
0.642559
0.803627
0.800547
0.672814
0.812103
0.824714
0.750178
0.799841
0.731064
0.81467
0.693247
0.815355
0.810465
0.801937
0.803142
0.825784
0.744869
0.816273
0.815595
0.780573
0.558935
0.816518
0.811422
0.758608
0.81444
0.747248
0.803154
0.826733
0.664797
0.8186
0.802764
0.809907
0.58622
0.647094
0.73596
0.806465
0.812581
0.811323
0.821482
0.814981
0.81647
0.705184
0.802022
0.813619
0.826608
0.704258
0.727875
0.812764
0.812238
0.697437
0.814311
0.774892
0.700229
0.811943
0.696765
0.804688
0.663531
0.802919
0.72972
0.668592
0.811658
0.786343
0.744908
0.632353
0.840335
0.820991
0.815363
0.770839
0.814779
0.800307
0.786529
0.800202
0.80177
0.815591
0.733156
0.809749
0.800276
0.819231
0.600255
0.80164
0.813394
0.814341
0.812073
0.812621
0.746975
0.803393
0.76439
0.751491
0.819059
0.649544
0.818991
0.818123
0.803134
0.816045
0.817272
0.722453
0.768387
0.822518
0.785822
0.803814
0.816488
0.875132
0.818425
0.798808
0.817309
0.815879
0.794102
0.818948
0.817308
0.773634
0.70072
0.841486
0.797
0.803229
0.822669
0.781565
0.818317
0.824721
0.819118
0.817376
0.87065
0.803156
0.805077
0.818727
0.803148
0.815941
0.807032
0.737012
0.815856
0.820154
0.753727
0.710702
0.815731
0.843315
0.82239
0.65811
0.822182
0.774004
0.808817
0.802152
0.730525
0.803154
0.79899
0.815591
0.817338
0.695912
0.706608
0.802406
0.787609
0.801908
0.825088
0.721354
0.815582
0.80262
0.80051
0.823651
0.815973
0.714554
0.81617
0.763634
0.802522
0.83252
0.80347
0.773913
0.797838
0.794555
0.815626
0.610463
0.815574
0.692517
0.682229
0.803568
0.819986
0.815601
0.802686
0.815661
0.808816
0.725383
0.787735
0.85732
0.803073
0.833732
0.807481
0.547167
0.762093
0.780476
0.649865
0.738701
0.581033
0.82038
0.813803
0.814338
0.802523
0.766856
0.685976
0.765127
0.752268
0.782296
0.815543
0.844842
0.819827
0.805905
0.81921
0.823987
0.802849
0.80784
0.706935
0.803295
0.756818
0.80875
0.798197
0.752435
0.822675
0.788611
0.80367
0.790356
0.841123
0.728511
0.801089
0.799776
0.804972
0.618608
0.816007
0.815892
0.821974
0.634401
0.815778
0.815762
0.798832
0.803937
0.793363
0.775883
0.806562
0.795106
0.816467
0.752961
0.804284
0.87535
0.763302
0.748716
0.807458
0.783976
0.842855
0.80039
0.780193
0.815846
0.798294
0.792671
0.808117
0.825941
0.836029
0.799815
0.576019
0.820846
0.828575
0.772224
0.831076
0.838462
0.823242
0.826622
0.80733
0.833216
0.82719
0.783819
0.80918
0.811844
0.806794
0.823089
0.803449
0.827267
0.792966
0.803502
0.805777
0.727635
0.807139
0.563391
0.818401
0.825676
0.828953
0.806026
0.81826
0.824278
0.819442
0.821213
0.839059
0.833411
0.788432
0.800532
0.822095
0.815835
0.817408
0.800487
0.806446
0.865686
0.820446
0.847588
0.815565
0.800852
0.82456
0.799775
0.83333
0.813894
0.815735
0.805346
0.727734
0.802997
0.804588
0.815575
0.803378
0.802396
0.822055
0.804551
0.804239
0.778144
0.819721
0.718262
0.81431
0.780885
0.759319
0.803626
0.813329
0.818837
0.716413
0.819736
0.815236
0.826468
0.817507
0.790061
0.816762
0.8472
0.833144
0.815254
0.811779
0.801704
0.744534
0.679819
0.815649
0.820522
0.771455
0.814808
0.807854
0.812236
0.805528
0.798788
0.776322
0.802458
0.800239
0.841654
0.817822
0.81152
0.806267
0.604622
0.732222
0.802211
0.783857
0.804214
0.816123
0.806015
0.816547
0.780012
0.815702
0.804899
0.811128
0.803835
0.81825
0.803186
0.816344
0.811317
0.816279
0.813241
0.718363
0.81487
0.816167
0.598528
0.81547
0.796823
0.802983
0.858918
0.818695
0.811135
0.872563
0.815755
0.815846
0.817279
0.819228
0.815665
0.764502
0.830157
0.801518
0.803207
0.814917
0.815732
0.817166
0.815623
0.813815
0.822918
0.803961
0.812902
0.809121
0.815308
0.819969
0.815653
0.81219
0.819638
0.808897
0.69318
0.660828
0.802683
0.808745
0.803366
0.811702
0.81875
0.817484
0.80293
0.804054
0.80075
0.800946
0.817292
0.84453
0.818939
0.811641
0.818863
0.818566
0.84602
0.817855
0.821136
0.785743
0.816202
0.806791
0.801523
0.792092
0.811157
0.818881
0.815481
0.815609
0.835817
0.806483
0.813152
0.817001
0.821548
0.803526
0.803267
0.805519
0.811323
0.815579
0.801638
0.803424
0.817323
0.822471
0.800972
0.636996
0.804262
0.797169
0.817342
0.798569
0.802752
0.748727
0.841058
0.802738
0.799901
0.835055
0.830021
0.810255
0.826524
0.800615
0.818244
0.817763
0.819082
0.80361
0.818671
0.729508
0.822646
0.811466
0.800277
0.813113
0.820873
0.799136
0.804009
0.782814
0.815145
0.815865
0.815966
0.818872
0.806423
0.81747
0.816212
0.826261
0.821922
0.837903
0.805989
0.69583
0.8183
0.840751
0.82012
0.804672
0.80016
0.803425
0.816568
0.814136
0.816394
0.743915
0.739229
0.800897
0.802947
0.816074
0.816915
0.799134
0.654903
0.708873
0.80801
0.768831
0.816277
0.703773
0.80304
0.728595
0.803185
0.820021
0.803114
0.817687
0.813174
0.798566
0.80862
0.793867
0.829662
0.81599
0.801347
0.803532
0.816228
0.821958
0.749981
0.822907
0.803739
0.783019
0.81587
0.803853
0.810608
0.815127
0.815461
0.835519
0.793121
0.799139
0.815753
0.759321
0.806675
0.815259
0.800988
0.816327
0.841048
0.802329
0.843399
0.808951
0.790639
0.812205
0.802615
0.851825
0.788369
0.803142
0.816409
0.831862
0.808356
0.814106
0.816106
0.802862
0.80268
0.825863
0.782982
0.814668
0.815714
0.647578
0.815912
0.713152
0.817568
0.83843
0.824753
0.803876
0.814974
0.815625
0.726259
0.815198
0.801018
0.801603
0.800968
0.816084
0.863954
0.801313
0.801112
0.785513
0.84085
0.827835
0.819876
0.813562
0.747186
0.803782
0.803309
0.731227
0.799659
0.714889
0.81079
0.800912
0.677136
0.880288
0.702923
0.772101
0.801506
0.744004
0.808348
0.799087
0.803019
0.661212
0.796743
0.784161
0.799162
0.73015
0.818991
0.822718
0.884587
0.809418
0.831341
0.646049
0.80013
0.787137
0.745343
0.752084
0.769583
0.707175
0.803099
0.799485
0.80317
0.764111
0.628351
0.811424
0.61438
0.821324
0.822948
0.811444
0.736729
0.812251
0.795783
0.819346
0.782903
0.807495
0.797131
0.810289
0.717171
0.801541
0.723031
0.801386
0.798929
0.687962
0.803685
0.815566
0.815618
0.803075
0.761572
0.815344
0.731543
0.69137
0.802326
0.815624
0.874513
0.815537
0.814794
0.88062
0.865527
0.831024
0.716633
0.802023
0.811839
0.821395
0.798291
0.682913
0.723149
0.678511
0.802352
0.702522
0.768825
0.799519
0.620325
0.689171
0.83623
0.773975
0.745904
0.830676
0.759672
0.769025
0.649471
0.73206
0.785443
0.819866
0.869587
0.837936
0.815876
0.794894
0.799785
0.716639
0.815765
0.69472
0.796861
0.815621
0.783338
0.762903
0.801915
0.783128
0.802203
0.800819
0.811974
0.810972
0.867237
0.584207
0.543194
0.802428
0.807217
0.699339
0.810121
0.802816
0.837679
0.803472
0.802375
0.569944
0.56159
0.808232
0.812642
0.815695
0.728017
0.803137
0.810726
0.685766
0.811672
0.802698
0.814196
0.803156
0.800743
0.802252
0.814668
0.802924
0.816838
0.803258
0.862193
0.815048
0.802503
0.720764
0.671761
0.815662
0.588093
0.812922
0.810122
0.836042
0.814092
0.803072
0.81069
0.813668
0.813363
0.81539
0.801645
0.853811
0.856609
0.802445
0.657621
0.808691
0.822221
0.799425
0.803151
0.820176
0.735355
0.80322
0.825368
0.821492
0.815882
0.815516
0.767007
0.745124
0.801016
0.83417
0.803027
0.814494
0.804669
0.803886
0.80519
0.814324
0.808958
0.798933
0.806833
0.806177
0.824528
0.806648
0.80625
0.817758
0.806995
0.803348
0.813385
0.802937
0.802817
0.805781
0.807961
0.813527
0.773919
0.805309
0.802685
0.815577
0.799837
0.803743
0.806816
0.832007
0.805013
0.653001
0.800863
0.815598
0.804645
0.81468
0.763445
0.815386
0.751349
0.803652
0.802211
0.804049
0.818943
0.851177
0.804352
0.803233
0.746623
0.829757
0.815521
0.820571
0.824768
0.81498
0.737788
0.818291
0.723865
0.801068
0.827757
0.802418
0.702521
0.826009
0.814927
0.816587
0.824283
0.815857
0.773568
0.817355
0.652314
0.712631
0.815617
0.822779
0.679279
0.819481
0.659698
0.8216
0.806987
0.816878
0.803153
0.805789
0.815081
0.831693
0.824968
0.671371
0.813504
0.842203
0.781641
0.846445
0.800258
0.707951
0.838687
0.819702
0.835738
0.69095
0.686896
0.833075
0.661864
0.830795
0.81561
0.828779
0.80626
0.827074
0.78781
0.825582
0.824201
0.70944
0.865759
0.823018
0.822018
0.823508
0.759776
0.802847
0.529033
0.8035
0.821151
0.813976
0.804722
0.826123
0.815625
0.79826
0.820389
0.802981
0.684257
0.792491
0.834181
0.814897
0.717406
0.799637
0.821488
0.579081
0.81524
0.816044
0.802619
0.809917
0.727414
0.818127
0.803011
0.803476
0.796022
0.794387
0.797909
0.794574
0.803262
0.812863
0.819273
0.814531
0.574831
0.892983
0.708125
0.797916
0.740616
0.79146
0.815589
0.816143
0.816041
0.606473
0.819286
0.817179
0.803981
0.818258
0.83666
0.839466
0.782916
0.79846
0.79951
0.72684
0.753544
0.81575
0.764472
0.815164
0.81939
0.815301
0.813497
0.801942
0.775912
0.81207
0.816536
0.72916
0.810626
0.816328
0.818474
0.807875
0.809511
0.765408
0.815136
0.808238
0.80317
0.807485
0.618587
0.806555
0.804402
0.805979
0.821625
0.845489
0.804773
0.774918
0.805344
0.771646
0.820594
0.806224
0.813234
0.815605
0.850076
0.803407
0.744658
0.819752
0.81575
0.727911
0.801162
0.816672
0.758609
0.813107
0.571632
0.806661
0.686582
0.801465
0.81134
0.812899
0.817622
0.804238
0.816046
0.818084
0.801202
0.804603
0.844404
0.81658
0.796279
0.816554
0.802256
0.801821
0.800438
0.801421
0.807481
0.815139
0.801781
0.770696
0.818789
0.813151
0.808877
0.815614
0.588881
0.803351
0.813656
0.815783
0.78801
0.749118
0.718173
0.812962
0.815432
0.826219
0.789885
0.604976
0.771984
0.642958
0.817152
0.744817
0.812675
0.830311
0.697854
0.799885
0.834082
0.750549
0.800618
0.803157
0.815973
0.802583
0.699696
0.800848
0.552398
0.801947
0.80252
0.802221
0.601304
0.802937
0.803457
0.803192
0.729189
0.738094
0.803435
0.776877
0.8161
0.722893
0.707515
0.81553
0.801362
0.753169
0.854226
0.814344
0.812735
0.670501
0.802813
0.800685
0.800621
0.802493
0.658232
0.803295
0.815784
0.655641
0.686427
0.805785
0.790802
0.815654
0.823358
0.815446
0.81566
0.816844
0.803668
0.815709
0.815376
0.813628
0.829295
0.802689
0.801918
0.810494
0.728667
0.809584
0.815231
0.862847
0.811235
0.639455
0.775313
0.802269
0.776328
0.817098
0.812229
0.830183
0.81421
0.864651
0.802213
0.815015
0.595915
0.815771
0.834007
0.802919
0.814787
0.62662
0.81576
0.802704
0.817057
0.802272
0.817894
0.816375
0.754417
0.803584
0.803126
0.835278
0.861988
0.819661
0.816525
0.724277
0.742748
0.80255
0.803084
0.812189
0.818422
0.799765
0.802914
0.819821
0.806895
0.807572
0.738951
0.802741
0.817847
0.814278
0.768746
0.760297
0.812102
0.79638
0.857117
0.719448
0.834758
0.811372
0.710169
0.799731
0.814871
0.787367
0.800842
0.799626
0.815505
0.777846
0.774352
0.813842
0.696107
0.798912
0.766125
0.815383
0.817658
0.80211
0.788021
0.739277
0.752991
0.774385
0.815124
0.819301
0.806152
0.668537
0.802487
0.796153
0.777808
0.809637
0.813392
0.799585
0.803406
0.637395
0.804241
0.804851
0.85147
0.803729
0.809215
0.833512
0.805519
0.810521
0.852369
0.615696
0.804062
0.816582
0.805422
0.805035
0.805723
0.8046
0.804702
0.804219
0.805805
0.80653
0.725508
0.805695
0.807207
0.807092
0.8155
0.808321
0.818806
0.803111
0.803528
0.815126
0.815284
0.810437
0.80334
0.816119
0.813325
0.810112
0.816441
0.709501
0.814374
0.831737
0.815407
0.854429
0.750239
0.808456
0.815556
0.801142
0.617798
0.80327
0.772767
0.822219
0.628459
0.816036
0.829771
0.815171
0.812177
0.802173
0.827083
0.819427
0.803687
0.76523
0.817468
0.758614
0.550225
0.814872
0.692752
0.696386
0.820291
0.82791
0.827748
0.817081
0.847713
0.581108
0.876659
0.805246
0.826225
0.824571
0.813389
0.683464
0.815395
0.823046
0.816809
0.801345
0.773614
0.822179
0.568446
0.81345
0.843387
0.803151
0.839847
0.821821
0.803264
0.671329
0.843359
0.820777
0.836677
0.801053
0.814171
0.803057
0.83406
0.802875
0.814113
0.831648
0.829515
0.821955
0.824619
0.83086
0.738622
0.664193
0.5695
0.827681
0.826168
0.767724
0.757129
0.806798
0.824748
0.846734
0.594271
0.823474
0.822392
0.821489
0.819978
0.803948
0.820733
0.661368
0.745253
0.820696
0.797729
0.870037
0.890118
0.776673
0.804347
0.670484
0.835517
0.73201
0.720635
0.819106
0.801659
0.783629
0.665179
0.802225
0.815577
0.788992
0.713903
0.800924
0.81714
0.798003
0.680848
0.823684
0.79283
0.816205
0.833535
0.815153
0.796155
0.816627
0.816398
0.78588
0.804083
0.71275
0.840589
0.793143
0.811506
0.782134
0.804478
0.699323
0.800928
0.813506
0.812147
0.810995
0.809483
0.808391
0.807643
0.806021
0.804914
0.806825
0.726903
0.805463
0.801514
0.795963
0.80334
0.844393
0.716928
0.803216
0.776193
0.88396
0.85435
0.798045
0.724932
0.803507
0.797617
0.720491
0.803352
0.801878
0.735423
0.803674
0.790434
0.797637
0.801263
0.737901
0.780259
0.804868
0.748184
0.764485
0.770068
0.801582
0.815138
0.80863
0.759408
0.751507
0.799555
0.81422
0.803324
0.793278
0.801201
0.928467
0.860632
0.818094
0.815468
0.723035
0.844531
0.748116
0.826135
0.816744
0.898094
0.815621
0.797482
0.590619
0.815635
0.797597
0.815655
0.798023
0.84569
0.526526
0.833092
0.801571
0.805737
0.804803
0.803925
0.855868
0.801388
0.817799
0.702307
0.666155
0.667574
0.815686
0.508175
0.797983
0.722908
0.841948
0.814786
0.560436
0.802364
0.815066
0.814749
0.719668
0.801882
0.527124
0.797539
0.815796
0.79766
0.802777
0.797902
0.815945
0.834098
0.803253
0.79861
0.81631
0.798877
0.816451
0.814228
0.799167
0.816613
0.814229
0.816804
0.799273
0.817019
0.680384
0.799468
0.81726
0.803078
0.799656
0.817505
0.699347
0.815604
0.798506
0.81561
0.798446
0.810448
0.838403
0.861433
0.801061
0.800736
0.81842
0.815443
0.800381
0.800007
0.863446
0.81252
0.8181
0.810901
0.850045
0.828839
0.817069
0.825826
0.846431
0.815552
0.801859
0.819633
0.811886
0.802288
0.815409
0.800282
0.807796