# vtk DataFile Version 1.0
unstructured grid
ascii
DATASET UNSTRUCTURED_GRID
points 3920 float
-1 0 0
-1 1 0
2 0 0
2 1 0
0 0 0
1 0 0
-1 1 0.1
-1 0 0.1
0 0 0.1
1 0 0.1
2 0 0.1
2 1 0.1
-0.98 0 0
-0.96 0 0
-0.94 0 0
-0.92 0 0
-0.9 0 0
-0.88 0 0
-0.86 0 0
-0.84 0 0
-0.82 0 0
-0.8 0 0
-0.78 0 0
-0.76 0 0
-0.74 0 0
-0.72 0 0
-0.7 0 0
-0.68 0 0
-0.66 0 0
-0.64 0 0
-0.62 0 0
-0.6 0 0
-0.58 0 0
-0.56 0 0
-0.54 0 0
-0.52 0 0
-0.5 0 0
-0.48 0 0
-0.46 0 0
-0.44 0 0
-0.42 0 0
-0.4 0 0
-0.38 0 0
-0.36 0 0
-0.34 0 0
-0.32 0 0
-0.3 0 0
-0.28 0 0
-0.26 0 0
-0.24 0 0
-0.22 0 0
-0.2 0 0
-0.18 0 0
-0.16 0 0
-0.14 0 0
-0.12 0 0
-0.1 0 0
-0.08 0 0
-0.06 0 0
-0.04 0 0
-0.02 0 0
1.02 0 0
1.04 0 0
1.06 0 0
1.08 0 0
1.1 0 0
1.12 0 0
1.14 0 0
1.16 0 0
1.18 0 0
1.2 0 0
1.22 0 0
1.24 0 0
1.26 0 0
1.28 0 0
1.3 0 0
1.32 0 0
1.34 0 0
1.36 0 0
1.38 0 0
1.4 0 0
1.42 0 0
1.44 0 0
1.46 0 0
1.48 0 0
1.5 0 0
1.52 0 0
1.54 0 0
1.56 0 0
1.58 0 0
1.6 0 0
1.62 0 0
1.64 0 0
1.66 0 0
1.68 0 0
1.7 0 0
1.72 0 0
1.74 0 0
1.76 0 0
1.78 0 0
1.8 0 0
1.82 0 0
1.84 0 0
1.86 0 0
1.88 0 0
1.9 0 0
1.92 0 0
1.94 0 0
1.96 0 0
1.98 0 0
2 0.0199133 0
2 0.0414128 0
2 0.0646247 0
2 0.0896856 0
2 0.116743 0
2 0.145955 0
2 0.177494 0
2 0.211545 0
2 0.248309 0
2 0.288001 0
2 0.330854 0
2 0.377121 0
2 0.427073 0
2 0.481004 0
2 0.539231 0
2 0.602096 0
2 0.669968 0
2 0.743247 0
2 0.822362 0
2 0.907779 0
1.9 1 0
1.8 1 0
1.7 1 0
1.6 1 0
1.5 1 0
1.4 1 0
1.3 1 0
1.2 1 0
1.1 1 0
1 1 0
0.9 1 0
0.8 1 0
0.7 1 0
0.6 1 0
0.5 1 0
0.4 1 0
0.3 1 0
0.2 1 0
0.1 1 0
3.69793e-12 1 0
-0.1 1 0
-0.2 1 0
-0.3 1 0
-0.4 1 0
-0.5 1 0
-0.6 1 0
-0.7 1 0
-0.8 1 0
-0.9 1 0
-1 0.907779 0
-1 0.822362 0
-1 0.743247 0
-1 0.669968 0
-1 0.602096 0
-1 0.539231 0
-1 0.481004 0
-1 0.427073 0
-1 0.377121 0
-1 0.330854 0
-1 0.288001 0
-1 0.248309 0
-1 0.211545 0
-1 0.177494 0
-1 0.145955 0
-1 0.116743 0
-1 0.0896856 0
-1 0.0646247 0
-1 0.0414128 0
-1 0.0199133 0
0.0182781 0.00745351 0
0.0366672 0.0146286 0
0.0551632 0.0215237 0
0.0737617 0.0281372 0
0.0924585 0.0344675 0
0.111249 0.0405131 0
0.13013 0.0462728 0
0.149095 0.0517451 0
0.168142 0.0569289 0
0.187265 0.0618228 0
0.20646 0.0664258 0
0.225723 0.0707368 0
0.245049 0.0747549 0
0.264434 0.078479 0
0.283873 0.0819084 0
0.303362 0.0850422 0
0.322896 0.0878798 0
0.342472 0.0904204 0
0.362083 0.0926635 0
0.381726 0.0946086 0
0.401397 0.0962552 0
0.42109 0.0976029 0
0.440802 0.0986514 0
0.460527 0.0994006 0
0.480261 0.0998501 0
0.5 0.1 0
0.519739 0.0998501 0
0.539473 0.0994006 0
0.559198 0.0986514 0
0.57891 0.0976029 0
0.598603 0.0962552 0
0.618274 0.0946086 0
0.637917 0.0926635 0
0.657528 0.0904204 0
0.677104 0.0878798 0
0.696638 0.0850422 0
0.716127 0.0819084 0
0.735566 0.078479 0
0.754951 0.0747549 0
0.774277 0.0707368 0
0.79354 0.0664258 0
0.812735 0.0618228 0
0.831858 0.0569289 0
0.850905 0.0517451 0
0.86987 0.0462728 0
0.888751 0.0405131 0
0.907542 0.0344675 0
0.926238 0.0281372 0
0.944837 0.0215237 0
0.963333 0.0146286 0
0.981722 0.00745351 0
-1 0.907779 0.1
-1 0.822362 0.1
-1 0.743247 0.1
-1 0.669968 0.1
-1 0.602096 0.1
-1 0.539231 0.1
-1 0.481004 0.1
-1 0.427073 0.1
-1 0.377121 0.1
-1 0.330854 0.1
-1 0.288001 0.1
-1 0.248309 0.1
-1 0.211545 0.1
-1 0.177494 0.1
-1 0.145955 0.1
-1 0.116743 0.1
-1 0.0896856 0.1
-1 0.0646247 0.1
-1 0.0414128 0.1
-1 0.0199133 0.1
-0.98 0 0.1
-0.96 0 0.1
-0.94 0 0.1
-0.92 0 0.1
-0.9 0 0.1
-0.88 0 0.1
-0.86 0 0.1
-0.84 0 0.1
-0.82 0 0.1
-0.8 0 0.1
-0.78 0 0.1
-0.76 0 0.1
-0.74 0 0.1
-0.72 0 0.1
-0.7 0 0.1
-0.68 0 0.1
-0.66 0 0.1
-0.64 0 0.1
-0.62 0 0.1
-0.6 0 0.1
-0.58 0 0.1
-0.56 0 0.1
-0.54 0 0.1
-0.52 0 0.1
-0.5 0 0.1
-0.48 0 0.1
-0.46 0 0.1
-0.44 0 0.1
-0.42 0 0.1
-0.4 0 0.1
-0.38 0 0.1
-0.36 0 0.1
-0.34 0 0.1
-0.32 0 0.1
-0.3 0 0.1
-0.28 0 0.1
-0.26 0 0.1
-0.24 0 0.1
-0.22 0 0.1
-0.2 0 0.1
-0.18 0 0.1
-0.16 0 0.1
-0.14 0 0.1
-0.12 0 0.1
-0.1 0 0.1
-0.08 0 0.1
-0.06 0 0.1
-0.04 0 0.1
-0.02 0 0.1
0.0182781 0.00745351 0.1
0.0366672 0.0146286 0.1
0.0551632 0.0215237 0.1
0.0737617 0.0281372 0.1
0.0924585 0.0344675 0.1
0.111249 0.0405131 0.1
0.13013 0.0462728 0.1
0.149095 0.0517451 0.1
0.168142 0.0569289 0.1
0.187265 0.0618228 0.1
0.20646 0.0664258 0.1
0.225723 0.0707368 0.1
0.245049 0.0747549 0.1
0.264434 0.078479 0.1
0.283873 0.0819084 0.1
0.303362 0.0850422 0.1
0.322896 0.0878798 0.1
0.342472 0.0904204 0.1
0.362083 0.0926635 0.1
0.381726 0.0946086 0.1
0.401397 0.0962552 0.1
0.42109 0.0976029 0.1
0.440802 0.0986514 0.1
0.460527 0.0994006 0.1
0.480261 0.0998501 0.1
0.5 0.1 0.1
0.519739 0.0998501 0.1
0.539473 0.0994006 0.1
0.559198 0.0986514 0.1
0.57891 0.0976029 0.1
0.598603 0.0962552 0.1
0.618274 0.0946086 0.1
0.637917 0.0926635 0.1
0.657528 0.0904204 0.1
0.677104 0.0878798 0.1
0.696638 0.0850422 0.1
0.716127 0.0819084 0.1
0.735566 0.078479 0.1
0.754951 0.0747549 0.1
0.774277 0.0707368 0.1
0.79354 0.0664258 0.1
0.812735 0.0618228 0.1
0.831858 0.0569289 0.1
0.850905 0.0517451 0.1
0.86987 0.0462728 0.1
0.888751 0.0405131 0.1
0.907542 0.0344675 0.1
0.926238 0.0281372 0.1
0.944837 0.0215237 0.1
0.963333 0.0146286 0.1
0.981722 0.00745351 0.1
1.02 0 0.1
1.04 0 0.1
1.06 0 0.1
1.08 0 0.1
1.1 0 0.1
1.12 0 0.1
1.14 0 0.1
1.16 0 0.1
1.18 0 0.1
1.2 0 0.1
1.22 0 0.1
1.24 0 0.1
1.26 0 0.1
1.28 0 0.1
1.3 0 0.1
1.32 0 0.1
1.34 0 0.1
1.36 0 0.1
1.38 0 0.1
1.4 0 0.1
1.42 0 0.1
1.44 0 0.1
1.46 0 0.1
1.48 0 0.1
1.5 0 0.1
1.52 0 0.1
1.54 0 0.1
1.56 0 0.1
1.58 0 0.1
1.6 0 0.1
1.62 0 0.1
1.64 0 0.1
1.66 0 0.1
1.68 0 0.1
1.7 0 0.1
1.72 0 0.1
1.74 0 0.1
1.76 0 0.1
1.78 0 0.1
1.8 0 0.1
1.82 0 0.1
1.84 0 0.1
1.86 0 0.1
1.88 0 0.1
1.9 0 0.1
1.92 0 0.1
1.94 0 0.1
1.96 0 0.1
1.98 0 0.1
2 0.0199133 0.1
2 0.0414128 0.1
2 0.0646247 0.1
2 0.0896856 0.1
2 0.116743 0.1
2 0.145955 0.1
2 0.177494 0.1
2 0.211545 0.1
2 0.248309 0.1
2 0.288001 0.1
2 0.330854 0.1
2 0.377121 0.1
2 0.427073 0.1
2 0.481004 0.1
2 0.539231 0.1
2 0.602096 0.1
2 0.669968 0.1
2 0.743247 0.1
2 0.822362 0.1
2 0.907779 0.1
1.9 1 0.1
1.8 1 0.1
1.7 1 0.1
1.6 1 0.1
1.5 1 0.1
1.4 1 0.1
1.3 1 0.1
1.2 1 0.1
1.1 1 0.1
1 1 0.1
0.9 1 0.1
0.8 1 0.1
0.7 1 0.1
0.6 1 0.1
0.5 1 0.1
0.4 1 0.1
0.3 1 0.1
0.2 1 0.1
0.1 1 0.1
3.69793e-12 1 0.1
-0.1 1 0.1
-0.2 1 0.1
-0.3 1 0.1
-0.4 1 0.1
-0.5 1 0.1
-0.6 1 0.1
-0.7 1 0.1
-0.8 1 0.1
-0.9 1 0.1
1.08758 0.0158154 0
-0.0898513 0.0203294 0
0.0966181 0.0537636 0
0.90205 0.0548881 0
1.21055 0.0202058 0
-0.209811 0.0159577 0
1.3305 0.0176902 0
-0.33 0.0173205 0
1.45324 0.0148141 0
-0.448654 0.0159854 0
1.56842 0.0191785 0
-0.569936 0.0166364 0
0.193292 0.0805369 0
0.805051 0.0813623 0
0.709096 0.100353 0
0.288591 0.0996656 0
0.390184 0.111848 0
0.61033 0.111742 0
0.488809 0.116278 0
1.67175 0.0169692 0
-0.67 0.0169809 0
-0.955017 0.454039 0
1.95131 0.44569 0
1.74981 0.0168753 0
-0.75 0.0173205 0
-0.968032 0.266538 0
1.96871 0.266267 0
0.978232 0.0305687 0
0.0208675 0.026451 0
-0.150454 0.91842 0
1.13854 0.907437 0
1.45012 0.904365 0
-0.445923 0.908903 0
-0.853423 0.0157019 0
1.84881 0.016319 0
0.853689 0.915652 0
0.153944 0.912184 0
0.545151 0.914125 0
0.549913 0.115152 0
1.51 0.0173205 0
-0.506989 0.01651 0
1.27 0.0173205 0
1.14976 0.0173333 0
-0.268171 0.0206442 0
-0.150501 0.0153244 0
-0.391384 0.0153993 0
1.38886 0.0171544 0
-0.973694 0.161724 0
1.97441 0.162392 0
-0.945221 0.633523 0
1.94544 0.63312 0
1.91008 0.0186068 0
-0.91 0.0169616 0
-0.030664 0.0194327 0
1.03074 0.0165456 0
-0.966065 0.353575 0
1.96128 0.359765 0
1.93879 0.781254 0
-0.937057 0.781882 0
-0.980746 0.080709 0
1.9772 0.0760699 0
0.058735 0.0409372 0
0.355202 0.913001 0
0.86356 0.0661005 0
0.134223 0.0651111 0
0.941972 0.0397386 0
-0.653034 0.915003 0
1.65328 0.904589 0
0.770126 0.0881325 0
0.232946 0.0902008 0
0.330582 0.105648 0
0.670612 0.108365 0
0.428707 0.116145 0
1.80993 0.016629 0
-0.810168 0.0172178 0
-0.71 0.0173205 0
1.63047 0.0175504 0
1.70842 0.0169661 0
-0.628824 0.0181787 0
-0.949815 0.0133898 0
1.95 0.0173205 0
1.85542 0.907891 0
-0.85 0.913397 0
1.9833 0.0307692 0
-0.983315 0.0309709 0
-0.750025 0.916468 0
-0.701107 0.836904 0
-0.607741 0.836428 0
-0.656448 0.759827 0
-0.572936 0.758144 0
-0.61411 0.691195 0
-0.539534 0.689068 0
-0.578542 0.626111 0
-0.507461 0.624216 0
-0.544001 0.566638 0
-0.477696 0.564279 0
-0.511582 0.51001 0
-0.451689 0.507147 0
-0.481834 0.457732 0
-0.426137 0.454624 0
-0.453236 0.407539 0
-0.398845 0.406233 0
-0.507958 0.409496 0
-0.368427 0.460177 0
-0.344602 0.405209 0
-0.315696 0.447824 0
-0.294128 0.402169 0
-0.262844 0.444518 0
-0.241968 0.388746 0
-0.209878 0.439557 0
-0.185184 0.391135 0
-0.156687 0.437338 0
-0.133719 0.390776 0
-0.104405 0.434306 0
-0.0818745 0.388334 0
-0.0528785 0.431165 0
-0.0305984 0.385639 0
-0.00180552 0.427863 0
0.0194564 0.382608 0
0.0485809 0.42449 0
0.0701962 0.37973 0
0.0985483 0.421145 0
0.119893 0.377339 0
0.147837 0.417911 0
0.172552 0.36751 0
0.197018 0.412597 0
0.221203 0.37141 0
0.24512 0.409646 0
-0.48178 0.364657 0
-0.531053 0.364782 0
-0.0599102 0.344151 0
-0.324909 0.359566 0
0.266181 0.368462 0
0.292132 0.407649 0
0.311992 0.365779 0
0.338918 0.404821 0
0.357567 0.355909 0
0.384723 0.40053 0
0.404675 0.359681 0
0.430617 0.398558 0
0.450457 0.35827 0
0.474237 0.395182 0
0.496746 0.34898 0
0.520548 0.397931 0
0.542071 0.353121 0
0.566011 0.389914 0
0.585061 0.350856 0
0.609352 0.38696 0
0.629069 0.348168 0
0.655979 0.391217 0
0.67472 0.346182 0
0.699346 0.381414 0
0.719333 0.341965 0
0.743718 0.377547 0
0.764028 0.339036 0
0.788201 0.373582 0
0.807659 0.336101 0
0.832821 0.372249 0
0.852309 0.334017 0
0.877785 0.370339 0
0.897875 0.331141 0
0.922904 0.366281 0
0.943173 0.327335 0
0.968282 0.363358 0
0.989029 0.324222 0
1.01391 0.361511 0
1.03465 0.321428 0
1.05949 0.358447 0
1.08389 0.312052 0
1.10575 0.355104 0
1.12889 0.31562 0
1.15067 0.353235 0
1.17157 0.312819 0
1.19626 0.349369 0
1.21618 0.309863 0
1.2416 0.346914 0
1.26131 0.30715 0
1.28691 0.344312 0
1.30571 0.303752 0
1.33144 0.341222 0
1.35018 0.300911 0
1.3758 0.338308 0
1.39501 0.298931 0
1.42015 0.335235 0
1.43904 0.296349 0
1.46355 0.330194 0
1.48256 0.293347 0
1.50685 0.326967 0
1.52589 0.29055 0
1.54996 0.325305 0
1.56909 0.287929 0
[...]
CELL_DATA 3694
SCALARS rho float
LOOKUP_TABLE default
0.738178
0.676134
0.804109
0.815738
0.828089
0.805505
0.792318
0.800769
0.812415
0.80316
0.819718
0.819709
0.840502
0.790159
0.801499
0.754777
0.803518
0.803379
0.763812
0.850884
0.819085
0.825026
0.706302
0.803713
0.703038
0.839456
0.721055
0.807093
0.837319
0.799167
0.799331
0.719011
0.803877
0.825166
0.803389
0.799733
0.838179
0.824788
0.82643
0.778441
0.805046
0.817759
0.834703
0.825739
0.805432
0.815628
0.801699
0.682128
0.683571
0.727894
0.802412
0.803085
0.847706
0.802491
0.648357
0.839084
0.803223
0.820905
0.832687
0.756643
0.796847
0.818254
0.843299
0.800376
0.843921
0.832436
0.80832
0.816386
0.736819
0.859196
0.803297
0.807964
0.82505
0.803483
0.826329
0.80307
0.814351
0.800246
0.816376
0.803079
0.720869
0.81896
0.802563
0.777146
0.812128
0.800198
0.820265
0.721648
0.735991
0.826518
0.801258
0.802834
0.821071
0.817309
0.679041
0.806929
0.726146
0.820142
0.814906
0.841206
0.817342
0.766096
0.717596
0.812181
0.811569
0.818245
0.820134
0.807425
0.718539
0.816733
0.799758
0.729472
0.720202
0.824921
0.868593
0.802634
0.801849
0.814706
0.803289
0.802528
0.766427
0.822569
0.821701
0.772359
0.703114
0.760727
0.819732
0.779812
0.844491
0.708118
0.767996
0.800758
0.808321
0.779052
0.801816
0.797542
0.805864
0.802659
0.798604
0.817253
0.816215
0.715847
0.819331
0.816426
0.759794
0.6841
0.681187
0.798756
0.818675
0.81344
0.748863
0.802975
0.573833
0.780823
0.696699
0.766958
0.716847
0.785927
0.61421
0.793756
0.837454
0.650159
0.783253
0.740012
0.845404
0.571391
0.817666
0.801122
0.803745
0.677636
0.801785
0.6688
0.858738
0.582864
0.800366
0.652578
0.872339
0.834934
0.82263
0.745532
0.816489
0.72096
0.828782
0.737649
0.653765
0.803323
0.672294
0.825373
0.802039
0.852052
0.792271
0.701159
0.817942
0.799048
0.745889
0.852995
0.811744
0.849689
0.739535
0.747557
0.772512
0.795804
0.833392
0.83421
0.817072
0.816903
0.675794
0.805007
0.731855
0.803414
0.717417
0.799125
0.796168
0.801943
0.827626
0.767129
0.832145
0.752129
0.827574
0.821788
0.818646
0.853182
0.82959
0.712185
0.828921
0.677846
0.788687
0.812146
0.852214
0.831832
0.810719
0.794907
0.749729
0.820039
0.838125
0.819874
0.720407
0.802006
0.702471
0.794547
0.796032
0.812271
0.648845
0.808163
0.761049
0.798231
0.803251
0.762071
0.818193
0.865702
0.784461
0.689145
0.80477
0.802492
0.652546
0.794826
0.77937
0.802533
0.840001
0.817898
0.616003
0.818127
0.810294
0.799287
0.818314
0.802936
0.815612
0.816295
0.835632
0.759047
0.802157
0.836445
0.811245
0.803288
0.796732
0.818169
0.72856
0.595847
0.819284
0.829618
0.822585
0.804723
0.693102
0.818311
0.818104
0.818759
0.721179
0.799013
0.818261
0.589315
0.803035
0.86966
0.675136
0.760402
0.840071
0.828464
0.81799
0.704208
0.809795
0.818267
0.804195
0.802288
0.812356
0.837709
0.818002
0.768862
0.807424
0.80327
0.651805
0.823195
0.829718
0.678368
0.793395
0.821199
0.820905
0.684378
0.662998
0.823587
0.826049
0.809958
0.733358
0.711463
0.718095
0.73878
0.822508
0.779648
0.804547
0.73866
0.74245
0.824562
0.812555
0.819832
0.772447
0.818188
0.816665
0.819823
0.818457
0.803021
0.808144
0.804717
0.688029
0.802915
0.813329
0.705584
0.808033
0.805515
0.821736
0.786834
0.806302
0.79258
0.81812
0.823186
0.822427
0.798962
0.694205
0.719498
0.799908
0.811227
0.635479
0.804248
0.808353
0.817613
0.747094
0.804656
0.818793
0.814236
0.820246
0.805437
0.797895
0.767482
0.805234
0.844882
0.820695
0.704565
0.804291
0.710246
0.703562
0.803449
0.620722
0.772235
0.785711
0.808133
0.816426
0.827026
0.819525
0.81451
0.822439
0.830056
0.803034
0.767597
0.810054
0.666104
0.821511
0.760084
0.732908
0.698931
0.816808
0.854812
0.821536
0.809617
0.822331
0.81825
0.787823
0.76172
0.812124
0.697041
0.791951
0.844692
0.826551
0.801216
0.864897
0.81372
0.818741
0.820028
0.831029
0.640947
0.80098
0.737654
0.798654
0.735121
0.820815
0.809036
0.78945
0.673792
0.817908
0.830194
0.814609
0.803335
0.804127
0.826362
0.804224
0.719161
0.790842
0.80325
0.817815
0.816396
0.815133
0.872276
0.829693
0.809809
0.833829
0.687763
0.825494
0.839165
0.818826
0.63361
0.818245
0.809751
0.846816
0.823556
0.80318
0.600552
0.810643
0.703953
0.80651
0.803058
0.813018
0.81656
0.82538
0.805465
0.811512
0.818561
0.731358
0.863817
0.802291
0.851376
0.818874
0.588623
0.804254
0.797316
0.814252
0.820133
0.670429
0.803045
0.810063
0.813459
0.807525
0.794512
0.818439
0.81975
0.798639
0.804862
0.823593
0.838036
0.736884
0.806706
0.81054
0.815673
0.686856
0.805818
0.818247
0.799954
0.804682
0.581936
0.834646
0.767319
0.817873
0.820192
0.832603
0.847364
0.818579
0.814349
0.723241
0.799703
0.853223
0.810975
0.713491
0.800788
0.802795
0.872857
0.846627
0.821417
0.802346
0.810022
0.758144
0.818186
0.814479
0.594012
0.803154
0.736132
0.751263
0.803706
0.814087
0.781681
0.821705
0.818136
0.838477
0.818296
0.800954
0.81119
0.738395
0.740442
0.804558
0.810476
0.823075
0.802889
0.752859
0.696741
0.816541
0.815788
0.814267
0.603366
0.816585
0.818531
0.826763
0.803462
0.810834
0.821806
0.812132
0.840956
0.803265
0.813033
0.825563
0.818434
0.819487
0.823184
0.698439
0.785082
0.796887
0.803531
0.848908
0.802299
0.804682
0.641003
0.812704
0.816175
0.811374
0.821418
0.806212
0.816045
0.730298
0.845019
0.705853
0.801109
0.819861
0.807678
0.673627
0.672084
0.816205
0.806114
0.804923
0.788046
0.801801
0.831079
0.815958
0.805427
0.802751
0.814835
0.625608
0.815109
0.803728
0.708964
0.817884
0.64068
0.786848
0.818132
0.838926
0.808405
0.815349
0.795067
0.797675
0.80474
0.801721
0.814774
0.811724
0.811559
0.803487
0.757804
0.804463
0.815425
0.814817
0.818161
0.814285
0.818621
0.817997
0.83545
0.743799
0.807303
0.818372
0.803138
0.555575
0.693041
0.812122
0.816234
0.818098
0.781047
0.809262
0.813633
0.803871
0.800418
0.803354
0.821683
0.822569
0.818043
0.787514
0.810362
0.808165
0.646009
0.775721
0.760595
0.80818
0.738607
0.688416
0.798409
0.769236
0.829581
0.818214
0.817789
0.808745
0.553132
0.816396
0.592532
0.706938
0.826725
0.870301
0.746789
0.81907
0.854016
0.700429
0.818004
0.809393
0.815431
0.807551
0.661809
0.855693
0.737674
0.736645
0.803792
0.80501
0.800199
0.833534
0.818209
0.696392
0.817262
0.800636
0.703164
0.841056
0.799013
0.629364
0.774706
0.818412
0.810393
0.817839
0.784842
0.732295
0.773506
0.837185
0.692715
0.818709
0.819425
0.8289
0.767741
0.824259
0.699583
0.805033
0.665858
0.704571
0.802314
0.823424
0.791214
0.817814
0.81822
0.818168
0.817102
0.588356
0.802785
0.818298
0.746216
0.810482
0.818223
0.814597
0.713473
0.685996
0.744222
0.632903
0.807601
0.687479
0.818492
0.802233
0.818059
0.837119
0.683298
0.806419
0.821868
0.833688
0.743549
0.784449
0.765404
0.775363
0.814656
0.620704
0.668668
0.818251
0.805803
0.81459
0.805011
0.719207
0.782481
0.73094
0.760977
0.800521
0.8337
0.812852
0.695244
0.825524
0.81964
0.813625
0.696367
0.687168
0.688161
0.872859
0.818615
0.818934
0.617432
0.715072
0.647273
0.804155
0.800898
0.676791
0.81266
0.825859
0.753904
0.80052
0.735
0.816953
0.696445
0.817962
0.810773
0.803781
0.803321
0.826911
0.747265
0.818569
0.818196
0.781605
0.5828
0.817164
0.813554
0.761092
0.81698
0.747593
0.80373
0.828073
0.678472
0.8206
0.802924
0.810158
0.595739
0.66616
0.738846
0.806864
0.814699
0.813487
0.823286
0.815635
0.818647
0.708146
0.802247
0.81566
0.828196
0.707306
0.733234
0.815056
0.813826
0.701841
0.814642
0.776725
0.697974
0.812314
0.699987
0.806534
0.667695
0.803053
0.72961
0.67482
0.813755
0.787174
0.747683
0.637107
0.841407
0.82122
0.817317
0.772781
0.817346
0.800693
0.788235
0.800702
0.802167
0.81748
0.738011
0.810129
0.800727
0.821193
0.607068
0.802196
0.815376
0.81628
0.814134
0.814643
0.749546
0.805032
0.765738
0.754074
0.820979
0.659319
0.820889
0.820055
0.803307
0.818017
0.819237
0.727984
0.768837
0.824275
0.787725
0.804177
0.818484
0.875598
0.820217
0.80084
0.819434
0.818262
0.794664
0.820927
0.819086
0.775088
0.708421
0.842706
0.797378
0.803406
0.823075
0.783316
0.820324
0.824884
0.821082
0.819484
0.87129
0.803333
0.805612
0.820713
0.803319
0.81819
0.807436
0.740903
0.818078
0.822056
0.754198
0.717529
0.817926
0.843613
0.822749
0.671512
0.823985
0.775325
0.810867
0.802663
0.733681
0.803272
0.799485
0.816066
0.819188
0.700512
0.713071
0.80286
0.788133
0.802558
0.82623
0.720938
0.818162
0.80309
0.801136
0.82479
0.818337
0.719977
0.818368
0.765434
0.80289
0.832713
0.803811
0.776042
0.798163
0.794864
0.818005
0.652213
0.818243
0.688876
0.692372
0.803907
0.821902
0.8182
0.803018
0.818066
0.810409
0.729918
0.788262
0.858196
0.80324
0.834768
0.807882
0.566704
0.762513
0.782867
0.65772
0.742432
0.589975
0.821564
0.816274
0.815946
0.802752
0.767658
0.690674
0.767795
0.752825
0.783304
0.81821
0.844991
0.82175
0.8063
0.819403
0.825122
0.80333
0.808517
0.712212
0.803704
0.758931
0.809152
0.798733
0.755549
0.824097
0.789412
0.804037
0.792504
0.84213
0.730698
0.801496
0.80036
0.805352
0.62335
0.818352
0.818258
0.822542
0.645445
0.818163
0.818094
0.799332
0.80428
0.794022
0.778239
0.807306
0.797092
0.818715
0.753392
0.806179
0.875827
0.765415
0.751721
0.809312
0.784449
0.844038
0.802309
0.782609
0.817614
0.798773
0.793334
0.808504
0.827597
0.837378
0.800244
0.58422
0.822659
0.830063
0.773063
0.832562
0.83961
0.824938
0.828184
0.807731
0.834544
0.828798
0.784491
0.809839
0.814039
0.808741
0.824846
0.80375
0.827434
0.793513
0.804261
0.806193
0.731675
0.807542
0.572672
0.820388
0.827336
0.830503
0.806715
0.818808
0.825987
0.819847
0.823057
0.840327
0.834829
0.790537
0.800879
0.823894
0.817943
0.819498
0.800989
0.806848
0.866382
0.82233
0.848663
0.817732
0.801309
0.824805
0.800236
0.833502
0.815993
0.817563
0.805737
0.732499
0.803317
0.804956
0.817928
0.803721
0.803849
0.822344
0.804937
0.804595
0.779203
0.820052
0.720878
0.814929
0.783263
0.761228
0.803955
0.813763
0.819002
0.721402
0.821661
0.815648
0.826671
0.819492
0.791676
0.818955
0.84733
0.833547
0.816807
0.812232
0.802068
0.747886
0.687976
0.818177
0.820845
0.773892
0.81682
0.808345
0.814357
0.80603
0.799326
0.777334
0.802691
0.800679
0.842733
0.819872
0.812085
0.806662
0.610816
0.736187
0.80261
0.785979
0.804713
0.818174
0.806518
0.818777
0.781066
0.818185
0.805398
0.813292
0.804327
0.820219
0.803303
0.818611
0.813414
0.8184
0.815284
0.722823
0.816828
0.818472
0.605047
0.817972
0.797385
0.803558
0.859753
0.820502
0.813266
0.873121
0.817975
0.818094
0.819403
0.821174
0.81764
0.765897
0.83027
0.802072
0.803537
0.816814
0.818035
0.819312
0.818026
0.81576
0.823396
0.80428
0.814887
0.809609
0.815912
0.820363
0.818079
0.814217
0.821507
0.809273
0.690357
0.667128
0.803016
0.809411
0.803698
0.813768
0.82065
0.819396
0.803244
0.804762
0.801258
0.801353
0.819278
0.845456
0.820918
0.812267
0.820784
0.820568
0.84626
0.819788
0.821639
0.786591
0.818199
0.807181
0.802237
0.792777
0.813069
0.820824
0.817906
0.817803
0.835924
0.808355
0.815495
0.818967
0.821972
0.803857
0.803674
0.805904
0.813519
0.817956
0.802002
0.805294
0.819431
0.822827
0.801489
0.654264
0.804611
0.798683
0.817907
0.799014
0.803073
0.750996
0.842283
0.803138
0.800342
0.836434
0.831544
0.810731
0.828158
0.801076
0.820251
0.81956
0.821046
0.803934
0.820657
0.734801
0.824423
0.811812
0.800784
0.813656
0.822738
0.799637
0.804369
0.784963
0.815553
0.818249
0.818329
0.820838
0.80682
0.819579
0.818453
0.827645
0.822218
0.839206
0.806489
0.698953
0.820251
0.841688
0.822023
0.805173
0.80055
0.80391
0.818352
0.814614
0.818568
0.745283
0.743665
0.80141
0.803321
0.818272
0.818856
0.801163
0.662974
0.711789
0.80841
0.769306
0.818563
0.704972
0.803209
0.731264
0.803326
0.820543
0.803253
0.819754
0.815382
0.798948
0.809111
0.795834
0.829812
0.818335
0.801871
0.803946
0.818305
0.823716
0.752899
0.824384
0.804087
0.783494
0.818236
0.804226
0.811249
0.817735
0.817863
0.836791
0.795113
0.799565
0.818137
0.761393
0.807209
0.817844
0.801381
0.818477
0.841171
0.802799
0.84446
0.810497
0.792237
0.814509
0.802773
0.851924
0.788873
0.803362
0.818672
0.83333
0.808763
0.816445
0.818367
0.803203
0.802929
0.826156
0.78468
0.817011
0.818043
0.65988
0.818222
0.715942
0.817931
0.83961
0.826388
0.804272
0.81745
0.818098
0.729269
0.817764
0.80167
0.801884
0.801432
0.818257
0.864695
0.801729
0.801633
0.78641
0.842098
0.828028
0.821742
0.815704
0.749546
0.805544
0.803404
0.733861
0.800338
0.717812
0.812952
0.801178
0.681064
0.88071
0.705811
0.772654
0.802254
0.747325
0.808761
0.799595
0.80316
0.665602
0.797201
0.785017
0.799727
0.73539
0.820936
0.824495
0.884926
0.809822
0.831785
0.650784
0.800729
0.788828
0.749371
0.755119
0.772358
0.712355
0.803412
0.80006
0.803479
0.766194
0.634043
0.811884
0.621029
0.822916
0.82411
0.811817
0.73792
0.813714
0.797854
0.821099
0.783924
0.809543
0.797569
0.812419
0.719984
0.801965
0.726298
0.801804
0.79942
0.695246
0.804173
0.818146
0.818171
0.80327
0.763692
0.817798
0.731481
0.69481
0.802616
0.818196
0.875077
0.818145
0.817101
0.881001
0.866108
0.83209
0.71586
0.802399
0.812217
0.82195
0.800161
0.690143
0.725815
0.687089
0.802532
0.70049
0.770597
0.799952
0.634152
0.685666
0.837257
0.776117
0.748687
0.83209
0.762125
0.769373
0.668334
0.735224
0.787368
0.821421
0.870132
0.838983
0.81822
0.79666
0.800227
0.720323
0.818206
0.698126
0.797118
0.818239
0.783657
0.764997
0.803588
0.785039
0.80257
0.801221
0.814132
0.811283
0.867856
0.624822
0.562009
0.802754
0.80884
0.703791
0.810767
0.803089
0.838783
0.803758
0.802578
0.580253
0.587009
0.808433
0.814825
0.818179
0.733399
0.8033
0.81234
0.690973
0.813904
0.802924
0.816711
0.803282
0.802231
0.802459
0.817233
0.803068
0.816994
0.803576
0.862928
0.817656
0.802691
0.720925
0.67808
0.817962
0.597954
0.814553
0.810709
0.837219
0.816153
0.803381
0.811075
0.81614
0.815574
0.818055
0.801898
0.853955
0.857467
0.803023
0.665862
0.810585
0.822353
0.799768
0.803343
0.821784
0.740115
0.803328
0.826725
0.823025
0.817935
0.817867
0.76894
0.745359
0.801647
0.83543
0.803681
0.816158
0.805309
0.804531
0.805833
0.81684
0.809563
0.7995
0.807218
0.80681
0.824909
0.807028
0.806628
0.819807
0.807622
0.803443
0.815839
0.803084
0.802973
0.806154
0.808578
0.81598
0.775362
0.805677
0.802883
0.81829
0.800224
0.80405
0.807202
0.833348
0.805367
0.662866
0.801211
0.817708
0.804989
0.814994
0.765272
0.817552
0.753983
0.803928
0.802429
0.804368
0.819411
0.85215
0.804683
0.803342
0.74688
0.831181
0.818128
0.822385
0.824907
0.816816
0.741671
0.820278
0.729323
0.8015
0.829255
0.802678
0.709805
0.827576
0.816647
0.818817
0.825921
0.818257
0.774911
0.819445
0.66433
0.719321
0.818223
0.82448
0.689504
0.821425
0.663895
0.823359
0.807668
0.819051
0.803282
0.806476
0.816858
0.832117
0.825133
0.664626
0.815919
0.843389
0.782669
0.847529
0.800564
0.714828
0.839958
0.821627
0.837089
0.699449
0.696429
0.834497
0.674812
0.832283
0.818163
0.830328
0.806653
0.828682
0.788627
0.827243
0.825912
0.71579
0.866483
0.824776
0.823819
0.823713
0.762205
0.803091
0.556057
0.805414
0.822995
0.816313
0.805132
0.827738
0.818356
0.798749
0.822273
0.803173
0.694206
0.793157
0.834511
0.81737
0.722773
0.801577
0.821736
0.59109
0.817666
0.818392
0.803062
0.810309
0.731945
0.819692
0.803173
0.803728
0.796571
0.796396
0.7984
0.794971
0.803356
0.815283
0.819557
0.816812
0.58282
0.893238
0.713512
0.798393
0.744345
0.792026
0.818295
0.818447
0.81839
0.613418
0.821089
0.817493
0.804402
0.819994
0.837015
0.839724
0.783605
0.798846
0.799932
0.732252
0.75667
0.818209
0.766492
0.815517
0.821316
0.817729
0.81387
0.80215
0.778289
0.812465
0.818764
0.73149
0.811049
0.818594
0.820489
0.808366
0.809944
0.768097
0.817707
0.808672
0.803389
0.807924
0.62581
0.806997
0.804831
0.806421
0.823408
0.845674
0.805207
0.777496
0.805783
0.772509
0.822429
0.808184
0.815669
0.818325
0.850208
0.803673
0.746085
0.82008
0.818216
0.730918
0.801796
0.818885
0.759709
0.815543
0.579619
0.807163
0.689922
0.80211
0.812657
0.815083
0.819719
0.804604
0.817756
0.820037
0.801674
0.805308
0.844668
0.81877
0.796828
0.818495
0.802971
0.802538
0.800832
0.801903
0.809299
0.81765
0.802271
0.773391
0.820754
0.814457
0.809271
0.81833
0.596392
0.803794
0.814001
0.818206
0.790136
0.752167
0.718099
0.815378
0.818097
0.827809
0.792048
0.611795
0.773905
0.652127
0.8193
0.745213
0.815081
0.830787
0.705737
0.800321
0.835425
0.754236
0.800991
0.803352
0.818143
0.804022
0.702884
0.801248
0.566722
0.802453
0.802845
0.802535
0.647937
0.803138
0.803754
0.803483
0.731725
0.740653
0.803714
0.778751
0.818434
0.725719
0.710621
0.817956
0.801756
0.755466
0.854967
0.816824
0.815135
0.674755
0.803154
0.801022
0.801014
0.8027
0.663896
0.803619
0.818189
0.660292
0.69019
0.806161
0.792465
0.81816
0.824541
0.817691
0.817933
0.818973
0.80397
0.818172
0.817597
0.814941
0.829697
0.803262
0.802291
0.811074
0.734009
0.80997
0.817451
0.863483
0.812662
0.644846
0.777875
0.802585
0.777351
0.819226
0.814387
0.831293
0.814809
0.865291
0.802865
0.817267
0.604017
0.816361
0.835098
0.803086
0.817322
0.632744
0.817788
0.802885
0.819187
0.802501
0.819923
0.818577
0.754733
0.80393
0.803246
0.836396
0.862706
0.820114
0.818769
0.724002
0.746838
0.802786
0.803396
0.812809
0.82039
0.800192
0.803214
0.821666
0.808798
0.807983
0.739155
0.802972
0.819757
0.816157
0.770512
0.760663
0.814067
0.796784
0.857947
0.722235
0.835934
0.81338
0.709049
0.800223
0.817122
0.787709
0.801184
0.799904
0.817829
0.779957
0.77473
0.816207
0.693941
0.799356
0.76848
0.817758
0.819748
0.802491
0.789938
0.74232
0.755656
0.776195
0.81758
0.821247
0.808071
0.677554
0.804192
0.797938
0.778419
0.809866
0.815712
0.800077
0.804051
0.64868
0.804881
0.805493
0.852485
0.804042
0.809815
0.834757
0.806157
0.812592
0.853307
0.62549
0.804385
0.818812
0.805805
0.805411
0.806113
0.804948
0.805068
0.804558
0.806202
0.807159
0.728992
0.806098
0.807832
0.808758
0.817583
0.808933
0.820418
0.80326
0.803827
0.817321
0.817424
0.812568
0.803435
0.816313
0.813932
0.811775
0.818592
0.713681
0.816685
0.833059
0.817807
0.855383
0.752444
0.810398
0.818182
0.801852
0.648757
0.803512
0.774606
0.824021
0.633001
0.818361
0.83117
0.817647
0.81386
0.802494
0.827418
0.820791
0.804105
0.767204
0.819539
0.759675
0.5611
0.817459
0.690645
0.701234
0.820473
0.829384
0.829303
0.819195
0.848757
0.610692
0.876738
0.805659
0.827766
0.826182
0.815541
0.689208
0.817947
0.824722
0.81898
0.802058
0.774129
0.822375
0.578357
0.815165
0.844535
0.80345
0.841083
0.823555
0.803355
0.678389
0.843671
0.822567
0.837995
0.801519
0.815935
0.803189
0.835451
0.803171
0.815934
0.833106
0.831036
0.822174
0.826323
0.831232
0.739028
0.672936
0.587641
0.829262
0.827804
0.769397
0.759436
0.808783
0.826435
0.846884
0.604645
0.825209
0.824171
0.823311
0.821884
0.80438
0.820984
0.671519
0.748509
0.822561
0.798329
0.870156
0.890456
0.777924
0.806282
0.674175
0.835822
0.736635
0.726524
0.819396
0.80213
0.784605
0.676702
0.802469
0.818026
0.789778
0.720381
0.802874
0.817456
0.798522
0.691197
0.824821
0.793418
0.818491
0.834907
0.815497
0.798159
0.818836
0.818645
0.786566
0.804508
0.719071
0.840826
0.793785
0.813477
0.783177
0.804911
0.706655
0.801247
0.813883
0.812537
0.81141
0.809918
0.808824
0.808086
0.806464
0.805351
0.807267
0.732352
0.805905
0.801786
0.796504
0.80365
0.844584
0.722603
0.80344
0.777065
0.884293
0.854552
0.798512
0.729819
0.804086
0.797964
0.724398
0.803667
0.80239
0.739564
0.804085
0.792534
0.798234
0.801739
0.739945
0.782552
0.806678
0.751615
0.765589
0.772654
0.802068
0.81741
0.809035
0.762363
0.752972
0.799963
0.816677
0.803559
0.794833
0.801503
0.928237
0.861267
0.819934
0.818151
0.723194
0.845587
0.750345
0.826577
0.81797
0.898278
0.818253
0.79804
0.598037
0.818225
0.798163
0.818206
0.798601
0.846536
0.552492
0.834444
0.801908
0.806272
0.805131
0.804468
0.856092
0.801746
0.819828
0.705231
0.652472
0.671082
0.818201
0.529316
0.798516
0.726844
0.842828
0.815219
0.568794
0.803815
0.81752
0.817242
0.72237
0.802392
0.536981
0.798168
0.818238
0.7983
0.803084
0.79855
0.818325
0.835101
0.803345
0.799289
0.818599
0.799564
0.81871
0.81491
0.799865
0.818842
0.816538
0.819003
0.799991
0.819188
0.683735
0.800195
0.8194
0.803267
0.800391
0.819614
0.704582
0.818137
0.798983
0.818295
0.798958
0.812491
0.838786
0.862256
0.801408
0.801484
0.820444
0.815965
0.801125
0.800746
0.863595
0.813927
0.820153
0.812945
0.850928
0.830396
0.819118
0.826348
0.847559
0.81811
0.802623
0.82157
0.81319
0.803061
0.817881
0.800895