# vtk DataFile Version 1.0
unstructured grid
ascii
DATASET UNSTRUCTURED_GRID
points 6452 float
0.0796578 -0.059106 0
0.00128732 0.00159165 0
0.00227961 -0.00102548 0
0.0791586 -0.0598787 0
-0.0546216 0.01 0
0.000495206 0.025 0
0.0800549 -0.035 0
0.135172 -0.08 0
-0.0546216 -0.0451168 0
0.000495206 -0.0301168 0
0.0800549 -0.0901168 0
0.135172 -0.135117 0
-0.0546216 -0.0451168 -0.00551168
0.000495206 -0.0301168 -0.00551168
0.0800549 -0.0901168 -0.00551168
0.135172 -0.135117 -0.00551168
0.135172 -0.08 -0.00551168
0.0800549 -0.035 -0.00551168
0.000495206 0.025 -0.00551168
-0.0546216 0.01 -0.00551168
0.00128732 0.00159165 -0.00551168
0.00227961 -0.00102548 -0.00551168
0.0791586 -0.0598787 -0.00551168
0.0796578 -0.059106 -0.00551168
0.00110182 -0.000823821 0
0.000571683 -0.000188043 0
0.000561313 0.000639162 0
0.00189316 0.00207203 0
0.00260228 0.00255358 0
0.0033966 0.00307293 0
0.00428861 0.00362634 0
0.00529726 0.0041979 0
0.00644092 0.00476696 0
0.00773158 0.0053187 0
0.00918011 0.00583593 0
0.010799 0.00628751 0
0.012597 0.00663225 0
0.0145725 0.0068517 0
0.0167206 0.0069338 0
0.0190349 0.00685819 0
0.0215031 0.00658621 0
0.0241038 0.00607459 0
0.026821 0.00533786 0
0.0296245 0.00434523 0
0.0324763 0.00306927 0
0.0353199 0.00146906 0
0.0381488 -0.00039338 0
0.0409131 -0.00252802 0
0.0435632 -0.00493276 0
0.0460882 -0.0075571 0
0.0484881 -0.0103478 0
0.0506782 -0.0133217 0
0.0526651 -0.016422 0
0.0546139 -0.0195019 0
0.0565301 -0.022529 0
0.0584009 -0.0254846 0
0.0602154 -0.0283513 0
0.061964 -0.031114 0
0.0636389 -0.0337601 0
0.0652336 -0.0362795 0
0.0667431 -0.0386651 0
0.0681656 -0.0409111 0
0.0694983 -0.0430158 0
0.0707356 -0.0449823 0
0.071886 -0.0468071 0
0.0729575 -0.04849 0
0.0739438 -0.0500408 0
0.0748444 -0.0514675 0
0.0756707 -0.0527715 0
0.0764313 -0.053958 0
0.0771224 -0.0550398 0
0.0777384 -0.0560288 0
0.0782803 -0.0569318 0
0.0787691 -0.0577448 0
0.0792251 -0.0584672 0
0.0800494 -0.0597378 0
0.0797987 -0.0601582 0
0.0786655 -0.059391 0
0.0781259 -0.0588425 0
0.0775539 -0.0582102 0
0.0769587 -0.0574783 0
0.0763492 -0.0566339 0
0.075723 -0.0556725 0
0.0750452 -0.0546094 0
0.0742996 -0.0534457 0
0.073478 -0.0521785 0
0.072577 -0.0508019 0
0.0715904 -0.049313 0
0.0705098 -0.047712 0
0.069328 -0.0459996 0
0.0680378 -0.0441794 0
0.066632 -0.0422571 0
0.0651046 -0.0402413 0
0.0634508 -0.0381431 0
0.0616683 -0.0359754 0
0.0597581 -0.033753 0
0.0577255 -0.0314906 0
0.0555808 -0.0292024 0
0.0533388 -0.0269013 0
0.0510024 -0.0246151 0
0.0485693 -0.0223811 0
0.0460535 -0.0202228 0
0.0434788 -0.0181535 0
0.0408704 -0.0161833 0
0.0382442 -0.0143327 0
0.0356165 -0.0126209 0
0.0330065 -0.0110594 0
0.0304368 -0.00965062 0
0.0279338 -0.00838121 0
0.0255194 -0.00723697 0
0.0231965 -0.00623664 0
0.020983 -0.00535765 0
0.0188891 -0.00458677 0
0.0169193 -0.00391673 0
0.0150754 -0.00334068 0
0.0133572 -0.00285262 0
0.0117634 -0.0024437 0
0.0102912 -0.00210643 0
0.0089363 -0.00183343 0
0.00769424 -0.00161552 0
0.00655956 -0.00144452 0
0.00552632 -0.00131235 0
0.00458815 -0.00121216 0
0.00373885 -0.00113394 0
0.00297202 -0.00106855 0
-0.0506847 -0.0440454 0
-0.0467478 -0.0429739 0
-0.0428108 -0.0419025 0
-0.0388739 -0.0408311 0
-0.034937 -0.0397597 0
-0.0310001 -0.0386882 0
-0.0270632 -0.0376168 0
-0.0231263 -0.0365454 0
-0.0191894 -0.0354739 0
-0.0152525 -0.0344025 0
-0.0113155 -0.0333311 0
-0.00737862 -0.0322597 0
-0.00344171 -0.0311882 0
0.0038716 -0.0298185 0
0.00726082 -0.0297726 0
0.010644 -0.0299802 0
0.0140027 -0.0304367 0
0.0173201 -0.0311326 0
0.0205821 -0.0320541 0
0.0237776 -0.0331851 0
0.0268988 -0.0345078 0
0.0299406 -0.0360041 0
0.0329005 -0.0376567 0
0.035778 -0.039449 0
0.038574 -0.0413659 0
0.0412905 -0.043394 0
0.0439303 -0.0455212 0
0.0464964 -0.0477367 0
0.0489922 -0.0500312 0
0.051421 -0.0523964 0
0.0537863 -0.0548252 0
0.0560914 -0.0573112 0
0.0583395 -0.0598489 0
0.0605336 -0.0624334 0
0.0626765 -0.0650605 0
0.064771 -0.0677264 0
0.0668197 -0.0704277 0
0.0688248 -0.0731615 0
0.0707885 -0.0759252 0
0.072713 -0.0787163 0
0.0746002 -0.0815329 0
0.0764517 -0.0843729 0
0.0782695 -0.0872347 0
0.0829558 -0.0924852 0
0.0858567 -0.0948536 0
0.0887575 -0.0972221 0
0.0916584 -0.0995905 0
0.0945593 -0.101959 0
0.0974602 -0.104327 0
0.100361 -0.106696 0
0.103262 -0.109064 0
0.106163 -0.111433 0
0.109064 -0.113801 0
0.111965 -0.116169 0
0.114865 -0.118538 0
0.117766 -0.120906 0
0.120667 -0.123275 0
0.123568 -0.125643 0
0.126469 -0.128012 0
0.12937 -0.13038 0
0.132271 -0.132748 0
0.135172 -0.13118 0
0.135172 -0.127243 0
0.135172 -0.123306 0
0.135172 -0.119369 0
0.135172 -0.115432 0
0.135172 -0.111495 0
0.135172 -0.107558 0
0.135172 -0.103621 0
0.135172 -0.0996846 0
0.135172 -0.0957477 0
0.135172 -0.0918107 0
0.135172 -0.0878738 0
0.135172 -0.0839369 0
0.132271 -0.0776316 0
0.12937 -0.0752632 0
0.126469 -0.0728947 0
0.123568 -0.0705263 0
0.120667 -0.0681579 0
0.117766 -0.0657895 0
0.114865 -0.0634211 0
0.111965 -0.0610526 0
0.109064 -0.0586842 0
0.106163 -0.0563158 0
0.103262 -0.0539474 0
0.100361 -0.0515789 0
0.0974602 -0.0492105 0
0.0945593 -0.0468421 0
0.0916584 -0.0444737 0
0.0887575 -0.0421053 0
0.0858567 -0.0397368 0
0.0829558 -0.0373684 0
0.0782695 -0.0321179 0
0.0764517 -0.0292561 0
0.0746002 -0.026416 0
0.072713 -0.0235995 0
0.0707885 -0.0208084 0
0.0688248 -0.0180447 0
0.0668197 -0.0153109 0
0.064771 -0.0126096 0
0.0626765 -0.00994373 0
0.0605336 -0.00731663 0
0.0583395 -0.00473208 0
0.0560914 -0.00219437 0
0.0537863 0.000291632 0
0.051421 0.00272041 0
0.0489922 0.00508564 0
0.0464964 0.00738012 0
0.0439303 0.00959562 0
0.0412905 0.0117228 0
0.038574 0.0137509 0
0.035778 0.0156678 0
0.0329005 0.0174601 0
0.0299406 0.0191127 0
0.0268988 0.020609 0
0.0237776 0.0219317 0
0.0205821 0.0230627 0
0.0173201 0.0239842 0
0.0140027 0.0246801 0
0.010644 0.0251366 0
0.00726082 0.0253442 0
0.0038716 0.0252983 0
-0.00344171 0.0239286 0
-0.00737862 0.0228571 0
-0.0113155 0.0217857 0
-0.0152525 0.0207143 0
-0.0191894 0.0196429 0
-0.0231263 0.0185714 0
-0.0270632 0.0175 0
-0.0310001 0.0164286 0
-0.034937 0.0153571 0
-0.0388739 0.0142857 0
-0.0428108 0.0132143 0
-0.0467478 0.0121429 0
-0.0506847 0.0110714 0
-0.0546216 0.00606309 0
-0.0546216 0.00212617 0
-0.0546216 -0.00181074 0
-0.0546216 -0.00574766 0
-0.0546216 -0.00968457 0
-0.0546216 -0.0136215 0
-0.0546216 -0.0175584 0
-0.0546216 -0.0214953 0
-0.0546216 -0.0254322 0
-0.0546216 -0.0293691 0
-0.0546216 -0.0333061 0
-0.0546216 -0.037243 0
-0.0546216 -0.0411799 0
-0.0506847 -0.0440454 -0.00551168
-0.0467478 -0.0429739 -0.00551168
-0.0428108 -0.0419025 -0.00551168
-0.0388739 -0.0408311 -0.00551168
-0.034937 -0.0397597 -0.00551168
-0.0310001 -0.0386882 -0.00551168
-0.0270632 -0.0376168 -0.00551168
-0.0231263 -0.0365454 -0.00551168
-0.0191894 -0.0354739 -0.00551168
-0.0152525 -0.0344025 -0.00551168
-0.0113155 -0.0333311 -0.00551168
-0.00737862 -0.0322597 -0.00551168
-0.00344171 -0.0311882 -0.00551168
0.0038716 -0.0298185 -0.00551168
0.00726082 -0.0297726 -0.00551168
0.010644 -0.0299802 -0.00551168
0.0140027 -0.0304367 -0.00551168
0.0173201 -0.0311326 -0.00551168
0.0205821 -0.0320541 -0.00551168
0.0237776 -0.0331851 -0.00551168
0.0268988 -0.0345078 -0.00551168
0.0299406 -0.0360041 -0.00551168
0.0329005 -0.0376567 -0.00551168
0.035778 -0.039449 -0.00551168
0.038574 -0.0413659 -0.00551168
0.0412905 -0.043394 -0.00551168
0.0439303 -0.0455212 -0.00551168
0.0464964 -0.0477367 -0.00551168
0.0489922 -0.0500312 -0.00551168
0.051421 -0.0523964 -0.00551168
0.0537863 -0.0548252 -0.00551168
0.0560914 -0.0573112 -0.00551168
0.0583395 -0.0598489 -0.00551168
0.0605336 -0.0624334 -0.00551168
0.0626765 -0.0650605 -0.00551168
0.064771 -0.0677264 -0.00551168
0.0668197 -0.0704277 -0.00551168
0.0688248 -0.0731615 -0.00551168
0.0707885 -0.0759252 -0.00551168
0.072713 -0.0787163 -0.00551168
0.0746002 -0.0815329 -0.00551168
0.0764517 -0.0843729 -0.00551168
0.0782695 -0.0872347 -0.00551168
0.0829558 -0.0924852 -0.00551168
0.0858567 -0.0948536 -0.00551168
0.0887575 -0.0972221 -0.00551168
0.0916584 -0.0995905 -0.00551168
0.0945593 -0.101959 -0.00551168
0.0974602 -0.104327 -0.00551168
0.100361 -0.106696 -0.00551168
0.103262 -0.109064 -0.00551168
0.106163 -0.111433 -0.00551168
0.109064 -0.113801 -0.00551168
0.111965 -0.116169 -0.00551168
0.114865 -0.118538 -0.00551168
0.117766 -0.120906 -0.00551168
0.120667 -0.123275 -0.00551168
0.123568 -0.125643 -0.00551168
0.126469 -0.128012 -0.00551168
0.12937 -0.13038 -0.00551168
0.132271 -0.132748 -0.00551168
0.135172 -0.13118 -0.00551168
0.135172 -0.127243 -0.00551168
0.135172 -0.123306 -0.00551168
0.135172 -0.119369 -0.00551168
0.135172 -0.115432 -0.00551168
0.135172 -0.111495 -0.00551168
0.135172 -0.107558 -0.00551168
0.135172 -0.103621 -0.00551168
0.135172 -0.0996846 -0.00551168
0.135172 -0.0957477 -0.00551168
0.135172 -0.0918107 -0.00551168
0.135172 -0.0878738 -0.00551168
0.135172 -0.0839369 -0.00551168
0.132271 -0.0776316 -0.00551168
0.12937 -0.0752632 -0.00551168
0.126469 -0.0728947 -0.00551168
0.123568 -0.0705263 -0.00551168
0.120667 -0.0681579 -0.00551168
0.117766 -0.0657895 -0.00551168
0.114865 -0.0634211 -0.00551168
0.111965 -0.0610526 -0.00551168
0.109064 -0.0586842 -0.00551168
0.106163 -0.0563158 -0.00551168
0.103262 -0.0539474 -0.00551168
0.100361 -0.0515789 -0.00551168
0.0974602 -0.0492105 -0.00551168
0.0945593 -0.0468421 -0.00551168
0.0916584 -0.0444737 -0.00551168
0.0887575 -0.0421053 -0.00551168
0.0858567 -0.0397368 -0.00551168
0.0829558 -0.0373684 -0.00551168
0.0782695 -0.0321179 -0.00551168
0.0764517 -0.0292561 -0.00551168
0.0746002 -0.026416 -0.00551168
0.072713 -0.0235995 -0.00551168
0.0707885 -0.0208084 -0.00551168
0.0688248 -0.0180447 -0.00551168
0.0668197 -0.0153109 -0.00551168
0.064771 -0.0126096 -0.00551168
0.0626765 -0.00994373 -0.00551168
0.0605336 -0.00731663 -0.00551168
0.0583395 -0.00473208 -0.00551168
0.0560914 -0.00219437 -0.00551168
0.0537863 0.000291632 -0.00551168
0.051421 0.00272041 -0.00551168
0.0489922 0.00508564 -0.00551168
0.0464964 0.00738012 -0.00551168
0.0439303 0.00959562 -0.00551168
0.0412905 0.0117228 -0.00551168
[...]
CELL_DATA 5930
SCALARS rho float
LOOKUP_TABLE default
0.534042
0.331484
0.524866
0.318893
0.542169
0.33926
0.533953
0.331982
0.338197
0.525849
0.318602
0.329384
0.425694
0.536527
0.518094
0.517122
0.527203
0.516859
0.545027
0.528903
0.534069
0.320875
0.509673
0.537678
0.535532
0.547648
0.458668
0.479967
0.323258
0.505417
0.50214
0.330342
0.552653
0.529681
0.281117
0.339261
0.528801
0.533555
0.309982
0.505996
0.529939
0.502897
0.53449
0.32862
0.329402
0.533281
0.458877
0.471073
0.311486
0.53406
0.389906
0.318422
0.331017
0.425121
0.320497
0.420205
0.335855
0.31119
0.271921
0.476288
0.515993
0.476918
0.324042
0.54422
0.486932
0.533883
0.534009
0.318112
0.303029
0.331553
0.518605
0.543662
0.534021
0.290309
0.500403
0.409572
0.533905
0.318178
0.323706
0.467795
0.534034
0.32313
0.332108
0.434722
0.481804
0.374152
0.3145
0.272338
0.553554
0.335659
0.309556
0.533209
0.517937
0.514401
0.534038
0.310397
0.45749
0.295064
0.332572
0.325743
0.474528
0.324915
0.33917
0.329774
0.335497
0.528652
0.533889
0.321696
0.309813
0.533922
0.247408
0.391198
0.470169
0.494107
0.303346
0.301796
0.506567
0.455234
0.534108
0.330927
0.534029
0.238432
0.540049
0.541372
0.493683
0.400067
0.326118
0.459426
0.531683
0.267414
0.332839
0.427573
0.532357
0.333279
0.460386
0.32949
0.426721
0.516762
0.554097
0.542163
0.333191
0.516197
0.528009
0.330355
0.280201
0.545515
0.319368
0.54137
0.554513
0.337138
0.33079
0.327374
0.339399
0.321467
0.280499
0.269607
0.533945
0.531873
0.525522
0.540041
0.452308
0.461765
0.407135
0.543074
0.335841
0.533956
0.416069
0.329652
0.534013
0.536094
0.481212
0.299176
0.433349
0.519918
0.547281
0.413687
0.511814
0.35796
0.25973
0.416708
0.335908
0.25953
0.310085
0.300949
0.55481
0.533959
0.326143
0.327041
0.389004
0.331562
0.310734
0.313985
0.450945
0.292566
0.53404
0.463301
0.534443
0.48607
0.439974
0.322363
0.330822
0.31278
0.528406
0.443559
0.533965
0.307332
0.428037
0.534031
0.519834
0.534727
0.49644
0.397533
0.334651
0.337827
0.505894
0.338198
0.460393
0.32302
0.517651
0.331197
0.338208
0.331407
0.458999
0.38189
0.545652
0.284179
0.53397
0.522524
0.320025
0.479676
0.324245
0.280752
0.536237
0.311151
0.533695
0.536176
0.319842
0.531155
0.334177
0.350277
0.372253
0.331219
0.543947
0.522934
0.327402
0.246936
0.526135
0.533886
0.446813
0.505888
0.323997
0.325221
0.533948
0.3281
0.481547
0.275788
0.27243
0.534107
0.533454
0.322998
0.464308
0.325471
0.543132
0.338952
0.5351
0.534084
0.266444
0.472369
0.520658
0.301657
0.331293
0.534152
0.329211
0.550515
0.509808
0.329326
0.515051
0.514884
0.551517
0.531603
0.546543
0.468078
0.529475
0.533849
0.32098
0.316008
0.523446
0.539451
0.332802
0.531682
0.462336
0.32128
0.332497
0.328052
0.477429
0.318722
0.533917
0.480005
0.549961
0.329967
0.483192
0.485437
0.476571
0.53358
0.324753
0.236568
0.545071
0.53393
0.533932
0.317879
0.330141
0.481757
0.29132
0.297112
0.491884
0.533998
0.484691
0.247096
0.323354
0.482319
0.494044
0.325791
0.534239
0.533963
0.328905
0.414356
0.533466
0.514963
0.282677
0.332149
0.534141
0.33319
0.537619
0.363869
0.539895
0.39154
0.369211
0.333715
0.327213
0.302075
0.511395
0.547758
0.526323
0.542984
0.485058
0.47379
0.31337
0.534566
0.547038
0.326839
0.313808
0.534171
0.315495
0.516795
0.472228
0.323585
0.338872
0.330326
0.31693
0.533973
0.339553
0.333972
0.379586
0.326318
0.533486
0.534322
0.47222
0.533918
0.332925
0.531372
0.329903
0.534181
0.316424
0.335426
0.535691
0.465347
0.281269
0.257118
0.532535
0.360382
0.500219
0.51444
0.321502
0.530801
0.280211
0.338844
0.534229
0.296661
0.535983
0.274892
0.379671
0.331492
0.536241
0.468491
0.433949
0.53387
0.298946
0.546477
0.340874
0.306918
0.549096
0.307526
0.540392
0.421216
0.487225
0.278739
0.295311
0.307842
0.279048
0.308
0.336025
0.53009
0.534382
0.53463
0.534062
0.328893
0.538409
0.465941
0.520036
0.25422
0.533375
0.335995
0.484239
0.47564
0.311416
0.53406
0.354439
0.522282
0.316868
0.488167
0.534966
0.306017
0.533044
0.257901
0.537931
0.323954
0.310081
0.415821
0.543257
0.540447
0.397976
0.275499
0.249654
0.416819
0.542795
0.528306
0.533604
0.531686
0.537124
0.310504
0.5138
0.483884
0.311828
0.264507
0.303923
0.49795
0.535961
0.365778
0.379811
0.370648
0.336336
0.528389
0.534919
0.534031
0.548609
0.398075
0.533883
0.535498
0.330454
0.539512
0.345968
0.350769
0.531799
0.534656
0.537305
0.545384
0.323318
0.30885
0.552804
0.530541
0.323177
0.529678
0.501169
0.534618
0.339616
0.318625
0.535664
0.334713
0.453011
0.534787
0.535898
0.32563
0.53349
0.329964
0.329034
0.319535
0.345258
0.533511
0.362854
0.516893
0.283108
0.32264
0.526732
0.338648
0.291219
0.325371
0.275356
0.359019
0.309303
0.324704
0.426675
0.437986
0.317338
0.336492
0.535934
0.333965
0.394981
0.533485
0.533816
0.494564
0.489892
0.43649
0.443773
0.291421
0.373415
0.53368
0.498608
0.274431
0.508344
0.243655
0.291682
0.305948
0.533765
0.551081
0.315855
0.496892
0.532062
0.282785
0.313472
0.541649
0.533966
0.360335
0.543374
0.379793
0.340743
0.541679
0.314725
0.453107
0.52717
0.405986
0.542558
0.311791
0.329759
0.537341
0.368628
0.336711
0.339992
0.326235
0.32368
0.533906
0.539829
0.523186
0.309812
0.256413
0.331899
0.315309
0.530383
0.273708
0.423244
0.313584
0.531683
0.533577
0.305015
0.534083
0.390759
0.490403
0.297965
0.527525
0.533453
0.554103
0.535076
0.534039
0.526019
0.339698
0.425105
0.334047
0.52764
0.314323
0.320259
0.53254
0.533874
0.533468
0.330372
0.324227
0.539027
0.541184
0.304768
0.534407
0.29465
0.307243
0.328108
0.552753
0.538495
0.522706
0.296661
0.299733
0.339808
0.32788
0.537588
0.534002
0.546128
0.329056
0.309342
0.456771
0.547102
0.543626
0.509993
0.533938
0.41256
0.53614
0.541693
0.516881
0.328122
0.536728
0.494946
0.533971
0.536201
0.545705
0.48594
0.380351
0.546255
0.332272
0.544245
0.533872
0.235163
0.53399
0.462729
0.53543
0.30997
0.319509
0.534095
0.300365
0.307889
0.548417
0.300226
0.415754
0.537559
0.287656
0.546346
0.325958
0.492419
0.532934
0.528085
0.501742
0.324374
0.324929
0.521632
0.436668
0.3328
0.480209
0.314681
0.534043
0.32078
0.4594
0.518951
0.534074
0.320889
0.492426
0.336311
0.408819
0.414041
0.329653
0.276857
0.325378
0.53412
0.45864
0.436301
0.309163
0.534108
0.489576
0.309152
0.534067
0.334218
0.456924
0.519301
0.533978
0.537272
0.295415
0.328621
0.53402
0.544565
0.522685
0.489215
0.542773
0.479542
0.465684
0.31279
0.502975
0.388077
0.345157
0.359627
0.53395
0.549362
0.508393
0.393529
0.330087
0.541242
0.330651
0.338963
0.403282
0.314246
0.456034
0.330058
0.533967
0.327354
0.307687
0.41424
0.544698
0.328961
0.307462
0.548901
0.543614
0.551179
0.323061
0.306811
0.538572
0.331994
0.306896
0.329602
0.435936
0.525005
0.267516
0.550513
0.329761
0.505878
0.533796
0.318687
0.407917
0.478058
0.500556
0.494825
0.540806
0.538365
0.544482
0.534986
0.534007
0.327659
0.381211
0.521806
0.293945
0.543337
0.52597
0.2651
0.532022
0.475331
0.512767
0.539368
0.469654
0.531772
0.314053
0.491601
0.331135
0.29946
0.534861
0.534074
0.27433
0.331158
0.531079
0.392369
0.453219
0.29828
0.249258
0.548519
0.516223
0.544084
0.51333
0.462557
0.376635
0.453433
0.316317
0.534037
0.504346
0.495121
0.329925
0.381162
0.544413
0.498092
0.539294
0.137598
0.534071
0.317812
0.321828
0.330581
0.520001
0.521604
0.540602
0.471934
0.331814
0.534041
0.38683
0.545894
0.547138
0.49245
0.322905
0.314564
0.53434
0.33108
0.424714
0.47449
0.30869
0.326005
0.51728
0.542262
0.324509
0.534074
0.532922
0.31888
0.534084
0.535194
0.538535
0.340747
0.333624
0.542084
0.327949
0.339817
0.407767
0.534014
0.32576
0.37661
0.307808
0.297597
0.538068
0.327649
0.322662
0.543131
0.328557
0.325898
0.552759
0.537902
0.534414
0.53394
0.49296
0.328863
0.551494
0.53329
0.316708
0.537133
0.534875
0.533985
0.533988
0.341133
0.534004
0.329355
0.534007
0.323243
0.53397
0.341027
0.518427
0.316316
0.540558
0.545131
0.550102
0.484792
0.534287
0.536807
0.289423
0.533985
0.266107
0.533969
0.538248
0.327606
0.405798
0.314986
0.334443
0.53397
0.361922
0.533495
0.139251
0.505044
0.508907
0.540326
0.397682
0.329842
0.267508
0.320063
0.272074
0.536681
0.364722
0.311784
0.535068
0.331179
0.354247
0.532707
0.533065
0.501218
0.535804
0.255978
0.487201
0.31483
0.534028
0.534491
0.524469
0.292635
0.540411
0.535773
0.541452
0.498196
0.533245
0.382587
0.533925
0.540157
0.442892
0.53422
0.308686
0.518427
0.33792
0.420507
0.519984
0.4905
0.530781
0.4744
0.487469
0.537253
0.311916
0.524041
0.331825
0.331728
0.54064
0.512758
0.478813
0.519996
0.531745
0.534023
0.537218
0.53405
0.534195
0.534463
0.552007
0.336268
0.501765
0.5312
0.321919
0.534136
0.320031
0.471743
0.309981
0.534083
0.321074
0.318251
0.303614
0.469991
0.535081
0.428485
0.516437
0.309467
0.332249
0.53392
0.535277
0.316444
0.5026
0.445765
0.308403
0.50401
0.328359
0.317119
0.534117
0.480242
0.3142
0.518947
0.533141
0.524304
0.330311
0.515841
0.260935
0.533956
0.378517
0.510099
0.328473
0.548076
0.303877
0.330337
0.31491
0.515832
0.302555
0.498048
0.546543
0.470587
0.337412
0.314786
0.542156
0.314274
0.237101
0.328011
0.535557
0.31877
0.320668
0.267351
0.499628
0.341086
0.337311
0.325626
0.533841
0.549307
0.338977
0.538657
0.537929
0.495813
0.324902
0.318737
0.53388
0.315293
0.554642
0.328943
0.531422
0.321818
0.231639
0.514438
0.325366
0.326655
0.328245
0.534109
0.304829
0.44607
0.537245
0.314454
0.516406
0.328083
0.54909
0.418398
0.314728
0.340515
0.535044
0.440838
0.534135
0.31813
0.331768
0.439699
0.533995
0.309283
0.310703
0.327366
0.415938
0.536953
0.334842
0.450155
0.531663
0.53412
0.526252
0.331909
0.535839
0.321862
0.534476
0.534553
0.460722
0.330932
0.490829
0.537619
0.313568
0.537884
0.538122
0.331675
0.325425
0.316988
0.276206
0.542502
0.327646
0.533984
0.382892
0.533987
0.495324
0.374237
0.511196
0.303715
0.480011
0.32259
0.5338
0.533327
0.268742
0.326976
0.324772
0.465691
0.552646
0.318399
0.296559
0.33292
0.451607
0.546633
0.293599
0.319681
0.526046
0.536697
0.527958
0.332132
0.324918
0.524
0.533803
0.31141
0.326431
0.437812
0.549563
0.492598
0.307868
0.534154
0.535076
0.314965
0.538392
0.328089
0.539166
0.313105
0.359237
0.313606
0.282754
0.533677
0.321078
0.325922
0.323758
0.33169
0.483849
0.529385
0.549501
0.311026
0.533964
0.535547
0.535117
0.546736
0.533679
0.547818
0.548587
0.548395
0.5381
0.532811
0.306366
0.487661
0.54931
0.325958
0.540696
0.54465
0.536806
0.53535
0.308305
0.542261
0.534039
0.536654
0.331854
0.506111
0.530062
0.534002
0.529657
0.324741
0.486748
0.334851
0.414386
0.324075
0.3255
0.308009
0.330933
0.534201
0.533252
0.522466
0.322015
0.534672
0.534086
0.537473
0.332899
0.32947
0.519153
0.303488
0.312165
0.311076
0.536507
0.419617
0.534596
0.310119
0.546131
0.533366
0.457207
0.538955
0.326832
0.550048
0.535555
0.51297
0.539323
0.534166
0.52058
0.326195
0.340861
0.329969
0.53381
0.306287
0.534366
0.521026
0.495109
0.335678
0.338777
0.48334
0.541674
0.533932
0.329777
0.525573
0.478646
0.267606
0.534186
0.319286
0.328114
0.308141
0.316354
0.314254
0.539512
0.53569
0.55215
0.443528
0.53294
0.533768
0.517909
0.534122
0.546396
0.548436
0.533705
0.533843
0.326539
0.533944
0.528186
0.426924
0.327487
0.503864
0.300297
0.537268
0.370673
0.539006
0.545445
0.336882
0.536191
0.325486
0.53544
0.532235
0.546996
0.489637
0.516164
0.545494
0.533695
0.336583
0.445422
0.422596
0.253096
0.534257
0.538137
0.443897
0.550592
0.526694
0.53395
0.318905
0.325189
0.527791
0.546183
0.316948
0.196036
0.514802
0.534298
0.534909
0.27097
0.457002
0.513504
0.532864
0.32861
0.534072
0.484476
0.525568
0.505055
0.439824
0.534147
0.300322
0.531254
0.312427
0.312293
0.534145
0.344849
0.34595
0.329301
0.525611
0.5105
0.443073
0.534115
0.431008
0.350544
0.324506
0.542398
0.532477
0.539694
0.489338
0.253641
0.522586
0.432796
0.312493
0.532456
0.540325
0.336042
0.536274
0.529337
0.533963
0.445939
0.533637
0.360943
0.534264
0.531132
0.533622
0.331437
0.525366
0.38618
0.508922
0.533747
0.54472
0.530711
0.534664
0.534629
0.532906
0.518215
0.322801
0.541889
0.510631
0.33227
0.495714
0.536828
0.550968
0.499407
0.312204
0.531098
0.332533
0.545716
0.490139
0.538611
0.32725
0.513383
0.53446
0.534038
0.525455
0.47878
0.534053
0.466675
0.386423
0.329192
0.275866
0.533954
0.334939
0.304314
0.536646
0.317952
0.543825
0.313095
0.536199
0.320813
0.327234
0.521275
0.39532
0.298878
0.530994
0.533262
0.537947
0.337066
0.506616
0.534105
0.531864
0.330546
0.534025
0.534855
0.325317
0.482451
0.462382
0.523248
0.328781
0.391601
0.510408
0.308095
0.537914
0.329956
0.337886
0.533889
0.386152
0.507301
0.3198
0.539794
0.424993
0.534034
0.225029
0.323669
0.533915
0.340382
0.534056
0.336166
0.53451
0.485537
0.466474
0.534063
0.502494
0.262642
0.53489
0.548776
0.531736
0.534021
0.321869
0.327306
0.319961
0.338224
0.533904
0.33875
0.513664
0.323226
0.532661
0.53459
0.533825
0.328908
0.534574
0.321389
0.534757
0.541401
0.348523
0.533762
0.525341
0.313485
0.52184
0.308592
0.336473
0.549191
0.332099
0.543358
0.224803
0.335697
0.512913
0.358143
0.538753
0.330216
0.46141
0.533066
0.530157
0.385818
0.271236
0.329578
0.534001
0.534044
0.338026
0.535219
0.322497
0.532696
0.327574
0.318534
0.468028
0.47468
0.41953
0.495818
0.534118
0.492169
0.473631
0.536109
0.53391
0.329535
0.535037
0.328692
0.336814
0.496133
0.406796
0.395404
0.442518
0.335213
0.514931
0.53407
0.537128
0.323847
0.316802
0.450966
0.505785
0.534438
0.54585
0.317832
0.49962
0.532745
0.507803
0.44008
0.326125
0.326421
0.330392
0.554679
0.537043
0.308083
0.324328
0.436661
0.330243
0.54929
0.513174
0.319343
0.533939
0.404554
0.540763
0.536662
0.322965
0.345183
0.506996
0.318565
0.394266
0.533075
0.274196
0.322474
0.33222
0.508013
0.536157
0.505685
0.339163
0.312565
0.528704
0.535001
0.494529
0.538866
0.3151
0.323664
0.334933
0.497999
0.306466
0.320486
0.537889
0.541628
0.514396
0.328015
0.330234
0.326728
0.534022
0.30277
0.532866
0.533997
0.53024
0.428256
0.534165
0.54918
0.331488
0.330327
0.53562
0.322243
0.465647
0.526114
0.54183
0.437008
0.306862
0.307638
0.541537
0.40332
0.311457
0.534406
0.534085
0.296192
0.326374
0.513404
0.442435
0.328931
0.32725
0.540299
0.490353
0.529051
0.474554
0.354388
0.309485
0.336969
0.380416
0.318953
0.534016
0.528539
0.470301
0.511745
0.333576
0.503971
0.338221
0.533353
0.545711
0.331838
0.264909
0.529737
0.385013
0.472509
0.535125
0.302974
0.53089
0.527975
0.533738
0.534066
0.506236
0.345349
0.318161
0.315311
0.511019
0.533922
0.514169
0.4439
0.333802
0.316277
0.49247
0.335043
0.538356
0.533741
0.533007
0.347368
0.327794
0.464612
0.507269
0.534045
0.526695
0.534216
0.533954
0.535918
0.481801
0.252933
0.534007
0.497842
0.534649
0.316014
0.529846
0.423869
0.528703
0.552053
0.445953
0.491769
0.531776
0.509335
0.53402
0.32794
0.531857
0.550966
0.34044
0.505474
0.303821
0.300407
0.53403
0.534003
0.330958
0.483264
0.533755
0.333565
0.334791
0.556982
0.549889
0.47119
0.348692
0.495638
0.327258
0.542841
0.54886
0.324298
0.454588
0.500415
0.325179
0.317305
0.33905
0.53903
0.532078
0.315899
0.327188
0.338891
0.338589
0.334338
0.501705
0.326469
0.550786
0.535103
0.541697
0.322437
0.53295
0.446558
0.531917
0.443256
0.529459
0.319334
0.302243
0.334047
0.534094
0.32743
0.329443
0.496926
0.338648
0.53406
0.507
0.425158
0.320513
0.320585
0.522629
0.535983
0.527603
0.525464
0.542647
0.317323
0.344749
0.307662
0.509788
0.534782
0.327004
0.51768
0.314124
0.338662
0.534147
0.319992
0.332625
0.261076
0.370789
0.337178
0.534367
0.538324
0.537757
0.337809
0.533727
0.542282
0.326494
0.534354
0.375361
0.539895
0.341038
0.387635
0.53349
0.32764
0.266434
0.529741
0.524114
0.32596
0.546125
0.498449
0.533079
0.398702
0.32023
0.501416
0.534056
0.365662
0.354013
0.422791
0.398576
0.534145
0.328693
0.325179
0.541013
0.515993
0.333158
0.322217
0.531676
0.327394
0.317681
0.322854
0.454795
0.544734
0.319811
0.540033
0.321481
0.304365
0.336836
0.405506
0.330854
0.53942
0.323096
0.331175
0.48116
0.538683
0.35441
0.533961
0.316859
0.327827
0.510436
0.552341
0.523329
0.513054
0.518897
0.546065
0.328076
0.539028
0.299752
0.533964
0.52678
0.410718
0.524782
0.534015
0.533918
0.533785
0.432178
0.335497
0.429731
0.340464
0.502393
0.532427
0.495843
0.324024
0.536059
0.368493
0.533971
0.331236
0.308252
0.556392
0.299901
0.528833
0.551784
0.37702
0.340746
0.331442
0.533638
0.393096
0.269528
0.54057
0.328406
0.525719
0.335728
0.334073
0.318091
0.535223
0.390343
0.534073
0.328759
0.33793
0.534135
0.532666
0.282882
0.358635
0.269049
0.48142
0.331582
0.520611
0.530646
0.533983
0.237888
0.323747
0.450286
0.53076
0.548171
0.532741
0.298953
0.51388
0.537505
0.533968
0.534047
0.31838
0.521792
0.332319
0.44969
0.542571
0.537202
0.529979
0.544599
0.498057
0.532187
0.544077
0.533663
0.522578
0.536428
0.533782
0.535546
0.332604
0.328835
0.534297
0.475807
0.534063
0.533966
0.548156
0.519568
0.545054
0.332415
0.33055
0.534052
0.330267
0.32783
0.330102
0.533972
0.523515
0.533986
0.509816
0.523178
0.313969
0.537814
0.314173
0.316844
0.545648
0.525802
0.524617
0.398921
0.395779
0.327803
0.330894
0.384392
0.305469
0.35766
0.544062
0.302628
0.531239
0.337336
0.539548
0.533054
0.286159
0.330507
0.496963
0.534045
0.335728
0.508955
0.267615
0.317444
0.327854
0.448642
0.535025
0.53404
0.534216
0.243668
0.338543
0.273646
0.331941
0.534005
0.547284
0.538585
0.331825
0.316335
0.533821
0.532788
0.536436
0.304731
0.480888
0.46518
0.543263
0.430009
0.338126
0.337756
0.316534
0.535796
0.326826
0.330956
0.533998
0.329477
0.534248
0.335797
0.345154
0.399186
0.333111
0.545588
0.534047
0.534285
0.44478
0.554119
0.510391
0.475755
0.331122
0.507709
0.530129
0.50974
0.536456
0.532777
0.53966
0.425043
0.532651
0.535352
0.331552
0.339172
0.549007
0.400365
0.533466
0.329514
0.546058
0.362559
0.526118
0.534445
0.508476
0.533068
0.539015
0.515191
0.308539
0.332598
0.537444
0.546868
0.533322
0.433503
0.544273
0.44643
0.494121
0.533746
0.472201
0.464
0.540425
0.533973
0.329787
0.31406
0.534461
0.502208
0.328736
0.335516
0.423356
0.534053
0.533982
0.550451
0.334959
0.524564
0.301706
0.536696
0.327699
0.544482
0.293583
0.549126
0.338527
0.531404
0.445372
0.331282
0.306304
0.471089
0.329638
0.485208
0.316652
0.534131
0.534045
0.530346
0.52789
0.53415
0.534953
0.533838
0.549704
0.541519
0.501854
0.51575
0.496219
0.538305
0.321712
0.500618
0.499474
0.532632
0.311665
0.497946
0.545387
0.533913
0.332372
0.321528
0.332049
0.544185
0.497945
0.325046
0.500401
0.391098
0.534104
0.313492
0.412102
0.329507
0.303188
0.552824
0.325312
0.508432
0.326853
0.551192
0.334051
0.534116
0.502692
0.52923
0.338794
0.337609
0.352969
0.515924
0.326949
0.351277
0.323203
0.540511
0.518887
0.544303
0.523246
0.530815
0.51152
0.383291
0.335483
0.530843
0.325306
0.447949
0.527052
0.549906
0.225095
0.317341
0.522927
0.533899
0.408955
0.525056
0.534978
0.51845
0.329725
0.542857
0.520119
0.532011
0.533316
0.323874
0.534022
0.326124
0.532124
0.542196
0.504843
0.533256
0.346955
0.537387
0.2252
0.360332
0.500388
0.508034
0.529714
0.451599
0.329948
0.532143
0.535964
0.323206
0.321115
0.300321
0.54832
0.328579
0.330107
0.32906
0.32764
0.31215
0.369265
0.542557
0.304879
0.539655
0.523984
0.327553
0.535749
0.30747
0.547697
0.304747
0.46121
0.325308
0.527259
0.534549
0.398933
0.497475
0.534094
0.521025
0.323523
0.480367
0.430472
0.310713
0.324836
0.405289
0.306355
0.544294
0.301154
0.310996
0.323263
0.534045
0.528291
0.315336
0.320355
0.545175
0.327305
0.32243
0.533986
0.329773
0.322207
0.343974
0.551367
0.503422
0.547387
0.327014
0.291617
0.538371
0.5182
0.533893
0.396501
0.508136
0.529848
0.41521
0.402785
0.327364
0.325576
0.237624
0.493037
0.304958
0.546587
0.512788
0.53306
0.332153
0.410282
0.419951
0.556352
0.298239
0.482742
0.241724
0.492127
0.32228
0.280842
0.291298
0.537424
0.315416
0.550815
0.336631
0.380185
0.327488
0.472104
0.315334
0.543461
0.330429
0.504439
0.487471
0.327406
0.53437
0.534344
0.316499
0.547785
0.341536
0.329409
0.542376
0.301273
0.515614
0.352581
0.235378
0.533575
0.320575
0.352015
0.338506
0.334579
0.320394
0.515506
0.435795
0.528549
0.547203
0.528348
0.543251
0.411453
0.537929
0.29783
0.534708
0.329681
0.52651
0.319605
0.389075
0.525221
0.548776
0.535256
0.354159
0.44016
0.326179
0.340462
0.340516
0.2326
0.537171
0.410185
0.546765
0.533578
0.484992
0.539028
0.5347
0.393809
0.32688
0.366394
0.541338
0.484798
0.502363
0.534283
0.551474
0.41742
0.287928
0.340528
0.543894
0.364694