# vtk DataFile Version 1.0
unstructured grid
ascii
DATASET UNSTRUCTURED_GRID
points 3226 float
0.0796578 -0.059106 0
0.00128732 0.00159165 0
0.00227961 -0.00102548 0
0.0791586 -0.0598787 0
-0.0546216 0.01 0
0.000495206 0.025 0
0.0800549 -0.035 0
0.135172 -0.08 0
-0.0546216 -0.0451168 0
0.000495206 -0.0301168 0
0.0800549 -0.0901168 0
0.135172 -0.135117 0
-0.0546216 -0.0451168 -0.00551168
0.000495206 -0.0301168 -0.00551168
0.0800549 -0.0901168 -0.00551168
0.135172 -0.135117 -0.00551168
0.135172 -0.08 -0.00551168
0.0800549 -0.035 -0.00551168
0.000495206 0.025 -0.00551168
-0.0546216 0.01 -0.00551168
0.00128732 0.00159165 -0.00551168
0.00227961 -0.00102548 -0.00551168
0.0791586 -0.0598787 -0.00551168
0.0796578 -0.059106 -0.00551168
0.00110182 -0.000823821 0
0.000571683 -0.000188043 0
0.000561313 0.000639162 0
0.00189316 0.00207203 0
0.00260228 0.00255358 0
0.0033966 0.00307293 0
0.00428861 0.00362634 0
0.00529726 0.0041979 0
0.00644092 0.00476696 0
0.00773158 0.0053187 0
0.00918011 0.00583593 0
0.010799 0.00628751 0
0.012597 0.00663225 0
0.0145725 0.0068517 0
0.0167206 0.0069338 0
0.0190349 0.00685819 0
0.0215031 0.00658621 0
0.0241038 0.00607459 0
0.026821 0.00533786 0
0.0296245 0.00434523 0
0.0324763 0.00306927 0
0.0353199 0.00146906 0
0.0381488 -0.00039338 0
0.0409131 -0.00252802 0
0.0435632 -0.00493276 0
0.0460882 -0.0075571 0
0.0484881 -0.0103478 0
0.0506782 -0.0133217 0
0.0526651 -0.016422 0
0.0546139 -0.0195019 0
0.0565301 -0.022529 0
0.0584009 -0.0254846 0
0.0602154 -0.0283513 0
0.061964 -0.031114 0
0.0636389 -0.0337601 0
0.0652336 -0.0362795 0
0.0667431 -0.0386651 0
0.0681656 -0.0409111 0
0.0694983 -0.0430158 0
0.0707356 -0.0449823 0
0.071886 -0.0468071 0
0.0729575 -0.04849 0
0.0739438 -0.0500408 0
0.0748444 -0.0514675 0
0.0756707 -0.0527715 0
0.0764313 -0.053958 0
0.0771224 -0.0550398 0
0.0777384 -0.0560288 0
0.0782803 -0.0569318 0
0.0787691 -0.0577448 0
0.0792251 -0.0584672 0
0.0800494 -0.0597378 0
0.0797987 -0.0601582 0
0.0786655 -0.059391 0
0.0781259 -0.0588425 0
0.0775539 -0.0582102 0
0.0769587 -0.0574783 0
0.0763492 -0.0566339 0
0.075723 -0.0556725 0
0.0750452 -0.0546094 0
0.0742996 -0.0534457 0
0.073478 -0.0521785 0
0.072577 -0.0508019 0
0.0715904 -0.049313 0
0.0705098 -0.047712 0
0.069328 -0.0459996 0
0.0680378 -0.0441794 0
0.066632 -0.0422571 0
0.0651046 -0.0402413 0
0.0634508 -0.0381431 0
0.0616683 -0.0359754 0
0.0597581 -0.033753 0
0.0577255 -0.0314906 0
0.0555808 -0.0292024 0
0.0533388 -0.0269013 0
0.0510024 -0.0246151 0
0.0485693 -0.0223811 0
0.0460535 -0.0202228 0
0.0434788 -0.0181535 0
0.0408704 -0.0161833 0
0.0382442 -0.0143327 0
0.0356165 -0.0126209 0
0.0330065 -0.0110594 0
0.0304368 -0.00965062 0
0.0279338 -0.00838121 0
0.0255194 -0.00723697 0
0.0231965 -0.00623664 0
0.020983 -0.00535765 0
0.0188891 -0.00458677 0
0.0169193 -0.00391673 0
0.0150754 -0.00334068 0
0.0133572 -0.00285262 0
0.0117634 -0.0024437 0
0.0102912 -0.00210643 0
0.0089363 -0.00183343 0
0.00769424 -0.00161552 0
0.00655956 -0.00144452 0
0.00552632 -0.00131235 0
0.00458815 -0.00121216 0
0.00373885 -0.00113394 0
0.00297202 -0.00106855 0
-0.0506847 -0.0440454 0
-0.0467478 -0.0429739 0
-0.0428108 -0.0419025 0
-0.0388739 -0.0408311 0
-0.034937 -0.0397597 0
-0.0310001 -0.0386882 0
-0.0270632 -0.0376168 0
-0.0231263 -0.0365454 0
-0.0191894 -0.0354739 0
-0.0152525 -0.0344025 0
-0.0113155 -0.0333311 0
-0.00737862 -0.0322597 0
-0.00344171 -0.0311882 0
0.0038716 -0.0298185 0
0.00726082 -0.0297726 0
0.010644 -0.0299802 0
0.0140027 -0.0304367 0
0.0173201 -0.0311326 0
0.0205821 -0.0320541 0
0.0237776 -0.0331851 0
0.0268988 -0.0345078 0
0.0299406 -0.0360041 0
0.0329005 -0.0376567 0
0.035778 -0.039449 0
0.038574 -0.0413659 0
0.0412905 -0.043394 0
0.0439303 -0.0455212 0
0.0464964 -0.0477367 0
0.0489922 -0.0500312 0
0.051421 -0.0523964 0
0.0537863 -0.0548252 0
0.0560914 -0.0573112 0
0.0583395 -0.0598489 0
0.0605336 -0.0624334 0
0.0626765 -0.0650605 0
0.064771 -0.0677264 0
0.0668197 -0.0704277 0
0.0688248 -0.0731615 0
0.0707885 -0.0759252 0
0.072713 -0.0787163 0
0.0746002 -0.0815329 0
0.0764517 -0.0843729 0
0.0782695 -0.0872347 0
0.0829558 -0.0924852 0
0.0858567 -0.0948536 0
0.0887575 -0.0972221 0
0.0916584 -0.0995905 0
0.0945593 -0.101959 0
0.0974602 -0.104327 0
0.100361 -0.106696 0
0.103262 -0.109064 0
0.106163 -0.111433 0
0.109064 -0.113801 0
0.111965 -0.116169 0
0.114865 -0.118538 0
0.117766 -0.120906 0
0.120667 -0.123275 0
0.123568 -0.125643 0
0.126469 -0.128012 0
0.12937 -0.13038 0
0.132271 -0.132748 0
0.135172 -0.13118 0
0.135172 -0.127243 0
0.135172 -0.123306 0
0.135172 -0.119369 0
0.135172 -0.115432 0
0.135172 -0.111495 0
0.135172 -0.107558 0
0.135172 -0.103621 0
0.135172 -0.0996846 0
0.135172 -0.0957477 0
0.135172 -0.0918107 0
0.135172 -0.0878738 0
0.135172 -0.0839369 0
0.132271 -0.0776316 0
0.12937 -0.0752632 0
0.126469 -0.0728947 0
0.123568 -0.0705263 0
0.120667 -0.0681579 0
0.117766 -0.0657895 0
0.114865 -0.0634211 0
0.111965 -0.0610526 0
0.109064 -0.0586842 0
0.106163 -0.0563158 0
0.103262 -0.0539474 0
0.100361 -0.0515789 0
0.0974602 -0.0492105 0
0.0945593 -0.0468421 0
0.0916584 -0.0444737 0
0.0887575 -0.0421053 0
0.0858567 -0.0397368 0
0.0829558 -0.0373684 0
0.0782695 -0.0321179 0
0.0764517 -0.0292561 0
0.0746002 -0.026416 0
0.072713 -0.0235995 0
0.0707885 -0.0208084 0
0.0688248 -0.0180447 0
0.0668197 -0.0153109 0
0.064771 -0.0126096 0
0.0626765 -0.00994373 0
0.0605336 -0.00731663 0
0.0583395 -0.00473208 0
0.0560914 -0.00219437 0
0.0537863 0.000291632 0
0.051421 0.00272041 0
0.0489922 0.00508564 0
0.0464964 0.00738012 0
0.0439303 0.00959562 0
0.0412905 0.0117228 0
0.038574 0.0137509 0
0.035778 0.0156678 0
0.0329005 0.0174601 0
0.0299406 0.0191127 0
0.0268988 0.020609 0
0.0237776 0.0219317 0
0.0205821 0.0230627 0
0.0173201 0.0239842 0
0.0140027 0.0246801 0
0.010644 0.0251366 0
0.00726082 0.0253442 0
0.0038716 0.0252983 0
-0.00344171 0.0239286 0
-0.00737862 0.0228571 0
-0.0113155 0.0217857 0
-0.0152525 0.0207143 0
-0.0191894 0.0196429 0
-0.0231263 0.0185714 0
-0.0270632 0.0175 0
-0.0310001 0.0164286 0
-0.034937 0.0153571 0
-0.0388739 0.0142857 0
-0.0428108 0.0132143 0
-0.0467478 0.0121429 0
-0.0506847 0.0110714 0
-0.0546216 0.00606309 0
-0.0546216 0.00212617 0
-0.0546216 -0.00181074 0
-0.0546216 -0.00574766 0
-0.0546216 -0.00968457 0
-0.0546216 -0.0136215 0
-0.0546216 -0.0175584 0
-0.0546216 -0.0214953 0
-0.0546216 -0.0254322 0
-0.0546216 -0.0293691 0
-0.0546216 -0.0333061 0
-0.0546216 -0.037243 0
-0.0546216 -0.0411799 0
-0.0506847 -0.0440454 -0.00551168
-0.0467478 -0.0429739 -0.00551168
-0.0428108 -0.0419025 -0.00551168
-0.0388739 -0.0408311 -0.00551168
-0.034937 -0.0397597 -0.00551168
-0.0310001 -0.0386882 -0.00551168
-0.0270632 -0.0376168 -0.00551168
-0.0231263 -0.0365454 -0.00551168
-0.0191894 -0.0354739 -0.00551168
-0.0152525 -0.0344025 -0.00551168
-0.0113155 -0.0333311 -0.00551168
-0.00737862 -0.0322597 -0.00551168
-0.00344171 -0.0311882 -0.00551168
0.0038716 -0.0298185 -0.00551168
0.00726082 -0.0297726 -0.00551168
0.010644 -0.0299802 -0.00551168
0.0140027 -0.0304367 -0.00551168
0.0173201 -0.0311326 -0.00551168
0.0205821 -0.0320541 -0.00551168
0.0237776 -0.0331851 -0.00551168
0.0268988 -0.0345078 -0.00551168
0.0299406 -0.0360041 -0.00551168
0.0329005 -0.0376567 -0.00551168
0.035778 -0.039449 -0.00551168
0.038574 -0.0413659 -0.00551168
0.0412905 -0.043394 -0.00551168
0.0439303 -0.0455212 -0.00551168
0.0464964 -0.0477367 -0.00551168
0.0489922 -0.0500312 -0.00551168
0.051421 -0.0523964 -0.00551168
0.0537863 -0.0548252 -0.00551168
0.0560914 -0.0573112 -0.00551168
0.0583395 -0.0598489 -0.00551168
0.0605336 -0.0624334 -0.00551168
0.0626765 -0.0650605 -0.00551168
0.064771 -0.0677264 -0.00551168
0.0668197 -0.0704277 -0.00551168
0.0688248 -0.0731615 -0.00551168
0.0707885 -0.0759252 -0.00551168
0.072713 -0.0787163 -0.00551168
0.0746002 -0.0815329 -0.00551168
0.0764517 -0.0843729 -0.00551168
0.0782695 -0.0872347 -0.00551168
0.0829558 -0.0924852 -0.00551168
0.0858567 -0.0948536 -0.00551168
0.0887575 -0.0972221 -0.00551168
0.0916584 -0.0995905 -0.00551168
0.0945593 -0.101959 -0.00551168
0.0974602 -0.104327 -0.00551168
0.100361 -0.106696 -0.00551168
0.103262 -0.109064 -0.00551168
0.106163 -0.111433 -0.00551168
0.109064 -0.113801 -0.00551168
0.111965 -0.116169 -0.00551168
0.114865 -0.118538 -0.00551168
0.117766 -0.120906 -0.00551168
0.120667 -0.123275 -0.00551168
0.123568 -0.125643 -0.00551168
0.126469 -0.128012 -0.00551168
0.12937 -0.13038 -0.00551168
0.132271 -0.132748 -0.00551168
0.135172 -0.13118 -0.00551168
0.135172 -0.127243 -0.00551168
0.135172 -0.123306 -0.00551168
0.135172 -0.119369 -0.00551168
0.135172 -0.115432 -0.00551168
0.135172 -0.111495 -0.00551168
0.135172 -0.107558 -0.00551168
0.135172 -0.103621 -0.00551168
0.135172 -0.0996846 -0.00551168
0.135172 -0.0957477 -0.00551168
0.135172 -0.0918107 -0.00551168
0.135172 -0.0878738 -0.00551168
0.135172 -0.0839369 -0.00551168
0.132271 -0.0776316 -0.00551168
0.12937 -0.0752632 -0.00551168
0.126469 -0.0728947 -0.00551168
0.123568 -0.0705263 -0.00551168
0.120667 -0.0681579 -0.00551168
0.117766 -0.0657895 -0.00551168
0.114865 -0.0634211 -0.00551168
0.111965 -0.0610526 -0.00551168
0.109064 -0.0586842 -0.00551168
0.106163 -0.0563158 -0.00551168
0.103262 -0.0539474 -0.00551168
0.100361 -0.0515789 -0.00551168
0.0974602 -0.0492105 -0.00551168
0.0945593 -0.0468421 -0.00551168
0.0916584 -0.0444737 -0.00551168
0.0887575 -0.0421053 -0.00551168
0.0858567 -0.0397368 -0.00551168
0.0829558 -0.0373684 -0.00551168
0.0782695 -0.0321179 -0.00551168
0.0764517 -0.0292561 -0.00551168
0.0746002 -0.026416 -0.00551168
0.072713 -0.0235995 -0.00551168
0.0707885 -0.0208084 -0.00551168
0.0688248 -0.0180447 -0.00551168
0.0668197 -0.0153109 -0.00551168
0.064771 -0.0126096 -0.00551168
0.0626765 -0.00994373 -0.00551168
0.0605336 -0.00731663 -0.00551168
0.0583395 -0.00473208 -0.00551168
0.0560914 -0.00219437 -0.00551168
0.0537863 0.000291632 -0.00551168
0.051421 0.00272041 -0.00551168
0.0489922 0.00508564 -0.00551168
0.0464964 0.00738012 -0.00551168
0.0439303 0.00959562 -0.00551168
0.0412905 0.0117228 -0.00551168
[...]
CELL_DATA 2965
SCALARS rho float
LOOKUP_TABLE default
0.532411
0.36232
0.568975
0.328506
0.601922
0.373418
0.541989
0.359514
0.379456
0.571183
0.330378
0.34512
0.454468
0.584315
0.559952
0.573509
0.586584
0.60069
0.606512
0.588488
0.532391
0.331587
0.600909
0.625917
0.588794
0.617435
0.475005
0.549777
0.330076
0.533536
0.533335
0.363534
0.606757
0.57519
0.276776
0.371831
0.584649
0.584998
0.318728
0.534914
0.584294
0.539525
0.541484
0.353907
0.368212
0.56073
0.496172
0.547269
0.306563
0.536881
0.394562
0.327125
0.367604
0.438267
0.327798
0.430814
0.360284
0.335174
0.268169
0.519097
0.556589
0.553307
0.327741
0.603135
0.571093
0.551155
0.542401
0.338844
0.323476
0.338294
0.600211
0.608758
0.542324
0.328696
0.531547
0.433387
0.535237
0.327621
0.343751
0.496104
0.544903
0.327381
0.365925
0.463776
0.56769
0.377878
0.359904
0.279413
0.629783
0.362906
0.319682
0.553184
0.588249
0.547788
0.543021
0.319014
0.501395
0.362934
0.338327
0.341949
0.517972
0.33926
0.337919
0.372421
0.339742
0.592531
0.534885
0.362238
0.337429
0.537514
0.326525
0.415894
0.492197
0.569148
0.324747
0.333461
0.605986
0.489854
0.534932
0.341293
0.545671
0.237682
0.605248
0.602671
0.584741
0.407808
0.343302
0.519028
0.575996
0.265013
0.339284
0.440496
0.583409
0.338812
0.47758
0.375964
0.460435
0.585716
0.603547
0.602886
0.33885
0.574367
0.580701
0.338393
0.27927
0.606346
0.324127
0.600511
0.605815
0.376161
0.336741
0.331039
0.337858
0.325489
0.278325
0.278202
0.540428
0.578585
0.61746
0.62428
0.482569
0.488616
0.418154
0.596812
0.358278
0.542259
0.43884
0.355649
0.53782
0.581566
0.510084
0.292173
0.44854
0.572916
0.605388
0.445338
0.544259
0.366443
0.278814
0.427141
0.366383
0.280036
0.318897
0.298764
0.604795
0.542075
0.330831
0.343138
0.393519
0.338515
0.319471
0.331778
0.495842
0.289715
0.541084
0.484309
0.587251
0.557796
0.456647
0.341176
0.358256
0.332752
0.59546
0.487863
0.544593
0.366578
0.442943
0.540642
0.60421
0.600861
0.569087
0.407702
0.35622
0.374647
0.557028
0.368626
0.502024
0.353927
0.570384
0.337962
0.379574
0.349457
0.479757
0.386241
0.617248
0.3591
0.545417
0.564157
0.338076
0.509019
0.345351
0.314437
0.587428
0.321462
0.539634
0.586797
0.333879
0.574565
0.338551
0.368389
0.382895
0.335658
0.603259
0.560495
0.341336
0.332229
0.578223
0.530227
0.481241
0.554251
0.34612
0.327999
0.54047
0.373598
0.581578
0.297763
0.31177
0.53558
0.536427
0.337165
0.526589
0.341892
0.609089
0.368016
0.580618
0.535879
0.263498
0.494248
0.562799
0.362808
0.336476
0.598087
0.339713
0.610106
0.561794
0.342858
0.595544
0.565834
0.618024
0.585822
0.603592
0.555972
0.597418
0.53071
0.328908
0.364527
0.616364
0.601995
0.343957
0.595642
0.481465
0.366156
0.364138
0.359951
0.499936
0.358859
0.534572
0.507089
0.619561
0.336688
0.509987
0.547291
0.507579
0.533842
0.328421
0.235243
0.608471
0.538326
0.535392
0.325948
0.346506
0.514302
0.327847
0.313166
0.598197
0.545484
0.563789
0.30508
0.335521
0.525647
0.590784
0.346855
0.530375
0.544253
0.342657
0.453793
0.54599
0.549372
0.315411
0.339146
0.532985
0.377213
0.598559
0.368663
0.604213
0.399795
0.381222
0.363784
0.342067
0.321528
0.600232
0.616282
0.596158
0.597506
0.551932
0.494155
0.343505
0.546864
0.60484
0.338886
0.331775
0.531886
0.323388
0.588997
0.562367
0.335826
0.338555
0.36291
0.335061
0.544603
0.339736
0.345757
0.382901
0.345916
0.563918
0.535537
0.491555
0.536955
0.336718
0.610623
0.340772
0.531922
0.329079
0.364637
0.598696
0.502794
0.310357
0.254274
0.590043
0.376187
0.535356
0.569258
0.328523
0.588709
0.294166
0.363405
0.52972
0.327111
0.590071
0.301326
0.383197
0.357874
0.597137
0.491762
0.451816
0.529726
0.291742
0.603809
0.356315
0.325713
0.607092
0.337076
0.591011
0.431519
0.529127
0.279288
0.314768
0.326647
0.287615
0.325193
0.377348
0.574484
0.551362
0.540499
0.537396
0.375738
0.59647
0.48611
0.605915
0.28629
0.531445
0.362055
0.558575
0.557404
0.331771
0.541543
0.364693
0.565965
0.33846
0.527733
0.597128
0.336438
0.61422
0.256
0.603575
0.360282
0.336472
0.425022
0.599621
0.606404
0.432649
0.307596
0.248021
0.429413
0.598838
0.59559
0.569461
0.594379
0.588112
0.334882
0.548538
0.543258
0.339105
0.33352
0.36284
0.526165
0.577004
0.367354
0.389417
0.374957
0.37861
0.596115
0.552402
0.53842
0.60793
0.406058
0.529554
0.563263
0.338485
0.605136
0.349404
0.361762
0.613584
0.536448
0.599172
0.603298
0.333134
0.337577
0.606114
0.597013
0.334491
0.590047
0.530324
0.535938
0.377309
0.380801
0.566699
0.338102
0.477001
0.539601
0.572606
0.336464
0.547328
0.333903
0.342869
0.349895
0.365149
0.543245
0.36797
0.596506
0.286286
0.336618
0.594622
0.367117
0.285577
0.337935
0.270955
0.360212
0.336742
0.349656
0.442028
0.455657
0.324505
0.376863
0.583945
0.337406
0.415579
0.539425
0.530265
0.596374
0.578772
0.489225
0.467011
0.326728
0.377209
0.535873
0.557331
0.334354
0.572445
0.330034
0.286707
0.336124
0.59742
0.617068
0.331115
0.597942
0.582135
0.280849
0.334232
0.594797
0.538443
0.361583
0.597719
0.400461
0.338662
0.59427
0.330872
0.492275
0.570321
0.444584
0.600553
0.32953
0.379765
0.595856
0.38695
0.369586
0.376813
0.368244
0.341555
0.529522
0.605945
0.596551
0.337913
0.253798
0.337015
0.33065
0.591057
0.328576
0.452956
0.33036
0.598586
0.595311
0.318351
0.537556
0.396291
0.584822
0.291947
0.598234
0.578867
0.607892
0.579713
0.536185
0.599625
0.378207
0.466584
0.369903
0.573563
0.325339
0.364764
0.562508
0.533684
0.530051
0.332677
0.32561
0.600186
0.604225
0.319883
0.555264
0.328836
0.304551
0.354108
0.607231
0.606996
0.563173
0.318559
0.2935
0.370935
0.33051
0.594868
0.541105
0.604388
0.331913
0.333787
0.47818
0.605244
0.598234
0.58423
0.53863
0.420929
0.598444
0.606473
0.602305
0.350105
0.60038
0.55172
0.542604
0.579863
0.602021
0.586834
0.383818
0.614472
0.36959
0.606145
0.533967
0.295974
0.541412
0.486604
0.600855
0.337531
0.333455
0.529438
0.299648
0.336851
0.608448
0.299476
0.427126
0.59507
0.286721
0.609545
0.359495
0.516953
0.55647
0.59463
0.598179
0.335357
0.34971
0.573506
0.478292
0.363073
0.504119
0.312042
0.533373
0.333964
0.490101
0.598647
0.538754
0.327353
0.530757
0.375864
0.418336
0.439766
0.336266
0.273323
0.334906
0.534171
0.476197
0.448865
0.327494
0.535631
0.570515
0.328225
0.534997
0.338774
0.483948
0.554757
0.545719
0.586965
0.292389
0.363753
0.535674
0.617428
0.561194
0.565387
0.599978
0.518436
0.495713
0.32563
0.533269
0.393414
0.34837
0.36214
0.537785
0.60749
0.605519
0.401335
0.333667
0.594971
0.33857
0.360309
0.423926
0.337231
0.479397
0.355465
0.542583
0.35041
0.318642
0.430013
0.611361
0.342116
0.304876
0.606921
0.614646
0.611104
0.358857
0.302705
0.602732
0.349436
0.302624
0.365986
0.449119
0.600451
0.266229
0.608328
0.343876
0.542636
0.553145
0.33719
0.443219
0.502714
0.548488
0.601892
0.608686
0.602322
0.611683
0.583942
0.54472
0.379027
0.405548
0.595067
0.366633
0.609124
0.568895
0.286825
0.585829
0.5603
0.619857
0.590274
0.562174
0.581579
0.31119
0.554307
0.337715
0.30037
0.56619
0.535167
0.326308
0.339103
0.597269
0.409771
0.512637
0.353068
0.246728
0.606588
0.565354
0.614159
0.611149
0.550246
0.387131
0.481594
0.356112
0.543239
0.566873
0.563037
0.345367
0.387201
0.608568
0.565165
0.60615
0.135714
0.537423
0.323158
0.349795
0.336484
0.594744
0.603241
0.598001
0.492575
0.338941
0.534652
0.392709
0.602824
0.610083
0.563069
0.330641
0.322846
0.530616
0.337279
0.441623
0.545172
0.337644
0.340262
0.556298
0.596265
0.336501
0.538865
0.545833
0.329148
0.537789
0.559813
0.603957
0.381532
0.354667
0.594919
0.343701
0.338838
0.418599
0.531239
0.375116
0.384244
0.338428
0.294932
0.590856
0.349573
0.330594
0.611562
0.341208
0.327363
0.628418
0.602942
0.5915
0.538183
0.578817
0.354609
0.608891
0.539979
0.329075
0.609715
0.613014
0.542764
0.544675
0.381503
0.537163
0.377755
0.539182
0.334619
0.533657
0.336417
0.561656
0.329022
0.593469
0.61005
0.608343
0.513946
0.529434
0.590168
0.281403
0.538089
0.290752
0.545911
0.596934
0.330732
0.415174
0.330145
0.337051
0.544959
0.36992
0.560769
0.137726
0.548707
0.581495
0.603528
0.421339
0.37556
0.336921
0.332156
0.291587
0.596667
0.371534
0.337353
0.551115
0.33932
0.372293
0.587414
0.584107
0.573043
0.595227
0.253265
0.510899
0.330439
0.54461
0.533063
0.562351
0.360601
0.597089
0.59365
0.606883
0.579358
0.590003
0.386901
0.533168
0.591665
0.49794
0.531028
0.332589
0.564694
0.379573
0.463889
0.585387
0.522407
0.585675
0.501108
0.520274
0.588566
0.3233
0.596115
0.33632
0.338511
0.592046
0.572057
0.558965
0.556401
0.579551
0.544685
0.602595
0.5428
0.531509
0.558606
0.606133
0.375604
0.581947
0.593892
0.325387
0.583513
0.361869
0.499877
0.332299
0.529543
0.326397
0.330703
0.323127
0.542962
0.545429
0.440196
0.560247
0.332327
0.338304
0.530625
0.611051
0.338684
0.603008
0.459838
0.337207
0.599462
0.350349
0.341512
0.595294
0.51714
0.319072
0.591709
0.59375
0.605947
0.337396
0.618398
0.335957
0.534998
0.395683
0.547987
0.362785
0.607457
0.317762
0.367212
0.334427
0.616916
0.306913
0.593204
0.604192
0.538083
0.371759
0.330664
0.609357
0.323213
0.236517
0.336777
0.568173
0.319098
0.333809
0.283043
0.532104
0.338186
0.33914
0.375977
0.547328
0.615349
0.36817
0.598436
0.594424
0.557335
0.326469
0.319399
0.580304
0.333495
0.610785
0.326927
0.606163
0.358181
0.334661
0.580272
0.333251
0.328316
0.334701
0.533792
0.306672
0.485186
0.587876
0.321141
0.561955
0.355173
0.607054
0.433404
0.336656
0.338106
0.555044
0.454568
0.529928
0.344885
0.339163
0.489692
0.545802
0.322348
0.332763
0.333389
0.428772
0.589167
0.354753
0.505364
0.575039
0.529064
0.605878
0.336337
0.583167
0.325131
0.58268
0.552411
0.53378
0.338148
0.595592
0.601264
0.337511
0.615157
0.587851
0.338695
0.336208
0.341452
0.337164
0.613312
0.335631
0.533383
0.39238
0.544769
0.52816
0.37729
0.574941
0.320685
0.535331
0.333024
0.531137
0.540873
0.345457
0.344301
0.355788
0.491123
0.605785
0.322847
0.314392
0.369449
0.467234
0.608496
0.371469
0.33133
0.594531
0.58408
0.595238
0.336924
0.378173
0.593815
0.531432
0.334381
0.358605
0.469442
0.608075
0.591786
0.306728
0.529088
0.551001
0.317537
0.59788
0.360428
0.588824
0.311422
0.360113
0.321031
0.28168
0.558345
0.360504
0.331402
0.335515
0.338541
0.574473
0.5774
0.60764
0.336709
0.544538
0.601283
0.571442
0.604007
0.53132
0.608254
0.606495
0.606439
0.592657
0.553726
0.336327
0.544778
0.621588
0.332618
0.594694
0.607629
0.582994
0.55893
0.31811
0.597724
0.542868
0.601753
0.352535
0.617394
0.586824
0.531453
0.581281
0.358944
0.510346
0.374135
0.423756
0.334806
0.336036
0.338005
0.336925
0.530417
0.580193
0.586602
0.347383
0.535128
0.536909
0.592075
0.337381
0.34094
0.59579
0.31851
0.308978
0.334742
0.591954
0.441862
0.533854
0.331279
0.604861
0.580763
0.527271
0.594258
0.33753
0.610481
0.566381
0.587244
0.603569
0.587622
0.555648
0.352563
0.381252
0.339343
0.530474
0.318838
0.58241
0.597221
0.604656
0.339157
0.362469
0.509135
0.614834
0.53643
0.339654
0.596551
0.499759
0.306028
0.53186
0.336038
0.342869
0.333092
0.323642
0.339312
0.602486
0.599082
0.610974
0.478565
0.581805
0.529928
0.606716
0.532676
0.60684
0.606628
0.529667
0.530516
0.334174
0.538317
0.59489
0.438552
0.334608
0.573795
0.330808
0.590989
0.398085
0.592679
0.602047
0.339083
0.582785
0.333218
0.59499
0.609104
0.604356
0.515178
0.581184
0.601444
0.530555
0.369359
0.459592
0.439783
0.282009
0.530055
0.595451
0.484025
0.608014
0.596084
0.53228
0.361706
0.332046
0.569894
0.607732
0.323553
0.282332
0.60487
0.578837
0.546305
0.268378
0.532842
0.582864
0.590006
0.336118
0.532179
0.50874
0.565306
0.534267
0.476801
0.58708
0.33167
0.596096
0.323465
0.336794
0.531247
0.348804
0.359599
0.333437
0.586672
0.610694
0.492429
0.538593
0.469516
0.384877
0.340711
0.608633
0.558626
0.591993
0.516967
0.251855
0.592168
0.446103
0.328138
0.568223
0.619255
0.338106
0.580378
0.593291
0.541203
0.477591
0.5291
0.363025
0.529404
0.60068
0.538496
0.338226
0.565921
0.414562
0.553724
0.590354
0.609682
0.583172
0.562794
0.532062
0.56605
0.592295
0.34405
0.599979
0.545029
0.368489
0.524117
0.584859
0.608846
0.603882
0.328575
0.583164
0.34163
0.601936
0.546565
0.612976
0.328095
0.575063
0.581883
0.538063
0.575449
0.567715
0.539725
0.523526
0.394601
0.33383
0.310413
0.541093
0.356284
0.347475
0.590971
0.328545
0.602242
0.375794
0.598455
0.32342
0.331476
0.590259
0.40558
0.295484
0.621653
0.534692
0.604725
0.338894
0.607673
0.590878
0.591055
0.333112
0.541641
0.596471
0.334432
0.535117
0.516527
0.587838
0.379374
0.397053
0.54103
0.330838
0.589309
0.339434
0.338976
0.53425
0.394584
0.573287
0.33647
0.612517
0.463324
0.54185
0.294921
0.335573
0.53479
0.37176
0.541283
0.371757
0.530873
0.58989
0.499676
0.540592
0.546226
0.327519
0.544915
0.607337
0.581836
0.53972
0.366616
0.376853
0.35044
0.338344
0.533188
0.356916
0.556933
0.34111
0.593865
0.598969
0.530393
0.336915
0.53178
0.357015
0.592776
0.618689
0.377808
0.531648
0.630838
0.320898
0.612305
0.334019
0.363125
0.608752
0.342998
0.610883
0.225434
0.363933
0.580153
0.386703
0.587979
0.340458
0.494576
0.539294
0.591876
0.39852
0.312525
0.328174
0.538936
0.543593
0.369729
0.591202
0.342868
0.596358
0.333335
0.356273
0.520297
0.499214
0.437681
0.614127
0.542818
0.518112
0.530563
0.600013
0.530231
0.367215
0.600844
0.382766
0.345591
0.58079
0.418848
0.401133
0.457137
0.338636
0.602886
0.538473
0.607695
0.341369
0.335546
0.520353
0.546008
0.571096
0.60883
0.326411
0.545026
0.596696
0.614332
0.454985
0.335229
0.336087
0.339633
0.609899
0.598017
0.331584
0.363517
0.45135
0.332914
0.60755
0.550864
0.318636
0.531852
0.414248
0.59972
0.601051
0.332469
0.380383
0.5669
0.325154
0.40007
0.547046
0.315769
0.33096
0.337109
0.541384
0.587233
0.539731
0.339523
0.320269
0.571063
0.543191
0.574336
0.600922
0.337319
0.33457
0.374083
0.539928
0.326893
0.327505
0.602152
0.593821
0.550815
0.362667
0.364823
0.36604
0.529507
0.307501
0.592367
0.540221
0.596495
0.450941
0.607755
0.609337
0.331601
0.338029
0.577758
0.351415
0.4843
0.597946
0.604088
0.449085
0.326732
0.333386
0.610002
0.411286
0.332233
0.600053
0.568031
0.294567
0.336249
0.554067
0.470262
0.345301
0.336797
0.601593
0.520563
0.610814
0.571391
0.354705
0.335075
0.349371
0.395126
0.316229
0.545867
0.59172
0.521743
0.582525
0.371593
0.585009
0.379411
0.533868
0.60531
0.355044
0.262467
0.594826
0.391178
0.498093
0.557336
0.317367
0.589114
0.575344
0.530423
0.53871
0.626451
0.380678
0.339065
0.363825
0.540939
0.530388
0.609214
0.470039
0.337771
0.336885
0.53524
0.339169
0.603829
0.529982
0.583488
0.347457
0.333358
0.483205
0.602609
0.544622
0.60853
0.530405
0.530229
0.569104
0.57972
0.250576
0.535669
0.58792
0.594569
0.323489
0.596781
0.443709
0.60838
0.608404
0.464834
0.528144
0.593234
0.556463
0.542978
0.344129
0.604327
0.607509
0.35728
0.615232
0.320057
0.324536
0.545798
0.529489
0.337021
0.519208
0.53075
0.364356
0.374244
0.623363
0.607523
0.502608
0.378132
0.530422
0.347047
0.607395
0.607051
0.335223
0.508532
0.540677
0.349528
0.327193
0.36997
0.617105
0.624236
0.334984
0.380935
0.353514
0.365649
0.378029
0.599704
0.339735
0.608046
0.578912
0.606732
0.326149
0.560153
0.510285
0.597562
0.460015
0.594153
0.322094
0.300104
0.336354
0.600721
0.329336
0.337829
0.60757
0.339818
0.540809
0.537762
0.450906
0.327815
0.352114
0.606864
0.580635
0.595468
0.620153
0.623948
0.33619
0.375804
0.337
0.541728
0.539759
0.335994
0.616428
0.330178
0.344244
0.530245
0.327186
0.356093
0.34052
0.385368
0.338872
0.52907
0.629218
0.598827
0.337326
0.530495
0.607927
0.336984
0.530354
0.377819
0.599416
0.381711
0.393539
0.531965
0.340108
0.312019
0.590663
0.56053
0.335856
0.603417
0.52553
0.559732
0.408146
0.364855
0.569191
0.562305
0.378361
0.38744
0.458218
0.430687
0.530702
0.366872
0.333892
0.605903
0.633441
0.36989
0.336408
0.590546
0.340548
0.338623
0.32406
0.472081
0.602428
0.327062
0.604565
0.356427
0.31788
0.368566
0.436919
0.375078
0.609313
0.324681
0.350885
0.503697
0.604482
0.359495
0.536448
0.334167
0.354813
0.593818
0.606577
0.572783
0.544709
0.61173
0.613595
0.330553
0.605118
0.331229
0.53895
0.582748
0.419847
0.571399
0.534025
0.572163
0.530404
0.465504
0.372013
0.44106
0.338594
0.618872
0.591922
0.534642
0.345385
0.604977
0.370121
0.539281
0.336162
0.33075
0.600201
0.325726
0.593947
0.607671
0.401778
0.338427
0.343025
0.531501
0.421257
0.340237
0.61157
0.349083
0.583419
0.367081
0.341708
0.358199
0.57589
0.411515
0.533564
0.33743
0.373891
0.598602
0.576194
0.281884
0.367141
0.287743
0.503448
0.357626
0.558667
0.596503
0.536699
0.237419
0.332961
0.476007
0.571461
0.606475
0.55213
0.318307
0.596777
0.59953
0.534745
0.538626
0.324101
0.602243
0.363152
0.510088
0.616535
0.601176
0.589345
0.599977
0.620782
0.581868
0.610459
0.599188
0.599931
0.596502
0.534781
0.564793
0.337355
0.349617
0.529644
0.526952
0.534965
0.545468
0.606905
0.558679
0.605225
0.361095
0.334058
0.541351
0.337974
0.33436
0.337491
0.57698
0.570125
0.529255
0.61374
0.608497
0.336345
0.594204
0.337836
0.33015
0.610251
0.598461
0.591029
0.405719
0.402331
0.349924
0.336322
0.398376
0.336025
0.371979
0.607392
0.320124
0.597704
0.338778
0.600121
0.571793
0.286459
0.351049
0.616441
0.540142
0.338729
0.567906
0.290047
0.334646
0.32945
0.464858
0.564947
0.545785
0.530903
0.321624
0.353055
0.28539
0.338122
0.543164
0.604548
0.600699
0.372849
0.33473
0.531755
0.569537
0.592738
0.31567
0.545416
0.482959
0.607944
0.441376
0.347595
0.338423
0.377062
0.58559
0.331144
0.33878
0.54193
0.348719
0.530254
0.36395
0.375913
0.405765
0.371236
0.602535
0.542735
0.529686
0.458186
0.619884
0.565207
0.569854
0.350468
0.549625
0.587242
0.549057
0.580153
0.576634
0.602075
0.436826
0.566906
0.557939
0.38421
0.338492
0.614398
0.415032
0.566403
0.36718
0.605767
0.390316
0.593729
0.529712
0.564465
0.551465
0.59519
0.591019
0.335087
0.339252
0.584548
0.606693
0.546674
0.455803
0.604584
0.495984
0.519579
0.529667
0.506479
0.531993
0.605162
0.539976
0.335786
0.337441
0.530806
0.54012
0.35208
0.378944
0.433856
0.54326
0.545744
0.607818
0.348107
0.593619
0.317607
0.589453
0.350235
0.599831
0.332042
0.610113
0.370272
0.573194
0.461484
0.336355
0.329693
0.507275
0.364787
0.581014
0.321569
0.529768
0.544916
0.589112
0.626124
0.557441
0.60018
0.531988
0.607584
0.607072
0.5778
0.548038
0.609921
0.597489
0.328576
0.527838
0.525726
0.572879
0.370345
0.547312
0.604317
0.531561
0.358794
0.366228
0.372278
0.598988
0.612882
0.365865
0.563859
0.402532
0.532076
0.318074
0.430276
0.347503
0.304299
0.609728
0.323451
0.538699
0.357627
0.607076
0.371242
0.531031
0.542449
0.595103
0.364723
0.363098
0.353519
0.592828
0.355277
0.351824
0.334112
0.606011
0.615361
0.600429
0.590782
0.572806
0.598647
0.414413
0.363461
0.586624
0.33274
0.466713
0.589717
0.607636
0.284816
0.340807
0.610958
0.531641
0.424866
0.56253
0.585507
0.5801
0.345039
0.605679
0.586974
0.620334
0.600374
0.32123
0.544904
0.358086
0.568522
0.60838
0.560797
0.539722
0.353981
0.590985
0.226109
0.383429
0.603162
0.540329
0.593287
0.46641
0.349086
0.577497
0.594612
0.358155
0.334165
0.325596
0.609651
0.336001
0.370775
0.365875
0.378279
0.323633
0.371063
0.604828
0.320738
0.591128
0.603881
0.346968
0.591268
0.337045
0.605263
0.321698
0.539625
0.364471
0.611552
0.539744
0.425517
0.550467
0.561
0.556381
0.340345
0.528726
0.455296
0.337512
0.357449
0.41304
0.335797
0.600675
0.346203
0.338182
0.322878
0.545331
0.594914
0.320217
0.32747
0.610513
0.345095
0.377639
0.534728
0.328847
0.342326
0.371671
0.607967
0.53723
0.621479
0.348272
0.289748
0.601026
0.554988
0.532597
0.411271
0.577529
0.602251
0.428706
0.40988
0.328137
0.366056
0.236837
0.538241
0.336772
0.605652
0.557246
0.59888
0.339341
0.429882
0.429566
0.618978
0.313502
0.530585
0.239746
0.545456
0.337654
0.278644
0.315429
0.602946
0.321161
0.607988
0.366284
0.386727
0.347477
0.517067
0.363692
0.604375
0.350053
0.595316
0.53939
0.328413
0.537979
0.544836
0.341163
0.609438
0.382373
0.345071
0.605965
0.315234
0.551757
0.390967
0.34061
0.529124
0.338059
0.358288
0.363896
0.374359
0.356004
0.561295
0.460729
0.629495
0.611367
0.568023
0.606817
0.440188
0.593577
0.318044
0.537605
0.344009
0.596352
0.334008
0.401647
0.610954
0.611071
0.581048
0.35915
0.49851
0.336748
0.358935
0.38001
0.269633
0.601841
0.437134
0.607555
0.530259
0.530706
0.587956
0.563509
0.405128
0.343223
0.367913
0.596223
0.520742
0.560918
0.532149
0.606495
0.428663