# vtk DataFile Version 1.0
unstructured grid
ascii
DATASET UNSTRUCTURED_GRID
points 3226 float
0.0796578 -0.059106 0
0.00128732 0.00159165 0
0.00227961 -0.00102548 0
0.0791586 -0.0598787 0
-0.0546216 0.01 0
0.000495206 0.025 0
0.0800549 -0.035 0
0.135172 -0.08 0
-0.0546216 -0.0451168 0
0.000495206 -0.0301168 0
0.0800549 -0.0901168 0
0.135172 -0.135117 0
-0.0546216 -0.0451168 -0.00551168
0.000495206 -0.0301168 -0.00551168
0.0800549 -0.0901168 -0.00551168
0.135172 -0.135117 -0.00551168
0.135172 -0.08 -0.00551168
0.0800549 -0.035 -0.00551168
0.000495206 0.025 -0.00551168
-0.0546216 0.01 -0.00551168
0.00128732 0.00159165 -0.00551168
0.00227961 -0.00102548 -0.00551168
0.0791586 -0.0598787 -0.00551168
0.0796578 -0.059106 -0.00551168
0.00110182 -0.000823821 0
0.000571683 -0.000188043 0
0.000561313 0.000639162 0
0.00189316 0.00207203 0
0.00260228 0.00255358 0
0.0033966 0.00307293 0
0.00428861 0.00362634 0
0.00529726 0.0041979 0
0.00644092 0.00476696 0
0.00773158 0.0053187 0
0.00918011 0.00583593 0
0.010799 0.00628751 0
0.012597 0.00663225 0
0.0145725 0.0068517 0
0.0167206 0.0069338 0
0.0190349 0.00685819 0
0.0215031 0.00658621 0
0.0241038 0.00607459 0
0.026821 0.00533786 0
0.0296245 0.00434523 0
0.0324763 0.00306927 0
0.0353199 0.00146906 0
0.0381488 -0.00039338 0
0.0409131 -0.00252802 0
0.0435632 -0.00493276 0
0.0460882 -0.0075571 0
0.0484881 -0.0103478 0
0.0506782 -0.0133217 0
0.0526651 -0.016422 0
0.0546139 -0.0195019 0
0.0565301 -0.022529 0
0.0584009 -0.0254846 0
0.0602154 -0.0283513 0
0.061964 -0.031114 0
0.0636389 -0.0337601 0
0.0652336 -0.0362795 0
0.0667431 -0.0386651 0
0.0681656 -0.0409111 0
0.0694983 -0.0430158 0
0.0707356 -0.0449823 0
0.071886 -0.0468071 0
0.0729575 -0.04849 0
0.0739438 -0.0500408 0
0.0748444 -0.0514675 0
0.0756707 -0.0527715 0
0.0764313 -0.053958 0
0.0771224 -0.0550398 0
0.0777384 -0.0560288 0
0.0782803 -0.0569318 0
0.0787691 -0.0577448 0
0.0792251 -0.0584672 0
0.0800494 -0.0597378 0
0.0797987 -0.0601582 0
0.0786655 -0.059391 0
0.0781259 -0.0588425 0
0.0775539 -0.0582102 0
0.0769587 -0.0574783 0
0.0763492 -0.0566339 0
0.075723 -0.0556725 0
0.0750452 -0.0546094 0
0.0742996 -0.0534457 0
0.073478 -0.0521785 0
0.072577 -0.0508019 0
0.0715904 -0.049313 0
0.0705098 -0.047712 0
0.069328 -0.0459996 0
0.0680378 -0.0441794 0
0.066632 -0.0422571 0
0.0651046 -0.0402413 0
0.0634508 -0.0381431 0
0.0616683 -0.0359754 0
0.0597581 -0.033753 0
0.0577255 -0.0314906 0
0.0555808 -0.0292024 0
0.0533388 -0.0269013 0
0.0510024 -0.0246151 0
0.0485693 -0.0223811 0
0.0460535 -0.0202228 0
0.0434788 -0.0181535 0
0.0408704 -0.0161833 0
0.0382442 -0.0143327 0
0.0356165 -0.0126209 0
0.0330065 -0.0110594 0
0.0304368 -0.00965062 0
0.0279338 -0.00838121 0
0.0255194 -0.00723697 0
0.0231965 -0.00623664 0
0.020983 -0.00535765 0
0.0188891 -0.00458677 0
0.0169193 -0.00391673 0
0.0150754 -0.00334068 0
0.0133572 -0.00285262 0
0.0117634 -0.0024437 0
0.0102912 -0.00210643 0
0.0089363 -0.00183343 0
0.00769424 -0.00161552 0
0.00655956 -0.00144452 0
0.00552632 -0.00131235 0
0.00458815 -0.00121216 0
0.00373885 -0.00113394 0
0.00297202 -0.00106855 0
-0.0506847 -0.0440454 0
-0.0467478 -0.0429739 0
-0.0428108 -0.0419025 0
-0.0388739 -0.0408311 0
-0.034937 -0.0397597 0
-0.0310001 -0.0386882 0
-0.0270632 -0.0376168 0
-0.0231263 -0.0365454 0
-0.0191894 -0.0354739 0
-0.0152525 -0.0344025 0
-0.0113155 -0.0333311 0
-0.00737862 -0.0322597 0
-0.00344171 -0.0311882 0
0.0038716 -0.0298185 0
0.00726082 -0.0297726 0
0.010644 -0.0299802 0
0.0140027 -0.0304367 0
0.0173201 -0.0311326 0
0.0205821 -0.0320541 0
0.0237776 -0.0331851 0
0.0268988 -0.0345078 0
0.0299406 -0.0360041 0
0.0329005 -0.0376567 0
0.035778 -0.039449 0
0.038574 -0.0413659 0
0.0412905 -0.043394 0
0.0439303 -0.0455212 0
0.0464964 -0.0477367 0
0.0489922 -0.0500312 0
0.051421 -0.0523964 0
0.0537863 -0.0548252 0
0.0560914 -0.0573112 0
0.0583395 -0.0598489 0
0.0605336 -0.0624334 0
0.0626765 -0.0650605 0
0.064771 -0.0677264 0
0.0668197 -0.0704277 0
0.0688248 -0.0731615 0
0.0707885 -0.0759252 0
0.072713 -0.0787163 0
0.0746002 -0.0815329 0
0.0764517 -0.0843729 0
0.0782695 -0.0872347 0
0.0829558 -0.0924852 0
0.0858567 -0.0948536 0
0.0887575 -0.0972221 0
0.0916584 -0.0995905 0
0.0945593 -0.101959 0
0.0974602 -0.104327 0
0.100361 -0.106696 0
0.103262 -0.109064 0
0.106163 -0.111433 0
0.109064 -0.113801 0
0.111965 -0.116169 0
0.114865 -0.118538 0
0.117766 -0.120906 0
0.120667 -0.123275 0
0.123568 -0.125643 0
0.126469 -0.128012 0
0.12937 -0.13038 0
0.132271 -0.132748 0
0.135172 -0.13118 0
0.135172 -0.127243 0
0.135172 -0.123306 0
0.135172 -0.119369 0
0.135172 -0.115432 0
0.135172 -0.111495 0
0.135172 -0.107558 0
0.135172 -0.103621 0
0.135172 -0.0996846 0
0.135172 -0.0957477 0
0.135172 -0.0918107 0
0.135172 -0.0878738 0
0.135172 -0.0839369 0
0.132271 -0.0776316 0
0.12937 -0.0752632 0
0.126469 -0.0728947 0
0.123568 -0.0705263 0
0.120667 -0.0681579 0
0.117766 -0.0657895 0
0.114865 -0.0634211 0
0.111965 -0.0610526 0
0.109064 -0.0586842 0
0.106163 -0.0563158 0
0.103262 -0.0539474 0
0.100361 -0.0515789 0
0.0974602 -0.0492105 0
0.0945593 -0.0468421 0
0.0916584 -0.0444737 0
0.0887575 -0.0421053 0
0.0858567 -0.0397368 0
0.0829558 -0.0373684 0
0.0782695 -0.0321179 0
0.0764517 -0.0292561 0
0.0746002 -0.026416 0
0.072713 -0.0235995 0
0.0707885 -0.0208084 0
0.0688248 -0.0180447 0
0.0668197 -0.0153109 0
0.064771 -0.0126096 0
0.0626765 -0.00994373 0
0.0605336 -0.00731663 0
0.0583395 -0.00473208 0
0.0560914 -0.00219437 0
0.0537863 0.000291632 0
0.051421 0.00272041 0
0.0489922 0.00508564 0
0.0464964 0.00738012 0
0.0439303 0.00959562 0
0.0412905 0.0117228 0
0.038574 0.0137509 0
0.035778 0.0156678 0
0.0329005 0.0174601 0
0.0299406 0.0191127 0
0.0268988 0.020609 0
0.0237776 0.0219317 0
0.0205821 0.0230627 0
0.0173201 0.0239842 0
0.0140027 0.0246801 0
0.010644 0.0251366 0
0.00726082 0.0253442 0
0.0038716 0.0252983 0
-0.00344171 0.0239286 0
-0.00737862 0.0228571 0
-0.0113155 0.0217857 0
-0.0152525 0.0207143 0
-0.0191894 0.0196429 0
-0.0231263 0.0185714 0
-0.0270632 0.0175 0
-0.0310001 0.0164286 0
-0.034937 0.0153571 0
-0.0388739 0.0142857 0
-0.0428108 0.0132143 0
-0.0467478 0.0121429 0
-0.0506847 0.0110714 0
-0.0546216 0.00606309 0
-0.0546216 0.00212617 0
-0.0546216 -0.00181074 0
-0.0546216 -0.00574766 0
-0.0546216 -0.00968457 0
-0.0546216 -0.0136215 0
-0.0546216 -0.0175584 0
-0.0546216 -0.0214953 0
-0.0546216 -0.0254322 0
-0.0546216 -0.0293691 0
-0.0546216 -0.0333061 0
-0.0546216 -0.037243 0
-0.0546216 -0.0411799 0
-0.0506847 -0.0440454 -0.00551168
-0.0467478 -0.0429739 -0.00551168
-0.0428108 -0.0419025 -0.00551168
-0.0388739 -0.0408311 -0.00551168
-0.034937 -0.0397597 -0.00551168
-0.0310001 -0.0386882 -0.00551168
-0.0270632 -0.0376168 -0.00551168
-0.0231263 -0.0365454 -0.00551168
-0.0191894 -0.0354739 -0.00551168
-0.0152525 -0.0344025 -0.00551168
-0.0113155 -0.0333311 -0.00551168
-0.00737862 -0.0322597 -0.00551168
-0.00344171 -0.0311882 -0.00551168
0.0038716 -0.0298185 -0.00551168
0.00726082 -0.0297726 -0.00551168
0.010644 -0.0299802 -0.00551168
0.0140027 -0.0304367 -0.00551168
0.0173201 -0.0311326 -0.00551168
0.0205821 -0.0320541 -0.00551168
0.0237776 -0.0331851 -0.00551168
0.0268988 -0.0345078 -0.00551168
0.0299406 -0.0360041 -0.00551168
0.0329005 -0.0376567 -0.00551168
0.035778 -0.039449 -0.00551168
0.038574 -0.0413659 -0.00551168
0.0412905 -0.043394 -0.00551168
0.0439303 -0.0455212 -0.00551168
0.0464964 -0.0477367 -0.00551168
0.0489922 -0.0500312 -0.00551168
0.051421 -0.0523964 -0.00551168
0.0537863 -0.0548252 -0.00551168
0.0560914 -0.0573112 -0.00551168
0.0583395 -0.0598489 -0.00551168
0.0605336 -0.0624334 -0.00551168
0.0626765 -0.0650605 -0.00551168
0.064771 -0.0677264 -0.00551168
0.0668197 -0.0704277 -0.00551168
0.0688248 -0.0731615 -0.00551168
0.0707885 -0.0759252 -0.00551168
0.072713 -0.0787163 -0.00551168
0.0746002 -0.0815329 -0.00551168
0.0764517 -0.0843729 -0.00551168
0.0782695 -0.0872347 -0.00551168
0.0829558 -0.0924852 -0.00551168
0.0858567 -0.0948536 -0.00551168
0.0887575 -0.0972221 -0.00551168
0.0916584 -0.0995905 -0.00551168
0.0945593 -0.101959 -0.00551168
0.0974602 -0.104327 -0.00551168
0.100361 -0.106696 -0.00551168
0.103262 -0.109064 -0.00551168
0.106163 -0.111433 -0.00551168
0.109064 -0.113801 -0.00551168
0.111965 -0.116169 -0.00551168
0.114865 -0.118538 -0.00551168
0.117766 -0.120906 -0.00551168
0.120667 -0.123275 -0.00551168
0.123568 -0.125643 -0.00551168
0.126469 -0.128012 -0.00551168
0.12937 -0.13038 -0.00551168
0.132271 -0.132748 -0.00551168
0.135172 -0.13118 -0.00551168
0.135172 -0.127243 -0.00551168
0.135172 -0.123306 -0.00551168
0.135172 -0.119369 -0.00551168
0.135172 -0.115432 -0.00551168
0.135172 -0.111495 -0.00551168
0.135172 -0.107558 -0.00551168
0.135172 -0.103621 -0.00551168
0.135172 -0.0996846 -0.00551168
0.135172 -0.0957477 -0.00551168
0.135172 -0.0918107 -0.00551168
0.135172 -0.0878738 -0.00551168
0.135172 -0.0839369 -0.00551168
0.132271 -0.0776316 -0.00551168
0.12937 -0.0752632 -0.00551168
0.126469 -0.0728947 -0.00551168
0.123568 -0.0705263 -0.00551168
0.120667 -0.0681579 -0.00551168
0.117766 -0.0657895 -0.00551168
0.114865 -0.0634211 -0.00551168
0.111965 -0.0610526 -0.00551168
0.109064 -0.0586842 -0.00551168
0.106163 -0.0563158 -0.00551168
0.103262 -0.0539474 -0.00551168
0.100361 -0.0515789 -0.00551168
0.0974602 -0.0492105 -0.00551168
0.0945593 -0.0468421 -0.00551168
0.0916584 -0.0444737 -0.00551168
0.0887575 -0.0421053 -0.00551168
0.0858567 -0.0397368 -0.00551168
0.0829558 -0.0373684 -0.00551168
0.0782695 -0.0321179 -0.00551168
0.0764517 -0.0292561 -0.00551168
0.0746002 -0.026416 -0.00551168
0.072713 -0.0235995 -0.00551168
0.0707885 -0.0208084 -0.00551168
0.0688248 -0.0180447 -0.00551168
0.0668197 -0.0153109 -0.00551168
0.064771 -0.0126096 -0.00551168
0.0626765 -0.00994373 -0.00551168
0.0605336 -0.00731663 -0.00551168
0.0583395 -0.00473208 -0.00551168
0.0560914 -0.00219437 -0.00551168
0.0537863 0.000291632 -0.00551168
0.051421 0.00272041 -0.00551168
0.0489922 0.00508564 -0.00551168
0.0464964 0.00738012 -0.00551168
0.0439303 0.00959562 -0.00551168
0.0412905 0.0117228 -0.00551168
[...]
CELL_DATA 2965
SCALARS rho float
LOOKUP_TABLE default
0.538178
0.366103
0.538991
0.353593
0.549919
0.355751
0.536189
0.372867
0.353618
0.539198
0.353749
0.375541
0.450552
0.543557
0.534257
0.528914
0.537354
0.529019
0.552065
0.538754
0.538193
0.370165
0.523739
0.548681
0.545129
0.554772
0.560062
0.497613
0.357281
0.590506
0.548416
0.366347
0.557742
0.543706
0.334208
0.358097
0.538925
0.543777
0.357351
0.587312
0.540067
0.525468
0.540628
0.370873
0.354821
0.540252
0.478809
0.490575
0.345538
0.537295
0.480949
0.368183
0.358239
0.505176
0.355572
0.513191
0.338245
0.35218
0.326163
0.493825
0.533517
0.495354
0.360521
0.551798
0.504296
0.540407
0.536168
0.368786
0.340557
0.375492
0.530341
0.550617
0.536197
0.31141
0.542209
0.43654
0.537469
0.366027
0.371295
0.501677
0.535702
0.359979
0.372429
0.458237
0.50006
0.456338
0.374762
0.301633
0.562793
0.337961
0.355113
0.539995
0.529328
0.572055
0.540297
0.355847
0.476879
0.322059
0.374475
0.365348
0.492101
0.363264
0.372505
0.363685
0.374604
0.537597
0.537529
0.388272
0.359505
0.537031
0.297769
0.417607
0.543042
0.509721
0.337612
0.327736
0.522237
0.475738
0.537724
0.371904
0.535546
0.286919
0.547266
0.549117
0.510353
0.489219
0.372758
0.479431
0.550425
0.322084
0.373519
0.516672
0.542832
0.374678
0.560649
0.358405
0.449578
0.528366
0.557796
0.549843
0.373762
0.528119
0.538542
0.386906
0.311754
0.552539
0.358229
0.549349
0.558986
0.362238
0.372599
0.364017
0.37197
0.361707
0.333872
0.299021
0.536495
0.544773
0.537985
0.549982
0.480561
0.497974
0.479942
0.553025
0.337639
0.536142
0.443486
0.373554
0.537062
0.543181
0.525182
0.332487
0.511545
0.531512
0.554666
0.437893
0.573032
0.41118
0.306913
0.507096
0.372229
0.30639
0.35424
0.361439
0.558891
0.536189
0.361749
0.371029
0.479793
0.366693
0.358612
0.351249
0.47076
0.33194
0.536456
0.537734
0.544311
0.502697
0.517516
0.37268
0.375218
0.335331
0.537483
0.46423
0.535697
0.358633
0.506388
0.536532
0.531619
0.543007
0.511485
0.469126
0.329998
0.362877
0.51959
0.379411
0.4795
0.357786
0.529581
0.3661
0.352917
0.376012
0.532569
0.466337
0.553097
0.300445
0.535525
0.540814
0.354608
0.513579
0.370664
0.300269
0.543354
0.355558
0.540049
0.543429
0.355661
0.551494
0.367089
0.377969
0.425847
0.370896
0.551499
0.563829
0.372368
0.278455
0.537059
0.538625
0.468521
0.519767
0.365253
0.359118
0.536502
0.348867
0.501036
0.305271
0.288286
0.537603
0.539396
0.373761
0.483682
0.358724
0.550137
0.350899
0.55621
0.537517
0.321124
0.558607
0.536866
0.333366
0.372678
0.542157
0.374561
0.556405
0.522868
0.373033
0.527294
0.527409
0.558068
0.539788
0.554573
0.488884
0.538695
0.538629
0.36323
0.353819
0.536139
0.546722
0.368332
0.540163
0.549349
0.36702
0.374738
0.366566
0.562867
0.37295
0.537624
0.529097
0.557059
0.366354
0.540367
0.501825
0.505025
0.539312
0.359086
0.287178
0.551908
0.536896
0.537487
0.365112
0.376097
0.508182
0.295609
0.314587
0.510519
0.535541
0.502098
0.260338
0.359714
0.498988
0.511203
0.366332
0.539429
0.535746
0.373422
0.438013
0.539914
0.56476
0.304481
0.370792
0.53815
0.354871
0.545987
0.436808
0.547144
0.46758
0.420056
0.369579
0.372287
0.333468
0.525008
0.554597
0.536076
0.552158
0.501667
0.572092
0.348141
0.540986
0.554558
0.376493
0.351102
0.538428
0.364307
0.528457
0.492351
0.373342
0.368589
0.369081
0.354131
0.535685
0.372967
0.369128
0.467677
0.366724
0.540417
0.540315
0.572284
0.537146
0.368476
0.54118
0.370648
0.538403
0.352075
0.377576
0.543461
0.484467
0.297509
0.30722
0.540447
0.389844
0.524315
0.526697
0.355541
0.539167
0.314285
0.372913
0.53922
0.31268
0.543263
0.310125
0.465918
0.371412
0.543853
0.533774
0.495609
0.53889
0.333701
0.554373
0.371471
0.341466
0.555795
0.305599
0.553282
0.516439
0.504713
0.311379
0.325339
0.343259
0.31294
0.343525
0.361381
0.545247
0.540902
0.54076
0.537185
0.35432
0.546915
0.551766
0.532045
0.300726
0.539256
0.337757
0.501485
0.494716
0.336313
0.536399
0.406586
0.537326
0.298619
0.505917
0.5437
0.31032
0.542917
0.311404
0.545738
0.382075
0.359867
0.512397
0.55155
0.547856
0.4229
0.291983
0.299426
0.496037
0.551183
0.537763
0.540684
0.54005
0.54424
0.350244
0.552275
0.500453
0.375883
0.303566
0.33705
0.570507
0.542843
0.447508
0.440607
0.446805
0.359669
0.537711
0.541424
0.536964
0.555021
0.483664
0.539441
0.542119
0.382436
0.547159
0.411504
0.389259
0.541741
0.54052
0.545659
0.553029
0.358694
0.368529
0.557515
0.539449
0.358616
0.538266
0.569816
0.540541
0.356679
0.337828
0.542327
0.369242
0.497022
0.540856
0.542764
0.376716
0.540054
0.370073
0.372211
0.371829
0.373341
0.539823
0.427681
0.528739
0.314846
0.370526
0.536293
0.373629
0.328172
0.377116
0.328778
0.438643
0.367549
0.372573
0.491983
0.507153
0.352862
0.352612
0.543096
0.368465
0.425121
0.539686
0.538862
0.512352
0.507079
0.459062
0.489604
0.297445
0.453658
0.539496
0.512892
0.303558
0.521274
0.278308
0.331855
0.30732
0.542567
0.557498
0.340314
0.51418
0.539963
0.345024
0.335687
0.551397
0.536929
0.439216
0.552861
0.407682
0.372179
0.551971
0.342781
0.473205
0.544072
0.430823
0.550565
0.349753
0.342342
0.544657
0.397064
0.382099
0.358527
0.359428
0.372558
0.539181
0.547357
0.533571
0.36603
0.309668
0.351545
0.340716
0.538972
0.280113
0.447171
0.344436
0.540384
0.541671
0.349816
0.537183
0.480044
0.507972
0.334173
0.537032
0.550228
0.558824
0.558972
0.537423
0.535986
0.356376
0.447412
0.3559
0.540625
0.347897
0.357683
0.539709
0.537762
0.539115
0.369218
0.35805
0.546218
0.548789
0.347929
0.54117
0.321004
0.349054
0.369932
0.557799
0.546383
0.543329
0.318245
0.333958
0.363007
0.363665
0.54489
0.536415
0.553538
0.365401
0.34928
0.514406
0.554394
0.552863
0.522936
0.53683
0.508781
0.544642
0.548998
0.5293
0.369882
0.545058
0.509719
0.536083
0.543273
0.553891
0.50478
0.468367
0.553156
0.367513
0.551432
0.537699
0.273644
0.536352
0.515531
0.543507
0.359312
0.354961
0.539357
0.360972
0.375014
0.554818
0.358467
0.497656
0.546285
0.33657
0.552972
0.38417
0.586157
0.539774
0.537302
0.517621
0.365649
0.375143
0.53309
0.458149
0.367449
0.560174
0.349156
0.537961
0.356797
0.485971
0.53042
0.53695
0.35621
0.511952
0.353008
0.497659
0.440198
0.350731
0.330752
0.361262
0.537886
0.552898
0.533259
0.345733
0.537591
0.506146
0.346376
0.537668
0.367403
0.492597
0.566172
0.535495
0.544305
0.356844
0.39204
0.537494
0.552297
0.554444
0.505603
0.550887
0.498704
0.494725
0.349783
0.563554
0.476008
0.412973
0.432167
0.53703
0.555922
0.523502
0.476177
0.368527
0.550433
0.371493
0.370992
0.432637
0.352954
0.510615
0.374919
0.536108
0.368836
0.33921
0.470958
0.551583
0.371691
0.344604
0.555802
0.551046
0.556987
0.371496
0.342454
0.546496
0.327287
0.345131
0.362784
0.531459
0.535177
0.324159
0.556466
0.375531
0.529081
0.54061
0.348078
0.43141
0.543542
0.515284
0.513168
0.548274
0.545879
0.551381
0.546379
0.535705
0.349474
0.408292
0.532511
0.340763
0.550265
0.542743
0.292532
0.540018
0.494807
0.529505
0.550579
0.490484
0.542555
0.349562
0.507053
0.35232
0.351445
0.541758
0.537653
0.282502
0.372109
0.539827
0.423892
0.474117
0.331024
0.299151
0.555437
0.528806
0.551358
0.527998
0.48432
0.433871
0.482312
0.382181
0.536042
0.517974
0.510232
0.319269
0.459172
0.551312
0.51275
0.546773
0.165275
0.537208
0.353946
0.377412
0.373426
0.531058
0.532898
0.548904
0.560902
0.375295
0.537709
0.471507
0.553909
0.553649
0.508211
0.357352
0.357846
0.539904
0.367552
0.486399
0.49302
0.374984
0.308674
0.538789
0.551613
0.362407
0.536927
0.539588
0.353898
0.537156
0.541834
0.546337
0.358998
0.325758
0.552493
0.356055
0.368757
0.488199
0.538419
0.383974
0.438667
0.374098
0.358632
0.547622
0.371407
0.356212
0.550358
0.373039
0.38958
0.560816
0.545855
0.543611
0.536923
0.509297
0.374982
0.557137
0.539561
0.355772
0.545551
0.544124
0.536076
0.53569
0.357336
0.537198
0.359554
0.536796
0.360184
0.537846
0.371442
0.53304
0.352987
0.55016
0.551921
0.556104
0.525997
0.539602
0.544097
0.323218
0.539966
0.311821
0.535459
0.545438
0.365555
0.492472
0.342039
0.366173
0.535643
0.421453
0.54048
0.167399
0.520211
0.522016
0.548084
0.424738
0.360235
0.303805
0.354858
0.30103
0.545232
0.428679
0.366904
0.541349
0.375916
0.383852
0.540786
0.540772
0.515484
0.544625
0.306216
0.581812
0.350317
0.535747
0.540175
0.569125
0.317715
0.548842
0.544726
0.548747
0.513332
0.542666
0.469438
0.537901
0.551182
0.464594
0.538647
0.347583
0.531294
0.358041
0.443697
0.5311
0.523557
0.539083
0.521536
0.513643
0.544376
0.34857
0.534209
0.371562
0.37221
0.55255
0.525044
0.497227
0.563167
0.543438
0.535734
0.545145
0.536135
0.539409
0.541108
0.556657
0.353299
0.516309
0.539855
0.355799
0.545016
0.365442
0.507815
0.349031
0.539032
0.354804
0.353111
0.340225
0.489433
0.541335
0.523859
0.530444
0.350344
0.372865
0.538449
0.544077
0.299834
0.519008
0.547058
0.371987
0.519484
0.373402
0.3518
0.543055
0.499724
0.353319
0.530178
0.541299
0.535167
0.365422
0.531414
0.300668
0.537562
0.410771
0.531447
0.363143
0.554629
0.343997
0.356234
0.351836
0.530862
0.353574
0.514375
0.554248
0.489582
0.352936
0.351195
0.549248
0.353173
0.287669
0.364936
0.542255
0.356438
0.339739
0.295848
0.532258
0.371365
0.371937
0.351132
0.540374
0.555793
0.37552
0.545901
0.545071
0.510626
0.359814
0.35381
0.549091
0.352153
0.559698
0.401093
0.54071
0.378304
0.220393
0.526446
0.36107
0.36121
0.364907
0.537965
0.353887
0.467218
0.547713
0.351279
0.529779
0.367246
0.555882
0.478112
0.352985
0.369633
0.541571
0.536927
0.539665
0.369314
0.347842
0.461358
0.535495
0.345838
0.346093
0.364177
0.486723
0.546691
0.339797
0.470991
0.539452
0.539241
0.536666
0.370283
0.550531
0.356941
0.541852
0.541006
0.48146
0.370137
0.509449
0.545748
0.357437
0.546709
0.550228
0.37265
0.361639
0.348676
0.305498
0.550045
0.364253
0.539935
0.4479
0.535683
0.525043
0.458111
0.523711
0.343502
0.496971
0.358096
0.538302
0.539591
0.301254
0.371315
0.359319
0.512364
0.557011
0.355261
0.314044
0.363223
0.551981
0.553251
0.311399
0.354346
0.535878
0.552668
0.537341
0.370559
0.352637
0.534242
0.538314
0.352189
0.360473
0.460723
0.55575
0.51033
0.366841
0.539289
0.541447
0.369089
0.545574
0.363502
0.552962
0.376843
0.441854
0.350503
0.344748
0.540314
0.37791
0.361583
0.364756
0.375718
0.502087
0.541071
0.55594
0.366772
0.535692
0.543801
0.542165
0.554522
0.539307
0.554321
0.555594
0.5555
0.547242
0.539574
0.312354
0.503547
0.556867
0.382334
0.549767
0.551619
0.543775
0.541906
0.350544
0.550846
0.53611
0.544582
0.376666
0.524363
0.538482
0.539682
0.540215
0.380672
0.577231
0.351057
0.508292
0.362024
0.361115
0.3606
0.366222
0.538843
0.546308
0.533234
0.370316
0.540464
0.537314
0.5446
0.369813
0.373129
0.530484
0.346509
0.376385
0.357918
0.545591
0.460257
0.540394
0.347783
0.55341
0.540844
0.478388
0.547857
0.371464
0.556112
0.542298
0.525332
0.546575
0.541781
0.579065
0.368751
0.356779
0.370019
0.538451
0.32605
0.546546
0.531945
0.513785
0.370533
0.35058
0.545754
0.549637
0.537254
0.371099
0.535432
0.576714
0.288286
0.538418
0.357045
0.36683
0.351799
0.3659
0.377181
0.546695
0.543563
0.55775
0.464872
0.5441
0.538932
0.530515
0.538191
0.55322
0.555515
0.538603
0.538518
0.362805
0.536907
0.537384
0.521141
0.364936
0.517551
0.320094
0.544382
0.397824
0.54827
0.553678
0.370957
0.554867
0.362814
0.544345
0.541614
0.554807
0.57066
0.527889
0.553993
0.538923
0.347899
0.543224
0.478489
0.300089
0.538912
0.545312
0.46455
0.556352
0.536235
0.538115
0.361743
0.360357
0.548957
0.552915
0.364583
0.210008
0.528086
0.541559
0.541257
0.324938
0.478688
0.525697
0.542334
0.366556
0.538247
0.567394
0.554338
0.581149
0.461511
0.541782
0.318131
0.540403
0.349834
0.356567
0.538516
0.405965
0.382484
0.367829
0.535927
0.525894
0.464474
0.540231
0.453014
0.351505
0.361297
0.549423
0.539566
0.549539
0.549412
0.308078
0.533152
0.522495
0.349144
0.539648
0.549112
0.367449
0.543201
0.538239
0.536345
0.467939
0.538788
0.437993
0.539249
0.540128
0.539702
0.375599
0.548955
0.411594
0.523154
0.541498
0.5516
0.538852
0.541542
0.540353
0.540211
0.529657
0.363902
0.549982
0.547185
0.370824
0.553317
0.543884
0.556721
0.51684
0.349784
0.541341
0.368214
0.554063
0.505675
0.547014
0.36241
0.525551
0.542019
0.537046
0.536742
0.497867
0.536733
0.485502
0.461396
0.36773
0.311287
0.536372
0.329147
0.334157
0.54594
0.36342
0.55157
0.336917
0.544054
0.359191
0.3637
0.532145
0.462228
0.363288
0.54289
0.539383
0.545738
0.374656
0.522683
0.54201
0.540166
0.370085
0.536335
0.542775
0.360749
0.498841
0.481629
0.533802
0.342872
0.482252
0.586029
0.347862
0.548094
0.373395
0.370848
0.537667
0.452777
0.520494
0.357694
0.54794
0.448049
0.536311
0.243761
0.369674
0.537556
0.361641
0.536448
0.351049
0.539995
0.504917
0.489798
0.536579
0.518035
0.302761
0.54104
0.555299
0.539636
0.536721
0.347788
0.352318
0.354997
0.370889
0.53788
0.372201
0.528107
0.372496
0.541854
0.543172
0.538472
0.365222
0.540146
0.380659
0.542421
0.549971
0.380132
0.539545
0.541405
0.353951
0.534242
0.350518
0.337443
0.555335
0.38417
0.550416
0.272925
0.377281
0.525234
0.384694
0.552369
0.371395
0.48577
0.539484
0.538908
0.437204
0.285837
0.401273
0.536852
0.535976
0.38079
0.542745
0.373448
0.541177
0.365055
0.373564
0.486361
0.53767
0.468534
0.516143
0.540501
0.574339
0.491424
0.544479
0.538604
0.362685
0.543089
0.338616
0.356547
0.511929
0.476552
0.487677
0.53728
0.369431
0.527823
0.53699
0.54537
0.370076
0.347278
0.473107
0.522533
0.54157
0.552572
0.353283
0.514653
0.541769
0.52475
0.529761
0.362042
0.364484
0.371539
0.559796
0.544431
0.342573
0.389336
0.525055
0.370284
0.555697
0.536752
0.353217
0.538192
0.485124
0.548891
0.544597
0.358118
0.350713
0.520175
0.367598
0.485885
0.539661
0.316419
0.356365
0.366548
0.547052
0.546247
0.535294
0.37327
0.360133
0.551346
0.541182
0.510304
0.546069
0.359924
0.369492
0.385958
0.514545
0.341472
0.367449
0.545433
0.55281
0.540553
0.364099
0.364903
0.376523
0.539042
0.34493
0.5421
0.536584
0.539122
0.467071
0.543062
0.555303
0.401415
0.365694
0.542613
0.352308
0.565397
0.535817
0.549402
0.538212
0.341538
0.327972
0.548849
0.494069
0.346783
0.542957
0.54122
0.356849
0.363979
0.530525
0.473193
0.374769
0.370208
0.548245
0.529234
0.53931
0.494926
0.433335
0.32506
0.352094
0.414665
0.389593
0.535501
0.53759
0.488459
0.524281
0.349373
0.518109
0.352578
0.5394
0.552859
0.377119
0.32123
0.539172
0.466049
0.522081
0.541805
0.342442
0.539289
0.540139
0.538598
0.536953
0.52681
0.350675
0.376635
0.379591
0.591028
0.539346
0.528255
0.476932
0.369898
0.376384
0.508999
0.370253
0.546027
0.53865
0.5408
0.425943
0.36602
0.558386
0.522206
0.53576
0.537216
0.538829
0.538615
0.542682
0.501079
0.307404
0.537482
0.513705
0.542471
0.366538
0.539122
0.471837
0.538793
0.557497
0.514182
0.511843
0.541096
0.523234
0.536066
0.371327
0.540873
0.556364
0.357338
0.523302
0.345051
0.337669
0.535521
0.539352
0.370051
0.504772
0.538645
0.369099
0.350366
0.563435
0.555984
0.498435
0.379464
0.521473
0.368337
0.55004
0.555602
0.361252
0.474729
0.517448
0.368324
0.353017
0.361664
0.547834
0.54419
0.352754
0.341278
0.37219
0.371953
0.356095
0.51786
0.366573
0.556731
0.542219
0.5488
0.359107
0.539822
0.468945
0.540887
0.525829
0.538384
0.356813
0.366955
0.366465
0.542545
0.388749
0.365468
0.515594
0.372685
0.536536
0.572759
0.450293
0.372091
0.371579
0.534035
0.54305
0.536923
0.538504
0.552042
0.355363
0.35657
0.361328
0.572598
0.54076
0.363857
0.532161
0.345115
0.395967
0.538849
0.36162
0.332396
0.301395
0.403779
0.369776
0.539486
0.549915
0.545238
0.409273
0.539045
0.549285
0.364527
0.539591
0.462264
0.548084
0.358708
0.473962
0.53926
0.370402
0.283887
0.538358
0.580336
0.362076
0.553841
0.577962
0.540064
0.475333
0.358232
0.515441
0.540968
0.402593
0.357123
0.445602
0.423076
0.53867
0.377614
0.361129
0.54851
0.535829
0.359435
0.360021
0.541162
0.369098
0.331989
0.357681
0.547052
0.552507
0.36398
0.547247
0.36889
0.346903
0.348213
0.430582
0.361967
0.547268
0.358947
0.325566
0.572939
0.546158
0.414409
0.537281
0.354673
0.368935
0.523686
0.557258
0.535036
0.585458
0.532107
0.552917
0.363612
0.546604
0.314602
0.536791
0.537227
0.502975
0.537077
0.537828
0.540972
0.53911
0.454928
0.34988
0.527245
0.36976
0.522007
0.540541
0.514216
0.37574
0.544274
0.453656
0.536732
0.36976
0.344092
0.559528
0.325478
0.538439
0.557202
0.40301
0.369868
0.372804
0.539073
0.419066
0.305009
0.548287
0.370835
0.536195
0.348573
0.349723
0.378086
0.542237
0.418027
0.537961
0.365594
0.365761
0.542297
0.540137
0.344574
0.417704
0.313826
0.577701
0.373041
0.549274
0.539404
0.537257
0.288184
0.361548
0.487813
0.568456
0.555438
0.539671
0.32599
0.526456
0.544928
0.537631
0.536961
0.360982
0.53282
0.366297
0.471114
0.550627
0.544754
0.538633
0.553359
0.519479
0.539933
0.550986
0.542339
0.533371
0.544163
0.539852
0.542155
0.366679
0.370846
0.539156
0.493165
0.537667
0.535515
0.554878
0.542861
0.552223
0.376085
0.370091
0.536414
0.366278
0.365264
0.366602
0.541253
0.53605
0.538856
0.526096
0.534652
0.357361
0.546635
0.358257
0.352333
0.5523
0.53565
0.534862
0.490228
0.484408
0.37383
0.369266
0.43345
0.297487
0.392007
0.551186
0.342858
0.540248
0.370473
0.547688
0.540477
0.335599
0.324251
0.517535
0.536651
0.369288
0.521834
0.295457
0.348792
0.363616
0.540961
0.541793
0.535535
0.538667
0.277139
0.352508
0.30348
0.372048
0.536022
0.554666
0.545853
0.363345
0.353556
0.538125
0.540016
0.543834
0.330022
0.498051
0.5666
0.550348
0.52958
0.356311
0.408993
0.341477
0.543107
0.362204
0.366388
0.536254
0.32586
0.539005
0.33825
0.357983
0.492049
0.348924
0.553491
0.536139
0.539034
0.546767
0.560689
0.523315
0.495585
0.338256
0.523367
0.539906
0.528252
0.543394
0.540465
0.547592
0.514538
0.539875
0.541857
0.338314
0.36817
0.555432
0.453293
0.540709
0.362885
0.553072
0.39259
0.536011
0.539729
0.521546
0.539775
0.547723
0.527179
0.353044
0.375678
0.555843
0.553693
0.539719
0.477029
0.55164
0.467281
0.585131
0.538546
0.494164
0.484044
0.548033
0.536633
0.358864
0.360196
0.539989
0.520704
0.372747
0.358095
0.519568
0.536053
0.535478
0.556527
0.368249
0.534767
0.330274
0.543855
0.369792
0.553349
0.292367
0.555299
0.361745
0.564479
0.534707
0.368428
0.332029
0.491942
0.363601
0.503738
0.357509
0.538851
0.535716
0.540063
0.541723
0.540869
0.543315
0.53807
0.555979
0.548673
0.516195
0.588521
0.515536
0.546724
0.367039
0.587856
0.590123
0.540041
0.336392
0.512478
0.552708
0.538256
0.376703
0.355073
0.366862
0.553269
0.517323
0.357744
0.514513
0.449237
0.538322
0.368072
0.458038
0.338257
0.354943
0.558148
0.397336
0.581637
0.369814
0.556385
0.353551
0.538541
0.520287
0.538273
0.350163
0.340164
0.432525
0.527821
0.376474
0.430737
0.372283
0.547779
0.532902
0.55267
0.533763
0.560039
0.524837
0.409309
0.342867
0.539137
0.361275
0.52307
0.537066
0.55635
0.247473
0.316454
0.534838
0.53824
0.461556
0.575647
0.545383
0.529918
0.320633
0.550196
0.531196
0.543397
0.541803
0.395825
0.535689
0.369505
0.539585
0.549264
0.518363
0.539438
0.400072
0.544526
0.273331
0.387172
0.517359
0.550449
0.538425
0.553314
0.374947
0.539885
0.543475
0.374741
0.357214
0.332602
0.554641
0.362306
0.367785
0.363988
0.355992
0.348162
0.45416
0.549995
0.342737
0.549885
0.534709
0.369978
0.544979
0.373583
0.554904
0.343383
0.482318
0.359865
0.538152
0.540585
0.424562
0.512001
0.540973
0.581204
0.363315
0.497049
0.466625
0.365413
0.381864
0.497919
0.315202
0.552582
0.329657
0.376014
0.388943
0.535635
0.537889
0.353954
0.364169
0.551879
0.371253
0.349356
0.537632
0.399498
0.330544
0.379856
0.557054
0.5332
0.555407
0.37379
0.339118
0.546494
0.549625
0.53801
0.445497
0.521237
0.53914
0.480833
0.496694
0.361484
0.356987
0.286062
0.509024
0.286351
0.553687
0.526657
0.541594
0.363464
0.4532
0.5177
0.562533
0.318111
0.499159
0.291404
0.507283
0.366917
0.332103
0.303387
0.545127
0.358921
0.556745
0.346947
0.454439
0.370772
0.489796
0.381944
0.550899
0.324741
0.519292
0.50337
0.361431
0.540405
0.540579
0.316957
0.55417
0.358747
0.375523
0.549745
0.325702
0.550062
0.356598
0.26759
0.539044
0.364901
0.410625
0.341278
0.34665
0.369387
0.528798
0.470439
0.543293
0.553719
0.570275
0.550442
0.436398
0.545081
0.321125
0.540568
0.373041
0.536138
0.355394
0.444199
0.536467
0.55504
0.542478
0.41709
0.462795
0.3743
0.358212
0.356934
0.270036
0.545259
0.435427
0.553447
0.539096
0.501206
0.554348
0.541508
0.45656
0.314103
0.450469
0.550111
0.506226
0.516243
0.539922