# vtk DataFile Version 1.0
unstructured grid
ascii
DATASET UNSTRUCTURED_GRID
points 3226 float
0.0796578 -0.059106 0
0.00128732 0.00159165 0
0.00227961 -0.00102548 0
0.0791586 -0.0598787 0
-0.0546216 0.01 0
0.000495206 0.025 0
0.0800549 -0.035 0
0.135172 -0.08 0
-0.0546216 -0.0451168 0
0.000495206 -0.0301168 0
0.0800549 -0.0901168 0
0.135172 -0.135117 0
-0.0546216 -0.0451168 -0.00551168
0.000495206 -0.0301168 -0.00551168
0.0800549 -0.0901168 -0.00551168
0.135172 -0.135117 -0.00551168
0.135172 -0.08 -0.00551168
0.0800549 -0.035 -0.00551168
0.000495206 0.025 -0.00551168
-0.0546216 0.01 -0.00551168
0.00128732 0.00159165 -0.00551168
0.00227961 -0.00102548 -0.00551168
0.0791586 -0.0598787 -0.00551168
0.0796578 -0.059106 -0.00551168
0.00110182 -0.000823821 0
0.000571683 -0.000188043 0
0.000561313 0.000639162 0
0.00189316 0.00207203 0
0.00260228 0.00255358 0
0.0033966 0.00307293 0
0.00428861 0.00362634 0
0.00529726 0.0041979 0
0.00644092 0.00476696 0
0.00773158 0.0053187 0
0.00918011 0.00583593 0
0.010799 0.00628751 0
0.012597 0.00663225 0
0.0145725 0.0068517 0
0.0167206 0.0069338 0
0.0190349 0.00685819 0
0.0215031 0.00658621 0
0.0241038 0.00607459 0
0.026821 0.00533786 0
0.0296245 0.00434523 0
0.0324763 0.00306927 0
0.0353199 0.00146906 0
0.0381488 -0.00039338 0
0.0409131 -0.00252802 0
0.0435632 -0.00493276 0
0.0460882 -0.0075571 0
0.0484881 -0.0103478 0
0.0506782 -0.0133217 0
0.0526651 -0.016422 0
0.0546139 -0.0195019 0
0.0565301 -0.022529 0
0.0584009 -0.0254846 0
0.0602154 -0.0283513 0
0.061964 -0.031114 0
0.0636389 -0.0337601 0
0.0652336 -0.0362795 0
0.0667431 -0.0386651 0
0.0681656 -0.0409111 0
0.0694983 -0.0430158 0
0.0707356 -0.0449823 0
0.071886 -0.0468071 0
0.0729575 -0.04849 0
0.0739438 -0.0500408 0
0.0748444 -0.0514675 0
0.0756707 -0.0527715 0
0.0764313 -0.053958 0
0.0771224 -0.0550398 0
0.0777384 -0.0560288 0
0.0782803 -0.0569318 0
0.0787691 -0.0577448 0
0.0792251 -0.0584672 0
0.0800494 -0.0597378 0
0.0797987 -0.0601582 0
0.0786655 -0.059391 0
0.0781259 -0.0588425 0
0.0775539 -0.0582102 0
0.0769587 -0.0574783 0
0.0763492 -0.0566339 0
0.075723 -0.0556725 0
0.0750452 -0.0546094 0
0.0742996 -0.0534457 0
0.073478 -0.0521785 0
0.072577 -0.0508019 0
0.0715904 -0.049313 0
0.0705098 -0.047712 0
0.069328 -0.0459996 0
0.0680378 -0.0441794 0
0.066632 -0.0422571 0
0.0651046 -0.0402413 0
0.0634508 -0.0381431 0
0.0616683 -0.0359754 0
0.0597581 -0.033753 0
0.0577255 -0.0314906 0
0.0555808 -0.0292024 0
0.0533388 -0.0269013 0
0.0510024 -0.0246151 0
0.0485693 -0.0223811 0
0.0460535 -0.0202228 0
0.0434788 -0.0181535 0
0.0408704 -0.0161833 0
0.0382442 -0.0143327 0
0.0356165 -0.0126209 0
0.0330065 -0.0110594 0
0.0304368 -0.00965062 0
0.0279338 -0.00838121 0
0.0255194 -0.00723697 0
0.0231965 -0.00623664 0
0.020983 -0.00535765 0
0.0188891 -0.00458677 0
0.0169193 -0.00391673 0
0.0150754 -0.00334068 0
0.0133572 -0.00285262 0
0.0117634 -0.0024437 0
0.0102912 -0.00210643 0
0.0089363 -0.00183343 0
0.00769424 -0.00161552 0
0.00655956 -0.00144452 0
0.00552632 -0.00131235 0
0.00458815 -0.00121216 0
0.00373885 -0.00113394 0
0.00297202 -0.00106855 0
-0.0506847 -0.0440454 0
-0.0467478 -0.0429739 0
-0.0428108 -0.0419025 0
-0.0388739 -0.0408311 0
-0.034937 -0.0397597 0
-0.0310001 -0.0386882 0
-0.0270632 -0.0376168 0
-0.0231263 -0.0365454 0
-0.0191894 -0.0354739 0
-0.0152525 -0.0344025 0
-0.0113155 -0.0333311 0
-0.00737862 -0.0322597 0
-0.00344171 -0.0311882 0
0.0038716 -0.0298185 0
0.00726082 -0.0297726 0
0.010644 -0.0299802 0
0.0140027 -0.0304367 0
0.0173201 -0.0311326 0
0.0205821 -0.0320541 0
0.0237776 -0.0331851 0
0.0268988 -0.0345078 0
0.0299406 -0.0360041 0
0.0329005 -0.0376567 0
0.035778 -0.039449 0
0.038574 -0.0413659 0
0.0412905 -0.043394 0
0.0439303 -0.0455212 0
0.0464964 -0.0477367 0
0.0489922 -0.0500312 0
0.051421 -0.0523964 0
0.0537863 -0.0548252 0
0.0560914 -0.0573112 0
0.0583395 -0.0598489 0
0.0605336 -0.0624334 0
0.0626765 -0.0650605 0
0.064771 -0.0677264 0
0.0668197 -0.0704277 0
0.0688248 -0.0731615 0
0.0707885 -0.0759252 0
0.072713 -0.0787163 0
0.0746002 -0.0815329 0
0.0764517 -0.0843729 0
0.0782695 -0.0872347 0
0.0829558 -0.0924852 0
0.0858567 -0.0948536 0
0.0887575 -0.0972221 0
0.0916584 -0.0995905 0
0.0945593 -0.101959 0
0.0974602 -0.104327 0
0.100361 -0.106696 0
0.103262 -0.109064 0
0.106163 -0.111433 0
0.109064 -0.113801 0
0.111965 -0.116169 0
0.114865 -0.118538 0
0.117766 -0.120906 0
0.120667 -0.123275 0
0.123568 -0.125643 0
0.126469 -0.128012 0
0.12937 -0.13038 0
0.132271 -0.132748 0
0.135172 -0.13118 0
0.135172 -0.127243 0
0.135172 -0.123306 0
0.135172 -0.119369 0
0.135172 -0.115432 0
0.135172 -0.111495 0
0.135172 -0.107558 0
0.135172 -0.103621 0
0.135172 -0.0996846 0
0.135172 -0.0957477 0
0.135172 -0.0918107 0
0.135172 -0.0878738 0
0.135172 -0.0839369 0
0.132271 -0.0776316 0
0.12937 -0.0752632 0
0.126469 -0.0728947 0
0.123568 -0.0705263 0
0.120667 -0.0681579 0
0.117766 -0.0657895 0
0.114865 -0.0634211 0
0.111965 -0.0610526 0
0.109064 -0.0586842 0
0.106163 -0.0563158 0
0.103262 -0.0539474 0
0.100361 -0.0515789 0
0.0974602 -0.0492105 0
0.0945593 -0.0468421 0
0.0916584 -0.0444737 0
0.0887575 -0.0421053 0
0.0858567 -0.0397368 0
0.0829558 -0.0373684 0
0.0782695 -0.0321179 0
0.0764517 -0.0292561 0
0.0746002 -0.026416 0
0.072713 -0.0235995 0
0.0707885 -0.0208084 0
0.0688248 -0.0180447 0
0.0668197 -0.0153109 0
0.064771 -0.0126096 0
0.0626765 -0.00994373 0
0.0605336 -0.00731663 0
0.0583395 -0.00473208 0
0.0560914 -0.00219437 0
0.0537863 0.000291632 0
0.051421 0.00272041 0
0.0489922 0.00508564 0
0.0464964 0.00738012 0
0.0439303 0.00959562 0
0.0412905 0.0117228 0
0.038574 0.0137509 0
0.035778 0.0156678 0
0.0329005 0.0174601 0
0.0299406 0.0191127 0
0.0268988 0.020609 0
0.0237776 0.0219317 0
0.0205821 0.0230627 0
0.0173201 0.0239842 0
0.0140027 0.0246801 0
0.010644 0.0251366 0
0.00726082 0.0253442 0
0.0038716 0.0252983 0
-0.00344171 0.0239286 0
-0.00737862 0.0228571 0
-0.0113155 0.0217857 0
-0.0152525 0.0207143 0
-0.0191894 0.0196429 0
-0.0231263 0.0185714 0
-0.0270632 0.0175 0
-0.0310001 0.0164286 0
-0.034937 0.0153571 0
-0.0388739 0.0142857 0
-0.0428108 0.0132143 0
-0.0467478 0.0121429 0
-0.0506847 0.0110714 0
-0.0546216 0.00606309 0
-0.0546216 0.00212617 0
-0.0546216 -0.00181074 0
-0.0546216 -0.00574766 0
-0.0546216 -0.00968457 0
-0.0546216 -0.0136215 0
-0.0546216 -0.0175584 0
-0.0546216 -0.0214953 0
-0.0546216 -0.0254322 0
-0.0546216 -0.0293691 0
-0.0546216 -0.0333061 0
-0.0546216 -0.037243 0
-0.0546216 -0.0411799 0
-0.0506847 -0.0440454 -0.00551168
-0.0467478 -0.0429739 -0.00551168
-0.0428108 -0.0419025 -0.00551168
-0.0388739 -0.0408311 -0.00551168
-0.034937 -0.0397597 -0.00551168
-0.0310001 -0.0386882 -0.00551168
-0.0270632 -0.0376168 -0.00551168
-0.0231263 -0.0365454 -0.00551168
-0.0191894 -0.0354739 -0.00551168
-0.0152525 -0.0344025 -0.00551168
-0.0113155 -0.0333311 -0.00551168
-0.00737862 -0.0322597 -0.00551168
-0.00344171 -0.0311882 -0.00551168
0.0038716 -0.0298185 -0.00551168
0.00726082 -0.0297726 -0.00551168
0.010644 -0.0299802 -0.00551168
0.0140027 -0.0304367 -0.00551168
0.0173201 -0.0311326 -0.00551168
0.0205821 -0.0320541 -0.00551168
0.0237776 -0.0331851 -0.00551168
0.0268988 -0.0345078 -0.00551168
0.0299406 -0.0360041 -0.00551168
0.0329005 -0.0376567 -0.00551168
0.035778 -0.039449 -0.00551168
0.038574 -0.0413659 -0.00551168
0.0412905 -0.043394 -0.00551168
0.0439303 -0.0455212 -0.00551168
0.0464964 -0.0477367 -0.00551168
0.0489922 -0.0500312 -0.00551168
0.051421 -0.0523964 -0.00551168
0.0537863 -0.0548252 -0.00551168
0.0560914 -0.0573112 -0.00551168
0.0583395 -0.0598489 -0.00551168
0.0605336 -0.0624334 -0.00551168
0.0626765 -0.0650605 -0.00551168
0.064771 -0.0677264 -0.00551168
0.0668197 -0.0704277 -0.00551168
0.0688248 -0.0731615 -0.00551168
0.0707885 -0.0759252 -0.00551168
0.072713 -0.0787163 -0.00551168
0.0746002 -0.0815329 -0.00551168
0.0764517 -0.0843729 -0.00551168
0.0782695 -0.0872347 -0.00551168
0.0829558 -0.0924852 -0.00551168
0.0858567 -0.0948536 -0.00551168
0.0887575 -0.0972221 -0.00551168
0.0916584 -0.0995905 -0.00551168
0.0945593 -0.101959 -0.00551168
0.0974602 -0.104327 -0.00551168
0.100361 -0.106696 -0.00551168
0.103262 -0.109064 -0.00551168
0.106163 -0.111433 -0.00551168
0.109064 -0.113801 -0.00551168
0.111965 -0.116169 -0.00551168
0.114865 -0.118538 -0.00551168
0.117766 -0.120906 -0.00551168
0.120667 -0.123275 -0.00551168
0.123568 -0.125643 -0.00551168
0.126469 -0.128012 -0.00551168
0.12937 -0.13038 -0.00551168
0.132271 -0.132748 -0.00551168
0.135172 -0.13118 -0.00551168
0.135172 -0.127243 -0.00551168
0.135172 -0.123306 -0.00551168
0.135172 -0.119369 -0.00551168
0.135172 -0.115432 -0.00551168
0.135172 -0.111495 -0.00551168
0.135172 -0.107558 -0.00551168
0.135172 -0.103621 -0.00551168
0.135172 -0.0996846 -0.00551168
0.135172 -0.0957477 -0.00551168
0.135172 -0.0918107 -0.00551168
0.135172 -0.0878738 -0.00551168
0.135172 -0.0839369 -0.00551168
0.132271 -0.0776316 -0.00551168
0.12937 -0.0752632 -0.00551168
0.126469 -0.0728947 -0.00551168
0.123568 -0.0705263 -0.00551168
0.120667 -0.0681579 -0.00551168
0.117766 -0.0657895 -0.00551168
0.114865 -0.0634211 -0.00551168
0.111965 -0.0610526 -0.00551168
0.109064 -0.0586842 -0.00551168
0.106163 -0.0563158 -0.00551168
0.103262 -0.0539474 -0.00551168
0.100361 -0.0515789 -0.00551168
0.0974602 -0.0492105 -0.00551168
0.0945593 -0.0468421 -0.00551168
0.0916584 -0.0444737 -0.00551168
0.0887575 -0.0421053 -0.00551168
0.0858567 -0.0397368 -0.00551168
0.0829558 -0.0373684 -0.00551168
0.0782695 -0.0321179 -0.00551168
0.0764517 -0.0292561 -0.00551168
0.0746002 -0.026416 -0.00551168
0.072713 -0.0235995 -0.00551168
0.0707885 -0.0208084 -0.00551168
0.0688248 -0.0180447 -0.00551168
0.0668197 -0.0153109 -0.00551168
0.064771 -0.0126096 -0.00551168
0.0626765 -0.00994373 -0.00551168
0.0605336 -0.00731663 -0.00551168
0.0583395 -0.00473208 -0.00551168
0.0560914 -0.00219437 -0.00551168
0.0537863 0.000291632 -0.00551168
0.051421 0.00272041 -0.00551168
0.0489922 0.00508564 -0.00551168
0.0464964 0.00738012 -0.00551168
0.0439303 0.00959562 -0.00551168
0.0412905 0.0117228 -0.00551168
[...]
CELL_DATA 2965
SCALARS rho float
LOOKUP_TABLE default
0.677773
0.41034
0.700866
0.342244
0.705531
0.407894
0.575622
0.410222
0.413365
0.703894
0.341525
0.360429
0.60167
0.697587
0.687756
0.702769
0.706802
0.697512
0.703344
0.707244
0.677236
0.422346
0.696946
0.702105
0.709824
0.70078
0.581973
0.689719
0.347548
0.607398
0.620554
0.397169
0.700279
0.707426
0.490109
0.404717
0.70826
0.710383
0.399128
0.610322
0.708862
0.650907
0.695115
0.414052
0.413533
0.696842
0.637999
0.688701
0.49217
0.640299
0.533739
0.415743
0.417292
0.568579
0.347845
0.559955
0.406364
0.337171
0.48725
0.665239
0.680222
0.6897
0.386151
0.705362
0.692303
0.69422
0.565874
0.428698
0.402411
0.337012
0.697798
0.701405
0.568422
0.462378
0.620221
0.588594
0.647684
0.40938
0.446566
0.607017
0.558644
0.389861
0.394316
0.604802
0.691489
0.529283
0.439239
0.466871
0.70186
0.411322
0.394654
0.696203
0.699898
0.634712
0.693435
0.418692
0.660788
0.404497
0.338791
0.401198
0.665864
0.401873
0.336345
0.412246
0.336487
0.699948
0.65764
0.438918
0.336728
0.639559
0.406064
0.58817
0.593916
0.692994
0.404717
0.460729
0.697737
0.627745
0.664699
0.358721
0.55787
0.470093
0.699203
0.704996
0.694143
0.545869
0.358877
0.682659
0.707752
0.483829
0.340692
0.568101
0.71017
0.338564
0.584021
0.410412
0.616378
0.699903
0.697945
0.705087
0.340567
0.702178
0.708695
0.518267
0.472602
0.703554
0.384232
0.706121
0.698989
0.407793
0.358168
0.352329
0.336613
0.388881
0.487879
0.46437
0.596066
0.709705
0.700285
0.701786
0.610613
0.602671
0.557855
0.710202
0.403821
0.571444
0.586243
0.412248
0.633695
0.69767
0.610272
0.485242
0.575384
0.704482
0.705264
0.609639
0.627922
0.536786
0.47843
0.558319
0.406679
0.479985
0.423672
0.497889
0.698482
0.568225
0.349706
0.3566
0.532652
0.33611
0.403439
0.339542
0.661434
0.488208
0.58553
0.591617
0.709987
0.690934
0.579111
0.434681
0.414239
0.39003
0.69962
0.657314
0.55964
0.420762
0.572985
0.586319
0.697975
0.703429
0.693405
0.553631
0.418923
0.406611
0.695507
0.424911
0.654668
0.40021
0.702766
0.335981
0.413301
0.369205
0.590209
0.532492
0.700662
0.400545
0.558103
0.691447
0.537166
0.611677
0.452515
0.457144
0.697711
0.41442
0.695308
0.697943
0.336419
0.705963
0.335993
0.567196
0.548079
0.349528
0.705262
0.66878
0.351837
0.466187
0.707834
0.686048
0.624286
0.692228
0.415079
0.354697
0.580508
0.411481
0.693427
0.462378
0.445619
0.65388
0.692347
0.337693
0.684498
0.544266
0.701103
0.403429
0.711394
0.644815
0.485439
0.594016
0.691572
0.404814
0.364861
0.70118
0.369073
0.701068
0.698375
0.37046
0.697362
0.700357
0.700859
0.698299
0.707362
0.689608
0.70346
0.687494
0.515911
0.408301
0.699932
0.699
0.366162
0.701728
0.588358
0.452201
0.390531
0.397457
0.595398
0.43611
0.665141
0.605236
0.701075
0.338829
0.604382
0.690006
0.617284
0.691572
0.350149
0.478335
0.702223
0.621391
0.651412
0.404467
0.36665
0.623918
0.435442
0.445491
0.696318
0.558185
0.691478
0.395959
0.33639
0.66944
0.694992
0.410231
0.690554
0.56422
0.359192
0.637694
0.695404
0.64206
0.457151
0.349762
0.674404
0.412073
0.706345
0.528129
0.699212
0.546793
0.552404
0.416939
0.35517
0.543381
0.697029
0.700664
0.701416
0.709247
0.690224
0.591698
0.399094
0.695929
0.705665
0.33711
0.341341
0.682346
0.404263
0.699089
0.690353
0.338184
0.336065
0.394223
0.336377
0.55935
0.336431
0.368768
0.529311
0.404521
0.695627
0.694577
0.589886
0.628398
0.339294
0.699414
0.354931
0.680541
0.342129
0.421756
0.700814
0.641873
0.450281
0.480061
0.699599
0.56218
0.642751
0.70175
0.519799
0.700104
0.473249
0.391019
0.689438
0.43014
0.698398
0.46937
0.529255
0.407083
0.700285
0.595767
0.58042
0.690016
0.482888
0.706577
0.55698
0.3608
0.704171
0.427447
0.712279
0.558608
0.666481
0.47061
0.547187
0.358936
0.47018
0.353426
0.410415
0.706228
0.696169
0.695015
0.629848
0.411483
0.707485
0.590352
0.698187
0.47662
0.692224
0.410939
0.690884
0.690059
0.386696
0.568931
0.541267
0.697742
0.428641
0.658556
0.706374
0.425478
0.69987
0.480459
0.702721
0.441353
0.336322
0.553863
0.707486
0.702
0.617338
0.450304
0.475668
0.56539
0.707774
0.702912
0.696327
0.701103
0.697989
0.339051
0.644119
0.688942
0.336403
0.472551
0.407429
0.608036
0.697066
0.522212
0.546283
0.5313
0.410863
0.698597
0.696265
0.612769
0.702589
0.547298
0.692614
0.696018
0.520072
0.702873
0.517665
0.541121
0.699668
0.693401
0.705987
0.705782
0.337802
0.337287
0.699848
0.703206
0.336444
0.699654
0.611638
0.694344
0.410512
0.409218
0.696295
0.338016
0.595131
0.694057
0.697106
0.336383
0.694087
0.365638
0.368377
0.431864
0.571864
0.693297
0.529984
0.697703
0.47448
0.423054
0.700587
0.42155
0.481342
0.336387
0.48657
0.518819
0.337795
0.454697
0.573562
0.581085
0.351638
0.413732
0.698068
0.339005
0.578269
0.694467
0.689629
0.696002
0.69329
0.672723
0.59246
0.435459
0.52792
0.693326
0.693702
0.466823
0.697573
0.419167
0.482061
0.42815
0.705933
0.700851
0.371133
0.69624
0.698085
0.500069
0.395218
0.710249
0.610504
0.517997
0.709639
0.577042
0.336011
0.710648
0.359184
0.644832
0.700923
0.633075
0.706492
0.34243
0.409441
0.698386
0.57176
0.427331
0.408853
0.417182
0.444255
0.691482
0.702214
0.69968
0.336148
0.481453
0.361809
0.366807
0.700764
0.43816
0.603454
0.354668
0.698577
0.701121
0.393805
0.635936
0.537283
0.694095
0.485212
0.698667
0.710233
0.699313
0.710505
0.642881
0.698561
0.411065
0.64625
0.407014
0.706512
0.448817
0.443395
0.69681
0.670916
0.691441
0.361134
0.356361
0.698885
0.70411
0.411908
0.696701
0.45789
0.496186
0.418378
0.700061
0.699391
0.686576
0.432668
0.486168
0.408655
0.369749
0.698374
0.585449
0.705237
0.37148
0.341995
0.591065
0.705024
0.709307
0.697021
0.605888
0.550672
0.706032
0.702551
0.697637
0.378343
0.70531
0.692456
0.563643
0.697586
0.707732
0.694202
0.528342
0.700486
0.400946
0.703561
0.661145
0.46808
0.574387
0.596349
0.702791
0.339328
0.337215
0.691771
0.496342
0.336005
0.702323
0.496411
0.561173
0.707932
0.490899
0.701663
0.451464
0.599221
0.696132
0.70061
0.696291
0.522673
0.451425
0.705256
0.649109
0.415538
0.597659
0.499332
0.669763
0.336323
0.614086
0.697868
0.609151
0.354948
0.653982
0.413305
0.554759
0.592794
0.361233
0.489375
0.336366
0.6641
0.584613
0.568559
0.352284
0.653714
0.692348
0.347446
0.6544
0.335928
0.602045
0.651336
0.558157
0.697865
0.497532
0.446112
0.654148
0.700704
0.676027
0.69189
0.706898
0.651958
0.612191
0.350802
0.616426
0.535421
0.518971
0.522776
0.634315
0.70345
0.697716
0.54459
0.369661
0.709588
0.346043
0.388151
0.580838
0.337143
0.594424
0.407868
0.563421
0.410738
0.446116
0.572575
0.700323
0.362716
0.497745
0.704214
0.700257
0.700798
0.456996
0.492957
0.704241
0.421865
0.492328
0.40776
0.570608
0.698559
0.488643
0.703182
0.380137
0.653675
0.69664
0.559795
0.623018
0.599018
0.688301
0.696947
0.699563
0.698975
0.700438
0.711433
0.559582
0.410782
0.585359
0.699681
0.420571
0.700792
0.698965
0.45394
0.699414
0.690502
0.700646
0.711456
0.690368
0.710179
0.499344
0.691688
0.366615
0.496289
0.697062
0.655825
0.439292
0.344251
0.702721
0.572398
0.680781
0.46445
0.475598
0.705265
0.699726
0.700223
0.698784
0.688737
0.549432
0.605776
0.439997
0.561165
0.696558
0.692931
0.423605
0.536546
0.70202
0.694259
0.699158
0.422364
0.62715
0.36565
0.43741
0.360109
0.698984
0.698109
0.707354
0.591959
0.337998
0.660121
0.537112
0.706944
0.701565
0.692517
0.343962
0.510245
0.693062
0.346399
0.577355
0.688447
0.33601
0.425955
0.673017
0.709618
0.336003
0.606431
0.694809
0.345458
0.628325
0.695761
0.70312
0.413053
0.419418
0.710602
0.554675
0.335904
0.557905
0.683305
0.427406
0.541652
0.336115
0.498
0.710184
0.375089
0.34167
0.700016
0.37861
0.507157
0.702247
0.70384
0.708516
0.618121
0.693385
0.377509
0.700996
0.693295
0.520231
0.699594
0.699833
0.565634
0.559574
0.412691
0.632932
0.410952
0.612267
0.525158
0.669614
0.33597
0.692144
0.52095
0.710239
0.701385
0.7019
0.611833
0.692034
0.698229
0.478865
0.692545
0.479542
0.558118
0.69886
0.360721
0.552555
0.362541
0.335872
0.55874
0.537811
0.696895
0.428377
0.682579
0.696833
0.704354
0.585782
0.408765
0.471216
0.337944
0.460421
0.706921
0.533589
0.336014
0.69531
0.336172
0.567273
0.698301
0.698908
0.694741
0.707418
0.479479
0.597795
0.525749
0.561452
0.693555
0.672135
0.400527
0.707804
0.708038
0.702164
0.693984
0.708733
0.532338
0.669403
0.711334
0.676008
0.685099
0.345618
0.699224
0.412526
0.652081
0.702036
0.622706
0.699706
0.603658
0.626315
0.698045
0.361473
0.700086
0.352038
0.344278
0.711714
0.700333
0.690404
0.658922
0.710081
0.559086
0.702978
0.563081
0.690889
0.695155
0.700309
0.412363
0.69475
0.698494
0.513298
0.710998
0.452811
0.60712
0.345352
0.688734
0.350597
0.339386
0.397726
0.687996
0.695103
0.565233
0.691846
0.34237
0.341152
0.681995
0.699512
0.427893
0.697237
0.574455
0.336526
0.696641
0.374143
0.456321
0.706928
0.644572
0.376812
0.699443
0.698409
0.698441
0.336368
0.700387
0.474116
0.652438
0.568996
0.662354
0.408248
0.70297
0.423398
0.416613
0.338998
0.69996
0.499305
0.695492
0.706026
0.687336
0.408582
0.526527
0.699947
0.511863
0.473414
0.336408
0.69622
0.505772
0.372065
0.456903
0.627275
0.335979
0.339371
0.411281
0.695969
0.700673
0.421437
0.698685
0.698545
0.693203
0.379389
0.506554
0.711151
0.337375
0.699403
0.509111
0.698982
0.443584
0.449202
0.699807
0.34012
0.376932
0.337288
0.673098
0.502278
0.642362
0.711272
0.365532
0.696404
0.393599
0.704518
0.570454
0.336531
0.335912
0.695313
0.572605
0.69288
0.42827
0.370193
0.669513
0.557878
0.362065
0.351307
0.382065
0.565172
0.710382
0.397342
0.677507
0.698161
0.690893
0.698594
0.345544
0.712209
0.513397
0.69826
0.694572
0.68626
0.344542
0.695815
0.704891
0.336321
0.700223
0.711971
0.341498
0.396503
0.459658
0.466342
0.700067
0.336672
0.694291
0.548619
0.55963
0.628658
0.525563
0.699134
0.419478
0.685741
0.336907
0.683467
0.694473
0.467272
0.361488
0.401294
0.599665
0.699794
0.361612
0.440382
0.402488
0.579564
0.702221
0.40295
0.338906
0.700774
0.712664
0.702149
0.343146
0.411074
0.701316
0.683942
0.337912
0.402009
0.611875
0.702275
0.695186
0.501254
0.68992
0.695784
0.507919
0.69856
0.402119
0.712614
0.502344
0.518436
0.369121
0.496275
0.694489
0.435105
0.346158
0.448769
0.336171
0.692393
0.70912
0.703154
0.33602
0.559825
0.703872
0.697393
0.70687
0.692324
0.702379
0.705015
0.705714
0.709201
0.695403
0.424655
0.688972
0.70124
0.512346
0.709396
0.702635
0.697528
0.69627
0.424637
0.708277
0.567164
0.702605
0.374155
0.700214
0.698953
0.693418
0.709264
0.450056
0.597554
0.414654
0.554779
0.342215
0.344786
0.337409
0.337496
0.687542
0.710929
0.703536
0.423551
0.693671
0.638015
0.698089
0.342914
0.353407
0.698233
0.3891
0.502694
0.339581
0.708922
0.586665
0.693045
0.346778
0.704875
0.698027
0.685413
0.708718
0.339351
0.701385
0.696768
0.697802
0.699661
0.699225
0.648553
0.421566
0.412186
0.352641
0.685112
0.449556
0.71156
0.698514
0.697528
0.341008
0.39697
0.601871
0.700335
0.63848
0.349204
0.699592
0.593337
0.448399
0.681094
0.336041
0.53513
0.339689
0.41017
0.336
0.69939
0.701536
0.70048
0.627062
0.710631
0.689308
0.69811
0.677317
0.703165
0.704591
0.687023
0.686262
0.395744
0.603035
0.69884
0.56379
0.341783
0.695384
0.422672
0.69803
0.591692
0.709668
0.707409
0.339301
0.712526
0.39748
0.707482
0.699253
0.70657
0.601138
0.701131
0.70835
0.68954
0.414196
0.574247
0.576583
0.476093
0.687484
0.698416
0.644926
0.702659
0.699484
0.676076
0.457754
0.344063
0.698281
0.702595
0.421001
0.391936
0.697776
0.697578
0.69575
0.485843
0.686259
0.698872
0.708537
0.341574
0.677379
0.598694
0.685658
0.611684
0.633645
0.698073
0.4233
0.705447
0.357552
0.341651
0.683007
0.520505
0.545979
0.351616
0.705848
0.698652
0.668268
0.694918
0.636001
0.407661
0.533111
0.700484
0.696406
0.710657
0.60653
0.484878
0.701393
0.570393
0.347437
0.696843
0.700801
0.336596
0.697163
0.701135
0.57676
0.614812
0.688941
0.522087
0.689546
0.698685
0.69258
0.336035
0.689988
0.596625
0.688432
0.699484
0.70156
0.698565
0.697041
0.693158
0.697385
0.698822
0.415455
0.706622
0.640966
0.397712
0.609111
0.697778
0.701047
0.697372
0.344911
0.709743
0.360686
0.707795
0.69021
0.700005
0.371688
0.700315
0.697954
0.622816
0.707003
0.691484
0.605545
0.682496
0.544211
0.347422
0.474683
0.582125
0.420246
0.461474
0.709336
0.408422
0.705883
0.409838
0.69875
0.378492
0.381681
0.701438
0.55274
0.499884
0.701187
0.693195
0.699149
0.336007
0.698139
0.698365
0.698364
0.353201
0.576613
0.698548
0.337876
0.684558
0.680164
0.704009
0.409935
0.536535
0.617579
0.342575
0.71109
0.346042
0.337447
0.669917
0.545096
0.696796
0.336016
0.700019
0.632288
0.569491
0.455711
0.444788
0.654849
0.410273
0.568887
0.414122
0.692401
0.694817
0.624779
0.583138
0.68054
0.474391
0.694488
0.703166
0.698727
0.595374
0.411809
0.411071
0.400514
0.336671
0.670961
0.383453
0.688004
0.437205
0.707248
0.705382
0.683963
0.335925
0.692958
0.446498
0.699717
0.700768
0.405483
0.693382
0.703098
0.381471
0.699095
0.341759
0.40796
0.701789
0.527456
0.700031
0.461479
0.420425
0.698894
0.405928
0.712565
0.355141
0.622687
0.693938
0.698495
0.558284
0.444485
0.507026
0.606603
0.559771
0.42211
0.699334
0.440842
0.698576
0.345501
0.43501
0.67898
0.598424
0.578598
0.699675
0.695675
0.601974
0.684622
0.705077
0.687355
0.413206
0.702148
0.408557
0.37514
0.693983
0.561
0.538193
0.574847
0.338029
0.697457
0.615035
0.699426
0.447923
0.455275
0.684007
0.670909
0.69743
0.70201
0.349943
0.683659
0.706046
0.699459
0.575812
0.336698
0.388335
0.345097
0.698948
0.69925
0.537615
0.44555
0.573997
0.357485
0.702971
0.663271
0.506088
0.677619
0.553881
0.706586
0.698984
0.339708
0.40811
0.697245
0.420085
0.539469
0.695309
0.47284
0.339946
0.337205
0.63377
0.710878
0.63756
0.336067
0.417791
0.700973
0.695137
0.693347
0.699033
0.336019
0.43823
0.423955
0.672403
0.38712
0.435038
0.700973
0.711274
0.656421
0.405093
0.401498
0.430872
0.689513
0.502198
0.707675
0.581037
0.698502
0.589309
0.699322
0.70164
0.505852
0.336178
0.697122
0.401491
0.588051
0.700045
0.70434
0.567108
0.36502
0.409987
0.699657
0.548591
0.533522
0.704892
0.697356
0.492958
0.335962
0.678197
0.602374
0.389003
0.339807
0.705385
0.616026
0.699189
0.691758
0.51357
0.412595
0.383358
0.563063
0.504928
0.557772
0.699271
0.679003
0.69755
0.415534
0.695097
0.413756
0.693402
0.704252
0.377505
0.490231
0.705534
0.539274
0.600898
0.696731
0.427135
0.698365
0.708098
0.687087
0.613892
0.702166
0.407168
0.336032
0.432079
0.614326
0.690752
0.698422
0.598643
0.340576
0.335966
0.672323
0.341375
0.70206
0.688054
0.698077
0.514323
0.377673
0.587325
0.697157
0.560692
0.698772
0.68664
0.686452
0.696787
0.693106
0.489425
0.645482
0.694752
0.700579
0.415434
0.704176
0.58224
0.698977
0.700519
0.584739
0.647162
0.706955
0.692754
0.56191
0.389388
0.698846
0.702042
0.389657
0.699743
0.41279
0.417612
0.557676
0.690659
0.341828
0.639986
0.687704
0.404605
0.414626
0.699765
0.703535
0.617712
0.404497
0.63892
0.402735
0.702535
0.703791
0.336018
0.677057
0.668064
0.420446
0.34625
0.403849
0.700559
0.701629
0.337114
0.409591
0.547705
0.394829
0.411867
0.696566
0.389322
0.702591
0.697303
0.699867
0.377065
0.695393
0.681778
0.704992
0.580542
0.698594
0.374294
0.49874
0.335878
0.703674
0.511256
0.335987
0.698086
0.337721
0.58494
0.618878
0.595535
0.514357
0.430677
0.698412
0.697577
0.699028
0.70076
0.701727
0.336043
0.408736
0.336726
0.624904
0.694457
0.336177
0.69997
0.351682
0.521656
0.68707
0.444731
0.41501
0.471384
0.560282
0.338111
0.690814
0.702848
0.698712
0.512544
0.69107
0.700249
0.335997
0.69183
0.525561
0.706458
0.413039
0.538915
0.692531
0.381289
0.444583
0.699049
0.65957
0.336213
0.706181
0.604921
0.695721
0.550897
0.410724
0.695149
0.695935
0.551944
0.406818
0.623272
0.60913
0.684478
0.427134
0.339508
0.703104
0.703549
0.40518
0.33602
0.707986
0.386022
0.401595
0.370667
0.583233
0.706062
0.398794
0.700058
0.457456
0.384627
0.413298
0.606892
0.407367
0.699624
0.367718
0.412365
0.595559
0.700896
0.526554
0.635667
0.336101
0.388687
0.696494
0.700503
0.705632
0.622965
0.698981
0.7005
0.356154
0.701886
0.426551
0.609988
0.707493
0.552588
0.704801
0.665321
0.696419
0.690279
0.618121
0.415068
0.563415
0.336064
0.700641
0.700503
0.659156
0.441094
0.699097
0.521975
0.590506
0.347451
0.532651
0.695716
0.423853
0.704968
0.701086
0.586751
0.335985
0.528447
0.690606
0.596439
0.470148
0.699713
0.379469
0.706816
0.416441
0.374556
0.444869
0.69697
0.579991
0.666595
0.335941
0.404441
0.702058
0.697527
0.496785
0.536247
0.481621
0.594855
0.403362
0.670995
0.702243
0.64097
0.475184
0.401843
0.598463
0.69474
0.704978
0.695511
0.428107
0.697018
0.699863
0.656015
0.608379
0.394264
0.698105
0.41302
0.680682
0.70062
0.700386
0.698657
0.708751
0.701181
0.698506
0.700482
0.704758
0.698327
0.698598
0.694495
0.696291
0.336609
0.385093
0.689221
0.681405
0.655995
0.557712
0.70358
0.676043
0.704117
0.385698
0.351497
0.574406
0.335919
0.342587
0.348909
0.697467
0.703432
0.68786
0.699396
0.698574
0.336123
0.708382
0.336105
0.344995
0.701084
0.698858
0.7033
0.543305
0.541984
0.369148
0.345462
0.562435
0.429923
0.556007
0.702925
0.390037
0.704505
0.337561
0.70602
0.697651
0.488138
0.415772
0.700164
0.588292
0.337143
0.69885
0.454771
0.546972
0.363585
0.580419
0.696102
0.557695
0.684586
0.468199
0.387556
0.464345
0.341062
0.56265
0.706522
0.699541
0.405247
0.336563
0.677471
0.696585
0.699114
0.438619
0.689113
0.586163
0.702132
0.564218
0.38077
0.511304
0.410055
0.698401
0.387105
0.335944
0.56845
0.411082
0.689295
0.413236
0.407464
0.542065
0.414929
0.706723
0.56563
0.687847
0.572296
0.700644
0.699599
0.691432
0.39435
0.67876
0.708288
0.669538
0.697333
0.697934
0.70503
0.564637
0.696538
0.69603
0.408516
0.336328
0.700692
0.567134
0.697437
0.412997
0.703877
0.404946
0.702827
0.69178
0.698388
0.694726
0.708358
0.697911
0.337926
0.336291
0.713018
0.70335
0.693691
0.589054
0.704536
0.670506
0.600879
0.684777
0.630664
0.686008
0.703291
0.58837
0.350749
0.33603
0.692867
0.657867
0.405059
0.411149
0.560197
0.560409
0.557681
0.702307
0.372827
0.702021
0.429075
0.698214
0.405937
0.708741
0.432991
0.701314
0.411525
0.700638
0.579023
0.342221
0.404799
0.638067
0.404686
0.693399
0.38488
0.686991
0.558381
0.707921
0.702089
0.695125
0.704427
0.672065
0.704027
0.699569
0.694773
0.626992
0.69862
0.707051
0.429202
0.604926
0.602735
0.697527
0.410448
0.688795
0.704834
0.683308
0.382635
0.414585
0.403034
0.70926
0.699247
0.41458
0.694752
0.555345
0.68003
0.506351
0.576967
0.389854
0.499637
0.700299
0.505744
0.616399
0.425803
0.701479
0.411308
0.683888
0.667189
0.701919
0.399704
0.417334
0.515943
0.697769
0.453348
0.51381
0.434289
0.700811
0.699781
0.707654
0.702378
0.701335
0.696822
0.603416
0.41607
0.698475
0.341868
0.585332
0.705715
0.703653
0.457624
0.419968
0.698948
0.681259
0.571159
0.669058
0.710873
0.702875
0.422625
0.703591
0.701577
0.700987
0.698704
0.507846
0.55838
0.428231
0.69721
0.699831
0.696514
0.693674
0.531144
0.698345
0.449577
0.581511
0.697155
0.627446
0.698799
0.577264
0.387164
0.697964
0.699602
0.434011
0.33611
0.418051
0.701658
0.346557
0.435274
0.409436
0.411098
0.353501
0.523094
0.704021
0.37853
0.711275
0.698312
0.398388
0.709055
0.336173
0.706024
0.382164
0.687204
0.409822
0.699276
0.693452
0.59271
0.69144
0.696899
0.651037
0.412084
0.678386
0.593762
0.336068
0.440146
0.546909
0.421894
0.707535
0.46325
0.336132
0.506482
0.55786
0.704307
0.373738
0.438092
0.700825
0.363617
0.41065
0.662278
0.508185
0.40269
0.404255
0.70145
0.635474
0.70122
0.367584
0.485952
0.705245
0.661024
0.672585
0.56671
0.696745
0.69864
0.567266
0.544681
0.36191
0.415266
0.470047
0.679205
0.431405
0.70435
0.690479
0.70331
0.358581
0.579718
0.556532
0.700388
0.445053
0.679285
0.47165
0.689287
0.416211
0.489863
0.439766
0.701606
0.434084
0.702016
0.417134
0.53887
0.369973
0.669572
0.435459
0.704447
0.415266
0.695991
0.686531
0.356965
0.693197
0.693707
0.417151
0.701756
0.413421
0.384991
0.703355
0.435332
0.655275
0.407624
0.433459
0.69076
0.41696
0.529918
0.418113
0.410899
0.43203
0.69532
0.595345
0.702853
0.701125
0.687964
0.702886
0.599507
0.698383
0.431883
0.693767
0.376999
0.699076
0.336973
0.558937
0.698997
0.701207
0.697901
0.526201
0.678214
0.338421
0.393495
0.411367
0.463516
0.704042
0.595099
0.702752
0.691432
0.676272
0.713047
0.695896
0.556318
0.424073
0.520773
0.708725
0.641547
0.69578
0.692083
0.700855
0.561209
0.490675
0.518105
0.70819