# vtk DataFile Version 1.0
unstructured grid
ascii
DATASET UNSTRUCTURED_GRID
points 3226 float
0.0796578 -0.059106 0
0.00128732 0.00159165 0
0.00227961 -0.00102548 0
0.0791586 -0.0598787 0
-0.0546216 0.01 0
0.000495206 0.025 0
0.0800549 -0.035 0
0.135172 -0.08 0
-0.0546216 -0.0451168 0
0.000495206 -0.0301168 0
0.0800549 -0.0901168 0
0.135172 -0.135117 0
-0.0546216 -0.0451168 -0.00551168
0.000495206 -0.0301168 -0.00551168
0.0800549 -0.0901168 -0.00551168
0.135172 -0.135117 -0.00551168
0.135172 -0.08 -0.00551168
0.0800549 -0.035 -0.00551168
0.000495206 0.025 -0.00551168
-0.0546216 0.01 -0.00551168
0.00128732 0.00159165 -0.00551168
0.00227961 -0.00102548 -0.00551168
0.0791586 -0.0598787 -0.00551168
0.0796578 -0.059106 -0.00551168
0.00110182 -0.000823821 0
0.000571683 -0.000188043 0
0.000561313 0.000639162 0
0.00189316 0.00207203 0
0.00260228 0.00255358 0
0.0033966 0.00307293 0
0.00428861 0.00362634 0
0.00529726 0.0041979 0
0.00644092 0.00476696 0
0.00773158 0.0053187 0
0.00918011 0.00583593 0
0.010799 0.00628751 0
0.012597 0.00663225 0
0.0145725 0.0068517 0
0.0167206 0.0069338 0
0.0190349 0.00685819 0
0.0215031 0.00658621 0
0.0241038 0.00607459 0
0.026821 0.00533786 0
0.0296245 0.00434523 0
0.0324763 0.00306927 0
0.0353199 0.00146906 0
0.0381488 -0.00039338 0
0.0409131 -0.00252802 0
0.0435632 -0.00493276 0
0.0460882 -0.0075571 0
0.0484881 -0.0103478 0
0.0506782 -0.0133217 0
0.0526651 -0.016422 0
0.0546139 -0.0195019 0
0.0565301 -0.022529 0
0.0584009 -0.0254846 0
0.0602154 -0.0283513 0
0.061964 -0.031114 0
0.0636389 -0.0337601 0
0.0652336 -0.0362795 0
0.0667431 -0.0386651 0
0.0681656 -0.0409111 0
0.0694983 -0.0430158 0
0.0707356 -0.0449823 0
0.071886 -0.0468071 0
0.0729575 -0.04849 0
0.0739438 -0.0500408 0
0.0748444 -0.0514675 0
0.0756707 -0.0527715 0
0.0764313 -0.053958 0
0.0771224 -0.0550398 0
0.0777384 -0.0560288 0
0.0782803 -0.0569318 0
0.0787691 -0.0577448 0
0.0792251 -0.0584672 0
0.0800494 -0.0597378 0
0.0797987 -0.0601582 0
0.0786655 -0.059391 0
0.0781259 -0.0588425 0
0.0775539 -0.0582102 0
0.0769587 -0.0574783 0
0.0763492 -0.0566339 0
0.075723 -0.0556725 0
0.0750452 -0.0546094 0
0.0742996 -0.0534457 0
0.073478 -0.0521785 0
0.072577 -0.0508019 0
0.0715904 -0.049313 0
0.0705098 -0.047712 0
0.069328 -0.0459996 0
0.0680378 -0.0441794 0
0.066632 -0.0422571 0
0.0651046 -0.0402413 0
0.0634508 -0.0381431 0
0.0616683 -0.0359754 0
0.0597581 -0.033753 0
0.0577255 -0.0314906 0
0.0555808 -0.0292024 0
0.0533388 -0.0269013 0
0.0510024 -0.0246151 0
0.0485693 -0.0223811 0
0.0460535 -0.0202228 0
0.0434788 -0.0181535 0
0.0408704 -0.0161833 0
0.0382442 -0.0143327 0
0.0356165 -0.0126209 0
0.0330065 -0.0110594 0
0.0304368 -0.00965062 0
0.0279338 -0.00838121 0
0.0255194 -0.00723697 0
0.0231965 -0.00623664 0
0.020983 -0.00535765 0
0.0188891 -0.00458677 0
0.0169193 -0.00391673 0
0.0150754 -0.00334068 0
0.0133572 -0.00285262 0
0.0117634 -0.0024437 0
0.0102912 -0.00210643 0
0.0089363 -0.00183343 0
0.00769424 -0.00161552 0
0.00655956 -0.00144452 0
0.00552632 -0.00131235 0
0.00458815 -0.00121216 0
0.00373885 -0.00113394 0
0.00297202 -0.00106855 0
-0.0506847 -0.0440454 0
-0.0467478 -0.0429739 0
-0.0428108 -0.0419025 0
-0.0388739 -0.0408311 0
-0.034937 -0.0397597 0
-0.0310001 -0.0386882 0
-0.0270632 -0.0376168 0
-0.0231263 -0.0365454 0
-0.0191894 -0.0354739 0
-0.0152525 -0.0344025 0
-0.0113155 -0.0333311 0
-0.00737862 -0.0322597 0
-0.00344171 -0.0311882 0
0.0038716 -0.0298185 0
0.00726082 -0.0297726 0
0.010644 -0.0299802 0
0.0140027 -0.0304367 0
0.0173201 -0.0311326 0
0.0205821 -0.0320541 0
0.0237776 -0.0331851 0
0.0268988 -0.0345078 0
0.0299406 -0.0360041 0
0.0329005 -0.0376567 0
0.035778 -0.039449 0
0.038574 -0.0413659 0
0.0412905 -0.043394 0
0.0439303 -0.0455212 0
0.0464964 -0.0477367 0
0.0489922 -0.0500312 0
0.051421 -0.0523964 0
0.0537863 -0.0548252 0
0.0560914 -0.0573112 0
0.0583395 -0.0598489 0
0.0605336 -0.0624334 0
0.0626765 -0.0650605 0
0.064771 -0.0677264 0
0.0668197 -0.0704277 0
0.0688248 -0.0731615 0
0.0707885 -0.0759252 0
0.072713 -0.0787163 0
0.0746002 -0.0815329 0
0.0764517 -0.0843729 0
0.0782695 -0.0872347 0
0.0829558 -0.0924852 0
0.0858567 -0.0948536 0
0.0887575 -0.0972221 0
0.0916584 -0.0995905 0
0.0945593 -0.101959 0
0.0974602 -0.104327 0
0.100361 -0.106696 0
0.103262 -0.109064 0
0.106163 -0.111433 0
0.109064 -0.113801 0
0.111965 -0.116169 0
0.114865 -0.118538 0
0.117766 -0.120906 0
0.120667 -0.123275 0
0.123568 -0.125643 0
0.126469 -0.128012 0
0.12937 -0.13038 0
0.132271 -0.132748 0
0.135172 -0.13118 0
0.135172 -0.127243 0
0.135172 -0.123306 0
0.135172 -0.119369 0
0.135172 -0.115432 0
0.135172 -0.111495 0
0.135172 -0.107558 0
0.135172 -0.103621 0
0.135172 -0.0996846 0
0.135172 -0.0957477 0
0.135172 -0.0918107 0
0.135172 -0.0878738 0
0.135172 -0.0839369 0
0.132271 -0.0776316 0
0.12937 -0.0752632 0
0.126469 -0.0728947 0
0.123568 -0.0705263 0
0.120667 -0.0681579 0
0.117766 -0.0657895 0
0.114865 -0.0634211 0
0.111965 -0.0610526 0
0.109064 -0.0586842 0
0.106163 -0.0563158 0
0.103262 -0.0539474 0
0.100361 -0.0515789 0
0.0974602 -0.0492105 0
0.0945593 -0.0468421 0
0.0916584 -0.0444737 0
0.0887575 -0.0421053 0
0.0858567 -0.0397368 0
0.0829558 -0.0373684 0
0.0782695 -0.0321179 0
0.0764517 -0.0292561 0
0.0746002 -0.026416 0
0.072713 -0.0235995 0
0.0707885 -0.0208084 0
0.0688248 -0.0180447 0
0.0668197 -0.0153109 0
0.064771 -0.0126096 0
0.0626765 -0.00994373 0
0.0605336 -0.00731663 0
0.0583395 -0.00473208 0
0.0560914 -0.00219437 0
0.0537863 0.000291632 0
0.051421 0.00272041 0
0.0489922 0.00508564 0
0.0464964 0.00738012 0
0.0439303 0.00959562 0
0.0412905 0.0117228 0
0.038574 0.0137509 0
0.035778 0.0156678 0
0.0329005 0.0174601 0
0.0299406 0.0191127 0
0.0268988 0.020609 0
0.0237776 0.0219317 0
0.0205821 0.0230627 0
0.0173201 0.0239842 0
0.0140027 0.0246801 0
0.010644 0.0251366 0
0.00726082 0.0253442 0
0.0038716 0.0252983 0
-0.00344171 0.0239286 0
-0.00737862 0.0228571 0
-0.0113155 0.0217857 0
-0.0152525 0.0207143 0
-0.0191894 0.0196429 0
-0.0231263 0.0185714 0
-0.0270632 0.0175 0
-0.0310001 0.0164286 0
-0.034937 0.0153571 0
-0.0388739 0.0142857 0
-0.0428108 0.0132143 0
-0.0467478 0.0121429 0
-0.0506847 0.0110714 0
-0.0546216 0.00606309 0
-0.0546216 0.00212617 0
-0.0546216 -0.00181074 0
-0.0546216 -0.00574766 0
-0.0546216 -0.00968457 0
-0.0546216 -0.0136215 0
-0.0546216 -0.0175584 0
-0.0546216 -0.0214953 0
-0.0546216 -0.0254322 0
-0.0546216 -0.0293691 0
-0.0546216 -0.0333061 0
-0.0546216 -0.037243 0
-0.0546216 -0.0411799 0
-0.0506847 -0.0440454 -0.00551168
-0.0467478 -0.0429739 -0.00551168
-0.0428108 -0.0419025 -0.00551168
-0.0388739 -0.0408311 -0.00551168
-0.034937 -0.0397597 -0.00551168
-0.0310001 -0.0386882 -0.00551168
-0.0270632 -0.0376168 -0.00551168
-0.0231263 -0.0365454 -0.00551168
-0.0191894 -0.0354739 -0.00551168
-0.0152525 -0.0344025 -0.00551168
-0.0113155 -0.0333311 -0.00551168
-0.00737862 -0.0322597 -0.00551168
-0.00344171 -0.0311882 -0.00551168
0.0038716 -0.0298185 -0.00551168
0.00726082 -0.0297726 -0.00551168
0.010644 -0.0299802 -0.00551168
0.0140027 -0.0304367 -0.00551168
0.0173201 -0.0311326 -0.00551168
0.0205821 -0.0320541 -0.00551168
0.0237776 -0.0331851 -0.00551168
0.0268988 -0.0345078 -0.00551168
0.0299406 -0.0360041 -0.00551168
0.0329005 -0.0376567 -0.00551168
0.035778 -0.039449 -0.00551168
0.038574 -0.0413659 -0.00551168
0.0412905 -0.043394 -0.00551168
0.0439303 -0.0455212 -0.00551168
0.0464964 -0.0477367 -0.00551168
0.0489922 -0.0500312 -0.00551168
0.051421 -0.0523964 -0.00551168
0.0537863 -0.0548252 -0.00551168
0.0560914 -0.0573112 -0.00551168
0.0583395 -0.0598489 -0.00551168
0.0605336 -0.0624334 -0.00551168
0.0626765 -0.0650605 -0.00551168
0.064771 -0.0677264 -0.00551168
0.0668197 -0.0704277 -0.00551168
0.0688248 -0.0731615 -0.00551168
0.0707885 -0.0759252 -0.00551168
0.072713 -0.0787163 -0.00551168
0.0746002 -0.0815329 -0.00551168
0.0764517 -0.0843729 -0.00551168
0.0782695 -0.0872347 -0.00551168
0.0829558 -0.0924852 -0.00551168
0.0858567 -0.0948536 -0.00551168
0.0887575 -0.0972221 -0.00551168
0.0916584 -0.0995905 -0.00551168
0.0945593 -0.101959 -0.00551168
0.0974602 -0.104327 -0.00551168
0.100361 -0.106696 -0.00551168
0.103262 -0.109064 -0.00551168
0.106163 -0.111433 -0.00551168
0.109064 -0.113801 -0.00551168
0.111965 -0.116169 -0.00551168
0.114865 -0.118538 -0.00551168
0.117766 -0.120906 -0.00551168
0.120667 -0.123275 -0.00551168
0.123568 -0.125643 -0.00551168
0.126469 -0.128012 -0.00551168
0.12937 -0.13038 -0.00551168
0.132271 -0.132748 -0.00551168
0.135172 -0.13118 -0.00551168
0.135172 -0.127243 -0.00551168
0.135172 -0.123306 -0.00551168
0.135172 -0.119369 -0.00551168
0.135172 -0.115432 -0.00551168
0.135172 -0.111495 -0.00551168
0.135172 -0.107558 -0.00551168
0.135172 -0.103621 -0.00551168
0.135172 -0.0996846 -0.00551168
0.135172 -0.0957477 -0.00551168
0.135172 -0.0918107 -0.00551168
0.135172 -0.0878738 -0.00551168
0.135172 -0.0839369 -0.00551168
0.132271 -0.0776316 -0.00551168
0.12937 -0.0752632 -0.00551168
0.126469 -0.0728947 -0.00551168
0.123568 -0.0705263 -0.00551168
0.120667 -0.0681579 -0.00551168
0.117766 -0.0657895 -0.00551168
0.114865 -0.0634211 -0.00551168
0.111965 -0.0610526 -0.00551168
0.109064 -0.0586842 -0.00551168
0.106163 -0.0563158 -0.00551168
0.103262 -0.0539474 -0.00551168
0.100361 -0.0515789 -0.00551168
0.0974602 -0.0492105 -0.00551168
0.0945593 -0.0468421 -0.00551168
0.0916584 -0.0444737 -0.00551168
0.0887575 -0.0421053 -0.00551168
0.0858567 -0.0397368 -0.00551168
0.0829558 -0.0373684 -0.00551168
0.0782695 -0.0321179 -0.00551168
0.0764517 -0.0292561 -0.00551168
0.0746002 -0.026416 -0.00551168
0.072713 -0.0235995 -0.00551168
0.0707885 -0.0208084 -0.00551168
0.0688248 -0.0180447 -0.00551168
0.0668197 -0.0153109 -0.00551168
0.064771 -0.0126096 -0.00551168
0.0626765 -0.00994373 -0.00551168
0.0605336 -0.00731663 -0.00551168
0.0583395 -0.00473208 -0.00551168
0.0560914 -0.00219437 -0.00551168
0.0537863 0.000291632 -0.00551168
0.051421 0.00272041 -0.00551168
0.0489922 0.00508564 -0.00551168
0.0464964 0.00738012 -0.00551168
0.0439303 0.00959562 -0.00551168
0.0412905 0.0117228 -0.00551168
[...]
CELL_DATA 2965
SCALARS rho float
LOOKUP_TABLE default
0.536842
0.330387
0.523545
0.339672
0.541132
0.323313
0.537532
0.333916
0.322878
0.524593
0.34031
0.325437
0.427961
0.537253
0.516947
0.517045
0.52681
0.517621
0.544019
0.52845
0.536864
0.327021
0.510628
0.535995
0.534346
0.546381
0.458228
0.482882
0.342683
0.503796
0.500864
0.317152
0.551332
0.528264
0.282784
0.324251
0.528134
0.532341
0.315447
0.504392
0.529092
0.502084
0.536175
0.333001
0.325483
0.534654
0.46052
0.474788
0.310146
0.537253
0.391389
0.324483
0.327334
0.425024
0.338835
0.42077
0.322837
0.334145
0.273642
0.47755
0.514883
0.480153
0.329606
0.54304
0.489639
0.535429
0.537614
0.32705
0.304806
0.32278
0.519359
0.542985
0.537617
0.29048
0.49917
0.411753
0.536973
0.323805
0.33063
0.467759
0.537798
0.32798
0.319587
0.436443
0.484786
0.375515
0.315883
0.269802
0.550695
0.323303
0.315916
0.534717
0.518562
0.512737
0.535709
0.311171
0.460041
0.28906
0.320959
0.334004
0.475848
0.332757
0.331606
0.325662
0.322809
0.529434
0.536929
0.323872
0.333537
0.537175
0.244654
0.39442
0.469354
0.496196
0.303863
0.303196
0.507384
0.456738
0.53713
0.342037
0.537845
0.24089
0.539994
0.540477
0.495762
0.401196
0.324673
0.463262
0.530054
0.269643
0.328852
0.427761
0.531168
0.325537
0.45993
0.315137
0.42963
0.517401
0.552632
0.54118
0.322401
0.516292
0.527154
0.33632
0.278253
0.544441
0.323477
0.540334
0.553035
0.322979
0.349281
0.346648
0.328409
0.325505
0.283974
0.266971
0.537406
0.530409
0.524984
0.538521
0.453463
0.461859
0.407257
0.541436
0.322729
0.537554
0.417471
0.333191
0.537287
0.536892
0.480718
0.297462
0.433185
0.519511
0.545881
0.417338
0.510197
0.360111
0.263265
0.417198
0.326156
0.262393
0.310047
0.302867
0.553308
0.537535
0.345486
0.32857
0.39044
0.355775
0.316103
0.335854
0.453911
0.293638
0.537551
0.462634
0.533283
0.488501
0.439753
0.330279
0.333578
0.310528
0.529148
0.446942
0.537713
0.303323
0.428079
0.537512
0.520375
0.534681
0.498258
0.398071
0.323673
0.323131
0.506141
0.336074
0.46241
0.313174
0.51734
0.357367
0.322967
0.324877
0.458503
0.382953
0.544562
0.278319
0.537785
0.521159
0.330665
0.479229
0.33088
0.279382
0.536955
0.312909
0.535378
0.536849
0.343425
0.529446
0.353408
0.353697
0.373812
0.34939
0.54282
0.521208
0.324891
0.246378
0.525347
0.536433
0.448849
0.505898
0.331295
0.340482
0.537409
0.315341
0.484376
0.274084
0.271058
0.537174
0.535421
0.322066
0.467811
0.33162
0.542548
0.323748
0.533334
0.537193
0.26847
0.47167
0.519451
0.295383
0.347853
0.534537
0.345396
0.549288
0.509831
0.34223
0.515987
0.514608
0.550023
0.532457
0.544959
0.472145
0.529708
0.536362
0.327769
0.309004
0.523115
0.539477
0.322856
0.532167
0.461647
0.319705
0.321013
0.326169
0.476479
0.321338
0.53692
0.479335
0.548352
0.348397
0.482351
0.487622
0.476561
0.535643
0.342667
0.238394
0.544184
0.537231
0.536989
0.323526
0.326021
0.481578
0.289868
0.295573
0.493554
0.537813
0.487505
0.239881
0.347046
0.48326
0.495903
0.333465
0.536499
0.537697
0.323456
0.419435
0.535135
0.513363
0.281354
0.342953
0.536985
0.32023
0.536838
0.365642
0.53986
0.392285
0.371322
0.333215
0.32611
0.310322
0.512352
0.546617
0.526841
0.541437
0.487411
0.472994
0.304353
0.536064
0.545611
0.322334
0.334093
0.5369
0.320481
0.517575
0.47587
0.320258
0.345216
0.317842
0.340493
0.537735
0.327313
0.324283
0.381167
0.334736
0.534827
0.536116
0.47141
0.537124
0.348266
0.53121
0.332539
0.536916
0.336068
0.335604
0.53595
0.466631
0.280129
0.259583
0.533346
0.362659
0.499375
0.514437
0.328489
0.531604
0.278522
0.324998
0.536592
0.294583
0.536603
0.273609
0.380983
0.333591
0.536517
0.467911
0.433929
0.536265
0.297291
0.544989
0.344912
0.309992
0.547684
0.304394
0.538671
0.421852
0.487809
0.276894
0.303271
0.312059
0.276908
0.314886
0.322658
0.528543
0.535855
0.536289
0.537308
0.311775
0.537399
0.465188
0.520507
0.256279
0.53539
0.323299
0.486966
0.479053
0.310743
0.537589
0.357442
0.52109
0.31266
0.488376
0.534411
0.302957
0.532624
0.260196
0.537663
0.327828
0.333494
0.416895
0.541894
0.540015
0.403316
0.274231
0.252537
0.417005
0.541435
0.528592
0.534806
0.532298
0.53768
0.331752
0.512295
0.486019
0.326935
0.267287
0.297482
0.496671
0.536918
0.367052
0.380978
0.371877
0.323009
0.529032
0.536303
0.537352
0.547401
0.399051
0.535986
0.536696
0.336258
0.539058
0.348772
0.35376
0.531488
0.536464
0.536612
0.544073
0.345172
0.325933
0.551487
0.530802
0.346946
0.530547
0.499736
0.536406
0.323157
0.302135
0.53681
0.345834
0.453098
0.536452
0.536875
0.323229
0.535066
0.346834
0.34059
0.326534
0.349824
0.535258
0.364261
0.517771
0.280752
0.330738
0.5274
0.336067
0.290309
0.323829
0.277269
0.360521
0.32459
0.331836
0.426582
0.437925
0.3308
0.3219
0.536625
0.344043
0.397015
0.535298
0.536214
0.496211
0.49236
0.441581
0.444252
0.289972
0.37459
0.535686
0.499719
0.276699
0.509156
0.240087
0.291241
0.302955
0.533392
0.549688
0.310421
0.498381
0.533026
0.284107
0.310727
0.540086
0.537264
0.361574
0.541762
0.382363
0.325906
0.540076
0.309732
0.455387
0.525663
0.411622
0.541369
0.330258
0.307159
0.537732
0.371332
0.335496
0.323576
0.322709
0.328768
0.536163
0.539424
0.52387
0.333845
0.258386
0.315413
0.309326
0.531087
0.272948
0.425622
0.309558
0.532169
0.534015
0.310907
0.537321
0.392192
0.492683
0.296784
0.52818
0.531779
0.552665
0.533253
0.537165
0.526626
0.32329
0.429377
0.312644
0.526364
0.313716
0.315096
0.533917
0.536811
0.535593
0.348592
0.337803
0.539165
0.540412
0.30628
0.53572
0.294989
0.308975
0.332284
0.551417
0.538297
0.521224
0.294623
0.298458
0.32508
0.339411
0.537958
0.537515
0.544817
0.342286
0.327262
0.456311
0.545759
0.542048
0.511139
0.537285
0.413671
0.535556
0.541058
0.517599
0.329642
0.536195
0.49621
0.5376
0.536988
0.544152
0.488263
0.381859
0.545311
0.317373
0.543284
0.536822
0.235652
0.537521
0.462379
0.535406
0.323005
0.342581
0.536329
0.30348
0.330539
0.547244
0.303048
0.415883
0.536566
0.292012
0.5454
0.328917
0.491086
0.534452
0.528762
0.503064
0.332246
0.332528
0.521059
0.440407
0.331937
0.47926
0.314843
0.536943
0.344745
0.460111
0.519711
0.537401
0.334437
0.492346
0.322069
0.409651
0.416341
0.312589
0.279082
0.349127
0.537085
0.458138
0.436388
0.318164
0.537189
0.491984
0.320378
0.53711
0.350103
0.457253
0.517565
0.537795
0.537859
0.297278
0.330819
0.537114
0.543511
0.521065
0.491565
0.54152
0.480234
0.466063
0.325337
0.501561
0.389476
0.348109
0.360748
0.537202
0.548012
0.509165
0.394487
0.344151
0.539786
0.319771
0.325068
0.404874
0.338259
0.456056
0.333746
0.537572
0.333089
0.306575
0.41465
0.54398
0.340447
0.309152
0.547502
0.54284
0.549908
0.324459
0.307376
0.538022
0.322419
0.307479
0.318015
0.436065
0.525637
0.269731
0.549064
0.341594
0.504952
0.535182
0.324478
0.412339
0.47721
0.500851
0.496127
0.540467
0.538416
0.543794
0.533505
0.537768
0.310016
0.384836
0.522501
0.291069
0.542759
0.524502
0.262892
0.53288
0.478893
0.512347
0.537778
0.473588
0.530503
0.314305
0.493341
0.316204
0.30457
0.536006
0.537107
0.273649
0.325947
0.531401
0.393683
0.457431
0.303532
0.251406
0.547006
0.515723
0.543324
0.513684
0.467137
0.378169
0.454023
0.31935
0.537686
0.50536
0.496864
0.321146
0.382154
0.543612
0.49969
0.539239
0.138877
0.537297
0.324098
0.33008
0.349514
0.520728
0.52218
0.539463
0.471073
0.321753
0.537053
0.388036
0.544414
0.546144
0.494534
0.344094
0.32342
0.536372
0.317999
0.425069
0.477692
0.332052
0.319275
0.515968
0.540723
0.355717
0.537409
0.534555
0.338206
0.537327
0.536417
0.538137
0.326092
0.322668
0.540478
0.332127
0.335501
0.408201
0.536681
0.32295
0.377147
0.329672
0.299433
0.536702
0.330708
0.344969
0.542531
0.341333
0.328468
0.550483
0.537476
0.533543
0.537246
0.495141
0.321754
0.550203
0.535096
0.32778
0.536859
0.534452
0.537615
0.537751
0.325433
0.537216
0.31729
0.537376
0.331504
0.536892
0.326815
0.517356
0.327546
0.539053
0.544315
0.548854
0.484145
0.536461
0.537311
0.288253
0.535834
0.271528
0.537796
0.538502
0.343971
0.406584
0.309245
0.354468
0.537734
0.364029
0.534821
0.140679
0.504746
0.510047
0.539586
0.400282
0.316261
0.271658
0.342575
0.270411
0.535877
0.366611
0.33726
0.536562
0.323881
0.357793
0.533437
0.53393
0.502755
0.535004
0.258532
0.486047
0.328069
0.53778
0.536434
0.522691
0.286737
0.539226
0.534875
0.540896
0.500055
0.532413
0.383951
0.536826
0.538558
0.447513
0.536856
0.321037
0.517614
0.32417
0.425661
0.520281
0.489845
0.531649
0.473926
0.487055
0.537786
0.317674
0.524739
0.350271
0.321868
0.538967
0.513107
0.481952
0.518312
0.530351
0.537777
0.536992
0.537672
0.536439
0.535822
0.550664
0.322434
0.503441
0.531809
0.325858
0.532728
0.31948
0.471564
0.31787
0.536488
0.33584
0.340827
0.306287
0.473681
0.536579
0.428851
0.515509
0.31889
0.322625
0.536562
0.535061
0.312448
0.503708
0.445767
0.326324
0.505236
0.324359
0.321375
0.533535
0.4806
0.31842
0.519647
0.533742
0.524694
0.352864
0.515507
0.266015
0.53701
0.38066
0.50904
0.32561
0.546872
0.30309
0.326401
0.337774
0.515641
0.310663
0.499745
0.545116
0.474045
0.323907
0.328258
0.541761
0.323575
0.239305
0.353381
0.536692
0.32099
0.312524
0.264907
0.498557
0.326234
0.330657
0.314608
0.535394
0.548086
0.336629
0.538863
0.538287
0.497318
0.331481
0.321084
0.532264
0.338572
0.553174
0.330155
0.531546
0.326923
0.219746
0.514972
0.347363
0.334432
0.349253
0.537034
0.309997
0.448744
0.535776
0.320087
0.515665
0.329021
0.547639
0.418385
0.338476
0.332618
0.536372
0.440703
0.536223
0.326609
0.316728
0.443987
0.537817
0.314199
0.313821
0.337697
0.415906
0.535619
0.321844
0.454291
0.532763
0.536417
0.526559
0.350365
0.534193
0.325759
0.53528
0.536015
0.465001
0.317564
0.492576
0.537071
0.338057
0.537254
0.536513
0.326526
0.333488
0.320511
0.280732
0.541827
0.350234
0.535854
0.384138
0.537745
0.49447
0.375538
0.511861
0.3037
0.48214
0.345361
0.536457
0.535123
0.270522
0.328993
0.314881
0.465391
0.551292
0.327078
0.294716
0.314942
0.451482
0.545622
0.28795
0.342581
0.526633
0.535004
0.528441
0.348982
0.313616
0.524575
0.536468
0.333862
0.316297
0.439906
0.548335
0.494519
0.310404
0.536432
0.536511
0.319275
0.538674
0.325701
0.537466
0.314976
0.360747
0.318219
0.284545
0.53518
0.322245
0.346185
0.32481
0.324148
0.486641
0.528134
0.548172
0.336106
0.537719
0.535348
0.536115
0.545184
0.535797
0.54669
0.547122
0.546846
0.536869
0.534395
0.303315
0.489322
0.54762
0.331211
0.539299
0.543743
0.537537
0.536628
0.307718
0.540881
0.53767
0.53655
0.324784
0.506081
0.53101
0.536022
0.528641
0.329447
0.485543
0.321104
0.41531
0.315657
0.314594
0.329005
0.350323
0.536739
0.531747
0.522583
0.329633
0.53653
0.537277
0.537971
0.344547
0.322737
0.519954
0.309231
0.31356
0.321345
0.535425
0.421032
0.536444
0.315537
0.544866
0.534339
0.46177
0.537727
0.319384
0.548848
0.536677
0.513932
0.539314
0.534865
0.518762
0.330342
0.325167
0.31975
0.536402
0.305276
0.532853
0.521751
0.496266
0.33318
0.324321
0.482319
0.540931
0.537106
0.328074
0.526274
0.477668
0.265965
0.536922
0.345869
0.336436
0.324049
0.32142
0.328736
0.539522
0.535835
0.550825
0.445664
0.531555
0.536103
0.51837
0.536934
0.545305
0.547035
0.536186
0.536415
0.332051
0.537257
0.52891
0.42725
0.34767
0.505132
0.298239
0.537808
0.376053
0.537654
0.543944
0.335081
0.534411
0.330865
0.534672
0.53219
0.545479
0.48843
0.516647
0.543882
0.536014
0.323815
0.445264
0.422891
0.25642
0.536783
0.538466
0.446657
0.549188
0.527413
0.536736
0.317722
0.346686
0.526163
0.545167
0.319068
0.190397
0.515459
0.535241
0.536391
0.273647
0.461764
0.514295
0.532069
0.348563
0.536847
0.483401
0.523894
0.503522
0.442757
0.534925
0.298228
0.531076
0.321137
0.319437
0.536817
0.347683
0.350177
0.349421
0.525402
0.510912
0.447088
0.535871
0.434713
0.322487
0.33372
0.541953
0.533911
0.538205
0.488358
0.255384
0.523073
0.432744
0.326327
0.533823
0.539354
0.347538
0.537123
0.529985
0.537497
0.447556
0.535998
0.362274
0.536625
0.531505
0.535482
0.32423
0.523769
0.390449
0.508459
0.534439
0.543928
0.531734
0.535853
0.536518
0.534127
0.518999
0.330025
0.540731
0.509211
0.318759
0.494487
0.5375
0.5497
0.500515
0.329209
0.530042
0.322455
0.544161
0.491672
0.538094
0.336952
0.513827
0.535245
0.537317
0.524554
0.482107
0.537463
0.469737
0.387402
0.350044
0.275517
0.537471
0.32373
0.311074
0.535466
0.323399
0.542601
0.30153
0.536455
0.325712
0.335324
0.521766
0.395745
0.300127
0.529902
0.535164
0.537923
0.324171
0.507345
0.534696
0.532593
0.351167
0.53757
0.535294
0.346998
0.484107
0.465625
0.523354
0.306754
0.393107
0.508733
0.323313
0.536421
0.323101
0.337487
0.536869
0.38685
0.508299
0.348576
0.539235
0.429173
0.537586
0.220368
0.325604
0.536961
0.324784
0.53757
0.323258
0.53656
0.487784
0.467223
0.537528
0.502305
0.266091
0.536491
0.547497
0.532723
0.53742
0.316668
0.316029
0.310329
0.338705
0.536793
0.325518
0.512863
0.32964
0.532118
0.534223
0.53641
0.359368
0.536564
0.324919
0.535303
0.540423
0.337656
0.535756
0.523391
0.317403
0.521857
0.322043
0.323185
0.547999
0.338983
0.542786
0.227291
0.335996
0.513632
0.346064
0.537055
0.341638
0.462411
0.534822
0.530873
0.386768
0.269802
0.331367
0.537347
0.53772
0.335521
0.535788
0.330632
0.533157
0.348459
0.320889
0.470534
0.473902
0.420143
0.496421
0.535714
0.490906
0.476239
0.53567
0.536457
0.319452
0.535163
0.30488
0.322515
0.498181
0.407098
0.396888
0.442418
0.343568
0.51565
0.537386
0.536963
0.328098
0.317696
0.455992
0.505161
0.535506
0.54492
0.332571
0.499728
0.532394
0.507991
0.439926
0.348565
0.336025
0.327768
0.553108
0.537379
0.323418
0.326179
0.436563
0.350122
0.548002
0.511996
0.320211
0.536702
0.405042
0.539736
0.536755
0.345133
0.321132
0.507642
0.321721
0.395794
0.534728
0.274616
0.344675
0.349498
0.506658
0.534781
0.504487
0.325691
0.314433
0.527061
0.536562
0.496674
0.539008
0.341899
0.326537
0.332464
0.49794
0.309468
0.321664
0.537858
0.539953
0.512984
0.32478
0.316967
0.32582
0.53639
0.310821
0.532222
0.537448
0.530865
0.429179
0.534067
0.548017
0.333784
0.355312
0.53652
0.31171
0.465081
0.526759
0.540978
0.437333
0.309035
0.304837
0.541168
0.404467
0.32478
0.534144
0.535213
0.298525
0.357815
0.512405
0.443652
0.338932
0.318024
0.539426
0.489515
0.529015
0.477993
0.355976
0.305702
0.3225
0.381835
0.32013
0.537845
0.529327
0.472649
0.512611
0.320942
0.505482
0.322729
0.535267
0.544549
0.32421
0.266578
0.529596
0.386093
0.471924
0.536354
0.301675
0.531725
0.526782
0.536231
0.537387
0.505012
0.321607
0.327177
0.315058
0.509261
0.536097
0.514592
0.444667
0.343181
0.327604
0.492743
0.335219
0.538123
0.536212
0.533881
0.349061
0.340051
0.463885
0.508202
0.537793
0.526893
0.536762
0.536509
0.536948
0.484537
0.254378
0.537116
0.499689
0.535071
0.32048
0.529923
0.424583
0.528805
0.550736
0.445666
0.491464
0.531308
0.509049
0.53766
0.338509
0.532095
0.549568
0.324594
0.505679
0.304794
0.29985
0.537858
0.536206
0.319066
0.483386
0.536237
0.323755
0.321083
0.555006
0.548461
0.471421
0.337639
0.495035
0.335288
0.542114
0.547515
0.354458
0.45819
0.500007
0.331725
0.334581
0.323336
0.538208
0.530737
0.338703
0.30566
0.343589
0.324372
0.321348
0.503012
0.336556
0.549416
0.536018
0.541374
0.328139
0.534437
0.451724
0.531782
0.443074
0.530176
0.324263
0.304117
0.356963
0.534067
0.329775
0.358048
0.497833
0.328048
0.53754
0.505498
0.426775
0.327176
0.326057
0.522965
0.536744
0.528331
0.524704
0.541064
0.343697
0.324823
0.329495
0.508242
0.536507
0.353998
0.517479
0.312387
0.342613
0.536671
0.319451
0.322308
0.266039
0.372449
0.335588
0.536634
0.536218
0.537951
0.339612
0.535994
0.541863
0.359178
0.536558
0.376855
0.538926
0.326154
0.389002
0.53554
0.339862
0.264921
0.530591
0.522215
0.352755
0.544715
0.497002
0.53446
0.399209
0.312623
0.502782
0.535297
0.367811
0.327472
0.426399
0.403057
0.536753
0.326782
0.346155
0.540377
0.513729
0.313913
0.352427
0.531061
0.3384
0.311626
0.32973
0.454396
0.543446
0.324219
0.539888
0.326979
0.309815
0.324241
0.40956
0.317364
0.539076
0.332008
0.320257
0.480142
0.538581
0.356133
0.53713
0.341358
0.329405
0.511595
0.551031
0.522512
0.511326
0.519003
0.545178
0.344911
0.538755
0.297577
0.537329
0.526197
0.411671
0.523689
0.536962
0.535092
0.536032
0.434903
0.322349
0.430134
0.33332
0.502363
0.53309
0.495551
0.3323
0.536103
0.369983
0.537367
0.351206
0.324929
0.55479
0.298221
0.528761
0.550483
0.380758
0.33212
0.338438
0.535856
0.397126
0.275113
0.540146
0.335084
0.525312
0.325526
0.319259
0.31965
0.536188
0.392636
0.536966
0.360564
0.323689
0.534366
0.533787
0.284702
0.361007
0.274257
0.480377
0.334202
0.51905
0.531096
0.537164
0.240234
0.328691
0.450855
0.528863
0.546745
0.534222
0.297095
0.51483
0.537687
0.536992
0.537358
0.323162
0.522395
0.331134
0.454175
0.541625
0.537348
0.530799
0.543012
0.497924
0.533208
0.54343
0.533469
0.523231
0.536731
0.535612
0.536754
0.35214
0.335009
0.536713
0.477884
0.537099
0.537783
0.546889
0.518169
0.543964
0.321955
0.350858
0.53758
0.359449
0.348989
0.315543
0.534976
0.522473
0.536434
0.510049
0.523433
0.338823
0.536712
0.338733
0.334878
0.544812
0.526455
0.524812
0.400189
0.396836
0.324742
0.350241
0.385723
0.302865
0.360895
0.543186
0.307284
0.531246
0.339308
0.538675
0.534165
0.292185
0.320383
0.497309
0.537478
0.346298
0.509502
0.26553
0.323945
0.341483
0.448414
0.536194
0.537862
0.536845
0.243447
0.322973
0.27158
0.31855
0.537655
0.545736
0.538683
0.317642
0.33996
0.536567
0.534061
0.536869
0.302636
0.48348
0.464608
0.54254
0.430585
0.322271
0.340222
0.305166
0.536436
0.333306
0.358518
0.537566
0.31897
0.536722
0.323034
0.32603
0.400604
0.321084
0.544158
0.537669
0.536751
0.444807
0.552289
0.510575
0.479079
0.319402
0.507089
0.529449
0.508845
0.537274
0.533757
0.53889
0.425164
0.533957
0.536656
0.305717
0.340992
0.54785
0.401121
0.534622
0.319388
0.544901
0.350057
0.526435
0.536611
0.508844
0.53464
0.537854
0.516094
0.328421
0.323465
0.535638
0.545709
0.53504
0.434201
0.543199
0.450287
0.492777
0.536272
0.472667
0.467881
0.539817
0.537386
0.314388
0.339954
0.536488
0.501518
0.333773
0.32257
0.423984
0.537702
0.537814
0.549142
0.324304
0.52498
0.299906
0.537273
0.333723
0.542898
0.292069
0.547987
0.323568
0.529555
0.445161
0.349374
0.304938
0.471935
0.317717
0.487812
0.320813
0.536629
0.537806
0.529742
0.526428
0.535508
0.534722
0.536623
0.54823
0.541218
0.503462
0.513958
0.497001
0.537356
0.323553
0.499157
0.497988
0.533826
0.301209
0.498457
0.544189
0.536622
0.323191
0.315156
0.318315
0.542571
0.498494
0.318727
0.501632
0.391696
0.536861
0.319291
0.412861
0.318967
0.30808
0.551463
0.326704
0.506822
0.329687
0.549827
0.312384
0.536769
0.502209
0.529737
0.324151
0.326455
0.354764
0.51682
0.333676
0.353072
0.327391
0.540217
0.518743
0.542845
0.523516
0.529033
0.512495
0.388753
0.324952
0.531742
0.346809
0.447713
0.526863
0.548497
0.221426
0.311089
0.523012
0.536624
0.409491
0.523195
0.533628
0.518591
0.321265
0.542011
0.520512
0.531018
0.533649
0.324993
0.53779
0.328851
0.533358
0.541801
0.505446
0.535106
0.34989
0.537857
0.22787
0.364526
0.50145
0.506557
0.530512
0.451422
0.338405
0.5332
0.536384
0.327794
0.346608
0.299473
0.547221
0.31463
0.323897
0.31937
0.316093
0.322261
0.37078
0.541692
0.309287
0.538072
0.52446
0.336023
0.534691
0.328994
0.546178
0.309552
0.46563
0.319684
0.527178
0.536274
0.402062
0.49829
0.535389
0.519196
0.330828
0.481823
0.431759
0.334934
0.331412
0.40643
0.303321
0.542853
0.307121
0.327535
0.325411
0.537834
0.528385
0.319637
0.320644
0.544405
0.329909
0.3114
0.53702
0.331463
0.314564
0.334321
0.550056
0.502279
0.545796
0.324845
0.292564
0.53768
0.516632
0.536724
0.397277
0.509204
0.530258
0.41523
0.404226
0.340718
0.319502
0.239969
0.493508
0.302915
0.545332
0.512145
0.533176
0.319008
0.411465
0.420886
0.554324
0.296653
0.484079
0.243944
0.493244
0.329389
0.284105
0.28963
0.537363
0.315035
0.549502
0.325999
0.38107
0.331146
0.473811
0.316512
0.542448
0.320148
0.505807
0.488864
0.343107
0.536119
0.53598
0.310273
0.546723
0.326401
0.340184
0.541594
0.299326
0.514142
0.324762
0.232084
0.535785
0.329061
0.354475
0.327023
0.310903
0.324167
0.514804
0.436864
0.526688
0.546238
0.526508
0.542437
0.4144
0.538307
0.295783
0.536515
0.34059
0.527219
0.342055
0.390036
0.525279
0.547673
0.536051
0.356133
0.445356
0.32017
0.323851
0.32484
0.23235
0.536788
0.412859
0.545682
0.535754
0.485973
0.537242
0.535891
0.39448
0.318986
0.367934
0.539988
0.484878
0.503287
0.536279
0.550128
0.417823