# vtk DataFile Version 1.0
unstructured grid
ascii
DATASET UNSTRUCTURED_GRID
points 3226 float
0.0796578 -0.059106 0
0.00128732 0.00159165 0
0.00227961 -0.00102548 0
0.0791586 -0.0598787 0
-0.0546216 0.01 0
0.000495206 0.025 0
0.0800549 -0.035 0
0.135172 -0.08 0
-0.0546216 -0.0451168 0
0.000495206 -0.0301168 0
0.0800549 -0.0901168 0
0.135172 -0.135117 0
-0.0546216 -0.0451168 -0.00551168
0.000495206 -0.0301168 -0.00551168
0.0800549 -0.0901168 -0.00551168
0.135172 -0.135117 -0.00551168
0.135172 -0.08 -0.00551168
0.0800549 -0.035 -0.00551168
0.000495206 0.025 -0.00551168
-0.0546216 0.01 -0.00551168
0.00128732 0.00159165 -0.00551168
0.00227961 -0.00102548 -0.00551168
0.0791586 -0.0598787 -0.00551168
0.0796578 -0.059106 -0.00551168
0.00110182 -0.000823821 0
0.000571683 -0.000188043 0
0.000561313 0.000639162 0
0.00189316 0.00207203 0
0.00260228 0.00255358 0
0.0033966 0.00307293 0
0.00428861 0.00362634 0
0.00529726 0.0041979 0
0.00644092 0.00476696 0
0.00773158 0.0053187 0
0.00918011 0.00583593 0
0.010799 0.00628751 0
0.012597 0.00663225 0
0.0145725 0.0068517 0
0.0167206 0.0069338 0
0.0190349 0.00685819 0
0.0215031 0.00658621 0
0.0241038 0.00607459 0
0.026821 0.00533786 0
0.0296245 0.00434523 0
0.0324763 0.00306927 0
0.0353199 0.00146906 0
0.0381488 -0.00039338 0
0.0409131 -0.00252802 0
0.0435632 -0.00493276 0
0.0460882 -0.0075571 0
0.0484881 -0.0103478 0
0.0506782 -0.0133217 0
0.0526651 -0.016422 0
0.0546139 -0.0195019 0
0.0565301 -0.022529 0
0.0584009 -0.0254846 0
0.0602154 -0.0283513 0
0.061964 -0.031114 0
0.0636389 -0.0337601 0
0.0652336 -0.0362795 0
0.0667431 -0.0386651 0
0.0681656 -0.0409111 0
0.0694983 -0.0430158 0
0.0707356 -0.0449823 0
0.071886 -0.0468071 0
0.0729575 -0.04849 0
0.0739438 -0.0500408 0
0.0748444 -0.0514675 0
0.0756707 -0.0527715 0
0.0764313 -0.053958 0
0.0771224 -0.0550398 0
0.0777384 -0.0560288 0
0.0782803 -0.0569318 0
0.0787691 -0.0577448 0
0.0792251 -0.0584672 0
0.0800494 -0.0597378 0
0.0797987 -0.0601582 0
0.0786655 -0.059391 0
0.0781259 -0.0588425 0
0.0775539 -0.0582102 0
0.0769587 -0.0574783 0
0.0763492 -0.0566339 0
0.075723 -0.0556725 0
0.0750452 -0.0546094 0
0.0742996 -0.0534457 0
0.073478 -0.0521785 0
0.072577 -0.0508019 0
0.0715904 -0.049313 0
0.0705098 -0.047712 0
0.069328 -0.0459996 0
0.0680378 -0.0441794 0
0.066632 -0.0422571 0
0.0651046 -0.0402413 0
0.0634508 -0.0381431 0
0.0616683 -0.0359754 0
0.0597581 -0.033753 0
0.0577255 -0.0314906 0
0.0555808 -0.0292024 0
0.0533388 -0.0269013 0
0.0510024 -0.0246151 0
0.0485693 -0.0223811 0
0.0460535 -0.0202228 0
0.0434788 -0.0181535 0
0.0408704 -0.0161833 0
0.0382442 -0.0143327 0
0.0356165 -0.0126209 0
0.0330065 -0.0110594 0
0.0304368 -0.00965062 0
0.0279338 -0.00838121 0
0.0255194 -0.00723697 0
0.0231965 -0.00623664 0
0.020983 -0.00535765 0
0.0188891 -0.00458677 0
0.0169193 -0.00391673 0
0.0150754 -0.00334068 0
0.0133572 -0.00285262 0
0.0117634 -0.0024437 0
0.0102912 -0.00210643 0
0.0089363 -0.00183343 0
0.00769424 -0.00161552 0
0.00655956 -0.00144452 0
0.00552632 -0.00131235 0
0.00458815 -0.00121216 0
0.00373885 -0.00113394 0
0.00297202 -0.00106855 0
-0.0506847 -0.0440454 0
-0.0467478 -0.0429739 0
-0.0428108 -0.0419025 0
-0.0388739 -0.0408311 0
-0.034937 -0.0397597 0
-0.0310001 -0.0386882 0
-0.0270632 -0.0376168 0
-0.0231263 -0.0365454 0
-0.0191894 -0.0354739 0
-0.0152525 -0.0344025 0
-0.0113155 -0.0333311 0
-0.00737862 -0.0322597 0
-0.00344171 -0.0311882 0
0.0038716 -0.0298185 0
0.00726082 -0.0297726 0
0.010644 -0.0299802 0
0.0140027 -0.0304367 0
0.0173201 -0.0311326 0
0.0205821 -0.0320541 0
0.0237776 -0.0331851 0
0.0268988 -0.0345078 0
0.0299406 -0.0360041 0
0.0329005 -0.0376567 0
0.035778 -0.039449 0
0.038574 -0.0413659 0
0.0412905 -0.043394 0
0.0439303 -0.0455212 0
0.0464964 -0.0477367 0
0.0489922 -0.0500312 0
0.051421 -0.0523964 0
0.0537863 -0.0548252 0
0.0560914 -0.0573112 0
0.0583395 -0.0598489 0
0.0605336 -0.0624334 0
0.0626765 -0.0650605 0
0.064771 -0.0677264 0
0.0668197 -0.0704277 0
0.0688248 -0.0731615 0
0.0707885 -0.0759252 0
0.072713 -0.0787163 0
0.0746002 -0.0815329 0
0.0764517 -0.0843729 0
0.0782695 -0.0872347 0
0.0829558 -0.0924852 0
0.0858567 -0.0948536 0
0.0887575 -0.0972221 0
0.0916584 -0.0995905 0
0.0945593 -0.101959 0
0.0974602 -0.104327 0
0.100361 -0.106696 0
0.103262 -0.109064 0
0.106163 -0.111433 0
0.109064 -0.113801 0
0.111965 -0.116169 0
0.114865 -0.118538 0
0.117766 -0.120906 0
0.120667 -0.123275 0
0.123568 -0.125643 0
0.126469 -0.128012 0
0.12937 -0.13038 0
0.132271 -0.132748 0
0.135172 -0.13118 0
0.135172 -0.127243 0
0.135172 -0.123306 0
0.135172 -0.119369 0
0.135172 -0.115432 0
0.135172 -0.111495 0
0.135172 -0.107558 0
0.135172 -0.103621 0
0.135172 -0.0996846 0
0.135172 -0.0957477 0
0.135172 -0.0918107 0
0.135172 -0.0878738 0
0.135172 -0.0839369 0
0.132271 -0.0776316 0
0.12937 -0.0752632 0
0.126469 -0.0728947 0
0.123568 -0.0705263 0
0.120667 -0.0681579 0
0.117766 -0.0657895 0
0.114865 -0.0634211 0
0.111965 -0.0610526 0
0.109064 -0.0586842 0
0.106163 -0.0563158 0
0.103262 -0.0539474 0
0.100361 -0.0515789 0
0.0974602 -0.0492105 0
0.0945593 -0.0468421 0
0.0916584 -0.0444737 0
0.0887575 -0.0421053 0
0.0858567 -0.0397368 0
0.0829558 -0.0373684 0
0.0782695 -0.0321179 0
0.0764517 -0.0292561 0
0.0746002 -0.026416 0
0.072713 -0.0235995 0
0.0707885 -0.0208084 0
0.0688248 -0.0180447 0
0.0668197 -0.0153109 0
0.064771 -0.0126096 0
0.0626765 -0.00994373 0
0.0605336 -0.00731663 0
0.0583395 -0.00473208 0
0.0560914 -0.00219437 0
0.0537863 0.000291632 0
0.051421 0.00272041 0
0.0489922 0.00508564 0
0.0464964 0.00738012 0
0.0439303 0.00959562 0
0.0412905 0.0117228 0
0.038574 0.0137509 0
0.035778 0.0156678 0
0.0329005 0.0174601 0
0.0299406 0.0191127 0
0.0268988 0.020609 0
0.0237776 0.0219317 0
0.0205821 0.0230627 0
0.0173201 0.0239842 0
0.0140027 0.0246801 0
0.010644 0.0251366 0
0.00726082 0.0253442 0
0.0038716 0.0252983 0
-0.00344171 0.0239286 0
-0.00737862 0.0228571 0
-0.0113155 0.0217857 0
-0.0152525 0.0207143 0
-0.0191894 0.0196429 0
-0.0231263 0.0185714 0
-0.0270632 0.0175 0
-0.0310001 0.0164286 0
-0.034937 0.0153571 0
-0.0388739 0.0142857 0
-0.0428108 0.0132143 0
-0.0467478 0.0121429 0
-0.0506847 0.0110714 0
-0.0546216 0.00606309 0
-0.0546216 0.00212617 0
-0.0546216 -0.00181074 0
-0.0546216 -0.00574766 0
-0.0546216 -0.00968457 0
-0.0546216 -0.0136215 0
-0.0546216 -0.0175584 0
-0.0546216 -0.0214953 0
-0.0546216 -0.0254322 0
-0.0546216 -0.0293691 0
-0.0546216 -0.0333061 0
-0.0546216 -0.037243 0
-0.0546216 -0.0411799 0
-0.0506847 -0.0440454 -0.00551168
-0.0467478 -0.0429739 -0.00551168
-0.0428108 -0.0419025 -0.00551168
-0.0388739 -0.0408311 -0.00551168
-0.034937 -0.0397597 -0.00551168
-0.0310001 -0.0386882 -0.00551168
-0.0270632 -0.0376168 -0.00551168
-0.0231263 -0.0365454 -0.00551168
-0.0191894 -0.0354739 -0.00551168
-0.0152525 -0.0344025 -0.00551168
-0.0113155 -0.0333311 -0.00551168
-0.00737862 -0.0322597 -0.00551168
-0.00344171 -0.0311882 -0.00551168
0.0038716 -0.0298185 -0.00551168
0.00726082 -0.0297726 -0.00551168
0.010644 -0.0299802 -0.00551168
0.0140027 -0.0304367 -0.00551168
0.0173201 -0.0311326 -0.00551168
0.0205821 -0.0320541 -0.00551168
0.0237776 -0.0331851 -0.00551168
0.0268988 -0.0345078 -0.00551168
0.0299406 -0.0360041 -0.00551168
0.0329005 -0.0376567 -0.00551168
0.035778 -0.039449 -0.00551168
0.038574 -0.0413659 -0.00551168
0.0412905 -0.043394 -0.00551168
0.0439303 -0.0455212 -0.00551168
0.0464964 -0.0477367 -0.00551168
0.0489922 -0.0500312 -0.00551168
0.051421 -0.0523964 -0.00551168
0.0537863 -0.0548252 -0.00551168
0.0560914 -0.0573112 -0.00551168
0.0583395 -0.0598489 -0.00551168
0.0605336 -0.0624334 -0.00551168
0.0626765 -0.0650605 -0.00551168
0.064771 -0.0677264 -0.00551168
0.0668197 -0.0704277 -0.00551168
0.0688248 -0.0731615 -0.00551168
0.0707885 -0.0759252 -0.00551168
0.072713 -0.0787163 -0.00551168
0.0746002 -0.0815329 -0.00551168
0.0764517 -0.0843729 -0.00551168
0.0782695 -0.0872347 -0.00551168
0.0829558 -0.0924852 -0.00551168
0.0858567 -0.0948536 -0.00551168
0.0887575 -0.0972221 -0.00551168
0.0916584 -0.0995905 -0.00551168
0.0945593 -0.101959 -0.00551168
0.0974602 -0.104327 -0.00551168
0.100361 -0.106696 -0.00551168
0.103262 -0.109064 -0.00551168
0.106163 -0.111433 -0.00551168
0.109064 -0.113801 -0.00551168
0.111965 -0.116169 -0.00551168
0.114865 -0.118538 -0.00551168
0.117766 -0.120906 -0.00551168
0.120667 -0.123275 -0.00551168
0.123568 -0.125643 -0.00551168
0.126469 -0.128012 -0.00551168
0.12937 -0.13038 -0.00551168
0.132271 -0.132748 -0.00551168
0.135172 -0.13118 -0.00551168
0.135172 -0.127243 -0.00551168
0.135172 -0.123306 -0.00551168
0.135172 -0.119369 -0.00551168
0.135172 -0.115432 -0.00551168
0.135172 -0.111495 -0.00551168
0.135172 -0.107558 -0.00551168
0.135172 -0.103621 -0.00551168
0.135172 -0.0996846 -0.00551168
0.135172 -0.0957477 -0.00551168
0.135172 -0.0918107 -0.00551168
0.135172 -0.0878738 -0.00551168
0.135172 -0.0839369 -0.00551168
0.132271 -0.0776316 -0.00551168
0.12937 -0.0752632 -0.00551168
0.126469 -0.0728947 -0.00551168
0.123568 -0.0705263 -0.00551168
0.120667 -0.0681579 -0.00551168
0.117766 -0.0657895 -0.00551168
0.114865 -0.0634211 -0.00551168
0.111965 -0.0610526 -0.00551168
0.109064 -0.0586842 -0.00551168
0.106163 -0.0563158 -0.00551168
0.103262 -0.0539474 -0.00551168
0.100361 -0.0515789 -0.00551168
0.0974602 -0.0492105 -0.00551168
0.0945593 -0.0468421 -0.00551168
0.0916584 -0.0444737 -0.00551168
0.0887575 -0.0421053 -0.00551168
0.0858567 -0.0397368 -0.00551168
0.0829558 -0.0373684 -0.00551168
0.0782695 -0.0321179 -0.00551168
0.0764517 -0.0292561 -0.00551168
0.0746002 -0.026416 -0.00551168
0.072713 -0.0235995 -0.00551168
0.0707885 -0.0208084 -0.00551168
0.0688248 -0.0180447 -0.00551168
0.0668197 -0.0153109 -0.00551168
0.064771 -0.0126096 -0.00551168
0.0626765 -0.00994373 -0.00551168
0.0605336 -0.00731663 -0.00551168
0.0583395 -0.00473208 -0.00551168
0.0560914 -0.00219437 -0.00551168
0.0537863 0.000291632 -0.00551168
0.051421 0.00272041 -0.00551168
0.0489922 0.00508564 -0.00551168
0.0464964 0.00738012 -0.00551168
0.0439303 0.00959562 -0.00551168
0.0412905 0.0117228 -0.00551168
[...]
CELL_DATA 2965
SCALARS rho float
LOOKUP_TABLE default
0.534035
0.328701
0.52488
0.313973
0.542178
0.344359
0.533941
0.32985
0.344194
0.525862
0.313734
0.328614
0.425701
0.536531
0.518107
0.517133
0.527214
0.516876
0.545035
0.528913
0.534063
0.319856
0.509695
0.537707
0.535544
0.547661
0.458682
0.47998
0.317869
0.505433
0.502154
0.327317
0.552659
0.529695
0.281121
0.344712
0.528811
0.533567
0.3075
0.506011
0.52995
0.50291
0.53449
0.326816
0.326642
0.533284
0.458886
0.471088
0.311488
0.53405
0.389916
0.31699
0.328192
0.425133
0.315347
0.420217
0.344707
0.309338
0.271926
0.476297
0.516006
0.476933
0.320601
0.54423
0.486949
0.533884
0.533996
0.316972
0.301539
0.335225
0.51862
0.543669
0.534008
0.288077
0.500417
0.409579
0.533896
0.316555
0.322242
0.467807
0.53402
0.319834
0.329156
0.43473
0.481822
0.374161
0.312832
0.272204
0.553583
0.34274
0.306336
0.533211
0.517948
0.514417
0.534039
0.309055
0.457499
0.292502
0.334595
0.32449
0.474538
0.323719
0.331297
0.327314
0.336143
0.52866
0.53388
0.320369
0.310981
0.533912
0.245789
0.391202
0.470182
0.494121
0.302127
0.298942
0.506596
0.455243
0.5341
0.327969
0.534015
0.238435
0.540056
0.541381
0.493704
0.400077
0.324825
0.459436
0.531698
0.267419
0.330358
0.427585
0.532369
0.332963
0.460399
0.328365
0.426728
0.516772
0.554104
0.542172
0.332506
0.516208
0.52802
0.330352
0.280177
0.545524
0.315385
0.54138
0.554519
0.336743
0.326331
0.322007
0.331516
0.318482
0.280499
0.269464
0.533934
0.531887
0.525549
0.540065
0.452317
0.461776
0.407146
0.54309
0.34531
0.533943
0.416078
0.327787
0.534003
0.536099
0.481224
0.299184
0.433362
0.519929
0.547292
0.413692
0.511829
0.357967
0.259573
0.41672
0.333317
0.259357
0.308945
0.300954
0.554817
0.533947
0.320403
0.326047
0.389014
0.324226
0.308383
0.309964
0.450953
0.292561
0.534028
0.463314
0.534455
0.486084
0.439987
0.321226
0.328827
0.319351
0.528414
0.443568
0.533951
0.304805
0.428049
0.534019
0.519851
0.534735
0.496454
0.397544
0.340737
0.336963
0.505905
0.335965
0.460402
0.320726
0.517662
0.323935
0.34413
0.329645
0.459012
0.3819
0.545665
0.281404
0.533955
0.522538
0.320014
0.479688
0.322344
0.278865
0.536241
0.309297
0.533696
0.536181
0.314893
0.531171
0.325376
0.350281
0.372261
0.325302
0.543956
0.52295
0.326364
0.244456
0.526147
0.533881
0.446821
0.505899
0.322824
0.319692
0.533937
0.329664
0.481573
0.275166
0.270675
0.534099
0.533453
0.334631
0.46432
0.325468
0.543139
0.345358
0.535116
0.534075
0.266448
0.472382
0.520671
0.299212
0.32721
0.534159
0.326758
0.550522
0.509819
0.327663
0.515066
0.514895
0.551528
0.53161
0.546557
0.468098
0.529484
0.533844
0.320973
0.313526
0.523473
0.539459
0.331562
0.531689
0.46235
0.318228
0.329589
0.325241
0.477442
0.316843
0.533909
0.480018
0.549976
0.322999
0.483206
0.485448
0.476582
0.533578
0.319148
0.236573
0.545078
0.53392
0.533923
0.315616
0.329572
0.481768
0.289091
0.295463
0.491917
0.533984
0.484707
0.244783
0.31808
0.482329
0.49407
0.324677
0.534236
0.533949
0.328624
0.414359
0.533467
0.514979
0.280788
0.326684
0.534134
0.33505
0.537628
0.363877
0.539902
0.391551
0.369217
0.331154
0.326273
0.302068
0.511415
0.547769
0.526332
0.542997
0.485071
0.473804
0.311345
0.534567
0.547049
0.335963
0.310003
0.534164
0.313356
0.516807
0.472249
0.334746
0.328802
0.32742
0.312458
0.533959
0.331571
0.332801
0.379596
0.325354
0.533489
0.534321
0.472234
0.533909
0.32545
0.531388
0.327422
0.534174
0.311748
0.333294
0.535698
0.465356
0.279274
0.25712
0.53254
0.360388
0.500232
0.514451
0.321482
0.530807
0.280118
0.335685
0.534225
0.295169
0.535988
0.27472
0.379681
0.329357
0.536247
0.468504
0.43396
0.533866
0.298951
0.546489
0.340875
0.311011
0.549106
0.306194
0.540408
0.421227
0.487236
0.278705
0.295304
0.310144
0.278977
0.309703
0.335773
0.530105
0.534383
0.53463
0.534052
0.328062
0.538419
0.465955
0.520055
0.253862
0.533374
0.343354
0.484253
0.475658
0.318243
0.534048
0.354444
0.522295
0.31597
0.488178
0.534975
0.304831
0.533061
0.257905
0.537938
0.322104
0.310684
0.415833
0.543268
0.540454
0.397978
0.273697
0.249656
0.416831
0.542806
0.528315
0.533607
0.531692
0.537129
0.308993
0.513815
0.483895
0.332701
0.262933
0.301415
0.497964
0.535965
0.365787
0.379819
0.370657
0.337784
0.528399
0.53492
0.53402
0.548616
0.398086
0.533881
0.535501
0.330451
0.53952
0.345973
0.350774
0.531816
0.534655
0.537314
0.545394
0.317863
0.327417
0.55281
0.530549
0.317833
0.529685
0.501184
0.534617
0.343427
0.320222
0.535666
0.326901
0.453022
0.534787
0.535901
0.336083
0.533491
0.325772
0.327282
0.31778
0.345258
0.533511
0.362862
0.516907
0.283067
0.32153
0.526741
0.336097
0.291224
0.335761
0.27536
0.359028
0.327524
0.322856
0.426687
0.437998
0.312573
0.343189
0.535939
0.326177
0.394988
0.533485
0.533812
0.494594
0.489912
0.436498
0.443783
0.289271
0.373424
0.533679
0.498619
0.271995
0.508356
0.241677
0.291684
0.304652
0.533774
0.551091
0.326861
0.496921
0.532068
0.282792
0.31951
0.541663
0.533955
0.360344
0.543389
0.3798
0.332053
0.541693
0.327074
0.453116
0.527185
0.405989
0.542568
0.308495
0.330053
0.537347
0.368633
0.334655
0.343929
0.323773
0.322362
0.533903
0.539837
0.523196
0.311106
0.256418
0.335545
0.326206
0.53039
0.271101
0.423252
0.326873
0.531693
0.533584
0.301958
0.534073
0.390769
0.490426
0.29797
0.527536
0.533468
0.55411
0.535092
0.53403
0.52603
0.343769
0.425111
0.331204
0.527654
0.312892
0.316737
0.532543
0.533867
0.533466
0.325281
0.318782
0.539033
0.541193
0.302898
0.53441
0.291956
0.307234
0.326277
0.552759
0.538505
0.52272
0.295573
0.299738
0.337211
0.323423
0.537594
0.53399
0.546138
0.32508
0.309235
0.456783
0.547112
0.54364
0.510005
0.533927
0.412571
0.536149
0.541701
0.516899
0.326954
0.536737
0.494957
0.533958
0.536205
0.545719
0.485969
0.380361
0.546265
0.329409
0.544253
0.533864
0.234183
0.533977
0.462741
0.535437
0.326156
0.314524
0.534092
0.300367
0.322602
0.548424
0.300228
0.415766
0.537569
0.287651
0.546353
0.324321
0.492434
0.532936
0.528094
0.501767
0.324365
0.323139
0.521643
0.436675
0.33004
0.480223
0.314684
0.534036
0.315792
0.459411
0.518965
0.534063
0.31588
0.492437
0.343143
0.40883
0.414048
0.334998
0.276861
0.319611
0.534112
0.458653
0.436314
0.309797
0.534099
0.489592
0.309599
0.534058
0.325314
0.456934
0.519317
0.533963
0.537277
0.295421
0.327186
0.534011
0.544579
0.5227
0.489229
0.542784
0.479552
0.465694
0.309164
0.50299
0.388087
0.345161
0.359635
0.53394
0.549371
0.50842
0.39354
0.325962
0.541254
0.331017
0.335842
0.40329
0.310811
0.456045
0.328205
0.533954
0.325928
0.306127
0.41425
0.544706
0.326902
0.307455
0.54891
0.543625
0.551186
0.320765
0.306811
0.53858
0.337011
0.306895
0.326395
0.435948
0.525017
0.267521
0.550523
0.32836
0.505891
0.533799
0.318683
0.407922
0.478071
0.500567
0.49486
0.540816
0.538373
0.54449
0.534999
0.533993
0.327875
0.381216
0.521817
0.291931
0.543344
0.525984
0.264664
0.532028
0.475349
0.512809
0.539382
0.469676
0.531784
0.314056
0.491612
0.334667
0.299454
0.534865
0.534065
0.271876
0.328872
0.531086
0.392378
0.45323
0.29487
0.249262
0.548531
0.516235
0.544095
0.513359
0.462575
0.376643
0.453443
0.315143
0.534023
0.504358
0.495133
0.333956
0.381172
0.54442
0.498103
0.539303
0.137601
0.534061
0.313172
0.32023
0.326555
0.520013
0.52162
0.540612
0.471948
0.335164
0.534033
0.38684
0.545906
0.547146
0.492463
0.317446
0.314541
0.534338
0.33416
0.424725
0.474504
0.321704
0.327373
0.517294
0.542276
0.319388
0.534063
0.532923
0.314049
0.534074
0.535196
0.538542
0.34438
0.339883
0.542099
0.32795
0.328321
0.407779
0.534009
0.323221
0.37662
0.322134
0.297603
0.538081
0.326511
0.31723
0.54314
0.32669
0.325902
0.55278
0.53791
0.534425
0.533929
0.492978
0.32686
0.551501
0.53329
0.316684
0.537145
0.534891
0.533972
0.533974
0.344152
0.533994
0.328766
0.533996
0.323233
0.533962
0.332112
0.51844
0.31629
0.540571
0.545138
0.550109
0.484804
0.534284
0.536813
0.289432
0.533984
0.26603
0.533954
0.538254
0.322846
0.405809
0.326713
0.325194
0.533956
0.361929
0.533498
0.139253
0.505056
0.50892
0.540334
0.397688
0.328617
0.265883
0.314906
0.271556
0.536691
0.364729
0.311875
0.535069
0.336901
0.35425
0.532715
0.53307
0.501231
0.535814
0.25598
0.487215
0.3148
0.534014
0.534489
0.524486
0.290153
0.540421
0.535783
0.54146
0.498211
0.533255
0.382596
0.533918
0.540172
0.442901
0.534214
0.31067
0.518439
0.340738
0.420512
0.519995
0.490512
0.530788
0.474412
0.487481
0.537259
0.308597
0.524051
0.326093
0.332155
0.540656
0.512769
0.478829
0.520011
0.531758
0.534009
0.537226
0.534037
0.534192
0.534465
0.552015
0.343068
0.50178
0.531209
0.321908
0.534149
0.317264
0.471754
0.320291
0.534079
0.315853
0.313325
0.301799
0.470005
0.535082
0.428497
0.51645
0.320214
0.332492
0.533914
0.53529
0.315326
0.502629
0.445779
0.328417
0.504035
0.327277
0.314467
0.534126
0.480253
0.310209
0.518958
0.533149
0.52432
0.32312
0.515878
0.260002
0.533948
0.378524
0.510112
0.325463
0.548084
0.302762
0.32739
0.310734
0.515866
0.302533
0.498071
0.546554
0.470599
0.34455
0.314757
0.542163
0.314249
0.237106
0.321742
0.53556
0.318764
0.331539
0.267084
0.499642
0.332154
0.329796
0.326935
0.533842
0.549317
0.336577
0.538664
0.537935
0.495824
0.32075
0.318731
0.533895
0.31099
0.554649
0.328951
0.531435
0.319855
0.225017
0.514449
0.319587
0.322376
0.32185
0.534101
0.304822
0.446078
0.537258
0.31014
0.516418
0.326053
0.549101
0.418409
0.311034
0.33003
0.535045
0.440851
0.534133
0.316803
0.335264
0.439708
0.53398
0.307103
0.321122
0.324327
0.41595
0.536965
0.346788
0.450165
0.531668
0.534116
0.526267
0.325459
0.535854
0.321851
0.53448
0.534554
0.460736
0.333082
0.490861
0.537627
0.31098
0.5379
0.538136
0.329456
0.323391
0.314347
0.273441
0.542513
0.321288
0.533983
0.3829
0.533973
0.495337
0.374247
0.511207
0.302158
0.480021
0.317295
0.533794
0.533327
0.265982
0.325938
0.32242
0.465703
0.552653
0.313707
0.295139
0.330028
0.45162
0.54664
0.290999
0.314573
0.526056
0.536713
0.527967
0.325579
0.325001
0.52401
0.533797
0.309622
0.323897
0.43782
0.549571
0.492625
0.307871
0.534151
0.535077
0.314963
0.538398
0.325251
0.539182
0.313111
0.359246
0.30939
0.28276
0.533678
0.319421
0.320096
0.322631
0.336763
0.48387
0.529398
0.549509
0.311529
0.53395
0.535555
0.535121
0.54675
0.533678
0.547826
0.548598
0.548407
0.538111
0.532813
0.305181
0.487672
0.549327
0.325956
0.540709
0.544658
0.536811
0.535352
0.307204
0.542272
0.534026
0.536661
0.329842
0.506156
0.530069
0.534001
0.529669
0.322802
0.486763
0.342002
0.414398
0.335145
0.335225
0.314069
0.323615
0.534196
0.533266
0.522476
0.320568
0.534671
0.534077
0.537479
0.326027
0.329622
0.519165
0.301
0.312171
0.327198
0.536517
0.419625
0.534596
0.320282
0.54614
0.533371
0.45722
0.538966
0.334457
0.550055
0.535558
0.512983
0.539329
0.534171
0.520596
0.324333
0.344005
0.330771
0.533804
0.3045
0.53438
0.521038
0.495146
0.328043
0.345205
0.483353
0.541687
0.533922
0.327343
0.525583
0.478661
0.266463
0.53418
0.314666
0.328108
0.314646
0.314372
0.33547
0.539519
0.535697
0.552157
0.443537
0.532953
0.533764
0.517929
0.534115
0.546404
0.548446
0.533701
0.533838
0.324367
0.533934
0.528195
0.426936
0.32128
0.503876
0.298943
0.537274
0.370673
0.539018
0.545458
0.328854
0.536207
0.323301
0.53545
0.532249
0.547008
0.489652
0.516175
0.545509
0.533692
0.34333
0.445435
0.422607
0.252851
0.534252
0.538143
0.443906
0.550601
0.526704
0.533944
0.315986
0.319562
0.527806
0.546191
0.315642
0.193847
0.514823
0.534302
0.53491
0.270973
0.457017
0.513516
0.532875
0.322217
0.534066
0.48449
0.525584
0.505071
0.439831
0.534153
0.298932
0.531263
0.308898
0.328431
0.53414
0.344853
0.345951
0.323619
0.525621
0.510531
0.443082
0.534115
0.431014
0.348988
0.324499
0.542405
0.53248
0.539707
0.489351
0.253647
0.522596
0.432809
0.309072
0.532459
0.540342
0.326955
0.536278
0.529344
0.533951
0.445948
0.533634
0.360952
0.53426
0.531143
0.533622
0.336698
0.525381
0.386184
0.508934
0.533752
0.544728
0.530717
0.534668
0.534628
0.53291
0.518227
0.32165
0.5419
0.510646
0.329409
0.495728
0.536833
0.550975
0.49944
0.308763
0.53111
0.330933
0.545729
0.49015
0.538624
0.322875
0.513394
0.534467
0.534028
0.525467
0.478799
0.534042
0.466686
0.386433
0.323332
0.275673
0.533942
0.341303
0.300734
0.536658
0.316125
0.543835
0.314444
0.536208
0.316739
0.324199
0.521286
0.39533
0.298885
0.531023
0.533262
0.537956
0.336512
0.506646
0.534113
0.531872
0.324881
0.534013
0.534863
0.319426
0.482461
0.462391
0.523258
0.329154
0.391612
0.510423
0.309832
0.537928
0.329482
0.329478
0.533881
0.386162
0.507313
0.315199
0.539806
0.424998
0.534021
0.221827
0.322523
0.533906
0.337754
0.534044
0.343051
0.534508
0.485568
0.466484
0.534052
0.502505
0.261429
0.534891
0.548784
0.531741
0.53401
0.31877
0.328593
0.317807
0.329627
0.533896
0.335355
0.513676
0.322054
0.532671
0.534598
0.53382
0.322424
0.534572
0.319748
0.534763
0.541416
0.346574
0.53376
0.52539
0.309712
0.521864
0.316062
0.344458
0.549198
0.332095
0.543367
0.224807
0.333439
0.512925
0.356109
0.538769
0.326921
0.46142
0.533066
0.530166
0.385828
0.269432
0.329585
0.53399
0.53403
0.335872
0.535224
0.321086
0.532706
0.321554
0.31689
0.468039
0.474693
0.41954
0.495865
0.534119
0.492184
0.473642
0.536118
0.533905
0.326478
0.535044
0.329954
0.337184
0.496151
0.406807
0.395415
0.442531
0.327178
0.51495
0.53406
0.537139
0.322513
0.314247
0.450978
0.505797
0.534442
0.545857
0.31308
0.499631
0.532754
0.507841
0.440093
0.320165
0.324213
0.327979
0.554688
0.537049
0.308063
0.323328
0.436674
0.325004
0.549298
0.513187
0.319345
0.533933
0.404565
0.540773
0.536671
0.317523
0.34362
0.507007
0.31724
0.394276
0.533077
0.273908
0.316947
0.32458
0.508027
0.536169
0.505699
0.332866
0.311121
0.528719
0.535002
0.494544
0.538872
0.312205
0.322636
0.332854
0.49801
0.308368
0.319582
0.537895
0.541644
0.51441
0.324983
0.327185
0.324718
0.534018
0.302749
0.532875
0.533986
0.53025
0.428265
0.534178
0.549187
0.331493
0.323223
0.535623
0.320366
0.46566
0.526123
0.541838
0.437021
0.311417
0.308431
0.541546
0.403331
0.31144
0.534415
0.534089
0.296197
0.320732
0.513417
0.442444
0.327707
0.334161
0.540308
0.490366
0.529067
0.474578
0.354396
0.311002
0.340286
0.380424
0.31896
0.534001
0.528548
0.470312
0.511757
0.340485
0.503986
0.344294
0.533352
0.54572
0.32966
0.264915
0.529746
0.385023
0.472522
0.535128
0.302
0.530898
0.527988
0.533733
0.534055
0.506298
0.343825
0.336175
0.313568
0.511035
0.533919
0.514195
0.44391
0.326587
0.336171
0.492482
0.327664
0.538363
0.533737
0.533014
0.347377
0.324599
0.464626
0.507294
0.53403
0.526711
0.534211
0.533949
0.535921
0.481827
0.252938
0.533998
0.497862
0.534655
0.314675
0.529855
0.423879
0.528718
0.55206
0.445965
0.491781
0.531786
0.509347
0.534007
0.326719
0.531869
0.550975
0.341997
0.505515
0.301964
0.298956
0.534015
0.534
0.333408
0.483276
0.53375
0.331003
0.34192
0.556993
0.549899
0.471201
0.346795
0.495651
0.326276
0.542849
0.548869
0.319118
0.454598
0.500427
0.323709
0.312611
0.339634
0.539046
0.53211
0.311473
0.328221
0.338892
0.335779
0.336212
0.501732
0.324765
0.550794
0.535107
0.541705
0.318208
0.532952
0.446569
0.531926
0.443269
0.529468
0.314991
0.302249
0.324823
0.534102
0.327434
0.322746
0.496965
0.331189
0.534049
0.507015
0.425167
0.320506
0.318763
0.522647
0.535987
0.527612
0.525495
0.542669
0.312959
0.342488
0.31344
0.509803
0.534782
0.321043
0.517712
0.327371
0.338664
0.534142
0.319064
0.338175
0.259948
0.370797
0.328751
0.534364
0.538359
0.537765
0.337816
0.533724
0.542289
0.320861
0.534351
0.375371
0.539904
0.344546
0.387645
0.533488
0.325877
0.264965
0.529748
0.524131
0.320256
0.546136
0.498464
0.533082
0.398713
0.317563
0.501428
0.534058
0.365669
0.352398
0.422798
0.398579
0.534139
0.326674
0.319372
0.541021
0.516059
0.330278
0.317418
0.531686
0.325678
0.324734
0.318124
0.454808
0.544744
0.317325
0.54004
0.319263
0.301559
0.343487
0.405511
0.329399
0.53943
0.318322
0.338503
0.481174
0.53869
0.354417
0.533951
0.312474
0.325739
0.510452
0.552348
0.523341
0.51307
0.518922
0.546074
0.322669
0.539035
0.2984
0.533954
0.526791
0.410729
0.524794
0.534007
0.533921
0.533782
0.432185
0.342504
0.429743
0.330221
0.502442
0.532433
0.495855
0.322656
0.536069
0.368503
0.53396
0.324928
0.308226
0.556399
0.298647
0.528842
0.55179
0.377024
0.330308
0.331438
0.533636
0.3931
0.267535
0.54058
0.32731
0.52573
0.340919
0.336814
0.316662
0.535227
0.39035
0.534066
0.32235
0.336978
0.534142
0.53267
0.282888
0.358641
0.268986
0.481434
0.329474
0.520626
0.530654
0.533973
0.237892
0.32157
0.450297
0.530777
0.548182
0.532743
0.297945
0.513896
0.537511
0.53396
0.534037
0.315483
0.521806
0.329501
0.449701
0.542585
0.537208
0.529987
0.544613
0.498113
0.532191
0.544085
0.533672
0.522591
0.536436
0.533782
0.535548
0.32493
0.327702
0.534293
0.475817
0.534054
0.533952
0.548164
0.519582
0.545062
0.329582
0.324736
0.534039
0.323523
0.321664
0.332864
0.533975
0.523528
0.533982
0.509851
0.523196
0.311086
0.537824
0.311318
0.312271
0.545655
0.525813
0.524627
0.398932
0.395789
0.326743
0.324384
0.384401
0.303734
0.357664
0.544069
0.300667
0.531248
0.32899
0.539557
0.533059
0.286146
0.336269
0.497012
0.534034
0.32727
0.508966
0.267101
0.317442
0.323059
0.448654
0.535027
0.534025
0.53421
0.241697
0.341445
0.273388
0.33362
0.533992
0.547297
0.538591
0.329738
0.311919
0.533815
0.532791
0.536442
0.303757
0.4809
0.465194
0.54327
0.430022
0.338209
0.337761
0.317443
0.535801
0.323786
0.323842
0.533985
0.337268
0.534243
0.342943
0.342913
0.399197
0.339763
0.545599
0.534034
0.534281
0.444793
0.554132
0.510403
0.475778
0.344325
0.507721
0.530139
0.509753
0.53646
0.532783
0.539669
0.425055
0.532654
0.535354
0.332599
0.32908
0.549015
0.400375
0.53347
0.326433
0.546066
0.360447
0.526127
0.534443
0.508487
0.53307
0.539025
0.515204
0.31226
0.336734
0.537461
0.546876
0.533323
0.433513
0.544281
0.446439
0.494136
0.533742
0.472212
0.464014
0.540433
0.533961
0.332584
0.311502
0.534459
0.50222
0.327272
0.337464
0.423368
0.53404
0.533967
0.550459
0.333007
0.524574
0.300742
0.536701
0.326278
0.544495
0.290955
0.549133
0.335798
0.531421
0.445385
0.324338
0.306638
0.471099
0.326468
0.485232
0.312815
0.534127
0.534031
0.530356
0.527929
0.534152
0.534961
0.533832
0.549715
0.541527
0.501868
0.515766
0.496261
0.538314
0.320734
0.500633
0.499489
0.532636
0.313055
0.497957
0.545396
0.533907
0.329757
0.318399
0.329901
0.5442
0.497989
0.321858
0.500412
0.391108
0.534098
0.313486
0.412112
0.343099
0.303182
0.552831
0.32532
0.508447
0.324769
0.5512
0.331611
0.534111
0.502704
0.529238
0.345619
0.342771
0.352978
0.515937
0.324752
0.351285
0.322187
0.540518
0.518917
0.544316
0.523256
0.530832
0.511538
0.383292
0.340611
0.53085
0.319604
0.447961
0.527062
0.549915
0.222335
0.320193
0.522949
0.533893
0.408965
0.525073
0.534991
0.518461
0.333393
0.542865
0.52013
0.532037
0.533326
0.323882
0.534008
0.324031
0.532128
0.542204
0.504854
0.533256
0.34696
0.537393
0.225204
0.360335
0.500419
0.508049
0.529723
0.451612
0.328919
0.532149
0.535969
0.321138
0.31617
0.298817
0.548328
0.335567
0.325773
0.325779
0.327397
0.308596
0.369275
0.542566
0.303323
0.539668
0.523999
0.326558
0.53576
0.322786
0.54771
0.303751
0.461226
0.321881
0.527278
0.534549
0.398939
0.497486
0.534097
0.521042
0.322371
0.480377
0.430481
0.311283
0.322955
0.4053
0.305189
0.544306
0.297605
0.332214
0.323268
0.534031
0.5283
0.311333
0.31949
0.545183
0.32615
0.323134
0.533978
0.329779
0.330147
0.34173
0.551374
0.503436
0.547404
0.326003
0.291609
0.538379
0.518215
0.533887
0.396511
0.508148
0.529859
0.415221
0.402796
0.322142
0.322428
0.237627
0.493048
0.302389
0.546596
0.5128
0.533067
0.331416
0.410291
0.419963
0.556365
0.296631
0.482752
0.241728
0.492138
0.321006
0.280842
0.289618
0.537431
0.314572
0.550822
0.341767
0.380194
0.326353
0.472114
0.314002
0.54347
0.336488
0.504459
0.487482
0.322006
0.534369
0.534344
0.319584
0.547792
0.345874
0.328142
0.542384
0.300254
0.515628
0.351825
0.23359
0.533572
0.319568
0.352021
0.343884
0.332914
0.318379
0.515518
0.435804
0.528594
0.54721
0.528365
0.543258
0.41146
0.537935
0.296786
0.534708
0.328152
0.52652
0.314629
0.389085
0.52524
0.548784
0.53526
0.354165
0.440169
0.334471
0.341675
0.343826
0.231472
0.537179
0.410191
0.546773
0.533576
0.485003
0.539044
0.534703
0.393818
0.330147
0.366403
0.54135
0.484809
0.502374
0.534281
0.551483
0.417432
0.28791
0.34053
0.543906
0.3647