# vtk DataFile Version 1.0
unstructured grid
ascii
DATASET UNSTRUCTURED_GRID
points 3226 float
0.0796578 -0.059106 0
0.00128732 0.00159165 0
0.00227961 -0.00102548 0
0.0791586 -0.0598787 0
-0.0546216 0.01 0
0.000495206 0.025 0
0.0800549 -0.035 0
0.135172 -0.08 0
-0.0546216 -0.0451168 0
0.000495206 -0.0301168 0
0.0800549 -0.0901168 0
0.135172 -0.135117 0
-0.0546216 -0.0451168 -0.00551168
0.000495206 -0.0301168 -0.00551168
0.0800549 -0.0901168 -0.00551168
0.135172 -0.135117 -0.00551168
0.135172 -0.08 -0.00551168
0.0800549 -0.035 -0.00551168
0.000495206 0.025 -0.00551168
-0.0546216 0.01 -0.00551168
0.00128732 0.00159165 -0.00551168
0.00227961 -0.00102548 -0.00551168
0.0791586 -0.0598787 -0.00551168
0.0796578 -0.059106 -0.00551168
0.00110182 -0.000823821 0
0.000571683 -0.000188043 0
0.000561313 0.000639162 0
0.00189316 0.00207203 0
0.00260228 0.00255358 0
0.0033966 0.00307293 0
0.00428861 0.00362634 0
0.00529726 0.0041979 0
0.00644092 0.00476696 0
0.00773158 0.0053187 0
0.00918011 0.00583593 0
0.010799 0.00628751 0
0.012597 0.00663225 0
0.0145725 0.0068517 0
0.0167206 0.0069338 0
0.0190349 0.00685819 0
0.0215031 0.00658621 0
0.0241038 0.00607459 0
0.026821 0.00533786 0
0.0296245 0.00434523 0
0.0324763 0.00306927 0
0.0353199 0.00146906 0
0.0381488 -0.00039338 0
0.0409131 -0.00252802 0
0.0435632 -0.00493276 0
0.0460882 -0.0075571 0
0.0484881 -0.0103478 0
0.0506782 -0.0133217 0
0.0526651 -0.016422 0
0.0546139 -0.0195019 0
0.0565301 -0.022529 0
0.0584009 -0.0254846 0
0.0602154 -0.0283513 0
0.061964 -0.031114 0
0.0636389 -0.0337601 0
0.0652336 -0.0362795 0
0.0667431 -0.0386651 0
0.0681656 -0.0409111 0
0.0694983 -0.0430158 0
0.0707356 -0.0449823 0
0.071886 -0.0468071 0
0.0729575 -0.04849 0
0.0739438 -0.0500408 0
0.0748444 -0.0514675 0
0.0756707 -0.0527715 0
0.0764313 -0.053958 0
0.0771224 -0.0550398 0
0.0777384 -0.0560288 0
0.0782803 -0.0569318 0
0.0787691 -0.0577448 0
0.0792251 -0.0584672 0
0.0800494 -0.0597378 0
0.0797987 -0.0601582 0
0.0786655 -0.059391 0
0.0781259 -0.0588425 0
0.0775539 -0.0582102 0
0.0769587 -0.0574783 0
0.0763492 -0.0566339 0
0.075723 -0.0556725 0
0.0750452 -0.0546094 0
0.0742996 -0.0534457 0
0.073478 -0.0521785 0
0.072577 -0.0508019 0
0.0715904 -0.049313 0
0.0705098 -0.047712 0
0.069328 -0.0459996 0
0.0680378 -0.0441794 0
0.066632 -0.0422571 0
0.0651046 -0.0402413 0
0.0634508 -0.0381431 0
0.0616683 -0.0359754 0
0.0597581 -0.033753 0
0.0577255 -0.0314906 0
0.0555808 -0.0292024 0
0.0533388 -0.0269013 0
0.0510024 -0.0246151 0
0.0485693 -0.0223811 0
0.0460535 -0.0202228 0
0.0434788 -0.0181535 0
0.0408704 -0.0161833 0
0.0382442 -0.0143327 0
0.0356165 -0.0126209 0
0.0330065 -0.0110594 0
0.0304368 -0.00965062 0
0.0279338 -0.00838121 0
0.0255194 -0.00723697 0
0.0231965 -0.00623664 0
0.020983 -0.00535765 0
0.0188891 -0.00458677 0
0.0169193 -0.00391673 0
0.0150754 -0.00334068 0
0.0133572 -0.00285262 0
0.0117634 -0.0024437 0
0.0102912 -0.00210643 0
0.0089363 -0.00183343 0
0.00769424 -0.00161552 0
0.00655956 -0.00144452 0
0.00552632 -0.00131235 0
0.00458815 -0.00121216 0
0.00373885 -0.00113394 0
0.00297202 -0.00106855 0
-0.0506847 -0.0440454 0
-0.0467478 -0.0429739 0
-0.0428108 -0.0419025 0
-0.0388739 -0.0408311 0
-0.034937 -0.0397597 0
-0.0310001 -0.0386882 0
-0.0270632 -0.0376168 0
-0.0231263 -0.0365454 0
-0.0191894 -0.0354739 0
-0.0152525 -0.0344025 0
-0.0113155 -0.0333311 0
-0.00737862 -0.0322597 0
-0.00344171 -0.0311882 0
0.0038716 -0.0298185 0
0.00726082 -0.0297726 0
0.010644 -0.0299802 0
0.0140027 -0.0304367 0
0.0173201 -0.0311326 0
0.0205821 -0.0320541 0
0.0237776 -0.0331851 0
0.0268988 -0.0345078 0
0.0299406 -0.0360041 0
0.0329005 -0.0376567 0
0.035778 -0.039449 0
0.038574 -0.0413659 0
0.0412905 -0.043394 0
0.0439303 -0.0455212 0
0.0464964 -0.0477367 0
0.0489922 -0.0500312 0
0.051421 -0.0523964 0
0.0537863 -0.0548252 0
0.0560914 -0.0573112 0
0.0583395 -0.0598489 0
0.0605336 -0.0624334 0
0.0626765 -0.0650605 0
0.064771 -0.0677264 0
0.0668197 -0.0704277 0
0.0688248 -0.0731615 0
0.0707885 -0.0759252 0
0.072713 -0.0787163 0
0.0746002 -0.0815329 0
0.0764517 -0.0843729 0
0.0782695 -0.0872347 0
0.0829558 -0.0924852 0
0.0858567 -0.0948536 0
0.0887575 -0.0972221 0
0.0916584 -0.0995905 0
0.0945593 -0.101959 0
0.0974602 -0.104327 0
0.100361 -0.106696 0
0.103262 -0.109064 0
0.106163 -0.111433 0
0.109064 -0.113801 0
0.111965 -0.116169 0
0.114865 -0.118538 0
0.117766 -0.120906 0
0.120667 -0.123275 0
0.123568 -0.125643 0
0.126469 -0.128012 0
0.12937 -0.13038 0
0.132271 -0.132748 0
0.135172 -0.13118 0
0.135172 -0.127243 0
0.135172 -0.123306 0
0.135172 -0.119369 0
0.135172 -0.115432 0
0.135172 -0.111495 0
0.135172 -0.107558 0
0.135172 -0.103621 0
0.135172 -0.0996846 0
0.135172 -0.0957477 0
0.135172 -0.0918107 0
0.135172 -0.0878738 0
0.135172 -0.0839369 0
0.132271 -0.0776316 0
0.12937 -0.0752632 0
0.126469 -0.0728947 0
0.123568 -0.0705263 0
0.120667 -0.0681579 0
0.117766 -0.0657895 0
0.114865 -0.0634211 0
0.111965 -0.0610526 0
0.109064 -0.0586842 0
0.106163 -0.0563158 0
0.103262 -0.0539474 0
0.100361 -0.0515789 0
0.0974602 -0.0492105 0
0.0945593 -0.0468421 0
0.0916584 -0.0444737 0
0.0887575 -0.0421053 0
0.0858567 -0.0397368 0
0.0829558 -0.0373684 0
0.0782695 -0.0321179 0
0.0764517 -0.0292561 0
0.0746002 -0.026416 0
0.072713 -0.0235995 0
0.0707885 -0.0208084 0
0.0688248 -0.0180447 0
0.0668197 -0.0153109 0
0.064771 -0.0126096 0
0.0626765 -0.00994373 0
0.0605336 -0.00731663 0
0.0583395 -0.00473208 0
0.0560914 -0.00219437 0
0.0537863 0.000291632 0
0.051421 0.00272041 0
0.0489922 0.00508564 0
0.0464964 0.00738012 0
0.0439303 0.00959562 0
0.0412905 0.0117228 0
0.038574 0.0137509 0
0.035778 0.0156678 0
0.0329005 0.0174601 0
0.0299406 0.0191127 0
0.0268988 0.020609 0
0.0237776 0.0219317 0
0.0205821 0.0230627 0
0.0173201 0.0239842 0
0.0140027 0.0246801 0
0.010644 0.0251366 0
0.00726082 0.0253442 0
0.0038716 0.0252983 0
-0.00344171 0.0239286 0
-0.00737862 0.0228571 0
-0.0113155 0.0217857 0
-0.0152525 0.0207143 0
-0.0191894 0.0196429 0
-0.0231263 0.0185714 0
-0.0270632 0.0175 0
-0.0310001 0.0164286 0
-0.034937 0.0153571 0
-0.0388739 0.0142857 0
-0.0428108 0.0132143 0
-0.0467478 0.0121429 0
-0.0506847 0.0110714 0
-0.0546216 0.00606309 0
-0.0546216 0.00212617 0
-0.0546216 -0.00181074 0
-0.0546216 -0.00574766 0
-0.0546216 -0.00968457 0
-0.0546216 -0.0136215 0
-0.0546216 -0.0175584 0
-0.0546216 -0.0214953 0
-0.0546216 -0.0254322 0
-0.0546216 -0.0293691 0
-0.0546216 -0.0333061 0
-0.0546216 -0.037243 0
-0.0546216 -0.0411799 0
-0.0506847 -0.0440454 -0.00551168
-0.0467478 -0.0429739 -0.00551168
-0.0428108 -0.0419025 -0.00551168
-0.0388739 -0.0408311 -0.00551168
-0.034937 -0.0397597 -0.00551168
-0.0310001 -0.0386882 -0.00551168
-0.0270632 -0.0376168 -0.00551168
-0.0231263 -0.0365454 -0.00551168
-0.0191894 -0.0354739 -0.00551168
-0.0152525 -0.0344025 -0.00551168
-0.0113155 -0.0333311 -0.00551168
-0.00737862 -0.0322597 -0.00551168
-0.00344171 -0.0311882 -0.00551168
0.0038716 -0.0298185 -0.00551168
0.00726082 -0.0297726 -0.00551168
0.010644 -0.0299802 -0.00551168
0.0140027 -0.0304367 -0.00551168
0.0173201 -0.0311326 -0.00551168
0.0205821 -0.0320541 -0.00551168
0.0237776 -0.0331851 -0.00551168
0.0268988 -0.0345078 -0.00551168
0.0299406 -0.0360041 -0.00551168
0.0329005 -0.0376567 -0.00551168
0.035778 -0.039449 -0.00551168
0.038574 -0.0413659 -0.00551168
0.0412905 -0.043394 -0.00551168
0.0439303 -0.0455212 -0.00551168
0.0464964 -0.0477367 -0.00551168
0.0489922 -0.0500312 -0.00551168
0.051421 -0.0523964 -0.00551168
0.0537863 -0.0548252 -0.00551168
0.0560914 -0.0573112 -0.00551168
0.0583395 -0.0598489 -0.00551168
0.0605336 -0.0624334 -0.00551168
0.0626765 -0.0650605 -0.00551168
0.064771 -0.0677264 -0.00551168
0.0668197 -0.0704277 -0.00551168
0.0688248 -0.0731615 -0.00551168
0.0707885 -0.0759252 -0.00551168
0.072713 -0.0787163 -0.00551168
0.0746002 -0.0815329 -0.00551168
0.0764517 -0.0843729 -0.00551168
0.0782695 -0.0872347 -0.00551168
0.0829558 -0.0924852 -0.00551168
0.0858567 -0.0948536 -0.00551168
0.0887575 -0.0972221 -0.00551168
0.0916584 -0.0995905 -0.00551168
0.0945593 -0.101959 -0.00551168
0.0974602 -0.104327 -0.00551168
0.100361 -0.106696 -0.00551168
0.103262 -0.109064 -0.00551168
0.106163 -0.111433 -0.00551168
0.109064 -0.113801 -0.00551168
0.111965 -0.116169 -0.00551168
0.114865 -0.118538 -0.00551168
0.117766 -0.120906 -0.00551168
0.120667 -0.123275 -0.00551168
0.123568 -0.125643 -0.00551168
0.126469 -0.128012 -0.00551168
0.12937 -0.13038 -0.00551168
0.132271 -0.132748 -0.00551168
0.135172 -0.13118 -0.00551168
0.135172 -0.127243 -0.00551168
0.135172 -0.123306 -0.00551168
0.135172 -0.119369 -0.00551168
0.135172 -0.115432 -0.00551168
0.135172 -0.111495 -0.00551168
0.135172 -0.107558 -0.00551168
0.135172 -0.103621 -0.00551168
0.135172 -0.0996846 -0.00551168
0.135172 -0.0957477 -0.00551168
0.135172 -0.0918107 -0.00551168
0.135172 -0.0878738 -0.00551168
0.135172 -0.0839369 -0.00551168
0.132271 -0.0776316 -0.00551168
0.12937 -0.0752632 -0.00551168
0.126469 -0.0728947 -0.00551168
0.123568 -0.0705263 -0.00551168
0.120667 -0.0681579 -0.00551168
0.117766 -0.0657895 -0.00551168
0.114865 -0.0634211 -0.00551168
0.111965 -0.0610526 -0.00551168
0.109064 -0.0586842 -0.00551168
0.106163 -0.0563158 -0.00551168
0.103262 -0.0539474 -0.00551168
0.100361 -0.0515789 -0.00551168
0.0974602 -0.0492105 -0.00551168
0.0945593 -0.0468421 -0.00551168
0.0916584 -0.0444737 -0.00551168
0.0887575 -0.0421053 -0.00551168
0.0858567 -0.0397368 -0.00551168
0.0829558 -0.0373684 -0.00551168
0.0782695 -0.0321179 -0.00551168
0.0764517 -0.0292561 -0.00551168
0.0746002 -0.026416 -0.00551168
0.072713 -0.0235995 -0.00551168
0.0707885 -0.0208084 -0.00551168
0.0688248 -0.0180447 -0.00551168
0.0668197 -0.0153109 -0.00551168
0.064771 -0.0126096 -0.00551168
0.0626765 -0.00994373 -0.00551168
0.0605336 -0.00731663 -0.00551168
0.0583395 -0.00473208 -0.00551168
0.0560914 -0.00219437 -0.00551168
0.0537863 0.000291632 -0.00551168
0.051421 0.00272041 -0.00551168
0.0489922 0.00508564 -0.00551168
0.0464964 0.00738012 -0.00551168
0.0439303 0.00959562 -0.00551168
0.0412905 0.0117228 -0.00551168
[...]
CELL_DATA 2965
SCALARS rho float
LOOKUP_TABLE default
0.532194
0.372816
0.611327
0.335405
0.553562
0.37452
0.532051
0.373571
0.372815
0.608798
0.335113
0.360281
0.494461
0.535055
0.608175
0.551779
0.54946
0.528243
0.54777
0.547944
0.532252
0.354222
0.527105
0.549636
0.583685
0.547998
0.559484
0.51276
0.339141
0.621567
0.611418
0.361425
0.551175
0.619337
0.328744
0.374423
0.560165
0.591332
0.338098
0.621828
0.568557
0.597586
0.533297
0.36839
0.364174
0.532991
0.527315
0.507918
0.35697
0.532062
0.469571
0.350393
0.369867
0.513798
0.337794
0.508313
0.37117
0.353656
0.318454
0.540305
0.608973
0.510792
0.3477
0.558235
0.514293
0.53254
0.532074
0.355236
0.352349
0.358345
0.52839
0.541676
0.532084
0.315764
0.607299
0.476624
0.532013
0.348939
0.360788
0.558855
0.532212
0.347337
0.363072
0.505319
0.513423
0.448222
0.362848
0.31047
0.56206
0.368397
0.339979
0.532831
0.529697
0.63002
0.532634
0.341871
0.517069
0.321431
0.358922
0.360729
0.537869
0.359498
0.348671
0.369121
0.354503
0.530783
0.531986
0.379106
0.356535
0.531988
0.295182
0.451431
0.572137
0.517845
0.352888
0.323147
0.530076
0.524891
0.532159
0.358497
0.532233
0.277601
0.538824
0.548416
0.519555
0.481329
0.356376
0.504885
0.634087
0.312914
0.355036
0.517285
0.592941
0.357141
0.56138
0.361716
0.490722
0.530029
0.548269
0.550879
0.356974
0.545864
0.572248
0.386049
0.320472
0.549724
0.343204
0.555979
0.549342
0.371906
0.355009
0.344782
0.349019
0.346365
0.326127
0.307129
0.532041
0.617498
0.540064
0.549134
0.532695
0.55176
0.489875
0.619826
0.372411
0.532045
0.487426
0.369814
0.532013
0.535452
0.5816
0.342897
0.523595
0.563976
0.568133
0.473978
0.627033
0.421798
0.298112
0.503796
0.373731
0.298632
0.342299
0.354841
0.550037
0.53208
0.342316
0.357772
0.468671
0.337828
0.339739
0.34045
0.507324
0.334945
0.532068
0.562782
0.587117
0.51684
0.532136
0.359463
0.37181
0.369412
0.53106
0.500609
0.532149
0.35797
0.516377
0.53205
0.530381
0.535821
0.520896
0.476386
0.361105
0.371529
0.559164
0.384865
0.523762
0.358708
0.563486
0.337457
0.372755
0.362314
0.556864
0.459006
0.546683
0.304369
0.532144
0.6202
0.367424
0.575085
0.358453
0.309378
0.534921
0.34043
0.532968
0.535824
0.332476
0.636157
0.339475
0.404854
0.440004
0.351047
0.555022
0.637509
0.356287
0.265244
0.576527
0.532069
0.515543
0.564202
0.362511
0.342359
0.532042
0.362396
0.51812
0.311506
0.306138
0.532188
0.532219
0.364091
0.508731
0.374897
0.541152
0.374907
0.642489
0.532092
0.312089
0.575856
0.613044
0.331227
0.355812
0.533939
0.359185
0.549273
0.559094
0.361158
0.526265
0.566107
0.550949
0.533116
0.597439
0.506194
0.533201
0.532168
0.372334
0.350034
0.538745
0.538538
0.365771
0.532429
0.562974
0.349274
0.36393
0.367084
0.583115
0.366901
0.532038
0.581676
0.550567
0.340834
0.587102
0.522732
0.567189
0.532223
0.341083
0.278687
0.544396
0.532028
0.532078
0.346746
0.362745
0.572754
0.334897
0.328749
0.527933
0.532167
0.512607
0.261143
0.332798
0.544845
0.522439
0.363732
0.532462
0.532125
0.360986
0.46727
0.532759
0.629265
0.311102
0.353916
0.532235
0.368787
0.547748
0.431881
0.538506
0.46873
0.434426
0.377028
0.356994
0.345491
0.526687
0.54719
0.530712
0.602532
0.519333
0.579121
0.348294
0.533651
0.571078
0.360501
0.343336
0.532286
0.343283
0.528215
0.509662
0.364355
0.343887
0.361775
0.335064
0.532112
0.348925
0.366273
0.456335
0.363603
0.53259
0.533164
0.577555
0.532004
0.344585
0.537779
0.357926
0.532339
0.338045
0.380942
0.534772
0.533722
0.310213
0.298732
0.532405
0.420677
0.596013
0.55285
0.365447
0.531442
0.319107
0.369389
0.5324
0.343768
0.534609
0.311697
0.456386
0.371955
0.534947
0.568311
0.522035
0.532324
0.342192
0.580556
0.391718
0.366008
0.567177
0.35316
0.633476
0.510036
0.559136
0.318531
0.337037
0.364844
0.318123
0.362508
0.371318
0.624305
0.533561
0.533515
0.532025
0.358984
0.557758
0.567648
0.531224
0.291716
0.532194
0.369284
0.514012
0.510225
0.368732
0.532132
0.415604
0.611412
0.357801
0.563554
0.543933
0.353537
0.539974
0.301865
0.537696
0.37026
0.354299
0.502614
0.577374
0.539459
0.451108
0.305723
0.28986
0.502389
0.578746
0.53205
0.532833
0.532224
0.535749
0.356587
0.625101
0.523161
0.36071
0.292947
0.333977
0.609486
0.535002
0.438189
0.45093
0.442612
0.372233
0.532039
0.533962
0.532017
0.551969
0.478276
0.532634
0.534132
0.385718
0.539788
0.408791
0.409822
0.539118
0.533115
0.545325
0.567157
0.334553
0.365294
0.552233
0.532669
0.33306
0.531161
0.613697
0.533256
0.374544
0.345805
0.53432
0.344823
0.543064
0.533265
0.534934
0.359757
0.532583
0.354134
0.360932
0.361074
0.395893
0.532305
0.430383
0.52678
0.32362
0.356745
0.53004
0.382722
0.333485
0.359321
0.321507
0.426703
0.365888
0.360559
0.513545
0.528129
0.33992
0.371046
0.534355
0.345031
0.461878
0.532583
0.532215
0.52544
0.516384
0.485897
0.530561
0.335066
0.447323
0.532466
0.536165
0.294852
0.534182
0.26731
0.333861
0.352803
0.540838
0.550035
0.370481
0.525593
0.533111
0.335583
0.367357
0.609
0.532062
0.428707
0.615084
0.441563
0.346833
0.617205
0.371226
0.516648
0.624635
0.458008
0.564085
0.347047
0.355594
0.536827
0.428347
0.383845
0.374754
0.366387
0.360877
0.532476
0.539265
0.52919
0.354888
0.300897
0.369504
0.370241
0.531311
0.312253
0.489729
0.370486
0.534456
0.533524
0.340401
0.532118
0.469699
0.519107
0.34178
0.531545
0.632878
0.549512
0.645495
0.532107
0.531175
0.374277
0.480488
0.363445
0.610267
0.347197
0.340485
0.532528
0.531997
0.532186
0.352371
0.341208
0.5375
0.544492
0.339978
0.53387
0.317429
0.351863
0.368085
0.550363
0.539622
0.624351
0.334268
0.343433
0.375879
0.349482
0.536945
0.532054
0.564052
0.35324
0.361313
0.55186
0.564926
0.60827
0.524955
0.531948
0.498701
0.543163
0.54124
0.528733
0.363359
0.541672
0.534757
0.53204
0.535477
0.601727
0.521415
0.457515
0.545263
0.363428
0.547349
0.532063
0.263923
0.532049
0.558365
0.535563
0.36764
0.333138
0.532604
0.352697
0.355255
0.550457
0.352496
0.501861
0.560803
0.333197
0.545092
0.371642
0.604413
0.532549
0.530704
0.525282
0.375322
0.361538
0.56977
0.493005
0.374947
0.586135
0.361871
0.532106
0.332545
0.541531
0.528052
0.532106
0.340567
0.576493
0.370965
0.492575
0.481457
0.369935
0.323503
0.334555
0.532119
0.558569
0.529992
0.362399
0.532125
0.516172
0.360704
0.532065
0.339123
0.54497
0.634647
0.532215
0.535938
0.348587
0.381984
0.532078
0.54653
0.633648
0.51703
0.568899
0.554665
0.552322
0.348159
0.614995
0.466152
0.407932
0.427672
0.532054
0.559137
0.529304
0.472118
0.354367
0.59737
0.359936
0.369842
0.472301
0.345997
0.549255
0.370175
0.532103
0.3665
0.339705
0.495552
0.542935
0.359658
0.352002
0.563247
0.544115
0.549073
0.356329
0.351829
0.541055
0.358161
0.352113
0.362938
0.52879
0.530631
0.314982
0.564416
0.363105
0.603115
0.53344
0.362919
0.463383
0.581566
0.561859
0.530209
0.540652
0.538361
0.542807
0.613687
0.53215
0.357468
0.439235
0.528696
0.343384
0.541058
0.621782
0.300732
0.532127
0.509358
0.540408
0.620236
0.507974
0.596474
0.361343
0.526573
0.370049
0.34806
0.534369
0.53217
0.312851
0.355275
0.532634
0.461277
0.501151
0.316733
0.290301
0.578733
0.574959
0.543788
0.533388
0.502719
0.445663
0.536166
0.374098
0.532159
0.53347
0.524463
0.358221
0.456444
0.543267
0.525171
0.539092
0.160068
0.532097
0.342684
0.363649
0.354729
0.528415
0.530363
0.563007
0.576166
0.359263
0.532075
0.464183
0.582556
0.54604
0.519044
0.338009
0.360765
0.532946
0.364756
0.509379
0.512464
0.352005
0.359849
0.61737
0.604338
0.332188
0.532113
0.532181
0.33728
0.532144
0.533776
0.538907
0.377134
0.360946
0.623009
0.375115
0.34381
0.490777
0.532302
0.375693
0.449802
0.358791
0.351165
0.593338
0.362895
0.336608
0.542298
0.360515
0.385918
0.558611
0.539449
0.559109
0.531965
0.518656
0.360921
0.551222
0.532236
0.361567
0.539801
0.540146
0.53207
0.53213
0.376504
0.532046
0.363729
0.532055
0.373184
0.532112
0.346775
0.60217
0.360444
0.603232
0.543932
0.551658
0.585568
0.532787
0.536398
0.33188
0.53252
0.304358
0.532206
0.536564
0.348399
0.488662
0.370308
0.339151
0.532183
0.427105
0.533356
0.161919
0.578438
0.525085
0.544208
0.461631
0.36229
0.292918
0.333402
0.307854
0.54923
0.431335
0.351511
0.533728
0.353786
0.409993
0.534101
0.532548
0.522297
0.553111
0.297475
0.597107
0.356049
0.53216
0.533075
0.640912
0.318187
0.566258
0.556932
0.540547
0.519295
0.562295
0.45969
0.531972
0.620637
0.492127
0.532368
0.365639
0.587058
0.374402
0.472447
0.535172
0.589812
0.531456
0.572733
0.580364
0.536271
0.350836
0.52918
0.352149
0.360406
0.629278
0.541458
0.511973
0.634145
0.608802
0.532164
0.537219
0.532136
0.532492
0.533131
0.553803
0.370788
0.520344
0.533729
0.368098
0.605288
0.349481
0.56511
0.36918
0.532303
0.338184
0.333519
0.355562
0.50772
0.533831
0.519276
0.593083
0.368909
0.359641
0.532057
0.539101
0.357872
0.527632
0.542209
0.363999
0.525341
0.360869
0.340187
0.544872
0.557952
0.341167
0.528542
0.534723
0.532464
0.337392
0.539095
0.29179
0.531978
0.442721
0.606501
0.368121
0.552758
0.338955
0.367504
0.338416
0.538142
0.348211
0.522288
0.573725
0.509605
0.372617
0.356974
0.540525
0.359461
0.278725
0.336239
0.534185
0.365662
0.370738
0.304135
0.602462
0.347005
0.351
0.361249
0.533214
0.547957
0.384069
0.537707
0.536297
0.529768
0.346072
0.365227
0.629372
0.336516
0.55087
0.392452
0.536049
0.364693
0.203741
0.534908
0.338041
0.347885
0.337751
0.532127
0.354572
0.509683
0.608442
0.344539
0.588038
0.366863
0.570309
0.502363
0.343324
0.344646
0.533618
0.53591
0.532712
0.359998
0.370257
0.491591
0.532226
0.355021
0.371029
0.354686
0.500902
0.594127
0.374461
0.499008
0.531821
0.532617
0.533368
0.348873
0.630676
0.367931
0.533468
0.533178
0.50228
0.3623
0.527161
0.541578
0.346255
0.542386
0.623833
0.354872
0.356351
0.34056
0.293859
0.543101
0.33652
0.532896
0.455083
0.53218
0.594619
0.449147
0.534896
0.339299
0.526491
0.333637
0.532093
0.532467
0.287953
0.358857
0.360496
0.560864
0.552306
0.341822
0.330615
0.362838
0.549468
0.546652
0.317332
0.333699
0.529865
0.636067
0.530966
0.348312
0.359247
0.529487
0.532016
0.355395
0.361468
0.507152
0.552629
0.523291
0.36238
0.532536
0.533971
0.368169
0.536957
0.367156
0.635004
0.370315
0.430839
0.3455
0.335014
0.53263
0.373871
0.341146
0.360255
0.353996
0.51481
0.603188
0.557572
0.352526
0.532117
0.537066
0.534674
0.592251
0.532293
0.549094
0.573461
0.583276
0.580503
0.532306
0.354056
0.531535
0.552032
0.380951
0.590289
0.544903
0.535487
0.534293
0.340755
0.582231
0.532114
0.536295
0.363215
0.538074
0.531474
0.532757
0.582994
0.367024
0.596449
0.368928
0.500465
0.367295
0.367773
0.363615
0.339947
0.532415
0.621251
0.537443
0.362587
0.53311
0.532094
0.536308
0.348689
0.360617
0.527441
0.349222
0.369843
0.367477
0.57086
0.496394
0.533127
0.368752
0.560262
0.532682
0.499169
0.576303
0.363765
0.548924
0.534656
0.525987
0.537517
0.533334
0.638577
0.366708
0.375787
0.361797
0.532115
0.336114
0.618033
0.528345
0.532129
0.350715
0.375392
0.588657
0.543692
0.531951
0.355897
0.529867
0.585897
0.30348
0.532291
0.333066
0.379339
0.36654
0.345063
0.352076
0.537672
0.534874
0.549691
0.510432
0.606033
0.532171
0.531134
0.532267
0.550203
0.564805
0.532119
0.532153
0.354694
0.531996
0.531382
0.517426
0.341173
0.525894
0.351115
0.535874
0.42168
0.589229
0.58593
0.350315
0.64086
0.353523
0.549262
0.537339
0.585198
0.59925
0.534472
0.606956
0.532126
0.370298
0.541781
0.506244
0.290192
0.532391
0.536878
0.504396
0.561639
0.530312
0.532198
0.345842
0.339405
0.632019
0.547386
0.347653
0.216372
0.529503
0.533281
0.533804
0.316134
0.498676
0.529252
0.555453
0.34252
0.532184
0.592313
0.635709
0.619906
0.502602
0.5347
0.350388
0.537354
0.349173
0.368636
0.532336
0.407157
0.401453
0.347488
0.543939
0.532896
0.49731
0.53311
0.488857
0.377809
0.373848
0.540211
0.532217
0.605728
0.595775
0.29932
0.530337
0.524531
0.350398
0.53234
0.545508
0.341609
0.534885
0.530983
0.532
0.516595
0.532171
0.429082
0.532462
0.53466
0.532305
0.352925
0.631572
0.441818
0.579353
0.533253
0.54305
0.531778
0.534115
0.533119
0.533129
0.527516
0.361516
0.560486
0.61961
0.363838
0.604326
0.535837
0.549906
0.529449
0.348444
0.579778
0.363753
0.595148
0.533942
0.541686
0.347672
0.538282
0.534901
0.532084
0.581691
0.510524
0.532067
0.51406
0.461527
0.346682
0.312683
0.532011
0.361192
0.31925
0.579072
0.34868
0.560369
0.344946
0.537093
0.343589
0.352322
0.530271
0.473472
0.354871
0.544653
0.532152
0.538726
0.351061
0.530486
0.535163
0.533666
0.350348
0.532105
0.53593
0.335842
0.532146
0.510316
0.535139
0.354798
0.471045
0.627182
0.363453
0.605478
0.358212
0.348396
0.531993
0.460836
0.529631
0.332631
0.542047
0.482342
0.532127
0.232044
0.361141
0.531947
0.376202
0.532102
0.370353
0.532897
0.523122
0.546567
0.532117
0.575951
0.293146
0.533454
0.555298
0.531959
0.532084
0.355936
0.362696
0.355675
0.347561
0.532031
0.36838
0.590932
0.359844
0.547309
0.539545
0.532116
0.335812
0.533006
0.368367
0.533852
0.545596
0.390568
0.532708
0.551856
0.341323
0.535445
0.368475
0.370996
0.549247
0.386981
0.541946
0.263931
0.380661
0.530278
0.401539
0.632124
0.357196
0.54103
0.532154
0.532701
0.458572
0.304793
0.392435
0.532038
0.532153
0.385604
0.534022
0.36039
0.534989
0.343203
0.370792
0.519253
0.576575
0.500342
0.536453
0.533315
0.602859
0.518672
0.539526
0.532263
0.363852
0.534995
0.352166
0.370108
0.518322
0.488426
0.47612
0.53733
0.34435
0.528695
0.532076
0.539205
0.360701
0.342216
0.494762
0.588673
0.534282
0.545535
0.339678
0.563899
0.541082
0.535923
0.533531
0.335319
0.356807
0.354909
0.550646
0.535607
0.350242
0.373554
0.528892
0.351928
0.555537
0.614276
0.367367
0.532062
0.48662
0.558074
0.537836
0.335967
0.375283
0.539632
0.349385
0.474271
0.532446
0.310116
0.335324
0.340168
0.616865
0.598237
0.609218
0.3491
0.343648
0.635508
0.533652
0.517057
0.537204
0.343528
0.359456
0.386563
0.573728
0.364553
0.355983
0.536508
0.627435
0.618731
0.367193
0.362315
0.376716
0.532317
0.348066
0.549386
0.532044
0.533193
0.508225
0.538025
0.548478
0.392764
0.337296
0.534231
0.358513
0.568209
0.530375
0.546406
0.531154
0.366768
0.357459
0.540846
0.485577
0.355647
0.538369
0.533982
0.348711
0.33388
0.602556
0.52189
0.364343
0.36335
0.548634
0.592495
0.536584
0.512571
0.420062
0.357804
0.373183
0.4475
0.377996
0.5322
0.531111
0.523911
0.528891
0.36676
0.521398
0.372798
0.532435
0.554269
0.362543
0.312575
0.53872
0.461381
0.571096
0.534273
0.339645
0.532764
0.605095
0.532112
0.532109
0.54787
0.37548
0.353815
0.373203
0.628902
0.53234
0.532258
0.526291
0.347792
0.353414
0.563325
0.350849
0.537487
0.532148
0.5339
0.413408
0.354707
0.566863
0.527503
0.5322
0.534417
0.532445
0.532303
0.534808
0.518498
0.298895
0.531981
0.520464
0.53386
0.346912
0.53461
0.505241
0.535477
0.550095
0.538997
0.577445
0.544607
0.575394
0.532127
0.363254
0.535651
0.55981
0.37376
0.536632
0.338666
0.344992
0.532202
0.532345
0.362249
0.567781
0.532069
0.370947
0.368857
0.561279
0.566893
0.558407
0.390598
0.591633
0.364999
0.542662
0.560466
0.332466
0.50526
0.580908
0.364194
0.338385
0.373024
0.543813
0.547212
0.33577
0.352959
0.392724
0.370143
0.370061
0.526059
0.358473
0.558766
0.533857
0.539854
0.344664
0.532208
0.491942
0.536721
0.536733
0.532297
0.342093
0.358355
0.338642
0.535866
0.387891
0.336338
0.533726
0.350719
0.532118
0.621263
0.496024
0.37307
0.364092
0.532468
0.5346
0.530973
0.542195
0.549945
0.334067
0.378972
0.362039
0.624333
0.533385
0.335012
0.537831
0.370738
0.400112
0.532261
0.357433
0.362972
0.290974
0.435656
0.348869
0.532706
0.552691
0.537664
0.404032
0.532263
0.540004
0.333631
0.532798
0.451248
0.553153
0.377331
0.465084
0.532355
0.359341
0.302881
0.531581
0.643304
0.334247
0.572343
0.611524
0.532249
0.478685
0.354385
0.525285
0.532885
0.428045
0.383934
0.481739
0.454039
0.532237
0.380432
0.337248
0.541967
0.557426
0.363067
0.332064
0.550626
0.359626
0.366639
0.342906
0.553346
0.5676
0.347023
0.538055
0.354173
0.347497
0.37034
0.464595
0.364099
0.540578
0.342997
0.363452
0.588616
0.537266
0.419341
0.531981
0.334899
0.366294
0.524576
0.553739
0.583743
0.630436
0.534525
0.544703
0.345685
0.538074
0.349783
0.531983
0.560121
0.495593
0.598048
0.532124
0.53294
0.532211
0.497291
0.369665
0.521413
0.344868
0.539487
0.532487
0.578589
0.363547
0.537937
0.442642
0.531966
0.348904
0.349081
0.545559
0.344497
0.537002
0.552394
0.432967
0.345003
0.38497
0.532153
0.451149
0.293681
0.541356
0.364637
0.552126
0.367551
0.371229
0.362819
0.533894
0.454372
0.532251
0.335622
0.371598
0.534171
0.532236
0.335107
0.42257
0.307916
0.589522
0.371968
0.628915
0.532102
0.532031
0.279245
0.352191
0.536471
0.647618
0.567018
0.532279
0.337408
0.526532
0.53595
0.532039
0.532109
0.344823
0.530073
0.374125
0.496902
0.545088
0.535868
0.532146
0.610255
0.54128
0.532017
0.542009
0.537165
0.529644
0.536964
0.532862
0.534308
0.339969
0.365875
0.53255
0.526756
0.532107
0.532152
0.556597
0.623305
0.55139
0.363038
0.350582
0.532098
0.337111
0.341884
0.364086
0.533065
0.596738
0.532276
0.534817
0.533329
0.344133
0.566354
0.343876
0.340615
0.54352
0.530584
0.533323
0.48038
0.476559
0.359479
0.348041
0.455419
0.351439
0.414537
0.545131
0.354214
0.535186
0.348655
0.55037
0.533409
0.329662
0.361443
0.537905
0.532101
0.343342
0.541504
0.303058
0.364913
0.348023
0.54484
0.533542
0.532239
0.532365
0.265647
0.374115
0.311293
0.360963
0.532128
0.591402
0.536795
0.36405
0.335855
0.532086
0.532206
0.535027
0.338381
0.516914
0.568138
0.542303
0.521572
0.371553
0.401432
0.348961
0.534622
0.352006
0.337369
0.532083
0.364082
0.532431
0.368561
0.380014
0.480921
0.365485
0.575174
0.532135
0.532543
0.54137
0.555166
0.553747
0.512813
0.374333
0.587224
0.55547
0.600805
0.535207
0.533501
0.545584
0.514648
0.532207
0.534131
0.353924
0.344129
0.547669
0.477034
0.533552
0.36366
0.553013
0.406661
0.531502
0.532814
0.545131
0.532144
0.569871
0.525736
0.363088
0.354673
0.642753
0.551872
0.532273
0.516383
0.552621
0.498399
0.606368
0.532114
0.552909
0.506482
0.541434
0.532074
0.365954
0.345047
0.533025
0.589352
0.368059
0.372012
0.512734
0.532168
0.532161
0.555742
0.367309
0.530756
0.338723
0.535212
0.366734
0.603627
0.340261
0.547258
0.374649
0.646402
0.540392
0.346202
0.358305
0.547691
0.362195
0.517474
0.34162
0.532481
0.53222
0.55317
0.547879
0.532975
0.53715
0.532035
0.570196
0.540166
0.52092
0.634237
0.535242
0.554026
0.353144
0.614927
0.614022
0.532942
0.344934
0.550476
0.556712
0.5322
0.363796
0.356017
0.36431
0.614776
0.536968
0.360998
0.530405
0.466828
0.53218
0.365353
0.490336
0.374491
0.352802
0.55006
0.386937
0.624273
0.367664
0.557515
0.36341
0.532321
0.586986
0.531249
0.374896
0.366685
0.419417
0.525977
0.362401
0.417919
0.359328
0.538606
0.53717
0.586347
0.533476
0.643332
0.526395
0.435121
0.366461
0.532356
0.339131
0.542187
0.54224
0.564566
0.236087
0.357266
0.534815
0.532106
0.488241
0.643341
0.600847
0.540011
0.358439
0.54499
0.532809
0.543932
0.535738
0.385223
0.532198
0.367281
0.531983
0.5406
0.543962
0.532401
0.409642
0.535819
0.264085
0.413378
0.529467
0.618508
0.531948
0.550131
0.366966
0.532887
0.534629
0.365998
0.332414
0.343728
0.547541
0.366972
0.350228
0.362844
0.362607
0.348011
0.443298
0.545941
0.35637
0.610444
0.531516
0.365178
0.567911
0.360771
0.586806
0.357998
0.501771
0.362112
0.536574
0.533062
0.460497
0.543919
0.533696
0.639573
0.359797
0.536592
0.509254
0.353468
0.367783
0.488746
0.354084
0.581212
0.316006
0.359486
0.383264
0.532225
0.534822
0.342009
0.355954
0.542942
0.358837
0.356867
0.532003
0.39254
0.366393
0.386176
0.553316
0.605852
0.550769
0.359448
0.333993
0.543937
0.627547
0.532046
0.47188
0.527114
0.534008
0.499015
0.48533
0.345529
0.361835
0.276769
0.559164
0.348926
0.557885
0.583963
0.534283
0.364311
0.486214
0.50823
0.55643
0.330205
0.53902
0.282274
0.539333
0.356365
0.326436
0.326366
0.536474
0.350052
0.554588
0.36792
0.454671
0.361424
0.530896
0.372294
0.549462
0.361807
0.523863
0.537254
0.344583
0.532876
0.532918
0.357274
0.547071
0.377783
0.364413
0.543846
0.335827
0.625558
0.380647
0.256837
0.532179
0.358962
0.41586
0.367057
0.362504
0.363906
0.583882
0.515819
0.551232
0.545217
0.645538
0.543425
0.475179
0.536456
0.335468
0.533219
0.362922
0.530493
0.33264
0.462843
0.535331
0.547037
0.534015
0.419446
0.487569
0.363322
0.373944
0.375529
0.260502
0.538458
0.474511
0.549064
0.532275
0.544953
0.639109
0.533498
0.470355
0.358401
0.439538
0.584913
0.570126
0.538014
0.53264