# vtk DataFile Version 1.0
unstructured grid
ascii
DATASET UNSTRUCTURED_GRID
points 3226 float
0.0796578 -0.059106 0
0.00128732 0.00159165 0
0.00227961 -0.00102548 0
0.0791586 -0.0598787 0
-0.0546216 0.01 0
0.000495206 0.025 0
0.0800549 -0.035 0
0.135172 -0.08 0
-0.0546216 -0.0451168 0
0.000495206 -0.0301168 0
0.0800549 -0.0901168 0
0.135172 -0.135117 0
-0.0546216 -0.0451168 -0.00551168
0.000495206 -0.0301168 -0.00551168
0.0800549 -0.0901168 -0.00551168
0.135172 -0.135117 -0.00551168
0.135172 -0.08 -0.00551168
0.0800549 -0.035 -0.00551168
0.000495206 0.025 -0.00551168
-0.0546216 0.01 -0.00551168
0.00128732 0.00159165 -0.00551168
0.00227961 -0.00102548 -0.00551168
0.0791586 -0.0598787 -0.00551168
0.0796578 -0.059106 -0.00551168
0.00110182 -0.000823821 0
0.000571683 -0.000188043 0
0.000561313 0.000639162 0
0.00189316 0.00207203 0
0.00260228 0.00255358 0
0.0033966 0.00307293 0
0.00428861 0.00362634 0
0.00529726 0.0041979 0
0.00644092 0.00476696 0
0.00773158 0.0053187 0
0.00918011 0.00583593 0
0.010799 0.00628751 0
0.012597 0.00663225 0
0.0145725 0.0068517 0
0.0167206 0.0069338 0
0.0190349 0.00685819 0
0.0215031 0.00658621 0
0.0241038 0.00607459 0
0.026821 0.00533786 0
0.0296245 0.00434523 0
0.0324763 0.00306927 0
0.0353199 0.00146906 0
0.0381488 -0.00039338 0
0.0409131 -0.00252802 0
0.0435632 -0.00493276 0
0.0460882 -0.0075571 0
0.0484881 -0.0103478 0
0.0506782 -0.0133217 0
0.0526651 -0.016422 0
0.0546139 -0.0195019 0
0.0565301 -0.022529 0
0.0584009 -0.0254846 0
0.0602154 -0.0283513 0
0.061964 -0.031114 0
0.0636389 -0.0337601 0
0.0652336 -0.0362795 0
0.0667431 -0.0386651 0
0.0681656 -0.0409111 0
0.0694983 -0.0430158 0
0.0707356 -0.0449823 0
0.071886 -0.0468071 0
0.0729575 -0.04849 0
0.0739438 -0.0500408 0
0.0748444 -0.0514675 0
0.0756707 -0.0527715 0
0.0764313 -0.053958 0
0.0771224 -0.0550398 0
0.0777384 -0.0560288 0
0.0782803 -0.0569318 0
0.0787691 -0.0577448 0
0.0792251 -0.0584672 0
0.0800494 -0.0597378 0
0.0797987 -0.0601582 0
0.0786655 -0.059391 0
0.0781259 -0.0588425 0
0.0775539 -0.0582102 0
0.0769587 -0.0574783 0
0.0763492 -0.0566339 0
0.075723 -0.0556725 0
0.0750452 -0.0546094 0
0.0742996 -0.0534457 0
0.073478 -0.0521785 0
0.072577 -0.0508019 0
0.0715904 -0.049313 0
0.0705098 -0.047712 0
0.069328 -0.0459996 0
0.0680378 -0.0441794 0
0.066632 -0.0422571 0
0.0651046 -0.0402413 0
0.0634508 -0.0381431 0
0.0616683 -0.0359754 0
0.0597581 -0.033753 0
0.0577255 -0.0314906 0
0.0555808 -0.0292024 0
0.0533388 -0.0269013 0
0.0510024 -0.0246151 0
0.0485693 -0.0223811 0
0.0460535 -0.0202228 0
0.0434788 -0.0181535 0
0.0408704 -0.0161833 0
0.0382442 -0.0143327 0
0.0356165 -0.0126209 0
0.0330065 -0.0110594 0
0.0304368 -0.00965062 0
0.0279338 -0.00838121 0
0.0255194 -0.00723697 0
0.0231965 -0.00623664 0
0.020983 -0.00535765 0
0.0188891 -0.00458677 0
0.0169193 -0.00391673 0
0.0150754 -0.00334068 0
0.0133572 -0.00285262 0
0.0117634 -0.0024437 0
0.0102912 -0.00210643 0
0.0089363 -0.00183343 0
0.00769424 -0.00161552 0
0.00655956 -0.00144452 0
0.00552632 -0.00131235 0
0.00458815 -0.00121216 0
0.00373885 -0.00113394 0
0.00297202 -0.00106855 0
-0.0506847 -0.0440454 0
-0.0467478 -0.0429739 0
-0.0428108 -0.0419025 0
-0.0388739 -0.0408311 0
-0.034937 -0.0397597 0
-0.0310001 -0.0386882 0
-0.0270632 -0.0376168 0
-0.0231263 -0.0365454 0
-0.0191894 -0.0354739 0
-0.0152525 -0.0344025 0
-0.0113155 -0.0333311 0
-0.00737862 -0.0322597 0
-0.00344171 -0.0311882 0
0.0038716 -0.0298185 0
0.00726082 -0.0297726 0
0.010644 -0.0299802 0
0.0140027 -0.0304367 0
0.0173201 -0.0311326 0
0.0205821 -0.0320541 0
0.0237776 -0.0331851 0
0.0268988 -0.0345078 0
0.0299406 -0.0360041 0
0.0329005 -0.0376567 0
0.035778 -0.039449 0
0.038574 -0.0413659 0
0.0412905 -0.043394 0
0.0439303 -0.0455212 0
0.0464964 -0.0477367 0
0.0489922 -0.0500312 0
0.051421 -0.0523964 0
0.0537863 -0.0548252 0
0.0560914 -0.0573112 0
0.0583395 -0.0598489 0
0.0605336 -0.0624334 0
0.0626765 -0.0650605 0
0.064771 -0.0677264 0
0.0668197 -0.0704277 0
0.0688248 -0.0731615 0
0.0707885 -0.0759252 0
0.072713 -0.0787163 0
0.0746002 -0.0815329 0
0.0764517 -0.0843729 0
0.0782695 -0.0872347 0
0.0829558 -0.0924852 0
0.0858567 -0.0948536 0
0.0887575 -0.0972221 0
0.0916584 -0.0995905 0
0.0945593 -0.101959 0
0.0974602 -0.104327 0
0.100361 -0.106696 0
0.103262 -0.109064 0
0.106163 -0.111433 0
0.109064 -0.113801 0
0.111965 -0.116169 0
0.114865 -0.118538 0
0.117766 -0.120906 0
0.120667 -0.123275 0
0.123568 -0.125643 0
0.126469 -0.128012 0
0.12937 -0.13038 0
0.132271 -0.132748 0
0.135172 -0.13118 0
0.135172 -0.127243 0
0.135172 -0.123306 0
0.135172 -0.119369 0
0.135172 -0.115432 0
0.135172 -0.111495 0
0.135172 -0.107558 0
0.135172 -0.103621 0
0.135172 -0.0996846 0
0.135172 -0.0957477 0
0.135172 -0.0918107 0
0.135172 -0.0878738 0
0.135172 -0.0839369 0
0.132271 -0.0776316 0
0.12937 -0.0752632 0
0.126469 -0.0728947 0
0.123568 -0.0705263 0
0.120667 -0.0681579 0
0.117766 -0.0657895 0
0.114865 -0.0634211 0
0.111965 -0.0610526 0
0.109064 -0.0586842 0
0.106163 -0.0563158 0
0.103262 -0.0539474 0
0.100361 -0.0515789 0
0.0974602 -0.0492105 0
0.0945593 -0.0468421 0
0.0916584 -0.0444737 0
0.0887575 -0.0421053 0
0.0858567 -0.0397368 0
0.0829558 -0.0373684 0
0.0782695 -0.0321179 0
0.0764517 -0.0292561 0
0.0746002 -0.026416 0
0.072713 -0.0235995 0
0.0707885 -0.0208084 0
0.0688248 -0.0180447 0
0.0668197 -0.0153109 0
0.064771 -0.0126096 0
0.0626765 -0.00994373 0
0.0605336 -0.00731663 0
0.0583395 -0.00473208 0
0.0560914 -0.00219437 0
0.0537863 0.000291632 0
0.051421 0.00272041 0
0.0489922 0.00508564 0
0.0464964 0.00738012 0
0.0439303 0.00959562 0
0.0412905 0.0117228 0
0.038574 0.0137509 0
0.035778 0.0156678 0
0.0329005 0.0174601 0
0.0299406 0.0191127 0
0.0268988 0.020609 0
0.0237776 0.0219317 0
0.0205821 0.0230627 0
0.0173201 0.0239842 0
0.0140027 0.0246801 0
0.010644 0.0251366 0
0.00726082 0.0253442 0
0.0038716 0.0252983 0
-0.00344171 0.0239286 0
-0.00737862 0.0228571 0
-0.0113155 0.0217857 0
-0.0152525 0.0207143 0
-0.0191894 0.0196429 0
-0.0231263 0.0185714 0
-0.0270632 0.0175 0
-0.0310001 0.0164286 0
-0.034937 0.0153571 0
-0.0388739 0.0142857 0
-0.0428108 0.0132143 0
-0.0467478 0.0121429 0
-0.0506847 0.0110714 0
-0.0546216 0.00606309 0
-0.0546216 0.00212617 0
-0.0546216 -0.00181074 0
-0.0546216 -0.00574766 0
-0.0546216 -0.00968457 0
-0.0546216 -0.0136215 0
-0.0546216 -0.0175584 0
-0.0546216 -0.0214953 0
-0.0546216 -0.0254322 0
-0.0546216 -0.0293691 0
-0.0546216 -0.0333061 0
-0.0546216 -0.037243 0
-0.0546216 -0.0411799 0
-0.0506847 -0.0440454 -0.00551168
-0.0467478 -0.0429739 -0.00551168
-0.0428108 -0.0419025 -0.00551168
-0.0388739 -0.0408311 -0.00551168
-0.034937 -0.0397597 -0.00551168
-0.0310001 -0.0386882 -0.00551168
-0.0270632 -0.0376168 -0.00551168
-0.0231263 -0.0365454 -0.00551168
-0.0191894 -0.0354739 -0.00551168
-0.0152525 -0.0344025 -0.00551168
-0.0113155 -0.0333311 -0.00551168
-0.00737862 -0.0322597 -0.00551168
-0.00344171 -0.0311882 -0.00551168
0.0038716 -0.0298185 -0.00551168
0.00726082 -0.0297726 -0.00551168
0.010644 -0.0299802 -0.00551168
0.0140027 -0.0304367 -0.00551168
0.0173201 -0.0311326 -0.00551168
0.0205821 -0.0320541 -0.00551168
0.0237776 -0.0331851 -0.00551168
0.0268988 -0.0345078 -0.00551168
0.0299406 -0.0360041 -0.00551168
0.0329005 -0.0376567 -0.00551168
0.035778 -0.039449 -0.00551168
0.038574 -0.0413659 -0.00551168
0.0412905 -0.043394 -0.00551168
0.0439303 -0.0455212 -0.00551168
0.0464964 -0.0477367 -0.00551168
0.0489922 -0.0500312 -0.00551168
0.051421 -0.0523964 -0.00551168
0.0537863 -0.0548252 -0.00551168
0.0560914 -0.0573112 -0.00551168
0.0583395 -0.0598489 -0.00551168
0.0605336 -0.0624334 -0.00551168
0.0626765 -0.0650605 -0.00551168
0.064771 -0.0677264 -0.00551168
0.0668197 -0.0704277 -0.00551168
0.0688248 -0.0731615 -0.00551168
0.0707885 -0.0759252 -0.00551168
0.072713 -0.0787163 -0.00551168
0.0746002 -0.0815329 -0.00551168
0.0764517 -0.0843729 -0.00551168
0.0782695 -0.0872347 -0.00551168
0.0829558 -0.0924852 -0.00551168
0.0858567 -0.0948536 -0.00551168
0.0887575 -0.0972221 -0.00551168
0.0916584 -0.0995905 -0.00551168
0.0945593 -0.101959 -0.00551168
0.0974602 -0.104327 -0.00551168
0.100361 -0.106696 -0.00551168
0.103262 -0.109064 -0.00551168
0.106163 -0.111433 -0.00551168
0.109064 -0.113801 -0.00551168
0.111965 -0.116169 -0.00551168
0.114865 -0.118538 -0.00551168
0.117766 -0.120906 -0.00551168
0.120667 -0.123275 -0.00551168
0.123568 -0.125643 -0.00551168
0.126469 -0.128012 -0.00551168
0.12937 -0.13038 -0.00551168
0.132271 -0.132748 -0.00551168
0.135172 -0.13118 -0.00551168
0.135172 -0.127243 -0.00551168
0.135172 -0.123306 -0.00551168
0.135172 -0.119369 -0.00551168
0.135172 -0.115432 -0.00551168
0.135172 -0.111495 -0.00551168
0.135172 -0.107558 -0.00551168
0.135172 -0.103621 -0.00551168
0.135172 -0.0996846 -0.00551168
0.135172 -0.0957477 -0.00551168
0.135172 -0.0918107 -0.00551168
0.135172 -0.0878738 -0.00551168
0.135172 -0.0839369 -0.00551168
0.132271 -0.0776316 -0.00551168
0.12937 -0.0752632 -0.00551168
0.126469 -0.0728947 -0.00551168
0.123568 -0.0705263 -0.00551168
0.120667 -0.0681579 -0.00551168
0.117766 -0.0657895 -0.00551168
0.114865 -0.0634211 -0.00551168
0.111965 -0.0610526 -0.00551168
0.109064 -0.0586842 -0.00551168
0.106163 -0.0563158 -0.00551168
0.103262 -0.0539474 -0.00551168
0.100361 -0.0515789 -0.00551168
0.0974602 -0.0492105 -0.00551168
0.0945593 -0.0468421 -0.00551168
0.0916584 -0.0444737 -0.00551168
0.0887575 -0.0421053 -0.00551168
0.0858567 -0.0397368 -0.00551168
0.0829558 -0.0373684 -0.00551168
0.0782695 -0.0321179 -0.00551168
0.0764517 -0.0292561 -0.00551168
0.0746002 -0.026416 -0.00551168
0.072713 -0.0235995 -0.00551168
0.0707885 -0.0208084 -0.00551168
0.0688248 -0.0180447 -0.00551168
0.0668197 -0.0153109 -0.00551168
0.064771 -0.0126096 -0.00551168
0.0626765 -0.00994373 -0.00551168
0.0605336 -0.00731663 -0.00551168
0.0583395 -0.00473208 -0.00551168
0.0560914 -0.00219437 -0.00551168
0.0537863 0.000291632 -0.00551168
0.051421 0.00272041 -0.00551168
0.0489922 0.00508564 -0.00551168
0.0464964 0.00738012 -0.00551168
0.0439303 0.00959562 -0.00551168
0.0412905 0.0117228 -0.00551168
[...]
CELL_DATA 2965
SCALARS rho float
LOOKUP_TABLE default
0.534031
0.328761
0.524869
0.313822
0.542168
0.34459
0.533938
0.329832
0.344983
0.525852
0.313585
0.328809
0.425688
0.536525
0.518096
0.517124
0.527204
0.516873
0.545025
0.528903
0.534058
0.319997
0.509694
0.537708
0.535533
0.547654
0.458669
0.479972
0.317712
0.50542
0.502143
0.327304
0.552648
0.529684
0.281111
0.344998
0.528801
0.533557
0.307486
0.505999
0.52994
0.502899
0.534485
0.326844
0.326817
0.533279
0.458874
0.471081
0.311477
0.534046
0.389904
0.31707
0.328385
0.425121
0.315201
0.420205
0.346025
0.310047
0.271916
0.476286
0.515995
0.476926
0.320536
0.544219
0.486945
0.533878
0.533993
0.317098
0.30256
0.335041
0.518616
0.54366
0.534005
0.288352
0.500406
0.409566
0.533892
0.316618
0.322382
0.467795
0.534017
0.319777
0.329275
0.434717
0.481818
0.374149
0.312873
0.272226
0.553581
0.344278
0.306297
0.533206
0.517941
0.514405
0.534033
0.309135
0.457486
0.292562
0.334452
0.324542
0.474527
0.323814
0.330961
0.327335
0.335785
0.528654
0.533876
0.320399
0.312379
0.533909
0.245841
0.391189
0.470171
0.494115
0.303378
0.299266
0.506598
0.45523
0.534095
0.327855
0.534012
0.238427
0.540049
0.541371
0.493702
0.400065
0.32485
0.459425
0.531686
0.267409
0.330194
0.427573
0.532358
0.33285
0.460387
0.328504
0.426715
0.516765
0.554093
0.542162
0.33237
0.516198
0.52801
0.33034
0.280173
0.545513
0.315281
0.541369
0.554508
0.336676
0.326158
0.321831
0.331166
0.318431
0.280489
0.269487
0.53393
0.531876
0.52555
0.540064
0.452305
0.461765
0.407135
0.543079
0.346583
0.53394
0.416066
0.327781
0.533999
0.536093
0.481213
0.299174
0.43335
0.519919
0.547281
0.413678
0.511818
0.357955
0.259572
0.416708
0.333143
0.259355
0.309047
0.300944
0.554805
0.533943
0.320233
0.326052
0.389001
0.324025
0.308385
0.310021
0.450941
0.292552
0.534025
0.463303
0.534444
0.486076
0.439975
0.321366
0.328808
0.323825
0.528408
0.443555
0.533948
0.30486
0.428037
0.534015
0.519848
0.534727
0.496447
0.397532
0.342372
0.336851
0.505895
0.335988
0.46039
0.320565
0.517652
0.323737
0.344918
0.329795
0.459
0.381888
0.545658
0.281623
0.533953
0.522527
0.320001
0.479677
0.32248
0.279143
0.536234
0.30935
0.53369
0.536175
0.314721
0.531159
0.325196
0.350269
0.372249
0.325054
0.543946
0.522938
0.326352
0.244545
0.526137
0.533876
0.446808
0.505889
0.322892
0.319523
0.533933
0.329745
0.481574
0.275263
0.271078
0.534095
0.533448
0.335214
0.46431
0.325455
0.54313
0.345761
0.535105
0.534071
0.266439
0.47237
0.52066
0.299195
0.327049
0.534151
0.326686
0.550511
0.509809
0.327608
0.515062
0.514885
0.55152
0.531605
0.546546
0.468094
0.529477
0.533839
0.320961
0.313426
0.523474
0.539452
0.331659
0.531682
0.462338
0.318317
0.329698
0.325313
0.477431
0.316851
0.533905
0.480006
0.54997
0.322749
0.483194
0.485439
0.476571
0.533573
0.318978
0.236565
0.545068
0.533916
0.533919
0.315619
0.32978
0.481757
0.289889
0.295826
0.491921
0.533981
0.484701
0.244811
0.317902
0.482318
0.49407
0.324744
0.53423
0.533946
0.328814
0.414344
0.533462
0.514967
0.281061
0.326452
0.534129
0.335175
0.537618
0.363865
0.539895
0.391539
0.369206
0.331163
0.326273
0.302054
0.511413
0.547761
0.526326
0.542986
0.485062
0.473792
0.311203
0.534562
0.547038
0.335919
0.310124
0.53416
0.313359
0.5168
0.472246
0.335366
0.328567
0.327428
0.312364
0.533956
0.331266
0.33288
0.379584
0.325421
0.533483
0.534316
0.472221
0.533905
0.325132
0.531385
0.327343
0.53417
0.311657
0.333243
0.53569
0.465344
0.279656
0.257111
0.532533
0.360377
0.500221
0.514442
0.321469
0.530801
0.280123
0.335492
0.53422
0.295764
0.535981
0.274733
0.379669
0.329343
0.536239
0.468492
0.433949
0.533861
0.298941
0.546478
0.340862
0.313513
0.549095
0.308279
0.540397
0.421215
0.487225
0.278702
0.29529
0.312182
0.278979
0.311552
0.335746
0.530094
0.534378
0.534625
0.534048
0.328348
0.538409
0.465943
0.520053
0.253868
0.533369
0.344805
0.484246
0.475652
0.322724
0.534044
0.354432
0.522285
0.318905
0.488167
0.534965
0.306791
0.533058
0.257896
0.53793
0.32212
0.311917
0.41582
0.543257
0.540445
0.397962
0.274051
0.249647
0.416819
0.542795
0.528308
0.533601
0.531686
0.537122
0.309809
0.513804
0.483885
0.33368
0.263004
0.301388
0.497952
0.535958
0.365776
0.379808
0.370646
0.337863
0.528395
0.534915
0.534017
0.548606
0.398074
0.533876
0.535494
0.330439
0.539511
0.345961
0.350763
0.531813
0.534649
0.537304
0.545383
0.31768
0.329924
0.552799
0.530542
0.31765
0.529679
0.501172
0.534612
0.343543
0.320695
0.53566
0.326591
0.45301
0.534781
0.535895
0.336065
0.533485
0.325648
0.32724
0.317826
0.345245
0.533505
0.362851
0.516903
0.283065
0.321667
0.526735
0.336156
0.291214
0.335726
0.275351
0.359017
0.330017
0.322941
0.426675
0.437986
0.312485
0.344157
0.535932
0.325867
0.394976
0.53348
0.533807
0.494596
0.489909
0.436484
0.443771
0.290048
0.373412
0.533674
0.498609
0.272217
0.508347
0.241706
0.291675
0.306623
0.533765
0.551083
0.329039
0.496923
0.532063
0.282782
0.323841
0.541652
0.533952
0.360333
0.543378
0.379787
0.331831
0.541682
0.329908
0.453103
0.527174
0.405973
0.542558
0.308812
0.330511
0.537341
0.368621
0.334647
0.344042
0.323869
0.322509
0.533898
0.539828
0.523191
0.312395
0.256409
0.335822
0.328622
0.530383
0.271838
0.423239
0.329726
0.531688
0.533577
0.301957
0.534069
0.390757
0.490425
0.29796
0.527531
0.533457
0.554099
0.535081
0.534026
0.526026
0.343968
0.425097
0.331308
0.527643
0.31315
0.316825
0.532538
0.533862
0.533461
0.32512
0.318609
0.539026
0.541183
0.302994
0.534404
0.29228
0.307223
0.326305
0.552748
0.538499
0.522709
0.295885
0.299728
0.337069
0.323311
0.537588
0.533987
0.546128
0.324997
0.310491
0.456772
0.547101
0.543629
0.509999
0.533924
0.412559
0.53614
0.541691
0.516896
0.327012
0.536727
0.494947
0.533955
0.536199
0.545708
0.48597
0.380349
0.546257
0.329483
0.544243
0.53386
0.234207
0.533974
0.46273
0.535429
0.328773
0.314356
0.534087
0.300356
0.325524
0.548414
0.300218
0.415755
0.537559
0.28764
0.546344
0.324352
0.492422
0.532931
0.528088
0.501767
0.324353
0.323221
0.521633
0.436661
0.33007
0.480211
0.314674
0.534031
0.315619
0.459399
0.518961
0.534059
0.315742
0.492426
0.344137
0.408818
0.414035
0.335312
0.276851
0.31942
0.534107
0.458641
0.436301
0.311333
0.534095
0.489587
0.311052
0.534054
0.325159
0.456923
0.519306
0.533961
0.53727
0.29541
0.327217
0.534007
0.544573
0.522689
0.489223
0.542773
0.479541
0.465683
0.309426
0.502979
0.388075
0.34515
0.359624
0.533936
0.54936
0.508421
0.393528
0.325844
0.541243
0.331089
0.335648
0.403278
0.311001
0.456034
0.328196
0.533951
0.32596
0.306421
0.414239
0.544698
0.326847
0.307445
0.548899
0.543619
0.551175
0.320838
0.3068
0.53857
0.339453
0.306884
0.326273
0.435936
0.525012
0.267512
0.550512
0.3283
0.50588
0.533793
0.318669
0.407907
0.47806
0.500557
0.494864
0.540809
0.538367
0.544482
0.534989
0.53399
0.328242
0.381202
0.521811
0.292038
0.543335
0.525974
0.264754
0.532021
0.475345
0.512816
0.539371
0.469673
0.531774
0.314045
0.491604
0.33496
0.299443
0.534859
0.534061
0.272582
0.328733
0.531079
0.392367
0.453219
0.295031
0.249253
0.54852
0.516225
0.544088
0.513361
0.462571
0.376632
0.453431
0.315167
0.53402
0.504349
0.495125
0.336616
0.38116
0.544411
0.498095
0.539296
0.137596
0.534057
0.313074
0.320289
0.326387
0.520007
0.521617
0.540601
0.471936
0.335018
0.534029
0.386828
0.545895
0.547136
0.492456
0.317282
0.314528
0.534333
0.334428
0.424713
0.474496
0.324555
0.33001
0.517283
0.542265
0.319238
0.534059
0.532917
0.313918
0.53407
0.53519
0.538534
0.344789
0.341768
0.542088
0.327937
0.328163
0.407767
0.534004
0.323279
0.376609
0.325011
0.297592
0.53807
0.326571
0.317067
0.543133
0.326655
0.325891
0.552775
0.537901
0.534415
0.533926
0.492975
0.326946
0.55149
0.533284
0.316669
0.53714
0.534887
0.533969
0.533971
0.344394
0.533991
0.328783
0.533992
0.323221
0.533958
0.331916
0.518429
0.316276
0.540561
0.545129
0.550098
0.484793
0.534279
0.536806
0.289422
0.533979
0.266024
0.533951
0.538247
0.322717
0.405797
0.329242
0.325012
0.533953
0.361918
0.533493
0.139249
0.505045
0.508913
0.540324
0.397675
0.328707
0.26599
0.314728
0.27164
0.536681
0.364717
0.312836
0.535063
0.336606
0.354237
0.53271
0.533063
0.501224
0.535804
0.255971
0.487203
0.314785
0.534011
0.534484
0.524474
0.290234
0.540411
0.535773
0.54145
0.498207
0.533245
0.382585
0.533914
0.540161
0.442889
0.534209
0.312625
0.518428
0.341025
0.420497
0.519987
0.490501
0.530781
0.474401
0.48747
0.537253
0.308985
0.524045
0.325851
0.332226
0.540645
0.51276
0.478824
0.52
0.531747
0.534006
0.537217
0.534033
0.534187
0.534459
0.552003
0.34406
0.501775
0.531204
0.321897
0.534138
0.317356
0.471743
0.32297
0.534073
0.315703
0.313164
0.302842
0.469997
0.535076
0.428485
0.516439
0.322893
0.332537
0.533909
0.535286
0.318153
0.502631
0.445766
0.330965
0.504035
0.327366
0.31469
0.534117
0.480242
0.310106
0.518952
0.533144
0.524317
0.322887
0.515883
0.260049
0.533944
0.378512
0.510101
0.325532
0.548073
0.302922
0.327599
0.310727
0.51587
0.30252
0.498071
0.546543
0.47059
0.345312
0.314741
0.542156
0.314236
0.237098
0.321535
0.535553
0.318754
0.333104
0.26714
0.499631
0.331972
0.32947
0.32699
0.533837
0.549308
0.336634
0.538657
0.537928
0.495815
0.320642
0.318721
0.533884
0.310947
0.554638
0.328939
0.531431
0.319882
0.225205
0.514441
0.3194
0.322263
0.321628
0.534097
0.304811
0.446065
0.537247
0.310145
0.516407
0.326124
0.54909
0.418398
0.311159
0.329837
0.535039
0.440839
0.534128
0.316879
0.335481
0.439695
0.533978
0.307933
0.324035
0.324307
0.415938
0.536955
0.348008
0.450153
0.531662
0.534111
0.526264
0.325177
0.535843
0.32184
0.534474
0.534548
0.460728
0.333217
0.490864
0.537618
0.311333
0.537896
0.538125
0.329289
0.323441
0.314571
0.273683
0.542507
0.321072
0.533978
0.382889
0.53397
0.495326
0.374235
0.511199
0.302296
0.480011
0.31712
0.53379
0.533321
0.266107
0.325957
0.322256
0.465692
0.552642
0.313592
0.295516
0.330138
0.451608
0.54663
0.291188
0.3144
0.52605
0.536701
0.52796
0.325286
0.325046
0.524003
0.533793
0.310366
0.323735
0.437807
0.54956
0.492626
0.30786
0.534146
0.535072
0.314952
0.538391
0.325322
0.539171
0.3131
0.359234
0.309432
0.282751
0.533672
0.31943
0.319916
0.322825
0.336477
0.483868
0.529387
0.549498
0.312593
0.533947
0.535546
0.535115
0.546739
0.533672
0.547815
0.548587
0.548397
0.538101
0.532807
0.307134
0.487663
0.549321
0.325944
0.540698
0.544648
0.536804
0.535347
0.307316
0.542261
0.534023
0.536653
0.330004
0.506164
0.530063
0.533995
0.529659
0.322838
0.486751
0.343187
0.414386
0.336027
0.33594
0.316735
0.323353
0.534191
0.533255
0.522468
0.320632
0.534665
0.534073
0.537472
0.325739
0.329802
0.51916
0.301455
0.31216
0.32966
0.536507
0.419613
0.53459
0.322952
0.546129
0.533364
0.457211
0.538956
0.334861
0.550045
0.535552
0.512977
0.539322
0.534164
0.520584
0.324363
0.344245
0.330962
0.5338
0.304838
0.534369
0.521033
0.495152
0.327726
0.345609
0.483342
0.541682
0.533918
0.327236
0.525578
0.478649
0.266745
0.534175
0.314531
0.328095
0.317024
0.314392
0.335964
0.539511
0.535689
0.552147
0.443524
0.532942
0.533759
0.517928
0.53411
0.546393
0.548435
0.533696
0.533833
0.324405
0.53393
0.52819
0.426924
0.321062
0.503868
0.300004
0.537267
0.370657
0.539008
0.545447
0.328525
0.536196
0.323334
0.53544
0.532245
0.546997
0.48964
0.516167
0.545498
0.533687
0.344592
0.445423
0.422595
0.252853
0.534247
0.538136
0.443893
0.55059
0.526698
0.533939
0.316085
0.319387
0.527795
0.546181
0.315734
0.193996
0.514822
0.534296
0.534904
0.270963
0.457009
0.513508
0.532865
0.321993
0.534061
0.484479
0.525572
0.505059
0.439818
0.534148
0.300009
0.531254
0.30921
0.330774
0.534135
0.344842
0.345939
0.323414
0.525612
0.510534
0.443069
0.53411
0.431
0.349024
0.324485
0.542397
0.532474
0.539696
0.48934
0.253638
0.522588
0.432797
0.309412
0.532454
0.540338
0.326707
0.536271
0.529338
0.533947
0.445935
0.533629
0.360941
0.534255
0.531139
0.533616
0.33641
0.52537
0.386169
0.508923
0.533746
0.544718
0.530711
0.534662
0.534622
0.532904
0.518221
0.321742
0.541889
0.510635
0.329489
0.495716
0.536826
0.550964
0.499444
0.309068
0.5311
0.331079
0.545718
0.49014
0.538619
0.322754
0.513385
0.534461
0.534024
0.525456
0.478796
0.534039
0.466675
0.386422
0.323114
0.275685
0.533939
0.342898
0.300938
0.536647
0.31618
0.543824
0.314631
0.536202
0.316624
0.32417
0.521278
0.395319
0.298874
0.531024
0.533256
0.53795
0.336123
0.506649
0.534108
0.531867
0.324667
0.534009
0.534858
0.319228
0.482451
0.46238
0.52325
0.329629
0.391599
0.510411
0.311629
0.537917
0.329495
0.329147
0.533877
0.386151
0.507305
0.315064
0.539801
0.424984
0.534018
0.221915
0.322716
0.533902
0.337617
0.53404
0.344282
0.534503
0.48557
0.466473
0.534048
0.502495
0.261484
0.534885
0.548773
0.531735
0.534006
0.31897
0.328646
0.317661
0.329304
0.533892
0.335177
0.513665
0.322198
0.532662
0.53459
0.533815
0.322231
0.534566
0.319778
0.534756
0.541412
0.346438
0.533755
0.525399
0.309628
0.521864
0.318589
0.345592
0.549187
0.332082
0.543359
0.2248
0.333384
0.512917
0.355928
0.538757
0.326793
0.461408
0.533061
0.530161
0.385816
0.269847
0.329574
0.533986
0.534027
0.335917
0.535217
0.32122
0.532701
0.32136
0.316899
0.468028
0.474681
0.419528
0.495875
0.534114
0.492172
0.473631
0.536109
0.533901
0.326348
0.535037
0.330627
0.336989
0.496147
0.406795
0.395403
0.442519
0.326886
0.514948
0.534056
0.537133
0.322663
0.314541
0.450968
0.505787
0.534436
0.545847
0.312982
0.499621
0.532745
0.507847
0.440081
0.319965
0.324247
0.32785
0.554677
0.537042
0.308048
0.323353
0.436662
0.324825
0.549287
0.513176
0.319335
0.533928
0.404554
0.540763
0.536666
0.317348
0.343668
0.506998
0.317329
0.394264
0.533071
0.273928
0.316768
0.324317
0.508016
0.536159
0.505688
0.332612
0.311192
0.528708
0.534996
0.494539
0.538865
0.312438
0.322825
0.332893
0.498
0.311255
0.319755
0.537887
0.541633
0.514399
0.325048
0.327143
0.324722
0.534013
0.302736
0.532866
0.533982
0.530245
0.428253
0.534173
0.549176
0.331482
0.323
0.535617
0.320251
0.465648
0.526117
0.541828
0.437008
0.314094
0.311207
0.541539
0.40332
0.311425
0.534406
0.534084
0.296186
0.320551
0.513406
0.442432
0.327682
0.334532
0.540298
0.490354
0.529065
0.474578
0.354385
0.314167
0.339965
0.380413
0.318949
0.533999
0.528542
0.470301
0.51175
0.341839
0.503981
0.3451
0.533347
0.545709
0.329835
0.264906
0.529738
0.385011
0.472511
0.535122
0.302186
0.530893
0.527977
0.533728
0.534051
0.506312
0.343876
0.336326
0.313627
0.511023
0.533914
0.514196
0.443898
0.326288
0.336426
0.492471
0.32735
0.538355
0.533732
0.533008
0.347365
0.32457
0.464614
0.507294
0.534028
0.526708
0.534206
0.533944
0.535915
0.481827
0.25293
0.533994
0.49786
0.534648
0.314754
0.529847
0.423867
0.528715
0.552049
0.445954
0.49177
0.531776
0.509336
0.534004
0.326732
0.531864
0.550964
0.341493
0.505522
0.302072
0.299412
0.534012
0.533994
0.333562
0.483264
0.533745
0.330827
0.343111
0.556984
0.549888
0.471189
0.34667
0.49564
0.326325
0.54284
0.548858
0.318957
0.454586
0.500416
0.323769
0.31251
0.339534
0.539042
0.532111
0.311403
0.328793
0.33888
0.335572
0.336339
0.501733
0.324778
0.550783
0.5351
0.541697
0.318089
0.532946
0.446557
0.531917
0.443257
0.529463
0.314847
0.302239
0.324646
0.534094
0.327423
0.322547
0.496971
0.330871
0.534045
0.507003
0.425154
0.320494
0.318799
0.522645
0.53598
0.527607
0.525497
0.542667
0.312868
0.342385
0.315856
0.509792
0.534776
0.320846
0.517715
0.330238
0.338652
0.534137
0.319256
0.340137
0.260005
0.370785
0.328409
0.534359
0.538361
0.537759
0.337805
0.533719
0.542281
0.320691
0.534346
0.375359
0.539894
0.344922
0.387633
0.533483
0.325865
0.265338
0.529743
0.524119
0.320073
0.546125
0.498452
0.533076
0.398701
0.317447
0.50142
0.534052
0.365657
0.352419
0.422784
0.398564
0.534134
0.326721
0.31918
0.541012
0.516073
0.330381
0.317272
0.531676
0.325678
0.32918
0.317973
0.454796
0.544733
0.317314
0.540032
0.319339
0.301897
0.34477
0.405496
0.329463
0.539424
0.318171
0.341241
0.481162
0.538682
0.354406
0.533947
0.312383
0.325813
0.510448
0.552336
0.523331
0.513059
0.518923
0.546066
0.322494
0.539027
0.29953
0.53395
0.526781
0.410717
0.524784
0.534003
0.533915
0.533777
0.432172
0.34372
0.429731
0.329991
0.502452
0.532426
0.495844
0.322767
0.536064
0.368491
0.533956
0.324679
0.308209
0.556388
0.299182
0.528834
0.551779
0.37701
0.330101
0.331426
0.53363
0.393085
0.267661
0.540574
0.327346
0.52572
0.342392
0.336935
0.316697
0.53522
0.390337
0.534061
0.322171
0.336866
0.534135
0.532664
0.282879
0.35863
0.268979
0.481422
0.329459
0.520615
0.530646
0.533969
0.237884
0.321605
0.450285
0.530765
0.548171
0.532738
0.298191
0.513892
0.537504
0.533956
0.534033
0.315439
0.521802
0.329556
0.44969
0.54258
0.537201
0.529982
0.544602
0.498126
0.532185
0.544076
0.533663
0.522587
0.536431
0.533777
0.535542
0.324673
0.327735
0.534288
0.475806
0.53405
0.533949
0.548153
0.519571
0.545052
0.329718
0.32452
0.534036
0.323351
0.321448
0.333129
0.533969
0.523517
0.533977
0.509856
0.523195
0.31136
0.537814
0.311588
0.312196
0.545646
0.525808
0.524619
0.39892
0.395777
0.326831
0.324128
0.384389
0.306035
0.357651
0.54406
0.301541
0.53124
0.328656
0.539547
0.533053
0.286134
0.338738
0.497023
0.53403
0.327004
0.508957
0.267197
0.317429
0.322929
0.448643
0.535021
0.534022
0.534206
0.241768
0.341068
0.27343
0.333651
0.533989
0.547287
0.538583
0.329781
0.311841
0.53381
0.532785
0.536434
0.303993
0.480891
0.465182
0.543261
0.430009
0.338023
0.33775
0.31757
0.535794
0.323753
0.32366
0.533982
0.340592
0.534238
0.344417
0.3428
0.399184
0.341181
0.545588
0.534031
0.534276
0.444781
0.554124
0.510393
0.475777
0.346308
0.507711
0.53013
0.509742
0.536454
0.532777
0.539659
0.425043
0.532648
0.535348
0.333235
0.32883
0.549006
0.400363
0.533465
0.32631
0.546055
0.360236
0.52612
0.534437
0.508478
0.533064
0.539015
0.515198
0.31416
0.336431
0.53745
0.546866
0.533317
0.433501
0.544271
0.446426
0.494123
0.533737
0.4722
0.464004
0.540424
0.533958
0.332973
0.311824
0.534453
0.502209
0.327274
0.337584
0.423355
0.534037
0.533964
0.550448
0.333028
0.524567
0.300955
0.536694
0.326311
0.544485
0.291939
0.549123
0.335663
0.531409
0.445373
0.324061
0.30914
0.471087
0.326365
0.485231
0.312722
0.534122
0.534029
0.530346
0.527934
0.534146
0.534952
0.533827
0.549705
0.54152
0.501862
0.515754
0.496268
0.538304
0.32088
0.500621
0.499477
0.532631
0.313146
0.497947
0.545386
0.533902
0.329894
0.318461
0.329947
0.544189
0.497998
0.321919
0.500404
0.391096
0.534093
0.313474
0.4121
0.345326
0.303171
0.55282
0.325308
0.508435
0.324783
0.551189
0.331724
0.534106
0.502694
0.529231
0.346139
0.344118
0.352967
0.515931
0.324826
0.351274
0.32237
0.54051
0.51892
0.544305
0.523248
0.53082
0.511536
0.383276
0.342136
0.530844
0.319422
0.447949
0.527053
0.549904
0.222412
0.324069
0.522948
0.533889
0.408954
0.525061
0.53498
0.518453
0.336111
0.542855
0.520122
0.532037
0.533321
0.32387
0.534006
0.324049
0.532122
0.542196
0.504845
0.53325
0.346949
0.537386
0.225197
0.360321
0.500422
0.508038
0.529717
0.4516
0.328903
0.532143
0.535962
0.321163
0.316001
0.299271
0.548317
0.335969
0.325876
0.325637
0.327406
0.308915
0.369263
0.542556
0.30454
0.539657
0.523995
0.326599
0.53575
0.32563
0.547699
0.305219
0.46122
0.321923
0.527277
0.534543
0.398925
0.497476
0.534091
0.52103
0.322485
0.480366
0.430469
0.312393
0.322995
0.405288
0.307015
0.544295
0.297814
0.333248
0.323257
0.534028
0.528292
0.311229
0.319668
0.545174
0.326163
0.323208
0.533974
0.329768
0.334471
0.341532
0.551363
0.503425
0.547399
0.326095
0.291599
0.53837
0.518204
0.533882
0.396499
0.508141
0.529855
0.41521
0.402784
0.321978
0.322503
0.237619
0.493037
0.305086
0.546585
0.51279
0.53306
0.331632
0.41028
0.41995
0.556356
0.296979
0.482741
0.241719
0.492128
0.321119
0.280832
0.290103
0.537423
0.314732
0.550811
0.343151
0.380183
0.326392
0.472102
0.314036
0.54346
0.339039
0.504458
0.487471
0.321831
0.534363
0.534338
0.323319
0.547782
0.346384
0.328106
0.542374
0.300535
0.515617
0.352098
0.233616
0.533567
0.319699
0.35201
0.345118
0.333081
0.318404
0.515507
0.435792
0.5286
0.547201
0.528353
0.543249
0.411446
0.537928
0.297071
0.534702
0.328107
0.526515
0.314456
0.389073
0.525238
0.548774
0.535254
0.354154
0.440157
0.334951
0.341216
0.34404
0.231499
0.53717
0.410178
0.546762
0.533571
0.484992
0.539033
0.534697
0.393807
0.333354
0.366391
0.541339
0.484798
0.502365
0.534275
0.551471
0.41742
0.287899
0.340519