# vtk DataFile Version 1.0
unstructured grid
ascii
DATASET UNSTRUCTURED_GRID
points 3226 float
0.0796578 -0.059106 0
0.00128732 0.00159165 0
0.00227961 -0.00102548 0
0.0791586 -0.0598787 0
-0.0546216 0.01 0
0.000495206 0.025 0
0.0800549 -0.035 0
0.135172 -0.08 0
-0.0546216 -0.0451168 0
0.000495206 -0.0301168 0
0.0800549 -0.0901168 0
0.135172 -0.135117 0
-0.0546216 -0.0451168 -0.00551168
0.000495206 -0.0301168 -0.00551168
0.0800549 -0.0901168 -0.00551168
0.135172 -0.135117 -0.00551168
0.135172 -0.08 -0.00551168
0.0800549 -0.035 -0.00551168
0.000495206 0.025 -0.00551168
-0.0546216 0.01 -0.00551168
0.00128732 0.00159165 -0.00551168
0.00227961 -0.00102548 -0.00551168
0.0791586 -0.0598787 -0.00551168
0.0796578 -0.059106 -0.00551168
0.00110182 -0.000823821 0
0.000571683 -0.000188043 0
0.000561313 0.000639162 0
0.00189316 0.00207203 0
0.00260228 0.00255358 0
0.0033966 0.00307293 0
0.00428861 0.00362634 0
0.00529726 0.0041979 0
0.00644092 0.00476696 0
0.00773158 0.0053187 0
0.00918011 0.00583593 0
0.010799 0.00628751 0
0.012597 0.00663225 0
0.0145725 0.0068517 0
0.0167206 0.0069338 0
0.0190349 0.00685819 0
0.0215031 0.00658621 0
0.0241038 0.00607459 0
0.026821 0.00533786 0
0.0296245 0.00434523 0
0.0324763 0.00306927 0
0.0353199 0.00146906 0
0.0381488 -0.00039338 0
0.0409131 -0.00252802 0
0.0435632 -0.00493276 0
0.0460882 -0.0075571 0
0.0484881 -0.0103478 0
0.0506782 -0.0133217 0
0.0526651 -0.016422 0
0.0546139 -0.0195019 0
0.0565301 -0.022529 0
0.0584009 -0.0254846 0
0.0602154 -0.0283513 0
0.061964 -0.031114 0
0.0636389 -0.0337601 0
0.0652336 -0.0362795 0
0.0667431 -0.0386651 0
0.0681656 -0.0409111 0
0.0694983 -0.0430158 0
0.0707356 -0.0449823 0
0.071886 -0.0468071 0
0.0729575 -0.04849 0
0.0739438 -0.0500408 0
0.0748444 -0.0514675 0
0.0756707 -0.0527715 0
0.0764313 -0.053958 0
0.0771224 -0.0550398 0
0.0777384 -0.0560288 0
0.0782803 -0.0569318 0
0.0787691 -0.0577448 0
0.0792251 -0.0584672 0
0.0800494 -0.0597378 0
0.0797987 -0.0601582 0
0.0786655 -0.059391 0
0.0781259 -0.0588425 0
0.0775539 -0.0582102 0
0.0769587 -0.0574783 0
0.0763492 -0.0566339 0
0.075723 -0.0556725 0
0.0750452 -0.0546094 0
0.0742996 -0.0534457 0
0.073478 -0.0521785 0
0.072577 -0.0508019 0
0.0715904 -0.049313 0
0.0705098 -0.047712 0
0.069328 -0.0459996 0
0.0680378 -0.0441794 0
0.066632 -0.0422571 0
0.0651046 -0.0402413 0
0.0634508 -0.0381431 0
0.0616683 -0.0359754 0
0.0597581 -0.033753 0
0.0577255 -0.0314906 0
0.0555808 -0.0292024 0
0.0533388 -0.0269013 0
0.0510024 -0.0246151 0
0.0485693 -0.0223811 0
0.0460535 -0.0202228 0
0.0434788 -0.0181535 0
0.0408704 -0.0161833 0
0.0382442 -0.0143327 0
0.0356165 -0.0126209 0
0.0330065 -0.0110594 0
0.0304368 -0.00965062 0
0.0279338 -0.00838121 0
0.0255194 -0.00723697 0
0.0231965 -0.00623664 0
0.020983 -0.00535765 0
0.0188891 -0.00458677 0
0.0169193 -0.00391673 0
0.0150754 -0.00334068 0
0.0133572 -0.00285262 0
0.0117634 -0.0024437 0
0.0102912 -0.00210643 0
0.0089363 -0.00183343 0
0.00769424 -0.00161552 0
0.00655956 -0.00144452 0
0.00552632 -0.00131235 0
0.00458815 -0.00121216 0
0.00373885 -0.00113394 0
0.00297202 -0.00106855 0
-0.0506847 -0.0440454 0
-0.0467478 -0.0429739 0
-0.0428108 -0.0419025 0
-0.0388739 -0.0408311 0
-0.034937 -0.0397597 0
-0.0310001 -0.0386882 0
-0.0270632 -0.0376168 0
-0.0231263 -0.0365454 0
-0.0191894 -0.0354739 0
-0.0152525 -0.0344025 0
-0.0113155 -0.0333311 0
-0.00737862 -0.0322597 0
-0.00344171 -0.0311882 0
0.0038716 -0.0298185 0
0.00726082 -0.0297726 0
0.010644 -0.0299802 0
0.0140027 -0.0304367 0
0.0173201 -0.0311326 0
0.0205821 -0.0320541 0
0.0237776 -0.0331851 0
0.0268988 -0.0345078 0
0.0299406 -0.0360041 0
0.0329005 -0.0376567 0
0.035778 -0.039449 0
0.038574 -0.0413659 0
0.0412905 -0.043394 0
0.0439303 -0.0455212 0
0.0464964 -0.0477367 0
0.0489922 -0.0500312 0
0.051421 -0.0523964 0
0.0537863 -0.0548252 0
0.0560914 -0.0573112 0
0.0583395 -0.0598489 0
0.0605336 -0.0624334 0
0.0626765 -0.0650605 0
0.064771 -0.0677264 0
0.0668197 -0.0704277 0
0.0688248 -0.0731615 0
0.0707885 -0.0759252 0
0.072713 -0.0787163 0
0.0746002 -0.0815329 0
0.0764517 -0.0843729 0
0.0782695 -0.0872347 0
0.0829558 -0.0924852 0
0.0858567 -0.0948536 0
0.0887575 -0.0972221 0
0.0916584 -0.0995905 0
0.0945593 -0.101959 0
0.0974602 -0.104327 0
0.100361 -0.106696 0
0.103262 -0.109064 0
0.106163 -0.111433 0
0.109064 -0.113801 0
0.111965 -0.116169 0
0.114865 -0.118538 0
0.117766 -0.120906 0
0.120667 -0.123275 0
0.123568 -0.125643 0
0.126469 -0.128012 0
0.12937 -0.13038 0
0.132271 -0.132748 0
0.135172 -0.13118 0
0.135172 -0.127243 0
0.135172 -0.123306 0
0.135172 -0.119369 0
0.135172 -0.115432 0
0.135172 -0.111495 0
0.135172 -0.107558 0
0.135172 -0.103621 0
0.135172 -0.0996846 0
0.135172 -0.0957477 0
0.135172 -0.0918107 0
0.135172 -0.0878738 0
0.135172 -0.0839369 0
0.132271 -0.0776316 0
0.12937 -0.0752632 0
0.126469 -0.0728947 0
0.123568 -0.0705263 0
0.120667 -0.0681579 0
0.117766 -0.0657895 0
0.114865 -0.0634211 0
0.111965 -0.0610526 0
0.109064 -0.0586842 0
0.106163 -0.0563158 0
0.103262 -0.0539474 0
0.100361 -0.0515789 0
0.0974602 -0.0492105 0
0.0945593 -0.0468421 0
0.0916584 -0.0444737 0
0.0887575 -0.0421053 0
0.0858567 -0.0397368 0
0.0829558 -0.0373684 0
0.0782695 -0.0321179 0
0.0764517 -0.0292561 0
0.0746002 -0.026416 0
0.072713 -0.0235995 0
0.0707885 -0.0208084 0
0.0688248 -0.0180447 0
0.0668197 -0.0153109 0
0.064771 -0.0126096 0
0.0626765 -0.00994373 0
0.0605336 -0.00731663 0
0.0583395 -0.00473208 0
0.0560914 -0.00219437 0
0.0537863 0.000291632 0
0.051421 0.00272041 0
0.0489922 0.00508564 0
0.0464964 0.00738012 0
0.0439303 0.00959562 0
0.0412905 0.0117228 0
0.038574 0.0137509 0
0.035778 0.0156678 0
0.0329005 0.0174601 0
0.0299406 0.0191127 0
0.0268988 0.020609 0
0.0237776 0.0219317 0
0.0205821 0.0230627 0
0.0173201 0.0239842 0
0.0140027 0.0246801 0
0.010644 0.0251366 0
0.00726082 0.0253442 0
0.0038716 0.0252983 0
-0.00344171 0.0239286 0
-0.00737862 0.0228571 0
-0.0113155 0.0217857 0
-0.0152525 0.0207143 0
-0.0191894 0.0196429 0
-0.0231263 0.0185714 0
-0.0270632 0.0175 0
-0.0310001 0.0164286 0
-0.034937 0.0153571 0
-0.0388739 0.0142857 0
-0.0428108 0.0132143 0
-0.0467478 0.0121429 0
-0.0506847 0.0110714 0
-0.0546216 0.00606309 0
-0.0546216 0.00212617 0
-0.0546216 -0.00181074 0
-0.0546216 -0.00574766 0
-0.0546216 -0.00968457 0
-0.0546216 -0.0136215 0
-0.0546216 -0.0175584 0
-0.0546216 -0.0214953 0
-0.0546216 -0.0254322 0
-0.0546216 -0.0293691 0
-0.0546216 -0.0333061 0
-0.0546216 -0.037243 0
-0.0546216 -0.0411799 0
-0.0506847 -0.0440454 -0.00551168
-0.0467478 -0.0429739 -0.00551168
-0.0428108 -0.0419025 -0.00551168
-0.0388739 -0.0408311 -0.00551168
-0.034937 -0.0397597 -0.00551168
-0.0310001 -0.0386882 -0.00551168
-0.0270632 -0.0376168 -0.00551168
-0.0231263 -0.0365454 -0.00551168
-0.0191894 -0.0354739 -0.00551168
-0.0152525 -0.0344025 -0.00551168
-0.0113155 -0.0333311 -0.00551168
-0.00737862 -0.0322597 -0.00551168
-0.00344171 -0.0311882 -0.00551168
0.0038716 -0.0298185 -0.00551168
0.00726082 -0.0297726 -0.00551168
0.010644 -0.0299802 -0.00551168
0.0140027 -0.0304367 -0.00551168
0.0173201 -0.0311326 -0.00551168
0.0205821 -0.0320541 -0.00551168
0.0237776 -0.0331851 -0.00551168
0.0268988 -0.0345078 -0.00551168
0.0299406 -0.0360041 -0.00551168
0.0329005 -0.0376567 -0.00551168
0.035778 -0.039449 -0.00551168
0.038574 -0.0413659 -0.00551168
0.0412905 -0.043394 -0.00551168
0.0439303 -0.0455212 -0.00551168
0.0464964 -0.0477367 -0.00551168
0.0489922 -0.0500312 -0.00551168
0.051421 -0.0523964 -0.00551168
0.0537863 -0.0548252 -0.00551168
0.0560914 -0.0573112 -0.00551168
0.0583395 -0.0598489 -0.00551168
0.0605336 -0.0624334 -0.00551168
0.0626765 -0.0650605 -0.00551168
0.064771 -0.0677264 -0.00551168
0.0668197 -0.0704277 -0.00551168
0.0688248 -0.0731615 -0.00551168
0.0707885 -0.0759252 -0.00551168
0.072713 -0.0787163 -0.00551168
0.0746002 -0.0815329 -0.00551168
0.0764517 -0.0843729 -0.00551168
0.0782695 -0.0872347 -0.00551168
0.0829558 -0.0924852 -0.00551168
0.0858567 -0.0948536 -0.00551168
0.0887575 -0.0972221 -0.00551168
0.0916584 -0.0995905 -0.00551168
0.0945593 -0.101959 -0.00551168
0.0974602 -0.104327 -0.00551168
0.100361 -0.106696 -0.00551168
0.103262 -0.109064 -0.00551168
0.106163 -0.111433 -0.00551168
0.109064 -0.113801 -0.00551168
0.111965 -0.116169 -0.00551168
0.114865 -0.118538 -0.00551168
0.117766 -0.120906 -0.00551168
0.120667 -0.123275 -0.00551168
0.123568 -0.125643 -0.00551168
0.126469 -0.128012 -0.00551168
0.12937 -0.13038 -0.00551168
0.132271 -0.132748 -0.00551168
0.135172 -0.13118 -0.00551168
0.135172 -0.127243 -0.00551168
0.135172 -0.123306 -0.00551168
0.135172 -0.119369 -0.00551168
0.135172 -0.115432 -0.00551168
0.135172 -0.111495 -0.00551168
0.135172 -0.107558 -0.00551168
0.135172 -0.103621 -0.00551168
0.135172 -0.0996846 -0.00551168
0.135172 -0.0957477 -0.00551168
0.135172 -0.0918107 -0.00551168
0.135172 -0.0878738 -0.00551168
0.135172 -0.0839369 -0.00551168
0.132271 -0.0776316 -0.00551168
0.12937 -0.0752632 -0.00551168
0.126469 -0.0728947 -0.00551168
0.123568 -0.0705263 -0.00551168
0.120667 -0.0681579 -0.00551168
0.117766 -0.0657895 -0.00551168
0.114865 -0.0634211 -0.00551168
0.111965 -0.0610526 -0.00551168
0.109064 -0.0586842 -0.00551168
0.106163 -0.0563158 -0.00551168
0.103262 -0.0539474 -0.00551168
0.100361 -0.0515789 -0.00551168
0.0974602 -0.0492105 -0.00551168
0.0945593 -0.0468421 -0.00551168
0.0916584 -0.0444737 -0.00551168
0.0887575 -0.0421053 -0.00551168
0.0858567 -0.0397368 -0.00551168
0.0829558 -0.0373684 -0.00551168
0.0782695 -0.0321179 -0.00551168
0.0764517 -0.0292561 -0.00551168
0.0746002 -0.026416 -0.00551168
0.072713 -0.0235995 -0.00551168
0.0707885 -0.0208084 -0.00551168
0.0688248 -0.0180447 -0.00551168
0.0668197 -0.0153109 -0.00551168
0.064771 -0.0126096 -0.00551168
0.0626765 -0.00994373 -0.00551168
0.0605336 -0.00731663 -0.00551168
0.0583395 -0.00473208 -0.00551168
0.0560914 -0.00219437 -0.00551168
0.0537863 0.000291632 -0.00551168
0.051421 0.00272041 -0.00551168
0.0489922 0.00508564 -0.00551168
0.0464964 0.00738012 -0.00551168
0.0439303 0.00959562 -0.00551168
0.0412905 0.0117228 -0.00551168
[...]
CELL_DATA 2965
SCALARS rho float
LOOKUP_TABLE default
0.533999
0.333998
0.525588
0.323561
0.542749
0.35155
0.533703
0.334164
0.351907
0.526563
0.323241
0.334185
0.426326
0.536861
0.518811
0.517728
0.527786
0.517427
0.545571
0.529481
0.534026
0.323482
0.510321
0.538505
0.536192
0.548218
0.459486
0.480588
0.328091
0.506273
0.502908
0.333897
0.553173
0.53042
0.281655
0.352014
0.529412
0.534232
0.311886
0.506841
0.53057
0.50361
0.534679
0.331138
0.333041
0.533542
0.459521
0.471726
0.31204
0.533918
0.390651
0.320718
0.334718
0.425867
0.325262
0.420968
0.353107
0.319257
0.272447
0.476929
0.516712
0.477558
0.325959
0.544817
0.487568
0.534105
0.533751
0.32091
0.311527
0.338928
0.519153
0.544151
0.533764
0.293568
0.501161
0.410197
0.533797
0.320541
0.32612
0.468485
0.533725
0.325062
0.337641
0.435358
0.482461
0.374855
0.316423
0.273247
0.554425
0.351147
0.312008
0.533447
0.518471
0.515222
0.534234
0.312603
0.458128
0.298217
0.338577
0.328347
0.475177
0.327607
0.338043
0.332483
0.340352
0.529063
0.533788
0.323317
0.319697
0.533765
0.249881
0.391798
0.470927
0.494705
0.313003
0.305497
0.507327
0.455879
0.534009
0.332886
0.533704
0.238856
0.540474
0.541931
0.494349
0.400796
0.330036
0.460077
0.532462
0.26791
0.335601
0.428327
0.533032
0.337333
0.461193
0.338067
0.427365
0.517301
0.554634
0.542732
0.33706
0.516793
0.528648
0.330802
0.280903
0.54607
0.321753
0.541961
0.555038
0.343571
0.332293
0.32967
0.338339
0.323417
0.280966
0.270532
0.533729
0.53261
0.526274
0.54078
0.452964
0.462451
0.407852
0.54384
0.353897
0.5337
0.41672
0.332065
0.53385
0.536421
0.48193
0.299795
0.434088
0.520543
0.547911
0.414299
0.512627
0.358557
0.260288
0.417465
0.338197
0.26014
0.312384
0.301534
0.555349
0.533708
0.330382
0.331021
0.38975
0.337222
0.312635
0.319468
0.451592
0.292996
0.533809
0.464049
0.535106
0.486684
0.440714
0.325196
0.332962
0.34166
0.528827
0.444209
0.533661
0.310336
0.428763
0.533809
0.52041
0.5352
0.497031
0.398227
0.347135
0.343907
0.506522
0.340388
0.461035
0.3255
0.518274
0.337719
0.351871
0.336491
0.459738
0.382616
0.546207
0.288392
0.533648
0.523271
0.320355
0.480389
0.326495
0.283838
0.536576
0.313244
0.533893
0.536524
0.324594
0.531953
0.335752
0.350839
0.372873
0.332592
0.544534
0.523759
0.331384
0.249746
0.526777
0.533906
0.447454
0.506531
0.326842
0.329322
0.533732
0.336199
0.482296
0.277345
0.276446
0.533995
0.533601
0.337757
0.464961
0.325927
0.543612
0.352647
0.535919
0.533965
0.266945
0.473139
0.52139
0.304349
0.332817
0.534566
0.331347
0.551037
0.510439
0.332083
0.515601
0.51552
0.552074
0.531974
0.547264
0.468776
0.529955
0.533873
0.321349
0.318388
0.524183
0.539869
0.338051
0.532105
0.463113
0.324624
0.337699
0.331177
0.478214
0.320559
0.533825
0.480748
0.550579
0.334354
0.48394
0.486051
0.477262
0.533706
0.328973
0.237016
0.545584
0.533758
0.533824
0.319846
0.3349
0.482449
0.298713
0.301148
0.492717
0.533675
0.485317
0.25029
0.328793
0.482963
0.494765
0.328645
0.534316
0.533665
0.333776
0.414969
0.533671
0.515771
0.285726
0.333175
0.534086
0.341571
0.538183
0.364516
0.540321
0.392235
0.369804
0.335702
0.33117
0.302446
0.51202
0.548295
0.526798
0.543701
0.485672
0.474596
0.315941
0.534788
0.54768
0.339164
0.319559
0.534143
0.317462
0.517328
0.47293
0.337981
0.337134
0.333966
0.321542
0.533667
0.338253
0.339353
0.380317
0.329261
0.533749
0.534491
0.473042
0.533774
0.334614
0.531932
0.332422
0.53415
0.3213
0.337016
0.536109
0.465991
0.28517
0.257579
0.532899
0.36098
0.500932
0.515053
0.321689
0.531186
0.280949
0.342161
0.534284
0.302644
0.536339
0.275691
0.380398
0.333899
0.536649
0.469225
0.434658
0.533922
0.299543
0.547148
0.341383
0.326115
0.549718
0.322593
0.541193
0.421987
0.487881
0.279445
0.295672
0.324294
0.279798
0.323394
0.342622
0.53085
0.534611
0.53482
0.533907
0.339456
0.539008
0.466714
0.520635
0.255036
0.533514
0.351598
0.484862
0.476305
0.340137
0.533822
0.355002
0.523
0.33437
0.488835
0.535516
0.321311
0.53364
0.258371
0.538409
0.325773
0.319428
0.416588
0.543915
0.540927
0.398563
0.27913
0.250087
0.417545
0.543454
0.52879
0.533887
0.532091
0.537479
0.319292
0.514593
0.484505
0.335878
0.266366
0.306668
0.498744
0.536263
0.366485
0.380457
0.371333
0.344677
0.528836
0.535156
0.533855
0.549159
0.398796
0.533996
0.535762
0.330901
0.540006
0.346553
0.351331
0.532383
0.534817
0.537857
0.546009
0.328471
0.332155
0.553329
0.531005
0.328548
0.530065
0.501971
0.534785
0.350416
0.334833
0.535935
0.336259
0.453711
0.534974
0.536196
0.339253
0.533709
0.331617
0.331859
0.321686
0.345775
0.533701
0.363495
0.51743
0.283825
0.325187
0.527183
0.341104
0.291825
0.338874
0.275879
0.359695
0.332712
0.326739
0.427393
0.438705
0.322281
0.351193
0.536277
0.335485
0.395605
0.533662
0.53387
0.495348
0.490544
0.437145
0.444454
0.298591
0.374116
0.533817
0.499207
0.277391
0.508921
0.246347
0.292244
0.320807
0.534297
0.551625
0.33899
0.497667
0.532409
0.283347
0.340717
0.542379
0.533794
0.361023
0.544129
0.380409
0.338739
0.542429
0.340692
0.453746
0.527924
0.406597
0.543174
0.318532
0.343612
0.53772
0.369218
0.338652
0.350966
0.329226
0.326281
0.533987
0.540312
0.523672
0.319235
0.256896
0.343024
0.339162
0.530788
0.280506
0.423892
0.33984
0.532118
0.533989
0.307615
0.533927
0.391488
0.491101
0.298546
0.527978
0.534237
0.554623
0.535914
0.533915
0.526498
0.350779
0.425743
0.339817
0.528365
0.317723
0.324213
0.53281
0.533801
0.533583
0.332132
0.328206
0.53943
0.541717
0.307124
0.534665
0.298314
0.307592
0.330614
0.553271
0.538965
0.523468
0.300235
0.300311
0.34252
0.329787
0.53797
0.533771
0.546742
0.330788
0.320461
0.457496
0.547719
0.544357
0.510552
0.533757
0.413329
0.536686
0.542193
0.51747
0.331986
0.53726
0.495552
0.533707
0.536529
0.546431
0.486715
0.381082
0.546769
0.338068
0.54479
0.533792
0.2366
0.533753
0.463447
0.53589
0.333321
0.324491
0.534178
0.300902
0.326637
0.548958
0.300763
0.416495
0.538166
0.288052
0.546857
0.327748
0.493255
0.533174
0.52852
0.502448
0.32473
0.326945
0.522266
0.437306
0.334997
0.480981
0.315228
0.533975
0.32553
0.460067
0.519483
0.533894
0.325291
0.493102
0.351197
0.409556
0.414668
0.342348
0.277371
0.331842
0.534037
0.459431
0.437092
0.322694
0.533994
0.490196
0.322125
0.533964
0.335397
0.457603
0.520128
0.533652
0.53762
0.295996
0.330325
0.533904
0.545126
0.523484
0.489827
0.543406
0.480199
0.466357
0.3194
0.503769
0.388801
0.345741
0.360297
0.533791
0.549949
0.509124
0.394237
0.331741
0.541939
0.335353
0.342161
0.403917
0.3199
0.456741
0.332475
0.533707
0.330169
0.311283
0.414927
0.545184
0.331621
0.307847
0.549514
0.544131
0.551697
0.325496
0.307314
0.539089
0.344857
0.307394
0.33191
0.436714
0.52549
0.268006
0.551135
0.332405
0.506599
0.534049
0.319134
0.408527
0.478808
0.501195
0.495688
0.541273
0.53879
0.544967
0.535712
0.5337
0.340615
0.381808
0.522304
0.296878
0.54381
0.526718
0.266517
0.532385
0.476003
0.51375
0.540117
0.470365
0.532459
0.31459
0.492207
0.341838
0.299853
0.535143
0.533971
0.280882
0.33407
0.53153
0.393013
0.453878
0.301308
0.249722
0.549196
0.516872
0.544594
0.514093
0.463246
0.377261
0.454099
0.317748
0.533763
0.504936
0.495716
0.343287
0.38186
0.544917
0.498679
0.539731
0.137849
0.533919
0.321997
0.323868
0.332097
0.520511
0.522153
0.541217
0.472725
0.338921
0.533946
0.387542
0.546567
0.547652
0.493053
0.327768
0.314711
0.534461
0.338862
0.425412
0.475134
0.325901
0.34052
0.518026
0.542979
0.330428
0.533891
0.533141
0.323566
0.533926
0.535456
0.53903
0.351265
0.346988
0.542852
0.328452
0.336567
0.408487
0.534001
0.328757
0.377285
0.326626
0.298179
0.538755
0.331535
0.327661
0.543618
0.330884
0.326478
0.553489
0.538405
0.53502
0.533769
0.493593
0.333008
0.552023
0.533471
0.316831
0.537636
0.535438
0.533719
0.533681
0.35089
0.533858
0.336914
0.533817
0.323581
0.533898
0.338855
0.519124
0.316427
0.541271
0.545632
0.550641
0.485515
0.534379
0.537173
0.290063
0.534147
0.266438
0.53364
0.538639
0.329617
0.406527
0.339584
0.335598
0.533661
0.362528
0.533761
0.139497
0.50571
0.509473
0.540859
0.398305
0.337966
0.269369
0.325022
0.273505
0.537252
0.365346
0.319688
0.535284
0.340509
0.354805
0.533088
0.533415
0.501797
0.536387
0.256437
0.488018
0.314888
0.533723
0.534628
0.525309
0.295911
0.541037
0.536375
0.541943
0.498793
0.533856
0.383312
0.533862
0.540912
0.443553
0.534212
0.323316
0.5191
0.347368
0.421134
0.520537
0.491212
0.531155
0.475118
0.488172
0.53761
0.319148
0.524517
0.333102
0.336456
0.541425
0.513346
0.479463
0.520808
0.532462
0.533718
0.537697
0.533784
0.534274
0.534712
0.552565
0.351246
0.502351
0.53162
0.322247
0.534847
0.323017
0.472437
0.332591
0.53413
0.32586
0.322988
0.31268
0.470642
0.535295
0.42926
0.517131
0.332147
0.33677
0.533917
0.535793
0.333728
0.503363
0.446569
0.332168
0.504705
0.332558
0.320109
0.534678
0.480909
0.317143
0.519468
0.533539
0.524853
0.335913
0.516745
0.262209
0.533853
0.379127
0.510825
0.331261
0.548632
0.3065
0.33425
0.320004
0.516684
0.302709
0.498735
0.547191
0.471231
0.352443
0.314857
0.542614
0.31439
0.237532
0.334243
0.535831
0.319154
0.341998
0.268503
0.500366
0.33891
0.336938
0.334169
0.534062
0.549834
0.341381
0.539054
0.538306
0.496409
0.326766
0.31912
0.534651
0.320257
0.555154
0.329621
0.531923
0.323714
0.238535
0.515003
0.330598
0.328493
0.333857
0.534036
0.305207
0.446717
0.53796
0.319179
0.517079
0.331487
0.549727
0.419103
0.320106
0.337681
0.535289
0.441631
0.534249
0.320487
0.342449
0.440368
0.533667
0.318969
0.334656
0.329406
0.41666
0.537638
0.355174
0.45081
0.53199
0.534188
0.526788
0.333474
0.53662
0.322185
0.534815
0.534781
0.461392
0.337064
0.491658
0.538145
0.319393
0.538448
0.538881
0.334656
0.327792
0.319952
0.279342
0.54301
0.333791
0.534142
0.383544
0.53368
0.496052
0.374953
0.511769
0.30621
0.48064
0.32797
0.533793
0.533508
0.27164
0.330926
0.327221
0.466401
0.553191
0.322491
0.300548
0.33883
0.452406
0.547157
0.297632
0.324559
0.526517
0.537491
0.528421
0.333736
0.333247
0.524493
0.533797
0.319572
0.328919
0.438447
0.55011
0.493348
0.308424
0.534224
0.535302
0.31543
0.53878
0.331158
0.539967
0.313703
0.359937
0.318548
0.283298
0.533908
0.322797
0.33016
0.326709
0.34049
0.484526
0.530089
0.550077
0.319421
0.533659
0.536037
0.535422
0.547444
0.533796
0.548357
0.549236
0.549088
0.538758
0.533039
0.321305
0.488282
0.54996
0.326424
0.541383
0.545173
0.537136
0.535602
0.310663
0.54293
0.533771
0.537117
0.336915
0.507132
0.530434
0.53413
0.530314
0.326666
0.487558
0.350195
0.415145
0.340204
0.340284
0.323033
0.335188
0.534217
0.533998
0.523018
0.324476
0.534825
0.533944
0.537835
0.33436
0.334618
0.519671
0.309411
0.312786
0.334752
0.537135
0.420261
0.534749
0.332759
0.546729
0.533694
0.457875
0.539606
0.337791
0.550572
0.535832
0.51352
0.539746
0.534528
0.521423
0.328673
0.350859
0.335604
0.533818
0.310231
0.535107
0.521532
0.496009
0.335678
0.352348
0.4841
0.54221
0.533797
0.332524
0.526035
0.479468
0.270571
0.534156
0.323868
0.328507
0.326385
0.318303
0.33787
0.539929
0.536124
0.552669
0.444175
0.533647
0.533833
0.51854
0.534073
0.546946
0.549054
0.53374
0.533856
0.328788
0.533772
0.528615
0.427693
0.331784
0.504434
0.309719
0.537626
0.371219
0.539686
0.546131
0.336575
0.537012
0.327751
0.536022
0.53276
0.547677
0.490428
0.516724
0.546242
0.533766
0.35112
0.44622
0.423292
0.253746
0.534275
0.538518
0.444558
0.551195
0.52714
0.53391
0.322087
0.329996
0.528573
0.546714
0.319335
0.199491
0.515447
0.534619
0.535129
0.271458
0.457682
0.514054
0.533471
0.33297
0.534033
0.485265
0.526372
0.505877
0.440455
0.534501
0.309918
0.531775
0.319224
0.335924
0.534131
0.345422
0.346469
0.331508
0.526179
0.511296
0.443739
0.534294
0.431639
0.356464
0.324882
0.54286
0.532737
0.540406
0.490093
0.254132
0.523099
0.433564
0.319451
0.532727
0.540928
0.336927
0.53659
0.529761
0.533728
0.446586
0.533699
0.361619
0.534319
0.531592
0.533788
0.340449
0.526147
0.38677
0.509587
0.534117
0.545222
0.531062
0.534941
0.534774
0.533198
0.518738
0.325663
0.542503
0.511406
0.337946
0.496489
0.537167
0.551495
0.500235
0.318944
0.531753
0.337417
0.546423
0.490752
0.53914
0.329064
0.513961
0.534812
0.533872
0.526115
0.479446
0.533851
0.467323
0.387103
0.331488
0.276613
0.533723
0.347349
0.30752
0.537299
0.320299
0.544434
0.325284
0.536619
0.323155
0.329184
0.521802
0.39601
0.299489
0.531787
0.533426
0.538393
0.340801
0.507411
0.534492
0.532255
0.332189
0.533784
0.535257
0.331012
0.483082
0.463028
0.523791
0.34298
0.392335
0.511254
0.322126
0.538626
0.334014
0.337138
0.533804
0.386828
0.507875
0.324388
0.540316
0.425628
0.533789
0.228652
0.326652
0.533815
0.343085
0.533823
0.350982
0.534626
0.486352
0.467132
0.533844
0.503159
0.264146
0.535088
0.549344
0.532079
0.533822
0.325952
0.335794
0.322611
0.337286
0.53384
0.341751
0.514347
0.326097
0.533228
0.53511
0.533834
0.336001
0.5347
0.323139
0.53514
0.541995
0.351833
0.533897
0.526486
0.316286
0.522518
0.328168
0.352564
0.549721
0.33253
0.543835
0.225192
0.337264
0.513477
0.361005
0.539541
0.332065
0.462067
0.53326
0.530569
0.386467
0.275301
0.330203
0.533816
0.533762
0.340442
0.535593
0.324827
0.533124
0.331816
0.320183
0.468684
0.475417
0.420206
0.496869
0.534328
0.492974
0.474266
0.536631
0.533927
0.332033
0.535481
0.346018
0.343669
0.496749
0.407499
0.396148
0.443294
0.336586
0.515544
0.533894
0.537611
0.326415
0.320254
0.451631
0.506475
0.534739
0.546365
0.322676
0.500275
0.533283
0.508718
0.440845
0.332201
0.328723
0.333304
0.555228
0.537435
0.308279
0.325785
0.437415
0.331967
0.549855
0.513913
0.319864
0.533906
0.405276
0.541358
0.537101
0.32796
0.351147
0.507592
0.320952
0.395004
0.533288
0.275013
0.32742
0.336154
0.508781
0.536854
0.506429
0.338893
0.314733
0.529495
0.535205
0.495132
0.53927
0.320359
0.326815
0.337354
0.49867
0.327778
0.323473
0.538326
0.542418
0.515159
0.330857
0.333378
0.328704
0.534076
0.302925
0.533445
0.533785
0.530669
0.428919
0.534671
0.549704
0.332086
0.336142
0.535933
0.325527
0.46645
0.526573
0.542375
0.437812
0.326962
0.324952
0.542001
0.404059
0.311705
0.534912
0.53438
0.296757
0.333143
0.514113
0.443087
0.331698
0.337719
0.540859
0.491086
0.529619
0.475293
0.35504
0.32818
0.346516
0.381045
0.319595
0.533687
0.528956
0.470949
0.512304
0.348732
0.504552
0.351975
0.53351
0.546286
0.337039
0.265426
0.530267
0.385717
0.473232
0.535388
0.305748
0.531274
0.52868
0.533769
0.533887
0.507552
0.351433
0.339078
0.317528
0.511884
0.534019
0.514889
0.444568
0.335261
0.339066
0.493133
0.335304
0.538823
0.533778
0.533359
0.348025
0.329796
0.465404
0.507969
0.53374
0.527249
0.534229
0.533968
0.536206
0.482557
0.253435
0.53389
0.498486
0.535051
0.318318
0.530346
0.424538
0.529246
0.552576
0.446682
0.49246
0.532339
0.509987
0.53375
0.330692
0.532333
0.551566
0.348109
0.506441
0.306246
0.305411
0.533701
0.534093
0.337392
0.483942
0.533789
0.335871
0.350131
0.557537
0.550521
0.471868
0.352212
0.496345
0.330238
0.543351
0.549456
0.330121
0.455245
0.5011
0.327761
0.322095
0.346663
0.539614
0.532917
0.320715
0.343741
0.339393
0.342166
0.342742
0.502432
0.328837
0.551364
0.53542
0.542146
0.324845
0.533194
0.447222
0.532427
0.444004
0.529879
0.322091
0.302827
0.335188
0.534573
0.328017
0.336163
0.497856
0.337944
0.533837
0.507813
0.425803
0.320885
0.322773
0.523212
0.536314
0.528038
0.526278
0.543361
0.32192
0.348046
0.322465
0.510589
0.534958
0.333646
0.5185
0.3404
0.339191
0.534167
0.322973
0.3469
0.262668
0.371406
0.336651
0.534439
0.539246
0.538164
0.338442
0.533809
0.542738
0.333242
0.534439
0.376089
0.54048
0.351394
0.388348
0.533619
0.330015
0.270091
0.530131
0.524984
0.332398
0.546771
0.499269
0.533341
0.39941
0.322575
0.501995
0.534329
0.366254
0.359782
0.423428
0.399179
0.534146
0.331023
0.33056
0.541523
0.517406
0.339036
0.327148
0.532262
0.329786
0.344404
0.325565
0.455574
0.545361
0.321851
0.540468
0.323595
0.309729
0.351326
0.406125
0.338285
0.539903
0.325921
0.349135
0.48196
0.539127
0.355038
0.533826
0.321454
0.331278
0.511014
0.552874
0.523986
0.513902
0.519609
0.546571
0.330363
0.539496
0.309818
0.533777
0.527392
0.411467
0.525471
0.533937
0.534204
0.533869
0.432809
0.35042
0.430518
0.33801
0.503488
0.532816
0.496522
0.326311
0.536518
0.369213
0.533776
0.333102
0.308362
0.556923
0.305495
0.529361
0.552315
0.377611
0.337998
0.331871
0.533732
0.393693
0.271671
0.541058
0.331962
0.526314
0.34851
0.343827
0.319865
0.535531
0.390965
0.534004
0.335902
0.34393
0.534573
0.532977
0.283423
0.35923
0.26936
0.482238
0.334014
0.521395
0.531084
0.533845
0.23831
0.326047
0.450961
0.531625
0.5488
0.532988
0.302128
0.514445
0.537914
0.533873
0.533871
0.320329
0.52232
0.334699
0.450364
0.543135
0.537622
0.530375
0.545346
0.499266
0.532521
0.544556
0.534167
0.523091
0.536839
0.53395
0.535808
0.336403
0.332281
0.534339
0.476442
0.533962
0.533643
0.548732
0.520325
0.545618
0.337551
0.332293
0.533816
0.338093
0.332003
0.337648
0.534287
0.524203
0.534023
0.510685
0.523775
0.319588
0.538437
0.319704
0.321757
0.54614
0.526266
0.52514
0.399662
0.396516
0.33206
0.332771
0.385024
0.322025
0.358206
0.54459
0.310919
0.531735
0.336826
0.540117
0.533363
0.286429
0.346053
0.49806
0.533836
0.336869
0.509547
0.269111
0.317883
0.32983
0.449415
0.5353
0.533712
0.534211
0.246018
0.347743
0.274716
0.337551
0.533732
0.548002
0.538996
0.338315
0.321014
0.533792
0.533072
0.536818
0.307795
0.481507
0.466005
0.543766
0.430797
0.344724
0.338359
0.327163
0.536151
0.328763
0.337771
0.53375
0.349677
0.534277
0.35103
0.348387
0.399932
0.348228
0.546243
0.533782
0.534315
0.445593
0.554719
0.511009
0.476476
0.354631
0.508395
0.530729
0.510445
0.536775
0.533112
0.540203
0.425806
0.532931
0.535599
0.348091
0.337522
0.549527
0.401032
0.533762
0.332038
0.546626
0.365083
0.526617
0.534537
0.509089
0.533296
0.539646
0.515728
0.3232
0.340567
0.538282
0.547429
0.533519
0.434174
0.544844
0.447083
0.49495
0.533771
0.472865
0.464664
0.540936
0.533769
0.339205
0.319638
0.53458
0.502903
0.331509
0.344335
0.424132
0.533779
0.533653
0.551011
0.339404
0.52507
0.304649
0.537051
0.330516
0.545207
0.302793
0.549643
0.340916
0.532253
0.446136
0.33314
0.322321
0.471739
0.332145
0.485922
0.319081
0.534155
0.533736
0.530936
0.528846
0.534402
0.535449
0.533802
0.550357
0.541968
0.502434
0.516613
0.497201
0.538889
0.324461
0.501453
0.50033
0.532931
0.321776
0.498579
0.545978
0.533891
0.337359
0.324997
0.338407
0.54495
0.498957
0.328216
0.500991
0.391769
0.53407
0.313891
0.412766
0.353875
0.303587
0.553344
0.325969
0.50926
0.329046
0.551775
0.340092
0.534107
0.503376
0.529675
0.353071
0.349225
0.353626
0.516457
0.329161
0.351933
0.32627
0.540967
0.519678
0.544983
0.523776
0.531647
0.512123
0.38386
0.348313
0.531213
0.33026
0.448684
0.527609
0.550515
0.22827
0.337212
0.523569
0.533877
0.409633
0.525918
0.535675
0.519027
0.343187
0.543392
0.52066
0.532763
0.533757
0.324535
0.533713
0.328305
0.532422
0.542652
0.505453
0.533426
0.347536
0.537752
0.225581
0.360895
0.501194
0.508816
0.530113
0.452416
0.333013
0.532473
0.536352
0.325329
0.325836
0.305333
0.548843
0.340487
0.334903
0.331215
0.335183
0.319124
0.369982
0.5431
0.317166
0.540386
0.524515
0.330519
0.536379
0.327442
0.548396
0.318327
0.461892
0.328133
0.527867
0.534728
0.399548
0.498097
0.534359
0.521878
0.326294
0.481003
0.431129
0.319344
0.326826
0.406036
0.320211
0.544965
0.304319
0.335551
0.32386
0.533728
0.528801
0.318324
0.323374
0.545661
0.331199
0.331538
0.533887
0.330394
0.347908
0.346128
0.551908
0.504157
0.548031
0.33123
0.292025
0.538915
0.518983
0.533846
0.397166
0.508701
0.530318
0.415918
0.403535
0.329668
0.328805
0.238052
0.493687
0.32262
0.547176
0.513458
0.533526
0.338059
0.410924
0.420729
0.556971
0.3022
0.483373
0.242163
0.49275
0.32488
0.281306
0.295948
0.537874
0.318187
0.551366
0.348795
0.380872
0.33136
0.472746
0.317081
0.544024
0.346468
0.505081
0.488098
0.329756
0.534545
0.534542
0.336577
0.548304
0.35293
0.332155
0.542902
0.30459
0.516388
0.362069
0.237848
0.533671
0.323284
0.352616
0.349761
0.342154
0.3225
0.516178
0.436454
0.52961
0.547708
0.529202
0.543771
0.412084
0.538305
0.301234
0.53487
0.332478
0.52696
0.324485
0.389727
0.52583
0.549291
0.53559
0.354781
0.440829
0.337644
0.347928
0.350629
0.234192
0.537675
0.410811
0.547305
0.53368
0.485631
0.539852
0.534973
0.394482
0.342335
0.367106
0.542009
0.485478
0.502963
0.534412
0.552047
0.418165