# vtk DataFile Version 1.0
unstructured grid
ascii
DATASET UNSTRUCTURED_GRID
points 3226 float
0.0796578 -0.059106 0
0.00128732 0.00159165 0
0.00227961 -0.00102548 0
0.0791586 -0.0598787 0
-0.0546216 0.01 0
0.000495206 0.025 0
0.0800549 -0.035 0
0.135172 -0.08 0
-0.0546216 -0.0451168 0
0.000495206 -0.0301168 0
0.0800549 -0.0901168 0
0.135172 -0.135117 0
-0.0546216 -0.0451168 -0.00551168
0.000495206 -0.0301168 -0.00551168
0.0800549 -0.0901168 -0.00551168
0.135172 -0.135117 -0.00551168
0.135172 -0.08 -0.00551168
0.0800549 -0.035 -0.00551168
0.000495206 0.025 -0.00551168
-0.0546216 0.01 -0.00551168
0.00128732 0.00159165 -0.00551168
0.00227961 -0.00102548 -0.00551168
0.0791586 -0.0598787 -0.00551168
0.0796578 -0.059106 -0.00551168
0.00110182 -0.000823821 0
0.000571683 -0.000188043 0
0.000561313 0.000639162 0
0.00189316 0.00207203 0
0.00260228 0.00255358 0
0.0033966 0.00307293 0
0.00428861 0.00362634 0
0.00529726 0.0041979 0
0.00644092 0.00476696 0
0.00773158 0.0053187 0
0.00918011 0.00583593 0
0.010799 0.00628751 0
0.012597 0.00663225 0
0.0145725 0.0068517 0
0.0167206 0.0069338 0
0.0190349 0.00685819 0
0.0215031 0.00658621 0
0.0241038 0.00607459 0
0.026821 0.00533786 0
0.0296245 0.00434523 0
0.0324763 0.00306927 0
0.0353199 0.00146906 0
0.0381488 -0.00039338 0
0.0409131 -0.00252802 0
0.0435632 -0.00493276 0
0.0460882 -0.0075571 0
0.0484881 -0.0103478 0
0.0506782 -0.0133217 0
0.0526651 -0.016422 0
0.0546139 -0.0195019 0
0.0565301 -0.022529 0
0.0584009 -0.0254846 0
0.0602154 -0.0283513 0
0.061964 -0.031114 0
0.0636389 -0.0337601 0
0.0652336 -0.0362795 0
0.0667431 -0.0386651 0
0.0681656 -0.0409111 0
0.0694983 -0.0430158 0
0.0707356 -0.0449823 0
0.071886 -0.0468071 0
0.0729575 -0.04849 0
0.0739438 -0.0500408 0
0.0748444 -0.0514675 0
0.0756707 -0.0527715 0
0.0764313 -0.053958 0
0.0771224 -0.0550398 0
0.0777384 -0.0560288 0
0.0782803 -0.0569318 0
0.0787691 -0.0577448 0
0.0792251 -0.0584672 0
0.0800494 -0.0597378 0
0.0797987 -0.0601582 0
0.0786655 -0.059391 0
0.0781259 -0.0588425 0
0.0775539 -0.0582102 0
0.0769587 -0.0574783 0
0.0763492 -0.0566339 0
0.075723 -0.0556725 0
0.0750452 -0.0546094 0
0.0742996 -0.0534457 0
0.073478 -0.0521785 0
0.072577 -0.0508019 0
0.0715904 -0.049313 0
0.0705098 -0.047712 0
0.069328 -0.0459996 0
0.0680378 -0.0441794 0
0.066632 -0.0422571 0
0.0651046 -0.0402413 0
0.0634508 -0.0381431 0
0.0616683 -0.0359754 0
0.0597581 -0.033753 0
0.0577255 -0.0314906 0
0.0555808 -0.0292024 0
0.0533388 -0.0269013 0
0.0510024 -0.0246151 0
0.0485693 -0.0223811 0
0.0460535 -0.0202228 0
0.0434788 -0.0181535 0
0.0408704 -0.0161833 0
0.0382442 -0.0143327 0
0.0356165 -0.0126209 0
0.0330065 -0.0110594 0
0.0304368 -0.00965062 0
0.0279338 -0.00838121 0
0.0255194 -0.00723697 0
0.0231965 -0.00623664 0
0.020983 -0.00535765 0
0.0188891 -0.00458677 0
0.0169193 -0.00391673 0
0.0150754 -0.00334068 0
0.0133572 -0.00285262 0
0.0117634 -0.0024437 0
0.0102912 -0.00210643 0
0.0089363 -0.00183343 0
0.00769424 -0.00161552 0
0.00655956 -0.00144452 0
0.00552632 -0.00131235 0
0.00458815 -0.00121216 0
0.00373885 -0.00113394 0
0.00297202 -0.00106855 0
-0.0506847 -0.0440454 0
-0.0467478 -0.0429739 0
-0.0428108 -0.0419025 0
-0.0388739 -0.0408311 0
-0.034937 -0.0397597 0
-0.0310001 -0.0386882 0
-0.0270632 -0.0376168 0
-0.0231263 -0.0365454 0
-0.0191894 -0.0354739 0
-0.0152525 -0.0344025 0
-0.0113155 -0.0333311 0
-0.00737862 -0.0322597 0
-0.00344171 -0.0311882 0
0.0038716 -0.0298185 0
0.00726082 -0.0297726 0
0.010644 -0.0299802 0
0.0140027 -0.0304367 0
0.0173201 -0.0311326 0
0.0205821 -0.0320541 0
0.0237776 -0.0331851 0
0.0268988 -0.0345078 0
0.0299406 -0.0360041 0
0.0329005 -0.0376567 0
0.035778 -0.039449 0
0.038574 -0.0413659 0
0.0412905 -0.043394 0
0.0439303 -0.0455212 0
0.0464964 -0.0477367 0
0.0489922 -0.0500312 0
0.051421 -0.0523964 0
0.0537863 -0.0548252 0
0.0560914 -0.0573112 0
0.0583395 -0.0598489 0
0.0605336 -0.0624334 0
0.0626765 -0.0650605 0
0.064771 -0.0677264 0
0.0668197 -0.0704277 0
0.0688248 -0.0731615 0
0.0707885 -0.0759252 0
0.072713 -0.0787163 0
0.0746002 -0.0815329 0
0.0764517 -0.0843729 0
0.0782695 -0.0872347 0
0.0829558 -0.0924852 0
0.0858567 -0.0948536 0
0.0887575 -0.0972221 0
0.0916584 -0.0995905 0
0.0945593 -0.101959 0
0.0974602 -0.104327 0
0.100361 -0.106696 0
0.103262 -0.109064 0
0.106163 -0.111433 0
0.109064 -0.113801 0
0.111965 -0.116169 0
0.114865 -0.118538 0
0.117766 -0.120906 0
0.120667 -0.123275 0
0.123568 -0.125643 0
0.126469 -0.128012 0
0.12937 -0.13038 0
0.132271 -0.132748 0
0.135172 -0.13118 0
0.135172 -0.127243 0
0.135172 -0.123306 0
0.135172 -0.119369 0
0.135172 -0.115432 0
0.135172 -0.111495 0
0.135172 -0.107558 0
0.135172 -0.103621 0
0.135172 -0.0996846 0
0.135172 -0.0957477 0
0.135172 -0.0918107 0
0.135172 -0.0878738 0
0.135172 -0.0839369 0
0.132271 -0.0776316 0
0.12937 -0.0752632 0
0.126469 -0.0728947 0
0.123568 -0.0705263 0
0.120667 -0.0681579 0
0.117766 -0.0657895 0
0.114865 -0.0634211 0
0.111965 -0.0610526 0
0.109064 -0.0586842 0
0.106163 -0.0563158 0
0.103262 -0.0539474 0
0.100361 -0.0515789 0
0.0974602 -0.0492105 0
0.0945593 -0.0468421 0
0.0916584 -0.0444737 0
0.0887575 -0.0421053 0
0.0858567 -0.0397368 0
0.0829558 -0.0373684 0
0.0782695 -0.0321179 0
0.0764517 -0.0292561 0
0.0746002 -0.026416 0
0.072713 -0.0235995 0
0.0707885 -0.0208084 0
0.0688248 -0.0180447 0
0.0668197 -0.0153109 0
0.064771 -0.0126096 0
0.0626765 -0.00994373 0
0.0605336 -0.00731663 0
0.0583395 -0.00473208 0
0.0560914 -0.00219437 0
0.0537863 0.000291632 0
0.051421 0.00272041 0
0.0489922 0.00508564 0
0.0464964 0.00738012 0
0.0439303 0.00959562 0
0.0412905 0.0117228 0
0.038574 0.0137509 0
0.035778 0.0156678 0
0.0329005 0.0174601 0
0.0299406 0.0191127 0
0.0268988 0.020609 0
0.0237776 0.0219317 0
0.0205821 0.0230627 0
0.0173201 0.0239842 0
0.0140027 0.0246801 0
0.010644 0.0251366 0
0.00726082 0.0253442 0
0.0038716 0.0252983 0
-0.00344171 0.0239286 0
-0.00737862 0.0228571 0
-0.0113155 0.0217857 0
-0.0152525 0.0207143 0
-0.0191894 0.0196429 0
-0.0231263 0.0185714 0
-0.0270632 0.0175 0
-0.0310001 0.0164286 0
-0.034937 0.0153571 0
-0.0388739 0.0142857 0
-0.0428108 0.0132143 0
-0.0467478 0.0121429 0
-0.0506847 0.0110714 0
-0.0546216 0.00606309 0
-0.0546216 0.00212617 0
-0.0546216 -0.00181074 0
-0.0546216 -0.00574766 0
-0.0546216 -0.00968457 0
-0.0546216 -0.0136215 0
-0.0546216 -0.0175584 0
-0.0546216 -0.0214953 0
-0.0546216 -0.0254322 0
-0.0546216 -0.0293691 0
-0.0546216 -0.0333061 0
-0.0546216 -0.037243 0
-0.0546216 -0.0411799 0
-0.0506847 -0.0440454 -0.00551168
-0.0467478 -0.0429739 -0.00551168
-0.0428108 -0.0419025 -0.00551168
-0.0388739 -0.0408311 -0.00551168
-0.034937 -0.0397597 -0.00551168
-0.0310001 -0.0386882 -0.00551168
-0.0270632 -0.0376168 -0.00551168
-0.0231263 -0.0365454 -0.00551168
-0.0191894 -0.0354739 -0.00551168
-0.0152525 -0.0344025 -0.00551168
-0.0113155 -0.0333311 -0.00551168
-0.00737862 -0.0322597 -0.00551168
-0.00344171 -0.0311882 -0.00551168
0.0038716 -0.0298185 -0.00551168
0.00726082 -0.0297726 -0.00551168
0.010644 -0.0299802 -0.00551168
0.0140027 -0.0304367 -0.00551168
0.0173201 -0.0311326 -0.00551168
0.0205821 -0.0320541 -0.00551168
0.0237776 -0.0331851 -0.00551168
0.0268988 -0.0345078 -0.00551168
0.0299406 -0.0360041 -0.00551168
0.0329005 -0.0376567 -0.00551168
0.035778 -0.039449 -0.00551168
0.038574 -0.0413659 -0.00551168
0.0412905 -0.043394 -0.00551168
0.0439303 -0.0455212 -0.00551168
0.0464964 -0.0477367 -0.00551168
0.0489922 -0.0500312 -0.00551168
0.051421 -0.0523964 -0.00551168
0.0537863 -0.0548252 -0.00551168
0.0560914 -0.0573112 -0.00551168
0.0583395 -0.0598489 -0.00551168
0.0605336 -0.0624334 -0.00551168
0.0626765 -0.0650605 -0.00551168
0.064771 -0.0677264 -0.00551168
0.0668197 -0.0704277 -0.00551168
0.0688248 -0.0731615 -0.00551168
0.0707885 -0.0759252 -0.00551168
0.072713 -0.0787163 -0.00551168
0.0746002 -0.0815329 -0.00551168
0.0764517 -0.0843729 -0.00551168
0.0782695 -0.0872347 -0.00551168
0.0829558 -0.0924852 -0.00551168
0.0858567 -0.0948536 -0.00551168
0.0887575 -0.0972221 -0.00551168
0.0916584 -0.0995905 -0.00551168
0.0945593 -0.101959 -0.00551168
0.0974602 -0.104327 -0.00551168
0.100361 -0.106696 -0.00551168
0.103262 -0.109064 -0.00551168
0.106163 -0.111433 -0.00551168
0.109064 -0.113801 -0.00551168
0.111965 -0.116169 -0.00551168
0.114865 -0.118538 -0.00551168
0.117766 -0.120906 -0.00551168
0.120667 -0.123275 -0.00551168
0.123568 -0.125643 -0.00551168
0.126469 -0.128012 -0.00551168
0.12937 -0.13038 -0.00551168
0.132271 -0.132748 -0.00551168
0.135172 -0.13118 -0.00551168
0.135172 -0.127243 -0.00551168
0.135172 -0.123306 -0.00551168
0.135172 -0.119369 -0.00551168
0.135172 -0.115432 -0.00551168
0.135172 -0.111495 -0.00551168
0.135172 -0.107558 -0.00551168
0.135172 -0.103621 -0.00551168
0.135172 -0.0996846 -0.00551168
0.135172 -0.0957477 -0.00551168
0.135172 -0.0918107 -0.00551168
0.135172 -0.0878738 -0.00551168
0.135172 -0.0839369 -0.00551168
0.132271 -0.0776316 -0.00551168
0.12937 -0.0752632 -0.00551168
0.126469 -0.0728947 -0.00551168
0.123568 -0.0705263 -0.00551168
0.120667 -0.0681579 -0.00551168
0.117766 -0.0657895 -0.00551168
0.114865 -0.0634211 -0.00551168
0.111965 -0.0610526 -0.00551168
0.109064 -0.0586842 -0.00551168
0.106163 -0.0563158 -0.00551168
0.103262 -0.0539474 -0.00551168
0.100361 -0.0515789 -0.00551168
0.0974602 -0.0492105 -0.00551168
0.0945593 -0.0468421 -0.00551168
0.0916584 -0.0444737 -0.00551168
0.0887575 -0.0421053 -0.00551168
0.0858567 -0.0397368 -0.00551168
0.0829558 -0.0373684 -0.00551168
0.0782695 -0.0321179 -0.00551168
0.0764517 -0.0292561 -0.00551168
0.0746002 -0.026416 -0.00551168
0.072713 -0.0235995 -0.00551168
0.0707885 -0.0208084 -0.00551168
0.0688248 -0.0180447 -0.00551168
0.0668197 -0.0153109 -0.00551168
0.064771 -0.0126096 -0.00551168
0.0626765 -0.00994373 -0.00551168
0.0605336 -0.00731663 -0.00551168
0.0583395 -0.00473208 -0.00551168
0.0560914 -0.00219437 -0.00551168
0.0537863 0.000291632 -0.00551168
0.051421 0.00272041 -0.00551168
0.0489922 0.00508564 -0.00551168
0.0464964 0.00738012 -0.00551168
0.0439303 0.00959562 -0.00551168
0.0412905 0.0117228 -0.00551168
[...]
CELL_DATA 2965
SCALARS rho float
LOOKUP_TABLE default
0.534021
0.329277
0.524832
0.313984
0.542135
0.345143
0.533935
0.330103
0.346681
0.525815
0.313744
0.329745
0.42565
0.536504
0.51806
0.517093
0.527174
0.516856
0.544993
0.528872
0.534049
0.320579
0.509681
0.537694
0.535498
0.547629
0.458629
0.479945
0.317855
0.505378
0.502105
0.327827
0.552613
0.529646
0.281082
0.345582
0.528769
0.533521
0.307811
0.505958
0.529907
0.502863
0.534469
0.32725
0.327683
0.533262
0.458837
0.471056
0.311447
0.53404
0.389865
0.31756
0.329294
0.425083
0.315358
0.420166
0.348279
0.311955
0.271888
0.476251
0.515959
0.476902
0.32081
0.544185
0.486926
0.533861
0.533991
0.317763
0.305811
0.335319
0.518599
0.543631
0.534002
0.289452
0.500368
0.409528
0.533885
0.317093
0.323044
0.467759
0.534017
0.320066
0.330377
0.43468
0.481799
0.374112
0.313227
0.272304
0.55356
0.347306
0.306594
0.53319
0.517917
0.514365
0.534017
0.309587
0.45745
0.293123
0.33482
0.32505
0.474491
0.324404
0.330919
0.32778
0.335669
0.528634
0.533869
0.320663
0.315192
0.533903
0.246255
0.39115
0.470132
0.494091
0.307221
0.300597
0.506589
0.455193
0.534088
0.328121
0.534012
0.238403
0.540026
0.541339
0.493687
0.400028
0.325369
0.459392
0.531647
0.267382
0.330526
0.427535
0.532323
0.333273
0.460347
0.329597
0.426675
0.51674
0.554059
0.542129
0.332761
0.516168
0.527976
0.330309
0.280162
0.54548
0.315477
0.541336
0.554474
0.337003
0.326272
0.321926
0.331122
0.318708
0.280461
0.26957
0.533927
0.531839
0.525539
0.540047
0.452267
0.461728
0.407098
0.54304
0.348674
0.533938
0.416028
0.328099
0.533994
0.536074
0.481176
0.299144
0.433312
0.519886
0.547245
0.413637
0.511778
0.357922
0.259593
0.416669
0.333124
0.25938
0.309526
0.300912
0.554771
0.533941
0.320344
0.326553
0.388963
0.324122
0.308732
0.310631
0.450903
0.292527
0.534021
0.463265
0.534409
0.486051
0.439937
0.322058
0.329081
0.33404
0.528389
0.443516
0.533947
0.305409
0.428
0.534012
0.519833
0.5347
0.496422
0.397496
0.345307
0.337141
0.505862
0.336368
0.460353
0.32056
0.517619
0.323839
0.346624
0.330737
0.458963
0.381851
0.545634
0.282622
0.533953
0.522489
0.319969
0.479639
0.323165
0.280187
0.536214
0.309785
0.533675
0.536156
0.314871
0.53112
0.325361
0.350232
0.372215
0.325071
0.543912
0.522898
0.32682
0.245173
0.526103
0.533865
0.44677
0.505855
0.323414
0.319627
0.53393
0.330243
0.481563
0.275623
0.272438
0.534088
0.533434
0.336268
0.464278
0.32542
0.543103
0.346329
0.535065
0.534064
0.266412
0.472331
0.520623
0.299545
0.327187
0.534128
0.326966
0.550479
0.509777
0.327941
0.515044
0.514852
0.551492
0.531587
0.546509
0.468074
0.529452
0.533828
0.320933
0.313567
0.523463
0.53943
0.332405
0.531659
0.462299
0.319026
0.330743
0.325916
0.477391
0.31716
0.533897
0.479968
0.549945
0.322771
0.483156
0.485409
0.476534
0.533559
0.319076
0.236541
0.545038
0.533911
0.533912
0.315968
0.330715
0.48172
0.292455
0.297082
0.491915
0.533981
0.484678
0.245288
0.318038
0.482283
0.494058
0.325261
0.534218
0.533945
0.329708
0.414302
0.533446
0.514928
0.28209
0.326531
0.534121
0.335741
0.537586
0.363831
0.539871
0.391503
0.369171
0.331523
0.326755
0.30202
0.511399
0.547734
0.526303
0.542949
0.485035
0.473751
0.311232
0.534546
0.547002
0.336342
0.310872
0.53415
0.313693
0.516777
0.472229
0.336461
0.328645
0.327983
0.312643
0.533956
0.331234
0.333605
0.379546
0.325948
0.533465
0.534301
0.47218
0.533899
0.325067
0.531369
0.32772
0.53416
0.311952
0.333403
0.535666
0.465308
0.281004
0.257085
0.532513
0.360341
0.500185
0.51441
0.321445
0.53078
0.280145
0.335795
0.534208
0.297698
0.535959
0.274793
0.379632
0.329638
0.536215
0.468455
0.433911
0.53385
0.29891
0.546442
0.340827
0.318689
0.54906
0.314967
0.540358
0.421176
0.487189
0.278696
0.295256
0.316661
0.278992
0.315679
0.336115
0.530055
0.534361
0.534609
0.534042
0.329891
0.538376
0.465905
0.520039
0.253941
0.533355
0.347657
0.484222
0.47563
0.332701
0.534042
0.354399
0.522248
0.327301
0.488131
0.534935
0.313715
0.533042
0.257871
0.537902
0.322442
0.314448
0.415781
0.543222
0.540418
0.397919
0.275293
0.249622
0.416782
0.54276
0.528284
0.533582
0.531664
0.537101
0.311943
0.513765
0.483854
0.335195
0.26344
0.301719
0.497913
0.53594
0.365739
0.379773
0.37061
0.338314
0.528377
0.534898
0.534011
0.548572
0.398037
0.533863
0.535476
0.330408
0.539482
0.345928
0.35073
0.531797
0.534634
0.537273
0.545348
0.317806
0.333419
0.552764
0.530518
0.317774
0.529659
0.501133
0.534597
0.343969
0.322787
0.535642
0.326552
0.452973
0.534765
0.535877
0.336486
0.533469
0.325859
0.32761
0.318257
0.345207
0.533489
0.362816
0.516884
0.283064
0.322269
0.526714
0.336669
0.291184
0.336114
0.275322
0.358982
0.333503
0.323475
0.426638
0.437949
0.312784
0.346171
0.535911
0.325832
0.394939
0.533465
0.533796
0.494587
0.489892
0.436445
0.443734
0.292543
0.373376
0.53366
0.498579
0.273206
0.50832
0.242119
0.291646
0.313158
0.533736
0.551054
0.332851
0.496915
0.532045
0.282753
0.333797
0.541614
0.533947
0.360298
0.54334
0.37975
0.331855
0.541644
0.334672
0.453066
0.527136
0.405929
0.542523
0.310006
0.332538
0.53732
0.368585
0.334926
0.344473
0.324488
0.323185
0.533886
0.5398
0.52317
0.314907
0.256383
0.336775
0.332838
0.530362
0.274277
0.4232
0.334354
0.53167
0.533554
0.302344
0.534064
0.390719
0.490412
0.297931
0.527513
0.533418
0.554065
0.53504
0.53402
0.526008
0.34461
0.425057
0.332327
0.527606
0.314112
0.317633
0.532521
0.533854
0.533448
0.32528
0.318698
0.539004
0.541152
0.303541
0.534387
0.293582
0.307198
0.326713
0.552714
0.538479
0.522671
0.296939
0.299698
0.337149
0.323518
0.537567
0.533984
0.546093
0.325296
0.313471
0.456734
0.547066
0.543592
0.509977
0.533919
0.41252
0.536109
0.541662
0.516881
0.327558
0.536698
0.494916
0.533953
0.53618
0.545671
0.48596
0.380311
0.546231
0.330525
0.544211
0.533852
0.23443
0.533971
0.462692
0.535403
0.332686
0.314514
0.534074
0.300326
0.329927
0.548381
0.300187
0.415717
0.537526
0.287614
0.546313
0.324675
0.492381
0.532915
0.528067
0.501756
0.324323
0.323738
0.5216
0.436622
0.330518
0.480172
0.314644
0.534023
0.315763
0.459362
0.518943
0.534055
0.315904
0.492391
0.346187
0.40878
0.413997
0.336338
0.276822
0.319544
0.534099
0.458602
0.436261
0.314916
0.534088
0.489567
0.314443
0.534047
0.325333
0.456886
0.519265
0.533961
0.53725
0.295379
0.327502
0.534
0.54455
0.52265
0.4892
0.542738
0.479505
0.465646
0.310523
0.50294
0.388038
0.345116
0.359589
0.533931
0.549325
0.508411
0.393491
0.326072
0.541207
0.331696
0.335952
0.403242
0.311865
0.455996
0.328504
0.533949
0.326379
0.307488
0.414202
0.544672
0.327203
0.307419
0.548864
0.543595
0.551143
0.321379
0.30677
0.538541
0.343457
0.306855
0.326473
0.435897
0.524994
0.267486
0.550477
0.328598
0.505843
0.533777
0.318632
0.407866
0.478022
0.500523
0.494859
0.540787
0.538346
0.544455
0.534951
0.53399
0.33001
0.381162
0.521789
0.292639
0.543308
0.525936
0.26506
0.532001
0.475324
0.512813
0.539333
0.469656
0.531738
0.314016
0.491575
0.335932
0.299416
0.534841
0.534054
0.274919
0.329096
0.531055
0.392331
0.453184
0.295991
0.249228
0.548484
0.516191
0.544063
0.513352
0.46255
0.376597
0.453395
0.315392
0.534019
0.50432
0.495099
0.341381
0.381124
0.544381
0.498069
0.539274
0.137582
0.534051
0.313334
0.320727
0.3265
0.519986
0.5216
0.540567
0.471896
0.335362
0.534021
0.386792
0.545859
0.547105
0.49243
0.317417
0.314504
0.534319
0.335307
0.424676
0.474468
0.328955
0.336324
0.517245
0.542228
0.319402
0.534055
0.532901
0.314115
0.534065
0.535171
0.538505
0.34584
0.345105
0.542049
0.327903
0.328314
0.40773
0.533994
0.323835
0.376574
0.329344
0.297561
0.538034
0.327119
0.317221
0.543109
0.32701
0.325858
0.552752
0.537872
0.534382
0.53392
0.492957
0.32759
0.551456
0.533269
0.316643
0.53712
0.534869
0.533967
0.533971
0.345161
0.533985
0.329425
0.533988
0.323192
0.53395
0.331887
0.518393
0.316249
0.540524
0.5451
0.550064
0.484756
0.534266
0.536787
0.289391
0.533964
0.266023
0.533952
0.538224
0.322892
0.405759
0.33345
0.325186
0.533953
0.361884
0.533476
0.139235
0.50501
0.50889
0.540294
0.397637
0.329672
0.266537
0.314872
0.271946
0.53665
0.364683
0.314793
0.535047
0.336298
0.3542
0.532692
0.533043
0.501199
0.535772
0.255945
0.487163
0.314758
0.53401
0.53447
0.524433
0.290845
0.540376
0.53574
0.541422
0.498187
0.533212
0.382547
0.533905
0.540122
0.442851
0.534199
0.316858
0.518393
0.341861
0.420455
0.51996
0.490464
0.530762
0.474363
0.487433
0.537232
0.310393
0.524024
0.32587
0.332835
0.540606
0.51273
0.478802
0.51996
0.531711
0.534006
0.53719
0.534031
0.534174
0.534441
0.551968
0.346083
0.501755
0.531186
0.321871
0.534101
0.318023
0.471706
0.327691
0.534062
0.315863
0.313322
0.306153
0.46997
0.53506
0.428446
0.516404
0.327571
0.333128
0.533899
0.535267
0.326438
0.502622
0.445726
0.334517
0.504023
0.327989
0.315727
0.534086
0.480206
0.310298
0.518929
0.533126
0.524301
0.322958
0.515878
0.260323
0.533936
0.378476
0.510064
0.326126
0.54804
0.303555
0.328569
0.311185
0.515863
0.302497
0.498059
0.546507
0.470561
0.346856
0.314714
0.542131
0.314211
0.237075
0.321625
0.535535
0.318729
0.335851
0.267329
0.499593
0.331965
0.329538
0.3275
0.533821
0.54928
0.33712
0.538635
0.537906
0.495786
0.320841
0.318696
0.533845
0.311334
0.554605
0.328904
0.531414
0.320258
0.226787
0.514414
0.31951
0.322453
0.3217
0.534089
0.304784
0.446027
0.53721
0.310671
0.516372
0.326669
0.549054
0.418361
0.311897
0.329889
0.535022
0.440799
0.534114
0.317376
0.336292
0.439657
0.533978
0.310357
0.329209
0.324713
0.415901
0.536919
0.349154
0.450116
0.531643
0.534099
0.526248
0.325145
0.535804
0.321815
0.534453
0.534531
0.4607
0.333871
0.490857
0.537588
0.3124
0.537877
0.538087
0.32962
0.323974
0.315605
0.27478
0.542484
0.321155
0.533964
0.382853
0.53397
0.495289
0.374198
0.511171
0.30292
0.479978
0.317263
0.53378
0.533307
0.266872
0.326475
0.322249
0.465655
0.552607
0.313804
0.296771
0.331223
0.451568
0.546598
0.292093
0.314545
0.526028
0.536662
0.527936
0.325241
0.325691
0.52398
0.533782
0.312371
0.323754
0.437769
0.549526
0.492616
0.307829
0.534134
0.535055
0.314922
0.538369
0.325918
0.539131
0.313067
0.359198
0.310068
0.282722
0.533655
0.319695
0.320014
0.323586
0.336248
0.483852
0.529351
0.549463
0.314721
0.533946
0.535519
0.535097
0.546702
0.533659
0.547782
0.548551
0.54836
0.538065
0.532791
0.313839
0.487631
0.549298
0.325913
0.540661
0.544617
0.536784
0.535329
0.307817
0.542226
0.534021
0.536627
0.33099
0.506163
0.530044
0.533982
0.529624
0.323229
0.48671
0.345606
0.414347
0.337554
0.337311
0.321152
0.323359
0.53418
0.533217
0.522441
0.321121
0.53465
0.534067
0.537451
0.325727
0.330654
0.519141
0.303157
0.312126
0.33334
0.536473
0.419576
0.534575
0.327668
0.546095
0.533344
0.45718
0.538921
0.335731
0.550012
0.535534
0.512954
0.539298
0.534143
0.520543
0.324781
0.344995
0.331794
0.533789
0.306062
0.534331
0.521014
0.495148
0.327771
0.346083
0.483304
0.54166
0.533912
0.327616
0.525558
0.478608
0.267686
0.534165
0.31472
0.328063
0.321574
0.314749
0.335786
0.539487
0.535664
0.552115
0.443486
0.532906
0.533747
0.517915
0.534101
0.54636
0.5484
0.533685
0.533822
0.324864
0.533925
0.528172
0.426885
0.321115
0.503843
0.303743
0.537246
0.370615
0.538972
0.54541
0.32856
0.536156
0.323791
0.535408
0.532228
0.546961
0.4896
0.51614
0.54546
0.533674
0.34716
0.445383
0.422558
0.252898
0.534236
0.538114
0.443855
0.550555
0.526679
0.53393
0.316796
0.319501
0.527756
0.546149
0.316227
0.19475
0.514809
0.534276
0.534888
0.270936
0.456981
0.513483
0.532832
0.322032
0.534052
0.484439
0.525533
0.505018
0.439779
0.534129
0.30383
0.531226
0.310428
0.334304
0.534125
0.344809
0.345905
0.323472
0.525583
0.510526
0.443031
0.534095
0.43096
0.349653
0.324453
0.54237
0.532458
0.539659
0.489302
0.253612
0.522564
0.432758
0.31072
0.532437
0.540318
0.326756
0.536251
0.529316
0.533944
0.445897
0.533617
0.360905
0.534243
0.531121
0.533601
0.336079
0.525331
0.386128
0.508889
0.533724
0.544689
0.530693
0.534644
0.534607
0.532887
0.518199
0.322313
0.541855
0.510596
0.330532
0.495677
0.536806
0.550931
0.499437
0.310264
0.531065
0.331907
0.545681
0.490109
0.538599
0.322927
0.513357
0.534443
0.534019
0.525422
0.478778
0.534034
0.466641
0.386386
0.323153
0.275748
0.533936
0.345735
0.302052
0.536612
0.316658
0.54379
0.315754
0.536183
0.316796
0.324512
0.521253
0.395283
0.298842
0.531013
0.533241
0.53793
0.335878
0.506642
0.534089
0.531849
0.324732
0.534007
0.534839
0.319334
0.482418
0.462345
0.523222
0.33171
0.391562
0.51037
0.315558
0.53788
0.330013
0.329163
0.533869
0.386115
0.507278
0.315245
0.53978
0.424943
0.534015
0.22267
0.32348
0.533895
0.337711
0.534037
0.346765
0.534489
0.485563
0.466436
0.534045
0.50246
0.261823
0.534869
0.548739
0.531716
0.534002
0.319956
0.329139
0.317692
0.329314
0.533884
0.335502
0.51363
0.322898
0.532631
0.534561
0.533805
0.322351
0.534552
0.320099
0.534734
0.541391
0.346526
0.533741
0.525398
0.309856
0.521851
0.323334
0.347748
0.549154
0.332051
0.543334
0.224779
0.333546
0.512891
0.355897
0.538718
0.327033
0.461371
0.533045
0.530143
0.385781
0.271247
0.329541
0.533982
0.534026
0.33635
0.535195
0.321857
0.532683
0.321446
0.317161
0.467993
0.474644
0.419492
0.495877
0.534098
0.492132
0.473598
0.53608
0.53389
0.326502
0.535012
0.33329
0.337325
0.496129
0.406758
0.395365
0.44248
0.32688
0.514934
0.534051
0.537114
0.323339
0.315748
0.450937
0.505751
0.534419
0.545816
0.313253
0.499586
0.532716
0.507843
0.440043
0.32007
0.32475
0.328208
0.554645
0.537019
0.308016
0.323556
0.436624
0.324945
0.549252
0.513138
0.319306
0.533919
0.404516
0.540729
0.536646
0.317475
0.344326
0.506969
0.317819
0.394226
0.533055
0.274029
0.316892
0.324334
0.507978
0.536122
0.50565
0.332562
0.311632
0.528669
0.53498
0.494518
0.538842
0.31325
0.323594
0.333309
0.497964
0.319166
0.320427
0.537862
0.541594
0.514361
0.325649
0.327573
0.32503
0.534001
0.302712
0.532834
0.533979
0.530227
0.428216
0.534155
0.549144
0.33145
0.323077
0.535597
0.320378
0.465608
0.526097
0.541797
0.436968
0.319573
0.318651
0.541515
0.403282
0.311393
0.534378
0.534066
0.296155
0.320672
0.513369
0.442395
0.328036
0.335392
0.540266
0.490317
0.529049
0.474564
0.354351
0.322165
0.340079
0.380378
0.318916
0.533999
0.528523
0.470267
0.511726
0.344579
0.503962
0.346843
0.533333
0.545675
0.330882
0.264879
0.52971
0.384975
0.472473
0.535105
0.302871
0.530875
0.527941
0.533717
0.534047
0.506319
0.344549
0.336219
0.31404
0.51098
0.533901
0.514185
0.443861
0.326274
0.336336
0.492436
0.327382
0.538328
0.533721
0.53299
0.347331
0.324959
0.464574
0.507283
0.534027
0.526692
0.534196
0.533934
0.535896
0.481815
0.252903
0.533987
0.497845
0.534625
0.315223
0.529821
0.42383
0.528699
0.552015
0.445916
0.491733
0.531746
0.509302
0.534002
0.32717
0.531847
0.550929
0.341368
0.50552
0.302654
0.301149
0.534012
0.533981
0.334232
0.483228
0.533734
0.330805
0.345547
0.556955
0.549853
0.471153
0.346793
0.495603
0.326807
0.54281
0.548823
0.319106
0.454551
0.500381
0.324267
0.312772
0.33983
0.539023
0.5321
0.311737
0.331202
0.338845
0.335853
0.336905
0.501722
0.325229
0.550748
0.53508
0.541672
0.318254
0.532929
0.446523
0.53189
0.443219
0.529445
0.314964
0.302208
0.3248
0.534068
0.327391
0.322658
0.496969
0.330917
0.534042
0.506963
0.425116
0.320466
0.319209
0.52263
0.53596
0.527589
0.525488
0.542648
0.313133
0.342549
0.320006
0.509752
0.534761
0.320952
0.517708
0.334937
0.338621
0.534126
0.319971
0.344061
0.260336
0.37075
0.328418
0.534346
0.53835
0.537738
0.337772
0.533706
0.542255
0.320826
0.534333
0.375322
0.539861
0.34592
0.387596
0.53347
0.326268
0.266577
0.529724
0.524077
0.320196
0.546089
0.498411
0.533058
0.398665
0.317569
0.501394
0.534034
0.365623
0.353006
0.422743
0.398523
0.534124
0.32714
0.319287
0.540982
0.516081
0.331446
0.317439
0.531644
0.326104
0.338639
0.318091
0.454757
0.544698
0.317656
0.540007
0.319883
0.303294
0.347382
0.405455
0.330363
0.539403
0.318289
0.346181
0.481122
0.538657
0.354372
0.533941
0.312654
0.326372
0.510431
0.552301
0.523296
0.513017
0.518912
0.546039
0.322599
0.539
0.303536
0.533945
0.526749
0.410679
0.524748
0.533995
0.533896
0.533764
0.432133
0.346183
0.429691
0.33005
0.502455
0.532405
0.495808
0.323338
0.536044
0.368454
0.533952
0.32468
0.308178
0.556354
0.301159
0.528806
0.551744
0.376971
0.330167
0.331395
0.533618
0.393044
0.268315
0.540552
0.32782
0.525689
0.345424
0.337616
0.316997
0.535201
0.3903
0.534053
0.322311
0.33716
0.53411
0.532645
0.28285
0.358596
0.268974
0.481381
0.329757
0.520576
0.530623
0.533963
0.237862
0.322069
0.450248
0.530723
0.548135
0.532721
0.299054
0.513875
0.53748
0.533948
0.534028
0.315725
0.521785
0.330069
0.449655
0.542558
0.537176
0.529964
0.544565
0.498133
0.532166
0.54405
0.533636
0.52257
0.536411
0.533762
0.535524
0.324686
0.328189
0.534277
0.475771
0.534043
0.533949
0.548119
0.519533
0.545018
0.330774
0.324578
0.534033
0.323498
0.3215
0.334018
0.533949
0.523481
0.533965
0.509851
0.52318
0.312285
0.53778
0.312493
0.312527
0.545617
0.525789
0.524593
0.398882
0.39574
0.32744
0.324125
0.384354
0.31337
0.357616
0.544029
0.304387
0.531213
0.328661
0.539515
0.533036
0.28611
0.343364
0.497027
0.534026
0.327041
0.508927
0.267535
0.317395
0.323109
0.448603
0.535002
0.534023
0.534195
0.242267
0.341143
0.273581
0.334207
0.533987
0.54725
0.538559
0.330658
0.31215
0.533801
0.532767
0.536412
0.304813
0.480862
0.46514
0.543231
0.429969
0.338387
0.337717
0.318483
0.535773
0.324082
0.32379
0.533979
0.346565
0.534227
0.347328
0.342941
0.399146
0.344047
0.545552
0.534029
0.534265
0.44474
0.554095
0.510362
0.475762
0.348488
0.507675
0.530097
0.509706
0.536434
0.53276
0.539628
0.425004
0.53263
0.535331
0.335778
0.328899
0.548978
0.400327
0.533448
0.326485
0.546022
0.360118
0.526096
0.534424
0.508447
0.533047
0.538981
0.515177
0.318089
0.33625
0.537409
0.546832
0.533302
0.433464
0.544238
0.446388
0.494082
0.533726
0.472164
0.463975
0.540394
0.533954
0.334116
0.312799
0.53444
0.502174
0.327607
0.33811
0.423316
0.534035
0.533964
0.550413
0.333637
0.524542
0.301715
0.536673
0.326729
0.544447
0.295071
0.549091
0.335756
0.531368
0.445334
0.324039
0.315926
0.471051
0.326603
0.485218
0.312937
0.534111
0.534028
0.530315
0.527927
0.534128
0.534925
0.533818
0.549669
0.541496
0.50184
0.515712
0.496268
0.538272
0.321456
0.50058
0.499434
0.532613
0.31387
0.497913
0.545352
0.533893
0.330918
0.319103
0.330835
0.544151
0.497998
0.322566
0.500376
0.391061
0.534084
0.313446
0.412064
0.347765
0.303144
0.552787
0.325274
0.508394
0.325157
0.551154
0.332687
0.534096
0.502658
0.529208
0.346676
0.346889
0.352933
0.515911
0.325376
0.35124
0.323118
0.540484
0.518911
0.544268
0.523222
0.530779
0.51152
0.383233
0.345374
0.530826
0.31953
0.447911
0.527024
0.549869
0.223065
0.332674
0.522934
0.533879
0.408917
0.52502
0.534943
0.518424
0.34108
0.542823
0.520095
0.532024
0.533303
0.323836
0.534005
0.324434
0.532104
0.542172
0.504814
0.533236
0.346916
0.537364
0.225176
0.360282
0.500415
0.507999
0.529699
0.451559
0.329219
0.532126
0.535939
0.321565
0.316147
0.301009
0.548286
0.336998
0.326847
0.325778
0.327979
0.310149
0.369226
0.542524
0.308744
0.53962
0.523979
0.327068
0.535716
0.329815
0.547662
0.309974
0.461194
0.322549
0.527262
0.534528
0.398886
0.497444
0.534074
0.520988
0.323113
0.480332
0.430431
0.314622
0.323407
0.40525
0.313222
0.544259
0.298936
0.334798
0.323224
0.534028
0.528265
0.311421
0.320349
0.545145
0.32667
0.323899
0.533966
0.329735
0.342892
0.341415
0.551328
0.503388
0.547377
0.326712
0.291576
0.538339
0.518165
0.533873
0.396463
0.508115
0.529838
0.415174
0.402746
0.322092
0.32318
0.237595
0.493003
0.313385
0.546551
0.512755
0.533034
0.332559
0.410243
0.419911
0.556327
0.298191
0.482707
0.241695
0.492096
0.321701
0.280804
0.291684
0.537398
0.315339
0.550777
0.346021
0.380147
0.326917
0.472066
0.31432
0.543427
0.343777
0.504444
0.487438
0.321928
0.534348
0.534322
0.331696
0.54775
0.347612
0.328437
0.542343
0.301478
0.515578
0.35345
0.233991
0.533554
0.320337
0.351976
0.347644
0.334171
0.318795
0.515472
0.435755
0.528596
0.547171
0.528311
0.543218
0.411407
0.537906
0.298043
0.534687
0.328456
0.526496
0.314603
0.389038
0.525224
0.548743
0.535233
0.35412
0.440119
0.335883
0.341165
0.344709
0.231752
0.537142
0.410139
0.54673
0.533558
0.484957
0.538993
0.534678
0.393771
0.339642
0.366355
0.541303
0.484762
0.502334
0.534261
0.551436
0.417382
0.287876
0.340487