# vtk DataFile Version 1.0
unstructured grid
ascii
DATASET UNSTRUCTURED_GRID
points 3226 float
0.0796578 -0.059106 0
0.00128732 0.00159165 0
0.00227961 -0.00102548 0
0.0791586 -0.0598787 0
-0.0546216 0.01 0
0.000495206 0.025 0
0.0800549 -0.035 0
0.135172 -0.08 0
-0.0546216 -0.0451168 0
0.000495206 -0.0301168 0
0.0800549 -0.0901168 0
0.135172 -0.135117 0
-0.0546216 -0.0451168 -0.00551168
0.000495206 -0.0301168 -0.00551168
0.0800549 -0.0901168 -0.00551168
0.135172 -0.135117 -0.00551168
0.135172 -0.08 -0.00551168
0.0800549 -0.035 -0.00551168
0.000495206 0.025 -0.00551168
-0.0546216 0.01 -0.00551168
0.00128732 0.00159165 -0.00551168
0.00227961 -0.00102548 -0.00551168
0.0791586 -0.0598787 -0.00551168
0.0796578 -0.059106 -0.00551168
0.00110182 -0.000823821 0
0.000571683 -0.000188043 0
0.000561313 0.000639162 0
0.00189316 0.00207203 0
0.00260228 0.00255358 0
0.0033966 0.00307293 0
0.00428861 0.00362634 0
0.00529726 0.0041979 0
0.00644092 0.00476696 0
0.00773158 0.0053187 0
0.00918011 0.00583593 0
0.010799 0.00628751 0
0.012597 0.00663225 0
0.0145725 0.0068517 0
0.0167206 0.0069338 0
0.0190349 0.00685819 0
0.0215031 0.00658621 0
0.0241038 0.00607459 0
0.026821 0.00533786 0
0.0296245 0.00434523 0
0.0324763 0.00306927 0
0.0353199 0.00146906 0
0.0381488 -0.00039338 0
0.0409131 -0.00252802 0
0.0435632 -0.00493276 0
0.0460882 -0.0075571 0
0.0484881 -0.0103478 0
0.0506782 -0.0133217 0
0.0526651 -0.016422 0
0.0546139 -0.0195019 0
0.0565301 -0.022529 0
0.0584009 -0.0254846 0
0.0602154 -0.0283513 0
0.061964 -0.031114 0
0.0636389 -0.0337601 0
0.0652336 -0.0362795 0
0.0667431 -0.0386651 0
0.0681656 -0.0409111 0
0.0694983 -0.0430158 0
0.0707356 -0.0449823 0
0.071886 -0.0468071 0
0.0729575 -0.04849 0
0.0739438 -0.0500408 0
0.0748444 -0.0514675 0
0.0756707 -0.0527715 0
0.0764313 -0.053958 0
0.0771224 -0.0550398 0
0.0777384 -0.0560288 0
0.0782803 -0.0569318 0
0.0787691 -0.0577448 0
0.0792251 -0.0584672 0
0.0800494 -0.0597378 0
0.0797987 -0.0601582 0
0.0786655 -0.059391 0
0.0781259 -0.0588425 0
0.0775539 -0.0582102 0
0.0769587 -0.0574783 0
0.0763492 -0.0566339 0
0.075723 -0.0556725 0
0.0750452 -0.0546094 0
0.0742996 -0.0534457 0
0.073478 -0.0521785 0
0.072577 -0.0508019 0
0.0715904 -0.049313 0
0.0705098 -0.047712 0
0.069328 -0.0459996 0
0.0680378 -0.0441794 0
0.066632 -0.0422571 0
0.0651046 -0.0402413 0
0.0634508 -0.0381431 0
0.0616683 -0.0359754 0
0.0597581 -0.033753 0
0.0577255 -0.0314906 0
0.0555808 -0.0292024 0
0.0533388 -0.0269013 0
0.0510024 -0.0246151 0
0.0485693 -0.0223811 0
0.0460535 -0.0202228 0
0.0434788 -0.0181535 0
0.0408704 -0.0161833 0
0.0382442 -0.0143327 0
0.0356165 -0.0126209 0
0.0330065 -0.0110594 0
0.0304368 -0.00965062 0
0.0279338 -0.00838121 0
0.0255194 -0.00723697 0
0.0231965 -0.00623664 0
0.020983 -0.00535765 0
0.0188891 -0.00458677 0
0.0169193 -0.00391673 0
0.0150754 -0.00334068 0
0.0133572 -0.00285262 0
0.0117634 -0.0024437 0
0.0102912 -0.00210643 0
0.0089363 -0.00183343 0
0.00769424 -0.00161552 0
0.00655956 -0.00144452 0
0.00552632 -0.00131235 0
0.00458815 -0.00121216 0
0.00373885 -0.00113394 0
0.00297202 -0.00106855 0
-0.0506847 -0.0440454 0
-0.0467478 -0.0429739 0
-0.0428108 -0.0419025 0
-0.0388739 -0.0408311 0
-0.034937 -0.0397597 0
-0.0310001 -0.0386882 0
-0.0270632 -0.0376168 0
-0.0231263 -0.0365454 0
-0.0191894 -0.0354739 0
-0.0152525 -0.0344025 0
-0.0113155 -0.0333311 0
-0.00737862 -0.0322597 0
-0.00344171 -0.0311882 0
0.0038716 -0.0298185 0
0.00726082 -0.0297726 0
0.010644 -0.0299802 0
0.0140027 -0.0304367 0
0.0173201 -0.0311326 0
0.0205821 -0.0320541 0
0.0237776 -0.0331851 0
0.0268988 -0.0345078 0
0.0299406 -0.0360041 0
0.0329005 -0.0376567 0
0.035778 -0.039449 0
0.038574 -0.0413659 0
0.0412905 -0.043394 0
0.0439303 -0.0455212 0
0.0464964 -0.0477367 0
0.0489922 -0.0500312 0
0.051421 -0.0523964 0
0.0537863 -0.0548252 0
0.0560914 -0.0573112 0
0.0583395 -0.0598489 0
0.0605336 -0.0624334 0
0.0626765 -0.0650605 0
0.064771 -0.0677264 0
0.0668197 -0.0704277 0
0.0688248 -0.0731615 0
0.0707885 -0.0759252 0
0.072713 -0.0787163 0
0.0746002 -0.0815329 0
0.0764517 -0.0843729 0
0.0782695 -0.0872347 0
0.0829558 -0.0924852 0
0.0858567 -0.0948536 0
0.0887575 -0.0972221 0
0.0916584 -0.0995905 0
0.0945593 -0.101959 0
0.0974602 -0.104327 0
0.100361 -0.106696 0
0.103262 -0.109064 0
0.106163 -0.111433 0
0.109064 -0.113801 0
0.111965 -0.116169 0
0.114865 -0.118538 0
0.117766 -0.120906 0
0.120667 -0.123275 0
0.123568 -0.125643 0
0.126469 -0.128012 0
0.12937 -0.13038 0
0.132271 -0.132748 0
0.135172 -0.13118 0
0.135172 -0.127243 0
0.135172 -0.123306 0
0.135172 -0.119369 0
0.135172 -0.115432 0
0.135172 -0.111495 0
0.135172 -0.107558 0
0.135172 -0.103621 0
0.135172 -0.0996846 0
0.135172 -0.0957477 0
0.135172 -0.0918107 0
0.135172 -0.0878738 0
0.135172 -0.0839369 0
0.132271 -0.0776316 0
0.12937 -0.0752632 0
0.126469 -0.0728947 0
0.123568 -0.0705263 0
0.120667 -0.0681579 0
0.117766 -0.0657895 0
0.114865 -0.0634211 0
0.111965 -0.0610526 0
0.109064 -0.0586842 0
0.106163 -0.0563158 0
0.103262 -0.0539474 0
0.100361 -0.0515789 0
0.0974602 -0.0492105 0
0.0945593 -0.0468421 0
0.0916584 -0.0444737 0
0.0887575 -0.0421053 0
0.0858567 -0.0397368 0
0.0829558 -0.0373684 0
0.0782695 -0.0321179 0
0.0764517 -0.0292561 0
0.0746002 -0.026416 0
0.072713 -0.0235995 0
0.0707885 -0.0208084 0
0.0688248 -0.0180447 0
0.0668197 -0.0153109 0
0.064771 -0.0126096 0
0.0626765 -0.00994373 0
0.0605336 -0.00731663 0
0.0583395 -0.00473208 0
0.0560914 -0.00219437 0
0.0537863 0.000291632 0
0.051421 0.00272041 0
0.0489922 0.00508564 0
0.0464964 0.00738012 0
0.0439303 0.00959562 0
0.0412905 0.0117228 0
0.038574 0.0137509 0
0.035778 0.0156678 0
0.0329005 0.0174601 0
0.0299406 0.0191127 0
0.0268988 0.020609 0
0.0237776 0.0219317 0
0.0205821 0.0230627 0
0.0173201 0.0239842 0
0.0140027 0.0246801 0
0.010644 0.0251366 0
0.00726082 0.0253442 0
0.0038716 0.0252983 0
-0.00344171 0.0239286 0
-0.00737862 0.0228571 0
-0.0113155 0.0217857 0
-0.0152525 0.0207143 0
-0.0191894 0.0196429 0
-0.0231263 0.0185714 0
-0.0270632 0.0175 0
-0.0310001 0.0164286 0
-0.034937 0.0153571 0
-0.0388739 0.0142857 0
-0.0428108 0.0132143 0
-0.0467478 0.0121429 0
-0.0506847 0.0110714 0
-0.0546216 0.00606309 0
-0.0546216 0.00212617 0
-0.0546216 -0.00181074 0
-0.0546216 -0.00574766 0
-0.0546216 -0.00968457 0
-0.0546216 -0.0136215 0
-0.0546216 -0.0175584 0
-0.0546216 -0.0214953 0
-0.0546216 -0.0254322 0
-0.0546216 -0.0293691 0
-0.0546216 -0.0333061 0
-0.0546216 -0.037243 0
-0.0546216 -0.0411799 0
-0.0506847 -0.0440454 -0.00551168
-0.0467478 -0.0429739 -0.00551168
-0.0428108 -0.0419025 -0.00551168
-0.0388739 -0.0408311 -0.00551168
-0.034937 -0.0397597 -0.00551168
-0.0310001 -0.0386882 -0.00551168
-0.0270632 -0.0376168 -0.00551168
-0.0231263 -0.0365454 -0.00551168
-0.0191894 -0.0354739 -0.00551168
-0.0152525 -0.0344025 -0.00551168
-0.0113155 -0.0333311 -0.00551168
-0.00737862 -0.0322597 -0.00551168
-0.00344171 -0.0311882 -0.00551168
0.0038716 -0.0298185 -0.00551168
0.00726082 -0.0297726 -0.00551168
0.010644 -0.0299802 -0.00551168
0.0140027 -0.0304367 -0.00551168
0.0173201 -0.0311326 -0.00551168
0.0205821 -0.0320541 -0.00551168
0.0237776 -0.0331851 -0.00551168
0.0268988 -0.0345078 -0.00551168
0.0299406 -0.0360041 -0.00551168
0.0329005 -0.0376567 -0.00551168
0.035778 -0.039449 -0.00551168
0.038574 -0.0413659 -0.00551168
0.0412905 -0.043394 -0.00551168
0.0439303 -0.0455212 -0.00551168
0.0464964 -0.0477367 -0.00551168
0.0489922 -0.0500312 -0.00551168
0.051421 -0.0523964 -0.00551168
0.0537863 -0.0548252 -0.00551168
0.0560914 -0.0573112 -0.00551168
0.0583395 -0.0598489 -0.00551168
0.0605336 -0.0624334 -0.00551168
0.0626765 -0.0650605 -0.00551168
0.064771 -0.0677264 -0.00551168
0.0668197 -0.0704277 -0.00551168
0.0688248 -0.0731615 -0.00551168
0.0707885 -0.0759252 -0.00551168
0.072713 -0.0787163 -0.00551168
0.0746002 -0.0815329 -0.00551168
0.0764517 -0.0843729 -0.00551168
0.0782695 -0.0872347 -0.00551168
0.0829558 -0.0924852 -0.00551168
0.0858567 -0.0948536 -0.00551168
0.0887575 -0.0972221 -0.00551168
0.0916584 -0.0995905 -0.00551168
0.0945593 -0.101959 -0.00551168
0.0974602 -0.104327 -0.00551168
0.100361 -0.106696 -0.00551168
0.103262 -0.109064 -0.00551168
0.106163 -0.111433 -0.00551168
0.109064 -0.113801 -0.00551168
0.111965 -0.116169 -0.00551168
0.114865 -0.118538 -0.00551168
0.117766 -0.120906 -0.00551168
0.120667 -0.123275 -0.00551168
0.123568 -0.125643 -0.00551168
0.126469 -0.128012 -0.00551168
0.12937 -0.13038 -0.00551168
0.132271 -0.132748 -0.00551168
0.135172 -0.13118 -0.00551168
0.135172 -0.127243 -0.00551168
0.135172 -0.123306 -0.00551168
0.135172 -0.119369 -0.00551168
0.135172 -0.115432 -0.00551168
0.135172 -0.111495 -0.00551168
0.135172 -0.107558 -0.00551168
0.135172 -0.103621 -0.00551168
0.135172 -0.0996846 -0.00551168
0.135172 -0.0957477 -0.00551168
0.135172 -0.0918107 -0.00551168
0.135172 -0.0878738 -0.00551168
0.135172 -0.0839369 -0.00551168
0.132271 -0.0776316 -0.00551168
0.12937 -0.0752632 -0.00551168
0.126469 -0.0728947 -0.00551168
0.123568 -0.0705263 -0.00551168
0.120667 -0.0681579 -0.00551168
0.117766 -0.0657895 -0.00551168
0.114865 -0.0634211 -0.00551168
0.111965 -0.0610526 -0.00551168
0.109064 -0.0586842 -0.00551168
0.106163 -0.0563158 -0.00551168
0.103262 -0.0539474 -0.00551168
0.100361 -0.0515789 -0.00551168
0.0974602 -0.0492105 -0.00551168
0.0945593 -0.0468421 -0.00551168
0.0916584 -0.0444737 -0.00551168
0.0887575 -0.0421053 -0.00551168
0.0858567 -0.0397368 -0.00551168
0.0829558 -0.0373684 -0.00551168
0.0782695 -0.0321179 -0.00551168
0.0764517 -0.0292561 -0.00551168
0.0746002 -0.026416 -0.00551168
0.072713 -0.0235995 -0.00551168
0.0707885 -0.0208084 -0.00551168
0.0688248 -0.0180447 -0.00551168
0.0668197 -0.0153109 -0.00551168
0.064771 -0.0126096 -0.00551168
0.0626765 -0.00994373 -0.00551168
0.0605336 -0.00731663 -0.00551168
0.0583395 -0.00473208 -0.00551168
0.0560914 -0.00219437 -0.00551168
0.0537863 0.000291632 -0.00551168
0.051421 0.00272041 -0.00551168
0.0489922 0.00508564 -0.00551168
0.0464964 0.00738012 -0.00551168
0.0439303 0.00959562 -0.00551168
0.0412905 0.0117228 -0.00551168
[...]
CELL_DATA 2965
SCALARS rho float
LOOKUP_TABLE default
0.534064
0.333255
0.524767
0.318458
0.542094
0.350646
0.534009
0.333315
0.353091
0.525752
0.318186
0.335362
0.425625
0.536487
0.517997
0.517042
0.527126
0.516769
0.544958
0.528826
0.534091
0.323805
0.509564
0.53753
0.535443
0.547566
0.458564
0.479885
0.322456
0.505303
0.502037
0.332687
0.552591
0.52958
0.281068
0.351055
0.528719
0.533463
0.311361
0.505883
0.529855
0.502802
0.534473
0.330875
0.332545
0.533251
0.458801
0.470983
0.31144
0.534098
0.389822
0.320898
0.334493
0.425028
0.319895
0.420114
0.355387
0.316669
0.271871
0.476209
0.515896
0.476829
0.324842
0.544143
0.486836
0.533861
0.534066
0.3217
0.31497
0.339893
0.518519
0.543599
0.534077
0.29493
0.500301
0.409505
0.533937
0.320637
0.326772
0.467707
0.534099
0.3241
0.337923
0.434649
0.481703
0.374074
0.31598
0.272747
0.553404
0.35498
0.310373
0.533183
0.517864
0.514289
0.534021
0.31263
0.457417
0.298252
0.339733
0.329018
0.474448
0.328401
0.335418
0.331782
0.339849
0.528596
0.53392
0.32279
0.318839
0.533963
0.249535
0.391139
0.470071
0.494023
0.317337
0.307075
0.50643
0.455158
0.534139
0.332682
0.534096
0.238394
0.539993
0.541301
0.493574
0.399981
0.330675
0.459348
0.531576
0.267369
0.335736
0.427481
0.532266
0.338312
0.460283
0.338283
0.426651
0.516688
0.554029
0.54209
0.337889
0.516117
0.527923
0.330339
0.280235
0.545445
0.319527
0.541293
0.554448
0.342683
0.330384
0.325984
0.335733
0.322515
0.280471
0.270048
0.533995
0.531773
0.525388
0.539914
0.452229
0.461678
0.407046
0.542968
0.355414
0.534012
0.415992
0.331551
0.534055
0.536054
0.481119
0.299105
0.433255
0.519834
0.547199
0.413628
0.511703
0.357898
0.25993
0.416617
0.336274
0.25974
0.31244
0.300894
0.554743
0.534014
0.324716
0.331678
0.38892
0.328681
0.312214
0.315176
0.450871
0.292567
0.534092
0.463203
0.534354
0.485986
0.439881
0.325992
0.332293
0.350834
0.528348
0.443487
0.534028
0.309916
0.427946
0.534082
0.51974
0.534666
0.496358
0.397449
0.352691
0.342844
0.505812
0.339546
0.460317
0.323692
0.517568
0.328467
0.353052
0.33687
0.458904
0.381807
0.545571
0.288759
0.534037
0.522422
0.320043
0.479583
0.327156
0.28498
0.536196
0.313186
0.533676
0.536131
0.319557
0.531045
0.32994
0.350224
0.372184
0.32935
0.543871
0.522821
0.332166
0.249886
0.52605
0.533898
0.44674
0.505804
0.327341
0.323997
0.533998
0.335406
0.481418
0.277422
0.278459
0.534141
0.533445
0.340364
0.464227
0.325449
0.543071
0.351636
0.534987
0.534118
0.266397
0.472271
0.520559
0.303827
0.331362
0.534099
0.331011
0.55045
0.509725
0.33236
0.514967
0.5148
0.55144
0.531552
0.546444
0.467972
0.529412
0.53386
0.320987
0.317179
0.523314
0.539396
0.33808
0.531627
0.462235
0.324385
0.338008
0.330603
0.477326
0.320067
0.533947
0.479908
0.549869
0.327218
0.483094
0.485359
0.476483
0.533574
0.323449
0.236522
0.545006
0.533973
0.533964
0.319448
0.336177
0.481667
0.302446
0.302166
0.491731
0.534065
0.484601
0.249697
0.322848
0.482239
0.49392
0.32918
0.534241
0.534026
0.335194
0.414301
0.533446
0.514854
0.286841
0.331035
0.534165
0.340858
0.537545
0.363801
0.539839
0.391457
0.369149
0.334823
0.332009
0.302077
0.511291
0.547684
0.526258
0.542886
0.484977
0.473687
0.314302
0.534543
0.546953
0.340699
0.315473
0.53419
0.317051
0.516721
0.472119
0.340609
0.333206
0.332818
0.317097
0.534037
0.335637
0.339315
0.379505
0.329938
0.533458
0.534308
0.472115
0.533957
0.329485
0.531283
0.332606
0.534201
0.31648
0.33603
0.535638
0.465269
0.28665
0.25708
0.532489
0.360317
0.500124
0.514359
0.321574
0.530751
0.280438
0.341332
0.534235
0.305589
0.535939
0.27533
0.379591
0.333063
0.536189
0.468396
0.433859
0.533876
0.298884
0.546388
0.340834
0.327926
0.549016
0.330477
0.540281
0.421123
0.487142
0.278801
0.295313
0.324963
0.27922
0.323441
0.341831
0.529986
0.534358
0.534613
0.534102
0.339779
0.538331
0.465841
0.519938
0.254655
0.533367
0.35525
0.484152
0.475543
0.34873
0.534113
0.354386
0.522185
0.341071
0.488081
0.534894
0.329978
0.532946
0.257858
0.53787
0.325333
0.318103
0.41573
0.543169
0.540386
0.397929
0.280531
0.249621
0.416729
0.542707
0.528241
0.533571
0.531634
0.53708
0.316924
0.513693
0.483805
0.338996
0.266548
0.306014
0.497845
0.535925
0.365701
0.379737
0.370573
0.343786
0.528324
0.534893
0.534074
0.54854
0.39799
0.533879
0.535469
0.330437
0.539449
0.345916
0.350713
0.531704
0.534644
0.537233
0.545302
0.322587
0.337262
0.552742
0.530481
0.322576
0.529626
0.501061
0.534605
0.349285
0.336267
0.535634
0.330966
0.452923
0.534771
0.535862
0.340741
0.533468
0.330131
0.332145
0.321671
0.34522
0.533494
0.362785
0.516811
0.283192
0.325746
0.52667
0.340199
0.291172
0.340314
0.27531
0.358945
0.337604
0.327133
0.426585
0.437895
0.317418
0.353047
0.535893
0.33031
0.394912
0.53347
0.533822
0.494423
0.489789
0.436421
0.443689
0.302113
0.373336
0.533672
0.49853
0.278997
0.508267
0.245874
0.291648
0.329078
0.533696
0.551008
0.340536
0.496753
0.532016
0.282727
0.350882
0.541549
0.534008
0.36026
0.54327
0.379728
0.335806
0.541576
0.342278
0.453035
0.527067
0.405935
0.542477
0.314859
0.344274
0.537291
0.368567
0.337783
0.349803
0.328688
0.326879
0.533908
0.539768
0.523117
0.318104
0.256366
0.342741
0.340823
0.53033
0.2847
0.423172
0.341757
0.53162
0.533525
0.306274
0.534123
0.390675
0.490287
0.297911
0.527459
0.533345
0.554039
0.53496
0.534075
0.525947
0.350129
0.42504
0.338968
0.527542
0.318269
0.323917
0.532509
0.533901
0.533464
0.329633
0.323034
0.538975
0.541116
0.307198
0.534378
0.299862
0.307247
0.33035
0.552691
0.538428
0.522601
0.301131
0.299676
0.340621
0.327692
0.537538
0.534055
0.546049
0.329693
0.319057
0.456677
0.547022
0.543526
0.509913
0.533982
0.412469
0.536069
0.541629
0.516785
0.332297
0.536659
0.494869
0.534028
0.53616
0.545606
0.485804
0.38027
0.546184
0.338107
0.544175
0.5339
0.236342
0.534043
0.462636
0.535371
0.337804
0.319192
0.534096
0.300323
0.332096
0.548349
0.300183
0.415663
0.537479
0.287651
0.546281
0.327311
0.492309
0.532908
0.528026
0.501619
0.324386
0.327309
0.521547
0.436602
0.334173
0.480108
0.314636
0.534069
0.320465
0.459318
0.51887
0.534118
0.320326
0.492338
0.353122
0.40873
0.413973
0.342366
0.276815
0.324439
0.534148
0.458539
0.436204
0.322031
0.534141
0.489485
0.321136
0.534099
0.329911
0.456839
0.519188
0.534045
0.53723
0.29536
0.329793
0.534054
0.544482
0.522576
0.489127
0.54269
0.47946
0.4656
0.315623
0.502868
0.387994
0.345105
0.359554
0.533991
0.549287
0.508263
0.393446
0.330399
0.541148
0.336879
0.341428
0.403209
0.316269
0.455945
0.331935
0.534023
0.330187
0.31195
0.414155
0.544634
0.331802
0.307461
0.548821
0.543541
0.551114
0.325268
0.306777
0.538505
0.350315
0.306864
0.330411
0.435839
0.524932
0.267468
0.550432
0.332702
0.505781
0.533768
0.318668
0.407861
0.477959
0.500473
0.494664
0.540741
0.538307
0.544419
0.534887
0.534071
0.341547
0.381155
0.521736
0.296748
0.543276
0.525868
0.266486
0.531976
0.475231
0.512577
0.539265
0.469542
0.531678
0.314011
0.491522
0.341752
0.299462
0.534828
0.534105
0.28484
0.334424
0.53102
0.392294
0.453141
0.302002
0.249216
0.548427
0.516137
0.544013
0.513192
0.462454
0.376566
0.45335
0.317226
0.534096
0.504268
0.49504
0.348774
0.381083
0.544349
0.498013
0.539235
0.137574
0.53411
0.31774
0.323946
0.330578
0.519929
0.521517
0.540521
0.471832
0.340087
0.534072
0.386748
0.545804
0.547074
0.492368
0.322034
0.314644
0.534334
0.340617
0.424629
0.474403
0.330943
0.346468
0.517179
0.542165
0.324103
0.534118
0.5329
0.318615
0.534125
0.535165
0.538471
0.351346
0.352705
0.541977
0.32791
0.332876
0.40768
0.534031
0.328338
0.376529
0.331856
0.297542
0.537976
0.331854
0.321955
0.543064
0.331037
0.325848
0.55264
0.537837
0.534334
0.533982
0.492862
0.332639
0.551429
0.533275
0.3168
0.537058
0.534786
0.534043
0.534052
0.350481
0.534043
0.336964
0.534053
0.323262
0.533996
0.335843
0.518332
0.316413
0.540461
0.545067
0.550036
0.484697
0.534286
0.536759
0.289344
0.533973
0.266242
0.534036
0.538199
0.326996
0.405711
0.340991
0.329883
0.534035
0.361859
0.533464
0.139228
0.504956
0.508828
0.540257
0.397616
0.338064
0.270334
0.319567
0.273476
0.536607
0.364658
0.317923
0.535047
0.339957
0.354196
0.532655
0.533022
0.501138
0.535727
0.255941
0.487095
0.314944
0.534092
0.534483
0.524354
0.295754
0.540328
0.535693
0.54139
0.498106
0.533164
0.382505
0.533951
0.540053
0.442818
0.534236
0.323441
0.518336
0.347085
0.420449
0.51991
0.490405
0.530733
0.474306
0.487377
0.537209
0.315932
0.523974
0.330099
0.337983
0.540531
0.51268
0.478719
0.519884
0.531647
0.534087
0.537157
0.534107
0.534197
0.534437
0.551938
0.352984
0.501678
0.53114
0.321945
0.534039
0.322827
0.471653
0.334553
0.53409
0.320476
0.317847
0.315255
0.469904
0.53506
0.42839
0.516343
0.334209
0.33828
0.533935
0.535199
0.340429
0.502462
0.445665
0.338036
0.50389
0.332973
0.321144
0.534043
0.480158
0.314273
0.518874
0.533086
0.524217
0.327726
0.515669
0.26268
0.533988
0.378451
0.510001
0.330635
0.548006
0.306864
0.334059
0.315646
0.515673
0.302635
0.497931
0.546457
0.470504
0.353498
0.314894
0.542096
0.314366
0.237058
0.326324
0.535527
0.318774
0.342895
0.268235
0.499529
0.335926
0.334546
0.333645
0.533818
0.549237
0.340554
0.538605
0.537882
0.495736
0.324972
0.318743
0.533774
0.315783
0.554579
0.328873
0.531345
0.323447
0.23892
0.514361
0.324114
0.326569
0.326365
0.534136
0.304834
0.445997
0.537147
0.315338
0.516316
0.331222
0.549007
0.418309
0.316315
0.33416
0.535018
0.440739
0.534131
0.320841
0.342077
0.439625
0.534062
0.316961
0.336909
0.329034
0.415848
0.536861
0.354137
0.45008
0.531622
0.534123
0.526168
0.329406
0.535731
0.321888
0.534435
0.534531
0.460633
0.338821
0.490677
0.537551
0.316276
0.537796
0.538017
0.334908
0.328237
0.320992
0.281216
0.54243
0.325901
0.533972
0.382818
0.534051
0.495226
0.374159
0.511119
0.306543
0.479932
0.322095
0.533816
0.533311
0.272125
0.331546
0.325403
0.4656
0.552579
0.318122
0.301481
0.338431
0.451507
0.546567
0.297839
0.319173
0.525981
0.536588
0.527896
0.329568
0.333427
0.523933
0.533819
0.317139
0.327072
0.437742
0.549496
0.492466
0.307823
0.534158
0.535053
0.314945
0.538343
0.330563
0.539055
0.31305
0.35916
0.3149
0.282697
0.533653
0.322162
0.324371
0.327136
0.34
0.483741
0.52929
0.549428
0.317858
0.534027
0.535483
0.53508
0.54664
0.533675
0.54775
0.548501
0.5483
0.538011
0.532787
0.329618
0.487582
0.549209
0.325938
0.540604
0.544584
0.536767
0.535323
0.310759
0.542171
0.534097
0.536595
0.337309
0.505911
0.530013
0.533995
0.529569
0.326427
0.486642
0.353015
0.414296
0.342815
0.342659
0.325094
0.327845
0.534213
0.53315
0.522392
0.324748
0.534662
0.534125
0.537428
0.330166
0.336111
0.519077
0.309298
0.312105
0.338776
0.536423
0.419542
0.534586
0.334722
0.546053
0.533327
0.457122
0.538868
0.340028
0.549983
0.535523
0.512892
0.539269
0.534122
0.520466
0.328421
0.350345
0.337217
0.533823
0.311166
0.534264
0.520952
0.494939
0.332701
0.351127
0.483239
0.541595
0.533969
0.332829
0.525508
0.47854
0.2718
0.534206
0.319196
0.328113
0.327625
0.318001
0.338317
0.539459
0.535635
0.552086
0.443454
0.532844
0.533772
0.517802
0.534145
0.546326
0.548356
0.533714
0.533856
0.3288
0.533987
0.528125
0.42683
0.325478
0.503785
0.315295
0.537224
0.370635
0.538915
0.545353
0.333486
0.536077
0.327784
0.535363
0.532153
0.546904
0.489533
0.516089
0.545391
0.533698
0.354569
0.445322
0.42251
0.253401
0.534269
0.538088
0.443821
0.550514
0.526632
0.533972
0.321949
0.323987
0.527683
0.546116
0.319414
0.199632
0.514692
0.53426
0.534887
0.270931
0.456911
0.513429
0.532784
0.326311
0.534094
0.484372
0.525458
0.504946
0.439757
0.5341
0.315682
0.531185
0.315708
0.33991
0.534163
0.344798
0.345909
0.327573
0.525536
0.510354
0.442999
0.5341
0.430944
0.355244
0.324512
0.542339
0.532448
0.539597
0.489239
0.253592
0.522516
0.4327
0.315915
0.532425
0.540229
0.331278
0.536237
0.529281
0.534016
0.445864
0.533642
0.360869
0.534271
0.531064
0.53361
0.339649
0.525259
0.386128
0.508834
0.533701
0.544656
0.530665
0.534632
0.53462
0.53287
0.518141
0.326236
0.541809
0.510526
0.338108
0.495611
0.536786
0.550903
0.499255
0.315255
0.53101
0.337651
0.54562
0.490062
0.53853
0.327028
0.513306
0.534414
0.53408
0.525366
0.478677
0.534101
0.466596
0.386344
0.327281
0.276336
0.534007
0.352881
0.308614
0.536559
0.320375
0.543745
0.326175
0.536141
0.32079
0.328546
0.521203
0.395236
0.298814
0.530852
0.533249
0.537884
0.338804
0.50647
0.534053
0.53181
0.329018
0.534079
0.5348
0.324094
0.482371
0.462305
0.523174
0.343739
0.391518
0.510294
0.32184
0.537817
0.335242
0.333964
0.533918
0.386073
0.507224
0.319687
0.539716
0.42493
0.534088
0.228648
0.327078
0.533946
0.341188
0.534108
0.354136
0.534506
0.48539
0.466394
0.534114
0.502406
0.264266
0.534873
0.548704
0.531692
0.534068
0.326011
0.335216
0.320893
0.334052
0.533929
0.341079
0.513572
0.326834
0.532587
0.534522
0.533839
0.327168
0.534568
0.322734
0.53471
0.541308
0.350115
0.533753
0.525115
0.31383
0.521723
0.329781
0.355007
0.549124
0.332087
0.543294
0.224765
0.336201
0.512836
0.35924
0.538644
0.331572
0.461331
0.533048
0.530099
0.385742
0.27727
0.329516
0.534046
0.534104
0.339851
0.535173
0.325462
0.532635
0.32577
0.31964
0.467948
0.474583
0.419448
0.49561
0.534098
0.492063
0.473553
0.536042
0.533922
0.33052
0.534981
0.347015
0.342923
0.496039
0.40671
0.395318
0.44242
0.331328
0.514829
0.534114
0.537057
0.327
0.321257
0.450884
0.505693
0.534401
0.545784
0.317821
0.499535
0.532674
0.507628
0.439983
0.324882
0.328979
0.333515
0.554607
0.536994
0.308147
0.325201
0.436565
0.329223
0.549219
0.513074
0.319308
0.53396
0.404467
0.540686
0.5366
0.322161
0.349858
0.506916
0.321036
0.39418
0.533054
0.274898
0.32162
0.328881
0.507909
0.536062
0.505585
0.336665
0.31471
0.528595
0.534983
0.49444
0.538815
0.317085
0.327311
0.336717
0.497911
0.334816
0.323624
0.537833
0.541518
0.514292
0.330256
0.332085
0.327949
0.534028
0.30285
0.532789
0.534047
0.530178
0.428176
0.534087
0.549115
0.331431
0.327811
0.535583
0.323951
0.465544
0.52605
0.54176
0.436911
0.329016
0.333737
0.541474
0.403233
0.311504
0.53434
0.534049
0.29614
0.325404
0.513308
0.442358
0.332057
0.339852
0.540226
0.490256
0.528958
0.474431
0.354317
0.337478
0.34565
0.380343
0.318885
0.534083
0.528481
0.470222
0.511668
0.352266
0.503883
0.35332
0.533341
0.545637
0.337448
0.264857
0.529667
0.384933
0.472414
0.535096
0.306133
0.530838
0.527879
0.533747
0.53411
0.505967
0.350186
0.339572
0.317091
0.510903
0.533921
0.514041
0.443819
0.33077
0.339644
0.492385
0.332269
0.538296
0.53375
0.532961
0.347297
0.32929
0.46451
0.507147
0.534108
0.526606
0.534229
0.533966
0.535884
0.481672
0.252881
0.534041
0.497737
0.534599
0.318388
0.52978
0.423788
0.528616
0.551989
0.44586
0.491678
0.531702
0.509249
0.534078
0.331225
0.531785
0.550888
0.346972
0.505286
0.306434
0.308107
0.534097
0.534003
0.339099
0.483178
0.533764
0.333956
0.352967
0.556901
0.549805
0.471104
0.350535
0.495545
0.330782
0.542776
0.548784
0.323832
0.454511
0.500324
0.32805
0.317292
0.34559
0.538938
0.531925
0.316214
0.345077
0.338855
0.341342
0.342006
0.501578
0.3293
0.550713
0.535066
0.541638
0.322261
0.532924
0.446481
0.53185
0.443162
0.529399
0.318943
0.302183
0.329427
0.534032
0.327378
0.327454
0.496748
0.335632
0.534112
0.506891
0.425084
0.320519
0.322593
0.522534
0.535943
0.527541
0.525315
0.542527
0.317481
0.346153
0.32391
0.50968
0.534767
0.32576
0.517528
0.342304
0.338622
0.534159
0.3231
0.3525
0.263299
0.370718
0.333311
0.53437
0.538154
0.537702
0.337745
0.533728
0.542223
0.32552
0.534354
0.375281
0.539818
0.35139
0.387553
0.533483
0.330342
0.27186
0.529688
0.523995
0.325007
0.54604
0.49834
0.533051
0.398616
0.321191
0.501337
0.534026
0.365599
0.358518
0.422726
0.398522
0.53416
0.33049
0.323951
0.540948
0.515704
0.338495
0.322035
0.531598
0.330178
0.353972
0.322199
0.454697
0.544651
0.321346
0.539977
0.323703
0.309012
0.354814
0.405448
0.33841
0.53935
0.322399
0.354833
0.481056
0.538627
0.354344
0.533997
0.31705
0.330998
0.510346
0.552277
0.523241
0.51294
0.518771
0.545997
0.326733
0.538968
0.316052
0.53401
0.526698
0.410629
0.524689
0.534043
0.533886
0.533786
0.43211
0.35355
0.429636
0.334448
0.502175
0.532378
0.495753
0.326834
0.535993
0.368414
0.534017
0.32885
0.308348
0.556324
0.308551
0.528763
0.551719
0.376964
0.334483
0.331432
0.533638
0.393042
0.272778
0.5405
0.332268
0.52564
0.353176
0.3433
0.319363
0.535188
0.390275
0.534099
0.32708
0.34288
0.534079
0.532629
0.282826
0.358575
0.269165
0.481314
0.333194
0.520504
0.530589
0.53402
0.237847
0.32609
0.450204
0.53064
0.548089
0.532714
0.302819
0.513792
0.537454
0.533999
0.534091
0.319511
0.52171
0.333959
0.449611
0.542486
0.537149
0.529924
0.544495
0.497811
0.532146
0.544014
0.533597
0.5225
0.536372
0.533768
0.535517
0.329159
0.332505
0.534306
0.475729
0.534094
0.534033
0.548083
0.519465
0.544982
0.337903
0.328819
0.534105
0.32811
0.325797
0.339414
0.533934
0.523422
0.533995
0.509652
0.523079
0.316214
0.537731
0.316364
0.317089
0.545585
0.525734
0.524546
0.398834
0.395693
0.332384
0.328345
0.384319
0.330696
0.357611
0.543994
0.312435
0.531174
0.33345
0.539474
0.533015
0.286197
0.352013
0.496743
0.534094
0.331516
0.508877
0.269133
0.317425
0.327307
0.448544
0.534995
0.534107
0.534232
0.246059
0.34679
0.274377
0.339212
0.534064
0.547185
0.538533
0.338273
0.316588
0.53384
0.532755
0.536389
0.308047
0.480808
0.465076
0.543199
0.429914
0.344067
0.337699
0.327755
0.535752
0.328111
0.328379
0.534052
0.355924
0.534258
0.354874
0.346481
0.399099
0.351897
0.545501
0.534104
0.534296
0.44468
0.554032
0.510309
0.475638
0.353791
0.507618
0.53005
0.509646
0.536418
0.532734
0.539589
0.424949
0.532619
0.535326
0.34894
0.333542
0.548938
0.400285
0.53343
0.330556
0.545985
0.363246
0.526051
0.534445
0.508395
0.533045
0.538931
0.515113
0.323449
0.340122
0.537327
0.546797
0.533305
0.433421
0.544199
0.446357
0.494011
0.533757
0.472118
0.463915
0.540359
0.53402
0.339964
0.316532
0.534456
0.502115
0.331271
0.343541
0.423262
0.534112
0.534049
0.550382
0.339274
0.524495
0.305115
0.536653
0.330532
0.544383
0.308253
0.549061
0.339011
0.531287
0.445276
0.328351
0.329916
0.471009
0.330616
0.485088
0.31696
0.534142
0.53411
0.530267
0.527709
0.534124
0.534889
0.533859
0.549617
0.54146
0.501771
0.515633
0.496028
0.538228
0.324568
0.500508
0.499361
0.532595
0.321884
0.497864
0.545311
0.533931
0.337755
0.32454
0.338421
0.544079
0.497747
0.327645
0.500323
0.391017
0.534125
0.313492
0.412022
0.35308
0.303187
0.552761
0.325244
0.508322
0.328606
0.551117
0.339082
0.534133
0.502602
0.529171
0.35167
0.354282
0.352898
0.515845
0.329282
0.351205
0.326767
0.540453
0.518743
0.544212
0.523174
0.530701
0.511422
0.383249
0.353342
0.530793
0.324045
0.447855
0.526978
0.549828
0.228228
0.34614
0.522818
0.533918
0.408872
0.524938
0.534883
0.518373
0.3487
0.542789
0.520046
0.531878
0.533252
0.323805
0.534087
0.327889
0.532088
0.542136
0.504764
0.533242
0.346899
0.537342
0.225163
0.360283
0.50024
0.507928
0.52966
0.451497
0.333041
0.532101
0.535915
0.325038
0.320817
0.308057
0.548255
0.342386
0.334683
0.329714
0.335261
0.315442
0.369187
0.542488
0.318849
0.539554
0.523901
0.331031
0.535665
0.332677
0.547602
0.321123
0.461116
0.327536
0.527158
0.534535
0.398871
0.497395
0.534063
0.520909
0.327118
0.480288
0.430395
0.317849
0.326664
0.4052
0.327644
0.544204
0.305465
0.338512
0.323207
0.534111
0.528223
0.315385
0.32354
0.545113
0.331736
0.331686
0.534018
0.32971
0.355951
0.344143
0.551301
0.503323
0.547286
0.331662
0.29162
0.5383
0.518093
0.533916
0.396421
0.508059
0.529777
0.41512
0.402698
0.326269
0.328267
0.237585
0.492953
0.329643
0.546511
0.512699
0.532999
0.338416
0.410207
0.419858
0.556262
0.303164
0.482664
0.241683
0.492047
0.325403
0.280814
0.297172
0.537367
0.318259
0.550747
0.353556
0.380105
0.331756
0.472026
0.316576
0.543389
0.352465
0.504332
0.487392
0.326096
0.534356
0.534326
0.345571
0.54772
0.35334
0.332469
0.542308
0.305032
0.515508
0.361375
0.237394
0.533574
0.324135
0.351956
0.354775
0.341297
0.322173
0.515416
0.435717
0.528344
0.547138
0.528231
0.543184
0.411387
0.537882
0.301987
0.534697
0.33282
0.526445
0.319278
0.388999
0.525119
0.548712
0.535216
0.354095
0.440085
0.340046
0.346883
0.349974
0.233912
0.537106
0.410118
0.546697
0.533576
0.484912
0.538912
0.53467
0.393728
0.348069
0.366316
0.541249
0.48471
0.502285
0.534277
0.551402
0.417329
0.287986
0.340488
0.543801