# vtk DataFile Version 1.0
unstructured grid
ascii
DATASET UNSTRUCTURED_GRID
points 3226 float
0.0796578 -0.059106 0
0.00128732 0.00159165 0
0.00227961 -0.00102548 0
0.0791586 -0.0598787 0
-0.0546216 0.01 0
0.000495206 0.025 0
0.0800549 -0.035 0
0.135172 -0.08 0
-0.0546216 -0.0451168 0
0.000495206 -0.0301168 0
0.0800549 -0.0901168 0
0.135172 -0.135117 0
-0.0546216 -0.0451168 -0.00551168
0.000495206 -0.0301168 -0.00551168
0.0800549 -0.0901168 -0.00551168
0.135172 -0.135117 -0.00551168
0.135172 -0.08 -0.00551168
0.0800549 -0.035 -0.00551168
0.000495206 0.025 -0.00551168
-0.0546216 0.01 -0.00551168
0.00128732 0.00159165 -0.00551168
0.00227961 -0.00102548 -0.00551168
0.0791586 -0.0598787 -0.00551168
0.0796578 -0.059106 -0.00551168
0.00110182 -0.000823821 0
0.000571683 -0.000188043 0
0.000561313 0.000639162 0
0.00189316 0.00207203 0
0.00260228 0.00255358 0
0.0033966 0.00307293 0
0.00428861 0.00362634 0
0.00529726 0.0041979 0
0.00644092 0.00476696 0
0.00773158 0.0053187 0
0.00918011 0.00583593 0
0.010799 0.00628751 0
0.012597 0.00663225 0
0.0145725 0.0068517 0
0.0167206 0.0069338 0
0.0190349 0.00685819 0
0.0215031 0.00658621 0
0.0241038 0.00607459 0
0.026821 0.00533786 0
0.0296245 0.00434523 0
0.0324763 0.00306927 0
0.0353199 0.00146906 0
0.0381488 -0.00039338 0
0.0409131 -0.00252802 0
0.0435632 -0.00493276 0
0.0460882 -0.0075571 0
0.0484881 -0.0103478 0
0.0506782 -0.0133217 0
0.0526651 -0.016422 0
0.0546139 -0.0195019 0
0.0565301 -0.022529 0
0.0584009 -0.0254846 0
0.0602154 -0.0283513 0
0.061964 -0.031114 0
0.0636389 -0.0337601 0
0.0652336 -0.0362795 0
0.0667431 -0.0386651 0
0.0681656 -0.0409111 0
0.0694983 -0.0430158 0
0.0707356 -0.0449823 0
0.071886 -0.0468071 0
0.0729575 -0.04849 0
0.0739438 -0.0500408 0
0.0748444 -0.0514675 0
0.0756707 -0.0527715 0
0.0764313 -0.053958 0
0.0771224 -0.0550398 0
0.0777384 -0.0560288 0
0.0782803 -0.0569318 0
0.0787691 -0.0577448 0
0.0792251 -0.0584672 0
0.0800494 -0.0597378 0
0.0797987 -0.0601582 0
0.0786655 -0.059391 0
0.0781259 -0.0588425 0
0.0775539 -0.0582102 0
0.0769587 -0.0574783 0
0.0763492 -0.0566339 0
0.075723 -0.0556725 0
0.0750452 -0.0546094 0
0.0742996 -0.0534457 0
0.073478 -0.0521785 0
0.072577 -0.0508019 0
0.0715904 -0.049313 0
0.0705098 -0.047712 0
0.069328 -0.0459996 0
0.0680378 -0.0441794 0
0.066632 -0.0422571 0
0.0651046 -0.0402413 0
0.0634508 -0.0381431 0
0.0616683 -0.0359754 0
0.0597581 -0.033753 0
0.0577255 -0.0314906 0
0.0555808 -0.0292024 0
0.0533388 -0.0269013 0
0.0510024 -0.0246151 0
0.0485693 -0.0223811 0
0.0460535 -0.0202228 0
0.0434788 -0.0181535 0
0.0408704 -0.0161833 0
0.0382442 -0.0143327 0
0.0356165 -0.0126209 0
0.0330065 -0.0110594 0
0.0304368 -0.00965062 0
0.0279338 -0.00838121 0
0.0255194 -0.00723697 0
0.0231965 -0.00623664 0
0.020983 -0.00535765 0
0.0188891 -0.00458677 0
0.0169193 -0.00391673 0
0.0150754 -0.00334068 0
0.0133572 -0.00285262 0
0.0117634 -0.0024437 0
0.0102912 -0.00210643 0
0.0089363 -0.00183343 0
0.00769424 -0.00161552 0
0.00655956 -0.00144452 0
0.00552632 -0.00131235 0
0.00458815 -0.00121216 0
0.00373885 -0.00113394 0
0.00297202 -0.00106855 0
-0.0506847 -0.0440454 0
-0.0467478 -0.0429739 0
-0.0428108 -0.0419025 0
-0.0388739 -0.0408311 0
-0.034937 -0.0397597 0
-0.0310001 -0.0386882 0
-0.0270632 -0.0376168 0
-0.0231263 -0.0365454 0
-0.0191894 -0.0354739 0
-0.0152525 -0.0344025 0
-0.0113155 -0.0333311 0
-0.00737862 -0.0322597 0
-0.00344171 -0.0311882 0
0.0038716 -0.0298185 0
0.00726082 -0.0297726 0
0.010644 -0.0299802 0
0.0140027 -0.0304367 0
0.0173201 -0.0311326 0
0.0205821 -0.0320541 0
0.0237776 -0.0331851 0
0.0268988 -0.0345078 0
0.0299406 -0.0360041 0
0.0329005 -0.0376567 0
0.035778 -0.039449 0
0.038574 -0.0413659 0
0.0412905 -0.043394 0
0.0439303 -0.0455212 0
0.0464964 -0.0477367 0
0.0489922 -0.0500312 0
0.051421 -0.0523964 0
0.0537863 -0.0548252 0
0.0560914 -0.0573112 0
0.0583395 -0.0598489 0
0.0605336 -0.0624334 0
0.0626765 -0.0650605 0
0.064771 -0.0677264 0
0.0668197 -0.0704277 0
0.0688248 -0.0731615 0
0.0707885 -0.0759252 0
0.072713 -0.0787163 0
0.0746002 -0.0815329 0
0.0764517 -0.0843729 0
0.0782695 -0.0872347 0
0.0829558 -0.0924852 0
0.0858567 -0.0948536 0
0.0887575 -0.0972221 0
0.0916584 -0.0995905 0
0.0945593 -0.101959 0
0.0974602 -0.104327 0
0.100361 -0.106696 0
0.103262 -0.109064 0
0.106163 -0.111433 0
0.109064 -0.113801 0
0.111965 -0.116169 0
0.114865 -0.118538 0
0.117766 -0.120906 0
0.120667 -0.123275 0
0.123568 -0.125643 0
0.126469 -0.128012 0
0.12937 -0.13038 0
0.132271 -0.132748 0
0.135172 -0.13118 0
0.135172 -0.127243 0
0.135172 -0.123306 0
0.135172 -0.119369 0
0.135172 -0.115432 0
0.135172 -0.111495 0
0.135172 -0.107558 0
0.135172 -0.103621 0
0.135172 -0.0996846 0
0.135172 -0.0957477 0
0.135172 -0.0918107 0
0.135172 -0.0878738 0
0.135172 -0.0839369 0
0.132271 -0.0776316 0
0.12937 -0.0752632 0
0.126469 -0.0728947 0
0.123568 -0.0705263 0
0.120667 -0.0681579 0
0.117766 -0.0657895 0
0.114865 -0.0634211 0
0.111965 -0.0610526 0
0.109064 -0.0586842 0
0.106163 -0.0563158 0
0.103262 -0.0539474 0
0.100361 -0.0515789 0
0.0974602 -0.0492105 0
0.0945593 -0.0468421 0
0.0916584 -0.0444737 0
0.0887575 -0.0421053 0
0.0858567 -0.0397368 0
0.0829558 -0.0373684 0
0.0782695 -0.0321179 0
0.0764517 -0.0292561 0
0.0746002 -0.026416 0
0.072713 -0.0235995 0
0.0707885 -0.0208084 0
0.0688248 -0.0180447 0
0.0668197 -0.0153109 0
0.064771 -0.0126096 0
0.0626765 -0.00994373 0
0.0605336 -0.00731663 0
0.0583395 -0.00473208 0
0.0560914 -0.00219437 0
0.0537863 0.000291632 0
0.051421 0.00272041 0
0.0489922 0.00508564 0
0.0464964 0.00738012 0
0.0439303 0.00959562 0
0.0412905 0.0117228 0
0.038574 0.0137509 0
0.035778 0.0156678 0
0.0329005 0.0174601 0
0.0299406 0.0191127 0
0.0268988 0.020609 0
0.0237776 0.0219317 0
0.0205821 0.0230627 0
0.0173201 0.0239842 0
0.0140027 0.0246801 0
0.010644 0.0251366 0
0.00726082 0.0253442 0
0.0038716 0.0252983 0
-0.00344171 0.0239286 0
-0.00737862 0.0228571 0
-0.0113155 0.0217857 0
-0.0152525 0.0207143 0
-0.0191894 0.0196429 0
-0.0231263 0.0185714 0
-0.0270632 0.0175 0
-0.0310001 0.0164286 0
-0.034937 0.0153571 0
-0.0388739 0.0142857 0
-0.0428108 0.0132143 0
-0.0467478 0.0121429 0
-0.0506847 0.0110714 0
-0.0546216 0.00606309 0
-0.0546216 0.00212617 0
-0.0546216 -0.00181074 0
-0.0546216 -0.00574766 0
-0.0546216 -0.00968457 0
-0.0546216 -0.0136215 0
-0.0546216 -0.0175584 0
-0.0546216 -0.0214953 0
-0.0546216 -0.0254322 0
-0.0546216 -0.0293691 0
-0.0546216 -0.0333061 0
-0.0546216 -0.037243 0
-0.0546216 -0.0411799 0
-0.0506847 -0.0440454 -0.00551168
-0.0467478 -0.0429739 -0.00551168
-0.0428108 -0.0419025 -0.00551168
-0.0388739 -0.0408311 -0.00551168
-0.034937 -0.0397597 -0.00551168
-0.0310001 -0.0386882 -0.00551168
-0.0270632 -0.0376168 -0.00551168
-0.0231263 -0.0365454 -0.00551168
-0.0191894 -0.0354739 -0.00551168
-0.0152525 -0.0344025 -0.00551168
-0.0113155 -0.0333311 -0.00551168
-0.00737862 -0.0322597 -0.00551168
-0.00344171 -0.0311882 -0.00551168
0.0038716 -0.0298185 -0.00551168
0.00726082 -0.0297726 -0.00551168
0.010644 -0.0299802 -0.00551168
0.0140027 -0.0304367 -0.00551168
0.0173201 -0.0311326 -0.00551168
0.0205821 -0.0320541 -0.00551168
0.0237776 -0.0331851 -0.00551168
0.0268988 -0.0345078 -0.00551168
0.0299406 -0.0360041 -0.00551168
0.0329005 -0.0376567 -0.00551168
0.035778 -0.039449 -0.00551168
0.038574 -0.0413659 -0.00551168
0.0412905 -0.043394 -0.00551168
0.0439303 -0.0455212 -0.00551168
0.0464964 -0.0477367 -0.00551168
0.0489922 -0.0500312 -0.00551168
0.051421 -0.0523964 -0.00551168
0.0537863 -0.0548252 -0.00551168
0.0560914 -0.0573112 -0.00551168
0.0583395 -0.0598489 -0.00551168
0.0605336 -0.0624334 -0.00551168
0.0626765 -0.0650605 -0.00551168
0.064771 -0.0677264 -0.00551168
0.0668197 -0.0704277 -0.00551168
0.0688248 -0.0731615 -0.00551168
0.0707885 -0.0759252 -0.00551168
0.072713 -0.0787163 -0.00551168
0.0746002 -0.0815329 -0.00551168
0.0764517 -0.0843729 -0.00551168
0.0782695 -0.0872347 -0.00551168
0.0829558 -0.0924852 -0.00551168
0.0858567 -0.0948536 -0.00551168
0.0887575 -0.0972221 -0.00551168
0.0916584 -0.0995905 -0.00551168
0.0945593 -0.101959 -0.00551168
0.0974602 -0.104327 -0.00551168
0.100361 -0.106696 -0.00551168
0.103262 -0.109064 -0.00551168
0.106163 -0.111433 -0.00551168
0.109064 -0.113801 -0.00551168
0.111965 -0.116169 -0.00551168
0.114865 -0.118538 -0.00551168
0.117766 -0.120906 -0.00551168
0.120667 -0.123275 -0.00551168
0.123568 -0.125643 -0.00551168
0.126469 -0.128012 -0.00551168
0.12937 -0.13038 -0.00551168
0.132271 -0.132748 -0.00551168
0.135172 -0.13118 -0.00551168
0.135172 -0.127243 -0.00551168
0.135172 -0.123306 -0.00551168
0.135172 -0.119369 -0.00551168
0.135172 -0.115432 -0.00551168
0.135172 -0.111495 -0.00551168
0.135172 -0.107558 -0.00551168
0.135172 -0.103621 -0.00551168
0.135172 -0.0996846 -0.00551168
0.135172 -0.0957477 -0.00551168
0.135172 -0.0918107 -0.00551168
0.135172 -0.0878738 -0.00551168
0.135172 -0.0839369 -0.00551168
0.132271 -0.0776316 -0.00551168
0.12937 -0.0752632 -0.00551168
0.126469 -0.0728947 -0.00551168
0.123568 -0.0705263 -0.00551168
0.120667 -0.0681579 -0.00551168
0.117766 -0.0657895 -0.00551168
0.114865 -0.0634211 -0.00551168
0.111965 -0.0610526 -0.00551168
0.109064 -0.0586842 -0.00551168
0.106163 -0.0563158 -0.00551168
0.103262 -0.0539474 -0.00551168
0.100361 -0.0515789 -0.00551168
0.0974602 -0.0492105 -0.00551168
0.0945593 -0.0468421 -0.00551168
0.0916584 -0.0444737 -0.00551168
0.0887575 -0.0421053 -0.00551168
0.0858567 -0.0397368 -0.00551168
0.0829558 -0.0373684 -0.00551168
0.0782695 -0.0321179 -0.00551168
0.0764517 -0.0292561 -0.00551168
0.0746002 -0.026416 -0.00551168
0.072713 -0.0235995 -0.00551168
0.0707885 -0.0208084 -0.00551168
0.0688248 -0.0180447 -0.00551168
0.0668197 -0.0153109 -0.00551168
0.064771 -0.0126096 -0.00551168
0.0626765 -0.00994373 -0.00551168
0.0605336 -0.00731663 -0.00551168
0.0583395 -0.00473208 -0.00551168
0.0560914 -0.00219437 -0.00551168
0.0537863 0.000291632 -0.00551168
0.051421 0.00272041 -0.00551168
0.0489922 0.00508564 -0.00551168
0.0464964 0.00738012 -0.00551168
0.0439303 0.00959562 -0.00551168
0.0412905 0.0117228 -0.00551168
[...]
CELL_DATA 2965
SCALARS rho float
LOOKUP_TABLE default
0.534018
0.330324
0.524784
0.314845
0.542093
0.34638
0.533943
0.330858
0.348679
0.525767
0.314598
0.33132
0.425605
0.53648
0.518011
0.517052
0.527133
0.516826
0.544953
0.528832
0.534046
0.321547
0.509649
0.537655
0.535452
0.547593
0.458576
0.479906
0.318715
0.505323
0.502054
0.329067
0.552573
0.529596
0.281049
0.346789
0.528726
0.533475
0.308653
0.505903
0.529863
0.502815
0.534453
0.328188
0.329217
0.533243
0.458792
0.471017
0.311413
0.534042
0.389818
0.31848
0.330879
0.425034
0.316212
0.420117
0.350565
0.31395
0.271855
0.476206
0.51591
0.476864
0.321694
0.544142
0.486891
0.533843
0.534
0.318971
0.310003
0.336343
0.518569
0.543596
0.534011
0.291224
0.500318
0.409484
0.533885
0.31804
0.324182
0.467712
0.534029
0.320962
0.33254
0.434635
0.481764
0.374068
0.313956
0.272427
0.553516
0.350156
0.307446
0.533172
0.517883
0.514311
0.534
0.310432
0.457404
0.294308
0.335947
0.326118
0.474446
0.325526
0.331756
0.328799
0.336446
0.528607
0.533869
0.32121
0.317214
0.533906
0.247112
0.391106
0.470083
0.494056
0.311992
0.302735
0.506556
0.455148
0.534088
0.329129
0.534025
0.238377
0.539996
0.541299
0.493654
0.399981
0.326717
0.459348
0.531596
0.267351
0.331704
0.427486
0.532277
0.334456
0.460294
0.33197
0.426629
0.516705
0.554018
0.542089
0.333943
0.516128
0.527932
0.330281
0.280156
0.54544
0.316304
0.541294
0.554434
0.338208
0.327092
0.322696
0.331981
0.319557
0.280432
0.269702
0.533933
0.531789
0.525505
0.540009
0.452221
0.461681
0.407051
0.542989
0.35075
0.533946
0.415983
0.328945
0.533997
0.536051
0.481127
0.299105
0.433264
0.519843
0.547201
0.413592
0.511725
0.357882
0.259657
0.41662
0.333699
0.25945
0.31037
0.300876
0.55473
0.533949
0.321155
0.327818
0.388916
0.324987
0.309577
0.311798
0.450858
0.292505
0.534029
0.463216
0.534364
0.486013
0.439888
0.32328
0.329849
0.343126
0.528362
0.44347
0.533959
0.306576
0.427952
0.534019
0.519803
0.534667
0.496386
0.397451
0.348309
0.338362
0.505819
0.33718
0.460308
0.321122
0.517576
0.324714
0.348623
0.332473
0.458914
0.381805
0.545599
0.284352
0.533965
0.522439
0.319946
0.479591
0.324374
0.281797
0.536189
0.31068
0.533659
0.536132
0.315772
0.531067
0.32629
0.350192
0.372173
0.325859
0.54387
0.522844
0.32813
0.24644
0.526059
0.533858
0.446724
0.505811
0.32449
0.320433
0.533936
0.331425
0.481529
0.276191
0.274413
0.534088
0.53342
0.337453
0.464235
0.325387
0.543068
0.34742
0.535011
0.534065
0.26638
0.472281
0.520574
0.300473
0.328038
0.534099
0.327895
0.55044
0.509734
0.328978
0.515013
0.514809
0.551455
0.531562
0.546461
0.468037
0.52942
0.533821
0.320912
0.314261
0.523429
0.539401
0.333903
0.53163
0.462248
0.320476
0.332811
0.327152
0.47734
0.317886
0.533897
0.479918
0.549906
0.323573
0.483106
0.485368
0.476487
0.533546
0.319879
0.236513
0.545
0.533915
0.533913
0.316808
0.332263
0.481673
0.296482
0.29891
0.491881
0.533994
0.484642
0.246397
0.318951
0.482238
0.494025
0.326333
0.534207
0.533957
0.331234
0.414255
0.53343
0.514875
0.283683
0.327404
0.534118
0.33695
0.537547
0.363789
0.539842
0.391458
0.369131
0.332352
0.328055
0.301991
0.511367
0.547699
0.526272
0.542901
0.484996
0.473699
0.311808
0.534528
0.546957
0.337387
0.312143
0.534146
0.314503
0.516743
0.472193
0.337669
0.329538
0.329233
0.313578
0.533967
0.332042
0.3351
0.3795
0.327037
0.533445
0.534286
0.472127
0.533901
0.325842
0.531338
0.32885
0.534156
0.312917
0.333971
0.535636
0.465262
0.282993
0.257057
0.532487
0.360299
0.500137
0.514368
0.321438
0.530754
0.280198
0.33708
0.534199
0.300764
0.535933
0.274912
0.379585
0.330448
0.536186
0.468406
0.433864
0.533841
0.298873
0.546396
0.34079
0.323452
0.549016
0.322693
0.540305
0.421126
0.487144
0.278698
0.295228
0.320895
0.279027
0.319599
0.337345
0.530005
0.534343
0.534593
0.534045
0.332828
0.538334
0.465854
0.520008
0.254107
0.533341
0.350416
0.484184
0.475593
0.34135
0.534049
0.354361
0.522199
0.334946
0.488086
0.534896
0.321987
0.533009
0.257841
0.537868
0.323181
0.316349
0.415732
0.543176
0.540383
0.397873
0.277129
0.249595
0.416734
0.542714
0.528251
0.533561
0.531635
0.537075
0.314116
0.513713
0.483812
0.336547
0.264288
0.302636
0.497861
0.535917
0.365695
0.37973
0.370566
0.339529
0.52835
0.534879
0.534015
0.548531
0.39799
0.533851
0.535456
0.33038
0.539447
0.345891
0.350692
0.531766
0.534619
0.537234
0.545304
0.318701
0.335495
0.552723
0.530486
0.318676
0.529633
0.50108
0.534582
0.345136
0.32678
0.535621
0.327341
0.452925
0.534749
0.535855
0.337509
0.533451
0.326763
0.328693
0.319172
0.345168
0.533473
0.362775
0.516853
0.283073
0.323293
0.526685
0.337659
0.291148
0.337108
0.275289
0.358939
0.33562
0.3245
0.42659
0.437901
0.313763
0.34841
0.535885
0.326637
0.394895
0.53345
0.533787
0.494554
0.489858
0.436398
0.443688
0.296404
0.373331
0.533647
0.498539
0.274916
0.508282
0.243068
0.291613
0.321021
0.533698
0.551017
0.335994
0.496881
0.532022
0.282718
0.342827
0.541565
0.533951
0.360254
0.54329
0.379706
0.332618
0.541594
0.337875
0.45302
0.527086
0.405881
0.54248
0.311622
0.336162
0.537294
0.368543
0.335618
0.345659
0.325677
0.324335
0.533876
0.539766
0.523139
0.316665
0.256353
0.338326
0.336191
0.530334
0.27801
0.423154
0.33746
0.531644
0.533525
0.303295
0.534067
0.390673
0.490379
0.297896
0.527486
0.533366
0.554026
0.534985
0.534021
0.52598
0.345957
0.42501
0.334276
0.527557
0.315549
0.319328
0.532501
0.533853
0.533436
0.326164
0.319489
0.538975
0.541114
0.304573
0.534368
0.295652
0.307181
0.327655
0.552674
0.538449
0.52262
0.298459
0.299663
0.337842
0.324381
0.537541
0.533991
0.546049
0.326275
0.316251
0.456686
0.547022
0.543542
0.509943
0.533923
0.412471
0.536071
0.541626
0.51685
0.328766
0.53666
0.494875
0.533962
0.536157
0.545622
0.485926
0.380265
0.546196
0.332678
0.544171
0.533851
0.234915
0.533979
0.462644
0.535371
0.335231
0.315412
0.534064
0.300293
0.332239
0.548341
0.300154
0.415669
0.537483
0.287591
0.546276
0.325365
0.492327
0.532896
0.528039
0.501723
0.324301
0.324734
0.521556
0.436575
0.331471
0.480122
0.314612
0.534021
0.316665
0.459316
0.518913
0.534059
0.316751
0.492344
0.348457
0.408732
0.413952
0.337984
0.27679
0.320461
0.534098
0.45855
0.43621
0.318429
0.534088
0.489532
0.317739
0.534046
0.326265
0.456839
0.519211
0.533974
0.537225
0.295343
0.328098
0.534001
0.544515
0.522597
0.489164
0.542693
0.479459
0.4656
0.312133
0.502888
0.387991
0.345079
0.359546
0.533934
0.549282
0.508379
0.393446
0.326998
0.541159
0.332984
0.33724
0.403198
0.313164
0.455948
0.32934
0.533958
0.327366
0.309056
0.414156
0.544638
0.328285
0.307399
0.54882
0.543562
0.551105
0.322455
0.306741
0.538504
0.346547
0.306826
0.327335
0.435846
0.524966
0.267455
0.550433
0.329558
0.505795
0.533758
0.318597
0.40782
0.477972
0.500479
0.494824
0.540756
0.538318
0.544421
0.534902
0.534001
0.333398
0.381118
0.521758
0.293758
0.543274
0.525886
0.265523
0.531975
0.475288
0.512775
0.539283
0.46962
0.531691
0.313985
0.491535
0.337477
0.299393
0.534821
0.534054
0.278494
0.330313
0.531024
0.392286
0.45314
0.297826
0.249199
0.548437
0.516146
0.544029
0.513318
0.462513
0.376555
0.453349
0.315858
0.534029
0.504282
0.495061
0.34499
0.381079
0.544344
0.498031
0.539245
0.137567
0.534054
0.314261
0.321613
0.327315
0.519955
0.521571
0.540524
0.471845
0.33644
0.534021
0.386746
0.545812
0.547067
0.492393
0.318277
0.314499
0.534307
0.336762
0.424629
0.474429
0.331252
0.341737
0.517196
0.542179
0.320311
0.534059
0.532884
0.315002
0.534068
0.535151
0.53847
0.347364
0.348302
0.541998
0.327866
0.329238
0.407683
0.533989
0.325012
0.37653
0.331682
0.297525
0.537987
0.328328
0.318116
0.543076
0.327989
0.325822
0.552711
0.537836
0.534339
0.533924
0.492923
0.328881
0.551416
0.533254
0.316638
0.53709
0.534838
0.533976
0.533983
0.346535
0.533987
0.331225
0.533993
0.323171
0.533948
0.332645
0.518346
0.316245
0.540475
0.545063
0.550024
0.484707
0.534255
0.536761
0.28935
0.533949
0.266051
0.533965
0.538196
0.323723
0.405712
0.336502
0.326138
0.533965
0.361844
0.533457
0.13922
0.504965
0.508855
0.540256
0.397592
0.331898
0.267548
0.315764
0.272427
0.536609
0.364642
0.31626
0.535029
0.336884
0.35416
0.532667
0.533018
0.501164
0.535731
0.255917
0.48711
0.314756
0.534022
0.534456
0.524378
0.292087
0.540332
0.535698
0.541387
0.498153
0.53317
0.382501
0.533903
0.540072
0.442805
0.534194
0.320458
0.518347
0.343224
0.420408
0.519923
0.490416
0.530736
0.474315
0.487385
0.537207
0.312304
0.523994
0.326651
0.334113
0.540554
0.51269
0.478765
0.519907
0.531662
0.534017
0.537156
0.534041
0.534164
0.534421
0.551927
0.348327
0.501722
0.53116
0.321855
0.534053
0.319347
0.471659
0.331118
0.534053
0.316734
0.314192
0.310363
0.46993
0.535042
0.428396
0.516357
0.330939
0.334397
0.533893
0.535237
0.334145
0.502589
0.445674
0.336566
0.503991
0.329269
0.317487
0.534047
0.48016
0.311108
0.518896
0.533101
0.524272
0.323845
0.515841
0.260856
0.533936
0.378433
0.510015
0.327325
0.547999
0.304595
0.330259
0.312236
0.515828
0.302492
0.498026
0.546462
0.47052
0.34884
0.314711
0.542099
0.314208
0.237047
0.322493
0.535514
0.318709
0.338385
0.267614
0.499544
0.332705
0.330528
0.328936
0.533804
0.549244
0.338062
0.538608
0.537878
0.495746
0.321687
0.318676
0.533794
0.312335
0.554566
0.328862
0.531385
0.321097
0.230073
0.514377
0.32036
0.323289
0.322554
0.534087
0.304763
0.44598
0.537161
0.31184
0.516326
0.327836
0.549009
0.418314
0.313116
0.330699
0.535002
0.440748
0.534102
0.318341
0.337753
0.43961
0.533991
0.313124
0.332941
0.325751
0.415854
0.536872
0.350004
0.450071
0.53162
0.53409
0.526218
0.325902
0.535752
0.321799
0.534428
0.534513
0.460659
0.335126
0.490822
0.53755
0.313639
0.537844
0.538036
0.330813
0.325099
0.317358
0.276683
0.542452
0.32203
0.533949
0.38281
0.533981
0.49524
0.374152
0.511133
0.304004
0.479935
0.318181
0.533774
0.533291
0.268342
0.327746
0.322816
0.465607
0.552565
0.314681
0.298529
0.333327
0.451516
0.54656
0.2937
0.315426
0.525998
0.536609
0.527905
0.326001
0.32749
0.523948
0.533777
0.314432
0.324373
0.437723
0.549485
0.492582
0.307794
0.534124
0.535037
0.314894
0.538342
0.327143
0.539078
0.31303
0.359154
0.311353
0.282688
0.533637
0.320304
0.320816
0.324764
0.336885
0.483817
0.529303
0.549421
0.316273
0.533958
0.535484
0.535075
0.546654
0.533647
0.547743
0.548506
0.548313
0.53802
0.532773
0.321801
0.48759
0.549259
0.325884
0.540614
0.544579
0.53676
0.53531
0.308683
0.542179
0.53403
0.536594
0.332793
0.506125
0.53002
0.533969
0.529579
0.324079
0.486658
0.348138
0.414298
0.33917
0.338928
0.323857
0.32416
0.534173
0.533167
0.522404
0.322113
0.534636
0.534069
0.537425
0.326528
0.33214
0.51911
0.305584
0.312088
0.335829
0.536429
0.419531
0.534561
0.331123
0.546052
0.53332
0.457138
0.538876
0.336897
0.549973
0.535513
0.512921
0.539267
0.534117
0.520488
0.325729
0.346362
0.333255
0.533783
0.307862
0.534281
0.520984
0.495113
0.328718
0.347007
0.483254
0.541627
0.533913
0.328819
0.525529
0.478554
0.269069
0.534161
0.315605
0.328037
0.324993
0.315558
0.336231
0.539458
0.535633
0.552076
0.44344
0.532858
0.533738
0.517883
0.534098
0.54632
0.548356
0.533677
0.533816
0.325861
0.533929
0.528145
0.426835
0.321904
0.503808
0.30897
0.53722
0.370571
0.538925
0.545363
0.329505
0.536102
0.324801
0.535368
0.532198
0.546914
0.489549
0.516103
0.54541
0.533665
0.349766
0.445332
0.422511
0.253008
0.534229
0.538087
0.443807
0.550511
0.526651
0.533927
0.318212
0.320332
0.527704
0.54611
0.317126
0.196119
0.514778
0.534252
0.53487
0.270906
0.45694
0.513448
0.53279
0.322806
0.534048
0.484387
0.52548
0.504965
0.439733
0.534105
0.309182
0.53119
0.312156
0.336761
0.53412
0.344773
0.345869
0.324239
0.525544
0.510492
0.442984
0.534079
0.430914
0.351125
0.324427
0.542337
0.532438
0.539611
0.489252
0.253582
0.522531
0.432708
0.312511
0.532417
0.540284
0.327618
0.536228
0.529288
0.533952
0.445851
0.533608
0.360862
0.534234
0.531093
0.533586
0.336643
0.525279
0.386084
0.508843
0.533698
0.544653
0.530669
0.534624
0.534594
0.532867
0.518167
0.323425
0.541812
0.510545
0.33268
0.495626
0.536782
0.550891
0.499403
0.311926
0.53102
0.333465
0.545632
0.490068
0.538568
0.323751
0.513318
0.534419
0.534022
0.525377
0.478743
0.53404
0.466597
0.386342
0.323915
0.275876
0.533943
0.348629
0.304098
0.536567
0.317634
0.543747
0.318416
0.536155
0.317595
0.325446
0.521219
0.395238
0.298804
0.530976
0.533227
0.537901
0.336381
0.506608
0.534064
0.531824
0.325548
0.534014
0.534813
0.32021
0.482375
0.4623
0.523186
0.33543
0.391515
0.510315
0.318963
0.537832
0.33129
0.330085
0.533868
0.386071
0.50724
0.31612
0.539749
0.424896
0.534023
0.224257
0.32467
0.533894
0.33841
0.534044
0.349306
0.534477
0.485528
0.46639
0.534051
0.502415
0.262484
0.534852
0.548697
0.531692
0.534008
0.321726
0.330554
0.318294
0.330222
0.533881
0.336825
0.513583
0.324126
0.532591
0.534524
0.533798
0.32326
0.534539
0.320788
0.534706
0.541356
0.347247
0.533729
0.525354
0.310692
0.521819
0.326881
0.350105
0.549115
0.332023
0.543301
0.224754
0.334123
0.512854
0.35649
0.538666
0.328017
0.461325
0.533029
0.530117
0.385737
0.27328
0.329502
0.533986
0.534036
0.337247
0.535168
0.322953
0.532656
0.322247
0.31777
0.467949
0.474595
0.419446
0.49584
0.534081
0.49208
0.473555
0.536043
0.533883
0.327334
0.534981
0.337748
0.33867
0.496095
0.406712
0.395317
0.442429
0.327697
0.514903
0.534055
0.537084
0.324483
0.317647
0.450894
0.505704
0.534397
0.545778
0.314201
0.499542
0.532679
0.507807
0.439993
0.320959
0.325845
0.329417
0.554605
0.536991
0.308001
0.323978
0.436574
0.325792
0.54921
0.513089
0.319276
0.533915
0.404469
0.540687
0.536618
0.318348
0.34581
0.506929
0.31872
0.394179
0.533038
0.274229
0.317768
0.325159
0.507927
0.536075
0.505601
0.333309
0.312474
0.528617
0.534963
0.494483
0.538813
0.314327
0.324815
0.334191
0.497918
0.327417
0.321476
0.537831
0.541541
0.514311
0.326873
0.32869
0.325749
0.533992
0.302708
0.532794
0.533985
0.530201
0.42817
0.534126
0.549105
0.331412
0.323958
0.535573
0.321119
0.465556
0.526068
0.541758
0.436916
0.324423
0.326509
0.541484
0.403234
0.311375
0.534343
0.534045
0.29612
0.321561
0.513322
0.442349
0.329016
0.336598
0.540226
0.490268
0.529018
0.474529
0.35431
0.330219
0.341309
0.380335
0.318876
0.534012
0.528497
0.470222
0.511691
0.34734
0.503929
0.34887
0.533319
0.545634
0.332783
0.264846
0.529673
0.384929
0.472425
0.535085
0.303943
0.530851
0.527893
0.53371
0.534051
0.506274
0.346061
0.33682
0.31486
0.510924
0.53389
0.514153
0.443815
0.327089
0.336951
0.49239
0.32831
0.538295
0.533713
0.532967
0.34729
0.325987
0.464523
0.507251
0.534039
0.526662
0.534189
0.533927
0.535875
0.481781
0.252872
0.533987
0.497812
0.534596
0.316099
0.529787
0.423785
0.528669
0.551976
0.445868
0.491686
0.531707
0.509258
0.534011
0.32821
0.531819
0.550885
0.342524
0.505483
0.303735
0.303835
0.534025
0.53397
0.335473
0.483182
0.533726
0.331369
0.348084
0.556916
0.549808
0.471106
0.347566
0.495556
0.327863
0.542773
0.54878
0.320012
0.454505
0.500334
0.325296
0.313708
0.341066
0.53899
0.532062
0.312711
0.335496
0.33881
0.33712
0.33811
0.501689
0.326277
0.550706
0.535057
0.541641
0.319049
0.532911
0.446478
0.531855
0.443169
0.529419
0.315723
0.302172
0.325726
0.534035
0.327354
0.323563
0.496933
0.331836
0.534049
0.50691
0.425071
0.320444
0.320101
0.522599
0.535935
0.527562
0.525452
0.54261
0.314035
0.343318
0.322612
0.509699
0.534745
0.32185
0.517673
0.338068
0.338587
0.534118
0.321039
0.347688
0.260973
0.370708
0.329349
0.534336
0.538308
0.537711
0.337732
0.533696
0.542222
0.321715
0.534322
0.375276
0.53982
0.347414
0.38755
0.533457
0.327286
0.268381
0.529698
0.52402
0.321095
0.546044
0.498358
0.533038
0.398618
0.318268
0.501357
0.534013
0.365583
0.354431
0.422697
0.398477
0.534118
0.327999
0.320146
0.540945
0.516032
0.333512
0.318338
0.531604
0.327137
0.346559
0.318871
0.454706
0.544654
0.318529
0.539976
0.320969
0.305395
0.350013
0.405408
0.332468
0.539373
0.319067
0.350009
0.48107
0.538625
0.354332
0.533942
0.31357
0.327557
0.5104
0.55226
0.523251
0.512962
0.518879
0.546005
0.32339
0.538966
0.3092
0.53395
0.526706
0.410631
0.524701
0.533994
0.533875
0.533753
0.432087
0.348721
0.42964
0.330894
0.502416
0.532377
0.495762
0.324359
0.536016
0.368409
0.533957
0.325437
0.30817
0.556314
0.304154
0.52877
0.551704
0.376927
0.33099
0.331367
0.533607
0.393
0.269529
0.540521
0.328932
0.525648
0.348431
0.339017
0.317621
0.535178
0.390256
0.534051
0.323219
0.338382
0.53408
0.532622
0.282816
0.358557
0.268994
0.481328
0.33057
0.520524
0.530593
0.533965
0.237835
0.323089
0.450201
0.530667
0.548091
0.532702
0.300362
0.513844
0.53745
0.533948
0.534032
0.316576
0.521756
0.331107
0.44961
0.542524
0.537146
0.529938
0.544514
0.498092
0.532142
0.544016
0.533601
0.522541
0.536384
0.533747
0.535504
0.325497
0.329264
0.534268
0.475728
0.534042
0.533962
0.548077
0.519482
0.544977
0.332806
0.325382
0.534041
0.324385
0.322277
0.335495
0.533926
0.523435
0.533957
0.509815
0.523149
0.313462
0.537737
0.31364
0.313527
0.545581
0.525761
0.524558
0.398835
0.395692
0.328695
0.32489
0.384311
0.322025
0.357578
0.54399
0.308057
0.531179
0.32957
0.539475
0.533014
0.286097
0.347275
0.496988
0.534032
0.327888
0.508887
0.268051
0.317363
0.323959
0.448553
0.534981
0.534036
0.53419
0.24328
0.342372
0.273819
0.335427
0.533997
0.547201
0.53853
0.332683
0.313099
0.533796
0.532746
0.536385
0.305969
0.480821
0.465087
0.543195
0.429918
0.339765
0.337679
0.320762
0.535747
0.325006
0.324669
0.533987
0.350954
0.534219
0.350095
0.343678
0.399099
0.346906
0.545506
0.534038
0.534257
0.444687
0.554056
0.51032
0.475727
0.349654
0.507629
0.530056
0.509658
0.536411
0.532737
0.53959
0.424955
0.53261
0.535311
0.340041
0.329805
0.548941
0.400282
0.533427
0.327344
0.545981
0.36061
0.526062
0.534413
0.508405
0.533029
0.538936
0.515145
0.321129
0.336931
0.537354
0.546791
0.533285
0.433418
0.544197
0.446342
0.494029
0.533719
0.472118
0.463933
0.540358
0.53396
0.335831
0.313943
0.534427
0.502127
0.328505
0.339359
0.423266
0.534045
0.533977
0.550371
0.33505
0.524509
0.30287
0.536647
0.327714
0.544398
0.300442
0.549053
0.336407
0.531312
0.445284
0.324812
0.323229
0.471005
0.327496
0.485184
0.313773
0.534104
0.53404
0.530274
0.527887
0.534109
0.53489
0.533814
0.549623
0.541465
0.501805
0.515656
0.496231
0.538231
0.322404
0.500526
0.499379
0.532592
0.315797
0.49787
0.545309
0.533888
0.332872
0.320519
0.332863
0.5441
0.497961
0.323927
0.500337
0.391016
0.53408
0.313422
0.412018
0.349004
0.303121
0.552748
0.325233
0.50834
0.326041
0.551111
0.334545
0.534091
0.502611
0.529178
0.34756
0.349806
0.352891
0.51588
0.326484
0.351199
0.32431
0.540451
0.518876
0.544221
0.523187
0.530725
0.511489
0.383188
0.348586
0.530802
0.320364
0.447863
0.526986
0.549825
0.224437
0.339839
0.522903
0.533874
0.408871
0.524964
0.534896
0.518385
0.344842
0.542785
0.52006
0.531988
0.533276
0.323795
0.534017
0.325323
0.532082
0.54214
0.504772
0.533221
0.346878
0.537337
0.225152
0.36024
0.500381
0.507948
0.529673
0.451506
0.330119
0.532103
0.535911
0.322472
0.317045
0.303701
0.548247
0.33853
0.328917
0.326594
0.329665
0.31188
0.369181
0.542485
0.313607
0.539571
0.523949
0.328113
0.535672
0.332123
0.547614
0.315475
0.461154
0.323881
0.527231
0.534512
0.398841
0.497402
0.534055
0.520933
0.324267
0.480288
0.430385
0.316254
0.324287
0.405202
0.32047
0.544212
0.300991
0.33615
0.323187
0.53404
0.52823
0.312227
0.321405
0.54511
0.32794
0.325735
0.533966
0.329696
0.349381
0.341826
0.551287
0.503339
0.547339
0.327981
0.291556
0.538301
0.518114
0.53387
0.396418
0.508079
0.52981
0.415127
0.402698
0.322887
0.324561
0.237569
0.492958
0.32196
0.546509
0.512709
0.533002
0.334177
0.410199
0.419861
0.556286
0.299969
0.482664
0.241668
0.492054
0.322754
0.280776
0.293897
0.537366
0.316284
0.550735
0.348944
0.380102
0.32814
0.472021
0.314905
0.543387
0.347709
0.504412
0.487395
0.322711
0.534332
0.534305
0.339003
0.547712
0.349258
0.329402
0.542305
0.302779
0.515527
0.355864
0.234852
0.533543
0.321458
0.351937
0.350412
0.336257
0.319674
0.515426
0.435709
0.528554
0.547134
0.528255
0.543181
0.411361
0.537879
0.299458
0.534672
0.329494
0.526468
0.315496
0.388994
0.525193
0.548705
0.535209
0.35408
0.440073
0.337032
0.342368
0.346014
0.232301
0.537106
0.410094
0.54669
0.533547
0.484913
0.538939
0.534657
0.393727
0.344142
0.36631
0.541257
0.484715
0.502294
0.534248
0.551394
0.417333
0.287868
0.340453