# vtk DataFile Version 1.0
unstructured grid
ascii
DATASET UNSTRUCTURED_GRID
points 3226 float
0.0796578 -0.059106 0
0.00128732 0.00159165 0
0.00227961 -0.00102548 0
0.0791586 -0.0598787 0
-0.0546216 0.01 0
0.000495206 0.025 0
0.0800549 -0.035 0
0.135172 -0.08 0
-0.0546216 -0.0451168 0
0.000495206 -0.0301168 0
0.0800549 -0.0901168 0
0.135172 -0.135117 0
-0.0546216 -0.0451168 -0.00551168
0.000495206 -0.0301168 -0.00551168
0.0800549 -0.0901168 -0.00551168
0.135172 -0.135117 -0.00551168
0.135172 -0.08 -0.00551168
0.0800549 -0.035 -0.00551168
0.000495206 0.025 -0.00551168
-0.0546216 0.01 -0.00551168
0.00128732 0.00159165 -0.00551168
0.00227961 -0.00102548 -0.00551168
0.0791586 -0.0598787 -0.00551168
0.0796578 -0.059106 -0.00551168
0.00110182 -0.000823821 0
0.000571683 -0.000188043 0
0.000561313 0.000639162 0
0.00189316 0.00207203 0
0.00260228 0.00255358 0
0.0033966 0.00307293 0
0.00428861 0.00362634 0
0.00529726 0.0041979 0
0.00644092 0.00476696 0
0.00773158 0.0053187 0
0.00918011 0.00583593 0
0.010799 0.00628751 0
0.012597 0.00663225 0
0.0145725 0.0068517 0
0.0167206 0.0069338 0
0.0190349 0.00685819 0
0.0215031 0.00658621 0
0.0241038 0.00607459 0
0.026821 0.00533786 0
0.0296245 0.00434523 0
0.0324763 0.00306927 0
0.0353199 0.00146906 0
0.0381488 -0.00039338 0
0.0409131 -0.00252802 0
0.0435632 -0.00493276 0
0.0460882 -0.0075571 0
0.0484881 -0.0103478 0
0.0506782 -0.0133217 0
0.0526651 -0.016422 0
0.0546139 -0.0195019 0
0.0565301 -0.022529 0
0.0584009 -0.0254846 0
0.0602154 -0.0283513 0
0.061964 -0.031114 0
0.0636389 -0.0337601 0
0.0652336 -0.0362795 0
0.0667431 -0.0386651 0
0.0681656 -0.0409111 0
0.0694983 -0.0430158 0
0.0707356 -0.0449823 0
0.071886 -0.0468071 0
0.0729575 -0.04849 0
0.0739438 -0.0500408 0
0.0748444 -0.0514675 0
0.0756707 -0.0527715 0
0.0764313 -0.053958 0
0.0771224 -0.0550398 0
0.0777384 -0.0560288 0
0.0782803 -0.0569318 0
0.0787691 -0.0577448 0
0.0792251 -0.0584672 0
0.0800494 -0.0597378 0
0.0797987 -0.0601582 0
0.0786655 -0.059391 0
0.0781259 -0.0588425 0
0.0775539 -0.0582102 0
0.0769587 -0.0574783 0
0.0763492 -0.0566339 0
0.075723 -0.0556725 0
0.0750452 -0.0546094 0
0.0742996 -0.0534457 0
0.073478 -0.0521785 0
0.072577 -0.0508019 0
0.0715904 -0.049313 0
0.0705098 -0.047712 0
0.069328 -0.0459996 0
0.0680378 -0.0441794 0
0.066632 -0.0422571 0
0.0651046 -0.0402413 0
0.0634508 -0.0381431 0
0.0616683 -0.0359754 0
0.0597581 -0.033753 0
0.0577255 -0.0314906 0
0.0555808 -0.0292024 0
0.0533388 -0.0269013 0
0.0510024 -0.0246151 0
0.0485693 -0.0223811 0
0.0460535 -0.0202228 0
0.0434788 -0.0181535 0
0.0408704 -0.0161833 0
0.0382442 -0.0143327 0
0.0356165 -0.0126209 0
0.0330065 -0.0110594 0
0.0304368 -0.00965062 0
0.0279338 -0.00838121 0
0.0255194 -0.00723697 0
0.0231965 -0.00623664 0
0.020983 -0.00535765 0
0.0188891 -0.00458677 0
0.0169193 -0.00391673 0
0.0150754 -0.00334068 0
0.0133572 -0.00285262 0
0.0117634 -0.0024437 0
0.0102912 -0.00210643 0
0.0089363 -0.00183343 0
0.00769424 -0.00161552 0
0.00655956 -0.00144452 0
0.00552632 -0.00131235 0
0.00458815 -0.00121216 0
0.00373885 -0.00113394 0
0.00297202 -0.00106855 0
-0.0506847 -0.0440454 0
-0.0467478 -0.0429739 0
-0.0428108 -0.0419025 0
-0.0388739 -0.0408311 0
-0.034937 -0.0397597 0
-0.0310001 -0.0386882 0
-0.0270632 -0.0376168 0
-0.0231263 -0.0365454 0
-0.0191894 -0.0354739 0
-0.0152525 -0.0344025 0
-0.0113155 -0.0333311 0
-0.00737862 -0.0322597 0
-0.00344171 -0.0311882 0
0.0038716 -0.0298185 0
0.00726082 -0.0297726 0
0.010644 -0.0299802 0
0.0140027 -0.0304367 0
0.0173201 -0.0311326 0
0.0205821 -0.0320541 0
0.0237776 -0.0331851 0
0.0268988 -0.0345078 0
0.0299406 -0.0360041 0
0.0329005 -0.0376567 0
0.035778 -0.039449 0
0.038574 -0.0413659 0
0.0412905 -0.043394 0
0.0439303 -0.0455212 0
0.0464964 -0.0477367 0
0.0489922 -0.0500312 0
0.051421 -0.0523964 0
0.0537863 -0.0548252 0
0.0560914 -0.0573112 0
0.0583395 -0.0598489 0
0.0605336 -0.0624334 0
0.0626765 -0.0650605 0
0.064771 -0.0677264 0
0.0668197 -0.0704277 0
0.0688248 -0.0731615 0
0.0707885 -0.0759252 0
0.072713 -0.0787163 0
0.0746002 -0.0815329 0
0.0764517 -0.0843729 0
0.0782695 -0.0872347 0
0.0829558 -0.0924852 0
0.0858567 -0.0948536 0
0.0887575 -0.0972221 0
0.0916584 -0.0995905 0
0.0945593 -0.101959 0
0.0974602 -0.104327 0
0.100361 -0.106696 0
0.103262 -0.109064 0
0.106163 -0.111433 0
0.109064 -0.113801 0
0.111965 -0.116169 0
0.114865 -0.118538 0
0.117766 -0.120906 0
0.120667 -0.123275 0
0.123568 -0.125643 0
0.126469 -0.128012 0
0.12937 -0.13038 0
0.132271 -0.132748 0
0.135172 -0.13118 0
0.135172 -0.127243 0
0.135172 -0.123306 0
0.135172 -0.119369 0
0.135172 -0.115432 0
0.135172 -0.111495 0
0.135172 -0.107558 0
0.135172 -0.103621 0
0.135172 -0.0996846 0
0.135172 -0.0957477 0
0.135172 -0.0918107 0
0.135172 -0.0878738 0
0.135172 -0.0839369 0
0.132271 -0.0776316 0
0.12937 -0.0752632 0
0.126469 -0.0728947 0
0.123568 -0.0705263 0
0.120667 -0.0681579 0
0.117766 -0.0657895 0
0.114865 -0.0634211 0
0.111965 -0.0610526 0
0.109064 -0.0586842 0
0.106163 -0.0563158 0
0.103262 -0.0539474 0
0.100361 -0.0515789 0
0.0974602 -0.0492105 0
0.0945593 -0.0468421 0
0.0916584 -0.0444737 0
0.0887575 -0.0421053 0
0.0858567 -0.0397368 0
0.0829558 -0.0373684 0
0.0782695 -0.0321179 0
0.0764517 -0.0292561 0
0.0746002 -0.026416 0
0.072713 -0.0235995 0
0.0707885 -0.0208084 0
0.0688248 -0.0180447 0
0.0668197 -0.0153109 0
0.064771 -0.0126096 0
0.0626765 -0.00994373 0
0.0605336 -0.00731663 0
0.0583395 -0.00473208 0
0.0560914 -0.00219437 0
0.0537863 0.000291632 0
0.051421 0.00272041 0
0.0489922 0.00508564 0
0.0464964 0.00738012 0
0.0439303 0.00959562 0
0.0412905 0.0117228 0
0.038574 0.0137509 0
0.035778 0.0156678 0
0.0329005 0.0174601 0
0.0299406 0.0191127 0
0.0268988 0.020609 0
0.0237776 0.0219317 0
0.0205821 0.0230627 0
0.0173201 0.0239842 0
0.0140027 0.0246801 0
0.010644 0.0251366 0
0.00726082 0.0253442 0
0.0038716 0.0252983 0
-0.00344171 0.0239286 0
-0.00737862 0.0228571 0
-0.0113155 0.0217857 0
-0.0152525 0.0207143 0
-0.0191894 0.0196429 0
-0.0231263 0.0185714 0
-0.0270632 0.0175 0
-0.0310001 0.0164286 0
-0.034937 0.0153571 0
-0.0388739 0.0142857 0
-0.0428108 0.0132143 0
-0.0467478 0.0121429 0
-0.0506847 0.0110714 0
-0.0546216 0.00606309 0
-0.0546216 0.00212617 0
-0.0546216 -0.00181074 0
-0.0546216 -0.00574766 0
-0.0546216 -0.00968457 0
-0.0546216 -0.0136215 0
-0.0546216 -0.0175584 0
-0.0546216 -0.0214953 0
-0.0546216 -0.0254322 0
-0.0546216 -0.0293691 0
-0.0546216 -0.0333061 0
-0.0546216 -0.037243 0
-0.0546216 -0.0411799 0
-0.0506847 -0.0440454 -0.00551168
-0.0467478 -0.0429739 -0.00551168
-0.0428108 -0.0419025 -0.00551168
-0.0388739 -0.0408311 -0.00551168
-0.034937 -0.0397597 -0.00551168
-0.0310001 -0.0386882 -0.00551168
-0.0270632 -0.0376168 -0.00551168
-0.0231263 -0.0365454 -0.00551168
-0.0191894 -0.0354739 -0.00551168
-0.0152525 -0.0344025 -0.00551168
-0.0113155 -0.0333311 -0.00551168
-0.00737862 -0.0322597 -0.00551168
-0.00344171 -0.0311882 -0.00551168
0.0038716 -0.0298185 -0.00551168
0.00726082 -0.0297726 -0.00551168
0.010644 -0.0299802 -0.00551168
0.0140027 -0.0304367 -0.00551168
0.0173201 -0.0311326 -0.00551168
0.0205821 -0.0320541 -0.00551168
0.0237776 -0.0331851 -0.00551168
0.0268988 -0.0345078 -0.00551168
0.0299406 -0.0360041 -0.00551168
0.0329005 -0.0376567 -0.00551168
0.035778 -0.039449 -0.00551168
0.038574 -0.0413659 -0.00551168
0.0412905 -0.043394 -0.00551168
0.0439303 -0.0455212 -0.00551168
0.0464964 -0.0477367 -0.00551168
0.0489922 -0.0500312 -0.00551168
0.051421 -0.0523964 -0.00551168
0.0537863 -0.0548252 -0.00551168
0.0560914 -0.0573112 -0.00551168
0.0583395 -0.0598489 -0.00551168
0.0605336 -0.0624334 -0.00551168
0.0626765 -0.0650605 -0.00551168
0.064771 -0.0677264 -0.00551168
0.0668197 -0.0704277 -0.00551168
0.0688248 -0.0731615 -0.00551168
0.0707885 -0.0759252 -0.00551168
0.072713 -0.0787163 -0.00551168
0.0746002 -0.0815329 -0.00551168
0.0764517 -0.0843729 -0.00551168
0.0782695 -0.0872347 -0.00551168
0.0829558 -0.0924852 -0.00551168
0.0858567 -0.0948536 -0.00551168
0.0887575 -0.0972221 -0.00551168
0.0916584 -0.0995905 -0.00551168
0.0945593 -0.101959 -0.00551168
0.0974602 -0.104327 -0.00551168
0.100361 -0.106696 -0.00551168
0.103262 -0.109064 -0.00551168
0.106163 -0.111433 -0.00551168
0.109064 -0.113801 -0.00551168
0.111965 -0.116169 -0.00551168
0.114865 -0.118538 -0.00551168
0.117766 -0.120906 -0.00551168
0.120667 -0.123275 -0.00551168
0.123568 -0.125643 -0.00551168
0.126469 -0.128012 -0.00551168
0.12937 -0.13038 -0.00551168
0.132271 -0.132748 -0.00551168
0.135172 -0.13118 -0.00551168
0.135172 -0.127243 -0.00551168
0.135172 -0.123306 -0.00551168
0.135172 -0.119369 -0.00551168
0.135172 -0.115432 -0.00551168
0.135172 -0.111495 -0.00551168
0.135172 -0.107558 -0.00551168
0.135172 -0.103621 -0.00551168
0.135172 -0.0996846 -0.00551168
0.135172 -0.0957477 -0.00551168
0.135172 -0.0918107 -0.00551168
0.135172 -0.0878738 -0.00551168
0.135172 -0.0839369 -0.00551168
0.132271 -0.0776316 -0.00551168
0.12937 -0.0752632 -0.00551168
0.126469 -0.0728947 -0.00551168
0.123568 -0.0705263 -0.00551168
0.120667 -0.0681579 -0.00551168
0.117766 -0.0657895 -0.00551168
0.114865 -0.0634211 -0.00551168
0.111965 -0.0610526 -0.00551168
0.109064 -0.0586842 -0.00551168
0.106163 -0.0563158 -0.00551168
0.103262 -0.0539474 -0.00551168
0.100361 -0.0515789 -0.00551168
0.0974602 -0.0492105 -0.00551168
0.0945593 -0.0468421 -0.00551168
0.0916584 -0.0444737 -0.00551168
0.0887575 -0.0421053 -0.00551168
0.0858567 -0.0397368 -0.00551168
0.0829558 -0.0373684 -0.00551168
0.0782695 -0.0321179 -0.00551168
0.0764517 -0.0292561 -0.00551168
0.0746002 -0.026416 -0.00551168
0.072713 -0.0235995 -0.00551168
0.0707885 -0.0208084 -0.00551168
0.0688248 -0.0180447 -0.00551168
0.0668197 -0.0153109 -0.00551168
0.064771 -0.0126096 -0.00551168
0.0626765 -0.00994373 -0.00551168
0.0605336 -0.00731663 -0.00551168
0.0583395 -0.00473208 -0.00551168
0.0560914 -0.00219437 -0.00551168
0.0537863 0.000291632 -0.00551168
0.051421 0.00272041 -0.00551168
0.0489922 0.00508564 -0.00551168
0.0464964 0.00738012 -0.00551168
0.0439303 0.00959562 -0.00551168
0.0412905 0.0117228 -0.00551168
[...]
CELL_DATA 2965
SCALARS rho float
LOOKUP_TABLE default
0.534037
0.328722
0.524883
0.314091
0.542182
0.344208
0.533942
0.329894
0.343805
0.525866
0.313851
0.328574
0.425706
0.536534
0.518111
0.517137
0.527217
0.516876
0.545039
0.528916
0.534065
0.319826
0.509694
0.537706
0.535547
0.547663
0.458686
0.479983
0.317994
0.505437
0.502158
0.327383
0.552663
0.529698
0.281125
0.344526
0.528815
0.533571
0.307543
0.506016
0.529954
0.502914
0.534492
0.32684
0.32662
0.533286
0.45889
0.47109
0.311492
0.534052
0.38992
0.316987
0.328165
0.425137
0.315467
0.420221
0.343979
0.30906
0.271929
0.476301
0.51601
0.476935
0.320674
0.544233
0.48695
0.533886
0.533998
0.316952
0.30118
0.335349
0.518621
0.543672
0.53401
0.288002
0.500421
0.409584
0.533898
0.316562
0.322218
0.467811
0.534022
0.319904
0.329191
0.434734
0.481823
0.374165
0.312846
0.272196
0.553582
0.341959
0.306395
0.533213
0.517951
0.514421
0.534041
0.309049
0.457503
0.292525
0.334721
0.324506
0.474542
0.323715
0.331485
0.327349
0.336311
0.528662
0.533882
0.320382
0.310338
0.533914
0.245799
0.391207
0.470186
0.494123
0.301676
0.29886
0.506594
0.455247
0.534102
0.328083
0.534016
0.238438
0.540058
0.541385
0.493704
0.400082
0.324857
0.45944
0.531701
0.267422
0.330513
0.42759
0.532373
0.333085
0.460404
0.328378
0.426733
0.516775
0.554108
0.542176
0.332642
0.516211
0.528024
0.330357
0.280178
0.545527
0.31548
0.541383
0.554523
0.336818
0.32647
0.322144
0.33171
0.318545
0.280503
0.269456
0.533936
0.531891
0.525548
0.540065
0.452321
0.46178
0.40715
0.543093
0.344591
0.533945
0.416082
0.327825
0.534005
0.536101
0.481228
0.299188
0.433366
0.519932
0.547295
0.413697
0.511833
0.357971
0.259576
0.416724
0.333438
0.25936
0.308927
0.300958
0.554821
0.533948
0.320534
0.326089
0.389018
0.324364
0.308419
0.309989
0.450958
0.292565
0.53403
0.463318
0.534459
0.486086
0.439991
0.3212
0.328871
0.317378
0.528416
0.443572
0.533952
0.304828
0.428053
0.534021
0.519851
0.534738
0.496456
0.397548
0.339854
0.337075
0.505909
0.335998
0.460406
0.320834
0.517665
0.324075
0.343743
0.32964
0.459016
0.381905
0.545667
0.281367
0.533957
0.522542
0.32002
0.479692
0.322325
0.278784
0.536243
0.309307
0.533698
0.536183
0.315011
0.531174
0.325511
0.350286
0.372265
0.325482
0.54396
0.522954
0.326417
0.244462
0.52615
0.533883
0.446825
0.505903
0.322831
0.319823
0.533939
0.329635
0.481572
0.275136
0.270541
0.534101
0.533455
0.334297
0.464323
0.325473
0.543142
0.345083
0.53512
0.534077
0.266452
0.472386
0.520675
0.299264
0.327341
0.534161
0.326837
0.550526
0.509823
0.32773
0.515067
0.514899
0.551531
0.531612
0.546561
0.468098
0.529487
0.533846
0.320978
0.313613
0.523471
0.539461
0.331573
0.531692
0.462354
0.318245
0.329627
0.325258
0.477446
0.316874
0.533911
0.480022
0.549978
0.323155
0.483209
0.485452
0.476586
0.53358
0.31928
0.236576
0.545081
0.533922
0.533925
0.315651
0.329522
0.481772
0.288809
0.295347
0.491915
0.533985
0.484708
0.244816
0.318199
0.482333
0.494068
0.324684
0.534238
0.533951
0.328581
0.414365
0.533469
0.514983
0.280709
0.32686
0.534136
0.334999
0.537631
0.363881
0.539904
0.391555
0.369222
0.331196
0.326319
0.302073
0.511414
0.547771
0.526334
0.543001
0.485073
0.473808
0.311441
0.53457
0.547052
0.335988
0.310003
0.534166
0.31339
0.516809
0.47225
0.334391
0.328959
0.327476
0.312539
0.533961
0.331748
0.332821
0.3796
0.32536
0.533491
0.534324
0.472238
0.533911
0.325648
0.531389
0.327527
0.534176
0.311843
0.333354
0.5357
0.46536
0.279153
0.257124
0.532542
0.360393
0.500236
0.514455
0.321487
0.530809
0.280118
0.335853
0.534227
0.294958
0.53599
0.274717
0.379685
0.329398
0.536249
0.468508
0.433964
0.533869
0.298955
0.546493
0.34088
0.309858
0.54911
0.305423
0.540412
0.421232
0.48724
0.278706
0.295309
0.309235
0.278977
0.308886
0.335823
0.530108
0.534385
0.534632
0.534054
0.328017
0.538423
0.465959
0.520055
0.253865
0.533376
0.34261
0.484255
0.475659
0.316245
0.534049
0.354448
0.522299
0.314847
0.488182
0.534978
0.304112
0.533062
0.257908
0.537941
0.322132
0.310121
0.415837
0.543272
0.540457
0.397984
0.273583
0.249659
0.416835
0.54281
0.528317
0.533609
0.531695
0.537131
0.308668
0.513819
0.483898
0.332049
0.26293
0.301473
0.497968
0.535967
0.365792
0.379823
0.370661
0.337753
0.528401
0.534923
0.534022
0.54862
0.39809
0.533883
0.535503
0.330456
0.539523
0.345977
0.350778
0.531817
0.534657
0.537317
0.545398
0.317987
0.325974
0.552815
0.530552
0.317954
0.529687
0.501188
0.53462
0.343351
0.32007
0.535668
0.327089
0.453026
0.534789
0.535903
0.336078
0.533493
0.325886
0.327346
0.317797
0.345264
0.533513
0.362866
0.516908
0.283067
0.321505
0.526743
0.33612
0.291227
0.335765
0.275364
0.359032
0.32609
0.322856
0.426691
0.438002
0.312671
0.342707
0.535941
0.326368
0.394993
0.533487
0.533815
0.494592
0.489912
0.436502
0.443787
0.288997
0.373428
0.533681
0.498622
0.271944
0.508358
0.241703
0.291688
0.303927
0.533777
0.551094
0.325713
0.496919
0.53207
0.282796
0.317615
0.541667
0.533957
0.360349
0.543393
0.379805
0.332174
0.541697
0.325584
0.45312
0.527188
0.405995
0.542572
0.308413
0.329923
0.537349
0.368638
0.334697
0.343852
0.323778
0.322332
0.533905
0.53984
0.523198
0.310501
0.256421
0.335447
0.32494
0.530392
0.270847
0.423256
0.325347
0.531695
0.533586
0.302001
0.534075
0.390773
0.490426
0.297973
0.527537
0.533472
0.554114
0.535096
0.534032
0.526032
0.343662
0.425116
0.331247
0.527657
0.312817
0.316765
0.532545
0.533869
0.533468
0.325415
0.318916
0.539036
0.541196
0.302891
0.534412
0.29187
0.307239
0.326302
0.552763
0.538507
0.522724
0.295469
0.299741
0.337321
0.323527
0.537596
0.533992
0.546142
0.325173
0.308706
0.456787
0.547116
0.543644
0.510007
0.533929
0.412576
0.536152
0.541704
0.516899
0.326964
0.53674
0.49496
0.53396
0.536208
0.545723
0.485967
0.380365
0.546267
0.329472
0.544257
0.533866
0.234189
0.533979
0.462745
0.53544
0.324701
0.314641
0.534094
0.300371
0.321006
0.548428
0.300232
0.41577
0.537573
0.287655
0.546357
0.324338
0.492438
0.532938
0.528096
0.501765
0.32437
0.323141
0.521647
0.43668
0.330075
0.480227
0.314687
0.534038
0.31591
0.459415
0.518966
0.534065
0.315998
0.492441
0.342643
0.408834
0.414052
0.334882
0.276865
0.319738
0.534114
0.458658
0.436318
0.309137
0.534101
0.489594
0.308974
0.53406
0.325448
0.456938
0.519321
0.533965
0.537279
0.295425
0.3272
0.534013
0.54458
0.522704
0.489231
0.542787
0.479556
0.465698
0.30911
0.502994
0.388091
0.345165
0.359639
0.533942
0.549375
0.508418
0.393544
0.326072
0.541258
0.331029
0.33601
0.403295
0.310769
0.456049
0.328244
0.533956
0.325948
0.306039
0.414254
0.544709
0.326976
0.30746
0.548914
0.543627
0.551189
0.320777
0.306815
0.538583
0.335844
0.3069
0.326505
0.435953
0.525018
0.267524
0.550527
0.328426
0.505895
0.533801
0.318689
0.407927
0.478075
0.500571
0.494857
0.540818
0.538375
0.544493
0.535003
0.533995
0.327782
0.381221
0.521819
0.291924
0.543347
0.525988
0.264634
0.53203
0.47535
0.512805
0.539386
0.469676
0.531788
0.314059
0.491615
0.334561
0.299459
0.534867
0.534067
0.271633
0.329015
0.531089
0.392382
0.453234
0.294862
0.249265
0.548535
0.516238
0.544097
0.513357
0.462576
0.376647
0.453447
0.315155
0.534025
0.504361
0.495136
0.332746
0.381176
0.544423
0.498106
0.539305
0.137602
0.534063
0.31327
0.320238
0.326688
0.520015
0.52162
0.540616
0.471952
0.335279
0.534035
0.386844
0.54591
0.547149
0.492466
0.317572
0.314547
0.53434
0.334053
0.424729
0.474506
0.320174
0.326279
0.517298
0.54228
0.319494
0.534065
0.532925
0.314161
0.534076
0.535198
0.538546
0.344187
0.338887
0.542102
0.327955
0.328465
0.407783
0.534011
0.323243
0.376624
0.320562
0.297607
0.538084
0.32652
0.317352
0.543143
0.326748
0.325906
0.552781
0.537913
0.534428
0.533931
0.492979
0.326871
0.551505
0.533292
0.31669
0.537146
0.534891
0.533974
0.533976
0.344043
0.533996
0.328807
0.533998
0.323239
0.533964
0.33226
0.518443
0.316297
0.540575
0.545142
0.550113
0.484808
0.534286
0.536815
0.289436
0.533987
0.266034
0.533956
0.538257
0.322959
0.405813
0.325358
0.325335
0.533958
0.361933
0.5335
0.139255
0.505059
0.508922
0.540337
0.397693
0.32865
0.265866
0.31503
0.27153
0.536694
0.364733
0.311432
0.535071
0.337007
0.354255
0.532717
0.533072
0.501233
0.535817
0.255984
0.48722
0.314807
0.534015
0.534492
0.52449
0.290165
0.540425
0.535786
0.541463
0.498213
0.533259
0.382601
0.53392
0.540175
0.442905
0.534216
0.309802
0.518442
0.340606
0.420517
0.519998
0.490516
0.53079
0.474416
0.487485
0.537261
0.308488
0.524053
0.32627
0.332168
0.540659
0.512772
0.478831
0.520015
0.531762
0.534011
0.537229
0.534038
0.534194
0.534467
0.552019
0.342562
0.501781
0.531211
0.321913
0.534152
0.317276
0.471758
0.318938
0.534081
0.315976
0.313444
0.301433
0.470007
0.535084
0.428502
0.516453
0.318856
0.332523
0.533916
0.535292
0.314254
0.502627
0.445783
0.326942
0.504034
0.327279
0.314424
0.53413
0.480257
0.310302
0.51896
0.533151
0.524321
0.32327
0.515875
0.259998
0.53395
0.378528
0.510115
0.325484
0.548088
0.30272
0.327359
0.310784
0.515863
0.302539
0.498071
0.546558
0.470602
0.344135
0.314764
0.542166
0.314256
0.237108
0.321875
0.535562
0.318768
0.330686
0.267065
0.499645
0.332316
0.330008
0.326918
0.533844
0.54932
0.336598
0.538666
0.537937
0.495827
0.320848
0.318735
0.533899
0.311052
0.554653
0.328955
0.531436
0.31988
0.22506
0.514452
0.319716
0.322476
0.321991
0.534103
0.304827
0.446082
0.537262
0.310196
0.516421
0.326059
0.549105
0.418413
0.31102
0.330186
0.535048
0.440855
0.534135
0.316804
0.335189
0.439713
0.533982
0.3068
0.319658
0.324384
0.415954
0.536969
0.345973
0.450169
0.53167
0.534118
0.526268
0.325652
0.535858
0.321855
0.534483
0.534557
0.460738
0.333051
0.490858
0.53763
0.31085
0.537901
0.53814
0.329614
0.323412
0.314303
0.273388
0.542515
0.321426
0.533985
0.382904
0.533974
0.495341
0.374251
0.51121
0.302129
0.480025
0.317414
0.533796
0.533329
0.265977
0.325972
0.322531
0.465707
0.552657
0.313813
0.295013
0.330074
0.451625
0.546644
0.290971
0.314695
0.526058
0.536717
0.527969
0.325777
0.325014
0.524012
0.533799
0.309333
0.324011
0.437824
0.549575
0.492623
0.307875
0.534153
0.53508
0.314968
0.538401
0.325269
0.539186
0.313115
0.35925
0.309431
0.282763
0.53368
0.319448
0.32023
0.322579
0.336869
0.48387
0.529402
0.549513
0.311033
0.533951
0.535558
0.535123
0.546753
0.53368
0.547829
0.548602
0.548411
0.538115
0.532815
0.304464
0.487676
0.549329
0.32596
0.540712
0.544661
0.536813
0.535355
0.307182
0.542276
0.534027
0.536664
0.329834
0.506151
0.53007
0.534003
0.529673
0.322823
0.486767
0.341421
0.414402
0.334649
0.334836
0.312732
0.323772
0.534198
0.53327
0.522479
0.320577
0.534673
0.534079
0.537481
0.326224
0.32958
0.519167
0.300866
0.312175
0.325816
0.536521
0.41963
0.534598
0.318934
0.546144
0.533373
0.457223
0.53897
0.334242
0.550059
0.53556
0.512985
0.539332
0.534174
0.5206
0.324357
0.343894
0.330718
0.533806
0.304398
0.534383
0.52104
0.495143
0.32826
0.34492
0.483357
0.541689
0.533924
0.327467
0.525585
0.478665
0.266368
0.534182
0.314764
0.328113
0.313506
0.314397
0.334963
0.539521
0.5357
0.552161
0.443541
0.532957
0.533766
0.517929
0.534117
0.546407
0.54845
0.533703
0.53384
0.32439
0.533935
0.528197
0.42694
0.321428
0.503878
0.298568
0.537276
0.370678
0.539022
0.545461
0.329071
0.536211
0.323327
0.535453
0.53225
0.547012
0.489656
0.516178
0.545512
0.533694
0.342709
0.44544
0.422611
0.252854
0.534254
0.538145
0.44391
0.550605
0.526706
0.533946
0.315997
0.31969
0.527809
0.546195
0.315633
0.193829
0.514823
0.534305
0.534912
0.270977
0.457019
0.513518
0.532878
0.322365
0.534068
0.484494
0.525588
0.505075
0.439836
0.534155
0.29855
0.531266
0.308822
0.327121
0.534142
0.344857
0.345956
0.323772
0.525624
0.510529
0.443086
0.534117
0.431019
0.34902
0.324504
0.542408
0.532482
0.539711
0.489355
0.25365
0.522598
0.432813
0.308988
0.532461
0.540342
0.327111
0.53628
0.529347
0.533952
0.445952
0.533636
0.360956
0.534263
0.531145
0.533624
0.336803
0.525384
0.386189
0.508937
0.533755
0.544731
0.530719
0.53467
0.53463
0.532912
0.518229
0.321646
0.541903
0.510649
0.329468
0.495732
0.536835
0.550979
0.499437
0.30869
0.531114
0.330919
0.545732
0.490153
0.538625
0.32298
0.513397
0.534469
0.534029
0.52547
0.4788
0.534044
0.466689
0.386437
0.323491
0.275671
0.533944
0.340398
0.300713
0.536661
0.316138
0.543838
0.314388
0.53621
0.316838
0.324254
0.521288
0.395334
0.298888
0.531022
0.533264
0.537958
0.336598
0.506644
0.534115
0.531874
0.325042
0.534014
0.534865
0.319556
0.482465
0.462395
0.523261
0.329019
0.391616
0.510427
0.309034
0.537931
0.329524
0.329678
0.533883
0.386166
0.507315
0.315295
0.539808
0.425004
0.534023
0.221848
0.322472
0.533908
0.337863
0.534045
0.342444
0.53451
0.485565
0.466488
0.534053
0.502509
0.261426
0.534893
0.548788
0.531743
0.534012
0.318745
0.328575
0.317908
0.32982
0.533898
0.335514
0.51368
0.322027
0.532674
0.534602
0.533822
0.322562
0.534574
0.319766
0.534766
0.541418
0.34667
0.533762
0.525385
0.309796
0.521863
0.314839
0.343847
0.549202
0.332099
0.543369
0.22481
0.333501
0.512927
0.356221
0.538772
0.327043
0.461424
0.533068
0.530167
0.385832
0.269294
0.329589
0.533992
0.534032
0.335892
0.535227
0.321063
0.532707
0.321695
0.316917
0.468043
0.474697
0.419544
0.49586
0.534122
0.492188
0.473645
0.536121
0.533908
0.32659
0.535047
0.329735
0.337352
0.496151
0.406811
0.395419
0.442535
0.327359
0.51495
0.534061
0.53714
0.322483
0.314173
0.450981
0.505801
0.534444
0.54586
0.313181
0.499635
0.532757
0.507837
0.440097
0.320295
0.324242
0.328116
0.554691
0.537051
0.30807
0.323335
0.436678
0.325147
0.549302
0.513191
0.319349
0.533935
0.404569
0.540777
0.536673
0.317648
0.343648
0.50701
0.317232
0.39428
0.533079
0.273904
0.317075
0.324739
0.508031
0.536173
0.505703
0.333025
0.311119
0.528723
0.535004
0.494545
0.538875
0.312127
0.322587
0.332875
0.498014
0.307208
0.319536
0.537898
0.541647
0.514414
0.325005
0.327262
0.324753
0.53402
0.302754
0.532879
0.533988
0.530251
0.428269
0.534179
0.549191
0.331497
0.32337
0.535626
0.320452
0.465665
0.526125
0.541842
0.437025
0.310182
0.307344
0.541548
0.403336
0.311446
0.534417
0.534091
0.2962
0.320856
0.51342
0.442449
0.327755
0.333973
0.540311
0.490369
0.529068
0.474578
0.3544
0.309726
0.34052
0.380428
0.318964
0.534003
0.528549
0.470316
0.51176
0.339824
0.503987
0.3439
0.533354
0.545724
0.329651
0.264918
0.529749
0.385027
0.472526
0.53513
0.301946
0.5309
0.527991
0.533735
0.534057
0.50629
0.343852
0.335928
0.313575
0.511039
0.533921
0.514194
0.443914
0.326785
0.335849
0.492485
0.327882
0.538366
0.533739
0.533016
0.347381
0.324662
0.46463
0.507292
0.534032
0.526711
0.534213
0.533951
0.535923
0.481826
0.252942
0.534
0.497862
0.534658
0.31467
0.529858
0.423883
0.528719
0.552064
0.445969
0.491784
0.531789
0.50935
0.534008
0.326752
0.53187
0.550979
0.342334
0.505511
0.301952
0.298812
0.534016
0.534002
0.333363
0.48328
0.533752
0.331123
0.341338
0.556996
0.549903
0.471205
0.346887
0.495655
0.326291
0.542852
0.548873
0.319228
0.454602
0.500431
0.32372
0.312712
0.339736
0.539047
0.532108
0.311547
0.328043
0.338897
0.335957
0.336159
0.50173
0.324803
0.550798
0.535109
0.541707
0.318311
0.532954
0.446572
0.531929
0.443273
0.52947
0.315104
0.302253
0.324965
0.534105
0.327439
0.322886
0.496961
0.331381
0.53405
0.507019
0.425171
0.320511
0.318783
0.522647
0.535989
0.527614
0.525493
0.542669
0.313035
0.342577
0.312234
0.509807
0.534784
0.321175
0.51771
0.325852
0.338668
0.534144
0.319009
0.337225
0.259944
0.370801
0.328963
0.534366
0.538357
0.537767
0.33782
0.533726
0.542292
0.320982
0.534353
0.375375
0.539908
0.34437
0.387649
0.533491
0.325926
0.264838
0.52975
0.524135
0.320378
0.54614
0.498468
0.533084
0.398717
0.317661
0.50143
0.534061
0.365673
0.352435
0.422802
0.398585
0.534141
0.326692
0.319502
0.541024
0.51605
0.330325
0.317522
0.531689
0.325721
0.322714
0.318244
0.454812
0.544748
0.317369
0.540042
0.319271
0.301473
0.342856
0.405516
0.329443
0.539432
0.318442
0.337125
0.481178
0.538693
0.354421
0.533953
0.312552
0.325744
0.510453
0.552352
0.523345
0.513075
0.518921
0.546077
0.322806
0.539038
0.297998
0.533955
0.526794
0.410734
0.524798
0.534009
0.533923
0.533784
0.43219
0.341905
0.429748
0.330378
0.502436
0.532435
0.495858
0.322643
0.536071
0.368507
0.533962
0.325103
0.308233
0.556403
0.298468
0.528845
0.551794
0.377029
0.330462
0.331443
0.533638
0.393105
0.267517
0.540582
0.327327
0.525733
0.340207
0.336793
0.316674
0.535229
0.390354
0.534067
0.322481
0.33709
0.534145
0.532672
0.282891
0.358645
0.26899
0.481438
0.329515
0.52063
0.530656
0.533975
0.237895
0.321596
0.450301
0.530781
0.548185
0.532745
0.297866
0.513897
0.537514
0.533962
0.534039
0.315544
0.521807
0.329527
0.449705
0.542587
0.537211
0.529989
0.544617
0.498106
0.532194
0.544088
0.533674
0.522592
0.536438
0.533784
0.535551
0.325085
0.32772
0.534295
0.475821
0.534056
0.533953
0.548168
0.519586
0.545066
0.329602
0.324898
0.534041
0.323651
0.321811
0.33276
0.533978
0.523531
0.533984
0.509848
0.523197
0.310992
0.537828
0.311225
0.312361
0.545658
0.525814
0.524629
0.398936
0.395794
0.326744
0.32456
0.384405
0.302887
0.357668
0.544073
0.300368
0.531251
0.329195
0.539561
0.53306
0.286151
0.335076
0.497006
0.534035
0.327435
0.508969
0.26707
0.317447
0.323173
0.448659
0.53503
0.534027
0.534212
0.241702
0.341704
0.273375
0.333655
0.533993
0.547301
0.538593
0.3298
0.311994
0.533817
0.532793
0.536444
0.303682
0.480903
0.465198
0.543274
0.430026
0.338375
0.337766
0.317413
0.535803
0.323843
0.323974
0.533987
0.335626
0.534245
0.342201
0.343005
0.399201
0.339076
0.545603
0.534035
0.534283
0.444798
0.554134
0.510406
0.475778
0.343108
0.507725
0.530143
0.509757
0.536463
0.532785
0.539672
0.425059
0.532656
0.535356
0.332394
0.329243
0.549018
0.400379
0.533472
0.326543
0.54607
0.360571
0.52613
0.534445
0.50849
0.533072
0.539029
0.515205
0.311381
0.336851
0.537465
0.54688
0.533325
0.433517
0.544285
0.446443
0.49414
0.533744
0.472216
0.464016
0.540436
0.533963
0.332427
0.311381
0.534461
0.502224
0.327303
0.337409
0.423372
0.534041
0.533968
0.550463
0.333054
0.524576
0.300676
0.536703
0.326298
0.544499
0.290604
0.549137
0.335907
0.531425
0.445389
0.324522
0.305668
0.471103
0.326567
0.485231
0.312904
0.534129
0.534033
0.530359
0.527926
0.534154
0.534964
0.533834
0.549719
0.54153
0.50187
0.51577
0.496256
0.538318
0.3207
0.500638
0.499493
0.532638
0.313027
0.49796
0.5454
0.533909
0.329773
0.318432
0.329963
0.544204
0.497984
0.321893
0.500415
0.391112
0.5341
0.313491
0.412116
0.341745
0.303187
0.552835
0.325324
0.508451
0.324803
0.551204
0.331641
0.534113
0.502708
0.52924
0.345255
0.342118
0.352982
0.515938
0.324763
0.351289
0.32214
0.540521
0.518915
0.544319
0.523258
0.530835
0.511538
0.383298
0.339888
0.530852
0.319733
0.447965
0.527065
0.549919
0.222353
0.318591
0.522948
0.533895
0.408969
0.525077
0.534994
0.518464
0.33219
0.542868
0.520132
0.532036
0.533328
0.323886
0.53401
0.324063
0.53213
0.542207
0.504858
0.533258
0.346964
0.537395
0.225207
0.36034
0.500417
0.508053
0.529724
0.451617
0.328955
0.53215
0.535972
0.321167
0.316284
0.298673
0.548331
0.335374
0.325809
0.325897
0.327431
0.308517
0.369279
0.542569
0.302884
0.539672
0.524
0.326576
0.535763
0.321202
0.547713
0.303208
0.461228
0.321926
0.527278
0.534551
0.398944
0.49749
0.534099
0.521046
0.322358
0.480381
0.430486
0.310768
0.322974
0.405304
0.304517
0.54431
0.29758
0.331532
0.323272
0.534032
0.528302
0.311426
0.319442
0.545186
0.326187
0.323124
0.53398
0.329783
0.328085
0.341851
0.551378
0.503439
0.547405
0.326001
0.291613
0.538383
0.518219
0.533889
0.396515
0.50815
0.529861
0.415225
0.4028
0.322273
0.322456
0.23763
0.493052
0.301397
0.5466
0.512804
0.53307
0.331361
0.410295
0.419967
0.556367
0.29652
0.482756
0.241731
0.492142
0.320993
0.280846
0.289453
0.537434
0.314528
0.550826
0.34109
0.380198
0.326374
0.472118
0.314012
0.543473
0.335247
0.504459
0.487485
0.322143
0.534371
0.534346
0.318012
0.547795
0.345629
0.328196
0.542387
0.300162
0.515632
0.351764
0.233613
0.533574
0.319545
0.352025
0.343259
0.332912
0.318406
0.515521
0.435809
0.52859
0.547213
0.528368
0.543262
0.411465
0.537937
0.296692
0.53471
0.328214
0.526521
0.314748
0.389089
0.52524
0.548787
0.535263
0.35417
0.440173
0.334205
0.341994
0.34372
0.231481
0.537182
0.410196
0.546776
0.533578
0.485006
0.539048
0.534705
0.393822
0.328757
0.366407
0.541354
0.484813
0.502377
0.534283
0.551487
0.417436
0.287916
0.340535