# vtk DataFile Version 1.0
unstructured grid
ascii
DATASET UNSTRUCTURED_GRID
points 3226 float
0.0796578 -0.059106 0
0.00128732 0.00159165 0
0.00227961 -0.00102548 0
0.0791586 -0.0598787 0
-0.0546216 0.01 0
0.000495206 0.025 0
0.0800549 -0.035 0
0.135172 -0.08 0
-0.0546216 -0.0451168 0
0.000495206 -0.0301168 0
0.0800549 -0.0901168 0
0.135172 -0.135117 0
-0.0546216 -0.0451168 -0.00551168
0.000495206 -0.0301168 -0.00551168
0.0800549 -0.0901168 -0.00551168
0.135172 -0.135117 -0.00551168
0.135172 -0.08 -0.00551168
0.0800549 -0.035 -0.00551168
0.000495206 0.025 -0.00551168
-0.0546216 0.01 -0.00551168
0.00128732 0.00159165 -0.00551168
0.00227961 -0.00102548 -0.00551168
0.0791586 -0.0598787 -0.00551168
0.0796578 -0.059106 -0.00551168
0.00110182 -0.000823821 0
0.000571683 -0.000188043 0
0.000561313 0.000639162 0
0.00189316 0.00207203 0
0.00260228 0.00255358 0
0.0033966 0.00307293 0
0.00428861 0.00362634 0
0.00529726 0.0041979 0
0.00644092 0.00476696 0
0.00773158 0.0053187 0
0.00918011 0.00583593 0
0.010799 0.00628751 0
0.012597 0.00663225 0
0.0145725 0.0068517 0
0.0167206 0.0069338 0
0.0190349 0.00685819 0
0.0215031 0.00658621 0
0.0241038 0.00607459 0
0.026821 0.00533786 0
0.0296245 0.00434523 0
0.0324763 0.00306927 0
0.0353199 0.00146906 0
0.0381488 -0.00039338 0
0.0409131 -0.00252802 0
0.0435632 -0.00493276 0
0.0460882 -0.0075571 0
0.0484881 -0.0103478 0
0.0506782 -0.0133217 0
0.0526651 -0.016422 0
0.0546139 -0.0195019 0
0.0565301 -0.022529 0
0.0584009 -0.0254846 0
0.0602154 -0.0283513 0
0.061964 -0.031114 0
0.0636389 -0.0337601 0
0.0652336 -0.0362795 0
0.0667431 -0.0386651 0
0.0681656 -0.0409111 0
0.0694983 -0.0430158 0
0.0707356 -0.0449823 0
0.071886 -0.0468071 0
0.0729575 -0.04849 0
0.0739438 -0.0500408 0
0.0748444 -0.0514675 0
0.0756707 -0.0527715 0
0.0764313 -0.053958 0
0.0771224 -0.0550398 0
0.0777384 -0.0560288 0
0.0782803 -0.0569318 0
0.0787691 -0.0577448 0
0.0792251 -0.0584672 0
0.0800494 -0.0597378 0
0.0797987 -0.0601582 0
0.0786655 -0.059391 0
0.0781259 -0.0588425 0
0.0775539 -0.0582102 0
0.0769587 -0.0574783 0
0.0763492 -0.0566339 0
0.075723 -0.0556725 0
0.0750452 -0.0546094 0
0.0742996 -0.0534457 0
0.073478 -0.0521785 0
0.072577 -0.0508019 0
0.0715904 -0.049313 0
0.0705098 -0.047712 0
0.069328 -0.0459996 0
0.0680378 -0.0441794 0
0.066632 -0.0422571 0
0.0651046 -0.0402413 0
0.0634508 -0.0381431 0
0.0616683 -0.0359754 0
0.0597581 -0.033753 0
0.0577255 -0.0314906 0
0.0555808 -0.0292024 0
0.0533388 -0.0269013 0
0.0510024 -0.0246151 0
0.0485693 -0.0223811 0
0.0460535 -0.0202228 0
0.0434788 -0.0181535 0
0.0408704 -0.0161833 0
0.0382442 -0.0143327 0
0.0356165 -0.0126209 0
0.0330065 -0.0110594 0
0.0304368 -0.00965062 0
0.0279338 -0.00838121 0
0.0255194 -0.00723697 0
0.0231965 -0.00623664 0
0.020983 -0.00535765 0
0.0188891 -0.00458677 0
0.0169193 -0.00391673 0
0.0150754 -0.00334068 0
0.0133572 -0.00285262 0
0.0117634 -0.0024437 0
0.0102912 -0.00210643 0
0.0089363 -0.00183343 0
0.00769424 -0.00161552 0
0.00655956 -0.00144452 0
0.00552632 -0.00131235 0
0.00458815 -0.00121216 0
0.00373885 -0.00113394 0
0.00297202 -0.00106855 0
-0.0506847 -0.0440454 0
-0.0467478 -0.0429739 0
-0.0428108 -0.0419025 0
-0.0388739 -0.0408311 0
-0.034937 -0.0397597 0
-0.0310001 -0.0386882 0
-0.0270632 -0.0376168 0
-0.0231263 -0.0365454 0
-0.0191894 -0.0354739 0
-0.0152525 -0.0344025 0
-0.0113155 -0.0333311 0
-0.00737862 -0.0322597 0
-0.00344171 -0.0311882 0
0.0038716 -0.0298185 0
0.00726082 -0.0297726 0
0.010644 -0.0299802 0
0.0140027 -0.0304367 0
0.0173201 -0.0311326 0
0.0205821 -0.0320541 0
0.0237776 -0.0331851 0
0.0268988 -0.0345078 0
0.0299406 -0.0360041 0
0.0329005 -0.0376567 0
0.035778 -0.039449 0
0.038574 -0.0413659 0
0.0412905 -0.043394 0
0.0439303 -0.0455212 0
0.0464964 -0.0477367 0
0.0489922 -0.0500312 0
0.051421 -0.0523964 0
0.0537863 -0.0548252 0
0.0560914 -0.0573112 0
0.0583395 -0.0598489 0
0.0605336 -0.0624334 0
0.0626765 -0.0650605 0
0.064771 -0.0677264 0
0.0668197 -0.0704277 0
0.0688248 -0.0731615 0
0.0707885 -0.0759252 0
0.072713 -0.0787163 0
0.0746002 -0.0815329 0
0.0764517 -0.0843729 0
0.0782695 -0.0872347 0
0.0829558 -0.0924852 0
0.0858567 -0.0948536 0
0.0887575 -0.0972221 0
0.0916584 -0.0995905 0
0.0945593 -0.101959 0
0.0974602 -0.104327 0
0.100361 -0.106696 0
0.103262 -0.109064 0
0.106163 -0.111433 0
0.109064 -0.113801 0
0.111965 -0.116169 0
0.114865 -0.118538 0
0.117766 -0.120906 0
0.120667 -0.123275 0
0.123568 -0.125643 0
0.126469 -0.128012 0
0.12937 -0.13038 0
0.132271 -0.132748 0
0.135172 -0.13118 0
0.135172 -0.127243 0
0.135172 -0.123306 0
0.135172 -0.119369 0
0.135172 -0.115432 0
0.135172 -0.111495 0
0.135172 -0.107558 0
0.135172 -0.103621 0
0.135172 -0.0996846 0
0.135172 -0.0957477 0
0.135172 -0.0918107 0
0.135172 -0.0878738 0
0.135172 -0.0839369 0
0.132271 -0.0776316 0
0.12937 -0.0752632 0
0.126469 -0.0728947 0
0.123568 -0.0705263 0
0.120667 -0.0681579 0
0.117766 -0.0657895 0
0.114865 -0.0634211 0
0.111965 -0.0610526 0
0.109064 -0.0586842 0
0.106163 -0.0563158 0
0.103262 -0.0539474 0
0.100361 -0.0515789 0
0.0974602 -0.0492105 0
0.0945593 -0.0468421 0
0.0916584 -0.0444737 0
0.0887575 -0.0421053 0
0.0858567 -0.0397368 0
0.0829558 -0.0373684 0
0.0782695 -0.0321179 0
0.0764517 -0.0292561 0
0.0746002 -0.026416 0
0.072713 -0.0235995 0
0.0707885 -0.0208084 0
0.0688248 -0.0180447 0
0.0668197 -0.0153109 0
0.064771 -0.0126096 0
0.0626765 -0.00994373 0
0.0605336 -0.00731663 0
0.0583395 -0.00473208 0
0.0560914 -0.00219437 0
0.0537863 0.000291632 0
0.051421 0.00272041 0
0.0489922 0.00508564 0
0.0464964 0.00738012 0
0.0439303 0.00959562 0
0.0412905 0.0117228 0
0.038574 0.0137509 0
0.035778 0.0156678 0
0.0329005 0.0174601 0
0.0299406 0.0191127 0
0.0268988 0.020609 0
0.0237776 0.0219317 0
0.0205821 0.0230627 0
0.0173201 0.0239842 0
0.0140027 0.0246801 0
0.010644 0.0251366 0
0.00726082 0.0253442 0
0.0038716 0.0252983 0
-0.00344171 0.0239286 0
-0.00737862 0.0228571 0
-0.0113155 0.0217857 0
-0.0152525 0.0207143 0
-0.0191894 0.0196429 0
-0.0231263 0.0185714 0
-0.0270632 0.0175 0
-0.0310001 0.0164286 0
-0.034937 0.0153571 0
-0.0388739 0.0142857 0
-0.0428108 0.0132143 0
-0.0467478 0.0121429 0
-0.0506847 0.0110714 0
-0.0546216 0.00606309 0
-0.0546216 0.00212617 0
-0.0546216 -0.00181074 0
-0.0546216 -0.00574766 0
-0.0546216 -0.00968457 0
-0.0546216 -0.0136215 0
-0.0546216 -0.0175584 0
-0.0546216 -0.0214953 0
-0.0546216 -0.0254322 0
-0.0546216 -0.0293691 0
-0.0546216 -0.0333061 0
-0.0546216 -0.037243 0
-0.0546216 -0.0411799 0
-0.0506847 -0.0440454 -0.00551168
-0.0467478 -0.0429739 -0.00551168
-0.0428108 -0.0419025 -0.00551168
-0.0388739 -0.0408311 -0.00551168
-0.034937 -0.0397597 -0.00551168
-0.0310001 -0.0386882 -0.00551168
-0.0270632 -0.0376168 -0.00551168
-0.0231263 -0.0365454 -0.00551168
-0.0191894 -0.0354739 -0.00551168
-0.0152525 -0.0344025 -0.00551168
-0.0113155 -0.0333311 -0.00551168
-0.00737862 -0.0322597 -0.00551168
-0.00344171 -0.0311882 -0.00551168
0.0038716 -0.0298185 -0.00551168
0.00726082 -0.0297726 -0.00551168
0.010644 -0.0299802 -0.00551168
0.0140027 -0.0304367 -0.00551168
0.0173201 -0.0311326 -0.00551168
0.0205821 -0.0320541 -0.00551168
0.0237776 -0.0331851 -0.00551168
0.0268988 -0.0345078 -0.00551168
0.0299406 -0.0360041 -0.00551168
0.0329005 -0.0376567 -0.00551168
0.035778 -0.039449 -0.00551168
0.038574 -0.0413659 -0.00551168
0.0412905 -0.043394 -0.00551168
0.0439303 -0.0455212 -0.00551168
0.0464964 -0.0477367 -0.00551168
0.0489922 -0.0500312 -0.00551168
0.051421 -0.0523964 -0.00551168
0.0537863 -0.0548252 -0.00551168
0.0560914 -0.0573112 -0.00551168
0.0583395 -0.0598489 -0.00551168
0.0605336 -0.0624334 -0.00551168
0.0626765 -0.0650605 -0.00551168
0.064771 -0.0677264 -0.00551168
0.0668197 -0.0704277 -0.00551168
0.0688248 -0.0731615 -0.00551168
0.0707885 -0.0759252 -0.00551168
0.072713 -0.0787163 -0.00551168
0.0746002 -0.0815329 -0.00551168
0.0764517 -0.0843729 -0.00551168
0.0782695 -0.0872347 -0.00551168
0.0829558 -0.0924852 -0.00551168
0.0858567 -0.0948536 -0.00551168
0.0887575 -0.0972221 -0.00551168
0.0916584 -0.0995905 -0.00551168
0.0945593 -0.101959 -0.00551168
0.0974602 -0.104327 -0.00551168
0.100361 -0.106696 -0.00551168
0.103262 -0.109064 -0.00551168
0.106163 -0.111433 -0.00551168
0.109064 -0.113801 -0.00551168
0.111965 -0.116169 -0.00551168
0.114865 -0.118538 -0.00551168
0.117766 -0.120906 -0.00551168
0.120667 -0.123275 -0.00551168
0.123568 -0.125643 -0.00551168
0.126469 -0.128012 -0.00551168
0.12937 -0.13038 -0.00551168
0.132271 -0.132748 -0.00551168
0.135172 -0.13118 -0.00551168
0.135172 -0.127243 -0.00551168
0.135172 -0.123306 -0.00551168
0.135172 -0.119369 -0.00551168
0.135172 -0.115432 -0.00551168
0.135172 -0.111495 -0.00551168
0.135172 -0.107558 -0.00551168
0.135172 -0.103621 -0.00551168
0.135172 -0.0996846 -0.00551168
0.135172 -0.0957477 -0.00551168
0.135172 -0.0918107 -0.00551168
0.135172 -0.0878738 -0.00551168
0.135172 -0.0839369 -0.00551168
0.132271 -0.0776316 -0.00551168
0.12937 -0.0752632 -0.00551168
0.126469 -0.0728947 -0.00551168
0.123568 -0.0705263 -0.00551168
0.120667 -0.0681579 -0.00551168
0.117766 -0.0657895 -0.00551168
0.114865 -0.0634211 -0.00551168
0.111965 -0.0610526 -0.00551168
0.109064 -0.0586842 -0.00551168
0.106163 -0.0563158 -0.00551168
0.103262 -0.0539474 -0.00551168
0.100361 -0.0515789 -0.00551168
0.0974602 -0.0492105 -0.00551168
0.0945593 -0.0468421 -0.00551168
0.0916584 -0.0444737 -0.00551168
0.0887575 -0.0421053 -0.00551168
0.0858567 -0.0397368 -0.00551168
0.0829558 -0.0373684 -0.00551168
0.0782695 -0.0321179 -0.00551168
0.0764517 -0.0292561 -0.00551168
0.0746002 -0.026416 -0.00551168
0.072713 -0.0235995 -0.00551168
0.0707885 -0.0208084 -0.00551168
0.0688248 -0.0180447 -0.00551168
0.0668197 -0.0153109 -0.00551168
0.064771 -0.0126096 -0.00551168
0.0626765 -0.00994373 -0.00551168
0.0605336 -0.00731663 -0.00551168
0.0583395 -0.00473208 -0.00551168
0.0560914 -0.00219437 -0.00551168
0.0537863 0.000291632 -0.00551168
0.051421 0.00272041 -0.00551168
0.0489922 0.00508564 -0.00551168
0.0464964 0.00738012 -0.00551168
0.0439303 0.00959562 -0.00551168
0.0412905 0.0117228 -0.00551168
[...]
CELL_DATA 2965
SCALARS rho float
LOOKUP_TABLE default
0.534184
0.335189
0.52521
0.322762
0.542497
0.354155
0.534051
0.335068
0.355616
0.526194
0.32247
0.337294
0.4261
0.53674
0.518438
0.517421
0.5275
0.516965
0.545348
0.529201
0.534211
0.324558
0.50972
0.537682
0.535868
0.547865
0.459059
0.480223
0.326944
0.505809
0.5025
0.335421
0.553011
0.530033
0.281435
0.354654
0.529116
0.533893
0.313263
0.506382
0.53026
0.503247
0.534668
0.332355
0.334544
0.533458
0.459256
0.471298
0.311849
0.534184
0.390291
0.32202
0.336476
0.425493
0.32429
0.420588
0.357652
0.319034
0.272225
0.476644
0.51634
0.477131
0.327333
0.544555
0.487076
0.534072
0.534106
0.322402
0.312709
0.342247
0.518724
0.543947
0.534118
0.295752
0.50076
0.409976
0.534034
0.321929
0.32752
0.468155
0.534117
0.326508
0.340817
0.435111
0.481936
0.374524
0.317344
0.27311
0.553633
0.356419
0.312885
0.533384
0.518161
0.514774
0.534223
0.31374
0.457873
0.300531
0.342114
0.330053
0.474883
0.329303
0.339027
0.333862
0.342776
0.528839
0.53402
0.323958
0.320158
0.534042
0.251173
0.391625
0.470537
0.494311
0.314415
0.308048
0.506529
0.455616
0.53424
0.335152
0.534108
0.23869
0.540273
0.54169
0.493752
0.400439
0.332836
0.459768
0.532043
0.267708
0.338653
0.42795
0.532693
0.340749
0.460773
0.341887
0.427138
0.516994
0.55444
0.542485
0.340464
0.516488
0.528332
0.330742
0.280634
0.545842
0.32257
0.541699
0.55486
0.346017
0.33333
0.329507
0.339398
0.324801
0.280831
0.270415
0.534051
0.532225
0.525513
0.540104
0.452689
0.462126
0.407495
0.543426
0.358056
0.534053
0.416451
0.333152
0.534132
0.536287
0.481574
0.299499
0.433714
0.520233
0.547625
0.414132
0.512183
0.358317
0.260358
0.417088
0.338889
0.260188
0.313387
0.301288
0.555159
0.534057
0.328997
0.333794
0.389389
0.333751
0.314006
0.318875
0.451333
0.292928
0.534144
0.463661
0.534779
0.4863
0.440343
0.326658
0.333918
0.345956
0.528586
0.443961
0.534049
0.312025
0.428404
0.534137
0.519924
0.534987
0.496655
0.397891
0.352097
0.346249
0.506213
0.341317
0.460768
0.326316
0.517965
0.333779
0.355598
0.3392
0.459365
0.382263
0.545857
0.290984
0.534051
0.522876
0.32047
0.480036
0.328101
0.285561
0.536449
0.314626
0.533867
0.536367
0.324002
0.531517
0.334138
0.35068
0.372614
0.332942
0.54428
0.523306
0.334432
0.251807
0.526459
0.534041
0.447208
0.506214
0.328381
0.328253
0.534054
0.338526
0.481551
0.27784
0.278405
0.534236
0.533626
0.341238
0.464621
0.325894
0.54341
0.355332
0.535467
0.534213
0.266738
0.472746
0.52101
0.306129
0.334125
0.534384
0.332987
0.550843
0.510122
0.334204
0.515188
0.515203
0.551773
0.531771
0.546887
0.468217
0.529712
0.534002
0.321367
0.319712
0.523437
0.539665
0.340445
0.531905
0.462707
0.326682
0.340789
0.332699
0.477803
0.321516
0.534049
0.480372
0.550168
0.331925
0.483556
0.485729
0.476934
0.533749
0.327771
0.236816
0.545377
0.534045
0.53406
0.321217
0.337945
0.482114
0.300765
0.302498
0.491797
0.534079
0.484878
0.251939
0.327642
0.482669
0.494054
0.330199
0.534405
0.534049
0.336973
0.414831
0.533639
0.515332
0.287439
0.334415
0.534281
0.343897
0.537928
0.364232
0.540122
0.391898
0.369578
0.336602
0.334172
0.302523
0.51146
0.548003
0.526534
0.543332
0.485319
0.474176
0.316786
0.534745
0.547382
0.342585
0.31896
0.534317
0.318788
0.517006
0.472336
0.341467
0.337025
0.335522
0.321196
0.534058
0.339115
0.341748
0.379967
0.33093
0.533678
0.534495
0.472612
0.53404
0.333715
0.53148
0.335124
0.534325
0.320557
0.337691
0.535931
0.465717
0.286995
0.257409
0.532744
0.360758
0.500567
0.514746
0.321952
0.531005
0.280849
0.344328
0.534391
0.30416
0.536203
0.275765
0.38005
0.334892
0.536479
0.468854
0.434313
0.534027
0.299288
0.546823
0.34128
0.326386
0.549443
0.325035
0.540751
0.421602
0.487576
0.279206
0.295753
0.32418
0.279634
0.323097
0.345143
0.530446
0.534561
0.534807
0.534184
0.343504
0.538733
0.46631
0.52011
0.255227
0.533544
0.356773
0.484457
0.475815
0.344159
0.534161
0.354807
0.522628
0.336447
0.488517
0.535262
0.323868
0.533145
0.258179
0.538202
0.326727
0.319799
0.416207
0.5436
0.540724
0.398469
0.280822
0.249936
0.417184
0.543138
0.528536
0.533798
0.531903
0.537338
0.318963
0.514165
0.48419
0.339535
0.267797
0.308441
0.498325
0.536156
0.366148
0.380171
0.371015
0.347073
0.528541
0.535101
0.534148
0.548946
0.398444
0.534047
0.535695
0.330838
0.539794
0.346332
0.351124
0.531896
0.534835
0.537609
0.545726
0.327321
0.335775
0.553165
0.530779
0.327384
0.529867
0.501538
0.534794
0.352751
0.340936
0.535861
0.335214
0.45338
0.534971
0.536092
0.342611
0.533672
0.33282
0.334041
0.32293
0.345696
0.533691
0.36321
0.517035
0.28359
0.326513
0.526926
0.342063
0.291574
0.342201
0.275671
0.359376
0.336237
0.328283
0.427039
0.438352
0.321516
0.355404
0.536154
0.334548
0.395372
0.533656
0.533974
0.494518
0.489993
0.43691
0.444144
0.300528
0.373784
0.533849
0.498899
0.280227
0.508605
0.247855
0.29204
0.323257
0.534052
0.551351
0.341058
0.496853
0.532233
0.283087
0.34563
0.541999
0.534081
0.360695
0.543724
0.380194
0.338927
0.542033
0.342773
0.453499
0.527522
0.406486
0.542894
0.317863
0.348243
0.537541
0.369019
0.339477
0.353267
0.330626
0.327572
0.534067
0.540105
0.523373
0.319795
0.256689
0.345369
0.341155
0.530591
0.283474
0.423651
0.341992
0.531838
0.533803
0.308568
0.534203
0.391135
0.490448
0.298299
0.527677
0.533812
0.554444
0.535449
0.534166
0.526163
0.353339
0.425542
0.342049
0.52799
0.318811
0.326515
0.532716
0.534011
0.533634
0.332729
0.327281
0.539252
0.54149
0.308464
0.534587
0.300781
0.30761
0.331845
0.553104
0.538679
0.523061
0.301211
0.300069
0.343388
0.330651
0.537791
0.534105
0.54647
0.332179
0.320116
0.457131
0.547448
0.543976
0.510192
0.534054
0.412947
0.536439
0.541983
0.516967
0.334133
0.53702
0.495251
0.534067
0.536395
0.546053
0.485919
0.380731
0.546499
0.341189
0.544565
0.534005
0.237355
0.534092
0.463091
0.535685
0.336476
0.323704
0.534256
0.30071
0.330125
0.548748
0.300569
0.416122
0.537884
0.28801
0.546652
0.328621
0.492807
0.53311
0.528279
0.501748
0.324785
0.328441
0.521953
0.437096
0.336026
0.480579
0.315027
0.534182
0.324928
0.459771
0.519086
0.534189
0.3245
0.492774
0.355468
0.409194
0.414448
0.344696
0.277176
0.329696
0.534256
0.459021
0.436689
0.322236
0.534237
0.489739
0.321606
0.534199
0.334016
0.45729
0.519673
0.534056
0.537483
0.295747
0.33102
0.534148
0.544757
0.52305
0.489412
0.543113
0.4799
0.466049
0.31865
0.503342
0.388452
0.345521
0.359986
0.534068
0.549709
0.508373
0.393894
0.333042
0.54159
0.338847
0.344336
0.403661
0.319646
0.456405
0.333541
0.534062
0.331543
0.312453
0.414604
0.544951
0.333871
0.307829
0.549248
0.543826
0.551502
0.326911
0.307178
0.538864
0.349337
0.307263
0.332986
0.436317
0.52515
0.267795
0.550858
0.334326
0.506228
0.533972
0.319141
0.408373
0.47842
0.500884
0.494716
0.541012
0.538562
0.544744
0.535335
0.534092
0.345591
0.381651
0.521998
0.298533
0.543609
0.526321
0.266793
0.532226
0.475484
0.51259
0.539722
0.469751
0.532109
0.3144
0.491879
0.344176
0.299835
0.535044
0.534204
0.283643
0.337268
0.531311
0.392737
0.45357
0.303785
0.249536
0.54886
0.516547
0.54431
0.513292
0.462711
0.376998
0.453799
0.318271
0.534129
0.504618
0.495366
0.347155
0.381531
0.544713
0.498341
0.539499
0.137745
0.534192
0.321532
0.325054
0.333367
0.520185
0.521712
0.540935
0.472313
0.34239
0.534174
0.387198
0.54624
0.547448
0.492685
0.326576
0.315018
0.534508
0.342153
0.425086
0.47474
0.329211
0.342959
0.517633
0.54261
0.328932
0.534188
0.5331
0.322822
0.534203
0.535392
0.538815
0.354097
0.351996
0.542439
0.328348
0.336473
0.408133
0.53416
0.330381
0.376957
0.329998
0.29793
0.538411
0.33369
0.326533
0.543357
0.332629
0.326256
0.552911
0.538186
0.534733
0.534057
0.493078
0.335024
0.551838
0.533466
0.3172
0.537296
0.534998
0.53408
0.534073
0.353402
0.534126
0.34056
0.534119
0.32366
0.534106
0.339015
0.518764
0.316819
0.540906
0.545424
0.550446
0.48515
0.534451
0.537002
0.289746
0.534164
0.266608
0.534046
0.538477
0.330098
0.40617
0.341656
0.334151
0.534053
0.362282
0.53367
0.139398
0.50538
0.509119
0.540627
0.398096
0.341677
0.271524
0.324137
0.273877
0.53699
0.365088
0.320227
0.535254
0.342781
0.35466
0.532877
0.533275
0.501436
0.536115
0.25627
0.487586
0.315364
0.534113
0.534662
0.524846
0.29794
0.540746
0.536091
0.541738
0.498348
0.533565
0.382962
0.534065
0.540511
0.44328
0.534369
0.323233
0.518761
0.34992
0.42097
0.520241
0.490853
0.530978
0.47476
0.487825
0.537458
0.318492
0.52423
0.333598
0.339954
0.540995
0.513043
0.478993
0.520363
0.53209
0.534108
0.537487
0.534145
0.53436
0.534658
0.552361
0.355418
0.501924
0.531359
0.322317
0.53448
0.32483
0.472101
0.333881
0.534243
0.324907
0.32223
0.313383
0.47024
0.535265
0.428869
0.516774
0.333466
0.340348
0.534071
0.535423
0.335765
0.502558
0.446154
0.336261
0.504023
0.335024
0.322204
0.534417
0.480598
0.317472
0.519153
0.533309
0.524407
0.332974
0.515717
0.263716
0.534088
0.378901
0.510449
0.3327
0.548414
0.307555
0.336107
0.319485
0.515738
0.302997
0.498077
0.546888
0.470869
0.356251
0.315312
0.542399
0.314747
0.237346
0.331566
0.535756
0.319132
0.344327
0.268553
0.499979
0.339092
0.338332
0.337046
0.534015
0.549574
0.342358
0.538868
0.538154
0.496096
0.3279
0.319105
0.534237
0.319753
0.554977
0.329305
0.531555
0.324853
0.243616
0.514689
0.328864
0.329536
0.33143
0.534247
0.3052
0.446471
0.537593
0.318742
0.516741
0.333094
0.549437
0.418755
0.319881
0.337667
0.535239
0.441221
0.534302
0.321792
0.344741
0.440102
0.534073
0.318361
0.336144
0.331027
0.416299
0.537296
0.358257
0.45053
0.531852
0.534279
0.526363
0.333245
0.536199
0.322257
0.534687
0.534744
0.46098
0.340511
0.490754
0.537914
0.319447
0.53802
0.538476
0.337843
0.329604
0.32205
0.282566
0.542705
0.33115
0.534154
0.383256
0.53407
0.495675
0.374614
0.511459
0.307521
0.480336
0.326855
0.533947
0.533498
0.274017
0.333555
0.328037
0.466051
0.553002
0.321975
0.301674
0.341551
0.451996
0.546953
0.300034
0.32369
0.526245
0.537061
0.52818
0.333504
0.337278
0.524216
0.533952
0.319352
0.329754
0.438213
0.549909
0.492586
0.308218
0.534316
0.535259
0.315332
0.538613
0.332661
0.539526
0.313452
0.359602
0.318149
0.283049
0.533864
0.323542
0.328703
0.327652
0.342796
0.483937
0.529728
0.549848
0.319967
0.534049
0.535816
0.535303
0.54708
0.533847
0.548147
0.548933
0.548736
0.538437
0.532988
0.323694
0.487967
0.549491
0.326341
0.541043
0.544958
0.537014
0.535538
0.311652
0.542604
0.534134
0.536914
0.33968
0.505897
0.530242
0.534169
0.529987
0.327828
0.487129
0.355051
0.414769
0.343651
0.34366
0.324328
0.33266
0.534354
0.533607
0.522729
0.32583
0.534849
0.53421
0.537683
0.334138
0.337914
0.519315
0.309802
0.312515
0.337849
0.536836
0.42
0.534773
0.334129
0.54647
0.533572
0.4575
0.539292
0.341199
0.550376
0.535744
0.513167
0.539565
0.534383
0.52096
0.329919
0.353339
0.338952
0.53396
0.31166
0.534718
0.521187
0.494971
0.336698
0.354886
0.483701
0.541854
0.534057
0.335556
0.52575
0.479034
0.271788
0.534332
0.323434
0.328532
0.327032
0.319603
0.340855
0.53975
0.535937
0.552478
0.443925
0.533283
0.533928
0.517961
0.534262
0.546727
0.548783
0.533859
0.533994
0.33039
0.53406
0.528349
0.427306
0.329967
0.504089
0.311434
0.537483
0.371167
0.539348
0.545791
0.337491
0.536555
0.329394
0.535748
0.53236
0.547342
0.490009
0.516421
0.545841
0.533857
0.356268
0.445808
0.422965
0.253884
0.534412
0.538351
0.444295
0.550938
0.52687
0.534091
0.324082
0.328504
0.528149
0.546505
0.320505
0.201502
0.514846
0.534505
0.535091
0.271279
0.457256
0.513732
0.533181
0.33079
0.534216
0.484849
0.525934
0.505436
0.440243
0.534324
0.311751
0.531524
0.318524
0.339136
0.534293
0.345209
0.346343
0.331164
0.525897
0.510438
0.443472
0.534288
0.431443
0.358291
0.324942
0.542661
0.532657
0.540042
0.489702
0.253911
0.522812
0.433172
0.318744
0.532634
0.54046
0.335539
0.536482
0.529544
0.534066
0.446329
0.533795
0.361302
0.534426
0.531279
0.5338
0.342502
0.525726
0.386636
0.509255
0.533962
0.545012
0.53089
0.534847
0.534804
0.53308
0.518407
0.327181
0.542222
0.510989
0.341114
0.496082
0.537029
0.551306
0.499322
0.318217
0.531428
0.339919
0.546064
0.490447
0.538768
0.330046
0.513658
0.534638
0.534155
0.525785
0.478898
0.534164
0.46701
0.386783
0.330983
0.276783
0.534058
0.352348
0.310293
0.536981
0.32178
0.54416
0.330724
0.536379
0.32389
0.330697
0.521507
0.395676
0.299206
0.530983
0.533435
0.538134
0.341572
0.506553
0.534279
0.532029
0.332433
0.534125
0.535031
0.329102
0.482777
0.462741
0.523506
0.347741
0.391979
0.510792
0.321895
0.538259
0.337378
0.337868
0.534023
0.386509
0.507554
0.323919
0.539964
0.425444
0.534133
0.231159
0.327611
0.534047
0.343964
0.534159
0.356044
0.534681
0.485478
0.466842
0.534169
0.50283
0.265295
0.535075
0.549119
0.531928
0.534131
0.328195
0.338616
0.323482
0.337915
0.534042
0.343939
0.514002
0.327518
0.532959
0.534871
0.533976
0.332694
0.534746
0.324015
0.534983
0.541555
0.352882
0.533927
0.525108
0.316839
0.521864
0.328986
0.357185
0.549521
0.332497
0.543599
0.225029
0.33791
0.513156
0.361994
0.539113
0.334184
0.461784
0.533242
0.530317
0.386176
0.27723
0.329925
0.534115
0.534135
0.341603
0.535445
0.326188
0.532857
0.330095
0.320939
0.468372
0.475038
0.419899
0.495561
0.534293
0.492544
0.473957
0.536395
0.534061
0.333243
0.535284
0.351099
0.345832
0.49626
0.407158
0.395781
0.442896
0.335538
0.514999
0.534187
0.537297
0.327687
0.322081
0.451275
0.506129
0.534618
0.546159
0.321923
0.499954
0.533027
0.507656
0.440453
0.330046
0.330463
0.336393
0.554996
0.537274
0.308594
0.326249
0.43703
0.332422
0.549636
0.513528
0.319693
0.534084
0.404921
0.541092
0.536839
0.326793
0.352978
0.507276
0.322145
0.394643
0.53325
0.275392
0.326279
0.333686
0.508371
0.536501
0.506038
0.339808
0.315907
0.529065
0.535185
0.494698
0.539097
0.320503
0.327874
0.33847
0.498341
0.330146
0.324265
0.538139
0.541983
0.514752
0.332344
0.334729
0.329597
0.534182
0.303213
0.533172
0.534105
0.530396
0.42863
0.534306
0.549509
0.331838
0.333089
0.535829
0.326598
0.466032
0.5263
0.542144
0.437404
0.327473
0.327804
0.541758
0.403695
0.311947
0.534678
0.534264
0.296525
0.330674
0.513749
0.442817
0.333492
0.341128
0.540611
0.490711
0.529147
0.474599
0.354735
0.331407
0.348781
0.380778
0.319295
0.534095
0.528714
0.470646
0.511967
0.353869
0.50412
0.355812
0.533521
0.546046
0.339908
0.265194
0.530009
0.385381
0.472865
0.535311
0.306675
0.531056
0.52832
0.533891
0.534181
0.505847
0.353326
0.342039
0.318564
0.511411
0.534089
0.51416
0.444274
0.33485
0.342101
0.492813
0.336293
0.538621
0.533896
0.53318
0.347716
0.331367
0.464989
0.507275
0.534129
0.526794
0.534369
0.534104
0.536113
0.481817
0.253206
0.534137
0.497921
0.534881
0.319503
0.530096
0.424239
0.528811
0.552396
0.446317
0.492118
0.53207
0.509661
0.534113
0.332483
0.532
0.551313
0.350377
0.505293
0.307648
0.306768
0.534109
0.53417
0.340786
0.483619
0.53391
0.336612
0.355006
0.557247
0.550235
0.471552
0.353334
0.49599
0.331906
0.543139
0.549207
0.328672
0.454952
0.500757
0.329165
0.321379
0.349064
0.539165
0.532045
0.320269
0.349259
0.33929
0.344324
0.345049
0.501697
0.330606
0.551137
0.535312
0.541938
0.325446
0.533134
0.446913
0.532183
0.443629
0.529618
0.32236
0.302564
0.333708
0.534352
0.327787
0.332918
0.496766
0.339209
0.534165
0.507376
0.42555
0.320901
0.323954
0.522712
0.536195
0.527768
0.525419
0.542742
0.321566
0.348983
0.323544
0.510159
0.534961
0.331098
0.517604
0.34247
0.339028
0.534303
0.323604
0.352072
0.264602
0.371151
0.337361
0.53453
0.538276
0.537952
0.338162
0.533888
0.542539
0.330753
0.534517
0.37574
0.540216
0.354173
0.388005
0.533656
0.331806
0.271704
0.529918
0.524498
0.330233
0.546471
0.49883
0.533269
0.399063
0.32378
0.501659
0.534254
0.366025
0.361525
0.423227
0.399041
0.534297
0.332153
0.328792
0.541306
0.515581
0.341591
0.326435
0.531984
0.331572
0.350188
0.325753
0.455177
0.545077
0.323283
0.540282
0.325121
0.310125
0.35647
0.405967
0.341863
0.539605
0.326007
0.354778
0.48154
0.538937
0.354765
0.534086
0.321126
0.33291
0.510556
0.552703
0.523659
0.513438
0.518897
0.546321
0.330258
0.539295
0.311705
0.534078
0.527091
0.411098
0.525121
0.534151
0.534116
0.533949
0.432594
0.355448
0.43012
0.338076
0.502121
0.532643
0.496185
0.327643
0.536229
0.368868
0.534084
0.332589
0.308797
0.556732
0.306827
0.529099
0.552139
0.377454
0.338016
0.331841
0.533803
0.393551
0.274129
0.540766
0.333946
0.526022
0.353779
0.346071
0.320613
0.535431
0.390739
0.534209
0.332555
0.346279
0.534377
0.532862
0.283176
0.358996
0.269522
0.481806
0.335011
0.520973
0.530871
0.534107
0.238132
0.3277
0.450659
0.531141
0.548517
0.532921
0.303091
0.514003
0.537744
0.534101
0.534162
0.321739
0.521915
0.335832
0.450042
0.542744
0.537445
0.530147
0.544947
0.497704
0.532386
0.544337
0.53393
0.522711
0.536613
0.533951
0.535739
0.33393
0.334143
0.534456
0.476151
0.534194
0.534047
0.548499
0.519924
0.545384
0.340609
0.332304
0.534154
0.333524
0.330201
0.340988
0.534176
0.523854
0.534143
0.509701
0.523252
0.319556
0.538142
0.319734
0.321065
0.545935
0.52596
0.524862
0.399296
0.396154
0.334518
0.332166
0.384756
0.324724
0.35805
0.544371
0.311275
0.531497
0.337466
0.539863
0.533228
0.286547
0.351029
0.496677
0.534153
0.335694
0.509242
0.269473
0.31786
0.33043
0.44902
0.535227
0.534118
0.534366
0.247665
0.350044
0.274754
0.341174
0.534098
0.547627
0.538823
0.341591
0.320639
0.533964
0.532979
0.536664
0.308518
0.481171
0.465577
0.543558
0.430401
0.346929
0.338111
0.332187
0.536012
0.330285
0.333654
0.534097
0.355661
0.534404
0.35631
0.349311
0.399565
0.353411
0.545933
0.534142
0.534441
0.445175
0.55437
0.510694
0.475821
0.357616
0.508048
0.53044
0.510087
0.53666
0.53295
0.539963
0.42542
0.532838
0.535542
0.352929
0.337422
0.549286
0.400728
0.533642
0.333263
0.546391
0.365985
0.52635
0.534612
0.508774
0.533252
0.539348
0.515368
0.32359
0.342924
0.537812
0.547203
0.533502
0.433875
0.544602
0.446825
0.494505
0.533899
0.472561
0.464286
0.540715
0.534081
0.341813
0.319802
0.534629
0.502551
0.332769
0.346762
0.423743
0.534145
0.534061
0.550802
0.341764
0.524791
0.305553
0.536916
0.331887
0.54483
0.305444
0.549445
0.341686
0.53178
0.445748
0.332351
0.324456
0.471453
0.333237
0.485243
0.319922
0.534283
0.534129
0.530649
0.527773
0.534344
0.535225
0.533981
0.550047
0.541749
0.502044
0.516138
0.49602
0.538621
0.325375
0.501007
0.49987
0.532807
0.325831
0.498269
0.545726
0.534057
0.340324
0.326947
0.341676
0.544535
0.497724
0.329938
0.500667
0.391454
0.53425
0.313875
0.412469
0.356637
0.303558
0.553163
0.325664
0.508814
0.330169
0.551541
0.342184
0.534265
0.503036
0.529448
0.355603
0.354307
0.353318
0.51609
0.330647
0.351623
0.327338
0.540772
0.518837
0.54465
0.52349
0.531188
0.511604
0.38379
0.35355
0.531015
0.328652
0.448317
0.527333
0.550256
0.230422
0.341459
0.522973
0.534045
0.409319
0.525438
0.535322
0.518723
0.346959
0.543169
0.520367
0.532026
0.533475
0.324226
0.534106
0.329443
0.532309
0.542435
0.505144
0.533426
0.347311
0.537609
0.225424
0.360772
0.500318
0.508395
0.529885
0.451995
0.334612
0.532317
0.536195
0.326532
0.325247
0.306762
0.548642
0.343757
0.337865
0.332341
0.338934
0.31837
0.369639
0.542873
0.317725
0.540004
0.5241
0.332184
0.536075
0.330842
0.548041
0.319165
0.461433
0.329756
0.527332
0.534732
0.39936
0.497789
0.534272
0.521407
0.327942
0.480707
0.430858
0.319857
0.327968
0.405666
0.322405
0.544639
0.30711
0.339139
0.323614
0.534127
0.528546
0.318602
0.324144
0.545456
0.333758
0.335603
0.534119
0.330119
0.354052
0.346771
0.551718
0.503772
0.547553
0.333721
0.291978
0.538672
0.518559
0.534035
0.396864
0.508367
0.529989
0.415565
0.403167
0.329802
0.330537
0.237882
0.493374
0.325209
0.546925
0.513124
0.53331
0.340623
0.410653
0.42034
0.556611
0.303511
0.483084
0.241984
0.492442
0.326333
0.281173
0.297172
0.53768
0.318927
0.551166
0.353998
0.380546
0.333632
0.472465
0.317829
0.543783
0.35155
0.504501
0.487798
0.329715
0.534551
0.534529
0.340845
0.548105
0.356016
0.33398
0.542681
0.305385
0.515973
0.364568
0.239544
0.533738
0.324835
0.352374
0.354833
0.34457
0.323644
0.51584
0.436175
0.528376
0.547498
0.528729
0.543553
0.411876
0.538149
0.302169
0.534886
0.334546
0.526673
0.323778
0.389435
0.525288
0.549087
0.535469
0.354516
0.440547
0.341122
0.350289
0.353038
0.235032
0.537451
0.4106
0.547092
0.533741
0.485335
0.53939
0.534898
0.394167
0.346002
0.366767
0.541684
0.485152
0.502654
0.534457
0.551826
0.417792
0.288333