# vtk DataFile Version 1.0
unstructured grid
ascii
DATASET UNSTRUCTURED_GRID
points 3226 float
0.0796578 -0.059106 0
0.00128732 0.00159165 0
0.00227961 -0.00102548 0
0.0791586 -0.0598787 0
-0.0546216 0.01 0
0.000495206 0.025 0
0.0800549 -0.035 0
0.135172 -0.08 0
-0.0546216 -0.0451168 0
0.000495206 -0.0301168 0
0.0800549 -0.0901168 0
0.135172 -0.135117 0
-0.0546216 -0.0451168 -0.00551168
0.000495206 -0.0301168 -0.00551168
0.0800549 -0.0901168 -0.00551168
0.135172 -0.135117 -0.00551168
0.135172 -0.08 -0.00551168
0.0800549 -0.035 -0.00551168
0.000495206 0.025 -0.00551168
-0.0546216 0.01 -0.00551168
0.00128732 0.00159165 -0.00551168
0.00227961 -0.00102548 -0.00551168
0.0791586 -0.0598787 -0.00551168
0.0796578 -0.059106 -0.00551168
0.00110182 -0.000823821 0
0.000571683 -0.000188043 0
0.000561313 0.000639162 0
0.00189316 0.00207203 0
0.00260228 0.00255358 0
0.0033966 0.00307293 0
0.00428861 0.00362634 0
0.00529726 0.0041979 0
0.00644092 0.00476696 0
0.00773158 0.0053187 0
0.00918011 0.00583593 0
0.010799 0.00628751 0
0.012597 0.00663225 0
0.0145725 0.0068517 0
0.0167206 0.0069338 0
0.0190349 0.00685819 0
0.0215031 0.00658621 0
0.0241038 0.00607459 0
0.026821 0.00533786 0
0.0296245 0.00434523 0
0.0324763 0.00306927 0
0.0353199 0.00146906 0
0.0381488 -0.00039338 0
0.0409131 -0.00252802 0
0.0435632 -0.00493276 0
0.0460882 -0.0075571 0
0.0484881 -0.0103478 0
0.0506782 -0.0133217 0
0.0526651 -0.016422 0
0.0546139 -0.0195019 0
0.0565301 -0.022529 0
0.0584009 -0.0254846 0
0.0602154 -0.0283513 0
0.061964 -0.031114 0
0.0636389 -0.0337601 0
0.0652336 -0.0362795 0
0.0667431 -0.0386651 0
0.0681656 -0.0409111 0
0.0694983 -0.0430158 0
0.0707356 -0.0449823 0
0.071886 -0.0468071 0
0.0729575 -0.04849 0
0.0739438 -0.0500408 0
0.0748444 -0.0514675 0
0.0756707 -0.0527715 0
0.0764313 -0.053958 0
0.0771224 -0.0550398 0
0.0777384 -0.0560288 0
0.0782803 -0.0569318 0
0.0787691 -0.0577448 0
0.0792251 -0.0584672 0
0.0800494 -0.0597378 0
0.0797987 -0.0601582 0
0.0786655 -0.059391 0
0.0781259 -0.0588425 0
0.0775539 -0.0582102 0
0.0769587 -0.0574783 0
0.0763492 -0.0566339 0
0.075723 -0.0556725 0
0.0750452 -0.0546094 0
0.0742996 -0.0534457 0
0.073478 -0.0521785 0
0.072577 -0.0508019 0
0.0715904 -0.049313 0
0.0705098 -0.047712 0
0.069328 -0.0459996 0
0.0680378 -0.0441794 0
0.066632 -0.0422571 0
0.0651046 -0.0402413 0
0.0634508 -0.0381431 0
0.0616683 -0.0359754 0
0.0597581 -0.033753 0
0.0577255 -0.0314906 0
0.0555808 -0.0292024 0
0.0533388 -0.0269013 0
0.0510024 -0.0246151 0
0.0485693 -0.0223811 0
0.0460535 -0.0202228 0
0.0434788 -0.0181535 0
0.0408704 -0.0161833 0
0.0382442 -0.0143327 0
0.0356165 -0.0126209 0
0.0330065 -0.0110594 0
0.0304368 -0.00965062 0
0.0279338 -0.00838121 0
0.0255194 -0.00723697 0
0.0231965 -0.00623664 0
0.020983 -0.00535765 0
0.0188891 -0.00458677 0
0.0169193 -0.00391673 0
0.0150754 -0.00334068 0
0.0133572 -0.00285262 0
0.0117634 -0.0024437 0
0.0102912 -0.00210643 0
0.0089363 -0.00183343 0
0.00769424 -0.00161552 0
0.00655956 -0.00144452 0
0.00552632 -0.00131235 0
0.00458815 -0.00121216 0
0.00373885 -0.00113394 0
0.00297202 -0.00106855 0
-0.0506847 -0.0440454 0
-0.0467478 -0.0429739 0
-0.0428108 -0.0419025 0
-0.0388739 -0.0408311 0
-0.034937 -0.0397597 0
-0.0310001 -0.0386882 0
-0.0270632 -0.0376168 0
-0.0231263 -0.0365454 0
-0.0191894 -0.0354739 0
-0.0152525 -0.0344025 0
-0.0113155 -0.0333311 0
-0.00737862 -0.0322597 0
-0.00344171 -0.0311882 0
0.0038716 -0.0298185 0
0.00726082 -0.0297726 0
0.010644 -0.0299802 0
0.0140027 -0.0304367 0
0.0173201 -0.0311326 0
0.0205821 -0.0320541 0
0.0237776 -0.0331851 0
0.0268988 -0.0345078 0
0.0299406 -0.0360041 0
0.0329005 -0.0376567 0
0.035778 -0.039449 0
0.038574 -0.0413659 0
0.0412905 -0.043394 0
0.0439303 -0.0455212 0
0.0464964 -0.0477367 0
0.0489922 -0.0500312 0
0.051421 -0.0523964 0
0.0537863 -0.0548252 0
0.0560914 -0.0573112 0
0.0583395 -0.0598489 0
0.0605336 -0.0624334 0
0.0626765 -0.0650605 0
0.064771 -0.0677264 0
0.0668197 -0.0704277 0
0.0688248 -0.0731615 0
0.0707885 -0.0759252 0
0.072713 -0.0787163 0
0.0746002 -0.0815329 0
0.0764517 -0.0843729 0
0.0782695 -0.0872347 0
0.0829558 -0.0924852 0
0.0858567 -0.0948536 0
0.0887575 -0.0972221 0
0.0916584 -0.0995905 0
0.0945593 -0.101959 0
0.0974602 -0.104327 0
0.100361 -0.106696 0
0.103262 -0.109064 0
0.106163 -0.111433 0
0.109064 -0.113801 0
0.111965 -0.116169 0
0.114865 -0.118538 0
0.117766 -0.120906 0
0.120667 -0.123275 0
0.123568 -0.125643 0
0.126469 -0.128012 0
0.12937 -0.13038 0
0.132271 -0.132748 0
0.135172 -0.13118 0
0.135172 -0.127243 0
0.135172 -0.123306 0
0.135172 -0.119369 0
0.135172 -0.115432 0
0.135172 -0.111495 0
0.135172 -0.107558 0
0.135172 -0.103621 0
0.135172 -0.0996846 0
0.135172 -0.0957477 0
0.135172 -0.0918107 0
0.135172 -0.0878738 0
0.135172 -0.0839369 0
0.132271 -0.0776316 0
0.12937 -0.0752632 0
0.126469 -0.0728947 0
0.123568 -0.0705263 0
0.120667 -0.0681579 0
0.117766 -0.0657895 0
0.114865 -0.0634211 0
0.111965 -0.0610526 0
0.109064 -0.0586842 0
0.106163 -0.0563158 0
0.103262 -0.0539474 0
0.100361 -0.0515789 0
0.0974602 -0.0492105 0
0.0945593 -0.0468421 0
0.0916584 -0.0444737 0
0.0887575 -0.0421053 0
0.0858567 -0.0397368 0
0.0829558 -0.0373684 0
0.0782695 -0.0321179 0
0.0764517 -0.0292561 0
0.0746002 -0.026416 0
0.072713 -0.0235995 0
0.0707885 -0.0208084 0
0.0688248 -0.0180447 0
0.0668197 -0.0153109 0
0.064771 -0.0126096 0
0.0626765 -0.00994373 0
0.0605336 -0.00731663 0
0.0583395 -0.00473208 0
0.0560914 -0.00219437 0
0.0537863 0.000291632 0
0.051421 0.00272041 0
0.0489922 0.00508564 0
0.0464964 0.00738012 0
0.0439303 0.00959562 0
0.0412905 0.0117228 0
0.038574 0.0137509 0
0.035778 0.0156678 0
0.0329005 0.0174601 0
0.0299406 0.0191127 0
0.0268988 0.020609 0
0.0237776 0.0219317 0
0.0205821 0.0230627 0
0.0173201 0.0239842 0
0.0140027 0.0246801 0
0.010644 0.0251366 0
0.00726082 0.0253442 0
0.0038716 0.0252983 0
-0.00344171 0.0239286 0
-0.00737862 0.0228571 0
-0.0113155 0.0217857 0
-0.0152525 0.0207143 0
-0.0191894 0.0196429 0
-0.0231263 0.0185714 0
-0.0270632 0.0175 0
-0.0310001 0.0164286 0
-0.034937 0.0153571 0
-0.0388739 0.0142857 0
-0.0428108 0.0132143 0
-0.0467478 0.0121429 0
-0.0506847 0.0110714 0
-0.0546216 0.00606309 0
-0.0546216 0.00212617 0
-0.0546216 -0.00181074 0
-0.0546216 -0.00574766 0
-0.0546216 -0.00968457 0
-0.0546216 -0.0136215 0
-0.0546216 -0.0175584 0
-0.0546216 -0.0214953 0
-0.0546216 -0.0254322 0
-0.0546216 -0.0293691 0
-0.0546216 -0.0333061 0
-0.0546216 -0.037243 0
-0.0546216 -0.0411799 0
-0.0506847 -0.0440454 -0.00551168
-0.0467478 -0.0429739 -0.00551168
-0.0428108 -0.0419025 -0.00551168
-0.0388739 -0.0408311 -0.00551168
-0.034937 -0.0397597 -0.00551168
-0.0310001 -0.0386882 -0.00551168
-0.0270632 -0.0376168 -0.00551168
-0.0231263 -0.0365454 -0.00551168
-0.0191894 -0.0354739 -0.00551168
-0.0152525 -0.0344025 -0.00551168
-0.0113155 -0.0333311 -0.00551168
-0.00737862 -0.0322597 -0.00551168
-0.00344171 -0.0311882 -0.00551168
0.0038716 -0.0298185 -0.00551168
0.00726082 -0.0297726 -0.00551168
0.010644 -0.0299802 -0.00551168
0.0140027 -0.0304367 -0.00551168
0.0173201 -0.0311326 -0.00551168
0.0205821 -0.0320541 -0.00551168
0.0237776 -0.0331851 -0.00551168
0.0268988 -0.0345078 -0.00551168
0.0299406 -0.0360041 -0.00551168
0.0329005 -0.0376567 -0.00551168
0.035778 -0.039449 -0.00551168
0.038574 -0.0413659 -0.00551168
0.0412905 -0.043394 -0.00551168
0.0439303 -0.0455212 -0.00551168
0.0464964 -0.0477367 -0.00551168
0.0489922 -0.0500312 -0.00551168
0.051421 -0.0523964 -0.00551168
0.0537863 -0.0548252 -0.00551168
0.0560914 -0.0573112 -0.00551168
0.0583395 -0.0598489 -0.00551168
0.0605336 -0.0624334 -0.00551168
0.0626765 -0.0650605 -0.00551168
0.064771 -0.0677264 -0.00551168
0.0668197 -0.0704277 -0.00551168
0.0688248 -0.0731615 -0.00551168
0.0707885 -0.0759252 -0.00551168
0.072713 -0.0787163 -0.00551168
0.0746002 -0.0815329 -0.00551168
0.0764517 -0.0843729 -0.00551168
0.0782695 -0.0872347 -0.00551168
0.0829558 -0.0924852 -0.00551168
0.0858567 -0.0948536 -0.00551168
0.0887575 -0.0972221 -0.00551168
0.0916584 -0.0995905 -0.00551168
0.0945593 -0.101959 -0.00551168
0.0974602 -0.104327 -0.00551168
0.100361 -0.106696 -0.00551168
0.103262 -0.109064 -0.00551168
0.106163 -0.111433 -0.00551168
0.109064 -0.113801 -0.00551168
0.111965 -0.116169 -0.00551168
0.114865 -0.118538 -0.00551168
0.117766 -0.120906 -0.00551168
0.120667 -0.123275 -0.00551168
0.123568 -0.125643 -0.00551168
0.126469 -0.128012 -0.00551168
0.12937 -0.13038 -0.00551168
0.132271 -0.132748 -0.00551168
0.135172 -0.13118 -0.00551168
0.135172 -0.127243 -0.00551168
0.135172 -0.123306 -0.00551168
0.135172 -0.119369 -0.00551168
0.135172 -0.115432 -0.00551168
0.135172 -0.111495 -0.00551168
0.135172 -0.107558 -0.00551168
0.135172 -0.103621 -0.00551168
0.135172 -0.0996846 -0.00551168
0.135172 -0.0957477 -0.00551168
0.135172 -0.0918107 -0.00551168
0.135172 -0.0878738 -0.00551168
0.135172 -0.0839369 -0.00551168
0.132271 -0.0776316 -0.00551168
0.12937 -0.0752632 -0.00551168
0.126469 -0.0728947 -0.00551168
0.123568 -0.0705263 -0.00551168
0.120667 -0.0681579 -0.00551168
0.117766 -0.0657895 -0.00551168
0.114865 -0.0634211 -0.00551168
0.111965 -0.0610526 -0.00551168
0.109064 -0.0586842 -0.00551168
0.106163 -0.0563158 -0.00551168
0.103262 -0.0539474 -0.00551168
0.100361 -0.0515789 -0.00551168
0.0974602 -0.0492105 -0.00551168
0.0945593 -0.0468421 -0.00551168
0.0916584 -0.0444737 -0.00551168
0.0887575 -0.0421053 -0.00551168
0.0858567 -0.0397368 -0.00551168
0.0829558 -0.0373684 -0.00551168
0.0782695 -0.0321179 -0.00551168
0.0764517 -0.0292561 -0.00551168
0.0746002 -0.026416 -0.00551168
0.072713 -0.0235995 -0.00551168
0.0707885 -0.0208084 -0.00551168
0.0688248 -0.0180447 -0.00551168
0.0668197 -0.0153109 -0.00551168
0.064771 -0.0126096 -0.00551168
0.0626765 -0.00994373 -0.00551168
0.0605336 -0.00731663 -0.00551168
0.0583395 -0.00473208 -0.00551168
0.0560914 -0.00219437 -0.00551168
0.0537863 0.000291632 -0.00551168
0.051421 0.00272041 -0.00551168
0.0489922 0.00508564 -0.00551168
0.0464964 0.00738012 -0.00551168
0.0439303 0.00959562 -0.00551168
0.0412905 0.0117228 -0.00551168
[...]
CELL_DATA 2965
SCALARS rho float
LOOKUP_TABLE default
0.529401
0.346673
0.603034
0.327078
0.614288
0.35888
0.535113
0.34581
0.358722
0.604431
0.32739
0.354323
0.465325
0.535898
0.593384
0.589914
0.599498
0.58351
0.608697
0.600072
0.529532
0.32393
0.590307
0.612528
0.616234
0.600672
0.504798
0.554244
0.329119
0.573071
0.569497
0.344463
0.608727
0.610012
0.287439
0.358737
0.604274
0.614428
0.310471
0.574262
0.607129
0.571156
0.52536
0.344064
0.352752
0.526964
0.51133
0.550164
0.311369
0.531989
0.414006
0.319397
0.353894
0.460599
0.326244
0.453302
0.359305
0.331291
0.278467
0.535991
0.590133
0.556607
0.322757
0.618092
0.571626
0.525074
0.535328
0.330947
0.332776
0.34864
0.579728
0.59167
0.535273
0.328119
0.566763
0.443404
0.531061
0.319224
0.338164
0.521088
0.536973
0.322155
0.349802
0.477452
0.569423
0.395143
0.34612
0.292578
0.628851
0.357453
0.312956
0.525773
0.583481
0.587188
0.524612
0.312082
0.511982
0.336301
0.35134
0.33366
0.533991
0.331924
0.350235
0.355613
0.347077
0.554088
0.530795
0.351641
0.333245
0.532387
0.292745
0.421188
0.522774
0.571153
0.334164
0.332011
0.599126
0.505745
0.530902
0.34303
0.537454
0.244168
0.565823
0.609389
0.583426
0.427239
0.349745
0.523678
0.613008
0.274384
0.352685
0.46347
0.612959
0.353555
0.507589
0.34792
0.468562
0.58351
0.605249
0.612307
0.353582
0.587795
0.605283
0.345633
0.286751
0.611314
0.317514
0.615338
0.604427
0.352781
0.338059
0.330506
0.35018
0.319442
0.287311
0.292098
0.534186
0.613105
0.599003
0.608789
0.500336
0.512605
0.437283
0.629164
0.358961
0.535239
0.451659
0.344257
0.53252
0.534689
0.539685
0.297887
0.471832
0.594464
0.624151
0.450941
0.583325
0.376775
0.269333
0.449035
0.337934
0.268999
0.313113
0.31012
0.60677
0.535186
0.331843
0.347763
0.412982
0.343925
0.311504
0.328294
0.504477
0.294931
0.534511
0.513294
0.615207
0.562814
0.48084
0.334391
0.346322
0.349131
0.558206
0.494908
0.536759
0.351065
0.464738
0.534222
0.582632
0.581273
0.572683
0.425025
0.35452
0.352637
0.577142
0.355572
0.514997
0.324441
0.591609
0.342014
0.358585
0.354583
0.507299
0.4046
0.597105
0.328113
0.537243
0.599706
0.337942
0.53752
0.342346
0.316877
0.538231
0.313158
0.524956
0.538245
0.332316
0.612498
0.344702
0.371304
0.394203
0.339581
0.616021
0.599981
0.351065
0.282231
0.60361
0.527484
0.494546
0.576534
0.337779
0.32891
0.534172
0.343086
0.582526
0.304753
0.331939
0.531365
0.52505
0.345608
0.532093
0.341893
0.589253
0.359964
0.618305
0.531373
0.273419
0.525751
0.597159
0.336036
0.337466
0.562533
0.336275
0.607933
0.582051
0.341024
0.58081
0.588209
0.606585
0.537998
0.631055
0.556965
0.579707
0.527598
0.334706
0.338099
0.599273
0.557816
0.357439
0.561112
0.5113
0.355192
0.350785
0.344241
0.532954
0.347194
0.53069
0.537802
0.606145
0.340912
0.54203
0.55582
0.533539
0.525335
0.329331
0.243967
0.601639
0.532927
0.531256
0.317261
0.354044
0.541065
0.343397
0.316045
0.59871
0.537299
0.565408
0.264649
0.33505
0.544084
0.589476
0.338844
0.526327
0.536553
0.354785
0.455019
0.525339
0.588184
0.317734
0.343089
0.529782
0.348081
0.606459
0.38291
0.562788
0.417095
0.390912
0.348942
0.350346
0.317525
0.58678
0.600422
0.574192
0.627587
0.558773
0.526962
0.314746
0.525495
0.625137
0.34494
0.328397
0.529022
0.313928
0.58218
0.563922
0.346426
0.347448
0.344994
0.331899
0.536726
0.350058
0.357738
0.401591
0.338923
0.527251
0.525308
0.524317
0.532071
0.340867
0.578985
0.346242
0.529233
0.325475
0.351077
0.561744
0.51995
0.31722
0.262477
0.546194
0.382239
0.567239
0.586777
0.332673
0.546071
0.300296
0.355291
0.526858
0.34107
0.542164
0.306431
0.401689
0.344737
0.556855
0.52078
0.473338
0.527125
0.297239
0.627638
0.359283
0.334589
0.624031
0.34438
0.626146
0.4544
0.550532
0.286847
0.310707
0.33161
0.294998
0.330667
0.351883
0.61063
0.525834
0.525392
0.532237
0.347054
0.613397
0.516543
0.583813
0.266396
0.524964
0.358246
0.561999
0.559813
0.348036
0.534838
0.373024
0.599505
0.344497
0.551224
0.601007
0.345362
0.586467
0.264973
0.584063
0.350321
0.333073
0.447043
0.624015
0.588304
0.432742
0.316879
0.255324
0.449907
0.623802
0.575951
0.528908
0.556594
0.539112
0.330158
0.586577
0.552364
0.340541
0.302261
0.3366
0.562803
0.531599
0.38515
0.402982
0.391073
0.352529
0.553585
0.526026
0.532861
0.612909
0.424967
0.525957
0.527138
0.345624
0.592119
0.361819
0.369369
0.586471
0.52517
0.603848
0.622584
0.333043
0.340209
0.611079
0.573874
0.332578
0.547822
0.567858
0.525325
0.356973
0.347492
0.528006
0.344849
0.500123
0.524901
0.530246
0.344234
0.52476
0.335156
0.341382
0.340874
0.365759
0.524707
0.381777
0.579187
0.293924
0.329286
0.564083
0.352602
0.29053
0.343898
0.281308
0.377115
0.340868
0.346127
0.463091
0.478525
0.324178
0.358761
0.53623
0.344183
0.424555
0.525165
0.526948
0.594954
0.577934
0.490254
0.487652
0.342952
0.394253
0.525559
0.569607
0.332466
0.580812
0.272049
0.291681
0.344837
0.596707
0.606359
0.349356
0.595186
0.534868
0.293581
0.349606
0.626432
0.532986
0.37862
0.629132
0.406337
0.341287
0.62691
0.348184
0.504233
0.606466
0.443709
0.619738
0.327718
0.349214
0.548425
0.392647
0.355803
0.357309
0.352877
0.335654
0.526517
0.58837
0.575689
0.334084
0.263306
0.358683
0.348301
0.55136
0.347007
0.46263
0.348418
0.553294
0.557769
0.314724
0.53247
0.415205
0.583918
0.297574
0.559138
0.615774
0.605336
0.618282
0.53165
0.565041
0.357626
0.470343
0.345704
0.607128
0.322003
0.353566
0.527078
0.530022
0.525452
0.335137
0.327376
0.555054
0.603971
0.319716
0.526135
0.328229
0.310505
0.344128
0.607604
0.568007
0.599846
0.332066
0.299087
0.342817
0.327869
0.546332
0.534555
0.621724
0.333161
0.331071
0.504494
0.622496
0.628873
0.580485
0.532949
0.442713
0.600466
0.594812
0.58323
0.344932
0.598324
0.564179
0.535434
0.533634
0.630239
0.587881
0.402501
0.594745
0.348915
0.608616
0.530396
0.252872
0.534707
0.513385
0.576652
0.341625
0.331054
0.526561
0.309882
0.335489
0.611141
0.309595
0.448189
0.613914
0.294556
0.601336
0.35072
0.55402
0.526195
0.561049
0.593051
0.3401
0.346254
0.597099
0.484122
0.348115
0.537195
0.316985
0.529948
0.333323
0.51031
0.578832
0.533145
0.324584
0.556859
0.358848
0.438774
0.449668
0.357244
0.283565
0.335495
0.530359
0.505562
0.474317
0.329592
0.531281
0.572189
0.329459
0.530845
0.342547
0.506004
0.594539
0.537499
0.537757
0.304551
0.353905
0.531319
0.595992
0.599696
0.568811
0.621399
0.539326
0.518381
0.32354
0.57061
0.411971
0.360946
0.377786
0.532627
0.619242
0.595525
0.419356
0.334938
0.624687
0.355306
0.356357
0.435269
0.331909
0.504061
0.344285
0.535495
0.341117
0.31684
0.447387
0.58733
0.342064
0.310335
0.621981
0.590366
0.607028
0.352396
0.30732
0.596599
0.350766
0.307396
0.343521
0.474109
0.568947
0.275936
0.623527
0.340286
0.575567
0.525741
0.335463
0.446113
0.534447
0.569734
0.60201
0.572974
0.559116
0.590426
0.617527
0.536812
0.348575
0.408876
0.577317
0.342164
0.586322
0.604616
0.305848
0.541356
0.561658
0.611896
0.623893
0.562968
0.612356
0.31622
0.563513
0.358149
0.308252
0.528205
0.531109
0.346381
0.351679
0.570536
0.420844
0.51634
0.347271
0.254654
0.628453
0.590382
0.590305
0.599112
0.550618
0.39939
0.501577
0.34529
0.535902
0.576216
0.569873
0.348479
0.40392
0.598526
0.571322
0.566098
0.140376
0.532325
0.320621
0.343182
0.33763
0.579891
0.577737
0.617612
0.524704
0.349872
0.530682
0.410608
0.627469
0.603378
0.567277
0.329511
0.327671
0.52593
0.355948
0.461099
0.550089
0.33563
0.344469
0.591751
0.626793
0.337573
0.533239
0.524635
0.326535
0.532626
0.526251
0.589324
0.357219
0.354532
0.627648
0.345281
0.342421
0.437996
0.528803
0.365971
0.399224
0.33616
0.306928
0.620502
0.345046
0.329851
0.583065
0.335595
0.338515
0.623113
0.592564
0.610045
0.532721
0.579175
0.347353
0.610246
0.524657
0.332226
0.57332
0.582471
0.535551
0.536781
0.356744
0.532152
0.348459
0.533397
0.339095
0.530189
0.342293
0.593751
0.331796
0.624541
0.59875
0.61174
0.544867
0.526434
0.541592
0.286626
0.524823
0.274938
0.537577
0.550487
0.328704
0.434945
0.348612
0.342288
0.537005
0.381484
0.52669
0.142244
0.575215
0.579902
0.603028
0.428748
0.347951
0.32808
0.330219
0.300134
0.607122
0.384428
0.335405
0.525894
0.341831
0.375345
0.538865
0.538723
0.575094
0.608923
0.261457
0.546715
0.331672
0.536745
0.525708
0.60225
0.330871
0.618488
0.610462
0.592039
0.578406
0.609873
0.405304
0.529658
0.625143
0.500489
0.528589
0.333679
0.5937
0.353179
0.464893
0.587879
0.552997
0.541728
0.529832
0.54906
0.539693
0.322412
0.57198
0.339336
0.355807
0.626307
0.584099
0.561673
0.595564
0.612792
0.536786
0.582476
0.535606
0.526406
0.526101
0.613793
0.358295
0.579297
0.546793
0.330206
0.616003
0.352132
0.526469
0.340993
0.526967
0.326326
0.327648
0.33264
0.546285
0.525379
0.464158
0.590895
0.33976
0.355346
0.528114
0.577513
0.344313
0.596759
0.48699
0.338945
0.591428
0.348411
0.33869
0.601576
0.539781
0.315324
0.581699
0.545332
0.577956
0.34155
0.606492
0.312981
0.530823
0.403722
0.581518
0.34577
0.613891
0.319081
0.35308
0.329162
0.606115
0.31266
0.589122
0.625784
0.542603
0.359498
0.331914
0.578653
0.327457
0.24451
0.339203
0.528222
0.324886
0.353165
0.301993
0.565877
0.342629
0.351534
0.343827
0.525377
0.602018
0.354551
0.551458
0.546335
0.56698
0.323672
0.324894
0.616356
0.329362
0.607186
0.342743
0.568681
0.349656
0.278543
0.585866
0.334179
0.325635
0.33925
0.530097
0.314392
0.495084
0.62031
0.319187
0.59092
0.343462
0.625563
0.452471
0.332004
0.344714
0.525623
0.480886
0.525922
0.336719
0.357413
0.493109
0.537545
0.324261
0.342799
0.331065
0.448816
0.61892
0.35988
0.509362
0.531782
0.526958
0.57504
0.3403
0.619194
0.330041
0.536487
0.525435
0.536303
0.354945
0.59683
0.598427
0.333982
0.586398
0.622351
0.351509
0.330045
0.338668
0.334814
0.584633
0.338094
0.525269
0.406794
0.536898
0.560178
0.395235
0.582521
0.322791
0.546002
0.332652
0.528378
0.525079
0.316446
0.346994
0.32633
0.517713
0.611935
0.321117
0.324654
0.34704
0.495369
0.605507
0.339583
0.328927
0.567473
0.620542
0.570368
0.340908
0.346253
0.57475
0.528201
0.331058
0.328641
0.481958
0.613168
0.591149
0.31785
0.526684
0.525978
0.326612
0.550561
0.344308
0.624258
0.323884
0.377987
0.319111
0.293197
0.52641
0.347777
0.332304
0.33044
0.343171
0.575052
0.609546
0.617924
0.334583
0.536696
0.585506
0.529722
0.630149
0.525632
0.609351
0.626608
0.629803
0.619131
0.525715
0.345202
0.556533
0.609918
0.340128
0.623265
0.603398
0.534756
0.526912
0.313479
0.623949
0.535629
0.577101
0.353988
0.61103
0.541658
0.52573
0.60867
0.352557
0.545993
0.358293
0.445445
0.350806
0.351835
0.335249
0.340593
0.528008
0.615186
0.589501
0.339265
0.525366
0.532043
0.542598
0.343634
0.355501
0.57723
0.322482
0.322783
0.342939
0.615336
0.455532
0.525224
0.341889
0.619848
0.535304
0.529066
0.619423
0.349763
0.607876
0.528395
0.581281
0.564911
0.542303
0.596243
0.343102
0.356238
0.356164
0.528004
0.317261
0.616855
0.576141
0.604966
0.349115
0.359844
0.542143
0.586982
0.531654
0.349285
0.565916
0.533827
0.330449
0.529113
0.334838
0.345581
0.335192
0.314916
0.337745
0.561366
0.565719
0.607138
0.490586
0.614311
0.526539
0.588236
0.529672
0.611305
0.622988
0.527289
0.527939
0.327792
0.532836
0.55405
0.462136
0.336207
0.577768
0.342824
0.541432
0.397089
0.621227
0.627949
0.349921
0.620103
0.327273
0.60544
0.574499
0.629099
0.550637
0.585599
0.63087
0.526375
0.358888
0.486655
0.458328
0.263993
0.527843
0.547161
0.493163
0.621472
0.562109
0.529483
0.351579
0.332615
0.607384
0.607142
0.314165
0.241954
0.588465
0.533464
0.52551
0.277712
0.53388
0.58237
0.60668
0.338749
0.529267
0.543208
0.603926
0.573022
0.486005
0.538019
0.343054
0.590643
0.322169
0.344489
0.528816
0.360688
0.364306
0.333964
0.59554
0.600747
0.496909
0.525282
0.475719
0.356502
0.341903
0.581977
0.526186
0.62357
0.550792
0.261773
0.58118
0.470384
0.325964
0.528673
0.597442
0.34607
0.533193
0.557866
0.534561
0.492662
0.526689
0.379326
0.526907
0.557794
0.524761
0.3411
0.60365
0.416783
0.580541
0.546204
0.596474
0.537319
0.527367
0.525375
0.528019
0.579869
0.336423
0.617816
0.582085
0.349685
0.559661
0.536555
0.608559
0.600981
0.326052
0.610094
0.357664
0.629544
0.558736
0.581162
0.326684
0.584573
0.534396
0.53275
0.602842
0.567841
0.533687
0.530975
0.410765
0.334958
0.307947
0.534489
0.35517
0.345205
0.617002
0.319709
0.619072
0.341038
0.551379
0.318886
0.327856
0.581976
0.42233
0.309288
0.604243
0.52461
0.563087
0.339473
0.598988
0.541998
0.542655
0.336434
0.534911
0.548437
0.33438
0.54798
0.523413
0.587221
0.348819
0.416189
0.580907
0.332554
0.621346
0.354156
0.349809
0.530364
0.410476
0.578878
0.335258
0.580662
0.467484
0.535042
0.252088
0.330341
0.53066
0.343872
0.534635
0.358839
0.525844
0.591011
0.520309
0.534275
0.571694
0.29725
0.52529
0.616239
0.536527
0.533723
0.350261
0.344953
0.321396
0.349518
0.529807
0.356749
0.586859
0.334266
0.603107
0.594283
0.527955
0.338384
0.525766
0.348255
0.549012
0.59639
0.350658
0.525588
0.62324
0.314368
0.592938
0.336811
0.359099
0.608768
0.348635
0.583348
0.232158
0.350212
0.582272
0.359789
0.62355
0.342918
0.513313
0.524361
0.544913
0.411279
0.331877
0.342932
0.533226
0.536096
0.358744
0.54554
0.337551
0.549402
0.335424
0.346017
0.529948
0.52965
0.454588
0.611815
0.525166
0.554378
0.539268
0.593599
0.527946
0.342939
0.572566
0.351727
0.358318
0.578786
0.437066
0.420794
0.483256
0.34708
0.587354
0.532959
0.568785
0.335703
0.332871
0.521113
0.575692
0.529442
0.603279
0.324717
0.567749
0.596842
0.607389
0.480344
0.336009
0.330651
0.350032
0.606092
0.55392
0.327135
0.352556
0.475764
0.335601
0.61625
0.58584
0.323669
0.528959
0.433544
0.615736
0.555764
0.331334
0.351701
0.579161
0.316194
0.419488
0.525142
0.31173
0.329843
0.342665
0.577981
0.618222
0.574838
0.345372
0.312834
0.608831
0.525304
0.574212
0.556983
0.336545
0.328301
0.362768
0.565221
0.339817
0.320875
0.569281
0.627524
0.58745
0.345461
0.344231
0.35133
0.526848
0.312894
0.604145
0.534004
0.550982
0.467247
0.570293
0.607481
0.345037
0.341551
0.531902
0.32402
0.515445
0.570503
0.607133
0.47478
0.335251
0.342168
0.577532
0.431351
0.329733
0.591557
0.528461
0.305206
0.336666
0.586425
0.486757
0.339619
0.350472
0.608883
0.552688
0.58181
0.57238
0.371688
0.34356
0.358216
0.405585
0.332143
0.537525
0.550361
0.532283
0.583682
0.357379
0.581035
0.359201
0.525
0.615723
0.352942
0.273132
0.593496
0.408576
0.526975
0.526564
0.321322
0.540943
0.607616
0.527386
0.533132
0.623515
0.351996
0.338882
0.352197
0.581543
0.525782
0.595756
0.488606
0.345112
0.338474
0.558062
0.34747
0.580016
0.527335
0.53543
0.364248
0.331615
0.514029
0.593286
0.536793
0.579513
0.52814
0.528064
0.528783
0.581462
0.261165
0.531147
0.584684
0.554086
0.31444
0.584514
0.46059
0.576638
0.607853
0.489496
0.55568
0.599904
0.58142
0.535734
0.338132
0.563956
0.619878
0.358548
0.609602
0.320261
0.335485
0.537483
0.525917
0.354711
0.543822
0.527198
0.335534
0.358187
0.624702
0.62421
0.526337
0.351009
0.56085
0.339812
0.598704
0.620143
0.33496
0.51435
0.568207
0.339985
0.324923
0.355622
0.590923
0.610626
0.330138
0.350231
0.356766
0.354796
0.348934
0.594648
0.334072
0.618909
0.532841
0.571166
0.320494
0.526573
0.510901
0.588936
0.485239
0.548952
0.318757
0.3127
0.342203
0.582312
0.340573
0.340448
0.607244
0.35165
0.534396
0.576263
0.464062
0.334035
0.342663
0.582258
0.533641
0.556739
0.604869
0.608081
0.333339
0.347713
0.334622
0.580243
0.525417
0.337573
0.60235
0.348203
0.354109
0.527612
0.322562
0.353556
0.317646
0.394233
0.348718
0.526807
0.618588
0.552795
0.352016
0.526371
0.578292
0.337957
0.526628
0.396486
0.612126
0.357416
0.411653
0.52543
0.335552
0.336673
0.547317
0.601499
0.336148
0.624867
0.563328
0.526099
0.426296
0.338636
0.574379
0.526612
0.387273
0.359284
0.463839
0.432907
0.528135
0.355318
0.334711
0.598472
0.630946
0.346592
0.337046
0.603986
0.334972
0.35195
0.322531
0.500453
0.622329
0.318435
0.569135
0.353819
0.320717
0.358658
0.440465
0.348984
0.573638
0.322872
0.353696
0.537862
0.573903
0.371912
0.531708
0.332442
0.343606
0.583214
0.613235
0.600338
0.584893
0.594144
0.594438
0.330581
0.582253
0.344143
0.533189
0.601969
0.440871
0.602721
0.53037
0.529993
0.526128
0.47513
0.358814
0.465486
0.346665
0.614276
0.550685
0.561907
0.340066
0.562659
0.388503
0.533347
0.337955
0.327717
0.598438
0.338513
0.590165
0.611216
0.404595
0.345537
0.348141
0.525895
0.424418
0.331824
0.57948
0.343968
0.598787
0.356859
0.358193
0.346136
0.53118
0.419204
0.530298
0.33895
0.352854
0.5679
0.53226
0.293249
0.377608
0.277353
0.538089
0.344597
0.596569
0.566652
0.531891
0.245164
0.325442
0.496748
0.611692
0.624297
0.525081
0.328701
0.584518
0.558867
0.530723
0.533088
0.317277
0.578485
0.347771
0.512786
0.591068
0.564248
0.54379
0.630038
0.617079
0.536793
0.585782
0.58839
0.571567
0.548693
0.52515
0.527726
0.34223
0.343475
0.527424
0.538497
0.530888
0.537284
0.617445
0.595124
0.613062
0.351369
0.336817
0.534703
0.340778
0.33591
0.355724
0.532539
0.60093
0.527278
0.603931
0.584089
0.333671
0.615747
0.334915
0.325939
0.595307
0.566685
0.584568
0.425571
0.421811
0.34859
0.338322
0.409763
0.344818
0.378096
0.604606
0.328828
0.585119
0.348833
0.610076
0.529531
0.293247
0.352159
0.613366
0.533997
0.347708
0.580605
0.306307
0.333619
0.328959
0.491935
0.527081
0.537515
0.528478
0.274355
0.358754
0.295985
0.353735
0.535848
0.630008
0.559191
0.34908
0.330902
0.528967
0.528988
0.54663
0.315565
0.552109
0.51428
0.596634
0.465829
0.358912
0.352065
0.342793
0.538062
0.327327
0.342597
0.535065
0.353962
0.527605
0.358316
0.347876
0.425814
0.35606
0.625408
0.535578
0.527769
0.485304
0.614312
0.582999
0.571386
0.359259
0.57866
0.604411
0.58105
0.533032
0.531563
0.605105
0.459942
0.528087
0.526608
0.353286
0.347389
0.603379
0.429604
0.527843
0.343073
0.614373
0.363664
0.578544
0.526369
0.579563
0.525106
0.61816
0.579509
0.333549
0.344061
0.621935
0.61328
0.525082
0.473799
0.614462
0.501015
0.556798
0.527541
0.528445
0.535892
0.596534
0.533916
0.356092
0.335627
0.525987
0.570188
0.342194
0.351948
0.457158
0.535913
0.537444
0.615777
0.357589
0.579154
0.324074
0.540586
0.341538
0.629477
0.344608
0.604337
0.343271
0.612749
0.487669
0.338823
0.338576
0.527127
0.343525
0.581103
0.315444
0.527989
0.53697
0.604119
0.61424
0.525885
0.587193
0.52909
0.625859
0.570801
0.577152
0.588749
0.609637
0.611597
0.320135
0.566268
0.564383
0.53014
0.335611
0.565984
0.617396
0.52896
0.352289
0.345933
0.349515
0.629829
0.611922
0.345969
0.572886
0.41748
0.529074
0.325368
0.445349
0.358396
0.312441
0.607497
0.338849
0.578096
0.346587
0.617763
0.34528
0.528629
0.57134
0.565164
0.359654
0.357412
0.370255
0.579002
0.350958
0.368485
0.328111
0.577238
0.599307
0.626741
0.586746
0.611864
0.586746
0.413595
0.356026
0.540175
0.333646
0.492189
0.595722
0.622851
0.249646
0.347932
0.58885
0.52879
0.440814
0.603086
0.616801
0.588461
0.34767
0.604903
0.585886
0.600601
0.555218
0.337561
0.536966
0.346893
0.528591
0.576355
0.57574
0.525062
0.364189
0.542362
0.232541
0.38463
0.600572
0.577873
0.549219
0.494843
0.342933
0.532339
0.55049
0.348011
0.333368
0.336209
0.605906
0.354168
0.365605
0.343264
0.34757
0.323294
0.389293
0.606647
0.327014
0.623937
0.575198
0.339983
0.613527
0.336399
0.629571
0.329215
0.541316
0.345729
0.585096
0.524923
0.431373
0.566368
0.526936
0.597009
0.331721
0.543409
0.470253
0.334512
0.350122
0.433607
0.344264
0.625884
0.344014
0.33937
0.33539
0.53722
0.5866
0.315919
0.320807
0.592734
0.346373
0.344754
0.530668
0.343156
0.353331
0.34457
0.612772
0.571466
0.606225
0.348798
0.294537
0.602289
0.593049
0.529453
0.424969
0.579956
0.561918
0.448144
0.430249
0.32865
0.346439
0.243314
0.559318
0.345073
0.618479
0.585432
0.57549
0.357801
0.44328
0.452363
0.61511
0.316114
0.54608
0.247874
0.560122
0.329271
0.287588
0.332172
0.574661
0.315116
0.614521
0.357388
0.402909
0.344911
0.531089
0.349338
0.611319
0.352271
0.588231
0.553481
0.329509
0.524728
0.524889
0.347084
0.605539
0.359371
0.339914
0.602661
0.320789
0.58924
0.362237
0.276662
0.525826
0.330654
0.369466
0.358205
0.345765
0.345216
0.589286
0.477524
0.620172
0.599701
0.60813
0.600576
0.447427
0.544749
0.330251
0.525412
0.34078
0.56062
0.331914
0.415169
0.586521
0.603886
0.534377
0.371734
0.499073
0.348491
0.358499
0.356042
0.247358
0.589152
0.445242
0.609703
0.525902
0.548467
0.624332
0.526986
0.42072
0.347685
0.385944
0.623219
0.546324
0.573351
0.525315
0.615704
0.450182