# vtk DataFile Version 1.0
unstructured grid
ascii
DATASET UNSTRUCTURED_GRID
points 3226 float
0.0796578 -0.059106 0
0.00128732 0.00159165 0
0.00227961 -0.00102548 0
0.0791586 -0.0598787 0
-0.0546216 0.01 0
0.000495206 0.025 0
0.0800549 -0.035 0
0.135172 -0.08 0
-0.0546216 -0.0451168 0
0.000495206 -0.0301168 0
0.0800549 -0.0901168 0
0.135172 -0.135117 0
-0.0546216 -0.0451168 -0.00551168
0.000495206 -0.0301168 -0.00551168
0.0800549 -0.0901168 -0.00551168
0.135172 -0.135117 -0.00551168
0.135172 -0.08 -0.00551168
0.0800549 -0.035 -0.00551168
0.000495206 0.025 -0.00551168
-0.0546216 0.01 -0.00551168
0.00128732 0.00159165 -0.00551168
0.00227961 -0.00102548 -0.00551168
0.0791586 -0.0598787 -0.00551168
0.0796578 -0.059106 -0.00551168
0.00110182 -0.000823821 0
0.000571683 -0.000188043 0
0.000561313 0.000639162 0
0.00189316 0.00207203 0
0.00260228 0.00255358 0
0.0033966 0.00307293 0
0.00428861 0.00362634 0
0.00529726 0.0041979 0
0.00644092 0.00476696 0
0.00773158 0.0053187 0
0.00918011 0.00583593 0
0.010799 0.00628751 0
0.012597 0.00663225 0
0.0145725 0.0068517 0
0.0167206 0.0069338 0
0.0190349 0.00685819 0
0.0215031 0.00658621 0
0.0241038 0.00607459 0
0.026821 0.00533786 0
0.0296245 0.00434523 0
0.0324763 0.00306927 0
0.0353199 0.00146906 0
0.0381488 -0.00039338 0
0.0409131 -0.00252802 0
0.0435632 -0.00493276 0
0.0460882 -0.0075571 0
0.0484881 -0.0103478 0
0.0506782 -0.0133217 0
0.0526651 -0.016422 0
0.0546139 -0.0195019 0
0.0565301 -0.022529 0
0.0584009 -0.0254846 0
0.0602154 -0.0283513 0
0.061964 -0.031114 0
0.0636389 -0.0337601 0
0.0652336 -0.0362795 0
0.0667431 -0.0386651 0
0.0681656 -0.0409111 0
0.0694983 -0.0430158 0
0.0707356 -0.0449823 0
0.071886 -0.0468071 0
0.0729575 -0.04849 0
0.0739438 -0.0500408 0
0.0748444 -0.0514675 0
0.0756707 -0.0527715 0
0.0764313 -0.053958 0
0.0771224 -0.0550398 0
0.0777384 -0.0560288 0
0.0782803 -0.0569318 0
0.0787691 -0.0577448 0
0.0792251 -0.0584672 0
0.0800494 -0.0597378 0
0.0797987 -0.0601582 0
0.0786655 -0.059391 0
0.0781259 -0.0588425 0
0.0775539 -0.0582102 0
0.0769587 -0.0574783 0
0.0763492 -0.0566339 0
0.075723 -0.0556725 0
0.0750452 -0.0546094 0
0.0742996 -0.0534457 0
0.073478 -0.0521785 0
0.072577 -0.0508019 0
0.0715904 -0.049313 0
0.0705098 -0.047712 0
0.069328 -0.0459996 0
0.0680378 -0.0441794 0
0.066632 -0.0422571 0
0.0651046 -0.0402413 0
0.0634508 -0.0381431 0
0.0616683 -0.0359754 0
0.0597581 -0.033753 0
0.0577255 -0.0314906 0
0.0555808 -0.0292024 0
0.0533388 -0.0269013 0
0.0510024 -0.0246151 0
0.0485693 -0.0223811 0
0.0460535 -0.0202228 0
0.0434788 -0.0181535 0
0.0408704 -0.0161833 0
0.0382442 -0.0143327 0
0.0356165 -0.0126209 0
0.0330065 -0.0110594 0
0.0304368 -0.00965062 0
0.0279338 -0.00838121 0
0.0255194 -0.00723697 0
0.0231965 -0.00623664 0
0.020983 -0.00535765 0
0.0188891 -0.00458677 0
0.0169193 -0.00391673 0
0.0150754 -0.00334068 0
0.0133572 -0.00285262 0
0.0117634 -0.0024437 0
0.0102912 -0.00210643 0
0.0089363 -0.00183343 0
0.00769424 -0.00161552 0
0.00655956 -0.00144452 0
0.00552632 -0.00131235 0
0.00458815 -0.00121216 0
0.00373885 -0.00113394 0
0.00297202 -0.00106855 0
-0.0506847 -0.0440454 0
-0.0467478 -0.0429739 0
-0.0428108 -0.0419025 0
-0.0388739 -0.0408311 0
-0.034937 -0.0397597 0
-0.0310001 -0.0386882 0
-0.0270632 -0.0376168 0
-0.0231263 -0.0365454 0
-0.0191894 -0.0354739 0
-0.0152525 -0.0344025 0
-0.0113155 -0.0333311 0
-0.00737862 -0.0322597 0
-0.00344171 -0.0311882 0
0.0038716 -0.0298185 0
0.00726082 -0.0297726 0
0.010644 -0.0299802 0
0.0140027 -0.0304367 0
0.0173201 -0.0311326 0
0.0205821 -0.0320541 0
0.0237776 -0.0331851 0
0.0268988 -0.0345078 0
0.0299406 -0.0360041 0
0.0329005 -0.0376567 0
0.035778 -0.039449 0
0.038574 -0.0413659 0
0.0412905 -0.043394 0
0.0439303 -0.0455212 0
0.0464964 -0.0477367 0
0.0489922 -0.0500312 0
0.051421 -0.0523964 0
0.0537863 -0.0548252 0
0.0560914 -0.0573112 0
0.0583395 -0.0598489 0
0.0605336 -0.0624334 0
0.0626765 -0.0650605 0
0.064771 -0.0677264 0
0.0668197 -0.0704277 0
0.0688248 -0.0731615 0
0.0707885 -0.0759252 0
0.072713 -0.0787163 0
0.0746002 -0.0815329 0
0.0764517 -0.0843729 0
0.0782695 -0.0872347 0
0.0829558 -0.0924852 0
0.0858567 -0.0948536 0
0.0887575 -0.0972221 0
0.0916584 -0.0995905 0
0.0945593 -0.101959 0
0.0974602 -0.104327 0
0.100361 -0.106696 0
0.103262 -0.109064 0
0.106163 -0.111433 0
0.109064 -0.113801 0
0.111965 -0.116169 0
0.114865 -0.118538 0
0.117766 -0.120906 0
0.120667 -0.123275 0
0.123568 -0.125643 0
0.126469 -0.128012 0
0.12937 -0.13038 0
0.132271 -0.132748 0
0.135172 -0.13118 0
0.135172 -0.127243 0
0.135172 -0.123306 0
0.135172 -0.119369 0
0.135172 -0.115432 0
0.135172 -0.111495 0
0.135172 -0.107558 0
0.135172 -0.103621 0
0.135172 -0.0996846 0
0.135172 -0.0957477 0
0.135172 -0.0918107 0
0.135172 -0.0878738 0
0.135172 -0.0839369 0
0.132271 -0.0776316 0
0.12937 -0.0752632 0
0.126469 -0.0728947 0
0.123568 -0.0705263 0
0.120667 -0.0681579 0
0.117766 -0.0657895 0
0.114865 -0.0634211 0
0.111965 -0.0610526 0
0.109064 -0.0586842 0
0.106163 -0.0563158 0
0.103262 -0.0539474 0
0.100361 -0.0515789 0
0.0974602 -0.0492105 0
0.0945593 -0.0468421 0
0.0916584 -0.0444737 0
0.0887575 -0.0421053 0
0.0858567 -0.0397368 0
0.0829558 -0.0373684 0
0.0782695 -0.0321179 0
0.0764517 -0.0292561 0
0.0746002 -0.026416 0
0.072713 -0.0235995 0
0.0707885 -0.0208084 0
0.0688248 -0.0180447 0
0.0668197 -0.0153109 0
0.064771 -0.0126096 0
0.0626765 -0.00994373 0
0.0605336 -0.00731663 0
0.0583395 -0.00473208 0
0.0560914 -0.00219437 0
0.0537863 0.000291632 0
0.051421 0.00272041 0
0.0489922 0.00508564 0
0.0464964 0.00738012 0
0.0439303 0.00959562 0
0.0412905 0.0117228 0
0.038574 0.0137509 0
0.035778 0.0156678 0
0.0329005 0.0174601 0
0.0299406 0.0191127 0
0.0268988 0.020609 0
0.0237776 0.0219317 0
0.0205821 0.0230627 0
0.0173201 0.0239842 0
0.0140027 0.0246801 0
0.010644 0.0251366 0
0.00726082 0.0253442 0
0.0038716 0.0252983 0
-0.00344171 0.0239286 0
-0.00737862 0.0228571 0
-0.0113155 0.0217857 0
-0.0152525 0.0207143 0
-0.0191894 0.0196429 0
-0.0231263 0.0185714 0
-0.0270632 0.0175 0
-0.0310001 0.0164286 0
-0.034937 0.0153571 0
-0.0388739 0.0142857 0
-0.0428108 0.0132143 0
-0.0467478 0.0121429 0
-0.0506847 0.0110714 0
-0.0546216 0.00606309 0
-0.0546216 0.00212617 0
-0.0546216 -0.00181074 0
-0.0546216 -0.00574766 0
-0.0546216 -0.00968457 0
-0.0546216 -0.0136215 0
-0.0546216 -0.0175584 0
-0.0546216 -0.0214953 0
-0.0546216 -0.0254322 0
-0.0546216 -0.0293691 0
-0.0546216 -0.0333061 0
-0.0546216 -0.037243 0
-0.0546216 -0.0411799 0
-0.0506847 -0.0440454 -0.00551168
-0.0467478 -0.0429739 -0.00551168
-0.0428108 -0.0419025 -0.00551168
-0.0388739 -0.0408311 -0.00551168
-0.034937 -0.0397597 -0.00551168
-0.0310001 -0.0386882 -0.00551168
-0.0270632 -0.0376168 -0.00551168
-0.0231263 -0.0365454 -0.00551168
-0.0191894 -0.0354739 -0.00551168
-0.0152525 -0.0344025 -0.00551168
-0.0113155 -0.0333311 -0.00551168
-0.00737862 -0.0322597 -0.00551168
-0.00344171 -0.0311882 -0.00551168
0.0038716 -0.0298185 -0.00551168
0.00726082 -0.0297726 -0.00551168
0.010644 -0.0299802 -0.00551168
0.0140027 -0.0304367 -0.00551168
0.0173201 -0.0311326 -0.00551168
0.0205821 -0.0320541 -0.00551168
0.0237776 -0.0331851 -0.00551168
0.0268988 -0.0345078 -0.00551168
0.0299406 -0.0360041 -0.00551168
0.0329005 -0.0376567 -0.00551168
0.035778 -0.039449 -0.00551168
0.038574 -0.0413659 -0.00551168
0.0412905 -0.043394 -0.00551168
0.0439303 -0.0455212 -0.00551168
0.0464964 -0.0477367 -0.00551168
0.0489922 -0.0500312 -0.00551168
0.051421 -0.0523964 -0.00551168
0.0537863 -0.0548252 -0.00551168
0.0560914 -0.0573112 -0.00551168
0.0583395 -0.0598489 -0.00551168
0.0605336 -0.0624334 -0.00551168
0.0626765 -0.0650605 -0.00551168
0.064771 -0.0677264 -0.00551168
0.0668197 -0.0704277 -0.00551168
0.0688248 -0.0731615 -0.00551168
0.0707885 -0.0759252 -0.00551168
0.072713 -0.0787163 -0.00551168
0.0746002 -0.0815329 -0.00551168
0.0764517 -0.0843729 -0.00551168
0.0782695 -0.0872347 -0.00551168
0.0829558 -0.0924852 -0.00551168
0.0858567 -0.0948536 -0.00551168
0.0887575 -0.0972221 -0.00551168
0.0916584 -0.0995905 -0.00551168
0.0945593 -0.101959 -0.00551168
0.0974602 -0.104327 -0.00551168
0.100361 -0.106696 -0.00551168
0.103262 -0.109064 -0.00551168
0.106163 -0.111433 -0.00551168
0.109064 -0.113801 -0.00551168
0.111965 -0.116169 -0.00551168
0.114865 -0.118538 -0.00551168
0.117766 -0.120906 -0.00551168
0.120667 -0.123275 -0.00551168
0.123568 -0.125643 -0.00551168
0.126469 -0.128012 -0.00551168
0.12937 -0.13038 -0.00551168
0.132271 -0.132748 -0.00551168
0.135172 -0.13118 -0.00551168
0.135172 -0.127243 -0.00551168
0.135172 -0.123306 -0.00551168
0.135172 -0.119369 -0.00551168
0.135172 -0.115432 -0.00551168
0.135172 -0.111495 -0.00551168
0.135172 -0.107558 -0.00551168
0.135172 -0.103621 -0.00551168
0.135172 -0.0996846 -0.00551168
0.135172 -0.0957477 -0.00551168
0.135172 -0.0918107 -0.00551168
0.135172 -0.0878738 -0.00551168
0.135172 -0.0839369 -0.00551168
0.132271 -0.0776316 -0.00551168
0.12937 -0.0752632 -0.00551168
0.126469 -0.0728947 -0.00551168
0.123568 -0.0705263 -0.00551168
0.120667 -0.0681579 -0.00551168
0.117766 -0.0657895 -0.00551168
0.114865 -0.0634211 -0.00551168
0.111965 -0.0610526 -0.00551168
0.109064 -0.0586842 -0.00551168
0.106163 -0.0563158 -0.00551168
0.103262 -0.0539474 -0.00551168
0.100361 -0.0515789 -0.00551168
0.0974602 -0.0492105 -0.00551168
0.0945593 -0.0468421 -0.00551168
0.0916584 -0.0444737 -0.00551168
0.0887575 -0.0421053 -0.00551168
0.0858567 -0.0397368 -0.00551168
0.0829558 -0.0373684 -0.00551168
0.0782695 -0.0321179 -0.00551168
0.0764517 -0.0292561 -0.00551168
0.0746002 -0.026416 -0.00551168
0.072713 -0.0235995 -0.00551168
0.0707885 -0.0208084 -0.00551168
0.0688248 -0.0180447 -0.00551168
0.0668197 -0.0153109 -0.00551168
0.064771 -0.0126096 -0.00551168
0.0626765 -0.00994373 -0.00551168
0.0605336 -0.00731663 -0.00551168
0.0583395 -0.00473208 -0.00551168
0.0560914 -0.00219437 -0.00551168
0.0537863 0.000291632 -0.00551168
0.051421 0.00272041 -0.00551168
0.0489922 0.00508564 -0.00551168
0.0464964 0.00738012 -0.00551168
0.0439303 0.00959562 -0.00551168
0.0412905 0.0117228 -0.00551168
[...]
CELL_DATA 2965
SCALARS rho float
LOOKUP_TABLE default
0.533597
0.333321
0.524843
0.322485
0.54199
0.348915
0.53338
0.333541
0.34894
0.525814
0.322187
0.331737
0.425429
0.536347
0.518062
0.51705
0.527106
0.517282
0.544813
0.528798
0.533626
0.323095
0.51037
0.5387
0.535443
0.547747
0.458672
0.480068
0.327233
0.505481
0.502142
0.332447
0.552292
0.529664
0.281034
0.349284
0.528696
0.533485
0.310431
0.506057
0.529845
0.502845
0.534231
0.330709
0.332094
0.533115
0.458676
0.471313
0.311347
0.533545
0.389879
0.319916
0.333795
0.425075
0.324222
0.420171
0.349713
0.317474
0.271851
0.476132
0.515958
0.477165
0.324314
0.544043
0.487359
0.53363
0.533428
0.320997
0.31158
0.334722
0.518965
0.543473
0.533441
0.294124
0.500394
0.409311
0.533417
0.319694
0.326282
0.467685
0.533431
0.323467
0.335327
0.434493
0.482295
0.374105
0.315696
0.272729
0.554418
0.348049
0.310321
0.533021
0.517979
0.514457
0.533767
0.311685
0.457281
0.29717
0.334549
0.327986
0.474383
0.327296
0.335011
0.3315
0.336123
0.528643
0.533405
0.322604
0.317325
0.533402
0.249057
0.390871
0.470134
0.494307
0.313303
0.306214
0.507645
0.455029
0.533623
0.331172
0.533418
0.238334
0.53995
0.541189
0.494349
0.400022
0.328318
0.459354
0.531706
0.267326
0.332438
0.427529
0.532288
0.333662
0.460382
0.335345
0.42645
0.516785
0.553779
0.541982
0.333471
0.516134
0.527921
0.330022
0.280281
0.545301
0.319899
0.541202
0.554174
0.341393
0.33095
0.328441
0.335302
0.321798
0.28032
0.270014
0.533392
0.531856
0.526496
0.540783
0.452114
0.461648
0.407081
0.543092
0.350487
0.533378
0.415878
0.331554
0.533485
0.535965
0.48114
0.299153
0.433298
0.519828
0.547124
0.413327
0.511862
0.357803
0.25968
0.416672
0.336862
0.259539
0.311604
0.300881
0.554484
0.533387
0.329776
0.329455
0.388978
0.33849
0.311226
0.318272
0.45074
0.292363
0.533474
0.463263
0.534359
0.486225
0.439916
0.325322
0.332416
0.339714
0.528427
0.443332
0.533365
0.309387
0.427969
0.533469
0.52031
0.53459
0.496596
0.397459
0.345639
0.34177
0.505804
0.339493
0.4602
0.32414
0.517561
0.339173
0.348889
0.334307
0.458942
0.381861
0.545766
0.287387
0.533359
0.522518
0.319461
0.479599
0.326617
0.284342
0.536064
0.312107
0.533465
0.536076
0.323741
0.531203
0.336029
0.349984
0.372099
0.331427
0.543761
0.522998
0.329458
0.249085
0.526048
0.533481
0.446576
0.505799
0.326617
0.328373
0.533395
0.333983
0.482519
0.27714
0.277518
0.533616
0.53316
0.334119
0.464309
0.325048
0.542953
0.349867
0.53517
0.533584
0.266365
0.472337
0.520633
0.303264
0.331441
0.534018
0.330352
0.550244
0.509734
0.331083
0.515365
0.5148
0.551491
0.531598
0.546509
0.468621
0.529411
0.533455
0.320588
0.317163
0.524402
0.539374
0.335992
0.531584
0.462318
0.323716
0.335425
0.330454
0.477419
0.319985
0.53344
0.479955
0.550147
0.334826
0.483154
0.48542
0.47646
0.533266
0.32811
0.236519
0.544855
0.533403
0.533447
0.318533
0.332535
0.481659
0.300926
0.301796
0.493207
0.533386
0.484987
0.249239
0.328189
0.48218
0.494946
0.328406
0.533873
0.533365
0.331263
0.41394
0.53324
0.515008
0.286207
0.331489
0.533685
0.339328
0.537465
0.36377
0.539789
0.391475
0.369014
0.335038
0.329309
0.30153
0.512008
0.547739
0.526325
0.542944
0.485127
0.473789
0.314613
0.534344
0.546897
0.334881
0.318342
0.533733
0.316138
0.516874
0.472858
0.334437
0.335257
0.332509
0.320421
0.533369
0.335229
0.337303
0.379558
0.328961
0.533278
0.534051
0.472229
0.533407
0.334146
0.531772
0.330263
0.533744
0.320144
0.336334
0.535541
0.465163
0.285962
0.257001
0.532402
0.360173
0.500172
0.514361
0.320872
0.53071
0.280377
0.340381
0.533846
0.304084
0.53581
0.275159
0.379642
0.33325
0.536082
0.468432
0.43386
0.533502
0.29887
0.546374
0.340523
0.324275
0.548914
0.325768
0.54045
0.421187
0.487097
0.278818
0.294767
0.322566
0.279204
0.3217
0.340423
0.530096
0.53417
0.534375
0.533537
0.336463
0.538266
0.465921
0.520588
0.254448
0.533079
0.348453
0.484441
0.476031
0.338192
0.533492
0.354224
0.522249
0.336749
0.488055
0.534827
0.324569
0.533508
0.257813
0.53777
0.325214
0.317148
0.415791
0.543145
0.540271
0.397495
0.279839
0.249525
0.416761
0.542685
0.528264
0.533413
0.531581
0.536966
0.317538
0.513831
0.483837
0.330784
0.265818
0.305518
0.497958
0.535793
0.36575
0.379687
0.370586
0.342387
0.528525
0.534706
0.533495
0.548354
0.398023
0.533569
0.535278
0.330124
0.53934
0.345816
0.350578
0.532258
0.534358
0.53715
0.545226
0.32776
0.327688
0.552442
0.530454
0.327888
0.529633
0.5012
0.534335
0.347972
0.33088
0.535451
0.335874
0.452898
0.534507
0.535729
0.334975
0.533255
0.330324
0.330783
0.321395
0.344843
0.533244
0.362756
0.517174
0.283229
0.324886
0.526753
0.340187
0.291169
0.334559
0.275267
0.358975
0.328373
0.32662
0.426603
0.437906
0.321129
0.348058
0.535747
0.33506
0.39475
0.53323
0.533446
0.495703
0.490458
0.436246
0.443632
0.300652
0.373369
0.533384
0.498558
0.277741
0.508341
0.245434
0.29159
0.324124
0.533629
0.551002
0.33666
0.498001
0.532019
0.28276
0.339052
0.541624
0.533439
0.360301
0.54338
0.379541
0.336
0.541673
0.337933
0.452877
0.527176
0.405514
0.542407
0.317255
0.340177
0.537255
0.368379
0.33782
0.348521
0.328299
0.326446
0.533563
0.539659
0.52327
0.316794
0.256346
0.340783
0.336781
0.530303
0.282945
0.423
0.336891
0.531795
0.533457
0.306045
0.533562
0.39072
0.491184
0.297898
0.527668
0.533488
0.553779
0.53516
0.53354
0.526217
0.348273
0.424794
0.337794
0.52761
0.318034
0.323145
0.532388
0.533408
0.533151
0.330967
0.327094
0.538899
0.541
0.306111
0.534229
0.299013
0.306897
0.330183
0.552406
0.538565
0.522715
0.300366
0.299655
0.341083
0.328199
0.537498
0.533437
0.545955
0.329519
0.318573
0.456704
0.546923
0.5436
0.510146
0.5334
0.412535
0.535991
0.541506
0.517387
0.330981
0.53658
0.494872
0.533387
0.536067
0.545672
0.487009
0.380325
0.546209
0.33579
0.544037
0.533406
0.235972
0.533422
0.462652
0.535288
0.329272
0.323668
0.53375
0.300234
0.321789
0.548168
0.300097
0.415713
0.537422
0.287373
0.546129
0.327096
0.492459
0.532745
0.528085
0.50263
0.323918
0.326816
0.521543
0.436372
0.334315
0.480192
0.314568
0.533577
0.324685
0.459242
0.519242
0.533538
0.32415
0.492327
0.348031
0.408771
0.413772
0.340055
0.276754
0.331921
0.533641
0.458625
0.436286
0.321036
0.533611
0.489925
0.320465
0.533576
0.335318
0.456789
0.519368
0.533369
0.537116
0.295359
0.329618
0.533525
0.544722
0.522727
0.489456
0.542634
0.4794
0.465543
0.318178
0.503
0.388036
0.345005
0.359571
0.533432
0.549133
0.509381
0.393472
0.330447
0.541175
0.332534
0.340394
0.403084
0.318487
0.455927
0.331951
0.53339
0.329773
0.311689
0.414131
0.544593
0.330366
0.307164
0.548709
0.543663
0.550915
0.324818
0.306619
0.538402
0.34406
0.306696
0.330711
0.43591
0.525207
0.267444
0.550334
0.331546
0.505838
0.533623
0.31818
0.407541
0.478024
0.500458
0.496244
0.540811
0.538345
0.544354
0.53496
0.533403
0.337179
0.380859
0.521893
0.296
0.543165
0.525968
0.266225
0.531905
0.475794
0.514513
0.539363
0.470331
0.531717
0.313928
0.491604
0.33965
0.299141
0.534704
0.533589
0.283154
0.3311
0.530989
0.392211
0.453139
0.300956
0.249169
0.548429
0.516143
0.544086
0.514408
0.463052
0.376483
0.453279
0.317101
0.533451
0.504335
0.495198
0.343021
0.3811
0.544203
0.498144
0.539267
0.13755
0.533552
0.320666
0.323619
0.330699
0.520125
0.521993
0.540456
0.471924
0.33478
0.533557
0.386782
0.545795
0.546913
0.492571
0.326944
0.313867
0.534025
0.336061
0.424603
0.47464
0.321247
0.34168
0.517269
0.542223
0.330157
0.533537
0.532698
0.322473
0.533563
0.534966
0.53837
0.348722
0.34552
0.542097
0.327615
0.334597
0.407708
0.533596
0.327796
0.376549
0.321906
0.297539
0.538001
0.330505
0.326812
0.543102
0.330116
0.325776
0.553228
0.537736
0.534293
0.533409
0.493447
0.331446
0.551188
0.533025
0.315911
0.537306
0.535235
0.533401
0.533384
0.348488
0.53349
0.334379
0.533466
0.322763
0.533506
0.336239
0.518382
0.315491
0.540514
0.544937
0.549814
0.484733
0.533948
0.536717
0.28941
0.533689
0.265779
0.533358
0.538095
0.328165
0.405746
0.337015
0.335694
0.533369
0.361771
0.533341
0.139195
0.504961
0.509036
0.540152
0.397403
0.335301
0.26914
0.324166
0.27323
0.536539
0.364584
0.317446
0.53482
0.336123
0.353924
0.532712
0.532914
0.501344
0.535672
0.25586
0.487221
0.313893
0.533424
0.534185
0.524548
0.294891
0.540276
0.535647
0.541265
0.498536
0.533127
0.382553
0.533461
0.54016
0.442728
0.533797
0.321133
0.518359
0.34498
0.420131
0.519958
0.490436
0.530697
0.474327
0.487389
0.537127
0.317934
0.524107
0.331815
0.333536
0.54068
0.512702
0.479164
0.52005
0.531713
0.53342
0.537063
0.533466
0.533835
0.534228
0.551709
0.348072
0.50207
0.531284
0.321519
0.534097
0.322237
0.471642
0.329612
0.533697
0.324813
0.321984
0.312528
0.470162
0.534834
0.428459
0.516388
0.329064
0.333643
0.533498
0.535514
0.336181
0.503695
0.445758
0.327336
0.504867
0.330954
0.320439
0.533985
0.480115
0.315412
0.519025
0.533171
0.524708
0.336625
0.517335
0.261723
0.533466
0.378298
0.510064
0.33052
0.547832
0.305935
0.333309
0.318848
0.517177
0.30191
0.498853
0.546411
0.470656
0.349232
0.313869
0.542045
0.313518
0.237033
0.334653
0.535343
0.318486
0.339615
0.268091
0.499603
0.336299
0.33408
0.33174
0.533632
0.549215
0.340478
0.538562
0.537771
0.495786
0.32491
0.318446
0.5339
0.319114
0.554322
0.328938
0.531679
0.323242
0.237291
0.514448
0.330275
0.326697
0.334107
0.533637
0.304498
0.44583
0.537203
0.317848
0.516333
0.330858
0.548931
0.418321
0.318722
0.335436
0.534805
0.440828
0.533814
0.320363
0.340241
0.439505
0.533384
0.317766
0.331734
0.328394
0.415882
0.536881
0.351828
0.450007
0.531543
0.533765
0.526617
0.332639
0.535865
0.321463
0.534306
0.534303
0.460903
0.334115
0.492112
0.537454
0.317804
0.538206
0.538129
0.33151
0.327169
0.320283
0.27976
0.542566
0.334185
0.533709
0.382769
0.533386
0.495285
0.374203
0.511183
0.305442
0.479925
0.327297
0.533384
0.533076
0.2711
0.329528
0.325862
0.465608
0.552321
0.321152
0.301036
0.336652
0.451591
0.546394
0.296603
0.323655
0.526078
0.536738
0.527913
0.332906
0.330608
0.524015
0.533383
0.317777
0.327546
0.437558
0.549283
0.493602
0.307745
0.533792
0.534847
0.314711
0.538259
0.330438
0.53922
0.313033
0.359216
0.317244
0.282713
0.533443
0.322096
0.329612
0.326952
0.336163
0.484487
0.529342
0.549258
0.317106
0.533362
0.535405
0.534979
0.546686
0.53336
0.547573
0.548445
0.548326
0.538005
0.532604
0.32447
0.487607
0.549604
0.325661
0.540619
0.544443
0.536638
0.535142
0.309938
0.542164
0.533453
0.536503
0.334709
0.508016
0.530024
0.533699
0.529578
0.326165
0.486764
0.346907
0.414351
0.33696
0.337181
0.319792
0.335735
0.533797
0.533242
0.522421
0.32428
0.534369
0.533572
0.537338
0.333489
0.332005
0.519351
0.30845
0.31212
0.330876
0.536388
0.419411
0.534296
0.32984
0.545943
0.5332
0.457299
0.538852
0.334494
0.549783
0.535373
0.513115
0.539173
0.53401
0.520657
0.328229
0.348433
0.332933
0.533405
0.310815
0.534354
0.521211
0.496657
0.333294
0.34961
0.483321
0.541837
0.533422
0.329957
0.525658
0.478662
0.271086
0.533746
0.322906
0.32766
0.323531
0.317034
0.331743
0.539367
0.535541
0.551873
0.443298
0.532899
0.533403
0.518564
0.533673
0.546163
0.548255
0.533322
0.533442
0.327855
0.533414
0.528267
0.426896
0.331633
0.503951
0.311829
0.537113
0.370155
0.538929
0.545363
0.334144
0.536268
0.326821
0.535311
0.532541
0.546903
0.489643
0.51615
0.545491
0.533336
0.34794
0.445413
0.422486
0.253155
0.533849
0.538012
0.443687
0.550382
0.526761
0.533513
0.321278
0.329468
0.527822
0.54595
0.318482
0.198699
0.515498
0.534118
0.534676
0.270853
0.457219
0.513553
0.53275
0.333174
0.533627
0.484477
0.525614
0.505096
0.439533
0.534096
0.3121
0.531148
0.318006
0.332115
0.533721
0.344689
0.34564
0.330529
0.525524
0.51169
0.44288
0.533859
0.430691
0.354438
0.324004
0.542237
0.532302
0.539649
0.489311
0.253599
0.522592
0.432768
0.318161
0.532298
0.540697
0.336742
0.536087
0.529284
0.533394
0.44572
0.533278
0.360894
0.533883
0.531299
0.533335
0.336184
0.525393
0.385787
0.508844
0.533605
0.544529
0.530651
0.534501
0.534322
0.532785
0.518336
0.325507
0.541742
0.510649
0.335658
0.495709
0.536688
0.550675
0.500708
0.31767
0.531016
0.335285
0.545657
0.490069
0.538831
0.327263
0.513345
0.534404
0.533512
0.525379
0.479328
0.533503
0.466602
0.386342
0.33064
0.276089
0.533389
0.345843
0.307493
0.536549
0.319425
0.543665
0.321926
0.536221
0.321279
0.327856
0.521285
0.395245
0.298861
0.532021
0.532985
0.53798
0.337701
0.507808
0.534103
0.531892
0.331075
0.533456
0.534868
0.33086
0.482358
0.462249
0.523204
0.339476
0.391567
0.510476
0.320047
0.537878
0.331506
0.334675
0.533415
0.38607
0.507319
0.323457
0.539969
0.424647
0.533463
0.227792
0.326866
0.533427
0.341649
0.533489
0.347697
0.534179
0.486763
0.466312
0.533505
0.502409
0.263594
0.534623
0.548533
0.531624
0.533476
0.324979
0.333371
0.321238
0.334863
0.533444
0.339951
0.513599
0.326223
0.532541
0.534454
0.53342
0.336694
0.534253
0.32254
0.534603
0.541708
0.350259
0.533472
0.527438
0.314547
0.522631
0.325256
0.349207
0.548927
0.331722
0.543278
0.224722
0.336589
0.512945
0.359451
0.53879
0.330357
0.461233
0.532818
0.530228
0.385691
0.276353
0.329521
0.533462
0.533452
0.339536
0.535053
0.32497
0.532785
0.331581
0.319603
0.467934
0.474634
0.419395
0.497888
0.533893
0.492189
0.473557
0.535963
0.533514
0.330724
0.5349
0.34214
0.341593
0.496573
0.40672
0.395377
0.442494
0.336166
0.515517
0.533535
0.537256
0.326592
0.320802
0.451015
0.505717
0.534312
0.545628
0.321532
0.499526
0.532629
0.509383
0.440048
0.332251
0.328026
0.330575
0.554452
0.536886
0.307277
0.325054
0.436622
0.330823
0.549035
0.513151
0.319203
0.533498
0.4045
0.540601
0.536714
0.327189
0.349162
0.506963
0.320093
0.394233
0.532856
0.274529
0.326573
0.336719
0.508019
0.536099
0.505669
0.335732
0.313757
0.528744
0.534745
0.494833
0.538723
0.318805
0.326876
0.336451
0.497907
0.326442
0.32323
0.537731
0.541673
0.514402
0.330109
0.332029
0.327908
0.533645
0.302125
0.532741
0.533444
0.530344
0.428089
0.534404
0.548913
0.331392
0.336899
0.535425
0.324027
0.465642
0.526166
0.541638
0.436997
0.325113
0.326468
0.541497
0.40328
0.310736
0.534278
0.533957
0.296112
0.333501
0.513358
0.442238
0.331008
0.334491
0.540132
0.490308
0.529494
0.475408
0.354332
0.329627
0.344254
0.38026
0.318937
0.533401
0.528574
0.470194
0.511832
0.345644
0.504295
0.348959
0.533082
0.545504
0.334786
0.264867
0.52964
0.384956
0.472449
0.534936
0.305347
0.530908
0.527928
0.53335
0.533532
0.509005
0.349416
0.333592
0.316735
0.511099
0.533578
0.51511
0.443737
0.334482
0.333396
0.492369
0.333101
0.538196
0.53336
0.532967
0.347329
0.328735
0.464606
0.508147
0.533443
0.527112
0.533811
0.533556
0.535732
0.482747
0.252904
0.533505
0.498452
0.534501
0.31744
0.529767
0.42372
0.529082
0.551741
0.445886
0.491687
0.53166
0.509255
0.533435
0.330139
0.532054
0.550749
0.345852
0.507215
0.305294
0.30572
0.533414
0.533651
0.334412
0.483153
0.533366
0.33452
0.346833
0.556882
0.549724
0.471063
0.350597
0.495574
0.329818
0.542647
0.548645
0.329806
0.454461
0.500341
0.327574
0.320948
0.344398
0.53938
0.533222
0.319583
0.339773
0.338558
0.340376
0.340495
0.502661
0.328293
0.550525
0.534913
0.541583
0.323045
0.532741
0.446489
0.531809
0.443202
0.529543
0.320346
0.302196
0.335292
0.53397
0.327316
0.336857
0.498573
0.334836
0.5335
0.507037
0.424938
0.32012
0.322409
0.523132
0.5358
0.527685
0.526618
0.543263
0.320827
0.34653
0.319353
0.50982
0.534503
0.333984
0.518932
0.33743
0.338447
0.533739
0.323008
0.345131
0.26223
0.370624
0.334304
0.534006
0.539615
0.53772
0.337745
0.533382
0.542129
0.333589
0.534006
0.375341
0.539737
0.348873
0.387586
0.53319
0.329325
0.270958
0.529732
0.52422
0.33247
0.545988
0.498483
0.532875
0.398641
0.321329
0.501473
0.533841
0.365475
0.357761
0.422481
0.398171
0.533724
0.330164
0.330293
0.540833
0.518947
0.336922
0.326399
0.531557
0.329161
0.34251
0.323865
0.454766
0.544579
0.320478
0.539878
0.32314
0.308585
0.348175
0.405122
0.335734
0.539503
0.324252
0.346772
0.481162
0.538525
0.354308
0.533451
0.320355
0.330618
0.510833
0.551988
0.52325
0.513127
0.519799
0.545978
0.3291
0.538864
0.312303
0.533423
0.526686
0.410679
0.524724
0.533546
0.53372
0.533433
0.43189
0.347152
0.429712
0.335755
0.504556
0.532307
0.49576
0.326357
0.536158
0.368475
0.533424
0.332329
0.307317
0.556065
0.306239
0.528747
0.551447
0.376677
0.335727
0.331066
0.533297
0.392706
0.271479
0.540629
0.331121
0.525624
0.346151
0.341644
0.319114
0.535026
0.390103
0.533614
0.336566
0.341787
0.534003
0.532505
0.282839
0.358468
0.268695
0.481435
0.333371
0.520637
0.530562
0.533474
0.237809
0.325126
0.450134
0.530867
0.548008
0.532548
0.301983
0.514253
0.537346
0.533486
0.533516
0.318743
0.522112
0.334032
0.449632
0.542788
0.537045
0.530005
0.544594
0.500596
0.532047
0.543944
0.533544
0.522852
0.536427
0.533522
0.535335
0.336975
0.331509
0.533911
0.47568
0.533576
0.533355
0.547926
0.519568
0.544843
0.335261
0.331289
0.533483
0.339805
0.331839
0.33488
0.533791
0.523457
0.533598
0.511245
0.523724
0.318048
0.537692
0.318143
0.32059
0.545455
0.525941
0.52458
0.398889
0.395745
0.330363
0.332072
0.384233
0.325748
0.357374
0.543859
0.310499
0.531137
0.33449
0.539385
0.532954
0.285716
0.344635
0.499172
0.533493
0.336518
0.508902
0.26886
0.317022
0.328324
0.448611
0.534802
0.533427
0.533794
0.245386
0.34547
0.274273
0.334137
0.53342
0.547246
0.538428
0.335949
0.319878
0.53339
0.532607
0.536275
0.307678
0.480909
0.465186
0.543067
0.429989
0.342684
0.337653
0.324103
0.535632
0.327424
0.339295
0.533425
0.34726
0.53385
0.347934
0.346873
0.399156
0.345207
0.545466
0.533464
0.533892
0.444777
0.554137
0.510329
0.476522
0.351344
0.507645
0.530019
0.509685
0.536286
0.532714
0.539495
0.425013
0.532475
0.535132
0.344343
0.335704
0.548869
0.400241
0.533346
0.330733
0.545844
0.363557
0.526089
0.534097
0.508419
0.53284
0.538892
0.51537
0.320576
0.336255
0.537537
0.546641
0.533069
0.43335
0.544075
0.446227
0.494158
0.533355
0.47206
0.464094
0.540252
0.533427
0.336754
0.317982
0.534142
0.502144
0.331027
0.342004
0.423331
0.533466
0.533367
0.550168
0.337446
0.524561
0.304364
0.536522
0.33011
0.544451
0.306059
0.548876
0.33957
0.531498
0.445333
0.332551
0.323446
0.470923
0.330934
0.48604
0.317219
0.53374
0.533442
0.530242
0.52942
0.533923
0.534811
0.533399
0.549576
0.541436
0.502063
0.515836
0.498043
0.53816
0.323945
0.500661
0.49953
0.532519
0.318942
0.497851
0.545192
0.533489
0.335106
0.32391
0.336055
0.544201
0.499867
0.327198
0.500406
0.391
0.533661
0.313149
0.411958
0.350781
0.302879
0.552515
0.325297
0.50848
0.328572
0.550944
0.338096
0.533696
0.502615
0.529173
0.35027
0.347302
0.352919
0.516129
0.328891
0.351231
0.326288
0.540349
0.52003
0.544214
0.523222
0.530891
0.51205
0.382783
0.346184
0.530826
0.329843
0.447884
0.526964
0.549698
0.227471
0.338239
0.52361
0.53347
0.408838
0.525156
0.534922
0.51841
0.343022
0.542656
0.520104
0.532912
0.533425
0.323866
0.533419
0.327835
0.531977
0.542095
0.504777
0.532996
0.346801
0.537223
0.22511
0.359955
0.501616
0.508054
0.529737
0.451597
0.332253
0.532071
0.5358
0.324911
0.324986
0.305672
0.548074
0.337582
0.333701
0.330005
0.332693
0.317916
0.369243
0.542358
0.315936
0.539634
0.524329
0.330069
0.53564
0.322676
0.547631
0.317118
0.461509
0.327247
0.527822
0.534264
0.398619
0.497393
0.533929
0.521114
0.32609
0.480242
0.430275
0.317026
0.326466
0.405257
0.322954
0.544196
0.304269
0.330361
0.323173
0.533437
0.528214
0.316586
0.323184
0.544995
0.329886
0.328818
0.533498
0.329713
0.345438
0.344776
0.551056
0.503398
0.547719
0.329546
0.29138
0.538213
0.518229
0.533446
0.396376
0.5082
0.530043
0.415145
0.402753
0.328151
0.327787
0.237531
0.492933
0.325951
0.546389
0.512709
0.532942
0.335827
0.410102
0.419928
0.556345
0.302804
0.482609
0.241638
0.492048
0.324526
0.280659
0.296652
0.537269
0.317786
0.550522
0.346561
0.380119
0.33032
0.471942
0.31634
0.54327
0.344932
0.505088
0.48737
0.328327
0.534081
0.534073
0.337507
0.547538
0.350261
0.331404
0.542183
0.304577
0.51563
0.359523
0.236982
0.533241
0.323114
0.351876
0.347843
0.339885
0.322074
0.515433
0.435612
0.530371
0.547004
0.528442
0.543055
0.411159
0.537784
0.301255
0.534414
0.331576
0.526616
0.323658
0.388948
0.5258
0.548547
0.535076
0.354048
0.440015
0.334202
0.345686
0.348206
0.233553
0.537018
0.409905
0.546527
0.533253
0.484864
0.539112
0.534487
0.393709
0.342463
0.36637
0.54124
0.484693
0.502311
0.533957
0.551207
0.417378
0.287395
0.340318
0.543819