# vtk DataFile Version 1.0
unstructured grid
ascii
DATASET UNSTRUCTURED_GRID
points 3226 float
0.0796578 -0.059106 0
0.00128732 0.00159165 0
0.00227961 -0.00102548 0
0.0791586 -0.0598787 0
-0.0546216 0.01 0
0.000495206 0.025 0
0.0800549 -0.035 0
0.135172 -0.08 0
-0.0546216 -0.0451168 0
0.000495206 -0.0301168 0
0.0800549 -0.0901168 0
0.135172 -0.135117 0
-0.0546216 -0.0451168 -0.00551168
0.000495206 -0.0301168 -0.00551168
0.0800549 -0.0901168 -0.00551168
0.135172 -0.135117 -0.00551168
0.135172 -0.08 -0.00551168
0.0800549 -0.035 -0.00551168
0.000495206 0.025 -0.00551168
-0.0546216 0.01 -0.00551168
0.00128732 0.00159165 -0.00551168
0.00227961 -0.00102548 -0.00551168
0.0791586 -0.0598787 -0.00551168
0.0796578 -0.059106 -0.00551168
0.00110182 -0.000823821 0
0.000571683 -0.000188043 0
0.000561313 0.000639162 0
0.00189316 0.00207203 0
0.00260228 0.00255358 0
0.0033966 0.00307293 0
0.00428861 0.00362634 0
0.00529726 0.0041979 0
0.00644092 0.00476696 0
0.00773158 0.0053187 0
0.00918011 0.00583593 0
0.010799 0.00628751 0
0.012597 0.00663225 0
0.0145725 0.0068517 0
0.0167206 0.0069338 0
0.0190349 0.00685819 0
0.0215031 0.00658621 0
0.0241038 0.00607459 0
0.026821 0.00533786 0
0.0296245 0.00434523 0
0.0324763 0.00306927 0
0.0353199 0.00146906 0
0.0381488 -0.00039338 0
0.0409131 -0.00252802 0
0.0435632 -0.00493276 0
0.0460882 -0.0075571 0
0.0484881 -0.0103478 0
0.0506782 -0.0133217 0
0.0526651 -0.016422 0
0.0546139 -0.0195019 0
0.0565301 -0.022529 0
0.0584009 -0.0254846 0
0.0602154 -0.0283513 0
0.061964 -0.031114 0
0.0636389 -0.0337601 0
0.0652336 -0.0362795 0
0.0667431 -0.0386651 0
0.0681656 -0.0409111 0
0.0694983 -0.0430158 0
0.0707356 -0.0449823 0
0.071886 -0.0468071 0
0.0729575 -0.04849 0
0.0739438 -0.0500408 0
0.0748444 -0.0514675 0
0.0756707 -0.0527715 0
0.0764313 -0.053958 0
0.0771224 -0.0550398 0
0.0777384 -0.0560288 0
0.0782803 -0.0569318 0
0.0787691 -0.0577448 0
0.0792251 -0.0584672 0
0.0800494 -0.0597378 0
0.0797987 -0.0601582 0
0.0786655 -0.059391 0
0.0781259 -0.0588425 0
0.0775539 -0.0582102 0
0.0769587 -0.0574783 0
0.0763492 -0.0566339 0
0.075723 -0.0556725 0
0.0750452 -0.0546094 0
0.0742996 -0.0534457 0
0.073478 -0.0521785 0
0.072577 -0.0508019 0
0.0715904 -0.049313 0
0.0705098 -0.047712 0
0.069328 -0.0459996 0
0.0680378 -0.0441794 0
0.066632 -0.0422571 0
0.0651046 -0.0402413 0
0.0634508 -0.0381431 0
0.0616683 -0.0359754 0
0.0597581 -0.033753 0
0.0577255 -0.0314906 0
0.0555808 -0.0292024 0
0.0533388 -0.0269013 0
0.0510024 -0.0246151 0
0.0485693 -0.0223811 0
0.0460535 -0.0202228 0
0.0434788 -0.0181535 0
0.0408704 -0.0161833 0
0.0382442 -0.0143327 0
0.0356165 -0.0126209 0
0.0330065 -0.0110594 0
0.0304368 -0.00965062 0
0.0279338 -0.00838121 0
0.0255194 -0.00723697 0
0.0231965 -0.00623664 0
0.020983 -0.00535765 0
0.0188891 -0.00458677 0
0.0169193 -0.00391673 0
0.0150754 -0.00334068 0
0.0133572 -0.00285262 0
0.0117634 -0.0024437 0
0.0102912 -0.00210643 0
0.0089363 -0.00183343 0
0.00769424 -0.00161552 0
0.00655956 -0.00144452 0
0.00552632 -0.00131235 0
0.00458815 -0.00121216 0
0.00373885 -0.00113394 0
0.00297202 -0.00106855 0
-0.0506847 -0.0440454 0
-0.0467478 -0.0429739 0
-0.0428108 -0.0419025 0
-0.0388739 -0.0408311 0
-0.034937 -0.0397597 0
-0.0310001 -0.0386882 0
-0.0270632 -0.0376168 0
-0.0231263 -0.0365454 0
-0.0191894 -0.0354739 0
-0.0152525 -0.0344025 0
-0.0113155 -0.0333311 0
-0.00737862 -0.0322597 0
-0.00344171 -0.0311882 0
0.0038716 -0.0298185 0
0.00726082 -0.0297726 0
0.010644 -0.0299802 0
0.0140027 -0.0304367 0
0.0173201 -0.0311326 0
0.0205821 -0.0320541 0
0.0237776 -0.0331851 0
0.0268988 -0.0345078 0
0.0299406 -0.0360041 0
0.0329005 -0.0376567 0
0.035778 -0.039449 0
0.038574 -0.0413659 0
0.0412905 -0.043394 0
0.0439303 -0.0455212 0
0.0464964 -0.0477367 0
0.0489922 -0.0500312 0
0.051421 -0.0523964 0
0.0537863 -0.0548252 0
0.0560914 -0.0573112 0
0.0583395 -0.0598489 0
0.0605336 -0.0624334 0
0.0626765 -0.0650605 0
0.064771 -0.0677264 0
0.0668197 -0.0704277 0
0.0688248 -0.0731615 0
0.0707885 -0.0759252 0
0.072713 -0.0787163 0
0.0746002 -0.0815329 0
0.0764517 -0.0843729 0
0.0782695 -0.0872347 0
0.0829558 -0.0924852 0
0.0858567 -0.0948536 0
0.0887575 -0.0972221 0
0.0916584 -0.0995905 0
0.0945593 -0.101959 0
0.0974602 -0.104327 0
0.100361 -0.106696 0
0.103262 -0.109064 0
0.106163 -0.111433 0
0.109064 -0.113801 0
0.111965 -0.116169 0
0.114865 -0.118538 0
0.117766 -0.120906 0
0.120667 -0.123275 0
0.123568 -0.125643 0
0.126469 -0.128012 0
0.12937 -0.13038 0
0.132271 -0.132748 0
0.135172 -0.13118 0
0.135172 -0.127243 0
0.135172 -0.123306 0
0.135172 -0.119369 0
0.135172 -0.115432 0
0.135172 -0.111495 0
0.135172 -0.107558 0
0.135172 -0.103621 0
0.135172 -0.0996846 0
0.135172 -0.0957477 0
0.135172 -0.0918107 0
0.135172 -0.0878738 0
0.135172 -0.0839369 0
0.132271 -0.0776316 0
0.12937 -0.0752632 0
0.126469 -0.0728947 0
0.123568 -0.0705263 0
0.120667 -0.0681579 0
0.117766 -0.0657895 0
0.114865 -0.0634211 0
0.111965 -0.0610526 0
0.109064 -0.0586842 0
0.106163 -0.0563158 0
0.103262 -0.0539474 0
0.100361 -0.0515789 0
0.0974602 -0.0492105 0
0.0945593 -0.0468421 0
0.0916584 -0.0444737 0
0.0887575 -0.0421053 0
0.0858567 -0.0397368 0
0.0829558 -0.0373684 0
0.0782695 -0.0321179 0
0.0764517 -0.0292561 0
0.0746002 -0.026416 0
0.072713 -0.0235995 0
0.0707885 -0.0208084 0
0.0688248 -0.0180447 0
0.0668197 -0.0153109 0
0.064771 -0.0126096 0
0.0626765 -0.00994373 0
0.0605336 -0.00731663 0
0.0583395 -0.00473208 0
0.0560914 -0.00219437 0
0.0537863 0.000291632 0
0.051421 0.00272041 0
0.0489922 0.00508564 0
0.0464964 0.00738012 0
0.0439303 0.00959562 0
0.0412905 0.0117228 0
0.038574 0.0137509 0
0.035778 0.0156678 0
0.0329005 0.0174601 0
0.0299406 0.0191127 0
0.0268988 0.020609 0
0.0237776 0.0219317 0
0.0205821 0.0230627 0
0.0173201 0.0239842 0
0.0140027 0.0246801 0
0.010644 0.0251366 0
0.00726082 0.0253442 0
0.0038716 0.0252983 0
-0.00344171 0.0239286 0
-0.00737862 0.0228571 0
-0.0113155 0.0217857 0
-0.0152525 0.0207143 0
-0.0191894 0.0196429 0
-0.0231263 0.0185714 0
-0.0270632 0.0175 0
-0.0310001 0.0164286 0
-0.034937 0.0153571 0
-0.0388739 0.0142857 0
-0.0428108 0.0132143 0
-0.0467478 0.0121429 0
-0.0506847 0.0110714 0
-0.0546216 0.00606309 0
-0.0546216 0.00212617 0
-0.0546216 -0.00181074 0
-0.0546216 -0.00574766 0
-0.0546216 -0.00968457 0
-0.0546216 -0.0136215 0
-0.0546216 -0.0175584 0
-0.0546216 -0.0214953 0
-0.0546216 -0.0254322 0
-0.0546216 -0.0293691 0
-0.0546216 -0.0333061 0
-0.0546216 -0.037243 0
-0.0546216 -0.0411799 0
-0.0506847 -0.0440454 -0.00551168
-0.0467478 -0.0429739 -0.00551168
-0.0428108 -0.0419025 -0.00551168
-0.0388739 -0.0408311 -0.00551168
-0.034937 -0.0397597 -0.00551168
-0.0310001 -0.0386882 -0.00551168
-0.0270632 -0.0376168 -0.00551168
-0.0231263 -0.0365454 -0.00551168
-0.0191894 -0.0354739 -0.00551168
-0.0152525 -0.0344025 -0.00551168
-0.0113155 -0.0333311 -0.00551168
-0.00737862 -0.0322597 -0.00551168
-0.00344171 -0.0311882 -0.00551168
0.0038716 -0.0298185 -0.00551168
0.00726082 -0.0297726 -0.00551168
0.010644 -0.0299802 -0.00551168
0.0140027 -0.0304367 -0.00551168
0.0173201 -0.0311326 -0.00551168
0.0205821 -0.0320541 -0.00551168
0.0237776 -0.0331851 -0.00551168
0.0268988 -0.0345078 -0.00551168
0.0299406 -0.0360041 -0.00551168
0.0329005 -0.0376567 -0.00551168
0.035778 -0.039449 -0.00551168
0.038574 -0.0413659 -0.00551168
0.0412905 -0.043394 -0.00551168
0.0439303 -0.0455212 -0.00551168
0.0464964 -0.0477367 -0.00551168
0.0489922 -0.0500312 -0.00551168
0.051421 -0.0523964 -0.00551168
0.0537863 -0.0548252 -0.00551168
0.0560914 -0.0573112 -0.00551168
0.0583395 -0.0598489 -0.00551168
0.0605336 -0.0624334 -0.00551168
0.0626765 -0.0650605 -0.00551168
0.064771 -0.0677264 -0.00551168
0.0668197 -0.0704277 -0.00551168
0.0688248 -0.0731615 -0.00551168
0.0707885 -0.0759252 -0.00551168
0.072713 -0.0787163 -0.00551168
0.0746002 -0.0815329 -0.00551168
0.0764517 -0.0843729 -0.00551168
0.0782695 -0.0872347 -0.00551168
0.0829558 -0.0924852 -0.00551168
0.0858567 -0.0948536 -0.00551168
0.0887575 -0.0972221 -0.00551168
0.0916584 -0.0995905 -0.00551168
0.0945593 -0.101959 -0.00551168
0.0974602 -0.104327 -0.00551168
0.100361 -0.106696 -0.00551168
0.103262 -0.109064 -0.00551168
0.106163 -0.111433 -0.00551168
0.109064 -0.113801 -0.00551168
0.111965 -0.116169 -0.00551168
0.114865 -0.118538 -0.00551168
0.117766 -0.120906 -0.00551168
0.120667 -0.123275 -0.00551168
0.123568 -0.125643 -0.00551168
0.126469 -0.128012 -0.00551168
0.12937 -0.13038 -0.00551168
0.132271 -0.132748 -0.00551168
0.135172 -0.13118 -0.00551168
0.135172 -0.127243 -0.00551168
0.135172 -0.123306 -0.00551168
0.135172 -0.119369 -0.00551168
0.135172 -0.115432 -0.00551168
0.135172 -0.111495 -0.00551168
0.135172 -0.107558 -0.00551168
0.135172 -0.103621 -0.00551168
0.135172 -0.0996846 -0.00551168
0.135172 -0.0957477 -0.00551168
0.135172 -0.0918107 -0.00551168
0.135172 -0.0878738 -0.00551168
0.135172 -0.0839369 -0.00551168
0.132271 -0.0776316 -0.00551168
0.12937 -0.0752632 -0.00551168
0.126469 -0.0728947 -0.00551168
0.123568 -0.0705263 -0.00551168
0.120667 -0.0681579 -0.00551168
0.117766 -0.0657895 -0.00551168
0.114865 -0.0634211 -0.00551168
0.111965 -0.0610526 -0.00551168
0.109064 -0.0586842 -0.00551168
0.106163 -0.0563158 -0.00551168
0.103262 -0.0539474 -0.00551168
0.100361 -0.0515789 -0.00551168
0.0974602 -0.0492105 -0.00551168
0.0945593 -0.0468421 -0.00551168
0.0916584 -0.0444737 -0.00551168
0.0887575 -0.0421053 -0.00551168
0.0858567 -0.0397368 -0.00551168
0.0829558 -0.0373684 -0.00551168
0.0782695 -0.0321179 -0.00551168
0.0764517 -0.0292561 -0.00551168
0.0746002 -0.026416 -0.00551168
0.072713 -0.0235995 -0.00551168
0.0707885 -0.0208084 -0.00551168
0.0688248 -0.0180447 -0.00551168
0.0668197 -0.0153109 -0.00551168
0.064771 -0.0126096 -0.00551168
0.0626765 -0.00994373 -0.00551168
0.0605336 -0.00731663 -0.00551168
0.0583395 -0.00473208 -0.00551168
0.0560914 -0.00219437 -0.00551168
0.0537863 0.000291632 -0.00551168
0.051421 0.00272041 -0.00551168
0.0489922 0.00508564 -0.00551168
0.0464964 0.00738012 -0.00551168
0.0439303 0.00959562 -0.00551168
0.0412905 0.0117228 -0.00551168
[...]
CELL_DATA 2965
SCALARS rho float
LOOKUP_TABLE default
0.534045
0.329927
0.524879
0.315746
0.542181
0.340963
0.533954
0.330836
0.339624
0.525862
0.315495
0.328798
0.425708
0.536535
0.518107
0.517134
0.527215
0.516865
0.545039
0.528914
0.534073
0.320294
0.509678
0.537682
0.535545
0.547657
0.458683
0.479978
0.3197
0.505432
0.502154
0.328934
0.552666
0.529694
0.281128
0.340904
0.528812
0.533568
0.308581
0.506011
0.529951
0.502911
0.534496
0.327652
0.328122
0.533287
0.458891
0.471082
0.311497
0.534062
0.38992
0.317615
0.329629
0.425135
0.317094
0.42022
0.336211
0.308658
0.271931
0.476301
0.516006
0.476927
0.322035
0.544233
0.486939
0.533889
0.53401
0.317464
0.300922
0.33484
0.518611
0.543672
0.534021
0.289091
0.500417
0.409586
0.533907
0.317287
0.322912
0.467809
0.534034
0.321236
0.330934
0.434735
0.481811
0.374165
0.313756
0.272247
0.553561
0.335824
0.307589
0.533215
0.517946
0.514416
0.534044
0.309639
0.457504
0.29403
0.334962
0.325151
0.474541
0.324278
0.334278
0.328785
0.336909
0.528659
0.533891
0.32107
0.307812
0.533924
0.246802
0.391212
0.470183
0.494116
0.301124
0.300285
0.50657
0.455247
0.534111
0.329651
0.534029
0.23844
0.540057
0.541384
0.493688
0.40008
0.325488
0.459438
0.531697
0.267424
0.332295
0.427587
0.53237
0.334114
0.4604
0.329556
0.426735
0.516771
0.554109
0.542175
0.333849
0.516208
0.528021
0.330366
0.280191
0.545527
0.316955
0.541382
0.554525
0.337669
0.328207
0.323855
0.334529
0.319762
0.280509
0.26951
0.533947
0.531887
0.525526
0.540047
0.452321
0.461778
0.407148
0.543088
0.336046
0.533957
0.416082
0.328657
0.534015
0.536101
0.481226
0.299187
0.433363
0.519929
0.547294
0.413702
0.511828
0.357973
0.259673
0.416722
0.335124
0.259465
0.309433
0.300961
0.554822
0.53396
0.322269
0.326671
0.389018
0.326876
0.309392
0.311172
0.450958
0.292575
0.534041
0.463315
0.534456
0.486079
0.439988
0.321716
0.32979
0.309367
0.528413
0.443573
0.533965
0.306324
0.428051
0.534032
0.519839
0.534737
0.496449
0.397546
0.333884
0.338443
0.505906
0.337172
0.460406
0.322358
0.517662
0.326603
0.339596
0.330417
0.459013
0.381904
0.545661
0.282973
0.53397
0.522538
0.320037
0.479689
0.323278
0.279659
0.536244
0.310101
0.5337
0.536183
0.316786
0.531169
0.328403
0.350291
0.372266
0.327531
0.543959
0.522949
0.327069
0.245896
0.526148
0.53389
0.446827
0.5059
0.323378
0.32152
0.53395
0.328599
0.481551
0.275408
0.271208
0.53411
0.53346
0.327452
0.46432
0.325484
0.543142
0.340559
0.535115
0.534086
0.266454
0.472384
0.520671
0.300723
0.329052
0.534161
0.327951
0.550527
0.50982
0.328567
0.515058
0.514896
0.551527
0.531609
0.546557
0.468085
0.529484
0.533853
0.320991
0.315107
0.52345
0.539459
0.332106
0.53169
0.46235
0.31999
0.331333
0.326447
0.477443
0.317847
0.53392
0.480019
0.54997
0.325459
0.483206
0.485448
0.476584
0.533585
0.320974
0.236577
0.545082
0.533932
0.533935
0.316595
0.329645
0.48177
0.289427
0.296045
0.491886
0.533998
0.484699
0.24626
0.320058
0.482332
0.494048
0.325204
0.534244
0.533963
0.328574
0.414371
0.533472
0.514978
0.281592
0.328846
0.534144
0.333762
0.53763
0.363882
0.539903
0.391553
0.369224
0.332395
0.326917
0.302088
0.5114
0.547768
0.526331
0.542997
0.485069
0.473805
0.312807
0.534572
0.547051
0.332454
0.311041
0.534174
0.314303
0.516804
0.472235
0.327588
0.332433
0.328943
0.314079
0.533973
0.334545
0.33335
0.3796
0.325824
0.533493
0.534327
0.472235
0.533921
0.328076
0.531378
0.329084
0.534184
0.313361
0.334405
0.5357
0.46536
0.280012
0.257127
0.532542
0.360395
0.500233
0.514452
0.321512
0.530808
0.280165
0.338199
0.534233
0.295307
0.535991
0.274804
0.379685
0.330313
0.536249
0.468505
0.433962
0.533875
0.298957
0.54649
0.340887
0.304255
0.549109
0.304669
0.540407
0.42123
0.487238
0.278724
0.295324
0.305176
0.279012
0.305306
0.336417
0.530104
0.534388
0.534635
0.534064
0.329052
0.538422
0.465956
0.520042
0.254077
0.53338
0.336318
0.484248
0.475648
0.308008
0.534061
0.354452
0.522295
0.313278
0.48818
0.534977
0.303332
0.53305
0.257911
0.537941
0.323087
0.307988
0.415836
0.54327
0.540457
0.397992
0.274339
0.249663
0.416833
0.542808
0.528315
0.53361
0.531694
0.537131
0.307979
0.513815
0.483895
0.31843
0.263822
0.302957
0.497964
0.535968
0.365792
0.379824
0.370662
0.336918
0.528395
0.534925
0.534033
0.548621
0.398088
0.533888
0.535505
0.330465
0.539522
0.34598
0.350781
0.531805
0.534661
0.537316
0.545396
0.319864
0.310768
0.552817
0.53055
0.31983
0.529685
0.501183
0.534623
0.341124
0.319508
0.53567
0.329629
0.453024
0.534793
0.535904
0.331612
0.533496
0.327545
0.328226
0.318656
0.345272
0.533516
0.362867
0.516899
0.283088
0.322035
0.52674
0.33743
0.29123
0.331458
0.275367
0.359032
0.31131
0.323794
0.426689
0.438
0.314187
0.337914
0.535942
0.328906
0.394995
0.53349
0.533821
0.494567
0.489898
0.436504
0.443786
0.289589
0.373428
0.533685
0.498619
0.273206
0.508355
0.242933
0.291692
0.303224
0.533776
0.551092
0.315162
0.496895
0.532068
0.282796
0.310186
0.541663
0.533968
0.360349
0.543388
0.379807
0.335917
0.541693
0.313938
0.453121
0.527184
0.406002
0.54257
0.30905
0.330319
0.537348
0.368641
0.335793
0.341538
0.325149
0.32295
0.533911
0.539839
0.523194
0.307902
0.256423
0.333238
0.3144
0.53039
0.271697
0.423258
0.313113
0.53169
0.533586
0.30313
0.534085
0.390772
0.490408
0.297975
0.527531
0.533467
0.554116
0.53509
0.534042
0.526025
0.341209
0.42512
0.333088
0.527654
0.313469
0.318876
0.532546
0.533877
0.533473
0.327212
0.320605
0.539035
0.541196
0.30364
0.534413
0.293199
0.307252
0.327138
0.552765
0.538502
0.522719
0.295865
0.299743
0.339035
0.325128
0.537595
0.534003
0.546141
0.326749
0.306891
0.456784
0.547115
0.54364
0.510001
0.53394
0.412574
0.536151
0.541704
0.516886
0.327371
0.536739
0.494958
0.533972
0.536208
0.545719
0.485944
0.380365
0.546264
0.331373
0.544257
0.533875
0.234779
0.533991
0.462743
0.535439
0.311203
0.316396
0.534099
0.300376
0.308368
0.548429
0.300237
0.415768
0.537571
0.287666
0.546357
0.325202
0.492434
0.53294
0.528093
0.501745
0.324385
0.324042
0.521644
0.436683
0.331345
0.480223
0.314691
0.534046
0.317703
0.459414
0.518957
0.534076
0.317584
0.492439
0.337688
0.408833
0.414055
0.331304
0.276868
0.321745
0.534123
0.458654
0.436316
0.306487
0.53411
0.489584
0.306496
0.534069
0.328372
0.456937
0.519316
0.533978
0.53728
0.295427
0.32795
0.534022
0.544574
0.522699
0.489223
0.542786
0.479555
0.465697
0.309864
0.50299
0.38809
0.345169
0.35964
0.533952
0.549375
0.508396
0.393543
0.327733
0.541255
0.331049
0.338386
0.403296
0.31161
0.456048
0.32906
0.533968
0.326547
0.306739
0.414253
0.544708
0.328022
0.307472
0.548914
0.543623
0.55119
0.322045
0.306822
0.538582
0.330671
0.306907
0.328252
0.43595
0.525011
0.267526
0.550526
0.329164
0.505891
0.533802
0.318701
0.407933
0.478072
0.500569
0.494827
0.540814
0.538373
0.544492
0.534999
0.534007
0.328182
0.381226
0.521814
0.293112
0.543347
0.525984
0.264796
0.532029
0.475339
0.512768
0.539382
0.46966
0.531785
0.314064
0.491612
0.332448
0.299471
0.534867
0.534076
0.272422
0.330761
0.531087
0.392383
0.453232
0.296734
0.249268
0.548532
0.516236
0.544093
0.513333
0.462564
0.376648
0.453446
0.315744
0.534037
0.504357
0.49513
0.328231
0.381176
0.544424
0.498101
0.539302
0.137603
0.534073
0.314759
0.321007
0.328364
0.520009
0.52161
0.540614
0.471949
0.334898
0.534044
0.386843
0.545907
0.54715
0.49246
0.319306
0.314573
0.534345
0.332166
0.424728
0.4745
0.308784
0.323575
0.517294
0.542276
0.321269
0.534076
0.532928
0.315765
0.534086
0.5352
0.538545
0.341698
0.332601
0.542098
0.327961
0.332132
0.407781
0.534018
0.324739
0.376623
0.308185
0.297609
0.538081
0.326912
0.31913
0.54314
0.327671
0.32591
0.552767
0.537912
0.534426
0.533942
0.492966
0.327681
0.551507
0.533295
0.316719
0.53714
0.534881
0.533986
0.533989
0.342131
0.534006
0.329591
0.534009
0.323254
0.533973
0.33613
0.51844
0.316327
0.540572
0.545142
0.550114
0.484805
0.534292
0.536814
0.289435
0.533991
0.266087
0.533969
0.538256
0.324572
0.405811
0.314317
0.3284
0.53397
0.361935
0.533501
0.139256
0.505057
0.508916
0.540337
0.397696
0.329874
0.266751
0.316832
0.271752
0.536693
0.364735
0.309768
0.535074
0.3355
0.354261
0.532714
0.533072
0.501227
0.535816
0.255987
0.487216
0.314841
0.534028
0.534496
0.524484
0.291636
0.540423
0.535785
0.541463
0.498203
0.533257
0.3826
0.533929
0.540171
0.442906
0.534224
0.306267
0.518439
0.338668
0.420523
0.519994
0.490513
0.530789
0.474413
0.487482
0.537261
0.308999
0.524048
0.328266
0.332177
0.540654
0.512769
0.478821
0.52001
0.531758
0.534023
0.537228
0.53405
0.5342
0.53447
0.55202
0.337523
0.501772
0.531206
0.321928
0.534149
0.318831
0.471756
0.309116
0.534087
0.317641
0.315153
0.301201
0.470001
0.535087
0.428499
0.51645
0.308759
0.332781
0.533924
0.535284
0.312889
0.502603
0.44578
0.310666
0.504014
0.327685
0.31579
0.534128
0.480255
0.311702
0.518955
0.533148
0.52431
0.325778
0.515842
0.260529
0.533959
0.378531
0.510112
0.326823
0.548088
0.303182
0.328885
0.312096
0.515834
0.302564
0.498052
0.546556
0.470598
0.338725
0.314796
0.542165
0.314284
0.23711
0.324046
0.535564
0.318779
0.320657
0.267159
0.499642
0.336061
0.332696
0.32607
0.533846
0.549318
0.337839
0.538665
0.537937
0.495824
0.322412
0.318747
0.533894
0.312452
0.554654
0.328956
0.531428
0.320902
0.229038
0.514448
0.321596
0.324066
0.324181
0.534112
0.304839
0.446084
0.537258
0.311483
0.516418
0.32677
0.549103
0.418411
0.312041
0.333929
0.53505
0.440852
0.53414
0.317431
0.333323
0.439713
0.533995
0.306408
0.309592
0.325636
0.415952
0.536966
0.335086
0.450169
0.53167
0.534124
0.526258
0.327796
0.535853
0.321871
0.534483
0.534559
0.460732
0.332093
0.490831
0.53763
0.311143
0.537891
0.538136
0.33138
0.324319
0.315665
0.274831
0.542511
0.323642
0.533989
0.382905
0.533987
0.495337
0.374251
0.511206
0.302756
0.480023
0.319269
0.533804
0.533332
0.267545
0.326517
0.324088
0.465705
0.552659
0.315317
0.295566
0.331948
0.451622
0.546644
0.292497
0.316474
0.526054
0.536712
0.527967
0.32797
0.32521
0.524009
0.533807
0.308901
0.325673
0.437826
0.549576
0.492601
0.307879
0.534159
0.535082
0.314976
0.5384
0.326478
0.53918
0.313117
0.35925
0.310672
0.282764
0.533683
0.320314
0.322002
0.323078
0.335477
0.483855
0.529398
0.549514
0.309049
0.533964
0.535557
0.535123
0.54675
0.533684
0.54783
0.5486
0.548408
0.538112
0.532817
0.30368
0.487673
0.549319
0.325969
0.54071
0.544661
0.536814
0.535357
0.307671
0.542274
0.53404
0.536664
0.330732
0.506111
0.530069
0.534007
0.52967
0.323841
0.486763
0.336256
0.414401
0.326951
0.328263
0.306612
0.326218
0.534205
0.533266
0.522476
0.321262
0.534677
0.534089
0.537481
0.328489
0.329355
0.51916
0.301353
0.312177
0.312487
0.536519
0.419631
0.534602
0.309227
0.546143
0.533374
0.457218
0.538968
0.329924
0.55006
0.535561
0.512979
0.539332
0.534174
0.520595
0.325222
0.341894
0.330172
0.533813
0.305201
0.534379
0.521033
0.49511
0.330809
0.340441
0.483353
0.541682
0.533934
0.329173
0.525581
0.478661
0.266766
0.53419
0.316396
0.328126
0.306614
0.315235
0.321708
0.539521
0.535699
0.552162
0.443542
0.532953
0.533772
0.517913
0.534125
0.546408
0.548449
0.533709
0.533847
0.325337
0.533946
0.528192
0.426938
0.323406
0.503873
0.298458
0.537276
0.370688
0.539019
0.545458
0.331721
0.536205
0.3243
0.535451
0.532241
0.547009
0.489652
0.516174
0.545508
0.5337
0.337446
0.445437
0.42261
0.253001
0.534261
0.538144
0.443911
0.550605
0.526701
0.533954
0.317652
0.321467
0.527805
0.546195
0.316222
0.195152
0.514806
0.534305
0.534915
0.270981
0.457012
0.513514
0.532876
0.324417
0.534076
0.48449
0.525583
0.50507
0.439839
0.534153
0.298457
0.531264
0.309474
0.313918
0.534149
0.344861
0.345963
0.325599
0.525622
0.510503
0.443087
0.534121
0.431023
0.350284
0.324519
0.542408
0.532483
0.539707
0.489352
0.253651
0.522594
0.432811
0.309651
0.532462
0.540332
0.330131
0.536281
0.529345
0.533964
0.445953
0.533642
0.360956
0.534269
0.531138
0.533628
0.335669
0.52538
0.386195
0.508935
0.533755
0.544731
0.530717
0.534671
0.534634
0.532912
0.518223
0.322162
0.541902
0.510645
0.331329
0.495728
0.536835
0.55098
0.499409
0.309377
0.531111
0.331537
0.545729
0.490151
0.538618
0.32459
0.513394
0.534467
0.53404
0.525467
0.478786
0.534055
0.466687
0.386436
0.325365
0.275772
0.533956
0.334222
0.302649
0.536659
0.316955
0.543837
0.313679
0.536206
0.318324
0.325495
0.521284
0.395333
0.298889
0.530998
0.533267
0.537954
0.338895
0.506618
0.534112
0.531871
0.326963
0.534026
0.534862
0.321538
0.482463
0.462395
0.523258
0.32937
0.391615
0.510423
0.305685
0.537928
0.329972
0.332515
0.533892
0.386165
0.507311
0.316914
0.539801
0.425008
0.534035
0.223768
0.32298
0.533918
0.339588
0.534057
0.337232
0.534515
0.485539
0.466488
0.534065
0.502506
0.262115
0.534896
0.548788
0.531743
0.534023
0.320365
0.327728
0.319357
0.332753
0.533907
0.338066
0.513677
0.322566
0.532672
0.5346
0.533829
0.324851
0.534579
0.320624
0.534766
0.541408
0.348041
0.533767
0.525341
0.311162
0.521845
0.307201
0.33713
0.549202
0.33211
0.543367
0.224811
0.334588
0.512923
0.357621
0.538767
0.32866
0.461424
0.533071
0.530163
0.385831
0.269979
0.329591
0.534002
0.534044
0.33704
0.535227
0.321727
0.532703
0.323567
0.317736
0.468041
0.474693
0.419544
0.495817
0.534124
0.492184
0.473643
0.53612
0.533914
0.328346
0.535046
0.32964
0.338272
0.49614
0.406809
0.395418
0.442532
0.329968
0.514936
0.534072
0.537135
0.323112
0.315446
0.450978
0.505798
0.534444
0.545861
0.314708
0.499633
0.532756
0.507804
0.440094
0.322339
0.3252
0.329845
0.554691
0.537051
0.308096
0.323863
0.436675
0.326967
0.549302
0.513187
0.319354
0.533943
0.404568
0.540776
0.536669
0.319463
0.344926
0.507007
0.317824
0.394279
0.533081
0.274054
0.318903
0.327307
0.508027
0.53617
0.505699
0.335657
0.311754
0.528718
0.535007
0.494536
0.538874
0.312675
0.323038
0.334037
0.498012
0.303499
0.319941
0.537898
0.541642
0.51441
0.326357
0.328866
0.325833
0.534026
0.30278
0.532877
0.533999
0.530247
0.428269
0.534171
0.549192
0.3315
0.325848
0.535627
0.321771
0.465661
0.526121
0.541842
0.437023
0.304209
0.304583
0.541546
0.403334
0.311469
0.534416
0.534091
0.296203
0.322861
0.513417
0.442449
0.328372
0.330041
0.54031
0.490366
0.529056
0.474559
0.354401
0.306272
0.3393
0.380429
0.318965
0.534016
0.528546
0.470314
0.511754
0.334618
0.503978
0.339722
0.533358
0.545723
0.330628
0.264919
0.529747
0.385027
0.472523
0.535131
0.302337
0.530897
0.527988
0.533742
0.534068
0.506233
0.34511
0.326053
0.314545
0.511034
0.533927
0.514172
0.443914
0.329146
0.324366
0.492483
0.330353
0.538365
0.533745
0.533014
0.347381
0.325956
0.464626
0.507273
0.534045
0.5267
0.53422
0.533958
0.535924
0.481805
0.252942
0.53401
0.497847
0.534658
0.315263
0.529856
0.423882
0.528708
0.552066
0.445967
0.491782
0.531787
0.509347
0.53402
0.327375
0.531863
0.550978
0.342935
0.505474
0.3027
0.299162
0.53403
0.534007
0.332188
0.483278
0.533759
0.332797
0.336183
0.556992
0.549902
0.471203
0.348236
0.495652
0.326748
0.542852
0.548873
0.321027
0.454601
0.500428
0.32443
0.31424
0.340426
0.539037
0.532082
0.313033
0.328008
0.338904
0.338207
0.334903
0.501709
0.325664
0.550799
0.53511
0.541706
0.319829
0.532956
0.446571
0.531927
0.44327
0.529465
0.316641
0.302254
0.328025
0.534104
0.327442
0.325246
0.496927
0.334006
0.534062
0.507014
0.425172
0.320524
0.319667
0.522635
0.53599
0.52761
0.525467
0.542653
0.314518
0.344149
0.30623
0.509803
0.534787
0.323288
0.517682
0.313648
0.338674
0.534151
0.319411
0.331665
0.260584
0.370801
0.33175
0.534372
0.538328
0.537764
0.337822
0.533731
0.542291
0.322975
0.534358
0.375375
0.539907
0.341996
0.387648
0.533495
0.326808
0.265339
0.529748
0.524129
0.322345
0.546138
0.498464
0.533086
0.398715
0.319259
0.501426
0.534063
0.365675
0.353723
0.422806
0.398591
0.534149
0.327775
0.321415
0.541024
0.515989
0.332209
0.319211
0.531687
0.326582
0.314453
0.319864
0.45481
0.544747
0.318416
0.540042
0.32046
0.302166
0.337576
0.405522
0.330763
0.539427
0.320051
0.329418
0.481175
0.538693
0.354422
0.533963
0.314052
0.326468
0.510442
0.552354
0.523342
0.513069
0.518901
0.546075
0.324544
0.539038
0.297876
0.533966
0.526792
0.410732
0.524795
0.534018
0.533925
0.533789
0.432193
0.336705
0.429745
0.334049
0.502392
0.532435
0.495856
0.323287
0.536066
0.368507
0.533973
0.327097
0.308264
0.556404
0.298705
0.528843
0.551796
0.377034
0.334209
0.331454
0.533643
0.393111
0.268601
0.540578
0.32769
0.525731
0.3356
0.335599
0.317458
0.535231
0.390357
0.534076
0.324731
0.338477
0.534144
0.532673
0.282892
0.358648
0.269035
0.481435
0.330409
0.520625
0.530654
0.533985
0.237896
0.322577
0.4503
0.530775
0.548184
0.532747
0.298243
0.513886
0.537514
0.533971
0.534049
0.316734
0.521798
0.3308
0.449703
0.542579
0.537211
0.529986
0.544612
0.498054
0.532194
0.544087
0.533673
0.522584
0.536436
0.533787
0.535552
0.327671
0.328102
0.534302
0.475819
0.534065
0.533966
0.548168
0.519582
0.545066
0.331182
0.326821
0.534053
0.326024
0.323763
0.331051
0.533979
0.523528
0.53399
0.509817
0.523183
0.311485
0.537826
0.311712
0.313845
0.545658
0.525809
0.524626
0.398935
0.395793
0.327112
0.326609
0.384405
0.302217
0.357673
0.544073
0.300299
0.531249
0.331932
0.53956
0.53306
0.286168
0.328868
0.496961
0.534047
0.330179
0.508966
0.267273
0.317457
0.324813
0.448656
0.535032
0.53404
0.53422
0.242847
0.340927
0.273481
0.333427
0.534006
0.547297
0.538593
0.331382
0.313489
0.533824
0.532794
0.536444
0.304096
0.480899
0.465195
0.543274
0.430024
0.339466
0.337768
0.316986
0.535804
0.325098
0.326456
0.533999
0.327249
0.534252
0.336194
0.344564
0.3992
0.333917
0.545601
0.534048
0.53429
0.444795
0.554129
0.510403
0.475761
0.330684
0.507722
0.530141
0.509753
0.536463
0.532784
0.539671
0.425057
0.532657
0.535359
0.332416
0.332744
0.549017
0.400378
0.533472
0.328295
0.54607
0.361998
0.526127
0.53445
0.508487
0.533074
0.539027
0.515198
0.306692
0.335872
0.537459
0.54688
0.533328
0.433517
0.544285
0.446444
0.494135
0.53375
0.472215
0.464011
0.540436
0.533974
0.330398
0.311686
0.534466
0.502221
0.327883
0.33613
0.42337
0.534054
0.533982
0.550464
0.334126
0.524573
0.301053
0.536704
0.326885
0.544495
0.291286
0.549137
0.337625
0.531419
0.445386
0.326711
0.303292
0.471102
0.32822
0.485212
0.31433
0.534135
0.534046
0.530357
0.527892
0.534157
0.534963
0.533841
0.549717
0.541528
0.501862
0.515765
0.496218
0.538317
0.321162
0.500633
0.499489
0.532638
0.312166
0.497958
0.5454
0.533916
0.331184
0.320107
0.331572
0.544199
0.497944
0.323565
0.500411
0.391111
0.534108
0.313503
0.412115
0.328819
0.303198
0.552837
0.325325
0.508447
0.325819
0.551205
0.333299
0.53412
0.502705
0.529238
0.340249
0.337444
0.352982
0.515931
0.325897
0.351289
0.322586
0.540521
0.51889
0.544317
0.523255
0.53083
0.511525
0.383307
0.33522
0.530849
0.321556
0.447963
0.527063
0.549919
0.22401
0.314024
0.522932
0.533903
0.408968
0.525071
0.534991
0.518461
0.327939
0.542868
0.520129
0.532015
0.533323
0.323887
0.534023
0.3251
0.53213
0.542205
0.504855
0.533261
0.346967
0.537395
0.225208
0.360347
0.50039
0.508048
0.529721
0.451614
0.329335
0.532149
0.535972
0.322214
0.318054
0.299054
0.548332
0.331038
0.328389
0.327686
0.32791
0.309177
0.369279
0.542569
0.302152
0.539668
0.52399
0.327033
0.535761
0.308069
0.54771
0.302055
0.46122
0.323637
0.527265
0.534555
0.398948
0.497487
0.5341
0.52104
0.322896
0.480379
0.430486
0.308722
0.323916
0.405303
0.303779
0.544307
0.299504
0.317473
0.323275
0.534045
0.5283
0.312819
0.319827
0.545185
0.326775
0.322806
0.533989
0.329785
0.319198
0.343344
0.551379
0.503436
0.547395
0.326347
0.291625
0.538382
0.518214
0.533897
0.396514
0.508146
0.529854
0.415223
0.402799
0.323991
0.324106
0.237633
0.493049
0.300925
0.5466
0.512801
0.533069
0.331502
0.410296
0.419965
0.556362
0.297204
0.482755
0.241733
0.492139
0.321603
0.280852
0.290058
0.537434
0.314904
0.550828
0.336554
0.380198
0.326827
0.472117
0.314737
0.543473
0.328735
0.504444
0.487483
0.323881
0.534375
0.53435
0.313146
0.547796
0.342681
0.328834
0.542387
0.300563
0.515628
0.352706
0.234728
0.533579
0.319992
0.352027
0.338387
0.334299
0.319413
0.515518
0.435809
0.528551
0.547213
0.528363
0.543262
0.411468
0.537937
0.297079
0.534714
0.328995
0.526517
0.31652
0.389088
0.525226
0.548788
0.535264
0.354171
0.440173
0.329491
0.342935
0.341647
0.232157
0.537181
0.410199
0.546777
0.533583
0.485005
0.539042
0.534707
0.393822
0.324419
0.366408
0.541351
0.484811
0.502374
0.534288
0.551487
0.417434
0.287937