# vtk DataFile Version 1.0
unstructured grid
ascii
DATASET UNSTRUCTURED_GRID
points 3226 float
0.0796578 -0.059106 0
0.00128732 0.00159165 0
0.00227961 -0.00102548 0
0.0791586 -0.0598787 0
-0.0546216 0.01 0
0.000495206 0.025 0
0.0800549 -0.035 0
0.135172 -0.08 0
-0.0546216 -0.0451168 0
0.000495206 -0.0301168 0
0.0800549 -0.0901168 0
0.135172 -0.135117 0
-0.0546216 -0.0451168 -0.00551168
0.000495206 -0.0301168 -0.00551168
0.0800549 -0.0901168 -0.00551168
0.135172 -0.135117 -0.00551168
0.135172 -0.08 -0.00551168
0.0800549 -0.035 -0.00551168
0.000495206 0.025 -0.00551168
-0.0546216 0.01 -0.00551168
0.00128732 0.00159165 -0.00551168
0.00227961 -0.00102548 -0.00551168
0.0791586 -0.0598787 -0.00551168
0.0796578 -0.059106 -0.00551168
0.00110182 -0.000823821 0
0.000571683 -0.000188043 0
0.000561313 0.000639162 0
0.00189316 0.00207203 0
0.00260228 0.00255358 0
0.0033966 0.00307293 0
0.00428861 0.00362634 0
0.00529726 0.0041979 0
0.00644092 0.00476696 0
0.00773158 0.0053187 0
0.00918011 0.00583593 0
0.010799 0.00628751 0
0.012597 0.00663225 0
0.0145725 0.0068517 0
0.0167206 0.0069338 0
0.0190349 0.00685819 0
0.0215031 0.00658621 0
0.0241038 0.00607459 0
0.026821 0.00533786 0
0.0296245 0.00434523 0
0.0324763 0.00306927 0
0.0353199 0.00146906 0
0.0381488 -0.00039338 0
0.0409131 -0.00252802 0
0.0435632 -0.00493276 0
0.0460882 -0.0075571 0
0.0484881 -0.0103478 0
0.0506782 -0.0133217 0
0.0526651 -0.016422 0
0.0546139 -0.0195019 0
0.0565301 -0.022529 0
0.0584009 -0.0254846 0
0.0602154 -0.0283513 0
0.061964 -0.031114 0
0.0636389 -0.0337601 0
0.0652336 -0.0362795 0
0.0667431 -0.0386651 0
0.0681656 -0.0409111 0
0.0694983 -0.0430158 0
0.0707356 -0.0449823 0
0.071886 -0.0468071 0
0.0729575 -0.04849 0
0.0739438 -0.0500408 0
0.0748444 -0.0514675 0
0.0756707 -0.0527715 0
0.0764313 -0.053958 0
0.0771224 -0.0550398 0
0.0777384 -0.0560288 0
0.0782803 -0.0569318 0
0.0787691 -0.0577448 0
0.0792251 -0.0584672 0
0.0800494 -0.0597378 0
0.0797987 -0.0601582 0
0.0786655 -0.059391 0
0.0781259 -0.0588425 0
0.0775539 -0.0582102 0
0.0769587 -0.0574783 0
0.0763492 -0.0566339 0
0.075723 -0.0556725 0
0.0750452 -0.0546094 0
0.0742996 -0.0534457 0
0.073478 -0.0521785 0
0.072577 -0.0508019 0
0.0715904 -0.049313 0
0.0705098 -0.047712 0
0.069328 -0.0459996 0
0.0680378 -0.0441794 0
0.066632 -0.0422571 0
0.0651046 -0.0402413 0
0.0634508 -0.0381431 0
0.0616683 -0.0359754 0
0.0597581 -0.033753 0
0.0577255 -0.0314906 0
0.0555808 -0.0292024 0
0.0533388 -0.0269013 0
0.0510024 -0.0246151 0
0.0485693 -0.0223811 0
0.0460535 -0.0202228 0
0.0434788 -0.0181535 0
0.0408704 -0.0161833 0
0.0382442 -0.0143327 0
0.0356165 -0.0126209 0
0.0330065 -0.0110594 0
0.0304368 -0.00965062 0
0.0279338 -0.00838121 0
0.0255194 -0.00723697 0
0.0231965 -0.00623664 0
0.020983 -0.00535765 0
0.0188891 -0.00458677 0
0.0169193 -0.00391673 0
0.0150754 -0.00334068 0
0.0133572 -0.00285262 0
0.0117634 -0.0024437 0
0.0102912 -0.00210643 0
0.0089363 -0.00183343 0
0.00769424 -0.00161552 0
0.00655956 -0.00144452 0
0.00552632 -0.00131235 0
0.00458815 -0.00121216 0
0.00373885 -0.00113394 0
0.00297202 -0.00106855 0
-0.0506847 -0.0440454 0
-0.0467478 -0.0429739 0
-0.0428108 -0.0419025 0
-0.0388739 -0.0408311 0
-0.034937 -0.0397597 0
-0.0310001 -0.0386882 0
-0.0270632 -0.0376168 0
-0.0231263 -0.0365454 0
-0.0191894 -0.0354739 0
-0.0152525 -0.0344025 0
-0.0113155 -0.0333311 0
-0.00737862 -0.0322597 0
-0.00344171 -0.0311882 0
0.0038716 -0.0298185 0
0.00726082 -0.0297726 0
0.010644 -0.0299802 0
0.0140027 -0.0304367 0
0.0173201 -0.0311326 0
0.0205821 -0.0320541 0
0.0237776 -0.0331851 0
0.0268988 -0.0345078 0
0.0299406 -0.0360041 0
0.0329005 -0.0376567 0
0.035778 -0.039449 0
0.038574 -0.0413659 0
0.0412905 -0.043394 0
0.0439303 -0.0455212 0
0.0464964 -0.0477367 0
0.0489922 -0.0500312 0
0.051421 -0.0523964 0
0.0537863 -0.0548252 0
0.0560914 -0.0573112 0
0.0583395 -0.0598489 0
0.0605336 -0.0624334 0
0.0626765 -0.0650605 0
0.064771 -0.0677264 0
0.0668197 -0.0704277 0
0.0688248 -0.0731615 0
0.0707885 -0.0759252 0
0.072713 -0.0787163 0
0.0746002 -0.0815329 0
0.0764517 -0.0843729 0
0.0782695 -0.0872347 0
0.0829558 -0.0924852 0
0.0858567 -0.0948536 0
0.0887575 -0.0972221 0
0.0916584 -0.0995905 0
0.0945593 -0.101959 0
0.0974602 -0.104327 0
0.100361 -0.106696 0
0.103262 -0.109064 0
0.106163 -0.111433 0
0.109064 -0.113801 0
0.111965 -0.116169 0
0.114865 -0.118538 0
0.117766 -0.120906 0
0.120667 -0.123275 0
0.123568 -0.125643 0
0.126469 -0.128012 0
0.12937 -0.13038 0
0.132271 -0.132748 0
0.135172 -0.13118 0
0.135172 -0.127243 0
0.135172 -0.123306 0
0.135172 -0.119369 0
0.135172 -0.115432 0
0.135172 -0.111495 0
0.135172 -0.107558 0
0.135172 -0.103621 0
0.135172 -0.0996846 0
0.135172 -0.0957477 0
0.135172 -0.0918107 0
0.135172 -0.0878738 0
0.135172 -0.0839369 0
0.132271 -0.0776316 0
0.12937 -0.0752632 0
0.126469 -0.0728947 0
0.123568 -0.0705263 0
0.120667 -0.0681579 0
0.117766 -0.0657895 0
0.114865 -0.0634211 0
0.111965 -0.0610526 0
0.109064 -0.0586842 0
0.106163 -0.0563158 0
0.103262 -0.0539474 0
0.100361 -0.0515789 0
0.0974602 -0.0492105 0
0.0945593 -0.0468421 0
0.0916584 -0.0444737 0
0.0887575 -0.0421053 0
0.0858567 -0.0397368 0
0.0829558 -0.0373684 0
0.0782695 -0.0321179 0
0.0764517 -0.0292561 0
0.0746002 -0.026416 0
0.072713 -0.0235995 0
0.0707885 -0.0208084 0
0.0688248 -0.0180447 0
0.0668197 -0.0153109 0
0.064771 -0.0126096 0
0.0626765 -0.00994373 0
0.0605336 -0.00731663 0
0.0583395 -0.00473208 0
0.0560914 -0.00219437 0
0.0537863 0.000291632 0
0.051421 0.00272041 0
0.0489922 0.00508564 0
0.0464964 0.00738012 0
0.0439303 0.00959562 0
0.0412905 0.0117228 0
0.038574 0.0137509 0
0.035778 0.0156678 0
0.0329005 0.0174601 0
0.0299406 0.0191127 0
0.0268988 0.020609 0
0.0237776 0.0219317 0
0.0205821 0.0230627 0
0.0173201 0.0239842 0
0.0140027 0.0246801 0
0.010644 0.0251366 0
0.00726082 0.0253442 0
0.0038716 0.0252983 0
-0.00344171 0.0239286 0
-0.00737862 0.0228571 0
-0.0113155 0.0217857 0
-0.0152525 0.0207143 0
-0.0191894 0.0196429 0
-0.0231263 0.0185714 0
-0.0270632 0.0175 0
-0.0310001 0.0164286 0
-0.034937 0.0153571 0
-0.0388739 0.0142857 0
-0.0428108 0.0132143 0
-0.0467478 0.0121429 0
-0.0506847 0.0110714 0
-0.0546216 0.00606309 0
-0.0546216 0.00212617 0
-0.0546216 -0.00181074 0
-0.0546216 -0.00574766 0
-0.0546216 -0.00968457 0
-0.0546216 -0.0136215 0
-0.0546216 -0.0175584 0
-0.0546216 -0.0214953 0
-0.0546216 -0.0254322 0
-0.0546216 -0.0293691 0
-0.0546216 -0.0333061 0
-0.0546216 -0.037243 0
-0.0546216 -0.0411799 0
-0.0506847 -0.0440454 -0.00551168
-0.0467478 -0.0429739 -0.00551168
-0.0428108 -0.0419025 -0.00551168
-0.0388739 -0.0408311 -0.00551168
-0.034937 -0.0397597 -0.00551168
-0.0310001 -0.0386882 -0.00551168
-0.0270632 -0.0376168 -0.00551168
-0.0231263 -0.0365454 -0.00551168
-0.0191894 -0.0354739 -0.00551168
-0.0152525 -0.0344025 -0.00551168
-0.0113155 -0.0333311 -0.00551168
-0.00737862 -0.0322597 -0.00551168
-0.00344171 -0.0311882 -0.00551168
0.0038716 -0.0298185 -0.00551168
0.00726082 -0.0297726 -0.00551168
0.010644 -0.0299802 -0.00551168
0.0140027 -0.0304367 -0.00551168
0.0173201 -0.0311326 -0.00551168
0.0205821 -0.0320541 -0.00551168
0.0237776 -0.0331851 -0.00551168
0.0268988 -0.0345078 -0.00551168
0.0299406 -0.0360041 -0.00551168
0.0329005 -0.0376567 -0.00551168
0.035778 -0.039449 -0.00551168
0.038574 -0.0413659 -0.00551168
0.0412905 -0.043394 -0.00551168
0.0439303 -0.0455212 -0.00551168
0.0464964 -0.0477367 -0.00551168
0.0489922 -0.0500312 -0.00551168
0.051421 -0.0523964 -0.00551168
0.0537863 -0.0548252 -0.00551168
0.0560914 -0.0573112 -0.00551168
0.0583395 -0.0598489 -0.00551168
0.0605336 -0.0624334 -0.00551168
0.0626765 -0.0650605 -0.00551168
0.064771 -0.0677264 -0.00551168
0.0668197 -0.0704277 -0.00551168
0.0688248 -0.0731615 -0.00551168
0.0707885 -0.0759252 -0.00551168
0.072713 -0.0787163 -0.00551168
0.0746002 -0.0815329 -0.00551168
0.0764517 -0.0843729 -0.00551168
0.0782695 -0.0872347 -0.00551168
0.0829558 -0.0924852 -0.00551168
0.0858567 -0.0948536 -0.00551168
0.0887575 -0.0972221 -0.00551168
0.0916584 -0.0995905 -0.00551168
0.0945593 -0.101959 -0.00551168
0.0974602 -0.104327 -0.00551168
0.100361 -0.106696 -0.00551168
0.103262 -0.109064 -0.00551168
0.106163 -0.111433 -0.00551168
0.109064 -0.113801 -0.00551168
0.111965 -0.116169 -0.00551168
0.114865 -0.118538 -0.00551168
0.117766 -0.120906 -0.00551168
0.120667 -0.123275 -0.00551168
0.123568 -0.125643 -0.00551168
0.126469 -0.128012 -0.00551168
0.12937 -0.13038 -0.00551168
0.132271 -0.132748 -0.00551168
0.135172 -0.13118 -0.00551168
0.135172 -0.127243 -0.00551168
0.135172 -0.123306 -0.00551168
0.135172 -0.119369 -0.00551168
0.135172 -0.115432 -0.00551168
0.135172 -0.111495 -0.00551168
0.135172 -0.107558 -0.00551168
0.135172 -0.103621 -0.00551168
0.135172 -0.0996846 -0.00551168
0.135172 -0.0957477 -0.00551168
0.135172 -0.0918107 -0.00551168
0.135172 -0.0878738 -0.00551168
0.135172 -0.0839369 -0.00551168
0.132271 -0.0776316 -0.00551168
0.12937 -0.0752632 -0.00551168
0.126469 -0.0728947 -0.00551168
0.123568 -0.0705263 -0.00551168
0.120667 -0.0681579 -0.00551168
0.117766 -0.0657895 -0.00551168
0.114865 -0.0634211 -0.00551168
0.111965 -0.0610526 -0.00551168
0.109064 -0.0586842 -0.00551168
0.106163 -0.0563158 -0.00551168
0.103262 -0.0539474 -0.00551168
0.100361 -0.0515789 -0.00551168
0.0974602 -0.0492105 -0.00551168
0.0945593 -0.0468421 -0.00551168
0.0916584 -0.0444737 -0.00551168
0.0887575 -0.0421053 -0.00551168
0.0858567 -0.0397368 -0.00551168
0.0829558 -0.0373684 -0.00551168
0.0782695 -0.0321179 -0.00551168
0.0764517 -0.0292561 -0.00551168
0.0746002 -0.026416 -0.00551168
0.072713 -0.0235995 -0.00551168
0.0707885 -0.0208084 -0.00551168
0.0688248 -0.0180447 -0.00551168
0.0668197 -0.0153109 -0.00551168
0.064771 -0.0126096 -0.00551168
0.0626765 -0.00994373 -0.00551168
0.0605336 -0.00731663 -0.00551168
0.0583395 -0.00473208 -0.00551168
0.0560914 -0.00219437 -0.00551168
0.0537863 0.000291632 -0.00551168
0.051421 0.00272041 -0.00551168
0.0489922 0.00508564 -0.00551168
0.0464964 0.00738012 -0.00551168
0.0439303 0.00959562 -0.00551168
0.0412905 0.0117228 -0.00551168
[...]
CELL_DATA 2965
SCALARS rho float
LOOKUP_TABLE default
0.530077
0.353733
0.620031
0.326334
0.597705
0.359712
0.532742
0.353534
0.358353
0.620388
0.326143
0.353595
0.484619
0.529526
0.61154
0.58587
0.58871
0.549595
0.584375
0.587467
0.530183
0.333393
0.557553
0.575372
0.619462
0.5671
0.527505
0.545029
0.329962
0.595721
0.591135
0.348044
0.587467
0.627349
0.30452
0.359742
0.599301
0.621576
0.320923
0.596662
0.605838
0.590985
0.528178
0.351474
0.356165
0.527401
0.528008
0.540201
0.331327
0.531251
0.436584
0.329231
0.361814
0.482663
0.32726
0.47553
0.362353
0.333262
0.294635
0.54912
0.609052
0.545039
0.330646
0.603813
0.5524
0.526977
0.532853
0.338746
0.348144
0.354722
0.545706
0.558754
0.532835
0.327126
0.588453
0.463311
0.530771
0.328394
0.347386
0.542044
0.533748
0.33015
0.350989
0.496807
0.552049
0.41686
0.348185
0.298277
0.597716
0.358994
0.325259
0.527365
0.560517
0.609254
0.527329
0.322968
0.524676
0.322455
0.355738
0.342477
0.547286
0.341252
0.350236
0.356117
0.352477
0.531636
0.530619
0.359403
0.336449
0.531392
0.284634
0.440131
0.544673
0.554275
0.348065
0.3365
0.566732
0.523354
0.530791
0.34559
0.533994
0.257065
0.539968
0.588636
0.55929
0.449009
0.349129
0.525231
0.632603
0.289665
0.350418
0.485455
0.621157
0.354144
0.529975
0.347896
0.486547
0.562547
0.585177
0.593306
0.35355
0.580841
0.606733
0.362036
0.299278
0.588917
0.325879
0.601121
0.581952
0.353161
0.341624
0.333148
0.350389
0.328469
0.302931
0.2963
0.532288
0.629361
0.561133
0.571986
0.520303
0.53356
0.459277
0.641236
0.362936
0.532797
0.472482
0.351871
0.531472
0.529912
0.560933
0.317143
0.493462
0.595543
0.614092
0.468268
0.605324
0.396561
0.278437
0.471289
0.343186
0.27844
0.323781
0.328497
0.586753
0.532799
0.333124
0.348464
0.435679
0.336863
0.322368
0.327728
0.516461
0.311891
0.532458
0.534926
0.620219
0.55167
0.502551
0.342966
0.353423
0.362969
0.533195
0.507526
0.533605
0.347156
0.48632
0.532309
0.547196
0.551318
0.557424
0.446393
0.354692
0.353511
0.58244
0.362736
0.529372
0.329248
0.593467
0.336555
0.358232
0.354932
0.528983
0.426888
0.562736
0.310265
0.533831
0.619076
0.351371
0.558658
0.352679
0.319544
0.529834
0.322828
0.527844
0.530696
0.329368
0.632581
0.338813
0.390161
0.414542
0.340806
0.59956
0.621707
0.349698
0.260242
0.607603
0.529029
0.512183
0.584571
0.346089
0.331678
0.532281
0.342089
0.561012
0.306384
0.333449
0.531036
0.527578
0.356165
0.531918
0.358056
0.555964
0.361741
0.638266
0.530968
0.288811
0.5474
0.615646
0.324696
0.342213
0.536967
0.342612
0.582289
0.585502
0.346475
0.549475
0.592718
0.574738
0.528476
0.634052
0.542407
0.550924
0.529161
0.351178
0.333755
0.561732
0.536896
0.359078
0.535675
0.533215
0.345169
0.351985
0.35101
0.554935
0.350208
0.530594
0.559423
0.572858
0.336336
0.563669
0.551977
0.55398
0.527851
0.331371
0.25801
0.571915
0.531675
0.530892
0.326639
0.354981
0.561414
0.348685
0.324701
0.572906
0.533869
0.549137
0.253612
0.329846
0.556351
0.563852
0.34723
0.528658
0.533492
0.354531
0.4683
0.527578
0.610044
0.320989
0.34346
0.530288
0.347818
0.587866
0.403028
0.53837
0.438216
0.410505
0.356044
0.349881
0.331082
0.553153
0.566953
0.544744
0.634144
0.551569
0.549151
0.319601
0.52819
0.616733
0.353959
0.328827
0.529955
0.322729
0.55765
0.54792
0.357445
0.34434
0.348496
0.330427
0.53356
0.350193
0.359306
0.42393
0.347198
0.526897
0.528325
0.54687
0.531255
0.338963
0.54518
0.347062
0.530102
0.325848
0.358008
0.536636
0.536211
0.322319
0.276869
0.530176
0.402829
0.587418
0.58491
0.35036
0.529385
0.301921
0.356391
0.52891
0.347267
0.530303
0.298989
0.424063
0.352376
0.534617
0.542307
0.494935
0.528992
0.316116
0.623794
0.376306
0.352625
0.613191
0.348025
0.642885
0.476889
0.565377
0.298021
0.323862
0.348512
0.300077
0.346257
0.351867
0.629011
0.528062
0.528412
0.531344
0.347801
0.60215
0.538444
0.547709
0.272475
0.527675
0.360157
0.549112
0.546167
0.362234
0.532661
0.391864
0.617145
0.347604
0.56755
0.580839
0.349195
0.550762
0.279443
0.552782
0.353489
0.335672
0.469378
0.62069
0.555975
0.447634
0.320557
0.268742
0.471623
0.621433
0.547305
0.527135
0.533538
0.530481
0.333543
0.608246
0.550669
0.349214
0.283937
0.326576
0.584764
0.529206
0.407012
0.423478
0.412271
0.352254
0.531336
0.528325
0.531633
0.591466
0.446478
0.528551
0.528173
0.362218
0.561441
0.380822
0.388694
0.55071
0.528245
0.583125
0.613055
0.329473
0.350653
0.592167
0.544683
0.328297
0.529681
0.589859
0.52838
0.357674
0.342397
0.528379
0.340989
0.521552
0.528048
0.529008
0.35402
0.527106
0.340704
0.346561
0.346612
0.382866
0.527109
0.401988
0.546976
0.303507
0.338189
0.536267
0.359578
0.307901
0.352742
0.2978
0.397277
0.35235
0.353656
0.484818
0.499911
0.327235
0.357957
0.528963
0.340825
0.44496
0.527709
0.528806
0.568091
0.555558
0.497059
0.50865
0.34865
0.416105
0.52801
0.56657
0.312513
0.569862
0.25758
0.308744
0.34875
0.574152
0.574557
0.361808
0.566976
0.528033
0.311132
0.362259
0.635987
0.531718
0.399094
0.639585
0.426576
0.342628
0.638951
0.362124
0.519651
0.625601
0.457249
0.61005
0.330283
0.35019
0.533491
0.412454
0.361879
0.35806
0.355544
0.345567
0.528761
0.556425
0.544875
0.33685
0.278341
0.364159
0.361358
0.530983
0.349708
0.482025
0.362996
0.532847
0.53469
0.330027
0.531522
0.437134
0.559986
0.316162
0.533053
0.634775
0.581404
0.638747
0.53111
0.535541
0.358095
0.483766
0.348524
0.622892
0.332999
0.339457
0.526938
0.530256
0.527989
0.339709
0.33052
0.535276
0.578702
0.333486
0.528114
0.331279
0.328837
0.351342
0.585231
0.541202
0.619939
0.338825
0.317928
0.347977
0.333786
0.532914
0.532471
0.610082
0.339626
0.337344
0.52617
0.610867
0.637
0.557607
0.531629
0.465285
0.578568
0.563733
0.548205
0.350036
0.573841
0.562978
0.532883
0.529719
0.635244
0.565103
0.425025
0.56107
0.350251
0.584265
0.530483
0.249179
0.532539
0.534852
0.546677
0.353367
0.327513
0.52886
0.32719
0.340299
0.588051
0.32705
0.470257
0.604987
0.310434
0.571532
0.353916
0.576499
0.527121
0.53481
0.563172
0.355857
0.354048
0.600155
0.49758
0.355074
0.558985
0.337301
0.530298
0.3305
0.530386
0.545725
0.531834
0.327425
0.574968
0.358126
0.460438
0.469456
0.364079
0.299803
0.330148
0.530496
0.527672
0.496973
0.343346
0.530951
0.554164
0.341014
0.530699
0.33928
0.527021
0.616501
0.534008
0.530454
0.322585
0.361277
0.530931
0.561409
0.620953
0.553962
0.614297
0.556053
0.538735
0.330203
0.592506
0.433817
0.379792
0.398533
0.531542
0.603158
0.561608
0.4408
0.340871
0.63069
0.355482
0.357784
0.45587
0.331787
0.525202
0.35203
0.53296
0.34937
0.32792
0.46893
0.554336
0.346095
0.329021
0.608589
0.556534
0.580072
0.349014
0.326529
0.569297
0.35043
0.326466
0.347252
0.496339
0.537421
0.291526
0.611514
0.347166
0.595568
0.527777
0.350357
0.46173
0.556061
0.579126
0.575063
0.54405
0.537417
0.556973
0.631724
0.533623
0.34857
0.427653
0.547301
0.334799
0.553066
0.62348
0.304087
0.528643
0.546093
0.576675
0.63792
0.546348
0.622215
0.336562
0.55816
0.364284
0.324649
0.528516
0.530895
0.349469
0.349654
0.541705
0.442214
0.519159
0.325575
0.268694
0.623675
0.59818
0.556296
0.563286
0.537226
0.419435
0.522282
0.353212
0.533192
0.567544
0.559515
0.348758
0.425501
0.567443
0.559887
0.540237
0.14806
0.531431
0.327157
0.349641
0.341493
0.550473
0.5429
0.608494
0.546784
0.355392
0.530632
0.4323
0.624853
0.574254
0.554239
0.329697
0.342984
0.528709
0.359712
0.482278
0.543121
0.339238
0.34571
0.611888
0.63439
0.332839
0.531885
0.52672
0.32669
0.531614
0.527755
0.558719
0.357935
0.355073
0.641065
0.361888
0.340974
0.459677
0.529856
0.364515
0.421042
0.342268
0.325032
0.626526
0.349749
0.329144
0.550607
0.34302
0.358126
0.590044
0.563528
0.601705
0.531531
0.557977
0.349863
0.587529
0.527195
0.346638
0.543289
0.548369
0.532959
0.533596
0.357465
0.531307
0.346917
0.531917
0.354826
0.530408
0.344493
0.610406
0.346162
0.632882
0.567602
0.589745
0.566022
0.528915
0.531671
0.306057
0.527627
0.285065
0.534036
0.533389
0.333612
0.456719
0.362004
0.338256
0.533746
0.400755
0.527641
0.14982
0.589319
0.558951
0.578183
0.448588
0.347744
0.295315
0.327555
0.302063
0.590645
0.403913
0.336854
0.528269
0.348903
0.39415
0.529335
0.528306
0.558033
0.595719
0.275689
0.568843
0.344661
0.533596
0.528596
0.624061
0.315785
0.611369
0.600006
0.560019
0.556375
0.603748
0.427448
0.530058
0.638802
0.506061
0.529796
0.343934
0.605539
0.353825
0.476501
0.570285
0.574024
0.528223
0.551156
0.569407
0.531131
0.333151
0.54147
0.341354
0.35618
0.641928
0.57649
0.54789
0.617299
0.626819
0.533618
0.551715
0.533034
0.52871
0.52734
0.596757
0.357676
0.555785
0.530635
0.349752
0.628019
0.345104
0.547349
0.355179
0.528933
0.327912
0.326012
0.349596
0.538319
0.528371
0.486423
0.605655
0.354456
0.355975
0.529344
0.545125
0.347566
0.565128
0.509524
0.349373
0.559675
0.350647
0.347175
0.583155
0.557568
0.325403
0.55509
0.531112
0.543052
0.335144
0.569365
0.282469
0.530623
0.424071
0.601305
0.352407
0.593396
0.330171
0.360944
0.327534
0.569836
0.32808
0.560883
0.618892
0.537638
0.360073
0.344664
0.54702
0.34262
0.258026
0.333242
0.528216
0.34455
0.362741
0.302184
0.587103
0.344995
0.349124
0.341047
0.527846
0.569683
0.361867
0.534593
0.532243
0.561245
0.330556
0.344492
0.634511
0.327203
0.581859
0.364129
0.539158
0.35055
0.223755
0.571197
0.331892
0.332176
0.334239
0.530376
0.33133
0.510979
0.632012
0.328701
0.603896
0.350879
0.61634
0.474473
0.331797
0.344604
0.527731
0.503451
0.528542
0.344398
0.363647
0.502209
0.534037
0.338599
0.35864
0.33884
0.470815
0.625735
0.364824
0.514511
0.526519
0.529112
0.541396
0.340505
0.637021
0.349426
0.528467
0.527537
0.530179
0.357815
0.572271
0.572994
0.334243
0.551749
0.637825
0.350039
0.338775
0.347336
0.313841
0.551593
0.332814
0.528209
0.427021
0.533695
0.581107
0.417398
0.570507
0.334303
0.548915
0.328462
0.529506
0.527525
0.28779
0.348682
0.331042
0.539079
0.593883
0.326997
0.332017
0.349024
0.517541
0.578495
0.320576
0.327142
0.53859
0.639065
0.541602
0.34022
0.342766
0.545876
0.529352
0.333986
0.332803
0.500543
0.59221
0.565868
0.336269
0.528961
0.528436
0.343863
0.533751
0.351057
0.641678
0.343169
0.399827
0.32958
0.31035
0.527181
0.353581
0.332846
0.341385
0.350304
0.554807
0.622584
0.600782
0.336394
0.533552
0.556003
0.528761
0.631175
0.528067
0.58499
0.619071
0.626894
0.619914
0.526939
0.349309
0.557556
0.576701
0.356603
0.626907
0.575067
0.529733
0.52852
0.323998
0.6234
0.533025
0.546706
0.354765
0.576976
0.528119
0.528447
0.614091
0.352804
0.56825
0.357126
0.467546
0.361276
0.36121
0.342382
0.336109
0.529514
0.631907
0.572126
0.346751
0.528345
0.531298
0.531646
0.341584
0.355041
0.545641
0.341357
0.34246
0.355883
0.612353
0.476233
0.528393
0.356312
0.605867
0.527808
0.524573
0.617922
0.357833
0.581364
0.528755
0.556692
0.538664
0.529606
0.618411
0.350339
0.357011
0.356595
0.529321
0.328099
0.632377
0.544034
0.577449
0.346236
0.36276
0.563988
0.55316
0.531008
0.347993
0.536493
0.556223
0.327994
0.530009
0.332782
0.360253
0.346862
0.324275
0.341812
0.537359
0.538652
0.580927
0.508305
0.627001
0.528606
0.551941
0.530259
0.589119
0.610584
0.528964
0.529298
0.33654
0.531607
0.531311
0.484548
0.334476
0.562296
0.348785
0.531038
0.413146
0.625196
0.626939
0.346991
0.639545
0.335792
0.589869
0.542599
0.627075
0.572677
0.570022
0.637758
0.528461
0.359194
0.509195
0.480003
0.271158
0.529424
0.532949
0.5085
0.608072
0.534502
0.530118
0.342576
0.332005
0.627565
0.581649
0.324517
0.222974
0.552765
0.527902
0.528317
0.293036
0.526645
0.562896
0.597056
0.335806
0.530012
0.565086
0.625034
0.595214
0.502122
0.52978
0.348537
0.566272
0.331434
0.356873
0.529873
0.379614
0.38222
0.335957
0.581856
0.56578
0.506907
0.528175
0.490491
0.362857
0.356142
0.549244
0.526594
0.633168
0.572327
0.277145
0.554951
0.49256
0.331432
0.52693
0.561267
0.341023
0.529106
0.533481
0.532437
0.511291
0.528683
0.399706
0.528986
0.534309
0.527397
0.347657
0.624237
0.434266
0.593446
0.530631
0.564105
0.527465
0.528248
0.528505
0.527408
0.55176
0.345029
0.606397
0.603577
0.350885
0.581604
0.530345
0.584434
0.57144
0.330118
0.613644
0.358486
0.631953
0.559318
0.548406
0.33262
0.574109
0.529303
0.531627
0.609538
0.548967
0.532068
0.534246
0.431657
0.3362
0.297831
0.532411
0.355334
0.336011
0.617741
0.328407
0.606446
0.333544
0.534204
0.326983
0.335497
0.55729
0.443979
0.328545
0.566111
0.527292
0.538874
0.343801
0.565181
0.530743
0.529743
0.339422
0.532679
0.532666
0.330802
0.553189
0.528276
0.567411
0.349595
0.438295
0.603243
0.341952
0.631695
0.353021
0.347322
0.530416
0.431483
0.565302
0.333184
0.548437
0.482426
0.532758
0.229892
0.341138
0.530527
0.348811
0.53254
0.358531
0.528656
0.567634
0.539417
0.532384
0.585934
0.282123
0.528144
0.597688
0.527482
0.532091
0.35568
0.342499
0.326329
0.347341
0.530177
0.358004
0.601939
0.343031
0.587349
0.569308
0.529313
0.33443
0.52862
0.351211
0.53164
0.560352
0.358445
0.528363
0.586438
0.324665
0.555675
0.349682
0.361323
0.584121
0.36436
0.550837
0.244383
0.357259
0.564978
0.368608
0.640652
0.3447
0.53269
0.526947
0.529454
0.432773
0.332331
0.363757
0.531821
0.533278
0.367115
0.5307
0.346927
0.532176
0.335101
0.351906
0.536888
0.551345
0.475927
0.579988
0.528035
0.5764
0.541304
0.567145
0.52939
0.345577
0.543173
0.351837
0.362077
0.555528
0.458707
0.443075
0.505371
0.341705
0.552684
0.531727
0.541094
0.345656
0.344746
0.517854
0.592816
0.52845
0.574931
0.326929
0.57899
0.575235
0.573526
0.502193
0.331215
0.339427
0.348413
0.581305
0.533886
0.33752
0.360391
0.49764
0.339639
0.597756
0.606191
0.344408
0.529779
0.455197
0.603214
0.53585
0.329175
0.357029
0.573307
0.326258
0.441468
0.527187
0.29729
0.328553
0.337398
0.599534
0.626967
0.595873
0.348167
0.323462
0.629231
0.528294
0.553967
0.535641
0.336854
0.338326
0.369165
0.580596
0.358135
0.331878
0.540808
0.642292
0.608381
0.352079
0.348215
0.356237
0.528885
0.328578
0.590235
0.532198
0.531306
0.488426
0.541057
0.581556
0.364426
0.335083
0.528368
0.330124
0.537523
0.540081
0.583699
0.497672
0.353294
0.35049
0.546554
0.453071
0.34126
0.564872
0.528146
0.322823
0.332216
0.60459
0.507177
0.347551
0.358145
0.589151
0.574064
0.546504
0.553466
0.391181
0.351176
0.362996
0.426699
0.351679
0.533995
0.530122
0.539891
0.564627
0.355649
0.55601
0.358817
0.527807
0.597619
0.353645
0.289303
0.571703
0.430012
0.548474
0.528401
0.33175
0.528684
0.621737
0.529004
0.531828
0.588929
0.357428
0.345318
0.357344
0.604198
0.528311
0.56002
0.509539
0.341906
0.344269
0.572184
0.345186
0.548702
0.528999
0.528707
0.384341
0.33924
0.536237
0.560325
0.533653
0.54428
0.529613
0.529479
0.528761
0.561192
0.276851
0.530782
0.558475
0.53326
0.324182
0.557456
0.481792
0.542898
0.584298
0.511129
0.574488
0.582777
0.592383
0.533089
0.346162
0.537039
0.605956
0.362002
0.576393
0.332823
0.344889
0.533976
0.528394
0.358326
0.562773
0.528864
0.34069
0.356996
0.598168
0.613942
0.546541
0.358922
0.581081
0.348332
0.568405
0.605105
0.33104
0.520633
0.585056
0.347647
0.326309
0.357438
0.555233
0.573527
0.328054
0.350393
0.374658
0.356073
0.348883
0.564403
0.341682
0.602853
0.528213
0.542568
0.327684
0.526698
0.510951
0.56287
0.506746
0.530218
0.326318
0.331658
0.338249
0.552769
0.360373
0.33474
0.578604
0.350451
0.532443
0.598297
0.484337
0.350409
0.348711
0.546337
0.528783
0.532143
0.567107
0.571046
0.33161
0.35344
0.341074
0.602219
0.528381
0.332049
0.564984
0.363076
0.373425
0.529226
0.334446
0.354609
0.282854
0.415401
0.346435
0.529083
0.581602
0.535089
0.374233
0.528514
0.546602
0.333169
0.52903
0.418953
0.596682
0.358147
0.433148
0.528046
0.342696
0.333812
0.52968
0.623784
0.330663
0.617719
0.585663
0.526502
0.447904
0.336501
0.560957
0.526947
0.407067
0.366276
0.480426
0.449384
0.529475
0.362881
0.331626
0.569271
0.595724
0.348966
0.334157
0.591718
0.342581
0.361253
0.328385
0.522481
0.613453
0.327219
0.540826
0.350382
0.33865
0.359204
0.458002
0.34907
0.544239
0.328496
0.357137
0.559958
0.543514
0.391848
0.531054
0.331205
0.350618
0.553038
0.595163
0.608688
0.607246
0.556966
0.560899
0.333792
0.55023
0.349395
0.53177
0.597723
0.462895
0.615896
0.530494
0.527375
0.528394
0.4929
0.358262
0.488121
0.345694
0.580617
0.531495
0.579566
0.34953
0.538005
0.410836
0.531831
0.338659
0.337939
0.577561
0.345747
0.567507
0.590331
0.42298
0.345448
0.363967
0.528189
0.442389
0.298076
0.547719
0.349906
0.590688
0.356067
0.363939
0.349544
0.528069
0.439479
0.53056
0.334967
0.353724
0.540127
0.527048
0.310396
0.396895
0.28847
0.560396
0.352384
0.617674
0.538796
0.531175
0.258501
0.333827
0.517562
0.633336
0.613092
0.526583
0.337415
0.553173
0.535721
0.530611
0.531805
0.326853
0.544185
0.354951
0.515198
0.556379
0.537974
0.528914
0.63844
0.582857
0.527676
0.552578
0.561125
0.538841
0.533466
0.528089
0.528461
0.337274
0.350377
0.529314
0.544981
0.530746
0.533858
0.600067
0.615624
0.592791
0.35237
0.339205
0.532572
0.336895
0.334841
0.35889
0.527633
0.614052
0.529096
0.568396
0.547459
0.333361
0.609835
0.334481
0.32689
0.56291
0.536704
0.561156
0.447585
0.443968
0.349657
0.338262
0.430803
0.348775
0.396221
0.577023
0.347713
0.557567
0.346408
0.592521
0.527699
0.308322
0.35435
0.580567
0.532237
0.341882
0.574817
0.304529
0.349297
0.333932
0.513731
0.527525
0.534023
0.52974
0.257613
0.363253
0.300389
0.357031
0.533146
0.630823
0.536144
0.349775
0.329452
0.529801
0.526677
0.531509
0.325046
0.546833
0.536838
0.565209
0.48832
0.36306
0.372277
0.335957
0.52942
0.335026
0.336974
0.532737
0.358204
0.529329
0.359694
0.353879
0.447972
0.354067
0.619868
0.53302
0.529501
0.508218
0.584952
0.58316
0.553295
0.365528
0.594696
0.596168
0.599812
0.529351
0.527859
0.582676
0.482223
0.526577
0.52837
0.353981
0.3444
0.572035
0.451133
0.527694
0.345936
0.595085
0.373235
0.551064
0.52892
0.576789
0.526638
0.613577
0.551236
0.340924
0.351191
0.641369
0.592511
0.527095
0.494976
0.595668
0.509921
0.57911
0.52909
0.547452
0.532409
0.567386
0.532174
0.361077
0.335837
0.528807
0.588759
0.35056
0.351483
0.479573
0.533203
0.533936
0.597365
0.359558
0.551625
0.333917
0.53033
0.34978
0.635542
0.349993
0.576057
0.347748
0.634042
0.509487
0.337977
0.350001
0.545108
0.347567
0.558925
0.324732
0.52956
0.533749
0.593982
0.576866
0.527174
0.558596
0.529814
0.617184
0.542745
0.556542
0.611224
0.580296
0.597753
0.329542
0.588596
0.587021
0.527464
0.329088
0.572281
0.60144
0.529862
0.353392
0.349592
0.350216
0.639896
0.581446
0.350476
0.564499
0.439099
0.529907
0.341815
0.466859
0.365322
0.329292
0.582716
0.359371
0.600338
0.352097
0.602633
0.348299
0.529776
0.588878
0.537697
0.36212
0.3582
0.390176
0.549208
0.354351
0.388591
0.338549
0.545809
0.561771
0.626616
0.56438
0.632886
0.554381
0.429091
0.356202
0.528385
0.332144
0.513583
0.579508
0.610387
0.231864
0.351024
0.551641
0.529705
0.462504
0.625127
0.62695
0.576042
0.347877
0.578653
0.565738
0.562731
0.534245
0.357938
0.533736
0.351955
0.526332
0.545968
0.5741
0.527592
0.383757
0.531112
0.244512
0.402419
0.571466
0.599691
0.530197
0.51756
0.350434
0.527562
0.532346
0.35185
0.330855
0.344358
0.578753
0.361464
0.350196
0.34664
0.345207
0.331001
0.411526
0.582056
0.346233
0.635225
0.541184
0.348445
0.609316
0.343786
0.628463
0.348815
0.532364
0.351199
0.54877
0.527948
0.450458
0.569153
0.52798
0.619127
0.341101
0.552546
0.49123
0.336651
0.354284
0.455749
0.348654
0.623657
0.33363
0.34758
0.355279
0.533871
0.561503
0.325802
0.33159
0.559702
0.34838
0.340343
0.530574
0.363923
0.360895
0.352245
0.592492
0.592501
0.571379
0.349859
0.310674
0.579071
0.614356
0.52998
0.446801
0.562767
0.535321
0.469898
0.452317
0.332803
0.350891
0.256224
0.57143
0.349313
0.602626
0.598506
0.546047
0.359552
0.464317
0.474866
0.587376
0.325221
0.554893
0.261289
0.563269
0.337937
0.303334
0.337565
0.544271
0.326053
0.595138
0.357154
0.424287
0.348896
0.542644
0.354819
0.590076
0.354968
0.558235
0.558281
0.332938
0.527795
0.527576
0.350887
0.578066
0.35996
0.347667
0.575091
0.329825
0.610593
0.368478
0.246898
0.528197
0.340539
0.3891
0.359071
0.34863
0.349399
0.601158
0.498255
0.583199
0.568183
0.629774
0.571365
0.466514
0.532018
0.337734
0.528387
0.347351
0.533496
0.328187
0.436326
0.549704
0.574675
0.528432
0.391654
0.50262
0.357555
0.362074
0.357015
0.246097
0.559828
0.464647
0.585969
0.528298
0.559051
0.642659
0.527499
0.441963
0.348775
0.408095
0.624356
0.565101
0.569345
0.528173
0.599697
0.47214
0.310482
0.374742