# vtk DataFile Version 1.0
unstructured grid
ascii
DATASET UNSTRUCTURED_GRID
points 3226 float
0.0796578 -0.059106 0
0.00128732 0.00159165 0
0.00227961 -0.00102548 0
0.0791586 -0.0598787 0
-0.0546216 0.01 0
0.000495206 0.025 0
0.0800549 -0.035 0
0.135172 -0.08 0
-0.0546216 -0.0451168 0
0.000495206 -0.0301168 0
0.0800549 -0.0901168 0
0.135172 -0.135117 0
-0.0546216 -0.0451168 -0.00551168
0.000495206 -0.0301168 -0.00551168
0.0800549 -0.0901168 -0.00551168
0.135172 -0.135117 -0.00551168
0.135172 -0.08 -0.00551168
0.0800549 -0.035 -0.00551168
0.000495206 0.025 -0.00551168
-0.0546216 0.01 -0.00551168
0.00128732 0.00159165 -0.00551168
0.00227961 -0.00102548 -0.00551168
0.0791586 -0.0598787 -0.00551168
0.0796578 -0.059106 -0.00551168
0.00110182 -0.000823821 0
0.000571683 -0.000188043 0
0.000561313 0.000639162 0
0.00189316 0.00207203 0
0.00260228 0.00255358 0
0.0033966 0.00307293 0
0.00428861 0.00362634 0
0.00529726 0.0041979 0
0.00644092 0.00476696 0
0.00773158 0.0053187 0
0.00918011 0.00583593 0
0.010799 0.00628751 0
0.012597 0.00663225 0
0.0145725 0.0068517 0
0.0167206 0.0069338 0
0.0190349 0.00685819 0
0.0215031 0.00658621 0
0.0241038 0.00607459 0
0.026821 0.00533786 0
0.0296245 0.00434523 0
0.0324763 0.00306927 0
0.0353199 0.00146906 0
0.0381488 -0.00039338 0
0.0409131 -0.00252802 0
0.0435632 -0.00493276 0
0.0460882 -0.0075571 0
0.0484881 -0.0103478 0
0.0506782 -0.0133217 0
0.0526651 -0.016422 0
0.0546139 -0.0195019 0
0.0565301 -0.022529 0
0.0584009 -0.0254846 0
0.0602154 -0.0283513 0
0.061964 -0.031114 0
0.0636389 -0.0337601 0
0.0652336 -0.0362795 0
0.0667431 -0.0386651 0
0.0681656 -0.0409111 0
0.0694983 -0.0430158 0
0.0707356 -0.0449823 0
0.071886 -0.0468071 0
0.0729575 -0.04849 0
0.0739438 -0.0500408 0
0.0748444 -0.0514675 0
0.0756707 -0.0527715 0
0.0764313 -0.053958 0
0.0771224 -0.0550398 0
0.0777384 -0.0560288 0
0.0782803 -0.0569318 0
0.0787691 -0.0577448 0
0.0792251 -0.0584672 0
0.0800494 -0.0597378 0
0.0797987 -0.0601582 0
0.0786655 -0.059391 0
0.0781259 -0.0588425 0
0.0775539 -0.0582102 0
0.0769587 -0.0574783 0
0.0763492 -0.0566339 0
0.075723 -0.0556725 0
0.0750452 -0.0546094 0
0.0742996 -0.0534457 0
0.073478 -0.0521785 0
0.072577 -0.0508019 0
0.0715904 -0.049313 0
0.0705098 -0.047712 0
0.069328 -0.0459996 0
0.0680378 -0.0441794 0
0.066632 -0.0422571 0
0.0651046 -0.0402413 0
0.0634508 -0.0381431 0
0.0616683 -0.0359754 0
0.0597581 -0.033753 0
0.0577255 -0.0314906 0
0.0555808 -0.0292024 0
0.0533388 -0.0269013 0
0.0510024 -0.0246151 0
0.0485693 -0.0223811 0
0.0460535 -0.0202228 0
0.0434788 -0.0181535 0
0.0408704 -0.0161833 0
0.0382442 -0.0143327 0
0.0356165 -0.0126209 0
0.0330065 -0.0110594 0
0.0304368 -0.00965062 0
0.0279338 -0.00838121 0
0.0255194 -0.00723697 0
0.0231965 -0.00623664 0
0.020983 -0.00535765 0
0.0188891 -0.00458677 0
0.0169193 -0.00391673 0
0.0150754 -0.00334068 0
0.0133572 -0.00285262 0
0.0117634 -0.0024437 0
0.0102912 -0.00210643 0
0.0089363 -0.00183343 0
0.00769424 -0.00161552 0
0.00655956 -0.00144452 0
0.00552632 -0.00131235 0
0.00458815 -0.00121216 0
0.00373885 -0.00113394 0
0.00297202 -0.00106855 0
-0.0506847 -0.0440454 0
-0.0467478 -0.0429739 0
-0.0428108 -0.0419025 0
-0.0388739 -0.0408311 0
-0.034937 -0.0397597 0
-0.0310001 -0.0386882 0
-0.0270632 -0.0376168 0
-0.0231263 -0.0365454 0
-0.0191894 -0.0354739 0
-0.0152525 -0.0344025 0
-0.0113155 -0.0333311 0
-0.00737862 -0.0322597 0
-0.00344171 -0.0311882 0
0.0038716 -0.0298185 0
0.00726082 -0.0297726 0
0.010644 -0.0299802 0
0.0140027 -0.0304367 0
0.0173201 -0.0311326 0
0.0205821 -0.0320541 0
0.0237776 -0.0331851 0
0.0268988 -0.0345078 0
0.0299406 -0.0360041 0
0.0329005 -0.0376567 0
0.035778 -0.039449 0
0.038574 -0.0413659 0
0.0412905 -0.043394 0
0.0439303 -0.0455212 0
0.0464964 -0.0477367 0
0.0489922 -0.0500312 0
0.051421 -0.0523964 0
0.0537863 -0.0548252 0
0.0560914 -0.0573112 0
0.0583395 -0.0598489 0
0.0605336 -0.0624334 0
0.0626765 -0.0650605 0
0.064771 -0.0677264 0
0.0668197 -0.0704277 0
0.0688248 -0.0731615 0
0.0707885 -0.0759252 0
0.072713 -0.0787163 0
0.0746002 -0.0815329 0
0.0764517 -0.0843729 0
0.0782695 -0.0872347 0
0.0829558 -0.0924852 0
0.0858567 -0.0948536 0
0.0887575 -0.0972221 0
0.0916584 -0.0995905 0
0.0945593 -0.101959 0
0.0974602 -0.104327 0
0.100361 -0.106696 0
0.103262 -0.109064 0
0.106163 -0.111433 0
0.109064 -0.113801 0
0.111965 -0.116169 0
0.114865 -0.118538 0
0.117766 -0.120906 0
0.120667 -0.123275 0
0.123568 -0.125643 0
0.126469 -0.128012 0
0.12937 -0.13038 0
0.132271 -0.132748 0
0.135172 -0.13118 0
0.135172 -0.127243 0
0.135172 -0.123306 0
0.135172 -0.119369 0
0.135172 -0.115432 0
0.135172 -0.111495 0
0.135172 -0.107558 0
0.135172 -0.103621 0
0.135172 -0.0996846 0
0.135172 -0.0957477 0
0.135172 -0.0918107 0
0.135172 -0.0878738 0
0.135172 -0.0839369 0
0.132271 -0.0776316 0
0.12937 -0.0752632 0
0.126469 -0.0728947 0
0.123568 -0.0705263 0
0.120667 -0.0681579 0
0.117766 -0.0657895 0
0.114865 -0.0634211 0
0.111965 -0.0610526 0
0.109064 -0.0586842 0
0.106163 -0.0563158 0
0.103262 -0.0539474 0
0.100361 -0.0515789 0
0.0974602 -0.0492105 0
0.0945593 -0.0468421 0
0.0916584 -0.0444737 0
0.0887575 -0.0421053 0
0.0858567 -0.0397368 0
0.0829558 -0.0373684 0
0.0782695 -0.0321179 0
0.0764517 -0.0292561 0
0.0746002 -0.026416 0
0.072713 -0.0235995 0
0.0707885 -0.0208084 0
0.0688248 -0.0180447 0
0.0668197 -0.0153109 0
0.064771 -0.0126096 0
0.0626765 -0.00994373 0
0.0605336 -0.00731663 0
0.0583395 -0.00473208 0
0.0560914 -0.00219437 0
0.0537863 0.000291632 0
0.051421 0.00272041 0
0.0489922 0.00508564 0
0.0464964 0.00738012 0
0.0439303 0.00959562 0
0.0412905 0.0117228 0
0.038574 0.0137509 0
0.035778 0.0156678 0
0.0329005 0.0174601 0
0.0299406 0.0191127 0
0.0268988 0.020609 0
0.0237776 0.0219317 0
0.0205821 0.0230627 0
0.0173201 0.0239842 0
0.0140027 0.0246801 0
0.010644 0.0251366 0
0.00726082 0.0253442 0
0.0038716 0.0252983 0
-0.00344171 0.0239286 0
-0.00737862 0.0228571 0
-0.0113155 0.0217857 0
-0.0152525 0.0207143 0
-0.0191894 0.0196429 0
-0.0231263 0.0185714 0
-0.0270632 0.0175 0
-0.0310001 0.0164286 0
-0.034937 0.0153571 0
-0.0388739 0.0142857 0
-0.0428108 0.0132143 0
-0.0467478 0.0121429 0
-0.0506847 0.0110714 0
-0.0546216 0.00606309 0
-0.0546216 0.00212617 0
-0.0546216 -0.00181074 0
-0.0546216 -0.00574766 0
-0.0546216 -0.00968457 0
-0.0546216 -0.0136215 0
-0.0546216 -0.0175584 0
-0.0546216 -0.0214953 0
-0.0546216 -0.0254322 0
-0.0546216 -0.0293691 0
-0.0546216 -0.0333061 0
-0.0546216 -0.037243 0
-0.0546216 -0.0411799 0
-0.0506847 -0.0440454 -0.00551168
-0.0467478 -0.0429739 -0.00551168
-0.0428108 -0.0419025 -0.00551168
-0.0388739 -0.0408311 -0.00551168
-0.034937 -0.0397597 -0.00551168
-0.0310001 -0.0386882 -0.00551168
-0.0270632 -0.0376168 -0.00551168
-0.0231263 -0.0365454 -0.00551168
-0.0191894 -0.0354739 -0.00551168
-0.0152525 -0.0344025 -0.00551168
-0.0113155 -0.0333311 -0.00551168
-0.00737862 -0.0322597 -0.00551168
-0.00344171 -0.0311882 -0.00551168
0.0038716 -0.0298185 -0.00551168
0.00726082 -0.0297726 -0.00551168
0.010644 -0.0299802 -0.00551168
0.0140027 -0.0304367 -0.00551168
0.0173201 -0.0311326 -0.00551168
0.0205821 -0.0320541 -0.00551168
0.0237776 -0.0331851 -0.00551168
0.0268988 -0.0345078 -0.00551168
0.0299406 -0.0360041 -0.00551168
0.0329005 -0.0376567 -0.00551168
0.035778 -0.039449 -0.00551168
0.038574 -0.0413659 -0.00551168
0.0412905 -0.043394 -0.00551168
0.0439303 -0.0455212 -0.00551168
0.0464964 -0.0477367 -0.00551168
0.0489922 -0.0500312 -0.00551168
0.051421 -0.0523964 -0.00551168
0.0537863 -0.0548252 -0.00551168
0.0560914 -0.0573112 -0.00551168
0.0583395 -0.0598489 -0.00551168
0.0605336 -0.0624334 -0.00551168
0.0626765 -0.0650605 -0.00551168
0.064771 -0.0677264 -0.00551168
0.0668197 -0.0704277 -0.00551168
0.0688248 -0.0731615 -0.00551168
0.0707885 -0.0759252 -0.00551168
0.072713 -0.0787163 -0.00551168
0.0746002 -0.0815329 -0.00551168
0.0764517 -0.0843729 -0.00551168
0.0782695 -0.0872347 -0.00551168
0.0829558 -0.0924852 -0.00551168
0.0858567 -0.0948536 -0.00551168
0.0887575 -0.0972221 -0.00551168
0.0916584 -0.0995905 -0.00551168
0.0945593 -0.101959 -0.00551168
0.0974602 -0.104327 -0.00551168
0.100361 -0.106696 -0.00551168
0.103262 -0.109064 -0.00551168
0.106163 -0.111433 -0.00551168
0.109064 -0.113801 -0.00551168
0.111965 -0.116169 -0.00551168
0.114865 -0.118538 -0.00551168
0.117766 -0.120906 -0.00551168
0.120667 -0.123275 -0.00551168
0.123568 -0.125643 -0.00551168
0.126469 -0.128012 -0.00551168
0.12937 -0.13038 -0.00551168
0.132271 -0.132748 -0.00551168
0.135172 -0.13118 -0.00551168
0.135172 -0.127243 -0.00551168
0.135172 -0.123306 -0.00551168
0.135172 -0.119369 -0.00551168
0.135172 -0.115432 -0.00551168
0.135172 -0.111495 -0.00551168
0.135172 -0.107558 -0.00551168
0.135172 -0.103621 -0.00551168
0.135172 -0.0996846 -0.00551168
0.135172 -0.0957477 -0.00551168
0.135172 -0.0918107 -0.00551168
0.135172 -0.0878738 -0.00551168
0.135172 -0.0839369 -0.00551168
0.132271 -0.0776316 -0.00551168
0.12937 -0.0752632 -0.00551168
0.126469 -0.0728947 -0.00551168
0.123568 -0.0705263 -0.00551168
0.120667 -0.0681579 -0.00551168
0.117766 -0.0657895 -0.00551168
0.114865 -0.0634211 -0.00551168
0.111965 -0.0610526 -0.00551168
0.109064 -0.0586842 -0.00551168
0.106163 -0.0563158 -0.00551168
0.103262 -0.0539474 -0.00551168
0.100361 -0.0515789 -0.00551168
0.0974602 -0.0492105 -0.00551168
0.0945593 -0.0468421 -0.00551168
0.0916584 -0.0444737 -0.00551168
0.0887575 -0.0421053 -0.00551168
0.0858567 -0.0397368 -0.00551168
0.0829558 -0.0373684 -0.00551168
0.0782695 -0.0321179 -0.00551168
0.0764517 -0.0292561 -0.00551168
0.0746002 -0.026416 -0.00551168
0.072713 -0.0235995 -0.00551168
0.0707885 -0.0208084 -0.00551168
0.0688248 -0.0180447 -0.00551168
0.0668197 -0.0153109 -0.00551168
0.064771 -0.0126096 -0.00551168
0.0626765 -0.00994373 -0.00551168
0.0605336 -0.00731663 -0.00551168
0.0583395 -0.00473208 -0.00551168
0.0560914 -0.00219437 -0.00551168
0.0537863 0.000291632 -0.00551168
0.051421 0.00272041 -0.00551168
0.0489922 0.00508564 -0.00551168
0.0464964 0.00738012 -0.00551168
0.0439303 0.00959562 -0.00551168
0.0412905 0.0117228 -0.00551168
[...]
CELL_DATA 2965
SCALARS rho float
LOOKUP_TABLE default
0.534053
0.334244
0.525623
0.323676
0.542795
0.352094
0.533766
0.334374
0.352556
0.526598
0.323355
0.334659
0.426384
0.536895
0.518846
0.517759
0.527819
0.517397
0.545619
0.529516
0.53408
0.323615
0.510261
0.53841
0.536231
0.548227
0.459522
0.480598
0.328177
0.506306
0.502943
0.334253
0.553237
0.530455
0.28169
0.352573
0.529449
0.53427
0.312187
0.506874
0.530607
0.503647
0.534718
0.331338
0.333362
0.533573
0.45957
0.471721
0.31209
0.533977
0.390688
0.320924
0.335035
0.425905
0.325385
0.421005
0.35382
0.319454
0.27248
0.476971
0.516747
0.477551
0.326292
0.544863
0.48754
0.534145
0.533815
0.321045
0.311506
0.339521
0.51913
0.544193
0.533828
0.29367
0.501196
0.410256
0.533854
0.320765
0.326243
0.468526
0.53379
0.325395
0.33816
0.435411
0.482426
0.374892
0.316609
0.273268
0.554351
0.351874
0.312303
0.53348
0.518485
0.515255
0.534274
0.312809
0.458177
0.298527
0.339178
0.32856
0.475218
0.327803
0.338338
0.332764
0.340864
0.529079
0.533845
0.323468
0.319993
0.533825
0.250104
0.391866
0.470964
0.494702
0.312942
0.30563
0.507224
0.455929
0.534066
0.333301
0.53377
0.238888
0.540502
0.541976
0.494293
0.400833
0.330444
0.46011
0.532495
0.267944
0.336131
0.428364
0.533069
0.337903
0.46123
0.338694
0.427424
0.517317
0.554693
0.542777
0.33763
0.516822
0.528685
0.330869
0.280933
0.546118
0.322074
0.542006
0.555099
0.344055
0.332591
0.32986
0.338642
0.323744
0.281012
0.270555
0.533791
0.532646
0.526183
0.540716
0.453015
0.462494
0.407889
0.543872
0.354587
0.533764
0.41677
0.332268
0.53391
0.53645
0.48197
0.299828
0.434125
0.520577
0.547957
0.41437
0.512659
0.358604
0.260351
0.417502
0.338475
0.260202
0.312559
0.30157
0.555408
0.533772
0.330431
0.331417
0.389786
0.336841
0.312927
0.319594
0.451641
0.293048
0.533872
0.464086
0.535145
0.486687
0.440752
0.325321
0.333158
0.341844
0.52884
0.444261
0.533726
0.310634
0.428802
0.533872
0.520374
0.535234
0.497033
0.398265
0.347648
0.344383
0.506557
0.340608
0.461082
0.325789
0.518309
0.337279
0.352525
0.33692
0.459777
0.382651
0.546214
0.288744
0.533714
0.523305
0.32045
0.480429
0.326644
0.283888
0.536609
0.313502
0.533929
0.536549
0.324685
0.531984
0.335583
0.350903
0.372919
0.332823
0.544581
0.52379
0.331818
0.250038
0.526813
0.533957
0.447509
0.506566
0.327032
0.329435
0.533794
0.336678
0.482207
0.277377
0.27639
0.534053
0.533643
0.338291
0.464984
0.326007
0.543652
0.353206
0.53595
0.534023
0.266978
0.473177
0.521426
0.304642
0.333138
0.534598
0.331642
0.551091
0.510471
0.332412
0.515583
0.515554
0.552098
0.53199
0.547298
0.468737
0.529981
0.533923
0.321421
0.318688
0.524094
0.539894
0.338438
0.532132
0.463149
0.324959
0.338199
0.331455
0.47825
0.320743
0.533881
0.480787
0.550579
0.334177
0.483978
0.486074
0.477304
0.533749
0.329065
0.237043
0.545631
0.533818
0.533881
0.32013
0.335359
0.48249
0.298457
0.301146
0.492588
0.533741
0.485304
0.250594
0.328817
0.483004
0.494682
0.328836
0.534364
0.53373
0.334253
0.415047
0.533706
0.515803
0.28578
0.333519
0.534141
0.342053
0.538224
0.364557
0.54035
0.392273
0.369855
0.335916
0.331594
0.302541
0.511969
0.548318
0.526815
0.543737
0.485685
0.474633
0.316222
0.534824
0.547724
0.339771
0.319691
0.534196
0.317742
0.517338
0.472881
0.338501
0.337245
0.33432
0.321667
0.533733
0.338534
0.339745
0.380353
0.329465
0.533784
0.534531
0.473078
0.533833
0.33465
0.531905
0.332885
0.534203
0.321429
0.337206
0.536143
0.466038
0.285177
0.257615
0.532929
0.361034
0.500969
0.515085
0.321795
0.531212
0.280986
0.342564
0.534333
0.302468
0.536374
0.275737
0.380434
0.334122
0.536683
0.469264
0.434699
0.53397
0.299583
0.547188
0.341453
0.326259
0.549765
0.322141
0.541223
0.422024
0.487922
0.279478
0.295766
0.324434
0.279832
0.32353
0.343111
0.530884
0.534646
0.534859
0.533967
0.340144
0.53905
0.46675
0.520591
0.255112
0.533556
0.35232
0.48486
0.476283
0.340319
0.533885
0.355055
0.523036
0.334044
0.488875
0.535554
0.320824
0.533606
0.258403
0.538447
0.325953
0.319709
0.416625
0.543956
0.540967
0.398649
0.279129
0.250124
0.417583
0.543495
0.528813
0.533921
0.532119
0.537512
0.319481
0.514626
0.484532
0.336591
0.266566
0.306976
0.49878
0.536295
0.36652
0.3805
0.371371
0.345172
0.528836
0.535192
0.533916
0.549212
0.398833
0.534039
0.535799
0.330967
0.540046
0.346599
0.35138
0.532349
0.53486
0.537898
0.546054
0.328509
0.332792
0.553393
0.531032
0.328574
0.530085
0.502005
0.534826
0.350926
0.335754
0.535972
0.336255
0.453754
0.535016
0.536228
0.339848
0.533746
0.331915
0.332197
0.321866
0.345854
0.533741
0.363535
0.517416
0.283854
0.32534
0.527197
0.341341
0.29186
0.339476
0.275916
0.35973
0.333324
0.326918
0.427432
0.438745
0.322426
0.35189
0.536313
0.335498
0.39566
0.5337
0.533918
0.495239
0.490499
0.437201
0.444499
0.298352
0.374153
0.533859
0.499234
0.277597
0.508941
0.246609
0.292284
0.320325
0.534333
0.551655
0.339283
0.497562
0.532428
0.283376
0.34091
0.542415
0.533854
0.361057
0.544161
0.380468
0.338891
0.542464
0.341008
0.453798
0.527958
0.406683
0.543218
0.318662
0.344405
0.537746
0.369276
0.338857
0.351472
0.329508
0.326386
0.534033
0.540351
0.523679
0.319546
0.256927
0.343401
0.33945
0.530813
0.28029
0.423949
0.340182
0.532121
0.534018
0.307898
0.533987
0.391525
0.491032
0.298583
0.527978
0.534269
0.554682
0.535944
0.533973
0.526492
0.351306
0.425807
0.340282
0.528401
0.317765
0.324604
0.532839
0.533856
0.533626
0.332374
0.328347
0.539461
0.541761
0.307356
0.534697
0.29843
0.307664
0.330816
0.553333
0.538974
0.523502
0.30026
0.30035
0.342826
0.330083
0.537996
0.533834
0.546789
0.331091
0.320655
0.457534
0.547766
0.544393
0.510553
0.533818
0.413366
0.536725
0.542235
0.517431
0.332312
0.537299
0.495582
0.533771
0.536558
0.546466
0.486614
0.381118
0.546794
0.338591
0.544837
0.533847
0.236744
0.533816
0.463487
0.535924
0.333878
0.324566
0.534224
0.300945
0.327353
0.54901
0.300805
0.416531
0.538208
0.288111
0.546904
0.327922
0.49329
0.533206
0.528536
0.502366
0.324811
0.32712
0.522302
0.437367
0.335227
0.481017
0.315273
0.534031
0.325616
0.460113
0.519467
0.533954
0.325444
0.493141
0.3519
0.409594
0.414728
0.34272
0.277409
0.331735
0.534093
0.459467
0.437129
0.322837
0.534051
0.490176
0.32227
0.534022
0.335273
0.457647
0.520159
0.533718
0.537652
0.29603
0.330483
0.533962
0.545127
0.523516
0.489819
0.543449
0.480242
0.466402
0.319541
0.503803
0.388837
0.345787
0.360334
0.53385
0.55
0.509031
0.394274
0.332046
0.541977
0.33586
0.342553
0.403968
0.320063
0.456784
0.332678
0.53377
0.330374
0.311313
0.414969
0.545215
0.331983
0.307914
0.549562
0.544145
0.551749
0.325731
0.30737
0.53913
0.345234
0.307451
0.332208
0.43675
0.525483
0.268037
0.551182
0.3327
0.506636
0.53408
0.319224
0.4086
0.478845
0.501231
0.495548
0.54129
0.538809
0.545002
0.535748
0.533766
0.341418
0.38188
0.522312
0.297138
0.543849
0.526752
0.266532
0.532413
0.475972
0.513573
0.540151
0.470311
0.532495
0.314636
0.492227
0.342205
0.299918
0.535173
0.534027
0.280675
0.334608
0.531557
0.39306
0.453912
0.301604
0.249754
0.549235
0.516907
0.544613
0.51399
0.463213
0.377307
0.454144
0.31788
0.533827
0.504957
0.495727
0.343533
0.381898
0.544962
0.498693
0.539751
0.137866
0.533979
0.322189
0.324032
0.332416
0.520514
0.522126
0.54126
0.472762
0.339522
0.534003
0.387578
0.546608
0.5477
0.493059
0.327842
0.314821
0.534505
0.339332
0.425456
0.475138
0.326594
0.340432
0.518061
0.543015
0.330397
0.533952
0.533177
0.323694
0.533985
0.535494
0.539068
0.351812
0.347489
0.542885
0.328521
0.336692
0.408525
0.534053
0.329053
0.377321
0.327319
0.298214
0.538793
0.331861
0.327725
0.54364
0.331157
0.326522
0.553458
0.538445
0.535059
0.533829
0.493557
0.333378
0.552081
0.533511
0.316955
0.537634
0.535415
0.533783
0.533747
0.351402
0.533917
0.337495
0.533878
0.323666
0.533953
0.33898
0.51916
0.316556
0.541307
0.545675
0.550697
0.485554
0.534425
0.537198
0.290096
0.534189
0.266516
0.533705
0.538672
0.329872
0.406565
0.339893
0.335453
0.533726
0.362574
0.533791
0.139515
0.505747
0.509477
0.540901
0.398367
0.338577
0.26959
0.325095
0.273535
0.537292
0.365391
0.319979
0.535323
0.341036
0.354873
0.533102
0.533447
0.501801
0.536426
0.256474
0.488053
0.31503
0.533788
0.534671
0.52534
0.296218
0.54108
0.536414
0.541984
0.498773
0.533895
0.383348
0.533917
0.540946
0.443598
0.534264
0.323535
0.519136
0.34788
0.421207
0.520559
0.491251
0.531179
0.475157
0.488212
0.537639
0.319288
0.524526
0.333358
0.336968
0.541456
0.513374
0.479444
0.52084
0.532497
0.533783
0.537734
0.533848
0.534321
0.53475
0.552623
0.351946
0.502335
0.531626
0.322326
0.534883
0.323307
0.472478
0.332917
0.534179
0.325986
0.32309
0.312658
0.470645
0.535333
0.429297
0.517166
0.332486
0.337305
0.533969
0.535783
0.333389
0.503259
0.446605
0.332879
0.504627
0.332951
0.320274
0.534716
0.48095
0.317415
0.519477
0.533551
0.524825
0.335651
0.516597
0.262401
0.53391
0.379182
0.510861
0.331533
0.548684
0.306642
0.334582
0.320132
0.516552
0.302813
0.498663
0.547235
0.471245
0.353121
0.314997
0.542644
0.314508
0.23756
0.334053
0.535868
0.319217
0.342339
0.268519
0.500401
0.339052
0.337301
0.334706
0.534096
0.549866
0.341612
0.539081
0.53834
0.496433
0.327106
0.319185
0.534684
0.320379
0.555212
0.329654
0.531911
0.323902
0.239253
0.515021
0.330569
0.328821
0.333705
0.534092
0.305272
0.446771
0.537997
0.319363
0.517115
0.331755
0.549772
0.419141
0.320266
0.337806
0.535328
0.441666
0.534293
0.320644
0.342831
0.440417
0.533733
0.319079
0.334975
0.329693
0.416696
0.537676
0.355801
0.450852
0.532017
0.534234
0.526764
0.333622
0.536653
0.322263
0.534849
0.53482
0.461395
0.337562
0.491534
0.538186
0.319592
0.53843
0.538914
0.335198
0.32804
0.320116
0.279584
0.543021
0.333604
0.534182
0.383587
0.533745
0.496088
0.374989
0.511791
0.306403
0.480672
0.328001
0.533844
0.533546
0.271946
0.3313
0.327511
0.466441
0.553252
0.32268
0.300538
0.339332
0.452443
0.547207
0.297972
0.324638
0.52653
0.537524
0.528443
0.333885
0.333851
0.524509
0.533849
0.319768
0.329213
0.438504
0.550166
0.493255
0.308467
0.534271
0.535338
0.315487
0.538811
0.331435
0.539998
0.313741
0.359971
0.31873
0.283328
0.533946
0.322969
0.330193
0.326757
0.341008
0.484474
0.530125
0.55013
0.319719
0.533725
0.536072
0.53545
0.547479
0.53384
0.548408
0.54928
0.549125
0.538798
0.533074
0.320827
0.488309
0.549947
0.326486
0.541423
0.545219
0.537169
0.535637
0.310828
0.54297
0.533836
0.537153
0.337355
0.506938
0.530453
0.534172
0.530351
0.326856
0.487593
0.350945
0.415182
0.340688
0.34076
0.323449
0.334986
0.534267
0.534033
0.523043
0.32465
0.534868
0.534003
0.537865
0.334501
0.335107
0.519665
0.309536
0.312822
0.335272
0.537176
0.420313
0.534792
0.33308
0.546777
0.533727
0.457889
0.539646
0.338295
0.550625
0.535865
0.513522
0.53978
0.534561
0.521455
0.328877
0.351374
0.336092
0.533869
0.31026
0.535142
0.521528
0.495855
0.336013
0.352883
0.484136
0.54221
0.533856
0.333033
0.526042
0.479503
0.270529
0.534209
0.323973
0.328589
0.326694
0.318571
0.338754
0.539963
0.536158
0.552723
0.444229
0.533683
0.533881
0.518484
0.534127
0.546996
0.549101
0.533789
0.533907
0.32905
0.533832
0.528622
0.42773
0.331742
0.504443
0.309403
0.537658
0.371312
0.539724
0.54617
0.33689
0.537042
0.328018
0.53606
0.532742
0.547717
0.490463
0.516745
0.546274
0.533814
0.351865
0.446256
0.423335
0.253816
0.534326
0.538548
0.444609
0.551245
0.527149
0.533963
0.322399
0.330015
0.528605
0.546764
0.319535
0.199781
0.515386
0.534652
0.535166
0.271496
0.457682
0.514068
0.533509
0.332856
0.534087
0.485301
0.526404
0.505911
0.440516
0.534521
0.3096
0.531807
0.319367
0.336449
0.534183
0.345469
0.346534
0.331662
0.526211
0.51118
0.443788
0.534333
0.431703
0.356903
0.324971
0.542897
0.532769
0.540443
0.49013
0.25416
0.523116
0.4336
0.319591
0.532758
0.540905
0.336829
0.536625
0.529783
0.533791
0.446639
0.533746
0.361655
0.534368
0.53159
0.53383
0.340938
0.52618
0.386846
0.509623
0.534148
0.545265
0.531083
0.534972
0.534817
0.533225
0.518742
0.325839
0.542546
0.511439
0.338466
0.496525
0.537197
0.551552
0.500108
0.319081
0.53179
0.337814
0.54646
0.490781
0.539133
0.329389
0.513986
0.534832
0.533932
0.526152
0.479405
0.533913
0.467355
0.387142
0.331617
0.276669
0.533786
0.347868
0.307808
0.537338
0.320539
0.544479
0.32607
0.536632
0.323471
0.329493
0.52182
0.396048
0.299521
0.53169
0.533466
0.538406
0.341041
0.507296
0.534507
0.532267
0.332403
0.533847
0.535271
0.330945
0.483115
0.463067
0.523816
0.34379
0.392372
0.511286
0.322323
0.538662
0.334496
0.3374
0.53386
0.386867
0.507893
0.324487
0.540315
0.425698
0.533852
0.229026
0.326705
0.533872
0.343392
0.533886
0.351741
0.534671
0.486234
0.467178
0.533906
0.503196
0.264315
0.535129
0.549396
0.532106
0.533883
0.326303
0.336327
0.322903
0.337524
0.533895
0.342146
0.514384
0.326218
0.533264
0.535146
0.533885
0.33572
0.534744
0.323308
0.535173
0.541979
0.35216
0.533938
0.526271
0.316574
0.522447
0.328486
0.353287
0.549774
0.332602
0.543863
0.225218
0.337456
0.513493
0.361327
0.539573
0.332469
0.462114
0.533298
0.530577
0.38651
0.275246
0.330239
0.533877
0.533827
0.340674
0.535627
0.324948
0.53313
0.331794
0.320344
0.468718
0.475454
0.420251
0.496656
0.534364
0.493008
0.474297
0.536668
0.533977
0.332351
0.535515
0.346906
0.344062
0.496718
0.407538
0.396183
0.44333
0.336574
0.515495
0.533955
0.537613
0.326518
0.320349
0.45165
0.506513
0.534766
0.546413
0.32282
0.500311
0.533317
0.50856
0.440882
0.332094
0.328977
0.333827
0.555276
0.537469
0.308405
0.325915
0.437452
0.332197
0.549909
0.513949
0.319912
0.53396
0.405313
0.541402
0.537112
0.32801
0.351576
0.507616
0.321154
0.39504
0.533324
0.275083
0.327481
0.335942
0.508815
0.536892
0.506464
0.339166
0.314951
0.529527
0.535244
0.495116
0.539303
0.320556
0.326894
0.337591
0.498707
0.327841
0.323561
0.538361
0.542448
0.515193
0.331134
0.333711
0.328908
0.534125
0.303029
0.533482
0.533848
0.530673
0.428967
0.534661
0.549757
0.332126
0.335866
0.535968
0.325845
0.466487
0.526583
0.54242
0.437849
0.327107
0.324706
0.542024
0.404096
0.31182
0.534947
0.534408
0.296794
0.332981
0.514149
0.443137
0.331962
0.338217
0.540902
0.491124
0.529587
0.475218
0.355075
0.327961
0.346948
0.381091
0.319627
0.533753
0.528968
0.470985
0.512313
0.349472
0.504534
0.352637
0.53355
0.546335
0.337498
0.265455
0.530299
0.385755
0.47327
0.535421
0.305855
0.531286
0.528716
0.533818
0.533947
0.507263
0.35187
0.339828
0.317735
0.511916
0.534065
0.514801
0.444615
0.335368
0.339854
0.493171
0.335638
0.53886
0.533827
0.533378
0.348059
0.330085
0.465439
0.507889
0.533805
0.527219
0.53428
0.534018
0.536239
0.482471
0.253462
0.533948
0.498436
0.535084
0.318521
0.530373
0.424584
0.52922
0.552635
0.446721
0.492498
0.532375
0.510021
0.533814
0.330937
0.532327
0.551616
0.348575
0.506264
0.306473
0.30541
0.533767
0.53414
0.337882
0.483982
0.533839
0.336156
0.350884
0.557568
0.550567
0.471912
0.35255
0.496383
0.330457
0.543394
0.549507
0.330099
0.455283
0.501137
0.327941
0.322235
0.347157
0.539593
0.532808
0.320839
0.344668
0.339462
0.342571
0.343224
0.502343
0.32908
0.551418
0.535455
0.542177
0.325147
0.533229
0.447256
0.532458
0.444043
0.529885
0.322366
0.30286
0.33504
0.534606
0.32806
0.335884
0.497691
0.338289
0.533899
0.507847
0.425857
0.320957
0.322958
0.523173
0.536348
0.528044
0.526167
0.543311
0.322043
0.348365
0.322855
0.510623
0.534999
0.333478
0.518378
0.340735
0.339244
0.534219
0.323011
0.347432
0.262899
0.371453
0.336923
0.534487
0.539122
0.538184
0.338479
0.533855
0.542774
0.333078
0.534485
0.376124
0.540523
0.351935
0.388385
0.533661
0.330279
0.270021
0.530147
0.525014
0.33229
0.546815
0.499304
0.533376
0.399447
0.322874
0.502008
0.534365
0.366304
0.36022
0.423492
0.399256
0.534198
0.331244
0.330523
0.541565
0.517097
0.339525
0.327212
0.5323
0.330041
0.344731
0.325831
0.455612
0.545407
0.322151
0.540504
0.323809
0.309892
0.352066
0.4062
0.338869
0.539912
0.326179
0.349741
0.481996
0.539163
0.355078
0.533885
0.32158
0.33155
0.510987
0.552937
0.524023
0.513934
0.519526
0.546601
0.330562
0.539534
0.309453
0.533838
0.527428
0.411505
0.525507
0.533993
0.534239
0.533915
0.43287
0.351173
0.430554
0.338147
0.503265
0.532845
0.496559
0.326445
0.536524
0.369247
0.533838
0.333222
0.308505
0.556983
0.305417
0.52939
0.552377
0.377682
0.338126
0.331944
0.533777
0.393768
0.271922
0.54107
0.332262
0.526348
0.34916
0.344215
0.320033
0.535567
0.391022
0.534059
0.335618
0.344406
0.534605
0.533008
0.283452
0.359278
0.269438
0.482274
0.334235
0.521428
0.531111
0.533904
0.238338
0.326314
0.451007
0.531654
0.548846
0.533021
0.302195
0.514421
0.537949
0.533929
0.533932
0.320654
0.522301
0.334938
0.450395
0.54313
0.537657
0.530387
0.545379
0.499001
0.532551
0.54459
0.5342
0.523077
0.536855
0.533989
0.535844
0.336183
0.332565
0.534388
0.476479
0.534019
0.533709
0.548784
0.52036
0.545666
0.338045
0.332478
0.533879
0.337569
0.331962
0.338125
0.53432
0.524239
0.534072
0.510544
0.523731
0.319776
0.538478
0.319898
0.321897
0.546183
0.526267
0.525162
0.399698
0.396552
0.332463
0.332874
0.38507
0.321498
0.358268
0.544635
0.31093
0.531765
0.337087
0.54016
0.533388
0.286508
0.346508
0.497832
0.533898
0.336821
0.509574
0.26913
0.317962
0.330098
0.449453
0.535337
0.533778
0.534263
0.24626
0.348191
0.274742
0.338105
0.533796
0.548036
0.53903
0.33886
0.321139
0.533845
0.533105
0.536852
0.30785
0.481526
0.466042
0.54381
0.430834
0.345118
0.3384
0.327873
0.536184
0.329074
0.337304
0.533814
0.35028
0.534327
0.351758
0.348705
0.399968
0.348965
0.546286
0.533846
0.534364
0.445629
0.554738
0.511039
0.476411
0.355212
0.508431
0.530766
0.510482
0.536808
0.533133
0.540244
0.425843
0.532963
0.535636
0.348948
0.33763
0.549563
0.401076
0.533789
0.332357
0.546675
0.365396
0.526638
0.534583
0.509118
0.533333
0.539687
0.515725
0.323494
0.341085
0.538311
0.54748
0.533558
0.43422
0.544891
0.447132
0.494985
0.533821
0.472908
0.464677
0.540976
0.53383
0.339601
0.319848
0.534624
0.502939
0.33172
0.344836
0.424169
0.533843
0.533719
0.551067
0.339793
0.525088
0.304736
0.537085
0.330722
0.545243
0.302392
0.549694
0.341205
0.532283
0.446173
0.333211
0.322097
0.471785
0.33245
0.485848
0.319402
0.534205
0.533802
0.530971
0.528694
0.534439
0.535484
0.533856
0.550399
0.541995
0.502429
0.516644
0.497016
0.53893
0.324596
0.501488
0.500364
0.532957
0.322426
0.498613
0.546026
0.533943
0.33783
0.325337
0.338946
0.544981
0.498761
0.328531
0.50101
0.391809
0.534124
0.313959
0.412811
0.354403
0.303651
0.553402
0.326002
0.509293
0.329243
0.551828
0.340548
0.534159
0.503414
0.529698
0.353623
0.349803
0.353661
0.516451
0.329358
0.351967
0.326354
0.541004
0.519568
0.545023
0.523797
0.531678
0.512081
0.383951
0.348919
0.53123
0.330256
0.448723
0.52764
0.550565
0.228596
0.337166
0.52351
0.533929
0.409676
0.525948
0.535713
0.519053
0.343409
0.543438
0.520681
0.53268
0.533761
0.324568
0.533778
0.328502
0.532451
0.542681
0.505482
0.533465
0.347583
0.537786
0.225608
0.36097
0.501074
0.50885
0.530126
0.452453
0.333275
0.532495
0.536386
0.325524
0.325922
0.305333
0.548894
0.340949
0.335395
0.331518
0.335751
0.319261
0.370018
0.543146
0.317258
0.540421
0.524493
0.330742
0.536418
0.328132
0.548432
0.318404
0.461882
0.328431
0.527821
0.53477
0.399614
0.498129
0.53439
0.521909
0.326475
0.48104
0.431181
0.319641
0.327002
0.406072
0.319795
0.545005
0.304606
0.336283
0.3239
0.533793
0.528829
0.318594
0.323454
0.545702
0.331568
0.332159
0.533945
0.33043
0.348399
0.346404
0.551967
0.504192
0.548014
0.331624
0.292081
0.538955
0.519016
0.533901
0.397209
0.508712
0.530312
0.415955
0.403572
0.32991
0.32912
0.238083
0.493724
0.322181
0.547224
0.513495
0.533558
0.338459
0.410972
0.420766
0.556992
0.302202
0.483411
0.242194
0.492781
0.325057
0.281353
0.295902
0.537909
0.318289
0.551423
0.349425
0.38091
0.331693
0.472789
0.317245
0.54407
0.346937
0.505026
0.488132
0.329976
0.534587
0.534582
0.336537
0.548355
0.353506
0.33243
0.542946
0.30463
0.516422
0.362629
0.238087
0.533716
0.323446
0.352661
0.350346
0.342664
0.32269
0.516214
0.436504
0.529426
0.547751
0.529233
0.543815
0.412147
0.538337
0.301273
0.534912
0.332791
0.526964
0.324568
0.38977
0.525782
0.549339
0.535625
0.354823
0.440872
0.33816
0.3484
0.351138
0.23435
0.537713
0.410873
0.547356
0.533725
0.485669
0.539881
0.53501
0.394522
0.342488
0.367141
0.54205
0.485518
0.50299
0.534456
0.552103
0.418202
0.28822