# vtk DataFile Version 1.0
unstructured grid
ascii
DATASET UNSTRUCTURED_GRID
points 3226 float
0.0796578 -0.059106 0
0.00128732 0.00159165 0
0.00227961 -0.00102548 0
0.0791586 -0.0598787 0
-0.0546216 0.01 0
0.000495206 0.025 0
0.0800549 -0.035 0
0.135172 -0.08 0
-0.0546216 -0.0451168 0
0.000495206 -0.0301168 0
0.0800549 -0.0901168 0
0.135172 -0.135117 0
-0.0546216 -0.0451168 -0.00551168
0.000495206 -0.0301168 -0.00551168
0.0800549 -0.0901168 -0.00551168
0.135172 -0.135117 -0.00551168
0.135172 -0.08 -0.00551168
0.0800549 -0.035 -0.00551168
0.000495206 0.025 -0.00551168
-0.0546216 0.01 -0.00551168
0.00128732 0.00159165 -0.00551168
0.00227961 -0.00102548 -0.00551168
0.0791586 -0.0598787 -0.00551168
0.0796578 -0.059106 -0.00551168
0.00110182 -0.000823821 0
0.000571683 -0.000188043 0
0.000561313 0.000639162 0
0.00189316 0.00207203 0
0.00260228 0.00255358 0
0.0033966 0.00307293 0
0.00428861 0.00362634 0
0.00529726 0.0041979 0
0.00644092 0.00476696 0
0.00773158 0.0053187 0
0.00918011 0.00583593 0
0.010799 0.00628751 0
0.012597 0.00663225 0
0.0145725 0.0068517 0
0.0167206 0.0069338 0
0.0190349 0.00685819 0
0.0215031 0.00658621 0
0.0241038 0.00607459 0
0.026821 0.00533786 0
0.0296245 0.00434523 0
0.0324763 0.00306927 0
0.0353199 0.00146906 0
0.0381488 -0.00039338 0
0.0409131 -0.00252802 0
0.0435632 -0.00493276 0
0.0460882 -0.0075571 0
0.0484881 -0.0103478 0
0.0506782 -0.0133217 0
0.0526651 -0.016422 0
0.0546139 -0.0195019 0
0.0565301 -0.022529 0
0.0584009 -0.0254846 0
0.0602154 -0.0283513 0
0.061964 -0.031114 0
0.0636389 -0.0337601 0
0.0652336 -0.0362795 0
0.0667431 -0.0386651 0
0.0681656 -0.0409111 0
0.0694983 -0.0430158 0
0.0707356 -0.0449823 0
0.071886 -0.0468071 0
0.0729575 -0.04849 0
0.0739438 -0.0500408 0
0.0748444 -0.0514675 0
0.0756707 -0.0527715 0
0.0764313 -0.053958 0
0.0771224 -0.0550398 0
0.0777384 -0.0560288 0
0.0782803 -0.0569318 0
0.0787691 -0.0577448 0
0.0792251 -0.0584672 0
0.0800494 -0.0597378 0
0.0797987 -0.0601582 0
0.0786655 -0.059391 0
0.0781259 -0.0588425 0
0.0775539 -0.0582102 0
0.0769587 -0.0574783 0
0.0763492 -0.0566339 0
0.075723 -0.0556725 0
0.0750452 -0.0546094 0
0.0742996 -0.0534457 0
0.073478 -0.0521785 0
0.072577 -0.0508019 0
0.0715904 -0.049313 0
0.0705098 -0.047712 0
0.069328 -0.0459996 0
0.0680378 -0.0441794 0
0.066632 -0.0422571 0
0.0651046 -0.0402413 0
0.0634508 -0.0381431 0
0.0616683 -0.0359754 0
0.0597581 -0.033753 0
0.0577255 -0.0314906 0
0.0555808 -0.0292024 0
0.0533388 -0.0269013 0
0.0510024 -0.0246151 0
0.0485693 -0.0223811 0
0.0460535 -0.0202228 0
0.0434788 -0.0181535 0
0.0408704 -0.0161833 0
0.0382442 -0.0143327 0
0.0356165 -0.0126209 0
0.0330065 -0.0110594 0
0.0304368 -0.00965062 0
0.0279338 -0.00838121 0
0.0255194 -0.00723697 0
0.0231965 -0.00623664 0
0.020983 -0.00535765 0
0.0188891 -0.00458677 0
0.0169193 -0.00391673 0
0.0150754 -0.00334068 0
0.0133572 -0.00285262 0
0.0117634 -0.0024437 0
0.0102912 -0.00210643 0
0.0089363 -0.00183343 0
0.00769424 -0.00161552 0
0.00655956 -0.00144452 0
0.00552632 -0.00131235 0
0.00458815 -0.00121216 0
0.00373885 -0.00113394 0
0.00297202 -0.00106855 0
-0.0506847 -0.0440454 0
-0.0467478 -0.0429739 0
-0.0428108 -0.0419025 0
-0.0388739 -0.0408311 0
-0.034937 -0.0397597 0
-0.0310001 -0.0386882 0
-0.0270632 -0.0376168 0
-0.0231263 -0.0365454 0
-0.0191894 -0.0354739 0
-0.0152525 -0.0344025 0
-0.0113155 -0.0333311 0
-0.00737862 -0.0322597 0
-0.00344171 -0.0311882 0
0.0038716 -0.0298185 0
0.00726082 -0.0297726 0
0.010644 -0.0299802 0
0.0140027 -0.0304367 0
0.0173201 -0.0311326 0
0.0205821 -0.0320541 0
0.0237776 -0.0331851 0
0.0268988 -0.0345078 0
0.0299406 -0.0360041 0
0.0329005 -0.0376567 0
0.035778 -0.039449 0
0.038574 -0.0413659 0
0.0412905 -0.043394 0
0.0439303 -0.0455212 0
0.0464964 -0.0477367 0
0.0489922 -0.0500312 0
0.051421 -0.0523964 0
0.0537863 -0.0548252 0
0.0560914 -0.0573112 0
0.0583395 -0.0598489 0
0.0605336 -0.0624334 0
0.0626765 -0.0650605 0
0.064771 -0.0677264 0
0.0668197 -0.0704277 0
0.0688248 -0.0731615 0
0.0707885 -0.0759252 0
0.072713 -0.0787163 0
0.0746002 -0.0815329 0
0.0764517 -0.0843729 0
0.0782695 -0.0872347 0
0.0829558 -0.0924852 0
0.0858567 -0.0948536 0
0.0887575 -0.0972221 0
0.0916584 -0.0995905 0
0.0945593 -0.101959 0
0.0974602 -0.104327 0
0.100361 -0.106696 0
0.103262 -0.109064 0
0.106163 -0.111433 0
0.109064 -0.113801 0
0.111965 -0.116169 0
0.114865 -0.118538 0
0.117766 -0.120906 0
0.120667 -0.123275 0
0.123568 -0.125643 0
0.126469 -0.128012 0
0.12937 -0.13038 0
0.132271 -0.132748 0
0.135172 -0.13118 0
0.135172 -0.127243 0
0.135172 -0.123306 0
0.135172 -0.119369 0
0.135172 -0.115432 0
0.135172 -0.111495 0
0.135172 -0.107558 0
0.135172 -0.103621 0
0.135172 -0.0996846 0
0.135172 -0.0957477 0
0.135172 -0.0918107 0
0.135172 -0.0878738 0
0.135172 -0.0839369 0
0.132271 -0.0776316 0
0.12937 -0.0752632 0
0.126469 -0.0728947 0
0.123568 -0.0705263 0
0.120667 -0.0681579 0
0.117766 -0.0657895 0
0.114865 -0.0634211 0
0.111965 -0.0610526 0
0.109064 -0.0586842 0
0.106163 -0.0563158 0
0.103262 -0.0539474 0
0.100361 -0.0515789 0
0.0974602 -0.0492105 0
0.0945593 -0.0468421 0
0.0916584 -0.0444737 0
0.0887575 -0.0421053 0
0.0858567 -0.0397368 0
0.0829558 -0.0373684 0
0.0782695 -0.0321179 0
0.0764517 -0.0292561 0
0.0746002 -0.026416 0
0.072713 -0.0235995 0
0.0707885 -0.0208084 0
0.0688248 -0.0180447 0
0.0668197 -0.0153109 0
0.064771 -0.0126096 0
0.0626765 -0.00994373 0
0.0605336 -0.00731663 0
0.0583395 -0.00473208 0
0.0560914 -0.00219437 0
0.0537863 0.000291632 0
0.051421 0.00272041 0
0.0489922 0.00508564 0
0.0464964 0.00738012 0
0.0439303 0.00959562 0
0.0412905 0.0117228 0
0.038574 0.0137509 0
0.035778 0.0156678 0
0.0329005 0.0174601 0
0.0299406 0.0191127 0
0.0268988 0.020609 0
0.0237776 0.0219317 0
0.0205821 0.0230627 0
0.0173201 0.0239842 0
0.0140027 0.0246801 0
0.010644 0.0251366 0
0.00726082 0.0253442 0
0.0038716 0.0252983 0
-0.00344171 0.0239286 0
-0.00737862 0.0228571 0
-0.0113155 0.0217857 0
-0.0152525 0.0207143 0
-0.0191894 0.0196429 0
-0.0231263 0.0185714 0
-0.0270632 0.0175 0
-0.0310001 0.0164286 0
-0.034937 0.0153571 0
-0.0388739 0.0142857 0
-0.0428108 0.0132143 0
-0.0467478 0.0121429 0
-0.0506847 0.0110714 0
-0.0546216 0.00606309 0
-0.0546216 0.00212617 0
-0.0546216 -0.00181074 0
-0.0546216 -0.00574766 0
-0.0546216 -0.00968457 0
-0.0546216 -0.0136215 0
-0.0546216 -0.0175584 0
-0.0546216 -0.0214953 0
-0.0546216 -0.0254322 0
-0.0546216 -0.0293691 0
-0.0546216 -0.0333061 0
-0.0546216 -0.037243 0
-0.0546216 -0.0411799 0
-0.0506847 -0.0440454 -0.00551168
-0.0467478 -0.0429739 -0.00551168
-0.0428108 -0.0419025 -0.00551168
-0.0388739 -0.0408311 -0.00551168
-0.034937 -0.0397597 -0.00551168
-0.0310001 -0.0386882 -0.00551168
-0.0270632 -0.0376168 -0.00551168
-0.0231263 -0.0365454 -0.00551168
-0.0191894 -0.0354739 -0.00551168
-0.0152525 -0.0344025 -0.00551168
-0.0113155 -0.0333311 -0.00551168
-0.00737862 -0.0322597 -0.00551168
-0.00344171 -0.0311882 -0.00551168
0.0038716 -0.0298185 -0.00551168
0.00726082 -0.0297726 -0.00551168
0.010644 -0.0299802 -0.00551168
0.0140027 -0.0304367 -0.00551168
0.0173201 -0.0311326 -0.00551168
0.0205821 -0.0320541 -0.00551168
0.0237776 -0.0331851 -0.00551168
0.0268988 -0.0345078 -0.00551168
0.0299406 -0.0360041 -0.00551168
0.0329005 -0.0376567 -0.00551168
0.035778 -0.039449 -0.00551168
0.038574 -0.0413659 -0.00551168
0.0412905 -0.043394 -0.00551168
0.0439303 -0.0455212 -0.00551168
0.0464964 -0.0477367 -0.00551168
0.0489922 -0.0500312 -0.00551168
0.051421 -0.0523964 -0.00551168
0.0537863 -0.0548252 -0.00551168
0.0560914 -0.0573112 -0.00551168
0.0583395 -0.0598489 -0.00551168
0.0605336 -0.0624334 -0.00551168
0.0626765 -0.0650605 -0.00551168
0.064771 -0.0677264 -0.00551168
0.0668197 -0.0704277 -0.00551168
0.0688248 -0.0731615 -0.00551168
0.0707885 -0.0759252 -0.00551168
0.072713 -0.0787163 -0.00551168
0.0746002 -0.0815329 -0.00551168
0.0764517 -0.0843729 -0.00551168
0.0782695 -0.0872347 -0.00551168
0.0829558 -0.0924852 -0.00551168
0.0858567 -0.0948536 -0.00551168
0.0887575 -0.0972221 -0.00551168
0.0916584 -0.0995905 -0.00551168
0.0945593 -0.101959 -0.00551168
0.0974602 -0.104327 -0.00551168
0.100361 -0.106696 -0.00551168
0.103262 -0.109064 -0.00551168
0.106163 -0.111433 -0.00551168
0.109064 -0.113801 -0.00551168
0.111965 -0.116169 -0.00551168
0.114865 -0.118538 -0.00551168
0.117766 -0.120906 -0.00551168
0.120667 -0.123275 -0.00551168
0.123568 -0.125643 -0.00551168
0.126469 -0.128012 -0.00551168
0.12937 -0.13038 -0.00551168
0.132271 -0.132748 -0.00551168
0.135172 -0.13118 -0.00551168
0.135172 -0.127243 -0.00551168
0.135172 -0.123306 -0.00551168
0.135172 -0.119369 -0.00551168
0.135172 -0.115432 -0.00551168
0.135172 -0.111495 -0.00551168
0.135172 -0.107558 -0.00551168
0.135172 -0.103621 -0.00551168
0.135172 -0.0996846 -0.00551168
0.135172 -0.0957477 -0.00551168
0.135172 -0.0918107 -0.00551168
0.135172 -0.0878738 -0.00551168
0.135172 -0.0839369 -0.00551168
0.132271 -0.0776316 -0.00551168
0.12937 -0.0752632 -0.00551168
0.126469 -0.0728947 -0.00551168
0.123568 -0.0705263 -0.00551168
0.120667 -0.0681579 -0.00551168
0.117766 -0.0657895 -0.00551168
0.114865 -0.0634211 -0.00551168
0.111965 -0.0610526 -0.00551168
0.109064 -0.0586842 -0.00551168
0.106163 -0.0563158 -0.00551168
0.103262 -0.0539474 -0.00551168
0.100361 -0.0515789 -0.00551168
0.0974602 -0.0492105 -0.00551168
0.0945593 -0.0468421 -0.00551168
0.0916584 -0.0444737 -0.00551168
0.0887575 -0.0421053 -0.00551168
0.0858567 -0.0397368 -0.00551168
0.0829558 -0.0373684 -0.00551168
0.0782695 -0.0321179 -0.00551168
0.0764517 -0.0292561 -0.00551168
0.0746002 -0.026416 -0.00551168
0.072713 -0.0235995 -0.00551168
0.0707885 -0.0208084 -0.00551168
0.0688248 -0.0180447 -0.00551168
0.0668197 -0.0153109 -0.00551168
0.064771 -0.0126096 -0.00551168
0.0626765 -0.00994373 -0.00551168
0.0605336 -0.00731663 -0.00551168
0.0583395 -0.00473208 -0.00551168
0.0560914 -0.00219437 -0.00551168
0.0537863 0.000291632 -0.00551168
0.051421 0.00272041 -0.00551168
0.0489922 0.00508564 -0.00551168
0.0464964 0.00738012 -0.00551168
0.0439303 0.00959562 -0.00551168
0.0412905 0.0117228 -0.00551168
[...]
CELL_DATA 2965
SCALARS rho float
LOOKUP_TABLE default
0.534631
0.332408
0.520233
0.324916
0.538125
0.332878
0.535762
0.333458
0.333861
0.521275
0.325021
0.323309
0.422516
0.534584
0.513515
0.513507
0.523531
0.514934
0.54111
0.525212
0.534662
0.32108
0.508043
0.53478
0.531189
0.544172
0.453562
0.478154
0.328966
0.500203
0.497266
0.323501
0.548448
0.524997
0.278417
0.333094
0.524853
0.529145
0.309428
0.50083
0.525842
0.498389
0.533655
0.332068
0.328214
0.532083
0.455548
0.469833
0.306739
0.53523
0.385446
0.318747
0.330257
0.42049
0.325017
0.415526
0.332735
0.318695
0.269151
0.472912
0.511405
0.475497
0.325249
0.540052
0.485636
0.532792
0.535859
0.321991
0.304886
0.318406
0.51664
0.54021
0.535857
0.293085
0.495555
0.406321
0.534886
0.318683
0.32738
0.463526
0.53618
0.324248
0.323385
0.431312
0.480688
0.370043
0.313272
0.267845
0.549631
0.333001
0.309152
0.532158
0.515268
0.509329
0.53312
0.308494
0.454699
0.29279
0.319488
0.331211
0.471182
0.330017
0.323392
0.327247
0.31723
0.526636
0.534823
0.320264
0.317727
0.53519
0.245444
0.388472
0.465336
0.492181
0.305847
0.305996
0.505185
0.451791
0.535025
0.333622
0.536268
0.236342
0.537418
0.537481
0.492443
0.395634
0.321566
0.457608
0.526836
0.264874
0.324637
0.422899
0.52796
0.323331
0.455332
0.321124
0.423884
0.514027
0.549873
0.538194
0.322658
0.512728
0.523865
0.329391
0.275347
0.54152
0.319155
0.537296
0.55028
0.32989
0.336811
0.331083
0.322839
0.3217
0.278765
0.265142
0.535561
0.527188
0.523364
0.537032
0.448615
0.457532
0.402712
0.53839
0.332744
0.535795
0.412453
0.332456
0.535307
0.534338
0.47671
0.294212
0.428721
0.516022
0.542932
0.41116
0.506757
0.354808
0.258667
0.41207
0.328861
0.258059
0.307863
0.297939
0.550534
0.535771
0.3315
0.324815
0.384536
0.344697
0.310165
0.320837
0.448354
0.289825
0.535728
0.45852
0.530102
0.484147
0.435337
0.32583
0.332808
0.3161
0.526382
0.441132
0.53608
0.305411
0.423517
0.535666
0.517895
0.531728
0.494307
0.393326
0.333489
0.330132
0.502268
0.336333
0.457324
0.316294
0.513798
0.346067
0.333901
0.324308
0.454312
0.377561
0.542355
0.28359
0.536192
0.517799
0.32094
0.475204
0.328441
0.281925
0.534276
0.309814
0.532863
0.534311
0.330692
0.526237
0.335633
0.347784
0.36877
0.337147
0.539828
0.517895
0.322429
0.247371
0.522008
0.534091
0.443599
0.502069
0.328894
0.328612
0.535562
0.322686
0.480973
0.273296
0.274924
0.535102
0.532902
0.315753
0.462457
0.324055
0.539792
0.332887
0.530176
0.535123
0.26382
0.467519
0.516031
0.298195
0.337078
0.531679
0.335803
0.546507
0.506099
0.334726
0.513046
0.510993
0.547734
0.529883
0.541998
0.467464
0.526696
0.534033
0.320984
0.310905
0.521404
0.536944
0.325042
0.529274
0.457412
0.320545
0.323949
0.329191
0.472466
0.319369
0.534803
0.475361
0.546293
0.33914
0.478458
0.483023
0.472341
0.533152
0.328941
0.234074
0.541346
0.535286
0.534912
0.317865
0.323917
0.477484
0.296156
0.297422
0.491111
0.536222
0.483216
0.243941
0.336197
0.478809
0.492959
0.330889
0.534074
0.536047
0.322441
0.412563
0.532601
0.509952
0.283812
0.333743
0.534797
0.327759
0.53379
0.36028
0.537256
0.38735
0.366002
0.334044
0.322587
0.301637
0.509696
0.544242
0.523842
0.538402
0.482911
0.468735
0.306969
0.533533
0.542656
0.315354
0.319956
0.534659
0.314752
0.514284
0.471554
0.316114
0.327386
0.323395
0.326603
0.536099
0.32065
0.326276
0.375266
0.331667
0.532162
0.533621
0.467095
0.535114
0.337662
0.529071
0.327629
0.53469
0.32167
0.335079
0.533112
0.461864
0.283115
0.254973
0.530541
0.357325
0.495672
0.510805
0.322499
0.528771
0.276011
0.329873
0.534201
0.29894
0.533869
0.271353
0.37536
0.333389
0.533704
0.463823
0.429534
0.533902
0.294012
0.542024
0.338732
0.308556
0.544758
0.315692
0.535582
0.41648
0.483505
0.273965
0.294916
0.30949
0.274419
0.310218
0.329096
0.525301
0.533316
0.53378
0.535304
0.319491
0.534331
0.461025
0.518127
0.252546
0.532889
0.333049
0.482533
0.474509
0.314751
0.535792
0.351658
0.517707
0.325034
0.484221
0.531325
0.313947
0.530596
0.255475
0.534762
0.324676
0.318305
0.411143
0.538863
0.537169
0.396237
0.277018
0.247738
0.412337
0.538397
0.525575
0.53213
0.529425
0.535027
0.316937
0.508848
0.481348
0.312408
0.265813
0.300107
0.492981
0.534339
0.361647
0.376074
0.366706
0.330086
0.526453
0.533761
0.535398
0.54451
0.393716
0.533554
0.534084
0.329474
0.536158
0.343193
0.348017
0.529439
0.533944
0.53357
0.541082
0.333014
0.312599
0.548581
0.527822
0.335582
0.527766
0.496146
0.533902
0.333173
0.310448
0.5342
0.337686
0.44872
0.533899
0.534301
0.315328
0.532463
0.33582
0.333754
0.323076
0.343273
0.532668
0.359294
0.514857
0.278255
0.324694
0.524499
0.336906
0.286766
0.314806
0.272775
0.355113
0.312628
0.329313
0.4222
0.433502
0.320598
0.33241
0.533898
0.336405
0.391688
0.53278
0.533837
0.493603
0.488699
0.434964
0.439673
0.295873
0.369302
0.533204
0.495635
0.279434
0.50544
0.241244
0.28761
0.314
0.530303
0.547289
0.314449
0.495835
0.530451
0.279509
0.317347
0.53702
0.535319
0.35633
0.538729
0.37678
0.316167
0.537
0.313726
0.450089
0.522394
0.404386
0.538343
0.317239
0.31965
0.535197
0.365737
0.335133
0.333518
0.324516
0.325793
0.533764
0.536562
0.520899
0.318198
0.253818
0.323271
0.314111
0.528215
0.280773
0.420118
0.312749
0.529704
0.53117
0.304638
0.535336
0.386381
0.489374
0.293445
0.525568
0.528597
0.549933
0.530089
0.535117
0.524013
0.333746
0.423017
0.323857
0.523048
0.31371
0.318415
0.531319
0.534651
0.533129
0.336086
0.326709
0.536539
0.537466
0.303755
0.533177
0.298158
0.304825
0.331466
0.548578
0.535933
0.517889
0.295582
0.295116
0.331987
0.330428
0.53541
0.535696
0.541849
0.334256
0.314612
0.452165
0.542792
0.539015
0.507683
0.535342
0.407877
0.532495
0.538197
0.515019
0.329373
0.533178
0.49197
0.535855
0.534426
0.541155
0.485208
0.376011
0.542879
0.323021
0.540353
0.534687
0.233785
0.535715
0.458213
0.532497
0.312369
0.329407
0.533928
0.297993
0.314825
0.544381
0.297818
0.411176
0.533462
0.286814
0.542611
0.325719
0.487247
0.531875
0.525903
0.500433
0.324743
0.329482
0.517618
0.434323
0.333296
0.475311
0.310782
0.53477
0.332346
0.45552
0.516914
0.535469
0.323668
0.488319
0.332254
0.404333
0.410857
0.320849
0.274421
0.340065
0.534937
0.453671
0.431383
0.311634
0.53511
0.48803
0.3123
0.534999
0.332386
0.452808
0.514221
0.536223
0.535238
0.292375
0.327422
0.535042
0.541355
0.517735
0.487441
0.538483
0.475806
0.461634
0.315517
0.497993
0.383744
0.342388
0.355811
0.535232
0.545095
0.506931
0.389251
0.33562
0.536709
0.322402
0.329694
0.399779
0.322426
0.451686
0.332856
0.535832
0.331666
0.307181
0.410076
0.541432
0.333079
0.304882
0.544572
0.540507
0.547185
0.323249
0.303098
0.535052
0.332028
0.303196
0.323554
0.43109
0.522983
0.264879
0.546177
0.335099
0.501309
0.53264
0.317383
0.40581
0.473273
0.496865
0.493941
0.538055
0.535958
0.541184
0.530339
0.536136
0.318625
0.378665
0.519457
0.292609
0.540046
0.521215
0.261975
0.530088
0.474398
0.511241
0.534672
0.469192
0.527301
0.310209
0.489033
0.322495
0.298874
0.533463
0.535018
0.280759
0.32342
0.528454
0.388744
0.451547
0.303949
0.246922
0.544088
0.512171
0.540919
0.51173
0.462134
0.373099
0.449465
0.315327
0.535977
0.501464
0.49276
0.33086
0.377045
0.540785
0.495644
0.536763
0.136301
0.5353
0.31846
0.325562
0.336617
0.517682
0.519636
0.536406
0.466946
0.318721
0.534933
0.382561
0.541434
0.543355
0.490332
0.329296
0.316507
0.533927
0.322454
0.420483
0.472829
0.316379
0.329337
0.512539
0.537678
0.342667
0.535483
0.531952
0.324318
0.535354
0.533781
0.535215
0.33574
0.333023
0.537396
0.325957
0.32369
0.403365
0.534432
0.323767
0.372591
0.314258
0.294561
0.533588
0.328733
0.330133
0.540084
0.334865
0.323105
0.548906
0.534517
0.53039
0.535285
0.491535
0.323162
0.547366
0.532531
0.319649
0.534585
0.532367
0.535878
0.536118
0.335706
0.535207
0.322427
0.535465
0.323904
0.534739
0.317802
0.513933
0.319369
0.535974
0.541553
0.545975
0.480223
0.534051
0.534778
0.284559
0.533288
0.266452
0.53623
0.535822
0.330956
0.401352
0.313718
0.335398
0.536121
0.358694
0.532273
0.138014
0.500957
0.506502
0.536636
0.394641
0.321751
0.271678
0.328916
0.26925
0.532821
0.361358
0.321776
0.534007
0.313955
0.351752
0.53091
0.531139
0.498943
0.531907
0.253868
0.482112
0.318782
0.536142
0.533966
0.519403
0.290473
0.536162
0.531755
0.538044
0.496452
0.529223
0.378271
0.534635
0.535461
0.441257
0.534583
0.31272
0.514137
0.33278
0.418816
0.516917
0.485982
0.528855
0.469869
0.483082
0.535214
0.313064
0.521782
0.337446
0.323568
0.535883
0.509461
0.477516
0.514973
0.527137
0.536142
0.534074
0.535939
0.53402
0.533175
0.547761
0.332333
0.499911
0.529296
0.320906
0.529552
0.319734
0.467397
0.311893
0.534109
0.324978
0.325692
0.305202
0.468605
0.534038
0.423697
0.512024
0.31178
0.323733
0.53426
0.53283
0.324702
0.501377
0.440763
0.312349
0.502636
0.324211
0.32138
0.53042
0.476312
0.313605
0.516457
0.531247
0.522295
0.344275
0.514173
0.263961
0.534902
0.375311
0.505481
0.328749
0.543969
0.302019
0.329681
0.322338
0.514144
0.304212
0.496826
0.542148
0.468897
0.333038
0.318741
0.539167
0.316514
0.234793
0.343498
0.534064
0.316635
0.318188
0.263488
0.4949
0.31763
0.324195
0.320083
0.532866
0.545643
0.337271
0.536308
0.535615
0.493109
0.325871
0.316667
0.529082
0.323415
0.550497
0.324991
0.529237
0.323672
0.232278
0.511484
0.334243
0.32798
0.340229
0.534869
0.304389
0.443208
0.53264
0.314841
0.512135
0.331038
0.544715
0.414018
0.323336
0.322353
0.533751
0.43589
0.533778
0.322358
0.32299
0.437778
0.536249
0.310291
0.311545
0.332593
0.411456
0.53248
0.331657
0.448319
0.530041
0.534044
0.524191
0.338171
0.531025
0.320827
0.53254
0.5334
0.459587
0.321466
0.490024
0.534063
0.322621
0.535197
0.533388
0.323532
0.330782
0.321143
0.28328
0.539514
0.341573
0.533372
0.37913
0.536123
0.490717
0.370035
0.508218
0.302524
0.477346
0.333919
0.534183
0.532597
0.271422
0.325432
0.317983
0.461233
0.5484
0.319304
0.296287
0.323032
0.446642
0.542764
0.29256
0.327944
0.523684
0.531851
0.525435
0.338457
0.318541
0.52148
0.534179
0.318611
0.31951
0.434592
0.545424
0.491633
0.305336
0.534039
0.533974
0.313641
0.536045
0.329165
0.534352
0.309974
0.355124
0.31387
0.279624
0.532553
0.32018
0.33171
0.323414
0.314804
0.482863
0.524869
0.54526
0.320419
0.536081
0.53238
0.533564
0.542229
0.533327
0.543821
0.544189
0.543926
0.533754
0.531803
0.314079
0.484858
0.545691
0.324708
0.53621
0.540889
0.534915
0.534072
0.306023
0.537831
0.535938
0.533652
0.324634
0.504924
0.528297
0.533571
0.525386
0.326451
0.481654
0.331108
0.409759
0.317004
0.317488
0.314583
0.340827
0.534429
0.528538
0.519274
0.326259
0.534024
0.535257
0.535369
0.336566
0.32287
0.516996
0.303485
0.308803
0.312435
0.532297
0.415985
0.533944
0.311659
0.541906
0.531584
0.456056
0.534633
0.318039
0.546053
0.534117
0.510604
0.536606
0.532083
0.515446
0.329408
0.335508
0.322468
0.5341
0.30666
0.529673
0.51887
0.494267
0.326755
0.332409
0.478493
0.538732
0.535063
0.324244
0.523437
0.473522
0.267878
0.534685
0.332057
0.328013
0.312734
0.31552
0.313424
0.536846
0.532967
0.548109
0.44037
0.528366
0.533701
0.516059
0.534741
0.542384
0.544101
0.53384
0.534106
0.329079
0.535303
0.526251
0.422149
0.334772
0.501404
0.304582
0.535161
0.368928
0.534555
0.540954
0.327101
0.531274
0.327906
0.531567
0.529964
0.542518
0.484635
0.513167
0.540889
0.5336
0.333014
0.440435
0.418367
0.251955
0.534458
0.535867
0.441099
0.54629
0.524622
0.534534
0.318609
0.33236
0.522908
0.542289
0.315534
0.195375
0.513062
0.532516
0.533853
0.268734
0.45616
0.510841
0.528878
0.336736
0.534624
0.479501
0.520605
0.499962
0.437046
0.532399
0.304868
0.527986
0.314063
0.312396
0.534562
0.342198
0.343736
0.333928
0.52211
0.509011
0.441012
0.533372
0.428602
0.340315
0.324759
0.53925
0.531287
0.535107
0.484547
0.250885
0.519891
0.428008
0.316164
0.531204
0.537403
0.335053
0.534473
0.527091
0.535682
0.442491
0.533614
0.357049
0.534239
0.529082
0.532928
0.313907
0.520474
0.383959
0.504784
0.531649
0.541152
0.529052
0.533302
0.534029
0.531555
0.515849
0.327657
0.537701
0.505737
0.323227
0.4908
0.534921
0.546877
0.498339
0.316567
0.526818
0.325103
0.541168
0.487272
0.535926
0.328737
0.510221
0.532724
0.535354
0.521205
0.477922
0.535574
0.464449
0.38238
0.334378
0.27306
0.53565
0.333667
0.311861
0.532334
0.318953
0.539612
0.307055
0.534013
0.320616
0.32984
0.518518
0.391131
0.295359
0.528515
0.532625
0.535509
0.313864
0.505279
0.532198
0.530058
0.336311
0.53578
0.532821
0.335987
0.479508
0.460136
0.520098
0.318727
0.387189
0.50525
0.312826
0.53332
0.322979
0.326332
0.534733
0.38212
0.504549
0.333922
0.537027
0.422762
0.535807
0.224341
0.323457
0.534845
0.332419
0.535756
0.332474
0.534101
0.48492
0.462659
0.535685
0.498458
0.263795
0.533941
0.544586
0.529981
0.535534
0.321029
0.321757
0.31329
0.326388
0.534615
0.329312
0.509311
0.325953
0.528974
0.531187
0.534104
0.349682
0.534098
0.321519
0.532499
0.538385
0.341168
0.533303
0.523134
0.312885
0.519877
0.312331
0.332908
0.545169
0.33147
0.540261
0.222797
0.335541
0.510104
0.350584
0.533938
0.332848
0.457705
0.532248
0.528309
0.382019
0.27374
0.325986
0.535421
0.536027
0.336153
0.532997
0.326333
0.530698
0.334333
0.318781
0.465424
0.469946
0.415481
0.495143
0.533193
0.487134
0.471222
0.532656
0.534152
0.323482
0.532275
0.318037
0.327076
0.494614
0.402501
0.390906
0.437642
0.335682
0.513125
0.535438
0.53464
0.325761
0.318935
0.449971
0.501451
0.532963
0.542089
0.321491
0.495765
0.529301
0.506497
0.435285
0.338966
0.331983
0.324252
0.550525
0.534634
0.31111
0.322106
0.431911
0.336104
0.545086
0.508481
0.316005
0.534461
0.400156
0.536682
0.534356
0.331154
0.335624
0.503849
0.31751
0.38982
0.532165
0.27223
0.330052
0.341174
0.503138
0.531628
0.500923
0.317495
0.310886
0.523812
0.534023
0.492831
0.536341
0.326481
0.323762
0.3328
0.493976
0.30849
0.318821
0.535053
0.536879
0.509548
0.328214
0.323495
0.325338
0.534008
0.304419
0.52906
0.535585
0.528335
0.424393
0.531821
0.545195
0.328248
0.345751
0.533835
0.31538
0.460626
0.523894
0.538007
0.432053
0.308217
0.314303
0.538688
0.398842
0.313678
0.531141
0.532668
0.293359
0.346923
0.508881
0.438753
0.334125
0.318317
0.536433
0.485703
0.526854
0.474085
0.350621
0.316628
0.328589
0.376881
0.31521
0.536272
0.526594
0.46761
0.509142
0.330375
0.502096
0.333837
0.53277
0.541596
0.324597
0.262001
0.526458
0.380831
0.467903
0.533804
0.300967
0.529142
0.523472
0.533889
0.535454
0.504988
0.335843
0.312371
0.31368
0.505782
0.533644
0.512503
0.43999
0.336403
0.312772
0.488629
0.328693
0.535262
0.533864
0.531339
0.343558
0.333237
0.459587
0.50578
0.536159
0.52461
0.53446
0.534211
0.534365
0.481097
0.250052
0.53503
0.496466
0.532233
0.315277
0.526861
0.419879
0.526549
0.547926
0.441371
0.487508
0.528146
0.505346
0.535938
0.333627
0.529731
0.54667
0.331199
0.504292
0.302879
0.301086
0.536281
0.533761
0.321989
0.479203
0.53388
0.326575
0.331081
0.552885
0.545541
0.467097
0.34129
0.491202
0.332385
0.539252
0.544582
0.341826
0.452497
0.496188
0.329562
0.321833
0.330841
0.536214
0.52953
0.32421
0.317212
0.336888
0.329717
0.328915
0.500446
0.332652
0.546508
0.533311
0.538776
0.322592
0.531798
0.445407
0.528727
0.438587
0.527592
0.31899
0.299011
0.335999
0.531099
0.324618
0.348327
0.496035
0.32284
0.535708
0.501963
0.42165
0.320433
0.323563
0.520637
0.534059
0.525638
0.5233
0.539471
0.32929
0.336202
0.314602
0.504769
0.533992
0.344557
0.515929
0.31361
0.336618
0.534331
0.317996
0.332162
0.264775
0.36741
0.326707
0.534241
0.535354
0.535479
0.334279
0.533578
0.539193
0.347524
0.534157
0.371059
0.535883
0.335939
0.383376
0.533072
0.334029
0.268171
0.527888
0.518938
0.342194
0.541734
0.493344
0.531789
0.394394
0.314698
0.4989
0.532613
0.362508
0.34415
0.42028
0.396448
0.53445
0.326991
0.334418
0.53748
0.514218
0.323155
0.338181
0.52786
0.333692
0.321916
0.323163
0.449905
0.540434
0.31991
0.537171
0.324879
0.304071
0.333375
0.403132
0.322691
0.536748
0.3237
0.33184
0.476122
0.535786
0.351109
0.535089
0.327392
0.330757
0.508578
0.548103
0.519114
0.507893
0.517049
0.542664
0.331322
0.535907
0.304673
0.535405
0.522882
0.406147
0.52034
0.534818
0.532402
0.5336
0.42925
0.33173
0.424879
0.323702
0.501419
0.530251
0.491653
0.328051
0.533731
0.364254
0.535453
0.336562
0.31257
0.552117
0.300866
0.525613
0.547585
0.374572
0.32257
0.330881
0.53341
0.390723
0.275256
0.537787
0.33185
0.521978
0.333402
0.325065
0.316435
0.533494
0.38718
0.534818
0.349627
0.330196
0.531465
0.531058
0.279775
0.355526
0.269354
0.476316
0.333587
0.515696
0.528162
0.535137
0.235678
0.325892
0.446259
0.525657
0.543811
0.531606
0.297438
0.511933
0.534922
0.534876
0.535421
0.318554
0.519777
0.333071
0.448159
0.539513
0.53455
0.528162
0.539993
0.497317
0.530444
0.540815
0.530457
0.52057
0.534262
0.533127
0.534169
0.342326
0.332389
0.534362
0.47299
0.534994
0.536194
0.543958
0.514774
0.54101
0.324217
0.336251
0.535772
0.346601
0.334924
0.321353
0.532248
0.519099
0.534082
0.508421
0.521176
0.32349
0.533621
0.323875
0.321553
0.5421
0.523752
0.521634
0.394427
0.39132
0.323415
0.336187
0.38078
0.315448
0.355044
0.540301
0.303489
0.528201
0.327869
0.535642
0.531605
0.286563
0.331458
0.496251
0.535613
0.335195
0.505739
0.264736
0.316185
0.330818
0.443798
0.533526
0.536289
0.534566
0.243565
0.329936
0.269744
0.320856
0.535943
0.542777
0.535963
0.323282
0.325509
0.534333
0.531366
0.534118
0.302514
0.478744
0.460082
0.539704
0.425172
0.328074
0.334572
0.310478
0.533715
0.329167
0.345673
0.53579
0.33125
0.534382
0.332841
0.336751
0.394673
0.330294
0.541171
0.535933
0.534425
0.439741
0.550131
0.50685
0.475126
0.329273
0.503418
0.526222
0.505247
0.534664
0.531196
0.535921
0.420309
0.53128
0.534087
0.320584
0.326442
0.545311
0.396411
0.532067
0.323466
0.541966
0.354969
0.523346
0.534189
0.505061
0.53201
0.53477
0.512936
0.314465
0.315108
0.532504
0.542788
0.532456
0.429513
0.54023
0.444318
0.488986
0.533942
0.468283
0.4625
0.536915
0.535516
0.32155
0.324549
0.534047
0.497797
0.332593
0.329556
0.418597
0.535994
0.536237
0.546227
0.326709
0.521858
0.299822
0.534571
0.332085
0.539889
0.300799
0.545215
0.330714
0.526357
0.440584
0.336139
0.31182
0.46738
0.323677
0.484369
0.316215
0.534321
0.536187
0.526538
0.525563
0.532859
0.531733
0.534395
0.545322
0.538681
0.499786
0.510554
0.495412
0.534314
0.320098
0.495483
0.494268
0.531241
0.306213
0.494398
0.541212
0.534385
0.324426
0.318835
0.323444
0.539541
0.4971
0.322514
0.497654
0.387086
0.534623
0.313014
0.408165
0.327981
0.302511
0.548705
0.321483
0.503321
0.329143
0.546921
0.324073
0.534503
0.498422
0.526791
0.332835
0.335154
0.349169
0.513742
0.331014
0.347464
0.323473
0.537455
0.517077
0.539831
0.520292
0.525815
0.509748
0.381589
0.333513
0.529112
0.333161
0.443352
0.523624
0.545573
0.224276
0.324736
0.520931
0.534374
0.404887
0.519926
0.530455
0.51515
0.330885
0.539074
0.517177
0.529503
0.531234
0.320017
0.536172
0.328298
0.530676
0.53924
0.501539
0.532589
0.344291
0.53518
0.223279
0.358121
0.499238
0.503069
0.527856
0.446541
0.333742
0.530606
0.533596
0.325706
0.333743
0.301127
0.544411
0.319402
0.328614
0.32342
0.321041
0.314549
0.365046
0.538731
0.305438
0.534989
0.521971
0.332703
0.531558
0.313527
0.543224
0.305525
0.460345
0.323647
0.525103
0.533724
0.396164
0.494173
0.532842
0.51589
0.328204
0.477213
0.426781
0.319478
0.327629
0.400729
0.313201
0.539845
0.30834
0.312626
0.320193
0.536235
0.525258
0.314778
0.318601
0.541717
0.326512
0.316399
0.534902
0.326236
0.325699
0.337017
0.547168
0.498691
0.543913
0.322523
0.288837
0.534679
0.513266
0.534516
0.392586
0.505564
0.527817
0.410806
0.398258
0.329494
0.323206
0.235484
0.489353
0.31653
0.542395
0.508545
0.530208
0.324304
0.406565
0.415205
0.552185
0.298378
0.479531
0.239474
0.488975
0.324782
0.279109
0.291975
0.534516
0.31303
0.546602
0.334082
0.376125
0.328696
0.468961
0.313551
0.539493
0.331399
0.502925
0.484391
0.329978
0.533565
0.533396
0.323885
0.543902
0.336642
0.334613
0.53868
0.2995
0.510723
0.341685
0.233013
0.533343
0.324894
0.349059
0.335884
0.324517
0.322706
0.511256
0.432009
0.526184
0.543531
0.523274
0.539565
0.408581
0.535663
0.29648
0.534006
0.334895
0.524499
0.32955
0.38525
0.523149
0.544939
0.53333
0.350944
0.438846
0.31774
0.331019
0.334992
0.23099
0.533827
0.407187
0.542791
0.533316
0.481566
0.534139
0.533236
0.389783
0.330028
0.36223
0.536906
0.480719
0.499294
0.533782
0.547217
0.412825
0.288719
0.338374