# vtk DataFile Version 1.0
unstructured grid
ascii
DATASET UNSTRUCTURED_GRID
points 3226 float
0.0796578 -0.059106 0
0.00128732 0.00159165 0
0.00227961 -0.00102548 0
0.0791586 -0.0598787 0
-0.0546216 0.01 0
0.000495206 0.025 0
0.0800549 -0.035 0
0.135172 -0.08 0
-0.0546216 -0.0451168 0
0.000495206 -0.0301168 0
0.0800549 -0.0901168 0
0.135172 -0.135117 0
-0.0546216 -0.0451168 -0.00551168
0.000495206 -0.0301168 -0.00551168
0.0800549 -0.0901168 -0.00551168
0.135172 -0.135117 -0.00551168
0.135172 -0.08 -0.00551168
0.0800549 -0.035 -0.00551168
0.000495206 0.025 -0.00551168
-0.0546216 0.01 -0.00551168
0.00128732 0.00159165 -0.00551168
0.00227961 -0.00102548 -0.00551168
0.0791586 -0.0598787 -0.00551168
0.0796578 -0.059106 -0.00551168
0.00110182 -0.000823821 0
0.000571683 -0.000188043 0
0.000561313 0.000639162 0
0.00189316 0.00207203 0
0.00260228 0.00255358 0
0.0033966 0.00307293 0
0.00428861 0.00362634 0
0.00529726 0.0041979 0
0.00644092 0.00476696 0
0.00773158 0.0053187 0
0.00918011 0.00583593 0
0.010799 0.00628751 0
0.012597 0.00663225 0
0.0145725 0.0068517 0
0.0167206 0.0069338 0
0.0190349 0.00685819 0
0.0215031 0.00658621 0
0.0241038 0.00607459 0
0.026821 0.00533786 0
0.0296245 0.00434523 0
0.0324763 0.00306927 0
0.0353199 0.00146906 0
0.0381488 -0.00039338 0
0.0409131 -0.00252802 0
0.0435632 -0.00493276 0
0.0460882 -0.0075571 0
0.0484881 -0.0103478 0
0.0506782 -0.0133217 0
0.0526651 -0.016422 0
0.0546139 -0.0195019 0
0.0565301 -0.022529 0
0.0584009 -0.0254846 0
0.0602154 -0.0283513 0
0.061964 -0.031114 0
0.0636389 -0.0337601 0
0.0652336 -0.0362795 0
0.0667431 -0.0386651 0
0.0681656 -0.0409111 0
0.0694983 -0.0430158 0
0.0707356 -0.0449823 0
0.071886 -0.0468071 0
0.0729575 -0.04849 0
0.0739438 -0.0500408 0
0.0748444 -0.0514675 0
0.0756707 -0.0527715 0
0.0764313 -0.053958 0
0.0771224 -0.0550398 0
0.0777384 -0.0560288 0
0.0782803 -0.0569318 0
0.0787691 -0.0577448 0
0.0792251 -0.0584672 0
0.0800494 -0.0597378 0
0.0797987 -0.0601582 0
0.0786655 -0.059391 0
0.0781259 -0.0588425 0
0.0775539 -0.0582102 0
0.0769587 -0.0574783 0
0.0763492 -0.0566339 0
0.075723 -0.0556725 0
0.0750452 -0.0546094 0
0.0742996 -0.0534457 0
0.073478 -0.0521785 0
0.072577 -0.0508019 0
0.0715904 -0.049313 0
0.0705098 -0.047712 0
0.069328 -0.0459996 0
0.0680378 -0.0441794 0
0.066632 -0.0422571 0
0.0651046 -0.0402413 0
0.0634508 -0.0381431 0
0.0616683 -0.0359754 0
0.0597581 -0.033753 0
0.0577255 -0.0314906 0
0.0555808 -0.0292024 0
0.0533388 -0.0269013 0
0.0510024 -0.0246151 0
0.0485693 -0.0223811 0
0.0460535 -0.0202228 0
0.0434788 -0.0181535 0
0.0408704 -0.0161833 0
0.0382442 -0.0143327 0
0.0356165 -0.0126209 0
0.0330065 -0.0110594 0
0.0304368 -0.00965062 0
0.0279338 -0.00838121 0
0.0255194 -0.00723697 0
0.0231965 -0.00623664 0
0.020983 -0.00535765 0
0.0188891 -0.00458677 0
0.0169193 -0.00391673 0
0.0150754 -0.00334068 0
0.0133572 -0.00285262 0
0.0117634 -0.0024437 0
0.0102912 -0.00210643 0
0.0089363 -0.00183343 0
0.00769424 -0.00161552 0
0.00655956 -0.00144452 0
0.00552632 -0.00131235 0
0.00458815 -0.00121216 0
0.00373885 -0.00113394 0
0.00297202 -0.00106855 0
-0.0506847 -0.0440454 0
-0.0467478 -0.0429739 0
-0.0428108 -0.0419025 0
-0.0388739 -0.0408311 0
-0.034937 -0.0397597 0
-0.0310001 -0.0386882 0
-0.0270632 -0.0376168 0
-0.0231263 -0.0365454 0
-0.0191894 -0.0354739 0
-0.0152525 -0.0344025 0
-0.0113155 -0.0333311 0
-0.00737862 -0.0322597 0
-0.00344171 -0.0311882 0
0.0038716 -0.0298185 0
0.00726082 -0.0297726 0
0.010644 -0.0299802 0
0.0140027 -0.0304367 0
0.0173201 -0.0311326 0
0.0205821 -0.0320541 0
0.0237776 -0.0331851 0
0.0268988 -0.0345078 0
0.0299406 -0.0360041 0
0.0329005 -0.0376567 0
0.035778 -0.039449 0
0.038574 -0.0413659 0
0.0412905 -0.043394 0
0.0439303 -0.0455212 0
0.0464964 -0.0477367 0
0.0489922 -0.0500312 0
0.051421 -0.0523964 0
0.0537863 -0.0548252 0
0.0560914 -0.0573112 0
0.0583395 -0.0598489 0
0.0605336 -0.0624334 0
0.0626765 -0.0650605 0
0.064771 -0.0677264 0
0.0668197 -0.0704277 0
0.0688248 -0.0731615 0
0.0707885 -0.0759252 0
0.072713 -0.0787163 0
0.0746002 -0.0815329 0
0.0764517 -0.0843729 0
0.0782695 -0.0872347 0
0.0829558 -0.0924852 0
0.0858567 -0.0948536 0
0.0887575 -0.0972221 0
0.0916584 -0.0995905 0
0.0945593 -0.101959 0
0.0974602 -0.104327 0
0.100361 -0.106696 0
0.103262 -0.109064 0
0.106163 -0.111433 0
0.109064 -0.113801 0
0.111965 -0.116169 0
0.114865 -0.118538 0
0.117766 -0.120906 0
0.120667 -0.123275 0
0.123568 -0.125643 0
0.126469 -0.128012 0
0.12937 -0.13038 0
0.132271 -0.132748 0
0.135172 -0.13118 0
0.135172 -0.127243 0
0.135172 -0.123306 0
0.135172 -0.119369 0
0.135172 -0.115432 0
0.135172 -0.111495 0
0.135172 -0.107558 0
0.135172 -0.103621 0
0.135172 -0.0996846 0
0.135172 -0.0957477 0
0.135172 -0.0918107 0
0.135172 -0.0878738 0
0.135172 -0.0839369 0
0.132271 -0.0776316 0
0.12937 -0.0752632 0
0.126469 -0.0728947 0
0.123568 -0.0705263 0
0.120667 -0.0681579 0
0.117766 -0.0657895 0
0.114865 -0.0634211 0
0.111965 -0.0610526 0
0.109064 -0.0586842 0
0.106163 -0.0563158 0
0.103262 -0.0539474 0
0.100361 -0.0515789 0
0.0974602 -0.0492105 0
0.0945593 -0.0468421 0
0.0916584 -0.0444737 0
0.0887575 -0.0421053 0
0.0858567 -0.0397368 0
0.0829558 -0.0373684 0
0.0782695 -0.0321179 0
0.0764517 -0.0292561 0
0.0746002 -0.026416 0
0.072713 -0.0235995 0
0.0707885 -0.0208084 0
0.0688248 -0.0180447 0
0.0668197 -0.0153109 0
0.064771 -0.0126096 0
0.0626765 -0.00994373 0
0.0605336 -0.00731663 0
0.0583395 -0.00473208 0
0.0560914 -0.00219437 0
0.0537863 0.000291632 0
0.051421 0.00272041 0
0.0489922 0.00508564 0
0.0464964 0.00738012 0
0.0439303 0.00959562 0
0.0412905 0.0117228 0
0.038574 0.0137509 0
0.035778 0.0156678 0
0.0329005 0.0174601 0
0.0299406 0.0191127 0
0.0268988 0.020609 0
0.0237776 0.0219317 0
0.0205821 0.0230627 0
0.0173201 0.0239842 0
0.0140027 0.0246801 0
0.010644 0.0251366 0
0.00726082 0.0253442 0
0.0038716 0.0252983 0
-0.00344171 0.0239286 0
-0.00737862 0.0228571 0
-0.0113155 0.0217857 0
-0.0152525 0.0207143 0
-0.0191894 0.0196429 0
-0.0231263 0.0185714 0
-0.0270632 0.0175 0
-0.0310001 0.0164286 0
-0.034937 0.0153571 0
-0.0388739 0.0142857 0
-0.0428108 0.0132143 0
-0.0467478 0.0121429 0
-0.0506847 0.0110714 0
-0.0546216 0.00606309 0
-0.0546216 0.00212617 0
-0.0546216 -0.00181074 0
-0.0546216 -0.00574766 0
-0.0546216 -0.00968457 0
-0.0546216 -0.0136215 0
-0.0546216 -0.0175584 0
-0.0546216 -0.0214953 0
-0.0546216 -0.0254322 0
-0.0546216 -0.0293691 0
-0.0546216 -0.0333061 0
-0.0546216 -0.037243 0
-0.0546216 -0.0411799 0
-0.0506847 -0.0440454 -0.00551168
-0.0467478 -0.0429739 -0.00551168
-0.0428108 -0.0419025 -0.00551168
-0.0388739 -0.0408311 -0.00551168
-0.034937 -0.0397597 -0.00551168
-0.0310001 -0.0386882 -0.00551168
-0.0270632 -0.0376168 -0.00551168
-0.0231263 -0.0365454 -0.00551168
-0.0191894 -0.0354739 -0.00551168
-0.0152525 -0.0344025 -0.00551168
-0.0113155 -0.0333311 -0.00551168
-0.00737862 -0.0322597 -0.00551168
-0.00344171 -0.0311882 -0.00551168
0.0038716 -0.0298185 -0.00551168
0.00726082 -0.0297726 -0.00551168
0.010644 -0.0299802 -0.00551168
0.0140027 -0.0304367 -0.00551168
0.0173201 -0.0311326 -0.00551168
0.0205821 -0.0320541 -0.00551168
0.0237776 -0.0331851 -0.00551168
0.0268988 -0.0345078 -0.00551168
0.0299406 -0.0360041 -0.00551168
0.0329005 -0.0376567 -0.00551168
0.035778 -0.039449 -0.00551168
0.038574 -0.0413659 -0.00551168
0.0412905 -0.043394 -0.00551168
0.0439303 -0.0455212 -0.00551168
0.0464964 -0.0477367 -0.00551168
0.0489922 -0.0500312 -0.00551168
0.051421 -0.0523964 -0.00551168
0.0537863 -0.0548252 -0.00551168
0.0560914 -0.0573112 -0.00551168
0.0583395 -0.0598489 -0.00551168
0.0605336 -0.0624334 -0.00551168
0.0626765 -0.0650605 -0.00551168
0.064771 -0.0677264 -0.00551168
0.0668197 -0.0704277 -0.00551168
0.0688248 -0.0731615 -0.00551168
0.0707885 -0.0759252 -0.00551168
0.072713 -0.0787163 -0.00551168
0.0746002 -0.0815329 -0.00551168
0.0764517 -0.0843729 -0.00551168
0.0782695 -0.0872347 -0.00551168
0.0829558 -0.0924852 -0.00551168
0.0858567 -0.0948536 -0.00551168
0.0887575 -0.0972221 -0.00551168
0.0916584 -0.0995905 -0.00551168
0.0945593 -0.101959 -0.00551168
0.0974602 -0.104327 -0.00551168
0.100361 -0.106696 -0.00551168
0.103262 -0.109064 -0.00551168
0.106163 -0.111433 -0.00551168
0.109064 -0.113801 -0.00551168
0.111965 -0.116169 -0.00551168
0.114865 -0.118538 -0.00551168
0.117766 -0.120906 -0.00551168
0.120667 -0.123275 -0.00551168
0.123568 -0.125643 -0.00551168
0.126469 -0.128012 -0.00551168
0.12937 -0.13038 -0.00551168
0.132271 -0.132748 -0.00551168
0.135172 -0.13118 -0.00551168
0.135172 -0.127243 -0.00551168
0.135172 -0.123306 -0.00551168
0.135172 -0.119369 -0.00551168
0.135172 -0.115432 -0.00551168
0.135172 -0.111495 -0.00551168
0.135172 -0.107558 -0.00551168
0.135172 -0.103621 -0.00551168
0.135172 -0.0996846 -0.00551168
0.135172 -0.0957477 -0.00551168
0.135172 -0.0918107 -0.00551168
0.135172 -0.0878738 -0.00551168
0.135172 -0.0839369 -0.00551168
0.132271 -0.0776316 -0.00551168
0.12937 -0.0752632 -0.00551168
0.126469 -0.0728947 -0.00551168
0.123568 -0.0705263 -0.00551168
0.120667 -0.0681579 -0.00551168
0.117766 -0.0657895 -0.00551168
0.114865 -0.0634211 -0.00551168
0.111965 -0.0610526 -0.00551168
0.109064 -0.0586842 -0.00551168
0.106163 -0.0563158 -0.00551168
0.103262 -0.0539474 -0.00551168
0.100361 -0.0515789 -0.00551168
0.0974602 -0.0492105 -0.00551168
0.0945593 -0.0468421 -0.00551168
0.0916584 -0.0444737 -0.00551168
0.0887575 -0.0421053 -0.00551168
0.0858567 -0.0397368 -0.00551168
0.0829558 -0.0373684 -0.00551168
0.0782695 -0.0321179 -0.00551168
0.0764517 -0.0292561 -0.00551168
0.0746002 -0.026416 -0.00551168
0.072713 -0.0235995 -0.00551168
0.0707885 -0.0208084 -0.00551168
0.0688248 -0.0180447 -0.00551168
0.0668197 -0.0153109 -0.00551168
0.064771 -0.0126096 -0.00551168
0.0626765 -0.00994373 -0.00551168
0.0605336 -0.00731663 -0.00551168
0.0583395 -0.00473208 -0.00551168
0.0560914 -0.00219437 -0.00551168
0.0537863 0.000291632 -0.00551168
0.051421 0.00272041 -0.00551168
0.0489922 0.00508564 -0.00551168
0.0464964 0.00738012 -0.00551168
0.0439303 0.00959562 -0.00551168
0.0412905 0.0117228 -0.00551168
[...]
CELL_DATA 2965
SCALARS rho float
LOOKUP_TABLE default
0.534044
0.330308
0.524872
0.316725
0.542175
0.339451
0.533955
0.331066
0.338223
0.525855
0.316465
0.328846
0.425701
0.536531
0.5181
0.517128
0.527209
0.516861
0.545033
0.528908
0.534072
0.320418
0.509674
0.537678
0.535538
0.547652
0.458675
0.479972
0.320744
0.505424
0.502146
0.329298
0.55266
0.529687
0.281122
0.339361
0.528806
0.533561
0.308916
0.506003
0.529945
0.502904
0.534493
0.327829
0.328499
0.533284
0.458884
0.471077
0.311491
0.534062
0.389913
0.3178
0.330037
0.425127
0.318065
0.420212
0.335003
0.309369
0.271926
0.476294
0.515999
0.476922
0.322509
0.544226
0.486935
0.533886
0.534011
0.317581
0.30149
0.33337
0.518607
0.543667
0.534022
0.289605
0.500409
0.409579
0.533907
0.317487
0.323124
0.467802
0.534035
0.321685
0.331307
0.434728
0.481806
0.374158
0.313959
0.272291
0.553556
0.334902
0.308033
0.533212
0.517941
0.514408
0.534042
0.309818
0.457497
0.294309
0.333971
0.325212
0.474534
0.324368
0.336354
0.329055
0.336595
0.528655
0.533891
0.321233
0.308229
0.533924
0.246953
0.391205
0.470176
0.494111
0.30174
0.300895
0.506566
0.45524
0.53411
0.329964
0.53403
0.238436
0.540053
0.541378
0.493684
0.400073
0.325563
0.459432
0.531689
0.26742
0.332511
0.42758
0.532363
0.333814
0.460392
0.329319
0.426728
0.516766
0.554103
0.542169
0.333616
0.516202
0.528014
0.330361
0.280195
0.545521
0.3175
0.541376
0.554519
0.337137
0.328817
0.32475
0.336582
0.320161
0.280505
0.269557
0.533947
0.53188
0.525522
0.540042
0.452314
0.461771
0.407141
0.543081
0.334796
0.533957
0.416075
0.328832
0.534015
0.536098
0.481218
0.299182
0.433356
0.519923
0.547287
0.413695
0.51182
0.357966
0.259692
0.416715
0.335271
0.259486
0.309589
0.300955
0.554816
0.533961
0.323392
0.32665
0.38901
0.328609
0.309717
0.31204
0.450951
0.292571
0.534042
0.463307
0.534449
0.486074
0.439981
0.321843
0.330003
0.309909
0.528409
0.443566
0.533966
0.306602
0.428044
0.534032
0.519835
0.534732
0.496444
0.397539
0.333593
0.337874
0.5059
0.337434
0.460399
0.322466
0.517656
0.328332
0.338214
0.330643
0.459006
0.381897
0.545656
0.283323
0.533971
0.52253
0.320032
0.479682
0.323588
0.280144
0.53624
0.310363
0.533698
0.536179
0.317812
0.531161
0.33052
0.350284
0.372259
0.32846
0.543953
0.522941
0.327068
0.246218
0.526141
0.533889
0.446819
0.505894
0.323417
0.322526
0.53395
0.327931
0.481547
0.275582
0.271778
0.53411
0.533457
0.324683
0.464314
0.325478
0.543137
0.338948
0.535107
0.534086
0.266449
0.472376
0.520664
0.300962
0.329576
0.534156
0.328187
0.550521
0.509814
0.328633
0.515054
0.51489
0.551522
0.531606
0.546549
0.46808
0.52948
0.533852
0.320987
0.315319
0.523446
0.539455
0.332217
0.531686
0.462342
0.320358
0.331706
0.326822
0.477435
0.318068
0.533919
0.480011
0.549965
0.327011
0.483199
0.485442
0.476577
0.533583
0.322033
0.236572
0.545076
0.533932
0.533934
0.316898
0.329654
0.481763
0.290275
0.296479
0.491883
0.533999
0.484694
0.246463
0.321182
0.482325
0.494044
0.32523
0.534242
0.533964
0.328511
0.414364
0.533469
0.51497
0.28207
0.329687
0.534143
0.333041
0.537624
0.363876
0.539899
0.391546
0.369217
0.332714
0.326902
0.302083
0.511396
0.547762
0.526327
0.54299
0.485063
0.473797
0.31289
0.534569
0.547044
0.329533
0.31187
0.534173
0.314583
0.516799
0.47223
0.324988
0.335153
0.3293
0.315028
0.533974
0.336695
0.333408
0.379593
0.325812
0.53349
0.534325
0.472227
0.53392
0.329626
0.531374
0.329321
0.534183
0.31429
0.334633
0.535695
0.465353
0.280572
0.257123
0.532538
0.360388
0.500225
0.514446
0.321509
0.530804
0.280186
0.33839
0.534232
0.295866
0.535987
0.274843
0.379678
0.330531
0.536245
0.468497
0.433955
0.533873
0.298951
0.546483
0.340881
0.304562
0.549103
0.305841
0.540399
0.421222
0.487231
0.27873
0.295319
0.305578
0.279029
0.305765
0.335953
0.530097
0.534385
0.534633
0.534064
0.328779
0.538415
0.465948
0.520038
0.254122
0.533378
0.335304
0.484243
0.475643
0.308536
0.534062
0.354446
0.522288
0.314747
0.488173
0.534971
0.304414
0.533045
0.257906
0.537936
0.32331
0.308464
0.415828
0.543263
0.540452
0.397984
0.274865
0.249659
0.416825
0.542801
0.52831
0.533607
0.53169
0.537127
0.308648
0.513807
0.483889
0.313767
0.264054
0.3032
0.497957
0.535964
0.365785
0.379817
0.370655
0.336237
0.528391
0.534922
0.534033
0.548615
0.398081
0.533886
0.535502
0.33046
0.539517
0.345974
0.350775
0.5318
0.534659
0.53731
0.54539
0.321009
0.308457
0.552811
0.530546
0.320974
0.529681
0.501176
0.534621
0.339799
0.318751
0.535667
0.331352
0.453017
0.53479
0.535901
0.328392
0.533493
0.328117
0.32832
0.318856
0.345265
0.533514
0.36286
0.516895
0.283097
0.322158
0.526736
0.337751
0.291224
0.328233
0.275362
0.359026
0.308886
0.32406
0.426681
0.437992
0.315075
0.336491
0.535938
0.330594
0.394988
0.533488
0.533819
0.494563
0.489894
0.436497
0.443779
0.290404
0.373421
0.533683
0.498613
0.273705
0.508349
0.243109
0.291688
0.304338
0.53377
0.551086
0.313983
0.496892
0.532065
0.282791
0.310758
0.541655
0.533968
0.360342
0.543381
0.3798
0.338744
0.541685
0.312838
0.453114
0.527176
0.405995
0.542564
0.309841
0.329831
0.537344
0.368634
0.33602
0.340176
0.325457
0.323141
0.533909
0.539834
0.523189
0.308288
0.256418
0.331872
0.313358
0.530386
0.272642
0.423251
0.311885
0.531686
0.533581
0.303567
0.534085
0.390765
0.490404
0.29797
0.527528
0.53346
0.554109
0.535082
0.534042
0.526021
0.339859
0.425112
0.333336
0.527646
0.313765
0.319269
0.532543
0.533877
0.533471
0.327971
0.321568
0.539031
0.54119
0.303939
0.53441
0.293803
0.307248
0.327319
0.552759
0.538498
0.522712
0.296152
0.299738
0.339182
0.325779
0.537591
0.534004
0.546135
0.327303
0.307454
0.456777
0.547108
0.543632
0.509996
0.53394
0.412567
0.536146
0.541698
0.516882
0.327379
0.536733
0.494952
0.533972
0.536204
0.545712
0.48594
0.380358
0.546259
0.33163
0.544251
0.533874
0.234895
0.533991
0.462735
0.535434
0.309285
0.317424
0.534097
0.300371
0.307172
0.548422
0.300231
0.415761
0.537565
0.287661
0.546351
0.325405
0.492426
0.532937
0.528088
0.501742
0.32438
0.324296
0.521638
0.436676
0.331705
0.480216
0.314686
0.534045
0.318745
0.459407
0.518953
0.534076
0.318467
0.492432
0.33628
0.408825
0.414048
0.329619
0.276863
0.323005
0.534122
0.458647
0.436308
0.306999
0.53411
0.489579
0.307029
0.534069
0.330558
0.45693
0.519308
0.533979
0.537276
0.295421
0.328127
0.534022
0.544569
0.522691
0.489218
0.542779
0.479548
0.46569
0.310635
0.502982
0.388083
0.345163
0.359633
0.533952
0.549368
0.508393
0.393536
0.328292
0.541248
0.330782
0.338581
0.403289
0.31243
0.456041
0.329231
0.533968
0.326624
0.307092
0.414246
0.544703
0.328178
0.307468
0.548907
0.543618
0.551184
0.322342
0.306817
0.538577
0.330767
0.306902
0.328603
0.435942
0.525007
0.267521
0.550519
0.32917
0.505884
0.533799
0.318694
0.407925
0.478064
0.500562
0.494823
0.54081
0.538369
0.544487
0.534992
0.534008
0.327715
0.381219
0.521809
0.293347
0.543342
0.525976
0.264943
0.532026
0.475334
0.512764
0.539374
0.469656
0.531778
0.314059
0.491606
0.331153
0.299467
0.534864
0.534076
0.273316
0.330917
0.531083
0.392376
0.453225
0.297253
0.249263
0.548525
0.516229
0.544088
0.513329
0.462559
0.376642
0.453439
0.315889
0.534038
0.504351
0.495125
0.328574
0.381169
0.544418
0.498096
0.539298
0.137601
0.534073
0.315505
0.3212
0.328881
0.520005
0.521606
0.540608
0.471941
0.333526
0.534043
0.386836
0.5459
0.547144
0.492454
0.320385
0.31457
0.534343
0.331291
0.424721
0.474494
0.307858
0.324415
0.517286
0.542269
0.322399
0.534076
0.532925
0.316702
0.534086
0.535197
0.53854
0.340679
0.332423
0.54209
0.327955
0.33514
0.407774
0.534017
0.325024
0.376616
0.307039
0.297603
0.538074
0.326923
0.320235
0.543135
0.327805
0.325904
0.552762
0.537907
0.53442
0.533942
0.492962
0.327922
0.5515
0.533293
0.316716
0.537136
0.534877
0.533986
0.53399
0.341115
0.534006
0.329234
0.534009
0.32325
0.533972
0.339021
0.518433
0.316324
0.540564
0.545136
0.550108
0.484798
0.53429
0.53681
0.289429
0.533988
0.266095
0.53397
0.538252
0.325296
0.405804
0.313152
0.330646
0.533971
0.361929
0.533498
0.139254
0.50505
0.508911
0.540331
0.397689
0.329635
0.267042
0.317887
0.271901
0.536687
0.364729
0.310258
0.535071
0.333887
0.354254
0.53271
0.533069
0.501222
0.53581
0.255983
0.487208
0.314838
0.534029
0.534494
0.524476
0.291908
0.540417
0.535778
0.541457
0.498198
0.53325
0.382593
0.533928
0.540163
0.442899
0.534222
0.306712
0.518433
0.337799
0.420515
0.519989
0.490506
0.530785
0.474406
0.487475
0.537257
0.309697
0.524044
0.329137
0.331898
0.540647
0.512763
0.478816
0.520002
0.531751
0.534024
0.537223
0.534051
0.534198
0.534466
0.552013
0.336156
0.501768
0.531203
0.321925
0.534142
0.319182
0.471749
0.308383
0.534085
0.31862
0.316149
0.301809
0.469995
0.535084
0.428492
0.516443
0.307951
0.332532
0.533922
0.53528
0.314349
0.502599
0.445772
0.308174
0.50401
0.327709
0.316265
0.534122
0.480248
0.312258
0.518951
0.533144
0.524306
0.327426
0.515839
0.260678
0.533959
0.378524
0.510105
0.327245
0.548082
0.303375
0.329312
0.312977
0.51583
0.302562
0.498048
0.546549
0.470592
0.337231
0.314794
0.54216
0.314281
0.237105
0.325458
0.53556
0.318775
0.319123
0.267253
0.499634
0.338944
0.334358
0.32545
0.533844
0.549312
0.338137
0.538661
0.537933
0.495818
0.322999
0.318743
0.533886
0.313366
0.554648
0.32895
0.531424
0.32115
0.229792
0.514442
0.322823
0.32468
0.325597
0.534111
0.304835
0.446077
0.537251
0.31219
0.516412
0.326979
0.549096
0.418404
0.312899
0.336946
0.535047
0.440845
0.534138
0.317552
0.331839
0.439706
0.533996
0.307051
0.308914
0.326036
0.415944
0.536959
0.333536
0.450162
0.531666
0.534122
0.526254
0.32892
0.535845
0.321868
0.534479
0.534556
0.460726
0.331395
0.490827
0.537624
0.311872
0.537887
0.538128
0.331508
0.324558
0.316144
0.275378
0.542506
0.325062
0.533987
0.382898
0.533988
0.49533
0.374244
0.511201
0.303025
0.480016
0.32039
0.533802
0.533329
0.267942
0.32651
0.324204
0.465698
0.552653
0.31608
0.295969
0.332217
0.451614
0.546639
0.292812
0.317518
0.52605
0.536704
0.527962
0.329112
0.324768
0.524004
0.533806
0.309598
0.32581
0.437819
0.549569
0.492597
0.307874
0.534157
0.535079
0.314971
0.538396
0.326858
0.539172
0.313112
0.359243
0.311363
0.282759
0.53368
0.320505
0.323164
0.323273
0.334038
0.483851
0.529391
0.549507
0.3095
0.533965
0.535551
0.53512
0.546743
0.533682
0.547824
0.548593
0.548401
0.538106
0.532814
0.304757
0.487667
0.549313
0.325964
0.540703
0.544655
0.53681
0.535353
0.307825
0.542267
0.53404
0.536659
0.331021
0.506107
0.530065
0.534005
0.529663
0.324092
0.486755
0.334826
0.414393
0.324578
0.326023
0.306565
0.327893
0.534203
0.533258
0.522471
0.321387
0.534675
0.534088
0.537477
0.329765
0.329181
0.519156
0.301845
0.312171
0.310446
0.536512
0.419624
0.534599
0.308499
0.546137
0.53337
0.457212
0.538961
0.328001
0.550054
0.535558
0.512974
0.539327
0.53417
0.520587
0.325411
0.340827
0.329839
0.533812
0.305619
0.534372
0.521029
0.495107
0.332326
0.338782
0.483346
0.541678
0.533934
0.329381
0.525576
0.478653
0.267166
0.534188
0.317378
0.328121
0.306471
0.315503
0.316892
0.539517
0.535694
0.552156
0.443535
0.532946
0.53377
0.51791
0.534124
0.546402
0.548442
0.533708
0.533845
0.32562
0.533946
0.528188
0.426931
0.324694
0.503868
0.299168
0.537272
0.370681
0.539012
0.545451
0.333406
0.536197
0.324578
0.535445
0.532237
0.547002
0.489644
0.516169
0.5455
0.533698
0.336266
0.445429
0.422603
0.253031
0.534259
0.53814
0.443904
0.550598
0.526697
0.533953
0.318023
0.322622
0.527797
0.546189
0.316388
0.195392
0.514802
0.534302
0.534912
0.270976
0.457006
0.513508
0.53287
0.325787
0.534075
0.484483
0.525575
0.505062
0.439832
0.53415
0.29918
0.531258
0.310197
0.311755
0.534148
0.344855
0.345957
0.326569
0.525616
0.510499
0.44308
0.534118
0.431016
0.350242
0.324514
0.542403
0.53248
0.5397
0.489344
0.253646
0.522589
0.432803
0.310435
0.532459
0.540327
0.332392
0.536278
0.52934
0.533964
0.445946
0.53364
0.36095
0.534267
0.531135
0.533625
0.334253
0.525372
0.386188
0.508928
0.533751
0.544725
0.530714
0.534667
0.534632
0.532909
0.518219
0.322222
0.541895
0.510637
0.331606
0.49572
0.536831
0.550974
0.499406
0.310166
0.531104
0.331827
0.545722
0.490145
0.538613
0.325222
0.513388
0.534464
0.53404
0.525461
0.478782
0.534055
0.466681
0.38643
0.326395
0.275813
0.533956
0.333905
0.303225
0.536652
0.317184
0.543831
0.313012
0.536202
0.318889
0.325914
0.521279
0.395326
0.298884
0.530994
0.533265
0.53795
0.339712
0.506615
0.534108
0.531867
0.327852
0.534027
0.534858
0.322814
0.482456
0.462388
0.523252
0.328864
0.391608
0.510414
0.306146
0.53792
0.329884
0.33451
0.533892
0.386158
0.507306
0.317901
0.539797
0.425001
0.534035
0.224135
0.323173
0.533917
0.339746
0.534057
0.335959
0.534513
0.485535
0.466481
0.534065
0.5025
0.262297
0.534893
0.548782
0.531739
0.534023
0.320806
0.327113
0.319448
0.334876
0.533906
0.338367
0.51367
0.322702
0.532667
0.534595
0.533828
0.326341
0.534577
0.320829
0.534761
0.541403
0.348083
0.533764
0.525337
0.311678
0.521841
0.306929
0.335855
0.549196
0.332105
0.543363
0.224807
0.334835
0.512917
0.357688
0.538759
0.329048
0.461417
0.533069
0.53016
0.385825
0.270567
0.329585
0.534002
0.534045
0.337303
0.535223
0.32193
0.532699
0.32479
0.317928
0.468034
0.474686
0.419537
0.495814
0.534121
0.492176
0.473636
0.536114
0.533913
0.328637
0.535042
0.328928
0.337225
0.496136
0.406802
0.395411
0.442525
0.331783
0.514932
0.534072
0.537131
0.32331
0.315968
0.450971
0.505791
0.534441
0.545855
0.3156
0.499626
0.53275
0.5078
0.440087
0.323647
0.325465
0.330035
0.554685
0.537047
0.308092
0.323987
0.436667
0.327761
0.549296
0.51318
0.319349
0.533941
0.404561
0.540769
0.536665
0.320588
0.344868
0.507001
0.317992
0.394272
0.533078
0.274114
0.320035
0.329083
0.508019
0.536163
0.505692
0.337603
0.311948
0.528711
0.535005
0.494532
0.53887
0.313437
0.323185
0.334279
0.498005
0.30407
0.320064
0.537893
0.541634
0.514402
0.326781
0.329223
0.326058
0.534025
0.302777
0.532871
0.533999
0.530243
0.428262
0.534167
0.549186
0.331494
0.327484
0.535623
0.321812
0.465654
0.526117
0.541836
0.437015
0.304482
0.305535
0.541541
0.403327
0.311465
0.534411
0.534088
0.296198
0.324127
0.51341
0.442442
0.328363
0.32828
0.540304
0.490359
0.529052
0.474554
0.354394
0.307274
0.337333
0.380422
0.318959
0.534017
0.528542
0.470307
0.511749
0.333406
0.503973
0.338283
0.533356
0.545717
0.330946
0.264914
0.529742
0.38502
0.472515
0.535128
0.302522
0.530893
0.527981
0.53374
0.534068
0.50623
0.345043
0.321447
0.314757
0.511026
0.533925
0.514169
0.443907
0.330561
0.319389
0.492476
0.331751
0.53836
0.533744
0.53301
0.347374
0.326383
0.464619
0.507269
0.534046
0.526696
0.534219
0.533956
0.535921
0.481801
0.252938
0.534009
0.497843
0.534653
0.315432
0.529851
0.423875
0.528705
0.55206
0.44596
0.491775
0.531781
0.509341
0.534021
0.327392
0.531859
0.550972
0.341122
0.50547
0.303004
0.299562
0.534031
0.534005
0.331438
0.483271
0.533757
0.332939
0.334759
0.556986
0.549895
0.471196
0.348265
0.495645
0.326725
0.542847
0.548866
0.322166
0.454594
0.500421
0.324544
0.315141
0.339387
0.539033
0.532078
0.313966
0.327363
0.338898
0.338247
0.334179
0.501705
0.325799
0.550792
0.535107
0.541701
0.320428
0.532953
0.446564
0.531922
0.443263
0.529462
0.317252
0.302249
0.330279
0.534099
0.327436
0.326788
0.496923
0.335822
0.534062
0.507006
0.425165
0.320519
0.319874
0.522631
0.535987
0.527606
0.525463
0.542649
0.315463
0.344235
0.306204
0.509795
0.534785
0.324619
0.517679
0.312421
0.338668
0.534149
0.319572
0.33146
0.260762
0.370795
0.333642
0.53437
0.538323
0.53776
0.337816
0.533729
0.542286
0.324249
0.534356
0.375368
0.5399
0.340981
0.387641
0.533493
0.326935
0.265862
0.529744
0.524121
0.32361
0.546131
0.498456
0.533083
0.398708
0.319486
0.50142
0.534059
0.365669
0.353691
0.422799
0.398584
0.534147
0.328019
0.322648
0.541018
0.515986
0.332465
0.320245
0.531681
0.326709
0.315002
0.320564
0.454802
0.54474
0.318743
0.540037
0.320775
0.302668
0.336447
0.405514
0.330609
0.539423
0.320769
0.329395
0.481167
0.538688
0.354416
0.533963
0.314991
0.326691
0.510438
0.552348
0.523335
0.513061
0.518897
0.54607
0.325436
0.539033
0.298624
0.533966
0.526785
0.410725
0.524788
0.534017
0.533921
0.533788
0.432185
0.335373
0.429738
0.336949
0.502388
0.532431
0.495849
0.323462
0.536062
0.3685
0.533973
0.328233
0.308261
0.556398
0.29912
0.528837
0.55179
0.377027
0.337218
0.331449
0.533641
0.393104
0.268948
0.540573
0.327667
0.525725
0.33506
0.334262
0.317629
0.535227
0.39035
0.534075
0.326212
0.337942
0.53414
0.532669
0.282887
0.358641
0.269041
0.481427
0.33062
0.520618
0.53065
0.533985
0.237892
0.322851
0.450293
0.530766
0.548178
0.532744
0.298474
0.513882
0.537509
0.53397
0.534049
0.317117
0.521794
0.33118
0.449696
0.542574
0.537206
0.529982
0.544605
0.498051
0.53219
0.544081
0.533668
0.52258
0.536432
0.533785
0.535549
0.329488
0.328089
0.5343
0.475813
0.534065
0.533968
0.548162
0.519574
0.545059
0.331573
0.327767
0.534053
0.327636
0.325043
0.330255
0.533975
0.523521
0.533989
0.509814
0.523179
0.312254
0.537819
0.312477
0.314735
0.545653
0.525805
0.524621
0.398927
0.395785
0.327139
0.327814
0.384398
0.303589
0.357667
0.544067
0.300858
0.531244
0.333833
0.539553
0.533057
0.286165
0.32896
0.496958
0.534047
0.332181
0.50896
0.267435
0.317451
0.325537
0.448648
0.535028
0.534041
0.534219
0.243104
0.338984
0.273558
0.332749
0.534006
0.54729
0.538589
0.331399
0.314429
0.533823
0.532791
0.53644
0.304301
0.480893
0.465187
0.543268
0.430016
0.338525
0.337762
0.316408
0.5358
0.325514
0.328158
0.533999
0.327412
0.53425
0.335175
0.344645
0.399192
0.332819
0.545594
0.534048
0.534288
0.444787
0.554123
0.510397
0.475756
0.329396
0.507715
0.530135
0.509746
0.53646
0.53278
0.539665
0.425049
0.532654
0.535355
0.331763
0.335442
0.549012
0.400371
0.533469
0.328599
0.546063
0.362081
0.526122
0.534448
0.508481
0.533072
0.539021
0.515194
0.306861
0.334671
0.537451
0.546874
0.533326
0.43351
0.544278
0.446437
0.494127
0.533749
0.472208
0.464005
0.54043
0.533974
0.329597
0.312413
0.534463
0.502214
0.327954
0.335416
0.423362
0.534054
0.533983
0.550458
0.334365
0.524568
0.301253
0.5367
0.326963
0.544488
0.292328
0.549131
0.337828
0.531411
0.445379
0.328073
0.304173
0.471095
0.328579
0.485208
0.314851
0.534134
0.534047
0.530351
0.527888
0.534154
0.534958
0.53384
0.54971
0.541523
0.501858
0.515756
0.496215
0.53831
0.321279
0.500625
0.499481
0.532635
0.311513
0.497952
0.545393
0.533915
0.331546
0.320497
0.331612
0.544191
0.497941
0.323973
0.500406
0.391104
0.534107
0.313498
0.412108
0.327617
0.303194
0.55283
0.325318
0.508439
0.326063
0.551198
0.333441
0.534119
0.502698
0.529233
0.338649
0.336911
0.352975
0.515927
0.3262
0.351283
0.322729
0.540516
0.518886
0.54431
0.52325
0.530822
0.511521
0.3833
0.334721
0.530846
0.322743
0.447955
0.527057
0.549912
0.224327
0.315118
0.522928
0.533902
0.408961
0.525063
0.534984
0.518455
0.328342
0.542862
0.520123
0.532011
0.533319
0.32388
0.534024
0.325347
0.532127
0.5422
0.504849
0.533259
0.346961
0.537391
0.225204
0.36034
0.500387
0.508041
0.529717
0.451606
0.329282
0.532146
0.535968
0.322462
0.319098
0.299466
0.548326
0.329155
0.328872
0.328044
0.327516
0.309951
0.369272
0.542563
0.302727
0.539661
0.523986
0.327011
0.535755
0.306755
0.547703
0.302613
0.461214
0.324101
0.527261
0.534552
0.398941
0.497481
0.534097
0.521032
0.322987
0.480373
0.430479
0.309174
0.324156
0.405295
0.304795
0.5443
0.300087
0.312775
0.323269
0.534047
0.528295
0.313379
0.319946
0.54518
0.326782
0.322279
0.533988
0.329779
0.319613
0.343445
0.551373
0.503428
0.54739
0.326378
0.291621
0.538376
0.518207
0.533896
0.396507
0.50814
0.52985
0.415216
0.402792
0.324809
0.324512
0.237628
0.493043
0.30268
0.546593
0.512794
0.533064
0.33157
0.410289
0.419958
0.556356
0.297621
0.482748
0.241728
0.492133
0.321733
0.280847
0.290589
0.537429
0.315023
0.550821
0.335992
0.380191
0.326831
0.47211
0.314899
0.543467
0.328826
0.50444
0.487477
0.324754
0.534373
0.534347
0.3142
0.54779
0.341526
0.328826
0.542381
0.300811
0.51562
0.352478
0.234889
0.533577
0.32008
0.352021
0.337811
0.334225
0.319656
0.515512
0.435802
0.528546
0.547208
0.528355
0.543256
0.411461
0.537933
0.29734
0.534711
0.329031
0.526513
0.317545
0.389082
0.525222
0.548782
0.53526
0.354165
0.440166
0.327483
0.34121
0.34051
0.232287
0.537176
0.410192
0.546771
0.533581
0.484998
0.539034
0.534704
0.393815
0.325152
0.366401
0.541344
0.484804
0.502368
0.534286
0.551481
0.417426
0.287934