# vtk DataFile Version 1.0
unstructured grid
ascii
DATASET UNSTRUCTURED_GRID
points 3226 float
0.0796578 -0.059106 0
0.00128732 0.00159165 0
0.00227961 -0.00102548 0
0.0791586 -0.0598787 0
-0.0546216 0.01 0
0.000495206 0.025 0
0.0800549 -0.035 0
0.135172 -0.08 0
-0.0546216 -0.0451168 0
0.000495206 -0.0301168 0
0.0800549 -0.0901168 0
0.135172 -0.135117 0
-0.0546216 -0.0451168 -0.00551168
0.000495206 -0.0301168 -0.00551168
0.0800549 -0.0901168 -0.00551168
0.135172 -0.135117 -0.00551168
0.135172 -0.08 -0.00551168
0.0800549 -0.035 -0.00551168
0.000495206 0.025 -0.00551168
-0.0546216 0.01 -0.00551168
0.00128732 0.00159165 -0.00551168
0.00227961 -0.00102548 -0.00551168
0.0791586 -0.0598787 -0.00551168
0.0796578 -0.059106 -0.00551168
0.00110182 -0.000823821 0
0.000571683 -0.000188043 0
0.000561313 0.000639162 0
0.00189316 0.00207203 0
0.00260228 0.00255358 0
0.0033966 0.00307293 0
0.00428861 0.00362634 0
0.00529726 0.0041979 0
0.00644092 0.00476696 0
0.00773158 0.0053187 0
0.00918011 0.00583593 0
0.010799 0.00628751 0
0.012597 0.00663225 0
0.0145725 0.0068517 0
0.0167206 0.0069338 0
0.0190349 0.00685819 0
0.0215031 0.00658621 0
0.0241038 0.00607459 0
0.026821 0.00533786 0
0.0296245 0.00434523 0
0.0324763 0.00306927 0
0.0353199 0.00146906 0
0.0381488 -0.00039338 0
0.0409131 -0.00252802 0
0.0435632 -0.00493276 0
0.0460882 -0.0075571 0
0.0484881 -0.0103478 0
0.0506782 -0.0133217 0
0.0526651 -0.016422 0
0.0546139 -0.0195019 0
0.0565301 -0.022529 0
0.0584009 -0.0254846 0
0.0602154 -0.0283513 0
0.061964 -0.031114 0
0.0636389 -0.0337601 0
0.0652336 -0.0362795 0
0.0667431 -0.0386651 0
0.0681656 -0.0409111 0
0.0694983 -0.0430158 0
0.0707356 -0.0449823 0
0.071886 -0.0468071 0
0.0729575 -0.04849 0
0.0739438 -0.0500408 0
0.0748444 -0.0514675 0
0.0756707 -0.0527715 0
0.0764313 -0.053958 0
0.0771224 -0.0550398 0
0.0777384 -0.0560288 0
0.0782803 -0.0569318 0
0.0787691 -0.0577448 0
0.0792251 -0.0584672 0
0.0800494 -0.0597378 0
0.0797987 -0.0601582 0
0.0786655 -0.059391 0
0.0781259 -0.0588425 0
0.0775539 -0.0582102 0
0.0769587 -0.0574783 0
0.0763492 -0.0566339 0
0.075723 -0.0556725 0
0.0750452 -0.0546094 0
0.0742996 -0.0534457 0
0.073478 -0.0521785 0
0.072577 -0.0508019 0
0.0715904 -0.049313 0
0.0705098 -0.047712 0
0.069328 -0.0459996 0
0.0680378 -0.0441794 0
0.066632 -0.0422571 0
0.0651046 -0.0402413 0
0.0634508 -0.0381431 0
0.0616683 -0.0359754 0
0.0597581 -0.033753 0
0.0577255 -0.0314906 0
0.0555808 -0.0292024 0
0.0533388 -0.0269013 0
0.0510024 -0.0246151 0
0.0485693 -0.0223811 0
0.0460535 -0.0202228 0
0.0434788 -0.0181535 0
0.0408704 -0.0161833 0
0.0382442 -0.0143327 0
0.0356165 -0.0126209 0
0.0330065 -0.0110594 0
0.0304368 -0.00965062 0
0.0279338 -0.00838121 0
0.0255194 -0.00723697 0
0.0231965 -0.00623664 0
0.020983 -0.00535765 0
0.0188891 -0.00458677 0
0.0169193 -0.00391673 0
0.0150754 -0.00334068 0
0.0133572 -0.00285262 0
0.0117634 -0.0024437 0
0.0102912 -0.00210643 0
0.0089363 -0.00183343 0
0.00769424 -0.00161552 0
0.00655956 -0.00144452 0
0.00552632 -0.00131235 0
0.00458815 -0.00121216 0
0.00373885 -0.00113394 0
0.00297202 -0.00106855 0
-0.0506847 -0.0440454 0
-0.0467478 -0.0429739 0
-0.0428108 -0.0419025 0
-0.0388739 -0.0408311 0
-0.034937 -0.0397597 0
-0.0310001 -0.0386882 0
-0.0270632 -0.0376168 0
-0.0231263 -0.0365454 0
-0.0191894 -0.0354739 0
-0.0152525 -0.0344025 0
-0.0113155 -0.0333311 0
-0.00737862 -0.0322597 0
-0.00344171 -0.0311882 0
0.0038716 -0.0298185 0
0.00726082 -0.0297726 0
0.010644 -0.0299802 0
0.0140027 -0.0304367 0
0.0173201 -0.0311326 0
0.0205821 -0.0320541 0
0.0237776 -0.0331851 0
0.0268988 -0.0345078 0
0.0299406 -0.0360041 0
0.0329005 -0.0376567 0
0.035778 -0.039449 0
0.038574 -0.0413659 0
0.0412905 -0.043394 0
0.0439303 -0.0455212 0
0.0464964 -0.0477367 0
0.0489922 -0.0500312 0
0.051421 -0.0523964 0
0.0537863 -0.0548252 0
0.0560914 -0.0573112 0
0.0583395 -0.0598489 0
0.0605336 -0.0624334 0
0.0626765 -0.0650605 0
0.064771 -0.0677264 0
0.0668197 -0.0704277 0
0.0688248 -0.0731615 0
0.0707885 -0.0759252 0
0.072713 -0.0787163 0
0.0746002 -0.0815329 0
0.0764517 -0.0843729 0
0.0782695 -0.0872347 0
0.0829558 -0.0924852 0
0.0858567 -0.0948536 0
0.0887575 -0.0972221 0
0.0916584 -0.0995905 0
0.0945593 -0.101959 0
0.0974602 -0.104327 0
0.100361 -0.106696 0
0.103262 -0.109064 0
0.106163 -0.111433 0
0.109064 -0.113801 0
0.111965 -0.116169 0
0.114865 -0.118538 0
0.117766 -0.120906 0
0.120667 -0.123275 0
0.123568 -0.125643 0
0.126469 -0.128012 0
0.12937 -0.13038 0
0.132271 -0.132748 0
0.135172 -0.13118 0
0.135172 -0.127243 0
0.135172 -0.123306 0
0.135172 -0.119369 0
0.135172 -0.115432 0
0.135172 -0.111495 0
0.135172 -0.107558 0
0.135172 -0.103621 0
0.135172 -0.0996846 0
0.135172 -0.0957477 0
0.135172 -0.0918107 0
0.135172 -0.0878738 0
0.135172 -0.0839369 0
0.132271 -0.0776316 0
0.12937 -0.0752632 0
0.126469 -0.0728947 0
0.123568 -0.0705263 0
0.120667 -0.0681579 0
0.117766 -0.0657895 0
0.114865 -0.0634211 0
0.111965 -0.0610526 0
0.109064 -0.0586842 0
0.106163 -0.0563158 0
0.103262 -0.0539474 0
0.100361 -0.0515789 0
0.0974602 -0.0492105 0
0.0945593 -0.0468421 0
0.0916584 -0.0444737 0
0.0887575 -0.0421053 0
0.0858567 -0.0397368 0
0.0829558 -0.0373684 0
0.0782695 -0.0321179 0
0.0764517 -0.0292561 0
0.0746002 -0.026416 0
0.072713 -0.0235995 0
0.0707885 -0.0208084 0
0.0688248 -0.0180447 0
0.0668197 -0.0153109 0
0.064771 -0.0126096 0
0.0626765 -0.00994373 0
0.0605336 -0.00731663 0
0.0583395 -0.00473208 0
0.0560914 -0.00219437 0
0.0537863 0.000291632 0
0.051421 0.00272041 0
0.0489922 0.00508564 0
0.0464964 0.00738012 0
0.0439303 0.00959562 0
0.0412905 0.0117228 0
0.038574 0.0137509 0
0.035778 0.0156678 0
0.0329005 0.0174601 0
0.0299406 0.0191127 0
0.0268988 0.020609 0
0.0237776 0.0219317 0
0.0205821 0.0230627 0
0.0173201 0.0239842 0
0.0140027 0.0246801 0
0.010644 0.0251366 0
0.00726082 0.0253442 0
0.0038716 0.0252983 0
-0.00344171 0.0239286 0
-0.00737862 0.0228571 0
-0.0113155 0.0217857 0
-0.0152525 0.0207143 0
-0.0191894 0.0196429 0
-0.0231263 0.0185714 0
-0.0270632 0.0175 0
-0.0310001 0.0164286 0
-0.034937 0.0153571 0
-0.0388739 0.0142857 0
-0.0428108 0.0132143 0
-0.0467478 0.0121429 0
-0.0506847 0.0110714 0
-0.0546216 0.00606309 0
-0.0546216 0.00212617 0
-0.0546216 -0.00181074 0
-0.0546216 -0.00574766 0
-0.0546216 -0.00968457 0
-0.0546216 -0.0136215 0
-0.0546216 -0.0175584 0
-0.0546216 -0.0214953 0
-0.0546216 -0.0254322 0
-0.0546216 -0.0293691 0
-0.0546216 -0.0333061 0
-0.0546216 -0.037243 0
-0.0546216 -0.0411799 0
-0.0506847 -0.0440454 -0.00551168
-0.0467478 -0.0429739 -0.00551168
-0.0428108 -0.0419025 -0.00551168
-0.0388739 -0.0408311 -0.00551168
-0.034937 -0.0397597 -0.00551168
-0.0310001 -0.0386882 -0.00551168
-0.0270632 -0.0376168 -0.00551168
-0.0231263 -0.0365454 -0.00551168
-0.0191894 -0.0354739 -0.00551168
-0.0152525 -0.0344025 -0.00551168
-0.0113155 -0.0333311 -0.00551168
-0.00737862 -0.0322597 -0.00551168
-0.00344171 -0.0311882 -0.00551168
0.0038716 -0.0298185 -0.00551168
0.00726082 -0.0297726 -0.00551168
0.010644 -0.0299802 -0.00551168
0.0140027 -0.0304367 -0.00551168
0.0173201 -0.0311326 -0.00551168
0.0205821 -0.0320541 -0.00551168
0.0237776 -0.0331851 -0.00551168
0.0268988 -0.0345078 -0.00551168
0.0299406 -0.0360041 -0.00551168
0.0329005 -0.0376567 -0.00551168
0.035778 -0.039449 -0.00551168
0.038574 -0.0413659 -0.00551168
0.0412905 -0.043394 -0.00551168
0.0439303 -0.0455212 -0.00551168
0.0464964 -0.0477367 -0.00551168
0.0489922 -0.0500312 -0.00551168
0.051421 -0.0523964 -0.00551168
0.0537863 -0.0548252 -0.00551168
0.0560914 -0.0573112 -0.00551168
0.0583395 -0.0598489 -0.00551168
0.0605336 -0.0624334 -0.00551168
0.0626765 -0.0650605 -0.00551168
0.064771 -0.0677264 -0.00551168
0.0668197 -0.0704277 -0.00551168
0.0688248 -0.0731615 -0.00551168
0.0707885 -0.0759252 -0.00551168
0.072713 -0.0787163 -0.00551168
0.0746002 -0.0815329 -0.00551168
0.0764517 -0.0843729 -0.00551168
0.0782695 -0.0872347 -0.00551168
0.0829558 -0.0924852 -0.00551168
0.0858567 -0.0948536 -0.00551168
0.0887575 -0.0972221 -0.00551168
0.0916584 -0.0995905 -0.00551168
0.0945593 -0.101959 -0.00551168
0.0974602 -0.104327 -0.00551168
0.100361 -0.106696 -0.00551168
0.103262 -0.109064 -0.00551168
0.106163 -0.111433 -0.00551168
0.109064 -0.113801 -0.00551168
0.111965 -0.116169 -0.00551168
0.114865 -0.118538 -0.00551168
0.117766 -0.120906 -0.00551168
0.120667 -0.123275 -0.00551168
0.123568 -0.125643 -0.00551168
0.126469 -0.128012 -0.00551168
0.12937 -0.13038 -0.00551168
0.132271 -0.132748 -0.00551168
0.135172 -0.13118 -0.00551168
0.135172 -0.127243 -0.00551168
0.135172 -0.123306 -0.00551168
0.135172 -0.119369 -0.00551168
0.135172 -0.115432 -0.00551168
0.135172 -0.111495 -0.00551168
0.135172 -0.107558 -0.00551168
0.135172 -0.103621 -0.00551168
0.135172 -0.0996846 -0.00551168
0.135172 -0.0957477 -0.00551168
0.135172 -0.0918107 -0.00551168
0.135172 -0.0878738 -0.00551168
0.135172 -0.0839369 -0.00551168
0.132271 -0.0776316 -0.00551168
0.12937 -0.0752632 -0.00551168
0.126469 -0.0728947 -0.00551168
0.123568 -0.0705263 -0.00551168
0.120667 -0.0681579 -0.00551168
0.117766 -0.0657895 -0.00551168
0.114865 -0.0634211 -0.00551168
0.111965 -0.0610526 -0.00551168
0.109064 -0.0586842 -0.00551168
0.106163 -0.0563158 -0.00551168
0.103262 -0.0539474 -0.00551168
0.100361 -0.0515789 -0.00551168
0.0974602 -0.0492105 -0.00551168
0.0945593 -0.0468421 -0.00551168
0.0916584 -0.0444737 -0.00551168
0.0887575 -0.0421053 -0.00551168
0.0858567 -0.0397368 -0.00551168
0.0829558 -0.0373684 -0.00551168
0.0782695 -0.0321179 -0.00551168
0.0764517 -0.0292561 -0.00551168
0.0746002 -0.026416 -0.00551168
0.072713 -0.0235995 -0.00551168
0.0707885 -0.0208084 -0.00551168
0.0688248 -0.0180447 -0.00551168
0.0668197 -0.0153109 -0.00551168
0.064771 -0.0126096 -0.00551168
0.0626765 -0.00994373 -0.00551168
0.0605336 -0.00731663 -0.00551168
0.0583395 -0.00473208 -0.00551168
0.0560914 -0.00219437 -0.00551168
0.0537863 0.000291632 -0.00551168
0.051421 0.00272041 -0.00551168
0.0489922 0.00508564 -0.00551168
0.0464964 0.00738012 -0.00551168
0.0439303 0.00959562 -0.00551168
0.0412905 0.0117228 -0.00551168
[...]
CELL_DATA 2965
SCALARS rho float
LOOKUP_TABLE default
0.612683
0.327865
0.653458
0.330535
0.686281
0.349821
0.561756
0.324066
0.350657
0.655978
0.328956
0.336182
0.539178
0.701843
0.644905
0.663568
0.674927
0.690944
0.690781
0.676631
0.605639
0.322199
0.688966
0.699388
0.673721
0.698643
0.548152
0.653271
0.321176
0.612244
0.615386
0.331476
0.692793
0.65916
0.34612
0.347274
0.672164
0.66988
0.329526
0.614318
0.670944
0.624124
0.697233
0.311793
0.345198
0.701203
0.585824
0.654837
0.374559
0.573545
0.452883
0.32813
0.34295
0.508998
0.321833
0.499392
0.34966
0.339757
0.336267
0.61089
0.641586
0.658247
0.3086
0.686776
0.671096
0.699488
0.56144
0.316961
0.340633
0.341844
0.691799
0.695246
0.561573
0.347889
0.613239
0.513848
0.577739
0.317596
0.329349
0.577471
0.560384
0.315032
0.338005
0.547885
0.66932
0.436737
0.334488
0.359973
0.699144
0.349415
0.333811
0.700069
0.680763
0.628786
0.697394
0.336081
0.597859
0.345639
0.341061
0.293346
0.609489
0.296527
0.340178
0.346981
0.342615
0.697093
0.586064
0.341099
0.341291
0.573473
0.340673
0.499695
0.569833
0.6673
0.341495
0.344616
0.690785
0.577819
0.587256
0.31559
0.560102
0.301251
0.700841
0.68759
0.679465
0.472421
0.333723
0.627324
0.658587
0.333846
0.336812
0.511639
0.668467
0.339628
0.551873
0.345432
0.550816
0.678431
0.692937
0.687327
0.3393
0.665033
0.667523
0.404955
0.361331
0.690284
0.324629
0.685018
0.693418
0.347968
0.309985
0.308141
0.339917
0.316799
0.349686
0.357141
0.563253
0.662262
0.697601
0.699582
0.566985
0.569891
0.485807
0.678036
0.348347
0.561671
0.515657
0.314783
0.570833
0.703134
0.592191
0.368402
0.521936
0.661568
0.687515
0.536744
0.625442
0.431873
0.329226
0.494843
0.343924
0.324871
0.338801
0.363607
0.693097
0.561515
0.313165
0.328851
0.450979
0.337988
0.334566
0.336223
0.594713
0.364225
0.562804
0.562198
0.672348
0.658534
0.530604
0.324301
0.318585
0.342688
0.697154
0.588138
0.560493
0.34458
0.51576
0.562824
0.693626
0.692003
0.666157
0.475689
0.351387
0.345886
0.648043
0.337561
0.595136
0.343331
0.659271
0.337868
0.350231
0.339508
0.556892
0.444529
0.69925
0.347806
0.560167
0.648174
0.414558
0.590437
0.334014
0.348688
0.701503
0.340351
0.69679
0.703101
0.338638
0.656499
0.33878
0.448646
0.450588
0.316991
0.687062
0.641794
0.332655
0.30453
0.665317
0.646202
0.570374
0.644067
0.302471
0.31348
0.562367
0.345776
0.679588
0.355546
0.352062
0.576695
0.690358
0.341685
0.633507
0.422599
0.696051
0.348774
0.662005
0.572518
0.329746
0.572898
0.647487
0.345197
0.298637
0.696518
0.30188
0.694065
0.652158
0.308467
0.687735
0.654841
0.697705
0.701528
0.684524
0.664759
0.68988
0.651824
0.396159
0.343492
0.697
0.701574
0.340576
0.695366
0.557877
0.339746
0.339295
0.326365
0.578133
0.325429
0.58857
0.587665
0.698422
0.328577
0.590507
0.646684
0.591123
0.685046
0.31698
0.299624
0.693251
0.566672
0.576734
0.325055
0.33927
0.59797
0.349364
0.347628
0.687165
0.560193
0.665595
0.329926
0.336356
0.616802
0.683014
0.302571
0.672558
0.560676
0.338833
0.557799
0.697988
0.630923
0.348918
0.320982
0.601149
0.347614
0.684443
0.430274
0.70064
0.465395
0.452336
0.332133
0.332125
0.411696
0.689433
0.698206
0.691144
0.679382
0.652248
0.570868
0.336674
0.699676
0.686847
0.342317
0.334704
0.625595
0.324038
0.681933
0.668161
0.34222
0.33912
0.333183
0.338819
0.560486
0.341466
0.340449
0.43978
0.300523
0.700645
0.693418
0.566946
0.56901
0.327557
0.69924
0.326519
0.613435
0.33338
0.333031
0.696898
0.591958
0.351466
0.323095
0.698744
0.450644
0.619494
0.65971
0.396184
0.697802
0.358462
0.342235
0.661685
0.348043
0.700361
0.354977
0.440242
0.320559
0.697682
0.570974
0.526144
0.660375
0.366637
0.685406
0.436521
0.335569
0.689301
0.349071
0.672055
0.499128
0.61872
0.359445
0.407934
0.334451
0.35683
0.334035
0.348259
0.657581
0.700706
0.697249
0.569419
0.344436
0.681458
0.562968
0.694354
0.316934
0.684556
0.350268
0.66035
0.662772
0.339048
0.561689
0.43459
0.650879
0.350822
0.615197
0.684242
0.349939
0.699432
0.323934
0.693116
0.327793
0.341461
0.491523
0.682448
0.694234
0.533436
0.352138
0.313414
0.500283
0.681862
0.68966
0.700811
0.696534
0.701648
0.337273
0.630494
0.642551
0.342593
0.324164
0.343279
0.606945
0.702996
0.421746
0.455878
0.43535
0.349012
0.698968
0.701137
0.566577
0.691646
0.471444
0.678302
0.702182
0.404515
0.692522
0.409104
0.430876
0.699115
0.694522
0.685387
0.686213
0.332882
0.341299
0.692608
0.691431
0.337239
0.698327
0.610971
0.693682
0.349258
0.34744
0.702455
0.331708
0.555559
0.697328
0.702911
0.342711
0.69817
0.295438
0.314891
0.320172
0.450944
0.696232
0.429759
0.689071
0.359995
0.323717
0.693854
0.336314
0.362045
0.342092
0.340347
0.414794
0.341773
0.332317
0.514311
0.531043
0.329137
0.351399
0.700684
0.329102
0.493014
0.693948
0.663003
0.685994
0.676361
0.602453
0.546213
0.349919
0.435263
0.689179
0.651907
0.343656
0.665765
0.331444
0.362385
0.350447
0.685377
0.697359
0.340046
0.686825
0.701903
0.343108
0.343134
0.676811
0.564501
0.415456
0.679089
0.479084
0.338834
0.67605
0.336401
0.58536
0.6538
0.550187
0.684326
0.335031
0.346096
0.702564
0.46539
0.334889
0.34788
0.342407
0.330076
0.670856
0.693881
0.690852
0.341894
0.318144
0.339465
0.338037
0.696643
0.348525
0.53756
0.33823
0.701033
0.696653
0.331839
0.569164
0.457325
0.680164
0.367233
0.698169
0.661129
0.694084
0.660516
0.57192
0.696961
0.35058
0.569056
0.339135
0.658203
0.341801
0.345144
0.700817
0.602633
0.677585
0.299219
0.317333
0.700912
0.689606
0.338984
0.701575
0.343835
0.374987
0.312232
0.693173
0.701181
0.646494
0.347643
0.369206
0.344258
0.298956
0.702465
0.562633
0.687243
0.294531
0.334748
0.555247
0.687775
0.679737
0.678085
0.565352
0.48583
0.685392
0.692889
0.691997
0.322647
0.687354
0.647027
0.561219
0.703024
0.683441
0.68174
0.440375
0.698482
0.340507
0.690447
0.585536
0.285841
0.561944
0.565814
0.693304
0.340375
0.336671
0.672539
0.365459
0.340327
0.692254
0.365378
0.495845
0.680279
0.35865
0.694236
0.336643
0.594923
0.69993
0.695356
0.68691
0.404524
0.332559
0.661431
0.578315
0.329494
0.583201
0.37982
0.59856
0.338502
0.573797
0.690973
0.564029
0.319285
0.617516
0.351561
0.486244
0.521966
0.340078
0.341919
0.335934
0.586146
0.55134
0.518799
0.331939
0.577545
0.66959
0.333704
0.582021
0.338451
0.564716
0.635701
0.560113
0.702297
0.360667
0.342364
0.578048
0.699355
0.643402
0.664785
0.683482
0.606996
0.578882
0.328806
0.614269
0.453751
0.409596
0.419277
0.568122
0.690277
0.69088
0.465875
0.291358
0.677739
0.338719
0.343423
0.500887
0.338835
0.559052
0.3158
0.561255
0.30511
0.342153
0.502535
0.69833
0.317108
0.375936
0.689227
0.699602
0.69475
0.336067
0.373409
0.689649
0.351997
0.373426
0.336911
0.52055
0.69592
0.338234
0.690702
0.305343
0.627414
0.701088
0.425451
0.54155
0.582667
0.638918
0.688616
0.700846
0.701844
0.697815
0.667298
0.560504
0.34723
0.489773
0.688936
0.358943
0.696742
0.652397
0.355259
0.698874
0.665527
0.696137
0.672563
0.669216
0.666312
0.379486
0.651762
0.342994
0.370282
0.702714
0.576347
0.350752
0.335171
0.69285
0.482937
0.622765
0.328784
0.307654
0.687947
0.653447
0.699344
0.69381
0.661914
0.456003
0.562878
0.33956
0.560964
0.661255
0.660234
0.351973
0.448855
0.693792
0.661836
0.70153
0.172746
0.56706
0.325084
0.32402
0.300113
0.687574
0.694569
0.682223
0.56955
0.341311
0.58584
0.45441
0.684603
0.694306
0.661845
0.323565
0.389667
0.682713
0.33999
0.516348
0.650225
0.338773
0.350556
0.640059
0.678325
0.337092
0.564656
0.69787
0.326506
0.566918
0.701539
0.692109
0.349876
0.352378
0.676583
0.425325
0.339274
0.487347
0.626406
0.350706
0.447198
0.341182
0.362426
0.674549
0.323944
0.32787
0.699619
0.300867
0.390472
0.699261
0.690623
0.677636
0.567191
0.675298
0.333508
0.693277
0.694407
0.397823
0.700736
0.699931
0.561285
0.560509
0.350167
0.568614
0.346952
0.564845
0.404288
0.595241
0.339404
0.647
0.39746
0.676035
0.695092
0.692345
0.596378
0.673749
0.702835
0.365153
0.694106
0.342655
0.560044
0.700434
0.301077
0.482037
0.340096
0.338463
0.560373
0.437139
0.701894
0.176792
0.636788
0.675585
0.689172
0.501821
0.343657
0.339796
0.334615
0.354801
0.68274
0.435864
0.338159
0.700688
0.341938
0.452953
0.702068
0.699376
0.669043
0.681345
0.317819
0.589272
0.400498
0.560589
0.688915
0.643381
0.348025
0.6812
0.679492
0.693716
0.675024
0.676299
0.445601
0.601359
0.673685
0.609521
0.629884
0.33625
0.651391
0.348574
0.572005
0.676829
0.605608
0.698484
0.581797
0.603984
0.702635
0.330076
0.691753
0.311141
0.338875
0.673417
0.663912
0.662604
0.637936
0.663567
0.560545
0.692777
0.561221
0.677368
0.701003
0.692168
0.350002
0.676875
0.701028
0.391
0.667386
0.339632
0.581782
0.33598
0.658317
0.325488
0.333766
0.341478
0.650953
0.699859
0.510199
0.646084
0.338648
0.340105
0.625635
0.700411
0.349457
0.689269
0.531539
0.342711
0.687881
0.331639
0.335079
0.682444
0.603508
0.328111
0.684409
0.702077
0.696397
0.335267
0.696251
0.334331
0.577076
0.471538
0.632313
0.330047
0.691041
0.341836
0.341527
0.334454
0.695631
0.376419
0.684508
0.686188
0.644702
0.349528
0.401504
0.699121
0.39022
0.306296
0.335713
0.702226
0.384791
0.340461
0.357953
0.614744
0.340656
0.337466
0.347402
0.69967
0.697406
0.339154
0.701984
0.700917
0.653782
0.311643
0.385026
0.662904
0.338445
0.695041
0.384288
0.699854
0.329481
0.282661
0.672278
0.327088
0.303823
0.332642
0.599892
0.378108
0.579097
0.671084
0.325797
0.648819
0.322556
0.688895
0.503953
0.34005
0.340123
0.701054
0.525529
0.680748
0.312824
0.342427
0.597772
0.560072
0.331889
0.336044
0.292984
0.498568
0.673112
0.347527
0.614293
0.700172
0.664568
0.697385
0.317972
0.665309
0.391137
0.700035
0.700402
0.645762
0.34143
0.685789
0.688155
0.340726
0.700146
0.670174
0.335193
0.297377
0.336243
0.343741
0.700073
0.334447
0.691211
0.460602
0.56042
0.61124
0.433151
0.667817
0.34563
0.633695
0.335636
0.632826
0.694247
0.319355
0.328448
0.343523
0.570881
0.692402
0.320761
0.349549
0.338505
0.540914
0.692841
0.357413
0.333246
0.692104
0.665747
0.691673
0.322043
0.346981
0.688638
0.640145
0.340127
0.344414
0.556249
0.691874
0.683756
0.372942
0.664746
0.700762
0.386125
0.701447
0.325916
0.6702
0.37596
0.412228
0.329048
0.34304
0.700248
0.333621
0.316964
0.336804
0.342068
0.674112
0.662231
0.690654
0.339983
0.560494
0.690988
0.702976
0.685191
0.68005
0.692254
0.688176
0.687442
0.677
0.699422
0.34853
0.641345
0.698696
0.396888
0.677832
0.692356
0.702522
0.701994
0.338501
0.680731
0.561333
0.693658
0.339278
0.695139
0.699696
0.685999
0.667223
0.332359
0.588202
0.351644
0.490983
0.340109
0.339856
0.341631
0.331988
0.645581
0.663509
0.677255
0.30766
0.692167
0.571378
0.702338
0.325277
0.338074
0.689169
0.335713
0.372212
0.340668
0.677076
0.520414
0.691271
0.337644
0.687904
0.700107
0.64095
0.678447
0.341635
0.694022
0.702696
0.680514
0.699009
0.699105
0.63583
0.314993
0.348616
0.339397
0.639641
0.344993
0.665613
0.690808
0.689853
0.333888
0.347562
0.588815
0.70015
0.572433
0.330996
0.694524
0.57645
0.353885
0.617142
0.338354
0.417366
0.33994
0.331917
0.339106
0.699673
0.695615
0.694791
0.567766
0.665848
0.663974
0.693637
0.607504
0.690857
0.688731
0.646192
0.643323
0.299465
0.565209
0.698313
0.507782
0.322221
0.668485
0.346504
0.701851
0.49148
0.676299
0.683703
0.334881
0.663944
0.300644
0.681269
0.699886
0.685656
0.594568
0.673376
0.682439
0.668212
0.351674
0.531149
0.512729
0.320726
0.641966
0.701911
0.578305
0.691063
0.695837
0.605681
0.338656
0.320812
0.652361
0.692062
0.333273
0.30509
0.692263
0.700538
0.699784
0.340242
0.647588
0.675885
0.676434
0.322529
0.611605
0.588063
0.647244
0.614247
0.5698
0.702841
0.346331
0.685488
0.327869
0.339687
0.621795
0.410058
0.434569
0.306669
0.67592
0.693112
0.598439
0.695855
0.566336
0.347288
0.414181
0.697452
0.700254
0.674707
0.598196
0.323444
0.685006
0.517351
0.332168
0.701132
0.699773
0.336583
0.702266
0.695357
0.562298
0.56367
0.656386
0.419907
0.660075
0.700408
0.693114
0.341171
0.648513
0.505189
0.641234
0.698818
0.694935
0.700399
0.702384
0.689785
0.701684
0.685365
0.307192
0.683972
0.627301
0.340898
0.604692
0.70287
0.693344
0.689496
0.330468
0.668929
0.340601
0.683256
0.642775
0.700473
0.301683
0.667065
0.70292
0.566495
0.662033
0.67081
0.564451
0.626784
0.45985
0.312166
0.353763
0.562488
0.35299
0.333718
0.675751
0.319722
0.685708
0.34688
0.702226
0.316055
0.298318
0.682986
0.47235
0.354935
0.698655
0.690521
0.701598
0.339985
0.691739
0.702432
0.701616
0.304537
0.5618
0.702289
0.331906
0.631135
0.620343
0.678763
0.34583
0.457599
0.620947
0.335881
0.672253
0.337023
0.337554
0.601849
0.459582
0.667164
0.33736
0.700461
0.561354
0.561537
0.276189
0.334488
0.582297
0.343891
0.561766
0.351325
0.684415
0.683519
0.585439
0.562317
0.634098
0.327347
0.699416
0.690642
0.699708
0.563207
0.341934
0.346936
0.340793
0.338693
0.5992
0.341601
0.643039
0.327798
0.680977
0.687031
0.635573
0.337211
0.686111
0.336175
0.698533
0.69971
0.344982
0.686448
0.69936
0.328048
0.69612
0.338068
0.348642
0.692897
0.4133
0.699083
0.300195
0.330789
0.6731
0.347317
0.669427
0.320592
0.580195
0.694947
0.700405
0.467371
0.349832
0.385285
0.565021
0.560939
0.343743
0.699051
0.32927
0.701527
0.314915
0.328547
0.619635
0.578463
0.51207
0.693879
0.698513
0.597885
0.631792
0.687936
0.644401
0.338641
0.694663
0.346746
0.342261
0.676688
0.488443
0.461853
0.529618
0.335387
0.691216
0.566051
0.7011
0.331673
0.339466
0.636611
0.632201
0.702841
0.693464
0.325979
0.634256
0.684639
0.69397
0.528272
0.335007
0.293478
0.331113
0.695
0.699413
0.408857
0.343511
0.523965
0.300927
0.690864
0.634993
0.384981
0.613907
0.481561
0.684203
0.701841
0.327993
0.345697
0.659591
0.331634
0.461706
0.697542
0.350716
0.330218
0.332916
0.623653
0.671058
0.622627
0.341521
0.33601
0.653454
0.698562
0.671978
0.700331
0.337809
0.331352
0.344516
0.627874
0.340947
0.332793
0.696492
0.675032
0.633499
0.329785
0.335359
0.332827
0.663298
0.378394
0.679329
0.56224
0.700424
0.528655
0.700501
0.693347
0.387732
0.336643
0.701566
0.337477
0.560262
0.693873
0.688992
0.518281
0.335786
0.345231
0.700276
0.476906
0.408177
0.68854
0.702635
0.357926
0.337353
0.639038
0.552578
0.303594
0.342149
0.686774
0.602539
0.698526
0.674422
0.405106
0.347794
0.344165
0.466595
0.370329
0.560088
0.697997
0.620262
0.675096
0.352232
0.678839
0.351564
0.688179
0.688901
0.337337
0.331263
0.683843
0.453998
0.578066
0.701994
0.343054
0.701001
0.660467
0.65212
0.564826
0.69765
0.345546
0.341646
0.343217
0.619668
0.676629
0.693365
0.549982
0.328349
0.340139
0.624256
0.330569
0.694382
0.653787
0.702422
0.398761
0.293377
0.55852
0.689484
0.560523
0.697623
0.640908
0.641006
0.702711
0.678019
0.318331
0.575863
0.681356
0.697351
0.327993
0.687878
0.519508
0.698487
0.693489
0.540425
0.613323
0.68093
0.644857
0.560982
0.298951
0.70045
0.691355
0.344506
0.694357
0.338476
0.343316
0.560089
0.674901
0.340851
0.604836
0.657682
0.344295
0.351389
0.697725
0.69005
0.585895
0.344285
0.614961
0.302774
0.692872
0.689754
0.337927
0.61411
0.62681
0.30631
0.328147
0.348048
0.699858
0.69887
0.336926
0.347421
0.430999
0.344477
0.347431
0.687622
0.291533
0.69121
0.701105
0.699308
0.31423
0.700269
0.626828
0.687141
0.535172
0.699821
0.325677
0.361772
0.338384
0.691572
0.39428
0.33751
0.691018
0.339899
0.562207
0.61854
0.53167
0.395512
0.318676
0.695555
0.701284
0.697556
0.697776
0.699531
0.338687
0.345106
0.341474
0.622837
0.696314
0.336951
0.695838
0.335296
0.408664
0.648515
0.337935
0.350971
0.333372
0.457754
0.335749
0.664957
0.699665
0.702219
0.395469
0.672119
0.69795
0.337198
0.675612
0.432882
0.684297
0.350219
0.456268
0.682735
0.293979
0.350303
0.699203
0.640416
0.337309
0.685706
0.604691
0.700208
0.474421
0.341828
0.664877
0.700738
0.448721
0.347811
0.552423
0.525575
0.635088
0.340046
0.328255
0.691835
0.699697
0.339988
0.337125
0.677775
0.293316
0.346315
0.317224
0.546884
0.685507
0.317515
0.698266
0.331592
0.331632
0.350515
0.529191
0.344991
0.700827
0.309504
0.350412
0.581677
0.696631
0.420726
0.570446
0.339867
0.321558
0.685575
0.692275
0.659604
0.62461
0.695282
0.698051
0.305743
0.694693
0.350342
0.565246
0.670584
0.486383
0.657078
0.586773
0.700947
0.672447
0.556057
0.352603
0.509681
0.340173
0.695468
0.697554
0.621134
0.330336
0.701529
0.423493
0.563436
0.313229
0.403149
0.692989
0.348186
0.683841
0.692496
0.487106
0.340645
0.412713
0.676669
0.510817
0.339315
0.700627
0.316228
0.671962
0.351969
0.343369
0.33942
0.701405
0.489996
0.58859
0.337146
0.345418
0.69486
0.7004
0.345786
0.433999
0.344533
0.580615
0.321232
0.641046
0.69389
0.572426
0.306598
0.308518
0.556754
0.651673
0.68825
0.699451
0.345654
0.687668
0.698426
0.580447
0.564451
0.324507
0.693879
0.330504
0.62255
0.699823
0.697544
0.699992
0.681282
0.696235
0.699835
0.697822
0.688617
0.694376
0.702374
0.692679
0.702488
0.334769
0.316591
0.654679
0.624464
0.580716
0.560115
0.690052
0.642276
0.689189
0.337152
0.31048
0.561834
0.337702
0.319415
0.340672
0.700514
0.655837
0.649952
0.694212
0.695952
0.341035
0.679049
0.339611
0.32987
0.695764
0.695747
0.682718
0.468889
0.464601
0.330112
0.317472
0.469994
0.35166
0.447844
0.69193
0.337388
0.688337
0.33622
0.685379
0.702251
0.359123
0.350632
0.694676
0.562773
0.335973
0.660313
0.354813
0.419648
0.303255
0.53954
0.701599
0.56007
0.630644
0.300913
0.345389
0.358352
0.341353
0.560948
0.685836
0.699105
0.343428
0.339057
0.61612
0.700633
0.699473
0.34589
0.647192
0.557257
0.693643
0.510625
0.345411
0.397443
0.346533
0.700289
0.306116
0.338278
0.561393
0.350065
0.656758
0.352016
0.345
0.468072
0.350007
0.684721
0.561184
0.644663
0.528568
0.697539
0.656199
0.672813
0.346141
0.635977
0.674369
0.634181
0.702705
0.70222
0.687696
0.506344
0.700578
0.701894
0.347839
0.338942
0.696832
0.486385
0.702329
0.338966
0.689472
0.34735
0.687119
0.676503
0.656177
0.699031
0.679586
0.684193
0.340595
0.342999
0.66522
0.690422
0.697531
0.533577
0.68848
0.601531
0.598254
0.63452
0.59174
0.641003
0.691593
0.562667
0.340212
0.338861
0.683023
0.624982
0.31236
0.34925
0.502147
0.561012
0.560074
0.691488
0.3424
0.686862
0.344998
0.700882
0.309338
0.681143
0.349721
0.694246
0.342849
0.65388
0.535484
0.321378
0.343403
0.594503
0.333664
0.678215
0.324239
0.640049
0.560438
0.676326
0.698785
0.700514
0.68961
0.602045
0.689588
0.70022
0.673354
0.627582
0.692031
0.682593
0.32928
0.607066
0.603779
0.70187
0.345375
0.638523
0.687812
0.62374
0.338977
0.339704
0.343468
0.680231
0.693195
0.336327
0.658943
0.470035
0.621404
0.385858
0.503672
0.344921
0.374395
0.694236
0.38011
0.618598
0.319337
0.691645
0.34092
0.629013
0.628793
0.6935
0.346496
0.352648
0.405543
0.685872
0.329771
0.402471
0.330718
0.696749
0.696145
0.682628
0.681987
0.654011
0.688346
0.511911
0.351568
0.700697
0.323054
0.54336
0.678803
0.690025
0.275938
0.351432
0.696195
0.627218
0.496532
0.642831
0.669595
0.670942
0.350552
0.690503
0.67869
0.69891
0.701436
0.377707
0.560353
0.318423
0.700487
0.699437
0.653194
0.693759
0.420093
0.701094
0.285298
0.470352
0.688926
0.621756
0.699469
0.538177
0.312108
0.701757
0.69867
0.320335
0.339232
0.342567
0.69368
0.339655
0.34949
0.336138
0.347929
0.332241
0.425299
0.689629
0.335735
0.673249
0.695942
0.303544
0.676468
0.342123
0.686636
0.337383
0.651968
0.333387
0.697792
0.696055
0.509797
0.643197
0.702085
0.636753
0.310323
0.622381
0.535084
0.341228
0.324809
0.47743
0.348332
0.682869
0.332184
0.342297
0.386742
0.560303
0.685748
0.323029
0.334896
0.696424
0.323844
0.347159
0.585705
0.387008
0.346353
0.344249
0.692351
0.619943
0.699003
0.333563
0.361047
0.687177
0.63731
0.599075
0.481607
0.671415
0.699735
0.499433
0.473339
0.306407
0.336979
0.298217
0.628478
0.350932
0.688751
0.643968
0.692217
0.34039
0.505647
0.496564
0.697041
0.346981
0.624192
0.305235
0.639461
0.318847
0.350305
0.349379
0.695369
0.337891
0.691832
0.352822
0.449688
0.32178
0.610643
0.341354
0.68866
0.350669
0.685706
0.634329
0.308628
0.695705
0.698603
0.349445
0.693596
0.351424
0.30661
0.69111
0.346114
0.634338
0.349374
0.321935
0.669348
0.317733
0.42291
0.353153
0.34475
0.317292
0.647963
0.541059
0.699385
0.695657
0.648701
0.692054
0.526356
0.701435
0.346043
0.695242
0.310872
0.696473
0.33651
0.471716
0.697029
0.694899
0.7006
0.421436
0.614384
0.342433
0.347539
0.348869
0.283237
0.690389
0.520761
0.69161
0.674643
0.622395
0.668656
0.701276
0.474197
0.352112
0.421414
0.679489
0.607114
0.654809
0.686848
0.691885
0.498024