# vtk DataFile Version 1.0
unstructured grid
ascii
DATASET UNSTRUCTURED_GRID
points 3226 float
0.0796578 -0.059106 0
0.00128732 0.00159165 0
0.00227961 -0.00102548 0
0.0791586 -0.0598787 0
-0.0546216 0.01 0
0.000495206 0.025 0
0.0800549 -0.035 0
0.135172 -0.08 0
-0.0546216 -0.0451168 0
0.000495206 -0.0301168 0
0.0800549 -0.0901168 0
0.135172 -0.135117 0
-0.0546216 -0.0451168 -0.00551168
0.000495206 -0.0301168 -0.00551168
0.0800549 -0.0901168 -0.00551168
0.135172 -0.135117 -0.00551168
0.135172 -0.08 -0.00551168
0.0800549 -0.035 -0.00551168
0.000495206 0.025 -0.00551168
-0.0546216 0.01 -0.00551168
0.00128732 0.00159165 -0.00551168
0.00227961 -0.00102548 -0.00551168
0.0791586 -0.0598787 -0.00551168
0.0796578 -0.059106 -0.00551168
0.00110182 -0.000823821 0
0.000571683 -0.000188043 0
0.000561313 0.000639162 0
0.00189316 0.00207203 0
0.00260228 0.00255358 0
0.0033966 0.00307293 0
0.00428861 0.00362634 0
0.00529726 0.0041979 0
0.00644092 0.00476696 0
0.00773158 0.0053187 0
0.00918011 0.00583593 0
0.010799 0.00628751 0
0.012597 0.00663225 0
0.0145725 0.0068517 0
0.0167206 0.0069338 0
0.0190349 0.00685819 0
0.0215031 0.00658621 0
0.0241038 0.00607459 0
0.026821 0.00533786 0
0.0296245 0.00434523 0
0.0324763 0.00306927 0
0.0353199 0.00146906 0
0.0381488 -0.00039338 0
0.0409131 -0.00252802 0
0.0435632 -0.00493276 0
0.0460882 -0.0075571 0
0.0484881 -0.0103478 0
0.0506782 -0.0133217 0
0.0526651 -0.016422 0
0.0546139 -0.0195019 0
0.0565301 -0.022529 0
0.0584009 -0.0254846 0
0.0602154 -0.0283513 0
0.061964 -0.031114 0
0.0636389 -0.0337601 0
0.0652336 -0.0362795 0
0.0667431 -0.0386651 0
0.0681656 -0.0409111 0
0.0694983 -0.0430158 0
0.0707356 -0.0449823 0
0.071886 -0.0468071 0
0.0729575 -0.04849 0
0.0739438 -0.0500408 0
0.0748444 -0.0514675 0
0.0756707 -0.0527715 0
0.0764313 -0.053958 0
0.0771224 -0.0550398 0
0.0777384 -0.0560288 0
0.0782803 -0.0569318 0
0.0787691 -0.0577448 0
0.0792251 -0.0584672 0
0.0800494 -0.0597378 0
0.0797987 -0.0601582 0
0.0786655 -0.059391 0
0.0781259 -0.0588425 0
0.0775539 -0.0582102 0
0.0769587 -0.0574783 0
0.0763492 -0.0566339 0
0.075723 -0.0556725 0
0.0750452 -0.0546094 0
0.0742996 -0.0534457 0
0.073478 -0.0521785 0
0.072577 -0.0508019 0
0.0715904 -0.049313 0
0.0705098 -0.047712 0
0.069328 -0.0459996 0
0.0680378 -0.0441794 0
0.066632 -0.0422571 0
0.0651046 -0.0402413 0
0.0634508 -0.0381431 0
0.0616683 -0.0359754 0
0.0597581 -0.033753 0
0.0577255 -0.0314906 0
0.0555808 -0.0292024 0
0.0533388 -0.0269013 0
0.0510024 -0.0246151 0
0.0485693 -0.0223811 0
0.0460535 -0.0202228 0
0.0434788 -0.0181535 0
0.0408704 -0.0161833 0
0.0382442 -0.0143327 0
0.0356165 -0.0126209 0
0.0330065 -0.0110594 0
0.0304368 -0.00965062 0
0.0279338 -0.00838121 0
0.0255194 -0.00723697 0
0.0231965 -0.00623664 0
0.020983 -0.00535765 0
0.0188891 -0.00458677 0
0.0169193 -0.00391673 0
0.0150754 -0.00334068 0
0.0133572 -0.00285262 0
0.0117634 -0.0024437 0
0.0102912 -0.00210643 0
0.0089363 -0.00183343 0
0.00769424 -0.00161552 0
0.00655956 -0.00144452 0
0.00552632 -0.00131235 0
0.00458815 -0.00121216 0
0.00373885 -0.00113394 0
0.00297202 -0.00106855 0
-0.0506847 -0.0440454 0
-0.0467478 -0.0429739 0
-0.0428108 -0.0419025 0
-0.0388739 -0.0408311 0
-0.034937 -0.0397597 0
-0.0310001 -0.0386882 0
-0.0270632 -0.0376168 0
-0.0231263 -0.0365454 0
-0.0191894 -0.0354739 0
-0.0152525 -0.0344025 0
-0.0113155 -0.0333311 0
-0.00737862 -0.0322597 0
-0.00344171 -0.0311882 0
0.0038716 -0.0298185 0
0.00726082 -0.0297726 0
0.010644 -0.0299802 0
0.0140027 -0.0304367 0
0.0173201 -0.0311326 0
0.0205821 -0.0320541 0
0.0237776 -0.0331851 0
0.0268988 -0.0345078 0
0.0299406 -0.0360041 0
0.0329005 -0.0376567 0
0.035778 -0.039449 0
0.038574 -0.0413659 0
0.0412905 -0.043394 0
0.0439303 -0.0455212 0
0.0464964 -0.0477367 0
0.0489922 -0.0500312 0
0.051421 -0.0523964 0
0.0537863 -0.0548252 0
0.0560914 -0.0573112 0
0.0583395 -0.0598489 0
0.0605336 -0.0624334 0
0.0626765 -0.0650605 0
0.064771 -0.0677264 0
0.0668197 -0.0704277 0
0.0688248 -0.0731615 0
0.0707885 -0.0759252 0
0.072713 -0.0787163 0
0.0746002 -0.0815329 0
0.0764517 -0.0843729 0
0.0782695 -0.0872347 0
0.0829558 -0.0924852 0
0.0858567 -0.0948536 0
0.0887575 -0.0972221 0
0.0916584 -0.0995905 0
0.0945593 -0.101959 0
0.0974602 -0.104327 0
0.100361 -0.106696 0
0.103262 -0.109064 0
0.106163 -0.111433 0
0.109064 -0.113801 0
0.111965 -0.116169 0
0.114865 -0.118538 0
0.117766 -0.120906 0
0.120667 -0.123275 0
0.123568 -0.125643 0
0.126469 -0.128012 0
0.12937 -0.13038 0
0.132271 -0.132748 0
0.135172 -0.13118 0
0.135172 -0.127243 0
0.135172 -0.123306 0
0.135172 -0.119369 0
0.135172 -0.115432 0
0.135172 -0.111495 0
0.135172 -0.107558 0
0.135172 -0.103621 0
0.135172 -0.0996846 0
0.135172 -0.0957477 0
0.135172 -0.0918107 0
0.135172 -0.0878738 0
0.135172 -0.0839369 0
0.132271 -0.0776316 0
0.12937 -0.0752632 0
0.126469 -0.0728947 0
0.123568 -0.0705263 0
0.120667 -0.0681579 0
0.117766 -0.0657895 0
0.114865 -0.0634211 0
0.111965 -0.0610526 0
0.109064 -0.0586842 0
0.106163 -0.0563158 0
0.103262 -0.0539474 0
0.100361 -0.0515789 0
0.0974602 -0.0492105 0
0.0945593 -0.0468421 0
0.0916584 -0.0444737 0
0.0887575 -0.0421053 0
0.0858567 -0.0397368 0
0.0829558 -0.0373684 0
0.0782695 -0.0321179 0
0.0764517 -0.0292561 0
0.0746002 -0.026416 0
0.072713 -0.0235995 0
0.0707885 -0.0208084 0
0.0688248 -0.0180447 0
0.0668197 -0.0153109 0
0.064771 -0.0126096 0
0.0626765 -0.00994373 0
0.0605336 -0.00731663 0
0.0583395 -0.00473208 0
0.0560914 -0.00219437 0
0.0537863 0.000291632 0
0.051421 0.00272041 0
0.0489922 0.00508564 0
0.0464964 0.00738012 0
0.0439303 0.00959562 0
0.0412905 0.0117228 0
0.038574 0.0137509 0
0.035778 0.0156678 0
0.0329005 0.0174601 0
0.0299406 0.0191127 0
0.0268988 0.020609 0
0.0237776 0.0219317 0
0.0205821 0.0230627 0
0.0173201 0.0239842 0
0.0140027 0.0246801 0
0.010644 0.0251366 0
0.00726082 0.0253442 0
0.0038716 0.0252983 0
-0.00344171 0.0239286 0
-0.00737862 0.0228571 0
-0.0113155 0.0217857 0
-0.0152525 0.0207143 0
-0.0191894 0.0196429 0
-0.0231263 0.0185714 0
-0.0270632 0.0175 0
-0.0310001 0.0164286 0
-0.034937 0.0153571 0
-0.0388739 0.0142857 0
-0.0428108 0.0132143 0
-0.0467478 0.0121429 0
-0.0506847 0.0110714 0
-0.0546216 0.00606309 0
-0.0546216 0.00212617 0
-0.0546216 -0.00181074 0
-0.0546216 -0.00574766 0
-0.0546216 -0.00968457 0
-0.0546216 -0.0136215 0
-0.0546216 -0.0175584 0
-0.0546216 -0.0214953 0
-0.0546216 -0.0254322 0
-0.0546216 -0.0293691 0
-0.0546216 -0.0333061 0
-0.0546216 -0.037243 0
-0.0546216 -0.0411799 0
-0.0506847 -0.0440454 -0.00551168
-0.0467478 -0.0429739 -0.00551168
-0.0428108 -0.0419025 -0.00551168
-0.0388739 -0.0408311 -0.00551168
-0.034937 -0.0397597 -0.00551168
-0.0310001 -0.0386882 -0.00551168
-0.0270632 -0.0376168 -0.00551168
-0.0231263 -0.0365454 -0.00551168
-0.0191894 -0.0354739 -0.00551168
-0.0152525 -0.0344025 -0.00551168
-0.0113155 -0.0333311 -0.00551168
-0.00737862 -0.0322597 -0.00551168
-0.00344171 -0.0311882 -0.00551168
0.0038716 -0.0298185 -0.00551168
0.00726082 -0.0297726 -0.00551168
0.010644 -0.0299802 -0.00551168
0.0140027 -0.0304367 -0.00551168
0.0173201 -0.0311326 -0.00551168
0.0205821 -0.0320541 -0.00551168
0.0237776 -0.0331851 -0.00551168
0.0268988 -0.0345078 -0.00551168
0.0299406 -0.0360041 -0.00551168
0.0329005 -0.0376567 -0.00551168
0.035778 -0.039449 -0.00551168
0.038574 -0.0413659 -0.00551168
0.0412905 -0.043394 -0.00551168
0.0439303 -0.0455212 -0.00551168
0.0464964 -0.0477367 -0.00551168
0.0489922 -0.0500312 -0.00551168
0.051421 -0.0523964 -0.00551168
0.0537863 -0.0548252 -0.00551168
0.0560914 -0.0573112 -0.00551168
0.0583395 -0.0598489 -0.00551168
0.0605336 -0.0624334 -0.00551168
0.0626765 -0.0650605 -0.00551168
0.064771 -0.0677264 -0.00551168
0.0668197 -0.0704277 -0.00551168
0.0688248 -0.0731615 -0.00551168
0.0707885 -0.0759252 -0.00551168
0.072713 -0.0787163 -0.00551168
0.0746002 -0.0815329 -0.00551168
0.0764517 -0.0843729 -0.00551168
0.0782695 -0.0872347 -0.00551168
0.0829558 -0.0924852 -0.00551168
0.0858567 -0.0948536 -0.00551168
0.0887575 -0.0972221 -0.00551168
0.0916584 -0.0995905 -0.00551168
0.0945593 -0.101959 -0.00551168
0.0974602 -0.104327 -0.00551168
0.100361 -0.106696 -0.00551168
0.103262 -0.109064 -0.00551168
0.106163 -0.111433 -0.00551168
0.109064 -0.113801 -0.00551168
0.111965 -0.116169 -0.00551168
0.114865 -0.118538 -0.00551168
0.117766 -0.120906 -0.00551168
0.120667 -0.123275 -0.00551168
0.123568 -0.125643 -0.00551168
0.126469 -0.128012 -0.00551168
0.12937 -0.13038 -0.00551168
0.132271 -0.132748 -0.00551168
0.135172 -0.13118 -0.00551168
0.135172 -0.127243 -0.00551168
0.135172 -0.123306 -0.00551168
0.135172 -0.119369 -0.00551168
0.135172 -0.115432 -0.00551168
0.135172 -0.111495 -0.00551168
0.135172 -0.107558 -0.00551168
0.135172 -0.103621 -0.00551168
0.135172 -0.0996846 -0.00551168
0.135172 -0.0957477 -0.00551168
0.135172 -0.0918107 -0.00551168
0.135172 -0.0878738 -0.00551168
0.135172 -0.0839369 -0.00551168
0.132271 -0.0776316 -0.00551168
0.12937 -0.0752632 -0.00551168
0.126469 -0.0728947 -0.00551168
0.123568 -0.0705263 -0.00551168
0.120667 -0.0681579 -0.00551168
0.117766 -0.0657895 -0.00551168
0.114865 -0.0634211 -0.00551168
0.111965 -0.0610526 -0.00551168
0.109064 -0.0586842 -0.00551168
0.106163 -0.0563158 -0.00551168
0.103262 -0.0539474 -0.00551168
0.100361 -0.0515789 -0.00551168
0.0974602 -0.0492105 -0.00551168
0.0945593 -0.0468421 -0.00551168
0.0916584 -0.0444737 -0.00551168
0.0887575 -0.0421053 -0.00551168
0.0858567 -0.0397368 -0.00551168
0.0829558 -0.0373684 -0.00551168
0.0782695 -0.0321179 -0.00551168
0.0764517 -0.0292561 -0.00551168
0.0746002 -0.026416 -0.00551168
0.072713 -0.0235995 -0.00551168
0.0707885 -0.0208084 -0.00551168
0.0688248 -0.0180447 -0.00551168
0.0668197 -0.0153109 -0.00551168
0.064771 -0.0126096 -0.00551168
0.0626765 -0.00994373 -0.00551168
0.0605336 -0.00731663 -0.00551168
0.0583395 -0.00473208 -0.00551168
0.0560914 -0.00219437 -0.00551168
0.0537863 0.000291632 -0.00551168
0.051421 0.00272041 -0.00551168
0.0489922 0.00508564 -0.00551168
0.0464964 0.00738012 -0.00551168
0.0439303 0.00959562 -0.00551168
0.0412905 0.0117228 -0.00551168
[...]
CELL_DATA 2965
SCALARS rho float
LOOKUP_TABLE default
0.538012
0.329076
0.527583
0.351245
0.544365
0.319502
0.538107
0.334757
0.31758
0.528588
0.352321
0.334681
0.433908
0.539556
0.521106
0.520775
0.530273
0.520441
0.547059
0.531878
0.538029
0.338166
0.513553
0.538401
0.537977
0.548918
0.46912
0.487223
0.353476
0.509432
0.505534
0.317628
0.554242
0.53225
0.291233
0.321489
0.531718
0.536066
0.325257
0.509806
0.532713
0.506541
0.53801
0.33361
0.321168
0.53668
0.465818
0.479274
0.316329
0.538141
0.407563
0.33531
0.323836
0.433401
0.350196
0.433461
0.318883
0.346667
0.282909
0.48243
0.519102
0.484426
0.332805
0.546285
0.493449
0.537419
0.538169
0.337425
0.30993
0.330645
0.522155
0.545782
0.538177
0.291379
0.503821
0.417881
0.537957
0.333277
0.338244
0.472858
0.5382
0.330761
0.322411
0.442147
0.488696
0.389042
0.325696
0.274824
0.553106
0.318311
0.325829
0.536681
0.521778
0.517379
0.537607
0.317778
0.465382
0.286086
0.327134
0.335516
0.48075
0.334187
0.345974
0.323087
0.332551
0.531976
0.537936
0.335944
0.346366
0.538018
0.247964
0.400878
0.475423
0.499987
0.307096
0.303975
0.510292
0.462113
0.53814
0.354379
0.538201
0.249577
0.542464
0.543643
0.499193
0.414966
0.336482
0.468417
0.534081
0.279305
0.341402
0.438242
0.534908
0.333418
0.47029
0.313033
0.435661
0.5207
0.55547
0.544362
0.32928
0.519994
0.530861
0.344505
0.283959
0.547514
0.32741
0.543621
0.555854
0.319565
0.360199
0.358034
0.341431
0.329281
0.292686
0.271985
0.538074
0.534335
0.527502
0.540932
0.458932
0.467093
0.415345
0.54506
0.318795
0.538114
0.423371
0.334024
0.538117
0.539085
0.485681
0.303504
0.440906
0.523314
0.54914
0.4237
0.514926
0.367087
0.270676
0.429234
0.323965
0.269661
0.315864
0.312981
0.556151
0.538106
0.356585
0.341922
0.406572
0.364775
0.326119
0.34789
0.459395
0.29966
0.538186
0.468979
0.53694
0.492576
0.447184
0.340083
0.334656
0.313536
0.531686
0.45262
0.538132
0.302973
0.436042
0.538173
0.523075
0.537563
0.502019
0.40644
0.318922
0.319877
0.510253
0.33625
0.46765
0.311452
0.52118
0.366546
0.31752
0.33269
0.4649
0.396647
0.547067
0.272445
0.538153
0.525314
0.338569
0.48415
0.338051
0.281073
0.539277
0.319381
0.537228
0.539082
0.354489
0.53352
0.36777
0.360252
0.380552
0.360246
0.546043
0.525562
0.337261
0.247656
0.529097
0.537798
0.454444
0.510067
0.333171
0.350823
0.538079
0.310654
0.488004
0.278443
0.272589
0.538141
0.537157
0.330706
0.472727
0.339202
0.545305
0.321031
0.537296
0.538147
0.278163
0.478722
0.523605
0.293551
0.35738
0.537175
0.35441
0.552142
0.513834
0.351515
0.518947
0.518559
0.552596
0.534744
0.548397
0.476476
0.532628
0.53773
0.334739
0.308364
0.525661
0.541893
0.32737
0.534837
0.469301
0.323742
0.325076
0.325917
0.483248
0.328115
0.537948
0.484403
0.550882
0.357079
0.487532
0.491975
0.481544
0.537317
0.353986
0.247708
0.547092
0.538027
0.537967
0.333137
0.335221
0.486415
0.289296
0.296993
0.496757
0.538178
0.491498
0.235811
0.356164
0.487997
0.499205
0.334892
0.538033
0.538133
0.331106
0.425974
0.537009
0.517896
0.283093
0.356192
0.538121
0.31584
0.540077
0.376498
0.54235
0.401989
0.378031
0.332424
0.339248
0.318463
0.51527
0.549204
0.529693
0.545011
0.491635
0.481624
0.303213
0.537983
0.548905
0.331738
0.345469
0.538117
0.330496
0.520767
0.47998
0.327745
0.365649
0.319978
0.352428
0.538153
0.340342
0.329111
0.397107
0.336455
0.536932
0.537891
0.480531
0.538003
0.358523
0.533655
0.347272
0.538118
0.347738
0.33649
0.538593
0.471778
0.281463
0.268072
0.535797
0.368932
0.503888
0.51828
0.335258
0.534115
0.283779
0.327089
0.538059
0.294883
0.539011
0.278668
0.395838
0.33409
0.539121
0.473585
0.440098
0.537707
0.303412
0.548358
0.351572
0.314665
0.550869
0.300447
0.542427
0.435424
0.492493
0.282685
0.311131
0.31696
0.282383
0.321017
0.318919
0.532564
0.537795
0.538124
0.538165
0.309341
0.540762
0.472535
0.523188
0.263551
0.537096
0.318507
0.491081
0.483266
0.315663
0.538198
0.364561
0.525169
0.306323
0.49304
0.53763
0.299727
0.535081
0.269815
0.540529
0.3376
0.346616
0.432057
0.545334
0.542849
0.410156
0.275934
0.261252
0.425671
0.544891
0.531511
0.536973
0.534901
0.540027
0.34354
0.516756
0.490478
0.339175
0.271149
0.296057
0.501959
0.539071
0.381275
0.38831
0.383217
0.318985
0.5315
0.538269
0.538147
0.550417
0.411415
0.537597
0.538782
0.343682
0.54197
0.358265
0.3604
0.533933
0.538243
0.53981
0.547377
0.355607
0.337307
0.55441
0.53366
0.35654
0.53302
0.50483
0.538183
0.318564
0.298492
0.538913
0.356877
0.458537
0.538312
0.539015
0.33323
0.537027
0.355726
0.350439
0.33449
0.356702
0.537137
0.372844
0.520682
0.286132
0.341646
0.530115
0.334839
0.296413
0.334903
0.286121
0.374491
0.335076
0.338664
0.433094
0.444508
0.340127
0.317225
0.538995
0.35541
0.403167
0.537099
0.537667
0.499424
0.495974
0.447531
0.449883
0.289576
0.387368
0.537377
0.503763
0.277803
0.512825
0.242556
0.297438
0.29952
0.536555
0.552304
0.31526
0.501536
0.535256
0.295592
0.313088
0.543735
0.538059
0.375063
0.545354
0.38872
0.341978
0.543752
0.312389
0.460859
0.529737
0.418438
0.544707
0.341044
0.301721
0.540047
0.377698
0.33685
0.319425
0.320505
0.336827
0.537687
0.542273
0.526711
0.347272
0.268014
0.316809
0.312657
0.53368
0.272674
0.431661
0.312542
0.534537
0.53663
0.320565
0.538166
0.407319
0.496162
0.30267
0.530684
0.535766
0.555456
0.53726
0.538098
0.529188
0.31865
0.435517
0.309023
0.530354
0.317079
0.313662
0.535978
0.537897
0.537226
0.357888
0.347808
0.541618
0.543471
0.312417
0.537729
0.296074
0.315464
0.332727
0.554291
0.540706
0.525405
0.296281
0.304372
0.319047
0.346781
0.54029
0.538145
0.548069
0.348729
0.337792
0.461888
0.549002
0.545624
0.514486
0.538066
0.429164
0.538745
0.543961
0.520392
0.336417
0.539305
0.50041
0.53814
0.539192
0.547628
0.491728
0.397681
0.547893
0.317872
0.546343
0.537883
0.240304
0.538136
0.467795
0.538225
0.332798
0.354037
0.537859
0.313743
0.344526
0.550221
0.312408
0.425314
0.539978
0.298973
0.548256
0.338611
0.497868
0.53643
0.53141
0.50614
0.3394
0.340607
0.52487
0.446352
0.330681
0.485473
0.321387
0.538046
0.355198
0.465381
0.522527
0.538178
0.344255
0.496959
0.317643
0.422065
0.422434
0.313968
0.287951
0.357549
0.538146
0.467339
0.448575
0.325404
0.538157
0.49575
0.328464
0.538115
0.366514
0.462562
0.522025
0.538147
0.540163
0.308075
0.341772
0.538076
0.545993
0.525349
0.495454
0.544904
0.485102
0.471233
0.334496
0.506437
0.404228
0.358348
0.371577
0.538034
0.551124
0.512037
0.406238
0.351214
0.543384
0.324505
0.327722
0.410874
0.350773
0.461644
0.335031
0.538115
0.334086
0.309845
0.420885
0.546588
0.351251
0.315626
0.550684
0.545349
0.552709
0.330531
0.314121
0.541056
0.317925
0.314279
0.315157
0.447732
0.528244
0.280016
0.552191
0.349454
0.509383
0.537173
0.331653
0.418814
0.482707
0.505135
0.49923
0.542917
0.540792
0.546444
0.537332
0.538181
0.306772
0.39149
0.525428
0.291517
0.545471
0.528578
0.267491
0.535313
0.483072
0.515002
0.541529
0.477753
0.534289
0.320874
0.497479
0.319288
0.312099
0.538076
0.5381
0.273671
0.338896
0.534194
0.399705
0.462756
0.304666
0.260197
0.550292
0.519691
0.545868
0.516436
0.471654
0.385209
0.459377
0.33153
0.538191
0.509197
0.500781
0.316462
0.393249
0.546488
0.503565
0.541656
0.143884
0.538155
0.3298
0.340289
0.360435
0.523681
0.524857
0.542844
0.478471
0.328847
0.538076
0.401379
0.54781
0.549
0.498492
0.35556
0.330384
0.538012
0.319752
0.43142
0.482162
0.345997
0.314097
0.520219
0.544318
0.363511
0.538177
0.536504
0.34935
0.538161
0.538513
0.541063
0.321043
0.317541
0.54413
0.33877
0.354605
0.417794
0.53793
0.326915
0.384571
0.34338
0.309916
0.54035
0.339551
0.356012
0.545059
0.348145
0.338425
0.552926
0.540461
0.537007
0.538053
0.498698
0.3291
0.553104
0.536936
0.335032
0.539269
0.536881
0.538147
0.538165
0.320005
0.53809
0.315009
0.538124
0.338574
0.537976
0.342337
0.521453
0.334817
0.542702
0.547126
0.551824
0.489022
0.538018
0.539588
0.294678
0.537627
0.278285
0.538139
0.540967
0.353958
0.418563
0.312509
0.369357
0.538134
0.371743
0.536848
0.145765
0.50904
0.513479
0.542653
0.406585
0.314457
0.27461
0.354352
0.275059
0.539161
0.375029
0.350336
0.538489
0.336272
0.364456
0.535717
0.536338
0.506406
0.538343
0.267124
0.493124
0.335578
0.538201
0.538124
0.527043
0.283276
0.542647
0.538288
0.543762
0.503552
0.53591
0.398763
0.537947
0.542286
0.453181
0.538129
0.329174
0.521643
0.319546
0.432034
0.52364
0.494571
0.534101
0.479063
0.491802
0.540075
0.323238
0.527549
0.361323
0.326351
0.542689
0.516828
0.486086
0.522715
0.534228
0.538194
0.539868
0.538204
0.537976
0.537888
0.553649
0.317962
0.506869
0.534171
0.332542
0.536537
0.323893
0.476625
0.325415
0.537932
0.345441
0.353002
0.312199
0.478267
0.538495
0.441365
0.51963
0.326982
0.327408
0.53786
0.537472
0.306278
0.506709
0.458171
0.338311
0.508267
0.333758
0.324984
0.536815
0.485443
0.323924
0.522738
0.536045
0.527277
0.360415
0.518151
0.270308
0.538013
0.386915
0.513381
0.323778
0.549919
0.30734
0.322413
0.350024
0.518286
0.318072
0.502962
0.548441
0.478729
0.320043
0.335779
0.544336
0.330489
0.24863
0.36072
0.538814
0.327432
0.316182
0.269703
0.503155
0.341226
0.346622
0.311196
0.537304
0.550708
0.335795
0.541242
0.540708
0.501389
0.335722
0.327552
0.536209
0.350901
0.555907
0.343005
0.533968
0.33643
0.201807
0.518445
0.357973
0.339586
0.357534
0.538123
0.316844
0.454414
0.539527
0.325593
0.519742
0.330282
0.550852
0.424643
0.351148
0.350444
0.538417
0.451955
0.537844
0.335196
0.31972
0.449793
0.538165
0.31966
0.319235
0.341243
0.423319
0.539291
0.319967
0.459755
0.535049
0.5379
0.529093
0.361065
0.538109
0.332419
0.537643
0.538011
0.469837
0.319929
0.495839
0.540163
0.350982
0.539671
0.54032
0.339374
0.334398
0.32257
0.281771
0.544301
0.358115
0.537595
0.392031
0.538154
0.499107
0.38982
0.515484
0.307774
0.486782
0.355382
0.537732
0.536939
0.271518
0.341721
0.312996
0.470646
0.554243
0.334712
0.296199
0.314224
0.462799
0.548561
0.282634
0.354494
0.529433
0.538901
0.531281
0.359012
0.310696
0.527537
0.537751
0.345703
0.314064
0.445634
0.551346
0.497839
0.319573
0.537934
0.53845
0.326801
0.541086
0.323917
0.541252
0.325541
0.376103
0.32312
0.296034
0.537186
0.32935
0.357617
0.329823
0.336096
0.490377
0.53202
0.551257
0.349597
0.53814
0.538289
0.538245
0.548589
0.537433
0.549667
0.550376
0.550167
0.540434
0.536359
0.300246
0.493693
0.550127
0.3394
0.542886
0.546693
0.539795
0.538642
0.31265
0.544378
0.538199
0.53937
0.33218
0.508846
0.533391
0.537679
0.532371
0.338513
0.492361
0.31709
0.429325
0.319778
0.317942
0.340636
0.358473
0.53808
0.53567
0.525931
0.335694
0.538279
0.538164
0.540295
0.355844
0.329392
0.522851
0.319078
0.324346
0.330405
0.538935
0.426998
0.538193
0.321779
0.548076
0.536667
0.466817
0.541247
0.32513
0.551717
0.538754
0.517173
0.541885
0.537313
0.523307
0.331348
0.319664
0.323826
0.537723
0.306751
0.536728
0.524569
0.499325
0.348621
0.323407
0.487602
0.543385
0.538019
0.342954
0.528958
0.485866
0.268964
0.538131
0.35626
0.343916
0.334089
0.331998
0.343061
0.542054
0.538549
0.553614
0.451305
0.535377
0.537597
0.521077
0.538085
0.548359
0.550241
0.537585
0.537749
0.334114
0.538056
0.531389
0.439598
0.358522
0.508738
0.29777
0.540155
0.383194
0.541256
0.54738
0.35096
0.538337
0.333325
0.538
0.534612
0.548853
0.49438
0.520115
0.547395
0.537526
0.319451
0.456667
0.428981
0.264026
0.538138
0.54084
0.452357
0.552283
0.530026
0.537906
0.321089
0.357696
0.530285
0.548144
0.327199
0.184601
0.51825
0.53754
0.538315
0.282894
0.466703
0.517674
0.535549
0.358729
0.538032
0.489634
0.528116
0.508733
0.448592
0.537151
0.297423
0.5342
0.328488
0.327678
0.538066
0.356033
0.35711
0.360818
0.52882
0.513699
0.452817
0.537669
0.44079
0.31196
0.341453
0.544626
0.535967
0.541883
0.493488
0.265373
0.526161
0.442918
0.335472
0.535902
0.541786
0.360791
0.539365
0.532639
0.538121
0.453122
0.537474
0.374887
0.538089
0.533906
0.537286
0.33742
0.527947
0.397158
0.512639
0.536905
0.546751
0.534044
0.537911
0.538242
0.536227
0.522057
0.332238
0.544069
0.513681
0.320726
0.499468
0.539747
0.552594
0.503543
0.339815
0.533743
0.326475
0.547628
0.496001
0.54051
0.343849
0.517463
0.53746
0.538133
0.528387
0.486073
0.53818
0.47471
0.397132
0.361755
0.280496
0.538103
0.318959
0.311982
0.539039
0.331359
0.545886
0.298103
0.53879
0.330151
0.340005
0.524939
0.40338
0.311838
0.532354
0.536947
0.540312
0.338418
0.510237
0.536979
0.5349
0.362103
0.53817
0.537604
0.356875
0.488686
0.470786
0.526652
0.301792
0.408856
0.513822
0.332709
0.540136
0.331732
0.354952
0.53792
0.394819
0.511957
0.358359
0.541664
0.435483
0.538175
0.216591
0.332501
0.537975
0.318183
0.538197
0.319101
0.538198
0.491211
0.472373
0.538192
0.506634
0.270571
0.538376
0.550573
0.535064
0.538139
0.312422
0.312403
0.309049
0.35669
0.537907
0.329123
0.517024
0.33843
0.535431
0.537314
0.537734
0.36708
0.538231
0.335227
0.53782
0.542889
0.334026
0.537428
0.525829
0.322813
0.524449
0.331217
0.318159
0.550925
0.34664
0.545353
0.236205
0.336681
0.517106
0.340702
0.540877
0.354473
0.467675
0.536696
0.533249
0.39309
0.271306
0.344169
0.538111
0.538204
0.335732
0.538277
0.340309
0.535506
0.359495
0.327807
0.475522
0.479368
0.42608
0.499327
0.537594
0.496797
0.481004
0.538745
0.537797
0.316306
0.537914
0.29914
0.326201
0.50168
0.414687
0.413048
0.453176
0.355461
0.51846
0.538178
0.539363
0.334655
0.319882
0.461243
0.509513
0.537616
0.547822
0.342373
0.504089
0.53557
0.510765
0.449459
0.357336
0.338896
0.342388
0.555828
0.539891
0.332458
0.33907
0.446109
0.360505
0.55107
0.516332
0.326803
0.537909
0.414951
0.543044
0.539112
0.356194
0.311445
0.511467
0.330911
0.41169
0.536637
0.280072
0.356168
0.357807
0.511183
0.53851
0.508963
0.338667
0.322516
0.531178
0.53845
0.500337
0.541496
0.353773
0.333485
0.334537
0.502404
0.317057
0.328735
0.540544
0.543642
0.517326
0.323241
0.316161
0.328733
0.537851
0.317611
0.535596
0.538134
0.533257
0.434931
0.536471
0.550917
0.345661
0.362845
0.538781
0.308656
0.474622
0.529463
0.544081
0.451094
0.31364
0.303728
0.543663
0.418531
0.333272
0.537165
0.537309
0.309033
0.36497
0.516635
0.449258
0.344476
0.322815
0.542602
0.494277
0.531491
0.481911
0.370227
0.303288
0.324681
0.387935
0.333149
0.538192
0.531828
0.477594
0.516004
0.317511
0.508805
0.317398
0.537013
0.547699
0.331133
0.276835
0.53277
0.398015
0.477119
0.538384
0.305602
0.534044
0.530711
0.53762
0.538166
0.507624
0.311798
0.340973
0.323222
0.514507
0.53769
0.517344
0.450169
0.354416
0.341759
0.497282
0.350479
0.54093
0.537615
0.536104
0.363657
0.345547
0.472564
0.511131
0.538211
0.529414
0.538093
0.53784
0.539072
0.488203
0.26436
0.538082
0.503014
0.537668
0.330808
0.532937
0.430476
0.531286
0.553604
0.452008
0.496103
0.534615
0.513178
0.538179
0.343457
0.534498
0.552643
0.325487
0.508485
0.309905
0.303201
0.538209
0.537781
0.321801
0.488183
0.537641
0.321496
0.316964
0.557498
0.551632
0.476465
0.333839
0.499639
0.337075
0.545035
0.550662
0.362454
0.463512
0.504431
0.333883
0.3452
0.321292
0.540626
0.533169
0.351011
0.300946
0.350629
0.325699
0.31694
0.506085
0.339861
0.552478
0.538301
0.543932
0.332781
0.536471
0.457242
0.534844
0.450997
0.532583
0.329168
0.315891
0.37282
0.536963
0.338936
0.365831
0.500826
0.340575
0.538192
0.510398
0.432619
0.334553
0.33241
0.525577
0.539053
0.530851
0.527207
0.543493
0.354882
0.31584
0.341962
0.513013
0.538315
0.361357
0.520096
0.316199
0.350544
0.538038
0.324692
0.317551
0.270197
0.378574
0.351743
0.538139
0.538588
0.540291
0.351798
0.537529
0.544498
0.366541
0.538095
0.392682
0.542208
0.321031
0.402917
0.537206
0.345642
0.267326
0.533007
0.526694
0.360584
0.548051
0.502582
0.53656
0.408572
0.311869
0.506527
0.537446
0.374214
0.316603
0.432646
0.409709
0.538061
0.328907
0.356441
0.543333
0.5162
0.311728
0.361021
0.534491
0.34292
0.310358
0.335303
0.463476
0.546772
0.330938
0.542503
0.333281
0.319298
0.319859
0.416136
0.315865
0.5415
0.339542
0.31468
0.487357
0.541275
0.363893
0.538042
0.353207
0.331905
0.514657
0.553991
0.526386
0.516272
0.521649
0.5478
0.355156
0.541556
0.296659
0.538089
0.5298
0.425458
0.52764
0.538029
0.537277
0.537584
0.440833
0.318345
0.443464
0.350925
0.505143
0.535631
0.50007
0.341799
0.538482
0.385693
0.538108
0.362437
0.333731
0.557522
0.299194
0.531922
0.553434
0.387401
0.349383
0.3457
0.537434
0.403791
0.277584
0.542604
0.342142
0.528865
0.321405
0.322329
0.330082
0.538437
0.398887
0.538053
0.369009
0.321602
0.537102
0.536047
0.296056
0.368754
0.280586
0.488096
0.335745
0.52333
0.533835
0.538063
0.249427
0.331493
0.456321
0.533064
0.549979
0.536248
0.299043
0.517787
0.540265
0.538013
0.538143
0.329556
0.525081
0.329559
0.45959
0.544082
0.539975
0.533182
0.546551
0.500713
0.535546
0.546075
0.536481
0.525907
0.539065
0.537377
0.538815
0.360856
0.340643
0.538131
0.482709
0.538105
0.538149
0.550003
0.522415
0.547092
0.326838
0.361851
0.538198
0.369801
0.360112
0.317121
0.537258
0.526436
0.537842
0.512813
0.526029
0.351795
0.540167
0.351391
0.345785
0.547571
0.529055
0.527969
0.415198
0.410804
0.334886
0.361446
0.392033
0.298322
0.367476
0.546165
0.315869
0.534245
0.355998
0.541908
0.5363
0.299412
0.314849
0.500167
0.538169
0.359269
0.51332
0.270005
0.331681
0.349752
0.457923
0.538342
0.538212
0.538127
0.245714
0.324102
0.276592
0.321868
0.538164
0.549134
0.541234
0.316314
0.352238
0.537778
0.536229
0.539357
0.304915
0.487895
0.474684
0.545422
0.444622
0.324893
0.35233
0.301831
0.538828
0.336199
0.368817
0.538149
0.313583
0.538106
0.318063
0.317297
0.416421
0.317348
0.547532
0.538203
0.53813
0.457693
0.554863
0.514495
0.482993
0.318346
0.511369
0.532954
0.513157
0.539495
0.535953
0.542007
0.435954
0.536101
0.538668
0.299058
0.360211
0.550523
0.407397
0.536724
0.316207
0.54802
0.345242
0.529444
0.538176
0.512766
0.53663
0.541316
0.519186
0.339899
0.334672
0.539539
0.548788
0.53693
0.439949
0.546357
0.455915
0.499211
0.537641
0.477651
0.472748
0.542777
0.538088
0.315206
0.352473
0.538124
0.505951
0.335485
0.318462
0.437634
0.538206
0.538165
0.552179
0.329055
0.528007
0.302036
0.539656
0.335136
0.546432
0.290423
0.550833
0.317436
0.533697
0.454303
0.360453
0.305682
0.476976
0.315655
0.49141
0.325944
0.537985
0.538209
0.533184
0.528878
0.537581
0.537708
0.537817
0.551434
0.543719
0.506992
0.518858
0.499969
0.540661
0.330547
0.505031
0.504181
0.535951
0.29796
0.502748
0.547397
0.537847
0.329176
0.312519
0.318352
0.546143
0.501397
0.31615
0.505514
0.398362
0.538064
0.327177
0.418771
0.318985
0.315383
0.55428
0.339844
0.511866
0.330688
0.552871
0.307838
0.538035
0.506618
0.532491
0.322026
0.322036
0.369462
0.519838
0.340681
0.367835
0.336612
0.54292
0.521368
0.546304
0.526701
0.533164
0.515431
0.395787
0.320636
0.534061
0.357763
0.454523
0.530194
0.551642
0.219256
0.305628
0.525593
0.537855
0.415605
0.527592
0.537382
0.522123
0.31658
0.545054
0.523809
0.533473
0.536007
0.33822
0.538192
0.330166
0.535548
0.544347
0.509445
0.536894
0.356991
0.540251
0.236804
0.371343
0.504461
0.511105
0.532916
0.463272
0.345055
0.5354
0.538914
0.333935
0.35668
0.301797
0.550109
0.31703
0.322195
0.316581
0.313316
0.329911
0.386333
0.544777
0.317115
0.541793
0.527061
0.338724
0.538205
0.342302
0.549536
0.31819
0.470358
0.317321
0.529684
0.538113
0.408435
0.502514
0.537415
0.523738
0.333039
0.486529
0.437569
0.3484
0.341425
0.421239
0.300569
0.546293
0.307366
0.340624
0.336156
0.538213
0.531473
0.324452
0.325841
0.547128
0.34177
0.308449
0.538037
0.343318
0.311991
0.331795
0.553023
0.506776
0.548267
0.336136
0.299027
0.540815
0.520961
0.537884
0.403391
0.512734
0.532691
0.422012
0.420101
0.349575
0.316628
0.248686
0.497999
0.296579
0.548498
0.516286
0.536035
0.321099
0.417428
0.435899
0.556928
0.298205
0.488739
0.252867
0.497568
0.337397
0.292024
0.290698
0.540109
0.320365
0.552508
0.321831
0.390934
0.340719
0.478787
0.327675
0.545584
0.314754
0.508911
0.493365
0.353146
0.537952
0.537883
0.3047
0.549617
0.32122
0.346954
0.544599
0.301508
0.518517
0.315857
0.23439
0.537366
0.335689
0.362202
0.322574
0.303896
0.328738
0.518881
0.44255
0.529115
0.54901
0.530757
0.545394
0.420665
0.540701
0.297531
0.538286
0.34833
0.529796
0.353295
0.396576
0.527822
0.550484
0.538389
0.364514
0.451124
0.326574
0.324122
0.319583
0.236612
0.539769
0.419084
0.548687
0.537344
0.490603
0.541069
0.538026
0.401594
0.313403
0.383386
0.54352
0.489651
0.50728
0.53797
0.55315
0.428945
0.300419
0.352659