# vtk DataFile Version 1.0
unstructured grid
ascii
DATASET UNSTRUCTURED_GRID
points 3226 float
0.0796578 -0.059106 0
0.00128732 0.00159165 0
0.00227961 -0.00102548 0
0.0791586 -0.0598787 0
-0.0546216 0.01 0
0.000495206 0.025 0
0.0800549 -0.035 0
0.135172 -0.08 0
-0.0546216 -0.0451168 0
0.000495206 -0.0301168 0
0.0800549 -0.0901168 0
0.135172 -0.135117 0
-0.0546216 -0.0451168 -0.00551168
0.000495206 -0.0301168 -0.00551168
0.0800549 -0.0901168 -0.00551168
0.135172 -0.135117 -0.00551168
0.135172 -0.08 -0.00551168
0.0800549 -0.035 -0.00551168
0.000495206 0.025 -0.00551168
-0.0546216 0.01 -0.00551168
0.00128732 0.00159165 -0.00551168
0.00227961 -0.00102548 -0.00551168
0.0791586 -0.0598787 -0.00551168
0.0796578 -0.059106 -0.00551168
0.00110182 -0.000823821 0
0.000571683 -0.000188043 0
0.000561313 0.000639162 0
0.00189316 0.00207203 0
0.00260228 0.00255358 0
0.0033966 0.00307293 0
0.00428861 0.00362634 0
0.00529726 0.0041979 0
0.00644092 0.00476696 0
0.00773158 0.0053187 0
0.00918011 0.00583593 0
0.010799 0.00628751 0
0.012597 0.00663225 0
0.0145725 0.0068517 0
0.0167206 0.0069338 0
0.0190349 0.00685819 0
0.0215031 0.00658621 0
0.0241038 0.00607459 0
0.026821 0.00533786 0
0.0296245 0.00434523 0
0.0324763 0.00306927 0
0.0353199 0.00146906 0
0.0381488 -0.00039338 0
0.0409131 -0.00252802 0
0.0435632 -0.00493276 0
0.0460882 -0.0075571 0
0.0484881 -0.0103478 0
0.0506782 -0.0133217 0
0.0526651 -0.016422 0
0.0546139 -0.0195019 0
0.0565301 -0.022529 0
0.0584009 -0.0254846 0
0.0602154 -0.0283513 0
0.061964 -0.031114 0
0.0636389 -0.0337601 0
0.0652336 -0.0362795 0
0.0667431 -0.0386651 0
0.0681656 -0.0409111 0
0.0694983 -0.0430158 0
0.0707356 -0.0449823 0
0.071886 -0.0468071 0
0.0729575 -0.04849 0
0.0739438 -0.0500408 0
0.0748444 -0.0514675 0
0.0756707 -0.0527715 0
0.0764313 -0.053958 0
0.0771224 -0.0550398 0
0.0777384 -0.0560288 0
0.0782803 -0.0569318 0
0.0787691 -0.0577448 0
0.0792251 -0.0584672 0
0.0800494 -0.0597378 0
0.0797987 -0.0601582 0
0.0786655 -0.059391 0
0.0781259 -0.0588425 0
0.0775539 -0.0582102 0
0.0769587 -0.0574783 0
0.0763492 -0.0566339 0
0.075723 -0.0556725 0
0.0750452 -0.0546094 0
0.0742996 -0.0534457 0
0.073478 -0.0521785 0
0.072577 -0.0508019 0
0.0715904 -0.049313 0
0.0705098 -0.047712 0
0.069328 -0.0459996 0
0.0680378 -0.0441794 0
0.066632 -0.0422571 0
0.0651046 -0.0402413 0
0.0634508 -0.0381431 0
0.0616683 -0.0359754 0
0.0597581 -0.033753 0
0.0577255 -0.0314906 0
0.0555808 -0.0292024 0
0.0533388 -0.0269013 0
0.0510024 -0.0246151 0
0.0485693 -0.0223811 0
0.0460535 -0.0202228 0
0.0434788 -0.0181535 0
0.0408704 -0.0161833 0
0.0382442 -0.0143327 0
0.0356165 -0.0126209 0
0.0330065 -0.0110594 0
0.0304368 -0.00965062 0
0.0279338 -0.00838121 0
0.0255194 -0.00723697 0
0.0231965 -0.00623664 0
0.020983 -0.00535765 0
0.0188891 -0.00458677 0
0.0169193 -0.00391673 0
0.0150754 -0.00334068 0
0.0133572 -0.00285262 0
0.0117634 -0.0024437 0
0.0102912 -0.00210643 0
0.0089363 -0.00183343 0
0.00769424 -0.00161552 0
0.00655956 -0.00144452 0
0.00552632 -0.00131235 0
0.00458815 -0.00121216 0
0.00373885 -0.00113394 0
0.00297202 -0.00106855 0
-0.0506847 -0.0440454 0
-0.0467478 -0.0429739 0
-0.0428108 -0.0419025 0
-0.0388739 -0.0408311 0
-0.034937 -0.0397597 0
-0.0310001 -0.0386882 0
-0.0270632 -0.0376168 0
-0.0231263 -0.0365454 0
-0.0191894 -0.0354739 0
-0.0152525 -0.0344025 0
-0.0113155 -0.0333311 0
-0.00737862 -0.0322597 0
-0.00344171 -0.0311882 0
0.0038716 -0.0298185 0
0.00726082 -0.0297726 0
0.010644 -0.0299802 0
0.0140027 -0.0304367 0
0.0173201 -0.0311326 0
0.0205821 -0.0320541 0
0.0237776 -0.0331851 0
0.0268988 -0.0345078 0
0.0299406 -0.0360041 0
0.0329005 -0.0376567 0
0.035778 -0.039449 0
0.038574 -0.0413659 0
0.0412905 -0.043394 0
0.0439303 -0.0455212 0
0.0464964 -0.0477367 0
0.0489922 -0.0500312 0
0.051421 -0.0523964 0
0.0537863 -0.0548252 0
0.0560914 -0.0573112 0
0.0583395 -0.0598489 0
0.0605336 -0.0624334 0
0.0626765 -0.0650605 0
0.064771 -0.0677264 0
0.0668197 -0.0704277 0
0.0688248 -0.0731615 0
0.0707885 -0.0759252 0
0.072713 -0.0787163 0
0.0746002 -0.0815329 0
0.0764517 -0.0843729 0
0.0782695 -0.0872347 0
0.0829558 -0.0924852 0
0.0858567 -0.0948536 0
0.0887575 -0.0972221 0
0.0916584 -0.0995905 0
0.0945593 -0.101959 0
0.0974602 -0.104327 0
0.100361 -0.106696 0
0.103262 -0.109064 0
0.106163 -0.111433 0
0.109064 -0.113801 0
0.111965 -0.116169 0
0.114865 -0.118538 0
0.117766 -0.120906 0
0.120667 -0.123275 0
0.123568 -0.125643 0
0.126469 -0.128012 0
0.12937 -0.13038 0
0.132271 -0.132748 0
0.135172 -0.13118 0
0.135172 -0.127243 0
0.135172 -0.123306 0
0.135172 -0.119369 0
0.135172 -0.115432 0
0.135172 -0.111495 0
0.135172 -0.107558 0
0.135172 -0.103621 0
0.135172 -0.0996846 0
0.135172 -0.0957477 0
0.135172 -0.0918107 0
0.135172 -0.0878738 0
0.135172 -0.0839369 0
0.132271 -0.0776316 0
0.12937 -0.0752632 0
0.126469 -0.0728947 0
0.123568 -0.0705263 0
0.120667 -0.0681579 0
0.117766 -0.0657895 0
0.114865 -0.0634211 0
0.111965 -0.0610526 0
0.109064 -0.0586842 0
0.106163 -0.0563158 0
0.103262 -0.0539474 0
0.100361 -0.0515789 0
0.0974602 -0.0492105 0
0.0945593 -0.0468421 0
0.0916584 -0.0444737 0
0.0887575 -0.0421053 0
0.0858567 -0.0397368 0
0.0829558 -0.0373684 0
0.0782695 -0.0321179 0
0.0764517 -0.0292561 0
0.0746002 -0.026416 0
0.072713 -0.0235995 0
0.0707885 -0.0208084 0
0.0688248 -0.0180447 0
0.0668197 -0.0153109 0
0.064771 -0.0126096 0
0.0626765 -0.00994373 0
0.0605336 -0.00731663 0
0.0583395 -0.00473208 0
0.0560914 -0.00219437 0
0.0537863 0.000291632 0
0.051421 0.00272041 0
0.0489922 0.00508564 0
0.0464964 0.00738012 0
0.0439303 0.00959562 0
0.0412905 0.0117228 0
0.038574 0.0137509 0
0.035778 0.0156678 0
0.0329005 0.0174601 0
0.0299406 0.0191127 0
0.0268988 0.020609 0
0.0237776 0.0219317 0
0.0205821 0.0230627 0
0.0173201 0.0239842 0
0.0140027 0.0246801 0
0.010644 0.0251366 0
0.00726082 0.0253442 0
0.0038716 0.0252983 0
-0.00344171 0.0239286 0
-0.00737862 0.0228571 0
-0.0113155 0.0217857 0
-0.0152525 0.0207143 0
-0.0191894 0.0196429 0
-0.0231263 0.0185714 0
-0.0270632 0.0175 0
-0.0310001 0.0164286 0
-0.034937 0.0153571 0
-0.0388739 0.0142857 0
-0.0428108 0.0132143 0
-0.0467478 0.0121429 0
-0.0506847 0.0110714 0
-0.0546216 0.00606309 0
-0.0546216 0.00212617 0
-0.0546216 -0.00181074 0
-0.0546216 -0.00574766 0
-0.0546216 -0.00968457 0
-0.0546216 -0.0136215 0
-0.0546216 -0.0175584 0
-0.0546216 -0.0214953 0
-0.0546216 -0.0254322 0
-0.0546216 -0.0293691 0
-0.0546216 -0.0333061 0
-0.0546216 -0.037243 0
-0.0546216 -0.0411799 0
-0.0506847 -0.0440454 -0.00551168
-0.0467478 -0.0429739 -0.00551168
-0.0428108 -0.0419025 -0.00551168
-0.0388739 -0.0408311 -0.00551168
-0.034937 -0.0397597 -0.00551168
-0.0310001 -0.0386882 -0.00551168
-0.0270632 -0.0376168 -0.00551168
-0.0231263 -0.0365454 -0.00551168
-0.0191894 -0.0354739 -0.00551168
-0.0152525 -0.0344025 -0.00551168
-0.0113155 -0.0333311 -0.00551168
-0.00737862 -0.0322597 -0.00551168
-0.00344171 -0.0311882 -0.00551168
0.0038716 -0.0298185 -0.00551168
0.00726082 -0.0297726 -0.00551168
0.010644 -0.0299802 -0.00551168
0.0140027 -0.0304367 -0.00551168
0.0173201 -0.0311326 -0.00551168
0.0205821 -0.0320541 -0.00551168
0.0237776 -0.0331851 -0.00551168
0.0268988 -0.0345078 -0.00551168
0.0299406 -0.0360041 -0.00551168
0.0329005 -0.0376567 -0.00551168
0.035778 -0.039449 -0.00551168
0.038574 -0.0413659 -0.00551168
0.0412905 -0.043394 -0.00551168
0.0439303 -0.0455212 -0.00551168
0.0464964 -0.0477367 -0.00551168
0.0489922 -0.0500312 -0.00551168
0.051421 -0.0523964 -0.00551168
0.0537863 -0.0548252 -0.00551168
0.0560914 -0.0573112 -0.00551168
0.0583395 -0.0598489 -0.00551168
0.0605336 -0.0624334 -0.00551168
0.0626765 -0.0650605 -0.00551168
0.064771 -0.0677264 -0.00551168
0.0668197 -0.0704277 -0.00551168
0.0688248 -0.0731615 -0.00551168
0.0707885 -0.0759252 -0.00551168
0.072713 -0.0787163 -0.00551168
0.0746002 -0.0815329 -0.00551168
0.0764517 -0.0843729 -0.00551168
0.0782695 -0.0872347 -0.00551168
0.0829558 -0.0924852 -0.00551168
0.0858567 -0.0948536 -0.00551168
0.0887575 -0.0972221 -0.00551168
0.0916584 -0.0995905 -0.00551168
0.0945593 -0.101959 -0.00551168
0.0974602 -0.104327 -0.00551168
0.100361 -0.106696 -0.00551168
0.103262 -0.109064 -0.00551168
0.106163 -0.111433 -0.00551168
0.109064 -0.113801 -0.00551168
0.111965 -0.116169 -0.00551168
0.114865 -0.118538 -0.00551168
0.117766 -0.120906 -0.00551168
0.120667 -0.123275 -0.00551168
0.123568 -0.125643 -0.00551168
0.126469 -0.128012 -0.00551168
0.12937 -0.13038 -0.00551168
0.132271 -0.132748 -0.00551168
0.135172 -0.13118 -0.00551168
0.135172 -0.127243 -0.00551168
0.135172 -0.123306 -0.00551168
0.135172 -0.119369 -0.00551168
0.135172 -0.115432 -0.00551168
0.135172 -0.111495 -0.00551168
0.135172 -0.107558 -0.00551168
0.135172 -0.103621 -0.00551168
0.135172 -0.0996846 -0.00551168
0.135172 -0.0957477 -0.00551168
0.135172 -0.0918107 -0.00551168
0.135172 -0.0878738 -0.00551168
0.135172 -0.0839369 -0.00551168
0.132271 -0.0776316 -0.00551168
0.12937 -0.0752632 -0.00551168
0.126469 -0.0728947 -0.00551168
0.123568 -0.0705263 -0.00551168
0.120667 -0.0681579 -0.00551168
0.117766 -0.0657895 -0.00551168
0.114865 -0.0634211 -0.00551168
0.111965 -0.0610526 -0.00551168
0.109064 -0.0586842 -0.00551168
0.106163 -0.0563158 -0.00551168
0.103262 -0.0539474 -0.00551168
0.100361 -0.0515789 -0.00551168
0.0974602 -0.0492105 -0.00551168
0.0945593 -0.0468421 -0.00551168
0.0916584 -0.0444737 -0.00551168
0.0887575 -0.0421053 -0.00551168
0.0858567 -0.0397368 -0.00551168
0.0829558 -0.0373684 -0.00551168
0.0782695 -0.0321179 -0.00551168
0.0764517 -0.0292561 -0.00551168
0.0746002 -0.026416 -0.00551168
0.072713 -0.0235995 -0.00551168
0.0707885 -0.0208084 -0.00551168
0.0688248 -0.0180447 -0.00551168
0.0668197 -0.0153109 -0.00551168
0.064771 -0.0126096 -0.00551168
0.0626765 -0.00994373 -0.00551168
0.0605336 -0.00731663 -0.00551168
0.0583395 -0.00473208 -0.00551168
0.0560914 -0.00219437 -0.00551168
0.0537863 0.000291632 -0.00551168
0.051421 0.00272041 -0.00551168
0.0489922 0.00508564 -0.00551168
0.0464964 0.00738012 -0.00551168
0.0439303 0.00959562 -0.00551168
0.0412905 0.0117228 -0.00551168
[...]
CELL_DATA 2965
SCALARS rho float
LOOKUP_TABLE default
0.538993
0.339225
0.533172
0.360388
0.548465
0.326674
0.537934
0.346048
0.323347
0.534056
0.361263
0.357609
0.442841
0.542457
0.527034
0.526065
0.534993
0.524995
0.550899
0.536501
0.539007
0.357824
0.518616
0.543328
0.542699
0.552653
0.512945
0.493768
0.361823
0.531997
0.515373
0.33512
0.557783
0.537658
0.312266
0.329951
0.536522
0.54096
0.34282
0.530137
0.537559
0.513477
0.540178
0.343966
0.327679
0.539235
0.473735
0.486121
0.327186
0.53859
0.447558
0.355003
0.331223
0.463187
0.360185
0.473657
0.321527
0.356613
0.305263
0.489671
0.525203
0.490991
0.343287
0.550395
0.499484
0.539818
0.537954
0.357495
0.324024
0.356262
0.526579
0.549366
0.537975
0.299528
0.513161
0.427158
0.538587
0.351278
0.357855
0.48204
0.537687
0.341703
0.340833
0.450811
0.494952
0.423794
0.351963
0.284499
0.557903
0.319919
0.34213
0.539125
0.526459
0.528965
0.539859
0.33541
0.47323
0.29369
0.353785
0.343584
0.488097
0.342416
0.374054
0.33243
0.362722
0.535498
0.538612
0.364242
0.356786
0.538376
0.269228
0.410209
0.496426
0.505799
0.3198
0.315865
0.515814
0.470181
0.53882
0.36915
0.537593
0.269752
0.545733
0.54767
0.504953
0.45337
0.361407
0.475999
0.539772
0.302043
0.370314
0.475077
0.539853
0.36394
0.512906
0.323752
0.444508
0.525497
0.559028
0.548408
0.360124
0.525274
0.535839
0.36291
0.294472
0.551388
0.339923
0.547801
0.559376
0.329455
0.370916
0.366745
0.371212
0.341942
0.313393
0.281667
0.538094
0.539605
0.532404
0.545462
0.467752
0.476745
0.441684
0.54971
0.320808
0.537912
0.432683
0.345029
0.538449
0.541916
0.495842
0.314402
0.468602
0.528602
0.553282
0.432786
0.527466
0.383059
0.289093
0.467718
0.334126
0.288054
0.33296
0.337431
0.5597
0.537931
0.365357
0.365872
0.446438
0.372558
0.344343
0.357691
0.467426
0.312614
0.538133
0.491252
0.541729
0.498801
0.473922
0.360775
0.346263
0.322336
0.535251
0.460885
0.537652
0.321449
0.464298
0.538171
0.527517
0.541338
0.507759
0.432629
0.319504
0.329606
0.516174
0.347534
0.475434
0.321556
0.526579
0.373009
0.322837
0.351989
0.487158
0.432631
0.550773
0.277163
0.537563
0.531267
0.346957
0.493078
0.358131
0.288566
0.542215
0.336425
0.539456
0.542009
0.363886
0.5394
0.374479
0.369487
0.396425
0.372014
0.550123
0.533843
0.36446
0.2634
0.534177
0.53913
0.462784
0.516092
0.342825
0.360086
0.5381
0.317686
0.494358
0.288398
0.278148
0.53875
0.539159
0.346649
0.480059
0.348828
0.548848
0.327243
0.54303
0.538713
0.30108
0.507819
0.52945
0.302489
0.367487
0.540615
0.365782
0.555731
0.519579
0.364742
0.523567
0.524159
0.556241
0.537889
0.552685
0.483343
0.53661
0.539085
0.346531
0.319173
0.530562
0.54512
0.338719
0.538397
0.500429
0.3454
0.344392
0.340317
0.511096
0.349209
0.538665
0.495774
0.554759
0.370087
0.501108
0.498466
0.489819
0.539208
0.362906
0.269214
0.550777
0.538299
0.538594
0.350457
0.357314
0.494324
0.290518
0.303816
0.502989
0.537585
0.497681
0.239485
0.366497
0.495005
0.505059
0.343473
0.53966
0.537684
0.351678
0.435024
0.539277
0.52785
0.291644
0.37108
0.539038
0.323196
0.544264
0.40547
0.54563
0.431664
0.392632
0.341844
0.365211
0.327639
0.520206
0.552826
0.533698
0.549643
0.498021
0.520241
0.313262
0.540314
0.5531
0.353626
0.355588
0.539184
0.348729
0.525453
0.486635
0.344445
0.37666
0.339382
0.362129
0.537661
0.370057
0.34031
0.43557
0.344668
0.539548
0.539962
0.521004
0.538431
0.372385
0.537642
0.368485
0.539167
0.357794
0.347342
0.542007
0.479478
0.287787
0.288323
0.538992
0.37835
0.511074
0.523741
0.345221
0.537461
0.295042
0.341783
0.539568
0.299777
0.542065
0.2905
0.433041
0.345008
0.542468
0.490526
0.457641
0.53919
0.314663
0.55267
0.360915
0.327534
0.55484
0.298808
0.547435
0.477183
0.499444
0.293536
0.320051
0.329913
0.293626
0.333556
0.328132
0.538084
0.540166
0.540298
0.538544
0.31987
0.545096
0.502386
0.5277
0.282765
0.539049
0.320386
0.497384
0.489862
0.325158
0.538099
0.380041
0.53086
0.299792
0.500047
0.541853
0.29987
0.539172
0.292277
0.544233
0.362222
0.357526
0.474963
0.549734
0.546484
0.419488
0.281961
0.281605
0.45552
0.549314
0.535546
0.539698
0.538354
0.54302
0.353805
0.52503
0.497125
0.355254
0.287934
0.305513
0.519532
0.541787
0.416234
0.408223
0.414053
0.327504
0.535106
0.540675
0.538408
0.554184
0.44745
0.539388
0.541339
0.359178
0.545713
0.383011
0.371388
0.538007
0.540294
0.543951
0.551565
0.365958
0.350396
0.557941
0.537512
0.366327
0.536384
0.520646
0.540244
0.325733
0.306249
0.541501
0.372395
0.469879
0.540493
0.541713
0.354149
0.539412
0.364646
0.364992
0.354186
0.366004
0.539369
0.396318
0.525178
0.29658
0.360182
0.533934
0.344221
0.308541
0.356078
0.307779
0.408521
0.348284
0.358691
0.452905
0.465593
0.351943
0.322994
0.541978
0.371298
0.412817
0.539229
0.53916
0.505453
0.501866
0.456017
0.461724
0.291448
0.420881
0.539302
0.509742
0.289989
0.518222
0.258234
0.310869
0.299007
0.540719
0.555902
0.325265
0.507443
0.538267
0.322425
0.322061
0.548485
0.538332
0.408504
0.549929
0.398175
0.371222
0.548536
0.324157
0.468931
0.535461
0.427793
0.548955
0.351954
0.309621
0.543122
0.387054
0.349747
0.327703
0.330035
0.35744
0.539318
0.545937
0.530832
0.358934
0.290523
0.325257
0.323576
0.537157
0.274489
0.440669
0.32476
0.537968
0.540068
0.336789
0.538534
0.446076
0.502111
0.314317
0.534359
0.541299
0.558958
0.543231
0.53863
0.533036
0.326055
0.444242
0.321155
0.535744
0.331277
0.332924
0.538605
0.538719
0.539049
0.366479
0.358029
0.544813
0.547377
0.329034
0.540237
0.308101
0.328854
0.342891
0.557821
0.544161
0.531544
0.303564
0.315384
0.326508
0.355789
0.543375
0.538087
0.552182
0.356567
0.348851
0.476553
0.553101
0.550227
0.519522
0.538291
0.471935
0.542894
0.547672
0.525006
0.355492
0.543356
0.506587
0.537892
0.542029
0.551923
0.497996
0.436051
0.551452
0.333527
0.550211
0.538669
0.257377
0.538045
0.480945
0.541903
0.344703
0.363092
0.539498
0.337867
0.359509
0.553956
0.334905
0.457425
0.544386
0.315821
0.551887
0.36378
0.528634
0.538893
0.535097
0.511659
0.350498
0.361977
0.530126
0.454884
0.340117
0.509353
0.332315
0.538906
0.364744
0.473886
0.526896
0.538408
0.355307
0.503953
0.323679
0.459862
0.431598
0.324089
0.309587
0.368166
0.538918
0.505202
0.490862
0.337764
0.538759
0.50167
0.340649
0.538785
0.374842
0.472218
0.531351
0.537536
0.543102
0.333852
0.368998
0.538661
0.549738
0.532508
0.501472
0.549213
0.492439
0.479854
0.346742
0.519594
0.442187
0.38459
0.400704
0.538376
0.555014
0.517411
0.440513
0.359818
0.548034
0.348742
0.341152
0.42045
0.359823
0.475374
0.346801
0.537886
0.343883
0.323685
0.43694
0.550073
0.366185
0.327227
0.554694
0.54894
0.55626
0.352657
0.325462
0.544963
0.31868
0.326417
0.328009
0.488941
0.532168
0.303939
0.556028
0.36216
0.516261
0.539667
0.340875
0.427861
0.499185
0.511385
0.505461
0.546336
0.544054
0.549942
0.542392
0.537684
0.31611
0.400987
0.529689
0.309078
0.548968
0.534327
0.276532
0.538505
0.489664
0.521109
0.546457
0.484507
0.539322
0.33206
0.503679
0.327001
0.329871
0.540696
0.538755
0.275987
0.367361
0.537946
0.409578
0.470574
0.320054
0.280924
0.554323
0.525291
0.54943
0.521738
0.478705
0.40302
0.468281
0.35885
0.537885
0.514847
0.5067
0.315706
0.424776
0.550142
0.509361
0.544965
0.155539
0.538543
0.342286
0.362867
0.370932
0.528055
0.52914
0.547166
0.509708
0.354251
0.538785
0.43724
0.552154
0.552623
0.504495
0.363941
0.342552
0.539844
0.33533
0.449307
0.48896
0.360435
0.310562
0.526601
0.54898
0.370242
0.538394
0.538885
0.358833
0.538513
0.541076
0.544837
0.327601
0.316861
0.548806
0.347748
0.374072
0.449434
0.539068
0.352586
0.405448
0.35821
0.335154
0.545083
0.359779
0.363497
0.548548
0.35952
0.362834
0.557228
0.544314
0.541534
0.538335
0.504454
0.352482
0.556702
0.539119
0.345151
0.542899
0.540787
0.537889
0.537669
0.326464
0.538505
0.325614
0.538294
0.348276
0.538797
0.370555
0.527258
0.344315
0.547441
0.550726
0.555503
0.498651
0.539705
0.542597
0.306009
0.539708
0.294663
0.53751
0.544133
0.362929
0.454992
0.323694
0.374532
0.537618
0.391593
0.53942
0.157584
0.515257
0.51863
0.54659
0.415985
0.325679
0.289376
0.363582
0.284787
0.543422
0.397746
0.361256
0.540797
0.363094
0.373942
0.538864
0.53944
0.511932
0.542703
0.287536
0.525469
0.344502
0.537719
0.540038
0.535665
0.290397
0.547027
0.542736
0.547424
0.50906
0.540507
0.436262
0.538828
0.547171
0.461377
0.539304
0.341201
0.527249
0.326518
0.440912
0.528429
0.502934
0.53738
0.490308
0.499547
0.543044
0.336294
0.531584
0.372308
0.34973
0.54759
0.52218
0.492545
0.531427
0.53941
0.537706
0.543595
0.537949
0.539615
0.540405
0.557274
0.323898
0.512222
0.537548
0.342866
0.541565
0.34544
0.486002
0.337386
0.539407
0.355853
0.36181
0.325711
0.485215
0.540791
0.482885
0.525468
0.338846
0.351977
0.539071
0.541185
0.300295
0.512386
0.503156
0.352587
0.513675
0.357976
0.341631
0.541131
0.492833
0.337264
0.527261
0.539263
0.531447
0.370695
0.523895
0.285782
0.538675
0.396812
0.519976
0.334681
0.553728
0.322439
0.329447
0.359215
0.523832
0.334195
0.508568
0.552689
0.485754
0.326166
0.344776
0.547743
0.34093
0.269998
0.370882
0.541427
0.338885
0.324033
0.279019
0.511271
0.369864
0.372884
0.319178
0.539643
0.554276
0.345537
0.544386
0.543806
0.507415
0.345782
0.338274
0.541598
0.360111
0.559356
0.373633
0.537703
0.360502
0.204353
0.523511
0.367645
0.349155
0.36979
0.538949
0.3325
0.462782
0.544433
0.338288
0.525457
0.34503
0.554858
0.441953
0.36062
0.373541
0.540898
0.493292
0.539638
0.353287
0.326577
0.458196
0.537544
0.332935
0.331695
0.349121
0.447448
0.54407
0.323277
0.467721
0.538038
0.539461
0.533139
0.373041
0.543415
0.342961
0.540652
0.540417
0.47713
0.339276
0.50212
0.544154
0.360689
0.54353
0.545366
0.369162
0.34156
0.33706
0.29468
0.547863
0.369744
0.539616
0.414565
0.537653
0.507008
0.425732
0.520757
0.322716
0.493673
0.36529
0.538913
0.5391
0.287328
0.364533
0.322985
0.482114
0.557824
0.347272
0.302898
0.329217
0.506463
0.552257
0.287535
0.363073
0.533401
0.544239
0.535188
0.372654
0.319523
0.531727
0.538937
0.355439
0.323798
0.4542
0.555073
0.503842
0.342347
0.539525
0.540799
0.345204
0.544212
0.335803
0.54632
0.351372
0.412084
0.336011
0.32257
0.539634
0.350926
0.366685
0.346853
0.362872
0.496529
0.537223
0.555102
0.360727
0.537657
0.542132
0.540975
0.55282
0.53925
0.553406
0.554441
0.554237
0.545038
0.538784
0.301188
0.50023
0.554123
0.357896
0.547516
0.550437
0.542653
0.541118
0.328633
0.548864
0.537934
0.543031
0.351531
0.515279
0.536631
0.539547
0.537358
0.362805
0.522318
0.322606
0.470441
0.333202
0.331245
0.351798
0.370736
0.539373
0.540911
0.530654
0.35128
0.540277
0.53861
0.543294
0.371444
0.350805
0.52723
0.334601
0.350903
0.342404
0.543483
0.438007
0.540201
0.334064
0.552129
0.539639
0.474324
0.545782
0.342181
0.555326
0.541349
0.522031
0.545204
0.540457
0.534663
0.342625
0.325942
0.342248
0.538983
0.314606
0.541874
0.528809
0.50566
0.371028
0.329658
0.502757
0.547071
0.538506
0.368491
0.532828
0.523212
0.275625
0.539187
0.364809
0.353912
0.345353
0.351254
0.3626
0.545329
0.542063
0.557144
0.459726
0.540454
0.539171
0.52577
0.539036
0.552187
0.554297
0.538989
0.539029
0.343654
0.538324
0.534951
0.480367
0.370101
0.51417
0.303347
0.543152
0.392788
0.545917
0.551793
0.372444
0.543897
0.343794
0.542381
0.538435
0.553137
0.517532
0.525097
0.551767
0.539129
0.323538
0.498992
0.444524
0.282977
0.539449
0.543929
0.460764
0.556076
0.533762
0.538897
0.341709
0.366156
0.536329
0.551889
0.346213
0.186764
0.523112
0.540448
0.540635
0.304826
0.474129
0.522654
0.54016
0.370691
0.539048
0.514408
0.534887
0.526831
0.457077
0.540141
0.301948
0.538394
0.341082
0.339985
0.539196
0.377732
0.367543
0.370214
0.533527
0.519203
0.461152
0.539793
0.449454
0.318011
0.350765
0.548082
0.538559
0.546663
0.507534
0.288565
0.530555
0.479835
0.347125
0.538551
0.545767
0.372341
0.542175
0.536253
0.538037
0.46152
0.539019
0.406983
0.539596
0.537469
0.539391
0.364453
0.534249
0.406501
0.518656
0.540098
0.550368
0.537152
0.540508
0.540204
0.538946
0.526585
0.34253
0.548333
0.521854
0.338067
0.51267
0.542636
0.556202
0.509528
0.350928
0.53865
0.338764
0.552053
0.502409
0.544218
0.353676
0.522702
0.540424
0.53844
0.533596
0.492427
0.538289
0.482092
0.426385
0.371601
0.292415
0.538042
0.319396
0.326748
0.543677
0.3479
0.550061
0.305762
0.542053
0.342417
0.349881
0.529472
0.426458
0.339422
0.537265
0.539029
0.543675
0.367623
0.515874
0.540122
0.538122
0.371414
0.538049
0.540811
0.367723
0.495518
0.478379
0.531282
0.310146
0.448522
0.530975
0.344267
0.544994
0.359295
0.37521
0.538679
0.418235
0.517366
0.365733
0.545325
0.444425
0.538036
0.228253
0.351973
0.538652
0.325325
0.538129
0.32405
0.540012
0.497619
0.480401
0.538202
0.512984
0.287001
0.540606
0.554415
0.538148
0.538256
0.319717
0.320283
0.319221
0.37621
0.538788
0.342413
0.522959
0.358724
0.539826
0.541378
0.539006
0.372661
0.540093
0.360687
0.541056
0.546817
0.342352
0.539339
0.532239
0.33652
0.529171
0.342769
0.319196
0.55459
0.36177
0.548812
0.256428
0.347475
0.522205
0.347277
0.546012
0.369655
0.475923
0.538942
0.536631
0.407581
0.276367
0.374434
0.538322
0.537855
0.347748
0.541454
0.361619
0.538874
0.369385
0.348624
0.482976
0.495243
0.439084
0.506121
0.539868
0.519792
0.488086
0.542762
0.539094
0.326749
0.541504
0.306599
0.333069
0.507285
0.438826
0.45368
0.493362
0.371615
0.523214
0.538435
0.542902
0.353725
0.334066
0.468983
0.515882
0.540338
0.551493
0.353664
0.510484
0.539799
0.516783
0.485618
0.368713
0.34728
0.369613
0.559399
0.543109
0.340244
0.365851
0.481682
0.36954
0.554886
0.522996
0.337518
0.538959
0.446874
0.547271
0.542459
0.365279
0.317155
0.517095
0.350734
0.451933
0.538965
0.295098
0.36465
0.370347
0.519756
0.543382
0.516489
0.367844
0.34145
0.537269
0.540692
0.506047
0.544712
0.3626
0.352201
0.352078
0.508994
0.330067
0.347887
0.544008
0.548439
0.524252
0.335499
0.332191
0.345502
0.539365
0.329882
0.540056
0.538178
0.536708
0.445548
0.54016
0.554548
0.374317
0.371562
0.541607
0.317234
0.515737
0.533325
0.548024
0.496468
0.326592
0.31104
0.547074
0.457895
0.341465
0.541154
0.540007
0.333844
0.371747
0.522791
0.45851
0.356268
0.340394
0.546679
0.503447
0.535579
0.488523
0.404287
0.308641
0.331043
0.39822
0.363761
0.537564
0.535345
0.484962
0.52107
0.322715
0.514026
0.322747
0.539051
0.551667
0.351708
0.300806
0.537064
0.43146
0.488972
0.540907
0.320556
0.537272
0.53599
0.539009
0.538403
0.515071
0.317167
0.361711
0.35173
0.533647
0.539433
0.522474
0.459668
0.371227
0.361855
0.504002
0.371833
0.544554
0.539027
0.539107
0.39778
0.354062
0.509233
0.51643
0.537728
0.53352
0.539372
0.539121
0.541725
0.494613
0.287672
0.538668
0.508549
0.541025
0.350798
0.537033
0.443156
0.53528
0.557165
0.472193
0.503226
0.539029
0.519124
0.537896
0.353851
0.538109
0.556398
0.333044
0.514747
0.325437
0.317165
0.537585
0.539486
0.340366
0.495627
0.53905
0.331342
0.322134
0.560642
0.555487
0.484754
0.341879
0.507079
0.345613
0.548759
0.554608
0.369649
0.471351
0.511029
0.344795
0.355899
0.331013
0.544546
0.538251
0.360743
0.309046
0.360319
0.340194
0.32432
0.511681
0.34892
0.556256
0.541167
0.547308
0.344137
0.538993
0.465258
0.538939
0.480927
0.536029
0.341703
0.343397
0.376116
0.540788
0.361661
0.372332
0.507202
0.370028
0.538176
0.524559
0.441597
0.350052
0.350896
0.529929
0.541959
0.534468
0.53235
0.547881
0.363335
0.321886
0.353232
0.526185
0.540424
0.370606
0.525477
0.327637
0.369715
0.539371
0.342222
0.318351
0.286755
0.388556
0.372426
0.539725
0.543845
0.543483
0.381368
0.539172
0.547921
0.372215
0.539745
0.4306
0.546424
0.327526
0.439829
0.539095
0.356036
0.272962
0.536346
0.537228
0.369622
0.552304
0.523524
0.539175
0.438226
0.322829
0.512122
0.540105
0.385047
0.322961
0.441591
0.418976
0.53929
0.345325
0.367302
0.547119
0.523788
0.324632
0.368002
0.539039
0.352703
0.316616
0.346289
0.500183
0.550998
0.346284
0.545879
0.353996
0.334646
0.324063
0.425489
0.327644
0.545005
0.350935
0.313415
0.519148
0.544747
0.384353
0.538532
0.362527
0.348171
0.519549
0.557557
0.531688
0.532007
0.526587
0.551343
0.363816
0.545165
0.300681
0.538279
0.5347
0.46557
0.533017
0.538816
0.540011
0.539256
0.449543
0.323161
0.486502
0.373928
0.511933
0.538969
0.506867
0.362888
0.54193
0.42284
0.538257
0.373014
0.341687
0.561014
0.307107
0.536244
0.55704
0.396754
0.373071
0.356845
0.539152
0.413201
0.292439
0.546119
0.357992
0.533725
0.324968
0.328424
0.355821
0.541245
0.408314
0.538892
0.373326
0.333392
0.540682
0.538941
0.32237
0.388381
0.296211
0.523324
0.348055
0.530256
0.537522
0.538524
0.270588
0.342463
0.466349
0.540517
0.554094
0.53878
0.307836
0.522493
0.543575
0.538705
0.538394
0.343703
0.529295
0.339148
0.467543
0.547866
0.543356
0.536515
0.550952
0.507998
0.538578
0.549555
0.540481
0.530034
0.542278
0.539451
0.541349
0.371823
0.355264
0.53956
0.489848
0.538772
0.537554
0.553899
0.528844
0.55103
0.346825
0.371639
0.538111
0.374141
0.370639
0.333479
0.540146
0.531882
0.539263
0.51861
0.530418
0.361473
0.544639
0.361491
0.355909
0.551117
0.532886
0.532406
0.455095
0.449014
0.359455
0.372725
0.405623
0.294972
0.377605
0.549951
0.330612
0.538279
0.374791
0.54606
0.539095
0.316451
0.313333
0.507089
0.538231
0.373115
0.518858
0.279272
0.34099
0.358516
0.495315
0.540977
0.537592
0.539313
0.261571
0.330558
0.286476
0.343504
0.537861
0.55324
0.544514
0.328367
0.361664
0.538843
0.538971
0.542537
0.314056
0.494511
0.517441
0.549097
0.489113
0.33156
0.381558
0.309753
0.541877
0.345471
0.373905
0.537992
0.313203
0.539478
0.319785
0.323129
0.457346
0.322181
0.551842
0.537951
0.539496
0.503281
0.558654
0.520148
0.489518
0.322499
0.517595
0.537634
0.519529
0.5423
0.538884
0.546023
0.47325
0.53882
0.541125
0.306377
0.374072
0.554083
0.422298
0.539444
0.32724
0.551942
0.353548
0.53365
0.539867
0.518471
0.539063
0.54577
0.523852
0.350656
0.36163
0.545036
0.552654
0.539196
0.45152
0.550349
0.464087
0.527521
0.53899
0.485404
0.480056
0.546581
0.538177
0.327399
0.361954
0.539949
0.512634
0.347015
0.326384
0.48002
0.537899
0.53754
0.555934
0.340081
0.532278
0.311394
0.542676
0.34558
0.550966
0.289747
0.55443
0.325171
0.54061
0.489699
0.372547
0.315244
0.484666
0.329955
0.497583
0.339492
0.539315
0.537699
0.537806
0.534487
0.540122
0.541617
0.538838
0.555334
0.547066
0.512408
0.534321
0.506537
0.544935
0.348465
0.52953
0.531214
0.538718
0.305571
0.50906
0.551441
0.53894
0.348887
0.322442
0.332916
0.550594
0.50801
0.326346
0.511289
0.416103
0.539107
0.345232
0.431006
0.32329
0.332896
0.557804
0.37072
0.528505
0.342391
0.556584
0.318587
0.539194
0.513144
0.536248
0.327678
0.324065
0.403878
0.524433
0.361777
0.402275
0.357321
0.546403
0.526605
0.550742
0.531213
0.539734
0.520304
0.405299
0.323146
0.537243
0.367285
0.478464
0.53476
0.555547
0.231965
0.304534
0.530152
0.538944
0.430172
0.537053
0.542311
0.527156
0.315967
0.548911
0.528519
0.538199
0.539422
0.369342
0.537675
0.342514
0.538366
0.547735
0.515275
0.53901
0.373149
0.5433
0.256979
0.380739
0.510346
0.52017
0.536288
0.508086
0.358919
0.538328
0.542152
0.353305
0.36552
0.313032
0.553749
0.330355
0.341661
0.328699
0.322598
0.342114
0.423217
0.548685
0.330525
0.546673
0.531177
0.348372
0.542801
0.356925
0.553607
0.331963
0.477571
0.328743
0.533976
0.540262
0.417701
0.508746
0.539968
0.535167
0.342617
0.493542
0.447716
0.359912
0.365238
0.461788
0.302066
0.550711
0.321439
0.35685
0.362565
0.537653
0.535701
0.337318
0.342883
0.550644
0.363574
0.316878
0.538726
0.3721
0.31601
0.341384
0.556677
0.514426
0.552278
0.360953
0.315543
0.544867
0.528259
0.538839
0.416754
0.518
0.536342
0.442591
0.461586
0.358384
0.325956
0.268953
0.504628
0.289436
0.552489
0.522188
0.53982
0.332517
0.42893
0.479506
0.56076
0.306153
0.495625
0.273706
0.503982
0.35285
0.31125
0.295167
0.543658
0.33736
0.556215
0.325076
0.419834
0.360584
0.486182
0.356621
0.549562
0.313621
0.514169
0.500024
0.361724
0.540092
0.540142
0.303678
0.553258
0.327547
0.359469
0.548426
0.310408
0.526198
0.322685
0.249102
0.539091
0.349308
0.381704
0.324534
0.312543
0.346103
0.524655
0.452393
0.535128
0.552574
0.538744
0.549163
0.429852
0.54378
0.305324
0.54033
0.361401
0.533535
0.363133
0.412806
0.532186
0.554065
0.541344
0.387028
0.45943
0.344804
0.33231
0.326221
0.253628
0.543644
0.428265
0.552458
0.539096
0.49745
0.546305
0.540666
0.421946
0.310369
0.419913
0.548057
0.496999
0.513135
0.539868
0.55682
0.465784