# vtk DataFile Version 1.0
unstructured grid
ascii
DATASET UNSTRUCTURED_GRID
points 3226 float
0.0796578 -0.059106 0
0.00128732 0.00159165 0
0.00227961 -0.00102548 0
0.0791586 -0.0598787 0
-0.0546216 0.01 0
0.000495206 0.025 0
0.0800549 -0.035 0
0.135172 -0.08 0
-0.0546216 -0.0451168 0
0.000495206 -0.0301168 0
0.0800549 -0.0901168 0
0.135172 -0.135117 0
-0.0546216 -0.0451168 -0.00551168
0.000495206 -0.0301168 -0.00551168
0.0800549 -0.0901168 -0.00551168
0.135172 -0.135117 -0.00551168
0.135172 -0.08 -0.00551168
0.0800549 -0.035 -0.00551168
0.000495206 0.025 -0.00551168
-0.0546216 0.01 -0.00551168
0.00128732 0.00159165 -0.00551168
0.00227961 -0.00102548 -0.00551168
0.0791586 -0.0598787 -0.00551168
0.0796578 -0.059106 -0.00551168
0.00110182 -0.000823821 0
0.000571683 -0.000188043 0
0.000561313 0.000639162 0
0.00189316 0.00207203 0
0.00260228 0.00255358 0
0.0033966 0.00307293 0
0.00428861 0.00362634 0
0.00529726 0.0041979 0
0.00644092 0.00476696 0
0.00773158 0.0053187 0
0.00918011 0.00583593 0
0.010799 0.00628751 0
0.012597 0.00663225 0
0.0145725 0.0068517 0
0.0167206 0.0069338 0
0.0190349 0.00685819 0
0.0215031 0.00658621 0
0.0241038 0.00607459 0
0.026821 0.00533786 0
0.0296245 0.00434523 0
0.0324763 0.00306927 0
0.0353199 0.00146906 0
0.0381488 -0.00039338 0
0.0409131 -0.00252802 0
0.0435632 -0.00493276 0
0.0460882 -0.0075571 0
0.0484881 -0.0103478 0
0.0506782 -0.0133217 0
0.0526651 -0.016422 0
0.0546139 -0.0195019 0
0.0565301 -0.022529 0
0.0584009 -0.0254846 0
0.0602154 -0.0283513 0
0.061964 -0.031114 0
0.0636389 -0.0337601 0
0.0652336 -0.0362795 0
0.0667431 -0.0386651 0
0.0681656 -0.0409111 0
0.0694983 -0.0430158 0
0.0707356 -0.0449823 0
0.071886 -0.0468071 0
0.0729575 -0.04849 0
0.0739438 -0.0500408 0
0.0748444 -0.0514675 0
0.0756707 -0.0527715 0
0.0764313 -0.053958 0
0.0771224 -0.0550398 0
0.0777384 -0.0560288 0
0.0782803 -0.0569318 0
0.0787691 -0.0577448 0
0.0792251 -0.0584672 0
0.0800494 -0.0597378 0
0.0797987 -0.0601582 0
0.0786655 -0.059391 0
0.0781259 -0.0588425 0
0.0775539 -0.0582102 0
0.0769587 -0.0574783 0
0.0763492 -0.0566339 0
0.075723 -0.0556725 0
0.0750452 -0.0546094 0
0.0742996 -0.0534457 0
0.073478 -0.0521785 0
0.072577 -0.0508019 0
0.0715904 -0.049313 0
0.0705098 -0.047712 0
0.069328 -0.0459996 0
0.0680378 -0.0441794 0
0.066632 -0.0422571 0
0.0651046 -0.0402413 0
0.0634508 -0.0381431 0
0.0616683 -0.0359754 0
0.0597581 -0.033753 0
0.0577255 -0.0314906 0
0.0555808 -0.0292024 0
0.0533388 -0.0269013 0
0.0510024 -0.0246151 0
0.0485693 -0.0223811 0
0.0460535 -0.0202228 0
0.0434788 -0.0181535 0
0.0408704 -0.0161833 0
0.0382442 -0.0143327 0
0.0356165 -0.0126209 0
0.0330065 -0.0110594 0
0.0304368 -0.00965062 0
0.0279338 -0.00838121 0
0.0255194 -0.00723697 0
0.0231965 -0.00623664 0
0.020983 -0.00535765 0
0.0188891 -0.00458677 0
0.0169193 -0.00391673 0
0.0150754 -0.00334068 0
0.0133572 -0.00285262 0
0.0117634 -0.0024437 0
0.0102912 -0.00210643 0
0.0089363 -0.00183343 0
0.00769424 -0.00161552 0
0.00655956 -0.00144452 0
0.00552632 -0.00131235 0
0.00458815 -0.00121216 0
0.00373885 -0.00113394 0
0.00297202 -0.00106855 0
-0.0506847 -0.0440454 0
-0.0467478 -0.0429739 0
-0.0428108 -0.0419025 0
-0.0388739 -0.0408311 0
-0.034937 -0.0397597 0
-0.0310001 -0.0386882 0
-0.0270632 -0.0376168 0
-0.0231263 -0.0365454 0
-0.0191894 -0.0354739 0
-0.0152525 -0.0344025 0
-0.0113155 -0.0333311 0
-0.00737862 -0.0322597 0
-0.00344171 -0.0311882 0
0.0038716 -0.0298185 0
0.00726082 -0.0297726 0
0.010644 -0.0299802 0
0.0140027 -0.0304367 0
0.0173201 -0.0311326 0
0.0205821 -0.0320541 0
0.0237776 -0.0331851 0
0.0268988 -0.0345078 0
0.0299406 -0.0360041 0
0.0329005 -0.0376567 0
0.035778 -0.039449 0
0.038574 -0.0413659 0
0.0412905 -0.043394 0
0.0439303 -0.0455212 0
0.0464964 -0.0477367 0
0.0489922 -0.0500312 0
0.051421 -0.0523964 0
0.0537863 -0.0548252 0
0.0560914 -0.0573112 0
0.0583395 -0.0598489 0
0.0605336 -0.0624334 0
0.0626765 -0.0650605 0
0.064771 -0.0677264 0
0.0668197 -0.0704277 0
0.0688248 -0.0731615 0
0.0707885 -0.0759252 0
0.072713 -0.0787163 0
0.0746002 -0.0815329 0
0.0764517 -0.0843729 0
0.0782695 -0.0872347 0
0.0829558 -0.0924852 0
0.0858567 -0.0948536 0
0.0887575 -0.0972221 0
0.0916584 -0.0995905 0
0.0945593 -0.101959 0
0.0974602 -0.104327 0
0.100361 -0.106696 0
0.103262 -0.109064 0
0.106163 -0.111433 0
0.109064 -0.113801 0
0.111965 -0.116169 0
0.114865 -0.118538 0
0.117766 -0.120906 0
0.120667 -0.123275 0
0.123568 -0.125643 0
0.126469 -0.128012 0
0.12937 -0.13038 0
0.132271 -0.132748 0
0.135172 -0.13118 0
0.135172 -0.127243 0
0.135172 -0.123306 0
0.135172 -0.119369 0
0.135172 -0.115432 0
0.135172 -0.111495 0
0.135172 -0.107558 0
0.135172 -0.103621 0
0.135172 -0.0996846 0
0.135172 -0.0957477 0
0.135172 -0.0918107 0
0.135172 -0.0878738 0
0.135172 -0.0839369 0
0.132271 -0.0776316 0
0.12937 -0.0752632 0
0.126469 -0.0728947 0
0.123568 -0.0705263 0
0.120667 -0.0681579 0
0.117766 -0.0657895 0
0.114865 -0.0634211 0
0.111965 -0.0610526 0
0.109064 -0.0586842 0
0.106163 -0.0563158 0
0.103262 -0.0539474 0
0.100361 -0.0515789 0
0.0974602 -0.0492105 0
0.0945593 -0.0468421 0
0.0916584 -0.0444737 0
0.0887575 -0.0421053 0
0.0858567 -0.0397368 0
0.0829558 -0.0373684 0
0.0782695 -0.0321179 0
0.0764517 -0.0292561 0
0.0746002 -0.026416 0
0.072713 -0.0235995 0
0.0707885 -0.0208084 0
0.0688248 -0.0180447 0
0.0668197 -0.0153109 0
0.064771 -0.0126096 0
0.0626765 -0.00994373 0
0.0605336 -0.00731663 0
0.0583395 -0.00473208 0
0.0560914 -0.00219437 0
0.0537863 0.000291632 0
0.051421 0.00272041 0
0.0489922 0.00508564 0
0.0464964 0.00738012 0
0.0439303 0.00959562 0
0.0412905 0.0117228 0
0.038574 0.0137509 0
0.035778 0.0156678 0
0.0329005 0.0174601 0
0.0299406 0.0191127 0
0.0268988 0.020609 0
0.0237776 0.0219317 0
0.0205821 0.0230627 0
0.0173201 0.0239842 0
0.0140027 0.0246801 0
0.010644 0.0251366 0
0.00726082 0.0253442 0
0.0038716 0.0252983 0
-0.00344171 0.0239286 0
-0.00737862 0.0228571 0
-0.0113155 0.0217857 0
-0.0152525 0.0207143 0
-0.0191894 0.0196429 0
-0.0231263 0.0185714 0
-0.0270632 0.0175 0
-0.0310001 0.0164286 0
-0.034937 0.0153571 0
-0.0388739 0.0142857 0
-0.0428108 0.0132143 0
-0.0467478 0.0121429 0
-0.0506847 0.0110714 0
-0.0546216 0.00606309 0
-0.0546216 0.00212617 0
-0.0546216 -0.00181074 0
-0.0546216 -0.00574766 0
-0.0546216 -0.00968457 0
-0.0546216 -0.0136215 0
-0.0546216 -0.0175584 0
-0.0546216 -0.0214953 0
-0.0546216 -0.0254322 0
-0.0546216 -0.0293691 0
-0.0546216 -0.0333061 0
-0.0546216 -0.037243 0
-0.0546216 -0.0411799 0
-0.0506847 -0.0440454 -0.00551168
-0.0467478 -0.0429739 -0.00551168
-0.0428108 -0.0419025 -0.00551168
-0.0388739 -0.0408311 -0.00551168
-0.034937 -0.0397597 -0.00551168
-0.0310001 -0.0386882 -0.00551168
-0.0270632 -0.0376168 -0.00551168
-0.0231263 -0.0365454 -0.00551168
-0.0191894 -0.0354739 -0.00551168
-0.0152525 -0.0344025 -0.00551168
-0.0113155 -0.0333311 -0.00551168
-0.00737862 -0.0322597 -0.00551168
-0.00344171 -0.0311882 -0.00551168
0.0038716 -0.0298185 -0.00551168
0.00726082 -0.0297726 -0.00551168
0.010644 -0.0299802 -0.00551168
0.0140027 -0.0304367 -0.00551168
0.0173201 -0.0311326 -0.00551168
0.0205821 -0.0320541 -0.00551168
0.0237776 -0.0331851 -0.00551168
0.0268988 -0.0345078 -0.00551168
0.0299406 -0.0360041 -0.00551168
0.0329005 -0.0376567 -0.00551168
0.035778 -0.039449 -0.00551168
0.038574 -0.0413659 -0.00551168
0.0412905 -0.043394 -0.00551168
0.0439303 -0.0455212 -0.00551168
0.0464964 -0.0477367 -0.00551168
0.0489922 -0.0500312 -0.00551168
0.051421 -0.0523964 -0.00551168
0.0537863 -0.0548252 -0.00551168
0.0560914 -0.0573112 -0.00551168
0.0583395 -0.0598489 -0.00551168
0.0605336 -0.0624334 -0.00551168
0.0626765 -0.0650605 -0.00551168
0.064771 -0.0677264 -0.00551168
0.0668197 -0.0704277 -0.00551168
0.0688248 -0.0731615 -0.00551168
0.0707885 -0.0759252 -0.00551168
0.072713 -0.0787163 -0.00551168
0.0746002 -0.0815329 -0.00551168
0.0764517 -0.0843729 -0.00551168
0.0782695 -0.0872347 -0.00551168
0.0829558 -0.0924852 -0.00551168
0.0858567 -0.0948536 -0.00551168
0.0887575 -0.0972221 -0.00551168
0.0916584 -0.0995905 -0.00551168
0.0945593 -0.101959 -0.00551168
0.0974602 -0.104327 -0.00551168
0.100361 -0.106696 -0.00551168
0.103262 -0.109064 -0.00551168
0.106163 -0.111433 -0.00551168
0.109064 -0.113801 -0.00551168
0.111965 -0.116169 -0.00551168
0.114865 -0.118538 -0.00551168
0.117766 -0.120906 -0.00551168
0.120667 -0.123275 -0.00551168
0.123568 -0.125643 -0.00551168
0.126469 -0.128012 -0.00551168
0.12937 -0.13038 -0.00551168
0.132271 -0.132748 -0.00551168
0.135172 -0.13118 -0.00551168
0.135172 -0.127243 -0.00551168
0.135172 -0.123306 -0.00551168
0.135172 -0.119369 -0.00551168
0.135172 -0.115432 -0.00551168
0.135172 -0.111495 -0.00551168
0.135172 -0.107558 -0.00551168
0.135172 -0.103621 -0.00551168
0.135172 -0.0996846 -0.00551168
0.135172 -0.0957477 -0.00551168
0.135172 -0.0918107 -0.00551168
0.135172 -0.0878738 -0.00551168
0.135172 -0.0839369 -0.00551168
0.132271 -0.0776316 -0.00551168
0.12937 -0.0752632 -0.00551168
0.126469 -0.0728947 -0.00551168
0.123568 -0.0705263 -0.00551168
0.120667 -0.0681579 -0.00551168
0.117766 -0.0657895 -0.00551168
0.114865 -0.0634211 -0.00551168
0.111965 -0.0610526 -0.00551168
0.109064 -0.0586842 -0.00551168
0.106163 -0.0563158 -0.00551168
0.103262 -0.0539474 -0.00551168
0.100361 -0.0515789 -0.00551168
0.0974602 -0.0492105 -0.00551168
0.0945593 -0.0468421 -0.00551168
0.0916584 -0.0444737 -0.00551168
0.0887575 -0.0421053 -0.00551168
0.0858567 -0.0397368 -0.00551168
0.0829558 -0.0373684 -0.00551168
0.0782695 -0.0321179 -0.00551168
0.0764517 -0.0292561 -0.00551168
0.0746002 -0.026416 -0.00551168
0.072713 -0.0235995 -0.00551168
0.0707885 -0.0208084 -0.00551168
0.0688248 -0.0180447 -0.00551168
0.0668197 -0.0153109 -0.00551168
0.064771 -0.0126096 -0.00551168
0.0626765 -0.00994373 -0.00551168
0.0605336 -0.00731663 -0.00551168
0.0583395 -0.00473208 -0.00551168
0.0560914 -0.00219437 -0.00551168
0.0537863 0.000291632 -0.00551168
0.051421 0.00272041 -0.00551168
0.0489922 0.00508564 -0.00551168
0.0464964 0.00738012 -0.00551168
0.0439303 0.00959562 -0.00551168
0.0412905 0.0117228 -0.00551168
[...]
CELL_DATA 2965
SCALARS rho float
LOOKUP_TABLE default
0.534018
0.330016
0.524796
0.314562
0.542104
0.345988
0.53394
0.330623
0.348149
0.525779
0.314317
0.330877
0.425615
0.536486
0.518024
0.517062
0.527143
0.516834
0.544963
0.528842
0.534045
0.321274
0.509659
0.537667
0.535464
0.547603
0.458589
0.479915
0.31843
0.505337
0.502067
0.328699
0.552582
0.529609
0.281056
0.346408
0.528737
0.533486
0.308394
0.505917
0.529874
0.502827
0.534457
0.327905
0.328778
0.533247
0.458802
0.471027
0.311421
0.53404
0.389829
0.318213
0.330427
0.425046
0.31593
0.420129
0.349958
0.313486
0.271862
0.476217
0.515923
0.476873
0.321415
0.544153
0.4869
0.533847
0.533996
0.318629
0.308947
0.336025
0.518578
0.543605
0.534007
0.290732
0.50033
0.409494
0.533884
0.317761
0.32386
0.467723
0.534024
0.32068
0.33192
0.434646
0.481774
0.374078
0.313741
0.272392
0.553529
0.349475
0.30718
0.533176
0.517891
0.514325
0.534004
0.310188
0.457415
0.293954
0.335601
0.325802
0.474457
0.325201
0.33147
0.328489
0.336175
0.528614
0.533867
0.321048
0.316801
0.533904
0.246855
0.391116
0.470095
0.494065
0.310804
0.302146
0.506566
0.455158
0.534087
0.32881
0.53402
0.238383
0.540004
0.541309
0.493664
0.399992
0.326313
0.459358
0.531609
0.267358
0.331338
0.427498
0.532289
0.334096
0.460307
0.331264
0.42664
0.516714
0.554028
0.542099
0.33358
0.516138
0.527943
0.330286
0.280157
0.54545
0.316035
0.541304
0.554444
0.337815
0.326821
0.32244
0.331688
0.31929
0.280438
0.269665
0.53393
0.531802
0.525516
0.540021
0.452232
0.461693
0.407062
0.543002
0.350201
0.533943
0.415994
0.328684
0.533995
0.536057
0.481139
0.299115
0.433276
0.519854
0.547212
0.413602
0.511738
0.357892
0.259636
0.416632
0.333491
0.259427
0.31013
0.300884
0.55474
0.533946
0.320882
0.327435
0.388927
0.3247
0.30932
0.311463
0.450868
0.292509
0.534025
0.463228
0.534375
0.486023
0.4399
0.322936
0.32961
0.341147
0.528369
0.443481
0.533954
0.306226
0.427964
0.534016
0.519811
0.534675
0.496396
0.397462
0.347554
0.337959
0.50583
0.336942
0.460319
0.320918
0.517587
0.324421
0.348094
0.331982
0.458926
0.381816
0.545609
0.283858
0.533961
0.522452
0.319949
0.479603
0.324031
0.281358
0.536195
0.310416
0.533663
0.536138
0.315474
0.531081
0.325987
0.350201
0.372183
0.325589
0.54388
0.522858
0.327732
0.246066
0.52607
0.533859
0.446735
0.505822
0.324172
0.320161
0.533933
0.331056
0.48154
0.276034
0.273878
0.534087
0.533423
0.337131
0.464246
0.325394
0.543077
0.347068
0.535025
0.534063
0.266387
0.472293
0.520586
0.300186
0.327758
0.534106
0.327604
0.550449
0.509745
0.328656
0.515021
0.514819
0.551464
0.531569
0.546473
0.468047
0.529428
0.533822
0.320915
0.314032
0.52344
0.539408
0.333464
0.531637
0.462261
0.320048
0.332218
0.326789
0.477353
0.317664
0.533896
0.479931
0.549917
0.323298
0.483119
0.485378
0.476498
0.533549
0.319607
0.236519
0.545009
0.533913
0.533911
0.316552
0.331828
0.481685
0.295389
0.298417
0.491892
0.533989
0.484652
0.246059
0.318647
0.482249
0.494036
0.326015
0.534209
0.533952
0.330802
0.414266
0.533433
0.514888
0.283248
0.327111
0.534117
0.336579
0.537556
0.363799
0.539849
0.391469
0.369141
0.3321
0.327662
0.301997
0.511377
0.547708
0.52628
0.542913
0.485005
0.473712
0.311604
0.534532
0.546968
0.337074
0.311789
0.534146
0.314256
0.516752
0.472203
0.337343
0.32924
0.328864
0.313283
0.533963
0.331765
0.33466
0.379511
0.326715
0.53345
0.534289
0.472141
0.533899
0.325569
0.531347
0.328499
0.534156
0.312615
0.33378
0.535644
0.465273
0.282458
0.257063
0.532493
0.360309
0.500149
0.514378
0.321437
0.53076
0.280181
0.336673
0.5342
0.299949
0.535939
0.274875
0.379596
0.330196
0.536193
0.468418
0.433876
0.533842
0.298882
0.546407
0.340798
0.32237
0.549027
0.320826
0.540319
0.421138
0.487155
0.278696
0.295234
0.319936
0.279015
0.318713
0.336946
0.530018
0.534347
0.534596
0.534043
0.331983
0.538344
0.465867
0.520017
0.254056
0.533344
0.349743
0.484194
0.475603
0.339474
0.534046
0.35437
0.522212
0.333311
0.488097
0.534906
0.320016
0.533019
0.257848
0.537877
0.322958
0.315953
0.415744
0.543187
0.540392
0.397883
0.276635
0.249601
0.416746
0.542725
0.528259
0.533566
0.531642
0.537081
0.313611
0.513726
0.483822
0.336217
0.26404
0.302351
0.497874
0.535923
0.365705
0.37974
0.370576
0.339141
0.528357
0.534884
0.534013
0.548541
0.398001
0.533853
0.53546
0.330385
0.539456
0.345899
0.350701
0.531775
0.534622
0.537244
0.545315
0.318402
0.335068
0.552733
0.530494
0.318374
0.52964
0.501094
0.534585
0.344758
0.325623
0.535626
0.327067
0.452937
0.534752
0.53586
0.337203
0.533455
0.326472
0.32836
0.3189
0.345176
0.533477
0.362785
0.516862
0.283069
0.323002
0.526693
0.33738
0.291156
0.336809
0.275297
0.358949
0.335177
0.324204
0.426602
0.437913
0.313455
0.347828
0.535891
0.326358
0.394905
0.533453
0.533788
0.494565
0.489868
0.436409
0.443699
0.295365
0.373342
0.533649
0.498549
0.274432
0.508291
0.24278
0.291621
0.319104
0.533707
0.551026
0.335256
0.496892
0.532028
0.282726
0.340824
0.541578
0.533948
0.360264
0.543303
0.379716
0.332376
0.541607
0.337179
0.453031
0.527099
0.405892
0.54249
0.311203
0.335137
0.537301
0.368553
0.335407
0.345275
0.32533
0.324012
0.533877
0.539774
0.523147
0.316312
0.25636
0.337876
0.335414
0.530341
0.276986
0.423165
0.336765
0.531651
0.533532
0.303007
0.534065
0.390684
0.490389
0.297904
0.527493
0.53338
0.554035
0.534999
0.534019
0.525988
0.345544
0.42502
0.333726
0.527569
0.315162
0.318826
0.532506
0.533852
0.533438
0.325874
0.319221
0.538982
0.541123
0.304276
0.534372
0.295085
0.307183
0.327371
0.552683
0.538457
0.522633
0.298054
0.299671
0.337605
0.324102
0.537547
0.533988
0.54606
0.325967
0.31563
0.456698
0.547033
0.543555
0.509951
0.533921
0.412482
0.53608
0.541635
0.516859
0.328407
0.536669
0.494885
0.533958
0.536162
0.545635
0.485937
0.380276
0.546205
0.332058
0.544181
0.53385
0.234769
0.533975
0.462656
0.535379
0.334687
0.315116
0.534065
0.3003
0.331846
0.54835
0.300161
0.41568
0.537494
0.287595
0.546285
0.325159
0.49234
0.532901
0.528046
0.501734
0.324305
0.324446
0.521567
0.436586
0.331188
0.480134
0.314619
0.53402
0.316367
0.459327
0.518921
0.534056
0.316473
0.492356
0.347868
0.408744
0.413962
0.337512
0.276797
0.320155
0.534097
0.458563
0.436223
0.317628
0.534087
0.489541
0.316992
0.534045
0.325967
0.456851
0.519225
0.533969
0.537231
0.295351
0.327922
0.533999
0.544524
0.522611
0.489173
0.542705
0.47947
0.465611
0.311703
0.502901
0.388002
0.345088
0.359556
0.533932
0.549293
0.508389
0.393457
0.326701
0.541171
0.332601
0.336833
0.403208
0.312815
0.45596
0.329081
0.533954
0.327067
0.308636
0.414167
0.544647
0.327951
0.307403
0.548831
0.54357
0.551114
0.32214
0.306747
0.538513
0.345883
0.306833
0.327057
0.435859
0.524974
0.267462
0.550444
0.329257
0.505807
0.533762
0.318604
0.407831
0.477985
0.50049
0.494836
0.540764
0.538325
0.54443
0.534915
0.533997
0.332416
0.381128
0.521766
0.293432
0.543283
0.525899
0.265397
0.531982
0.475298
0.512789
0.539296
0.469631
0.531703
0.313992
0.491545
0.337032
0.299397
0.534826
0.534053
0.277514
0.329934
0.531032
0.392297
0.45315
0.297292
0.249205
0.548449
0.516158
0.544038
0.513329
0.462523
0.376565
0.45336
0.31572
0.534025
0.504291
0.49507
0.344222
0.38109
0.544353
0.49804
0.539253
0.13757
0.534052
0.313967
0.321353
0.327045
0.519963
0.521579
0.540535
0.471858
0.336109
0.53402
0.386757
0.545824
0.547077
0.492402
0.317991
0.314497
0.534309
0.336347
0.42464
0.474439
0.330871
0.340495
0.517208
0.542192
0.320013
0.534057
0.532888
0.314713
0.534066
0.535156
0.538479
0.346936
0.347525
0.542011
0.327874
0.328947
0.407694
0.533989
0.324661
0.376541
0.331273
0.297533
0.537999
0.327968
0.31782
0.543084
0.327688
0.32583
0.552722
0.537845
0.53435
0.533922
0.492933
0.328492
0.551426
0.533257
0.316636
0.537098
0.534847
0.533972
0.533978
0.346132
0.533985
0.330661
0.53399
0.323174
0.533947
0.332414
0.518358
0.316242
0.540488
0.545072
0.550034
0.484719
0.534257
0.536768
0.289361
0.533952
0.26604
0.53396
0.538203
0.323453
0.405723
0.335803
0.325824
0.53396
0.361853
0.533461
0.139223
0.504976
0.508864
0.540265
0.397602
0.331227
0.267255
0.315468
0.272294
0.536619
0.364651
0.315953
0.535033
0.336666
0.354169
0.532673
0.533024
0.501173
0.535742
0.255923
0.487123
0.314753
0.534017
0.534459
0.524392
0.291719
0.540343
0.535709
0.541395
0.498162
0.53318
0.382512
0.533902
0.540085
0.442816
0.534194
0.319681
0.518359
0.34283
0.420419
0.519932
0.490428
0.530742
0.474327
0.487397
0.537213
0.311807
0.524002
0.326384
0.333734
0.540567
0.5127
0.478775
0.519921
0.531675
0.534013
0.537164
0.534037
0.534165
0.534426
0.551937
0.347744
0.501731
0.531167
0.321857
0.534066
0.31896
0.471671
0.330374
0.534054
0.316447
0.313905
0.309312
0.46994
0.535046
0.428408
0.516369
0.330211
0.334019
0.533894
0.535245
0.332487
0.5026
0.445687
0.336154
0.504001
0.328886
0.316994
0.534057
0.480171
0.310845
0.518904
0.533107
0.52428
0.323548
0.515854
0.2607
0.533935
0.378443
0.510027
0.326974
0.548009
0.304305
0.329777
0.311923
0.51584
0.30249
0.498036
0.546473
0.47053
0.348287
0.314708
0.542107
0.314206
0.237054
0.322202
0.535519
0.318713
0.337761
0.267536
0.499557
0.332467
0.330201
0.328492
0.533808
0.549253
0.337794
0.538615
0.537885
0.495756
0.321413
0.318679
0.533807
0.31203
0.554575
0.328872
0.531393
0.320845
0.2291
0.514387
0.320075
0.323017
0.322266
0.534086
0.304766
0.445991
0.537174
0.311495
0.516338
0.327485
0.54902
0.418326
0.312779
0.330429
0.535006
0.440761
0.534105
0.318059
0.337321
0.43962
0.533986
0.31245
0.332126
0.325435
0.415866
0.536884
0.349727
0.450082
0.531626
0.534091
0.526227
0.325638
0.535765
0.321801
0.534434
0.534517
0.460669
0.334758
0.490834
0.53756
0.313326
0.537853
0.538049
0.330441
0.324766
0.316867
0.276143
0.54246
0.321736
0.533952
0.38282
0.533977
0.495252
0.374163
0.511143
0.303698
0.479945
0.317876
0.533775
0.533294
0.267914
0.327364
0.32261
0.465619
0.552575
0.314399
0.298061
0.332731
0.451529
0.546569
0.293237
0.315134
0.526006
0.536623
0.527913
0.325735
0.326911
0.523956
0.533777
0.313955
0.324152
0.437734
0.549495
0.492593
0.307802
0.534126
0.535041
0.3149
0.538348
0.326783
0.539092
0.313039
0.359164
0.310982
0.282696
0.533641
0.320119
0.320545
0.324442
0.336654
0.483827
0.529316
0.549432
0.315953
0.533953
0.535493
0.53508
0.546667
0.533649
0.547752
0.548517
0.548325
0.538031
0.532777
0.319889
0.4876
0.54927
0.325889
0.540626
0.544588
0.536766
0.535314
0.308438
0.542191
0.534026
0.536602
0.332284
0.506139
0.530026
0.533971
0.529591
0.323825
0.486671
0.347492
0.41431
0.338741
0.338492
0.323338
0.323884
0.534174
0.53318
0.522413
0.32182
0.534639
0.534067
0.537432
0.326251
0.331716
0.519118
0.304953
0.312097
0.33528
0.53644
0.419542
0.534564
0.330368
0.546063
0.533326
0.457148
0.538887
0.33657
0.549983
0.535518
0.512929
0.539275
0.534123
0.520503
0.325444
0.345958
0.332835
0.533783
0.30738
0.534294
0.520992
0.495125
0.3284
0.346694
0.483266
0.541636
0.533912
0.328446
0.525537
0.478568
0.26869
0.534161
0.315317
0.328041
0.324275
0.315314
0.336053
0.539465
0.535641
0.552085
0.443451
0.53287
0.533739
0.517893
0.534098
0.54633
0.548367
0.533678
0.533817
0.325563
0.533926
0.528152
0.426847
0.321635
0.503817
0.30764
0.537226
0.370581
0.538937
0.545375
0.329188
0.536116
0.324498
0.535378
0.532206
0.546926
0.489562
0.516112
0.545423
0.533666
0.349116
0.445344
0.422523
0.252973
0.534229
0.538094
0.443819
0.550522
0.526658
0.533927
0.317798
0.320054
0.527717
0.546119
0.316866
0.195722
0.514787
0.534258
0.534874
0.270912
0.456951
0.513457
0.5328
0.322543
0.534048
0.484401
0.525493
0.504978
0.439743
0.534111
0.307818
0.531199
0.3117
0.33621
0.53412
0.344781
0.345877
0.32398
0.525553
0.510503
0.442995
0.534083
0.430925
0.35068
0.324431
0.542345
0.532443
0.539623
0.489264
0.253589
0.522539
0.432721
0.312048
0.532422
0.540294
0.327329
0.536233
0.529295
0.533948
0.445862
0.533609
0.360873
0.534236
0.531101
0.533589
0.336437
0.525292
0.386094
0.508855
0.533704
0.544662
0.530675
0.534629
0.534596
0.532872
0.518175
0.323101
0.541823
0.510558
0.332061
0.495639
0.536788
0.5509
0.499415
0.311492
0.531032
0.333015
0.545645
0.490078
0.538576
0.323481
0.513328
0.534425
0.53402
0.525388
0.478753
0.534037
0.466608
0.386352
0.323656
0.275837
0.53394
0.347908
0.303511
0.536578
0.317346
0.543757
0.317603
0.536162
0.317333
0.325156
0.521228
0.395249
0.298813
0.530988
0.53323
0.537908
0.336248
0.506619
0.53407
0.531831
0.325272
0.534011
0.534819
0.319916
0.482385
0.462311
0.523195
0.334378
0.391526
0.510329
0.318225
0.537844
0.330906
0.329776
0.533867
0.386082
0.50725
0.315835
0.539757
0.424906
0.53402
0.223784
0.324345
0.533893
0.338174
0.534041
0.348665
0.534479
0.485539
0.466401
0.534048
0.502426
0.26229
0.534856
0.548707
0.531697
0.534005
0.321217
0.330117
0.318081
0.329917
0.533881
0.33641
0.513595
0.323781
0.532601
0.534533
0.533799
0.322957
0.534542
0.320583
0.534713
0.541366
0.346999
0.533731
0.52537
0.310424
0.521829
0.326129
0.349477
0.549125
0.332028
0.54331
0.22476
0.333932
0.512863
0.356271
0.538679
0.327703
0.461336
0.533033
0.530124
0.385748
0.272729
0.329511
0.533984
0.534032
0.336982
0.535175
0.322643
0.532663
0.321978
0.317582
0.467959
0.474607
0.419457
0.495854
0.534085
0.492093
0.473566
0.536052
0.533884
0.327056
0.534988
0.336506
0.338258
0.496105
0.406723
0.395329
0.442442
0.327417
0.514912
0.534053
0.537092
0.324161
0.317128
0.450905
0.505716
0.534402
0.545788
0.313901
0.499553
0.532688
0.50782
0.440005
0.320661
0.32552
0.32904
0.554615
0.536997
0.308001
0.323853
0.436586
0.325511
0.549221
0.513102
0.319283
0.533914
0.404481
0.540697
0.536625
0.318056
0.345367
0.506939
0.31846
0.394191
0.533042
0.274168
0.317475
0.324877
0.50794
0.536087
0.505614
0.333051
0.312229
0.52863
0.534967
0.494492
0.53882
0.31404
0.324481
0.333927
0.49793
0.325551
0.321188
0.537839
0.541555
0.514324
0.326515
0.328353
0.325532
0.533994
0.302706
0.532804
0.533982
0.530208
0.428182
0.534134
0.549114
0.331421
0.323664
0.535579
0.320869
0.465569
0.526075
0.541767
0.436929
0.323338
0.324641
0.541492
0.403246
0.311376
0.534352
0.53405
0.296128
0.321266
0.513334
0.44236
0.328713
0.336259
0.540236
0.49028
0.529027
0.474539
0.35432
0.328327
0.340908
0.380345
0.318885
0.534007
0.528503
0.470233
0.5117
0.346646
0.503938
0.348334
0.533322
0.545644
0.332248
0.264854
0.529682
0.38494
0.472437
0.535089
0.303647
0.530857
0.527905
0.53371
0.534048
0.506292
0.345609
0.336611
0.314618
0.510939
0.533892
0.514163
0.443826
0.326807
0.336735
0.492402
0.327997
0.538303
0.533714
0.532973
0.3473
0.325672
0.464536
0.507261
0.534034
0.526671
0.53419
0.533928
0.53588
0.481791
0.252879
0.533986
0.497822
0.534603
0.315845
0.529796
0.423796
0.528677
0.551985
0.44588
0.491698
0.531717
0.509269
0.534007
0.327896
0.531826
0.550896
0.342128
0.505496
0.303425
0.303118
0.534021
0.533972
0.33511
0.483193
0.533727
0.331164
0.347437
0.556926
0.549819
0.471118
0.347305
0.495568
0.327547
0.542782
0.548791
0.319714
0.454516
0.500346
0.324991
0.313411
0.340657
0.538999
0.532075
0.31241
0.334277
0.338818
0.336718
0.337741
0.5017
0.325962
0.550716
0.535062
0.541649
0.318788
0.532915
0.446488
0.531863
0.443182
0.529426
0.315469
0.30218
0.325423
0.534043
0.327362
0.323262
0.496946
0.331531
0.534046
0.506923
0.425082
0.320448
0.319834
0.522608
0.535941
0.527569
0.525463
0.542621
0.313749
0.343065
0.322108
0.509713
0.534748
0.321551
0.517685
0.337373
0.338594
0.534119
0.32075
0.346835
0.260787
0.370718
0.329035
0.534338
0.538322
0.537718
0.337741
0.533698
0.54223
0.32142
0.534324
0.375287
0.53983
0.346992
0.387561
0.533459
0.326976
0.267887
0.529705
0.524035
0.320796
0.546055
0.498372
0.533043
0.39863
0.318036
0.501366
0.534018
0.365592
0.353996
0.422707
0.398487
0.534118
0.327744
0.319857
0.540954
0.516051
0.332927
0.318043
0.531614
0.326825
0.344836
0.31861
0.454718
0.544665
0.31826
0.539983
0.320651
0.304839
0.34936
0.405419
0.331834
0.539381
0.318807
0.349185
0.481083
0.538633
0.354341
0.533941
0.313281
0.327201
0.510408
0.55227
0.523263
0.512976
0.518889
0.546013
0.323127
0.538975
0.307753
0.533948
0.526717
0.410642
0.524713
0.533993
0.53388
0.533755
0.432097
0.348079
0.429653
0.330607
0.502431
0.532384
0.495774
0.324067
0.536023
0.368419
0.533954
0.325176
0.308169
0.556324
0.30336
0.528779
0.551713
0.376937
0.330711
0.331372
0.533609
0.39301
0.269178
0.540529
0.328597
0.525658
0.347689
0.338598
0.317436
0.535183
0.390266
0.53405
0.322916
0.33798
0.534087
0.532628
0.282824
0.358566
0.268985
0.481341
0.330317
0.520538
0.530601
0.533963
0.237841
0.322783
0.450213
0.530681
0.548102
0.532707
0.300005
0.513852
0.537458
0.533947
0.53403
0.316309
0.521764
0.330803
0.449621
0.542533
0.537154
0.529945
0.544527
0.498108
0.532148
0.544025
0.533609
0.522549
0.536391
0.53375
0.535509
0.32522
0.328938
0.53427
0.475738
0.534041
0.533957
0.548087
0.519495
0.544988
0.332225
0.32511
0.534037
0.324089
0.322013
0.335073
0.533932
0.523447
0.533959
0.509828
0.523158
0.313156
0.537748
0.313342
0.313217
0.54559
0.525769
0.524567
0.398846
0.395704
0.328318
0.324626
0.384321
0.319937
0.357587
0.544
0.307138
0.531187
0.329264
0.539485
0.53302
0.286098
0.346384
0.497003
0.534029
0.327603
0.508897
0.267909
0.31737
0.323682
0.448565
0.534986
0.534031
0.53419
0.24298
0.341967
0.273753
0.335063
0.533993
0.547213
0.538537
0.332079
0.312802
0.533796
0.532751
0.536391
0.30567
0.480831
0.4651
0.543204
0.429931
0.339344
0.337688
0.32005
0.535753
0.324719
0.324376
0.533984
0.35005
0.53422
0.349427
0.343432
0.39911
0.34619
0.545518
0.534034
0.534258
0.4447
0.554066
0.51033
0.475737
0.34935
0.507641
0.530066
0.50967
0.536417
0.532743
0.539599
0.424967
0.532614
0.535316
0.338853
0.329503
0.54895
0.400293
0.533432
0.327061
0.545991
0.360415
0.526071
0.534415
0.508416
0.533033
0.538948
0.515153
0.320494
0.336687
0.537369
0.546801
0.533289
0.43343
0.544207
0.446353
0.494042
0.533719
0.47213
0.463943
0.540367
0.533957
0.335357
0.313652
0.53443
0.502138
0.328226
0.338966
0.423278
0.534041
0.533973
0.550381
0.334621
0.524518
0.302554
0.536653
0.327415
0.544411
0.298939
0.549062
0.336194
0.531327
0.445297
0.324544
0.32149
0.471016
0.327212
0.485195
0.313503
0.534105
0.534035
0.530284
0.527901
0.534113
0.534899
0.533814
0.549635
0.541473
0.501814
0.51567
0.496245
0.538241
0.322137
0.500539
0.499393
0.532598
0.315204
0.497881
0.54532
0.533888
0.332315
0.320091
0.33226
0.544113
0.497975
0.323529
0.500347
0.391027
0.53408
0.313427
0.41203
0.348681
0.303125
0.552757
0.325243
0.508354
0.325774
0.551122
0.334018
0.534091
0.502623
0.529186
0.34726
0.34908
0.352901
0.515888
0.326159
0.351209
0.323982
0.540459
0.518888
0.544233
0.523196
0.530739
0.511498
0.383198
0.347806
0.530808
0.320084
0.447875
0.526996
0.549836
0.224028
0.33826
0.522912
0.533874
0.408883
0.524978
0.534908
0.518395
0.344037
0.542794
0.520069
0.532
0.533283
0.323805
0.534012
0.325055
0.532088
0.542148
0.504783
0.533224
0.346887
0.537344
0.225157
0.360249
0.500392
0.507961
0.52968
0.451519
0.329838
0.532109
0.535918
0.322199
0.316748
0.302981
0.548256
0.338103
0.3283
0.326323
0.329128
0.311424
0.369191
0.542494
0.312465
0.539583
0.523958
0.3278
0.535683
0.331703
0.547627
0.314188
0.461164
0.323491
0.52724
0.534515
0.398851
0.497412
0.534059
0.520947
0.323936
0.480298
0.430396
0.315917
0.324026
0.405213
0.318733
0.544224
0.300402
0.335823
0.323195
0.534036
0.528239
0.311965
0.321116
0.545119
0.327558
0.325151
0.533965
0.329705
0.348004
0.341661
0.551297
0.503351
0.547349
0.327601
0.29156
0.53831
0.518127
0.53387
0.396429
0.508088
0.529817
0.415138
0.402709
0.322622
0.32416
0.237575
0.492969
0.320138
0.546519
0.512721
0.53301
0.333716
0.41021
0.419873
0.556297
0.299485
0.482674
0.241674
0.492064
0.32245
0.280782
0.293303
0.537374
0.316024
0.550745
0.348218
0.380113
0.327775
0.472032
0.314731
0.543397
0.346823
0.504421
0.487406
0.322449
0.534336
0.534309
0.337359
0.547721
0.348805
0.329102
0.542315
0.30244
0.51554
0.355178
0.234591
0.533545
0.321139
0.351946
0.349713
0.33566
0.31941
0.515438
0.43572
0.528569
0.547143
0.52827
0.54319
0.411372
0.537886
0.299078
0.534675
0.329173
0.526476
0.3152
0.389005
0.525202
0.548714
0.535214
0.35409
0.440084
0.336714
0.341961
0.34562
0.232136
0.537115
0.410105
0.5467
0.533549
0.484924
0.538953
0.534662
0.393738
0.343249
0.36632
0.541269
0.484727
0.502304
0.534251
0.551404
0.417345
0.287867
0.34046
0.543823