# vtk DataFile Version 1.0
unstructured grid
ascii
DATASET UNSTRUCTURED_GRID
points 3226 float
0.0796578 -0.059106 0
0.00128732 0.00159165 0
0.00227961 -0.00102548 0
0.0791586 -0.0598787 0
-0.0546216 0.01 0
0.000495206 0.025 0
0.0800549 -0.035 0
0.135172 -0.08 0
-0.0546216 -0.0451168 0
0.000495206 -0.0301168 0
0.0800549 -0.0901168 0
0.135172 -0.135117 0
-0.0546216 -0.0451168 -0.00551168
0.000495206 -0.0301168 -0.00551168
0.0800549 -0.0901168 -0.00551168
0.135172 -0.135117 -0.00551168
0.135172 -0.08 -0.00551168
0.0800549 -0.035 -0.00551168
0.000495206 0.025 -0.00551168
-0.0546216 0.01 -0.00551168
0.00128732 0.00159165 -0.00551168
0.00227961 -0.00102548 -0.00551168
0.0791586 -0.0598787 -0.00551168
0.0796578 -0.059106 -0.00551168
0.00110182 -0.000823821 0
0.000571683 -0.000188043 0
0.000561313 0.000639162 0
0.00189316 0.00207203 0
0.00260228 0.00255358 0
0.0033966 0.00307293 0
0.00428861 0.00362634 0
0.00529726 0.0041979 0
0.00644092 0.00476696 0
0.00773158 0.0053187 0
0.00918011 0.00583593 0
0.010799 0.00628751 0
0.012597 0.00663225 0
0.0145725 0.0068517 0
0.0167206 0.0069338 0
0.0190349 0.00685819 0
0.0215031 0.00658621 0
0.0241038 0.00607459 0
0.026821 0.00533786 0
0.0296245 0.00434523 0
0.0324763 0.00306927 0
0.0353199 0.00146906 0
0.0381488 -0.00039338 0
0.0409131 -0.00252802 0
0.0435632 -0.00493276 0
0.0460882 -0.0075571 0
0.0484881 -0.0103478 0
0.0506782 -0.0133217 0
0.0526651 -0.016422 0
0.0546139 -0.0195019 0
0.0565301 -0.022529 0
0.0584009 -0.0254846 0
0.0602154 -0.0283513 0
0.061964 -0.031114 0
0.0636389 -0.0337601 0
0.0652336 -0.0362795 0
0.0667431 -0.0386651 0
0.0681656 -0.0409111 0
0.0694983 -0.0430158 0
0.0707356 -0.0449823 0
0.071886 -0.0468071 0
0.0729575 -0.04849 0
0.0739438 -0.0500408 0
0.0748444 -0.0514675 0
0.0756707 -0.0527715 0
0.0764313 -0.053958 0
0.0771224 -0.0550398 0
0.0777384 -0.0560288 0
0.0782803 -0.0569318 0
0.0787691 -0.0577448 0
0.0792251 -0.0584672 0
0.0800494 -0.0597378 0
0.0797987 -0.0601582 0
0.0786655 -0.059391 0
0.0781259 -0.0588425 0
0.0775539 -0.0582102 0
0.0769587 -0.0574783 0
0.0763492 -0.0566339 0
0.075723 -0.0556725 0
0.0750452 -0.0546094 0
0.0742996 -0.0534457 0
0.073478 -0.0521785 0
0.072577 -0.0508019 0
0.0715904 -0.049313 0
0.0705098 -0.047712 0
0.069328 -0.0459996 0
0.0680378 -0.0441794 0
0.066632 -0.0422571 0
0.0651046 -0.0402413 0
0.0634508 -0.0381431 0
0.0616683 -0.0359754 0
0.0597581 -0.033753 0
0.0577255 -0.0314906 0
0.0555808 -0.0292024 0
0.0533388 -0.0269013 0
0.0510024 -0.0246151 0
0.0485693 -0.0223811 0
0.0460535 -0.0202228 0
0.0434788 -0.0181535 0
0.0408704 -0.0161833 0
0.0382442 -0.0143327 0
0.0356165 -0.0126209 0
0.0330065 -0.0110594 0
0.0304368 -0.00965062 0
0.0279338 -0.00838121 0
0.0255194 -0.00723697 0
0.0231965 -0.00623664 0
0.020983 -0.00535765 0
0.0188891 -0.00458677 0
0.0169193 -0.00391673 0
0.0150754 -0.00334068 0
0.0133572 -0.00285262 0
0.0117634 -0.0024437 0
0.0102912 -0.00210643 0
0.0089363 -0.00183343 0
0.00769424 -0.00161552 0
0.00655956 -0.00144452 0
0.00552632 -0.00131235 0
0.00458815 -0.00121216 0
0.00373885 -0.00113394 0
0.00297202 -0.00106855 0
-0.0506847 -0.0440454 0
-0.0467478 -0.0429739 0
-0.0428108 -0.0419025 0
-0.0388739 -0.0408311 0
-0.034937 -0.0397597 0
-0.0310001 -0.0386882 0
-0.0270632 -0.0376168 0
-0.0231263 -0.0365454 0
-0.0191894 -0.0354739 0
-0.0152525 -0.0344025 0
-0.0113155 -0.0333311 0
-0.00737862 -0.0322597 0
-0.00344171 -0.0311882 0
0.0038716 -0.0298185 0
0.00726082 -0.0297726 0
0.010644 -0.0299802 0
0.0140027 -0.0304367 0
0.0173201 -0.0311326 0
0.0205821 -0.0320541 0
0.0237776 -0.0331851 0
0.0268988 -0.0345078 0
0.0299406 -0.0360041 0
0.0329005 -0.0376567 0
0.035778 -0.039449 0
0.038574 -0.0413659 0
0.0412905 -0.043394 0
0.0439303 -0.0455212 0
0.0464964 -0.0477367 0
0.0489922 -0.0500312 0
0.051421 -0.0523964 0
0.0537863 -0.0548252 0
0.0560914 -0.0573112 0
0.0583395 -0.0598489 0
0.0605336 -0.0624334 0
0.0626765 -0.0650605 0
0.064771 -0.0677264 0
0.0668197 -0.0704277 0
0.0688248 -0.0731615 0
0.0707885 -0.0759252 0
0.072713 -0.0787163 0
0.0746002 -0.0815329 0
0.0764517 -0.0843729 0
0.0782695 -0.0872347 0
0.0829558 -0.0924852 0
0.0858567 -0.0948536 0
0.0887575 -0.0972221 0
0.0916584 -0.0995905 0
0.0945593 -0.101959 0
0.0974602 -0.104327 0
0.100361 -0.106696 0
0.103262 -0.109064 0
0.106163 -0.111433 0
0.109064 -0.113801 0
0.111965 -0.116169 0
0.114865 -0.118538 0
0.117766 -0.120906 0
0.120667 -0.123275 0
0.123568 -0.125643 0
0.126469 -0.128012 0
0.12937 -0.13038 0
0.132271 -0.132748 0
0.135172 -0.13118 0
0.135172 -0.127243 0
0.135172 -0.123306 0
0.135172 -0.119369 0
0.135172 -0.115432 0
0.135172 -0.111495 0
0.135172 -0.107558 0
0.135172 -0.103621 0
0.135172 -0.0996846 0
0.135172 -0.0957477 0
0.135172 -0.0918107 0
0.135172 -0.0878738 0
0.135172 -0.0839369 0
0.132271 -0.0776316 0
0.12937 -0.0752632 0
0.126469 -0.0728947 0
0.123568 -0.0705263 0
0.120667 -0.0681579 0
0.117766 -0.0657895 0
0.114865 -0.0634211 0
0.111965 -0.0610526 0
0.109064 -0.0586842 0
0.106163 -0.0563158 0
0.103262 -0.0539474 0
0.100361 -0.0515789 0
0.0974602 -0.0492105 0
0.0945593 -0.0468421 0
0.0916584 -0.0444737 0
0.0887575 -0.0421053 0
0.0858567 -0.0397368 0
0.0829558 -0.0373684 0
0.0782695 -0.0321179 0
0.0764517 -0.0292561 0
0.0746002 -0.026416 0
0.072713 -0.0235995 0
0.0707885 -0.0208084 0
0.0688248 -0.0180447 0
0.0668197 -0.0153109 0
0.064771 -0.0126096 0
0.0626765 -0.00994373 0
0.0605336 -0.00731663 0
0.0583395 -0.00473208 0
0.0560914 -0.00219437 0
0.0537863 0.000291632 0
0.051421 0.00272041 0
0.0489922 0.00508564 0
0.0464964 0.00738012 0
0.0439303 0.00959562 0
0.0412905 0.0117228 0
0.038574 0.0137509 0
0.035778 0.0156678 0
0.0329005 0.0174601 0
0.0299406 0.0191127 0
0.0268988 0.020609 0
0.0237776 0.0219317 0
0.0205821 0.0230627 0
0.0173201 0.0239842 0
0.0140027 0.0246801 0
0.010644 0.0251366 0
0.00726082 0.0253442 0
0.0038716 0.0252983 0
-0.00344171 0.0239286 0
-0.00737862 0.0228571 0
-0.0113155 0.0217857 0
-0.0152525 0.0207143 0
-0.0191894 0.0196429 0
-0.0231263 0.0185714 0
-0.0270632 0.0175 0
-0.0310001 0.0164286 0
-0.034937 0.0153571 0
-0.0388739 0.0142857 0
-0.0428108 0.0132143 0
-0.0467478 0.0121429 0
-0.0506847 0.0110714 0
-0.0546216 0.00606309 0
-0.0546216 0.00212617 0
-0.0546216 -0.00181074 0
-0.0546216 -0.00574766 0
-0.0546216 -0.00968457 0
-0.0546216 -0.0136215 0
-0.0546216 -0.0175584 0
-0.0546216 -0.0214953 0
-0.0546216 -0.0254322 0
-0.0546216 -0.0293691 0
-0.0546216 -0.0333061 0
-0.0546216 -0.037243 0
-0.0546216 -0.0411799 0
-0.0506847 -0.0440454 -0.00551168
-0.0467478 -0.0429739 -0.00551168
-0.0428108 -0.0419025 -0.00551168
-0.0388739 -0.0408311 -0.00551168
-0.034937 -0.0397597 -0.00551168
-0.0310001 -0.0386882 -0.00551168
-0.0270632 -0.0376168 -0.00551168
-0.0231263 -0.0365454 -0.00551168
-0.0191894 -0.0354739 -0.00551168
-0.0152525 -0.0344025 -0.00551168
-0.0113155 -0.0333311 -0.00551168
-0.00737862 -0.0322597 -0.00551168
-0.00344171 -0.0311882 -0.00551168
0.0038716 -0.0298185 -0.00551168
0.00726082 -0.0297726 -0.00551168
0.010644 -0.0299802 -0.00551168
0.0140027 -0.0304367 -0.00551168
0.0173201 -0.0311326 -0.00551168
0.0205821 -0.0320541 -0.00551168
0.0237776 -0.0331851 -0.00551168
0.0268988 -0.0345078 -0.00551168
0.0299406 -0.0360041 -0.00551168
0.0329005 -0.0376567 -0.00551168
0.035778 -0.039449 -0.00551168
0.038574 -0.0413659 -0.00551168
0.0412905 -0.043394 -0.00551168
0.0439303 -0.0455212 -0.00551168
0.0464964 -0.0477367 -0.00551168
0.0489922 -0.0500312 -0.00551168
0.051421 -0.0523964 -0.00551168
0.0537863 -0.0548252 -0.00551168
0.0560914 -0.0573112 -0.00551168
0.0583395 -0.0598489 -0.00551168
0.0605336 -0.0624334 -0.00551168
0.0626765 -0.0650605 -0.00551168
0.064771 -0.0677264 -0.00551168
0.0668197 -0.0704277 -0.00551168
0.0688248 -0.0731615 -0.00551168
0.0707885 -0.0759252 -0.00551168
0.072713 -0.0787163 -0.00551168
0.0746002 -0.0815329 -0.00551168
0.0764517 -0.0843729 -0.00551168
0.0782695 -0.0872347 -0.00551168
0.0829558 -0.0924852 -0.00551168
0.0858567 -0.0948536 -0.00551168
0.0887575 -0.0972221 -0.00551168
0.0916584 -0.0995905 -0.00551168
0.0945593 -0.101959 -0.00551168
0.0974602 -0.104327 -0.00551168
0.100361 -0.106696 -0.00551168
0.103262 -0.109064 -0.00551168
0.106163 -0.111433 -0.00551168
0.109064 -0.113801 -0.00551168
0.111965 -0.116169 -0.00551168
0.114865 -0.118538 -0.00551168
0.117766 -0.120906 -0.00551168
0.120667 -0.123275 -0.00551168
0.123568 -0.125643 -0.00551168
0.126469 -0.128012 -0.00551168
0.12937 -0.13038 -0.00551168
0.132271 -0.132748 -0.00551168
0.135172 -0.13118 -0.00551168
0.135172 -0.127243 -0.00551168
0.135172 -0.123306 -0.00551168
0.135172 -0.119369 -0.00551168
0.135172 -0.115432 -0.00551168
0.135172 -0.111495 -0.00551168
0.135172 -0.107558 -0.00551168
0.135172 -0.103621 -0.00551168
0.135172 -0.0996846 -0.00551168
0.135172 -0.0957477 -0.00551168
0.135172 -0.0918107 -0.00551168
0.135172 -0.0878738 -0.00551168
0.135172 -0.0839369 -0.00551168
0.132271 -0.0776316 -0.00551168
0.12937 -0.0752632 -0.00551168
0.126469 -0.0728947 -0.00551168
0.123568 -0.0705263 -0.00551168
0.120667 -0.0681579 -0.00551168
0.117766 -0.0657895 -0.00551168
0.114865 -0.0634211 -0.00551168
0.111965 -0.0610526 -0.00551168
0.109064 -0.0586842 -0.00551168
0.106163 -0.0563158 -0.00551168
0.103262 -0.0539474 -0.00551168
0.100361 -0.0515789 -0.00551168
0.0974602 -0.0492105 -0.00551168
0.0945593 -0.0468421 -0.00551168
0.0916584 -0.0444737 -0.00551168
0.0887575 -0.0421053 -0.00551168
0.0858567 -0.0397368 -0.00551168
0.0829558 -0.0373684 -0.00551168
0.0782695 -0.0321179 -0.00551168
0.0764517 -0.0292561 -0.00551168
0.0746002 -0.026416 -0.00551168
0.072713 -0.0235995 -0.00551168
0.0707885 -0.0208084 -0.00551168
0.0688248 -0.0180447 -0.00551168
0.0668197 -0.0153109 -0.00551168
0.064771 -0.0126096 -0.00551168
0.0626765 -0.00994373 -0.00551168
0.0605336 -0.00731663 -0.00551168
0.0583395 -0.00473208 -0.00551168
0.0560914 -0.00219437 -0.00551168
0.0537863 0.000291632 -0.00551168
0.051421 0.00272041 -0.00551168
0.0489922 0.00508564 -0.00551168
0.0464964 0.00738012 -0.00551168
0.0439303 0.00959562 -0.00551168
0.0412905 0.0117228 -0.00551168
[...]
CELL_DATA 2965
SCALARS rho float
LOOKUP_TABLE default
0.533327
0.333431
0.523838
0.321811
0.541057
0.346804
0.533295
0.333619
0.346803
0.524813
0.321543
0.330113
0.424428
0.535752
0.517057
0.516174
0.526235
0.516842
0.5439
0.527926
0.533359
0.323009
0.510044
0.538375
0.534475
0.547037
0.457568
0.479358
0.326721
0.504371
0.501087
0.331656
0.551282
0.528647
0.280284
0.34713
0.52778
0.532508
0.309911
0.504955
0.528911
0.501831
0.533781
0.330973
0.331683
0.532633
0.457695
0.47068
0.31053
0.533358
0.388879
0.319712
0.333478
0.424032
0.323603
0.419124
0.347132
0.315998
0.271122
0.475179
0.514947
0.476545
0.323718
0.54309
0.486868
0.533137
0.533349
0.321516
0.311634
0.3317
0.5185
0.542651
0.53336
0.294264
0.499343
0.408313
0.533203
0.319522
0.32678
0.466665
0.533404
0.322926
0.33371
0.433499
0.481831
0.373146
0.315293
0.271908
0.553903
0.345859
0.30954
0.532555
0.517287
0.51338
0.533298
0.311281
0.456325
0.296751
0.331734
0.32849
0.473433
0.327788
0.332383
0.330987
0.332699
0.528072
0.533184
0.322159
0.315429
0.533231
0.248619
0.389883
0.469068
0.493682
0.313431
0.306645
0.507473
0.454038
0.5334
0.330614
0.533407
0.237707
0.539287
0.540281
0.493992
0.399015
0.327292
0.458504
0.530669
0.266619
0.330282
0.426479
0.531314
0.331127
0.459284
0.333337
0.425452
0.516072
0.552786
0.541062
0.331006
0.51528
0.52698
0.329221
0.279414
0.544373
0.318988
0.540264
0.553159
0.339897
0.330505
0.327644
0.332672
0.32121
0.279603
0.26919
0.533277
0.530841
0.526241
0.540354
0.451104
0.460626
0.406073
0.542087
0.347829
0.533298
0.414883
0.331754
0.533317
0.535418
0.480103
0.298312
0.432253
0.518911
0.546145
0.412315
0.510787
0.356899
0.259053
0.415632
0.336003
0.258897
0.311188
0.300081
0.553472
0.533304
0.329338
0.32869
0.38798
0.338688
0.310723
0.317402
0.449788
0.2917
0.533368
0.462203
0.53339
0.485554
0.438865
0.325815
0.332503
0.337385
0.527865
0.442371
0.533334
0.308967
0.426933
0.533355
0.519898
0.533835
0.49594
0.39647
0.344485
0.340334
0.504894
0.339103
0.45924
0.323285
0.516646
0.339296
0.346758
0.332793
0.457886
0.380882
0.545087
0.287046
0.533343
0.521494
0.318678
0.478567
0.327052
0.284254
0.535468
0.311683
0.533022
0.535523
0.323175
0.530159
0.335916
0.349067
0.371162
0.330815
0.542814
0.521928
0.328312
0.248886
0.525106
0.533155
0.44558
0.504866
0.327145
0.327733
0.533279
0.332354
0.482305
0.276546
0.27758
0.533406
0.532741
0.331666
0.463504
0.324179
0.542152
0.347616
0.534123
0.533377
0.265658
0.471259
0.519616
0.302745
0.331107
0.533345
0.330437
0.549313
0.508827
0.331195
0.514865
0.513874
0.550697
0.531085
0.54552
0.468165
0.528702
0.533131
0.319865
0.31652
0.524153
0.538738
0.334601
0.530928
0.461239
0.323433
0.333837
0.330555
0.476337
0.31986
0.533213
0.478902
0.549439
0.3349
0.482099
0.484619
0.47544
0.532862
0.327508
0.235898
0.543978
0.533248
0.533236
0.318099
0.330986
0.480645
0.301466
0.301702
0.493145
0.533371
0.484411
0.248732
0.32765
0.481228
0.494701
0.328934
0.533499
0.533327
0.32963
0.41292
0.532793
0.51394
0.286124
0.330562
0.533425
0.337669
0.536573
0.362845
0.539121
0.390493
0.368085
0.335058
0.328217
0.300706
0.511645
0.546983
0.525674
0.541948
0.484392
0.47269
0.313741
0.533875
0.545916
0.331826
0.317456
0.533449
0.315645
0.516213
0.472454
0.332052
0.33354
0.331676
0.319632
0.533337
0.332601
0.335908
0.378581
0.329481
0.532762
0.533619
0.471121
0.533226
0.333644
0.531317
0.329174
0.533464
0.319403
0.336215
0.534851
0.464184
0.285954
0.256323
0.531801
0.359248
0.499156
0.513473
0.320299
0.530112
0.279585
0.339234
0.53349
0.304445
0.535187
0.274431
0.378667
0.333373
0.535398
0.467378
0.432829
0.533158
0.298027
0.545389
0.339629
0.32253
0.547925
0.326451
0.539426
0.420135
0.48613
0.277952
0.29396
0.320969
0.278365
0.32014
0.338897
0.529068
0.533698
0.533926
0.533359
0.334207
0.537335
0.464846
0.520206
0.253839
0.53267
0.346183
0.483799
0.47549
0.335884
0.533395
0.353327
0.521243
0.336833
0.487076
0.533965
0.325347
0.533055
0.257137
0.536987
0.325069
0.315327
0.414746
0.542166
0.539472
0.396463
0.279758
0.248873
0.415736
0.541705
0.527567
0.532882
0.530945
0.536357
0.316073
0.51277
0.483007
0.326746
0.265506
0.30498
0.496879
0.535253
0.364806
0.378733
0.369637
0.340697
0.528019
0.534222
0.533337
0.547401
0.397021
0.533183
0.534752
0.329323
0.538526
0.344944
0.3497
0.531818
0.533916
0.536273
0.544254
0.327199
0.324147
0.551428
0.52975
0.327326
0.529069
0.500123
0.533897
0.346052
0.327912
0.53492
0.335297
0.451866
0.534043
0.535192
0.331904
0.532779
0.330054
0.330786
0.321672
0.343913
0.532785
0.361837
0.516664
0.282386
0.325046
0.52615
0.339825
0.290329
0.331448
0.274532
0.358056
0.324952
0.32695
0.425573
0.436865
0.32043
0.345824
0.535133
0.334479
0.393772
0.532799
0.533099
0.49556
0.490048
0.435295
0.442608
0.301148
0.372413
0.532977
0.49773
0.278032
0.507567
0.24499
0.290789
0.324909
0.532795
0.550191
0.334591
0.497843
0.531511
0.282015
0.337006
0.54062
0.533284
0.359376
0.54238
0.378574
0.333481
0.540661
0.335585
0.451897
0.526152
0.404467
0.54145
0.31626
0.337587
0.536666
0.367444
0.337445
0.346587
0.327865
0.326825
0.533198
0.538862
0.522671
0.314879
0.255667
0.339196
0.33468
0.529685
0.283671
0.422001
0.334407
0.531285
0.532799
0.305363
0.53339
0.389727
0.490879
0.297084
0.527158
0.532453
0.552781
0.534102
0.53334
0.525714
0.346317
0.423806
0.336425
0.526601
0.317958
0.322767
0.531904
0.533164
0.532761
0.330547
0.326339
0.538246
0.540124
0.305743
0.533743
0.299293
0.306272
0.330441
0.551407
0.537972
0.521681
0.30012
0.298838
0.340167
0.327488
0.536903
0.533333
0.544985
0.329324
0.316928
0.455659
0.545944
0.5426
0.509516
0.533248
0.411494
0.535127
0.540671
0.516984
0.330828
0.535733
0.494023
0.533313
0.535516
0.544678
0.486831
0.379348
0.545464
0.334181
0.543126
0.533171
0.235483
0.533323
0.461611
0.534545
0.326052
0.323123
0.533382
0.299457
0.317982
0.547229
0.29932
0.414683
0.536486
0.286691
0.545255
0.326768
0.491351
0.532276
0.527487
0.502385
0.323174
0.327141
0.520611
0.435381
0.334369
0.479118
0.31379
0.533326
0.324098
0.458236
0.518744
0.533387
0.323467
0.491339
0.345768
0.407748
0.412773
0.338459
0.276022
0.331807
0.533401
0.457537
0.43521
0.319561
0.5334
0.48939
0.318992
0.533353
0.33498
0.455771
0.518294
0.53336
0.536519
0.294574
0.329187
0.533317
0.54407
0.521671
0.488849
0.541665
0.47842
0.46453
0.317317
0.501931
0.387049
0.344135
0.358649
0.533265
0.548152
0.509174
0.392482
0.330208
0.540179
0.330757
0.339238
0.402105
0.317426
0.454886
0.332143
0.533316
0.330161
0.311591
0.413124
0.54384
0.3302
0.306518
0.547724
0.542987
0.549997
0.324543
0.305859
0.537558
0.343064
0.305937
0.330138
0.434841
0.524701
0.266749
0.549338
0.331777
0.504819
0.533148
0.317284
0.40654
0.476964
0.499529
0.496213
0.540171
0.537744
0.543585
0.533953
0.533372
0.334603
0.379868
0.52128
0.295563
0.542377
0.524946
0.265537
0.531317
0.475301
0.514569
0.538349
0.469956
0.530736
0.313155
0.490819
0.338097
0.298446
0.5342
0.533372
0.283801
0.329172
0.5303
0.391246
0.452281
0.301117
0.248503
0.54744
0.515201
0.543384
0.514229
0.462578
0.375538
0.452273
0.3167
0.533389
0.503543
0.494478
0.342159
0.38013
0.543345
0.497413
0.538644
0.137185
0.533375
0.319847
0.323874
0.330315
0.519526
0.521549
0.539503
0.470835
0.331863
0.533329
0.385802
0.544809
0.546029
0.491882
0.326433
0.313287
0.533627
0.334233
0.423579
0.473945
0.317639
0.341289
0.516239
0.541226
0.329821
0.533389
0.53223
0.321822
0.533395
0.534436
0.537561
0.346863
0.344333
0.541087
0.326746
0.332874
0.406696
0.533306
0.327341
0.3756
0.31819
0.29675
0.537015
0.330302
0.326236
0.542408
0.330397
0.324943
0.552588
0.536916
0.533371
0.533249
0.492997
0.330506
0.55022
0.532581
0.3153
0.536747
0.534744
0.53333
0.533353
0.346689
0.533308
0.332587
0.533325
0.322032
0.533262
0.333787
0.517391
0.314883
0.539515
0.544095
0.548848
0.483696
0.533571
0.536145
0.288537
0.533248
0.265227
0.533352
0.537439
0.327417
0.404731
0.334832
0.33547
0.533344
0.360857
0.532862
0.13883
0.503995
0.508379
0.539283
0.396409
0.333367
0.269164
0.323601
0.27258
0.535646
0.363661
0.315738
0.534339
0.332447
0.352989
0.532195
0.532318
0.500677
0.534771
0.255185
0.486122
0.313288
0.53339
0.533772
0.523473
0.294436
0.539317
0.534726
0.540444
0.498011
0.532202
0.381574
0.533205
0.539147
0.441819
0.533496
0.319178
0.517388
0.343226
0.419125
0.519188
0.48941
0.530118
0.473288
0.486369
0.536541
0.317062
0.523508
0.331173
0.331678
0.539665
0.511867
0.478608
0.518984
0.530711
0.533387
0.536282
0.533395
0.533461
0.533711
0.550699
0.345807
0.501529
0.530773
0.320891
0.533099
0.321972
0.470618
0.327027
0.533349
0.324195
0.321367
0.312392
0.469482
0.534359
0.427398
0.515403
0.326378
0.331632
0.533191
0.53499
0.336333
0.503536
0.444669
0.323517
0.504609
0.330059
0.320933
0.533114
0.479127
0.314434
0.518376
0.53265
0.524275
0.336668
0.517294
0.261503
0.533245
0.377344
0.509044
0.330575
0.546879
0.305598
0.333001
0.318039
0.517087
0.301364
0.498572
0.545429
0.469907
0.346833
0.313251
0.541327
0.312951
0.236417
0.33465
0.534805
0.317845
0.337557
0.26733
0.498567
0.333872
0.331726
0.329966
0.533175
0.548416
0.340109
0.537942
0.537131
0.494985
0.324059
0.317804
0.532872
0.318303
0.553368
0.328067
0.531191
0.32319
0.237522
0.513692
0.330038
0.325865
0.334062
0.53339
0.303814
0.444844
0.536201
0.317009
0.51536
0.331101
0.547939
0.417308
0.317694
0.333389
0.53429
0.43975
0.533421
0.320812
0.338632
0.438563
0.533377
0.316762
0.329232
0.328462
0.414863
0.535895
0.349086
0.449107
0.531002
0.53341
0.526169
0.332075
0.534833
0.320841
0.53371
0.533805
0.460219
0.332257
0.492024
0.536604
0.316638
0.537683
0.537112
0.329385
0.327547
0.320753
0.280288
0.541914
0.334187
0.53329
0.381808
0.533358
0.494258
0.373241
0.510404
0.305111
0.479058
0.32674
0.533087
0.532642
0.271018
0.328913
0.325006
0.464574
0.551302
0.320316
0.300821
0.335147
0.4505
0.545487
0.296191
0.323073
0.525455
0.535701
0.527244
0.332335
0.328743
0.523352
0.533082
0.316299
0.326698
0.436557
0.548312
0.493399
0.306948
0.53343
0.534367
0.313949
0.537623
0.330545
0.538194
0.312214
0.358288
0.316418
0.281974
0.532951
0.321771
0.3292
0.327039
0.332564
0.484108
0.528349
0.548279
0.315329
0.533329
0.534622
0.534458
0.545698
0.532965
0.546642
0.547454
0.547336
0.537036
0.532137
0.32525
0.486763
0.548937
0.324864
0.539628
0.543562
0.536057
0.534641
0.30953
0.541181
0.533383
0.535747
0.333187
0.508151
0.529486
0.5333
0.528621
0.326053
0.485671
0.34464
0.413312
0.334714
0.33508
0.317128
0.335829
0.533478
0.532222
0.521634
0.324725
0.533935
0.533386
0.536737
0.332769
0.330309
0.5188
0.307873
0.311292
0.327797
0.535438
0.418409
0.533864
0.327317
0.544979
0.532623
0.456559
0.537885
0.332333
0.548855
0.534856
0.512487
0.538475
0.533393
0.519572
0.328469
0.346631
0.331212
0.533095
0.310818
0.53334
0.520663
0.496679
0.331349
0.347365
0.48226
0.541224
0.533229
0.328428
0.52509
0.477556
0.27083
0.533463
0.322239
0.326856
0.320984
0.31654
0.32662
0.53868
0.534828
0.550942
0.442307
0.531903
0.533045
0.518221
0.533409
0.545227
0.547273
0.532992
0.533128
0.32782
0.533256
0.527741
0.425841
0.331426
0.50326
0.312566
0.536503
0.36914
0.537947
0.544375
0.332095
0.535227
0.326793
0.534414
0.53206
0.545914
0.488563
0.515382
0.544496
0.532974
0.345748
0.444329
0.421467
0.252551
0.533524
0.537392
0.442711
0.549385
0.526201
0.533245
0.321011
0.32912
0.526782
0.545038
0.318135
0.198485
0.515172
0.533541
0.534201
0.270143
0.456556
0.51285
0.531832
0.333147
0.533352
0.483394
0.524558
0.504006
0.438534
0.533572
0.31285
0.530352
0.317151
0.329161
0.533428
0.343825
0.34475
0.329878
0.524682
0.511556
0.441935
0.533424
0.429692
0.35298
0.323198
0.541474
0.531815
0.538649
0.488252
0.25293
0.521897
0.431708
0.317206
0.531807
0.540159
0.336228
0.535511
0.52866
0.533293
0.444717
0.532928
0.35997
0.533528
0.530798
0.532895
0.33252
0.524349
0.384791
0.507881
0.532988
0.543688
0.530125
0.533999
0.533897
0.532294
0.51772
0.326044
0.54079
0.509599
0.334035
0.494641
0.536116
0.549718
0.500628
0.31672
0.530059
0.333849
0.544662
0.48922
0.538273
0.326394
0.512536
0.533879
0.533349
0.52442
0.4789
0.533371
0.465742
0.385372
0.330055
0.275439
0.533286
0.344664
0.307982
0.535585
0.319308
0.54271
0.319506
0.535661
0.320312
0.327554
0.520575
0.394261
0.298063
0.53175
0.532556
0.537391
0.33436
0.507681
0.533572
0.531379
0.330523
0.533362
0.534325
0.330684
0.481475
0.461352
0.522429
0.336832
0.390571
0.509378
0.318147
0.536882
0.32995
0.33252
0.533181
0.385104
0.506567
0.322805
0.539385
0.423632
0.533374
0.227609
0.326959
0.533203
0.340737
0.533387
0.34545
0.533776
0.486655
0.465314
0.533391
0.501446
0.263225
0.534154
0.547564
0.531065
0.533344
0.324712
0.331613
0.320352
0.332723
0.533191
0.338787
0.512615
0.326663
0.531673
0.533634
0.533108
0.336693
0.533843
0.322275
0.533959
0.54113
0.349173
0.533073
0.527546
0.313643
0.522332
0.322689
0.346714
0.547991
0.330912
0.542556
0.224148
0.336527
0.512209
0.358372
0.537762
0.329741
0.460235
0.532368
0.529717
0.384731
0.276398
0.32867
0.533315
0.533397
0.339104
0.534412
0.32546
0.532267
0.331345
0.319436
0.467042
0.473582
0.418386
0.49812
0.533439
0.491102
0.472702
0.535134
0.533199
0.330073
0.534184
0.339166
0.340096
0.496104
0.405715
0.394373
0.441424
0.335524
0.515146
0.533379
0.536691
0.326953
0.321101
0.450254
0.504724
0.533805
0.544744
0.320843
0.498577
0.531803
0.5094
0.438985
0.332133
0.328343
0.328861
0.553516
0.536225
0.306535
0.32447
0.435567
0.330351
0.54806
0.512121
0.318452
0.533218
0.40349
0.539661
0.53615
0.326632
0.347748
0.506142
0.319758
0.393231
0.532401
0.273963
0.325985
0.336756
0.506968
0.535107
0.504633
0.332986
0.313335
0.527701
0.534275
0.49428
0.538057
0.317677
0.326939
0.33597
0.496933
0.324787
0.322953
0.537007
0.54066
0.513361
0.330155
0.331307
0.327564
0.533294
0.301578
0.531852
0.533322
0.529837
0.427083
0.533895
0.547984
0.330545
0.33694
0.534847
0.323015
0.464546
0.525577
0.540741
0.435914
0.323346
0.3268
0.540826
0.402264
0.309974
0.533482
0.533457
0.295328
0.333517
0.512353
0.441231
0.331328
0.332384
0.539234
0.489267
0.529064
0.475125
0.353431
0.329814
0.342534
0.379313
0.318098
0.533392
0.528027
0.469296
0.511147
0.343534
0.503772
0.346798
0.532667
0.544555
0.33323
0.264165
0.528839
0.383979
0.471408
0.534435
0.304987
0.530396
0.526933
0.533022
0.53338
0.50943
0.347978
0.328943
0.316286
0.50999
0.533192
0.514878
0.442727
0.333748
0.328611
0.491407
0.331356
0.537428
0.533028
0.532455
0.346438
0.32876
0.463519
0.507895
0.53341
0.526681
0.533495
0.533243
0.535197
0.482504
0.252232
0.533294
0.498076
0.533834
0.317113
0.529021
0.422711
0.528634
0.550776
0.444841
0.490687
0.5308
0.508311
0.533369
0.330553
0.531555
0.549749
0.344171
0.507294
0.304961
0.305948
0.533404
0.533268
0.332504
0.482158
0.533033
0.333669
0.344571
0.556005
0.548728
0.470053
0.34948
0.494559
0.330268
0.541795
0.547663
0.329462
0.453565
0.499356
0.328059
0.320256
0.342766
0.53885
0.532981
0.318777
0.33677
0.33768
0.339201
0.338837
0.502443
0.32872
0.549524
0.534334
0.540874
0.322103
0.532249
0.445648
0.531027
0.442144
0.529032
0.319322
0.301404
0.335071
0.533217
0.326481
0.336832
0.49863
0.332247
0.53339
0.505956
0.423936
0.319392
0.322619
0.522732
0.535207
0.527152
0.526421
0.542767
0.320064
0.345528
0.316754
0.508747
0.534056
0.33395
0.51881
0.334902
0.337607
0.533411
0.32277
0.34378
0.262114
0.369693
0.33226
0.53364
0.539377
0.537131
0.336875
0.533014
0.541381
0.333585
0.533634
0.374376
0.538813
0.347022
0.386603
0.532793
0.329664
0.27088
0.529191
0.523128
0.332331
0.545005
0.497389
0.532363
0.397646
0.320679
0.500751
0.533305
0.364558
0.356316
0.421479
0.397159
0.533412
0.329758
0.330077
0.539991
0.519385
0.335469
0.325817
0.530664
0.329543
0.340439
0.322845
0.453686
0.543605
0.320044
0.539157
0.323099
0.307909
0.346006
0.404095
0.333863
0.538901
0.323247
0.344942
0.48007
0.537792
0.353408
0.533258
0.3196
0.330833
0.510365
0.550966
0.522292
0.512032
0.519543
0.545211
0.328292
0.538091
0.313096
0.533278
0.525778
0.409648
0.523738
0.533307
0.533178
0.533059
0.430886
0.344895
0.428646
0.333721
0.5048
0.531681
0.494775
0.326823
0.535603
0.367524
0.533283
0.331766
0.306619
0.555114
0.306504
0.527957
0.55044
0.375703
0.333663
0.330262
0.532918
0.391698
0.271627
0.540001
0.331217
0.524739
0.344588
0.340025
0.318622
0.534454
0.389129
0.533369
0.336537
0.340344
0.5333
0.531955
0.282102
0.357561
0.268143
0.480332
0.333505
0.519587
0.529894
0.533285
0.237196
0.325107
0.449114
0.529788
0.547028
0.532066
0.301706
0.513779
0.53666
0.53326
0.533363
0.318192
0.52164
0.334124
0.448781
0.542178
0.536347
0.529482
0.543597
0.500988
0.531481
0.54318
0.532759
0.522364
0.535862
0.5331
0.534817
0.336989
0.331671
0.53357
0.474776
0.533354
0.533341
0.546957
0.518532
0.543905
0.333686
0.330737
0.533383
0.339812
0.331629
0.333081
0.533222
0.522473
0.533262
0.511203
0.523338
0.31691
0.536746
0.316986
0.319858
0.544625
0.525412
0.523837
0.39788
0.394741
0.329367
0.331529
0.383276
0.326572
0.356461
0.542975
0.310163
0.530377
0.332438
0.538478
0.532456
0.285124
0.343393
0.499452
0.53337
0.335894
0.508069
0.268205
0.31618
0.327564
0.447536
0.534257
0.533418
0.533491
0.245091
0.343744
0.273508
0.331932
0.533357
0.546254
0.537741
0.334247
0.319077
0.533112
0.532081
0.535626
0.307269
0.480138
0.464077
0.542222
0.428921
0.341224
0.336794
0.321913
0.535019
0.327109
0.339364
0.533338
0.345307
0.533517
0.345732
0.345876
0.398143
0.343193
0.544482
0.533392
0.533562
0.443683
0.553307
0.50945
0.476195
0.348538
0.506662
0.529114
0.508679
0.535719
0.532206
0.538621
0.423963
0.531959
0.534628
0.341466
0.334035
0.548046
0.399255
0.53285
0.330079
0.544899
0.362506
0.525383
0.533716
0.507554
0.532357
0.537936
0.514783
0.318272
0.332693
0.536491
0.545694
0.532611
0.432337
0.543139
0.445287
0.493056
0.533032
0.471068
0.463348
0.539415
0.533301
0.335078
0.316763
0.533744
0.501144
0.33135
0.340261
0.422274
0.533405
0.533358
0.549178
0.336139
0.523865
0.304023
0.535902
0.330489
0.543455
0.307001
0.547968
0.338735
0.530429
0.444266
0.332023
0.323665
0.469937
0.330377
0.485759
0.316305
0.533419
0.533415
0.529355
0.529332
0.533408
0.534019
0.533124
0.548582
0.540752
0.501456
0.514734
0.498172
0.537246
0.32363
0.499559
0.498415
0.532023
0.316908
0.496937
0.544234
0.533206
0.333548
0.323548
0.334353
0.5432
0.500032
0.326875
0.499632
0.390027
0.53338
0.312424
0.410964
0.348051
0.30218
0.551552
0.324441
0.50739
0.328672
0.549942
0.336731
0.533398
0.501624
0.528517
0.347992
0.345957
0.352019
0.515565
0.329101
0.350336
0.326346
0.539594
0.51986
0.543226
0.522481
0.529828
0.511651
0.381754
0.344718
0.530304
0.329557
0.446832
0.526136
0.548703
0.227231
0.3379
0.523273
0.533184
0.407841
0.524071
0.533929
0.517598
0.342211
0.541765
0.519357
0.532596
0.532904
0.32301
0.533392
0.327922
0.531457
0.541387
0.503914
0.53257
0.345928
0.536596
0.224538
0.358995
0.501507
0.506995
0.529208
0.450496
0.33244
0.531564
0.535141
0.325028
0.324388
0.305894
0.547163
0.335657
0.333439
0.329462
0.330919
0.317058
0.368291
0.541459
0.314788
0.538628
0.523873
0.330497
0.534695
0.318884
0.546639
0.315904
0.460898
0.327109
0.527434
0.533807
0.397624
0.496509
0.533442
0.520027
0.326614
0.479325
0.429263
0.315227
0.326556
0.404237
0.323646
0.543212
0.304698
0.326171
0.322338
0.533418
0.527454
0.315599
0.322912
0.544184
0.329366
0.326868
0.533273
0.328863
0.343125
0.343889
0.550065
0.502367
0.547091
0.328538
0.290731
0.537344
0.517179
0.53318
0.395397
0.507495
0.52955
0.414135
0.401734
0.32721
0.327462
0.236904
0.491989
0.326531
0.545431
0.511736
0.53221
0.334326
0.409117
0.418873
0.555451
0.302697
0.481688
0.241002
0.491172
0.324766
0.279943
0.296493
0.53653
0.317393
0.549534
0.345064
0.379155
0.330109
0.470996
0.315846
0.542351
0.3436
0.504738
0.486478
0.327396
0.533627
0.5336
0.337222
0.54663
0.34831
0.331689
0.54131
0.304194
0.514581
0.357613
0.236526
0.532862
0.323596
0.350985
0.346524
0.338255
0.322175
0.514462
0.434602
0.530373
0.546153
0.527365
0.542188
0.410157
0.537155
0.300979
0.533976
0.331765
0.526081
0.323106
0.387981
0.525423
0.54766
0.53448
0.35315
0.439119
0.331924
0.344021
0.346386
0.233086
0.536208
0.40891
0.5456
0.532874
0.483929
0.538079
0.533952
0.392731
0.341686
0.365424
0.540253
0.483697
0.501477
0.533541
0.550201
0.416343
0.286846
0.339472
0.542829