# vtk DataFile Version 1.0
unstructured grid
ascii
DATASET UNSTRUCTURED_GRID
points 3226 float
0.0796578 -0.059106 0
0.00128732 0.00159165 0
0.00227961 -0.00102548 0
0.0791586 -0.0598787 0
-0.0546216 0.01 0
0.000495206 0.025 0
0.0800549 -0.035 0
0.135172 -0.08 0
-0.0546216 -0.0451168 0
0.000495206 -0.0301168 0
0.0800549 -0.0901168 0
0.135172 -0.135117 0
-0.0546216 -0.0451168 -0.00551168
0.000495206 -0.0301168 -0.00551168
0.0800549 -0.0901168 -0.00551168
0.135172 -0.135117 -0.00551168
0.135172 -0.08 -0.00551168
0.0800549 -0.035 -0.00551168
0.000495206 0.025 -0.00551168
-0.0546216 0.01 -0.00551168
0.00128732 0.00159165 -0.00551168
0.00227961 -0.00102548 -0.00551168
0.0791586 -0.0598787 -0.00551168
0.0796578 -0.059106 -0.00551168
0.00110182 -0.000823821 0
0.000571683 -0.000188043 0
0.000561313 0.000639162 0
0.00189316 0.00207203 0
0.00260228 0.00255358 0
0.0033966 0.00307293 0
0.00428861 0.00362634 0
0.00529726 0.0041979 0
0.00644092 0.00476696 0
0.00773158 0.0053187 0
0.00918011 0.00583593 0
0.010799 0.00628751 0
0.012597 0.00663225 0
0.0145725 0.0068517 0
0.0167206 0.0069338 0
0.0190349 0.00685819 0
0.0215031 0.00658621 0
0.0241038 0.00607459 0
0.026821 0.00533786 0
0.0296245 0.00434523 0
0.0324763 0.00306927 0
0.0353199 0.00146906 0
0.0381488 -0.00039338 0
0.0409131 -0.00252802 0
0.0435632 -0.00493276 0
0.0460882 -0.0075571 0
0.0484881 -0.0103478 0
0.0506782 -0.0133217 0
0.0526651 -0.016422 0
0.0546139 -0.0195019 0
0.0565301 -0.022529 0
0.0584009 -0.0254846 0
0.0602154 -0.0283513 0
0.061964 -0.031114 0
0.0636389 -0.0337601 0
0.0652336 -0.0362795 0
0.0667431 -0.0386651 0
0.0681656 -0.0409111 0
0.0694983 -0.0430158 0
0.0707356 -0.0449823 0
0.071886 -0.0468071 0
0.0729575 -0.04849 0
0.0739438 -0.0500408 0
0.0748444 -0.0514675 0
0.0756707 -0.0527715 0
0.0764313 -0.053958 0
0.0771224 -0.0550398 0
0.0777384 -0.0560288 0
0.0782803 -0.0569318 0
0.0787691 -0.0577448 0
0.0792251 -0.0584672 0
0.0800494 -0.0597378 0
0.0797987 -0.0601582 0
0.0786655 -0.059391 0
0.0781259 -0.0588425 0
0.0775539 -0.0582102 0
0.0769587 -0.0574783 0
0.0763492 -0.0566339 0
0.075723 -0.0556725 0
0.0750452 -0.0546094 0
0.0742996 -0.0534457 0
0.073478 -0.0521785 0
0.072577 -0.0508019 0
0.0715904 -0.049313 0
0.0705098 -0.047712 0
0.069328 -0.0459996 0
0.0680378 -0.0441794 0
0.066632 -0.0422571 0
0.0651046 -0.0402413 0
0.0634508 -0.0381431 0
0.0616683 -0.0359754 0
0.0597581 -0.033753 0
0.0577255 -0.0314906 0
0.0555808 -0.0292024 0
0.0533388 -0.0269013 0
0.0510024 -0.0246151 0
0.0485693 -0.0223811 0
0.0460535 -0.0202228 0
0.0434788 -0.0181535 0
0.0408704 -0.0161833 0
0.0382442 -0.0143327 0
0.0356165 -0.0126209 0
0.0330065 -0.0110594 0
0.0304368 -0.00965062 0
0.0279338 -0.00838121 0
0.0255194 -0.00723697 0
0.0231965 -0.00623664 0
0.020983 -0.00535765 0
0.0188891 -0.00458677 0
0.0169193 -0.00391673 0
0.0150754 -0.00334068 0
0.0133572 -0.00285262 0
0.0117634 -0.0024437 0
0.0102912 -0.00210643 0
0.0089363 -0.00183343 0
0.00769424 -0.00161552 0
0.00655956 -0.00144452 0
0.00552632 -0.00131235 0
0.00458815 -0.00121216 0
0.00373885 -0.00113394 0
0.00297202 -0.00106855 0
-0.0506847 -0.0440454 0
-0.0467478 -0.0429739 0
-0.0428108 -0.0419025 0
-0.0388739 -0.0408311 0
-0.034937 -0.0397597 0
-0.0310001 -0.0386882 0
-0.0270632 -0.0376168 0
-0.0231263 -0.0365454 0
-0.0191894 -0.0354739 0
-0.0152525 -0.0344025 0
-0.0113155 -0.0333311 0
-0.00737862 -0.0322597 0
-0.00344171 -0.0311882 0
0.0038716 -0.0298185 0
0.00726082 -0.0297726 0
0.010644 -0.0299802 0
0.0140027 -0.0304367 0
0.0173201 -0.0311326 0
0.0205821 -0.0320541 0
0.0237776 -0.0331851 0
0.0268988 -0.0345078 0
0.0299406 -0.0360041 0
0.0329005 -0.0376567 0
0.035778 -0.039449 0
0.038574 -0.0413659 0
0.0412905 -0.043394 0
0.0439303 -0.0455212 0
0.0464964 -0.0477367 0
0.0489922 -0.0500312 0
0.051421 -0.0523964 0
0.0537863 -0.0548252 0
0.0560914 -0.0573112 0
0.0583395 -0.0598489 0
0.0605336 -0.0624334 0
0.0626765 -0.0650605 0
0.064771 -0.0677264 0
0.0668197 -0.0704277 0
0.0688248 -0.0731615 0
0.0707885 -0.0759252 0
0.072713 -0.0787163 0
0.0746002 -0.0815329 0
0.0764517 -0.0843729 0
0.0782695 -0.0872347 0
0.0829558 -0.0924852 0
0.0858567 -0.0948536 0
0.0887575 -0.0972221 0
0.0916584 -0.0995905 0
0.0945593 -0.101959 0
0.0974602 -0.104327 0
0.100361 -0.106696 0
0.103262 -0.109064 0
0.106163 -0.111433 0
0.109064 -0.113801 0
0.111965 -0.116169 0
0.114865 -0.118538 0
0.117766 -0.120906 0
0.120667 -0.123275 0
0.123568 -0.125643 0
0.126469 -0.128012 0
0.12937 -0.13038 0
0.132271 -0.132748 0
0.135172 -0.13118 0
0.135172 -0.127243 0
0.135172 -0.123306 0
0.135172 -0.119369 0
0.135172 -0.115432 0
0.135172 -0.111495 0
0.135172 -0.107558 0
0.135172 -0.103621 0
0.135172 -0.0996846 0
0.135172 -0.0957477 0
0.135172 -0.0918107 0
0.135172 -0.0878738 0
0.135172 -0.0839369 0
0.132271 -0.0776316 0
0.12937 -0.0752632 0
0.126469 -0.0728947 0
0.123568 -0.0705263 0
0.120667 -0.0681579 0
0.117766 -0.0657895 0
0.114865 -0.0634211 0
0.111965 -0.0610526 0
0.109064 -0.0586842 0
0.106163 -0.0563158 0
0.103262 -0.0539474 0
0.100361 -0.0515789 0
0.0974602 -0.0492105 0
0.0945593 -0.0468421 0
0.0916584 -0.0444737 0
0.0887575 -0.0421053 0
0.0858567 -0.0397368 0
0.0829558 -0.0373684 0
0.0782695 -0.0321179 0
0.0764517 -0.0292561 0
0.0746002 -0.026416 0
0.072713 -0.0235995 0
0.0707885 -0.0208084 0
0.0688248 -0.0180447 0
0.0668197 -0.0153109 0
0.064771 -0.0126096 0
0.0626765 -0.00994373 0
0.0605336 -0.00731663 0
0.0583395 -0.00473208 0
0.0560914 -0.00219437 0
0.0537863 0.000291632 0
0.051421 0.00272041 0
0.0489922 0.00508564 0
0.0464964 0.00738012 0
0.0439303 0.00959562 0
0.0412905 0.0117228 0
0.038574 0.0137509 0
0.035778 0.0156678 0
0.0329005 0.0174601 0
0.0299406 0.0191127 0
0.0268988 0.020609 0
0.0237776 0.0219317 0
0.0205821 0.0230627 0
0.0173201 0.0239842 0
0.0140027 0.0246801 0
0.010644 0.0251366 0
0.00726082 0.0253442 0
0.0038716 0.0252983 0
-0.00344171 0.0239286 0
-0.00737862 0.0228571 0
-0.0113155 0.0217857 0
-0.0152525 0.0207143 0
-0.0191894 0.0196429 0
-0.0231263 0.0185714 0
-0.0270632 0.0175 0
-0.0310001 0.0164286 0
-0.034937 0.0153571 0
-0.0388739 0.0142857 0
-0.0428108 0.0132143 0
-0.0467478 0.0121429 0
-0.0506847 0.0110714 0
-0.0546216 0.00606309 0
-0.0546216 0.00212617 0
-0.0546216 -0.00181074 0
-0.0546216 -0.00574766 0
-0.0546216 -0.00968457 0
-0.0546216 -0.0136215 0
-0.0546216 -0.0175584 0
-0.0546216 -0.0214953 0
-0.0546216 -0.0254322 0
-0.0546216 -0.0293691 0
-0.0546216 -0.0333061 0
-0.0546216 -0.037243 0
-0.0546216 -0.0411799 0
-0.0506847 -0.0440454 -0.00551168
-0.0467478 -0.0429739 -0.00551168
-0.0428108 -0.0419025 -0.00551168
-0.0388739 -0.0408311 -0.00551168
-0.034937 -0.0397597 -0.00551168
-0.0310001 -0.0386882 -0.00551168
-0.0270632 -0.0376168 -0.00551168
-0.0231263 -0.0365454 -0.00551168
-0.0191894 -0.0354739 -0.00551168
-0.0152525 -0.0344025 -0.00551168
-0.0113155 -0.0333311 -0.00551168
-0.00737862 -0.0322597 -0.00551168
-0.00344171 -0.0311882 -0.00551168
0.0038716 -0.0298185 -0.00551168
0.00726082 -0.0297726 -0.00551168
0.010644 -0.0299802 -0.00551168
0.0140027 -0.0304367 -0.00551168
0.0173201 -0.0311326 -0.00551168
0.0205821 -0.0320541 -0.00551168
0.0237776 -0.0331851 -0.00551168
0.0268988 -0.0345078 -0.00551168
0.0299406 -0.0360041 -0.00551168
0.0329005 -0.0376567 -0.00551168
0.035778 -0.039449 -0.00551168
0.038574 -0.0413659 -0.00551168
0.0412905 -0.043394 -0.00551168
0.0439303 -0.0455212 -0.00551168
0.0464964 -0.0477367 -0.00551168
0.0489922 -0.0500312 -0.00551168
0.051421 -0.0523964 -0.00551168
0.0537863 -0.0548252 -0.00551168
0.0560914 -0.0573112 -0.00551168
0.0583395 -0.0598489 -0.00551168
0.0605336 -0.0624334 -0.00551168
0.0626765 -0.0650605 -0.00551168
0.064771 -0.0677264 -0.00551168
0.0668197 -0.0704277 -0.00551168
0.0688248 -0.0731615 -0.00551168
0.0707885 -0.0759252 -0.00551168
0.072713 -0.0787163 -0.00551168
0.0746002 -0.0815329 -0.00551168
0.0764517 -0.0843729 -0.00551168
0.0782695 -0.0872347 -0.00551168
0.0829558 -0.0924852 -0.00551168
0.0858567 -0.0948536 -0.00551168
0.0887575 -0.0972221 -0.00551168
0.0916584 -0.0995905 -0.00551168
0.0945593 -0.101959 -0.00551168
0.0974602 -0.104327 -0.00551168
0.100361 -0.106696 -0.00551168
0.103262 -0.109064 -0.00551168
0.106163 -0.111433 -0.00551168
0.109064 -0.113801 -0.00551168
0.111965 -0.116169 -0.00551168
0.114865 -0.118538 -0.00551168
0.117766 -0.120906 -0.00551168
0.120667 -0.123275 -0.00551168
0.123568 -0.125643 -0.00551168
0.126469 -0.128012 -0.00551168
0.12937 -0.13038 -0.00551168
0.132271 -0.132748 -0.00551168
0.135172 -0.13118 -0.00551168
0.135172 -0.127243 -0.00551168
0.135172 -0.123306 -0.00551168
0.135172 -0.119369 -0.00551168
0.135172 -0.115432 -0.00551168
0.135172 -0.111495 -0.00551168
0.135172 -0.107558 -0.00551168
0.135172 -0.103621 -0.00551168
0.135172 -0.0996846 -0.00551168
0.135172 -0.0957477 -0.00551168
0.135172 -0.0918107 -0.00551168
0.135172 -0.0878738 -0.00551168
0.135172 -0.0839369 -0.00551168
0.132271 -0.0776316 -0.00551168
0.12937 -0.0752632 -0.00551168
0.126469 -0.0728947 -0.00551168
0.123568 -0.0705263 -0.00551168
0.120667 -0.0681579 -0.00551168
0.117766 -0.0657895 -0.00551168
0.114865 -0.0634211 -0.00551168
0.111965 -0.0610526 -0.00551168
0.109064 -0.0586842 -0.00551168
0.106163 -0.0563158 -0.00551168
0.103262 -0.0539474 -0.00551168
0.100361 -0.0515789 -0.00551168
0.0974602 -0.0492105 -0.00551168
0.0945593 -0.0468421 -0.00551168
0.0916584 -0.0444737 -0.00551168
0.0887575 -0.0421053 -0.00551168
0.0858567 -0.0397368 -0.00551168
0.0829558 -0.0373684 -0.00551168
0.0782695 -0.0321179 -0.00551168
0.0764517 -0.0292561 -0.00551168
0.0746002 -0.026416 -0.00551168
0.072713 -0.0235995 -0.00551168
0.0707885 -0.0208084 -0.00551168
0.0688248 -0.0180447 -0.00551168
0.0668197 -0.0153109 -0.00551168
0.064771 -0.0126096 -0.00551168
0.0626765 -0.00994373 -0.00551168
0.0605336 -0.00731663 -0.00551168
0.0583395 -0.00473208 -0.00551168
0.0560914 -0.00219437 -0.00551168
0.0537863 0.000291632 -0.00551168
0.051421 0.00272041 -0.00551168
0.0489922 0.00508564 -0.00551168
0.0464964 0.00738012 -0.00551168
0.0439303 0.00959562 -0.00551168
0.0412905 0.0117228 -0.00551168
[...]
CELL_DATA 2965
SCALARS rho float
LOOKUP_TABLE default
0.534076
0.333589
0.524787
0.319012
0.542115
0.35119
0.53402
0.333607
0.353562
0.525772
0.318737
0.33581
0.425651
0.536501
0.518017
0.517059
0.527144
0.51677
0.544978
0.528844
0.534103
0.324012
0.509559
0.53752
0.535464
0.547577
0.458586
0.479898
0.323031
0.505325
0.502057
0.333123
0.552615
0.529601
0.281088
0.351608
0.528738
0.533484
0.311689
0.505905
0.529874
0.502823
0.534486
0.331164
0.332892
0.533263
0.458825
0.470993
0.311464
0.53411
0.389845
0.321149
0.334869
0.425049
0.320458
0.420136
0.355875
0.316937
0.27189
0.476231
0.515916
0.476838
0.325248
0.544163
0.48684
0.533874
0.534077
0.321936
0.314999
0.340377
0.518522
0.543617
0.534088
0.295241
0.500321
0.409531
0.533949
0.320914
0.326998
0.467729
0.534109
0.3245
0.338483
0.434674
0.481705
0.374096
0.316209
0.272789
0.5534
0.355409
0.310751
0.533195
0.517876
0.51431
0.534034
0.312859
0.457441
0.298705
0.340235
0.329307
0.474469
0.328678
0.335972
0.33213
0.340352
0.528607
0.533932
0.322975
0.318945
0.533975
0.249809
0.391167
0.470092
0.494032
0.317338
0.307432
0.506417
0.455182
0.534151
0.333135
0.534107
0.23841
0.540007
0.54132
0.493571
0.400002
0.331134
0.459368
0.531597
0.267388
0.336273
0.427502
0.532286
0.338809
0.460305
0.338957
0.426678
0.5167
0.554051
0.54211
0.338404
0.516134
0.527942
0.330366
0.28026
0.545465
0.319967
0.541314
0.554471
0.343235
0.330837
0.326467
0.336298
0.322891
0.280493
0.270092
0.534007
0.531793
0.525377
0.53991
0.452253
0.461699
0.407067
0.542989
0.355919
0.534023
0.416016
0.331844
0.534066
0.536066
0.48114
0.299124
0.433276
0.519853
0.54722
0.413658
0.511724
0.357921
0.259975
0.416639
0.336614
0.259787
0.312645
0.300916
0.554765
0.534025
0.325261
0.332133
0.388943
0.32927
0.312529
0.315649
0.450896
0.292593
0.534104
0.463223
0.534374
0.485997
0.439902
0.326223
0.332575
0.350867
0.528357
0.443513
0.534039
0.310294
0.427968
0.534093
0.51974
0.534682
0.496368
0.39747
0.352932
0.343401
0.505831
0.33982
0.460341
0.324043
0.517586
0.329071
0.353526
0.337353
0.458925
0.38183
0.545581
0.289221
0.534047
0.522443
0.320077
0.479604
0.327409
0.285235
0.536209
0.313464
0.533688
0.536143
0.320137
0.531066
0.330494
0.350252
0.372207
0.329857
0.543892
0.522842
0.33265
0.250261
0.526069
0.53391
0.446765
0.505823
0.327616
0.32454
0.53401
0.335908
0.481408
0.277534
0.278725
0.534153
0.533457
0.340695
0.464244
0.325479
0.543088
0.352197
0.535008
0.53413
0.266416
0.472292
0.520579
0.304236
0.331808
0.534114
0.331388
0.550471
0.509743
0.332754
0.514971
0.514818
0.551454
0.531562
0.546465
0.467974
0.529425
0.533872
0.321015
0.317572
0.523304
0.539409
0.338561
0.53164
0.462256
0.324811
0.338555
0.330988
0.477347
0.320315
0.533959
0.479929
0.549878
0.327792
0.483115
0.485375
0.476505
0.533586
0.323997
0.236537
0.545025
0.533984
0.533976
0.319763
0.336602
0.481688
0.30268
0.302391
0.491713
0.534075
0.484608
0.250077
0.32345
0.48226
0.493911
0.329455
0.534254
0.534036
0.335633
0.414334
0.533458
0.514874
0.287095
0.331547
0.534177
0.341346
0.537564
0.363823
0.539853
0.391478
0.369172
0.335111
0.332478
0.302111
0.511288
0.547697
0.526269
0.542907
0.484991
0.473709
0.314637
0.534555
0.546974
0.341137
0.315919
0.534203
0.317356
0.516732
0.472118
0.340941
0.333758
0.333256
0.317628
0.534048
0.33618
0.339802
0.379528
0.330219
0.53347
0.53432
0.472137
0.533969
0.330044
0.531284
0.333081
0.534213
0.317006
0.336283
0.535653
0.465292
0.286914
0.257098
0.532502
0.360341
0.500144
0.514377
0.32161
0.530763
0.280479
0.341858
0.534248
0.30577
0.535953
0.275388
0.379613
0.333372
0.536204
0.468417
0.43388
0.533889
0.298905
0.546409
0.340863
0.32798
0.549037
0.330429
0.540301
0.421146
0.487164
0.278829
0.295347
0.325037
0.279257
0.323535
0.342384
0.530007
0.53437
0.534625
0.534114
0.340465
0.538351
0.465862
0.519936
0.254729
0.533379
0.355686
0.484162
0.475549
0.34877
0.534124
0.35441
0.522205
0.340987
0.488102
0.534912
0.329884
0.532947
0.257875
0.537886
0.325573
0.318252
0.415753
0.54319
0.540403
0.397964
0.280778
0.249639
0.41675
0.542728
0.528254
0.533584
0.531647
0.537093
0.317166
0.513713
0.483823
0.339241
0.266793
0.306437
0.497866
0.535937
0.365723
0.379759
0.370595
0.344316
0.528331
0.534906
0.534086
0.548561
0.398011
0.533891
0.535483
0.330464
0.539466
0.345939
0.350736
0.531704
0.534657
0.537252
0.545323
0.323188
0.337271
0.552765
0.530494
0.323181
0.529637
0.501082
0.534618
0.349817
0.337212
0.535647
0.331522
0.452945
0.534784
0.535875
0.341171
0.53348
0.330574
0.332547
0.32193
0.345251
0.533507
0.362807
0.516816
0.283221
0.325972
0.526681
0.340484
0.291195
0.340744
0.27533
0.358967
0.337643
0.327396
0.426606
0.437916
0.317951
0.353521
0.535907
0.330871
0.394937
0.533482
0.533835
0.494409
0.489789
0.436448
0.443711
0.30234
0.373359
0.533684
0.498546
0.279377
0.508281
0.246197
0.291671
0.329012
0.533713
0.551024
0.340868
0.49674
0.532026
0.282745
0.350918
0.54157
0.53402
0.360281
0.54329
0.379754
0.336282
0.541597
0.342612
0.45306
0.527087
0.40597
0.542498
0.315239
0.345017
0.537303
0.368593
0.338041
0.350333
0.329023
0.327096
0.53392
0.539785
0.523127
0.318236
0.256383
0.343264
0.341142
0.530342
0.28505
0.423198
0.342071
0.531628
0.533538
0.306638
0.534135
0.390697
0.490281
0.297932
0.527465
0.533366
0.554061
0.534981
0.534087
0.525953
0.350641
0.425069
0.339468
0.527563
0.318475
0.324414
0.53252
0.533913
0.533476
0.330106
0.323575
0.538989
0.541135
0.307467
0.53439
0.30021
0.307273
0.33064
0.552714
0.538437
0.522622
0.301301
0.299697
0.340991
0.328141
0.53755
0.534066
0.54607
0.330126
0.319197
0.456698
0.547043
0.543547
0.509922
0.533994
0.412492
0.536088
0.541648
0.516784
0.33269
0.536676
0.494887
0.534039
0.536172
0.545626
0.485792
0.380293
0.546199
0.338684
0.544196
0.533911
0.23651
0.534054
0.462657
0.535386
0.33788
0.319774
0.534108
0.300345
0.331831
0.54837
0.300205
0.415684
0.537499
0.287676
0.546301
0.32753
0.492331
0.53292
0.528036
0.50161
0.324416
0.327567
0.521566
0.43663
0.334482
0.480129
0.314658
0.534081
0.321047
0.459341
0.518874
0.534129
0.320863
0.492359
0.353598
0.408752
0.414
0.342865
0.276835
0.325068
0.534161
0.458561
0.436226
0.322152
0.534153
0.48949
0.321267
0.534111
0.330463
0.456861
0.519209
0.534055
0.537243
0.295381
0.329989
0.534066
0.544491
0.522597
0.489136
0.542711
0.479481
0.465622
0.316023
0.502889
0.388016
0.345128
0.359575
0.534003
0.549309
0.508252
0.393467
0.330842
0.541169
0.337351
0.341947
0.403233
0.316688
0.455967
0.332228
0.534034
0.33048
0.312164
0.414177
0.544649
0.332222
0.307487
0.548843
0.543552
0.551134
0.325568
0.306802
0.538523
0.350482
0.306888
0.330798
0.435861
0.524938
0.267485
0.550453
0.333062
0.505802
0.533779
0.318701
0.407892
0.47798
0.500493
0.494644
0.540753
0.538318
0.544434
0.534907
0.534082
0.342326
0.381185
0.521745
0.297076
0.543293
0.525888
0.266571
0.531989
0.475234
0.51255
0.539286
0.46954
0.531698
0.314033
0.491537
0.342248
0.299489
0.53484
0.534117
0.285169
0.33496
0.531033
0.392317
0.453162
0.302394
0.249234
0.548447
0.516156
0.544026
0.513179
0.462458
0.376589
0.453373
0.317388
0.534106
0.504283
0.495053
0.348874
0.381105
0.544368
0.498026
0.539246
0.137583
0.534122
0.318236
0.324182
0.331022
0.519937
0.521519
0.540541
0.471854
0.340576
0.534084
0.38677
0.545825
0.547093
0.49238
0.322613
0.314681
0.534347
0.34105
0.424651
0.474416
0.330673
0.346418
0.517199
0.542185
0.324692
0.53413
0.532912
0.319161
0.534137
0.535179
0.538488
0.351809
0.352939
0.541998
0.327937
0.333417
0.407701
0.534044
0.328712
0.376549
0.33163
0.297563
0.537996
0.332248
0.322545
0.543077
0.331382
0.325871
0.552644
0.537854
0.534353
0.533994
0.492863
0.333072
0.551452
0.533287
0.31684
0.537065
0.534789
0.534054
0.534063
0.350954
0.534055
0.33764
0.534064
0.323293
0.534008
0.336328
0.518352
0.316454
0.540482
0.545085
0.550058
0.484718
0.534299
0.536771
0.289363
0.533986
0.26628
0.534046
0.538213
0.327451
0.405732
0.341343
0.330452
0.534045
0.361882
0.533475
0.139237
0.504976
0.508838
0.540275
0.397643
0.338737
0.270627
0.320154
0.273574
0.536625
0.364681
0.318137
0.53506
0.340432
0.354225
0.532665
0.533035
0.501148
0.535746
0.25596
0.487116
0.314989
0.534102
0.534495
0.524376
0.296167
0.540349
0.535712
0.541408
0.498111
0.533183
0.382527
0.533963
0.540074
0.442842
0.534249
0.323479
0.518356
0.347548
0.42048
0.519924
0.490426
0.530745
0.474327
0.487398
0.537221
0.316293
0.523983
0.330598
0.338454
0.540552
0.512696
0.478725
0.519905
0.531667
0.534098
0.537173
0.534118
0.53421
0.53445
0.55196
0.353465
0.501683
0.531148
0.321974
0.534059
0.3232
0.471675
0.334672
0.534103
0.321046
0.31841
0.315291
0.469916
0.535073
0.428412
0.516363
0.33431
0.33876
0.533948
0.535204
0.340351
0.502449
0.445687
0.338002
0.503882
0.333394
0.321455
0.534062
0.480179
0.314714
0.518884
0.533095
0.524218
0.328344
0.515648
0.2629
0.534
0.378476
0.510021
0.331006
0.548028
0.307062
0.334452
0.31614
0.515654
0.302671
0.497924
0.546478
0.470519
0.354004
0.314938
0.54211
0.314405
0.237073
0.326937
0.53554
0.318799
0.343311
0.268296
0.499549
0.336417
0.335137
0.334229
0.53383
0.549252
0.340832
0.538618
0.537896
0.495752
0.325418
0.318769
0.533795
0.316295
0.554601
0.328896
0.53135
0.323703
0.239862
0.514375
0.324703
0.327018
0.32697
0.534149
0.30486
0.446023
0.537168
0.315793
0.516336
0.331589
0.549028
0.41833
0.316762
0.334686
0.535031
0.44076
0.534143
0.321081
0.34259
0.439651
0.534073
0.317213
0.337069
0.329423
0.415869
0.536881
0.354738
0.450104
0.531634
0.534136
0.52617
0.329928
0.535752
0.321918
0.534448
0.534544
0.460645
0.339263
0.49066
0.537569
0.316649
0.5378
0.538038
0.335451
0.32857
0.321302
0.281637
0.54244
0.326519
0.533984
0.38284
0.534062
0.495246
0.374181
0.511134
0.306783
0.479951
0.322699
0.533828
0.533323
0.27252
0.331984
0.325754
0.46562
0.552602
0.318622
0.301673
0.338975
0.451529
0.546587
0.298277
0.319751
0.525991
0.536609
0.527909
0.330101
0.334164
0.523944
0.533831
0.317392
0.327431
0.437767
0.549518
0.492455
0.307845
0.53417
0.535065
0.31497
0.538357
0.330946
0.539075
0.313072
0.359182
0.315341
0.282715
0.533666
0.32238
0.32492
0.327323
0.340476
0.483739
0.52931
0.54945
0.318046
0.534038
0.5355
0.535091
0.54666
0.533687
0.547771
0.548522
0.54832
0.538032
0.532799
0.329528
0.4876
0.549216
0.325965
0.540625
0.544603
0.53678
0.535335
0.31096
0.542192
0.534108
0.536611
0.337799
0.50588
0.530023
0.534008
0.529589
0.326682
0.486664
0.353484
0.414318
0.343192
0.34305
0.325
0.32843
0.534226
0.533171
0.522407
0.325007
0.534675
0.534137
0.537441
0.330708
0.336559
0.519083
0.30949
0.312127
0.338923
0.536443
0.419567
0.534599
0.334865
0.546075
0.53334
0.457138
0.538888
0.340396
0.550004
0.535535
0.512901
0.539284
0.534135
0.520487
0.328711
0.350825
0.337665
0.533835
0.311406
0.534285
0.520958
0.494916
0.333289
0.351692
0.483259
0.541603
0.53398
0.333343
0.525517
0.478562
0.271986
0.534219
0.319744
0.328143
0.327637
0.318288
0.338558
0.539474
0.53565
0.552107
0.44348
0.532864
0.533784
0.517798
0.534157
0.546347
0.548378
0.533726
0.533868
0.329129
0.533999
0.528133
0.426852
0.326037
0.503796
0.315309
0.537238
0.37067
0.538935
0.545374
0.334075
0.536097
0.328119
0.535382
0.532157
0.546925
0.489554
0.516103
0.545411
0.533711
0.355014
0.445344
0.422532
0.253459
0.534281
0.538101
0.443847
0.550535
0.526641
0.533984
0.32235
0.324556
0.527703
0.546137
0.319648
0.200004
0.514687
0.534274
0.534899
0.270951
0.456924
0.513441
0.532803
0.326861
0.534106
0.484393
0.525479
0.504968
0.439785
0.53411
0.315702
0.531201
0.316092
0.340092
0.534175
0.344821
0.345936
0.328064
0.525553
0.510339
0.443024
0.534112
0.430973
0.355691
0.324545
0.542355
0.532459
0.539618
0.489259
0.253608
0.522528
0.432722
0.316284
0.532436
0.540233
0.33184
0.53625
0.529292
0.534027
0.445889
0.533654
0.36089
0.534283
0.53107
0.533622
0.340115
0.525279
0.386159
0.508853
0.533714
0.544674
0.530675
0.534644
0.534632
0.532881
0.51815
0.3265
0.541829
0.510546
0.338682
0.495632
0.536798
0.550925
0.499237
0.315635
0.53103
0.338127
0.545641
0.490079
0.538537
0.32748
0.513322
0.534425
0.534091
0.525386
0.478677
0.534113
0.466615
0.386365
0.327781
0.2764
0.534018
0.353121
0.309026
0.536579
0.320672
0.543766
0.327083
0.536151
0.321234
0.328927
0.521216
0.395257
0.298834
0.530841
0.533262
0.537894
0.33921
0.506454
0.534062
0.531819
0.329512
0.53409
0.534809
0.324708
0.482391
0.462327
0.523189
0.344495
0.39154
0.510316
0.321892
0.537838
0.335725
0.33454
0.53393
0.386094
0.507238
0.320233
0.539723
0.424961
0.534099
0.229129
0.327268
0.533958
0.34156
0.53412
0.354597
0.534519
0.485374
0.466416
0.534125
0.502426
0.264463
0.534885
0.548726
0.531704
0.53408
0.326456
0.335795
0.321242
0.334622
0.533941
0.341597
0.513592
0.327064
0.532605
0.534539
0.533851
0.327796
0.53458
0.322951
0.534724
0.541314
0.35049
0.533765
0.525081
0.314256
0.521716
0.329808
0.355493
0.549145
0.332116
0.543309
0.224779
0.336458
0.512849
0.359611
0.538665
0.332034
0.461354
0.53306
0.530107
0.385764
0.277534
0.329537
0.534057
0.534115
0.34015
0.535187
0.325682
0.532643
0.326314
0.319857
0.467968
0.474603
0.41947
0.495575
0.53411
0.492084
0.473572
0.536059
0.533935
0.330927
0.534996
0.347799
0.34344
0.496041
0.406731
0.39534
0.442442
0.331883
0.514827
0.534125
0.537065
0.327214
0.321542
0.450901
0.505714
0.534412
0.545804
0.318354
0.499554
0.532691
0.507604
0.440005
0.325503
0.329321
0.334048
0.554627
0.537008
0.308188
0.325351
0.436587
0.3297
0.549241
0.513095
0.319331
0.533972
0.404488
0.540706
0.536609
0.322752
0.350316
0.506932
0.321274
0.394202
0.533066
0.274983
0.322218
0.329468
0.50793
0.536083
0.505605
0.337172
0.314948
0.528616
0.534995
0.494446
0.538829
0.317497
0.327511
0.33701
0.497932
0.334773
0.323802
0.537848
0.541538
0.514313
0.330635
0.332497
0.328208
0.534041
0.302886
0.532808
0.534058
0.530186
0.428199
0.534093
0.549136
0.331453
0.328427
0.535597
0.324317
0.465566
0.526059
0.54178
0.436934
0.329083
0.333645
0.541486
0.403255
0.311543
0.534356
0.53406
0.296161
0.326017
0.513329
0.442382
0.33239
0.340235
0.540245
0.490276
0.528959
0.474425
0.354337
0.337385
0.346184
0.380366
0.318906
0.534094
0.52849
0.470243
0.511679
0.352707
0.503888
0.353792
0.533353
0.545658
0.33795
0.264874
0.529683
0.384954
0.472434
0.535108
0.306311
0.530847
0.5279
0.53376
0.534121
0.505918
0.35065
0.339985
0.317344
0.510925
0.533933
0.514031
0.443842
0.331322
0.340067
0.492405
0.332853
0.538312
0.533762
0.532971
0.347318
0.329686
0.464531
0.507138
0.534119
0.526607
0.534242
0.533979
0.535897
0.481663
0.252898
0.534053
0.497735
0.534613
0.318626
0.529794
0.42381
0.528618
0.552012
0.445881
0.491699
0.531719
0.509268
0.534089
0.331541
0.531791
0.55091
0.347524
0.505259
0.306705
0.30821
0.534107
0.534015
0.339536
0.483199
0.533776
0.334305
0.353436
0.556916
0.549827
0.471126
0.350918
0.495566
0.331075
0.542795
0.548806
0.324426
0.454533
0.500344
0.32832
0.317824
0.346152
0.538942
0.531912
0.316737
0.345915
0.338883
0.341859
0.342493
0.501567
0.329621
0.550736
0.535079
0.541653
0.322712
0.532936
0.446502
0.531866
0.443183
0.529407
0.319406
0.302203
0.329993
0.534048
0.327401
0.328079
0.496723
0.336198
0.534123
0.506912
0.425109
0.320548
0.322858
0.522533
0.535957
0.527549
0.525301
0.542526
0.318005
0.346531
0.32385
0.509702
0.53478
0.326383
0.517511
0.342607
0.338647
0.534171
0.323259
0.352779
0.263584
0.370741
0.3339
0.534383
0.538139
0.537713
0.337767
0.53374
0.542239
0.326126
0.534367
0.375304
0.539838
0.351854
0.387575
0.533495
0.330679
0.272088
0.529698
0.524016
0.325628
0.546061
0.498362
0.533063
0.398637
0.32158
0.50135
0.534039
0.365623
0.358956
0.422755
0.398554
0.534172
0.330776
0.324549
0.540966
0.515652
0.339024
0.322598
0.531617
0.330507
0.354133
0.322681
0.454719
0.544673
0.321687
0.539993
0.323983
0.309262
0.355256
0.405479
0.339058
0.539359
0.322885
0.355149
0.481078
0.538643
0.354366
0.534009
0.317577
0.331373
0.510348
0.552301
0.523261
0.512962
0.518762
0.546013
0.327219
0.538985
0.316056
0.534022
0.526717
0.410651
0.524709
0.534055
0.533898
0.533798
0.432138
0.354009
0.429658
0.334987
0.502138
0.532391
0.495774
0.32706
0.536001
0.368437
0.534029
0.329358
0.308394
0.556346
0.308641
0.528778
0.551743
0.376994
0.335013
0.33146
0.53365
0.393073
0.273114
0.54051
0.332636
0.525658
0.353536
0.343814
0.319564
0.535201
0.390301
0.534111
0.327701
0.343437
0.534094
0.532641
0.282844
0.358597
0.2692
0.481336
0.333503
0.520525
0.530602
0.534032
0.237862
0.326424
0.450226
0.530662
0.54811
0.532726
0.302992
0.513795
0.537468
0.534011
0.534102
0.319881
0.521713
0.334279
0.449631
0.542493
0.537164
0.529933
0.544516
0.497766
0.532158
0.54403
0.533613
0.522504
0.536382
0.53378
0.53553
0.329739
0.332862
0.534318
0.47575
0.534106
0.534043
0.548104
0.519485
0.545002
0.338441
0.329313
0.534116
0.328711
0.326347
0.339853
0.533947
0.523442
0.534008
0.509631
0.523077
0.31661
0.537751
0.316762
0.317606
0.545603
0.525742
0.52456
0.398855
0.395715
0.332811
0.328862
0.384342
0.330648
0.357637
0.544014
0.312495
0.531189
0.33403
0.539493
0.533026
0.286226
0.352241
0.496705
0.534105
0.332069
0.508894
0.269229
0.317455
0.32777
0.448565
0.535008
0.534117
0.534244
0.246365
0.347334
0.274437
0.339684
0.534075
0.547205
0.538548
0.338886
0.317113
0.533852
0.532767
0.536403
0.308205
0.480824
0.465099
0.543217
0.429937
0.344582
0.337721
0.328616
0.535766
0.328494
0.328975
0.534063
0.356237
0.53427
0.355301
0.346857
0.399121
0.352335
0.545522
0.534115
0.534308
0.444702
0.554046
0.510327
0.475633
0.354376
0.507638
0.530068
0.509666
0.536431
0.532744
0.539608
0.42497
0.532631
0.535339
0.349692
0.334104
0.548955
0.400307
0.533441
0.330963
0.546006
0.36361
0.526064
0.534458
0.508412
0.533058
0.538951
0.515121
0.323486
0.340603
0.537348
0.546818
0.533317
0.433444
0.54422
0.446382
0.494033
0.533769
0.47214
0.46393
0.540377
0.534032
0.340414
0.316914
0.534468
0.502135
0.331571
0.34406
0.423285
0.534123
0.534059
0.550404
0.339766
0.524507
0.305287
0.536667
0.330826
0.544403
0.308492
0.549081
0.339366
0.531308
0.445298
0.328887
0.329807
0.471031
0.331011
0.485081
0.317392
0.534154
0.53412
0.530285
0.527688
0.534137
0.534905
0.533871
0.549638
0.541473
0.501779
0.515655
0.495998
0.538247
0.324766
0.50053
0.499384
0.532606
0.322626
0.497883
0.545333
0.533943
0.338276
0.324984
0.339028
0.544099
0.497715
0.328057
0.500337
0.391038
0.534137
0.31352
0.412044
0.353644
0.303213
0.552782
0.325266
0.508343
0.32889
0.551139
0.33957
0.534145
0.502622
0.529183
0.352248
0.354581
0.352919
0.515852
0.329564
0.351226
0.326967
0.540469
0.518728
0.544233
0.523188
0.530722
0.511421
0.383284
0.353671
0.530802
0.324621
0.447877
0.526995
0.549849
0.228644
0.346139
0.522814
0.53393
0.408894
0.52496
0.534904
0.518388
0.348791
0.542808
0.52006
0.53187
0.53326
0.323827
0.534097
0.328172
0.5321
0.54215
0.504781
0.533254
0.346922
0.537356
0.225177
0.360314
0.500224
0.507949
0.529669
0.45152
0.33337
0.532111
0.53593
0.325316
0.321394
0.308176
0.548275
0.342809
0.335318
0.330112
0.335957
0.315835
0.369209
0.542508
0.318966
0.539575
0.523903
0.331326
0.535684
0.332498
0.547622
0.321188
0.461126
0.327941
0.527156
0.534548
0.3989
0.497413
0.534075
0.520931
0.327383
0.480308
0.430419
0.318025
0.326915
0.405222
0.327579
0.544225
0.30587
0.338747
0.32323
0.534122
0.528238
0.315826
0.323714
0.54513
0.332172
0.332426
0.53403
0.329732
0.35623
0.344479
0.551324
0.503343
0.547292
0.332085
0.291645
0.538319
0.518114
0.533928
0.396443
0.508071
0.529783
0.415141
0.40272
0.326759
0.328675
0.237601
0.492973
0.329682
0.546532
0.512719
0.533014
0.338894
0.41023
0.41988
0.556275
0.303384
0.482685
0.241699
0.492066
0.325657
0.280836
0.297371
0.537383
0.318428
0.55077
0.353897
0.380127
0.332163
0.472049
0.316773
0.543409
0.352701
0.504329
0.487412
0.326593
0.534369
0.534339
0.345581
0.54774
0.353803
0.332811
0.542328
0.305192
0.515529
0.361873
0.237687
0.533586
0.324378
0.351978
0.355072
0.341821
0.322445
0.515435
0.43574
0.528317
0.547157
0.528252
0.543203
0.411415
0.537896
0.302156
0.534709
0.3332
0.526453
0.319859
0.38902
0.525117
0.548731
0.53523
0.354117
0.440109
0.3404
0.347439
0.350459
0.234101
0.537123
0.410146
0.546718
0.533588
0.484933
0.538933
0.534683
0.393749
0.348133
0.366339
0.54127
0.484731
0.502301
0.534289
0.551424
0.41735
0.288018
0.340512
0.543821