# vtk DataFile Version 1.0
unstructured grid
ascii
DATASET UNSTRUCTURED_GRID
points 3226 float
0.0796578 -0.059106 0
0.00128732 0.00159165 0
0.00227961 -0.00102548 0
0.0791586 -0.0598787 0
-0.0546216 0.01 0
0.000495206 0.025 0
0.0800549 -0.035 0
0.135172 -0.08 0
-0.0546216 -0.0451168 0
0.000495206 -0.0301168 0
0.0800549 -0.0901168 0
0.135172 -0.135117 0
-0.0546216 -0.0451168 -0.00551168
0.000495206 -0.0301168 -0.00551168
0.0800549 -0.0901168 -0.00551168
0.135172 -0.135117 -0.00551168
0.135172 -0.08 -0.00551168
0.0800549 -0.035 -0.00551168
0.000495206 0.025 -0.00551168
-0.0546216 0.01 -0.00551168
0.00128732 0.00159165 -0.00551168
0.00227961 -0.00102548 -0.00551168
0.0791586 -0.0598787 -0.00551168
0.0796578 -0.059106 -0.00551168
0.00110182 -0.000823821 0
0.000571683 -0.000188043 0
0.000561313 0.000639162 0
0.00189316 0.00207203 0
0.00260228 0.00255358 0
0.0033966 0.00307293 0
0.00428861 0.00362634 0
0.00529726 0.0041979 0
0.00644092 0.00476696 0
0.00773158 0.0053187 0
0.00918011 0.00583593 0
0.010799 0.00628751 0
0.012597 0.00663225 0
0.0145725 0.0068517 0
0.0167206 0.0069338 0
0.0190349 0.00685819 0
0.0215031 0.00658621 0
0.0241038 0.00607459 0
0.026821 0.00533786 0
0.0296245 0.00434523 0
0.0324763 0.00306927 0
0.0353199 0.00146906 0
0.0381488 -0.00039338 0
0.0409131 -0.00252802 0
0.0435632 -0.00493276 0
0.0460882 -0.0075571 0
0.0484881 -0.0103478 0
0.0506782 -0.0133217 0
0.0526651 -0.016422 0
0.0546139 -0.0195019 0
0.0565301 -0.022529 0
0.0584009 -0.0254846 0
0.0602154 -0.0283513 0
0.061964 -0.031114 0
0.0636389 -0.0337601 0
0.0652336 -0.0362795 0
0.0667431 -0.0386651 0
0.0681656 -0.0409111 0
0.0694983 -0.0430158 0
0.0707356 -0.0449823 0
0.071886 -0.0468071 0
0.0729575 -0.04849 0
0.0739438 -0.0500408 0
0.0748444 -0.0514675 0
0.0756707 -0.0527715 0
0.0764313 -0.053958 0
0.0771224 -0.0550398 0
0.0777384 -0.0560288 0
0.0782803 -0.0569318 0
0.0787691 -0.0577448 0
0.0792251 -0.0584672 0
0.0800494 -0.0597378 0
0.0797987 -0.0601582 0
0.0786655 -0.059391 0
0.0781259 -0.0588425 0
0.0775539 -0.0582102 0
0.0769587 -0.0574783 0
0.0763492 -0.0566339 0
0.075723 -0.0556725 0
0.0750452 -0.0546094 0
0.0742996 -0.0534457 0
0.073478 -0.0521785 0
0.072577 -0.0508019 0
0.0715904 -0.049313 0
0.0705098 -0.047712 0
0.069328 -0.0459996 0
0.0680378 -0.0441794 0
0.066632 -0.0422571 0
0.0651046 -0.0402413 0
0.0634508 -0.0381431 0
0.0616683 -0.0359754 0
0.0597581 -0.033753 0
0.0577255 -0.0314906 0
0.0555808 -0.0292024 0
0.0533388 -0.0269013 0
0.0510024 -0.0246151 0
0.0485693 -0.0223811 0
0.0460535 -0.0202228 0
0.0434788 -0.0181535 0
0.0408704 -0.0161833 0
0.0382442 -0.0143327 0
0.0356165 -0.0126209 0
0.0330065 -0.0110594 0
0.0304368 -0.00965062 0
0.0279338 -0.00838121 0
0.0255194 -0.00723697 0
0.0231965 -0.00623664 0
0.020983 -0.00535765 0
0.0188891 -0.00458677 0
0.0169193 -0.00391673 0
0.0150754 -0.00334068 0
0.0133572 -0.00285262 0
0.0117634 -0.0024437 0
0.0102912 -0.00210643 0
0.0089363 -0.00183343 0
0.00769424 -0.00161552 0
0.00655956 -0.00144452 0
0.00552632 -0.00131235 0
0.00458815 -0.00121216 0
0.00373885 -0.00113394 0
0.00297202 -0.00106855 0
-0.0506847 -0.0440454 0
-0.0467478 -0.0429739 0
-0.0428108 -0.0419025 0
-0.0388739 -0.0408311 0
-0.034937 -0.0397597 0
-0.0310001 -0.0386882 0
-0.0270632 -0.0376168 0
-0.0231263 -0.0365454 0
-0.0191894 -0.0354739 0
-0.0152525 -0.0344025 0
-0.0113155 -0.0333311 0
-0.00737862 -0.0322597 0
-0.00344171 -0.0311882 0
0.0038716 -0.0298185 0
0.00726082 -0.0297726 0
0.010644 -0.0299802 0
0.0140027 -0.0304367 0
0.0173201 -0.0311326 0
0.0205821 -0.0320541 0
0.0237776 -0.0331851 0
0.0268988 -0.0345078 0
0.0299406 -0.0360041 0
0.0329005 -0.0376567 0
0.035778 -0.039449 0
0.038574 -0.0413659 0
0.0412905 -0.043394 0
0.0439303 -0.0455212 0
0.0464964 -0.0477367 0
0.0489922 -0.0500312 0
0.051421 -0.0523964 0
0.0537863 -0.0548252 0
0.0560914 -0.0573112 0
0.0583395 -0.0598489 0
0.0605336 -0.0624334 0
0.0626765 -0.0650605 0
0.064771 -0.0677264 0
0.0668197 -0.0704277 0
0.0688248 -0.0731615 0
0.0707885 -0.0759252 0
0.072713 -0.0787163 0
0.0746002 -0.0815329 0
0.0764517 -0.0843729 0
0.0782695 -0.0872347 0
0.0829558 -0.0924852 0
0.0858567 -0.0948536 0
0.0887575 -0.0972221 0
0.0916584 -0.0995905 0
0.0945593 -0.101959 0
0.0974602 -0.104327 0
0.100361 -0.106696 0
0.103262 -0.109064 0
0.106163 -0.111433 0
0.109064 -0.113801 0
0.111965 -0.116169 0
0.114865 -0.118538 0
0.117766 -0.120906 0
0.120667 -0.123275 0
0.123568 -0.125643 0
0.126469 -0.128012 0
0.12937 -0.13038 0
0.132271 -0.132748 0
0.135172 -0.13118 0
0.135172 -0.127243 0
0.135172 -0.123306 0
0.135172 -0.119369 0
0.135172 -0.115432 0
0.135172 -0.111495 0
0.135172 -0.107558 0
0.135172 -0.103621 0
0.135172 -0.0996846 0
0.135172 -0.0957477 0
0.135172 -0.0918107 0
0.135172 -0.0878738 0
0.135172 -0.0839369 0
0.132271 -0.0776316 0
0.12937 -0.0752632 0
0.126469 -0.0728947 0
0.123568 -0.0705263 0
0.120667 -0.0681579 0
0.117766 -0.0657895 0
0.114865 -0.0634211 0
0.111965 -0.0610526 0
0.109064 -0.0586842 0
0.106163 -0.0563158 0
0.103262 -0.0539474 0
0.100361 -0.0515789 0
0.0974602 -0.0492105 0
0.0945593 -0.0468421 0
0.0916584 -0.0444737 0
0.0887575 -0.0421053 0
0.0858567 -0.0397368 0
0.0829558 -0.0373684 0
0.0782695 -0.0321179 0
0.0764517 -0.0292561 0
0.0746002 -0.026416 0
0.072713 -0.0235995 0
0.0707885 -0.0208084 0
0.0688248 -0.0180447 0
0.0668197 -0.0153109 0
0.064771 -0.0126096 0
0.0626765 -0.00994373 0
0.0605336 -0.00731663 0
0.0583395 -0.00473208 0
0.0560914 -0.00219437 0
0.0537863 0.000291632 0
0.051421 0.00272041 0
0.0489922 0.00508564 0
0.0464964 0.00738012 0
0.0439303 0.00959562 0
0.0412905 0.0117228 0
0.038574 0.0137509 0
0.035778 0.0156678 0
0.0329005 0.0174601 0
0.0299406 0.0191127 0
0.0268988 0.020609 0
0.0237776 0.0219317 0
0.0205821 0.0230627 0
0.0173201 0.0239842 0
0.0140027 0.0246801 0
0.010644 0.0251366 0
0.00726082 0.0253442 0
0.0038716 0.0252983 0
-0.00344171 0.0239286 0
-0.00737862 0.0228571 0
-0.0113155 0.0217857 0
-0.0152525 0.0207143 0
-0.0191894 0.0196429 0
-0.0231263 0.0185714 0
-0.0270632 0.0175 0
-0.0310001 0.0164286 0
-0.034937 0.0153571 0
-0.0388739 0.0142857 0
-0.0428108 0.0132143 0
-0.0467478 0.0121429 0
-0.0506847 0.0110714 0
-0.0546216 0.00606309 0
-0.0546216 0.00212617 0
-0.0546216 -0.00181074 0
-0.0546216 -0.00574766 0
-0.0546216 -0.00968457 0
-0.0546216 -0.0136215 0
-0.0546216 -0.0175584 0
-0.0546216 -0.0214953 0
-0.0546216 -0.0254322 0
-0.0546216 -0.0293691 0
-0.0546216 -0.0333061 0
-0.0546216 -0.037243 0
-0.0546216 -0.0411799 0
-0.0506847 -0.0440454 -0.00551168
-0.0467478 -0.0429739 -0.00551168
-0.0428108 -0.0419025 -0.00551168
-0.0388739 -0.0408311 -0.00551168
-0.034937 -0.0397597 -0.00551168
-0.0310001 -0.0386882 -0.00551168
-0.0270632 -0.0376168 -0.00551168
-0.0231263 -0.0365454 -0.00551168
-0.0191894 -0.0354739 -0.00551168
-0.0152525 -0.0344025 -0.00551168
-0.0113155 -0.0333311 -0.00551168
-0.00737862 -0.0322597 -0.00551168
-0.00344171 -0.0311882 -0.00551168
0.0038716 -0.0298185 -0.00551168
0.00726082 -0.0297726 -0.00551168
0.010644 -0.0299802 -0.00551168
0.0140027 -0.0304367 -0.00551168
0.0173201 -0.0311326 -0.00551168
0.0205821 -0.0320541 -0.00551168
0.0237776 -0.0331851 -0.00551168
0.0268988 -0.0345078 -0.00551168
0.0299406 -0.0360041 -0.00551168
0.0329005 -0.0376567 -0.00551168
0.035778 -0.039449 -0.00551168
0.038574 -0.0413659 -0.00551168
0.0412905 -0.043394 -0.00551168
0.0439303 -0.0455212 -0.00551168
0.0464964 -0.0477367 -0.00551168
0.0489922 -0.0500312 -0.00551168
0.051421 -0.0523964 -0.00551168
0.0537863 -0.0548252 -0.00551168
0.0560914 -0.0573112 -0.00551168
0.0583395 -0.0598489 -0.00551168
0.0605336 -0.0624334 -0.00551168
0.0626765 -0.0650605 -0.00551168
0.064771 -0.0677264 -0.00551168
0.0668197 -0.0704277 -0.00551168
0.0688248 -0.0731615 -0.00551168
0.0707885 -0.0759252 -0.00551168
0.072713 -0.0787163 -0.00551168
0.0746002 -0.0815329 -0.00551168
0.0764517 -0.0843729 -0.00551168
0.0782695 -0.0872347 -0.00551168
0.0829558 -0.0924852 -0.00551168
0.0858567 -0.0948536 -0.00551168
0.0887575 -0.0972221 -0.00551168
0.0916584 -0.0995905 -0.00551168
0.0945593 -0.101959 -0.00551168
0.0974602 -0.104327 -0.00551168
0.100361 -0.106696 -0.00551168
0.103262 -0.109064 -0.00551168
0.106163 -0.111433 -0.00551168
0.109064 -0.113801 -0.00551168
0.111965 -0.116169 -0.00551168
0.114865 -0.118538 -0.00551168
0.117766 -0.120906 -0.00551168
0.120667 -0.123275 -0.00551168
0.123568 -0.125643 -0.00551168
0.126469 -0.128012 -0.00551168
0.12937 -0.13038 -0.00551168
0.132271 -0.132748 -0.00551168
0.135172 -0.13118 -0.00551168
0.135172 -0.127243 -0.00551168
0.135172 -0.123306 -0.00551168
0.135172 -0.119369 -0.00551168
0.135172 -0.115432 -0.00551168
0.135172 -0.111495 -0.00551168
0.135172 -0.107558 -0.00551168
0.135172 -0.103621 -0.00551168
0.135172 -0.0996846 -0.00551168
0.135172 -0.0957477 -0.00551168
0.135172 -0.0918107 -0.00551168
0.135172 -0.0878738 -0.00551168
0.135172 -0.0839369 -0.00551168
0.132271 -0.0776316 -0.00551168
0.12937 -0.0752632 -0.00551168
0.126469 -0.0728947 -0.00551168
0.123568 -0.0705263 -0.00551168
0.120667 -0.0681579 -0.00551168
0.117766 -0.0657895 -0.00551168
0.114865 -0.0634211 -0.00551168
0.111965 -0.0610526 -0.00551168
0.109064 -0.0586842 -0.00551168
0.106163 -0.0563158 -0.00551168
0.103262 -0.0539474 -0.00551168
0.100361 -0.0515789 -0.00551168
0.0974602 -0.0492105 -0.00551168
0.0945593 -0.0468421 -0.00551168
0.0916584 -0.0444737 -0.00551168
0.0887575 -0.0421053 -0.00551168
0.0858567 -0.0397368 -0.00551168
0.0829558 -0.0373684 -0.00551168
0.0782695 -0.0321179 -0.00551168
0.0764517 -0.0292561 -0.00551168
0.0746002 -0.026416 -0.00551168
0.072713 -0.0235995 -0.00551168
0.0707885 -0.0208084 -0.00551168
0.0688248 -0.0180447 -0.00551168
0.0668197 -0.0153109 -0.00551168
0.064771 -0.0126096 -0.00551168
0.0626765 -0.00994373 -0.00551168
0.0605336 -0.00731663 -0.00551168
0.0583395 -0.00473208 -0.00551168
0.0560914 -0.00219437 -0.00551168
0.0537863 0.000291632 -0.00551168
0.051421 0.00272041 -0.00551168
0.0489922 0.00508564 -0.00551168
0.0464964 0.00738012 -0.00551168
0.0439303 0.00959562 -0.00551168
0.0412905 0.0117228 -0.00551168
[...]
CELL_DATA 2965
SCALARS rho float
LOOKUP_TABLE default
0.538585
0.359326
0.537239
0.356589
0.550105
0.346487
0.536751
0.366091
0.344368
0.53776
0.356834
0.373876
0.448151
0.543626
0.53182
0.528494
0.537143
0.52811
0.552311
0.538594
0.538597
0.36849
0.522486
0.547535
0.545002
0.554634
0.55046
0.496752
0.359543
0.576147
0.536113
0.359406
0.558398
0.541789
0.329064
0.349243
0.538747
0.543485
0.354852
0.572588
0.539866
0.520918
0.540807
0.363918
0.347566
0.540285
0.477476
0.489523
0.339803
0.537765
0.474256
0.366133
0.351056
0.495329
0.358011
0.504818
0.331541
0.35366
0.321571
0.492851
0.530559
0.494322
0.356951
0.552018
0.503114
0.540548
0.536731
0.367392
0.337152
0.375717
0.529517
0.550765
0.536759
0.308153
0.531285
0.433511
0.537927
0.363397
0.369289
0.494387
0.5363
0.356167
0.36529
0.455983
0.498787
0.449351
0.370607
0.296314
0.561816
0.330602
0.352945
0.540063
0.528813
0.557122
0.540465
0.351477
0.476118
0.314142
0.3744
0.359739
0.491198
0.357953
0.375308
0.355665
0.375932
0.537318
0.537976
0.383514
0.35783
0.537524
0.291355
0.415466
0.530907
0.508817
0.333672
0.325651
0.520609
0.474243
0.538168
0.372067
0.536155
0.283338
0.547239
0.549279
0.508992
0.48167
0.372344
0.47875
0.546243
0.317829
0.375559
0.507529
0.542456
0.376257
0.550879
0.348508
0.448334
0.527856
0.558838
0.550021
0.374712
0.527689
0.538271
0.38091
0.306525
0.552802
0.354747
0.549513
0.559769
0.352842
0.372981
0.365832
0.374493
0.357724
0.329209
0.293634
0.537031
0.543299
0.536683
0.549052
0.475916
0.490175
0.470626
0.552405
0.330801
0.536708
0.439883
0.366175
0.537552
0.54318
0.514376
0.326969
0.501411
0.531103
0.554915
0.43666
0.557802
0.40349
0.302979
0.498583
0.361491
0.302278
0.349527
0.35602
0.559814
0.53675
0.36383
0.371629
0.473078
0.36954
0.35618
0.354038
0.47016
0.326872
0.536998
0.526039
0.544108
0.501804
0.507105
0.371299
0.367677
0.331894
0.537157
0.463623
0.536293
0.350233
0.496475
0.537067
0.5307
0.542977
0.510645
0.46028
0.32539
0.353245
0.518918
0.370866
0.478571
0.347478
0.529119
0.369136
0.34361
0.371809
0.521129
0.459088
0.552843
0.293759
0.536137
0.537235
0.352071
0.505917
0.369081
0.29668
0.543414
0.351545
0.540186
0.543385
0.359006
0.546665
0.370083
0.375411
0.417743
0.372304
0.551718
0.552075
0.373076
0.276259
0.536692
0.538962
0.466927
0.519005
0.359371
0.360459
0.537039
0.339526
0.499306
0.300218
0.284781
0.538052
0.539596
0.368495
0.482916
0.355737
0.55026
0.342647
0.550764
0.537982
0.316898
0.54714
0.534303
0.3248
0.372124
0.54212
0.373099
0.556794
0.522272
0.371682
0.526468
0.526851
0.558016
0.53957
0.554614
0.487505
0.538481
0.538954
0.358528
0.344343
0.534822
0.54666
0.360481
0.540033
0.538397
0.364107
0.36809
0.360689
0.551029
0.367394
0.53807
0.517396
0.55691
0.369082
0.527717
0.501135
0.499297
0.539537
0.361148
0.283509
0.552129
0.537398
0.537943
0.362451
0.373906
0.502956
0.293079
0.311409
0.508553
0.536153
0.501042
0.254329
0.362893
0.498107
0.509626
0.36029
0.539718
0.53634
0.370601
0.437605
0.54004
0.55113
0.300861
0.371964
0.538561
0.345447
0.546044
0.429639
0.547128
0.459192
0.412349
0.362294
0.37293
0.332024
0.523857
0.554561
0.535729
0.551984
0.500863
0.561312
0.338172
0.541115
0.554789
0.375317
0.353433
0.538815
0.361481
0.527885
0.490908
0.367954
0.371842
0.362869
0.357224
0.536286
0.375231
0.361429
0.461226
0.360921
0.540492
0.540512
0.561702
0.537631
0.37126
0.540478
0.371505
0.538787
0.354909
0.369491
0.543467
0.483193
0.294414
0.30307
0.540392
0.386002
0.51927
0.526243
0.352753
0.539027
0.30869
0.364492
0.539529
0.308607
0.543314
0.304648
0.459062
0.364809
0.543879
0.521365
0.484986
0.53921
0.327963
0.554528
0.368078
0.338693
0.556156
0.302603
0.551371
0.508279
0.503208
0.306075
0.324076
0.340808
0.307251
0.341935
0.351752
0.542781
0.541016
0.540935
0.537669
0.3445
0.546985
0.540601
0.531058
0.296933
0.539465
0.330595
0.500529
0.493532
0.333499
0.536945
0.399404
0.535215
0.297347
0.504172
0.543686
0.306367
0.542168
0.307435
0.545783
0.378402
0.358265
0.504908
0.551672
0.547956
0.422358
0.288599
0.295653
0.486552
0.551283
0.537495
0.540735
0.539933
0.544282
0.351803
0.541567
0.499788
0.372454
0.300693
0.328378
0.556322
0.542901
0.440918
0.432237
0.43937
0.350359
0.53727
0.54154
0.537463
0.555391
0.475785
0.539693
0.542242
0.376285
0.547244
0.404681
0.383671
0.540985
0.540738
0.545706
0.553251
0.361972
0.363057
0.558285
0.539289
0.361968
0.538055
0.5553
0.540751
0.347424
0.328371
0.542442
0.371754
0.487635
0.541051
0.542821
0.375385
0.540171
0.369449
0.371252
0.368152
0.371275
0.539981
0.419904
0.52797
0.309227
0.369177
0.535938
0.365791
0.322598
0.376287
0.324045
0.432346
0.361864
0.37049
0.481662
0.496432
0.354247
0.343286
0.543168
0.3709
0.420945
0.539852
0.539183
0.510562
0.505775
0.458574
0.480138
0.294727
0.446429
0.53972
0.512283
0.30087
0.5207
0.274438
0.326293
0.304047
0.542525
0.557529
0.335592
0.512447
0.539805
0.340423
0.332233
0.551036
0.537433
0.432604
0.552433
0.404643
0.374921
0.551316
0.337538
0.472225
0.540922
0.430434
0.550729
0.35154
0.332616
0.544595
0.393839
0.373558
0.349505
0.351865
0.370368
0.539471
0.547439
0.533083
0.363379
0.305719
0.342613
0.335769
0.538806
0.27737
0.445379
0.338607
0.540016
0.541601
0.347656
0.537667
0.473069
0.506478
0.328388
0.536567
0.546876
0.559494
0.552364
0.537892
0.535432
0.347361
0.446902
0.34672
0.539309
0.34457
0.353614
0.539712
0.538191
0.539352
0.369452
0.35928
0.546228
0.548935
0.344012
0.541235
0.318443
0.343804
0.362871
0.558442
0.546113
0.538724
0.31399
0.328356
0.352207
0.362368
0.544839
0.536957
0.553787
0.363696
0.349797
0.50269
0.554668
0.552607
0.522212
0.537343
0.501411
0.544665
0.549137
0.528314
0.367457
0.545083
0.509125
0.536654
0.543282
0.553883
0.503025
0.461801
0.553128
0.358981
0.55166
0.538129
0.270453
0.5369
0.504287
0.54349
0.354193
0.358206
0.539649
0.355818
0.371656
0.55517
0.352954
0.488359
0.546331
0.331372
0.5532
0.380583
0.573597
0.539836
0.536996
0.516109
0.36137
0.373398
0.532672
0.45761
0.360405
0.547866
0.344032
0.538369
0.360129
0.481609
0.529668
0.537454
0.35733
0.509197
0.343712
0.489541
0.437466
0.341976
0.325971
0.364598
0.538312
0.542721
0.524368
0.344735
0.53804
0.505062
0.345922
0.538107
0.370459
0.485114
0.552992
0.536104
0.544346
0.351947
0.387666
0.53796
0.551938
0.545563
0.504627
0.551042
0.496771
0.4892
0.350508
0.549263
0.468989
0.406415
0.424871
0.537525
0.556299
0.521975
0.468272
0.366969
0.550318
0.369553
0.362431
0.428559
0.355412
0.49945
0.367752
0.536674
0.362252
0.336141
0.461253
0.551612
0.371235
0.339663
0.556131
0.550855
0.557346
0.368923
0.337439
0.546573
0.323616
0.339827
0.353981
0.522514
0.534599
0.32002
0.556947
0.372674
0.524144
0.540666
0.346087
0.43081
0.530586
0.514398
0.511163
0.548117
0.545735
0.551439
0.545501
0.536305
0.339709
0.406221
0.531995
0.333131
0.550376
0.53969
0.287535
0.539936
0.493539
0.527367
0.54959
0.488972
0.542076
0.344305
0.506354
0.343369
0.346089
0.541796
0.538101
0.279549
0.373576
0.539678
0.419059
0.473405
0.330199
0.29528
0.55573
0.528135
0.551235
0.526444
0.482919
0.425706
0.477209
0.377419
0.536615
0.517381
0.509464
0.317014
0.451316
0.551508
0.512039
0.546645
0.163285
0.537695
0.352528
0.375134
0.373657
0.530475
0.532087
0.549022
0.549529
0.374981
0.53814
0.46412
0.554046
0.553901
0.507383
0.360126
0.354076
0.540156
0.361238
0.476257
0.492085
0.371561
0.308056
0.534052
0.551382
0.365665
0.537429
0.539689
0.356393
0.537639
0.54196
0.546402
0.349657
0.321452
0.551658
0.353553
0.371827
0.479246
0.538797
0.377543
0.430145
0.370304
0.353506
0.54746
0.369872
0.35917
0.550268
0.370178
0.38324
0.560167
0.545914
0.543581
0.537425
0.508097
0.371775
0.557619
0.539718
0.352976
0.545138
0.543501
0.536647
0.536291
0.348168
0.537688
0.34983
0.537316
0.356508
0.538278
0.374061
0.531315
0.350653
0.549905
0.552098
0.556547
0.515792
0.539884
0.544035
0.318236
0.540165
0.307945
0.53607
0.545478
0.365762
0.484271
0.33645
0.369351
0.536241
0.413835
0.540503
0.165395
0.518877
0.521301
0.548197
0.422005
0.350445
0.301215
0.358326
0.296103
0.545269
0.421006
0.364418
0.541512
0.3773
0.380684
0.540568
0.540754
0.514708
0.544626
0.302161
0.569669
0.349003
0.536344
0.540413
0.556054
0.309973
0.548942
0.544724
0.548876
0.51231
0.542596
0.462554
0.538314
0.550243
0.464019
0.539011
0.346533
0.53041
0.348719
0.443335
0.530688
0.515569
0.538933
0.510588
0.508325
0.544375
0.346966
0.533764
0.372797
0.370355
0.551094
0.524583
0.496087
0.550915
0.542567
0.536331
0.545171
0.536701
0.539692
0.541236
0.557448
0.344004
0.515349
0.539517
0.352041
0.544432
0.362828
0.499734
0.34543
0.539342
0.356499
0.356525
0.337285
0.48846
0.541496
0.515273
0.529132
0.346552
0.371847
0.538805
0.543585
0.298357
0.517311
0.538198
0.367084
0.51802
0.371636
0.351093
0.543025
0.497547
0.350553
0.529634
0.541052
0.534378
0.368383
0.529529
0.297682
0.538005
0.406091
0.527077
0.356043
0.554986
0.339009
0.349137
0.354739
0.529105
0.349125
0.5129
0.55445
0.488739
0.343899
0.349648
0.54926
0.349858
0.284085
0.368113
0.542369
0.351411
0.334176
0.29059
0.524087
0.373873
0.374404
0.341632
0.540482
0.555846
0.36747
0.545859
0.545115
0.509987
0.35713
0.349191
0.546432
0.355215
0.560158
0.395251
0.540162
0.375233
0.219247
0.525919
0.364134
0.358855
0.367932
0.538382
0.34836
0.466175
0.547186
0.349455
0.528752
0.362443
0.556224
0.468039
0.355673
0.372613
0.541711
0.527717
0.539926
0.36596
0.339703
0.460826
0.536105
0.343964
0.342266
0.360677
0.476957
0.546484
0.333328
0.470386
0.539376
0.539544
0.535943
0.372343
0.548037
0.352882
0.54188
0.541155
0.480466
0.365741
0.507542
0.545814
0.35807
0.54614
0.548873
0.374748
0.356537
0.347205
0.303959
0.549815
0.367425
0.540136
0.4396
0.53628
0.51806
0.45127
0.523184
0.338767
0.496321
0.3613
0.538666
0.539746
0.2994
0.371324
0.348991
0.501882
0.557867
0.354811
0.310748
0.354704
0.54271
0.553533
0.304537
0.357759
0.535486
0.549488
0.537082
0.372645
0.342864
0.533853
0.53868
0.353445
0.350145
0.458803
0.556172
0.508656
0.361034
0.539573
0.541586
0.363032
0.545588
0.356794
0.550635
0.371071
0.435863
0.348251
0.34026
0.540429
0.371559
0.364101
0.361531
0.376796
0.500677
0.540282
0.556332
0.364285
0.536291
0.543788
0.542175
0.554632
0.53956
0.55465
0.5559
0.555748
0.547212
0.539654
0.30838
0.502881
0.556546
0.376123
0.549728
0.551834
0.543832
0.542017
0.345491
0.55091
0.53668
0.544592
0.372053
0.522015
0.538275
0.53992
0.539886
0.377695
0.565029
0.341655
0.500483
0.354091
0.352754
0.357024
0.36917
0.539196
0.544701
0.532872
0.365908
0.540694
0.537785
0.544613
0.371782
0.370587
0.529816
0.34452
0.370696
0.352543
0.545574
0.452547
0.540612
0.343792
0.553673
0.540854
0.477497
0.547875
0.36637
0.556459
0.542374
0.52465
0.546617
0.541782
0.563521
0.362001
0.347619
0.365567
0.53881
0.322999
0.545316
0.531318
0.511664
0.372767
0.342937
0.532612
0.549276
0.537727
0.372438
0.534988
0.565537
0.283992
0.538799
0.360117
0.362979
0.349586
0.363382
0.376612
0.546733
0.543566
0.558145
0.463553
0.543412
0.53922
0.529405
0.538596
0.553521
0.555812
0.538929
0.538875
0.358289
0.537416
0.536994
0.512482
0.367814
0.516833
0.315056
0.544423
0.39671
0.548185
0.553774
0.373366
0.550463
0.358507
0.544324
0.541022
0.554961
0.557667
0.527429
0.55388
0.539208
0.33908
0.53396
0.46852
0.296504
0.539257
0.545312
0.46384
0.556879
0.535832
0.538517
0.359102
0.36307
0.543939
0.553196
0.360973
0.204228
0.526899
0.541603
0.541401
0.32056
0.477636
0.525118
0.542256
0.36917
0.538628
0.554821
0.546419
0.566288
0.460475
0.541656
0.313034
0.540275
0.349085
0.350768
0.538896
0.398917
0.377853
0.369676
0.535678
0.524208
0.463875
0.540407
0.452388
0.341213
0.358008
0.549507
0.539593
0.549204
0.536196
0.304078
0.53274
0.513122
0.350091
0.539652
0.548504
0.370221
0.543281
0.538017
0.536896
0.466102
0.539084
0.431177
0.539559
0.539684
0.539888
0.377321
0.543022
0.410442
0.522028
0.541472
0.551765
0.538688
0.541585
0.540583
0.540176
0.529053
0.358361
0.55013
0.53727
0.362947
0.540113
0.543901
0.557173
0.514946
0.351387
0.541099
0.361033
0.55409
0.505022
0.546567
0.360989
0.525081
0.54191
0.537546
0.536282
0.496502
0.537252
0.484821
0.453239
0.370055
0.306143
0.53692
0.324799
0.334486
0.545878
0.360343
0.551765
0.327587
0.543841
0.356189
0.360695
0.531715
0.453243
0.358314
0.541604
0.539564
0.545516
0.376935
0.520949
0.541812
0.539908
0.371556
0.536888
0.542559
0.364106
0.498186
0.481027
0.533465
0.333214
0.475442
0.570509
0.347418
0.547669
0.373425
0.373724
0.5381
0.444134
0.519886
0.360806
0.547556
0.447414
0.536865
0.241441
0.366766
0.538002
0.350877
0.53699
0.341712
0.540254
0.503015
0.48654
0.53711
0.516634
0.299647
0.541222
0.555673
0.539544
0.537245
0.340233
0.342799
0.344774
0.373939
0.538289
0.363664
0.526694
0.370634
0.541779
0.54314
0.538814
0.368389
0.540398
0.377133
0.542426
0.549419
0.368799
0.539764
0.539122
0.350763
0.533061
0.348069
0.329786
0.555718
0.378353
0.550402
0.269607
0.3694
0.524667
0.373173
0.550222
0.37189
0.482299
0.539621
0.538573
0.428574
0.282405
0.395608
0.537356
0.536555
0.371931
0.542774
0.372073
0.540848
0.367506
0.367495
0.48571
0.525046
0.459087
0.513487
0.540635
0.561024
0.490763
0.544483
0.538958
0.352943
0.543065
0.329013
0.347671
0.510792
0.467205
0.480879
0.527941
0.371765
0.526737
0.537489
0.545017
0.367388
0.345192
0.472208
0.520415
0.541559
0.552813
0.354894
0.513685
0.541678
0.522705
0.520072
0.365454
0.360318
0.373344
0.56026
0.544468
0.341966
0.385687
0.515479
0.371078
0.556094
0.53134
0.348465
0.538572
0.476286
0.549028
0.544343
0.361212
0.340307
0.519613
0.364511
0.479102
0.539768
0.311212
0.359648
0.369287
0.53648
0.545941
0.527888
0.375384
0.35643
0.545621
0.541356
0.50929
0.5461
0.360261
0.366407
0.377491
0.512928
0.339184
0.363577
0.545469
0.551643
0.534095
0.357172
0.357226
0.368729
0.539341
0.341105
0.542039
0.53712
0.538747
0.459473
0.542561
0.555671
0.395504
0.368692
0.542696
0.341959
0.555204
0.535411
0.549574
0.529828
0.338536
0.323585
0.548755
0.486553
0.34513
0.542904
0.541211
0.351832
0.367341
0.527852
0.467862
0.370334
0.365102
0.548365
0.519493
0.538542
0.493284
0.4274
0.320444
0.344081
0.409206
0.384321
0.536115
0.537259
0.487747
0.523626
0.340213
0.51715
0.343256
0.539582
0.553131
0.372714
0.317018
0.539007
0.458341
0.510662
0.541887
0.337301
0.539032
0.539186
0.538922
0.537457
0.523781
0.340249
0.376519
0.373712
0.57573
0.539605
0.52684
0.470632
0.371959
0.376016
0.507635
0.37263
0.546074
0.53898
0.54065
0.420329
0.363447
0.547833
0.520762
0.536356
0.536446
0.539181
0.538971
0.542764
0.499411
0.303348
0.537937
0.51242
0.542464
0.363767
0.538926
0.462485
0.538084
0.558015
0.50307
0.508866
0.540996
0.522272
0.53664
0.367113
0.540401
0.556975
0.348587
0.521093
0.340799
0.333003
0.536136
0.53962
0.365798
0.501536
0.538968
0.358423
0.340963
0.562711
0.55645
0.493354
0.368136
0.515915
0.362341
0.550205
0.555958
0.364657
0.474079
0.515437
0.362308
0.355181
0.352242
0.547231
0.54283
0.355848
0.331689
0.368414
0.363268
0.346681
0.516288
0.362271
0.557223
0.542286
0.548811
0.356432
0.539894
0.468211
0.540769
0.515493
0.538022
0.35441
0.362104
0.369764
0.54248
0.382101
0.368554
0.513407
0.37483
0.537072
0.557665
0.447514
0.366428
0.366789
0.533128
0.543118
0.536524
0.537043
0.55121
0.358311
0.34591
0.357855
0.557532
0.540963
0.367164
0.530505
0.339838
0.389316
0.539187
0.357879
0.326458
0.298668
0.39868
0.372432
0.539787
0.5486
0.545112
0.403215
0.539332
0.549355
0.36777
0.539878
0.455864
0.548199
0.349416
0.466774
0.539484
0.36721
0.280012
0.538099
0.564618
0.365494
0.554052
0.564051
0.540131
0.466608
0.3486
0.514753
0.541059
0.396984
0.346626
0.44485
0.422303
0.539024
0.369419
0.364214
0.548637
0.532789
0.350277
0.363251
0.54108
0.365225
0.32766
0.35601
0.536891
0.552715
0.360447
0.547301
0.366969
0.34491
0.339476
0.42938
0.352317
0.546994
0.358155
0.320172
0.561197
0.546207
0.40666
0.537749
0.357648
0.364847
0.522725
0.557981
0.534464
0.569636
0.530788
0.552934
0.364755
0.546665
0.310173
0.537304
0.536984
0.495172
0.536182
0.538265
0.541037
0.539381
0.45352
0.340588
0.518833
0.372793
0.519368
0.540461
0.511793
0.373924
0.543954
0.447443
0.537251
0.371924
0.343688
0.56072
0.320211
0.53823
0.557788
0.401421
0.372748
0.368164
0.539335
0.417564
0.303022
0.548055
0.368371
0.535955
0.339833
0.341327
0.374514
0.542319
0.414893
0.538382
0.368702
0.356743
0.542252
0.540133
0.340044
0.410217
0.309711
0.566192
0.367038
0.541608
0.53924
0.537741
0.284599
0.35714
0.480014
0.556993
0.5557
0.539724
0.320841
0.525553
0.544968
0.538085
0.537464
0.357537
0.532075
0.359345
0.470405
0.550207
0.544786
0.538342
0.553155
0.516454
0.539888
0.551042
0.542257
0.53269
0.543987
0.540032
0.542269
0.369615
0.36753
0.539485
0.492527
0.53812
0.536126
0.555226
0.537265
0.552484
0.370061
0.371587
0.536961
0.369342
0.368107
0.359972
0.541291
0.535095
0.539169
0.524189
0.53371
0.358348
0.546661
0.358942
0.354605
0.55247
0.535148
0.534525
0.483033
0.476926
0.372525
0.371544
0.425153
0.295456
0.38738
0.551387
0.340674
0.540107
0.373352
0.547796
0.540412
0.331152
0.319224
0.51477
0.537179
0.371847
0.52132
0.290476
0.346552
0.363156
0.5311
0.541912
0.536146
0.539033
0.274508
0.34435
0.298274
0.369263
0.536597
0.554849
0.545899
0.353588
0.356627
0.538509
0.540044
0.543869
0.325669
0.497295
0.556575
0.550515
0.521473
0.346989
0.40305
0.331997
0.54314
0.358395
0.369419
0.536814
0.32072
0.539337
0.330777
0.347213
0.485107
0.339766
0.55367
0.536707
0.539369
0.538004
0.560538
0.522757
0.49404
0.332516
0.52166
0.539773
0.525123
0.543453
0.540344
0.547691
0.505435
0.539895
0.541984
0.328723
0.371195
0.555544
0.444261
0.54068
0.353375
0.553361
0.380848
0.535695
0.540009
0.521025
0.539876
0.547771
0.526485
0.352032
0.376534
0.551479
0.554004
0.53986
0.468314
0.551872
0.46673
0.57223
0.538886
0.49115
0.483156
0.548133
0.53716
0.350105
0.360099
0.540242
0.517952
0.366133
0.348827
0.511426
0.536625
0.536094
0.556992
0.360022
0.534399
0.324943
0.543912
0.363499
0.553214
0.290341
0.555604
0.351125
0.554537
0.524783
0.371025
0.328073
0.489579
0.355428
0.50215
0.354106
0.539195
0.536314
0.539919
0.539989
0.540981
0.543298
0.53847
0.556402
0.548631
0.515335
0.572299
0.51318
0.546789
0.363307
0.574081
0.576705
0.539987
0.327173
0.511826
0.552971
0.538641
0.371002
0.346383
0.357846
0.552932
0.514882
0.349536
0.513868
0.440264
0.538702
0.362379
0.449162
0.332702
0.349432
0.558642
0.391799
0.566411
0.362594
0.557048
0.343918
0.538919
0.517923
0.538053
0.34203
0.333686
0.426787
0.527106
0.374322
0.425043
0.370103
0.547849
0.531366
0.552747
0.533385
0.551578
0.52376
0.408581
0.335172
0.538915
0.364143
0.512093
0.536841
0.556755
0.245035
0.311945
0.533768
0.538632
0.452196
0.560975
0.54497
0.529503
0.318044
0.55039
0.53077
0.542237
0.541455
0.390368
0.536288
0.362422
0.53956
0.549264
0.517817
0.5396
0.392851
0.544575
0.270055
0.385515
0.515548
0.538886
0.538126
0.544132
0.371388
0.539766
0.543507
0.369856
0.360606
0.327664
0.554952
0.353629
0.36381
0.354917
0.346199
0.348129
0.447881
0.55019
0.340544
0.549405
0.533974
0.364428
0.544933
0.36967
0.555136
0.341332
0.481194
0.352056
0.537246
0.540782
0.422635
0.511387
0.541017
0.565056
0.358009
0.49633
0.459842
0.36309
0.379105
0.490488
0.310646
0.552686
0.329661
0.372991
0.382955
0.536239
0.537665
0.351096
0.359475
0.552021
0.370961
0.339714
0.53807
0.393489
0.325946
0.368568
0.557576
0.525847
0.554912
0.372839
0.333451
0.546567
0.541056
0.538423
0.436667
0.520581
0.538649
0.470908
0.489715
0.361604
0.348754
0.282518
0.507923
0.285016
0.553971
0.525561
0.54151
0.355199
0.445002
0.51008
0.562468
0.314839
0.498425
0.287728
0.506637
0.364093
0.327123
0.300523
0.545158
0.354095
0.557223
0.338679
0.44631
0.369568
0.48906
0.376951
0.551106
0.319722
0.518026
0.502708
0.362501
0.5406
0.540751
0.31217
0.554472
0.349381
0.371872
0.549917
0.321534
0.540537
0.346239
0.264009
0.539309
0.361152
0.403221
0.334571
0.336763
0.363696
0.527855
0.463911
0.541313
0.553909
0.557581
0.55062
0.434585
0.545109
0.316583
0.540786
0.370695
0.535691
0.358637
0.435487
0.535521
0.555301
0.54253
0.40958
0.462187
0.369918
0.34917
0.347895
0.266871
0.545286
0.433376
0.553752
0.539352
0.500396
0.551334
0.541608
0.447613
0.311452
0.444265
0.550144
0.502959
0.51567
0.540163
0.557089
0.496905
0.329874
0.393673
0.552484
0.389062