# vtk DataFile Version 1.0
unstructured grid
ascii
DATASET UNSTRUCTURED_GRID
points 3226 float
0.0796578 -0.059106 0
0.00128732 0.00159165 0
0.00227961 -0.00102548 0
0.0791586 -0.0598787 0
-0.0546216 0.01 0
0.000495206 0.025 0
0.0800549 -0.035 0
0.135172 -0.08 0
-0.0546216 -0.0451168 0
0.000495206 -0.0301168 0
0.0800549 -0.0901168 0
0.135172 -0.135117 0
-0.0546216 -0.0451168 -0.00551168
0.000495206 -0.0301168 -0.00551168
0.0800549 -0.0901168 -0.00551168
0.135172 -0.135117 -0.00551168
0.135172 -0.08 -0.00551168
0.0800549 -0.035 -0.00551168
0.000495206 0.025 -0.00551168
-0.0546216 0.01 -0.00551168
0.00128732 0.00159165 -0.00551168
0.00227961 -0.00102548 -0.00551168
0.0791586 -0.0598787 -0.00551168
0.0796578 -0.059106 -0.00551168
0.00110182 -0.000823821 0
0.000571683 -0.000188043 0
0.000561313 0.000639162 0
0.00189316 0.00207203 0
0.00260228 0.00255358 0
0.0033966 0.00307293 0
0.00428861 0.00362634 0
0.00529726 0.0041979 0
0.00644092 0.00476696 0
0.00773158 0.0053187 0
0.00918011 0.00583593 0
0.010799 0.00628751 0
0.012597 0.00663225 0
0.0145725 0.0068517 0
0.0167206 0.0069338 0
0.0190349 0.00685819 0
0.0215031 0.00658621 0
0.0241038 0.00607459 0
0.026821 0.00533786 0
0.0296245 0.00434523 0
0.0324763 0.00306927 0
0.0353199 0.00146906 0
0.0381488 -0.00039338 0
0.0409131 -0.00252802 0
0.0435632 -0.00493276 0
0.0460882 -0.0075571 0
0.0484881 -0.0103478 0
0.0506782 -0.0133217 0
0.0526651 -0.016422 0
0.0546139 -0.0195019 0
0.0565301 -0.022529 0
0.0584009 -0.0254846 0
0.0602154 -0.0283513 0
0.061964 -0.031114 0
0.0636389 -0.0337601 0
0.0652336 -0.0362795 0
0.0667431 -0.0386651 0
0.0681656 -0.0409111 0
0.0694983 -0.0430158 0
0.0707356 -0.0449823 0
0.071886 -0.0468071 0
0.0729575 -0.04849 0
0.0739438 -0.0500408 0
0.0748444 -0.0514675 0
0.0756707 -0.0527715 0
0.0764313 -0.053958 0
0.0771224 -0.0550398 0
0.0777384 -0.0560288 0
0.0782803 -0.0569318 0
0.0787691 -0.0577448 0
0.0792251 -0.0584672 0
0.0800494 -0.0597378 0
0.0797987 -0.0601582 0
0.0786655 -0.059391 0
0.0781259 -0.0588425 0
0.0775539 -0.0582102 0
0.0769587 -0.0574783 0
0.0763492 -0.0566339 0
0.075723 -0.0556725 0
0.0750452 -0.0546094 0
0.0742996 -0.0534457 0
0.073478 -0.0521785 0
0.072577 -0.0508019 0
0.0715904 -0.049313 0
0.0705098 -0.047712 0
0.069328 -0.0459996 0
0.0680378 -0.0441794 0
0.066632 -0.0422571 0
0.0651046 -0.0402413 0
0.0634508 -0.0381431 0
0.0616683 -0.0359754 0
0.0597581 -0.033753 0
0.0577255 -0.0314906 0
0.0555808 -0.0292024 0
0.0533388 -0.0269013 0
0.0510024 -0.0246151 0
0.0485693 -0.0223811 0
0.0460535 -0.0202228 0
0.0434788 -0.0181535 0
0.0408704 -0.0161833 0
0.0382442 -0.0143327 0
0.0356165 -0.0126209 0
0.0330065 -0.0110594 0
0.0304368 -0.00965062 0
0.0279338 -0.00838121 0
0.0255194 -0.00723697 0
0.0231965 -0.00623664 0
0.020983 -0.00535765 0
0.0188891 -0.00458677 0
0.0169193 -0.00391673 0
0.0150754 -0.00334068 0
0.0133572 -0.00285262 0
0.0117634 -0.0024437 0
0.0102912 -0.00210643 0
0.0089363 -0.00183343 0
0.00769424 -0.00161552 0
0.00655956 -0.00144452 0
0.00552632 -0.00131235 0
0.00458815 -0.00121216 0
0.00373885 -0.00113394 0
0.00297202 -0.00106855 0
-0.0506847 -0.0440454 0
-0.0467478 -0.0429739 0
-0.0428108 -0.0419025 0
-0.0388739 -0.0408311 0
-0.034937 -0.0397597 0
-0.0310001 -0.0386882 0
-0.0270632 -0.0376168 0
-0.0231263 -0.0365454 0
-0.0191894 -0.0354739 0
-0.0152525 -0.0344025 0
-0.0113155 -0.0333311 0
-0.00737862 -0.0322597 0
-0.00344171 -0.0311882 0
0.0038716 -0.0298185 0
0.00726082 -0.0297726 0
0.010644 -0.0299802 0
0.0140027 -0.0304367 0
0.0173201 -0.0311326 0
0.0205821 -0.0320541 0
0.0237776 -0.0331851 0
0.0268988 -0.0345078 0
0.0299406 -0.0360041 0
0.0329005 -0.0376567 0
0.035778 -0.039449 0
0.038574 -0.0413659 0
0.0412905 -0.043394 0
0.0439303 -0.0455212 0
0.0464964 -0.0477367 0
0.0489922 -0.0500312 0
0.051421 -0.0523964 0
0.0537863 -0.0548252 0
0.0560914 -0.0573112 0
0.0583395 -0.0598489 0
0.0605336 -0.0624334 0
0.0626765 -0.0650605 0
0.064771 -0.0677264 0
0.0668197 -0.0704277 0
0.0688248 -0.0731615 0
0.0707885 -0.0759252 0
0.072713 -0.0787163 0
0.0746002 -0.0815329 0
0.0764517 -0.0843729 0
0.0782695 -0.0872347 0
0.0829558 -0.0924852 0
0.0858567 -0.0948536 0
0.0887575 -0.0972221 0
0.0916584 -0.0995905 0
0.0945593 -0.101959 0
0.0974602 -0.104327 0
0.100361 -0.106696 0
0.103262 -0.109064 0
0.106163 -0.111433 0
0.109064 -0.113801 0
0.111965 -0.116169 0
0.114865 -0.118538 0
0.117766 -0.120906 0
0.120667 -0.123275 0
0.123568 -0.125643 0
0.126469 -0.128012 0
0.12937 -0.13038 0
0.132271 -0.132748 0
0.135172 -0.13118 0
0.135172 -0.127243 0
0.135172 -0.123306 0
0.135172 -0.119369 0
0.135172 -0.115432 0
0.135172 -0.111495 0
0.135172 -0.107558 0
0.135172 -0.103621 0
0.135172 -0.0996846 0
0.135172 -0.0957477 0
0.135172 -0.0918107 0
0.135172 -0.0878738 0
0.135172 -0.0839369 0
0.132271 -0.0776316 0
0.12937 -0.0752632 0
0.126469 -0.0728947 0
0.123568 -0.0705263 0
0.120667 -0.0681579 0
0.117766 -0.0657895 0
0.114865 -0.0634211 0
0.111965 -0.0610526 0
0.109064 -0.0586842 0
0.106163 -0.0563158 0
0.103262 -0.0539474 0
0.100361 -0.0515789 0
0.0974602 -0.0492105 0
0.0945593 -0.0468421 0
0.0916584 -0.0444737 0
0.0887575 -0.0421053 0
0.0858567 -0.0397368 0
0.0829558 -0.0373684 0
0.0782695 -0.0321179 0
0.0764517 -0.0292561 0
0.0746002 -0.026416 0
0.072713 -0.0235995 0
0.0707885 -0.0208084 0
0.0688248 -0.0180447 0
0.0668197 -0.0153109 0
0.064771 -0.0126096 0
0.0626765 -0.00994373 0
0.0605336 -0.00731663 0
0.0583395 -0.00473208 0
0.0560914 -0.00219437 0
0.0537863 0.000291632 0
0.051421 0.00272041 0
0.0489922 0.00508564 0
0.0464964 0.00738012 0
0.0439303 0.00959562 0
0.0412905 0.0117228 0
0.038574 0.0137509 0
0.035778 0.0156678 0
0.0329005 0.0174601 0
0.0299406 0.0191127 0
0.0268988 0.020609 0
0.0237776 0.0219317 0
0.0205821 0.0230627 0
0.0173201 0.0239842 0
0.0140027 0.0246801 0
0.010644 0.0251366 0
0.00726082 0.0253442 0
0.0038716 0.0252983 0
-0.00344171 0.0239286 0
-0.00737862 0.0228571 0
-0.0113155 0.0217857 0
-0.0152525 0.0207143 0
-0.0191894 0.0196429 0
-0.0231263 0.0185714 0
-0.0270632 0.0175 0
-0.0310001 0.0164286 0
-0.034937 0.0153571 0
-0.0388739 0.0142857 0
-0.0428108 0.0132143 0
-0.0467478 0.0121429 0
-0.0506847 0.0110714 0
-0.0546216 0.00606309 0
-0.0546216 0.00212617 0
-0.0546216 -0.00181074 0
-0.0546216 -0.00574766 0
-0.0546216 -0.00968457 0
-0.0546216 -0.0136215 0
-0.0546216 -0.0175584 0
-0.0546216 -0.0214953 0
-0.0546216 -0.0254322 0
-0.0546216 -0.0293691 0
-0.0546216 -0.0333061 0
-0.0546216 -0.037243 0
-0.0546216 -0.0411799 0
-0.0506847 -0.0440454 -0.00551168
-0.0467478 -0.0429739 -0.00551168
-0.0428108 -0.0419025 -0.00551168
-0.0388739 -0.0408311 -0.00551168
-0.034937 -0.0397597 -0.00551168
-0.0310001 -0.0386882 -0.00551168
-0.0270632 -0.0376168 -0.00551168
-0.0231263 -0.0365454 -0.00551168
-0.0191894 -0.0354739 -0.00551168
-0.0152525 -0.0344025 -0.00551168
-0.0113155 -0.0333311 -0.00551168
-0.00737862 -0.0322597 -0.00551168
-0.00344171 -0.0311882 -0.00551168
0.0038716 -0.0298185 -0.00551168
0.00726082 -0.0297726 -0.00551168
0.010644 -0.0299802 -0.00551168
0.0140027 -0.0304367 -0.00551168
0.0173201 -0.0311326 -0.00551168
0.0205821 -0.0320541 -0.00551168
0.0237776 -0.0331851 -0.00551168
0.0268988 -0.0345078 -0.00551168
0.0299406 -0.0360041 -0.00551168
0.0329005 -0.0376567 -0.00551168
0.035778 -0.039449 -0.00551168
0.038574 -0.0413659 -0.00551168
0.0412905 -0.043394 -0.00551168
0.0439303 -0.0455212 -0.00551168
0.0464964 -0.0477367 -0.00551168
0.0489922 -0.0500312 -0.00551168
0.051421 -0.0523964 -0.00551168
0.0537863 -0.0548252 -0.00551168
0.0560914 -0.0573112 -0.00551168
0.0583395 -0.0598489 -0.00551168
0.0605336 -0.0624334 -0.00551168
0.0626765 -0.0650605 -0.00551168
0.064771 -0.0677264 -0.00551168
0.0668197 -0.0704277 -0.00551168
0.0688248 -0.0731615 -0.00551168
0.0707885 -0.0759252 -0.00551168
0.072713 -0.0787163 -0.00551168
0.0746002 -0.0815329 -0.00551168
0.0764517 -0.0843729 -0.00551168
0.0782695 -0.0872347 -0.00551168
0.0829558 -0.0924852 -0.00551168
0.0858567 -0.0948536 -0.00551168
0.0887575 -0.0972221 -0.00551168
0.0916584 -0.0995905 -0.00551168
0.0945593 -0.101959 -0.00551168
0.0974602 -0.104327 -0.00551168
0.100361 -0.106696 -0.00551168
0.103262 -0.109064 -0.00551168
0.106163 -0.111433 -0.00551168
0.109064 -0.113801 -0.00551168
0.111965 -0.116169 -0.00551168
0.114865 -0.118538 -0.00551168
0.117766 -0.120906 -0.00551168
0.120667 -0.123275 -0.00551168
0.123568 -0.125643 -0.00551168
0.126469 -0.128012 -0.00551168
0.12937 -0.13038 -0.00551168
0.132271 -0.132748 -0.00551168
0.135172 -0.13118 -0.00551168
0.135172 -0.127243 -0.00551168
0.135172 -0.123306 -0.00551168
0.135172 -0.119369 -0.00551168
0.135172 -0.115432 -0.00551168
0.135172 -0.111495 -0.00551168
0.135172 -0.107558 -0.00551168
0.135172 -0.103621 -0.00551168
0.135172 -0.0996846 -0.00551168
0.135172 -0.0957477 -0.00551168
0.135172 -0.0918107 -0.00551168
0.135172 -0.0878738 -0.00551168
0.135172 -0.0839369 -0.00551168
0.132271 -0.0776316 -0.00551168
0.12937 -0.0752632 -0.00551168
0.126469 -0.0728947 -0.00551168
0.123568 -0.0705263 -0.00551168
0.120667 -0.0681579 -0.00551168
0.117766 -0.0657895 -0.00551168
0.114865 -0.0634211 -0.00551168
0.111965 -0.0610526 -0.00551168
0.109064 -0.0586842 -0.00551168
0.106163 -0.0563158 -0.00551168
0.103262 -0.0539474 -0.00551168
0.100361 -0.0515789 -0.00551168
0.0974602 -0.0492105 -0.00551168
0.0945593 -0.0468421 -0.00551168
0.0916584 -0.0444737 -0.00551168
0.0887575 -0.0421053 -0.00551168
0.0858567 -0.0397368 -0.00551168
0.0829558 -0.0373684 -0.00551168
0.0782695 -0.0321179 -0.00551168
0.0764517 -0.0292561 -0.00551168
0.0746002 -0.026416 -0.00551168
0.072713 -0.0235995 -0.00551168
0.0707885 -0.0208084 -0.00551168
0.0688248 -0.0180447 -0.00551168
0.0668197 -0.0153109 -0.00551168
0.064771 -0.0126096 -0.00551168
0.0626765 -0.00994373 -0.00551168
0.0605336 -0.00731663 -0.00551168
0.0583395 -0.00473208 -0.00551168
0.0560914 -0.00219437 -0.00551168
0.0537863 0.000291632 -0.00551168
0.051421 0.00272041 -0.00551168
0.0489922 0.00508564 -0.00551168
0.0464964 0.00738012 -0.00551168
0.0439303 0.00959562 -0.00551168
0.0412905 0.0117228 -0.00551168
[...]
CELL_DATA 2965
SCALARS rho float
LOOKUP_TABLE default
0.534089
0.333896
0.524815
0.319566
0.542141
0.35171
0.53403
0.333878
0.353996
0.5258
0.319288
0.336215
0.425684
0.536518
0.518044
0.517082
0.527167
0.516776
0.545005
0.528867
0.534117
0.324189
0.509559
0.537514
0.535491
0.547593
0.458617
0.479917
0.323603
0.505357
0.502086
0.333532
0.552644
0.529629
0.281114
0.352137
0.528763
0.533511
0.311995
0.505935
0.5299
0.502851
0.534501
0.331426
0.333215
0.533277
0.458855
0.471009
0.311493
0.534122
0.389875
0.321372
0.335213
0.425079
0.321018
0.420166
0.356316
0.317203
0.271915
0.476259
0.515944
0.476852
0.325633
0.544191
0.486848
0.53389
0.534087
0.322133
0.314913
0.340836
0.518529
0.543641
0.534099
0.295499
0.50035
0.409564
0.533962
0.321163
0.327189
0.467757
0.534119
0.324877
0.338993
0.434705
0.481712
0.374126
0.316423
0.27283
0.553401
0.355779
0.311112
0.533209
0.517892
0.51434
0.53405
0.313064
0.457472
0.299117
0.34071
0.329557
0.474497
0.328915
0.336518
0.332456
0.340841
0.528621
0.533945
0.32315
0.319055
0.533987
0.250065
0.391203
0.470121
0.494046
0.317212
0.307729
0.506408
0.455212
0.534164
0.333557
0.534116
0.238431
0.540024
0.541346
0.493572
0.400032
0.331553
0.459394
0.531625
0.267411
0.336785
0.427532
0.532312
0.339279
0.460335
0.339575
0.426712
0.516717
0.554079
0.542136
0.338892
0.516156
0.527968
0.330399
0.280291
0.545492
0.320393
0.541341
0.5545
0.343755
0.331271
0.32694
0.336855
0.323246
0.28052
0.270135
0.534018
0.531822
0.525371
0.539911
0.452284
0.461728
0.407095
0.543017
0.356385
0.534034
0.416047
0.332112
0.534079
0.536081
0.481169
0.299149
0.433305
0.519878
0.547248
0.413695
0.511753
0.35795
0.260021
0.416669
0.33695
0.259836
0.312826
0.300943
0.554794
0.534036
0.325803
0.332549
0.388973
0.329872
0.312821
0.31612
0.450926
0.292622
0.534115
0.463252
0.534401
0.486013
0.439931
0.326415
0.332835
0.350715
0.528371
0.443545
0.534049
0.310645
0.427997
0.534104
0.519744
0.534703
0.496383
0.397498
0.353092
0.343926
0.505856
0.34008
0.460371
0.324386
0.517611
0.329691
0.353964
0.337794
0.458954
0.381859
0.545596
0.289637
0.534057
0.522471
0.320116
0.479633
0.327627
0.285444
0.536227
0.313716
0.533702
0.536158
0.320718
0.531095
0.33105
0.350285
0.372236
0.330352
0.543919
0.522872
0.333096
0.250604
0.526095
0.533924
0.446797
0.505849
0.327853
0.325079
0.534021
0.336387
0.481403
0.277631
0.278923
0.534165
0.533472
0.340989
0.464268
0.325515
0.543111
0.352737
0.535037
0.534143
0.266439
0.472322
0.520607
0.304615
0.332233
0.534132
0.331736
0.550498
0.509767
0.333112
0.51498
0.514843
0.551475
0.531575
0.546492
0.467981
0.529444
0.533886
0.321048
0.317946
0.523298
0.539426
0.339002
0.531658
0.462285
0.325201
0.339052
0.33134
0.477377
0.320546
0.533972
0.479958
0.549893
0.32837
0.483144
0.485397
0.476533
0.533601
0.324543
0.236557
0.54505
0.533996
0.533989
0.320056
0.336984
0.481717
0.302789
0.302565
0.491699
0.534085
0.48462
0.250432
0.324055
0.482288
0.493906
0.329692
0.534269
0.534046
0.336027
0.414373
0.533472
0.514904
0.287304
0.332041
0.53419
0.34181
0.537589
0.363852
0.539871
0.391506
0.369202
0.33538
0.332909
0.30215
0.51129
0.547717
0.526285
0.542935
0.485009
0.473739
0.314963
0.534571
0.547002
0.341546
0.316361
0.534216
0.31764
0.516747
0.472122
0.341235
0.334306
0.333665
0.318161
0.534058
0.336714
0.340249
0.379558
0.33046
0.533486
0.534335
0.472168
0.533981
0.3306
0.53129
0.333525
0.534227
0.31753
0.336523
0.535672
0.465322
0.287121
0.257122
0.532519
0.360372
0.500172
0.514401
0.321649
0.530779
0.280522
0.34235
0.534262
0.305847
0.535971
0.275444
0.379643
0.333659
0.536223
0.468445
0.433909
0.533903
0.298933
0.546436
0.340897
0.327937
0.549065
0.330186
0.54033
0.421176
0.487191
0.278862
0.295385
0.325031
0.279296
0.323561
0.342905
0.530035
0.534385
0.53464
0.534126
0.341091
0.538377
0.46589
0.519938
0.254802
0.533394
0.356065
0.484177
0.475559
0.348633
0.534135
0.35444
0.522233
0.340748
0.48813
0.534935
0.329582
0.532952
0.257897
0.537908
0.325796
0.318409
0.415783
0.543218
0.540425
0.398005
0.280971
0.249662
0.416779
0.542756
0.528272
0.5336
0.531664
0.537111
0.317398
0.513742
0.483846
0.339452
0.267017
0.306829
0.497896
0.535953
0.365752
0.379788
0.370624
0.344819
0.528341
0.534921
0.534098
0.548589
0.39804
0.533906
0.535499
0.330497
0.539489
0.345969
0.350765
0.531709
0.534672
0.537276
0.545351
0.32379
0.337227
0.552795
0.530513
0.323789
0.529652
0.501111
0.534633
0.350325
0.338073
0.535663
0.332078
0.452974
0.5348
0.535891
0.341574
0.533495
0.330993
0.332912
0.322162
0.345288
0.533522
0.362835
0.516825
0.283255
0.326165
0.526695
0.340755
0.291224
0.341146
0.275356
0.358995
0.337627
0.327628
0.426635
0.437945
0.318479
0.353953
0.535925
0.331429
0.394969
0.533496
0.533849
0.494398
0.489793
0.436481
0.443741
0.302447
0.373388
0.533699
0.498569
0.279702
0.508301
0.246498
0.2917
0.32874
0.533736
0.551045
0.34113
0.49673
0.532039
0.282769
0.350757
0.541598
0.534032
0.36031
0.543318
0.379787
0.336764
0.541625
0.342877
0.453091
0.527115
0.406012
0.542525
0.315613
0.345683
0.537319
0.368625
0.338287
0.350841
0.329334
0.327279
0.533934
0.539807
0.52314
0.318383
0.256405
0.343748
0.341387
0.530358
0.285268
0.423231
0.342315
0.531639
0.533556
0.306982
0.534147
0.390727
0.490279
0.297958
0.527476
0.533394
0.55409
0.535011
0.534099
0.525963
0.351126
0.425105
0.339935
0.527591
0.318641
0.324869
0.532534
0.533927
0.533491
0.330559
0.324113
0.539007
0.54116
0.307707
0.534404
0.300498
0.307303
0.330903
0.552743
0.538451
0.52265
0.301425
0.299724
0.341354
0.328573
0.537566
0.534077
0.546098
0.330532
0.319312
0.456726
0.547072
0.543575
0.509936
0.534006
0.412522
0.536112
0.541671
0.516788
0.333043
0.5367
0.49491
0.53405
0.536188
0.545654
0.485784
0.380323
0.546218
0.339212
0.544222
0.533924
0.236669
0.534065
0.462686
0.535407
0.337888
0.320357
0.534122
0.300374
0.331554
0.548397
0.300233
0.415713
0.537525
0.287706
0.546326
0.327734
0.492362
0.532934
0.528051
0.501605
0.324452
0.327794
0.521592
0.436665
0.334769
0.480158
0.314686
0.534095
0.321629
0.459371
0.518882
0.534141
0.321395
0.492386
0.354031
0.408782
0.414033
0.343322
0.276861
0.325706
0.534174
0.45859
0.436256
0.322217
0.534166
0.4895
0.321351
0.534124
0.331016
0.45689
0.519239
0.534065
0.53726
0.295408
0.330173
0.534078
0.544505
0.522626
0.489149
0.542738
0.47951
0.465651
0.316409
0.502918
0.388046
0.345158
0.359604
0.534015
0.549338
0.508244
0.393496
0.33126
0.541197
0.337784
0.342432
0.403264
0.317109
0.455997
0.332496
0.534045
0.33074
0.312335
0.414206
0.544669
0.332607
0.307517
0.548871
0.543568
0.551161
0.325842
0.306832
0.538547
0.350569
0.306918
0.331167
0.435891
0.524948
0.267508
0.550481
0.333385
0.505829
0.533794
0.31874
0.407929
0.478008
0.500518
0.494627
0.540769
0.538334
0.544456
0.534935
0.534092
0.343029
0.381221
0.521759
0.297376
0.543315
0.525916
0.266645
0.532005
0.475243
0.512526
0.539314
0.469543
0.531725
0.314061
0.491557
0.342706
0.299521
0.534855
0.53413
0.285371
0.335467
0.531052
0.392346
0.453189
0.302743
0.249256
0.548475
0.516181
0.544043
0.51317
0.462466
0.376618
0.453402
0.317541
0.534117
0.504304
0.49507
0.348887
0.381134
0.544392
0.498044
0.539262
0.137595
0.534134
0.318723
0.324392
0.331446
0.51995
0.521525
0.540568
0.471884
0.341038
0.534097
0.386799
0.545853
0.547119
0.492396
0.323192
0.314721
0.534362
0.341438
0.424681
0.474433
0.330402
0.346247
0.517228
0.542213
0.325287
0.534142
0.532927
0.319705
0.534149
0.535195
0.538511
0.352243
0.353089
0.542026
0.327971
0.333948
0.40773
0.534057
0.329058
0.376576
0.331386
0.297589
0.538024
0.332601
0.323133
0.543094
0.331693
0.3259
0.552653
0.537877
0.534379
0.534006
0.492869
0.33347
0.55148
0.533302
0.316884
0.537077
0.534796
0.534064
0.534073
0.351401
0.534067
0.338263
0.534076
0.323329
0.534021
0.336812
0.518379
0.3165
0.54051
0.545109
0.550086
0.484746
0.534313
0.536786
0.289389
0.534001
0.266319
0.534056
0.538232
0.32789
0.405762
0.341628
0.331022
0.534055
0.361911
0.53349
0.139249
0.505003
0.508853
0.5403
0.397677
0.339356
0.270887
0.320742
0.273659
0.53665
0.36471
0.318371
0.535076
0.340894
0.354259
0.532678
0.533052
0.501163
0.535771
0.255983
0.487147
0.315038
0.534112
0.53451
0.524406
0.296545
0.540376
0.535738
0.541431
0.49812
0.533209
0.382557
0.533977
0.540102
0.442873
0.534262
0.323468
0.518383
0.347986
0.420518
0.519944
0.490454
0.53076
0.474356
0.487426
0.537238
0.316629
0.523997
0.331083
0.338888
0.54058
0.512718
0.478736
0.519935
0.531695
0.534108
0.537195
0.534129
0.534224
0.534467
0.551989
0.353904
0.501693
0.531159
0.322008
0.534087
0.323541
0.471703
0.334725
0.534117
0.321612
0.318974
0.31522
0.469933
0.535089
0.428442
0.51639
0.334346
0.339205
0.533962
0.535214
0.340113
0.502439
0.445718
0.337915
0.503877
0.333776
0.32172
0.534086
0.480207
0.315143
0.518899
0.533108
0.524223
0.328974
0.515629
0.263099
0.534013
0.378507
0.510049
0.331346
0.548055
0.307228
0.334811
0.316633
0.515639
0.30271
0.497921
0.546506
0.470539
0.354473
0.314986
0.54213
0.314447
0.237093
0.327561
0.535556
0.31883
0.343672
0.268351
0.499577
0.336899
0.335714
0.33478
0.533844
0.549274
0.341096
0.538635
0.537915
0.495773
0.325847
0.3188
0.533823
0.316806
0.554629
0.328924
0.531359
0.323938
0.240717
0.514393
0.325295
0.32745
0.327582
0.534162
0.304892
0.446055
0.537196
0.316234
0.516362
0.331922
0.549056
0.418358
0.317211
0.335205
0.535048
0.44079
0.534158
0.321289
0.343065
0.439682
0.534082
0.317422
0.33715
0.32978
0.415897
0.536909
0.355327
0.450133
0.531649
0.53415
0.526176
0.330442
0.535781
0.321951
0.534465
0.53456
0.460664
0.339666
0.490647
0.537593
0.31703
0.537809
0.538066
0.335969
0.328865
0.321566
0.281997
0.542456
0.327148
0.533999
0.382869
0.534071
0.495274
0.374211
0.511154
0.306992
0.479976
0.323304
0.533842
0.533337
0.272875
0.332382
0.326099
0.465649
0.552631
0.319115
0.301819
0.339477
0.45156
0.546614
0.298675
0.32033
0.526006
0.536638
0.527926
0.330626
0.334847
0.523961
0.533845
0.317641
0.327783
0.4378
0.549546
0.492448
0.307874
0.534185
0.535081
0.315
0.538374
0.331296
0.539104
0.3131
0.359211
0.315765
0.282738
0.533681
0.322587
0.325467
0.327475
0.340937
0.483742
0.529337
0.549478
0.318252
0.534048
0.535521
0.535106
0.546688
0.533702
0.547798
0.54855
0.548348
0.538059
0.532814
0.329234
0.487623
0.549229
0.325997
0.540653
0.544628
0.536797
0.535351
0.311136
0.54222
0.534118
0.536632
0.338245
0.505853
0.530037
0.534022
0.529615
0.326916
0.486694
0.353902
0.414348
0.343517
0.343389
0.324883
0.329021
0.53424
0.5332
0.522427
0.325234
0.53469
0.534149
0.537458
0.331242
0.336963
0.519094
0.309628
0.312155
0.339004
0.53647
0.419598
0.534614
0.334938
0.546102
0.533357
0.457159
0.538916
0.340728
0.550031
0.535551
0.512915
0.539304
0.534153
0.520517
0.328974
0.35128
0.338069
0.533849
0.311598
0.534313
0.52097
0.494896
0.333864
0.352238
0.483288
0.541616
0.533993
0.333826
0.525529
0.478593
0.272126
0.534232
0.320293
0.328179
0.327601
0.318553
0.33921
0.539493
0.53567
0.552134
0.443512
0.532891
0.533799
0.517798
0.53417
0.546374
0.548406
0.53374
0.533882
0.329428
0.534011
0.528145
0.426882
0.326597
0.503812
0.315164
0.537255
0.370712
0.538963
0.545402
0.334654
0.536126
0.328422
0.535406
0.532165
0.546953
0.489583
0.516122
0.545438
0.533725
0.355405
0.445374
0.422562
0.253517
0.534296
0.538118
0.443879
0.550564
0.526654
0.533997
0.322716
0.325124
0.527732
0.546163
0.319856
0.200342
0.514687
0.53429
0.534915
0.270976
0.456941
0.513457
0.532828
0.327412
0.53412
0.484423
0.525508
0.504998
0.439819
0.534124
0.315557
0.531222
0.316456
0.340205
0.534189
0.344851
0.345969
0.328544
0.525575
0.510327
0.443055
0.534126
0.431009
0.356115
0.324583
0.542376
0.532474
0.539646
0.489288
0.25363
0.522545
0.432751
0.316639
0.532451
0.540241
0.332403
0.536267
0.529309
0.534038
0.44592
0.533668
0.360919
0.534298
0.53108
0.533638
0.340574
0.525308
0.386197
0.50888
0.533731
0.544698
0.530689
0.534659
0.534648
0.532895
0.518163
0.326727
0.541856
0.510574
0.339206
0.495661
0.536815
0.550953
0.499223
0.316005
0.531056
0.338563
0.545669
0.490103
0.538548
0.327916
0.513343
0.534439
0.534103
0.525412
0.478683
0.534124
0.466641
0.386394
0.328272
0.276461
0.534029
0.353282
0.309387
0.536606
0.32094
0.543793
0.327931
0.536164
0.321664
0.329283
0.521233
0.395285
0.29886
0.530834
0.533276
0.537909
0.339608
0.506443
0.534076
0.531831
0.32999
0.534101
0.534823
0.325327
0.482416
0.462355
0.523209
0.345171
0.391569
0.510346
0.321903
0.537865
0.336171
0.33511
0.533943
0.386122
0.507256
0.32078
0.539735
0.424998
0.53411
0.229569
0.327424
0.533971
0.341925
0.534131
0.355006
0.534534
0.485362
0.466446
0.534136
0.502452
0.264643
0.534901
0.548754
0.531719
0.534091
0.326858
0.336342
0.321582
0.335187
0.533955
0.342078
0.513619
0.327256
0.532628
0.534562
0.533865
0.328441
0.534595
0.323154
0.534742
0.541324
0.350855
0.53378
0.525052
0.314668
0.521713
0.329777
0.35593
0.549173
0.332149
0.543328
0.224797
0.336702
0.512867
0.359969
0.538694
0.332467
0.461384
0.533075
0.530118
0.385792
0.277731
0.329565
0.534069
0.534125
0.340428
0.535206
0.325868
0.532655
0.326856
0.320059
0.467995
0.474631
0.4195
0.495543
0.534124
0.492113
0.473597
0.536082
0.533948
0.331316
0.535015
0.348482
0.343923
0.496047
0.406759
0.39537
0.442471
0.332436
0.514828
0.534137
0.537077
0.327394
0.321779
0.450924
0.505741
0.534427
0.545829
0.318882
0.499581
0.532714
0.507583
0.440034
0.326133
0.329627
0.334553
0.554652
0.537027
0.308235
0.325495
0.436615
0.330159
0.549269
0.513123
0.31936
0.533985
0.404517
0.540733
0.536622
0.323342
0.35076
0.506953
0.321487
0.394232
0.533081
0.275062
0.322816
0.330062
0.507958
0.53611
0.505633
0.337666
0.315164
0.528645
0.535011
0.494457
0.538848
0.317918
0.327675
0.337285
0.497959
0.334546
0.323952
0.537869
0.541566
0.514341
0.330982
0.332886
0.328452
0.534055
0.302925
0.532832
0.53407
0.530197
0.428229
0.534102
0.549163
0.331481
0.329055
0.535614
0.324671
0.465596
0.526073
0.541805
0.436965
0.329051
0.333363
0.541504
0.403284
0.311587
0.534378
0.534075
0.296188
0.326643
0.513356
0.442413
0.332686
0.340582
0.540271
0.490305
0.528964
0.474423
0.354365
0.337101
0.346685
0.380395
0.318934
0.534103
0.528504
0.470269
0.511695
0.353091
0.503897
0.354227
0.533367
0.545686
0.338407
0.264897
0.529705
0.384983
0.472462
0.535123
0.306457
0.530859
0.527927
0.533773
0.534133
0.505873
0.351097
0.340384
0.31758
0.510956
0.533948
0.514025
0.443872
0.331867
0.340468
0.492432
0.333425
0.538334
0.533776
0.532984
0.347345
0.330052
0.464561
0.507133
0.534129
0.526612
0.534256
0.533992
0.535913
0.481659
0.25292
0.534066
0.497737
0.534632
0.318839
0.529814
0.42384
0.528624
0.55204
0.44591
0.491726
0.531743
0.509293
0.534099
0.331818
0.531801
0.550938
0.348044
0.505235
0.306945
0.308215
0.534117
0.53403
0.339936
0.483227
0.53379
0.334648
0.353856
0.556937
0.549855
0.471155
0.35129
0.495594
0.33133
0.542819
0.548834
0.325025
0.454561
0.500371
0.328556
0.318351
0.346682
0.53895
0.531903
0.317261
0.346641
0.338916
0.342343
0.342956
0.501561
0.329905
0.550765
0.535096
0.541672
0.323149
0.532952
0.446529
0.531887
0.443213
0.529419
0.31986
0.302229
0.330561
0.534068
0.32743
0.328719
0.496701
0.336751
0.534134
0.506942
0.425141
0.320581
0.323099
0.522537
0.535974
0.527561
0.525291
0.54253
0.318532
0.346903
0.323772
0.509731
0.534795
0.327019
0.517498
0.342841
0.338677
0.534185
0.323389
0.352976
0.263841
0.37077
0.334483
0.534397
0.538128
0.537729
0.337795
0.533754
0.54226
0.326746
0.534381
0.375334
0.539864
0.352291
0.387604
0.53351
0.330979
0.272255
0.529711
0.524047
0.326258
0.546089
0.498392
0.533079
0.398665
0.321952
0.501368
0.534055
0.365652
0.359366
0.422791
0.398592
0.534186
0.331042
0.325151
0.54099
0.515603
0.339513
0.323164
0.531642
0.3308
0.354128
0.323153
0.454749
0.544701
0.322005
0.540013
0.324237
0.309466
0.355643
0.405517
0.339653
0.539373
0.323362
0.355385
0.481108
0.538663
0.354394
0.534022
0.318105
0.331712
0.510355
0.552331
0.523287
0.512992
0.518757
0.546033
0.327696
0.539006
0.315884
0.534033
0.526742
0.410681
0.524736
0.534068
0.533915
0.533813
0.432172
0.354417
0.429689
0.335521
0.502105
0.532408
0.495801
0.327253
0.536014
0.368466
0.534041
0.329856
0.308443
0.556374
0.308627
0.528799
0.551772
0.37703
0.335536
0.331494
0.533665
0.393111
0.27341
0.540525
0.332966
0.525682
0.353828
0.344293
0.319752
0.535218
0.390333
0.534124
0.328338
0.343963
0.534113
0.532657
0.282867
0.358627
0.269238
0.481366
0.333789
0.520554
0.530619
0.534044
0.237881
0.326727
0.450256
0.530692
0.548139
0.532741
0.303125
0.513802
0.537488
0.534024
0.534114
0.32023
0.521721
0.334576
0.449658
0.542505
0.537183
0.529946
0.544543
0.497725
0.532174
0.544051
0.533634
0.522513
0.536396
0.533795
0.535546
0.330327
0.333181
0.534332
0.475777
0.534119
0.534053
0.548133
0.519514
0.54503
0.338931
0.329793
0.534127
0.32933
0.326897
0.340246
0.533964
0.523469
0.534022
0.509614
0.52308
0.317016
0.537777
0.317171
0.318119
0.545626
0.525753
0.524579
0.398885
0.395744
0.333201
0.329369
0.384371
0.330383
0.35767
0.544039
0.312469
0.53121
0.334605
0.539519
0.53304
0.28626
0.35238
0.49667
0.534117
0.332622
0.508916
0.269311
0.317491
0.328216
0.448595
0.535025
0.534127
0.534258
0.246646
0.347846
0.274493
0.340121
0.534085
0.547232
0.538567
0.339452
0.317638
0.533866
0.532783
0.536421
0.308333
0.480845
0.46513
0.543241
0.429968
0.345063
0.33775
0.329432
0.535784
0.328853
0.329588
0.534074
0.356465
0.534285
0.35567
0.347229
0.399151
0.352714
0.54555
0.534126
0.534322
0.444733
0.554065
0.51035
0.475634
0.354944
0.507664
0.530093
0.509694
0.536448
0.532757
0.539633
0.425
0.532646
0.535354
0.350351
0.334661
0.548978
0.400336
0.533455
0.331351
0.546033
0.363962
0.526081
0.534473
0.508435
0.533073
0.538978
0.515133
0.323495
0.34107
0.537377
0.546846
0.533332
0.433474
0.544247
0.446413
0.494063
0.533783
0.472169
0.463951
0.540401
0.534043
0.340819
0.317308
0.534483
0.502163
0.331841
0.344552
0.423315
0.534133
0.534069
0.550433
0.340218
0.524525
0.305425
0.536685
0.331086
0.544431
0.308563
0.549108
0.339715
0.531338
0.445327
0.329415
0.329519
0.47106
0.331387
0.485079
0.317809
0.534168
0.53413
0.53031
0.52767
0.534153
0.534927
0.533884
0.549665
0.541492
0.501792
0.515686
0.495973
0.538273
0.324936
0.500561
0.499415
0.53262
0.32332
0.497908
0.54536
0.533957
0.33875
0.325392
0.339587
0.544127
0.497687
0.328437
0.500357
0.391067
0.534151
0.313552
0.412073
0.354189
0.303244
0.55281
0.325294
0.508374
0.32915
0.551168
0.340031
0.534159
0.50265
0.5292
0.352808
0.354807
0.352946
0.515863
0.329817
0.351253
0.327131
0.54049
0.518718
0.544261
0.523206
0.530752
0.511424
0.383326
0.353926
0.530816
0.325197
0.447906
0.527017
0.549878
0.229025
0.345978
0.522813
0.533944
0.408923
0.52499
0.534931
0.518409
0.348792
0.542834
0.520078
0.531866
0.533272
0.323855
0.534107
0.328431
0.532115
0.542169
0.504804
0.533268
0.346951
0.537374
0.225195
0.360351
0.500211
0.507977
0.529681
0.451551
0.333667
0.532125
0.535948
0.325571
0.321972
0.308194
0.548302
0.343185
0.335899
0.330489
0.336599
0.316211
0.369239
0.542534
0.318981
0.539603
0.52391
0.331584
0.535711
0.332291
0.54765
0.321133
0.46114
0.328312
0.527159
0.534563
0.398935
0.497438
0.53409
0.520961
0.327608
0.480335
0.43045
0.318217
0.327142
0.405252
0.32733
0.544253
0.306226
0.338951
0.323258
0.534131
0.528257
0.316256
0.323858
0.545153
0.332568
0.333118
0.534043
0.329759
0.356382
0.344812
0.551353
0.503371
0.547303
0.33247
0.291675
0.538343
0.518142
0.533942
0.396472
0.508087
0.529793
0.415169
0.40275
0.327238
0.329052
0.237622
0.493
0.329543
0.54656
0.512746
0.533034
0.339329
0.41026
0.419911
0.556295
0.303556
0.482712
0.24172
0.49209
0.325877
0.280863
0.297516
0.537404
0.318573
0.550799
0.354169
0.380155
0.33253
0.472077
0.316959
0.543435
0.352849
0.50433
0.487437
0.327079
0.534384
0.534355
0.345428
0.547766
0.354235
0.333117
0.542352
0.305319
0.515557
0.362325
0.237961
0.5336
0.324582
0.352007
0.355296
0.342311
0.322694
0.515462
0.435771
0.528293
0.547181
0.528282
0.543228
0.41145
0.537914
0.302283
0.534725
0.333542
0.526465
0.320443
0.389049
0.525119
0.548757
0.535247
0.354146
0.440139
0.340718
0.347963
0.35092
0.234278
0.537146
0.41018
0.546745
0.533603
0.48496
0.538961
0.534699
0.393778
0.348104
0.366368
0.541298
0.48476
0.502323
0.534305
0.551453
0.417379