# vtk DataFile Version 1.0
unstructured grid
ascii
DATASET UNSTRUCTURED_GRID
points 3226 float
0.0796578 -0.059106 0
0.00128732 0.00159165 0
0.00227961 -0.00102548 0
0.0791586 -0.0598787 0
-0.0546216 0.01 0
0.000495206 0.025 0
0.0800549 -0.035 0
0.135172 -0.08 0
-0.0546216 -0.0451168 0
0.000495206 -0.0301168 0
0.0800549 -0.0901168 0
0.135172 -0.135117 0
-0.0546216 -0.0451168 -0.00551168
0.000495206 -0.0301168 -0.00551168
0.0800549 -0.0901168 -0.00551168
0.135172 -0.135117 -0.00551168
0.135172 -0.08 -0.00551168
0.0800549 -0.035 -0.00551168
0.000495206 0.025 -0.00551168
-0.0546216 0.01 -0.00551168
0.00128732 0.00159165 -0.00551168
0.00227961 -0.00102548 -0.00551168
0.0791586 -0.0598787 -0.00551168
0.0796578 -0.059106 -0.00551168
0.00110182 -0.000823821 0
0.000571683 -0.000188043 0
0.000561313 0.000639162 0
0.00189316 0.00207203 0
0.00260228 0.00255358 0
0.0033966 0.00307293 0
0.00428861 0.00362634 0
0.00529726 0.0041979 0
0.00644092 0.00476696 0
0.00773158 0.0053187 0
0.00918011 0.00583593 0
0.010799 0.00628751 0
0.012597 0.00663225 0
0.0145725 0.0068517 0
0.0167206 0.0069338 0
0.0190349 0.00685819 0
0.0215031 0.00658621 0
0.0241038 0.00607459 0
0.026821 0.00533786 0
0.0296245 0.00434523 0
0.0324763 0.00306927 0
0.0353199 0.00146906 0
0.0381488 -0.00039338 0
0.0409131 -0.00252802 0
0.0435632 -0.00493276 0
0.0460882 -0.0075571 0
0.0484881 -0.0103478 0
0.0506782 -0.0133217 0
0.0526651 -0.016422 0
0.0546139 -0.0195019 0
0.0565301 -0.022529 0
0.0584009 -0.0254846 0
0.0602154 -0.0283513 0
0.061964 -0.031114 0
0.0636389 -0.0337601 0
0.0652336 -0.0362795 0
0.0667431 -0.0386651 0
0.0681656 -0.0409111 0
0.0694983 -0.0430158 0
0.0707356 -0.0449823 0
0.071886 -0.0468071 0
0.0729575 -0.04849 0
0.0739438 -0.0500408 0
0.0748444 -0.0514675 0
0.0756707 -0.0527715 0
0.0764313 -0.053958 0
0.0771224 -0.0550398 0
0.0777384 -0.0560288 0
0.0782803 -0.0569318 0
0.0787691 -0.0577448 0
0.0792251 -0.0584672 0
0.0800494 -0.0597378 0
0.0797987 -0.0601582 0
0.0786655 -0.059391 0
0.0781259 -0.0588425 0
0.0775539 -0.0582102 0
0.0769587 -0.0574783 0
0.0763492 -0.0566339 0
0.075723 -0.0556725 0
0.0750452 -0.0546094 0
0.0742996 -0.0534457 0
0.073478 -0.0521785 0
0.072577 -0.0508019 0
0.0715904 -0.049313 0
0.0705098 -0.047712 0
0.069328 -0.0459996 0
0.0680378 -0.0441794 0
0.066632 -0.0422571 0
0.0651046 -0.0402413 0
0.0634508 -0.0381431 0
0.0616683 -0.0359754 0
0.0597581 -0.033753 0
0.0577255 -0.0314906 0
0.0555808 -0.0292024 0
0.0533388 -0.0269013 0
0.0510024 -0.0246151 0
0.0485693 -0.0223811 0
0.0460535 -0.0202228 0
0.0434788 -0.0181535 0
0.0408704 -0.0161833 0
0.0382442 -0.0143327 0
0.0356165 -0.0126209 0
0.0330065 -0.0110594 0
0.0304368 -0.00965062 0
0.0279338 -0.00838121 0
0.0255194 -0.00723697 0
0.0231965 -0.00623664 0
0.020983 -0.00535765 0
0.0188891 -0.00458677 0
0.0169193 -0.00391673 0
0.0150754 -0.00334068 0
0.0133572 -0.00285262 0
0.0117634 -0.0024437 0
0.0102912 -0.00210643 0
0.0089363 -0.00183343 0
0.00769424 -0.00161552 0
0.00655956 -0.00144452 0
0.00552632 -0.00131235 0
0.00458815 -0.00121216 0
0.00373885 -0.00113394 0
0.00297202 -0.00106855 0
-0.0506847 -0.0440454 0
-0.0467478 -0.0429739 0
-0.0428108 -0.0419025 0
-0.0388739 -0.0408311 0
-0.034937 -0.0397597 0
-0.0310001 -0.0386882 0
-0.0270632 -0.0376168 0
-0.0231263 -0.0365454 0
-0.0191894 -0.0354739 0
-0.0152525 -0.0344025 0
-0.0113155 -0.0333311 0
-0.00737862 -0.0322597 0
-0.00344171 -0.0311882 0
0.0038716 -0.0298185 0
0.00726082 -0.0297726 0
0.010644 -0.0299802 0
0.0140027 -0.0304367 0
0.0173201 -0.0311326 0
0.0205821 -0.0320541 0
0.0237776 -0.0331851 0
0.0268988 -0.0345078 0
0.0299406 -0.0360041 0
0.0329005 -0.0376567 0
0.035778 -0.039449 0
0.038574 -0.0413659 0
0.0412905 -0.043394 0
0.0439303 -0.0455212 0
0.0464964 -0.0477367 0
0.0489922 -0.0500312 0
0.051421 -0.0523964 0
0.0537863 -0.0548252 0
0.0560914 -0.0573112 0
0.0583395 -0.0598489 0
0.0605336 -0.0624334 0
0.0626765 -0.0650605 0
0.064771 -0.0677264 0
0.0668197 -0.0704277 0
0.0688248 -0.0731615 0
0.0707885 -0.0759252 0
0.072713 -0.0787163 0
0.0746002 -0.0815329 0
0.0764517 -0.0843729 0
0.0782695 -0.0872347 0
0.0829558 -0.0924852 0
0.0858567 -0.0948536 0
0.0887575 -0.0972221 0
0.0916584 -0.0995905 0
0.0945593 -0.101959 0
0.0974602 -0.104327 0
0.100361 -0.106696 0
0.103262 -0.109064 0
0.106163 -0.111433 0
0.109064 -0.113801 0
0.111965 -0.116169 0
0.114865 -0.118538 0
0.117766 -0.120906 0
0.120667 -0.123275 0
0.123568 -0.125643 0
0.126469 -0.128012 0
0.12937 -0.13038 0
0.132271 -0.132748 0
0.135172 -0.13118 0
0.135172 -0.127243 0
0.135172 -0.123306 0
0.135172 -0.119369 0
0.135172 -0.115432 0
0.135172 -0.111495 0
0.135172 -0.107558 0
0.135172 -0.103621 0
0.135172 -0.0996846 0
0.135172 -0.0957477 0
0.135172 -0.0918107 0
0.135172 -0.0878738 0
0.135172 -0.0839369 0
0.132271 -0.0776316 0
0.12937 -0.0752632 0
0.126469 -0.0728947 0
0.123568 -0.0705263 0
0.120667 -0.0681579 0
0.117766 -0.0657895 0
0.114865 -0.0634211 0
0.111965 -0.0610526 0
0.109064 -0.0586842 0
0.106163 -0.0563158 0
0.103262 -0.0539474 0
0.100361 -0.0515789 0
0.0974602 -0.0492105 0
0.0945593 -0.0468421 0
0.0916584 -0.0444737 0
0.0887575 -0.0421053 0
0.0858567 -0.0397368 0
0.0829558 -0.0373684 0
0.0782695 -0.0321179 0
0.0764517 -0.0292561 0
0.0746002 -0.026416 0
0.072713 -0.0235995 0
0.0707885 -0.0208084 0
0.0688248 -0.0180447 0
0.0668197 -0.0153109 0
0.064771 -0.0126096 0
0.0626765 -0.00994373 0
0.0605336 -0.00731663 0
0.0583395 -0.00473208 0
0.0560914 -0.00219437 0
0.0537863 0.000291632 0
0.051421 0.00272041 0
0.0489922 0.00508564 0
0.0464964 0.00738012 0
0.0439303 0.00959562 0
0.0412905 0.0117228 0
0.038574 0.0137509 0
0.035778 0.0156678 0
0.0329005 0.0174601 0
0.0299406 0.0191127 0
0.0268988 0.020609 0
0.0237776 0.0219317 0
0.0205821 0.0230627 0
0.0173201 0.0239842 0
0.0140027 0.0246801 0
0.010644 0.0251366 0
0.00726082 0.0253442 0
0.0038716 0.0252983 0
-0.00344171 0.0239286 0
-0.00737862 0.0228571 0
-0.0113155 0.0217857 0
-0.0152525 0.0207143 0
-0.0191894 0.0196429 0
-0.0231263 0.0185714 0
-0.0270632 0.0175 0
-0.0310001 0.0164286 0
-0.034937 0.0153571 0
-0.0388739 0.0142857 0
-0.0428108 0.0132143 0
-0.0467478 0.0121429 0
-0.0506847 0.0110714 0
-0.0546216 0.00606309 0
-0.0546216 0.00212617 0
-0.0546216 -0.00181074 0
-0.0546216 -0.00574766 0
-0.0546216 -0.00968457 0
-0.0546216 -0.0136215 0
-0.0546216 -0.0175584 0
-0.0546216 -0.0214953 0
-0.0546216 -0.0254322 0
-0.0546216 -0.0293691 0
-0.0546216 -0.0333061 0
-0.0546216 -0.037243 0
-0.0546216 -0.0411799 0
-0.0506847 -0.0440454 -0.00551168
-0.0467478 -0.0429739 -0.00551168
-0.0428108 -0.0419025 -0.00551168
-0.0388739 -0.0408311 -0.00551168
-0.034937 -0.0397597 -0.00551168
-0.0310001 -0.0386882 -0.00551168
-0.0270632 -0.0376168 -0.00551168
-0.0231263 -0.0365454 -0.00551168
-0.0191894 -0.0354739 -0.00551168
-0.0152525 -0.0344025 -0.00551168
-0.0113155 -0.0333311 -0.00551168
-0.00737862 -0.0322597 -0.00551168
-0.00344171 -0.0311882 -0.00551168
0.0038716 -0.0298185 -0.00551168
0.00726082 -0.0297726 -0.00551168
0.010644 -0.0299802 -0.00551168
0.0140027 -0.0304367 -0.00551168
0.0173201 -0.0311326 -0.00551168
0.0205821 -0.0320541 -0.00551168
0.0237776 -0.0331851 -0.00551168
0.0268988 -0.0345078 -0.00551168
0.0299406 -0.0360041 -0.00551168
0.0329005 -0.0376567 -0.00551168
0.035778 -0.039449 -0.00551168
0.038574 -0.0413659 -0.00551168
0.0412905 -0.043394 -0.00551168
0.0439303 -0.0455212 -0.00551168
0.0464964 -0.0477367 -0.00551168
0.0489922 -0.0500312 -0.00551168
0.051421 -0.0523964 -0.00551168
0.0537863 -0.0548252 -0.00551168
0.0560914 -0.0573112 -0.00551168
0.0583395 -0.0598489 -0.00551168
0.0605336 -0.0624334 -0.00551168
0.0626765 -0.0650605 -0.00551168
0.064771 -0.0677264 -0.00551168
0.0668197 -0.0704277 -0.00551168
0.0688248 -0.0731615 -0.00551168
0.0707885 -0.0759252 -0.00551168
0.072713 -0.0787163 -0.00551168
0.0746002 -0.0815329 -0.00551168
0.0764517 -0.0843729 -0.00551168
0.0782695 -0.0872347 -0.00551168
0.0829558 -0.0924852 -0.00551168
0.0858567 -0.0948536 -0.00551168
0.0887575 -0.0972221 -0.00551168
0.0916584 -0.0995905 -0.00551168
0.0945593 -0.101959 -0.00551168
0.0974602 -0.104327 -0.00551168
0.100361 -0.106696 -0.00551168
0.103262 -0.109064 -0.00551168
0.106163 -0.111433 -0.00551168
0.109064 -0.113801 -0.00551168
0.111965 -0.116169 -0.00551168
0.114865 -0.118538 -0.00551168
0.117766 -0.120906 -0.00551168
0.120667 -0.123275 -0.00551168
0.123568 -0.125643 -0.00551168
0.126469 -0.128012 -0.00551168
0.12937 -0.13038 -0.00551168
0.132271 -0.132748 -0.00551168
0.135172 -0.13118 -0.00551168
0.135172 -0.127243 -0.00551168
0.135172 -0.123306 -0.00551168
0.135172 -0.119369 -0.00551168
0.135172 -0.115432 -0.00551168
0.135172 -0.111495 -0.00551168
0.135172 -0.107558 -0.00551168
0.135172 -0.103621 -0.00551168
0.135172 -0.0996846 -0.00551168
0.135172 -0.0957477 -0.00551168
0.135172 -0.0918107 -0.00551168
0.135172 -0.0878738 -0.00551168
0.135172 -0.0839369 -0.00551168
0.132271 -0.0776316 -0.00551168
0.12937 -0.0752632 -0.00551168
0.126469 -0.0728947 -0.00551168
0.123568 -0.0705263 -0.00551168
0.120667 -0.0681579 -0.00551168
0.117766 -0.0657895 -0.00551168
0.114865 -0.0634211 -0.00551168
0.111965 -0.0610526 -0.00551168
0.109064 -0.0586842 -0.00551168
0.106163 -0.0563158 -0.00551168
0.103262 -0.0539474 -0.00551168
0.100361 -0.0515789 -0.00551168
0.0974602 -0.0492105 -0.00551168
0.0945593 -0.0468421 -0.00551168
0.0916584 -0.0444737 -0.00551168
0.0887575 -0.0421053 -0.00551168
0.0858567 -0.0397368 -0.00551168
0.0829558 -0.0373684 -0.00551168
0.0782695 -0.0321179 -0.00551168
0.0764517 -0.0292561 -0.00551168
0.0746002 -0.026416 -0.00551168
0.072713 -0.0235995 -0.00551168
0.0707885 -0.0208084 -0.00551168
0.0688248 -0.0180447 -0.00551168
0.0668197 -0.0153109 -0.00551168
0.064771 -0.0126096 -0.00551168
0.0626765 -0.00994373 -0.00551168
0.0605336 -0.00731663 -0.00551168
0.0583395 -0.00473208 -0.00551168
0.0560914 -0.00219437 -0.00551168
0.0537863 0.000291632 -0.00551168
0.051421 0.00272041 -0.00551168
0.0489922 0.00508564 -0.00551168
0.0464964 0.00738012 -0.00551168
0.0439303 0.00959562 -0.00551168
0.0412905 0.0117228 -0.00551168
[...]
CELL_DATA 2965
SCALARS rho float
LOOKUP_TABLE default
0.535912
0.33168
0.521786
0.332376
0.539569
0.327343
0.536894
0.333886
0.327741
0.522835
0.332716
0.322916
0.425028
0.53594
0.515116
0.515139
0.525068
0.516166
0.542512
0.526735
0.535937
0.32311
0.509186
0.535147
0.532689
0.545173
0.455356
0.480365
0.335846
0.501805
0.498917
0.319626
0.549847
0.526541
0.280135
0.327843
0.526397
0.530659
0.311731
0.50243
0.52737
0.500088
0.535003
0.332817
0.327445
0.533429
0.457825
0.472173
0.30787
0.53645
0.387401
0.32082
0.329208
0.422306
0.331909
0.417437
0.327055
0.326705
0.270845
0.47503
0.513026
0.477682
0.327717
0.541486
0.487504
0.534183
0.536984
0.323863
0.303728
0.319608
0.517901
0.541553
0.536983
0.291479
0.497206
0.408824
0.53613
0.320593
0.32853
0.465434
0.53725
0.326394
0.320532
0.43366
0.4826
0.371952
0.314026
0.268259
0.549924
0.32765
0.311879
0.533508
0.516807
0.510901
0.534496
0.309267
0.457164
0.290979
0.31907
0.332914
0.473301
0.331654
0.326398
0.326661
0.319016
0.528016
0.536074
0.32137
0.325918
0.5364
0.244856
0.391256
0.467082
0.494044
0.303758
0.304357
0.506086
0.454055
0.536271
0.336932
0.537323
0.238129
0.538682
0.538921
0.493953
0.397599
0.321278
0.460266
0.528359
0.266691
0.325325
0.424771
0.529476
0.323323
0.457132
0.317664
0.426547
0.5156
0.551188
0.539628
0.321226
0.514372
0.525409
0.332716
0.276251
0.542927
0.321484
0.538754
0.5516
0.326258
0.343007
0.338968
0.324309
0.323701
0.281016
0.265484
0.536719
0.528711
0.523973
0.537578
0.45083
0.459484
0.404525
0.539829
0.32691
0.536922
0.414721
0.333068
0.536514
0.53564
0.478529
0.295268
0.430557
0.517642
0.544341
0.414069
0.508339
0.357142
0.26073
0.413958
0.327471
0.25996
0.308426
0.299802
0.551859
0.536899
0.338545
0.324871
0.386471
0.350075
0.312396
0.328478
0.450926
0.291296
0.536878
0.460294
0.531611
0.486165
0.437177
0.327419
0.333379
0.311159
0.52774
0.443834
0.537157
0.304474
0.42539
0.536825
0.519023
0.533158
0.496132
0.395231
0.328049
0.326359
0.504048
0.336353
0.459653
0.31469
0.515435
0.351478
0.327855
0.323053
0.456119
0.37941
0.543361
0.281503
0.537255
0.519376
0.325967
0.477023
0.329253
0.280176
0.535634
0.310872
0.534207
0.535596
0.337307
0.527751
0.343799
0.350553
0.370971
0.343277
0.541265
0.519443
0.321792
0.246993
0.523572
0.535414
0.446018
0.503824
0.330314
0.334438
0.536721
0.319115
0.482522
0.273129
0.272288
0.536335
0.534267
0.317765
0.464957
0.327669
0.541128
0.327417
0.531675
0.53636
0.265573
0.469303
0.517636
0.296779
0.342446
0.533088
0.340528
0.547846
0.507813
0.338118
0.514409
0.512659
0.548796
0.531177
0.543395
0.469687
0.528136
0.535347
0.324347
0.309783
0.522065
0.538189
0.322266
0.530693
0.459176
0.319973
0.321415
0.327943
0.474192
0.320091
0.536056
0.477154
0.547194
0.343934
0.480208
0.485149
0.474264
0.534511
0.335787
0.23565
0.542716
0.53648
0.53615
0.320088
0.323471
0.479344
0.291973
0.296059
0.492121
0.537284
0.485224
0.242122
0.342138
0.48084
0.49426
0.332452
0.535415
0.537131
0.321526
0.415854
0.533953
0.511532
0.282118
0.337405
0.536069
0.323942
0.535246
0.362364
0.538535
0.389259
0.36838
0.333878
0.32239
0.305869
0.510888
0.545349
0.52528
0.539842
0.484991
0.470488
0.305576
0.534873
0.544066
0.317837
0.327078
0.535947
0.316889
0.515824
0.473583
0.316873
0.334973
0.319711
0.333911
0.537179
0.322777
0.323602
0.3772
0.333486
0.533548
0.534964
0.468839
0.536332
0.34302
0.530038
0.328225
0.535971
0.328955
0.335428
0.534511
0.464043
0.281112
0.256833
0.531949
0.359759
0.497371
0.512481
0.325395
0.530182
0.276762
0.326396
0.535533
0.295837
0.535246
0.272007
0.377236
0.333746
0.535095
0.465632
0.431431
0.535226
0.29508
0.543434
0.341691
0.308469
0.546159
0.308802
0.537042
0.418396
0.485474
0.274878
0.299042
0.310188
0.275119
0.312047
0.325805
0.52683
0.534657
0.53512
0.53652
0.314903
0.535795
0.462776
0.519196
0.254078
0.534249
0.327621
0.4846
0.476644
0.310377
0.53693
0.354277
0.519293
0.318348
0.486111
0.532796
0.306891
0.53149
0.257275
0.536169
0.325737
0.326141
0.413138
0.54031
0.538551
0.399646
0.275061
0.249688
0.414205
0.539847
0.527015
0.53351
0.530845
0.536364
0.32452
0.510448
0.483502
0.319761
0.266648
0.298713
0.494649
0.535665
0.363445
0.378145
0.368627
0.326448
0.527706
0.535098
0.536597
0.545904
0.395663
0.534889
0.535442
0.332769
0.537561
0.345585
0.350634
0.530347
0.535298
0.535025
0.542515
0.339251
0.319187
0.549992
0.52926
0.341726
0.52915
0.497771
0.535249
0.327568
0.30562
0.535555
0.341284
0.450674
0.53526
0.535627
0.318318
0.533837
0.341423
0.336661
0.324472
0.346407
0.53405
0.361316
0.516216
0.278957
0.326891
0.525904
0.336782
0.28802
0.318344
0.274533
0.356942
0.318424
0.33034
0.424051
0.435397
0.325578
0.326446
0.535278
0.339555
0.394118
0.534135
0.535169
0.49471
0.490394
0.438126
0.441728
0.291923
0.371168
0.534557
0.497505
0.277979
0.50715
0.240456
0.288925
0.307084
0.531777
0.548413
0.310101
0.496915
0.531758
0.281044
0.311895
0.538474
0.536512
0.358104
0.540162
0.379353
0.319771
0.538459
0.310075
0.452531
0.523933
0.407881
0.539792
0.323709
0.312684
0.536465
0.368317
0.335378
0.327876
0.32391
0.326664
0.535095
0.53795
0.522316
0.326321
0.255522
0.317097
0.309727
0.529635
0.275755
0.42265
0.309615
0.530909
0.532572
0.307047
0.536541
0.388353
0.490876
0.294592
0.526834
0.530102
0.551242
0.53159
0.536345
0.525265
0.327909
0.426019
0.317623
0.524613
0.313277
0.316825
0.532675
0.535919
0.53448
0.342633
0.332123
0.53784
0.538884
0.304498
0.534508
0.29627
0.306444
0.332161
0.549951
0.537064
0.519452
0.294621
0.296253
0.328838
0.335087
0.536682
0.536845
0.543271
0.338472
0.320907
0.453983
0.544215
0.540452
0.509289
0.53654
0.409857
0.533958
0.53958
0.516191
0.328839
0.534622
0.493915
0.536978
0.535732
0.542573
0.48656
0.377924
0.544026
0.319362
0.541766
0.535944
0.234528
0.536859
0.460069
0.53391
0.317314
0.336034
0.535257
0.300194
0.322919
0.545761
0.299951
0.413002
0.534942
0.289252
0.543957
0.326822
0.488902
0.533234
0.527297
0.501578
0.328552
0.330663
0.519219
0.437178
0.33291
0.477038
0.312279
0.536039
0.338996
0.457604
0.518219
0.536656
0.32889
0.490161
0.326441
0.406287
0.413387
0.314371
0.276276
0.344845
0.536199
0.455466
0.433225
0.314485
0.536348
0.489866
0.316003
0.53625
0.340275
0.45481
0.515773
0.537275
0.536563
0.29418
0.328483
0.53628
0.542329
0.519296
0.489352
0.539937
0.477828
0.463645
0.320244
0.499619
0.385701
0.3448
0.357649
0.536434
0.546498
0.507862
0.391184
0.340075
0.538173
0.319746
0.326184
0.402084
0.330674
0.453641
0.333511
0.53695
0.33266
0.306389
0.412053
0.542653
0.336123
0.306551
0.545976
0.541598
0.548492
0.323635
0.304703
0.536482
0.326612
0.304804
0.320807
0.432958
0.524249
0.266685
0.547555
0.338121
0.502995
0.533974
0.320857
0.408905
0.475026
0.498689
0.494802
0.539212
0.53716
0.54244
0.531839
0.537213
0.313656
0.381574
0.5209
0.291926
0.541361
0.522758
0.261801
0.531491
0.476518
0.511484
0.536145
0.471273
0.528812
0.311726
0.491014
0.316899
0.301558
0.534782
0.536258
0.276131
0.322872
0.529883
0.390945
0.454323
0.304053
0.248662
0.54547
0.51381
0.542054
0.512507
0.464532
0.375294
0.451519
0.316643
0.537082
0.503258
0.49465
0.325364
0.37895
0.542152
0.497513
0.53797
0.137305
0.536511
0.321225
0.327296
0.343015
0.519115
0.520813
0.537867
0.468687
0.319128
0.536185
0.38449
0.542852
0.544701
0.492279
0.33677
0.320018
0.535263
0.318756
0.422475
0.475099
0.324544
0.323615
0.514136
0.539123
0.350575
0.536668
0.533331
0.331277
0.536553
0.535152
0.536629
0.330617
0.327287
0.538856
0.328929
0.328023
0.405251
0.535721
0.323195
0.374439
0.322139
0.296377
0.535068
0.328793
0.337765
0.541251
0.338102
0.32522
0.549511
0.535945
0.531887
0.536487
0.493195
0.320963
0.548735
0.533905
0.323959
0.535653
0.533306
0.536997
0.537196
0.330337
0.536424
0.319705
0.536648
0.327805
0.536002
0.321025
0.515524
0.323707
0.537436
0.542887
0.547366
0.482009
0.53538
0.53605
0.285838
0.534656
0.268892
0.53728
0.537155
0.337531
0.403284
0.30958
0.344233
0.537189
0.360999
0.533604
0.139065
0.5027
0.508144
0.538053
0.397254
0.318577
0.271736
0.335752
0.26926
0.534277
0.363566
0.330097
0.535358
0.318054
0.354591
0.532176
0.532548
0.500705
0.533379
0.25575
0.4838
0.323815
0.537222
0.535306
0.520943
0.288872
0.537625
0.533237
0.539426
0.498116
0.530734
0.380187
0.535914
0.53693
0.444222
0.535878
0.316597
0.515755
0.328286
0.422093
0.518483
0.487745
0.530253
0.471695
0.484893
0.53651
0.315161
0.5232
0.343877
0.321548
0.537342
0.51114
0.479591
0.516529
0.528655
0.53722
0.535488
0.537054
0.535356
0.534558
0.549162
0.326694
0.501545
0.530534
0.323056
0.531056
0.319438
0.469282
0.31407
0.535438
0.330318
0.333292
0.304598
0.470998
0.535381
0.425588
0.513639
0.314627
0.322086
0.535572
0.533868
0.318078
0.502347
0.442618
0.319318
0.503769
0.322716
0.321074
0.531901
0.47826
0.315958
0.517955
0.532487
0.5234
0.348865
0.514569
0.265182
0.536154
0.377747
0.507128
0.32744
0.545369
0.302066
0.328485
0.330222
0.514643
0.307402
0.498128
0.543564
0.471311
0.327819
0.323927
0.540425
0.320117
0.236487
0.349169
0.535425
0.31838
0.312916
0.263591
0.496574
0.320677
0.325819
0.317385
0.534206
0.546794
0.337216
0.537576
0.536951
0.495049
0.328989
0.318446
0.530589
0.331191
0.551775
0.326712
0.530323
0.32484
0.227223
0.513093
0.340828
0.331485
0.345002
0.536136
0.307067
0.445767
0.534129
0.317358
0.513775
0.330181
0.546111
0.415865
0.331222
0.326064
0.535121
0.437702
0.535119
0.324081
0.31745
0.440698
0.537299
0.311881
0.311692
0.335491
0.413271
0.533971
0.325331
0.451132
0.531429
0.535364
0.525288
0.344442
0.532527
0.322962
0.533926
0.534775
0.462156
0.318073
0.491089
0.535509
0.330688
0.536118
0.53487
0.323348
0.332541
0.320632
0.282034
0.540598
0.346226
0.534715
0.381223
0.537195
0.492431
0.371895
0.509899
0.302729
0.479551
0.339835
0.535484
0.533954
0.271306
0.325484
0.316391
0.463093
0.549798
0.32304
0.295053
0.318097
0.4485
0.544145
0.290714
0.335279
0.525099
0.533348
0.526886
0.34397
0.316005
0.522957
0.535488
0.326552
0.317875
0.437041
0.546832
0.492897
0.307415
0.535364
0.535312
0.316249
0.537356
0.327789
0.535829
0.311843
0.356927
0.315935
0.281334
0.533934
0.320879
0.33902
0.323616
0.318623
0.484611
0.52641
0.546662
0.328703
0.537162
0.533812
0.534878
0.543626
0.534682
0.545205
0.545587
0.545306
0.535237
0.533173
0.307193
0.486898
0.5465
0.327734
0.53768
0.542265
0.536249
0.535409
0.306389
0.539285
0.537054
0.53506
0.323253
0.505181
0.529659
0.534909
0.526918
0.327539
0.483323
0.325312
0.411728
0.314668
0.314259
0.321935
0.345899
0.535736
0.53006
0.520816
0.327775
0.535377
0.536475
0.536679
0.340174
0.321478
0.518386
0.305294
0.310525
0.316277
0.533785
0.418274
0.53529
0.312716
0.543326
0.532986
0.45878
0.536108
0.317268
0.5474
0.535445
0.512153
0.537939
0.53348
0.516981
0.330108
0.330055
0.319756
0.53541
0.305578
0.531181
0.520229
0.495017
0.328121
0.327269
0.480199
0.539742
0.536294
0.324074
0.524806
0.475242
0.266165
0.535971
0.339821
0.332268
0.318182
0.317669
0.321156
0.538165
0.534373
0.549412
0.442798
0.529873
0.535037
0.517076
0.536013
0.543794
0.545506
0.535162
0.535418
0.330768
0.536503
0.527554
0.424014
0.341283
0.503121
0.300159
0.536496
0.372377
0.536029
0.542375
0.329392
0.53276
0.329532
0.533039
0.530995
0.543924
0.486307
0.514782
0.542301
0.534941
0.327884
0.442251
0.420331
0.253914
0.53577
0.537165
0.443659
0.547678
0.525978
0.53581
0.318083
0.339563
0.524439
0.543679
0.316656
0.193267
0.514116
0.533904
0.535196
0.270698
0.458845
0.512443
0.530386
0.342708
0.535906
0.481209
0.522149
0.501571
0.439707
0.533677
0.300302
0.529453
0.317367
0.315085
0.535853
0.344618
0.346763
0.3418
0.523651
0.509745
0.44386
0.534714
0.431476
0.331576
0.329316
0.540564
0.53266
0.53658
0.486272
0.252499
0.521393
0.429834
0.321107
0.532569
0.53825
0.340268
0.535827
0.52851
0.536832
0.444812
0.534944
0.358894
0.535568
0.53025
0.534301
0.318159
0.522022
0.387041
0.506472
0.533046
0.542493
0.530409
0.534629
0.535374
0.532887
0.517326
0.329018
0.539151
0.507344
0.320077
0.49247
0.536229
0.548238
0.499205
0.322826
0.528339
0.322207
0.542587
0.489289
0.536924
0.333011
0.511886
0.534
0.536554
0.522772
0.479892
0.536748
0.466902
0.384343
0.342354
0.273871
0.536801
0.328147
0.311711
0.533823
0.320715
0.541043
0.304174
0.535215
0.323331
0.332746
0.520045
0.393008
0.29697
0.528982
0.533995
0.536679
0.317988
0.506099
0.533445
0.531322
0.343995
0.536917
0.534046
0.341478
0.481605
0.462693
0.521619
0.311961
0.389168
0.506833
0.317886
0.534791
0.321562
0.330432
0.535992
0.38403
0.506279
0.342424
0.538049
0.425796
0.536938
0.222672
0.323897
0.536101
0.328953
0.536902
0.327255
0.535443
0.48616
0.464741
0.53684
0.500217
0.265004
0.535296
0.545988
0.531369
0.536706
0.319207
0.318957
0.311706
0.331219
0.535887
0.326054
0.510954
0.327193
0.530464
0.532638
0.535413
0.354846
0.53544
0.322672
0.533898
0.539284
0.339417
0.53464
0.522862
0.315054
0.520705
0.316817
0.32751
0.546533
0.335187
0.541474
0.224525
0.335886
0.511734
0.348391
0.535415
0.33628
0.45985
0.533622
0.529576
0.384078
0.271056
0.327865
0.536608
0.537126
0.335909
0.534395
0.327832
0.531904
0.341478
0.319541
0.467766
0.471699
0.417536
0.495459
0.534534
0.488804
0.473541
0.5341
0.53546
0.321516
0.533686
0.310566
0.322699
0.496261
0.404386
0.392888
0.439473
0.338641
0.514255
0.536632
0.535744
0.326425
0.317952
0.452859
0.503162
0.534275
0.543457
0.326929
0.497574
0.53077
0.506968
0.437117
0.343967
0.334305
0.324026
0.551733
0.536
0.317649
0.32335
0.433743
0.34336
0.546493
0.510119
0.317609
0.535753
0.402036
0.538146
0.535523
0.338272
0.328644
0.505584
0.318915
0.391824
0.533528
0.273003
0.337535
0.345369
0.504763
0.533125
0.502566
0.320527
0.311998
0.525345
0.535372
0.494617
0.537662
0.33506
0.324585
0.332623
0.495791
0.307196
0.319634
0.536426
0.538331
0.511141
0.326733
0.319787
0.325529
0.535336
0.307615
0.530557
0.536752
0.529576
0.426541
0.532871
0.546557
0.330334
0.350949
0.535207
0.313578
0.462416
0.525275
0.539438
0.433941
0.307687
0.307835
0.539883
0.400824
0.319561
0.532579
0.533984
0.295324
0.353509
0.510513
0.440983
0.336508
0.316662
0.537866
0.487437
0.527829
0.475904
0.352405
0.309482
0.323738
0.379081
0.316799
0.537326
0.52794
0.469921
0.510741
0.324867
0.503659
0.327659
0.534121
0.543017
0.32306
0.263636
0.527946
0.382756
0.469701
0.535134
0.300839
0.530433
0.525035
0.535209
0.536641
0.504524
0.328993
0.319682
0.313985
0.507349
0.534991
0.513367
0.442098
0.339185
0.320128
0.490506
0.330187
0.536652
0.535187
0.532627
0.345359
0.336844
0.461326
0.506818
0.537236
0.525654
0.535764
0.535516
0.535698
0.482654
0.251565
0.536275
0.497936
0.533639
0.317081
0.528319
0.421969
0.527585
0.549281
0.443215
0.489311
0.529641
0.507045
0.53705
0.336123
0.53086
0.548059
0.326551
0.50469
0.303381
0.299663
0.537337
0.535107
0.319137
0.481105
0.535206
0.325146
0.325306
0.553824
0.546935
0.469057
0.339475
0.49296
0.334123
0.540635
0.545991
0.349387
0.455153
0.497931
0.330797
0.328192
0.326402
0.537091
0.529884
0.331628
0.310563
0.340054
0.326111
0.325062
0.501552
0.334858
0.54791
0.534692
0.540039
0.325557
0.533182
0.44844
0.530182
0.440447
0.528864
0.321751
0.300827
0.345862
0.532533
0.326673
0.353477
0.496667
0.324176
0.536859
0.503579
0.423985
0.323751
0.32461
0.521687
0.535422
0.526952
0.523769
0.540082
0.337303
0.331011
0.322177
0.506362
0.53534
0.349991
0.516467
0.311531
0.339375
0.535651
0.318189
0.326634
0.265664
0.369663
0.329432
0.535567
0.535493
0.5367
0.336213
0.534919
0.540491
0.354523
0.535483
0.372932
0.537338
0.330763
0.385348
0.53442
0.337032
0.265709
0.529234
0.52046
0.34822
0.543158
0.494974
0.533181
0.396268
0.313456
0.500691
0.534004
0.364892
0.336346
0.423146
0.399591
0.535758
0.326825
0.34022
0.538879
0.513442
0.31776
0.346742
0.529375
0.336221
0.314907
0.326613
0.451714
0.541877
0.321784
0.538503
0.325791
0.306014
0.328301
0.406176
0.319578
0.537852
0.327869
0.325329
0.477836
0.537154
0.353241
0.536317
0.334823
0.330104
0.509966
0.549527
0.520701
0.50946
0.517849
0.54386
0.338199
0.537292
0.29982
0.536594
0.524433
0.408111
0.521912
0.536079
0.533789
0.534943
0.431876
0.326335
0.426765
0.327036
0.501536
0.531662
0.493437
0.329594
0.534875
0.366093
0.53664
0.344114
0.319293
0.55337
0.298776
0.527103
0.54899
0.377489
0.325901
0.334641
0.534759
0.393758
0.275406
0.538907
0.333089
0.523537
0.329045
0.319862
0.317412
0.534874
0.389682
0.536075
0.355321
0.326562
0.532885
0.532455
0.2815
0.357918
0.271724
0.478024
0.33406
0.517264
0.529592
0.536361
0.237418
0.327376
0.448337
0.527167
0.545213
0.532977
0.296824
0.513266
0.536289
0.536131
0.53661
0.320663
0.520998
0.33242
0.451004
0.540463
0.535929
0.529474
0.54142
0.497216
0.531849
0.542075
0.531898
0.521824
0.535479
0.534467
0.535516
0.347411
0.333492
0.535679
0.475238
0.536242
0.537256
0.54537
0.516364
0.542433
0.321944
0.343776
0.536916
0.352602
0.342068
0.31689
0.533641
0.520677
0.535402
0.508983
0.522184
0.33158
0.535092
0.331787
0.328244
0.543408
0.525051
0.523126
0.396395
0.393233
0.322434
0.343381
0.382961
0.307881
0.357767
0.541692
0.304139
0.529659
0.332156
0.537094
0.532923
0.289268
0.325278
0.496431
0.536777
0.339788
0.507469
0.26452
0.319843
0.336348
0.445639
0.534909
0.537342
0.535864
0.243538
0.32485
0.270096
0.318337
0.537051
0.544175
0.537307
0.319906
0.333024
0.535622
0.53276
0.535491
0.302204
0.480941
0.461871
0.541075
0.427103
0.32314
0.336725
0.307726
0.535084
0.331533
0.351697
0.536923
0.3242
0.535697
0.327438
0.331864
0.39667
0.324948
0.542596
0.53705
0.535733
0.44159
0.551097
0.508559
0.476966
0.322575
0.505107
0.527742
0.506913
0.535998
0.532502
0.537343
0.422142
0.532667
0.535433
0.312288
0.332111
0.546517
0.398455
0.533388
0.321474
0.543379
0.352618
0.524812
0.535522
0.506793
0.533397
0.53624
0.514408
0.32149
0.318373
0.533989
0.544196
0.533833
0.43161
0.541659
0.447116
0.490639
0.53526
0.470272
0.46503
0.538314
0.536682
0.316168
0.332935
0.535379
0.499502
0.333376
0.325997
0.420522
0.537099
0.537293
0.547635
0.323883
0.523338
0.299473
0.535932
0.333164
0.541314
0.295038
0.54655
0.327436
0.527868
0.442419
0.342869
0.306715
0.469458
0.320582
0.485935
0.318516
0.535624
0.537257
0.528045
0.525684
0.534241
0.533172
0.535684
0.546705
0.539913
0.501488
0.512111
0.495916
0.535764
0.321229
0.497114
0.495901
0.532576
0.303636
0.496246
0.542643
0.535672
0.322536
0.317098
0.320202
0.540972
0.497489
0.32077
0.49948
0.389032
0.535911
0.315988
0.410238
0.32151
0.305133
0.55003
0.323216
0.504911
0.329604
0.548318
0.31774
0.535799
0.500165
0.528222
0.327517
0.330392
0.351021
0.515179
0.33215
0.349308
0.324673
0.538801
0.517693
0.541267
0.521803
0.527337
0.510991
0.385051
0.328773
0.530434
0.339981
0.445216
0.525146
0.546976
0.223068
0.316635
0.521827
0.53567
0.406886
0.521453
0.531959
0.516741
0.32543
0.540491
0.518734
0.530054
0.532409
0.321619
0.537243
0.328736
0.532058
0.540481
0.503329
0.533944
0.346827
0.536524
0.225064
0.361167
0.500126
0.504673
0.529174
0.448376
0.335831
0.531931
0.534984
0.326561
0.340898
0.299551
0.545766
0.315128
0.326377
0.32147
0.318491
0.318215
0.366903
0.540159
0.306341
0.536449
0.52313
0.334584
0.533043
0.321434
0.544623
0.306308
0.462863
0.321867
0.526013
0.535086
0.398918
0.496049
0.534172
0.517425
0.329653
0.479311
0.429038
0.327548
0.329025
0.402691
0.306853
0.541278
0.307978
0.320151
0.322184
0.537298
0.526745
0.317248
0.319163
0.543014
0.326685
0.313814
0.536156
0.328117
0.318532
0.33569
0.548564
0.500337
0.544705
0.321852
0.290242
0.536117
0.514835
0.535799
0.39463
0.507245
0.528989
0.412646
0.40028
0.335248
0.321551
0.237234
0.491249
0.309203
0.543805
0.510207
0.531647
0.320045
0.408759
0.417181
0.553114
0.29708
0.481609
0.241196
0.49092
0.326585
0.281308
0.290281
0.535906
0.313535
0.548004
0.329673
0.378026
0.328889
0.471176
0.314419
0.540913
0.325074
0.504222
0.486436
0.336671
0.534931
0.534768
0.315719
0.545264
0.331114
0.33726
0.540086
0.299015
0.512314
0.333146
0.232368
0.53469
0.3267
0.351433
0.331084
0.317452
0.323364
0.512894
0.434208
0.526075
0.544833
0.524798
0.54095
0.411287
0.536986
0.295678
0.535356
0.337491
0.525816
0.335815
0.387315
0.524086
0.546254
0.534709
0.353138
0.441961
0.317604
0.326166
0.329549
0.231465
0.535253
0.409815
0.544187
0.534659
0.483574
0.535606
0.53461
0.391751
0.323913
0.36408
0.538377
0.482622
0.501128
0.535138
0.54862
0.414708
0.291321