# vtk DataFile Version 1.0
unstructured grid
ascii
DATASET UNSTRUCTURED_GRID
points 8094 float
-0.25 0.0574735 0
0.5 0.0546937 0
0.5 -0.0546937 0
-0.25 -0.0574735 0
-0.25 0.0574735 0.01
0.5 0.0546937 0.01
0.5 -0.0546937 0.01
-0.25 -0.0574735 0.01
-0.246045 0.0569295 0
-0.242089 0.0563854 0
-0.238136 0.0558289 0
-0.234184 0.0552582 0
-0.230232 0.0546875 0
-0.226284 0.0540912 0
-0.222337 0.0534933 0
-0.218391 0.0528841 0
-0.214448 0.0522585 0
-0.210504 0.0516328 0
-0.206565 0.0509829 0
-0.202626 0.0503294 0
-0.198689 0.0496667 0
-0.194755 0.0489856 0
-0.190821 0.0483046 0
-0.18689 0.0476022 0
-0.182961 0.0468942 0
-0.179033 0.0461799 0
-0.175108 0.0454463 0
-0.171183 0.0447127 0
-0.167262 0.0439627 0
-0.163342 0.0432056 0
-0.159422 0.0424455 0
-0.155506 0.041668 0
-0.15159 0.0408904 0
-0.147675 0.0401031 0
-0.143762 0.0393092 0
-0.13985 0.0385149 0
-0.135939 0.0377103 0
-0.132028 0.0369056 0
-0.128117 0.0361005 0
-0.124207 0.0352949 0
-0.120296 0.0344893 0
-0.116386 0.0336836 0
-0.112475 0.032878 0
-0.108563 0.0320794 0
-0.104649 0.0312931 0
-0.100735 0.0305068 0
-0.0968152 0.029745 0
-0.0928949 0.0289889 0
-0.0889722 0.0282446 0
-0.0850433 0.0275341 0
-0.0811144 0.0268235 0
-0.0771778 0.0261578 0
-0.0732381 0.0255098 0
-0.0692962 0.0248759 0
-0.0653442 0.0243073 0
-0.0613923 0.0237386 0
-0.0574324 0.0232306 0
-0.0534681 0.0227556 0
-0.0495024 0.0222934 0
-0.0455272 0.0219207 0
-0.041552 0.0215481 0
-0.0375717 0.0212385 0
-0.0335881 0.0209694 0
-0.029604 0.0207098 0
-0.0256151 0.0205369 0
-0.0216262 0.0203639 0
-0.0176357 0.0202396 0
-0.0136441 0.0201487 0
-0.00965243 0.0200635 0
-0.00565987 0.0200372 0
-0.00166732 0.020011 0
0.00232526 0.0200121 0
0.00631785 0.0200329 0
0.0103104 0.0200563 0
0.0143027 0.0201109 0
0.018295 0.0201654 0
0.022287 0.0202345 0
0.0262788 0.0203144 0
0.0302706 0.0203957 0
0.034262 0.0204956 0
0.0382534 0.0205955 0
0.0422446 0.0207045 0
0.0462355 0.0208207 0
0.0502265 0.0209377 0
0.054217 0.0210676 0
0.0582075 0.0211975 0
0.0621978 0.0213339 0
0.0661879 0.0214757 0
0.0701781 0.021618 0
0.0741678 0.0217703 0
0.0781575 0.0219227 0
0.0821471 0.0220801 0
0.0861364 0.022242 0
0.0901258 0.0224041 0
0.0941148 0.0225747 0
0.0981038 0.0227453 0
0.102093 0.0229202 0
0.106081 0.023099 0
0.11007 0.0232779 0
0.114058 0.0234644 0
0.118046 0.0236509 0
0.122035 0.0238411 0
0.126022 0.024035 0
0.13001 0.0242288 0
0.133998 0.0244298 0
0.137986 0.0246308 0
0.141973 0.0248352 0
0.14596 0.025043 0
0.149947 0.0252509 0
0.153934 0.0254654 0
0.157921 0.02568 0
0.161908 0.0258978 0
0.165894 0.026119 0
0.169881 0.0263402 0
0.173867 0.0265678 0
0.177853 0.0267956 0
0.181839 0.0270264 0
0.185825 0.0272607 0
0.189811 0.0274951 0
0.193796 0.0277356 0
0.197781 0.0279764 0
0.201767 0.02822 0
0.205752 0.0284673 0
0.209737 0.0287146 0
0.213721 0.0289679 0
0.217706 0.0292217 0
0.22169 0.0294782 0
0.225674 0.0297385 0
0.229658 0.0299988 0
0.233642 0.0302651 0
0.237626 0.0305319 0
0.241609 0.0308014 0
0.245593 0.0310748 0
0.249576 0.0313482 0
0.253559 0.0316276 0
0.257542 0.0319077 0
0.261524 0.0321904 0
0.265507 0.0324772 0
0.269489 0.032764 0
0.273471 0.0330568 0
0.277453 0.0333504 0
0.281434 0.0336466 0
0.285416 0.0339471 0
0.289397 0.0342476 0
0.293378 0.034554 0
0.297359 0.0348615 0
0.301339 0.0351714 0
0.305319 0.0354859 0
0.3093 0.0358005 0
0.313279 0.036121 0
0.317259 0.0364427 0
0.321239 0.0367667 0
0.325218 0.0370957 0
0.329197 0.0374248 0
0.333175 0.0377597 0
0.337154 0.0380961 0
0.341132 0.0384347 0
0.34511 0.0387786 0
0.349088 0.0391226 0
0.353065 0.0394724 0
0.357042 0.0398239 0
0.361019 0.0401775 0
0.364995 0.0405368 0
0.368972 0.0408961 0
0.372948 0.0412613 0
0.376924 0.0416285 0
0.380899 0.0419975 0
0.384874 0.0423727 0
0.388849 0.0427479 0
0.392823 0.0431289 0
0.396798 0.0435123 0
0.400772 0.0438973 0
0.404745 0.044289 0
0.408718 0.0446807 0
0.412691 0.0450781 0
0.416664 0.0454782 0
0.420636 0.0458797 0
0.424608 0.0462883 0
0.42858 0.046697 0
0.432551 0.0471114 0
0.436521 0.0475289 0
0.440492 0.0479474 0
0.444462 0.0483738 0
0.448432 0.0488001 0
0.452401 0.0492319 0
0.45637 0.0496673 0
0.460338 0.0501035 0
0.464306 0.0505482 0
0.468274 0.0509928 0
0.472241 0.0514427 0
0.476208 0.0518968 0
0.480175 0.0523512 0
0.48414 0.0528148 0
0.488106 0.0532784 0
0.492071 0.0537471 0
0.496036 0.0542204 0
0.5 0.050787 0
0.5 0.0468803 0
0.5 0.0429736 0
0.5 0.0390669 0
0.5 0.0351602 0
0.5 0.0312535 0
0.5 0.0273468 0
0.5 0.0234402 0
0.5 0.0195335 0
0.5 0.0156268 0
0.5 0.0117201 0
0.5 0.00781339 0
0.5 0.00390669 0
0.5 1.43781e-13 0
0.5 -0.00390669 0
0.5 -0.00781339 0
0.5 -0.0117201 0
0.5 -0.0156268 0
0.5 -0.0195335 0
0.5 -0.0234402 0
0.5 -0.0273468 0
0.5 -0.0312535 0
0.5 -0.0351602 0
0.5 -0.0390669 0
0.5 -0.0429736 0
0.5 -0.0468803 0
0.5 -0.050787 0
0.496036 -0.0542204 0
0.492071 -0.0537471 0
0.488106 -0.0532784 0
0.48414 -0.0528148 0
0.480175 -0.0523512 0
0.476208 -0.0518968 0
0.472241 -0.0514427 0
0.468274 -0.0509928 0
0.464306 -0.0505482 0
0.460338 -0.0501035 0
0.45637 -0.0496673 0
0.452401 -0.0492319 0
0.448432 -0.0488001 0
0.444462 -0.0483738 0
0.440492 -0.0479474 0
0.436521 -0.0475289 0
0.432551 -0.0471114 0
0.42858 -0.046697 0
0.424608 -0.0462883 0
0.420636 -0.0458797 0
0.416664 -0.0454782 0
0.412691 -0.0450781 0
0.408718 -0.0446807 0
0.404745 -0.044289 0
0.400772 -0.0438973 0
0.396798 -0.0435123 0
0.392823 -0.0431289 0
0.388849 -0.0427479 0
0.384874 -0.0423727 0
0.380899 -0.0419975 0
0.376924 -0.0416285 0
0.372948 -0.0412613 0
0.368972 -0.0408961 0
0.364995 -0.0405368 0
0.361019 -0.0401775 0
0.357042 -0.0398239 0
0.353065 -0.0394724 0
0.349088 -0.0391226 0
0.34511 -0.0387786 0
0.341132 -0.0384347 0
0.337154 -0.0380961 0
0.333175 -0.0377597 0
0.329197 -0.0374248 0
0.325218 -0.0370957 0
0.321239 -0.0367667 0
0.317259 -0.0364427 0
0.313279 -0.036121 0
0.3093 -0.0358005 0
0.305319 -0.0354859 0
0.301339 -0.0351714 0
0.297359 -0.0348615 0
0.293378 -0.034554 0
0.289397 -0.0342476 0
0.285416 -0.0339471 0
0.281434 -0.0336466 0
0.277453 -0.0333504 0
0.273471 -0.0330568 0
0.269489 -0.032764 0
0.265507 -0.0324772 0
0.261524 -0.0321904 0
0.257542 -0.0319077 0
0.253559 -0.0316276 0
0.249576 -0.0313482 0
0.245593 -0.0310748 0
0.241609 -0.0308014 0
0.237626 -0.0305319 0
0.233642 -0.0302651 0
0.229658 -0.0299988 0
0.225674 -0.0297385 0
0.22169 -0.0294782 0
0.217706 -0.0292217 0
0.213721 -0.0289679 0
0.209737 -0.0287146 0
0.205752 -0.0284673 0
0.201767 -0.02822 0
0.197781 -0.0279764 0
0.193796 -0.0277356 0
0.189811 -0.0274951 0
0.185825 -0.0272607 0
0.181839 -0.0270264 0
0.177853 -0.0267956 0
0.173867 -0.0265678 0
0.169881 -0.0263402 0
0.165894 -0.026119 0
0.161908 -0.0258978 0
0.157921 -0.02568 0
0.153934 -0.0254654 0
0.149947 -0.0252509 0
0.14596 -0.025043 0
0.141973 -0.0248352 0
0.137986 -0.0246308 0
0.133998 -0.0244298 0
0.13001 -0.0242288 0
0.126022 -0.024035 0
0.122035 -0.0238411 0
0.118046 -0.0236509 0
0.114058 -0.0234644 0
0.11007 -0.0232779 0
0.106081 -0.023099 0
0.102093 -0.0229202 0
0.0981038 -0.0227453 0
0.0941148 -0.0225747 0
0.0901258 -0.0224041 0
0.0861364 -0.022242 0
0.0821471 -0.0220801 0
0.0781575 -0.0219227 0
0.0741678 -0.0217703 0
0.0701781 -0.021618 0
0.0661879 -0.0214757 0
0.0621978 -0.0213339 0
0.0582075 -0.0211975 0
0.054217 -0.0210676 0
0.0502265 -0.0209377 0
0.0462355 -0.0208207 0
0.0422446 -0.0207045 0
0.0382534 -0.0205955 0
0.034262 -0.0204956 0
0.0302706 -0.0203957 0
0.0262788 -0.0203144 0
0.022287 -0.0202345 0
0.018295 -0.0201654 0
0.0143027 -0.0201109 0
0.0103104 -0.0200563 0
0.00631785 -0.0200329 0
0.00232526 -0.0200121 0
-0.00166732 -0.020011 0
-0.00565987 -0.0200372 0
-0.00965243 -0.0200635 0
-0.0136441 -0.0201487 0
-0.0176357 -0.0202396 0
-0.0216262 -0.0203639 0
-0.0256151 -0.0205369 0
-0.029604 -0.0207098 0
-0.0335881 -0.0209694 0
-0.0375717 -0.0212385 0
-0.041552 -0.0215481 0
-0.0455272 -0.0219207 0
-0.0495024 -0.0222934 0
-0.0534681 -0.0227556 0
-0.0574324 -0.0232306 0
-0.0613923 -0.0237386 0
-0.0653442 -0.0243073 0
-0.0692962 -0.0248759 0
-0.0732381 -0.0255098 0
-0.0771778 -0.0261578 0
-0.0811144 -0.0268235 0
-0.0850433 -0.0275341 0
-0.0889722 -0.0282446 0
-0.0928949 -0.0289889 0
-0.0968152 -0.029745 0
-0.100735 -0.0305068 0
-0.104649 -0.0312931 0
-0.108563 -0.0320794 0
-0.112475 -0.032878 0
-0.116386 -0.0336836 0
-0.120296 -0.0344893 0
-0.124207 -0.0352949 0
-0.128117 -0.0361005 0
-0.132028 -0.0369056 0
-0.135939 -0.0377103 0
-0.13985 -0.0385149 0
-0.143762 -0.0393092 0
-0.147675 -0.0401031 0
-0.15159 -0.0408904 0
-0.155506 -0.041668 0
-0.159422 -0.0424455 0
-0.163342 -0.0432056 0
-0.167262 -0.0439627 0
-0.171183 -0.0447127 0
-0.175108 -0.0454463 0
-0.179033 -0.0461799 0
-0.182961 -0.0468942 0
-0.18689 -0.0476022 0
-0.190821 -0.0483046 0
-0.194755 -0.0489856 0
-0.198689 -0.0496667 0
-0.202626 -0.0503294 0
-0.206565 -0.0509829 0
-0.210504 -0.0516328 0
-0.214448 -0.0522585 0
-0.218391 -0.0528841 0
-0.222337 -0.0534933 0
-0.226284 -0.0540912 0
-0.230232 -0.0546875 0
-0.234184 -0.0552582 0
-0.238136 -0.0558289 0
-0.242089 -0.0563854 0
-0.246045 -0.0569295 0
-0.25 -0.0535098 0
-0.25 -0.0495461 0
-0.25 -0.0455824 0
-0.25 -0.0416187 0
-0.25 -0.0376551 0
-0.25 -0.0336914 0
-0.25 -0.0297277 0
-0.25 -0.025764 0
-0.25 -0.0218003 0
-0.25 -0.0178366 0
-0.25 -0.0138729 0
-0.25 -0.00990922 0
-0.25 -0.00594553 0
-0.25 -0.00198184 0
-0.25 0.00198184 0
-0.25 0.00594553 0
-0.25 0.00990922 0
-0.25 0.0138729 0
-0.25 0.0178366 0
-0.25 0.0218003 0
-0.25 0.025764 0
-0.25 0.0297277 0
-0.25 0.0336914 0
-0.25 0.0376551 0
-0.25 0.0416187 0
-0.25 0.0455824 0
-0.25 0.0495461 0
-0.25 0.0535098 0
-0.246045 0.0569295 0.01
-0.242089 0.0563854 0.01
-0.238136 0.0558289 0.01
-0.234184 0.0552582 0.01
-0.230232 0.0546875 0.01
-0.226284 0.0540912 0.01
-0.222337 0.0534933 0.01
-0.218391 0.0528841 0.01
-0.214448 0.0522585 0.01
-0.210504 0.0516328 0.01
-0.206565 0.0509829 0.01
-0.202626 0.0503294 0.01
-0.198689 0.0496667 0.01
-0.194755 0.0489856 0.01
-0.190821 0.0483046 0.01
-0.18689 0.0476022 0.01
-0.182961 0.0468942 0.01
-0.179033 0.0461799 0.01
-0.175108 0.0454463 0.01
-0.171183 0.0447127 0.01
-0.167262 0.0439627 0.01
[...]
CELL_DATA 7657
SCALARS rho float
LOOKUP_TABLE default
0.495677
0.429325
0.508231
0.432391
0.502022
0.451211
0.40947
0.502658
0.415538
0.504082
0.50412
0.503178
0.408895
0.502905
0.501708
0.500219
0.501679
0.50938
0.509281
0.500065
0.501406
0.509182
0.425186
0.509304
0.507922
0.50533
0.428008
0.41032
0.502665
0.448878
0.413221
0.507898
0.423787
0.494575
0.494827
0.412633
0.449886
0.425021
0.497383
0.420643
0.507357
0.415175
0.438179
0.44476
0.506972
0.508386
0.408371
0.450249
0.507942
0.495472
0.44405
0.43267
0.502637
0.503036
0.409625
0.451722
0.501509
0.500921
0.479387
0.413826
0.507902
0.506067
0.507667
0.507627
0.504417
0.504428
0.408693
0.457932
0.503738
0.476577
0.508729
0.409324
0.436377
0.502671
0.49382
0.449217
0.509212
0.448305
0.493512
0.409108
0.423056
0.502251
0.500142
0.508009
0.508152
0.482775
0.508507
0.475857
0.505181
0.427658
0.504367
0.504393
0.480553
0.503433
0.41944
0.484567
0.483725
0.427023
0.506459
0.419405
0.509391
0.508546
0.428799
0.501261
0.408011
0.419243
0.416674
0.465659
0.409657
0.501267
0.413128
0.458906
0.441429
0.500098
0.509422
0.468443
0.467091
0.420864
0.500075
0.448113
0.504747
0.504735
0.417068
0.426485
0.500878
0.502929
0.503423
0.437863
0.454992
0.438387
0.431419
0.509004
0.452718
0.436036
0.500193
0.416102
0.500267
0.42397
0.508894
0.508841
0.416857
0.427076
0.421533
0.419891
0.509504
0.501378
0.422565
0.430071
0.50643
0.416744
0.422028
0.503794
0.439835
0.438172
0.501396
0.428824
0.457607
0.509105
0.50016
0.415897
0.509074
0.500867
0.50547
0.46744
0.50342
0.428544
0.497416
0.440971
0.509163
0.5002
0.507651
0.420063
0.509073
0.421866
0.411965
0.412211
0.43488
0.484607
0.501004
0.421795
0.419962
0.409859
0.508675
0.508534
0.40818
0.478155
0.412628
0.435246
0.50435
0.484547
0.502629
0.503532
0.500181
0.487902
0.504479
0.45384
0.499956
0.500776
0.412344
0.50886
0.509437
0.508587
0.485513
0.474187
0.428168
0.50309
0.410115
0.407539
0.493324
0.487541
0.49255
0.506362
0.502864
0.500233
0.50734
0.435465
0.410862
0.481841
0.463101
0.508813
0.429572
0.429711
0.50394
0.459372
0.410807
0.423881
0.411025
0.424511
0.44518
0.503964
0.499781
0.500649
0.409882
0.501379
0.499803
0.500053
0.47552
0.508416
0.508294
0.500717
0.491327
0.4234
0.485649
0.423462
0.492704
0.489383
0.412826
0.488784
0.413267
0.444539
0.412438
0.434337
0.462405
0.49399
0.411176
0.435112
0.430742
0.501999
0.50298
0.46302
0.426169
0.502956
0.499949
0.509379
0.410431
0.508458
0.472659
0.423614
0.50941
0.422486
0.40802
0.427201
0.427
0.500026
0.49229
0.509219
0.440241
0.458974
0.457502
0.50402
0.427343
0.506818
0.425085
0.418356
0.434225
0.412907
0.418222
0.431129
0.442468
0.509504
0.509259
0.435743
0.425388
0.50293
0.464679
0.428554
0.497508
0.502085
0.46826
0.509293
0.483738
0.503143
0.422686
0.411613
0.428086
0.481663
0.410127
0.436154
0.50936
0.464439
0.503864
0.471319
0.500661
0.413198
0.508004
0.500605
0.5029
0.502003
0.461533
0.506704
0.439793
0.425027
0.502878
0.476908
0.500188
0.502392
0.412052
0.43808
0.501039
0.509523
0.419198
0.502514
0.499935
0.431534
0.502491
0.45027
0.465699
0.424547
0.508029
0.502627
0.504685
0.411657
0.432895
0.499964
0.499866
0.411477
0.502615
0.431541
0.508954
0.501034
0.451985
0.509183
0.500153
0.509129
0.410208
0.508066
0.508923
0.407317
0.508015
0.407774
0.473757
0.50921
0.509029
0.469695
0.501554
0.411996
0.504839
0.42012
0.480661
0.482855
0.452914
0.461432
0.500202
0.500667
0.410425
0.409458
0.508987
0.449751
0.509368
0.499696
0.504054
0.509335
0.426803
0.507575
0.50279
0.503753
0.495277
0.503293
0.504985
0.500915
0.475174
0.463096
0.460861
0.500503
0.505664
0.477113
0.411112
0.419518
0.500911
0.452145
0.500153
0.500191
0.509525
0.503315
0.420014
0.46124
0.500339
0.407747
0.500946
0.501684
0.508973
0.450675
0.507538
0.431954
0.485651
0.500712
0.507083
0.50208
0.432063
0.427205
0.424975
0.502256
0.407438
0.436679
0.429535
0.509495
0.483963
0.501274
0.437623
0.508378
0.466624
0.410152
0.43373
0.499979
0.506629
0.499568
0.503109
0.508861
0.499995
0.509308
0.447319
0.499167
0.414465
0.502752
0.504013
0.504328
0.492338
0.407482
0.501641
0.467284
0.507963
0.508109
0.475783
0.408294
0.411231
0.484515
0.40908
0.500395
0.500031
0.486219
0.495098
0.461134
0.509425
0.483224
0.437919
0.500794
0.418153
0.4211
0.409737
0.410501
0.502733
0.47746
0.459209
0.496011
0.501287
0.508641
0.50657
0.446645
0.417817
0.502618
0.470161
0.502684
0.509067
0.508946
0.504783
0.459963
0.424218
0.414521
0.50373
0.507457
0.500784
0.507723
0.503059
0.487083
0.503561
0.407435
0.432377
0.447253
0.494863
0.495639
0.501941
0.502161
0.464915
0.50145
0.475771
0.478308
0.434189
0.436634
0.469317
0.499647
0.424509
0.506856
0.508675
0.500798
0.509276
0.501303
0.498778
0.509173
0.497868
0.42585
0.500355
0.500312
0.502267
0.430643
0.504194
0.501701
0.503212
0.507674
0.503371
0.507648
0.469449
0.499802
0.5024
0.458905
0.506753
0.50858
0.507375
0.50244
0.410238
0.50956
0.502939
0.508616
0.464058
0.503422
0.506502
0.500604
0.508711
0.437101
0.450877
0.508748
0.49986
0.431904
0.457712
0.505508
0.498116
0.499418
0.419436
0.504254
0.419985
0.494976
0.499699
0.445513
0.501024
0.407695
0.508835
0.499096
0.503561
0.500577
0.412871
0.492962
0.484384
0.446443
0.509091
0.426422
0.481165
0.407242
0.502589
0.499826
0.503781
0.503138
0.411738
0.446239
0.482109
0.462546
0.508728
0.456217
0.507407
0.468231
0.503698
0.407507
0.504489
0.502961
0.407829
0.463716
0.479879
0.461646
0.41175
0.41216
0.504235
0.503176
0.48633
0.501195
0.464187
0.504621
0.502504
0.502723
0.505357
0.488072
0.467254
0.501379
0.50519
0.503405
0.503378
0.499139
0.504897
0.49982
0.499805
0.463373
0.461119
0.502695
0.41429
0.502903
0.502931
0.501065
0.502252
0.507441
0.42844
0.467439
0.469595
0.414598
0.509285
0.456253
0.502905
0.507387
0.438731
0.501525
0.459967
0.507726
0.502669
0.509427
0.50264
0.508577
0.508196
0.407548
0.430337
0.500729
0.507864
0.5073
0.44563
0.502996
0.499208
0.507234
0.508258
0.501198
0.500055
0.504087
0.42635
0.50863
0.507577
0.507668
0.417881
0.507122
0.500002
0.462957
0.507637
0.509041
0.461615
0.502778
0.507055
0.441387
0.500956
0.48228
0.4551
0.500017
0.433351
0.440536
0.437346
0.438418
0.499962
0.506951
0.503691
0.507513
0.443398
0.503574
0.502353
0.506871
0.470954
0.431975
0.415362
0.414713
0.490389
0.502808
0.503999
0.507434
0.508721
0.504043
0.50036
0.411495
0.501831
0.501666
0.407254
0.508818
0.411389
0.420846
0.406647
0.440731
0.506747
0.412901
0.506661
0.501418
0.501229
0.433674
0.502959
0.502814
0.509176
0.407345
0.499932
0.503169
0.486463
0.457317
0.440122
0.442072
0.501468
0.50148
0.50241
0.507391
0.505806
0.502755
0.41336
0.479951
0.507754
0.502067
0.439325
0.449911
0.504169
0.464797
0.420132
0.456653
0.501304
0.507692
0.507497
0.435991
0.502009
0.478773
0.410342
0.50154
0.420535
0.417515
0.417259
0.505661
0.503221
0.40689
0.507475
0.498666
0.503662
0.501609
0.502286
0.419988
0.502546
0.502771
0.432862
0.50237
0.500651
0.507782
0.507709
0.502228
0.468606
0.417784
0.507739
0.503615
0.509149
0.509202
0.499541
0.416748
0.502258
0.503956
0.499409
0.501521
0.502174
0.493614
0.439901
0.507815
0.420311
0.501565
0.407632
0.500095
0.50215
0.436914
0.481279
0.508657
0.462575
0.407211
0.504237
0.507297
0.50688
0.49983
0.501799
0.477364
0.445411
0.453581
0.501819
0.415814
0.407168
0.504129
0.449175
0.479816
0.47976
0.443534
0.501922
0.502473
0.487541
0.410123
0.407187
0.441802
0.406867
0.501714
0.500102
0.441406
0.501655
0.500998
0.500089
0.425006
0.500372
0.50085
0.407801
0.48446
0.504289
0.419771
0.466001
0.407027
0.5012
0.504734
0.420436
0.505545
0.501008
0.411351
0.499245
0.500113
0.501479
0.507698
0.500806
0.506231
0.507834
0.503469
0.502748
0.501393
0.508598
0.476148
0.484576
0.438912
0.50156
0.502873
0.41573
0.417035
0.4191
0.507062
0.46583
0.502664
0.466076
0.5009
0.501525
0.500846
0.500821
0.501622
0.439484
0.507155
0.501081
0.416766
0.501293
0.407256
0.416933
0.502786
0.407167
0.505099
0.501405
0.419722
0.417414
0.501903
0.501472
0.50226
0.501756
0.504055
0.473788
0.504539
0.415002
0.413083
0.416056
0.502618
0.502927
0.501774
0.409033
0.507128
0.442808
0.501496
0.501625
0.501381
0.501606
0.506318
0.501188
0.486387
0.50109
0.501273
0.500256
0.501161
0.500327
0.423739
0.506955
0.424627
0.486529
0.409884
0.444348
0.421409
0.41633
0.471425
0.471573
0.502408
0.503735
0.501171
0.503929
0.420687
0.483677
0.500477
0.504334
0.502504
0.504984
0.474563
0.419286
0.501077
0.471819
0.471673
0.408166
0.500091
0.504371
0.504766
0.425023
0.478529
0.478461
0.501499
0.44113
0.442477
0.407001
0.41963
0.502695
0.499962
0.502027
0.509054
0.418401
0.420999
0.500687
0.504269
0.50598
0.424142
0.408932
0.40889
0.409793
0.50483
0.415158
0.438445
0.503395
0.412596
0.507716
0.500702
0.504404
0.502415
0.461541
0.444763
0.500953
0.421285
0.487798
0.504957
0.507394
0.495399
0.496598
0.507378
0.500314
0.4907
0.426711
0.507105
0.502279
0.446908
0.411992
0.500625
0.500941
0.504719
0.504536
0.507265
0.507232
0.500729
0.505903
0.508471
0.425348
0.419243
0.500954
0.410838
0.500394
0.483269
0.502526
0.502895
0.452333
0.448309
0.500486
0.503982
0.499884
0.457409
0.500768
0.50526
0.507599
0.500481
0.419594
0.500512
0.501713
0.505418
0.50765
0.407316
0.50247
0.503582
0.503966
0.407847
0.40789
0.419582
0.504429
0.500617
0.500268
0.503011
0.509055
0.412374
0.423863
0.509492
0.505381
0.500733
0.410196
0.506758
0.408124
0.414758
0.501394
0.50254
0.506919
0.502508
0.508962
0.509025
0.502355
0.502368
0.509516
0.499929
0.504925
0.509488
0.407412
0.504819
0.495244
0.430491
0.502471
0.426771
0.446025
0.501506
0.502722
0.501697
0.500783
0.501462
0.500601
0.502106
0.408277
0.426656
0.509275
0.502368
0.411281
0.503148
0.458695
0.496175
0.502612
0.442076
0.508377
0.500518
0.508541
0.500486
0.504647
0.501389
0.502779
0.504656
0.50776
0.502522
0.506876
0.495333
0.44787
0.507836
0.410397
0.505888
0.487112
0.426161
0.501863
0.489623
0.491358
0.504627
0.448836
0.500599
0.407677
0.41785
0.407733
0.500255
0.505121
0.460404
0.462861
0.419286
0.500517
0.504006
0.506006
0.412062
0.419925
0.502566
0.499685
0.502402
0.505584
0.503065
0.424939
0.504796
0.459682
0.425817
0.501609
0.506539
0.493692
0.500123
0.421701
0.501936
0.502649
0.493817
0.505133
0.49432
0.500278
0.500197
0.500696
0.502439
0.500405
0.426556
0.505438
0.506352
0.500418
0.501105
0.506027
0.42532
0.502944
0.500319
0.502853
0.413093
0.500016
0.500817
0.505081
0.418738
0.41295
0.505019
0.410983
0.445155
0.417384
0.408967
0.408981
0.445568
0.443948
0.506668
0.414212
0.502459
0.506895
0.502867
0.500819
0.409598
0.504146
0.501528
0.503691
0.416842
0.500743
0.501828
0.503171
0.503866
0.48973
0.50054
0.412117
0.410909
0.472774
0.472874
0.501105
0.501886
0.412282
0.503775
0.502337
0.500683
0.500351
0.508703
0.509219
0.50279
0.485805
0.433704
0.40869
0.501398
0.41324
0.504281
0.40817
0.47101
0.500947
0.506968
0.503013
0.502298
0.508366
0.50831
0.407063
0.502652
0.426194
0.502828
0.504449
0.500699
0.500912
0.500335
0.500308
0.509219
0.407041
0.409736
0.500953
0.449874
0.501036
0.502051
0.501853
0.424853
0.5025
0.50075
0.412766
0.501742
0.409269
0.418834
0.506614
0.500883
0.408916
0.460076
0.407272
0.415022
0.494775
0.507129
0.495699
0.493739
0.506974
0.508326
0.508375
0.427043
0.507148
0.500593
0.500879
0.415519
0.50848
0.503806
0.414713
0.410316
0.502737
0.50731
0.503144
0.500934
0.501685
0.500528
0.507413
0.502727
0.507404
0.494031
0.509372
0.505737
0.50625
0.506824
0.411658
0.503189
0.509409
0.509393
0.500377
0.501979
0.505711
0.503255
0.502428
0.508747
0.503803
0.506113
0.500219
0.437593
0.505805
0.437561
0.500502
0.509379
0.409459
0.49717
0.505745
0.505896
0.500702
0.501154
0.462591
0.500503
0.501767
0.502396
0.48496
0.483967
0.407998
0.500703
0.506934
0.501424
0.454555
0.500389
0.501819
0.506519
0.505856
0.501128
0.490345
0.491235
0.45829
0.501498
0.503762
0.500914
0.441417
0.440984
0.441243
0.508505
0.503828
0.502036
0.501174
0.500226
0.508402
0.429812
0.508342
0.508567
0.500881
0.407341
0.503117
0.462822
0.501365
0.493457
0.492697
0.505646
0.500894
0.502509
0.413802
0.502338
0.500444
0.420042
0.508072
0.502741
0.500747
0.509176
0.409593
0.40795
0.408785
0.507406
0.505864
0.502191
0.508123
0.508662
0.509581
0.500637
0.508066
0.509446
0.509453
0.509322
0.501244
0.508695
0.502488
0.423557
0.509422
0.501191
0.500816
0.506154
0.503392
0.508972
0.50363
0.501274
0.503296
0.425301
0.509401
0.501591
0.501626
0.50223
0.501119
0.501581
0.502964
0.406844
0.487949
0.487042
0.502003
0.503728
0.501665
0.500854
0.40847
0.503504
0.507465
0.50093
0.507294
0.434602
0.500901
0.505208
0.415893
0.499869
0.502237
0.407526
0.502532
0.438342
0.509443
0.413545
0.413387
0.438705
0.438594
0.507877
0.504056
0.502588
0.502614
0.43728
0.501892
0.500728
0.453197
0.433487
0.506725
0.411212
0.503612
0.503805
0.495771
0.418908
0.426356
0.450934
0.501239
0.50134
0.501615
0.50145
0.503278
0.505991
0.505681
0.505345
0.501966
0.506276
0.501819
0.50341
0.492708
0.500988
0.484839
0.502706
0.502901
0.503563
0.501292
0.504039
0.503459
0.504478
0.505608
0.508659
0.502821
0.504497
0.505813
0.503073
0.504766
0.453945
0.500466
0.445763
0.448866
0.502746
0.504356
0.500759
0.500852
0.418636
0.502163
0.500118
0.504355
0.502425
0.504946
0.504171
0.408845
0.50255
0.500014
0.500362
0.477578
0.47866
0.506006
0.408364
0.503128
0.503319
0.503519
0.419936
0.502719
0.504601
0.424402
0.461095
0.50021
0.498795
0.423476
0.503477
0.422639
0.503835
0.503813
0.503443
0.42206
0.50687
0.503314
0.503783
0.502616
0.501386
0.503133
0.50068
0.493176
0.427141
0.408972
0.503181
0.44991
0.505282
0.408284
0.427915
0.427453
0.504668
0.490741
0.422218
0.431276
0.499857
0.503271
0.501738
0.48586
0.505614
0.43559
0.503655
0.503636
0.500836
0.503158
0.500778
0.50276
0.428749
0.507441
0.507464
0.506161
0.502592
0.502464
0.502792
0.503051
0.502203
0.422594
0.500438
0.500553
0.417104
0.411122
0.411559
0.455669
0.505138
0.500721
0.4908
0.50492
0.505445
0.504798
0.506475
0.504821
0.5034
0.508448
0.50312
0.420768
0.486692
0.506133
0.436991
0.43691
0.500645
0.507779
0.501448
0.504198
0.504744
0.505766
0.508298
0.508246
0.504199
0.50445
0.502035
0.502404
0.440755
0.504911
0.506182
0.5046
0.441935
0.441657
0.50187
0.503222
0.505837
0.501601
0.504689
0.502013
0.501896
0.453264
0.502348
0.443992
0.444245
0.504165
0.507171
0.502933
0.506387
0.483361
0.482324
0.464314
0.494707
0.493999
0.411701
0.507004
0.502925
0.453865
0.506404
0.504523
0.496896
0.506536
0.505114
0.505308
0.509385
0.509336
0.508152
0.503844
0.508338
0.508498
0.508543
0.50235
0.506637
0.509124
0.499611
0.505515
0.497611
0.498123
0.508064
0.505724
0.508048
0.508949
0.508826
0.504465
0.506398
0.508675
0.500564
0.508013
0.419069
0.50393
0.473353
0.502946
0.505168
0.444944
0.506441
0.503244
0.503222
0.503179
0.501015
0.50194
0.501099
0.509328
0.50309
0.42706
0.500111
0.501312
0.503123
0.505202
0.502638
0.50213
0.423622
0.500846
0.500722
0.502635
0.416401
0.415818
0.506288
0.501391
0.509338
0.49994
0.506991
0.505921
0.500617
0.500806
0.500882
0.502218
0.502284
0.501309
0.500651
0.41003
0.409342
0.501387
0.509008
0.453371
0.487643
0.421638
0.502949
0.503058
0.501854
0.502468
0.502798
0.499783
0.504659
0.418093
0.507784
0.502314
0.483781
0.497936
0.50256
0.505964
0.502756
0.412816
0.505434
0.416005
0.50879
0.50656
0.502944
0.416773
0.416957
0.502295
0.502672
0.500544
0.502268
0.499868
0.505316
0.420697
0.506749
0.501238
0.501579
0.50283
0.502111
0.501951
0.50504
0.497634
0.504261
0.502267
0.506015
0.502741
0.504934
0.497647
0.501302
0.503346
0.499932
0.489369
0.488493
0.50179
0.501352
0.502277
0.502119
0.499712
0.502483
0.502587
0.492756
0.502969
0.507821
0.502359
0.502667
0.502723
0.506511
0.504856
0.508902
0.505045
0.500961
0.477007
0.475798
0.502895
0.503072
0.407079
0.503111
0.501698
0.500969
0.506302
0.507084
0.5015
0.501854
0.500963
0.502221
0.502529
0.499798
0.489976
0.501412
0.502735
0.500762
0.502576
0.459068
0.506429
0.497655
0.505821
0.502433
0.502363
0.494823
0.506545
0.505266
0.506865
0.502041
0.499143
0.502572
0.426655
0.448823
0.506201
0.503088
0.501034
0.459902
0.506011
0.50135
0.502166
0.502299
0.439262
0.439121
0.500754
0.509001
0.502376
0.430801
0.507829
0.501736
0.491525
0.505216
0.435097
0.502222
0.507803
0.429171
0.501878
0.508093
0.50068
0.506895
0.501875
0.502515
0.503032
0.506078
0.506077
0.507949
0.501242
0.502554
0.501076
0.5026
0.50096
0.456967
0.501324
0.505473
0.502067
0.501629
0.434056
0.505632
0.501856
0.506446
0.502568
0.502726
0.495179
0.508475
0.508205
0.504973
0.50067
0.508408
0.500654
0.502402
0.506425
0.501423
0.502312
0.50208
0.501099
0.502276
0.503202
0.502496
0.409001
0.502249
0.407407
0.502274
0.500961
0.500638
0.502782
0.500826
0.504854
0.444782
0.445085
0.505661
0.504086
0.50263
0.424046
0.423143
0.509406
0.509458
0.501622
0.502335
0.501715
0.503416
0.500479
0.502278
0.507757
0.455112
0.501781
0.502195
0.504649
0.502554
0.413795
0.408891
0.50305
0.502553
0.502543
0.457153
0.501026
0.502356
0.501332
0.488415
0.489271
0.503486
0.500905
0.502206
0.437797
0.498691
0.499157
0.507258
0.454423
0.501167
0.501477
0.500692
0.500698
0.501377
0.493759
0.502227
0.507804
0.425885
0.50137
0.501462
0.502638
0.506964
0.501209
0.502098
0.505968
0.50909
0.508964
0.488634
0.500864
0.502444
0.501247
0.504589
0.508616
0.501457
0.447354
0.502757
0.500044
0.501071
0.506773
0.500557
0.502273
0.506022
0.500987
0.502604
0.506363
0.503745
0.506186
0.500541
0.501233
0.499729
0.500721
0.502145
0.502134
0.501132
0.501311
0.50126
0.508441
0.500808
0.502156
0.500731
0.508887
0.50247
0.502529
0.4996
0.502065
0.50118
0.502067
0.421887
0.50263
0.501267
0.500886
0.500977
0.501929
0.508155
0.50268
0.502724
0.504339
0.501677
0.501564
0.501458
0.500749
0.502214
0.501122
0.502525
0.50133
0.505106
0.501359
0.506062
0.507895
0.507742
0.506652
0.502229
0.500612
0.501798
0.507102
0.501026
0.501065
0.500889
0.500335
0.501426
0.501162
0.508017
0.500754
0.499737
0.501325
0.500403
0.507748
0.502553
0.508984
0.502506
0.501471
0.502687
0.494295
0.500619
0.416676
0.417646
0.501036
0.499728
0.500676
0.501076
0.507885
0.508145
0.502702
0.501039
0.502363
0.500323
0.500589
0.501983
0.501778
0.501766
0.501466
0.50105
0.500681
0.500937
0.509575
0.502521
0.506736
0.411859
0.507255
0.507033
0.508027
0.506987
0.509577
0.501184
0.506493
0.500938
0.497926
0.499438
0.500543
0.500818
0.501027
0.505583
0.496385
0.50256
0.501711
0.500676
0.496397
0.500482
0.492109
0.506876
0.50221
0.500831
0.501383
0.502331
0.427205
0.500546
0.50215
0.499491
0.502238
0.500706
0.422216
0.504017
0.502505
0.489104
0.500471
0.501104
0.500751
0.501208
0.500588
0.50224
0.500258
0.409486
0.501555
0.506347
0.506776
0.505393
0.496726
0.500362
0.502426
0.50061
0.500933
0.500784
0.502723
0.500543
0.487736
0.500185
0.500482
0.41294
0.489345
0.500635
0.502051
0.508825
0.500418
0.499877
0.499642
0.506681
0.500684
0.50345
0.464767
0.505182
0.500424
0.501152
0.500187
0.501874
0.501157
0.468013
0.502523
0.504453
0.500756
0.505652
0.502898
0.507754
0.502201
0.500569
0.502401
0.502771
0.50037
0.460854
0.502025
0.507288
0.500845
0.506671
0.504884
0.506304
0.500271
0.508344
0.50227
0.466199
0.499343
0.501182
0.50708
0.500543
0.500433
0.502651
0.501988
0.444451
0.507183
0.508486
0.506788
0.500452
0.501457
0.501433
0.507169
0.500562
0.500782
0.508403
0.457668
0.409695
0.407459
0.500271
0.470644
0.50588
0.424438
0.423249
0.509435
0.500227
0.459325
0.501013
0.50034
0.500129
0.502133
0.500287
0.499858
0.472314
0.50208
0.409093
0.499969
0.507702
0.500017
0.500922
0.507071
0.501637
0.488342
0.505008
0.489916
0.462849
0.507272
0.476714
0.453607
0.474014
0.500181
0.504072
0.508454
0.504651
0.501809
0.472384
0.507236
0.425507
0.507814
0.500828
0.508281
0.5024
0.500896
0.505861
0.500598
0.502047
0.507524
0.508626
0.50736
0.447735
0.499883
0.500169
0.504406
0.500832
0.501572
0.475204
0.507436
0.422179
0.507209
0.507986
0.499391
0.459321
0.507849
0.500153
0.503007
0.500558
0.50827
0.507934
0.508405
0.503259
0.462817
0.50833
0.501237
0.508393
0.500254
0.507609
0.508211
0.493732
0.50001
0.417733
0.416162
0.478828
0.48016
0.500169
0.498984
0.507266
0.50826
0.434994
0.434873
0.480242
0.502384
0.411454
0.501282
0.500688
0.500164
0.501408
0.501188
0.481519
0.50727
0.508564
0.500473
0.508389
0.499503
0.500966
0.507933
0.499573
0.507909
0.507368