# vtk DataFile Version 1.0
unstructured grid
ascii
DATASET UNSTRUCTURED_GRID
points 8094 float
-0.25 0.0574735 0
0.5 0.0546937 0
0.5 -0.0546937 0
-0.25 -0.0574735 0
-0.25 0.0574735 0.01
0.5 0.0546937 0.01
0.5 -0.0546937 0.01
-0.25 -0.0574735 0.01
-0.246045 0.0569295 0
-0.242089 0.0563854 0
-0.238136 0.0558289 0
-0.234184 0.0552582 0
-0.230232 0.0546875 0
-0.226284 0.0540912 0
-0.222337 0.0534933 0
-0.218391 0.0528841 0
-0.214448 0.0522585 0
-0.210504 0.0516328 0
-0.206565 0.0509829 0
-0.202626 0.0503294 0
-0.198689 0.0496667 0
-0.194755 0.0489856 0
-0.190821 0.0483046 0
-0.18689 0.0476022 0
-0.182961 0.0468942 0
-0.179033 0.0461799 0
-0.175108 0.0454463 0
-0.171183 0.0447127 0
-0.167262 0.0439627 0
-0.163342 0.0432056 0
-0.159422 0.0424455 0
-0.155506 0.041668 0
-0.15159 0.0408904 0
-0.147675 0.0401031 0
-0.143762 0.0393092 0
-0.13985 0.0385149 0
-0.135939 0.0377103 0
-0.132028 0.0369056 0
-0.128117 0.0361005 0
-0.124207 0.0352949 0
-0.120296 0.0344893 0
-0.116386 0.0336836 0
-0.112475 0.032878 0
-0.108563 0.0320794 0
-0.104649 0.0312931 0
-0.100735 0.0305068 0
-0.0968152 0.029745 0
-0.0928949 0.0289889 0
-0.0889722 0.0282446 0
-0.0850433 0.0275341 0
-0.0811144 0.0268235 0
-0.0771778 0.0261578 0
-0.0732381 0.0255098 0
-0.0692962 0.0248759 0
-0.0653442 0.0243073 0
-0.0613923 0.0237386 0
-0.0574324 0.0232306 0
-0.0534681 0.0227556 0
-0.0495024 0.0222934 0
-0.0455272 0.0219207 0
-0.041552 0.0215481 0
-0.0375717 0.0212385 0
-0.0335881 0.0209694 0
-0.029604 0.0207098 0
-0.0256151 0.0205369 0
-0.0216262 0.0203639 0
-0.0176357 0.0202396 0
-0.0136441 0.0201487 0
-0.00965243 0.0200635 0
-0.00565987 0.0200372 0
-0.00166732 0.020011 0
0.00232526 0.0200121 0
0.00631785 0.0200329 0
0.0103104 0.0200563 0
0.0143027 0.0201109 0
0.018295 0.0201654 0
0.022287 0.0202345 0
0.0262788 0.0203144 0
0.0302706 0.0203957 0
0.034262 0.0204956 0
0.0382534 0.0205955 0
0.0422446 0.0207045 0
0.0462355 0.0208207 0
0.0502265 0.0209377 0
0.054217 0.0210676 0
0.0582075 0.0211975 0
0.0621978 0.0213339 0
0.0661879 0.0214757 0
0.0701781 0.021618 0
0.0741678 0.0217703 0
0.0781575 0.0219227 0
0.0821471 0.0220801 0
0.0861364 0.022242 0
0.0901258 0.0224041 0
0.0941148 0.0225747 0
0.0981038 0.0227453 0
0.102093 0.0229202 0
0.106081 0.023099 0
0.11007 0.0232779 0
0.114058 0.0234644 0
0.118046 0.0236509 0
0.122035 0.0238411 0
0.126022 0.024035 0
0.13001 0.0242288 0
0.133998 0.0244298 0
0.137986 0.0246308 0
0.141973 0.0248352 0
0.14596 0.025043 0
0.149947 0.0252509 0
0.153934 0.0254654 0
0.157921 0.02568 0
0.161908 0.0258978 0
0.165894 0.026119 0
0.169881 0.0263402 0
0.173867 0.0265678 0
0.177853 0.0267956 0
0.181839 0.0270264 0
0.185825 0.0272607 0
0.189811 0.0274951 0
0.193796 0.0277356 0
0.197781 0.0279764 0
0.201767 0.02822 0
0.205752 0.0284673 0
0.209737 0.0287146 0
0.213721 0.0289679 0
0.217706 0.0292217 0
0.22169 0.0294782 0
0.225674 0.0297385 0
0.229658 0.0299988 0
0.233642 0.0302651 0
0.237626 0.0305319 0
0.241609 0.0308014 0
0.245593 0.0310748 0
0.249576 0.0313482 0
0.253559 0.0316276 0
0.257542 0.0319077 0
0.261524 0.0321904 0
0.265507 0.0324772 0
0.269489 0.032764 0
0.273471 0.0330568 0
0.277453 0.0333504 0
0.281434 0.0336466 0
0.285416 0.0339471 0
0.289397 0.0342476 0
0.293378 0.034554 0
0.297359 0.0348615 0
0.301339 0.0351714 0
0.305319 0.0354859 0
0.3093 0.0358005 0
0.313279 0.036121 0
0.317259 0.0364427 0
0.321239 0.0367667 0
0.325218 0.0370957 0
0.329197 0.0374248 0
0.333175 0.0377597 0
0.337154 0.0380961 0
0.341132 0.0384347 0
0.34511 0.0387786 0
0.349088 0.0391226 0
0.353065 0.0394724 0
0.357042 0.0398239 0
0.361019 0.0401775 0
0.364995 0.0405368 0
0.368972 0.0408961 0
0.372948 0.0412613 0
0.376924 0.0416285 0
0.380899 0.0419975 0
0.384874 0.0423727 0
0.388849 0.0427479 0
0.392823 0.0431289 0
0.396798 0.0435123 0
0.400772 0.0438973 0
0.404745 0.044289 0
0.408718 0.0446807 0
0.412691 0.0450781 0
0.416664 0.0454782 0
0.420636 0.0458797 0
0.424608 0.0462883 0
0.42858 0.046697 0
0.432551 0.0471114 0
0.436521 0.0475289 0
0.440492 0.0479474 0
0.444462 0.0483738 0
0.448432 0.0488001 0
0.452401 0.0492319 0
0.45637 0.0496673 0
0.460338 0.0501035 0
0.464306 0.0505482 0
0.468274 0.0509928 0
0.472241 0.0514427 0
0.476208 0.0518968 0
0.480175 0.0523512 0
0.48414 0.0528148 0
0.488106 0.0532784 0
0.492071 0.0537471 0
0.496036 0.0542204 0
0.5 0.050787 0
0.5 0.0468803 0
0.5 0.0429736 0
0.5 0.0390669 0
0.5 0.0351602 0
0.5 0.0312535 0
0.5 0.0273468 0
0.5 0.0234402 0
0.5 0.0195335 0
0.5 0.0156268 0
0.5 0.0117201 0
0.5 0.00781339 0
0.5 0.00390669 0
0.5 1.43781e-13 0
0.5 -0.00390669 0
0.5 -0.00781339 0
0.5 -0.0117201 0
0.5 -0.0156268 0
0.5 -0.0195335 0
0.5 -0.0234402 0
0.5 -0.0273468 0
0.5 -0.0312535 0
0.5 -0.0351602 0
0.5 -0.0390669 0
0.5 -0.0429736 0
0.5 -0.0468803 0
0.5 -0.050787 0
0.496036 -0.0542204 0
0.492071 -0.0537471 0
0.488106 -0.0532784 0
0.48414 -0.0528148 0
0.480175 -0.0523512 0
0.476208 -0.0518968 0
0.472241 -0.0514427 0
0.468274 -0.0509928 0
0.464306 -0.0505482 0
0.460338 -0.0501035 0
0.45637 -0.0496673 0
0.452401 -0.0492319 0
0.448432 -0.0488001 0
0.444462 -0.0483738 0
0.440492 -0.0479474 0
0.436521 -0.0475289 0
0.432551 -0.0471114 0
0.42858 -0.046697 0
0.424608 -0.0462883 0
0.420636 -0.0458797 0
0.416664 -0.0454782 0
0.412691 -0.0450781 0
0.408718 -0.0446807 0
0.404745 -0.044289 0
0.400772 -0.0438973 0
0.396798 -0.0435123 0
0.392823 -0.0431289 0
0.388849 -0.0427479 0
0.384874 -0.0423727 0
0.380899 -0.0419975 0
0.376924 -0.0416285 0
0.372948 -0.0412613 0
0.368972 -0.0408961 0
0.364995 -0.0405368 0
0.361019 -0.0401775 0
0.357042 -0.0398239 0
0.353065 -0.0394724 0
0.349088 -0.0391226 0
0.34511 -0.0387786 0
0.341132 -0.0384347 0
0.337154 -0.0380961 0
0.333175 -0.0377597 0
0.329197 -0.0374248 0
0.325218 -0.0370957 0
0.321239 -0.0367667 0
0.317259 -0.0364427 0
0.313279 -0.036121 0
0.3093 -0.0358005 0
0.305319 -0.0354859 0
0.301339 -0.0351714 0
0.297359 -0.0348615 0
0.293378 -0.034554 0
0.289397 -0.0342476 0
0.285416 -0.0339471 0
0.281434 -0.0336466 0
0.277453 -0.0333504 0
0.273471 -0.0330568 0
0.269489 -0.032764 0
0.265507 -0.0324772 0
0.261524 -0.0321904 0
0.257542 -0.0319077 0
0.253559 -0.0316276 0
0.249576 -0.0313482 0
0.245593 -0.0310748 0
0.241609 -0.0308014 0
0.237626 -0.0305319 0
0.233642 -0.0302651 0
0.229658 -0.0299988 0
0.225674 -0.0297385 0
0.22169 -0.0294782 0
0.217706 -0.0292217 0
0.213721 -0.0289679 0
0.209737 -0.0287146 0
0.205752 -0.0284673 0
0.201767 -0.02822 0
0.197781 -0.0279764 0
0.193796 -0.0277356 0
0.189811 -0.0274951 0
0.185825 -0.0272607 0
0.181839 -0.0270264 0
0.177853 -0.0267956 0
0.173867 -0.0265678 0
0.169881 -0.0263402 0
0.165894 -0.026119 0
0.161908 -0.0258978 0
0.157921 -0.02568 0
0.153934 -0.0254654 0
0.149947 -0.0252509 0
0.14596 -0.025043 0
0.141973 -0.0248352 0
0.137986 -0.0246308 0
0.133998 -0.0244298 0
0.13001 -0.0242288 0
0.126022 -0.024035 0
0.122035 -0.0238411 0
0.118046 -0.0236509 0
0.114058 -0.0234644 0
0.11007 -0.0232779 0
0.106081 -0.023099 0
0.102093 -0.0229202 0
0.0981038 -0.0227453 0
0.0941148 -0.0225747 0
0.0901258 -0.0224041 0
0.0861364 -0.022242 0
0.0821471 -0.0220801 0
0.0781575 -0.0219227 0
0.0741678 -0.0217703 0
0.0701781 -0.021618 0
0.0661879 -0.0214757 0
0.0621978 -0.0213339 0
0.0582075 -0.0211975 0
0.054217 -0.0210676 0
0.0502265 -0.0209377 0
0.0462355 -0.0208207 0
0.0422446 -0.0207045 0
0.0382534 -0.0205955 0
0.034262 -0.0204956 0
0.0302706 -0.0203957 0
0.0262788 -0.0203144 0
0.022287 -0.0202345 0
0.018295 -0.0201654 0
0.0143027 -0.0201109 0
0.0103104 -0.0200563 0
0.00631785 -0.0200329 0
0.00232526 -0.0200121 0
-0.00166732 -0.020011 0
-0.00565987 -0.0200372 0
-0.00965243 -0.0200635 0
-0.0136441 -0.0201487 0
-0.0176357 -0.0202396 0
-0.0216262 -0.0203639 0
-0.0256151 -0.0205369 0
-0.029604 -0.0207098 0
-0.0335881 -0.0209694 0
-0.0375717 -0.0212385 0
-0.041552 -0.0215481 0
-0.0455272 -0.0219207 0
-0.0495024 -0.0222934 0
-0.0534681 -0.0227556 0
-0.0574324 -0.0232306 0
-0.0613923 -0.0237386 0
-0.0653442 -0.0243073 0
-0.0692962 -0.0248759 0
-0.0732381 -0.0255098 0
-0.0771778 -0.0261578 0
-0.0811144 -0.0268235 0
-0.0850433 -0.0275341 0
-0.0889722 -0.0282446 0
-0.0928949 -0.0289889 0
-0.0968152 -0.029745 0
-0.100735 -0.0305068 0
-0.104649 -0.0312931 0
-0.108563 -0.0320794 0
-0.112475 -0.032878 0
-0.116386 -0.0336836 0
-0.120296 -0.0344893 0
-0.124207 -0.0352949 0
-0.128117 -0.0361005 0
-0.132028 -0.0369056 0
-0.135939 -0.0377103 0
-0.13985 -0.0385149 0
-0.143762 -0.0393092 0
-0.147675 -0.0401031 0
-0.15159 -0.0408904 0
-0.155506 -0.041668 0
-0.159422 -0.0424455 0
-0.163342 -0.0432056 0
-0.167262 -0.0439627 0
-0.171183 -0.0447127 0
-0.175108 -0.0454463 0
-0.179033 -0.0461799 0
-0.182961 -0.0468942 0
-0.18689 -0.0476022 0
-0.190821 -0.0483046 0
-0.194755 -0.0489856 0
-0.198689 -0.0496667 0
-0.202626 -0.0503294 0
-0.206565 -0.0509829 0
-0.210504 -0.0516328 0
-0.214448 -0.0522585 0
-0.218391 -0.0528841 0
-0.222337 -0.0534933 0
-0.226284 -0.0540912 0
-0.230232 -0.0546875 0
-0.234184 -0.0552582 0
-0.238136 -0.0558289 0
-0.242089 -0.0563854 0
-0.246045 -0.0569295 0
-0.25 -0.0535098 0
-0.25 -0.0495461 0
-0.25 -0.0455824 0
-0.25 -0.0416187 0
-0.25 -0.0376551 0
-0.25 -0.0336914 0
-0.25 -0.0297277 0
-0.25 -0.025764 0
-0.25 -0.0218003 0
-0.25 -0.0178366 0
-0.25 -0.0138729 0
-0.25 -0.00990922 0
-0.25 -0.00594553 0
-0.25 -0.00198184 0
-0.25 0.00198184 0
-0.25 0.00594553 0
-0.25 0.00990922 0
-0.25 0.0138729 0
-0.25 0.0178366 0
-0.25 0.0218003 0
-0.25 0.025764 0
-0.25 0.0297277 0
-0.25 0.0336914 0
-0.25 0.0376551 0
-0.25 0.0416187 0
-0.25 0.0455824 0
-0.25 0.0495461 0
-0.25 0.0535098 0
-0.246045 0.0569295 0.01
-0.242089 0.0563854 0.01
-0.238136 0.0558289 0.01
-0.234184 0.0552582 0.01
-0.230232 0.0546875 0.01
-0.226284 0.0540912 0.01
-0.222337 0.0534933 0.01
-0.218391 0.0528841 0.01
-0.214448 0.0522585 0.01
-0.210504 0.0516328 0.01
-0.206565 0.0509829 0.01
-0.202626 0.0503294 0.01
-0.198689 0.0496667 0.01
-0.194755 0.0489856 0.01
-0.190821 0.0483046 0.01
-0.18689 0.0476022 0.01
-0.182961 0.0468942 0.01
-0.179033 0.0461799 0.01
-0.175108 0.0454463 0.01
-0.171183 0.0447127 0.01
-0.167262 0.0439627 0.01
[...]
CELL_DATA 7657
SCALARS rho float
LOOKUP_TABLE default
0.478253
0.369869
0.393909
0.173829
0.49529
0.362846
0.258732
0.420817
0.336326
0.499153
0.499223
0.420224
0.304937
0.420516
0.494581
0.489422
0.494519
0.401346
0.401259
0.423448
0.493826
0.402431
0.360563
0.401295
0.409629
0.417408
0.186901
0.31218
0.495982
0.364722
0.239691
0.409653
0.35725
0.476245
0.476693
0.241558
0.364702
0.359617
0.481483
0.212812
0.392861
0.335182
0.159842
0.35644
0.392586
0.39452
0.265241
0.362286
0.409769
0.477874
0.354946
0.172783
0.495897
0.496821
0.256862
0.366106
0.494104
0.492251
0.452891
0.238014
0.410133
0.391663
0.411054
0.411357
0.499914
0.499929
0.304584
0.370929
0.498426
0.448661
0.394945
0.306669
0.162893
0.495962
0.474945
0.361027
0.40246
0.360247
0.474419
0.310368
0.356639
0.421256
0.423447
0.39359
0.394364
0.457871
0.394489
0.447665
0.417707
0.188347
0.499767
0.499811
0.454594
0.497734
0.216663
0.460523
0.459241
0.364368
0.3919
0.216507
0.401744
0.407014
0.367875
0.493416
0.267046
0.346001
0.225281
0.371859
0.312025
0.493395
0.239937
0.371108
0.337106
0.423422
0.397476
0.436574
0.372837
0.211083
0.488778
0.363218
0.500634
0.500617
0.224162
0.365043
0.422622
0.420447
0.419992
0.160004
0.368395
0.158928
0.176297
0.404013
0.366684
0.164054
0.423378
0.227685
0.489752
0.357414
0.404678
0.40498
0.22562
0.190557
0.209586
0.21466
0.400725
0.493749
0.354021
0.370965
0.391627
0.225313
0.206192
0.498551
0.390381
0.159101
0.493829
0.368988
0.370173
0.403205
0.423365
0.22963
0.403566
0.492031
0.417129
0.435183
0.389185
0.367646
0.481526
0.307709
0.397187
0.489205
0.393021
0.348019
0.403768
0.207854
0.245887
0.243507
0.16716
0.460508
0.422476
0.207939
0.21458
0.310778
0.40606
0.406139
0.301866
0.451081
0.324889
0.166275
0.418795
0.460459
0.495902
0.49794
0.423336
0.465469
0.41865
0.367781
0.423505
0.4917
0.243835
0.396303
0.40104
0.406615
0.461994
0.445235
0.186606
0.496923
0.315861
0.268915
0.47402
0.464961
0.383882
0.391569
0.388917
0.42336
0.392624
0.165065
0.250513
0.456474
0.37218
0.396088
0.370066
0.371876
0.498861
0.371633
0.318178
0.358487
0.318138
0.197786
0.361928
0.498901
0.387252
0.38743
0.308961
0.493723
0.487884
0.423409
0.447212
0.407284
0.407373
0.491436
0.383411
0.20346
0.462161
0.357196
0.473074
0.467809
0.324993
0.466899
0.327534
0.360528
0.241998
0.168474
0.373292
0.475179
0.248754
0.166096
0.372379
0.495245
0.496701
0.370881
0.364007
0.496593
0.488364
0.397148
0.252648
0.394397
0.442962
0.201974
0.400968
0.206486
0.294625
0.189648
0.190886
0.423617
0.472434
0.397528
0.155283
0.371236
0.370434
0.419455
0.364961
0.414238
0.197571
0.219904
0.169892
0.240304
0.219922
0.177431
0.395561
0.399163
0.397972
0.165072
0.196083
0.496518
0.372913
0.1863
0.481826
0.421479
0.436404
0.398294
0.459302
0.497353
0.204819
0.322595
0.186873
0.45624
0.254152
0.16418
0.400296
0.371729
0.41967
0.440981
0.491201
0.327523
0.409483
0.49102
0.496464
0.495279
0.372356
0.414489
0.156332
0.360029
0.496414
0.449246
0.489186
0.495984
0.323048
0.387391
0.49267
0.398859
0.345947
0.496221
0.488332
0.375497
0.421039
0.408321
0.372487
0.197814
0.409201
0.495869
0.418353
0.24617
0.376947
0.488407
0.423575
0.247922
0.495864
0.374434
0.395574
0.492717
0.363892
0.403034
0.423339
0.403322
0.255036
0.408763
0.404334
0.271107
0.409007
0.267059
0.37597
0.402064
0.395739
0.438546
0.494228
0.2444
0.418191
0.21412
0.454716
0.457969
0.364936
0.425977
0.423174
0.422933
0.31263
0.306888
0.403721
0.407737
0.399539
0.487507
0.389833
0.400559
0.191045
0.411217
0.496233
0.498514
0.477459
0.419957
0.417815
0.492259
0.376328
0.373287
0.37263
0.423081
0.416832
0.449499
0.249558
0.348883
0.492172
0.363867
0.423467
0.42353
0.400348
0.497386
0.214765
0.425725
0.489942
0.292014
0.492461
0.494567
0.403975
0.364997
0.411418
0.174453
0.462195
0.422832
0.392155
0.421285
0.175046
0.364816
0.360209
0.421136
0.275823
0.384912
0.37025
0.397963
0.459587
0.422237
0.160854
0.407052
0.433948
0.253737
0.379688
0.423499
0.414783
0.487103
0.497323
0.404696
0.488558
0.400967
0.361261
0.485881
0.234847
0.496166
0.419389
0.389928
0.383473
0.271404
0.494465
0.43488
0.409537
0.408902
0.377959
0.264941
0.321321
0.460434
0.260971
0.490042
0.488683
0.462941
0.477102
0.369666
0.399401
0.458529
0.387086
0.422872
0.342871
0.350612
0.25697
0.252763
0.496144
0.378484
0.422521
0.478986
0.493502
0.406306
0.41499
0.360691
0.22347
0.495867
0.439373
0.496021
0.403366
0.404105
0.390413
0.371683
0.200466
0.233467
0.498375
0.412055
0.491767
0.410216
0.420248
0.464295
0.419744
0.284023
0.174454
0.359078
0.476708
0.478166
0.421747
0.42153
0.43132
0.422079
0.447502
0.451246
0.380142
0.163011
0.438004
0.487311
0.198946
0.414213
0.405984
0.491685
0.401662
0.422361
0.48481
0.402879
0.482696
0.363032
0.489842
0.423173
0.421388
0.178809
0.419188
0.421995
0.49717
0.393484
0.497532
0.410815
0.375299
0.487825
0.421274
0.422146
0.391768
0.406365
0.392596
0.420916
0.252174
0.400005
0.38931
0.406344
0.430032
0.419847
0.415256
0.423011
0.405721
0.162042
0.366035
0.405389
0.488077
0.175572
0.420342
0.416799
0.483276
0.486641
0.215596
0.419105
0.349552
0.476879
0.487524
0.357154
0.42264
0.28946
0.405059
0.485654
0.497986
0.423063
0.241846
0.473422
0.460266
0.358531
0.40324
0.364268
0.45553
0.277789
0.421017
0.423646
0.419717
0.420257
0.32345
0.401621
0.456897
0.370357
0.405138
0.418073
0.412338
0.436354
0.498381
0.288026
0.418504
0.420565
0.269447
0.429661
0.453627
0.370243
0.245493
0.325706
0.389976
0.420408
0.463178
0.493242
0.371215
0.418293
0.421133
0.42079
0.417175
0.465818
0.373159
0.493749
0.417364
0.420141
0.419963
0.485776
0.390554
0.487902
0.423525
0.429031
0.42573
0.420703
0.234457
0.49662
0.496568
0.422595
0.421161
0.411857
0.36731
0.435139
0.438331
0.333495
0.401456
0.369476
0.496575
0.412086
0.158636
0.422155
0.423917
0.410634
0.496206
0.401429
0.496198
0.406285
0.408533
0.283832
0.179993
0.422811
0.409933
0.41244
0.400831
0.420596
0.485991
0.412682
0.394282
0.422403
0.423601
0.41899
0.192336
0.406042
0.410978
0.410684
0.222594
0.41304
0.488573
0.428518
0.410836
0.403879
0.426427
0.42083
0.413283
0.393748
0.422632
0.457169
0.41631
0.488671
0.171659
0.391966
0.386367
0.388274
0.423633
0.413631
0.389871
0.411293
0.39721
0.419957
0.421275
0.413879
0.37474
0.175259
0.336464
0.232879
0.469384
0.420785
0.419441
0.411605
0.405507
0.419383
0.423044
0.321614
0.494877
0.494527
0.275182
0.404814
0.323026
0.350343
0.271719
0.206142
0.414226
0.327713
0.414479
0.422292
0.422369
0.171202
0.420643
0.496469
0.402813
0.285732
0.488426
0.497106
0.463379
0.419798
0.156469
0.39465
0.422137
0.422203
0.495797
0.411942
0.416567
0.496347
0.238222
0.453663
0.41002
0.495169
0.157694
0.407866
0.419181
0.431274
0.350366
0.418549
0.42229
0.410647
0.411471
0.383599
0.495084
0.452024
0.252155
0.422055
0.350824
0.343372
0.223114
0.416636
0.497241
0.286624
0.412054
0.484478
0.498344
0.494354
0.495543
0.213283
0.496041
0.49621
0.377629
0.495677
0.423028
0.410028
0.411104
0.421442
0.37303
0.343624
0.411121
0.419899
0.403111
0.402775
0.487028
0.338842
0.495487
0.41946
0.486614
0.494133
0.495352
0.384637
0.156571
0.411092
0.21116
0.42203
0.268529
0.423365
0.495306
0.162519
0.455632
0.405983
0.427835
0.270397
0.41882
0.412235
0.392123
0.487978
0.421789
0.449932
0.40047
0.413967
0.494736
0.228014
0.290258
0.419253
0.406838
0.453452
0.453442
0.355708
0.49493
0.420813
0.464976
0.316653
0.292839
0.354588
0.276794
0.494548
0.423263
0.32035
0.42205
0.492726
0.423195
0.360911
0.423284
0.422851
0.267122
0.460319
0.419046
0.212607
0.433024
0.284682
0.422494
0.418434
0.211204
0.417202
0.422715
0.247906
0.486129
0.423303
0.494038
0.410348
0.422901
0.415595
0.40971
0.497792
0.496389
0.493836
0.395539
0.448171
0.460467
0.158526
0.49422
0.49657
0.227882
0.342038
0.214012
0.413163
0.432716
0.496299
0.432965
0.492385
0.494151
0.422721
0.492108
0.494375
0.157343
0.412542
0.422496
0.22493
0.493575
0.270478
0.340894
0.496417
0.295078
0.417935
0.493861
0.212471
0.223293
0.494892
0.494023
0.421318
0.494623
0.419469
0.444582
0.418804
0.333956
0.327827
0.339624
0.421051
0.420468
0.49466
0.310227
0.412843
0.35463
0.494086
0.494361
0.493805
0.494322
0.41534
0.493292
0.463197
0.493008
0.493526
0.489513
0.422575
0.489875
0.20064
0.413455
0.19784
0.463406
0.253663
0.356941
0.208108
0.226732
0.441193
0.441308
0.49584
0.419839
0.493248
0.419608
0.35185
0.459222
0.423178
0.419092
0.495954
0.418062
0.445803
0.21628
0.492972
0.441665
0.441547
0.304541
0.488975
0.418929
0.418392
0.196208
0.451555
0.451537
0.422106
0.319348
0.354765
0.292702
0.214813
0.496312
0.423677
0.421567
0.403612
0.217937
0.209824
0.422965
0.419189
0.391492
0.199122
0.309981
0.310142
0.313807
0.418423
0.229381
0.388024
0.420087
0.239573
0.410355
0.491607
0.41886
0.421312
0.371362
0.358263
0.422758
0.20804
0.465378
0.418104
0.411998
0.477638
0.479936
0.411983
0.423207
0.469844
0.190717
0.412874
0.421294
0.359892
0.241363
0.42292
0.492536
0.418564
0.418718
0.412252
0.412554
0.422804
0.41608
0.407327
0.194665
0.2164
0.492574
0.247281
0.423137
0.458543
0.495983
0.496739
0.41188
0.405267
0.422952
0.419191
0.423368
0.419883
0.491905
0.417718
0.411413
0.422798
0.214835
0.423017
0.494596
0.417467
0.41139
0.296835
0.495707
0.419823
0.419278
0.304157
0.303167
0.348151
0.41882
0.491284
0.423224
0.390344
0.396782
0.239115
0.200558
0.401681
0.417464
0.491751
0.251853
0.414058
0.26483
0.23172
0.422344
0.495805
0.413916
0.496013
0.396353
0.396305
0.389368
0.495758
0.401411
0.423508
0.418189
0.401474
0.296807
0.39037
0.477423
0.372806
0.495919
0.192133
0.358997
0.494102
0.496414
0.421925
0.491953
0.494002
0.491225
0.421608
0.261974
0.190834
0.402404
0.495716
0.322008
0.42023
0.369781
0.47913
0.421102
0.35478
0.407612
0.422899
0.406308
0.423024
0.418495
0.493829
0.420894
0.418664
0.411197
0.495772
0.41377
0.477559
0.360919
0.410926
0.24906
0.416141
0.464278
0.191898
0.494831
0.4682
0.470876
0.418536
0.361712
0.423081
0.267119
0.219488
0.26406
0.422996
0.417742
0.424409
0.428176
0.214019
0.490894
0.419255
0.415846
0.241427
0.212641
0.421116
0.487488
0.495622
0.417158
0.420559
0.196155
0.41832
0.369398
0.193475
0.421967
0.414655
0.384088
0.423423
0.206276
0.421681
0.496415
0.474911
0.417602
0.475793
0.423105
0.489367
0.422633
0.49591
0.490451
0.190382
0.390932
0.391679
0.490499
0.493043
0.415825
0.361423
0.420595
0.490101
0.420789
0.236606
0.488651
0.422873
0.418022
0.216217
0.237366
0.418126
0.247436
0.35791
0.221394
0.3124
0.311763
0.359275
0.3571
0.41437
0.233264
0.495692
0.413905
0.49673
0.422747
0.253723
0.419327
0.422198
0.419525
0.223055
0.422806
0.494779
0.42033
0.419699
0.468361
0.423015
0.240754
0.249985
0.443152
0.443197
0.422617
0.494877
0.240852
0.419667
0.495545
0.423017
0.423229
0.405627
0.401685
0.496488
0.462359
0.170359
0.260188
0.422173
0.236718
0.41891
0.261937
0.375852
0.422608
0.413661
0.420629
0.421402
0.407662
0.40757
0.287349
0.496222
0.191986
0.496602
0.418753
0.422696
0.492445
0.423212
0.490058
0.402514
0.276845
0.25095
0.492575
0.362614
0.492827
0.42152
0.421718
0.195796
0.49599
0.491808
0.326279
0.421998
0.256153
0.216272
0.414895
0.492336
0.25732
0.370612
0.295743
0.229184
0.476588
0.413026
0.478249
0.474796
0.413601
0.407134
0.407381
0.18924
0.412974
0.422963
0.422842
0.22751
0.406758
0.419603
0.33535
0.248905
0.420805
0.412341
0.420388
0.422681
0.422055
0.423
0.411619
0.496534
0.411721
0.384074
0.400961
0.416428
0.415862
0.413782
0.245292
0.420302
0.399371
0.399616
0.490308
0.421752
0.4169
0.497411
0.421292
0.404961
0.419584
0.416167
0.489698
0.161402
0.416736
0.160999
0.49084
0.400155
0.253693
0.481123
0.391019
0.390745
0.422836
0.422476
0.370958
0.423163
0.421839
0.495618
0.379896
0.379864
0.298326
0.42299
0.413489
0.422199
0.364715
0.423157
0.421766
0.414687
0.416127
0.422579
0.469333
0.470694
0.368559
0.421779
0.419473
0.42277
0.321421
0.209631
0.207285
0.406684
0.419567
0.421402
0.422382
0.423232
0.40733
0.181099
0.407235
0.405956
0.422745
0.290493
0.420421
0.369826
0.422342
0.383528
0.383485
0.417049
0.492354
0.42104
0.236474
0.49573
0.423062
0.212823
0.393707
0.496439
0.491841
0.401606
0.254274
0.301462
0.307403
0.393157
0.416636
0.421545
0.408597
0.405156
0.399782
0.422954
0.408393
0.397955
0.399425
0.402884
0.422442
0.40655
0.421089
0.200374
0.400187
0.49329
0.492098
0.41605
0.420087
0.403546
0.419785
0.422316
0.42029
0.194579
0.399665
0.421983
0.421937
0.42137
0.422517
0.422142
0.420543
0.287295
0.381151
0.381099
0.421594
0.419782
0.421961
0.492239
0.262184
0.420057
0.411682
0.422614
0.413006
0.167093
0.49237
0.417374
0.226526
0.488161
0.421445
0.277131
0.421154
0.159488
0.397913
0.234748
0.235531
0.159338
0.159154
0.410684
0.419256
0.495931
0.495951
0.161613
0.421747
0.422976
0.365219
0.379074
0.414084
0.245341
0.419816
0.419628
0.478368
0.216258
0.192298
0.363481
0.422486
0.422314
0.422029
0.422294
0.497481
0.416394
0.416957
0.417512
0.421648
0.415824
0.421898
0.420033
0.383467
0.492697
0.46092
0.496474
0.420727
0.419726
0.422435
0.41929
0.388818
0.418641
0.416738
0.405275
0.420465
0.418761
0.416734
0.497078
0.418092
0.414434
0.490663
0.400883
0.405904
0.496511
0.418645
0.422922
0.492171
0.217832
0.42146
0.489292
0.41867
0.495661
0.417877
0.418955
0.257234
0.495898
0.488883
0.490251
0.377271
0.377248
0.416317
0.258937
0.49724
0.419961
0.497974
0.348524
0.420832
0.418606
0.197221
0.370135
0.489661
0.386442
0.200323
0.497876
0.203201
0.498706
0.498668
0.497801
0.204401
0.413971
0.497545
0.419503
0.496137
0.493819
0.420461
0.422848
0.473845
0.189477
0.25786
0.497229
0.361059
0.417635
0.262102
0.187043
0.187988
0.418353
0.469903
0.204912
0.177132
0.488266
0.497512
0.421866
0.462457
0.417073
0.165728
0.498349
0.498317
0.492131
0.420315
0.491968
0.420757
0.184176
0.411271
0.411398
0.415972
0.49595
0.421117
0.496477
0.497082
0.4214
0.203079
0.423099
0.422969
0.222923
0.245289
0.242547
0.366934
0.417846
0.491748
0.469974
0.418178
0.417378
0.418409
0.415177
0.418279
0.497716
0.406597
0.497152
0.209403
0.463694
0.416091
0.162382
0.16156
0.491457
0.41052
0.493966
0.419141
0.418149
0.416813
0.407673
0.407439
0.419196
0.418851
0.421689
0.49566
0.213889
0.418267
0.415549
0.418703
0.317308
0.32052
0.421723
0.420402
0.416659
0.42215
0.418511
0.495107
0.421855
0.36372
0.495594
0.355386
0.354737
0.418937
0.412683
0.420744
0.415593
0.379187
0.379197
0.370604
0.38409
0.384063
0.243635
0.41396
0.496849
0.365397
0.415518
0.418396
0.480541
0.415248
0.390492
0.390216
0.398961
0.399185
0.408573
0.41951
0.394144
0.406424
0.405822
0.495559
0.415013
0.401975
0.487204
0.417219
0.385831
0.385745
0.40844
0.416416
0.408896
0.395469
0.395473
0.418716
0.414978
0.404784
0.423129
0.408728
0.216254
0.419545
0.444061
0.496862
0.417772
0.399265
0.415243
0.497578
0.497537
0.497274
0.422693
0.494986
0.49303
0.400536
0.497021
0.364847
0.489261
0.493635
0.497058
0.417762
0.421079
0.421498
0.357145
0.422785
0.422933
0.496248
0.224968
0.226439
0.415747
0.422239
0.397427
0.488591
0.414001
0.416502
0.491344
0.491985
0.422789
0.495501
0.49547
0.422429
0.491221
0.25183
0.255583
0.493824
0.395621
0.364703
0.465139
0.206152
0.496943
0.497005
0.421785
0.495981
0.496307
0.487985
0.418377
0.219509
0.411175
0.49567
0.459304
0.482803
0.496119
0.416433
0.496239
0.239052
0.417145
0.22603
0.405333
0.415127
0.496793
0.222942
0.222775
0.421252
0.388286
0.491052
0.495585
0.488309
0.417554
0.209317
0.414699
0.493426
0.422073
0.496367
0.495295
0.495016
0.417793
0.385858
0.418975
0.495548
0.416329
0.496215
0.41797
0.482158
0.493579
0.420228
0.488557
0.381733
0.381662
0.494711
0.493717
0.495462
0.495341
0.487714
0.495795
0.495898
0.473125
0.420486
0.409696
0.495626
0.496129
0.420964
0.415284
0.41807
0.403895
0.417796
0.492587
0.376518
0.376568
0.496678
0.497098
0.278727
0.497082
0.494518
0.422727
0.415249
0.413302
0.494092
0.494833
0.422588
0.495527
0.49582
0.488037
0.468701
0.493883
0.496241
0.491864
0.496173
0.368643
0.415398
0.482171
0.416694
0.495741
0.495578
0.476662
0.41517
0.417305
0.414427
0.495183
0.485914
0.495883
0.190697
0.360036
0.415485
0.497206
0.492832
0.368179
0.416324
0.493725
0.495361
0.495552
0.158188
0.158076
0.422799
0.403165
0.495756
0.178147
0.410998
0.494594
0.471132
0.417766
0.166723
0.495427
0.410953
0.182928
0.494886
0.409801
0.491588
0.414316
0.421842
0.4958
0.496889
0.415709
0.415784
0.410321
0.493452
0.495818
0.422626
0.496166
0.492531
0.367796
0.493667
0.417051
0.421502
0.494382
0.168154
0.416871
0.494826
0.41497
0.495947
0.496238
0.477286
0.407024
0.40912
0.418162
0.422928
0.406929
0.422907
0.495654
0.415478
0.493908
0.495518
0.495345
0.493046
0.495563
0.420247
0.495799
0.307551
0.49565
0.296958
0.495471
0.492611
0.491428
0.496534
0.492144
0.418108
0.356336
0.355884
0.417001
0.419298
0.496029
0.199101
0.201857
0.400583
0.399832
0.494363
0.49555
0.494565
0.419978
0.490784
0.495487
0.411239
0.366211
0.494688
0.495572
0.41841
0.495797
0.235152
0.260576
0.4969
0.496351
0.496317
0.366489
0.492805
0.4957
0.493684
0.4663
0.467619
0.497943
0.49242
0.49537
0.160625
0.386383
0.386275
0.413238
0.366128
0.493242
0.494035
0.491643
0.491609
0.493787
0.474802
0.495393
0.410173
0.193505
0.493773
0.494001
0.496059
0.414109
0.493315
0.495259
0.416431
0.395888
0.395946
0.466624
0.492271
0.495694
0.493463
0.418374
0.405621
0.493981
0.403457
0.496579
0.488987
0.492887
0.414666
0.491106
0.421437
0.416273
0.492644
0.496026
0.415477
0.419706
0.415748
0.490869
0.493397
0.487777
0.491672
0.495573
0.495538
0.493108
0.493633
0.493482
0.406489
0.492067
0.495333
0.491783
0.403773
0.495756
0.49619
0.487365
0.495302
0.493281
0.495266
0.353416
0.496102
0.493517
0.492339
0.492622
0.494997
0.409447
0.496485
0.420946
0.418972
0.494482
0.494236
0.493993
0.491841
0.495401
0.493084
0.495907
0.493649
0.417888
0.493754
0.416239
0.410644
0.411288
0.414937
0.495508
0.49131
0.494734
0.413297
0.492819
0.492895
0.492366
0.490185
0.493907
0.493167
0.410076
0.491879
0.48784
0.493651
0.490471
0.411272
0.495806
0.403051
0.495772
0.494027
0.496392
0.475723
0.491358
0.224798
0.221281
0.422546
0.487802
0.491472
0.492922
0.410674
0.409474
0.496136
0.492728
0.495793
0.490062
0.491137
0.495083
0.494789
0.494758
0.494013
0.492877
0.491578
0.492465
0.399256
0.496084
0.392638
0.24376
0.412672
0.413625
0.410047
0.414078
0.399175
0.493248
0.39277
0.492431
0.482783
0.486667
0.491043
0.492094
0.492728
0.417042
0.479545
0.495809
0.494587
0.491564
0.479565
0.490801
0.472064
0.414352
0.495369
0.492162
0.42218
0.495552
0.365382
0.4231
0.495397
0.486993
0.49549
0.491627
0.354463
0.419353
0.495775
0.467369
0.490745
0.49306
0.491589
0.493334
0.491222
0.495415
0.489835
0.255639
0.49422
0.415211
0.414196
0.417463
0.480221
0.490291
0.4957
0.491311
0.492444
0.49187
0.496461
0.491027
0.465241
0.489566
0.490724
0.239174
0.467704
0.49123
0.495262
0.404957
0.490532
0.488296
0.487456
0.414595
0.491583
0.420131
0.431082
0.417877
0.490558
0.493179
0.489488
0.494939
0.493169
0.435975
0.495853
0.418953
0.491851
0.416997
0.496747
0.410907
0.495455
0.49107
0.495885
0.49633
0.490325
0.424938
0.495253
0.41301
0.492152
0.4149
0.418223
0.415703
0.489886
0.408591
0.495631
0.433163
0.486522
0.493269
0.413761
0.490924
0.490496
0.496119
0.495163
0.398757
0.413487
0.406968
0.414279
0.490566
0.493982
0.493933
0.413156
0.49113
0.491909
0.406962
0.420115
0.310441
0.294834
0.489918
0.439817
0.416387
0.197387
0.201918
0.400593
0.489682
0.42262
0.492707
0.490127
0.489228
0.495338
0.489883
0.488228
0.442367
0.421472
0.257842
0.488541
0.411186
0.488806
0.492417
0.413835
0.494424
0.466211
0.41799
0.468625
0.428066
0.41288
0.448895
0.366464
0.444913
0.489544
0.419383
0.4079
0.418565
0.4948
0.442431
0.41297
0.195015
0.410917
0.492054
0.408843
0.421208
0.492261
0.416638
0.49126
0.495132
0.412293
0.405683
0.412892
0.403911
0.488196
0.489492
0.418912
0.49211
0.494243
0.446611
0.412569
0.353804
0.412994
0.409905
0.486663
0.42265
0.4105
0.489413
0.49694
0.491051
0.408868
0.410247
0.408234
0.497475
0.428057
0.408682
0.493435
0.408259
0.489849
0.411946
0.409091
0.474765
0.488858
0.221289
0.226113
0.451946
0.45395
0.48942
0.485432
0.413167
0.408764
0.382094
0.381827
0.454041
0.495908
0.24569
0.493511
0.491608
0.489459
0.493853
0.493301
0.455966
0.412921
0.407167
0.490742
0.408127
0.487034
0.492627
0.410348
0.487249
0.410457