# vtk DataFile Version 1.0
unstructured grid
ascii
DATASET UNSTRUCTURED_GRID
points 8094 float
-0.25 0.0574735 0
0.5 0.0546937 0
0.5 -0.0546937 0
-0.25 -0.0574735 0
-0.25 0.0574735 0.01
0.5 0.0546937 0.01
0.5 -0.0546937 0.01
-0.25 -0.0574735 0.01
-0.246045 0.0569295 0
-0.242089 0.0563854 0
-0.238136 0.0558289 0
-0.234184 0.0552582 0
-0.230232 0.0546875 0
-0.226284 0.0540912 0
-0.222337 0.0534933 0
-0.218391 0.0528841 0
-0.214448 0.0522585 0
-0.210504 0.0516328 0
-0.206565 0.0509829 0
-0.202626 0.0503294 0
-0.198689 0.0496667 0
-0.194755 0.0489856 0
-0.190821 0.0483046 0
-0.18689 0.0476022 0
-0.182961 0.0468942 0
-0.179033 0.0461799 0
-0.175108 0.0454463 0
-0.171183 0.0447127 0
-0.167262 0.0439627 0
-0.163342 0.0432056 0
-0.159422 0.0424455 0
-0.155506 0.041668 0
-0.15159 0.0408904 0
-0.147675 0.0401031 0
-0.143762 0.0393092 0
-0.13985 0.0385149 0
-0.135939 0.0377103 0
-0.132028 0.0369056 0
-0.128117 0.0361005 0
-0.124207 0.0352949 0
-0.120296 0.0344893 0
-0.116386 0.0336836 0
-0.112475 0.032878 0
-0.108563 0.0320794 0
-0.104649 0.0312931 0
-0.100735 0.0305068 0
-0.0968152 0.029745 0
-0.0928949 0.0289889 0
-0.0889722 0.0282446 0
-0.0850433 0.0275341 0
-0.0811144 0.0268235 0
-0.0771778 0.0261578 0
-0.0732381 0.0255098 0
-0.0692962 0.0248759 0
-0.0653442 0.0243073 0
-0.0613923 0.0237386 0
-0.0574324 0.0232306 0
-0.0534681 0.0227556 0
-0.0495024 0.0222934 0
-0.0455272 0.0219207 0
-0.041552 0.0215481 0
-0.0375717 0.0212385 0
-0.0335881 0.0209694 0
-0.029604 0.0207098 0
-0.0256151 0.0205369 0
-0.0216262 0.0203639 0
-0.0176357 0.0202396 0
-0.0136441 0.0201487 0
-0.00965243 0.0200635 0
-0.00565987 0.0200372 0
-0.00166732 0.020011 0
0.00232526 0.0200121 0
0.00631785 0.0200329 0
0.0103104 0.0200563 0
0.0143027 0.0201109 0
0.018295 0.0201654 0
0.022287 0.0202345 0
0.0262788 0.0203144 0
0.0302706 0.0203957 0
0.034262 0.0204956 0
0.0382534 0.0205955 0
0.0422446 0.0207045 0
0.0462355 0.0208207 0
0.0502265 0.0209377 0
0.054217 0.0210676 0
0.0582075 0.0211975 0
0.0621978 0.0213339 0
0.0661879 0.0214757 0
0.0701781 0.021618 0
0.0741678 0.0217703 0
0.0781575 0.0219227 0
0.0821471 0.0220801 0
0.0861364 0.022242 0
0.0901258 0.0224041 0
0.0941148 0.0225747 0
0.0981038 0.0227453 0
0.102093 0.0229202 0
0.106081 0.023099 0
0.11007 0.0232779 0
0.114058 0.0234644 0
0.118046 0.0236509 0
0.122035 0.0238411 0
0.126022 0.024035 0
0.13001 0.0242288 0
0.133998 0.0244298 0
0.137986 0.0246308 0
0.141973 0.0248352 0
0.14596 0.025043 0
0.149947 0.0252509 0
0.153934 0.0254654 0
0.157921 0.02568 0
0.161908 0.0258978 0
0.165894 0.026119 0
0.169881 0.0263402 0
0.173867 0.0265678 0
0.177853 0.0267956 0
0.181839 0.0270264 0
0.185825 0.0272607 0
0.189811 0.0274951 0
0.193796 0.0277356 0
0.197781 0.0279764 0
0.201767 0.02822 0
0.205752 0.0284673 0
0.209737 0.0287146 0
0.213721 0.0289679 0
0.217706 0.0292217 0
0.22169 0.0294782 0
0.225674 0.0297385 0
0.229658 0.0299988 0
0.233642 0.0302651 0
0.237626 0.0305319 0
0.241609 0.0308014 0
0.245593 0.0310748 0
0.249576 0.0313482 0
0.253559 0.0316276 0
0.257542 0.0319077 0
0.261524 0.0321904 0
0.265507 0.0324772 0
0.269489 0.032764 0
0.273471 0.0330568 0
0.277453 0.0333504 0
0.281434 0.0336466 0
0.285416 0.0339471 0
0.289397 0.0342476 0
0.293378 0.034554 0
0.297359 0.0348615 0
0.301339 0.0351714 0
0.305319 0.0354859 0
0.3093 0.0358005 0
0.313279 0.036121 0
0.317259 0.0364427 0
0.321239 0.0367667 0
0.325218 0.0370957 0
0.329197 0.0374248 0
0.333175 0.0377597 0
0.337154 0.0380961 0
0.341132 0.0384347 0
0.34511 0.0387786 0
0.349088 0.0391226 0
0.353065 0.0394724 0
0.357042 0.0398239 0
0.361019 0.0401775 0
0.364995 0.0405368 0
0.368972 0.0408961 0
0.372948 0.0412613 0
0.376924 0.0416285 0
0.380899 0.0419975 0
0.384874 0.0423727 0
0.388849 0.0427479 0
0.392823 0.0431289 0
0.396798 0.0435123 0
0.400772 0.0438973 0
0.404745 0.044289 0
0.408718 0.0446807 0
0.412691 0.0450781 0
0.416664 0.0454782 0
0.420636 0.0458797 0
0.424608 0.0462883 0
0.42858 0.046697 0
0.432551 0.0471114 0
0.436521 0.0475289 0
0.440492 0.0479474 0
0.444462 0.0483738 0
0.448432 0.0488001 0
0.452401 0.0492319 0
0.45637 0.0496673 0
0.460338 0.0501035 0
0.464306 0.0505482 0
0.468274 0.0509928 0
0.472241 0.0514427 0
0.476208 0.0518968 0
0.480175 0.0523512 0
0.48414 0.0528148 0
0.488106 0.0532784 0
0.492071 0.0537471 0
0.496036 0.0542204 0
0.5 0.050787 0
0.5 0.0468803 0
0.5 0.0429736 0
0.5 0.0390669 0
0.5 0.0351602 0
0.5 0.0312535 0
0.5 0.0273468 0
0.5 0.0234402 0
0.5 0.0195335 0
0.5 0.0156268 0
0.5 0.0117201 0
0.5 0.00781339 0
0.5 0.00390669 0
0.5 1.43781e-13 0
0.5 -0.00390669 0
0.5 -0.00781339 0
0.5 -0.0117201 0
0.5 -0.0156268 0
0.5 -0.0195335 0
0.5 -0.0234402 0
0.5 -0.0273468 0
0.5 -0.0312535 0
0.5 -0.0351602 0
0.5 -0.0390669 0
0.5 -0.0429736 0
0.5 -0.0468803 0
0.5 -0.050787 0
0.496036 -0.0542204 0
0.492071 -0.0537471 0
0.488106 -0.0532784 0
0.48414 -0.0528148 0
0.480175 -0.0523512 0
0.476208 -0.0518968 0
0.472241 -0.0514427 0
0.468274 -0.0509928 0
0.464306 -0.0505482 0
0.460338 -0.0501035 0
0.45637 -0.0496673 0
0.452401 -0.0492319 0
0.448432 -0.0488001 0
0.444462 -0.0483738 0
0.440492 -0.0479474 0
0.436521 -0.0475289 0
0.432551 -0.0471114 0
0.42858 -0.046697 0
0.424608 -0.0462883 0
0.420636 -0.0458797 0
0.416664 -0.0454782 0
0.412691 -0.0450781 0
0.408718 -0.0446807 0
0.404745 -0.044289 0
0.400772 -0.0438973 0
0.396798 -0.0435123 0
0.392823 -0.0431289 0
0.388849 -0.0427479 0
0.384874 -0.0423727 0
0.380899 -0.0419975 0
0.376924 -0.0416285 0
0.372948 -0.0412613 0
0.368972 -0.0408961 0
0.364995 -0.0405368 0
0.361019 -0.0401775 0
0.357042 -0.0398239 0
0.353065 -0.0394724 0
0.349088 -0.0391226 0
0.34511 -0.0387786 0
0.341132 -0.0384347 0
0.337154 -0.0380961 0
0.333175 -0.0377597 0
0.329197 -0.0374248 0
0.325218 -0.0370957 0
0.321239 -0.0367667 0
0.317259 -0.0364427 0
0.313279 -0.036121 0
0.3093 -0.0358005 0
0.305319 -0.0354859 0
0.301339 -0.0351714 0
0.297359 -0.0348615 0
0.293378 -0.034554 0
0.289397 -0.0342476 0
0.285416 -0.0339471 0
0.281434 -0.0336466 0
0.277453 -0.0333504 0
0.273471 -0.0330568 0
0.269489 -0.032764 0
0.265507 -0.0324772 0
0.261524 -0.0321904 0
0.257542 -0.0319077 0
0.253559 -0.0316276 0
0.249576 -0.0313482 0
0.245593 -0.0310748 0
0.241609 -0.0308014 0
0.237626 -0.0305319 0
0.233642 -0.0302651 0
0.229658 -0.0299988 0
0.225674 -0.0297385 0
0.22169 -0.0294782 0
0.217706 -0.0292217 0
0.213721 -0.0289679 0
0.209737 -0.0287146 0
0.205752 -0.0284673 0
0.201767 -0.02822 0
0.197781 -0.0279764 0
0.193796 -0.0277356 0
0.189811 -0.0274951 0
0.185825 -0.0272607 0
0.181839 -0.0270264 0
0.177853 -0.0267956 0
0.173867 -0.0265678 0
0.169881 -0.0263402 0
0.165894 -0.026119 0
0.161908 -0.0258978 0
0.157921 -0.02568 0
0.153934 -0.0254654 0
0.149947 -0.0252509 0
0.14596 -0.025043 0
0.141973 -0.0248352 0
0.137986 -0.0246308 0
0.133998 -0.0244298 0
0.13001 -0.0242288 0
0.126022 -0.024035 0
0.122035 -0.0238411 0
0.118046 -0.0236509 0
0.114058 -0.0234644 0
0.11007 -0.0232779 0
0.106081 -0.023099 0
0.102093 -0.0229202 0
0.0981038 -0.0227453 0
0.0941148 -0.0225747 0
0.0901258 -0.0224041 0
0.0861364 -0.022242 0
0.0821471 -0.0220801 0
0.0781575 -0.0219227 0
0.0741678 -0.0217703 0
0.0701781 -0.021618 0
0.0661879 -0.0214757 0
0.0621978 -0.0213339 0
0.0582075 -0.0211975 0
0.054217 -0.0210676 0
0.0502265 -0.0209377 0
0.0462355 -0.0208207 0
0.0422446 -0.0207045 0
0.0382534 -0.0205955 0
0.034262 -0.0204956 0
0.0302706 -0.0203957 0
0.0262788 -0.0203144 0
0.022287 -0.0202345 0
0.018295 -0.0201654 0
0.0143027 -0.0201109 0
0.0103104 -0.0200563 0
0.00631785 -0.0200329 0
0.00232526 -0.0200121 0
-0.00166732 -0.020011 0
-0.00565987 -0.0200372 0
-0.00965243 -0.0200635 0
-0.0136441 -0.0201487 0
-0.0176357 -0.0202396 0
-0.0216262 -0.0203639 0
-0.0256151 -0.0205369 0
-0.029604 -0.0207098 0
-0.0335881 -0.0209694 0
-0.0375717 -0.0212385 0
-0.041552 -0.0215481 0
-0.0455272 -0.0219207 0
-0.0495024 -0.0222934 0
-0.0534681 -0.0227556 0
-0.0574324 -0.0232306 0
-0.0613923 -0.0237386 0
-0.0653442 -0.0243073 0
-0.0692962 -0.0248759 0
-0.0732381 -0.0255098 0
-0.0771778 -0.0261578 0
-0.0811144 -0.0268235 0
-0.0850433 -0.0275341 0
-0.0889722 -0.0282446 0
-0.0928949 -0.0289889 0
-0.0968152 -0.029745 0
-0.100735 -0.0305068 0
-0.104649 -0.0312931 0
-0.108563 -0.0320794 0
-0.112475 -0.032878 0
-0.116386 -0.0336836 0
-0.120296 -0.0344893 0
-0.124207 -0.0352949 0
-0.128117 -0.0361005 0
-0.132028 -0.0369056 0
-0.135939 -0.0377103 0
-0.13985 -0.0385149 0
-0.143762 -0.0393092 0
-0.147675 -0.0401031 0
-0.15159 -0.0408904 0
-0.155506 -0.041668 0
-0.159422 -0.0424455 0
-0.163342 -0.0432056 0
-0.167262 -0.0439627 0
-0.171183 -0.0447127 0
-0.175108 -0.0454463 0
-0.179033 -0.0461799 0
-0.182961 -0.0468942 0
-0.18689 -0.0476022 0
-0.190821 -0.0483046 0
-0.194755 -0.0489856 0
-0.198689 -0.0496667 0
-0.202626 -0.0503294 0
-0.206565 -0.0509829 0
-0.210504 -0.0516328 0
-0.214448 -0.0522585 0
-0.218391 -0.0528841 0
-0.222337 -0.0534933 0
-0.226284 -0.0540912 0
-0.230232 -0.0546875 0
-0.234184 -0.0552582 0
-0.238136 -0.0558289 0
-0.242089 -0.0563854 0
-0.246045 -0.0569295 0
-0.25 -0.0535098 0
-0.25 -0.0495461 0
-0.25 -0.0455824 0
-0.25 -0.0416187 0
-0.25 -0.0376551 0
-0.25 -0.0336914 0
-0.25 -0.0297277 0
-0.25 -0.025764 0
-0.25 -0.0218003 0
-0.25 -0.0178366 0
-0.25 -0.0138729 0
-0.25 -0.00990922 0
-0.25 -0.00594553 0
-0.25 -0.00198184 0
-0.25 0.00198184 0
-0.25 0.00594553 0
-0.25 0.00990922 0
-0.25 0.0138729 0
-0.25 0.0178366 0
-0.25 0.0218003 0
-0.25 0.025764 0
-0.25 0.0297277 0
-0.25 0.0336914 0
-0.25 0.0376551 0
-0.25 0.0416187 0
-0.25 0.0455824 0
-0.25 0.0495461 0
-0.25 0.0535098 0
-0.246045 0.0569295 0.01
-0.242089 0.0563854 0.01
-0.238136 0.0558289 0.01
-0.234184 0.0552582 0.01
-0.230232 0.0546875 0.01
-0.226284 0.0540912 0.01
-0.222337 0.0534933 0.01
-0.218391 0.0528841 0.01
-0.214448 0.0522585 0.01
-0.210504 0.0516328 0.01
-0.206565 0.0509829 0.01
-0.202626 0.0503294 0.01
-0.198689 0.0496667 0.01
-0.194755 0.0489856 0.01
-0.190821 0.0483046 0.01
-0.18689 0.0476022 0.01
-0.182961 0.0468942 0.01
-0.179033 0.0461799 0.01
-0.175108 0.0454463 0.01
-0.171183 0.0447127 0.01
-0.167262 0.0439627 0.01
[...]
CELL_DATA 7657
SCALARS rho float
LOOKUP_TABLE default
0.478217
0.369836
0.394584
0.173882
0.495281
0.360709
0.258737
0.426116
0.336301
0.499156
0.499226
0.424772
0.304923
0.425549
0.494569
0.489397
0.494506
0.403341
0.403273
0.431234
0.493813
0.404555
0.360531
0.403244
0.412296
0.420451
0.186942
0.312164
0.495984
0.361797
0.239703
0.412296
0.357219
0.476208
0.476656
0.24157
0.361864
0.359586
0.481449
0.212839
0.394014
0.335158
0.159907
0.353284
0.393661
0.395765
0.265242
0.360017
0.412323
0.477838
0.351721
0.172836
0.4959
0.496823
0.256869
0.364273
0.494091
0.492233
0.452848
0.238026
0.412677
0.392619
0.413727
0.414026
0.499916
0.499932
0.30457
0.368692
0.498428
0.448619
0.395633
0.306654
0.162957
0.495965
0.474908
0.358604
0.404516
0.357697
0.474381
0.310354
0.356609
0.428012
0.431203
0.394208
0.395633
0.457829
0.395118
0.447622
0.420902
0.188387
0.49977
0.499814
0.454551
0.497736
0.216687
0.460481
0.459199
0.364335
0.392941
0.216532
0.403784
0.409689
0.367843
0.4934
0.267046
0.345972
0.225299
0.370705
0.31201
0.493379
0.239949
0.369756
0.346176
0.431217
0.398741
0.436532
0.371817
0.211111
0.488752
0.360521
0.500637
0.500619
0.224184
0.365012
0.430529
0.425257
0.424304
0.160069
0.366831
0.158994
0.176347
0.406401
0.364985
0.164117
0.43101
0.227706
0.489728
0.357383
0.406966
0.407291
0.22564
0.190598
0.209614
0.214685
0.402648
0.493734
0.353991
0.370932
0.391989
0.225331
0.206221
0.498553
0.390344
0.159167
0.493815
0.368955
0.368763
0.405357
0.431111
0.229649
0.405753
0.492012
0.420023
0.43514
0.389155
0.367613
0.481493
0.347067
0.398568
0.48918
0.393577
0.34799
0.406126
0.207882
0.245898
0.243518
0.167218
0.460466
0.430273
0.207968
0.214604
0.310762
0.408476
0.408562
0.301852
0.451038
0.324869
0.166334
0.422994
0.460417
0.495904
0.497943
0.431104
0.465428
0.42269
0.366155
0.43138
0.491681
0.243845
0.397476
0.403025
0.409255
0.461953
0.445192
0.186649
0.496926
0.315844
0.268914
0.473982
0.46492
0.38333
0.391823
0.388845
0.430996
0.393138
0.165127
0.25052
0.456432
0.370797
0.39727
0.370033
0.371843
0.498863
0.369522
0.31816
0.358457
0.318118
0.197819
0.358069
0.498903
0.387064
0.387278
0.308946
0.493709
0.487857
0.431256
0.447169
0.40982
0.409912
0.491416
0.382794
0.203491
0.46212
0.357165
0.473036
0.467769
0.324974
0.466858
0.327515
0.356767
0.242008
0.168531
0.371369
0.475141
0.248762
0.166157
0.372345
0.495235
0.496703
0.369511
0.363975
0.496597
0.488337
0.398346
0.252653
0.395138
0.442919
0.202007
0.402927
0.206515
0.294613
0.189687
0.190927
0.431691
0.472395
0.398947
0.32238
0.369924
0.368919
0.423989
0.364928
0.416372
0.197606
0.219926
0.169948
0.240315
0.219945
0.17748
0.395523
0.400781
0.399439
0.165132
0.19612
0.496522
0.371646
0.186341
0.481793
0.428391
0.436361
0.399793
0.45926
0.497352
0.20485
0.322576
0.186916
0.456198
0.254158
0.164241
0.402125
0.37047
0.424385
0.440938
0.49118
0.327503
0.41205
0.490998
0.496468
0.495269
0.370152
0.416621
0.273002
0.359998
0.496418
0.449204
0.48916
0.495978
0.32303
0.387355
0.492652
0.400408
0.345919
0.496215
0.488306
0.375463
0.427563
0.408282
0.370907
0.197847
0.411688
0.495872
0.42216
0.246178
0.376912
0.488382
0.431544
0.247935
0.495867
0.374399
0.396336
0.492699
0.362009
0.405304
0.431107
0.405632
0.255044
0.411364
0.406451
0.271104
0.411613
0.26706
0.374979
0.404141
0.396558
0.438503
0.494216
0.244408
0.421806
0.214146
0.454674
0.457927
0.363207
0.425935
0.43099
0.430981
0.312613
0.306873
0.405541
0.407697
0.401123
0.487479
0.389837
0.402444
0.191083
0.413568
0.496236
0.498515
0.477422
0.424787
0.421207
0.49224
0.375307
0.371184
0.370616
0.431212
0.419554
0.449456
0.249569
0.348855
0.492152
0.36189
0.431192
0.431462
0.402187
0.49739
0.214791
0.425683
0.489919
0.292006
0.492444
0.494556
0.406061
0.363133
0.413763
0.174505
0.462153
0.43084
0.393036
0.427434
0.175098
0.364783
0.360178
0.427088
0.275822
0.384875
0.370217
0.399296
0.459545
0.429874
0.160918
0.409666
0.433906
0.253742
0.379653
0.431423
0.416954
0.487075
0.497321
0.406849
0.488532
0.402924
0.360234
0.485852
0.23486
0.496168
0.423967
0.389979
0.382933
0.2714
0.494453
0.434838
0.412007
0.411404
0.377142
0.264941
0.321301
0.460393
0.260979
0.490018
0.488658
0.4629
0.477065
0.368225
0.400937
0.458488
0.387049
0.430066
0.342844
0.350583
0.256977
0.252769
0.496146
0.377726
0.422479
0.47895
0.493487
0.40892
0.417154
0.359176
0.223492
0.49587
0.43933
0.496023
0.405166
0.405944
0.390511
0.369319
0.200499
0.233483
0.498377
0.414437
0.491746
0.412638
0.425362
0.464254
0.424324
0.284017
0.174506
0.35641
0.476671
0.47813
0.427867
0.427404
0.431278
0.429555
0.447459
0.451204
0.380107
0.163073
0.437962
0.487283
0.198981
0.416393
0.408507
0.491664
0.403676
0.429076
0.48478
0.404884
0.482663
0.363001
0.489819
0.430775
0.4271
0.178856
0.423555
0.428343
0.497174
0.394731
0.497535
0.413194
0.374222
0.487798
0.426911
0.422105
0.39256
0.408713
0.393524
0.427402
0.252181
0.401769
0.389709
0.408898
0.42999
0.424158
0.417456
0.430332
0.407983
0.162105
0.363096
0.407611
0.488051
0.175623
0.420301
0.419313
0.483244
0.486612
0.215622
0.422756
0.349523
0.476842
0.487496
0.35411
0.429643
0.289449
0.407254
0.485624
0.497988
0.430455
0.241857
0.473384
0.460225
0.355637
0.405269
0.364236
0.455488
0.277785
0.426426
0.432114
0.423828
0.425008
0.32343
0.401583
0.456855
0.369018
0.407089
0.418032
0.414704
0.436311
0.498381
0.288016
0.42172
0.426568
0.269445
0.429619
0.453584
0.36884
0.245506
0.325685
0.390372
0.425148
0.463137
0.493227
0.370022
0.421392
0.426609
0.427047
0.419792
0.465778
0.371649
0.493735
0.420035
0.424652
0.424421
0.485746
0.391022
0.487875
0.431661
0.428989
0.425689
0.426947
0.234471
0.49662
0.496571
0.429517
0.427865
0.414476
0.367277
0.435097
0.438288
0.333471
0.403538
0.368016
0.496576
0.414688
0.158702
0.428642
0.423875
0.413048
0.496205
0.403467
0.496197
0.408758
0.41113
0.283827
0.180039
0.430031
0.412602
0.415024
0.400792
0.425538
0.485962
0.415232
0.395507
0.429215
0.431824
0.422632
0.192372
0.40835
0.413511
0.413225
0.222616
0.41557
0.488548
0.428476
0.413512
0.406154
0.426385
0.426022
0.415782
0.393711
0.42965
0.457127
0.416269
0.488644
0.171713
0.391929
0.386331
0.388238
0.431482
0.416108
0.390363
0.413816
0.397172
0.424296
0.426919
0.416314
0.373718
0.17531
0.336438
0.232894
0.469344
0.425941
0.423342
0.414113
0.407509
0.423227
0.430757
0.321594
0.494866
0.494516
0.27518
0.406722
0.323006
0.350313
0.271724
0.352345
0.416651
0.327693
0.416869
0.428977
0.429156
0.171257
0.42563
0.496469
0.404916
0.285725
0.488401
0.497109
0.463338
0.419757
0.295343
0.394612
0.428714
0.428781
0.495794
0.414439
0.419158
0.496347
0.238234
0.453621
0.412306
0.495163
0.165323
0.407826
0.42296
0.431232
0.350338
0.418508
0.429056
0.413291
0.414096
0.383563
0.495078
0.451982
0.252162
0.428606
0.350795
0.343344
0.223135
0.419119
0.497243
0.286615
0.414391
0.484447
0.498345
0.494343
0.49554
0.21331
0.496038
0.496213
0.377595
0.495674
0.430533
0.412572
0.413771
0.427231
0.371777
0.343597
0.413755
0.424174
0.405304
0.40493
0.486999
0.338816
0.495484
0.42344
0.486585
0.494122
0.495347
0.38416
0.297054
0.413761
0.211188
0.428562
0.268535
0.431716
0.495301
0.162584
0.45559
0.408432
0.427793
0.270403
0.422225
0.414711
0.392578
0.487952
0.428098
0.44989
0.400431
0.413927
0.494728
0.228033
0.290248
0.423042
0.406798
0.453409
0.4534
0.353219
0.494923
0.4265
0.464935
0.316635
0.292829
0.351317
0.276792
0.494539
0.431283
0.349681
0.428518
0.492711
0.431304
0.36088
0.430842
0.430205
0.267128
0.460277
0.422656
0.212633
0.432982
0.284673
0.429393
0.42168
0.211232
0.419861
0.430053
0.247919
0.486099
0.431616
0.494027
0.412625
0.430401
0.417959
0.412003
0.497794
0.496388
0.493825
0.396686
0.448129
0.460426
0.158593
0.49421
0.49657
0.227902
0.34201
0.214037
0.415585
0.432674
0.496297
0.432923
0.492368
0.49414
0.429905
0.49209
0.494365
0.160053
0.414733
0.429481
0.224951
0.493562
0.270484
0.340867
0.496416
0.295068
0.420879
0.493849
0.212497
0.223314
0.494885
0.494012
0.427151
0.494614
0.423635
0.444539
0.422373
0.333931
0.327807
0.339597
0.426439
0.426453
0.494652
0.31021
0.415283
0.352319
0.494075
0.494351
0.493793
0.494312
0.417705
0.493278
0.463156
0.492994
0.493513
0.489488
0.429899
0.489851
0.200675
0.415852
0.197876
0.463365
0.253667
0.354223
0.208138
0.226752
0.441151
0.441265
0.495836
0.42426
0.493234
0.423806
0.351821
0.45918
0.431288
0.422863
0.495952
0.421144
0.44576
0.216304
0.492957
0.441622
0.441505
0.304527
0.488949
0.422509
0.421627
0.196245
0.451513
0.451495
0.428662
0.349794
0.352186
0.292692
0.214838
0.496311
0.431932
0.427634
0.405679
0.217959
0.209853
0.430957
0.42313
0.392079
0.199158
0.309966
0.310126
0.313789
0.421787
0.2294
0.387988
0.425569
0.239584
0.412899
0.491588
0.422437
0.427587
0.369856
0.355101
0.430248
0.20807
0.465337
0.421191
0.414198
0.477602
0.479901
0.414243
0.431463
0.469804
0.190758
0.415059
0.427097
0.356953
0.241374
0.430308
0.49252
0.421957
0.422128
0.414451
0.415013
0.430087
0.418476
0.409883
0.194703
0.216424
0.492558
0.247289
0.430707
0.458501
0.49598
0.496738
0.41184
0.405228
0.431092
0.423854
0.431613
0.419842
0.491887
0.420643
0.414048
0.430597
0.214859
0.430481
0.494586
0.420275
0.414001
0.296825
0.495707
0.425044
0.423975
0.304142
0.303149
0.348123
0.422385
0.491264
0.430899
0.390665
0.397899
0.239126
0.200592
0.403708
0.420217
0.491733
0.25186
0.416417
0.264834
0.23174
0.42948
0.495805
0.416043
0.49601
0.397493
0.397512
0.389701
0.495754
0.403376
0.431913
0.421269
0.403413
0.296794
0.390611
0.477387
0.372773
0.495916
0.192173
0.356033
0.494091
0.496412
0.428264
0.491935
0.49399
0.491205
0.428323
0.261976
0.190874
0.404523
0.495713
0.321989
0.425957
0.367928
0.479094
0.427149
0.351021
0.410183
0.430998
0.408752
0.430533
0.421873
0.493817
0.426166
0.422202
0.413912
0.495772
0.416147
0.477523
0.357899
0.413674
0.249067
0.41854
0.464237
0.191938
0.494823
0.46816
0.470837
0.421928
0.358803
0.430991
0.267125
0.219509
0.264066
0.430959
0.421031
0.424367
0.428134
0.214042
0.490873
0.423353
0.418193
0.241438
0.212665
0.426636
0.487461
0.495621
0.419848
0.425458
0.196192
0.421553
0.36734
0.193514
0.428444
0.416986
0.383622
0.431161
0.206308
0.427795
0.49641
0.474874
0.42055
0.475756
0.43132
0.489342
0.430255
0.495906
0.490429
0.190422
0.39146
0.392096
0.490478
0.493027
0.418184
0.361392
0.425689
0.490079
0.425936
0.236626
0.488624
0.43065
0.421093
0.216241
0.237378
0.421313
0.247443
0.355123
0.221415
0.312382
0.311748
0.35609
0.354141
0.416714
0.233283
0.495691
0.415977
0.496728
0.429947
0.253728
0.4233
0.428975
0.423593
0.223074
0.43004
0.494771
0.425188
0.424087
0.468321
0.430406
0.240772
0.249999
0.44311
0.443155
0.430095
0.49487
0.240869
0.423851
0.495542
0.430797
0.430805
0.408038
0.403765
0.496487
0.462317
0.170414
0.260194
0.42883
0.236737
0.422464
0.26194
0.374818
0.429694
0.415606
0.425659
0.42791
0.410139
0.410081
0.287341
0.49622
0.192026
0.4966
0.42231
0.430675
0.492428
0.43078
0.490035
0.404485
0.276842
0.250956
0.492559
0.359735
0.492811
0.427569
0.427913
0.195834
0.495987
0.49179
0.326259
0.428564
0.256158
0.216296
0.41693
0.492319
0.257323
0.368917
0.295732
0.229204
0.476551
0.415004
0.478214
0.474759
0.415672
0.409529
0.409705
0.189281
0.415082
0.430346
0.430484
0.227529
0.408987
0.423782
0.335325
0.248912
0.426119
0.414506
0.425255
0.429729
0.428809
0.430424
0.413838
0.49653
0.413848
0.383715
0.402826
0.418911
0.418275
0.415958
0.245304
0.425129
0.401008
0.401348
0.490286
0.428093
0.419476
0.497412
0.427165
0.407323
0.424524
0.418619
0.489675
0.161464
0.419279
0.161066
0.490819
0.401852
0.253699
0.481089
0.391659
0.391465
0.43016
0.429306
0.369178
0.430965
0.428154
0.495617
0.379256
0.379328
0.298314
0.430368
0.415665
0.428785
0.362459
0.430724
0.428046
0.416892
0.418535
0.429605
0.469294
0.470655
0.366369
0.428611
0.424406
0.429987
0.34635
0.349119
0.351353
0.40907
0.423727
0.428329
0.42926
0.430943
0.409782
0.181144
0.409731
0.408381
0.429817
0.290482
0.425309
0.368336
0.429166
0.383375
0.383447
0.41968
0.492337
0.426604
0.236487
0.495726
0.430604
0.212848
0.39475
0.496437
0.491822
0.403731
0.254279
0.301448
0.307389
0.394044
0.419149
0.427658
0.411013
0.40755
0.401368
0.430255
0.410715
0.399406
0.401106
0.405039
0.429232
0.409238
0.426672
0.200409
0.401973
0.493275
0.492081
0.418502
0.424702
0.405817
0.424144
0.4291
0.424953
0.194617
0.401366
0.428499
0.42837
0.427211
0.429391
0.428752
0.425617
0.287287
0.380717
0.380791
0.427682
0.423982
0.428328
0.492222
0.262185
0.424481
0.413933
0.429743
0.415513
0.167152
0.492352
0.420499
0.226544
0.488135
0.428111
0.27713
0.427427
0.159553
0.399378
0.234768
0.235543
0.159403
0.159223
0.413458
0.423179
0.495931
0.495952
0.161676
0.427871
0.430624
0.362533
0.379039
0.416266
0.24535
0.424204
0.424495
0.478332
0.216281
0.192338
0.360668
0.429638
0.428964
0.428413
0.429256
0.497481
0.418894
0.419593
0.420341
0.42774
0.41824
0.428286
0.424627
0.383064
0.492681
0.460878
0.496471
0.425772
0.424925
0.429419
0.42324
0.389177
0.422084
0.419319
0.407659
0.425848
0.422192
0.419295
0.497078
0.421145
0.414394
0.490642
0.400844
0.405865
0.496509
0.422055
0.43021
0.492154
0.217854
0.427326
0.489268
0.422313
0.49566
0.42098
0.42282
0.257238
0.495897
0.488858
0.49023
0.376284
0.376281
0.418817
0.258939
0.497239
0.425424
0.497975
0.348495
0.426177
0.422
0.197259
0.368238
0.489638
0.386238
0.200359
0.497878
0.203235
0.498707
0.498668
0.497802
0.204434
0.415912
0.497546
0.423844
0.496136
0.493807
0.425271
0.430202
0.473807
0.189516
0.257864
0.49723
0.358569
0.420455
0.262104
0.187084
0.18803
0.421625
0.469863
0.204944
0.177182
0.48824
0.497512
0.428201
0.462415
0.419695
0.165787
0.498349
0.498317
0.492113
0.42606
0.49195
0.425826
0.18422
0.413501
0.413562
0.41842
0.495951
0.426723
0.496477
0.497081
0.42726
0.203113
0.430665
0.430353
0.222944
0.245298
0.242563
0.364461
0.420796
0.49173
0.469934
0.42127
0.420095
0.421665
0.417282
0.421504
0.497717
0.409062
0.497151
0.209432
0.463653
0.418543
0.162444
0.161626
0.491438
0.412814
0.493954
0.422905
0.421427
0.419363
0.410033
0.40982
0.422891
0.422309
0.427847
0.495658
0.34275
0.421485
0.417889
0.422133
0.347896
0.34965
0.427804
0.425187
0.419221
0.429097
0.421769
0.4951
0.428399
0.361402
0.495592
0.353331
0.352027
0.423357
0.414686
0.425935
0.417983
0.378445
0.378552
0.369253
0.383978
0.384058
0.243645
0.416347
0.496847
0.362296
0.417906
0.421861
0.480507
0.417622
0.391051
0.390844
0.400549
0.400839
0.411078
0.423649
0.395238
0.408597
0.408229
0.495557
0.417381
0.404152
0.487176
0.419945
0.385897
0.385724
0.410951
0.418861
0.41131
0.396684
0.396713
0.42225
0.417206
0.407165
0.430806
0.411044
0.216277
0.423525
0.444019
0.49686
0.420721
0.399227
0.41761
0.497577
0.497535
0.497274
0.43033
0.494979
0.493015
0.402252
0.497022
0.364815
0.489237
0.493622
0.497059
0.420626
0.426713
0.427393
0.357115
0.429912
0.430829
0.496246
0.224986
0.226456
0.418161
0.428858
0.398819
0.488566
0.416388
0.418986
0.491324
0.491967
0.430658
0.495496
0.495467
0.429741
0.4912
0.251837
0.255587
0.493812
0.396554
0.362684
0.465098
0.206184
0.496941
0.497005
0.427945
0.495976
0.496309
0.487958
0.421512
0.219531
0.413882
0.495666
0.459263
0.482771
0.496116
0.418932
0.496241
0.239068
0.420076
0.22605
0.407732
0.417498
0.496792
0.222962
0.222796
0.427021
0.388558
0.491032
0.49558
0.488283
0.420385
0.209346
0.417067
0.493413
0.428507
0.496369
0.495289
0.495008
0.420768
0.385622
0.422699
0.495544
0.418787
0.496217
0.421471
0.482124
0.493565
0.424794
0.488532
0.381388
0.38145
0.494702
0.493704
0.495459
0.495335
0.487688
0.495794
0.495899
0.473087
0.425305
0.412227
0.495623
0.496129
0.4264
0.417656
0.421119
0.406193
0.420712
0.49257
0.375509
0.375488
0.496677
0.497097
0.278725
0.497083
0.494509
0.429822
0.417576
0.415392
0.494081
0.494826
0.429627
0.495522
0.49582
0.488011
0.468661
0.493871
0.496241
0.491845
0.49617
0.366251
0.417783
0.482138
0.419218
0.495739
0.495576
0.476626
0.417542
0.420137
0.416805
0.495176
0.485885
0.495884
0.190735
0.357519
0.417848
0.497204
0.492817
0.366385
0.418773
0.493712
0.495356
0.495548
0.158254
0.158146
0.430003
0.405409
0.495752
0.178196
0.41364
0.494585
0.471093
0.420648
0.166781
0.495422
0.413695
0.182974
0.494878
0.412508
0.491569
0.41669
0.428078
0.4958
0.49689
0.41808
0.418158
0.412992
0.493438
0.495818
0.429801
0.496163
0.492515
0.365439
0.493654
0.419758
0.42751
0.494372
0.168212
0.419597
0.494818
0.417297
0.495946
0.496239
0.477249
0.409445
0.411818
0.421267
0.430205
0.409414
0.430282
0.495652
0.417867
0.493896
0.495516
0.495338
0.493031
0.495559
0.424818
0.495799
0.307536
0.495644
0.296948
0.495468
0.492595
0.491408
0.496532
0.492126
0.421097
0.353983
0.353258
0.419598
0.423117
0.496029
0.199137
0.201891
0.402419
0.401572
0.494353
0.495547
0.494556
0.424312
0.490763
0.495484
0.413855
0.363262
0.494679
0.495565
0.421514
0.495798
0.23517
0.260578
0.496902
0.496346
0.496311
0.364421
0.492789
0.495697
0.493672
0.46626
0.467579
0.497944
0.492404
0.495366
0.160689
0.386477
0.386295
0.415705
0.363506
0.493228
0.494023
0.491624
0.491589
0.493775
0.474764
0.495389
0.412498
0.193543
0.493759
0.493989
0.496059
0.4165
0.493301
0.495253
0.418902
0.397144
0.397203
0.466583
0.492254
0.495693
0.493449
0.421588
0.408027
0.493969
0.403418
0.496576
0.488963
0.492872
0.417034
0.491086
0.427359
0.418769
0.492627
0.496026
0.41763
0.423909
0.417997
0.490848
0.493383
0.48775
0.491653
0.495565
0.495529
0.493092
0.49362
0.493469
0.408898
0.492049
0.495328
0.491765
0.40611
0.495755
0.496185
0.487338
0.495294
0.493267
0.49526
0.353385
0.496102
0.493504
0.492322
0.492605
0.49499
0.412149
0.49648
0.426994
0.422568
0.494473
0.494225
0.493982
0.491823
0.495397
0.493068
0.495906
0.493636
0.420845
0.493742
0.418677
0.413302
0.414003
0.417303
0.495503
0.49129
0.494726
0.415446
0.492804
0.492879
0.492349
0.490163
0.493894
0.493152
0.412768
0.491861
0.487813
0.493638
0.490449
0.413888
0.495807
0.405337
0.495772
0.494016
0.496389
0.475686
0.491339
0.224819
0.221302
0.429535
0.487776
0.491453
0.492906
0.413334
0.412183
0.496137
0.492712
0.495788
0.49004
0.491117
0.495076
0.494778
0.494746
0.494001
0.492862
0.491558
0.492448
0.400839
0.496081
0.39346
0.243769
0.414809
0.415764
0.412735
0.416469
0.40081
0.493234
0.393462
0.492414
0.48275
0.486639
0.491022
0.492076
0.492712
0.419831
0.47951
0.49581
0.494576
0.491546
0.47953
0.49078
0.472025
0.416726
0.495366
0.492145
0.428886
0.49555
0.365349
0.431109
0.495391
0.486966
0.495485
0.491607
0.354433
0.423312
0.495774
0.467328
0.490724
0.493045
0.491569
0.49332
0.491203
0.495411
0.489812
0.255642
0.494209
0.417573
0.416262
0.420226
0.480186
0.490269
0.495698
0.491291
0.492426
0.491852
0.496458
0.491006
0.4652
0.489543
0.490704
0.239189
0.467664
0.49121
0.495255
0.407314
0.490511
0.48827
0.487429
0.416561
0.491564
0.424679
0.431039
0.420919
0.490537
0.493165
0.489465
0.49493
0.493154
0.435932
0.495852
0.422694
0.491832
0.419633
0.496745
0.413448
0.495449
0.491049
0.49588
0.49633
0.490303
0.424896
0.495245
0.415466
0.492133
0.417265
0.42133
0.418115
0.489864
0.411299
0.495626
0.43312
0.486494
0.493254
0.416169
0.490904
0.490474
0.496119
0.495154
0.398719
0.41592
0.409497
0.416227
0.490544
0.493969
0.493919
0.415607
0.49111
0.491889
0.409471
0.420073
0.310426
0.294825
0.489895
0.439774
0.418894
0.197424
0.201952
0.402495
0.489659
0.422579
0.49269
0.490105
0.489204
0.495333
0.48986
0.488202
0.442324
0.427429
0.257845
0.488515
0.413695
0.488781
0.4924
0.416249
0.494412
0.46617
0.42107
0.468585
0.428024
0.415361
0.448852
0.363886
0.444869
0.489521
0.423265
0.410559
0.421855
0.49479
0.442388
0.415204
0.195053
0.413553
0.492036
0.411543
0.426841
0.492244
0.419151
0.49124
0.495127
0.414845
0.408079
0.415381
0.403872
0.488169
0.489469
0.422422
0.492092
0.494233
0.446568
0.415086
0.353774
0.415165
0.412679
0.486635
0.422608
0.413168
0.48939
0.49694
0.49103
0.411577
0.413007
0.410915
0.497475
0.428015
0.411441
0.493421
0.410949
0.489826
0.414517
0.411788
0.474727
0.488834
0.22131
0.226132
0.451903
0.453907
0.489396
0.485402
0.415625
0.41145
0.382059
0.381792
0.453998
0.495902
0.245698
0.493498
0.491589
0.489436
0.49384
0.493287
0.455923
0.415384
0.409772
0.49072
0.410793
0.487006
0.492611
0.413142
0.487222
0.413235
0.41514