# vtk DataFile Version 1.0
unstructured grid
ascii
DATASET UNSTRUCTURED_GRID
points 8094 float
-0.25 0.0574735 0
0.5 0.0546937 0
0.5 -0.0546937 0
-0.25 -0.0574735 0
-0.25 0.0574735 0.01
0.5 0.0546937 0.01
0.5 -0.0546937 0.01
-0.25 -0.0574735 0.01
-0.246045 0.0569295 0
-0.242089 0.0563854 0
-0.238136 0.0558289 0
-0.234184 0.0552582 0
-0.230232 0.0546875 0
-0.226284 0.0540912 0
-0.222337 0.0534933 0
-0.218391 0.0528841 0
-0.214448 0.0522585 0
-0.210504 0.0516328 0
-0.206565 0.0509829 0
-0.202626 0.0503294 0
-0.198689 0.0496667 0
-0.194755 0.0489856 0
-0.190821 0.0483046 0
-0.18689 0.0476022 0
-0.182961 0.0468942 0
-0.179033 0.0461799 0
-0.175108 0.0454463 0
-0.171183 0.0447127 0
-0.167262 0.0439627 0
-0.163342 0.0432056 0
-0.159422 0.0424455 0
-0.155506 0.041668 0
-0.15159 0.0408904 0
-0.147675 0.0401031 0
-0.143762 0.0393092 0
-0.13985 0.0385149 0
-0.135939 0.0377103 0
-0.132028 0.0369056 0
-0.128117 0.0361005 0
-0.124207 0.0352949 0
-0.120296 0.0344893 0
-0.116386 0.0336836 0
-0.112475 0.032878 0
-0.108563 0.0320794 0
-0.104649 0.0312931 0
-0.100735 0.0305068 0
-0.0968152 0.029745 0
-0.0928949 0.0289889 0
-0.0889722 0.0282446 0
-0.0850433 0.0275341 0
-0.0811144 0.0268235 0
-0.0771778 0.0261578 0
-0.0732381 0.0255098 0
-0.0692962 0.0248759 0
-0.0653442 0.0243073 0
-0.0613923 0.0237386 0
-0.0574324 0.0232306 0
-0.0534681 0.0227556 0
-0.0495024 0.0222934 0
-0.0455272 0.0219207 0
-0.041552 0.0215481 0
-0.0375717 0.0212385 0
-0.0335881 0.0209694 0
-0.029604 0.0207098 0
-0.0256151 0.0205369 0
-0.0216262 0.0203639 0
-0.0176357 0.0202396 0
-0.0136441 0.0201487 0
-0.00965243 0.0200635 0
-0.00565987 0.0200372 0
-0.00166732 0.020011 0
0.00232526 0.0200121 0
0.00631785 0.0200329 0
0.0103104 0.0200563 0
0.0143027 0.0201109 0
0.018295 0.0201654 0
0.022287 0.0202345 0
0.0262788 0.0203144 0
0.0302706 0.0203957 0
0.034262 0.0204956 0
0.0382534 0.0205955 0
0.0422446 0.0207045 0
0.0462355 0.0208207 0
0.0502265 0.0209377 0
0.054217 0.0210676 0
0.0582075 0.0211975 0
0.0621978 0.0213339 0
0.0661879 0.0214757 0
0.0701781 0.021618 0
0.0741678 0.0217703 0
0.0781575 0.0219227 0
0.0821471 0.0220801 0
0.0861364 0.022242 0
0.0901258 0.0224041 0
0.0941148 0.0225747 0
0.0981038 0.0227453 0
0.102093 0.0229202 0
0.106081 0.023099 0
0.11007 0.0232779 0
0.114058 0.0234644 0
0.118046 0.0236509 0
0.122035 0.0238411 0
0.126022 0.024035 0
0.13001 0.0242288 0
0.133998 0.0244298 0
0.137986 0.0246308 0
0.141973 0.0248352 0
0.14596 0.025043 0
0.149947 0.0252509 0
0.153934 0.0254654 0
0.157921 0.02568 0
0.161908 0.0258978 0
0.165894 0.026119 0
0.169881 0.0263402 0
0.173867 0.0265678 0
0.177853 0.0267956 0
0.181839 0.0270264 0
0.185825 0.0272607 0
0.189811 0.0274951 0
0.193796 0.0277356 0
0.197781 0.0279764 0
0.201767 0.02822 0
0.205752 0.0284673 0
0.209737 0.0287146 0
0.213721 0.0289679 0
0.217706 0.0292217 0
0.22169 0.0294782 0
0.225674 0.0297385 0
0.229658 0.0299988 0
0.233642 0.0302651 0
0.237626 0.0305319 0
0.241609 0.0308014 0
0.245593 0.0310748 0
0.249576 0.0313482 0
0.253559 0.0316276 0
0.257542 0.0319077 0
0.261524 0.0321904 0
0.265507 0.0324772 0
0.269489 0.032764 0
0.273471 0.0330568 0
0.277453 0.0333504 0
0.281434 0.0336466 0
0.285416 0.0339471 0
0.289397 0.0342476 0
0.293378 0.034554 0
0.297359 0.0348615 0
0.301339 0.0351714 0
0.305319 0.0354859 0
0.3093 0.0358005 0
0.313279 0.036121 0
0.317259 0.0364427 0
0.321239 0.0367667 0
0.325218 0.0370957 0
0.329197 0.0374248 0
0.333175 0.0377597 0
0.337154 0.0380961 0
0.341132 0.0384347 0
0.34511 0.0387786 0
0.349088 0.0391226 0
0.353065 0.0394724 0
0.357042 0.0398239 0
0.361019 0.0401775 0
0.364995 0.0405368 0
0.368972 0.0408961 0
0.372948 0.0412613 0
0.376924 0.0416285 0
0.380899 0.0419975 0
0.384874 0.0423727 0
0.388849 0.0427479 0
0.392823 0.0431289 0
0.396798 0.0435123 0
0.400772 0.0438973 0
0.404745 0.044289 0
0.408718 0.0446807 0
0.412691 0.0450781 0
0.416664 0.0454782 0
0.420636 0.0458797 0
0.424608 0.0462883 0
0.42858 0.046697 0
0.432551 0.0471114 0
0.436521 0.0475289 0
0.440492 0.0479474 0
0.444462 0.0483738 0
0.448432 0.0488001 0
0.452401 0.0492319 0
0.45637 0.0496673 0
0.460338 0.0501035 0
0.464306 0.0505482 0
0.468274 0.0509928 0
0.472241 0.0514427 0
0.476208 0.0518968 0
0.480175 0.0523512 0
0.48414 0.0528148 0
0.488106 0.0532784 0
0.492071 0.0537471 0
0.496036 0.0542204 0
0.5 0.050787 0
0.5 0.0468803 0
0.5 0.0429736 0
0.5 0.0390669 0
0.5 0.0351602 0
0.5 0.0312535 0
0.5 0.0273468 0
0.5 0.0234402 0
0.5 0.0195335 0
0.5 0.0156268 0
0.5 0.0117201 0
0.5 0.00781339 0
0.5 0.00390669 0
0.5 1.43781e-13 0
0.5 -0.00390669 0
0.5 -0.00781339 0
0.5 -0.0117201 0
0.5 -0.0156268 0
0.5 -0.0195335 0
0.5 -0.0234402 0
0.5 -0.0273468 0
0.5 -0.0312535 0
0.5 -0.0351602 0
0.5 -0.0390669 0
0.5 -0.0429736 0
0.5 -0.0468803 0
0.5 -0.050787 0
0.496036 -0.0542204 0
0.492071 -0.0537471 0
0.488106 -0.0532784 0
0.48414 -0.0528148 0
0.480175 -0.0523512 0
0.476208 -0.0518968 0
0.472241 -0.0514427 0
0.468274 -0.0509928 0
0.464306 -0.0505482 0
0.460338 -0.0501035 0
0.45637 -0.0496673 0
0.452401 -0.0492319 0
0.448432 -0.0488001 0
0.444462 -0.0483738 0
0.440492 -0.0479474 0
0.436521 -0.0475289 0
0.432551 -0.0471114 0
0.42858 -0.046697 0
0.424608 -0.0462883 0
0.420636 -0.0458797 0
0.416664 -0.0454782 0
0.412691 -0.0450781 0
0.408718 -0.0446807 0
0.404745 -0.044289 0
0.400772 -0.0438973 0
0.396798 -0.0435123 0
0.392823 -0.0431289 0
0.388849 -0.0427479 0
0.384874 -0.0423727 0
0.380899 -0.0419975 0
0.376924 -0.0416285 0
0.372948 -0.0412613 0
0.368972 -0.0408961 0
0.364995 -0.0405368 0
0.361019 -0.0401775 0
0.357042 -0.0398239 0
0.353065 -0.0394724 0
0.349088 -0.0391226 0
0.34511 -0.0387786 0
0.341132 -0.0384347 0
0.337154 -0.0380961 0
0.333175 -0.0377597 0
0.329197 -0.0374248 0
0.325218 -0.0370957 0
0.321239 -0.0367667 0
0.317259 -0.0364427 0
0.313279 -0.036121 0
0.3093 -0.0358005 0
0.305319 -0.0354859 0
0.301339 -0.0351714 0
0.297359 -0.0348615 0
0.293378 -0.034554 0
0.289397 -0.0342476 0
0.285416 -0.0339471 0
0.281434 -0.0336466 0
0.277453 -0.0333504 0
0.273471 -0.0330568 0
0.269489 -0.032764 0
0.265507 -0.0324772 0
0.261524 -0.0321904 0
0.257542 -0.0319077 0
0.253559 -0.0316276 0
0.249576 -0.0313482 0
0.245593 -0.0310748 0
0.241609 -0.0308014 0
0.237626 -0.0305319 0
0.233642 -0.0302651 0
0.229658 -0.0299988 0
0.225674 -0.0297385 0
0.22169 -0.0294782 0
0.217706 -0.0292217 0
0.213721 -0.0289679 0
0.209737 -0.0287146 0
0.205752 -0.0284673 0
0.201767 -0.02822 0
0.197781 -0.0279764 0
0.193796 -0.0277356 0
0.189811 -0.0274951 0
0.185825 -0.0272607 0
0.181839 -0.0270264 0
0.177853 -0.0267956 0
0.173867 -0.0265678 0
0.169881 -0.0263402 0
0.165894 -0.026119 0
0.161908 -0.0258978 0
0.157921 -0.02568 0
0.153934 -0.0254654 0
0.149947 -0.0252509 0
0.14596 -0.025043 0
0.141973 -0.0248352 0
0.137986 -0.0246308 0
0.133998 -0.0244298 0
0.13001 -0.0242288 0
0.126022 -0.024035 0
0.122035 -0.0238411 0
0.118046 -0.0236509 0
0.114058 -0.0234644 0
0.11007 -0.0232779 0
0.106081 -0.023099 0
0.102093 -0.0229202 0
0.0981038 -0.0227453 0
0.0941148 -0.0225747 0
0.0901258 -0.0224041 0
0.0861364 -0.022242 0
0.0821471 -0.0220801 0
0.0781575 -0.0219227 0
0.0741678 -0.0217703 0
0.0701781 -0.021618 0
0.0661879 -0.0214757 0
0.0621978 -0.0213339 0
0.0582075 -0.0211975 0
0.054217 -0.0210676 0
0.0502265 -0.0209377 0
0.0462355 -0.0208207 0
0.0422446 -0.0207045 0
0.0382534 -0.0205955 0
0.034262 -0.0204956 0
0.0302706 -0.0203957 0
0.0262788 -0.0203144 0
0.022287 -0.0202345 0
0.018295 -0.0201654 0
0.0143027 -0.0201109 0
0.0103104 -0.0200563 0
0.00631785 -0.0200329 0
0.00232526 -0.0200121 0
-0.00166732 -0.020011 0
-0.00565987 -0.0200372 0
-0.00965243 -0.0200635 0
-0.0136441 -0.0201487 0
-0.0176357 -0.0202396 0
-0.0216262 -0.0203639 0
-0.0256151 -0.0205369 0
-0.029604 -0.0207098 0
-0.0335881 -0.0209694 0
-0.0375717 -0.0212385 0
-0.041552 -0.0215481 0
-0.0455272 -0.0219207 0
-0.0495024 -0.0222934 0
-0.0534681 -0.0227556 0
-0.0574324 -0.0232306 0
-0.0613923 -0.0237386 0
-0.0653442 -0.0243073 0
-0.0692962 -0.0248759 0
-0.0732381 -0.0255098 0
-0.0771778 -0.0261578 0
-0.0811144 -0.0268235 0
-0.0850433 -0.0275341 0
-0.0889722 -0.0282446 0
-0.0928949 -0.0289889 0
-0.0968152 -0.029745 0
-0.100735 -0.0305068 0
-0.104649 -0.0312931 0
-0.108563 -0.0320794 0
-0.112475 -0.032878 0
-0.116386 -0.0336836 0
-0.120296 -0.0344893 0
-0.124207 -0.0352949 0
-0.128117 -0.0361005 0
-0.132028 -0.0369056 0
-0.135939 -0.0377103 0
-0.13985 -0.0385149 0
-0.143762 -0.0393092 0
-0.147675 -0.0401031 0
-0.15159 -0.0408904 0
-0.155506 -0.041668 0
-0.159422 -0.0424455 0
-0.163342 -0.0432056 0
-0.167262 -0.0439627 0
-0.171183 -0.0447127 0
-0.175108 -0.0454463 0
-0.179033 -0.0461799 0
-0.182961 -0.0468942 0
-0.18689 -0.0476022 0
-0.190821 -0.0483046 0
-0.194755 -0.0489856 0
-0.198689 -0.0496667 0
-0.202626 -0.0503294 0
-0.206565 -0.0509829 0
-0.210504 -0.0516328 0
-0.214448 -0.0522585 0
-0.218391 -0.0528841 0
-0.222337 -0.0534933 0
-0.226284 -0.0540912 0
-0.230232 -0.0546875 0
-0.234184 -0.0552582 0
-0.238136 -0.0558289 0
-0.242089 -0.0563854 0
-0.246045 -0.0569295 0
-0.25 -0.0535098 0
-0.25 -0.0495461 0
-0.25 -0.0455824 0
-0.25 -0.0416187 0
-0.25 -0.0376551 0
-0.25 -0.0336914 0
-0.25 -0.0297277 0
-0.25 -0.025764 0
-0.25 -0.0218003 0
-0.25 -0.0178366 0
-0.25 -0.0138729 0
-0.25 -0.00990922 0
-0.25 -0.00594553 0
-0.25 -0.00198184 0
-0.25 0.00198184 0
-0.25 0.00594553 0
-0.25 0.00990922 0
-0.25 0.0138729 0
-0.25 0.0178366 0
-0.25 0.0218003 0
-0.25 0.025764 0
-0.25 0.0297277 0
-0.25 0.0336914 0
-0.25 0.0376551 0
-0.25 0.0416187 0
-0.25 0.0455824 0
-0.25 0.0495461 0
-0.25 0.0535098 0
-0.246045 0.0569295 0.01
-0.242089 0.0563854 0.01
-0.238136 0.0558289 0.01
-0.234184 0.0552582 0.01
-0.230232 0.0546875 0.01
-0.226284 0.0540912 0.01
-0.222337 0.0534933 0.01
-0.218391 0.0528841 0.01
-0.214448 0.0522585 0.01
-0.210504 0.0516328 0.01
-0.206565 0.0509829 0.01
-0.202626 0.0503294 0.01
-0.198689 0.0496667 0.01
-0.194755 0.0489856 0.01
-0.190821 0.0483046 0.01
-0.18689 0.0476022 0.01
-0.182961 0.0468942 0.01
-0.179033 0.0461799 0.01
-0.175108 0.0454463 0.01
-0.171183 0.0447127 0.01
-0.167262 0.0439627 0.01
[...]
CELL_DATA 7657
SCALARS rho float
LOOKUP_TABLE default
0.47773
0.369929
0.404185
0.190849
0.495156
0.381638
0.262021
0.430764
0.336896
0.499208
0.499277
0.430343
0.306202
0.430495
0.494407
0.489059
0.494337
0.412194
0.411992
0.433067
0.493617
0.413236
0.360749
0.411997
0.420959
0.427822
0.198377
0.31334
0.496027
0.382107
0.244348
0.420965
0.357474
0.475706
0.476158
0.246022
0.382297
0.359819
0.480985
0.219909
0.403529
0.335765
0.370569
0.378076
0.403281
0.404993
0.268256
0.381269
0.421067
0.477345
0.377263
0.190372
0.495952
0.496865
0.260407
0.383694
0.493906
0.491976
0.452318
0.242642
0.421459
0.402435
0.422442
0.422769
0.499963
0.499979
0.305869
0.386018
0.498464
0.448106
0.405213
0.307933
0.367089
0.496018
0.4744
0.380521
0.413247
0.380035
0.473869
0.311577
0.356865
0.431043
0.432942
0.403876
0.404968
0.45729
0.404743
0.447106
0.428116
0.199474
0.499825
0.499867
0.454017
0.497775
0.22324
0.459943
0.458661
0.364496
0.402642
0.223101
0.412633
0.418298
0.367976
0.493189
0.269972
0.346356
0.230863
0.387105
0.313193
0.493162
0.244577
0.386706
0.374723
0.432911
0.407929
0.436066
0.387787
0.218353
0.488398
0.381456
0.500686
0.500669
0.22996
0.365193
0.432157
0.430493
0.430166
0.370633
0.385039
0.371389
0.191699
0.415068
0.384052
0.366451
0.433036
0.233287
0.489399
0.357635
0.415606
0.415921
0.231286
0.201304
0.217055
0.221313
0.411511
0.493534
0.354284
0.371031
0.401994
0.230893
0.213924
0.498587
0.390222
0.370662
0.493621
0.36907
0.38605
0.414047
0.433056
0.234967
0.414429
0.491748
0.427598
0.434675
0.399766
0.367757
0.481028
0.374354
0.407567
0.488833
0.403315
0.348361
0.414825
0.21535
0.250147
0.247757
0.363296
0.45993
0.432054
0.215543
0.221258
0.311952
0.417116
0.417164
0.303166
0.450512
0.325782
0.364416
0.428965
0.459883
0.49595
0.49799
0.433027
0.464894
0.428895
0.3847
0.433175
0.491406
0.24808
0.406608
0.411865
0.417852
0.461415
0.444683
0.198346
0.496977
0.31691
0.271722
0.473466
0.46438
0.395466
0.401961
0.399535
0.43304
0.402938
0.364612
0.254427
0.455892
0.386925
0.40647
0.370136
0.371908
0.498904
0.386436
0.319186
0.358704
0.319029
0.206804
0.379555
0.498944
0.398213
0.398287
0.310169
0.493505
0.487485
0.433041
0.446653
0.418466
0.418527
0.491134
0.395101
0.211655
0.461581
0.357415
0.472519
0.467235
0.325895
0.466322
0.328436
0.378817
0.246205
0.362118
0.387462
0.474629
0.25273
0.363539
0.372404
0.495105
0.496744
0.386533
0.364156
0.496661
0.487975
0.407593
0.256306
0.404682
0.442418
0.210414
0.411798
0.214293
0.296239
0.200401
0.201579
0.433064
0.471875
0.407907
0.373314
0.386683
0.386319
0.429546
0.36509
0.425154
0.20678
0.226129
0.360571
0.244729
0.226143
0.19228
0.395333
0.409788
0.408366
0.365674
0.205582
0.496594
0.387375
0.198072
0.481335
0.431255
0.435889
0.408694
0.45872
0.49733
0.212823
0.323525
0.198565
0.455661
0.257704
0.366679
0.410918
0.387101
0.429751
0.440446
0.490887
0.328393
0.420782
0.4907
0.496532
0.495139
0.386833
0.425363
0.372779
0.36021
0.496482
0.448683
0.488815
0.49589
0.324038
0.387259
0.492407
0.409446
0.346333
0.496138
0.487942
0.375487
0.43086
0.408002
0.387362
0.206829
0.420416
0.495926
0.428617
0.250087
0.376922
0.488021
0.433188
0.252189
0.495914
0.374435
0.405842
0.492458
0.382243
0.414041
0.433029
0.414338
0.258692
0.420052
0.415197
0.273614
0.420299
0.269993
0.389765
0.412844
0.405985
0.438021
0.49404
0.24846
0.4285
0.221024
0.454139
0.457387
0.38289
0.425519
0.432683
0.432435
0.313747
0.308133
0.41441
0.407407
0.409993
0.487099
0.400369
0.411215
0.20149
0.42243
0.496289
0.498534
0.476929
0.430013
0.428134
0.491983
0.389933
0.387445
0.387064
0.432572
0.427345
0.448932
0.253554
0.349231
0.491889
0.382216
0.433072
0.433037
0.411081
0.497458
0.221645
0.425268
0.489595
0.293856
0.492197
0.494395
0.414823
0.383053
0.422623
0.190675
0.461618
0.432361
0.402735
0.431107
0.19142
0.364949
0.360406
0.430998
0.278461
0.384798
0.370324
0.408483
0.459005
0.431842
0.369655
0.418249
0.433444
0.257403
0.379631
0.433153
0.425652
0.486688
0.49729
0.415575
0.488175
0.411679
0.381377
0.485445
0.239662
0.496215
0.429498
0.400503
0.395089
0.273811
0.494287
0.434379
0.420758
0.420114
0.390751
0.267966
0.322197
0.45986
0.264628
0.489693
0.488304
0.462362
0.476567
0.385702
0.409864
0.45796
0.386962
0.432575
0.343309
0.350913
0.260461
0.256401
0.496193
0.391121
0.422087
0.478469
0.493276
0.417525
0.425808
0.380737
0.229289
0.495918
0.438845
0.496066
0.41406
0.414796
0.400957
0.386408
0.209141
0.238472
0.498423
0.423334
0.491473
0.421421
0.430244
0.463726
0.429848
0.286224
0.191803
0.379374
0.476172
0.477643
0.431666
0.431505
0.430832
0.431742
0.446941
0.450676
0.380086
0.367745
0.437485
0.486902
0.207875
0.425193
0.417117
0.491384
0.412403
0.43218
0.484359
0.413708
0.482218
0.363193
0.489489
0.432714
0.431442
0.193073
0.42933
0.431872
0.497236
0.404188
0.497595
0.422022
0.388954
0.487425
0.431293
0.421715
0.402361
0.417376
0.403111
0.430811
0.256059
0.410688
0.400399
0.417505
0.429557
0.429983
0.426072
0.432708
0.41667
0.368659
0.383009
0.41631
0.487685
0.191525
0.419933
0.42747
0.482804
0.486217
0.222304
0.42963
0.349889
0.476338
0.487118
0.378027
0.432379
0.291266
0.415969
0.485213
0.498034
0.432726
0.24632
0.472862
0.459693
0.378882
0.414074
0.364413
0.45496
0.280237
0.431164
0.433007
0.430105
0.430298
0.32432
0.401359
0.456329
0.38613
0.415872
0.417673
0.423623
0.435839
0.498402
0.289881
0.428919
0.430479
0.272029
0.429189
0.453062
0.38613
0.249738
0.326551
0.400928
0.430675
0.462605
0.493007
0.386674
0.428747
0.431232
0.430661
0.427845
0.465249
0.387778
0.493533
0.427948
0.430455
0.430064
0.485338
0.401474
0.487505
0.432959
0.428552
0.425287
0.430643
0.239249
0.496637
0.496622
0.432373
0.431023
0.423236
0.367413
0.434638
0.43781
0.334121
0.412304
0.385688
0.496604
0.423444
0.371437
0.432024
0.423479
0.421877
0.496197
0.412315
0.496178
0.417386
0.4198
0.286111
0.193753
0.432578
0.421268
0.423803
0.400564
0.430838
0.485557
0.424011
0.404805
0.432254
0.433023
0.429245
0.20249
0.417022
0.422254
0.421973
0.22851
0.424361
0.488192
0.428058
0.422193
0.414866
0.425976
0.431009
0.424576
0.393549
0.432443
0.456598
0.415932
0.488289
0.33586
0.391781
0.386248
0.388147
0.433213
0.424916
0.400939
0.422558
0.396979
0.430284
0.431377
0.425116
0.388942
0.191545
0.337012
0.237818
0.468811
0.430993
0.429874
0.422852
0.416281
0.429865
0.432622
0.322489
0.494717
0.494349
0.277852
0.41553
0.323892
0.350647
0.274843
0.374113
0.425447
0.328544
0.425659
0.432079
0.43224
0.360274
0.430848
0.496474
0.413625
0.287784
0.488044
0.497158
0.462805
0.419394
0.37344
0.394444
0.432048
0.432029
0.495751
0.423179
0.42713
0.49635
0.242792
0.453098
0.421308
0.495089
0.372333
0.407549
0.429725
0.430799
0.35068
0.418146
0.432181
0.421979
0.422835
0.383498
0.494994
0.451461
0.256052
0.431986
0.351138
0.343787
0.228968
0.427447
0.497284
0.288546
0.423302
0.484019
0.498355
0.494182
0.495492
0.220313
0.496008
0.49627
0.377591
0.495638
0.432616
0.42132
0.42257
0.431454
0.38759
0.344043
0.422657
0.430275
0.414056
0.413713
0.486611
0.33936
0.495434
0.429958
0.48619
0.493973
0.495286
0.396121
0.373131
0.422632
0.218332
0.431971
0.271657
0.432789
0.495239
0.36866
0.455061
0.417074
0.427368
0.273629
0.429198
0.423447
0.402458
0.487583
0.431773
0.449377
0.400218
0.413601
0.49462
0.233445
0.292046
0.429787
0.406531
0.452889
0.45288
0.376833
0.494827
0.430692
0.464402
0.317623
0.294496
0.375411
0.279419
0.494413
0.432778
0.374863
0.431877
0.492491
0.432754
0.361095
0.432921
0.432473
0.270395
0.459746
0.429612
0.219524
0.43253
0.286648
0.432233
0.429117
0.218378
0.428098
0.432331
0.252196
0.485696
0.432781
0.493874
0.421625
0.432481
0.426646
0.42101
0.497835
0.496381
0.493659
0.405901
0.447618
0.459893
0.371841
0.494068
0.496585
0.233339
0.342436
0.220721
0.424308
0.432242
0.49627
0.432488
0.492132
0.493981
0.432527
0.491844
0.494216
0.372603
0.423668
0.432339
0.230617
0.493378
0.273676
0.341358
0.496421
0.296682
0.428637
0.493677
0.219394
0.229151
0.494789
0.493858
0.431404
0.494496
0.429664
0.444038
0.429166
0.334583
0.328661
0.340092
0.431128
0.430455
0.494536
0.311348
0.424009
0.376219
0.493914
0.494214
0.493619
0.494174
0.42644
0.493082
0.462625
0.492785
0.493327
0.489151
0.432186
0.489523
0.209339
0.424568
0.20705
0.462832
0.257218
0.377536
0.215715
0.232267
0.440669
0.440782
0.495784
0.43001
0.493036
0.429834
0.352162
0.458646
0.432643
0.429414
0.49592
0.428841
0.44526
0.222754
0.492747
0.441136
0.44102
0.305796
0.4886
0.429535
0.429103
0.205648
0.450998
0.45098
0.432036
0.374642
0.376081
0.294346
0.221438
0.496294
0.433073
0.431607
0.41446
0.224293
0.217202
0.432451
0.429422
0.402334
0.208109
0.311173
0.311259
0.314833
0.428808
0.234752
0.387906
0.430085
0.243942
0.421647
0.49132
0.429473
0.431099
0.386401
0.378155
0.43233
0.215663
0.464801
0.428857
0.423115
0.477107
0.479424
0.423129
0.432663
0.469278
0.201306
0.423979
0.431385
0.37936
0.245632
0.432683
0.492291
0.428982
0.42936
0.423408
0.423748
0.432529
0.426931
0.418519
0.204396
0.22287
0.492331
0.251133
0.432867
0.457973
0.495954
0.496725
0.411525
0.404967
0.432433
0.429368
0.432902
0.419476
0.491632
0.428274
0.422882
0.43242
0.221444
0.432707
0.494436
0.42808
0.422919
0.298394
0.495709
0.429854
0.429375
0.305407
0.304308
0.348498
0.429456
0.490987
0.432902
0.401124
0.407232
0.24347
0.209241
0.412602
0.4283
0.491472
0.255685
0.425108
0.268272
0.237022
0.431984
0.495821
0.424873
0.495969
0.406884
0.406892
0.400402
0.4957
0.412282
0.432958
0.428831
0.412294
0.298351
0.401115
0.476895
0.372832
0.495878
0.202559
0.378784
0.493941
0.496386
0.43189
0.491682
0.493832
0.490926
0.431319
0.265115
0.201419
0.41332
0.495668
0.322956
0.430259
0.385415
0.478611
0.430936
0.375515
0.418817
0.432437
0.417398
0.432732
0.4292
0.49365
0.430968
0.428993
0.422759
0.495787
0.424856
0.477029
0.380009
0.422504
0.252927
0.426906
0.46371
0.202187
0.494718
0.467634
0.470313
0.429218
0.380552
0.43257
0.27037
0.225645
0.267069
0.432585
0.428147
0.423967
0.427707
0.220517
0.490584
0.429454
0.426609
0.245675
0.219358
0.431134
0.487084
0.49561
0.42781
0.43074
0.205613
0.429039
0.38541
0.203476
0.431897
0.425634
0.395572
0.432949
0.214136
0.43169
0.496354
0.474365
0.428102
0.475253
0.432608
0.489001
0.432278
0.495856
0.490127
0.200947
0.401811
0.402315
0.490177
0.492816
0.42664
0.361594
0.43085
0.489767
0.430911
0.241613
0.488267
0.432384
0.428537
0.222778
0.241839
0.42855
0.251279
0.378138
0.227382
0.313449
0.312914
0.378756
0.377454
0.42539
0.23849
0.495692
0.424835
0.496705
0.432541
0.257381
0.429593
0.431927
0.429686
0.22887
0.432501
0.494658
0.430634
0.429841
0.467793
0.432624
0.245616
0.254363
0.442623
0.442667
0.432189
0.494766
0.24567
0.430126
0.495517
0.432529
0.432771
0.416682
0.41247
0.496479
0.461781
0.359458
0.26351
0.432036
0.241688
0.429475
0.265091
0.389306
0.43238
0.424542
0.430746
0.431157
0.418799
0.41878
0.289306
0.496203
0.202259
0.496586
0.429396
0.432261
0.492196
0.432778
0.489722
0.413336
0.279506
0.254621
0.49233
0.381168
0.492589
0.431553
0.43168
0.2053
0.495948
0.49153
0.327146
0.431774
0.259705
0.222827
0.425652
0.492081
0.260769
0.385939
0.297353
0.234588
0.476054
0.423974
0.477727
0.474252
0.424557
0.418387
0.418401
0.20013
0.424002
0.432726
0.432387
0.233044
0.417693
0.430066
0.335918
0.252617
0.431006
0.42343
0.430691
0.432469
0.431776
0.432648
0.422821
0.496484
0.422784
0.395493
0.411739
0.427109
0.426987
0.424798
0.249549
0.430616
0.410076
0.410166
0.489979
0.431565
0.427835
0.49743
0.431192
0.415936
0.429661
0.427259
0.489352
0.368915
0.427529
0.368587
0.490528
0.410885
0.257372
0.480625
0.401467
0.401458
0.432588
0.432313
0.386395
0.432669
0.431824
0.495604
0.392311
0.392269
0.299737
0.432617
0.424538
0.432101
0.382456
0.432882
0.431754
0.425606
0.426845
0.432278
0.468771
0.470134
0.384875
0.431539
0.429618
0.432426
0.374699
0.373501
0.373614
0.417724
0.430048
0.431223
0.432194
0.432917
0.418434
0.194386
0.418413
0.41701
0.432513
0.292276
0.430707
0.385653
0.432079
0.395058
0.394983
0.427802
0.492096
0.431179
0.241147
0.495665
0.432787
0.219539
0.404094
0.496416
0.491565
0.41244
0.257938
0.30278
0.308646
0.403929
0.427628
0.431407
0.419731
0.416262
0.410372
0.43267
0.419699
0.408586
0.410104
0.413843
0.432228
0.417899
0.431234
0.209166
0.410923
0.493072
0.491833
0.427171
0.430455
0.414449
0.430215
0.432194
0.430515
0.204334
0.410192
0.431917
0.431844
0.431457
0.432323
0.431926
0.430794
0.289227
0.393222
0.393169
0.431624
0.430111
0.431904
0.491981
0.265259
0.430342
0.422831
0.432403
0.424465
0.361271
0.492111
0.427799
0.231999
0.487771
0.431177
0.279888
0.430936
0.371061
0.408519
0.239834
0.240135
0.370573
0.370268
0.422262
0.429802
0.495945
0.495972
0.369394
0.431746
0.432522
0.382782
0.379025
0.42507
0.249385
0.430233
0.429686
0.477843
0.222637
0.202593
0.381698
0.432131
0.432169
0.431958
0.431981
0.497492
0.427457
0.427931
0.428391
0.431676
0.426971
0.431721
0.430398
0.395019
0.492459
0.460336
0.496427
0.430903
0.429832
0.43213
0.42982
0.399641
0.429297
0.427377
0.416269
0.430418
0.42937
0.427738
0.497078
0.428546
0.414064
0.490345
0.400629
0.405599
0.496475
0.428981
0.432584
0.491906
0.224066
0.431527
0.488935
0.428965
0.495651
0.428324
0.429201
0.26071
0.495899
0.488514
0.489921
0.390402
0.390455
0.427388
0.262223
0.49723
0.430022
0.497999
0.34887
0.431025
0.429281
0.206463
0.385864
0.489314
0.397417
0.209138
0.497901
0.211513
0.498725
0.498687
0.497828
0.212518
0.424815
0.497562
0.429651
0.49612
0.493638
0.430682
0.432608
0.473296
0.200257
0.261217
0.497251
0.380133
0.428379
0.265208
0.198493
0.199228
0.429062
0.46933
0.212977
0.192416
0.487882
0.497513
0.431838
0.461872
0.427916
0.364741
0.498359
0.498327
0.491862
0.430269
0.4917
0.430847
0.196543
0.422488
0.422479
0.427104
0.49596
0.431251
0.496471
0.49707
0.431472
0.21142
0.432826
0.432718
0.228721
0.249345
0.247332
0.383863
0.428659
0.491471
0.469401
0.428922
0.428181
0.428907
0.425905
0.429022
0.497739
0.417712
0.49716
0.216799
0.463112
0.427189
0.367847
0.367325
0.491169
0.421673
0.493779
0.429709
0.428541
0.427714
0.418725
0.418708
0.42969
0.42944
0.431563
0.495641
0.373893
0.428726
0.426412
0.429158
0.374305
0.374235
0.431606
0.430576
0.427669
0.431833
0.429181
0.495013
0.431621
0.381794
0.495562
0.376553
0.376342
0.429158
0.423655
0.430805
0.426768
0.391766
0.391744
0.386134
0.395508
0.395435
0.24776
0.425341
0.496826
0.382612
0.426696
0.428733
0.480036
0.426472
0.40095
0.400943
0.409637
0.40967
0.419765
0.429991
0.404539
0.41731
0.416978
0.495534
0.426265
0.412852
0.486792
0.428137
0.396876
0.396881
0.419705
0.427129
0.420042
0.405917
0.405894
0.429377
0.42586
0.415859
0.432677
0.42004
0.22264
0.429934
0.443522
0.496847
0.428593
0.399017
0.426503
0.497558
0.497517
0.497285
0.43224
0.49488
0.492804
0.411268
0.497044
0.364976
0.488902
0.493445
0.497089
0.428557
0.431029
0.431541
0.357386
0.43252
0.432429
0.496215
0.230621
0.231929
0.426901
0.432115
0.407987
0.488215
0.425362
0.427442
0.49105
0.491711
0.432312
0.495426
0.495433
0.43204
0.490912
0.255668
0.258981
0.493642
0.405948
0.382687
0.464556
0.214031
0.496911
0.497015
0.431757
0.495925
0.496346
0.487594
0.428986
0.225563
0.422739
0.495606
0.458727
0.482322
0.496077
0.427472
0.496274
0.24388
0.427606
0.231655
0.416392
0.426381
0.496792
0.228771
0.228593
0.43133
0.399137
0.490749
0.495516
0.487927
0.428407
0.216719
0.425978
0.49322
0.431971
0.496413
0.49521
0.494909
0.428615
0.396918
0.429571
0.495487
0.427358
0.496242
0.428331
0.481668
0.493371
0.430509
0.48818
0.393653
0.393576
0.494582
0.493518
0.495424
0.495249
0.487317
0.495785
0.495917
0.472564
0.430626
0.420994
0.495592
0.496139
0.430972
0.426489
0.428804
0.414812
0.428595
0.49234
0.389936
0.389879
0.496679
0.497094
0.281375
0.497102
0.49438
0.432431
0.42615
0.424301
0.493914
0.494714
0.432323
0.495447
0.495827
0.487648
0.468125
0.493709
0.496262
0.491586
0.496128
0.384683
0.426608
0.481681
0.427639
0.495718
0.495555
0.476127
0.4264
0.427846
0.425749
0.495086
0.48548
0.4959
0.201164
0.379464
0.426439
0.497186
0.4926
0.384617
0.427244
0.493531
0.49529
0.495505
0.371303
0.371058
0.432449
0.414048
0.495704
0.192891
0.422526
0.494461
0.470562
0.428452
0.363123
0.495369
0.422518
0.195748
0.494767
0.421311
0.491303
0.425654
0.43172
0.495805
0.496913
0.426686
0.426698
0.421836
0.493252
0.49584
0.432277
0.496134
0.492279
0.384407
0.493479
0.427647
0.431533
0.494231
0.356309
0.427387
0.494709
0.425916
0.495947
0.496252
0.47675
0.418101
0.420591
0.428718
0.432671
0.418078
0.432674
0.495634
0.426678
0.493735
0.495485
0.495229
0.492825
0.495502
0.430449
0.495794
0.308793
0.495556
0.298507
0.495429
0.492369
0.491138
0.49651
0.491882
0.428779
0.377288
0.376994
0.427906
0.429799
0.49604
0.208117
0.210377
0.411348
0.410546
0.494213
0.495521
0.494424
0.430233
0.490471
0.495444
0.422768
0.383153
0.494559
0.495468
0.428963
0.495824
0.24027
0.263766
0.496931
0.496269
0.496234
0.383568
0.492569
0.49565
0.493499
0.46572
0.46704
0.497956
0.492171
0.495317
0.370198
0.397334
0.39734
0.424679
0.383364
0.493031
0.49385
0.491361
0.49132
0.493596
0.47425
0.495345
0.421327
0.203486
0.493575
0.493832
0.49607
0.425455
0.493096
0.495175
0.427432
0.40636
0.40633
0.466042
0.492015
0.495686
0.493264
0.428762
0.416644
0.49379
0.403166
0.496534
0.488621
0.492648
0.425962
0.490805
0.431351
0.42737
0.492395
0.496026
0.426162
0.430141
0.426399
0.490553
0.493185
0.487381
0.491387
0.495449
0.495412
0.492879
0.493442
0.493278
0.417697
0.491802
0.495263
0.491507
0.414789
0.495748
0.496119
0.486961
0.495189
0.493073
0.495164
0.353678
0.496099
0.493321
0.492082
0.492373
0.494881
0.420941
0.496424
0.430774
0.42955
0.494339
0.494079
0.493824
0.491565
0.495345
0.492855
0.495894
0.493444
0.428674
0.493572
0.427235
0.422171
0.422856
0.42619
0.495436
0.491013
0.494605
0.424328
0.492587
0.492656
0.492113
0.489853
0.493713
0.492939
0.421585
0.491607
0.487446
0.49345
0.490148
0.422789
0.49583
0.414021
0.495778
0.493854
0.496353
0.475176
0.491066
0.230513
0.227228
0.432386
0.487408
0.491179
0.492682
0.422193
0.420964
0.496162
0.492477
0.495726
0.489725
0.490833
0.494978
0.494624
0.494591
0.493841
0.492646
0.491291
0.492211
0.409893
0.496032
0.403422
0.247864
0.423739
0.424627
0.421562
0.425438
0.409884
0.493027
0.403422
0.492173
0.482301
0.486245
0.490738
0.491827
0.49248
0.427529
0.479028
0.495837
0.494431
0.491279
0.479047
0.490489
0.471499
0.425672
0.495318
0.491902
0.432058
0.49552
0.365485
0.432565
0.49531
0.486581
0.495427
0.491338
0.354719
0.42988
0.495779
0.466791
0.49043
0.49284
0.491291
0.49312
0.490925
0.495368
0.489492
0.259003
0.494057
0.426213
0.42508
0.42819
0.47971
0.489962
0.495682
0.491016
0.492184
0.49159
0.496425
0.49072
0.464658
0.489216
0.490408
0.243948
0.467125
0.490925
0.495151
0.415981
0.490212
0.487912
0.487052
0.42537
0.491296
0.430348
0.430589
0.428359
0.490239
0.492962
0.489134
0.4948
0.492939
0.435457
0.495849
0.429242
0.491573
0.427946
0.496734
0.422269
0.495381
0.490763
0.495817
0.496345
0.489998
0.424482
0.495128
0.424478
0.491882
0.426172
0.428936
0.426882
0.489545
0.420046
0.495554
0.432661
0.486101
0.493052
0.425142
0.490612
0.490171
0.49612
0.495039
0.398511
0.424903
0.418125
0.425092
0.490243
0.493777
0.493725
0.424621
0.49083
0.491629
0.418088
0.419693
0.31164
0.296467
0.489578
0.439283
0.427474
0.206607
0.210408
0.411379
0.489334
0.422181
0.492457
0.489792
0.488866
0.495255
0.489539
0.487842
0.441821
0.43148
0.261194
0.488157
0.422531
0.488434
0.492158
0.425221
0.494257
0.465631
0.428777
0.468049
0.427593
0.424372
0.448326
0.383374
0.444357
0.489193
0.429761
0.419297
0.429196
0.494654
0.441887
0.424101
0.204715
0.422439
0.491782
0.420308
0.43132
0.491994
0.42752
0.490964
0.495051
0.423794
0.416674
0.424355
0.403619
0.487802
0.489139
0.429451
0.491842
0.494092
0.446051
0.424043
0.354061
0.424067
0.421415
0.486244
0.422205
0.421975
0.489059
0.496937
0.490743
0.420331
0.421773
0.419661
0.49748
0.42758
0.420165
0.493232
0.419684
0.489507
0.423457
0.420566
0.474213
0.488489
0.22724
0.231715
0.451372
0.45337
0.489064
0.48499
0.424599
0.420214
0.382014
0.381759
0.453462
0.495827
0.249604
0.493297
0.491324
0.489106
0.493652
0.493094
0.455383
0.424398
0.418512
0.490426
0.41954
0.486623
0.492387
0.421916
0.486843
0.422019