# vtk DataFile Version 1.0
unstructured grid
ascii
DATASET UNSTRUCTURED_GRID
points 8094 float
-0.25 0.0574735 0
0.5 0.0546937 0
0.5 -0.0546937 0
-0.25 -0.0574735 0
-0.25 0.0574735 0.01
0.5 0.0546937 0.01
0.5 -0.0546937 0.01
-0.25 -0.0574735 0.01
-0.246045 0.0569295 0
-0.242089 0.0563854 0
-0.238136 0.0558289 0
-0.234184 0.0552582 0
-0.230232 0.0546875 0
-0.226284 0.0540912 0
-0.222337 0.0534933 0
-0.218391 0.0528841 0
-0.214448 0.0522585 0
-0.210504 0.0516328 0
-0.206565 0.0509829 0
-0.202626 0.0503294 0
-0.198689 0.0496667 0
-0.194755 0.0489856 0
-0.190821 0.0483046 0
-0.18689 0.0476022 0
-0.182961 0.0468942 0
-0.179033 0.0461799 0
-0.175108 0.0454463 0
-0.171183 0.0447127 0
-0.167262 0.0439627 0
-0.163342 0.0432056 0
-0.159422 0.0424455 0
-0.155506 0.041668 0
-0.15159 0.0408904 0
-0.147675 0.0401031 0
-0.143762 0.0393092 0
-0.13985 0.0385149 0
-0.135939 0.0377103 0
-0.132028 0.0369056 0
-0.128117 0.0361005 0
-0.124207 0.0352949 0
-0.120296 0.0344893 0
-0.116386 0.0336836 0
-0.112475 0.032878 0
-0.108563 0.0320794 0
-0.104649 0.0312931 0
-0.100735 0.0305068 0
-0.0968152 0.029745 0
-0.0928949 0.0289889 0
-0.0889722 0.0282446 0
-0.0850433 0.0275341 0
-0.0811144 0.0268235 0
-0.0771778 0.0261578 0
-0.0732381 0.0255098 0
-0.0692962 0.0248759 0
-0.0653442 0.0243073 0
-0.0613923 0.0237386 0
-0.0574324 0.0232306 0
-0.0534681 0.0227556 0
-0.0495024 0.0222934 0
-0.0455272 0.0219207 0
-0.041552 0.0215481 0
-0.0375717 0.0212385 0
-0.0335881 0.0209694 0
-0.029604 0.0207098 0
-0.0256151 0.0205369 0
-0.0216262 0.0203639 0
-0.0176357 0.0202396 0
-0.0136441 0.0201487 0
-0.00965243 0.0200635 0
-0.00565987 0.0200372 0
-0.00166732 0.020011 0
0.00232526 0.0200121 0
0.00631785 0.0200329 0
0.0103104 0.0200563 0
0.0143027 0.0201109 0
0.018295 0.0201654 0
0.022287 0.0202345 0
0.0262788 0.0203144 0
0.0302706 0.0203957 0
0.034262 0.0204956 0
0.0382534 0.0205955 0
0.0422446 0.0207045 0
0.0462355 0.0208207 0
0.0502265 0.0209377 0
0.054217 0.0210676 0
0.0582075 0.0211975 0
0.0621978 0.0213339 0
0.0661879 0.0214757 0
0.0701781 0.021618 0
0.0741678 0.0217703 0
0.0781575 0.0219227 0
0.0821471 0.0220801 0
0.0861364 0.022242 0
0.0901258 0.0224041 0
0.0941148 0.0225747 0
0.0981038 0.0227453 0
0.102093 0.0229202 0
0.106081 0.023099 0
0.11007 0.0232779 0
0.114058 0.0234644 0
0.118046 0.0236509 0
0.122035 0.0238411 0
0.126022 0.024035 0
0.13001 0.0242288 0
0.133998 0.0244298 0
0.137986 0.0246308 0
0.141973 0.0248352 0
0.14596 0.025043 0
0.149947 0.0252509 0
0.153934 0.0254654 0
0.157921 0.02568 0
0.161908 0.0258978 0
0.165894 0.026119 0
0.169881 0.0263402 0
0.173867 0.0265678 0
0.177853 0.0267956 0
0.181839 0.0270264 0
0.185825 0.0272607 0
0.189811 0.0274951 0
0.193796 0.0277356 0
0.197781 0.0279764 0
0.201767 0.02822 0
0.205752 0.0284673 0
0.209737 0.0287146 0
0.213721 0.0289679 0
0.217706 0.0292217 0
0.22169 0.0294782 0
0.225674 0.0297385 0
0.229658 0.0299988 0
0.233642 0.0302651 0
0.237626 0.0305319 0
0.241609 0.0308014 0
0.245593 0.0310748 0
0.249576 0.0313482 0
0.253559 0.0316276 0
0.257542 0.0319077 0
0.261524 0.0321904 0
0.265507 0.0324772 0
0.269489 0.032764 0
0.273471 0.0330568 0
0.277453 0.0333504 0
0.281434 0.0336466 0
0.285416 0.0339471 0
0.289397 0.0342476 0
0.293378 0.034554 0
0.297359 0.0348615 0
0.301339 0.0351714 0
0.305319 0.0354859 0
0.3093 0.0358005 0
0.313279 0.036121 0
0.317259 0.0364427 0
0.321239 0.0367667 0
0.325218 0.0370957 0
0.329197 0.0374248 0
0.333175 0.0377597 0
0.337154 0.0380961 0
0.341132 0.0384347 0
0.34511 0.0387786 0
0.349088 0.0391226 0
0.353065 0.0394724 0
0.357042 0.0398239 0
0.361019 0.0401775 0
0.364995 0.0405368 0
0.368972 0.0408961 0
0.372948 0.0412613 0
0.376924 0.0416285 0
0.380899 0.0419975 0
0.384874 0.0423727 0
0.388849 0.0427479 0
0.392823 0.0431289 0
0.396798 0.0435123 0
0.400772 0.0438973 0
0.404745 0.044289 0
0.408718 0.0446807 0
0.412691 0.0450781 0
0.416664 0.0454782 0
0.420636 0.0458797 0
0.424608 0.0462883 0
0.42858 0.046697 0
0.432551 0.0471114 0
0.436521 0.0475289 0
0.440492 0.0479474 0
0.444462 0.0483738 0
0.448432 0.0488001 0
0.452401 0.0492319 0
0.45637 0.0496673 0
0.460338 0.0501035 0
0.464306 0.0505482 0
0.468274 0.0509928 0
0.472241 0.0514427 0
0.476208 0.0518968 0
0.480175 0.0523512 0
0.48414 0.0528148 0
0.488106 0.0532784 0
0.492071 0.0537471 0
0.496036 0.0542204 0
0.5 0.050787 0
0.5 0.0468803 0
0.5 0.0429736 0
0.5 0.0390669 0
0.5 0.0351602 0
0.5 0.0312535 0
0.5 0.0273468 0
0.5 0.0234402 0
0.5 0.0195335 0
0.5 0.0156268 0
0.5 0.0117201 0
0.5 0.00781339 0
0.5 0.00390669 0
0.5 1.43781e-13 0
0.5 -0.00390669 0
0.5 -0.00781339 0
0.5 -0.0117201 0
0.5 -0.0156268 0
0.5 -0.0195335 0
0.5 -0.0234402 0
0.5 -0.0273468 0
0.5 -0.0312535 0
0.5 -0.0351602 0
0.5 -0.0390669 0
0.5 -0.0429736 0
0.5 -0.0468803 0
0.5 -0.050787 0
0.496036 -0.0542204 0
0.492071 -0.0537471 0
0.488106 -0.0532784 0
0.48414 -0.0528148 0
0.480175 -0.0523512 0
0.476208 -0.0518968 0
0.472241 -0.0514427 0
0.468274 -0.0509928 0
0.464306 -0.0505482 0
0.460338 -0.0501035 0
0.45637 -0.0496673 0
0.452401 -0.0492319 0
0.448432 -0.0488001 0
0.444462 -0.0483738 0
0.440492 -0.0479474 0
0.436521 -0.0475289 0
0.432551 -0.0471114 0
0.42858 -0.046697 0
0.424608 -0.0462883 0
0.420636 -0.0458797 0
0.416664 -0.0454782 0
0.412691 -0.0450781 0
0.408718 -0.0446807 0
0.404745 -0.044289 0
0.400772 -0.0438973 0
0.396798 -0.0435123 0
0.392823 -0.0431289 0
0.388849 -0.0427479 0
0.384874 -0.0423727 0
0.380899 -0.0419975 0
0.376924 -0.0416285 0
0.372948 -0.0412613 0
0.368972 -0.0408961 0
0.364995 -0.0405368 0
0.361019 -0.0401775 0
0.357042 -0.0398239 0
0.353065 -0.0394724 0
0.349088 -0.0391226 0
0.34511 -0.0387786 0
0.341132 -0.0384347 0
0.337154 -0.0380961 0
0.333175 -0.0377597 0
0.329197 -0.0374248 0
0.325218 -0.0370957 0
0.321239 -0.0367667 0
0.317259 -0.0364427 0
0.313279 -0.036121 0
0.3093 -0.0358005 0
0.305319 -0.0354859 0
0.301339 -0.0351714 0
0.297359 -0.0348615 0
0.293378 -0.034554 0
0.289397 -0.0342476 0
0.285416 -0.0339471 0
0.281434 -0.0336466 0
0.277453 -0.0333504 0
0.273471 -0.0330568 0
0.269489 -0.032764 0
0.265507 -0.0324772 0
0.261524 -0.0321904 0
0.257542 -0.0319077 0
0.253559 -0.0316276 0
0.249576 -0.0313482 0
0.245593 -0.0310748 0
0.241609 -0.0308014 0
0.237626 -0.0305319 0
0.233642 -0.0302651 0
0.229658 -0.0299988 0
0.225674 -0.0297385 0
0.22169 -0.0294782 0
0.217706 -0.0292217 0
0.213721 -0.0289679 0
0.209737 -0.0287146 0
0.205752 -0.0284673 0
0.201767 -0.02822 0
0.197781 -0.0279764 0
0.193796 -0.0277356 0
0.189811 -0.0274951 0
0.185825 -0.0272607 0
0.181839 -0.0270264 0
0.177853 -0.0267956 0
0.173867 -0.0265678 0
0.169881 -0.0263402 0
0.165894 -0.026119 0
0.161908 -0.0258978 0
0.157921 -0.02568 0
0.153934 -0.0254654 0
0.149947 -0.0252509 0
0.14596 -0.025043 0
0.141973 -0.0248352 0
0.137986 -0.0246308 0
0.133998 -0.0244298 0
0.13001 -0.0242288 0
0.126022 -0.024035 0
0.122035 -0.0238411 0
0.118046 -0.0236509 0
0.114058 -0.0234644 0
0.11007 -0.0232779 0
0.106081 -0.023099 0
0.102093 -0.0229202 0
0.0981038 -0.0227453 0
0.0941148 -0.0225747 0
0.0901258 -0.0224041 0
0.0861364 -0.022242 0
0.0821471 -0.0220801 0
0.0781575 -0.0219227 0
0.0741678 -0.0217703 0
0.0701781 -0.021618 0
0.0661879 -0.0214757 0
0.0621978 -0.0213339 0
0.0582075 -0.0211975 0
0.054217 -0.0210676 0
0.0502265 -0.0209377 0
0.0462355 -0.0208207 0
0.0422446 -0.0207045 0
0.0382534 -0.0205955 0
0.034262 -0.0204956 0
0.0302706 -0.0203957 0
0.0262788 -0.0203144 0
0.022287 -0.0202345 0
0.018295 -0.0201654 0
0.0143027 -0.0201109 0
0.0103104 -0.0200563 0
0.00631785 -0.0200329 0
0.00232526 -0.0200121 0
-0.00166732 -0.020011 0
-0.00565987 -0.0200372 0
-0.00965243 -0.0200635 0
-0.0136441 -0.0201487 0
-0.0176357 -0.0202396 0
-0.0216262 -0.0203639 0
-0.0256151 -0.0205369 0
-0.029604 -0.0207098 0
-0.0335881 -0.0209694 0
-0.0375717 -0.0212385 0
-0.041552 -0.0215481 0
-0.0455272 -0.0219207 0
-0.0495024 -0.0222934 0
-0.0534681 -0.0227556 0
-0.0574324 -0.0232306 0
-0.0613923 -0.0237386 0
-0.0653442 -0.0243073 0
-0.0692962 -0.0248759 0
-0.0732381 -0.0255098 0
-0.0771778 -0.0261578 0
-0.0811144 -0.0268235 0
-0.0850433 -0.0275341 0
-0.0889722 -0.0282446 0
-0.0928949 -0.0289889 0
-0.0968152 -0.029745 0
-0.100735 -0.0305068 0
-0.104649 -0.0312931 0
-0.108563 -0.0320794 0
-0.112475 -0.032878 0
-0.116386 -0.0336836 0
-0.120296 -0.0344893 0
-0.124207 -0.0352949 0
-0.128117 -0.0361005 0
-0.132028 -0.0369056 0
-0.135939 -0.0377103 0
-0.13985 -0.0385149 0
-0.143762 -0.0393092 0
-0.147675 -0.0401031 0
-0.15159 -0.0408904 0
-0.155506 -0.041668 0
-0.159422 -0.0424455 0
-0.163342 -0.0432056 0
-0.167262 -0.0439627 0
-0.171183 -0.0447127 0
-0.175108 -0.0454463 0
-0.179033 -0.0461799 0
-0.182961 -0.0468942 0
-0.18689 -0.0476022 0
-0.190821 -0.0483046 0
-0.194755 -0.0489856 0
-0.198689 -0.0496667 0
-0.202626 -0.0503294 0
-0.206565 -0.0509829 0
-0.210504 -0.0516328 0
-0.214448 -0.0522585 0
-0.218391 -0.0528841 0
-0.222337 -0.0534933 0
-0.226284 -0.0540912 0
-0.230232 -0.0546875 0
-0.234184 -0.0552582 0
-0.238136 -0.0558289 0
-0.242089 -0.0563854 0
-0.246045 -0.0569295 0
-0.25 -0.0535098 0
-0.25 -0.0495461 0
-0.25 -0.0455824 0
-0.25 -0.0416187 0
-0.25 -0.0376551 0
-0.25 -0.0336914 0
-0.25 -0.0297277 0
-0.25 -0.025764 0
-0.25 -0.0218003 0
-0.25 -0.0178366 0
-0.25 -0.0138729 0
-0.25 -0.00990922 0
-0.25 -0.00594553 0
-0.25 -0.00198184 0
-0.25 0.00198184 0
-0.25 0.00594553 0
-0.25 0.00990922 0
-0.25 0.0138729 0
-0.25 0.0178366 0
-0.25 0.0218003 0
-0.25 0.025764 0
-0.25 0.0297277 0
-0.25 0.0336914 0
-0.25 0.0376551 0
-0.25 0.0416187 0
-0.25 0.0455824 0
-0.25 0.0495461 0
-0.25 0.0535098 0
-0.246045 0.0569295 0.01
-0.242089 0.0563854 0.01
-0.238136 0.0558289 0.01
-0.234184 0.0552582 0.01
-0.230232 0.0546875 0.01
-0.226284 0.0540912 0.01
-0.222337 0.0534933 0.01
-0.218391 0.0528841 0.01
-0.214448 0.0522585 0.01
-0.210504 0.0516328 0.01
-0.206565 0.0509829 0.01
-0.202626 0.0503294 0.01
-0.198689 0.0496667 0.01
-0.194755 0.0489856 0.01
-0.190821 0.0483046 0.01
-0.18689 0.0476022 0.01
-0.182961 0.0468942 0.01
-0.179033 0.0461799 0.01
-0.175108 0.0454463 0.01
-0.171183 0.0447127 0.01
-0.167262 0.0439627 0.01
[...]
CELL_DATA 7657
SCALARS rho float
LOOKUP_TABLE default
0.556236
0.54993
0.498373
0.437564
0.503784
0.460205
0.515125
0.501398
0.544451
0.506489
0.506619
0.501676
0.536623
0.501537
0.503263
0.507373
0.503214
0.503943
0.503765
0.500095
0.503005
0.504307
0.548491
0.503759
0.505446
0.503103
0.448852
0.539173
0.505856
0.461261
0.500951
0.505433
0.547942
0.561091
0.559567
0.502708
0.461936
0.548403
0.544194
0.475466
0.497662
0.544039
0.438768
0.451572
0.497364
0.499096
0.5192
0.459279
0.505516
0.557812
0.4501
0.437111
0.505831
0.504743
0.513948
0.464908
0.503078
0.502973
0.564919
0.499243
0.505474
0.49647
0.505232
0.505171
0.506638
0.506715
0.53668
0.470163
0.50523
0.564445
0.499243
0.537392
0.436282
0.505892
0.562186
0.457678
0.504307
0.456512
0.563486
0.538306
0.547744
0.501216
0.500117
0.498045
0.498966
0.565393
0.498871
0.564263
0.502976
0.450197
0.50665
0.50675
0.565134
0.504891
0.47951
0.565721
0.565745
0.54908
0.496774
0.479493
0.504133
0.505622
0.549746
0.502724
0.520573
0.545871
0.488145
0.472739
0.53896
0.502793
0.501095
0.471683
0.445227
0.500106
0.501455
0.561994
0.473945
0.474151
0.511277
0.459935
0.50686
0.506801
0.487443
0.549239
0.500518
0.501551
0.501807
0.438742
0.46805
0.439671
0.43957
0.505027
0.465847
0.436037
0.500152
0.490691
0.506327
0.547968
0.50508
0.505161
0.488546
0.452472
0.472293
0.477651
0.503604
0.502802
0.547388
0.550257
0.496174
0.488169
0.469316
0.506157
0.553283
0.439647
0.502762
0.549836
0.470288
0.50461
0.500133
0.491864
0.504743
0.503072
0.50321
0.561668
0.493732
0.549709
0.541391
0.44444
0.501085
0.50887
0.497543
0.546348
0.504945
0.470297
0.5058
0.504279
0.435631
0.56595
0.50058
0.471023
0.477544
0.538494
0.505392
0.505383
0.535742
0.564647
0.541954
0.435677
0.502436
0.566167
0.505797
0.505043
0.500142
0.565774
0.5025
0.467168
0.500032
0.503243
0.50434
0.500381
0.503785
0.505581
0.566196
0.563628
0.448481
0.504841
0.539925
0.521925
0.55931
0.566137
0.487835
0.496159
0.493372
0.500168
0.497139
0.435752
0.509127
0.565113
0.472009
0.500194
0.550057
0.550126
0.506362
0.471166
0.540534
0.548177
0.53998
0.460365
0.455504
0.506498
0.491639
0.491899
0.538105
0.503004
0.514267
0.50008
0.563983
0.505529
0.505511
0.503443
0.487219
0.465805
0.565963
0.547869
0.56432
0.56605
0.542046
0.566331
0.543089
0.454138
0.502874
0.435684
0.473369
0.557972
0.507857
0.435702
0.550335
0.503462
0.505728
0.471393
0.548975
0.50601
0.513084
0.501195
0.510896
0.498812
0.563187
0.46467
0.503754
0.469026
0.533462
0.451601
0.452618
0.500067
0.564861
0.50135
0.442781
0.471573
0.470744
0.502199
0.549198
0.504403
0.459682
0.483081
0.435886
0.50136
0.483108
0.440279
0.553966
0.502662
0.501671
0.435879
0.458365
0.50607
0.473065
0.4475
0.541001
0.501123
0.561874
0.501904
0.565398
0.505248
0.467848
0.541472
0.448594
0.565293
0.512126
0.436157
0.503211
0.472516
0.502101
0.562798
0.503916
0.542722
0.505548
0.50435
0.506031
0.503873
0.472068
0.504304
0.441863
0.54831
0.506088
0.564354
0.509654
0.503777
0.541878
0.552727
0.503023
0.502449
0.546029
0.503896
0.512324
0.550716
0.501338
0.556398
0.473002
0.460341
0.505559
0.505853
0.502648
0.506035
0.551114
0.510904
0.499985
0.50743
0.505805
0.550681
0.499796
0.50284
0.461799
0.50469
0.500131
0.504801
0.512413
0.505508
0.505046
0.523285
0.505494
0.520579
0.478053
0.50414
0.499967
0.56231
0.503013
0.504723
0.502738
0.477041
0.564974
0.565148
0.463062
0.559776
0.500177
0.500398
0.538989
0.537293
0.504811
0.556168
0.502706
0.516588
0.494306
0.50338
0.452998
0.505239
0.505989
0.506138
0.560573
0.50177
0.502881
0.503042
0.478599
0.473279
0.472421
0.500315
0.503359
0.56431
0.508873
0.546499
0.503162
0.461599
0.500129
0.500139
0.503375
0.50621
0.477467
0.559713
0.505181
0.532543
0.502909
0.503291
0.504939
0.463628
0.505205
0.438387
0.566848
0.500424
0.496933
0.501118
0.438306
0.549183
0.548474
0.501202
0.524811
0.552264
0.550113
0.501792
0.566127
0.500716
0.437921
0.505589
0.56137
0.511903
0.551365
0.500041
0.504201
0.520014
0.505236
0.505146
0.508938
0.503604
0.459454
0.517424
0.496655
0.505935
0.502198
0.494506
0.487294
0.5234
0.503097
0.561668
0.505526
0.505588
0.479736
0.518939
0.540965
0.566702
0.516497
0.506215
0.508767
0.566116
0.553561
0.46963
0.502592
0.566735
0.552695
0.500468
0.545453
0.546762
0.514038
0.510966
0.504568
0.480511
0.559098
0.554256
0.503187
0.505537
0.504138
0.458317
0.48573
0.505832
0.562464
0.505873
0.504696
0.504931
0.494951
0.471058
0.462762
0.495833
0.505368
0.505077
0.503234
0.505412
0.501632
0.567356
0.501906
0.528817
0.437729
0.454933
0.561917
0.558966
0.501075
0.501188
0.560852
0.500799
0.563985
0.56457
0.551561
0.436624
0.562292
0.5142
0.461465
0.504422
0.505468
0.503615
0.50395
0.50074
0.528562
0.504569
0.537601
0.548809
0.506471
0.500217
0.501248
0.441415
0.502305
0.500944
0.506132
0.498226
0.506199
0.505321
0.476196
0.512439
0.50132
0.558995
0.496516
0.505488
0.497363
0.501324
0.510395
0.503169
0.494286
0.505523
0.560633
0.501829
0.504046
0.500371
0.50538
0.437151
0.463392
0.50531
0.510285
0.438657
0.558675
0.503222
0.535541
0.522644
0.479009
0.502384
0.546638
0.556488
0.5175
0.452125
0.500593
0.531367
0.505243
0.520864
0.505715
0.500357
0.502508
0.561062
0.566998
0.453886
0.504699
0.549059
0.566005
0.525978
0.501422
0.499986
0.502091
0.50166
0.541649
0.555201
0.566448
0.470601
0.505211
0.558183
0.505006
0.5619
0.506041
0.530444
0.502476
0.501589
0.522097
0.560547
0.565663
0.470497
0.505847
0.542219
0.494929
0.501745
0.567325
0.503143
0.4718
0.502561
0.501379
0.501463
0.503072
0.567394
0.47397
0.503246
0.502976
0.501879
0.501801
0.520914
0.495484
0.51255
0.499983
0.560355
0.559725
0.501452
0.496438
0.505314
0.505941
0.500612
0.501217
0.505025
0.54961
0.561713
0.562343
0.543781
0.504021
0.469379
0.505563
0.504971
0.439772
0.500853
0.559359
0.505362
0.504395
0.50399
0.504326
0.505492
0.505621
0.529207
0.442201
0.500442
0.505414
0.504866
0.554951
0.501645
0.517764
0.504801
0.498903
0.500684
0.500082
0.502238
0.454403
0.505436
0.505197
0.505267
0.485183
0.504678
0.51033
0.56032
0.505237
0.50496
0.559896
0.501527
0.504608
0.553677
0.500556
0.566275
0.557856
0.51028
0.436527
0.553428
0.552482
0.552865
0.500027
0.504485
0.494856
0.505134
0.554283
0.501976
0.501292
0.504408
0.476426
0.438522
0.544365
0.494995
0.565785
0.50154
0.502227
0.50506
0.505302
0.50225
0.500244
0.541041
0.503408
0.503371
0.524585
0.505131
0.541515
0.546709
0.524414
0.443294
0.504274
0.542892
0.50419
0.500793
0.500697
0.436237
0.501628
0.50514
0.50446
0.529824
0.506714
0.506049
0.566948
0.558532
0.442077
0.553924
0.500822
0.500832
0.503953
0.504993
0.503472
0.504649
0.499649
0.565543
0.505354
0.505034
0.440921
0.556285
0.502324
0.560914
0.546703
0.55832
0.500728
0.505281
0.505116
0.552091
0.504929
0.565347
0.510438
0.500851
0.546869
0.545505
0.486291
0.503298
0.505197
0.53057
0.505084
0.531341
0.506123
0.503222
0.504968
0.476371
0.50418
0.504721
0.551078
0.50507
0.500395
0.505367
0.50525
0.501229
0.474147
0.545629
0.505288
0.501997
0.504698
0.504568
0.518949
0.544772
0.50518
0.502192
0.521585
0.503796
0.505093
0.488634
0.442109
0.505387
0.474658
0.500858
0.521938
0.500123
0.505137
0.436908
0.565881
0.505451
0.560143
0.523217
0.502311
0.504905
0.496665
0.510202
0.500979
0.564934
0.554896
0.55736
0.504579
0.491247
0.531725
0.502301
0.556029
0.565704
0.565778
0.448817
0.504802
0.501336
0.566623
0.540085
0.532765
0.446063
0.525764
0.504358
0.500122
0.444637
0.500922
0.502638
0.500122
0.54853
0.500243
0.500495
0.520581
0.566897
0.502403
0.476283
0.561236
0.529477
0.500683
0.502689
0.474627
0.503256
0.500575
0.507408
0.524229
0.500133
0.50393
0.505307
0.500474
0.503769
0.505403
0.505723
0.505605
0.503825
0.499816
0.564552
0.566494
0.439747
0.504116
0.505757
0.491223
0.54509
0.477856
0.504639
0.561289
0.504699
0.561328
0.502576
0.503076
0.500491
0.502511
0.503193
0.44085
0.504801
0.500613
0.48794
0.503374
0.52324
0.545096
0.505666
0.533724
0.502928
0.503306
0.476272
0.486361
0.504747
0.504009
0.501221
0.504411
0.50223
0.563639
0.502547
0.543937
0.542994
0.544825
0.501433
0.501575
0.504514
0.538446
0.504727
0.44741
0.503444
0.504173
0.50354
0.504017
0.503851
0.503115
0.567173
0.502794
0.503283
0.508046
0.500651
0.506889
0.463448
0.504536
0.460357
0.566654
0.511954
0.450302
0.471391
0.489629
0.563087
0.56308
0.504064
0.502053
0.502934
0.50216
0.547099
0.5666
0.500297
0.502407
0.504167
0.502843
0.564064
0.479561
0.502752
0.563112
0.563136
0.536684
0.507611
0.502447
0.502702
0.458842
0.565319
0.56538
0.500834
0.444669
0.447447
0.532691
0.478037
0.504825
0.500037
0.501099
0.504829
0.481269
0.472945
0.500407
0.50237
0.496428
0.461897
0.538359
0.538383
0.539334
0.502722
0.492837
0.552906
0.501832
0.500978
0.505315
0.502525
0.502463
0.501304
0.470904
0.451828
0.500549
0.471387
0.566453
0.502833
0.505059
0.55558
0.549264
0.505058
0.500226
0.565716
0.452961
0.504718
0.501225
0.45461
0.502543
0.500377
0.502573
0.502654
0.502556
0.504894
0.504824
0.500422
0.503519
0.505618
0.457361
0.479652
0.502616
0.507322
0.500256
0.566633
0.505108
0.504942
0.55699
0.555771
0.500329
0.502195
0.500022
0.558522
0.502502
0.503039
0.505159
0.500321
0.478018
0.500311
0.503343
0.503144
0.505212
0.534719
0.505581
0.501947
0.502192
0.536581
0.536567
0.546365
0.502469
0.502511
0.50019
0.495011
0.50082
0.500921
0.463371
0.504121
0.503141
0.502535
0.510445
0.504329
0.519205
0.494499
0.500776
0.505672
0.504514
0.504171
0.500557
0.500599
0.49421
0.503845
0.503977
0.500035
0.502816
0.503998
0.534729
0.495094
0.559302
0.5504
0.505035
0.453776
0.453197
0.503794
0.504497
0.500941
0.502548
0.503896
0.502533
0.50114
0.517782
0.453026
0.504419
0.504412
0.541461
0.501698
0.468704
0.551536
0.501405
0.44598
0.50562
0.500338
0.505406
0.500301
0.5026
0.503803
0.501517
0.502616
0.505352
0.505655
0.504439
0.557239
0.456065
0.505411
0.508826
0.503514
0.56716
0.454427
0.504672
0.567162
0.565167
0.502598
0.457423
0.500362
0.520537
0.482914
0.519113
0.500212
0.502933
0.55949
0.560232
0.47789
0.502542
0.50216
0.503632
0.502566
0.476339
0.501407
0.51169
0.50549
0.503282
0.501679
0.458858
0.502718
0.468676
0.455889
0.50087
0.504109
0.488017
0.500112
0.469772
0.501068
0.504367
0.561654
0.502908
0.560339
0.500223
0.506541
0.500421
0.505236
0.50258
0.452987
0.495912
0.496487
0.502582
0.502702
0.50364
0.548576
0.50159
0.502654
0.501567
0.499349
0.509092
0.500477
0.5029
0.479555
0.499341
0.502862
0.507355
0.451726
0.484612
0.539117
0.5391
0.453234
0.450339
0.504225
0.496123
0.505567
0.504505
0.504819
0.500481
0.511917
0.5023
0.500851
0.501994
0.486249
0.500426
0.50452
0.501715
0.502124
0.566477
0.500322
0.502551
0.508943
0.563543
0.563519
0.500625
0.504662
0.502581
0.502078
0.5054
0.500409
0.500225
0.505385
0.503978
0.505636
0.566639
0.436105
0.516368
0.500758
0.499371
0.502326
0.517741
0.477005
0.500531
0.504594
0.501652
0.501236
0.505612
0.505519
0.53063
0.505506
0.454438
0.504606
0.502473
0.500432
0.50261
0.500219
0.502668
0.504427
0.525832
0.51029
0.502545
0.45882
0.502603
0.501104
0.50099
0.458843
0.505324
0.502519
0.542435
0.500957
0.513368
0.479596
0.504187
0.502461
0.514896
0.469827
0.533732
0.492815
0.560783
0.504783
0.557601
0.563238
0.504599
0.505488
0.505579
0.451625
0.504792
0.500362
0.500504
0.491173
0.505518
0.502089
0.54414
0.508851
0.501469
0.50497
0.501709
0.500546
0.50093
0.500319
0.505051
0.504436
0.505108
0.48798
0.503729
0.503395
0.503826
0.504422
0.505791
0.501716
0.502849
0.50279
0.502707
0.501087
0.50339
0.505786
0.501325
0.505143
0.502073
0.503702
0.502789
0.437233
0.503458
0.437418
0.502543
0.5033
0.511866
0.546148
0.49565
0.495583
0.500409
0.50066
0.470872
0.500317
0.500969
0.505478
0.482792
0.482811
0.534679
0.500417
0.504527
0.500801
0.462692
0.500254
0.500984
0.504101
0.503509
0.50064
0.566938
0.566206
0.467525
0.50083
0.50206
0.500533
0.444704
0.443311
0.443263
0.505527
0.502092
0.501103
0.500645
0.500173
0.505589
0.443507
0.505493
0.505344
0.500517
0.531719
0.501702
0.469733
0.500768
0.487268
0.487276
0.503321
0.502452
0.501346
0.498173
0.505112
0.500281
0.47638
0.498338
0.505567
0.502367
0.503976
0.511859
0.535734
0.537612
0.498041
0.503503
0.501193
0.505588
0.50521
0.502992
0.500391
0.5055
0.501843
0.502857
0.50465
0.500704
0.50564
0.501343
0.463447
0.503314
0.502811
0.502414
0.503724
0.50184
0.504737
0.501966
0.500717
0.501815
0.457347
0.5028
0.500867
0.500873
0.501213
0.500644
0.500877
0.501591
0.530521
0.484346
0.484361
0.501093
0.502064
0.500928
0.502542
0.517757
0.501927
0.505132
0.500525
0.504865
0.435716
0.502526
0.503045
0.489564
0.508191
0.501205
0.525774
0.501366
0.438819
0.501846
0.497719
0.497712
0.438799
0.438936
0.505448
0.502219
0.505611
0.505732
0.437243
0.501046
0.500429
0.462715
0.551327
0.504317
0.505749
0.501966
0.502076
0.553551
0.479589
0.454391
0.460129
0.500699
0.500757
0.500902
0.500803
0.50516
0.503594
0.503348
0.503097
0.501078
0.503836
0.501006
0.50184
0.487282
0.502714
0.564987
0.504482
0.501591
0.50194
0.500723
0.502219
0.493495
0.50246
0.503279
0.505208
0.50151
0.502539
0.503457
0.505454
0.50266
0.557503
0.502636
0.555042
0.555954
0.504657
0.502396
0.500451
0.502501
0.481282
0.501187
0.503021
0.502396
0.505521
0.502779
0.502276
0.514868
0.505548
0.503383
0.502717
0.479396
0.479456
0.503603
0.516286
0.504727
0.501808
0.505056
0.546491
0.501466
0.502588
0.46035
0.469757
0.502832
0.490627
0.463415
0.505249
0.466585
0.506308
0.506204
0.504851
0.468136
0.504491
0.504833
0.502032
0.505247
0.503698
0.501725
0.500401
0.56422
0.451582
0.51486
0.505842
0.457393
0.503066
0.517706
0.448906
0.450263
0.502583
0.56115
0.468178
0.439947
0.504272
0.504955
0.50096
0.564805
0.503313
0.435642
0.506183
0.506075
0.502498
0.501703
0.502476
0.501451
0.446373
0.505112
0.505179
0.503726
0.50563
0.501337
0.504962
0.505166
0.501204
0.466575
0.500277
0.500347
0.48623
0.505716
0.504111
0.465187
0.502956
0.502453
0.560392
0.50281
0.503176
0.502723
0.50406
0.502724
0.505348
0.505433
0.505693
0.473011
0.564477
0.503718
0.436574
0.436702
0.50242
0.505398
0.502911
0.502333
0.502647
0.503421
0.505589
0.505499
0.502343
0.502503
0.501115
0.50545
0.443343
0.502793
0.503765
0.502583
0.444564
0.444621
0.500987
0.501763
0.503474
0.500877
0.502658
0.504334
0.501034
0.46137
0.505375
0.448967
0.448786
0.502311
0.504863
0.501597
0.50394
0.48196
0.481986
0.470797
0.487956
0.487966
0.504175
0.504524
0.504943
0.462695
0.503957
0.502513
0.548711
0.504071
0.495135
0.495063
0.502598
0.502529
0.505599
0.502091
0.498742
0.505467
0.505336
0.505427
0.504172
0.504151
0.513982
0.503225
0.489992
0.489935
0.505498
0.503388
0.505567
0.499907
0.499808
0.502473
0.503986
0.50512
0.500344
0.505489
0.479634
0.502177
0.563666
0.505538
0.502973
0.554775
0.503948
0.50581
0.505747
0.505622
0.500574
0.504233
0.502578
0.503505
0.505898
0.549189
0.503099
0.503609
0.505106
0.503006
0.501432
0.501174
0.547955
0.500501
0.500427
0.50547
0.487946
0.489523
0.503845
0.500787
0.501514
0.503709
0.504522
0.503556
0.502445
0.502504
0.500502
0.504687
0.505344
0.500724
0.503133
0.510402
0.513432
0.503347
0.499912
0.462721
0.564104
0.469753
0.504299
0.505837
0.501031
0.505265
0.505808
0.504884
0.502562
0.482924
0.505364
0.50482
0.566436
0.524024
0.504585
0.503584
0.504514
0.50099
0.503187
0.489524
0.505333
0.504082
0.505743
0.486215
0.486205
0.501225
0.492923
0.502438
0.503694
0.504171
0.503086
0.472992
0.504288
0.503203
0.500886
0.504565
0.50399
0.50384
0.502835
0.489995
0.502344
0.504118
0.503634
0.505614
0.502812
0.530126
0.502764
0.50184
0.503829
0.485092
0.485087
0.503658
0.502806
0.505332
0.503534
0.505729
0.505482
0.505716
0.556288
0.501566
0.505402
0.505341
0.504438
0.501489
0.504061
0.502699
0.504847
0.502829
0.502517
0.47856
0.478511
0.505727
0.505627
0.527101
0.505187
0.503948
0.500558
0.50388
0.504704
0.502958
0.504213
0.500536
0.503655
0.505633
0.504822
0.56208
0.50372
0.504474
0.502484
0.505382
0.467448
0.503964
0.528327
0.503477
0.50541
0.50544
0.558878
0.50408
0.503024
0.504394
0.503902
0.510685
0.505651
0.452977
0.455966
0.503772
0.504514
0.502716
0.467499
0.503629
0.503147
0.504453
0.505264
0.439733
0.439863
0.50043
0.504604
0.504901
0.440842
0.505388
0.504395
0.559231
0.503005
0.435549
0.505189
0.505394
0.445175
0.503738
0.505596
0.502356
0.504416
0.501033
0.505588
0.505876
0.503667
0.503657
0.505489
0.503419
0.505672
0.500617
0.505434
0.502494
0.466392
0.503624
0.50316
0.501106
0.50344
0.435813
0.503328
0.50417
0.504002
0.504637
0.505291
0.548876
0.505569
0.505644
0.502831
0.500405
0.505471
0.500388
0.505473
0.503963
0.503583
0.505375
0.503708
0.503068
0.504273
0.501692
0.50556
0.53765
0.50393
0.53475
0.505311
0.502787
0.502453
0.50558
0.502593
0.502692
0.450335
0.450228
0.503342
0.502282
0.505543
0.4619
0.465015
0.503533
0.503106
0.503796
0.505389
0.50354
0.501812
0.502473
0.505303
0.505314
0.463918
0.504045
0.503821
0.502552
0.505705
0.497762
0.516353
0.504772
0.505119
0.5051
0.465161
0.502492
0.504163
0.503527
0.563545
0.562914
0.505156
0.502677
0.505238
0.437925
0.490625
0.490567
0.504806
0.463993
0.503235
0.503062
0.502485
0.502489
0.50287
0.553777
0.505273
0.505437
0.455872
0.502875
0.503992
0.504578
0.504506
0.502674
0.504368
0.503586
0.500262
0.500164
0.563112
0.502499
0.505536
0.503436
0.50254
0.505282
0.503004
0.555465
0.504422
0.503354
0.502578
0.504298
0.502456
0.501247
0.503605
0.50254
0.505307
0.503948
0.502069
0.503812
0.502911
0.502698
0.50572
0.502479
0.504545
0.504464
0.502616
0.503506
0.503014
0.505432
0.502475
0.505105
0.502433
0.504842
0.505518
0.5043
0.505809
0.5045
0.503246
0.503513
0.547226
0.50438
0.503325
0.502352
0.502572
0.503635
0.505621
0.50361
0.501464
0.502435
0.50423
0.504001
0.503608
0.502275
0.505222
0.502713
0.504578
0.502871
0.502942
0.503382
0.503662
0.50544
0.505322
0.504188
0.504098
0.502264
0.504046
0.504713
0.502914
0.50257
0.502673
0.502606
0.50298
0.502648
0.505548
0.502521
0.504864
0.502797
0.502511
0.505318
0.505681
0.504597
0.505594
0.503191
0.50445
0.551811
0.502451
0.487912
0.484587
0.500593
0.505039
0.502532
0.502682
0.505445
0.505628
0.505701
0.502674
0.504056
0.502908
0.502549
0.503754
0.503869
0.50373
0.503495
0.502853
0.502253
0.502558
0.502699
0.504479
0.497522
0.504251
0.50489
0.504621
0.505543
0.504515
0.502673
0.50265
0.497475
0.50253
0.525594
0.515901
0.502368
0.502299
0.502577
0.50329
0.541323
0.505716
0.50367
0.502442
0.539544
0.502459
0.557795
0.50441
0.505249
0.502583
0.500755
0.505388
0.549145
0.50034
0.504594
0.506875
0.5048
0.502556
0.547396
0.502215
0.505616
0.563509
0.502392
0.503076
0.503022
0.502886
0.502435
0.505287
0.50284
0.513448
0.503307
0.503895
0.504395
0.503144
0.538578
0.502567
0.505473
0.502342
0.502632
0.502521
0.505501
0.502278
0.563667
0.502844
0.502614
0.501028
0.562326
0.50281
0.503775
0.505248
0.502514
0.505027
0.506875
0.504283
0.502357
0.501899
0.560754
0.502967
0.502482
0.503052
0.503459
0.503587
0.502735
0.561746
0.505524
0.502476
0.50237
0.503337
0.505676
0.505347
0.50404
0.502576
0.505146
0.504876
0.502538
0.559558
0.503594
0.504821
0.502522
0.504194
0.502792
0.503847
0.502832
0.505703
0.505
0.561209
0.507985
0.502823
0.504621
0.502675
0.502769
0.505016
0.504304
0.554608
0.504721
0.505579
0.504393
0.502759
0.503307
0.503291
0.504698
0.502433
0.502533
0.505473
0.558609
0.538592
0.533769
0.502701
0.562518
0.503465
0.460358
0.465016
0.503542
0.503084
0.559103
0.502651
0.502893
0.503997
0.503989
0.503197
0.50501
0.562993
0.501106
0.51486
0.507364
0.5053
0.504469
0.502525
0.504606
0.503483
0.564106
0.502852
0.562809
0.560184
0.5048
0.56417
0.464024
0.563486
0.502911
0.502258
0.50569
0.502638
0.503882
0.563035
0.504827
0.457341
0.505375
0.502473
0.505673
0.501315
0.502562
0.503494
0.502426
0.505008
0.505089
0.505292
0.504912
0.555616
0.508705
0.502892
0.502479
0.502572
0.504005
0.56379
0.505004
0.547296
0.504815
0.505549
0.507896
0.559066
0.505377
0.503038
0.505079
0.502558
0.505681
0.505497
0.505697
0.504754
0.56014
0.505716
0.503313
0.505706
0.502715
0.505175
0.505634
0.555098
0.503495
0.484587
0.489557
0.564559
0.564795
0.50346
0.512583
0.50482
0.505648
0.551805
0.551772
0.564799
0.505
0.505864
0.502811
0.502466
0.503012
0.502928
0.503147
0.564975
0.504808
0.505622
0.502334
0.505657
0.506635
0.502785
0.505508
0.50659
0.505476
0.504905
0.518703
0.562165
0.503138