# vtk DataFile Version 1.0
unstructured grid
ascii
DATASET UNSTRUCTURED_GRID
points 8094 float
-0.25 0.0574735 0
0.5 0.0546937 0
0.5 -0.0546937 0
-0.25 -0.0574735 0
-0.25 0.0574735 0.01
0.5 0.0546937 0.01
0.5 -0.0546937 0.01
-0.25 -0.0574735 0.01
-0.246045 0.0569295 0
-0.242089 0.0563854 0
-0.238136 0.0558289 0
-0.234184 0.0552582 0
-0.230232 0.0546875 0
-0.226284 0.0540912 0
-0.222337 0.0534933 0
-0.218391 0.0528841 0
-0.214448 0.0522585 0
-0.210504 0.0516328 0
-0.206565 0.0509829 0
-0.202626 0.0503294 0
-0.198689 0.0496667 0
-0.194755 0.0489856 0
-0.190821 0.0483046 0
-0.18689 0.0476022 0
-0.182961 0.0468942 0
-0.179033 0.0461799 0
-0.175108 0.0454463 0
-0.171183 0.0447127 0
-0.167262 0.0439627 0
-0.163342 0.0432056 0
-0.159422 0.0424455 0
-0.155506 0.041668 0
-0.15159 0.0408904 0
-0.147675 0.0401031 0
-0.143762 0.0393092 0
-0.13985 0.0385149 0
-0.135939 0.0377103 0
-0.132028 0.0369056 0
-0.128117 0.0361005 0
-0.124207 0.0352949 0
-0.120296 0.0344893 0
-0.116386 0.0336836 0
-0.112475 0.032878 0
-0.108563 0.0320794 0
-0.104649 0.0312931 0
-0.100735 0.0305068 0
-0.0968152 0.029745 0
-0.0928949 0.0289889 0
-0.0889722 0.0282446 0
-0.0850433 0.0275341 0
-0.0811144 0.0268235 0
-0.0771778 0.0261578 0
-0.0732381 0.0255098 0
-0.0692962 0.0248759 0
-0.0653442 0.0243073 0
-0.0613923 0.0237386 0
-0.0574324 0.0232306 0
-0.0534681 0.0227556 0
-0.0495024 0.0222934 0
-0.0455272 0.0219207 0
-0.041552 0.0215481 0
-0.0375717 0.0212385 0
-0.0335881 0.0209694 0
-0.029604 0.0207098 0
-0.0256151 0.0205369 0
-0.0216262 0.0203639 0
-0.0176357 0.0202396 0
-0.0136441 0.0201487 0
-0.00965243 0.0200635 0
-0.00565987 0.0200372 0
-0.00166732 0.020011 0
0.00232526 0.0200121 0
0.00631785 0.0200329 0
0.0103104 0.0200563 0
0.0143027 0.0201109 0
0.018295 0.0201654 0
0.022287 0.0202345 0
0.0262788 0.0203144 0
0.0302706 0.0203957 0
0.034262 0.0204956 0
0.0382534 0.0205955 0
0.0422446 0.0207045 0
0.0462355 0.0208207 0
0.0502265 0.0209377 0
0.054217 0.0210676 0
0.0582075 0.0211975 0
0.0621978 0.0213339 0
0.0661879 0.0214757 0
0.0701781 0.021618 0
0.0741678 0.0217703 0
0.0781575 0.0219227 0
0.0821471 0.0220801 0
0.0861364 0.022242 0
0.0901258 0.0224041 0
0.0941148 0.0225747 0
0.0981038 0.0227453 0
0.102093 0.0229202 0
0.106081 0.023099 0
0.11007 0.0232779 0
0.114058 0.0234644 0
0.118046 0.0236509 0
0.122035 0.0238411 0
0.126022 0.024035 0
0.13001 0.0242288 0
0.133998 0.0244298 0
0.137986 0.0246308 0
0.141973 0.0248352 0
0.14596 0.025043 0
0.149947 0.0252509 0
0.153934 0.0254654 0
0.157921 0.02568 0
0.161908 0.0258978 0
0.165894 0.026119 0
0.169881 0.0263402 0
0.173867 0.0265678 0
0.177853 0.0267956 0
0.181839 0.0270264 0
0.185825 0.0272607 0
0.189811 0.0274951 0
0.193796 0.0277356 0
0.197781 0.0279764 0
0.201767 0.02822 0
0.205752 0.0284673 0
0.209737 0.0287146 0
0.213721 0.0289679 0
0.217706 0.0292217 0
0.22169 0.0294782 0
0.225674 0.0297385 0
0.229658 0.0299988 0
0.233642 0.0302651 0
0.237626 0.0305319 0
0.241609 0.0308014 0
0.245593 0.0310748 0
0.249576 0.0313482 0
0.253559 0.0316276 0
0.257542 0.0319077 0
0.261524 0.0321904 0
0.265507 0.0324772 0
0.269489 0.032764 0
0.273471 0.0330568 0
0.277453 0.0333504 0
0.281434 0.0336466 0
0.285416 0.0339471 0
0.289397 0.0342476 0
0.293378 0.034554 0
0.297359 0.0348615 0
0.301339 0.0351714 0
0.305319 0.0354859 0
0.3093 0.0358005 0
0.313279 0.036121 0
0.317259 0.0364427 0
0.321239 0.0367667 0
0.325218 0.0370957 0
0.329197 0.0374248 0
0.333175 0.0377597 0
0.337154 0.0380961 0
0.341132 0.0384347 0
0.34511 0.0387786 0
0.349088 0.0391226 0
0.353065 0.0394724 0
0.357042 0.0398239 0
0.361019 0.0401775 0
0.364995 0.0405368 0
0.368972 0.0408961 0
0.372948 0.0412613 0
0.376924 0.0416285 0
0.380899 0.0419975 0
0.384874 0.0423727 0
0.388849 0.0427479 0
0.392823 0.0431289 0
0.396798 0.0435123 0
0.400772 0.0438973 0
0.404745 0.044289 0
0.408718 0.0446807 0
0.412691 0.0450781 0
0.416664 0.0454782 0
0.420636 0.0458797 0
0.424608 0.0462883 0
0.42858 0.046697 0
0.432551 0.0471114 0
0.436521 0.0475289 0
0.440492 0.0479474 0
0.444462 0.0483738 0
0.448432 0.0488001 0
0.452401 0.0492319 0
0.45637 0.0496673 0
0.460338 0.0501035 0
0.464306 0.0505482 0
0.468274 0.0509928 0
0.472241 0.0514427 0
0.476208 0.0518968 0
0.480175 0.0523512 0
0.48414 0.0528148 0
0.488106 0.0532784 0
0.492071 0.0537471 0
0.496036 0.0542204 0
0.5 0.050787 0
0.5 0.0468803 0
0.5 0.0429736 0
0.5 0.0390669 0
0.5 0.0351602 0
0.5 0.0312535 0
0.5 0.0273468 0
0.5 0.0234402 0
0.5 0.0195335 0
0.5 0.0156268 0
0.5 0.0117201 0
0.5 0.00781339 0
0.5 0.00390669 0
0.5 1.43781e-13 0
0.5 -0.00390669 0
0.5 -0.00781339 0
0.5 -0.0117201 0
0.5 -0.0156268 0
0.5 -0.0195335 0
0.5 -0.0234402 0
0.5 -0.0273468 0
0.5 -0.0312535 0
0.5 -0.0351602 0
0.5 -0.0390669 0
0.5 -0.0429736 0
0.5 -0.0468803 0
0.5 -0.050787 0
0.496036 -0.0542204 0
0.492071 -0.0537471 0
0.488106 -0.0532784 0
0.48414 -0.0528148 0
0.480175 -0.0523512 0
0.476208 -0.0518968 0
0.472241 -0.0514427 0
0.468274 -0.0509928 0
0.464306 -0.0505482 0
0.460338 -0.0501035 0
0.45637 -0.0496673 0
0.452401 -0.0492319 0
0.448432 -0.0488001 0
0.444462 -0.0483738 0
0.440492 -0.0479474 0
0.436521 -0.0475289 0
0.432551 -0.0471114 0
0.42858 -0.046697 0
0.424608 -0.0462883 0
0.420636 -0.0458797 0
0.416664 -0.0454782 0
0.412691 -0.0450781 0
0.408718 -0.0446807 0
0.404745 -0.044289 0
0.400772 -0.0438973 0
0.396798 -0.0435123 0
0.392823 -0.0431289 0
0.388849 -0.0427479 0
0.384874 -0.0423727 0
0.380899 -0.0419975 0
0.376924 -0.0416285 0
0.372948 -0.0412613 0
0.368972 -0.0408961 0
0.364995 -0.0405368 0
0.361019 -0.0401775 0
0.357042 -0.0398239 0
0.353065 -0.0394724 0
0.349088 -0.0391226 0
0.34511 -0.0387786 0
0.341132 -0.0384347 0
0.337154 -0.0380961 0
0.333175 -0.0377597 0
0.329197 -0.0374248 0
0.325218 -0.0370957 0
0.321239 -0.0367667 0
0.317259 -0.0364427 0
0.313279 -0.036121 0
0.3093 -0.0358005 0
0.305319 -0.0354859 0
0.301339 -0.0351714 0
0.297359 -0.0348615 0
0.293378 -0.034554 0
0.289397 -0.0342476 0
0.285416 -0.0339471 0
0.281434 -0.0336466 0
0.277453 -0.0333504 0
0.273471 -0.0330568 0
0.269489 -0.032764 0
0.265507 -0.0324772 0
0.261524 -0.0321904 0
0.257542 -0.0319077 0
0.253559 -0.0316276 0
0.249576 -0.0313482 0
0.245593 -0.0310748 0
0.241609 -0.0308014 0
0.237626 -0.0305319 0
0.233642 -0.0302651 0
0.229658 -0.0299988 0
0.225674 -0.0297385 0
0.22169 -0.0294782 0
0.217706 -0.0292217 0
0.213721 -0.0289679 0
0.209737 -0.0287146 0
0.205752 -0.0284673 0
0.201767 -0.02822 0
0.197781 -0.0279764 0
0.193796 -0.0277356 0
0.189811 -0.0274951 0
0.185825 -0.0272607 0
0.181839 -0.0270264 0
0.177853 -0.0267956 0
0.173867 -0.0265678 0
0.169881 -0.0263402 0
0.165894 -0.026119 0
0.161908 -0.0258978 0
0.157921 -0.02568 0
0.153934 -0.0254654 0
0.149947 -0.0252509 0
0.14596 -0.025043 0
0.141973 -0.0248352 0
0.137986 -0.0246308 0
0.133998 -0.0244298 0
0.13001 -0.0242288 0
0.126022 -0.024035 0
0.122035 -0.0238411 0
0.118046 -0.0236509 0
0.114058 -0.0234644 0
0.11007 -0.0232779 0
0.106081 -0.023099 0
0.102093 -0.0229202 0
0.0981038 -0.0227453 0
0.0941148 -0.0225747 0
0.0901258 -0.0224041 0
0.0861364 -0.022242 0
0.0821471 -0.0220801 0
0.0781575 -0.0219227 0
0.0741678 -0.0217703 0
0.0701781 -0.021618 0
0.0661879 -0.0214757 0
0.0621978 -0.0213339 0
0.0582075 -0.0211975 0
0.054217 -0.0210676 0
0.0502265 -0.0209377 0
0.0462355 -0.0208207 0
0.0422446 -0.0207045 0
0.0382534 -0.0205955 0
0.034262 -0.0204956 0
0.0302706 -0.0203957 0
0.0262788 -0.0203144 0
0.022287 -0.0202345 0
0.018295 -0.0201654 0
0.0143027 -0.0201109 0
0.0103104 -0.0200563 0
0.00631785 -0.0200329 0
0.00232526 -0.0200121 0
-0.00166732 -0.020011 0
-0.00565987 -0.0200372 0
-0.00965243 -0.0200635 0
-0.0136441 -0.0201487 0
-0.0176357 -0.0202396 0
-0.0216262 -0.0203639 0
-0.0256151 -0.0205369 0
-0.029604 -0.0207098 0
-0.0335881 -0.0209694 0
-0.0375717 -0.0212385 0
-0.041552 -0.0215481 0
-0.0455272 -0.0219207 0
-0.0495024 -0.0222934 0
-0.0534681 -0.0227556 0
-0.0574324 -0.0232306 0
-0.0613923 -0.0237386 0
-0.0653442 -0.0243073 0
-0.0692962 -0.0248759 0
-0.0732381 -0.0255098 0
-0.0771778 -0.0261578 0
-0.0811144 -0.0268235 0
-0.0850433 -0.0275341 0
-0.0889722 -0.0282446 0
-0.0928949 -0.0289889 0
-0.0968152 -0.029745 0
-0.100735 -0.0305068 0
-0.104649 -0.0312931 0
-0.108563 -0.0320794 0
-0.112475 -0.032878 0
-0.116386 -0.0336836 0
-0.120296 -0.0344893 0
-0.124207 -0.0352949 0
-0.128117 -0.0361005 0
-0.132028 -0.0369056 0
-0.135939 -0.0377103 0
-0.13985 -0.0385149 0
-0.143762 -0.0393092 0
-0.147675 -0.0401031 0
-0.15159 -0.0408904 0
-0.155506 -0.041668 0
-0.159422 -0.0424455 0
-0.163342 -0.0432056 0
-0.167262 -0.0439627 0
-0.171183 -0.0447127 0
-0.175108 -0.0454463 0
-0.179033 -0.0461799 0
-0.182961 -0.0468942 0
-0.18689 -0.0476022 0
-0.190821 -0.0483046 0
-0.194755 -0.0489856 0
-0.198689 -0.0496667 0
-0.202626 -0.0503294 0
-0.206565 -0.0509829 0
-0.210504 -0.0516328 0
-0.214448 -0.0522585 0
-0.218391 -0.0528841 0
-0.222337 -0.0534933 0
-0.226284 -0.0540912 0
-0.230232 -0.0546875 0
-0.234184 -0.0552582 0
-0.238136 -0.0558289 0
-0.242089 -0.0563854 0
-0.246045 -0.0569295 0
-0.25 -0.0535098 0
-0.25 -0.0495461 0
-0.25 -0.0455824 0
-0.25 -0.0416187 0
-0.25 -0.0376551 0
-0.25 -0.0336914 0
-0.25 -0.0297277 0
-0.25 -0.025764 0
-0.25 -0.0218003 0
-0.25 -0.0178366 0
-0.25 -0.0138729 0
-0.25 -0.00990922 0
-0.25 -0.00594553 0
-0.25 -0.00198184 0
-0.25 0.00198184 0
-0.25 0.00594553 0
-0.25 0.00990922 0
-0.25 0.0138729 0
-0.25 0.0178366 0
-0.25 0.0218003 0
-0.25 0.025764 0
-0.25 0.0297277 0
-0.25 0.0336914 0
-0.25 0.0376551 0
-0.25 0.0416187 0
-0.25 0.0455824 0
-0.25 0.0495461 0
-0.25 0.0535098 0
-0.246045 0.0569295 0.01
-0.242089 0.0563854 0.01
-0.238136 0.0558289 0.01
-0.234184 0.0552582 0.01
-0.230232 0.0546875 0.01
-0.226284 0.0540912 0.01
-0.222337 0.0534933 0.01
-0.218391 0.0528841 0.01
-0.214448 0.0522585 0.01
-0.210504 0.0516328 0.01
-0.206565 0.0509829 0.01
-0.202626 0.0503294 0.01
-0.198689 0.0496667 0.01
-0.194755 0.0489856 0.01
-0.190821 0.0483046 0.01
-0.18689 0.0476022 0.01
-0.182961 0.0468942 0.01
-0.179033 0.0461799 0.01
-0.175108 0.0454463 0.01
-0.171183 0.0447127 0.01
-0.167262 0.0439627 0.01
[...]
CELL_DATA 7657
SCALARS rho float
LOOKUP_TABLE default
0.478304
0.36998
0.396485
0.174501
0.495316
0.361682
0.259002
0.430734
0.336464
0.499166
0.499236
0.430329
0.305114
0.43048
0.494609
0.489462
0.494547
0.405871
0.405504
0.432973
0.493857
0.407045
0.360681
0.405368
0.420044
0.427972
0.187469
0.312352
0.496001
0.362609
0.240011
0.420094
0.35737
0.476297
0.476745
0.241875
0.36302
0.359736
0.48153
0.213251
0.396333
0.335321
0.339108
0.35379
0.396073
0.397674
0.265486
0.360812
0.420597
0.477925
0.352128
0.173461
0.495915
0.496839
0.257144
0.365669
0.494134
0.492285
0.452955
0.238336
0.421095
0.395358
0.422164
0.422561
0.499925
0.499941
0.304762
0.370227
0.498441
0.448728
0.397605
0.306845
0.167433
0.495981
0.474998
0.359128
0.406884
0.358048
0.474472
0.310546
0.356759
0.431044
0.432884
0.396127
0.397869
0.457933
0.39712
0.447733
0.428247
0.188906
0.499779
0.499823
0.454657
0.49775
0.217083
0.460583
0.459302
0.364482
0.395537
0.216928
0.406447
0.415845
0.367988
0.493447
0.267289
0.346128
0.225649
0.37248
0.312199
0.493427
0.240258
0.371563
0.347648
0.432856
0.400617
0.436647
0.373666
0.211529
0.488819
0.36126
0.500645
0.500627
0.224552
0.36516
0.432139
0.430474
0.430165
0.339513
0.36832
0.341055
0.17695
0.410279
0.366386
0.164849
0.432934
0.228064
0.489791
0.357534
0.410543
0.411103
0.226002
0.191121
0.210038
0.215082
0.404859
0.493779
0.354143
0.371076
0.394009
0.225682
0.206652
0.498566
0.390479
0.340539
0.49386
0.3691
0.370292
0.408055
0.432956
0.229998
0.408632
0.492065
0.427756
0.435257
0.391465
0.367759
0.481574
0.347024
0.400414
0.489245
0.395508
0.348145
0.409797
0.208306
0.246194
0.243816
0.167883
0.460569
0.432033
0.208397
0.215003
0.31095
0.413111
0.413477
0.302044
0.451146
0.325047
0.167007
0.429065
0.46052
0.495921
0.497956
0.432933
0.465527
0.428991
0.367648
0.433073
0.491736
0.244142
0.399285
0.405356
0.415138
0.462054
0.445303
0.187194
0.49694
0.316028
0.269151
0.474073
0.465019
0.386079
0.394011
0.391161
0.432939
0.395074
0.165825
0.250801
0.456536
0.372121
0.399195
0.370177
0.371986
0.498874
0.371058
0.318343
0.358607
0.318295
0.198285
0.357724
0.498915
0.389603
0.389723
0.309135
0.493754
0.487926
0.432958
0.447279
0.41564
0.415986
0.491472
0.385548
0.203939
0.462221
0.357316
0.473128
0.467866
0.325152
0.466956
0.327693
0.356139
0.242304
0.169189
0.373017
0.475231
0.249047
0.166847
0.372488
0.495271
0.496718
0.37151
0.364123
0.49661
0.488405
0.400219
0.252926
0.397006
0.443031
0.202464
0.405309
0.206951
0.294811
0.190196
0.191449
0.433001
0.472488
0.400783
0.345006
0.371494
0.370805
0.429611
0.365075
0.425385
0.198087
0.220306
0.1706
0.240618
0.220323
0.178073
0.395655
0.402754
0.401285
0.165814
0.19661
0.496535
0.372956
0.186874
0.481873
0.431244
0.436477
0.401644
0.459363
0.497373
0.205293
0.322756
0.18746
0.456303
0.254426
0.165051
0.404123
0.372525
0.429801
0.441051
0.491238
0.32768
0.420157
0.491057
0.496481
0.495305
0.371874
0.425589
0.34387
0.360147
0.496431
0.449313
0.489225
0.496008
0.323212
0.387491
0.492704
0.402323
0.346075
0.496244
0.488373
0.375605
0.430869
0.40841
0.37317
0.198313
0.41966
0.495888
0.428729
0.246463
0.377053
0.488448
0.433102
0.248237
0.495883
0.374541
0.398322
0.49275
0.363212
0.408535
0.432932
0.409054
0.255323
0.418559
0.410705
0.271333
0.419006
0.267303
0.377159
0.406496
0.398509
0.438617
0.494258
0.244698
0.428615
0.214552
0.45478
0.458031
0.364529
0.426055
0.43264
0.432409
0.312799
0.307064
0.409444
0.407824
0.40295
0.487549
0.392136
0.404485
0.191585
0.422426
0.496251
0.49853
0.47751
0.430016
0.428272
0.492293
0.377512
0.37298
0.372225
0.43254
0.427512
0.449565
0.249862
0.349011
0.492206
0.363046
0.432974
0.432962
0.404301
0.497401
0.215197
0.425803
0.48998
0.292212
0.492495
0.494596
0.41008
0.364436
0.422671
0.17512
0.462255
0.432333
0.394676
0.431064
0.17571
0.364931
0.360328
0.430958
0.276055
0.385012
0.370361
0.401197
0.459648
0.431829
0.337422
0.416093
0.434022
0.254007
0.379793
0.433061
0.425868
0.487146
0.497343
0.411363
0.488598
0.405067
0.361054
0.485925
0.235179
0.496184
0.429563
0.392317
0.38554
0.271626
0.494494
0.434954
0.420179
0.419184
0.378757
0.265186
0.321478
0.460496
0.261252
0.49008
0.488723
0.463001
0.477152
0.369964
0.402795
0.458592
0.387186
0.432492
0.343002
0.350736
0.257249
0.253041
0.496162
0.379432
0.422601
0.479036
0.493533
0.414528
0.42602
0.359843
0.223867
0.495886
0.439444
0.496039
0.408847
0.410065
0.392824
0.371039
0.200963
0.233811
0.498389
0.423447
0.491802
0.421179
0.430239
0.464355
0.429863
0.284235
0.175133
0.356532
0.47676
0.478218
0.431611
0.431456
0.431395
0.431723
0.447569
0.451311
0.380246
0.259951
0.438076
0.487352
0.199454
0.42542
0.413945
0.49172
0.405898
0.432105
0.484855
0.40824
0.482742
0.363149
0.48988
0.432653
0.431388
0.17944
0.429405
0.43181
0.497186
0.39716
0.497547
0.421945
0.375674
0.487866
0.431252
0.422226
0.394176
0.414544
0.394936
0.430812
0.252454
0.403802
0.392303
0.414646
0.430108
0.429991
0.426268
0.432618
0.413272
0.323737
0.364408
0.412643
0.488118
0.176233
0.420423
0.42766
0.483322
0.486684
0.216021
0.42967
0.349678
0.47693
0.487566
0.35386
0.432302
0.289651
0.412018
0.485697
0.498001
0.432639
0.242159
0.473476
0.460328
0.355625
0.408832
0.364384
0.455594
0.278011
0.431118
0.432985
0.43012
0.430293
0.323606
0.401713
0.456961
0.370731
0.411938
0.418155
0.423755
0.436426
0.498396
0.28822
0.429003
0.4305
0.269677
0.429738
0.453692
0.370806
0.245807
0.325861
0.392892
0.430656
0.463238
0.493275
0.371728
0.428845
0.431188
0.430676
0.428011
0.465877
0.37404
0.49378
0.428104
0.430448
0.430069
0.485819
0.393504
0.487943
0.432934
0.429107
0.42581
0.43065
0.23479
0.496639
0.496585
0.432292
0.431015
0.423209
0.367423
0.435213
0.438402
0.333636
0.406017
0.369572
0.496593
0.423488
0.341186
0.431953
0.423996
0.421712
0.496227
0.405906
0.496219
0.414485
0.418622
0.284048
0.180613
0.432487
0.420534
0.423898
0.400922
0.430808
0.486034
0.424156
0.397369
0.43217
0.432972
0.429304
0.192867
0.413911
0.422054
0.421658
0.222993
0.424541
0.488613
0.428596
0.421871
0.410005
0.426506
0.430972
0.424784
0.393844
0.432354
0.457232
0.416394
0.488711
0.172349
0.392063
0.386468
0.388375
0.433113
0.425139
0.392917
0.422454
0.397304
0.430289
0.431321
0.425358
0.375734
0.175922
0.336601
0.233218
0.46944
0.430954
0.429902
0.422838
0.412608
0.429891
0.432566
0.32177
0.494904
0.494556
0.27541
0.411323
0.323182
0.350467
0.271977
0.345155
0.425694
0.327868
0.425911
0.432015
0.432154
0.1719
0.430821
0.496489
0.407432
0.285937
0.488467
0.497123
0.463439
0.419881
0.343724
0.394745
0.431968
0.431962
0.49582
0.423235
0.427302
0.496367
0.238544
0.453728
0.420815
0.495193
0.343373
0.407954
0.429753
0.431351
0.350492
0.418631
0.432095
0.421583
0.422732
0.3837
0.495109
0.45209
0.252435
0.431906
0.350949
0.343502
0.223503
0.427639
0.497257
0.28682
0.423409
0.484523
0.498361
0.494383
0.495566
0.21372
0.496062
0.496228
0.377735
0.495699
0.432547
0.420731
0.422303
0.431404
0.373385
0.343755
0.422361
0.430277
0.408696
0.408119
0.48707
0.338977
0.495511
0.429972
0.486657
0.494162
0.495376
0.386935
0.345132
0.42228
0.211603
0.43189
0.268795
0.432764
0.49533
0.311386
0.455696
0.413871
0.427912
0.270661
0.429257
0.423565
0.394527
0.488019
0.431698
0.449999
0.400563
0.414053
0.494763
0.228385
0.29045
0.429813
0.406927
0.453517
0.453508
0.351465
0.494956
0.430667
0.465034
0.316814
0.293033
0.349647
0.277019
0.494575
0.432743
0.346739
0.431819
0.492759
0.43272
0.361029
0.432827
0.432408
0.267392
0.460381
0.42965
0.213036
0.433099
0.284878
0.432165
0.429184
0.211647
0.428223
0.432276
0.248221
0.486172
0.432743
0.494068
0.421265
0.432422
0.426877
0.420362
0.497808
0.496409
0.493866
0.398563
0.448239
0.460528
0.340826
0.494249
0.496589
0.228255
0.342167
0.21443
0.424543
0.432792
0.496321
0.433041
0.492418
0.494181
0.432434
0.492142
0.494404
0.342152
0.423858
0.43225
0.225314
0.493606
0.27074
0.341027
0.496436
0.295272
0.428737
0.493891
0.2129
0.223683
0.494918
0.494053
0.431341
0.49465
0.42972
0.444651
0.429246
0.334097
0.327981
0.339757
0.431095
0.430468
0.494687
0.310395
0.424215
0.349921
0.494116
0.494389
0.493835
0.494351
0.426675
0.493323
0.463257
0.493041
0.493557
0.489552
0.432141
0.489913
0.201144
0.424825
0.198361
0.463465
0.253934
0.353031
0.20857
0.22711
0.441265
0.441379
0.495863
0.430043
0.49328
0.429877
0.351975
0.459284
0.432611
0.42948
0.495976
0.42892
0.445872
0.216696
0.493004
0.441736
0.441618
0.304717
0.489015
0.429574
0.429167
0.196737
0.451622
0.451604
0.431954
0.348227
0.350992
0.292896
0.215235
0.496333
0.433026
0.431536
0.40946
0.218338
0.210276
0.432424
0.429492
0.394482
0.199638
0.310157
0.310311
0.313971
0.42891
0.229749
0.388125
0.430123
0.239887
0.421206
0.491642
0.429514
0.431095
0.371235
0.35487
0.432283
0.208503
0.465436
0.428937
0.423232
0.477689
0.479985
0.42327
0.432637
0.4699
0.191278
0.424201
0.431322
0.357054
0.241674
0.43259
0.492569
0.429071
0.429411
0.423552
0.423913
0.432447
0.427156
0.416424
0.195205
0.216816
0.492608
0.247571
0.43277
0.458606
0.496004
0.496759
0.411966
0.405356
0.432412
0.429436
0.432874
0.419965
0.49194
0.428401
0.422706
0.432374
0.215256
0.432624
0.494624
0.428215
0.422727
0.297027
0.495728
0.429905
0.429453
0.304332
0.303329
0.348278
0.429496
0.49132
0.432814
0.393108
0.399712
0.23943
0.20106
0.405914
0.428416
0.491786
0.252138
0.42539
0.265093
0.232087
0.431946
0.495825
0.425102
0.496035
0.399332
0.399345
0.392303
0.495781
0.405477
0.432918
0.428921
0.405535
0.29699
0.393055
0.477474
0.372915
0.495941
0.192687
0.355818
0.494131
0.496435
0.431814
0.491988
0.494031
0.491261
0.431313
0.26223
0.191395
0.40752
0.495739
0.32217
0.430281
0.369431
0.479179
0.430937
0.348308
0.41698
0.432404
0.414004
0.432646
0.429255
0.493858
0.430945
0.429085
0.422514
0.495792
0.425127
0.47761
0.358338
0.42215
0.24934
0.427137
0.464338
0.192454
0.494857
0.468257
0.470931
0.429273
0.359437
0.43253
0.267389
0.219879
0.264326
0.432544
0.428264
0.424488
0.428253
0.214434
0.49093
0.429498
0.42685
0.241737
0.213064
0.431104
0.48753
0.495644
0.427959
0.430724
0.196686
0.429106
0.369118
0.194022
0.431818
0.425918
0.386215
0.432884
0.206751
0.431621
0.496437
0.474964
0.428245
0.475845
0.432573
0.489406
0.432228
0.495933
0.490488
0.190943
0.393901
0.394455
0.490537
0.493075
0.426886
0.36154
0.43081
0.490139
0.430887
0.236964
0.488691
0.43235
0.42865
0.216628
0.237687
0.428665
0.247725
0.354439
0.221778
0.312565
0.311936
0.356019
0.353604
0.425673
0.233628
0.495713
0.425052
0.49675
0.432449
0.253999
0.42965
0.431878
0.429717
0.22343
0.432422
0.494806
0.430606
0.429888
0.468418
0.432552
0.241098
0.250298
0.443223
0.443268
0.432152
0.494904
0.241194
0.430127
0.495567
0.432484
0.432707
0.413209
0.406121
0.496508
0.462419
0.17106
0.260459
0.431957
0.237072
0.429515
0.262195
0.376332
0.432297
0.42474
0.430734
0.431154
0.417015
0.416483
0.287553
0.496243
0.19254
0.496622
0.429439
0.432232
0.492478
0.43271
0.490096
0.407647
0.277071
0.251222
0.492609
0.360612
0.492859
0.431484
0.431607
0.19633
0.496012
0.491843
0.326435
0.431729
0.256419
0.216683
0.425849
0.49237
0.257582
0.370371
0.295932
0.229554
0.476639
0.424151
0.4783
0.474849
0.424773
0.416014
0.416345
0.189809
0.424198
0.432629
0.432345
0.227884
0.415121
0.43007
0.335488
0.249188
0.430958
0.423582
0.43066
0.432381
0.431738
0.432571
0.422846
0.496555
0.422842
0.386121
0.405332
0.427317
0.427161
0.425077
0.245606
0.430587
0.403146
0.403257
0.490346
0.431528
0.427974
0.497429
0.431169
0.41145
0.429719
0.42742
0.489737
0.336415
0.427688
0.345318
0.490877
0.404186
0.253971
0.481171
0.393375
0.393036
0.432501
0.432227
0.371183
0.432614
0.431747
0.49564
0.381184
0.381274
0.298509
0.432543
0.424804
0.43202
0.363691
0.432785
0.431678
0.425889
0.427072
0.432213
0.46939
0.470749
0.368031
0.431487
0.429671
0.432358
0.347972
0.344846
0.345804
0.415171
0.430052
0.431209
0.432114
0.432827
0.416406
0.18171
0.41585
0.41334
0.432425
0.290684
0.430678
0.369779
0.43202
0.384758
0.385453
0.427947
0.492388
0.431124
0.2368
0.495754
0.432696
0.213247
0.39632
0.496459
0.491876
0.406237
0.254546
0.30164
0.307579
0.396239
0.427776
0.431375
0.418581
0.412265
0.403187
0.43258
0.418268
0.40114
0.403202
0.407693
0.432154
0.414498
0.431177
0.200885
0.404235
0.493321
0.492133
0.427336
0.430435
0.409003
0.430207
0.432109
0.430511
0.19512
0.403286
0.431838
0.431769
0.431393
0.43224
0.431871
0.430756
0.287499
0.382417
0.38273
0.431554
0.430129
0.43183
0.492273
0.262432
0.430347
0.422907
0.432318
0.424581
0.167831
0.492403
0.427942
0.226887
0.488202
0.431177
0.277365
0.430943
0.339548
0.401196
0.23511
0.235857
0.339656
0.338318
0.421856
0.429819
0.495951
0.495971
0.337614
0.431676
0.432469
0.363795
0.379178
0.425355
0.245641
0.430226
0.429746
0.478418
0.216669
0.192852
0.361659
0.432083
0.432091
0.431883
0.431936
0.497498
0.427609
0.428061
0.428496
0.431605
0.427142
0.431673
0.430381
0.385472
0.49273
0.46098
0.496496
0.430876
0.429874
0.432074
0.429838
0.390784
0.429347
0.42757
0.412051
0.430404
0.429424
0.427878
0.497097
0.42866
0.414519
0.4907
0.400975
0.405993
0.496533
0.429059
0.432506
0.492205
0.218238
0.431463
0.489331
0.429039
0.495683
0.428449
0.429259
0.257497
0.495918
0.488922
0.490289
0.378139
0.378332
0.427547
0.259188
0.497258
0.430056
0.49799
0.34865
0.430977
0.429333
0.197748
0.37011
0.4897
0.388594
0.200836
0.497893
0.203694
0.498722
0.498683
0.497817
0.204887
0.425015
0.497562
0.429682
0.496158
0.493849
0.430667
0.432519
0.473898
0.190026
0.258119
0.497247
0.359258
0.428493
0.262352
0.18761
0.188565
0.429127
0.469958
0.205394
0.177782
0.488306
0.49753
0.431763
0.462516
0.428054
0.166464
0.498365
0.498333
0.492166
0.430299
0.492003
0.430808
0.184775
0.422438
0.422477
0.427274
0.495971
0.431195
0.496497
0.497101
0.431409
0.203574
0.432734
0.432622
0.223311
0.24559
0.24288
0.365936
0.428749
0.491783
0.470029
0.428999
0.428305
0.428997
0.426103
0.429088
0.497733
0.414598
0.49717
0.209856
0.463753
0.427355
0.279233
0.287605
0.491493
0.421414
0.493996
0.429735
0.428652
0.42786
0.416916
0.416592
0.429729
0.429491
0.43152
0.495682
0.346399
0.42883
0.42667
0.429235
0.347357
0.34653
0.43154
0.430572
0.427815
0.431798
0.429245
0.495132
0.431587
0.362506
0.495617
0.351386
0.351809
0.429238
0.423815
0.430794
0.426945
0.380425
0.380469
0.370704
0.385319
0.386087
0.243939
0.425509
0.496869
0.363292
0.426878
0.428829
0.480589
0.426655
0.39281
0.392443
0.402601
0.40266
0.418647
0.429997
0.396797
0.414471
0.413524
0.495581
0.42645
0.406817
0.487246
0.428258
0.38797
0.387072
0.418153
0.427343
0.419082
0.398282
0.398385
0.42942
0.426137
0.411599
0.432613
0.418832
0.216665
0.429962
0.444131
0.496881
0.428688
0.399358
0.426702
0.497597
0.497556
0.497292
0.432208
0.495012
0.493062
0.40471
0.497039
0.364961
0.4893
0.493666
0.497075
0.428658
0.431012
0.431479
0.357266
0.432435
0.432399
0.49627
0.225336
0.2268
0.427077
0.432036
0.400636
0.488631
0.425535
0.427602
0.491379
0.49202
0.432286
0.495525
0.495493
0.432006
0.491257
0.252116
0.255846
0.493854
0.398398
0.363979
0.465197
0.206628
0.496963
0.497024
0.43169
0.496003
0.496325
0.488026
0.429064
0.219907
0.422445
0.495694
0.459366
0.48285
0.496141
0.427627
0.496258
0.239392
0.427754
0.226409
0.412621
0.426567
0.496812
0.223319
0.223164
0.431269
0.390142
0.491089
0.495609
0.48835
0.428513
0.20977
0.426168
0.493458
0.431899
0.496384
0.49532
0.495042
0.42871
0.387985
0.429603
0.495572
0.42752
0.496235
0.428444
0.482205
0.49361
0.430502
0.488597
0.383001
0.383388
0.494738
0.493747
0.495485
0.495366
0.487756
0.495816
0.495918
0.473179
0.430598
0.420233
0.495648
0.496149
0.430953
0.426675
0.42889
0.409593
0.428694
0.49262
0.377513
0.377286
0.496697
0.497117
0.278954
0.4971
0.494546
0.432356
0.42642
0.424509
0.494122
0.49486
0.432245
0.495551
0.495841
0.488078
0.468757
0.493913
0.49626
0.491899
0.496195
0.367526
0.426794
0.482218
0.427789
0.495763
0.4956
0.476714
0.426588
0.428012
0.42593
0.495208
0.485958
0.495903
0.191237
0.35802
0.42669
0.497225
0.492865
0.367817
0.427414
0.493755
0.495385
0.495575
0.341116
0.339682
0.432376
0.4084
0.495778
0.178789
0.422138
0.494622
0.471187
0.428564
0.167449
0.49545
0.422227
0.183537
0.494913
0.420348
0.491624
0.425832
0.431668
0.495821
0.496907
0.426917
0.426935
0.421186
0.493483
0.495837
0.432218
0.496187
0.492565
0.367026
0.493697
0.427827
0.431464
0.49441
0.168881
0.427534
0.494852
0.426193
0.495967
0.496258
0.477337
0.41581
0.419238
0.428819
0.432578
0.415234
0.432581
0.495676
0.426857
0.493937
0.495541
0.495371
0.493078
0.495586
0.43043
0.495821
0.307727
0.495675
0.29715
0.495494
0.492644
0.491463
0.496554
0.492178
0.428871
0.352626
0.35317
0.428042
0.429826
0.496049
0.199619
0.202357
0.404793
0.403736
0.494392
0.495572
0.494593
0.430227
0.490821
0.49551
0.422478
0.364389
0.494715
0.495597
0.429045
0.495817
0.235509
0.26083
0.496918
0.496374
0.49634
0.365804
0.492837
0.495723
0.493715
0.466358
0.467676
0.49796
0.492454
0.495394
0.338859
0.388544
0.387688
0.424796
0.364918
0.493273
0.494065
0.491678
0.491644
0.493818
0.474854
0.495416
0.420956
0.19405
0.493803
0.49403
0.496079
0.425634
0.493347
0.495283
0.427589
0.39876
0.398851
0.466681
0.492305
0.495716
0.493494
0.42886
0.41269
0.494011
0.403547
0.4966
0.489027
0.49292
0.426145
0.491143
0.431317
0.427527
0.492678
0.496047
0.42635
0.430145
0.426583
0.490905
0.493428
0.487818
0.491707
0.495598
0.495563
0.49314
0.493664
0.493514
0.414794
0.492101
0.495357
0.491818
0.409778
0.495777
0.496213
0.487407
0.495328
0.493312
0.495292
0.353538
0.496123
0.493548
0.492373
0.492655
0.495024
0.419777
0.496507
0.430786
0.429591
0.49451
0.494264
0.494023
0.491876
0.495425
0.493116
0.495928
0.49368
0.428766
0.493785
0.427402
0.42165
0.422654
0.426379
0.495532
0.491346
0.494761
0.424549
0.492852
0.492928
0.492399
0.490223
0.493937
0.493199
0.420799
0.491914
0.487881
0.493681
0.490509
0.422516
0.495826
0.408551
0.495792
0.494057
0.496413
0.475775
0.491394
0.225182
0.221674
0.432295
0.487844
0.491508
0.492955
0.421694
0.41983
0.496156
0.492761
0.495816
0.4901
0.491173
0.495109
0.494817
0.494786
0.494043
0.49291
0.491613
0.492499
0.402599
0.496107
0.395685
0.244063
0.423914
0.424854
0.420751
0.425608
0.402561
0.49328
0.395668
0.492465
0.482829
0.486709
0.491079
0.492128
0.492761
0.427692
0.479595
0.495829
0.494615
0.4916
0.479614
0.490838
0.472118
0.425856
0.495393
0.492196
0.431977
0.495575
0.365495
0.432533
0.495421
0.487036
0.495513
0.491662
0.354584
0.429894
0.495795
0.467425
0.490782
0.493092
0.491624
0.493365
0.491258
0.495438
0.489873
0.255901
0.494249
0.426471
0.425297
0.428316
0.48027
0.490328
0.495721
0.491347
0.492478
0.491905
0.496482
0.491063
0.465299
0.489605
0.490761
0.23951
0.467761
0.491266
0.495287
0.41194
0.49057
0.488336
0.487497
0.425563
0.491619
0.430356
0.431157
0.428483
0.490596
0.493211
0.489527
0.494966
0.493201
0.436048
0.495874
0.429321
0.491886
0.428077
0.496766
0.422164
0.495479
0.491106
0.495908
0.496349
0.490362
0.425016
0.495279
0.424577
0.492186
0.426358
0.429015
0.427057
0.489925
0.418262
0.495655
0.433237
0.486565
0.493301
0.425303
0.490961
0.490533
0.49614
0.495189
0.39885
0.425039
0.415767
0.425291
0.490603
0.494012
0.493964
0.424764
0.491166
0.491943
0.415092
0.420195
0.310615
0.295031
0.489957
0.439888
0.427636
0.197912
0.202415
0.40477
0.48972
0.4227
0.49274
0.490165
0.489268
0.495363
0.489921
0.488268
0.442437
0.431414
0.2581
0.488582
0.422502
0.488846
0.492451
0.425381
0.494452
0.466269
0.42886
0.468681
0.428143
0.424479
0.448961
0.365297
0.444981
0.489583
0.429801
0.41701
0.429262
0.494828
0.442501
0.424306
0.195552
0.422049
0.492088
0.418729
0.431265
0.492295
0.427677
0.491296
0.495157
0.423772
0.412594
0.424429
0.404001
0.488237
0.489531
0.429504
0.492144
0.494271
0.446678
0.424081
0.353926
0.424274
0.42082
0.486705
0.422728
0.421417
0.489452
0.496959
0.491088
0.418786
0.421307
0.417613
0.497493
0.428134
0.418447
0.493466
0.417674
0.489888
0.423358
0.419183
0.474817
0.488898
0.221682
0.22649
0.452011
0.454014
0.489459
0.485476
0.424714
0.418626
0.382197
0.381931
0.454105
0.495932
0.245983
0.493543
0.491643
0.489498
0.493883
0.493332
0.456029
0.424503
0.415628
0.490779
0.417441
0.487076
0.49266
0.421392
0.487291
0.421574
0.424208
0.486405
0.438017
0.489223