# vtk DataFile Version 1.0
unstructured grid
ascii
DATASET UNSTRUCTURED_GRID
points 8094 float
-0.25 0.0574735 0
0.5 0.0546937 0
0.5 -0.0546937 0
-0.25 -0.0574735 0
-0.25 0.0574735 0.01
0.5 0.0546937 0.01
0.5 -0.0546937 0.01
-0.25 -0.0574735 0.01
-0.246045 0.0569295 0
-0.242089 0.0563854 0
-0.238136 0.0558289 0
-0.234184 0.0552582 0
-0.230232 0.0546875 0
-0.226284 0.0540912 0
-0.222337 0.0534933 0
-0.218391 0.0528841 0
-0.214448 0.0522585 0
-0.210504 0.0516328 0
-0.206565 0.0509829 0
-0.202626 0.0503294 0
-0.198689 0.0496667 0
-0.194755 0.0489856 0
-0.190821 0.0483046 0
-0.18689 0.0476022 0
-0.182961 0.0468942 0
-0.179033 0.0461799 0
-0.175108 0.0454463 0
-0.171183 0.0447127 0
-0.167262 0.0439627 0
-0.163342 0.0432056 0
-0.159422 0.0424455 0
-0.155506 0.041668 0
-0.15159 0.0408904 0
-0.147675 0.0401031 0
-0.143762 0.0393092 0
-0.13985 0.0385149 0
-0.135939 0.0377103 0
-0.132028 0.0369056 0
-0.128117 0.0361005 0
-0.124207 0.0352949 0
-0.120296 0.0344893 0
-0.116386 0.0336836 0
-0.112475 0.032878 0
-0.108563 0.0320794 0
-0.104649 0.0312931 0
-0.100735 0.0305068 0
-0.0968152 0.029745 0
-0.0928949 0.0289889 0
-0.0889722 0.0282446 0
-0.0850433 0.0275341 0
-0.0811144 0.0268235 0
-0.0771778 0.0261578 0
-0.0732381 0.0255098 0
-0.0692962 0.0248759 0
-0.0653442 0.0243073 0
-0.0613923 0.0237386 0
-0.0574324 0.0232306 0
-0.0534681 0.0227556 0
-0.0495024 0.0222934 0
-0.0455272 0.0219207 0
-0.041552 0.0215481 0
-0.0375717 0.0212385 0
-0.0335881 0.0209694 0
-0.029604 0.0207098 0
-0.0256151 0.0205369 0
-0.0216262 0.0203639 0
-0.0176357 0.0202396 0
-0.0136441 0.0201487 0
-0.00965243 0.0200635 0
-0.00565987 0.0200372 0
-0.00166732 0.020011 0
0.00232526 0.0200121 0
0.00631785 0.0200329 0
0.0103104 0.0200563 0
0.0143027 0.0201109 0
0.018295 0.0201654 0
0.022287 0.0202345 0
0.0262788 0.0203144 0
0.0302706 0.0203957 0
0.034262 0.0204956 0
0.0382534 0.0205955 0
0.0422446 0.0207045 0
0.0462355 0.0208207 0
0.0502265 0.0209377 0
0.054217 0.0210676 0
0.0582075 0.0211975 0
0.0621978 0.0213339 0
0.0661879 0.0214757 0
0.0701781 0.021618 0
0.0741678 0.0217703 0
0.0781575 0.0219227 0
0.0821471 0.0220801 0
0.0861364 0.022242 0
0.0901258 0.0224041 0
0.0941148 0.0225747 0
0.0981038 0.0227453 0
0.102093 0.0229202 0
0.106081 0.023099 0
0.11007 0.0232779 0
0.114058 0.0234644 0
0.118046 0.0236509 0
0.122035 0.0238411 0
0.126022 0.024035 0
0.13001 0.0242288 0
0.133998 0.0244298 0
0.137986 0.0246308 0
0.141973 0.0248352 0
0.14596 0.025043 0
0.149947 0.0252509 0
0.153934 0.0254654 0
0.157921 0.02568 0
0.161908 0.0258978 0
0.165894 0.026119 0
0.169881 0.0263402 0
0.173867 0.0265678 0
0.177853 0.0267956 0
0.181839 0.0270264 0
0.185825 0.0272607 0
0.189811 0.0274951 0
0.193796 0.0277356 0
0.197781 0.0279764 0
0.201767 0.02822 0
0.205752 0.0284673 0
0.209737 0.0287146 0
0.213721 0.0289679 0
0.217706 0.0292217 0
0.22169 0.0294782 0
0.225674 0.0297385 0
0.229658 0.0299988 0
0.233642 0.0302651 0
0.237626 0.0305319 0
0.241609 0.0308014 0
0.245593 0.0310748 0
0.249576 0.0313482 0
0.253559 0.0316276 0
0.257542 0.0319077 0
0.261524 0.0321904 0
0.265507 0.0324772 0
0.269489 0.032764 0
0.273471 0.0330568 0
0.277453 0.0333504 0
0.281434 0.0336466 0
0.285416 0.0339471 0
0.289397 0.0342476 0
0.293378 0.034554 0
0.297359 0.0348615 0
0.301339 0.0351714 0
0.305319 0.0354859 0
0.3093 0.0358005 0
0.313279 0.036121 0
0.317259 0.0364427 0
0.321239 0.0367667 0
0.325218 0.0370957 0
0.329197 0.0374248 0
0.333175 0.0377597 0
0.337154 0.0380961 0
0.341132 0.0384347 0
0.34511 0.0387786 0
0.349088 0.0391226 0
0.353065 0.0394724 0
0.357042 0.0398239 0
0.361019 0.0401775 0
0.364995 0.0405368 0
0.368972 0.0408961 0
0.372948 0.0412613 0
0.376924 0.0416285 0
0.380899 0.0419975 0
0.384874 0.0423727 0
0.388849 0.0427479 0
0.392823 0.0431289 0
0.396798 0.0435123 0
0.400772 0.0438973 0
0.404745 0.044289 0
0.408718 0.0446807 0
0.412691 0.0450781 0
0.416664 0.0454782 0
0.420636 0.0458797 0
0.424608 0.0462883 0
0.42858 0.046697 0
0.432551 0.0471114 0
0.436521 0.0475289 0
0.440492 0.0479474 0
0.444462 0.0483738 0
0.448432 0.0488001 0
0.452401 0.0492319 0
0.45637 0.0496673 0
0.460338 0.0501035 0
0.464306 0.0505482 0
0.468274 0.0509928 0
0.472241 0.0514427 0
0.476208 0.0518968 0
0.480175 0.0523512 0
0.48414 0.0528148 0
0.488106 0.0532784 0
0.492071 0.0537471 0
0.496036 0.0542204 0
0.5 0.050787 0
0.5 0.0468803 0
0.5 0.0429736 0
0.5 0.0390669 0
0.5 0.0351602 0
0.5 0.0312535 0
0.5 0.0273468 0
0.5 0.0234402 0
0.5 0.0195335 0
0.5 0.0156268 0
0.5 0.0117201 0
0.5 0.00781339 0
0.5 0.00390669 0
0.5 1.43781e-13 0
0.5 -0.00390669 0
0.5 -0.00781339 0
0.5 -0.0117201 0
0.5 -0.0156268 0
0.5 -0.0195335 0
0.5 -0.0234402 0
0.5 -0.0273468 0
0.5 -0.0312535 0
0.5 -0.0351602 0
0.5 -0.0390669 0
0.5 -0.0429736 0
0.5 -0.0468803 0
0.5 -0.050787 0
0.496036 -0.0542204 0
0.492071 -0.0537471 0
0.488106 -0.0532784 0
0.48414 -0.0528148 0
0.480175 -0.0523512 0
0.476208 -0.0518968 0
0.472241 -0.0514427 0
0.468274 -0.0509928 0
0.464306 -0.0505482 0
0.460338 -0.0501035 0
0.45637 -0.0496673 0
0.452401 -0.0492319 0
0.448432 -0.0488001 0
0.444462 -0.0483738 0
0.440492 -0.0479474 0
0.436521 -0.0475289 0
0.432551 -0.0471114 0
0.42858 -0.046697 0
0.424608 -0.0462883 0
0.420636 -0.0458797 0
0.416664 -0.0454782 0
0.412691 -0.0450781 0
0.408718 -0.0446807 0
0.404745 -0.044289 0
0.400772 -0.0438973 0
0.396798 -0.0435123 0
0.392823 -0.0431289 0
0.388849 -0.0427479 0
0.384874 -0.0423727 0
0.380899 -0.0419975 0
0.376924 -0.0416285 0
0.372948 -0.0412613 0
0.368972 -0.0408961 0
0.364995 -0.0405368 0
0.361019 -0.0401775 0
0.357042 -0.0398239 0
0.353065 -0.0394724 0
0.349088 -0.0391226 0
0.34511 -0.0387786 0
0.341132 -0.0384347 0
0.337154 -0.0380961 0
0.333175 -0.0377597 0
0.329197 -0.0374248 0
0.325218 -0.0370957 0
0.321239 -0.0367667 0
0.317259 -0.0364427 0
0.313279 -0.036121 0
0.3093 -0.0358005 0
0.305319 -0.0354859 0
0.301339 -0.0351714 0
0.297359 -0.0348615 0
0.293378 -0.034554 0
0.289397 -0.0342476 0
0.285416 -0.0339471 0
0.281434 -0.0336466 0
0.277453 -0.0333504 0
0.273471 -0.0330568 0
0.269489 -0.032764 0
0.265507 -0.0324772 0
0.261524 -0.0321904 0
0.257542 -0.0319077 0
0.253559 -0.0316276 0
0.249576 -0.0313482 0
0.245593 -0.0310748 0
0.241609 -0.0308014 0
0.237626 -0.0305319 0
0.233642 -0.0302651 0
0.229658 -0.0299988 0
0.225674 -0.0297385 0
0.22169 -0.0294782 0
0.217706 -0.0292217 0
0.213721 -0.0289679 0
0.209737 -0.0287146 0
0.205752 -0.0284673 0
0.201767 -0.02822 0
0.197781 -0.0279764 0
0.193796 -0.0277356 0
0.189811 -0.0274951 0
0.185825 -0.0272607 0
0.181839 -0.0270264 0
0.177853 -0.0267956 0
0.173867 -0.0265678 0
0.169881 -0.0263402 0
0.165894 -0.026119 0
0.161908 -0.0258978 0
0.157921 -0.02568 0
0.153934 -0.0254654 0
0.149947 -0.0252509 0
0.14596 -0.025043 0
0.141973 -0.0248352 0
0.137986 -0.0246308 0
0.133998 -0.0244298 0
0.13001 -0.0242288 0
0.126022 -0.024035 0
0.122035 -0.0238411 0
0.118046 -0.0236509 0
0.114058 -0.0234644 0
0.11007 -0.0232779 0
0.106081 -0.023099 0
0.102093 -0.0229202 0
0.0981038 -0.0227453 0
0.0941148 -0.0225747 0
0.0901258 -0.0224041 0
0.0861364 -0.022242 0
0.0821471 -0.0220801 0
0.0781575 -0.0219227 0
0.0741678 -0.0217703 0
0.0701781 -0.021618 0
0.0661879 -0.0214757 0
0.0621978 -0.0213339 0
0.0582075 -0.0211975 0
0.054217 -0.0210676 0
0.0502265 -0.0209377 0
0.0462355 -0.0208207 0
0.0422446 -0.0207045 0
0.0382534 -0.0205955 0
0.034262 -0.0204956 0
0.0302706 -0.0203957 0
0.0262788 -0.0203144 0
0.022287 -0.0202345 0
0.018295 -0.0201654 0
0.0143027 -0.0201109 0
0.0103104 -0.0200563 0
0.00631785 -0.0200329 0
0.00232526 -0.0200121 0
-0.00166732 -0.020011 0
-0.00565987 -0.0200372 0
-0.00965243 -0.0200635 0
-0.0136441 -0.0201487 0
-0.0176357 -0.0202396 0
-0.0216262 -0.0203639 0
-0.0256151 -0.0205369 0
-0.029604 -0.0207098 0
-0.0335881 -0.0209694 0
-0.0375717 -0.0212385 0
-0.041552 -0.0215481 0
-0.0455272 -0.0219207 0
-0.0495024 -0.0222934 0
-0.0534681 -0.0227556 0
-0.0574324 -0.0232306 0
-0.0613923 -0.0237386 0
-0.0653442 -0.0243073 0
-0.0692962 -0.0248759 0
-0.0732381 -0.0255098 0
-0.0771778 -0.0261578 0
-0.0811144 -0.0268235 0
-0.0850433 -0.0275341 0
-0.0889722 -0.0282446 0
-0.0928949 -0.0289889 0
-0.0968152 -0.029745 0
-0.100735 -0.0305068 0
-0.104649 -0.0312931 0
-0.108563 -0.0320794 0
-0.112475 -0.032878 0
-0.116386 -0.0336836 0
-0.120296 -0.0344893 0
-0.124207 -0.0352949 0
-0.128117 -0.0361005 0
-0.132028 -0.0369056 0
-0.135939 -0.0377103 0
-0.13985 -0.0385149 0
-0.143762 -0.0393092 0
-0.147675 -0.0401031 0
-0.15159 -0.0408904 0
-0.155506 -0.041668 0
-0.159422 -0.0424455 0
-0.163342 -0.0432056 0
-0.167262 -0.0439627 0
-0.171183 -0.0447127 0
-0.175108 -0.0454463 0
-0.179033 -0.0461799 0
-0.182961 -0.0468942 0
-0.18689 -0.0476022 0
-0.190821 -0.0483046 0
-0.194755 -0.0489856 0
-0.198689 -0.0496667 0
-0.202626 -0.0503294 0
-0.206565 -0.0509829 0
-0.210504 -0.0516328 0
-0.214448 -0.0522585 0
-0.218391 -0.0528841 0
-0.222337 -0.0534933 0
-0.226284 -0.0540912 0
-0.230232 -0.0546875 0
-0.234184 -0.0552582 0
-0.238136 -0.0558289 0
-0.242089 -0.0563854 0
-0.246045 -0.0569295 0
-0.25 -0.0535098 0
-0.25 -0.0495461 0
-0.25 -0.0455824 0
-0.25 -0.0416187 0
-0.25 -0.0376551 0
-0.25 -0.0336914 0
-0.25 -0.0297277 0
-0.25 -0.025764 0
-0.25 -0.0218003 0
-0.25 -0.0178366 0
-0.25 -0.0138729 0
-0.25 -0.00990922 0
-0.25 -0.00594553 0
-0.25 -0.00198184 0
-0.25 0.00198184 0
-0.25 0.00594553 0
-0.25 0.00990922 0
-0.25 0.0138729 0
-0.25 0.0178366 0
-0.25 0.0218003 0
-0.25 0.025764 0
-0.25 0.0297277 0
-0.25 0.0336914 0
-0.25 0.0376551 0
-0.25 0.0416187 0
-0.25 0.0455824 0
-0.25 0.0495461 0
-0.25 0.0535098 0
-0.246045 0.0569295 0.01
-0.242089 0.0563854 0.01
-0.238136 0.0558289 0.01
-0.234184 0.0552582 0.01
-0.230232 0.0546875 0.01
-0.226284 0.0540912 0.01
-0.222337 0.0534933 0.01
-0.218391 0.0528841 0.01
-0.214448 0.0522585 0.01
-0.210504 0.0516328 0.01
-0.206565 0.0509829 0.01
-0.202626 0.0503294 0.01
-0.198689 0.0496667 0.01
-0.194755 0.0489856 0.01
-0.190821 0.0483046 0.01
-0.18689 0.0476022 0.01
-0.182961 0.0468942 0.01
-0.179033 0.0461799 0.01
-0.175108 0.0454463 0.01
-0.171183 0.0447127 0.01
-0.167262 0.0439627 0.01
[...]
CELL_DATA 7657
SCALARS rho float
LOOKUP_TABLE default
0.475894
0.397851
0.40852
0.388619
0.495474
0.39357
0.377011
0.493453
0.383224
0.501044
0.501102
0.492616
0.376877
0.492936
0.49437
0.487505
0.494219
0.42734
0.426931
0.498038
0.493239
0.430641
0.393429
0.425832
0.466718
0.487923
0.386822
0.378199
0.498223
0.393893
0.379136
0.467183
0.391947
0.473974
0.474418
0.378769
0.393843
0.393188
0.47895
0.383361
0.407758
0.382905
0.390727
0.39251
0.407294
0.409911
0.376122
0.393468
0.469245
0.475496
0.392248
0.3887
0.498267
0.498933
0.377055
0.394516
0.493623
0.491031
0.453913
0.379545
0.470485
0.406359
0.472334
0.473335
0.501645
0.501656
0.376759
0.395504
0.500225
0.45058
0.409625
0.377294
0.390089
0.498327
0.472804
0.393171
0.429346
0.39303
0.472289
0.376938
0.391229
0.494138
0.497894
0.408049
0.409273
0.457975
0.409076
0.449729
0.488471
0.3867
0.501607
0.501642
0.455293
0.499667
0.382624
0.460198
0.45913
0.395363
0.406681
0.382585
0.428713
0.455132
0.397223
0.492694
0.375828
0.387113
0.381175
0.396045
0.377489
0.492598
0.379079
0.395922
0.391629
0.497859
0.414789
0.44122
0.396404
0.383397
0.486713
0.39362
0.502285
0.502272
0.3813
0.394724
0.496388
0.492917
0.49224
0.390773
0.395083
0.390917
0.388339
0.439652
0.394646
0.390057
0.497951
0.38075
0.487908
0.392058
0.439843
0.441531
0.381228
0.386541
0.383816
0.382835
0.424254
0.493143
0.390575
0.398631
0.406087
0.38117
0.383888
0.500315
0.409385
0.390977
0.493288
0.397337
0.395562
0.432717
0.497995
0.380701
0.43436
0.490729
0.487494
0.44009
0.404141
0.397005
0.478994
0.391601
0.413971
0.487205
0.407478
0.38794
0.438016
0.383867
0.378433
0.378525
0.389703
0.460217
0.49618
0.383902
0.382881
0.377758
0.446772
0.448693
0.376264
0.452451
0.380463
0.389811
0.490121
0.460184
0.498188
0.499947
0.497948
0.464412
0.489979
0.39495
0.498253
0.490299
0.378651
0.411877
0.425753
0.453358
0.461419
0.447819
0.387008
0.499141
0.377849
0.375493
0.471927
0.463927
0.401116
0.406005
0.403949
0.497948
0.407051
0.389826
0.377848
0.456816
0.395725
0.411307
0.398168
0.398341
0.500662
0.395699
0.378567
0.392064
0.378874
0.38511
0.393078
0.500704
0.40293
0.403025
0.377754
0.493033
0.485717
0.498038
0.449365
0.454102
0.455738
0.48996
0.400877
0.384794
0.461554
0.391633
0.471086
0.46641
0.380606
0.465605
0.380875
0.392814
0.378756
0.389472
0.396229
0.472952
0.378034
0.389751
0.399368
0.495356
0.498817
0.395762
0.39449
0.499014
0.486248
0.413949
0.377588
0.409035
0.446052
0.384847
0.425791
0.384323
0.376142
0.386473
0.386517
0.49811
0.470493
0.414788
0.391328
0.395888
0.395739
0.491189
0.395671
0.482314
0.385614
0.382068
0.389588
0.379054
0.381989
0.38824
0.412349
0.419251
0.415802
0.389995
0.385727
0.49904
0.395959
0.387156
0.47933
0.494543
0.441021
0.416582
0.459166
0.498582
0.384358
0.379329
0.386963
0.456635
0.377399
0.390124
0.422847
0.396049
0.491577
0.444516
0.489663
0.38091
0.467922
0.48942
0.498899
0.495386
0.395819
0.482807
0.391239
0.393251
0.498859
0.450989
0.487191
0.496545
0.379784
0.407462
0.491576
0.418236
0.387097
0.496891
0.486215
0.400331
0.493773
0.420888
0.395886
0.385133
0.466598
0.498266
0.489449
0.378325
0.401774
0.486281
0.498353
0.378117
0.498176
0.400316
0.410465
0.491682
0.393828
0.434436
0.497955
0.436084
0.377421
0.462951
0.441193
0.375316
0.46425
0.37566
0.397541
0.429045
0.41095
0.442658
0.49384
0.378521
0.489213
0.38305
0.455396
0.458056
0.394123
0.433311
0.497451
0.496927
0.378253
0.377349
0.43739
0.420373
0.419462
0.485281
0.404551
0.423978
0.386293
0.474531
0.498565
0.500098
0.475119
0.492041
0.488543
0.49106
0.397628
0.396148
0.396031
0.497213
0.48699
0.451185
0.377904
0.387397
0.490906
0.393812
0.498038
0.498023
0.422747
0.499731
0.383065
0.433095
0.48811
0.37588
0.491338
0.494336
0.439404
0.394222
0.475243
0.38848
0.4616
0.496792
0.407148
0.494203
0.388559
0.3956
0.393233
0.493966
0.375444
0.405964
0.398119
0.415532
0.459399
0.495744
0.390558
0.456603
0.43917
0.377258
0.402746
0.498231
0.483416
0.48483
0.498446
0.443037
0.486468
0.425408
0.39366
0.483508
0.379878
0.498427
0.491111
0.404676
0.400881
0.37542
0.494186
0.439897
0.468114
0.465204
0.397925
0.375987
0.379117
0.460164
0.376712
0.488209
0.486617
0.462238
0.474771
0.395316
0.418509
0.458581
0.407285
0.497014
0.386033
0.389033
0.377088
0.377578
0.498413
0.398151
0.430807
0.476584
0.492726
0.451581
0.483733
0.393423
0.381834
0.498197
0.443235
0.498264
0.435667
0.439158
0.404977
0.395613
0.385184
0.379826
0.500305
0.477216
0.49041
0.47119
0.492489
0.463439
0.491701
0.375506
0.388696
0.392788
0.474406
0.475796
0.495185
0.494862
0.43723
0.495528
0.449612
0.452594
0.403207
0.390268
0.442232
0.485057
0.38529
0.482345
0.450238
0.490246
0.42738
0.496204
0.482364
0.434132
0.480224
0.394209
0.487933
0.497449
0.494715
0.388021
0.49078
0.495593
0.499479
0.408295
0.499757
0.473311
0.396844
0.485618
0.494446
0.430493
0.406713
0.452058
0.407615
0.493693
0.377259
0.421525
0.404399
0.452259
0.436263
0.49195
0.484267
0.497283
0.448452
0.390405
0.394176
0.446653
0.485935
0.388589
0.429211
0.487031
0.480788
0.484324
0.382685
0.491182
0.387865
0.474512
0.4853
0.392346
0.49662
0.375872
0.444835
0.483248
0.499979
0.497329
0.378969
0.471343
0.460009
0.392691
0.4358
0.39473
0.456096
0.375285
0.494156
0.498156
0.492114
0.492545
0.379574
0.416445
0.457228
0.395533
0.444532
0.427563
0.477976
0.440975
0.500003
0.375678
0.489852
0.493017
0.375714
0.435953
0.454557
0.395556
0.37824
0.379933
0.404868
0.493208
0.46246
0.492373
0.395815
0.489523
0.494302
0.49338
0.487721
0.464721
0.396102
0.493071
0.487979
0.49278
0.49209
0.483387
0.405267
0.485721
0.498077
0.435506
0.43303
0.493353
0.379847
0.498444
0.498824
0.496594
0.4941
0.47536
0.396872
0.44009
0.442514
0.382409
0.42782
0.395402
0.498547
0.476221
0.390861
0.495887
0.431749
0.472429
0.497773
0.426939
0.49763
0.451812
0.463473
0.375737
0.387903
0.497016
0.468109
0.477282
0.415783
0.493517
0.483633
0.478094
0.409566
0.496342
0.49809
0.490531
0.386056
0.45025
0.47295
0.471845
0.381823
0.479094
0.486471
0.435089
0.47177
0.438968
0.433587
0.493855
0.479792
0.411148
0.496729
0.457442
0.426292
0.486619
0.389136
0.410208
0.406684
0.407812
0.498333
0.480674
0.40477
0.474037
0.413361
0.492462
0.494574
0.481322
0.397069
0.38865
0.383153
0.380091
0.467763
0.493818
0.491668
0.475065
0.446368
0.491634
0.497303
0.379353
0.494793
0.494222
0.375495
0.442751
0.379187
0.388853
0.374806
0.391252
0.482145
0.380601
0.482729
0.496023
0.496312
0.389283
0.493548
0.498165
0.430914
0.375419
0.486371
0.499254
0.462634
0.428768
0.391127
0.411881
0.495923
0.495911
0.496969
0.476088
0.486553
0.498043
0.379308
0.454583
0.469994
0.496029
0.391045
0.420536
0.491337
0.437155
0.388068
0.427962
0.496191
0.471187
0.474142
0.405217
0.495823
0.453243
0.377334
0.495797
0.388511
0.385355
0.381383
0.48687
0.499279
0.375168
0.477113
0.481994
0.499845
0.494177
0.496693
0.382991
0.497347
0.498588
0.401775
0.496959
0.49715
0.469393
0.472285
0.49475
0.39622
0.385651
0.471893
0.49243
0.435281
0.433497
0.48476
0.384561
0.496625
0.49179
0.484299
0.494135
0.496357
0.401491
0.391183
0.471693
0.383153
0.495767
0.375773
0.4977
0.496298
0.390349
0.456171
0.449965
0.43461
0.375371
0.490404
0.476997
0.406526
0.485816
0.495369
0.451581
0.415558
0.424624
0.495206
0.380583
0.375453
0.491463
0.41973
0.45441
0.454405
0.391885
0.495541
0.493387
0.463981
0.37799
0.375438
0.39168
0.375108
0.494805
0.497671
0.391438
0.495621
0.491961
0.497637
0.393238
0.49772
0.496861
0.375877
0.46005
0.491134
0.382839
0.438471
0.375336
0.496336
0.490161
0.383196
0.488169
0.496597
0.378009
0.483777
0.497672
0.493999
0.471199
0.496901
0.485055
0.468773
0.499752
0.497939
0.493664
0.410637
0.45016
0.460186
0.390804
0.494301
0.49837
0.380533
0.384855
0.382386
0.479549
0.438296
0.497604
0.438485
0.491446
0.494013
0.496903
0.49107
0.49435
0.390932
0.478084
0.496517
0.381106
0.493181
0.375433
0.384807
0.498115
0.375356
0.489293
0.493594
0.382793
0.381513
0.495489
0.493969
0.494629
0.494978
0.491363
0.447348
0.490392
0.382792
0.380805
0.383842
0.49412
0.49298
0.495031
0.377006
0.478717
0.391755
0.493932
0.494498
0.493521
0.494444
0.484567
0.492772
0.462483
0.492365
0.493115
0.487586
0.496322
0.488024
0.384919
0.480292
0.385353
0.462662
0.377261
0.392092
0.383719
0.380892
0.444691
0.444779
0.496895
0.492006
0.492711
0.491668
0.388573
0.459123
0.497333
0.490864
0.497253
0.489592
0.448313
0.382488
0.492312
0.445081
0.444983
0.376234
0.486987
0.490966
0.490119
0.385524
0.45288
0.452866
0.495894
0.391494
0.391817
0.375226
0.382654
0.497748
0.498185
0.495034
0.437618
0.382164
0.383528
0.496941
0.490902
0.405972
0.385094
0.376816
0.37684
0.377745
0.489729
0.380162
0.407768
0.492249
0.378894
0.470648
0.490337
0.49084
0.494177
0.395443
0.392357
0.496621
0.383667
0.464315
0.489638
0.476789
0.475262
0.477455
0.476966
0.497422
0.46819
0.386308
0.478939
0.494595
0.392579
0.37846
0.497229
0.491675
0.490039
0.490632
0.477272
0.477904
0.496961
0.485845
0.457161
0.385661
0.382484
0.49173
0.377838
0.49761
0.458587
0.49735
0.498166
0.423244
0.41878
0.496967
0.490893
0.497971
0.428801
0.490777
0.488687
0.473483
0.496925
0.382644
0.497332
0.494528
0.488308
0.473102
0.375428
0.497478
0.491813
0.490911
0.375879
0.375854
0.387554
0.4908
0.489925
0.497729
0.404784
0.410888
0.378653
0.384963
0.423472
0.488582
0.490552
0.377428
0.481713
0.376127
0.379977
0.495918
0.497729
0.481627
0.497191
0.410452
0.410683
0.404329
0.496802
0.422654
0.498033
0.489674
0.423298
0.375429
0.405085
0.475076
0.39914
0.497143
0.386438
0.39243
0.494089
0.497724
0.495599
0.490842
0.493905
0.489849
0.494631
0.37618
0.386282
0.431847
0.496879
0.379022
0.492597
0.394954
0.476685
0.493858
0.39157
0.458808
0.496966
0.451081
0.49737
0.490293
0.493642
0.493821
0.490082
0.473061
0.497686
0.481044
0.475191
0.392792
0.471893
0.377326
0.485873
0.463432
0.386007
0.495326
0.466795
0.469111
0.490334
0.392947
0.497151
0.375736
0.381833
0.375692
0.497279
0.488519
0.432156
0.434901
0.382366
0.489431
0.490917
0.485321
0.378539
0.382801
0.494148
0.485279
0.49723
0.487789
0.493361
0.385483
0.489987
0.394887
0.385902
0.495634
0.48301
0.401185
0.497895
0.38385
0.495199
0.497335
0.472742
0.488299
0.473555
0.497322
0.487441
0.496603
0.496972
0.488873
0.386165
0.405567
0.406129
0.488937
0.492362
0.485301
0.393546
0.493529
0.488443
0.493695
0.378976
0.486593
0.496772
0.489188
0.382267
0.379049
0.489239
0.377906
0.392237
0.381598
0.376809
0.376754
0.392496
0.392155
0.482401
0.37963
0.497447
0.481495
0.49803
0.496931
0.377043
0.491209
0.495761
0.491376
0.381273
0.496923
0.495173
0.493106
0.491702
0.466926
0.497209
0.378373
0.377724
0.446234
0.446272
0.496351
0.495386
0.378467
0.492111
0.496987
0.497044
0.497529
0.44816
0.428519
0.498007
0.461732
0.38929
0.376506
0.495932
0.379051
0.490849
0.376057
0.397048
0.496644
0.480685
0.493391
0.494314
0.458996
0.457884
0.37514
0.497668
0.386046
0.498029
0.49068
0.496616
0.491562
0.497533
0.488386
0.432433
0.375307
0.376791
0.491726
0.393164
0.492042
0.494934
0.495205
0.385395
0.497189
0.490625
0.380583
0.495451
0.376636
0.382365
0.48335
0.491386
0.376615
0.395217
0.37536
0.380094
0.474295
0.479169
0.475852
0.472644
0.480817
0.457114
0.456975
0.386425
0.47934
0.49731
0.496751
0.380385
0.453517
0.491993
0.382408
0.377461
0.493841
0.477706
0.493215
0.496779
0.495479
0.49724
0.475433
0.497575
0.47562
0.401132
0.426186
0.486354
0.485716
0.48114
0.37817
0.493071
0.420488
0.421226
0.488684
0.495038
0.48764
0.499131
0.494301
0.44395
0.491438
0.486311
0.48795
0.390295
0.48719
0.390474
0.489361
0.423088
0.376889
0.47863
0.405596
0.405821
0.49706
0.496458
0.395374
0.497315
0.495467
0.497207
0.398893
0.399039
0.376154
0.497125
0.480456
0.496027
0.393683
0.497634
0.495335
0.48309
0.485822
0.496443
0.467786
0.468961
0.394626
0.495095
0.491364
0.496745
0.391569
0.391304
0.391202
0.453835
0.491957
0.494493
0.496261
0.497757
0.457304
0.387637
0.456211
0.449289
0.496874
0.37557
0.493249
0.395045
0.496044
0.400753
0.400793
0.487724
0.491376
0.494186
0.379573
0.496688
0.497467
0.38287
0.408421
0.497816
0.490703
0.429628
0.37682
0.376082
0.376833
0.407335
0.487203
0.494723
0.463372
0.446775
0.418165
0.497204
0.463265
0.413476
0.420674
0.428961
0.496309
0.448815
0.494289
0.384788
0.423303
0.492696
0.491057
0.486067
0.492752
0.436937
0.492284
0.496218
0.492926
0.385611
0.420532
0.495668
0.495542
0.494731
0.496487
0.495735
0.493423
0.374979
0.399502
0.399614
0.495066
0.492144
0.495631
0.491263
0.376105
0.492588
0.475853
0.496678
0.479157
0.389533
0.491384
0.487893
0.380766
0.486043
0.494362
0.375659
0.49388
0.390653
0.41606
0.379234
0.379292
0.390588
0.390734
0.471272
0.491475
0.49782
0.497919
0.390348
0.49531
0.497011
0.393734
0.402442
0.481817
0.378047
0.492319
0.491472
0.475959
0.382228
0.38618
0.393334
0.496194
0.496172
0.49574
0.495889
0.499116
0.486721
0.487735
0.488687
0.495167
0.485631
0.495327
0.492644
0.400814
0.491916
0.460513
0.497543
0.493665
0.491776
0.496166
0.491512
0.404182
0.490492
0.486877
0.445711
0.492839
0.490668
0.487348
0.498619
0.489144
0.425022
0.489119
0.41593
0.419302
0.4977
0.490014
0.497045
0.491101
0.382126
0.49487
0.487458
0.489999
0.497299
0.488737
0.490446
0.376531
0.497641
0.486968
0.488611
0.3979
0.397706
0.486566
0.376143
0.498651
0.49215
0.499698
0.38789
0.493875
0.49046
0.385171
0.395097
0.4879
0.402451
0.384707
0.499606
0.38433
0.500245
0.500215
0.499565
0.383979
0.481381
0.49923
0.491305
0.497612
0.493606
0.493236
0.497091
0.471778
0.386394
0.376462
0.499011
0.392894
0.488793
0.375983
0.386722
0.386601
0.490028
0.468217
0.38414
0.388252
0.486234
0.499019
0.495496
0.461793
0.487877
0.389733
0.499837
0.499806
0.491048
0.492613
0.490894
0.493568
0.387186
0.474389
0.474595
0.485915
0.497778
0.494321
0.498037
0.498495
0.494761
0.384288
0.497529
0.497303
0.381251
0.377945
0.377985
0.394182
0.489239
0.490584
0.468285
0.489775
0.488397
0.489872
0.483936
0.489944
0.499451
0.452786
0.498787
0.383379
0.462854
0.486142
0.390065
0.390175
0.4902
0.471444
0.49364
0.491298
0.48916
0.487461
0.45862
0.458711
0.491312
0.490813
0.495012
0.497186
0.391359
0.489553
0.484786
0.490351
0.391346
0.391455
0.495086
0.493059
0.487192
0.495611
0.490297
0.4958
0.495169
0.393406
0.496973
0.392042
0.391833
0.490499
0.478307
0.493523
0.485192
0.39853
0.398695
0.395275
0.401065
0.401094
0.378366
0.481349
0.498155
0.393951
0.485007
0.489546
0.478044
0.484445
0.405129
0.405333
0.41921
0.419974
0.463691
0.491846
0.409004
0.451706
0.45029
0.497037
0.483973
0.431223
0.484935
0.488173
0.40207
0.402046
0.46256
0.486356
0.464833
0.410941
0.41138
0.490641
0.483676
0.444953
0.497304
0.464726
0.382337
0.4918
0.446919
0.498275
0.489101
0.414961
0.484498
0.498814
0.49878
0.498921
0.496477
0.495548
0.492359
0.424451
0.498849
0.395408
0.487416
0.493333
0.498986
0.489088
0.49398
0.494902
0.39173
0.496898
0.496885
0.497525
0.38106
0.380687
0.485462
0.49606
0.415085
0.486623
0.481482
0.486915
0.490043
0.490826
0.496652
0.496374
0.496806
0.496049
0.489721
0.377336
0.376927
0.493597
0.410902
0.39398
0.464074
0.38379
0.498137
0.498681
0.495339
0.497019
0.498438
0.485904
0.489903
0.381802
0.47257
0.49665
0.459187
0.480334
0.497303
0.486791
0.498316
0.378821
0.487495
0.380656
0.446301
0.484169
0.498378
0.381201
0.381167
0.494495
0.403765
0.489662
0.496505
0.48629
0.488738
0.383311
0.483275
0.492931
0.495774
0.498567
0.496079
0.49556
0.489139
0.40209
0.491025
0.496577
0.486646
0.49821
0.488881
0.479678
0.493046
0.492898
0.486578
0.399785
0.39987
0.495022
0.493283
0.496781
0.496018
0.485587
0.497419
0.497854
0.471094
0.49314
0.468076
0.496983
0.497935
0.493849
0.484551
0.489524
0.438648
0.489104
0.491709
0.397379
0.397564
0.498296
0.4986
0.375378
0.49887
0.494739
0.496731
0.484208
0.480126
0.493868
0.495242
0.496552
0.496326
0.497629
0.48597
0.467169
0.493737
0.498162
0.490693
0.497313
0.394813
0.484752
0.479693
0.487274
0.497216
0.497073
0.47436
0.484261
0.487802
0.482633
0.495835
0.483598
0.497801
0.38613
0.392663
0.484734
0.498499
0.492091
0.394564
0.486561
0.493355
0.496299
0.496765
0.390696
0.390833
0.496842
0.435216
0.496872
0.388023
0.471031
0.494867
0.469303
0.488961
0.389561
0.496524
0.472451
0.387374
0.495303
0.465315
0.490363
0.482269
0.495305
0.497598
0.498755
0.48524
0.485306
0.468033
0.493048
0.497813
0.496468
0.497469
0.491577
0.394428
0.493391
0.487394
0.4949
0.494465
0.389211
0.487033
0.495279
0.483654
0.497663
0.498071
0.474944
0.455608
0.461857
0.489507
0.497194
0.454522
0.497209
0.497175
0.484916
0.493777
0.496885
0.495727
0.492433
0.496596
0.492786
0.497474
0.377001
0.496255
0.375539
0.49675
0.491795
0.490157
0.497883
0.491133
0.489492
0.39219
0.391997
0.487811
0.491499
0.497862
0.385049
0.384606
0.424719
0.421972
0.494461
0.496973
0.494753
0.492363
0.489311
0.496746
0.472098
0.394161
0.495015
0.496066
0.489872
0.497849
0.379416
0.376433
0.498841
0.497001
0.496974
0.394122
0.492039
0.49684
0.493423
0.465084
0.466216
0.499529
0.491523
0.496529
0.390502
0.402388
0.40238
0.479497
0.393984
0.492727
0.493729
0.490446
0.490344
0.493435
0.472633
0.496604
0.47018
0.385938
0.493362
0.493919
0.497894
0.481868
0.492677
0.496062
0.486835
0.411674
0.412146
0.465346
0.49131
0.497346
0.493073
0.489572
0.447486
0.493597
0.417652
0.497659
0.487085
0.492053
0.483145
0.489732
0.494595
0.4865
0.491742
0.49772
0.484489
0.492148
0.485009
0.489324
0.492837
0.485664
0.49042
0.495814
0.495782
0.4924
0.493317
0.493004
0.453765
0.491014
0.496291
0.490634
0.439702
0.497404
0.497015
0.48521
0.49574
0.49279
0.495827
0.389985
0.497756
0.493152
0.491378
0.491727
0.495425
0.463473
0.49739
0.493564
0.491005
0.494643
0.494263
0.493888
0.490693
0.496519
0.492384
0.497474
0.493137
0.489287
0.493518
0.486472
0.469449
0.473657
0.483768
0.496417
0.489983
0.495029
0.480251
0.492099
0.492084
0.491447
0.488551
0.493501
0.492433
0.466825
0.490771
0.48575
0.493197
0.488914
0.4723
0.497822
0.436218
0.497593
0.493889
0.497575
0.473478
0.490069
0.381048
0.381577
0.496609
0.485702
0.490136
0.492105
0.469678
0.463749
0.498124
0.491754
0.496724
0.488361
0.489713
0.495627
0.494614
0.494598
0.493888
0.492152
0.490336
0.491492
0.416531
0.497144
0.406734
0.378454
0.478574
0.480996
0.46657
0.481707
0.416066
0.49259
0.406629
0.491407
0.48031
0.484359
0.489642
0.491035
0.491801
0.487345
0.4771
0.497869
0.494589
0.490327
0.477121
0.489339
0.470147
0.482403
0.496546
0.491165
0.495965
0.496933
0.395591
0.497165
0.496137
0.484785
0.496513
0.490356
0.390244
0.491628
0.497571
0.466013
0.489257
0.49246
0.490171
0.492756
0.48988
0.496641
0.488102
0.376996
0.494184
0.484192
0.482107
0.488455
0.477759
0.488683
0.497233
0.489994
0.491436
0.490643
0.497674
0.489611
0.464169
0.487791
0.489199
0.378911
0.466296
0.489768
0.495723
0.444468
0.488991
0.486254
0.485284
0.482694
0.490333
0.492619
0.437017
0.488872
0.489029
0.492576
0.487659
0.495085
0.492446
0.440683
0.497538
0.490558
0.490687
0.487793
0.498191
0.4735
0.496347
0.489627
0.496792
0.498167
0.48873
0.432571
0.495528
0.478635
0.491061
0.483657
0.489819
0.485385
0.488169
0.458761
0.496457
0.438612
0.484269
0.492684
0.480892
0.489419
0.488891
0.497816
0.495481
0.414517
0.480111
0.455364
0.482043
0.488979
0.493404
0.49336
0.479295
0.489768
0.490723
0.45341
0.429096
0.377671
0.375684
0.488219
0.443641
0.486751
0.385207
0.384654
0.424424
0.487907
0.4309
0.49179
0.488444
0.487328
0.496123
0.488125
0.48617
0.445568
0.494805
0.376512
0.486495
0.474496
0.486841
0.491416
0.48115
0.494312
0.465003
0.489461
0.4671
0.434842
0.478419
0.450682
0.394049
0.447545
0.487759
0.491486
0.454961
0.490343
0.494902
0.445653
0.479538
0.385784
0.470791
0.490914
0.460179
0.49446
0.491147
0.487114
0.489932
0.495977
0.476343
0.446612
0.47833
0.418046
0.486084
0.487695
0.490852
0.491022
0.494339
0.44891
0.477332
0.390248
0.479527
0.468944
0.484414
0.430876
0.46951
0.487593
0.49848
0.489614
0.460475
0.470273
0.45672
0.499027
0.434792
0.459716
0.493006
0.457032
0.488136
0.474967
0.461694
0.472598
0.486934
0.38163
0.38075
0.453151
0.454743
0.487573
0.483065
0.47921
0.460038
0.404061
0.403952
0.454841
0.496652
0.378225
0.492902
0.490386
0.487653
0.49337
0.492825
0.456383
0.478475
0.451228
0.489245
0.456579
0.484836
0.491824
0.469958
0.485071
0.47073
0.477546
0.484002
0.442215
0.487326