# vtk DataFile Version 1.0
unstructured grid
ascii
DATASET UNSTRUCTURED_GRID
points 8094 float
-0.25 0.0574735 0
0.5 0.0546937 0
0.5 -0.0546937 0
-0.25 -0.0574735 0
-0.25 0.0574735 0.01
0.5 0.0546937 0.01
0.5 -0.0546937 0.01
-0.25 -0.0574735 0.01
-0.246045 0.0569295 0
-0.242089 0.0563854 0
-0.238136 0.0558289 0
-0.234184 0.0552582 0
-0.230232 0.0546875 0
-0.226284 0.0540912 0
-0.222337 0.0534933 0
-0.218391 0.0528841 0
-0.214448 0.0522585 0
-0.210504 0.0516328 0
-0.206565 0.0509829 0
-0.202626 0.0503294 0
-0.198689 0.0496667 0
-0.194755 0.0489856 0
-0.190821 0.0483046 0
-0.18689 0.0476022 0
-0.182961 0.0468942 0
-0.179033 0.0461799 0
-0.175108 0.0454463 0
-0.171183 0.0447127 0
-0.167262 0.0439627 0
-0.163342 0.0432056 0
-0.159422 0.0424455 0
-0.155506 0.041668 0
-0.15159 0.0408904 0
-0.147675 0.0401031 0
-0.143762 0.0393092 0
-0.13985 0.0385149 0
-0.135939 0.0377103 0
-0.132028 0.0369056 0
-0.128117 0.0361005 0
-0.124207 0.0352949 0
-0.120296 0.0344893 0
-0.116386 0.0336836 0
-0.112475 0.032878 0
-0.108563 0.0320794 0
-0.104649 0.0312931 0
-0.100735 0.0305068 0
-0.0968152 0.029745 0
-0.0928949 0.0289889 0
-0.0889722 0.0282446 0
-0.0850433 0.0275341 0
-0.0811144 0.0268235 0
-0.0771778 0.0261578 0
-0.0732381 0.0255098 0
-0.0692962 0.0248759 0
-0.0653442 0.0243073 0
-0.0613923 0.0237386 0
-0.0574324 0.0232306 0
-0.0534681 0.0227556 0
-0.0495024 0.0222934 0
-0.0455272 0.0219207 0
-0.041552 0.0215481 0
-0.0375717 0.0212385 0
-0.0335881 0.0209694 0
-0.029604 0.0207098 0
-0.0256151 0.0205369 0
-0.0216262 0.0203639 0
-0.0176357 0.0202396 0
-0.0136441 0.0201487 0
-0.00965243 0.0200635 0
-0.00565987 0.0200372 0
-0.00166732 0.020011 0
0.00232526 0.0200121 0
0.00631785 0.0200329 0
0.0103104 0.0200563 0
0.0143027 0.0201109 0
0.018295 0.0201654 0
0.022287 0.0202345 0
0.0262788 0.0203144 0
0.0302706 0.0203957 0
0.034262 0.0204956 0
0.0382534 0.0205955 0
0.0422446 0.0207045 0
0.0462355 0.0208207 0
0.0502265 0.0209377 0
0.054217 0.0210676 0
0.0582075 0.0211975 0
0.0621978 0.0213339 0
0.0661879 0.0214757 0
0.0701781 0.021618 0
0.0741678 0.0217703 0
0.0781575 0.0219227 0
0.0821471 0.0220801 0
0.0861364 0.022242 0
0.0901258 0.0224041 0
0.0941148 0.0225747 0
0.0981038 0.0227453 0
0.102093 0.0229202 0
0.106081 0.023099 0
0.11007 0.0232779 0
0.114058 0.0234644 0
0.118046 0.0236509 0
0.122035 0.0238411 0
0.126022 0.024035 0
0.13001 0.0242288 0
0.133998 0.0244298 0
0.137986 0.0246308 0
0.141973 0.0248352 0
0.14596 0.025043 0
0.149947 0.0252509 0
0.153934 0.0254654 0
0.157921 0.02568 0
0.161908 0.0258978 0
0.165894 0.026119 0
0.169881 0.0263402 0
0.173867 0.0265678 0
0.177853 0.0267956 0
0.181839 0.0270264 0
0.185825 0.0272607 0
0.189811 0.0274951 0
0.193796 0.0277356 0
0.197781 0.0279764 0
0.201767 0.02822 0
0.205752 0.0284673 0
0.209737 0.0287146 0
0.213721 0.0289679 0
0.217706 0.0292217 0
0.22169 0.0294782 0
0.225674 0.0297385 0
0.229658 0.0299988 0
0.233642 0.0302651 0
0.237626 0.0305319 0
0.241609 0.0308014 0
0.245593 0.0310748 0
0.249576 0.0313482 0
0.253559 0.0316276 0
0.257542 0.0319077 0
0.261524 0.0321904 0
0.265507 0.0324772 0
0.269489 0.032764 0
0.273471 0.0330568 0
0.277453 0.0333504 0
0.281434 0.0336466 0
0.285416 0.0339471 0
0.289397 0.0342476 0
0.293378 0.034554 0
0.297359 0.0348615 0
0.301339 0.0351714 0
0.305319 0.0354859 0
0.3093 0.0358005 0
0.313279 0.036121 0
0.317259 0.0364427 0
0.321239 0.0367667 0
0.325218 0.0370957 0
0.329197 0.0374248 0
0.333175 0.0377597 0
0.337154 0.0380961 0
0.341132 0.0384347 0
0.34511 0.0387786 0
0.349088 0.0391226 0
0.353065 0.0394724 0
0.357042 0.0398239 0
0.361019 0.0401775 0
0.364995 0.0405368 0
0.368972 0.0408961 0
0.372948 0.0412613 0
0.376924 0.0416285 0
0.380899 0.0419975 0
0.384874 0.0423727 0
0.388849 0.0427479 0
0.392823 0.0431289 0
0.396798 0.0435123 0
0.400772 0.0438973 0
0.404745 0.044289 0
0.408718 0.0446807 0
0.412691 0.0450781 0
0.416664 0.0454782 0
0.420636 0.0458797 0
0.424608 0.0462883 0
0.42858 0.046697 0
0.432551 0.0471114 0
0.436521 0.0475289 0
0.440492 0.0479474 0
0.444462 0.0483738 0
0.448432 0.0488001 0
0.452401 0.0492319 0
0.45637 0.0496673 0
0.460338 0.0501035 0
0.464306 0.0505482 0
0.468274 0.0509928 0
0.472241 0.0514427 0
0.476208 0.0518968 0
0.480175 0.0523512 0
0.48414 0.0528148 0
0.488106 0.0532784 0
0.492071 0.0537471 0
0.496036 0.0542204 0
0.5 0.050787 0
0.5 0.0468803 0
0.5 0.0429736 0
0.5 0.0390669 0
0.5 0.0351602 0
0.5 0.0312535 0
0.5 0.0273468 0
0.5 0.0234402 0
0.5 0.0195335 0
0.5 0.0156268 0
0.5 0.0117201 0
0.5 0.00781339 0
0.5 0.00390669 0
0.5 1.43781e-13 0
0.5 -0.00390669 0
0.5 -0.00781339 0
0.5 -0.0117201 0
0.5 -0.0156268 0
0.5 -0.0195335 0
0.5 -0.0234402 0
0.5 -0.0273468 0
0.5 -0.0312535 0
0.5 -0.0351602 0
0.5 -0.0390669 0
0.5 -0.0429736 0
0.5 -0.0468803 0
0.5 -0.050787 0
0.496036 -0.0542204 0
0.492071 -0.0537471 0
0.488106 -0.0532784 0
0.48414 -0.0528148 0
0.480175 -0.0523512 0
0.476208 -0.0518968 0
0.472241 -0.0514427 0
0.468274 -0.0509928 0
0.464306 -0.0505482 0
0.460338 -0.0501035 0
0.45637 -0.0496673 0
0.452401 -0.0492319 0
0.448432 -0.0488001 0
0.444462 -0.0483738 0
0.440492 -0.0479474 0
0.436521 -0.0475289 0
0.432551 -0.0471114 0
0.42858 -0.046697 0
0.424608 -0.0462883 0
0.420636 -0.0458797 0
0.416664 -0.0454782 0
0.412691 -0.0450781 0
0.408718 -0.0446807 0
0.404745 -0.044289 0
0.400772 -0.0438973 0
0.396798 -0.0435123 0
0.392823 -0.0431289 0
0.388849 -0.0427479 0
0.384874 -0.0423727 0
0.380899 -0.0419975 0
0.376924 -0.0416285 0
0.372948 -0.0412613 0
0.368972 -0.0408961 0
0.364995 -0.0405368 0
0.361019 -0.0401775 0
0.357042 -0.0398239 0
0.353065 -0.0394724 0
0.349088 -0.0391226 0
0.34511 -0.0387786 0
0.341132 -0.0384347 0
0.337154 -0.0380961 0
0.333175 -0.0377597 0
0.329197 -0.0374248 0
0.325218 -0.0370957 0
0.321239 -0.0367667 0
0.317259 -0.0364427 0
0.313279 -0.036121 0
0.3093 -0.0358005 0
0.305319 -0.0354859 0
0.301339 -0.0351714 0
0.297359 -0.0348615 0
0.293378 -0.034554 0
0.289397 -0.0342476 0
0.285416 -0.0339471 0
0.281434 -0.0336466 0
0.277453 -0.0333504 0
0.273471 -0.0330568 0
0.269489 -0.032764 0
0.265507 -0.0324772 0
0.261524 -0.0321904 0
0.257542 -0.0319077 0
0.253559 -0.0316276 0
0.249576 -0.0313482 0
0.245593 -0.0310748 0
0.241609 -0.0308014 0
0.237626 -0.0305319 0
0.233642 -0.0302651 0
0.229658 -0.0299988 0
0.225674 -0.0297385 0
0.22169 -0.0294782 0
0.217706 -0.0292217 0
0.213721 -0.0289679 0
0.209737 -0.0287146 0
0.205752 -0.0284673 0
0.201767 -0.02822 0
0.197781 -0.0279764 0
0.193796 -0.0277356 0
0.189811 -0.0274951 0
0.185825 -0.0272607 0
0.181839 -0.0270264 0
0.177853 -0.0267956 0
0.173867 -0.0265678 0
0.169881 -0.0263402 0
0.165894 -0.026119 0
0.161908 -0.0258978 0
0.157921 -0.02568 0
0.153934 -0.0254654 0
0.149947 -0.0252509 0
0.14596 -0.025043 0
0.141973 -0.0248352 0
0.137986 -0.0246308 0
0.133998 -0.0244298 0
0.13001 -0.0242288 0
0.126022 -0.024035 0
0.122035 -0.0238411 0
0.118046 -0.0236509 0
0.114058 -0.0234644 0
0.11007 -0.0232779 0
0.106081 -0.023099 0
0.102093 -0.0229202 0
0.0981038 -0.0227453 0
0.0941148 -0.0225747 0
0.0901258 -0.0224041 0
0.0861364 -0.022242 0
0.0821471 -0.0220801 0
0.0781575 -0.0219227 0
0.0741678 -0.0217703 0
0.0701781 -0.021618 0
0.0661879 -0.0214757 0
0.0621978 -0.0213339 0
0.0582075 -0.0211975 0
0.054217 -0.0210676 0
0.0502265 -0.0209377 0
0.0462355 -0.0208207 0
0.0422446 -0.0207045 0
0.0382534 -0.0205955 0
0.034262 -0.0204956 0
0.0302706 -0.0203957 0
0.0262788 -0.0203144 0
0.022287 -0.0202345 0
0.018295 -0.0201654 0
0.0143027 -0.0201109 0
0.0103104 -0.0200563 0
0.00631785 -0.0200329 0
0.00232526 -0.0200121 0
-0.00166732 -0.020011 0
-0.00565987 -0.0200372 0
-0.00965243 -0.0200635 0
-0.0136441 -0.0201487 0
-0.0176357 -0.0202396 0
-0.0216262 -0.0203639 0
-0.0256151 -0.0205369 0
-0.029604 -0.0207098 0
-0.0335881 -0.0209694 0
-0.0375717 -0.0212385 0
-0.041552 -0.0215481 0
-0.0455272 -0.0219207 0
-0.0495024 -0.0222934 0
-0.0534681 -0.0227556 0
-0.0574324 -0.0232306 0
-0.0613923 -0.0237386 0
-0.0653442 -0.0243073 0
-0.0692962 -0.0248759 0
-0.0732381 -0.0255098 0
-0.0771778 -0.0261578 0
-0.0811144 -0.0268235 0
-0.0850433 -0.0275341 0
-0.0889722 -0.0282446 0
-0.0928949 -0.0289889 0
-0.0968152 -0.029745 0
-0.100735 -0.0305068 0
-0.104649 -0.0312931 0
-0.108563 -0.0320794 0
-0.112475 -0.032878 0
-0.116386 -0.0336836 0
-0.120296 -0.0344893 0
-0.124207 -0.0352949 0
-0.128117 -0.0361005 0
-0.132028 -0.0369056 0
-0.135939 -0.0377103 0
-0.13985 -0.0385149 0
-0.143762 -0.0393092 0
-0.147675 -0.0401031 0
-0.15159 -0.0408904 0
-0.155506 -0.041668 0
-0.159422 -0.0424455 0
-0.163342 -0.0432056 0
-0.167262 -0.0439627 0
-0.171183 -0.0447127 0
-0.175108 -0.0454463 0
-0.179033 -0.0461799 0
-0.182961 -0.0468942 0
-0.18689 -0.0476022 0
-0.190821 -0.0483046 0
-0.194755 -0.0489856 0
-0.198689 -0.0496667 0
-0.202626 -0.0503294 0
-0.206565 -0.0509829 0
-0.210504 -0.0516328 0
-0.214448 -0.0522585 0
-0.218391 -0.0528841 0
-0.222337 -0.0534933 0
-0.226284 -0.0540912 0
-0.230232 -0.0546875 0
-0.234184 -0.0552582 0
-0.238136 -0.0558289 0
-0.242089 -0.0563854 0
-0.246045 -0.0569295 0
-0.25 -0.0535098 0
-0.25 -0.0495461 0
-0.25 -0.0455824 0
-0.25 -0.0416187 0
-0.25 -0.0376551 0
-0.25 -0.0336914 0
-0.25 -0.0297277 0
-0.25 -0.025764 0
-0.25 -0.0218003 0
-0.25 -0.0178366 0
-0.25 -0.0138729 0
-0.25 -0.00990922 0
-0.25 -0.00594553 0
-0.25 -0.00198184 0
-0.25 0.00198184 0
-0.25 0.00594553 0
-0.25 0.00990922 0
-0.25 0.0138729 0
-0.25 0.0178366 0
-0.25 0.0218003 0
-0.25 0.025764 0
-0.25 0.0297277 0
-0.25 0.0336914 0
-0.25 0.0376551 0
-0.25 0.0416187 0
-0.25 0.0455824 0
-0.25 0.0495461 0
-0.25 0.0535098 0
-0.246045 0.0569295 0.01
-0.242089 0.0563854 0.01
-0.238136 0.0558289 0.01
-0.234184 0.0552582 0.01
-0.230232 0.0546875 0.01
-0.226284 0.0540912 0.01
-0.222337 0.0534933 0.01
-0.218391 0.0528841 0.01
-0.214448 0.0522585 0.01
-0.210504 0.0516328 0.01
-0.206565 0.0509829 0.01
-0.202626 0.0503294 0.01
-0.198689 0.0496667 0.01
-0.194755 0.0489856 0.01
-0.190821 0.0483046 0.01
-0.18689 0.0476022 0.01
-0.182961 0.0468942 0.01
-0.179033 0.0461799 0.01
-0.175108 0.0454463 0.01
-0.171183 0.0447127 0.01
-0.167262 0.0439627 0.01
[...]
CELL_DATA 7657
SCALARS rho float
LOOKUP_TABLE default
0.481231
0.397358
0.386636
0.372974
0.496446
0.378125
0.364497
0.483922
0.378839
0.500128
0.50019
0.48099
0.368635
0.482625
0.49578
0.491099
0.495719
0.394932
0.394646
0.495892
0.495081
0.396257
0.391885
0.394597
0.415435
0.466405
0.370996
0.370891
0.497257
0.378542
0.365399
0.415886
0.390012
0.479472
0.479871
0.36516
0.378364
0.391521
0.48405
0.368315
0.385873
0.378361
0.375737
0.377545
0.385685
0.387135
0.364053
0.378119
0.416965
0.48089
0.377231
0.373066
0.497194
0.498013
0.364407
0.378778
0.495334
0.493642
0.459551
0.365722
0.418453
0.385013
0.422119
0.423467
0.500806
0.500819
0.368509
0.379085
0.499449
0.456049
0.387561
0.369309
0.374795
0.497253
0.478353
0.377883
0.396197
0.37781
0.477884
0.369339
0.389269
0.486548
0.495516
0.386388
0.387127
0.463735
0.387129
0.455197
0.46794
0.370913
0.500687
0.500726
0.46098
0.49883
0.367735
0.465977
0.464897
0.394237
0.385154
0.367681
0.395476
0.40579
0.396481
0.494706
0.363933
0.383813
0.366672
0.379051
0.37014
0.494683
0.365367
0.379195
0.376617
0.495515
0.390134
0.446157
0.379243
0.368241
0.490524
0.378315
0.501456
0.501441
0.366755
0.393759
0.492257
0.482161
0.479735
0.375749
0.378944
0.375923
0.372575
0.399084
0.378783
0.374759
0.495503
0.366379
0.491394
0.390137
0.399869
0.400472
0.366769
0.37076
0.368635
0.367849
0.394048
0.495009
0.388251
0.398232
0.384893
0.366665
0.368576
0.499559
0.410935
0.375955
0.495087
0.396757
0.379088
0.397345
0.495578
0.366432
0.397916
0.493441
0.464587
0.444981
0.383329
0.39625
0.48409
0.376631
0.389605
0.490902
0.385917
0.384902
0.398618
0.368627
0.365065
0.365024
0.374363
0.465983
0.491699
0.36864
0.367888
0.37025
0.402738
0.403287
0.367665
0.45804
0.374681
0.374512
0.474795
0.46594
0.497188
0.499027
0.495446
0.470202
0.473767
0.378952
0.49631
0.493143
0.365172
0.388666
0.394496
0.40479
0.467207
0.453193
0.371183
0.498118
0.370943
0.363793
0.47755
0.46975
0.381159
0.384861
0.383211
0.495425
0.385621
0.37444
0.364732
0.462559
0.379058
0.388532
0.397668
0.398106
0.499848
0.379104
0.371958
0.390322
0.372091
0.369494
0.378087
0.499885
0.382472
0.38244
0.370046
0.494983
0.489724
0.495791
0.454823
0.406194
0.406924
0.492904
0.381032
0.369394
0.467353
0.389721
0.476726
0.472192
0.374836
0.471404
0.375534
0.377795
0.365132
0.374055
0.379244
0.478539
0.364818
0.374347
0.399121
0.496398
0.497902
0.379006
0.393403
0.49784
0.490154
0.389801
0.364643
0.387082
0.451333
0.369377
0.394432
0.369031
0.36685
0.370696
0.370767
0.496252
0.476168
0.389957
0.376291
0.379224
0.379184
0.477783
0.394617
0.444506
0.370012
0.367316
0.374225
0.365337
0.367239
0.372476
0.414405
0.392094
0.390435
0.374763
0.370068
0.497784
0.379093
0.371374
0.484361
0.487419
0.445988
0.390788
0.464943
0.498405
0.368984
0.373271
0.371165
0.462359
0.364555
0.374941
0.393294
0.379114
0.478787
0.449705
0.492696
0.375514
0.415469
0.492534
0.497724
0.496431
0.379093
0.446287
0.37621
0.391639
0.497679
0.456512
0.490887
0.497099
0.373845
0.408748
0.494025
0.39172
0.38382
0.497322
0.490123
0.40047
0.48557
0.423958
0.379054
0.369505
0.414167
0.497171
0.472196
0.36495
0.402003
0.490182
0.496598
0.364864
0.497157
0.400287
0.388122
0.49407
0.378258
0.39741
0.495509
0.39789
0.36463
0.411942
0.399457
0.363764
0.413042
0.363761
0.379561
0.395714
0.388242
0.447733
0.495453
0.365061
0.47105
0.368038
0.461091
0.463821
0.378505
0.437674
0.494721
0.493453
0.370947
0.369366
0.398158
0.42344
0.39221
0.489387
0.383779
0.393666
0.370538
0.424801
0.497498
0.499504
0.480539
0.48041
0.469221
0.493654
0.379501
0.379218
0.379237
0.494127
0.462562
0.456735
0.364778
0.384572
0.493571
0.378289
0.495794
0.49584
0.393537
0.498561
0.368117
0.437446
0.491561
0.366336
0.493833
0.495768
0.398816
0.378589
0.426114
0.372748
0.467379
0.493124
0.385215
0.486504
0.372903
0.39453
0.391657
0.485741
0.3642
0.407025
0.397654
0.390711
0.465183
0.490658
0.375522
0.406393
0.444012
0.364389
0.403308
0.496252
0.448062
0.48903
0.498366
0.400146
0.490315
0.394226
0.378416
0.48793
0.36588
0.497428
0.477583
0.383863
0.380986
0.363877
0.49567
0.44475
0.415777
0.412812
0.379688
0.363874
0.372821
0.465909
0.364323
0.491655
0.490433
0.468037
0.480226
0.378851
0.392041
0.464286
0.408539
0.493081
0.382378
0.386298
0.364451
0.364638
0.497409
0.379724
0.434938
0.481865
0.494785
0.403942
0.44927
0.378204
0.36728
0.497162
0.448343
0.497293
0.397592
0.398779
0.384199
0.379075
0.369672
0.365734
0.499419
0.429612
0.493209
0.419662
0.481748
0.469183
0.479224
0.365069
0.373037
0.37764
0.479884
0.481155
0.488093
0.487088
0.441915
0.49
0.455086
0.458192
0.403789
0.375138
0.447266
0.489207
0.369718
0.44417
0.403196
0.49313
0.395124
0.490855
0.486991
0.397044
0.485131
0.392991
0.491467
0.494482
0.486397
0.37222
0.476469
0.489186
0.498357
0.386435
0.498679
0.422802
0.379389
0.489661
0.48594
0.434602
0.384942
0.404007
0.38553
0.485254
0.364221
0.393085
0.38383
0.404142
0.440849
0.479407
0.450766
0.493787
0.40234
0.375318
0.378612
0.401582
0.48989
0.372896
0.433164
0.46209
0.485632
0.488619
0.367733
0.474422
0.385096
0.48002
0.489406
0.377264
0.492073
0.366009
0.400865
0.487729
0.499068
0.493965
0.365352
0.477019
0.465751
0.377603
0.397602
0.393655
0.461762
0.364228
0.484559
0.496622
0.478012
0.481363
0.373592
0.418974
0.462905
0.378917
0.40076
0.431382
0.431136
0.44594
0.499386
0.365603
0.472125
0.483426
0.364038
0.440517
0.460166
0.378961
0.364848
0.374295
0.384175
0.481585
0.468223
0.494549
0.378996
0.470922
0.48521
0.484474
0.463943
0.470478
0.379077
0.495012
0.465598
0.480231
0.479971
0.487843
0.384572
0.489735
0.496353
0.440071
0.437334
0.484232
0.365806
0.497795
0.497797
0.491889
0.486271
0.426886
0.396074
0.444958
0.447563
0.377661
0.395089
0.379094
0.497771
0.428522
0.375907
0.489911
0.435957
0.421306
0.497391
0.395041
0.49737
0.403929
0.411266
0.365373
0.372105
0.493032
0.416904
0.430509
0.418277
0.482472
0.488032
0.432359
0.386969
0.49111
0.4962
0.475231
0.370319
0.403152
0.423363
0.421656
0.367199
0.434553
0.490336
0.439563
0.421404
0.398784
0.437942
0.483681
0.436328
0.413036
0.492161
0.46314
0.429957
0.490427
0.373626
0.41193
0.407888
0.409179
0.496567
0.43844
0.384205
0.425141
0.415551
0.479364
0.485787
0.440452
0.379436
0.373031
0.378764
0.365968
0.473537
0.483374
0.476535
0.426996
0.401526
0.475981
0.494215
0.373079
0.496053
0.495728
0.364193
0.400083
0.373166
0.386095
0.363297
0.376416
0.442691
0.375241
0.444596
0.49048
0.490943
0.373851
0.482813
0.497644
0.396727
0.365157
0.490199
0.498278
0.468403
0.432683
0.376273
0.413834
0.489873
0.490131
0.496982
0.428903
0.460641
0.497532
0.365465
0.460195
0.419146
0.496386
0.376141
0.423583
0.474451
0.441787
0.385403
0.431811
0.490555
0.420661
0.424933
0.406139
0.496299
0.45882
0.364308
0.489465
0.385875
0.381834
0.366801
0.460011
0.498389
0.365028
0.429483
0.486694
0.499339
0.495576
0.496749
0.367957
0.497215
0.497482
0.402115
0.496882
0.493679
0.418379
0.421811
0.486691
0.378941
0.382142
0.420742
0.478889
0.397513
0.396982
0.488962
0.380423
0.496697
0.476045
0.488594
0.49539
0.496563
0.381495
0.37631
0.419609
0.368024
0.489331
0.364054
0.495473
0.49652
0.375168
0.461845
0.403101
0.439082
0.363791
0.473838
0.430837
0.38525
0.489797
0.488211
0.457081
0.418012
0.428142
0.495965
0.366249
0.365667
0.474932
0.422698
0.460009
0.460002
0.377078
0.49615
0.484445
0.469762
0.371136
0.365916
0.376871
0.363982
0.49578
0.49526
0.376632
0.489433
0.494084
0.495217
0.391773
0.494925
0.492898
0.363978
0.465798
0.473835
0.367752
0.44324
0.364991
0.491381
0.469889
0.368058
0.461976
0.492291
0.364753
0.488163
0.495346
0.495303
0.420806
0.493103
0.452333
0.417579
0.498887
0.497555
0.495113
0.387999
0.45561
0.465937
0.375867
0.495474
0.497747
0.366202
0.381115
0.367299
0.43686
0.442967
0.49745
0.443175
0.493768
0.495397
0.492572
0.493517
0.495605
0.376026
0.433835
0.491529
0.366602
0.494865
0.36385
0.380952
0.497596
0.366113
0.467585
0.495128
0.367695
0.366946
0.496115
0.495288
0.485952
0.495854
0.477375
0.452664
0.473681
0.378086
0.375446
0.379864
0.484872
0.483133
0.49589
0.369414
0.434813
0.376963
0.495337
0.495604
0.495076
0.495568
0.450434
0.494603
0.468247
0.494343
0.494819
0.491182
0.491672
0.491503
0.369424
0.438935
0.369768
0.468431
0.364394
0.377282
0.368477
0.366486
0.449836
0.449934
0.49701
0.479202
0.494563
0.477964
0.386104
0.464874
0.494386
0.475202
0.497135
0.467083
0.453658
0.367575
0.494309
0.450254
0.450151
0.367951
0.490694
0.472826
0.469373
0.369887
0.458421
0.458405
0.489707
0.376665
0.377002
0.36568
0.367677
0.497475
0.496509
0.487135
0.398206
0.367322
0.368353
0.493469
0.475959
0.3852
0.369538
0.369219
0.369247
0.37056
0.471637
0.36588
0.409092
0.481194
0.365117
0.419997
0.493057
0.472399
0.486306
0.378963
0.377506
0.492479
0.368427
0.47011
0.467557
0.429393
0.48069
0.482695
0.429766
0.494729
0.473931
0.370541
0.435896
0.485826
0.377657
0.364757
0.493514
0.493908
0.472229
0.471626
0.431856
0.432812
0.492894
0.456701
0.406846
0.369992
0.367597
0.493944
0.364534
0.494526
0.464296
0.497167
0.497864
0.426616
0.421635
0.493728
0.476893
0.496068
0.432725
0.49333
0.467299
0.423523
0.493462
0.367671
0.493866
0.4958
0.465627
0.422384
0.366409
0.496956
0.479986
0.477406
0.367555
0.367505
0.384583
0.472063
0.492766
0.494912
0.384345
0.38944
0.364813
0.369447
0.39519
0.463911
0.49319
0.364402
0.443111
0.364058
0.365823
0.490688
0.49706
0.442207
0.497177
0.389114
0.389121
0.383852
0.496934
0.394814
0.49621
0.469305
0.394853
0.36645
0.384309
0.480501
0.398971
0.497096
0.370705
0.377561
0.495361
0.497556
0.488862
0.493375
0.495266
0.492712
0.487648
0.363889
0.370536
0.396421
0.496907
0.372923
0.482006
0.378818
0.481991
0.485381
0.376768
0.407857
0.493618
0.404076
0.493969
0.470067
0.495105
0.484166
0.473093
0.421238
0.497029
0.441021
0.480618
0.377823
0.419685
0.364113
0.457727
0.469175
0.370249
0.496052
0.472526
0.474825
0.470333
0.377903
0.493895
0.36382
0.367044
0.363511
0.494366
0.468049
0.436395
0.439393
0.367318
0.492414
0.476643
0.456546
0.364846
0.367752
0.485236
0.489364
0.496862
0.463787
0.482502
0.369856
0.468916
0.37878
0.370211
0.489037
0.447313
0.381169
0.495502
0.36853
0.487729
0.497519
0.478317
0.46756
0.479081
0.494524
0.491044
0.492612
0.497073
0.492014
0.370365
0.384803
0.385161
0.492059
0.494371
0.455568
0.392128
0.482287
0.4917
0.483654
0.365096
0.490404
0.492993
0.469037
0.367311
0.365145
0.470004
0.364606
0.377397
0.366898
0.369469
0.369397
0.377601
0.377319
0.445214
0.365553
0.49694
0.441798
0.497842
0.492702
0.364137
0.476545
0.490063
0.477907
0.366631
0.492831
0.495998
0.480934
0.478612
0.472665
0.493692
0.364688
0.364585
0.451453
0.451495
0.491867
0.496095
0.364786
0.477193
0.496776
0.493594
0.494572
0.402274
0.395265
0.497643
0.467519
0.373804
0.36409
0.489979
0.365167
0.473437
0.363753
0.379405
0.491982
0.439386
0.48294
0.486779
0.407968
0.407974
0.36503
0.497393
0.370308
0.497737
0.471799
0.492775
0.493826
0.494562
0.49166
0.396502
0.364208
0.363615
0.493944
0.37805
0.494172
0.48694
0.487869
0.369739
0.497158
0.493242
0.375008
0.489178
0.363882
0.367435
0.447978
0.493726
0.364016
0.378919
0.366166
0.365817
0.479772
0.435181
0.481221
0.478215
0.439775
0.40723
0.406777
0.370628
0.435548
0.493702
0.492824
0.366043
0.404827
0.476869
0.377929
0.364239
0.483402
0.431441
0.481179
0.492344
0.489445
0.493721
0.427968
0.497638
0.427146
0.381102
0.394396
0.460392
0.451403
0.44212
0.364772
0.480793
0.39244
0.392427
0.491886
0.488125
0.459975
0.498508
0.486095
0.400855
0.478762
0.453521
0.491338
0.375225
0.460589
0.375316
0.492364
0.393372
0.363959
0.483739
0.3845
0.384275
0.493078
0.491405
0.378922
0.49426
0.48843
0.496857
0.379935
0.380036
0.367206
0.493497
0.440038
0.49015
0.378277
0.494602
0.48809
0.448415
0.458494
0.491719
0.473497
0.474665
0.378672
0.488908
0.478303
0.492567
0.376587
0.376299
0.376376
0.404916
0.476645
0.487286
0.490952
0.495027
0.406889
0.371802
0.406902
0.403186
0.492609
0.365796
0.481418
0.378779
0.490704
0.380784
0.380883
0.462524
0.49374
0.484605
0.365645
0.496901
0.494184
0.367816
0.386557
0.497583
0.493274
0.395306
0.363897
0.367463
0.368934
0.386473
0.457953
0.487195
0.411317
0.401753
0.392674
0.493585
0.411863
0.390783
0.392462
0.396803
0.491173
0.403667
0.484798
0.36927
0.393406
0.494597
0.493508
0.452516
0.479576
0.398186
0.477974
0.490698
0.481201
0.369921
0.392433
0.48913
0.488903
0.486178
0.491585
0.489812
0.482098
0.36485
0.380183
0.380277
0.487284
0.478559
0.489056
0.493637
0.363805
0.479954
0.427405
0.492057
0.431949
0.374052
0.493754
0.466203
0.366312
0.489959
0.487025
0.364608
0.485724
0.375678
0.390749
0.365254
0.365285
0.375615
0.375637
0.418931
0.474924
0.497172
0.497198
0.375274
0.488034
0.493423
0.378314
0.402928
0.444218
0.364616
0.478123
0.47885
0.481324
0.367306
0.370461
0.378125
0.491304
0.490651
0.489361
0.49046
0.498564
0.455076
0.459241
0.463255
0.487535
0.450811
0.48876
0.479393
0.380905
0.494056
0.466315
0.497587
0.483264
0.479582
0.49108
0.475081
0.383048
0.471613
0.462291
0.401569
0.482842
0.472168
0.457723
0.498185
0.469976
0.428569
0.492204
0.418408
0.4222
0.497633
0.473295
0.493255
0.493571
0.367297
0.486651
0.490974
0.473772
0.4969
0.469213
0.475227
0.363927
0.497126
0.490608
0.491833
0.379629
0.379523
0.454667
0.36364
0.498319
0.480792
0.499025
0.384945
0.483536
0.470692
0.369542
0.378818
0.491304
0.382034
0.369164
0.498937
0.36891
0.499676
0.499641
0.498871
0.368568
0.441524
0.498628
0.477953
0.497318
0.495095
0.481981
0.493171
0.47739
0.370624
0.363861
0.498349
0.377863
0.465749
0.363673
0.370906
0.370786
0.469905
0.473983
0.368785
0.372514
0.490054
0.498578
0.488592
0.467614
0.46199
0.374453
0.499342
0.499313
0.493536
0.482313
0.493391
0.483355
0.371347
0.426057
0.42523
0.452252
0.497183
0.484961
0.497637
0.498174
0.48636
0.368853
0.494327
0.493773
0.366629
0.364497
0.364377
0.378518
0.465687
0.493189
0.474049
0.46811
0.46392
0.471177
0.450118
0.468546
0.498789
0.404941
0.498262
0.368184
0.468671
0.452973
0.374914
0.374923
0.492926
0.420067
0.495217
0.474063
0.470791
0.46007
0.40781
0.408299
0.475062
0.472823
0.487823
0.496889
0.376347
0.4706
0.453534
0.472804
0.376539
0.376465
0.487849
0.481788
0.457191
0.489849
0.470492
0.496316
0.488568
0.37809
0.496815
0.377052
0.377037
0.475511
0.433086
0.483504
0.449237
0.379749
0.379865
0.378834
0.380952
0.381061
0.364827
0.437287
0.497952
0.378342
0.448682
0.472298
0.483224
0.446502
0.384113
0.383891
0.391956
0.391881
0.411476
0.476467
0.386944
0.403904
0.40339
0.496792
0.444933
0.395874
0.489107
0.46128
0.381732
0.381545
0.411421
0.459742
0.412594
0.388197
0.387968
0.471635
0.450488
0.400954
0.494112
0.413205
0.36742
0.477206
0.452211
0.497973
0.465199
0.41731
0.448018
0.498611
0.498574
0.498375
0.492218
0.496197
0.494361
0.393835
0.498164
0.394357
0.490945
0.494924
0.498209
0.465823
0.485107
0.486881
0.389819
0.49277
0.493301
0.497401
0.366527
0.366215
0.450398
0.490339
0.390204
0.490346
0.437593
0.458059
0.492822
0.4934
0.492718
0.496687
0.496699
0.491059
0.492708
0.364296
0.364202
0.495098
0.388222
0.378351
0.469898
0.368452
0.498026
0.498132
0.488253
0.497135
0.497542
0.489803
0.470574
0.367029
0.420563
0.496849
0.464945
0.485215
0.497275
0.45565
0.497475
0.365058
0.464448
0.366224
0.401565
0.445771
0.497928
0.366543
0.366544
0.485672
0.382724
0.492559
0.496767
0.490094
0.463768
0.368096
0.442809
0.494724
0.489577
0.497605
0.496493
0.496222
0.466317
0.381766
0.473305
0.496743
0.455889
0.497444
0.469645
0.484647
0.494858
0.480741
0.490315
0.380289
0.380375
0.495931
0.494988
0.49669
0.496527
0.489561
0.497021
0.497148
0.476764
0.482103
0.416811
0.496842
0.497344
0.484569
0.447105
0.468389
0.3988
0.466573
0.493953
0.379388
0.379461
0.497826
0.498198
0.364548
0.498214
0.495751
0.492386
0.451484
0.437666
0.495338
0.496048
0.49185
0.496704
0.497063
0.489852
0.472953
0.495156
0.497459
0.493294
0.497319
0.378666
0.447957
0.484659
0.458944
0.496957
0.496811
0.479838
0.446089
0.465856
0.440662
0.496381
0.487964
0.497131
0.370355
0.377685
0.452396
0.498275
0.494179
0.378619
0.457309
0.494999
0.496565
0.496762
0.375752
0.375753
0.492741
0.397562
0.496938
0.372234
0.419096
0.495823
0.475042
0.466814
0.374221
0.496638
0.420449
0.371548
0.496096
0.413565
0.493044
0.439654
0.488489
0.497043
0.498046
0.453666
0.454436
0.416118
0.494753
0.497079
0.491927
0.497327
0.493899
0.378629
0.494954
0.464131
0.486849
0.495619
0.373652
0.462238
0.496044
0.449423
0.497169
0.497447
0.480381
0.405894
0.411088
0.469592
0.493474
0.405903
0.493417
0.496883
0.448217
0.495179
0.496745
0.496507
0.494378
0.496757
0.480869
0.49703
0.36911
0.496801
0.366517
0.496694
0.493978
0.492898
0.497668
0.49355
0.468885
0.377181
0.377189
0.460949
0.475424
0.497256
0.369499
0.369151
0.393911
0.392962
0.495603
0.496779
0.495791
0.47954
0.492316
0.496707
0.420556
0.378436
0.495911
0.49672
0.470937
0.497067
0.365455
0.364017
0.498065
0.497442
0.497411
0.378469
0.494154
0.49689
0.494971
0.470896
0.472021
0.498981
0.493803
0.496592
0.375475
0.381956
0.381763
0.432457
0.378454
0.494559
0.495281
0.493094
0.493062
0.495057
0.478221
0.496618
0.418396
0.370237
0.49504
0.495266
0.497283
0.438582
0.494617
0.496462
0.456933
0.388612
0.388383
0.471168
0.493667
0.496932
0.494765
0.471665
0.402354
0.495229
0.420367
0.497684
0.490699
0.494223
0.442209
0.492607
0.486723
0.454353
0.494004
0.497239
0.452194
0.477539
0.45428
0.492389
0.494694
0.489619
0.493117
0.496706
0.496676
0.494428
0.494921
0.494776
0.40522
0.493479
0.496541
0.493222
0.398897
0.496988
0.497307
0.489253
0.496472
0.494595
0.49645
0.387615
0.497304
0.494814
0.493727
0.493984
0.496197
0.412252
0.497582
0.484811
0.47329
0.495714
0.495483
0.495257
0.493274
0.496617
0.494407
0.497118
0.494924
0.466262
0.495035
0.456063
0.417525
0.422071
0.444375
0.496696
0.492791
0.49595
0.437978
0.494169
0.494232
0.493754
0.491776
0.49516
0.494477
0.414854
0.49331
0.489676
0.494927
0.492035
0.42066
0.497071
0.397624
0.497019
0.495286
0.497523
0.479019
0.492836
0.366539
0.366894
0.491761
0.489641
0.492934
0.494256
0.417624
0.41234
0.49737
0.494075
0.496956
0.491662
0.492632
0.496284
0.495973
0.495948
0.495274
0.494221
0.493035
0.493838
0.392147
0.497232
0.386063
0.364927
0.433481
0.440127
0.414759
0.43799
0.392129
0.494555
0.38607
0.493806
0.485196
0.488633
0.49255
0.493504
0.494075
0.463981
0.482354
0.497079
0.495797
0.493021
0.482372
0.492332
0.475851
0.440112
0.496593
0.493568
0.490045
0.496778
0.394599
0.494017
0.496581
0.488921
0.496689
0.493078
0.388025
0.475338
0.497019
0.471808
0.492282
0.494392
0.493037
0.494636
0.492712
0.496639
0.491459
0.364273
0.495465
0.450322
0.443875
0.464975
0.482947
0.49187
0.496926
0.492794
0.49382
0.493294
0.497588
0.492535
0.469992
0.49122
0.492261
0.365153
0.472099
0.492713
0.496437
0.400802
0.492089
0.490082
0.48933
0.445743
0.493039
0.480478
0.441708
0.468428
0.492113
0.494498
0.491148
0.496123
0.494482
0.445646
0.49708
0.474616
0.493282
0.459786
0.497871
0.422586
0.496646
0.49257
0.497037
0.497531
0.491902
0.436877
0.496416
0.431143
0.493555
0.44391
0.468722
0.45008
0.491507
0.409028
0.4968
0.443411
0.488504
0.494579
0.435951
0.492438
0.492052
0.497325
0.496337
0.416835
0.433903
0.405797
0.443575
0.492117
0.495226
0.495184
0.433394
0.492629
0.493333
0.405567
0.43307
0.370159
0.366434
0.491535
0.448792
0.456453
0.369593
0.369194
0.393923
0.491323
0.43505
0.494059
0.491722
0.490913
0.496533
0.4915
0.490019
0.45085
0.486734
0.363904
0.490305
0.424257
0.490538
0.493796
0.43649
0.495642
0.470814
0.466705
0.472885
0.439342
0.431391
0.456226
0.378487
0.452935
0.4912
0.476468
0.406989
0.471142
0.495995
0.450924
0.435573
0.370129
0.419019
0.493463
0.409987
0.485453
0.493648
0.459323
0.492747
0.496351
0.426282
0.402224
0.429988
0.420786
0.489996
0.491154
0.473477
0.493515
0.495495
0.454358
0.428125
0.387912
0.435861
0.416341
0.488626
0.435044
0.418308
0.491081
0.498058
0.492557
0.410068
0.417819
0.407946
0.498548
0.439307
0.4094
0.494737
0.408019
0.491475
0.424169
0.41108
0.478187
0.490585
0.366944
0.366321
0.458785
0.460444
0.491085
0.487533
0.431944
0.409968
0.404853
0.404718
0.460534
0.497044
0.364828
0.494793
0.493061
0.491124
0.495106
0.494615
0.462132
0.431216
0.405212
0.492278
0.407958
0.488958
0.493993
0.417432