# vtk DataFile Version 1.0
unstructured grid
ascii
DATASET UNSTRUCTURED_GRID
points 8094 float
-0.25 0.0574735 0
0.5 0.0546937 0
0.5 -0.0546937 0
-0.25 -0.0574735 0
-0.25 0.0574735 0.01
0.5 0.0546937 0.01
0.5 -0.0546937 0.01
-0.25 -0.0574735 0.01
-0.246045 0.0569295 0
-0.242089 0.0563854 0
-0.238136 0.0558289 0
-0.234184 0.0552582 0
-0.230232 0.0546875 0
-0.226284 0.0540912 0
-0.222337 0.0534933 0
-0.218391 0.0528841 0
-0.214448 0.0522585 0
-0.210504 0.0516328 0
-0.206565 0.0509829 0
-0.202626 0.0503294 0
-0.198689 0.0496667 0
-0.194755 0.0489856 0
-0.190821 0.0483046 0
-0.18689 0.0476022 0
-0.182961 0.0468942 0
-0.179033 0.0461799 0
-0.175108 0.0454463 0
-0.171183 0.0447127 0
-0.167262 0.0439627 0
-0.163342 0.0432056 0
-0.159422 0.0424455 0
-0.155506 0.041668 0
-0.15159 0.0408904 0
-0.147675 0.0401031 0
-0.143762 0.0393092 0
-0.13985 0.0385149 0
-0.135939 0.0377103 0
-0.132028 0.0369056 0
-0.128117 0.0361005 0
-0.124207 0.0352949 0
-0.120296 0.0344893 0
-0.116386 0.0336836 0
-0.112475 0.032878 0
-0.108563 0.0320794 0
-0.104649 0.0312931 0
-0.100735 0.0305068 0
-0.0968152 0.029745 0
-0.0928949 0.0289889 0
-0.0889722 0.0282446 0
-0.0850433 0.0275341 0
-0.0811144 0.0268235 0
-0.0771778 0.0261578 0
-0.0732381 0.0255098 0
-0.0692962 0.0248759 0
-0.0653442 0.0243073 0
-0.0613923 0.0237386 0
-0.0574324 0.0232306 0
-0.0534681 0.0227556 0
-0.0495024 0.0222934 0
-0.0455272 0.0219207 0
-0.041552 0.0215481 0
-0.0375717 0.0212385 0
-0.0335881 0.0209694 0
-0.029604 0.0207098 0
-0.0256151 0.0205369 0
-0.0216262 0.0203639 0
-0.0176357 0.0202396 0
-0.0136441 0.0201487 0
-0.00965243 0.0200635 0
-0.00565987 0.0200372 0
-0.00166732 0.020011 0
0.00232526 0.0200121 0
0.00631785 0.0200329 0
0.0103104 0.0200563 0
0.0143027 0.0201109 0
0.018295 0.0201654 0
0.022287 0.0202345 0
0.0262788 0.0203144 0
0.0302706 0.0203957 0
0.034262 0.0204956 0
0.0382534 0.0205955 0
0.0422446 0.0207045 0
0.0462355 0.0208207 0
0.0502265 0.0209377 0
0.054217 0.0210676 0
0.0582075 0.0211975 0
0.0621978 0.0213339 0
0.0661879 0.0214757 0
0.0701781 0.021618 0
0.0741678 0.0217703 0
0.0781575 0.0219227 0
0.0821471 0.0220801 0
0.0861364 0.022242 0
0.0901258 0.0224041 0
0.0941148 0.0225747 0
0.0981038 0.0227453 0
0.102093 0.0229202 0
0.106081 0.023099 0
0.11007 0.0232779 0
0.114058 0.0234644 0
0.118046 0.0236509 0
0.122035 0.0238411 0
0.126022 0.024035 0
0.13001 0.0242288 0
0.133998 0.0244298 0
0.137986 0.0246308 0
0.141973 0.0248352 0
0.14596 0.025043 0
0.149947 0.0252509 0
0.153934 0.0254654 0
0.157921 0.02568 0
0.161908 0.0258978 0
0.165894 0.026119 0
0.169881 0.0263402 0
0.173867 0.0265678 0
0.177853 0.0267956 0
0.181839 0.0270264 0
0.185825 0.0272607 0
0.189811 0.0274951 0
0.193796 0.0277356 0
0.197781 0.0279764 0
0.201767 0.02822 0
0.205752 0.0284673 0
0.209737 0.0287146 0
0.213721 0.0289679 0
0.217706 0.0292217 0
0.22169 0.0294782 0
0.225674 0.0297385 0
0.229658 0.0299988 0
0.233642 0.0302651 0
0.237626 0.0305319 0
0.241609 0.0308014 0
0.245593 0.0310748 0
0.249576 0.0313482 0
0.253559 0.0316276 0
0.257542 0.0319077 0
0.261524 0.0321904 0
0.265507 0.0324772 0
0.269489 0.032764 0
0.273471 0.0330568 0
0.277453 0.0333504 0
0.281434 0.0336466 0
0.285416 0.0339471 0
0.289397 0.0342476 0
0.293378 0.034554 0
0.297359 0.0348615 0
0.301339 0.0351714 0
0.305319 0.0354859 0
0.3093 0.0358005 0
0.313279 0.036121 0
0.317259 0.0364427 0
0.321239 0.0367667 0
0.325218 0.0370957 0
0.329197 0.0374248 0
0.333175 0.0377597 0
0.337154 0.0380961 0
0.341132 0.0384347 0
0.34511 0.0387786 0
0.349088 0.0391226 0
0.353065 0.0394724 0
0.357042 0.0398239 0
0.361019 0.0401775 0
0.364995 0.0405368 0
0.368972 0.0408961 0
0.372948 0.0412613 0
0.376924 0.0416285 0
0.380899 0.0419975 0
0.384874 0.0423727 0
0.388849 0.0427479 0
0.392823 0.0431289 0
0.396798 0.0435123 0
0.400772 0.0438973 0
0.404745 0.044289 0
0.408718 0.0446807 0
0.412691 0.0450781 0
0.416664 0.0454782 0
0.420636 0.0458797 0
0.424608 0.0462883 0
0.42858 0.046697 0
0.432551 0.0471114 0
0.436521 0.0475289 0
0.440492 0.0479474 0
0.444462 0.0483738 0
0.448432 0.0488001 0
0.452401 0.0492319 0
0.45637 0.0496673 0
0.460338 0.0501035 0
0.464306 0.0505482 0
0.468274 0.0509928 0
0.472241 0.0514427 0
0.476208 0.0518968 0
0.480175 0.0523512 0
0.48414 0.0528148 0
0.488106 0.0532784 0
0.492071 0.0537471 0
0.496036 0.0542204 0
0.5 0.050787 0
0.5 0.0468803 0
0.5 0.0429736 0
0.5 0.0390669 0
0.5 0.0351602 0
0.5 0.0312535 0
0.5 0.0273468 0
0.5 0.0234402 0
0.5 0.0195335 0
0.5 0.0156268 0
0.5 0.0117201 0
0.5 0.00781339 0
0.5 0.00390669 0
0.5 1.43781e-13 0
0.5 -0.00390669 0
0.5 -0.00781339 0
0.5 -0.0117201 0
0.5 -0.0156268 0
0.5 -0.0195335 0
0.5 -0.0234402 0
0.5 -0.0273468 0
0.5 -0.0312535 0
0.5 -0.0351602 0
0.5 -0.0390669 0
0.5 -0.0429736 0
0.5 -0.0468803 0
0.5 -0.050787 0
0.496036 -0.0542204 0
0.492071 -0.0537471 0
0.488106 -0.0532784 0
0.48414 -0.0528148 0
0.480175 -0.0523512 0
0.476208 -0.0518968 0
0.472241 -0.0514427 0
0.468274 -0.0509928 0
0.464306 -0.0505482 0
0.460338 -0.0501035 0
0.45637 -0.0496673 0
0.452401 -0.0492319 0
0.448432 -0.0488001 0
0.444462 -0.0483738 0
0.440492 -0.0479474 0
0.436521 -0.0475289 0
0.432551 -0.0471114 0
0.42858 -0.046697 0
0.424608 -0.0462883 0
0.420636 -0.0458797 0
0.416664 -0.0454782 0
0.412691 -0.0450781 0
0.408718 -0.0446807 0
0.404745 -0.044289 0
0.400772 -0.0438973 0
0.396798 -0.0435123 0
0.392823 -0.0431289 0
0.388849 -0.0427479 0
0.384874 -0.0423727 0
0.380899 -0.0419975 0
0.376924 -0.0416285 0
0.372948 -0.0412613 0
0.368972 -0.0408961 0
0.364995 -0.0405368 0
0.361019 -0.0401775 0
0.357042 -0.0398239 0
0.353065 -0.0394724 0
0.349088 -0.0391226 0
0.34511 -0.0387786 0
0.341132 -0.0384347 0
0.337154 -0.0380961 0
0.333175 -0.0377597 0
0.329197 -0.0374248 0
0.325218 -0.0370957 0
0.321239 -0.0367667 0
0.317259 -0.0364427 0
0.313279 -0.036121 0
0.3093 -0.0358005 0
0.305319 -0.0354859 0
0.301339 -0.0351714 0
0.297359 -0.0348615 0
0.293378 -0.034554 0
0.289397 -0.0342476 0
0.285416 -0.0339471 0
0.281434 -0.0336466 0
0.277453 -0.0333504 0
0.273471 -0.0330568 0
0.269489 -0.032764 0
0.265507 -0.0324772 0
0.261524 -0.0321904 0
0.257542 -0.0319077 0
0.253559 -0.0316276 0
0.249576 -0.0313482 0
0.245593 -0.0310748 0
0.241609 -0.0308014 0
0.237626 -0.0305319 0
0.233642 -0.0302651 0
0.229658 -0.0299988 0
0.225674 -0.0297385 0
0.22169 -0.0294782 0
0.217706 -0.0292217 0
0.213721 -0.0289679 0
0.209737 -0.0287146 0
0.205752 -0.0284673 0
0.201767 -0.02822 0
0.197781 -0.0279764 0
0.193796 -0.0277356 0
0.189811 -0.0274951 0
0.185825 -0.0272607 0
0.181839 -0.0270264 0
0.177853 -0.0267956 0
0.173867 -0.0265678 0
0.169881 -0.0263402 0
0.165894 -0.026119 0
0.161908 -0.0258978 0
0.157921 -0.02568 0
0.153934 -0.0254654 0
0.149947 -0.0252509 0
0.14596 -0.025043 0
0.141973 -0.0248352 0
0.137986 -0.0246308 0
0.133998 -0.0244298 0
0.13001 -0.0242288 0
0.126022 -0.024035 0
0.122035 -0.0238411 0
0.118046 -0.0236509 0
0.114058 -0.0234644 0
0.11007 -0.0232779 0
0.106081 -0.023099 0
0.102093 -0.0229202 0
0.0981038 -0.0227453 0
0.0941148 -0.0225747 0
0.0901258 -0.0224041 0
0.0861364 -0.022242 0
0.0821471 -0.0220801 0
0.0781575 -0.0219227 0
0.0741678 -0.0217703 0
0.0701781 -0.021618 0
0.0661879 -0.0214757 0
0.0621978 -0.0213339 0
0.0582075 -0.0211975 0
0.054217 -0.0210676 0
0.0502265 -0.0209377 0
0.0462355 -0.0208207 0
0.0422446 -0.0207045 0
0.0382534 -0.0205955 0
0.034262 -0.0204956 0
0.0302706 -0.0203957 0
0.0262788 -0.0203144 0
0.022287 -0.0202345 0
0.018295 -0.0201654 0
0.0143027 -0.0201109 0
0.0103104 -0.0200563 0
0.00631785 -0.0200329 0
0.00232526 -0.0200121 0
-0.00166732 -0.020011 0
-0.00565987 -0.0200372 0
-0.00965243 -0.0200635 0
-0.0136441 -0.0201487 0
-0.0176357 -0.0202396 0
-0.0216262 -0.0203639 0
-0.0256151 -0.0205369 0
-0.029604 -0.0207098 0
-0.0335881 -0.0209694 0
-0.0375717 -0.0212385 0
-0.041552 -0.0215481 0
-0.0455272 -0.0219207 0
-0.0495024 -0.0222934 0
-0.0534681 -0.0227556 0
-0.0574324 -0.0232306 0
-0.0613923 -0.0237386 0
-0.0653442 -0.0243073 0
-0.0692962 -0.0248759 0
-0.0732381 -0.0255098 0
-0.0771778 -0.0261578 0
-0.0811144 -0.0268235 0
-0.0850433 -0.0275341 0
-0.0889722 -0.0282446 0
-0.0928949 -0.0289889 0
-0.0968152 -0.029745 0
-0.100735 -0.0305068 0
-0.104649 -0.0312931 0
-0.108563 -0.0320794 0
-0.112475 -0.032878 0
-0.116386 -0.0336836 0
-0.120296 -0.0344893 0
-0.124207 -0.0352949 0
-0.128117 -0.0361005 0
-0.132028 -0.0369056 0
-0.135939 -0.0377103 0
-0.13985 -0.0385149 0
-0.143762 -0.0393092 0
-0.147675 -0.0401031 0
-0.15159 -0.0408904 0
-0.155506 -0.041668 0
-0.159422 -0.0424455 0
-0.163342 -0.0432056 0
-0.167262 -0.0439627 0
-0.171183 -0.0447127 0
-0.175108 -0.0454463 0
-0.179033 -0.0461799 0
-0.182961 -0.0468942 0
-0.18689 -0.0476022 0
-0.190821 -0.0483046 0
-0.194755 -0.0489856 0
-0.198689 -0.0496667 0
-0.202626 -0.0503294 0
-0.206565 -0.0509829 0
-0.210504 -0.0516328 0
-0.214448 -0.0522585 0
-0.218391 -0.0528841 0
-0.222337 -0.0534933 0
-0.226284 -0.0540912 0
-0.230232 -0.0546875 0
-0.234184 -0.0552582 0
-0.238136 -0.0558289 0
-0.242089 -0.0563854 0
-0.246045 -0.0569295 0
-0.25 -0.0535098 0
-0.25 -0.0495461 0
-0.25 -0.0455824 0
-0.25 -0.0416187 0
-0.25 -0.0376551 0
-0.25 -0.0336914 0
-0.25 -0.0297277 0
-0.25 -0.025764 0
-0.25 -0.0218003 0
-0.25 -0.0178366 0
-0.25 -0.0138729 0
-0.25 -0.00990922 0
-0.25 -0.00594553 0
-0.25 -0.00198184 0
-0.25 0.00198184 0
-0.25 0.00594553 0
-0.25 0.00990922 0
-0.25 0.0138729 0
-0.25 0.0178366 0
-0.25 0.0218003 0
-0.25 0.025764 0
-0.25 0.0297277 0
-0.25 0.0336914 0
-0.25 0.0376551 0
-0.25 0.0416187 0
-0.25 0.0455824 0
-0.25 0.0495461 0
-0.25 0.0535098 0
-0.246045 0.0569295 0.01
-0.242089 0.0563854 0.01
-0.238136 0.0558289 0.01
-0.234184 0.0552582 0.01
-0.230232 0.0546875 0.01
-0.226284 0.0540912 0.01
-0.222337 0.0534933 0.01
-0.218391 0.0528841 0.01
-0.214448 0.0522585 0.01
-0.210504 0.0516328 0.01
-0.206565 0.0509829 0.01
-0.202626 0.0503294 0.01
-0.198689 0.0496667 0.01
-0.194755 0.0489856 0.01
-0.190821 0.0483046 0.01
-0.18689 0.0476022 0.01
-0.182961 0.0468942 0.01
-0.179033 0.0461799 0.01
-0.175108 0.0454463 0.01
-0.171183 0.0447127 0.01
-0.167262 0.0439627 0.01
[...]
CELL_DATA 7657
SCALARS rho float
LOOKUP_TABLE default
0.471346
0.424983
0.505512
0.499649
0.494568
0.502302
0.465106
0.501123
0.442012
0.500958
0.501015
0.501335
0.450259
0.501223
0.493272
0.484951
0.493083
0.505385
0.505357
0.499973
0.491967
0.505281
0.431122
0.505374
0.504196
0.502285
0.498137
0.447758
0.49799
0.502534
0.474234
0.504186
0.43349
0.469202
0.469716
0.474202
0.502459
0.431487
0.474637
0.487892
0.505489
0.443238
0.500854
0.501833
0.505509
0.505492
0.466427
0.502286
0.504193
0.470908
0.501679
0.499704
0.498067
0.498729
0.466062
0.502789
0.492411
0.489367
0.447411
0.475099
0.50414
0.505487
0.503921
0.503866
0.501567
0.501575
0.451211
0.503189
0.500053
0.443991
0.5056
0.449571
0.500462
0.49813
0.467904
0.502128
0.505297
0.502055
0.467315
0.450491
0.433203
0.500928
0.500021
0.505543
0.505569
0.451742
0.505564
0.443115
0.502212
0.497927
0.50155
0.501583
0.448871
0.499483
0.48693
0.454166
0.453006
0.429156
0.505462
0.486678
0.505392
0.504726
0.426633
0.4912
0.46551
0.438877
0.482056
0.503352
0.449807
0.491051
0.475135
0.503329
0.501289
0.500007
0.505553
0.434517
0.503517
0.488591
0.484209
0.502386
0.502235
0.502225
0.4823
0.423294
0.500352
0.501232
0.501446
0.500847
0.50302
0.500932
0.499451
0.50511
0.502839
0.500456
0.500029
0.480566
0.485436
0.43317
0.505057
0.505015
0.481554
0.496533
0.4894
0.488174
0.505451
0.491744
0.435126
0.423503
0.505453
0.481222
0.4932
0.500142
0.414441
0.500945
0.491958
0.424862
0.503201
0.505219
0.500017
0.479629
0.505191
0.489
0.502355
0.433472
0.505253
0.426047
0.474642
0.501287
0.505541
0.484566
0.505506
0.4375
0.505152
0.49282
0.47088
0.473143
0.500241
0.454058
0.500404
0.490097
0.487984
0.448668
0.504876
0.5048
0.451939
0.445862
0.445918
0.500311
0.501822
0.454222
0.497963
0.499802
0.500029
0.458539
0.501874
0.502978
0.499922
0.488495
0.471834
0.505536
0.505407
0.504769
0.455552
0.441027
0.497619
0.498978
0.448615
0.467736
0.466725
0.458005
0.504794
0.505427
0.505247
0.500047
0.505501
0.50034
0.46906
0.450524
0.503276
0.505612
0.42474
0.42185
0.500524
0.503255
0.447989
0.430833
0.447028
0.496414
0.502146
0.500568
0.505147
0.505096
0.44821
0.491719
0.482835
0.499973
0.442628
0.504656
0.50459
0.488084
0.504742
0.492097
0.455486
0.43304
0.465983
0.460937
0.445165
0.460058
0.44424
0.501994
0.473089
0.500098
0.503443
0.467855
0.470014
0.500306
0.424233
0.494417
0.498605
0.503242
0.427535
0.498889
0.483667
0.505567
0.468045
0.505557
0.439202
0.492707
0.505401
0.490832
0.452701
0.497654
0.4966
0.499954
0.465341
0.50553
0.501144
0.503337
0.50327
0.501672
0.42875
0.503185
0.494335
0.483907
0.500174
0.474079
0.483998
0.499375
0.414425
0.505507
0.505508
0.500424
0.494817
0.49894
0.503358
0.498373
0.475104
0.500865
0.434119
0.505513
0.453033
0.498149
0.491489
0.446834
0.497776
0.450307
0.467039
0.500506
0.505438
0.503354
0.501609
0.437636
0.487611
0.44527
0.504252
0.487347
0.498766
0.494456
0.503296
0.503117
0.501094
0.432328
0.498725
0.444329
0.484771
0.495803
0.446202
0.414723
0.489919
0.505535
0.438653
0.496202
0.483422
0.41961
0.501025
0.41724
0.503331
0.495903
0.504304
0.498072
0.501977
0.470988
0.420979
0.483499
0.499883
0.469873
0.497956
0.42229
0.505586
0.490026
0.502439
0.505235
0.500016
0.505201
0.465916
0.50436
0.505071
0.46672
0.50431
0.468687
0.503876
0.505302
0.505559
0.435751
0.492667
0.47201
0.502043
0.487174
0.449003
0.451858
0.502611
0.426739
0.500063
0.500258
0.447491
0.448878
0.505134
0.417298
0.505486
0.482315
0.505353
0.505417
0.497425
0.50386
0.49838
0.499866
0.47066
0.501397
0.502126
0.489313
0.503877
0.503424
0.503387
0.500184
0.502463
0.444535
0.468902
0.437178
0.489068
0.502443
0.500011
0.500026
0.505475
0.499647
0.487106
0.426681
0.485799
0.453498
0.489742
0.493242
0.50511
0.502656
0.503829
0.499589
0.455727
0.500277
0.505404
0.500886
0.499637
0.429025
0.431085
0.500959
0.462004
0.416298
0.423473
0.505601
0.453193
0.500521
0.500757
0.504652
0.432292
0.468444
0.417927
0.499935
0.503051
0.481996
0.497979
0.505032
0.483605
0.505391
0.502401
0.479964
0.476303
0.498215
0.50167
0.505373
0.504728
0.462897
0.493067
0.433369
0.504231
0.504372
0.504012
0.465304
0.447603
0.454197
0.464105
0.485861
0.483878
0.456205
0.469871
0.503087
0.505555
0.45262
0.414768
0.500304
0.440151
0.436758
0.464959
0.466868
0.498204
0.504067
0.424632
0.472138
0.491372
0.504815
0.503016
0.502299
0.483019
0.497982
0.436526
0.498034
0.505188
0.505102
0.505425
0.50323
0.493269
0.477221
0.50017
0.503706
0.48849
0.504055
0.501288
0.457797
0.501509
0.457858
0.499717
0.501937
0.469851
0.471439
0.500802
0.500893
0.430409
0.500596
0.442884
0.446024
0.417439
0.500586
0.435619
0.481902
0.493813
0.503203
0.504862
0.488292
0.505348
0.500531
0.478746
0.505245
0.476213
0.428192
0.485565
0.500108
0.500939
0.49924
0.50175
0.500699
0.499366
0.505562
0.499647
0.503946
0.503682
0.482575
0.500994
0.424627
0.505426
0.504804
0.505397
0.501007
0.472394
0.505504
0.505375
0.504801
0.429832
0.501441
0.502961
0.500219
0.504906
0.500668
0.502639
0.504945
0.482961
0.499589
0.423722
0.502417
0.47686
0.481402
0.486431
0.501778
0.436326
0.469562
0.48255
0.501692
0.500408
0.454281
0.505006
0.479631
0.499831
0.500208
0.472919
0.466065
0.454118
0.501897
0.505195
0.426821
0.449905
0.461134
0.501078
0.499876
0.50157
0.50132
0.446496
0.414925
0.451201
0.503169
0.504958
0.422435
0.503652
0.434184
0.499772
0.455111
0.501915
0.501223
0.463956
0.429778
0.448305
0.503178
0.472249
0.446441
0.505409
0.501318
0.456732
0.490966
0.503268
0.50197
0.50104
0.501123
0.502332
0.459166
0.503401
0.491771
0.502246
0.501416
0.50143
0.479832
0.505464
0.482827
0.499876
0.428783
0.427335
0.501111
0.477043
0.498135
0.498646
0.500425
0.500929
0.503714
0.426771
0.433509
0.435714
0.443338
0.505331
0.503157
0.498279
0.503664
0.500925
0.500625
0.425959
0.504005
0.497353
0.505412
0.49717
0.5048
0.504446
0.455934
0.499119
0.50028
0.504137
0.503582
0.415092
0.501245
0.480102
0.503524
0.505491
0.500488
0.499971
0.501734
0.497144
0.504851
0.503893
0.503971
0.483355
0.503433
0.483826
0.429207
0.503923
0.50514
0.427584
0.501155
0.503378
0.41431
0.500379
0.451321
0.421583
0.483887
0.499952
0.414778
0.415017
0.413485
0.499919
0.503293
0.505429
0.503826
0.414604
0.501485
0.500978
0.503231
0.503749
0.499549
0.441942
0.477993
0.462413
0.501168
0.501666
0.503759
0.504936
0.501684
0.500133
0.446828
0.493763
0.493102
0.46245
0.505014
0.447538
0.437228
0.464242
0.501161
0.503142
0.445259
0.503079
0.500577
0.500501
0.500021
0.501229
0.497806
0.505266
0.457045
0.483445
0.499086
0.456833
0.423642
0.501092
0.414329
0.500606
0.500606
0.496399
0.503702
0.502543
0.497674
0.475136
0.44823
0.504086
0.495317
0.501036
0.417335
0.501745
0.431128
0.435859
0.42246
0.500537
0.503984
0.503789
0.416417
0.495069
0.446933
0.471151
0.500641
0.43531
0.439856
0.485349
0.502486
0.499085
0.45759
0.503723
0.478291
0.49957
0.493068
0.496097
0.489169
0.496837
0.498418
0.419657
0.496414
0.500242
0.504097
0.503919
0.500924
0.503373
0.439084
0.503926
0.501502
0.505218
0.505259
0.481702
0.441233
0.496021
0.501652
0.481154
0.493086
0.495703
0.504928
0.501116
0.503962
0.491229
0.500652
0.464384
0.500002
0.495636
0.500633
0.449878
0.504857
0.428299
0.465502
0.501795
0.503625
0.50549
0.482749
0.500752
0.445223
0.415187
0.420423
0.494345
0.482741
0.456727
0.501724
0.417033
0.448238
0.448262
0.501519
0.494737
0.501054
0.458156
0.448367
0.455758
0.501404
0.463422
0.493865
0.500015
0.501271
0.50068
0.490558
0.500012
0.430139
0.500113
0.500329
0.465359
0.454138
0.501792
0.490571
0.431939
0.458607
0.500485
0.501994
0.489908
0.502377
0.5004
0.471299
0.480539
0.500012
0.492929
0.504022
0.500312
0.502798
0.504158
0.499578
0.497531
0.492538
0.505573
0.44376
0.454102
0.500902
0.493282
0.498052
0.483873
0.440783
0.491146
0.503413
0.432175
0.497114
0.43227
0.489953
0.492913
0.500335
0.489519
0.493304
0.500975
0.503531
0.500441
0.4845
0.49196
0.463338
0.440841
0.497754
0.456506
0.502157
0.492433
0.491828
0.48389
0.494678
0.492893
0.500947
0.494074
0.501684
0.440683
0.501901
0.442783
0.444184
0.441255
0.501083
0.501208
0.494133
0.450275
0.503479
0.50145
0.492825
0.493507
0.492353
0.493445
0.502849
0.49149
0.456727
0.491022
0.491887
0.485239
0.500466
0.485762
0.494054
0.503334
0.494983
0.456749
0.469295
0.501637
0.491237
0.483649
0.438417
0.438442
0.496293
0.501549
0.491423
0.50163
0.433183
0.453081
0.500168
0.501806
0.496733
0.50211
0.441883
0.487274
0.490962
0.438499
0.438526
0.452103
0.484029
0.501831
0.502008
0.495403
0.44666
0.446677
0.50062
0.501295
0.50148
0.457494
0.489255
0.497297
0.499928
0.500848
0.505163
0.488568
0.490594
0.500263
0.501781
0.505503
0.494517
0.453107
0.451657
0.449499
0.502032
0.48295
0.412906
0.501405
0.478302
0.50403
0.488577
0.501849
0.500997
0.503171
0.501781
0.500378
0.492419
0.45866
0.502098
0.503693
0.470444
0.472935
0.503685
0.500099
0.462705
0.49686
0.503471
0.500955
0.50189
0.479488
0.500236
0.490225
0.50198
0.501903
0.503613
0.503558
0.50029
0.502618
0.504685
0.496385
0.488568
0.490285
0.474369
0.500129
0.452605
0.496855
0.497746
0.419222
0.416526
0.500182
0.501653
0.499916
0.423534
0.489175
0.50224
0.503832
0.500196
0.490036
0.50019
0.493478
0.502316
0.503854
0.455504
0.497081
0.501485
0.501648
0.453488
0.455039
0.437619
0.50186
0.488093
0.500075
0.505461
0.505676
0.480375
0.493416
0.505447
0.502297
0.488886
0.470282
0.503184
0.466386
0.482093
0.500568
0.497386
0.503271
0.496639
0.505673
0.505655
0.505392
0.496191
0.505468
0.499926
0.502077
0.505449
0.457118
0.505434
0.470531
0.421607
0.496602
0.496134
0.501815
0.493033
0.497242
0.500703
0.489237
0.492813
0.488051
0.500868
0.467331
0.497287
0.505305
0.496301
0.448854
0.501301
0.502981
0.472065
0.501076
0.501344
0.504613
0.500194
0.504798
0.500177
0.50196
0.492509
0.501149
0.501954
0.503919
0.497336
0.503265
0.470448
0.502003
0.503984
0.476711
0.502615
0.457758
0.497408
0.494479
0.461418
0.463712
0.501951
0.502075
0.500221
0.467563
0.487809
0.468471
0.500094
0.502181
0.426049
0.42833
0.491722
0.487564
0.501702
0.502695
0.477291
0.492366
0.501062
0.482103
0.496777
0.502405
0.501269
0.496059
0.502025
0.502955
0.496723
0.500673
0.503028
0.504786
0.500012
0.492939
0.500806
0.496742
0.467711
0.502222
0.46862
0.50009
0.484567
0.50029
0.496381
0.486973
0.497622
0.505467
0.505472
0.487025
0.490925
0.502702
0.430015
0.501231
0.486477
0.501183
0.482296
0.483571
0.50032
0.502149
0.49062
0.481367
0.502124
0.472293
0.501711
0.487062
0.450377
0.451787
0.501843
0.501667
0.503112
0.481156
0.497044
0.503262
0.49757
0.500323
0.471344
0.501726
0.500625
0.501559
0.486243
0.500298
0.494291
0.501327
0.501605
0.461474
0.500207
0.480468
0.470324
0.439953
0.439944
0.500445
0.494547
0.477307
0.501576
0.496479
0.50026
0.500122
0.504902
0.505317
0.497598
0.455739
0.499997
0.468387
0.500584
0.479259
0.501805
0.469585
0.503737
0.500387
0.503328
0.501248
0.500946
0.50461
0.504589
0.457548
0.497216
0.496996
0.497599
0.501873
0.500272
0.490096
0.500113
0.486425
0.50528
0.461415
0.475568
0.490232
0.502186
0.490526
0.50086
0.500779
0.496591
0.496645
0.48894
0.445533
0.500714
0.473756
0.489238
0.503048
0.489823
0.469345
0.503091
0.458165
0.485663
0.469646
0.503469
0.471405
0.467798
0.50333
0.504624
0.504643
0.497888
0.503477
0.50022
0.500344
0.486451
0.504741
0.501593
0.443599
0.47332
0.501146
0.503621
0.501313
0.500371
0.500692
0.500201
0.50375
0.497027
0.503735
0.504762
0.505383
0.502541
0.502765
0.503246
0.474052
0.501334
0.505454
0.505478
0.486664
0.500816
0.502465
0.498855
0.501003
0.504972
0.501577
0.502682
0.485924
0.500629
0.502519
0.500731
0.487516
0.505413
0.473604
0.474368
0.505396
0.505397
0.500275
0.500467
0.503145
0.500175
0.500736
0.496748
0.504261
0.504295
0.452895
0.500263
0.503326
0.500585
0.502428
0.500126
0.500761
0.50302
0.502611
0.500451
0.462504
0.463734
0.502844
0.500639
0.501562
0.500358
0.501284
0.501136
0.501139
0.504751
0.501602
0.500841
0.500488
0.500055
0.504655
0.498951
0.50463
0.504832
0.500345
0.455359
0.501301
0.50301
0.500555
0.504695
0.504686
0.502431
0.489689
0.501052
0.476079
0.496051
0.500155
0.490735
0.505486
0.49736
0.489008
0.505294
0.474727
0.453127
0.451341
0.505587
0.502543
0.500903
0.504412
0.504917
0.505557
0.500235
0.504393
0.505638
0.505461
0.505319
0.500502
0.504827
0.501041
0.494868
0.505426
0.491355
0.489434
0.502709
0.501418
0.505139
0.50152
0.500524
0.501367
0.496888
0.505487
0.500665
0.500683
0.500932
0.500451
0.500646
0.501242
0.461105
0.504413
0.504427
0.500837
0.501549
0.500689
0.48975
0.467365
0.501452
0.503761
0.500379
0.503495
0.5002
0.489778
0.502231
0.484618
0.483023
0.500923
0.458546
0.501044
0.500817
0.505558
0.483152
0.482241
0.50079
0.500846
0.504031
0.501701
0.497477
0.4976
0.500642
0.500785
0.500276
0.502452
0.417518
0.503171
0.475339
0.501512
0.501581
0.471239
0.491215
0.496529
0.502264
0.500502
0.500546
0.500666
0.50059
0.498816
0.502615
0.50245
0.502282
0.500819
0.502777
0.500749
0.501428
0.504693
0.490506
0.45453
0.496993
0.501203
0.501476
0.500522
0.501694
0.505242
0.501889
0.502472
0.504912
0.50119
0.501886
0.502518
0.498259
0.502043
0.420396
0.487175
0.414976
0.416507
0.49719
0.501851
0.50029
0.489453
0.488649
0.5009
0.485367
0.501856
0.496859
0.502133
0.501778
0.471649
0.497252
0.484808
0.486627
0.503977
0.503924
0.502629
0.470538
0.498264
0.501376
0.499468
0.437276
0.501138
0.501935
0.496273
0.503033
0.485874
0.505052
0.49556
0.499367
0.493958
0.500011
0.499984
0.499334
0.494325
0.503253
0.498954
0.501604
0.497163
0.492462
0.501301
0.500264
0.466835
0.497927
0.472791
0.498737
0.50205
0.502248
0.470744
0.498272
0.498084
0.501977
0.463013
0.493485
0.49946
0.483951
0.498683
0.500724
0.455926
0.502415
0.500317
0.49956
0.49953
0.489372
0.501306
0.489324
0.501161
0.498644
0.503802
0.503803
0.50272
0.497417
0.501031
0.497637
0.498097
0.50092
0.494802
0.500152
0.500201
0.486332
0.477585
0.479478
0.502656
0.50218
0.488966
0.463257
0.502077
0.502326
0.502019
0.502952
0.502036
0.499201
0.504729
0.498465
0.491824
0.45709
0.502699
0.50049
0.500535
0.488523
0.504059
0.492444
0.501758
0.502035
0.502492
0.504583
0.504562
0.50175
0.501862
0.500838
0.496712
0.501169
0.502072
0.50279
0.501926
0.501219
0.501218
0.50079
0.501333
0.502535
0.500655
0.501969
0.495035
0.500779
0.502287
0.49645
0.501564
0.501493
0.501732
0.503526
0.501212
0.502842
0.504146
0.504205
0.503096
0.504757
0.504749
0.476336
0.503266
0.497706
0.502521
0.502859
0.501934
0.473687
0.502936
0.505337
0.505333
0.505465
0.505472
0.504425
0.501612
0.50551
0.504775
0.504822
0.496541
0.503
0.505261
0.481678
0.502369
0.504965
0.504937
0.504387
0.502529
0.504346
0.505586
0.50555
0.50188
0.50294
0.504944
0.5002
0.504341
0.489353
0.501633
0.440467
0.497863
0.502199
0.414795
0.502898
0.498401
0.49837
0.49861
0.500405
0.494735
0.490928
0.505381
0.498576
0.428255
0.485321
0.492149
0.498743
0.502207
0.501088
0.500886
0.432764
0.50033
0.500277
0.497024
0.485465
0.486423
0.502791
0.500571
0.505518
0.484403
0.503258
0.502579
0.488336
0.489097
0.500348
0.495694
0.49626
0.500531
0.487665
0.472366
0.470389
0.492445
0.505598
0.502532
0.458427
0.493902
0.497661
0.498359
0.500769
0.496426
0.498198
0.483534
0.501979
0.487886
0.503932
0.496015
0.453036
0.476833
0.496761
0.502603
0.498055
0.478306
0.50234
0.487212
0.50496
0.502958
0.498012
0.487923
0.48864
0.500964
0.505176
0.487896
0.495844
0.483994
0.502269
0.492922
0.50308
0.491662
0.500651
0.498356
0.495357
0.494745
0.502149
0.50498
0.501792
0.495949
0.502629
0.497921
0.502096
0.476069
0.491725
0.501388
0.484358
0.504474
0.504477
0.494113
0.492022
0.496229
0.495265
0.483083
0.496985
0.497528
0.466413
0.501248
0.504154
0.496456
0.497585
0.501126
0.502924
0.502066
0.505094
0.502152
0.490111
0.503814
0.503855
0.497932
0.498234
0.460497
0.498587
0.493785
0.500382
0.50287
0.503411
0.492725
0.494369
0.500397
0.495623
0.497252
0.483558
0.461846
0.492623
0.497855
0.488941
0.496766
0.502891
0.50288
0.475932
0.502523
0.496734
0.496582
0.46952
0.50295
0.502294
0.503155
0.495065
0.480485
0.497463
0.49768
0.501927
0.502796
0.498074
0.490702
0.502814
0.502631
0.492146
0.495628
0.49619
0.500847
0.500891
0.500306
0.505168
0.496285
0.499305
0.503983
0.493934
0.464397
0.502213
0.500218
0.495904
0.503967
0.498803
0.49444
0.504245
0.488608
0.503181
0.500771
0.497217
0.498483
0.502715
0.502717
0.50412
0.491818
0.497493
0.50043
0.49697
0.489971
0.502767
0.492218
0.502398
0.500867
0.493458
0.499996
0.50245
0.494421
0.502958
0.49727
0.497735
0.470623
0.504711
0.504374
0.502097
0.50025
0.504682
0.50025
0.496699
0.50287
0.492669
0.496352
0.494881
0.491103
0.495967
0.501345
0.497055
0.450214
0.495502
0.453858
0.496188
0.490365
0.488474
0.497425
0.4896
0.502067
0.501624
0.501581
0.502436
0.501707
0.497509
0.495303
0.494448
0.505408
0.505454
0.493457
0.49646
0.493793
0.501436
0.487494
0.496179
0.503921
0.502624
0.494107
0.495273
0.501976
0.497544
0.480243
0.468418
0.498591
0.496319
0.496294
0.502627
0.490534
0.496256
0.492257
0.45954
0.46079
0.49925
0.490051
0.495923
0.500735
0.505019
0.504995
0.503455
0.502573
0.491444
0.492543
0.488807
0.488519
0.492228
0.467957
0.496015
0.504107
0.496168
0.492144
0.492832
0.497546
0.503233
0.491284
0.495342
0.5026
0.505592
0.505557
0.459976
0.489803
0.496912
0.491848
0.501956
0.50487
0.492378
0.41594
0.49712
0.484934
0.49051
0.503092
0.487985
0.500939
0.502638
0.490256
0.497325
0.50288
0.501564
0.502779
0.48708
0.491512
0.483077
0.488615
0.494947
0.494917
0.491024
0.492127
0.491738
0.50473
0.489458
0.495623
0.489021
0.505089
0.496975
0.496375
0.482789
0.494911
0.49152
0.495033
0.435585
0.497357
0.491941
0.489705
0.490193
0.49457
0.504314
0.496798
0.501122
0.501818
0.493668
0.493228
0.492794
0.488839
0.495903
0.490982
0.497033
0.491827
0.502166
0.492366
0.502654
0.504056
0.503898
0.503016
0.495747
0.487943
0.494114
0.503419
0.490716
0.490654
0.489962
0.48662
0.492261
0.490971
0.504179
0.489181
0.483396
0.491936
0.487036
0.503914
0.497507
0.505162
0.497216
0.492778
0.497054
0.468912
0.488372
0.485549
0.487139
0.500418
0.483352
0.48824
0.490686
0.504048
0.504306
0.497827
0.490149
0.496082
0.486252
0.487736
0.494813
0.493557
0.493545
0.492785
0.490768
0.48838
0.489914
0.505588
0.496563
0.505577
0.474304
0.503558
0.503352
0.504187
0.503245
0.505605
0.491203
0.505593
0.4897
0.476634
0.480991
0.487755
0.489265
0.490181
0.502416
0.473099
0.497567
0.493568
0.488663
0.473023
0.487532
0.465346
0.50317
0.495945
0.489637
0.500577
0.496406
0.428421
0.500201
0.49541
0.482299
0.495876
0.488639
0.434384
0.501681
0.497186
0.460541
0.487296
0.491136
0.488211
0.491436
0.488152
0.496058
0.48607
0.468315
0.493124
0.502883
0.503179
0.502303
0.473861
0.486775
0.496763
0.488165
0.489912
0.488781
0.497171
0.487469
0.458674
0.485753
0.487204
0.477049
0.461035
0.487623
0.494897
0.505001
0.487132
0.483665
0.482584
0.503111
0.488364
0.50143
0.430357
0.5022
0.487175
0.491252
0.485286
0.494133
0.491078
0.433899
0.497127
0.50186
0.488813
0.502437
0.497779
0.503974
0.495671
0.48771
0.496152
0.497839
0.486826
0.426196
0.494643
0.503496
0.489461
0.503027
0.502061
0.5028
0.486113
0.504491
0.495772
0.431865
0.481708
0.49132
0.503322
0.487343
0.4868
0.49743
0.494604
0.414997
0.503395
0.504719
0.503187
0.486815
0.492156
0.492108
0.503426
0.488027
0.489065
0.504672
0.423335
0.449501
0.454903
0.486245
0.436828
0.502572
0.49566
0.493541
0.505415
0.485716
0.424791
0.490319
0.486268
0.484841
0.495402
0.485844
0.483674
0.438796
0.500875
0.46942
0.483965
0.503921
0.484256
0.489874
0.503306
0.493243
0.459419
0.502125
0.461746
0.428303
0.503502
0.444095
0.502597
0.440829
0.485711
0.501693
0.504611
0.501954
0.493929
0.438881
0.503511
0.495818
0.503987
0.489143
0.504437
0.501001
0.489359
0.502544
0.488208
0.495259
0.503685
0.504868
0.503542
0.415828
0.483473
0.485478
0.501843
0.489402
0.493326
0.442242
0.503615
0.435277
0.5035
0.504178
0.481844
0.42474
0.50406
0.485505
0.49811
0.487638
0.504429
0.504113
0.504555
0.498706
0.428231
0.504472
0.491764
0.504548
0.486143
0.503767
0.504379
0.46794
0.484765
0.48619
0.484706
0.446729
0.448427
0.485281
0.480189
0.50347
0.504437
0.415278
0.415697
0.448511
0.495964
0.47326
0.491532
0.488723
0.485551
0.492102
0.49156
0.450163
0.503499
0.504727
0.487025
0.50456
0.48234
0.4904
0.504098
0.482483
0.504074
0.503573
0.480557