# vtk DataFile Version 1.0
unstructured grid
ascii
DATASET UNSTRUCTURED_GRID
points 8094 float
-0.25 0.0574735 0
0.5 0.0546937 0
0.5 -0.0546937 0
-0.25 -0.0574735 0
-0.25 0.0574735 0.01
0.5 0.0546937 0.01
0.5 -0.0546937 0.01
-0.25 -0.0574735 0.01
-0.246045 0.0569295 0
-0.242089 0.0563854 0
-0.238136 0.0558289 0
-0.234184 0.0552582 0
-0.230232 0.0546875 0
-0.226284 0.0540912 0
-0.222337 0.0534933 0
-0.218391 0.0528841 0
-0.214448 0.0522585 0
-0.210504 0.0516328 0
-0.206565 0.0509829 0
-0.202626 0.0503294 0
-0.198689 0.0496667 0
-0.194755 0.0489856 0
-0.190821 0.0483046 0
-0.18689 0.0476022 0
-0.182961 0.0468942 0
-0.179033 0.0461799 0
-0.175108 0.0454463 0
-0.171183 0.0447127 0
-0.167262 0.0439627 0
-0.163342 0.0432056 0
-0.159422 0.0424455 0
-0.155506 0.041668 0
-0.15159 0.0408904 0
-0.147675 0.0401031 0
-0.143762 0.0393092 0
-0.13985 0.0385149 0
-0.135939 0.0377103 0
-0.132028 0.0369056 0
-0.128117 0.0361005 0
-0.124207 0.0352949 0
-0.120296 0.0344893 0
-0.116386 0.0336836 0
-0.112475 0.032878 0
-0.108563 0.0320794 0
-0.104649 0.0312931 0
-0.100735 0.0305068 0
-0.0968152 0.029745 0
-0.0928949 0.0289889 0
-0.0889722 0.0282446 0
-0.0850433 0.0275341 0
-0.0811144 0.0268235 0
-0.0771778 0.0261578 0
-0.0732381 0.0255098 0
-0.0692962 0.0248759 0
-0.0653442 0.0243073 0
-0.0613923 0.0237386 0
-0.0574324 0.0232306 0
-0.0534681 0.0227556 0
-0.0495024 0.0222934 0
-0.0455272 0.0219207 0
-0.041552 0.0215481 0
-0.0375717 0.0212385 0
-0.0335881 0.0209694 0
-0.029604 0.0207098 0
-0.0256151 0.0205369 0
-0.0216262 0.0203639 0
-0.0176357 0.0202396 0
-0.0136441 0.0201487 0
-0.00965243 0.0200635 0
-0.00565987 0.0200372 0
-0.00166732 0.020011 0
0.00232526 0.0200121 0
0.00631785 0.0200329 0
0.0103104 0.0200563 0
0.0143027 0.0201109 0
0.018295 0.0201654 0
0.022287 0.0202345 0
0.0262788 0.0203144 0
0.0302706 0.0203957 0
0.034262 0.0204956 0
0.0382534 0.0205955 0
0.0422446 0.0207045 0
0.0462355 0.0208207 0
0.0502265 0.0209377 0
0.054217 0.0210676 0
0.0582075 0.0211975 0
0.0621978 0.0213339 0
0.0661879 0.0214757 0
0.0701781 0.021618 0
0.0741678 0.0217703 0
0.0781575 0.0219227 0
0.0821471 0.0220801 0
0.0861364 0.022242 0
0.0901258 0.0224041 0
0.0941148 0.0225747 0
0.0981038 0.0227453 0
0.102093 0.0229202 0
0.106081 0.023099 0
0.11007 0.0232779 0
0.114058 0.0234644 0
0.118046 0.0236509 0
0.122035 0.0238411 0
0.126022 0.024035 0
0.13001 0.0242288 0
0.133998 0.0244298 0
0.137986 0.0246308 0
0.141973 0.0248352 0
0.14596 0.025043 0
0.149947 0.0252509 0
0.153934 0.0254654 0
0.157921 0.02568 0
0.161908 0.0258978 0
0.165894 0.026119 0
0.169881 0.0263402 0
0.173867 0.0265678 0
0.177853 0.0267956 0
0.181839 0.0270264 0
0.185825 0.0272607 0
0.189811 0.0274951 0
0.193796 0.0277356 0
0.197781 0.0279764 0
0.201767 0.02822 0
0.205752 0.0284673 0
0.209737 0.0287146 0
0.213721 0.0289679 0
0.217706 0.0292217 0
0.22169 0.0294782 0
0.225674 0.0297385 0
0.229658 0.0299988 0
0.233642 0.0302651 0
0.237626 0.0305319 0
0.241609 0.0308014 0
0.245593 0.0310748 0
0.249576 0.0313482 0
0.253559 0.0316276 0
0.257542 0.0319077 0
0.261524 0.0321904 0
0.265507 0.0324772 0
0.269489 0.032764 0
0.273471 0.0330568 0
0.277453 0.0333504 0
0.281434 0.0336466 0
0.285416 0.0339471 0
0.289397 0.0342476 0
0.293378 0.034554 0
0.297359 0.0348615 0
0.301339 0.0351714 0
0.305319 0.0354859 0
0.3093 0.0358005 0
0.313279 0.036121 0
0.317259 0.0364427 0
0.321239 0.0367667 0
0.325218 0.0370957 0
0.329197 0.0374248 0
0.333175 0.0377597 0
0.337154 0.0380961 0
0.341132 0.0384347 0
0.34511 0.0387786 0
0.349088 0.0391226 0
0.353065 0.0394724 0
0.357042 0.0398239 0
0.361019 0.0401775 0
0.364995 0.0405368 0
0.368972 0.0408961 0
0.372948 0.0412613 0
0.376924 0.0416285 0
0.380899 0.0419975 0
0.384874 0.0423727 0
0.388849 0.0427479 0
0.392823 0.0431289 0
0.396798 0.0435123 0
0.400772 0.0438973 0
0.404745 0.044289 0
0.408718 0.0446807 0
0.412691 0.0450781 0
0.416664 0.0454782 0
0.420636 0.0458797 0
0.424608 0.0462883 0
0.42858 0.046697 0
0.432551 0.0471114 0
0.436521 0.0475289 0
0.440492 0.0479474 0
0.444462 0.0483738 0
0.448432 0.0488001 0
0.452401 0.0492319 0
0.45637 0.0496673 0
0.460338 0.0501035 0
0.464306 0.0505482 0
0.468274 0.0509928 0
0.472241 0.0514427 0
0.476208 0.0518968 0
0.480175 0.0523512 0
0.48414 0.0528148 0
0.488106 0.0532784 0
0.492071 0.0537471 0
0.496036 0.0542204 0
0.5 0.050787 0
0.5 0.0468803 0
0.5 0.0429736 0
0.5 0.0390669 0
0.5 0.0351602 0
0.5 0.0312535 0
0.5 0.0273468 0
0.5 0.0234402 0
0.5 0.0195335 0
0.5 0.0156268 0
0.5 0.0117201 0
0.5 0.00781339 0
0.5 0.00390669 0
0.5 1.43781e-13 0
0.5 -0.00390669 0
0.5 -0.00781339 0
0.5 -0.0117201 0
0.5 -0.0156268 0
0.5 -0.0195335 0
0.5 -0.0234402 0
0.5 -0.0273468 0
0.5 -0.0312535 0
0.5 -0.0351602 0
0.5 -0.0390669 0
0.5 -0.0429736 0
0.5 -0.0468803 0
0.5 -0.050787 0
0.496036 -0.0542204 0
0.492071 -0.0537471 0
0.488106 -0.0532784 0
0.48414 -0.0528148 0
0.480175 -0.0523512 0
0.476208 -0.0518968 0
0.472241 -0.0514427 0
0.468274 -0.0509928 0
0.464306 -0.0505482 0
0.460338 -0.0501035 0
0.45637 -0.0496673 0
0.452401 -0.0492319 0
0.448432 -0.0488001 0
0.444462 -0.0483738 0
0.440492 -0.0479474 0
0.436521 -0.0475289 0
0.432551 -0.0471114 0
0.42858 -0.046697 0
0.424608 -0.0462883 0
0.420636 -0.0458797 0
0.416664 -0.0454782 0
0.412691 -0.0450781 0
0.408718 -0.0446807 0
0.404745 -0.044289 0
0.400772 -0.0438973 0
0.396798 -0.0435123 0
0.392823 -0.0431289 0
0.388849 -0.0427479 0
0.384874 -0.0423727 0
0.380899 -0.0419975 0
0.376924 -0.0416285 0
0.372948 -0.0412613 0
0.368972 -0.0408961 0
0.364995 -0.0405368 0
0.361019 -0.0401775 0
0.357042 -0.0398239 0
0.353065 -0.0394724 0
0.349088 -0.0391226 0
0.34511 -0.0387786 0
0.341132 -0.0384347 0
0.337154 -0.0380961 0
0.333175 -0.0377597 0
0.329197 -0.0374248 0
0.325218 -0.0370957 0
0.321239 -0.0367667 0
0.317259 -0.0364427 0
0.313279 -0.036121 0
0.3093 -0.0358005 0
0.305319 -0.0354859 0
0.301339 -0.0351714 0
0.297359 -0.0348615 0
0.293378 -0.034554 0
0.289397 -0.0342476 0
0.285416 -0.0339471 0
0.281434 -0.0336466 0
0.277453 -0.0333504 0
0.273471 -0.0330568 0
0.269489 -0.032764 0
0.265507 -0.0324772 0
0.261524 -0.0321904 0
0.257542 -0.0319077 0
0.253559 -0.0316276 0
0.249576 -0.0313482 0
0.245593 -0.0310748 0
0.241609 -0.0308014 0
0.237626 -0.0305319 0
0.233642 -0.0302651 0
0.229658 -0.0299988 0
0.225674 -0.0297385 0
0.22169 -0.0294782 0
0.217706 -0.0292217 0
0.213721 -0.0289679 0
0.209737 -0.0287146 0
0.205752 -0.0284673 0
0.201767 -0.02822 0
0.197781 -0.0279764 0
0.193796 -0.0277356 0
0.189811 -0.0274951 0
0.185825 -0.0272607 0
0.181839 -0.0270264 0
0.177853 -0.0267956 0
0.173867 -0.0265678 0
0.169881 -0.0263402 0
0.165894 -0.026119 0
0.161908 -0.0258978 0
0.157921 -0.02568 0
0.153934 -0.0254654 0
0.149947 -0.0252509 0
0.14596 -0.025043 0
0.141973 -0.0248352 0
0.137986 -0.0246308 0
0.133998 -0.0244298 0
0.13001 -0.0242288 0
0.126022 -0.024035 0
0.122035 -0.0238411 0
0.118046 -0.0236509 0
0.114058 -0.0234644 0
0.11007 -0.0232779 0
0.106081 -0.023099 0
0.102093 -0.0229202 0
0.0981038 -0.0227453 0
0.0941148 -0.0225747 0
0.0901258 -0.0224041 0
0.0861364 -0.022242 0
0.0821471 -0.0220801 0
0.0781575 -0.0219227 0
0.0741678 -0.0217703 0
0.0701781 -0.021618 0
0.0661879 -0.0214757 0
0.0621978 -0.0213339 0
0.0582075 -0.0211975 0
0.054217 -0.0210676 0
0.0502265 -0.0209377 0
0.0462355 -0.0208207 0
0.0422446 -0.0207045 0
0.0382534 -0.0205955 0
0.034262 -0.0204956 0
0.0302706 -0.0203957 0
0.0262788 -0.0203144 0
0.022287 -0.0202345 0
0.018295 -0.0201654 0
0.0143027 -0.0201109 0
0.0103104 -0.0200563 0
0.00631785 -0.0200329 0
0.00232526 -0.0200121 0
-0.00166732 -0.020011 0
-0.00565987 -0.0200372 0
-0.00965243 -0.0200635 0
-0.0136441 -0.0201487 0
-0.0176357 -0.0202396 0
-0.0216262 -0.0203639 0
-0.0256151 -0.0205369 0
-0.029604 -0.0207098 0
-0.0335881 -0.0209694 0
-0.0375717 -0.0212385 0
-0.041552 -0.0215481 0
-0.0455272 -0.0219207 0
-0.0495024 -0.0222934 0
-0.0534681 -0.0227556 0
-0.0574324 -0.0232306 0
-0.0613923 -0.0237386 0
-0.0653442 -0.0243073 0
-0.0692962 -0.0248759 0
-0.0732381 -0.0255098 0
-0.0771778 -0.0261578 0
-0.0811144 -0.0268235 0
-0.0850433 -0.0275341 0
-0.0889722 -0.0282446 0
-0.0928949 -0.0289889 0
-0.0968152 -0.029745 0
-0.100735 -0.0305068 0
-0.104649 -0.0312931 0
-0.108563 -0.0320794 0
-0.112475 -0.032878 0
-0.116386 -0.0336836 0
-0.120296 -0.0344893 0
-0.124207 -0.0352949 0
-0.128117 -0.0361005 0
-0.132028 -0.0369056 0
-0.135939 -0.0377103 0
-0.13985 -0.0385149 0
-0.143762 -0.0393092 0
-0.147675 -0.0401031 0
-0.15159 -0.0408904 0
-0.155506 -0.041668 0
-0.159422 -0.0424455 0
-0.163342 -0.0432056 0
-0.167262 -0.0439627 0
-0.171183 -0.0447127 0
-0.175108 -0.0454463 0
-0.179033 -0.0461799 0
-0.182961 -0.0468942 0
-0.18689 -0.0476022 0
-0.190821 -0.0483046 0
-0.194755 -0.0489856 0
-0.198689 -0.0496667 0
-0.202626 -0.0503294 0
-0.206565 -0.0509829 0
-0.210504 -0.0516328 0
-0.214448 -0.0522585 0
-0.218391 -0.0528841 0
-0.222337 -0.0534933 0
-0.226284 -0.0540912 0
-0.230232 -0.0546875 0
-0.234184 -0.0552582 0
-0.238136 -0.0558289 0
-0.242089 -0.0563854 0
-0.246045 -0.0569295 0
-0.25 -0.0535098 0
-0.25 -0.0495461 0
-0.25 -0.0455824 0
-0.25 -0.0416187 0
-0.25 -0.0376551 0
-0.25 -0.0336914 0
-0.25 -0.0297277 0
-0.25 -0.025764 0
-0.25 -0.0218003 0
-0.25 -0.0178366 0
-0.25 -0.0138729 0
-0.25 -0.00990922 0
-0.25 -0.00594553 0
-0.25 -0.00198184 0
-0.25 0.00198184 0
-0.25 0.00594553 0
-0.25 0.00990922 0
-0.25 0.0138729 0
-0.25 0.0178366 0
-0.25 0.0218003 0
-0.25 0.025764 0
-0.25 0.0297277 0
-0.25 0.0336914 0
-0.25 0.0376551 0
-0.25 0.0416187 0
-0.25 0.0455824 0
-0.25 0.0495461 0
-0.25 0.0535098 0
-0.246045 0.0569295 0.01
-0.242089 0.0563854 0.01
-0.238136 0.0558289 0.01
-0.234184 0.0552582 0.01
-0.230232 0.0546875 0.01
-0.226284 0.0540912 0.01
-0.222337 0.0534933 0.01
-0.218391 0.0528841 0.01
-0.214448 0.0522585 0.01
-0.210504 0.0516328 0.01
-0.206565 0.0509829 0.01
-0.202626 0.0503294 0.01
-0.198689 0.0496667 0.01
-0.194755 0.0489856 0.01
-0.190821 0.0483046 0.01
-0.18689 0.0476022 0.01
-0.182961 0.0468942 0.01
-0.179033 0.0461799 0.01
-0.175108 0.0454463 0.01
-0.171183 0.0447127 0.01
-0.167262 0.0439627 0.01
[...]
CELL_DATA 7657
SCALARS rho float
LOOKUP_TABLE default
0.495751
0.454428
0.515517
0.484485
0.495948
0.513145
0.433296
0.502908
0.443431
0.499714
0.499778
0.503397
0.436976
0.503154
0.49532
0.492315
0.495275
0.513546
0.513522
0.500283
0.494701
0.513173
0.451176
0.513552
0.510145
0.505693
0.466208
0.438564
0.496696
0.51259
0.434491
0.510122
0.45008
0.49668
0.496456
0.434346
0.512885
0.451189
0.494634
0.441968
0.515633
0.443081
0.499531
0.509694
0.515735
0.515248
0.433348
0.512843
0.510131
0.496093
0.509041
0.485486
0.496628
0.497491
0.433289
0.513865
0.494926
0.493584
0.492497
0.434803
0.50998
0.51593
0.509447
0.509306
0.500427
0.50044
0.436879
0.515299
0.499002
0.490056
0.515405
0.437446
0.496576
0.49669
0.496973
0.512323
0.5132
0.511893
0.497166
0.437479
0.449344
0.5025
0.500379
0.515649
0.515396
0.494633
0.515454
0.489591
0.5055
0.464522
0.5003
0.500339
0.493273
0.498351
0.440574
0.495736
0.495296
0.452755
0.515815
0.44038
0.513476
0.511455
0.45415
0.49437
0.433314
0.446444
0.437655
0.515925
0.438014
0.494372
0.434616
0.515605
0.506188
0.500354
0.514678
0.484193
0.516142
0.442569
0.492267
0.512103
0.50111
0.501095
0.437534
0.452034
0.501165
0.503171
0.503636
0.498234
0.514787
0.499568
0.479273
0.512605
0.514163
0.495409
0.500395
0.436653
0.49239
0.4503
0.512408
0.512289
0.437232
0.457792
0.443494
0.441609
0.513791
0.494634
0.449176
0.455075
0.515993
0.437281
0.448009
0.499119
0.462282
0.49888
0.494695
0.454001
0.515315
0.512934
0.500365
0.436354
0.512824
0.493454
0.505866
0.483432
0.516265
0.453831
0.494587
0.505487
0.514731
0.492331
0.515725
0.447141
0.512719
0.447391
0.433833
0.43412
0.490147
0.495198
0.501289
0.444216
0.441461
0.438091
0.511867
0.511728
0.436311
0.491693
0.440837
0.491501
0.504616
0.495579
0.496624
0.498558
0.500391
0.496746
0.504731
0.514545
0.500169
0.493263
0.433999
0.514939
0.513652
0.511596
0.49607
0.48891
0.463284
0.497601
0.438562
0.433494
0.497396
0.496694
0.516736
0.515959
0.51634
0.500427
0.515824
0.493936
0.433607
0.494127
0.515696
0.515105
0.45463
0.454543
0.499421
0.515497
0.439189
0.450004
0.439256
0.456723
0.510003
0.499459
0.516556
0.516427
0.437981
0.494632
0.492138
0.50028
0.48987
0.511296
0.51117
0.493117
0.516763
0.447075
0.495742
0.449734
0.49735
0.497424
0.441008
0.497302
0.441526
0.509369
0.434302
0.488497
0.515884
0.497212
0.433745
0.492707
0.455644
0.495907
0.497376
0.515732
0.45184
0.497306
0.492206
0.514781
0.433506
0.515461
0.48783
0.447978
0.513649
0.445232
0.435632
0.462908
0.458377
0.500245
0.497491
0.51463
0.50444
0.515587
0.515424
0.504217
0.452976
0.507766
0.451286
0.438808
0.487347
0.434574
0.438897
0.477996
0.464244
0.514209
0.514496
0.492929
0.452442
0.497246
0.515849
0.467451
0.494308
0.502331
0.48458
0.514425
0.495168
0.497922
0.446034
0.439964
0.464451
0.493961
0.433391
0.494228
0.513858
0.515906
0.504052
0.486839
0.493004
0.441391
0.510275
0.492935
0.497183
0.495942
0.515646
0.507605
0.503649
0.451114
0.497136
0.490821
0.492319
0.496592
0.440381
0.460896
0.493872
0.514324
0.446409
0.496817
0.492178
0.455956
0.502725
0.470209
0.515853
0.455083
0.510413
0.496604
0.50497
0.433904
0.457178
0.492224
0.500086
0.433638
0.49659
0.456113
0.515228
0.493888
0.51353
0.512983
0.500367
0.512873
0.433302
0.51055
0.512516
0.433547
0.510428
0.433473
0.516527
0.513281
0.515136
0.485664
0.495026
0.434094
0.505119
0.441281
0.493381
0.494707
0.513929
0.479438
0.500499
0.500928
0.438588
0.437489
0.512747
0.469837
0.514114
0.492173
0.516287
0.513761
0.46151
0.50936
0.496948
0.499064
0.496444
0.50357
0.505337
0.493588
0.516501
0.515866
0.515746
0.500762
0.506103
0.491074
0.433511
0.446627
0.49355
0.513537
0.500352
0.500385
0.513912
0.498064
0.441348
0.479263
0.492493
0.435252
0.493707
0.495315
0.512641
0.513422
0.50927
0.482389
0.495841
0.500983
0.515698
0.502379
0.483068
0.452783
0.450958
0.502542
0.433552
0.460044
0.454473
0.514635
0.494901
0.501553
0.498218
0.511326
0.48338
0.433351
0.457661
0.500191
0.507443
0.492248
0.497885
0.512385
0.492201
0.513634
0.511797
0.492392
0.435156
0.496876
0.504223
0.516269
0.51673
0.433328
0.495224
0.483236
0.510243
0.510573
0.516593
0.433144
0.439602
0.495261
0.433244
0.492553
0.492232
0.496027
0.496558
0.515436
0.514256
0.494533
0.460984
0.500997
0.445549
0.447986
0.433195
0.433347
0.496856
0.516613
0.477685
0.495408
0.494468
0.511725
0.507347
0.511311
0.438104
0.496595
0.485453
0.496734
0.512892
0.512629
0.516244
0.515472
0.449076
0.435311
0.498969
0.508954
0.493295
0.509833
0.503327
0.496411
0.503815
0.434218
0.483561
0.511305
0.496811
0.496053
0.502115
0.502323
0.482076
0.501717
0.490132
0.491856
0.458115
0.495596
0.485301
0.492225
0.450111
0.50779
0.511862
0.493282
0.513434
0.501498
0.492894
0.51305
0.493773
0.451505
0.492536
0.500584
0.50242
0.476251
0.504407
0.50188
0.497851
0.515582
0.498189
0.509563
0.516296
0.492215
0.502556
0.477376
0.515836
0.511722
0.515576
0.5027
0.433719
0.514032
0.516324
0.511707
0.481301
0.503668
0.507207
0.500812
0.512004
0.496917
0.513393
0.512124
0.49215
0.480679
0.476233
0.505958
0.493512
0.492317
0.440699
0.504374
0.447015
0.496858
0.492202
0.510141
0.501228
0.434941
0.512277
0.492538
0.4986
0.500785
0.434246
0.4976
0.495222
0.510838
0.512905
0.452084
0.49334
0.433614
0.502735
0.500091
0.503892
0.503379
0.440099
0.467128
0.493881
0.515609
0.512212
0.475117
0.508814
0.484583
0.498939
0.434641
0.504761
0.503179
0.433379
0.480854
0.492483
0.515593
0.433911
0.440495
0.516226
0.503295
0.496165
0.494273
0.515785
0.504903
0.502652
0.502952
0.505735
0.496841
0.515966
0.494659
0.505564
0.503523
0.503625
0.492518
0.516178
0.492196
0.500092
0.480928
0.478732
0.502935
0.435476
0.497269
0.497263
0.501263
0.502507
0.508975
0.453882
0.483869
0.485593
0.442576
0.513433
0.515116
0.49724
0.508855
0.500766
0.501709
0.477996
0.509685
0.496851
0.51357
0.496833
0.511715
0.510745
0.434397
0.474871
0.500948
0.509997
0.508659
0.46666
0.503121
0.492373
0.508526
0.515295
0.5014
0.500276
0.504361
0.460177
0.511854
0.509425
0.509599
0.438242
0.508312
0.49227
0.480146
0.509493
0.512686
0.479231
0.502915
0.50818
0.463535
0.501161
0.494002
0.474091
0.492184
0.48585
0.463019
0.460433
0.461215
0.500157
0.507976
0.516273
0.509266
0.465089
0.503692
0.502504
0.507837
0.51642
0.480121
0.443225
0.435821
0.49767
0.502942
0.504116
0.509101
0.51211
0.504153
0.500644
0.439819
0.495579
0.495287
0.433581
0.512361
0.43981
0.447721
0.433231
0.504633
0.507622
0.44118
0.507476
0.50161
0.501428
0.486884
0.50309
0.497113
0.513084
0.434348
0.492068
0.49777
0.496163
0.475821
0.503665
0.46419
0.501663
0.501672
0.496436
0.508953
0.506285
0.496996
0.434853
0.492278
0.509891
0.49583
0.501934
0.470233
0.504289
0.481554
0.447003
0.475619
0.501505
0.509621
0.509162
0.459318
0.495748
0.491796
0.433598
0.501738
0.447369
0.444938
0.438962
0.506091
0.497887
0.434385
0.508984
0.493128
0.498893
0.495108
0.496194
0.442956
0.496675
0.496931
0.457096
0.496327
0.500871
0.50991
0.509435
0.502387
0.515986
0.445185
0.50944
0.503726
0.51295
0.513074
0.492187
0.4444
0.49614
0.504067
0.492274
0.494889
0.496006
0.516797
0.503018
0.509515
0.445053
0.501762
0.433431
0.500373
0.495962
0.497657
0.493172
0.511861
0.480194
0.433465
0.504488
0.508778
0.515924
0.492138
0.501991
0.490814
0.466653
0.472955
0.495423
0.437345
0.434805
0.504239
0.469525
0.49231
0.492408
0.508076
0.495603
0.502781
0.496554
0.438632
0.435019
0.505966
0.433604
0.495254
0.500388
0.505585
0.501843
0.493779
0.500386
0.451007
0.500571
0.501065
0.433348
0.495184
0.504405
0.444121
0.482803
0.434276
0.501402
0.504878
0.443815
0.50579
0.501224
0.433753
0.492365
0.500393
0.494806
0.509737
0.501027
0.506802
0.510056
0.49841
0.497023
0.494637
0.515156
0.49
0.49511
0.501521
0.494962
0.497218
0.437785
0.444598
0.444148
0.508276
0.482255
0.496921
0.482292
0.493549
0.49492
0.501058
0.493362
0.495113
0.502603
0.508578
0.501291
0.438383
0.494435
0.433364
0.444494
0.497062
0.435242
0.505286
0.494672
0.445171
0.438316
0.495567
0.494794
0.502435
0.49532
0.504211
0.488066
0.504711
0.442944
0.441341
0.443757
0.502761
0.503158
0.495355
0.43751
0.508437
0.50731
0.494862
0.495089
0.494623
0.495053
0.506936
0.494207
0.496131
0.493988
0.494393
0.492386
0.50138
0.49247
0.450726
0.508096
0.453053
0.496081
0.433541
0.50885
0.4456
0.437876
0.48653
0.486484
0.496471
0.50388
0.494172
0.504072
0.447444
0.494866
0.50072
0.504488
0.496592
0.505148
0.488845
0.440768
0.493959
0.48656
0.486771
0.436526
0.492179
0.504491
0.504907
0.454299
0.491438
0.491531
0.501691
0.505023
0.506838
0.434926
0.442392
0.496943
0.500186
0.502206
0.512788
0.441739
0.444719
0.500937
0.504437
0.516005
0.451856
0.437477
0.437411
0.438247
0.505032
0.437209
0.461091
0.503606
0.435301
0.509748
0.493085
0.504535
0.502611
0.515492
0.509222
0.50118
0.446981
0.496934
0.505122
0.508968
0.496413
0.495342
0.508951
0.500583
0.497464
0.459708
0.508426
0.502454
0.510781
0.435279
0.500841
0.493647
0.504898
0.504661
0.508762
0.508617
0.500968
0.506432
0.511341
0.457504
0.441683
0.493675
0.434187
0.500607
0.494467
0.496623
0.49735
0.472126
0.469017
0.500785
0.504224
0.500174
0.475715
0.49324
0.505514
0.509239
0.500798
0.443137
0.500746
0.495319
0.505694
0.509274
0.43556
0.496389
0.503804
0.504212
0.436295
0.436365
0.44662
0.504559
0.492899
0.500496
0.516279
0.515052
0.435574
0.449493
0.51358
0.505603
0.493157
0.433622
0.507744
0.433388
0.436794
0.501612
0.496496
0.507956
0.496641
0.51513
0.515093
0.516366
0.496392
0.513674
0.500195
0.505098
0.513638
0.435671
0.516228
0.496481
0.455265
0.496553
0.456293
0.510193
0.494862
0.497032
0.501878
0.493273
0.494778
0.492864
0.502322
0.43331
0.461661
0.513218
0.496359
0.439785
0.503374
0.515051
0.495713
0.502801
0.506457
0.511177
0.500809
0.511686
0.500719
0.504796
0.494631
0.502922
0.504847
0.50942
0.496463
0.507929
0.496435
0.511373
0.509573
0.434315
0.506427
0.496366
0.461958
0.495511
0.497284
0.497515
0.504775
0.511873
0.500837
0.433413
0.440968
0.433266
0.500572
0.50544
0.478513
0.480487
0.444643
0.49269
0.504256
0.506619
0.434917
0.44567
0.50272
0.492128
0.496296
0.505904
0.503194
0.4562
0.504951
0.515102
0.458873
0.501817
0.507381
0.516698
0.500362
0.447961
0.502112
0.497007
0.4972
0.505483
0.496956
0.500576
0.492277
0.501008
0.496536
0.492481
0.463381
0.516078
0.515944
0.492502
0.494029
0.506628
0.451272
0.503087
0.492337
0.502993
0.436266
0.492159
0.501058
0.5053
0.443388
0.436052
0.50525
0.433946
0.509528
0.44029
0.437606
0.43766
0.509882
0.508456
0.507572
0.436307
0.496373
0.507945
0.497331
0.501032
0.433618
0.504298
0.501731
0.503947
0.439592
0.500986
0.495464
0.503312
0.504022
0.497233
0.50079
0.435456
0.433577
0.487492
0.487421
0.501335
0.495555
0.434801
0.50389
0.49621
0.500916
0.5006
0.511995
0.51337
0.497116
0.495758
0.485994
0.433432
0.50162
0.435496
0.504452
0.433419
0.516355
0.501179
0.508107
0.503153
0.502508
0.511173
0.511125
0.434387
0.496856
0.460254
0.497218
0.504594
0.500996
0.493579
0.500584
0.492322
0.513171
0.433632
0.433896
0.493677
0.512379
0.493873
0.50224
0.502061
0.457785
0.496619
0.493194
0.441007
0.501933
0.433784
0.442467
0.507432
0.493515
0.433424
0.515299
0.435358
0.438218
0.496768
0.508442
0.496162
0.497236
0.508109
0.511242
0.511289
0.464914
0.508453
0.500804
0.501107
0.438799
0.511562
0.503931
0.442758
0.433899
0.502895
0.508791
0.503275
0.501139
0.501889
0.500775
0.50909
0.497127
0.509089
0.516667
0.513629
0.506248
0.506699
0.507903
0.434176
0.503331
0.514061
0.514071
0.492437
0.502166
0.506
0.498018
0.5026
0.512208
0.504019
0.506501
0.492197
0.499479
0.506163
0.499503
0.492662
0.513837
0.433774
0.494676
0.516034
0.516018
0.50093
0.501351
0.515518
0.500733
0.501952
0.49629
0.516677
0.516709
0.435945
0.500913
0.508085
0.501614
0.513838
0.500599
0.502012
0.507371
0.506423
0.501333
0.497368
0.497534
0.51484
0.501822
0.503998
0.501128
0.506117
0.505556
0.505629
0.511575
0.503953
0.502296
0.501406
0.500458
0.511303
0.473269
0.511251
0.511803
0.501084
0.434865
0.50325
0.515387
0.501568
0.516678
0.516667
0.505955
0.493544
0.502681
0.435151
0.496361
0.50067
0.44402
0.515483
0.497057
0.493197
0.513331
0.433902
0.436178
0.437163
0.515713
0.506183
0.502367
0.510699
0.512061
0.51418
0.500847
0.510651
0.514683
0.514073
0.513153
0.501438
0.511687
0.502648
0.45243
0.513853
0.494223
0.493357
0.506565
0.503523
0.51273
0.503764
0.501477
0.503424
0.459154
0.514083
0.501798
0.501846
0.502396
0.501319
0.501773
0.503119
0.434446
0.516702
0.516712
0.502183
0.503851
0.501849
0.493443
0.433238
0.503623
0.509128
0.501159
0.508423
0.491235
0.49356
0.505599
0.438409
0.49209
0.502458
0.433742
0.502739
0.500356
0.514555
0.436682
0.436442
0.501699
0.501683
0.509689
0.504191
0.496614
0.49664
0.497952
0.502062
0.500953
0.5136
0.457341
0.507726
0.434383
0.503745
0.504018
0.496027
0.44385
0.458196
0.512809
0.501455
0.50153
0.501796
0.501656
0.498078
0.506343
0.505953
0.505554
0.502139
0.506726
0.502007
0.503553
0.51668
0.493757
0.495785
0.497073
0.503032
0.503793
0.501497
0.504172
0.516277
0.504647
0.50607
0.512056
0.503104
0.504627
0.506113
0.497683
0.505073
0.473343
0.492595
0.467025
0.469594
0.497116
0.504634
0.500967
0.493431
0.441574
0.502324
0.492085
0.504641
0.496335
0.505275
0.504445
0.433598
0.496569
0.492003
0.492413
0.516584
0.516523
0.506379
0.43339
0.497827
0.503563
0.498559
0.446965
0.502875
0.504735
0.456446
0.515298
0.492188
0.516617
0.453864
0.498466
0.450118
0.499244
0.499208
0.498397
0.450277
0.50793
0.498143
0.504035
0.496777
0.494627
0.503261
0.500907
0.497406
0.464961
0.433705
0.49785
0.512261
0.505501
0.433496
0.467826
0.4664
0.504856
0.49778
0.449047
0.480403
0.491945
0.498095
0.501925
0.496305
0.505896
0.494537
0.498896
0.498865
0.493408
0.503381
0.493266
0.502959
0.471021
0.509228
0.50925
0.506596
0.496627
0.502625
0.49711
0.497676
0.502371
0.451484
0.500656
0.500773
0.439459
0.434674
0.435033
0.514287
0.505316
0.493134
0.498004
0.505073
0.505686
0.504979
0.507226
0.504975
0.498312
0.511525
0.497761
0.445979
0.496645
0.506542
0.498234
0.498177
0.492961
0.509802
0.494774
0.504316
0.505057
0.506077
0.511137
0.511088
0.504315
0.504572
0.50221
0.496326
0.505219
0.505116
0.506828
0.504759
0.506481
0.506419
0.502096
0.503352
0.506156
0.50181
0.504824
0.495768
0.502089
0.513428
0.496254
0.508859
0.508795
0.504416
0.508589
0.503077
0.50688
0.516604
0.516667
0.515555
0.516653
0.516647
0.434682
0.507877
0.497446
0.513914
0.50692
0.504833
0.495045
0.5071
0.516068
0.516048
0.514163
0.514149
0.510715
0.503983
0.515408
0.511677
0.511788
0.496226
0.507251
0.513202
0.492217
0.505762
0.516605
0.516562
0.510646
0.506228
0.510541
0.515189
0.515123
0.504612
0.507186
0.512168
0.500781
0.510509
0.442322
0.504048
0.48802
0.497464
0.50536
0.466552
0.507021
0.498137
0.498097
0.49788
0.501251
0.495655
0.494015
0.513708
0.497654
0.452678
0.492082
0.494473
0.4977
0.50539
0.502799
0.502295
0.449955
0.501053
0.500971
0.496869
0.439011
0.439058
0.506761
0.501585
0.514603
0.491963
0.507858
0.506283
0.492902
0.493322
0.501128
0.496142
0.496134
0.501531
0.492972
0.433803
0.433577
0.494633
0.515208
0.513887
0.497049
0.449207
0.497527
0.497624
0.50203
0.496602
0.496998
0.491945
0.504874
0.44081
0.509449
0.496306
0.494727
0.493611
0.496743
0.506316
0.496928
0.435174
0.505834
0.439409
0.512138
0.507154
0.497413
0.440337
0.440722
0.502483
0.516305
0.492748
0.496225
0.491943
0.505527
0.447115
0.507441
0.494321
0.501765
0.497063
0.495946
0.495683
0.505265
0.516629
0.504407
0.496192
0.506388
0.496897
0.505243
0.493955
0.494463
0.503464
0.491965
0.516687
0.516687
0.495403
0.494568
0.496125
0.495989
0.491964
0.496461
0.496588
0.497877
0.50317
0.510052
0.496283
0.496796
0.502878
0.507074
0.505073
0.512593
0.505274
0.4937
0.516433
0.516472
0.497305
0.497697
0.433882
0.497709
0.495228
0.501172
0.507013
0.508292
0.494876
0.495515
0.501207
0.496166
0.496501
0.491941
0.49766
0.494676
0.496914
0.493237
0.496789
0.515025
0.506973
0.493895
0.506145
0.496399
0.496246
0.496717
0.507135
0.505663
0.507615
0.495839
0.492221
0.49657
0.463494
0.511744
0.506836
0.497785
0.493862
0.514959
0.506416
0.494564
0.496012
0.496204
0.502711
0.502689
0.501009
0.512844
0.496392
0.478819
0.509564
0.495297
0.498042
0.505428
0.493184
0.49608
0.509538
0.472587
0.495563
0.510193
0.493045
0.507676
0.50205
0.49648
0.497531
0.506653
0.506651
0.509898
0.494326
0.496514
0.501292
0.496792
0.49368
0.514597
0.494497
0.505887
0.502258
0.495111
0.490227
0.506067
0.495506
0.50721
0.496614
0.496903
0.49653
0.511451
0.510514
0.505166
0.500875
0.511393
0.500868
0.49632
0.506944
0.494697
0.496181
0.495993
0.494013
0.496208
0.503389
0.49647
0.437308
0.496279
0.43559
0.496131
0.493696
0.492946
0.497146
0.493379
0.505078
0.509511
0.509472
0.505937
0.504204
0.496703
0.453665
0.45128
0.513745
0.513973
0.495093
0.496214
0.495273
0.503605
0.492617
0.496145
0.509419
0.514242
0.495381
0.496204
0.504872
0.4965
0.435937
0.433363
0.49755
0.496944
0.496909
0.514457
0.493847
0.496341
0.494512
0.497282
0.497544
0.498516
0.493563
0.49603
0.499175
0.516565
0.516524
0.508319
0.513982
0.494162
0.494834
0.493069
0.49309
0.494618
0.497307
0.496054
0.509937
0.456858
0.494614
0.494776
0.496731
0.5078
0.494255
0.495912
0.506325
0.515095
0.515028
0.497629
0.493465
0.496368
0.494333
0.504874
0.511928
0.494798
0.468435
0.497174
0.49203
0.49394
0.507467
0.492773
0.502444
0.506399
0.493758
0.496689
0.507051
0.503863
0.506828
0.49275
0.494309
0.491956
0.493127
0.496213
0.496179
0.494093
0.494474
0.494368
0.511523
0.493335
0.495986
0.493155
0.512585
0.496426
0.496791
0.491946
0.49595
0.494191
0.495918
0.4485
0.496758
0.494377
0.493522
0.493737
0.495667
0.510363
0.497073
0.502924
0.504462
0.495199
0.494981
0.494772
0.493203
0.496057
0.49407
0.496565
0.494523
0.505286
0.494571
0.506461
0.50974
0.50937
0.507291
0.496151
0.492897
0.495426
0.508301
0.493845
0.49394
0.493526
0.492364
0.494733
0.494149
0.510039
0.493211
0.491924
0.494512
0.492478
0.509404
0.496505
0.512834
0.496455
0.494806
0.497002
0.497067
0.492906
0.438885
0.440145
0.501242
0.491932
0.493025
0.493966
0.509724
0.510347
0.49682
0.493857
0.496421
0.49236
0.492838
0.495747
0.495514
0.495486
0.494792
0.493897
0.493049
0.49363
0.514328
0.496703
0.515833
0.434408
0.508635
0.508138
0.510055
0.507826
0.51436
0.4942
0.515867
0.493626
0.49356
0.492264
0.492749
0.493364
0.493835
0.505984
0.495437
0.496512
0.495304
0.493031
0.495368
0.492621
0.497968
0.507653
0.49603
0.493389
0.501602
0.496215
0.452795
0.500796
0.496041
0.492002
0.496138
0.493109
0.448803
0.504137
0.496456
0.49745
0.492606
0.494022
0.49318
0.494256
0.492837
0.496075
0.492257
0.433418
0.494972
0.507031
0.50776
0.505642
0.495061
0.492404
0.496365
0.492891
0.493632
0.493268
0.497067
0.492752
0.497312
0.492155
0.492626
0.434938
0.497787
0.492938
0.495914
0.512267
0.492502
0.491982
0.491996
0.507587
0.49306
0.50358
0.48193
0.50543
0.49251
0.494128
0.49219
0.495621
0.494151
0.484423
0.496522
0.504625
0.493222
0.505925
0.497357
0.509579
0.496099
0.492799
0.496505
0.496992
0.492415
0.479099
0.495909
0.50842
0.493428
0.507314
0.505041
0.506781
0.492274
0.510799
0.496263
0.483062
0.492077
0.494203
0.508008
0.492747
0.49254
0.496778
0.495822
0.466045
0.508178
0.511458
0.507768
0.492574
0.494846
0.494802
0.508268
0.492783
0.493281
0.511381
0.476259
0.43801
0.435418
0.492267
0.486592
0.506257
0.454881
0.449618
0.513756
0.492225
0.477744
0.493817
0.492385
0.492149
0.495988
0.492319
0.491982
0.487825
0.502284
0.433339
0.492109
0.509446
0.492054
0.493607
0.507971
0.495164
0.497245
0.505187
0.49765
0.480479
0.508443
0.490896
0.513868
0.488937
0.492155
0.504199
0.511107
0.504791
0.495494
0.487751
0.508497
0.455568
0.50958
0.49337
0.510666
0.502556
0.493525
0.506211
0.492857
0.495795
0.50886
0.511924
0.508522
0.468815
0.49211
0.492147
0.504535
0.493387
0.494983
0.489827
0.508697
0.448781
0.508483
0.510059
0.492068
0.477885
0.509768
0.492128
0.497551
0.492791
0.510649
0.509899
0.510963
0.498063
0.480597
0.510751
0.494316
0.510946
0.492245
0.509053
0.510526
0.49736
0.492007
0.439577
0.43829
0.492494
0.493381
0.492171
0.492442
0.508356
0.510675
0.458451
0.458508
0.493347
0.496522
0.434189
0.49442
0.493057
0.492138
0.494698
0.494206
0.494165
0.508433
0.511414
0.492612
0.510982
0.491986
0.493706
0.509853
0.491977
0.509798
0.508604
0.492397