# vtk DataFile Version 1.0
unstructured grid
ascii
DATASET UNSTRUCTURED_GRID
points 8094 float
-0.25 0.0574735 0
0.5 0.0546937 0
0.5 -0.0546937 0
-0.25 -0.0574735 0
-0.25 0.0574735 0.01
0.5 0.0546937 0.01
0.5 -0.0546937 0.01
-0.25 -0.0574735 0.01
-0.246045 0.0569295 0
-0.242089 0.0563854 0
-0.238136 0.0558289 0
-0.234184 0.0552582 0
-0.230232 0.0546875 0
-0.226284 0.0540912 0
-0.222337 0.0534933 0
-0.218391 0.0528841 0
-0.214448 0.0522585 0
-0.210504 0.0516328 0
-0.206565 0.0509829 0
-0.202626 0.0503294 0
-0.198689 0.0496667 0
-0.194755 0.0489856 0
-0.190821 0.0483046 0
-0.18689 0.0476022 0
-0.182961 0.0468942 0
-0.179033 0.0461799 0
-0.175108 0.0454463 0
-0.171183 0.0447127 0
-0.167262 0.0439627 0
-0.163342 0.0432056 0
-0.159422 0.0424455 0
-0.155506 0.041668 0
-0.15159 0.0408904 0
-0.147675 0.0401031 0
-0.143762 0.0393092 0
-0.13985 0.0385149 0
-0.135939 0.0377103 0
-0.132028 0.0369056 0
-0.128117 0.0361005 0
-0.124207 0.0352949 0
-0.120296 0.0344893 0
-0.116386 0.0336836 0
-0.112475 0.032878 0
-0.108563 0.0320794 0
-0.104649 0.0312931 0
-0.100735 0.0305068 0
-0.0968152 0.029745 0
-0.0928949 0.0289889 0
-0.0889722 0.0282446 0
-0.0850433 0.0275341 0
-0.0811144 0.0268235 0
-0.0771778 0.0261578 0
-0.0732381 0.0255098 0
-0.0692962 0.0248759 0
-0.0653442 0.0243073 0
-0.0613923 0.0237386 0
-0.0574324 0.0232306 0
-0.0534681 0.0227556 0
-0.0495024 0.0222934 0
-0.0455272 0.0219207 0
-0.041552 0.0215481 0
-0.0375717 0.0212385 0
-0.0335881 0.0209694 0
-0.029604 0.0207098 0
-0.0256151 0.0205369 0
-0.0216262 0.0203639 0
-0.0176357 0.0202396 0
-0.0136441 0.0201487 0
-0.00965243 0.0200635 0
-0.00565987 0.0200372 0
-0.00166732 0.020011 0
0.00232526 0.0200121 0
0.00631785 0.0200329 0
0.0103104 0.0200563 0
0.0143027 0.0201109 0
0.018295 0.0201654 0
0.022287 0.0202345 0
0.0262788 0.0203144 0
0.0302706 0.0203957 0
0.034262 0.0204956 0
0.0382534 0.0205955 0
0.0422446 0.0207045 0
0.0462355 0.0208207 0
0.0502265 0.0209377 0
0.054217 0.0210676 0
0.0582075 0.0211975 0
0.0621978 0.0213339 0
0.0661879 0.0214757 0
0.0701781 0.021618 0
0.0741678 0.0217703 0
0.0781575 0.0219227 0
0.0821471 0.0220801 0
0.0861364 0.022242 0
0.0901258 0.0224041 0
0.0941148 0.0225747 0
0.0981038 0.0227453 0
0.102093 0.0229202 0
0.106081 0.023099 0
0.11007 0.0232779 0
0.114058 0.0234644 0
0.118046 0.0236509 0
0.122035 0.0238411 0
0.126022 0.024035 0
0.13001 0.0242288 0
0.133998 0.0244298 0
0.137986 0.0246308 0
0.141973 0.0248352 0
0.14596 0.025043 0
0.149947 0.0252509 0
0.153934 0.0254654 0
0.157921 0.02568 0
0.161908 0.0258978 0
0.165894 0.026119 0
0.169881 0.0263402 0
0.173867 0.0265678 0
0.177853 0.0267956 0
0.181839 0.0270264 0
0.185825 0.0272607 0
0.189811 0.0274951 0
0.193796 0.0277356 0
0.197781 0.0279764 0
0.201767 0.02822 0
0.205752 0.0284673 0
0.209737 0.0287146 0
0.213721 0.0289679 0
0.217706 0.0292217 0
0.22169 0.0294782 0
0.225674 0.0297385 0
0.229658 0.0299988 0
0.233642 0.0302651 0
0.237626 0.0305319 0
0.241609 0.0308014 0
0.245593 0.0310748 0
0.249576 0.0313482 0
0.253559 0.0316276 0
0.257542 0.0319077 0
0.261524 0.0321904 0
0.265507 0.0324772 0
0.269489 0.032764 0
0.273471 0.0330568 0
0.277453 0.0333504 0
0.281434 0.0336466 0
0.285416 0.0339471 0
0.289397 0.0342476 0
0.293378 0.034554 0
0.297359 0.0348615 0
0.301339 0.0351714 0
0.305319 0.0354859 0
0.3093 0.0358005 0
0.313279 0.036121 0
0.317259 0.0364427 0
0.321239 0.0367667 0
0.325218 0.0370957 0
0.329197 0.0374248 0
0.333175 0.0377597 0
0.337154 0.0380961 0
0.341132 0.0384347 0
0.34511 0.0387786 0
0.349088 0.0391226 0
0.353065 0.0394724 0
0.357042 0.0398239 0
0.361019 0.0401775 0
0.364995 0.0405368 0
0.368972 0.0408961 0
0.372948 0.0412613 0
0.376924 0.0416285 0
0.380899 0.0419975 0
0.384874 0.0423727 0
0.388849 0.0427479 0
0.392823 0.0431289 0
0.396798 0.0435123 0
0.400772 0.0438973 0
0.404745 0.044289 0
0.408718 0.0446807 0
0.412691 0.0450781 0
0.416664 0.0454782 0
0.420636 0.0458797 0
0.424608 0.0462883 0
0.42858 0.046697 0
0.432551 0.0471114 0
0.436521 0.0475289 0
0.440492 0.0479474 0
0.444462 0.0483738 0
0.448432 0.0488001 0
0.452401 0.0492319 0
0.45637 0.0496673 0
0.460338 0.0501035 0
0.464306 0.0505482 0
0.468274 0.0509928 0
0.472241 0.0514427 0
0.476208 0.0518968 0
0.480175 0.0523512 0
0.48414 0.0528148 0
0.488106 0.0532784 0
0.492071 0.0537471 0
0.496036 0.0542204 0
0.5 0.050787 0
0.5 0.0468803 0
0.5 0.0429736 0
0.5 0.0390669 0
0.5 0.0351602 0
0.5 0.0312535 0
0.5 0.0273468 0
0.5 0.0234402 0
0.5 0.0195335 0
0.5 0.0156268 0
0.5 0.0117201 0
0.5 0.00781339 0
0.5 0.00390669 0
0.5 1.43781e-13 0
0.5 -0.00390669 0
0.5 -0.00781339 0
0.5 -0.0117201 0
0.5 -0.0156268 0
0.5 -0.0195335 0
0.5 -0.0234402 0
0.5 -0.0273468 0
0.5 -0.0312535 0
0.5 -0.0351602 0
0.5 -0.0390669 0
0.5 -0.0429736 0
0.5 -0.0468803 0
0.5 -0.050787 0
0.496036 -0.0542204 0
0.492071 -0.0537471 0
0.488106 -0.0532784 0
0.48414 -0.0528148 0
0.480175 -0.0523512 0
0.476208 -0.0518968 0
0.472241 -0.0514427 0
0.468274 -0.0509928 0
0.464306 -0.0505482 0
0.460338 -0.0501035 0
0.45637 -0.0496673 0
0.452401 -0.0492319 0
0.448432 -0.0488001 0
0.444462 -0.0483738 0
0.440492 -0.0479474 0
0.436521 -0.0475289 0
0.432551 -0.0471114 0
0.42858 -0.046697 0
0.424608 -0.0462883 0
0.420636 -0.0458797 0
0.416664 -0.0454782 0
0.412691 -0.0450781 0
0.408718 -0.0446807 0
0.404745 -0.044289 0
0.400772 -0.0438973 0
0.396798 -0.0435123 0
0.392823 -0.0431289 0
0.388849 -0.0427479 0
0.384874 -0.0423727 0
0.380899 -0.0419975 0
0.376924 -0.0416285 0
0.372948 -0.0412613 0
0.368972 -0.0408961 0
0.364995 -0.0405368 0
0.361019 -0.0401775 0
0.357042 -0.0398239 0
0.353065 -0.0394724 0
0.349088 -0.0391226 0
0.34511 -0.0387786 0
0.341132 -0.0384347 0
0.337154 -0.0380961 0
0.333175 -0.0377597 0
0.329197 -0.0374248 0
0.325218 -0.0370957 0
0.321239 -0.0367667 0
0.317259 -0.0364427 0
0.313279 -0.036121 0
0.3093 -0.0358005 0
0.305319 -0.0354859 0
0.301339 -0.0351714 0
0.297359 -0.0348615 0
0.293378 -0.034554 0
0.289397 -0.0342476 0
0.285416 -0.0339471 0
0.281434 -0.0336466 0
0.277453 -0.0333504 0
0.273471 -0.0330568 0
0.269489 -0.032764 0
0.265507 -0.0324772 0
0.261524 -0.0321904 0
0.257542 -0.0319077 0
0.253559 -0.0316276 0
0.249576 -0.0313482 0
0.245593 -0.0310748 0
0.241609 -0.0308014 0
0.237626 -0.0305319 0
0.233642 -0.0302651 0
0.229658 -0.0299988 0
0.225674 -0.0297385 0
0.22169 -0.0294782 0
0.217706 -0.0292217 0
0.213721 -0.0289679 0
0.209737 -0.0287146 0
0.205752 -0.0284673 0
0.201767 -0.02822 0
0.197781 -0.0279764 0
0.193796 -0.0277356 0
0.189811 -0.0274951 0
0.185825 -0.0272607 0
0.181839 -0.0270264 0
0.177853 -0.0267956 0
0.173867 -0.0265678 0
0.169881 -0.0263402 0
0.165894 -0.026119 0
0.161908 -0.0258978 0
0.157921 -0.02568 0
0.153934 -0.0254654 0
0.149947 -0.0252509 0
0.14596 -0.025043 0
0.141973 -0.0248352 0
0.137986 -0.0246308 0
0.133998 -0.0244298 0
0.13001 -0.0242288 0
0.126022 -0.024035 0
0.122035 -0.0238411 0
0.118046 -0.0236509 0
0.114058 -0.0234644 0
0.11007 -0.0232779 0
0.106081 -0.023099 0
0.102093 -0.0229202 0
0.0981038 -0.0227453 0
0.0941148 -0.0225747 0
0.0901258 -0.0224041 0
0.0861364 -0.022242 0
0.0821471 -0.0220801 0
0.0781575 -0.0219227 0
0.0741678 -0.0217703 0
0.0701781 -0.021618 0
0.0661879 -0.0214757 0
0.0621978 -0.0213339 0
0.0582075 -0.0211975 0
0.054217 -0.0210676 0
0.0502265 -0.0209377 0
0.0462355 -0.0208207 0
0.0422446 -0.0207045 0
0.0382534 -0.0205955 0
0.034262 -0.0204956 0
0.0302706 -0.0203957 0
0.0262788 -0.0203144 0
0.022287 -0.0202345 0
0.018295 -0.0201654 0
0.0143027 -0.0201109 0
0.0103104 -0.0200563 0
0.00631785 -0.0200329 0
0.00232526 -0.0200121 0
-0.00166732 -0.020011 0
-0.00565987 -0.0200372 0
-0.00965243 -0.0200635 0
-0.0136441 -0.0201487 0
-0.0176357 -0.0202396 0
-0.0216262 -0.0203639 0
-0.0256151 -0.0205369 0
-0.029604 -0.0207098 0
-0.0335881 -0.0209694 0
-0.0375717 -0.0212385 0
-0.041552 -0.0215481 0
-0.0455272 -0.0219207 0
-0.0495024 -0.0222934 0
-0.0534681 -0.0227556 0
-0.0574324 -0.0232306 0
-0.0613923 -0.0237386 0
-0.0653442 -0.0243073 0
-0.0692962 -0.0248759 0
-0.0732381 -0.0255098 0
-0.0771778 -0.0261578 0
-0.0811144 -0.0268235 0
-0.0850433 -0.0275341 0
-0.0889722 -0.0282446 0
-0.0928949 -0.0289889 0
-0.0968152 -0.029745 0
-0.100735 -0.0305068 0
-0.104649 -0.0312931 0
-0.108563 -0.0320794 0
-0.112475 -0.032878 0
-0.116386 -0.0336836 0
-0.120296 -0.0344893 0
-0.124207 -0.0352949 0
-0.128117 -0.0361005 0
-0.132028 -0.0369056 0
-0.135939 -0.0377103 0
-0.13985 -0.0385149 0
-0.143762 -0.0393092 0
-0.147675 -0.0401031 0
-0.15159 -0.0408904 0
-0.155506 -0.041668 0
-0.159422 -0.0424455 0
-0.163342 -0.0432056 0
-0.167262 -0.0439627 0
-0.171183 -0.0447127 0
-0.175108 -0.0454463 0
-0.179033 -0.0461799 0
-0.182961 -0.0468942 0
-0.18689 -0.0476022 0
-0.190821 -0.0483046 0
-0.194755 -0.0489856 0
-0.198689 -0.0496667 0
-0.202626 -0.0503294 0
-0.206565 -0.0509829 0
-0.210504 -0.0516328 0
-0.214448 -0.0522585 0
-0.218391 -0.0528841 0
-0.222337 -0.0534933 0
-0.226284 -0.0540912 0
-0.230232 -0.0546875 0
-0.234184 -0.0552582 0
-0.238136 -0.0558289 0
-0.242089 -0.0563854 0
-0.246045 -0.0569295 0
-0.25 -0.0535098 0
-0.25 -0.0495461 0
-0.25 -0.0455824 0
-0.25 -0.0416187 0
-0.25 -0.0376551 0
-0.25 -0.0336914 0
-0.25 -0.0297277 0
-0.25 -0.025764 0
-0.25 -0.0218003 0
-0.25 -0.0178366 0
-0.25 -0.0138729 0
-0.25 -0.00990922 0
-0.25 -0.00594553 0
-0.25 -0.00198184 0
-0.25 0.00198184 0
-0.25 0.00594553 0
-0.25 0.00990922 0
-0.25 0.0138729 0
-0.25 0.0178366 0
-0.25 0.0218003 0
-0.25 0.025764 0
-0.25 0.0297277 0
-0.25 0.0336914 0
-0.25 0.0376551 0
-0.25 0.0416187 0
-0.25 0.0455824 0
-0.25 0.0495461 0
-0.25 0.0535098 0
-0.246045 0.0569295 0.01
-0.242089 0.0563854 0.01
-0.238136 0.0558289 0.01
-0.234184 0.0552582 0.01
-0.230232 0.0546875 0.01
-0.226284 0.0540912 0.01
-0.222337 0.0534933 0.01
-0.218391 0.0528841 0.01
-0.214448 0.0522585 0.01
-0.210504 0.0516328 0.01
-0.206565 0.0509829 0.01
-0.202626 0.0503294 0.01
-0.198689 0.0496667 0.01
-0.194755 0.0489856 0.01
-0.190821 0.0483046 0.01
-0.18689 0.0476022 0.01
-0.182961 0.0468942 0.01
-0.179033 0.0461799 0.01
-0.175108 0.0454463 0.01
-0.171183 0.0447127 0.01
-0.167262 0.0439627 0.01
[...]
CELL_DATA 7657
SCALARS rho float
LOOKUP_TABLE default
0.499221
0.480426
0.496438
0.489055
0.503451
0.498686
0.418216
0.498587
0.462153
0.50608
0.506116
0.498427
0.44321
0.49849
0.502504
0.497237
0.502348
0.49583
0.495868
0.49945
0.501429
0.495845
0.474845
0.495876
0.496177
0.497552
0.479614
0.448176
0.505186
0.498862
0.415515
0.496179
0.472901
0.502489
0.501168
0.414954
0.498832
0.47417
0.495515
0.449752
0.496572
0.460989
0.495591
0.498037
0.496623
0.496356
0.421011
0.498661
0.496142
0.500147
0.497856
0.489542
0.505207
0.505396
0.417515
0.498995
0.501684
0.499733
0.508651
0.416396
0.496196
0.496758
0.496396
0.496443
0.50625
0.506273
0.443271
0.499042
0.505738
0.513447
0.496366
0.444614
0.494075
0.505234
0.503286
0.498534
0.495853
0.498452
0.504889
0.446522
0.473034
0.498665
0.499442
0.496509
0.496416
0.506911
0.496399
0.514099
0.497638
0.478517
0.506264
0.50629
0.50818
0.505583
0.442916
0.507959
0.50875
0.476534
0.496692
0.442867
0.495837
0.495906
0.478694
0.500841
0.422177
0.466167
0.428117
0.498917
0.447859
0.500765
0.415432
0.499028
0.497112
0.499434
0.49606
0.511305
0.498909
0.451568
0.49691
0.498772
0.506468
0.506446
0.429285
0.479684
0.499114
0.498482
0.498369
0.495576
0.499045
0.495905
0.487377
0.495787
0.499009
0.493765
0.499427
0.424413
0.497498
0.472799
0.495847
0.495851
0.427757
0.476645
0.454509
0.445951
0.495877
0.501146
0.470838
0.481198
0.496762
0.428083
0.458222
0.5058
0.492123
0.495898
0.501221
0.480569
0.499043
0.495839
0.499445
0.42309
0.495842
0.499497
0.497484
0.5118
0.497054
0.478978
0.494807
0.496989
0.496125
0.497041
0.496566
0.467661
0.495791
0.457071
0.414897
0.414788
0.492675
0.510273
0.499069
0.456185
0.446158
0.446898
0.495892
0.495865
0.441541
0.508927
0.455051
0.493073
0.497912
0.511304
0.505168
0.505733
0.49944
0.507962
0.497888
0.499048
0.499497
0.499234
0.414884
0.496203
0.49585
0.495876
0.510697
0.509454
0.47999
0.50553
0.450067
0.423333
0.499214
0.509282
0.497833
0.496745
0.497116
0.499428
0.496633
0.493195
0.415411
0.505652
0.498985
0.496271
0.480045
0.48271
0.505941
0.499023
0.451451
0.474511
0.450132
0.468808
0.498477
0.505975
0.497368
0.497286
0.446024
0.50125
0.496226
0.49946
0.509323
0.495952
0.495937
0.498986
0.497905
0.463112
0.50963
0.473152
0.505891
0.508974
0.455169
0.509907
0.458106
0.49834
0.414924
0.492018
0.498976
0.498566
0.415126
0.492799
0.480782
0.502978
0.50537
0.498949
0.478339
0.505484
0.496653
0.496094
0.416074
0.496397
0.509282
0.464332
0.495838
0.459053
0.437747
0.477272
0.476488
0.499468
0.50672
0.496092
0.496661
0.499041
0.49905
0.498107
0.476954
0.496854
0.469847
0.436713
0.491784
0.415335
0.43652
0.486786
0.494545
0.495931
0.49605
0.493617
0.47112
0.505511
0.498954
0.480851
0.494924
0.498744
0.508702
0.496029
0.506117
0.505149
0.460417
0.453838
0.479863
0.50765
0.416559
0.494003
0.495913
0.498931
0.498176
0.509273
0.498811
0.457198
0.496107
0.498656
0.505468
0.503414
0.498988
0.4969
0.496454
0.474221
0.505453
0.509258
0.497211
0.503716
0.454763
0.490595
0.500295
0.495961
0.466635
0.503974
0.496486
0.484805
0.498594
0.501637
0.498947
0.46884
0.496056
0.505208
0.4978
0.414817
0.48379
0.496515
0.49952
0.415072
0.505166
0.482378
0.496279
0.500273
0.498782
0.495796
0.49944
0.495794
0.416755
0.496076
0.495767
0.424662
0.496102
0.422105
0.498709
0.495847
0.496238
0.508861
0.501689
0.414805
0.49776
0.447127
0.506198
0.504905
0.498871
0.505969
0.49935
0.499228
0.447915
0.444492
0.495748
0.50112
0.495961
0.496034
0.497012
0.495898
0.476062
0.496319
0.505328
0.505711
0.50241
0.498327
0.497644
0.499919
0.498643
0.498971
0.499014
0.499281
0.497412
0.507594
0.415406
0.469501
0.499706
0.498776
0.499451
0.499447
0.495891
0.505716
0.446538
0.507144
0.49762
0.436349
0.499975
0.502269
0.495763
0.498939
0.496355
0.488389
0.514868
0.499194
0.496623
0.498725
0.48844
0.477087
0.475041
0.49868
0.426352
0.489345
0.480903
0.496045
0.51211
0.498986
0.495232
0.495865
0.508115
0.416426
0.487092
0.4995
0.496967
0.496016
0.505072
0.495772
0.496506
0.495882
0.498758
0.494685
0.418015
0.505269
0.498092
0.496999
0.497883
0.424775
0.501935
0.513223
0.496095
0.496028
0.498642
0.420817
0.452558
0.515513
0.419201
0.497749
0.496638
0.509932
0.496618
0.498961
0.496005
0.5192
0.490931
0.499228
0.464804
0.468827
0.417574
0.416088
0.505244
0.498573
0.506009
0.498353
0.501534
0.495857
0.497015
0.498681
0.432569
0.505177
0.511884
0.505202
0.495761
0.495753
0.496947
0.499015
0.46657
0.418478
0.505843
0.496491
0.499349
0.496163
0.498404
0.516338
0.49827
0.431174
0.489077
0.498315
0.503523
0.501269
0.498847
0.498779
0.507548
0.498943
0.507843
0.507184
0.486927
0.494451
0.513012
0.495723
0.467908
0.496868
0.495828
0.499227
0.495865
0.499059
0.494973
0.495782
0.494826
0.476875
0.497545
0.499349
0.498749
0.48583
0.498036
0.498929
0.505621
0.49652
0.505705
0.496256
0.498858
0.496041
0.498697
0.507407
0.496711
0.495826
0.496547
0.498576
0.415637
0.495917
0.497058
0.495845
0.510573
0.498303
0.497076
0.499285
0.495802
0.494814
0.498928
0.495787
0.496176
0.488224
0.508419
0.497503
0.494839
0.495853
0.443732
0.498078
0.469576
0.498348
0.496194
0.498019
0.499146
0.434574
0.495789
0.494774
0.505769
0.499298
0.415142
0.500782
0.51866
0.498234
0.495768
0.478059
0.517189
0.427566
0.498644
0.499476
0.498243
0.498419
0.454208
0.498157
0.519638
0.498954
0.495753
0.507196
0.496543
0.51043
0.505661
0.433327
0.497945
0.49845
0.423641
0.512464
0.517462
0.498967
0.414768
0.455858
0.496962
0.49845
0.51729
0.501279
0.498934
0.497888
0.498668
0.498519
0.497608
0.515385
0.498908
0.501782
0.49764
0.49837
0.498342
0.494905
0.496898
0.496188
0.499469
0.50689
0.51242
0.498512
0.418089
0.505059
0.505397
0.499139
0.498657
0.496516
0.478353
0.512212
0.510765
0.460092
0.495803
0.499062
0.505226
0.496555
0.495937
0.49899
0.509957
0.496236
0.504846
0.495848
0.504688
0.495825
0.496004
0.431651
0.485166
0.499231
0.496216
0.496621
0.498115
0.498512
0.494826
0.496663
0.496368
0.499091
0.499466
0.498057
0.474744
0.495809
0.496349
0.496313
0.433288
0.496732
0.496657
0.513707
0.496339
0.495787
0.511145
0.498581
0.496777
0.495237
0.49917
0.516801
0.507847
0.496686
0.490583
0.493306
0.491149
0.492651
0.49951
0.49685
0.496989
0.496397
0.497219
0.49831
0.498725
0.496894
0.498816
0.488333
0.461831
0.419382
0.508186
0.498574
0.498163
0.496447
0.495777
0.498156
0.499323
0.452677
0.502784
0.502311
0.426106
0.495756
0.454003
0.468845
0.425604
0.496808
0.496971
0.457702
0.497019
0.49902
0.499086
0.49101
0.498518
0.504875
0.495848
0.432392
0.496305
0.50552
0.514485
0.509562
0.496552
0.494977
0.499008
0.498997
0.504485
0.496508
0.497351
0.504976
0.415989
0.515894
0.496215
0.504135
0.496276
0.502185
0.498117
0.514919
0.469951
0.505892
0.499071
0.496315
0.496443
0.488252
0.504016
0.51764
0.415707
0.498993
0.470042
0.465802
0.431083
0.497495
0.505518
0.433308
0.496487
0.495041
0.505643
0.501998
0.504449
0.447985
0.504547
0.505336
0.485115
0.504578
0.499261
0.496221
0.496418
0.498758
0.498801
0.465848
0.496428
0.498302
0.495787
0.495791
0.495815
0.462711
0.504425
0.498195
0.495672
0.503061
0.504293
0.49777
0.496566
0.49641
0.450571
0.49899
0.423461
0.499381
0.50427
0.494599
0.515606
0.495818
0.509694
0.424594
0.498035
0.496554
0.496701
0.496052
0.498913
0.517643
0.499172
0.50646
0.503699
0.423598
0.435036
0.498131
0.502722
0.51896
0.520159
0.497701
0.503867
0.498567
0.511532
0.450342
0.436539
0.497325
0.427268
0.503406
0.499392
0.497071
0.498938
0.501547
0.499386
0.475977
0.499381
0.499199
0.422194
0.517369
0.498068
0.447905
0.511519
0.431906
0.499087
0.497909
0.450657
0.497592
0.499148
0.414986
0.495527
0.499375
0.503012
0.496258
0.499213
0.497269
0.496182
0.505688
0.50495
0.502808
0.496299
0.517558
0.513814
0.495922
0.503192
0.50516
0.423549
0.46431
0.445053
0.496723
0.515611
0.504261
0.514971
0.501037
0.501998
0.499218
0.500732
0.502267
0.49624
0.49659
0.499141
0.428401
0.502014
0.42463
0.464108
0.50504
0.438033
0.497759
0.501963
0.447856
0.431184
0.503851
0.502995
0.498765
0.503562
0.498122
0.513375
0.497947
0.460363
0.457777
0.463606
0.49863
0.498442
0.503566
0.446713
0.496661
0.497516
0.502207
0.503227
0.502235
0.503242
0.497212
0.501988
0.515815
0.501818
0.50221
0.497447
0.499093
0.497745
0.465625
0.496777
0.468983
0.51247
0.416394
0.497896
0.455499
0.425913
0.518525
0.517675
0.504211
0.498235
0.502061
0.498172
0.471421
0.516389
0.499311
0.498029
0.50463
0.497828
0.517269
0.442674
0.501814
0.515109
0.516457
0.443207
0.496791
0.498049
0.497906
0.470502
0.51908
0.520215
0.499004
0.497082
0.49753
0.436399
0.445188
0.504467
0.499488
0.498842
0.495772
0.439631
0.453298
0.499231
0.49804
0.49676
0.467301
0.446653
0.446649
0.448663
0.497839
0.421398
0.492191
0.498305
0.415256
0.496263
0.49961
0.498038
0.498665
0.498996
0.498085
0.499156
0.455445
0.510719
0.497831
0.496433
0.498179
0.496289
0.496435
0.499327
0.507832
0.476053
0.496654
0.498762
0.498329
0.414681
0.499288
0.501291
0.497887
0.497986
0.496545
0.496612
0.499248
0.497349
0.495912
0.471913
0.442568
0.501304
0.414786
0.499366
0.51792
0.504398
0.504656
0.504102
0.500662
0.49923
0.498049
0.499452
0.509082
0.500441
0.497666
0.496461
0.499247
0.445226
0.49932
0.502225
0.497608
0.49647
0.439667
0.504854
0.498222
0.498051
0.443003
0.443008
0.468266
0.498037
0.499298
0.499396
0.496995
0.496243
0.415054
0.465749
0.495908
0.497653
0.5001
0.415717
0.496895
0.421068
0.41967
0.499011
0.504967
0.496792
0.50437
0.496268
0.496251
0.497084
0.504327
0.495911
0.499452
0.497821
0.495899
0.439773
0.496942
0.500959
0.482725
0.504271
0.47553
0.498205
0.503052
0.504022
0.498939
0.5004
0.502937
0.49946
0.498758
0.41987
0.475987
0.495805
0.504492
0.453873
0.49837
0.499004
0.496798
0.4986
0.497293
0.495921
0.499229
0.495893
0.499326
0.497961
0.502793
0.498573
0.497898
0.49642
0.504948
0.49684
0.499292
0.49846
0.49638
0.414998
0.497344
0.514758
0.474636
0.50373
0.513147
0.506636
0.497962
0.498553
0.499268
0.422094
0.436666
0.420764
0.499316
0.497651
0.508388
0.508039
0.445076
0.499117
0.498136
0.497266
0.414742
0.447875
0.498639
0.495726
0.504738
0.497529
0.498481
0.470454
0.497895
0.498997
0.473364
0.498976
0.497018
0.497791
0.499437
0.457627
0.498859
0.503612
0.502193
0.497697
0.501134
0.499302
0.497092
0.499184
0.504462
0.498652
0.475914
0.496828
0.496728
0.498735
0.501291
0.497272
0.475819
0.498546
0.498262
0.498548
0.415806
0.496542
0.499192
0.497746
0.442353
0.415847
0.497758
0.414845
0.49805
0.433768
0.448155
0.44817
0.498214
0.497909
0.496961
0.418079
0.504839
0.49678
0.504581
0.499223
0.416242
0.49809
0.498972
0.498201
0.430932
0.499242
0.503542
0.498469
0.498184
0.510592
0.499301
0.414636
0.415315
0.519049
0.518182
0.499103
0.503718
0.414706
0.498261
0.50462
0.499247
0.499369
0.4958
0.495848
0.504987
0.513189
0.491174
0.418917
0.499042
0.415862
0.498099
0.419782
0.498805
0.499183
0.496716
0.49849
0.498693
0.495918
0.495974
0.433402
0.504813
0.474669
0.504273
0.49803
0.499154
0.501256
0.499366
0.498234
0.495788
0.427413
0.415278
0.501126
0.498655
0.501053
0.498833
0.498898
0.470374
0.504568
0.499905
0.456302
0.498907
0.41692
0.442424
0.496975
0.500857
0.417885
0.499011
0.438137
0.421348
0.501993
0.496595
0.499983
0.504288
0.496719
0.495936
0.495876
0.477189
0.496603
0.4993
0.499185
0.423424
0.49583
0.498252
0.461616
0.415047
0.498615
0.496492
0.498476
0.499183
0.498917
0.499306
0.49644
0.50375
0.496366
0.497777
0.495823
0.497407
0.497295
0.496825
0.414704
0.498468
0.49588
0.49595
0.498428
0.498824
0.497518
0.505344
0.498675
0.495834
0.498152
0.497364
0.497842
0.49487
0.497445
0.494927
0.49911
0.495841
0.416125
0.495955
0.496808
0.49686
0.499262
0.499112
0.498989
0.499299
0.498923
0.504725
0.498364
0.49832
0.439699
0.499251
0.49677
0.499023
0.498831
0.499371
0.49891
0.497012
0.497331
0.499109
0.512059
0.509246
0.498981
0.498889
0.498138
0.499173
0.497038
0.496748
0.496787
0.49584
0.498251
0.498736
0.49911
0.4994
0.495887
0.484073
0.495942
0.495867
0.499198
0.435076
0.498479
0.498972
0.499027
0.497906
0.497846
0.497521
0.500535
0.498686
0.416844
0.504312
0.499341
0.447904
0.496416
0.504894
0.500309
0.495834
0.416124
0.441492
0.445058
0.49656
0.497459
0.498759
0.495978
0.495836
0.495974
0.49927
0.496036
0.49611
0.495889
0.495863
0.499079
0.495926
0.498694
0.465498
0.495852
0.501848
0.50061
0.497352
0.498398
0.495819
0.498321
0.499074
0.498398
0.471871
0.495957
0.498979
0.498967
0.498774
0.499119
0.498962
0.498539
0.433254
0.498217
0.498165
0.498845
0.498251
0.498944
0.500982
0.419821
0.498333
0.496383
0.499188
0.496719
0.492248
0.500746
0.49754
0.425769
0.496109
0.498709
0.427529
0.498609
0.495603
0.496019
0.416742
0.416769
0.495585
0.495599
0.496339
0.498175
0.504969
0.505045
0.494878
0.498875
0.499235
0.49885
0.486479
0.496886
0.414558
0.498322
0.498161
0.497393
0.442343
0.474814
0.498726
0.499065
0.49905
0.498961
0.499
0.505415
0.497422
0.497555
0.49769
0.498855
0.497294
0.498879
0.498392
0.497853
0.501537
0.503191
0.504323
0.498539
0.498214
0.499054
0.498175
0.497133
0.498027
0.497487
0.495833
0.498465
0.49799
0.497495
0.505221
0.497828
0.505496
0.49879
0.498551
0.499868
0.504387
0.497969
0.499238
0.499933
0.439628
0.498789
0.497481
0.49797
0.504768
0.497767
0.498052
0.417832
0.504875
0.497103
0.498406
0.498602
0.498623
0.497414
0.418656
0.505191
0.498283
0.50546
0.468413
0.498617
0.49797
0.468814
0.498988
0.497875
0.497497
0.465434
0.505601
0.46177
0.505781
0.505747
0.505423
0.459665
0.496775
0.505157
0.498201
0.504605
0.502751
0.498457
0.499267
0.505522
0.477226
0.417826
0.505405
0.498532
0.497682
0.419725
0.47949
0.478357
0.497954
0.497238
0.459798
0.48702
0.496386
0.505349
0.498926
0.502365
0.497546
0.493155
0.505635
0.5056
0.500441
0.498373
0.500667
0.498597
0.481654
0.496378
0.496314
0.497345
0.504976
0.498696
0.504654
0.505138
0.498776
0.461729
0.499355
0.499295
0.431
0.414482
0.414334
0.498939
0.497765
0.500361
0.496296
0.497844
0.497622
0.497856
0.497032
0.497894
0.505546
0.495897
0.505191
0.453035
0.501433
0.497354
0.494441
0.494462
0.500016
0.496215
0.501573
0.498114
0.497831
0.497487
0.495894
0.495954
0.498098
0.498011
0.498814
0.504702
0.496771
0.497806
0.497211
0.497936
0.497032
0.496993
0.498889
0.498425
0.497484
0.498947
0.497925
0.503376
0.498853
0.498748
0.504599
0.497686
0.497679
0.497975
0.496526
0.498518
0.497237
0.498413
0.498386
0.49896
0.497825
0.497768
0.414604
0.496918
0.504981
0.498822
0.497226
0.497891
0.496465
0.497168
0.496858
0.496908
0.495898
0.49596
0.49599
0.498246
0.496372
0.495801
0.495859
0.504646
0.497114
0.495822
0.495582
0.497618
0.497551
0.497586
0.496031
0.497408
0.496005
0.496256
0.496286
0.49803
0.497074
0.495813
0.499296
0.496072
0.442412
0.498187
0.516999
0.504937
0.497755
0.49646
0.497212
0.50524
0.505206
0.505347
0.49913
0.503244
0.50109
0.495815
0.505334
0.477675
0.497501
0.502598
0.505343
0.497729
0.498611
0.498795
0.473528
0.499205
0.499214
0.504768
0.428262
0.425719
0.497285
0.499031
0.496024
0.49673
0.49692
0.497413
0.500001
0.499683
0.499172
0.503788
0.504535
0.49904
0.498667
0.415637
0.417077
0.502334
0.496267
0.498833
0.500639
0.457574
0.504898
0.50525
0.498881
0.504533
0.505261
0.496066
0.497951
0.436682
0.496418
0.503963
0.514757
0.492503
0.504095
0.497424
0.505127
0.415213
0.497488
0.425738
0.495801
0.497158
0.50513
0.430886
0.430935
0.498755
0.497193
0.499652
0.504148
0.496384
0.497692
0.452973
0.497049
0.501757
0.498969
0.505284
0.503052
0.502821
0.497811
0.497561
0.498101
0.503302
0.497387
0.50516
0.497711
0.492777
0.501147
0.49839
0.496742
0.498133
0.498079
0.502577
0.501323
0.504521
0.503726
0.495824
0.504773
0.505018
0.494348
0.498519
0.496173
0.504566
0.504693
0.498582
0.49717
0.497882
0.495815
0.497812
0.500798
0.498667
0.498633
0.505107
0.505077
0.428945
0.50522
0.502921
0.499169
0.497145
0.496667
0.501757
0.503458
0.499171
0.503946
0.504917
0.496124
0.498003
0.502845
0.50495
0.500118
0.504665
0.498943
0.497218
0.492428
0.497464
0.504669
0.504663
0.500163
0.497159
0.497618
0.496994
0.502919
0.494241
0.504985
0.475932
0.498411
0.497217
0.505086
0.501578
0.498959
0.497363
0.501701
0.503574
0.504457
0.495898
0.495904
0.499231
0.495814
0.504081
0.486189
0.496402
0.503354
0.49565
0.497707
0.492648
0.504349
0.496379
0.482642
0.502682
0.496237
0.50003
0.496982
0.498872
0.504894
0.505308
0.497274
0.497284
0.496306
0.50241
0.505001
0.499118
0.504714
0.500095
0.498973
0.502631
0.497565
0.498831
0.502309
0.491557
0.497425
0.503163
0.497088
0.504547
0.505081
0.493515
0.495869
0.496156
0.497796
0.499269
0.49592
0.499287
0.504706
0.497225
0.502862
0.50457
0.50302
0.501985
0.504342
0.498451
0.504841
0.445122
0.503313
0.439705
0.504501
0.501509
0.500048
0.504914
0.500974
0.497881
0.497839
0.497858
0.497538
0.498136
0.505009
0.467257
0.463722
0.495838
0.495876
0.502763
0.50461
0.502427
0.498377
0.499311
0.504494
0.496442
0.498874
0.503019
0.503219
0.497948
0.505022
0.416901
0.418899
0.505246
0.504404
0.504423
0.498918
0.500896
0.503445
0.502647
0.499704
0.498902
0.505547
0.501263
0.504395
0.495231
0.497472
0.497508
0.496767
0.498909
0.502195
0.501705
0.500376
0.499791
0.501495
0.493876
0.504435
0.49616
0.473401
0.502417
0.502964
0.504761
0.496931
0.500895
0.503444
0.497406
0.496214
0.496242
0.49883
0.500989
0.504789
0.502425
0.497899
0.495847
0.501564
0.498459
0.50467
0.497125
0.500454
0.497047
0.499716
0.498731
0.497413
0.501027
0.504936
0.497097
0.498264
0.497155
0.498428
0.501022
0.495906
0.49939
0.503738
0.503802
0.501632
0.50257
0.501456
0.495896
0.500702
0.504231
0.500368
0.495812
0.504801
0.503476
0.495602
0.503899
0.502227
0.503488
0.47086
0.504418
0.50246
0.500429
0.501047
0.503329
0.496195
0.503718
0.498545
0.498053
0.503145
0.503044
0.502889
0.499906
0.50438
0.5016
0.504302
0.501281
0.497769
0.502686
0.497356
0.496352
0.49643
0.497103
0.504189
0.499329
0.503221
0.496675
0.501745
0.501339
0.501241
0.498579
0.50152
0.500715
0.496271
0.500675
0.495994
0.50128
0.498938
0.496443
0.505008
0.495809
0.504899
0.502013
0.503943
0.493443
0.500044
0.428356
0.433861
0.499153
0.495995
0.499135
0.501378
0.496354
0.496196
0.505126
0.500167
0.504016
0.498101
0.498824
0.503578
0.502974
0.50302
0.502471
0.501504
0.499606
0.500207
0.496012
0.50393
0.496639
0.414682
0.496554
0.49674
0.49627
0.496929
0.496025
0.500822
0.496659
0.499988
0.492623
0.495271
0.499391
0.500155
0.500263
0.497465
0.492791
0.505032
0.503258
0.500056
0.492206
0.499356
0.49489
0.496983
0.504406
0.500975
0.499045
0.504592
0.477278
0.499274
0.503668
0.495266
0.504334
0.49968
0.471785
0.498182
0.504892
0.500359
0.499035
0.501998
0.498976
0.501204
0.499684
0.504453
0.497931
0.417129
0.502144
0.497158
0.496833
0.49763
0.492687
0.498624
0.504731
0.499699
0.500754
0.499395
0.504814
0.499005
0.499579
0.497868
0.498663
0.415292
0.497884
0.498746
0.503198
0.495786
0.499005
0.496339
0.495615
0.496904
0.499669
0.498342
0.507281
0.497699
0.498983
0.501525
0.497354
0.502623
0.501673
0.50813
0.504868
0.49798
0.499968
0.497556
0.505039
0.496316
0.503156
0.498995
0.504421
0.505096
0.498584
0.504842
0.50288
0.496745
0.50037
0.497102
0.497849
0.497284
0.498021
0.4961
0.504197
0.507431
0.494879
0.501524
0.496868
0.498565
0.498358
0.504968
0.503757
0.49711
0.496816
0.495874
0.496839
0.498238
0.502005
0.50216
0.496782
0.499699
0.500029
0.495913
0.504738
0.44705
0.43814
0.498261
0.507494
0.49747
0.468848
0.463768
0.495848
0.497728
0.504765
0.501078
0.498011
0.497065
0.504005
0.497712
0.496294
0.507806
0.498823
0.417851
0.496589
0.496363
0.496701
0.500705
0.496878
0.503079
0.501282
0.49782
0.499496
0.506338
0.496731
0.507856
0.498915
0.508411
0.497824
0.498132
0.496037
0.497933
0.503436
0.508177
0.496637
0.472039
0.496392
0.499607
0.496127
0.49871
0.499783
0.497437
0.499695
0.504113
0.496603
0.495848
0.496707
0.497771
0.496293
0.497604
0.498019
0.500194
0.50321
0.507854
0.49665
0.47084
0.496625
0.496211
0.494962
0.504292
0.496323
0.497499
0.50488
0.499112
0.496128
0.496258
0.496068
0.504879
0.505861
0.496105
0.502365
0.496068
0.49819
0.496548
0.496154
0.494941
0.497063
0.433936
0.425807
0.506144
0.505813
0.497407
0.494065
0.496757
0.496117
0.488336
0.488736
0.505963
0.504198
0.414719
0.501086
0.500106
0.497538
0.501358
0.502239
0.505573
0.496734
0.495981
0.498705
0.496056
0.495276
0.501517
0.496292
0.495439
0.496299
0.496684