# vtk DataFile Version 1.0
unstructured grid
ascii
DATASET UNSTRUCTURED_GRID
points 8094 float
-0.25 0.0574735 0
0.5 0.0546937 0
0.5 -0.0546937 0
-0.25 -0.0574735 0
-0.25 0.0574735 0.01
0.5 0.0546937 0.01
0.5 -0.0546937 0.01
-0.25 -0.0574735 0.01
-0.246045 0.0569295 0
-0.242089 0.0563854 0
-0.238136 0.0558289 0
-0.234184 0.0552582 0
-0.230232 0.0546875 0
-0.226284 0.0540912 0
-0.222337 0.0534933 0
-0.218391 0.0528841 0
-0.214448 0.0522585 0
-0.210504 0.0516328 0
-0.206565 0.0509829 0
-0.202626 0.0503294 0
-0.198689 0.0496667 0
-0.194755 0.0489856 0
-0.190821 0.0483046 0
-0.18689 0.0476022 0
-0.182961 0.0468942 0
-0.179033 0.0461799 0
-0.175108 0.0454463 0
-0.171183 0.0447127 0
-0.167262 0.0439627 0
-0.163342 0.0432056 0
-0.159422 0.0424455 0
-0.155506 0.041668 0
-0.15159 0.0408904 0
-0.147675 0.0401031 0
-0.143762 0.0393092 0
-0.13985 0.0385149 0
-0.135939 0.0377103 0
-0.132028 0.0369056 0
-0.128117 0.0361005 0
-0.124207 0.0352949 0
-0.120296 0.0344893 0
-0.116386 0.0336836 0
-0.112475 0.032878 0
-0.108563 0.0320794 0
-0.104649 0.0312931 0
-0.100735 0.0305068 0
-0.0968152 0.029745 0
-0.0928949 0.0289889 0
-0.0889722 0.0282446 0
-0.0850433 0.0275341 0
-0.0811144 0.0268235 0
-0.0771778 0.0261578 0
-0.0732381 0.0255098 0
-0.0692962 0.0248759 0
-0.0653442 0.0243073 0
-0.0613923 0.0237386 0
-0.0574324 0.0232306 0
-0.0534681 0.0227556 0
-0.0495024 0.0222934 0
-0.0455272 0.0219207 0
-0.041552 0.0215481 0
-0.0375717 0.0212385 0
-0.0335881 0.0209694 0
-0.029604 0.0207098 0
-0.0256151 0.0205369 0
-0.0216262 0.0203639 0
-0.0176357 0.0202396 0
-0.0136441 0.0201487 0
-0.00965243 0.0200635 0
-0.00565987 0.0200372 0
-0.00166732 0.020011 0
0.00232526 0.0200121 0
0.00631785 0.0200329 0
0.0103104 0.0200563 0
0.0143027 0.0201109 0
0.018295 0.0201654 0
0.022287 0.0202345 0
0.0262788 0.0203144 0
0.0302706 0.0203957 0
0.034262 0.0204956 0
0.0382534 0.0205955 0
0.0422446 0.0207045 0
0.0462355 0.0208207 0
0.0502265 0.0209377 0
0.054217 0.0210676 0
0.0582075 0.0211975 0
0.0621978 0.0213339 0
0.0661879 0.0214757 0
0.0701781 0.021618 0
0.0741678 0.0217703 0
0.0781575 0.0219227 0
0.0821471 0.0220801 0
0.0861364 0.022242 0
0.0901258 0.0224041 0
0.0941148 0.0225747 0
0.0981038 0.0227453 0
0.102093 0.0229202 0
0.106081 0.023099 0
0.11007 0.0232779 0
0.114058 0.0234644 0
0.118046 0.0236509 0
0.122035 0.0238411 0
0.126022 0.024035 0
0.13001 0.0242288 0
0.133998 0.0244298 0
0.137986 0.0246308 0
0.141973 0.0248352 0
0.14596 0.025043 0
0.149947 0.0252509 0
0.153934 0.0254654 0
0.157921 0.02568 0
0.161908 0.0258978 0
0.165894 0.026119 0
0.169881 0.0263402 0
0.173867 0.0265678 0
0.177853 0.0267956 0
0.181839 0.0270264 0
0.185825 0.0272607 0
0.189811 0.0274951 0
0.193796 0.0277356 0
0.197781 0.0279764 0
0.201767 0.02822 0
0.205752 0.0284673 0
0.209737 0.0287146 0
0.213721 0.0289679 0
0.217706 0.0292217 0
0.22169 0.0294782 0
0.225674 0.0297385 0
0.229658 0.0299988 0
0.233642 0.0302651 0
0.237626 0.0305319 0
0.241609 0.0308014 0
0.245593 0.0310748 0
0.249576 0.0313482 0
0.253559 0.0316276 0
0.257542 0.0319077 0
0.261524 0.0321904 0
0.265507 0.0324772 0
0.269489 0.032764 0
0.273471 0.0330568 0
0.277453 0.0333504 0
0.281434 0.0336466 0
0.285416 0.0339471 0
0.289397 0.0342476 0
0.293378 0.034554 0
0.297359 0.0348615 0
0.301339 0.0351714 0
0.305319 0.0354859 0
0.3093 0.0358005 0
0.313279 0.036121 0
0.317259 0.0364427 0
0.321239 0.0367667 0
0.325218 0.0370957 0
0.329197 0.0374248 0
0.333175 0.0377597 0
0.337154 0.0380961 0
0.341132 0.0384347 0
0.34511 0.0387786 0
0.349088 0.0391226 0
0.353065 0.0394724 0
0.357042 0.0398239 0
0.361019 0.0401775 0
0.364995 0.0405368 0
0.368972 0.0408961 0
0.372948 0.0412613 0
0.376924 0.0416285 0
0.380899 0.0419975 0
0.384874 0.0423727 0
0.388849 0.0427479 0
0.392823 0.0431289 0
0.396798 0.0435123 0
0.400772 0.0438973 0
0.404745 0.044289 0
0.408718 0.0446807 0
0.412691 0.0450781 0
0.416664 0.0454782 0
0.420636 0.0458797 0
0.424608 0.0462883 0
0.42858 0.046697 0
0.432551 0.0471114 0
0.436521 0.0475289 0
0.440492 0.0479474 0
0.444462 0.0483738 0
0.448432 0.0488001 0
0.452401 0.0492319 0
0.45637 0.0496673 0
0.460338 0.0501035 0
0.464306 0.0505482 0
0.468274 0.0509928 0
0.472241 0.0514427 0
0.476208 0.0518968 0
0.480175 0.0523512 0
0.48414 0.0528148 0
0.488106 0.0532784 0
0.492071 0.0537471 0
0.496036 0.0542204 0
0.5 0.050787 0
0.5 0.0468803 0
0.5 0.0429736 0
0.5 0.0390669 0
0.5 0.0351602 0
0.5 0.0312535 0
0.5 0.0273468 0
0.5 0.0234402 0
0.5 0.0195335 0
0.5 0.0156268 0
0.5 0.0117201 0
0.5 0.00781339 0
0.5 0.00390669 0
0.5 1.43781e-13 0
0.5 -0.00390669 0
0.5 -0.00781339 0
0.5 -0.0117201 0
0.5 -0.0156268 0
0.5 -0.0195335 0
0.5 -0.0234402 0
0.5 -0.0273468 0
0.5 -0.0312535 0
0.5 -0.0351602 0
0.5 -0.0390669 0
0.5 -0.0429736 0
0.5 -0.0468803 0
0.5 -0.050787 0
0.496036 -0.0542204 0
0.492071 -0.0537471 0
0.488106 -0.0532784 0
0.48414 -0.0528148 0
0.480175 -0.0523512 0
0.476208 -0.0518968 0
0.472241 -0.0514427 0
0.468274 -0.0509928 0
0.464306 -0.0505482 0
0.460338 -0.0501035 0
0.45637 -0.0496673 0
0.452401 -0.0492319 0
0.448432 -0.0488001 0
0.444462 -0.0483738 0
0.440492 -0.0479474 0
0.436521 -0.0475289 0
0.432551 -0.0471114 0
0.42858 -0.046697 0
0.424608 -0.0462883 0
0.420636 -0.0458797 0
0.416664 -0.0454782 0
0.412691 -0.0450781 0
0.408718 -0.0446807 0
0.404745 -0.044289 0
0.400772 -0.0438973 0
0.396798 -0.0435123 0
0.392823 -0.0431289 0
0.388849 -0.0427479 0
0.384874 -0.0423727 0
0.380899 -0.0419975 0
0.376924 -0.0416285 0
0.372948 -0.0412613 0
0.368972 -0.0408961 0
0.364995 -0.0405368 0
0.361019 -0.0401775 0
0.357042 -0.0398239 0
0.353065 -0.0394724 0
0.349088 -0.0391226 0
0.34511 -0.0387786 0
0.341132 -0.0384347 0
0.337154 -0.0380961 0
0.333175 -0.0377597 0
0.329197 -0.0374248 0
0.325218 -0.0370957 0
0.321239 -0.0367667 0
0.317259 -0.0364427 0
0.313279 -0.036121 0
0.3093 -0.0358005 0
0.305319 -0.0354859 0
0.301339 -0.0351714 0
0.297359 -0.0348615 0
0.293378 -0.034554 0
0.289397 -0.0342476 0
0.285416 -0.0339471 0
0.281434 -0.0336466 0
0.277453 -0.0333504 0
0.273471 -0.0330568 0
0.269489 -0.032764 0
0.265507 -0.0324772 0
0.261524 -0.0321904 0
0.257542 -0.0319077 0
0.253559 -0.0316276 0
0.249576 -0.0313482 0
0.245593 -0.0310748 0
0.241609 -0.0308014 0
0.237626 -0.0305319 0
0.233642 -0.0302651 0
0.229658 -0.0299988 0
0.225674 -0.0297385 0
0.22169 -0.0294782 0
0.217706 -0.0292217 0
0.213721 -0.0289679 0
0.209737 -0.0287146 0
0.205752 -0.0284673 0
0.201767 -0.02822 0
0.197781 -0.0279764 0
0.193796 -0.0277356 0
0.189811 -0.0274951 0
0.185825 -0.0272607 0
0.181839 -0.0270264 0
0.177853 -0.0267956 0
0.173867 -0.0265678 0
0.169881 -0.0263402 0
0.165894 -0.026119 0
0.161908 -0.0258978 0
0.157921 -0.02568 0
0.153934 -0.0254654 0
0.149947 -0.0252509 0
0.14596 -0.025043 0
0.141973 -0.0248352 0
0.137986 -0.0246308 0
0.133998 -0.0244298 0
0.13001 -0.0242288 0
0.126022 -0.024035 0
0.122035 -0.0238411 0
0.118046 -0.0236509 0
0.114058 -0.0234644 0
0.11007 -0.0232779 0
0.106081 -0.023099 0
0.102093 -0.0229202 0
0.0981038 -0.0227453 0
0.0941148 -0.0225747 0
0.0901258 -0.0224041 0
0.0861364 -0.022242 0
0.0821471 -0.0220801 0
0.0781575 -0.0219227 0
0.0741678 -0.0217703 0
0.0701781 -0.021618 0
0.0661879 -0.0214757 0
0.0621978 -0.0213339 0
0.0582075 -0.0211975 0
0.054217 -0.0210676 0
0.0502265 -0.0209377 0
0.0462355 -0.0208207 0
0.0422446 -0.0207045 0
0.0382534 -0.0205955 0
0.034262 -0.0204956 0
0.0302706 -0.0203957 0
0.0262788 -0.0203144 0
0.022287 -0.0202345 0
0.018295 -0.0201654 0
0.0143027 -0.0201109 0
0.0103104 -0.0200563 0
0.00631785 -0.0200329 0
0.00232526 -0.0200121 0
-0.00166732 -0.020011 0
-0.00565987 -0.0200372 0
-0.00965243 -0.0200635 0
-0.0136441 -0.0201487 0
-0.0176357 -0.0202396 0
-0.0216262 -0.0203639 0
-0.0256151 -0.0205369 0
-0.029604 -0.0207098 0
-0.0335881 -0.0209694 0
-0.0375717 -0.0212385 0
-0.041552 -0.0215481 0
-0.0455272 -0.0219207 0
-0.0495024 -0.0222934 0
-0.0534681 -0.0227556 0
-0.0574324 -0.0232306 0
-0.0613923 -0.0237386 0
-0.0653442 -0.0243073 0
-0.0692962 -0.0248759 0
-0.0732381 -0.0255098 0
-0.0771778 -0.0261578 0
-0.0811144 -0.0268235 0
-0.0850433 -0.0275341 0
-0.0889722 -0.0282446 0
-0.0928949 -0.0289889 0
-0.0968152 -0.029745 0
-0.100735 -0.0305068 0
-0.104649 -0.0312931 0
-0.108563 -0.0320794 0
-0.112475 -0.032878 0
-0.116386 -0.0336836 0
-0.120296 -0.0344893 0
-0.124207 -0.0352949 0
-0.128117 -0.0361005 0
-0.132028 -0.0369056 0
-0.135939 -0.0377103 0
-0.13985 -0.0385149 0
-0.143762 -0.0393092 0
-0.147675 -0.0401031 0
-0.15159 -0.0408904 0
-0.155506 -0.041668 0
-0.159422 -0.0424455 0
-0.163342 -0.0432056 0
-0.167262 -0.0439627 0
-0.171183 -0.0447127 0
-0.175108 -0.0454463 0
-0.179033 -0.0461799 0
-0.182961 -0.0468942 0
-0.18689 -0.0476022 0
-0.190821 -0.0483046 0
-0.194755 -0.0489856 0
-0.198689 -0.0496667 0
-0.202626 -0.0503294 0
-0.206565 -0.0509829 0
-0.210504 -0.0516328 0
-0.214448 -0.0522585 0
-0.218391 -0.0528841 0
-0.222337 -0.0534933 0
-0.226284 -0.0540912 0
-0.230232 -0.0546875 0
-0.234184 -0.0552582 0
-0.238136 -0.0558289 0
-0.242089 -0.0563854 0
-0.246045 -0.0569295 0
-0.25 -0.0535098 0
-0.25 -0.0495461 0
-0.25 -0.0455824 0
-0.25 -0.0416187 0
-0.25 -0.0376551 0
-0.25 -0.0336914 0
-0.25 -0.0297277 0
-0.25 -0.025764 0
-0.25 -0.0218003 0
-0.25 -0.0178366 0
-0.25 -0.0138729 0
-0.25 -0.00990922 0
-0.25 -0.00594553 0
-0.25 -0.00198184 0
-0.25 0.00198184 0
-0.25 0.00594553 0
-0.25 0.00990922 0
-0.25 0.0138729 0
-0.25 0.0178366 0
-0.25 0.0218003 0
-0.25 0.025764 0
-0.25 0.0297277 0
-0.25 0.0336914 0
-0.25 0.0376551 0
-0.25 0.0416187 0
-0.25 0.0455824 0
-0.25 0.0495461 0
-0.25 0.0535098 0
-0.246045 0.0569295 0.01
-0.242089 0.0563854 0.01
-0.238136 0.0558289 0.01
-0.234184 0.0552582 0.01
-0.230232 0.0546875 0.01
-0.226284 0.0540912 0.01
-0.222337 0.0534933 0.01
-0.218391 0.0528841 0.01
-0.214448 0.0522585 0.01
-0.210504 0.0516328 0.01
-0.206565 0.0509829 0.01
-0.202626 0.0503294 0.01
-0.198689 0.0496667 0.01
-0.194755 0.0489856 0.01
-0.190821 0.0483046 0.01
-0.18689 0.0476022 0.01
-0.182961 0.0468942 0.01
-0.179033 0.0461799 0.01
-0.175108 0.0454463 0.01
-0.171183 0.0447127 0.01
-0.167262 0.0439627 0.01
[...]
CELL_DATA 7657
SCALARS rho float
LOOKUP_TABLE default
0.500256
0.432369
0.51215
0.435344
0.504787
0.459688
0.411745
0.503387
0.418669
0.504096
0.504133
0.50394
0.411823
0.503654
0.505066
0.505588
0.505143
0.512038
0.511953
0.500304
0.505305
0.51174
0.428231
0.511986
0.509503
0.506186
0.430253
0.413319
0.503031
0.456376
0.415238
0.509476
0.426839
0.49894
0.499248
0.414673
0.457723
0.4281
0.502269
0.422533
0.51166
0.418292
0.442477
0.451323
0.511465
0.512127
0.410762
0.458465
0.509515
0.499998
0.450422
0.435684
0.502874
0.503352
0.411877
0.459998
0.505243
0.505658
0.482559
0.415817
0.509421
0.510964
0.509028
0.508944
0.50443
0.504442
0.411607
0.467516
0.504029
0.479671
0.51242
0.41227
0.440263
0.502896
0.498083
0.457187
0.511777
0.456017
0.497713
0.412126
0.426092
0.502953
0.500413
0.51207
0.51207
0.486077
0.512299
0.478915
0.506035
0.42986
0.504295
0.504321
0.483763
0.503736
0.421308
0.487982
0.48709
0.430082
0.511164
0.421274
0.512016
0.510537
0.431844
0.50537
0.410447
0.422348
0.418592
0.476373
0.412687
0.505454
0.415143
0.468722
0.446915
0.500371
0.51253
0.471384
0.477896
0.422761
0.505494
0.455417
0.504674
0.504661
0.41896
0.429563
0.501364
0.503678
0.5042
0.441944
0.464038
0.442643
0.434086
0.511381
0.461252
0.439779
0.500454
0.418014
0.505598
0.427042
0.511207
0.511118
0.418752
0.429177
0.423433
0.421759
0.512227
0.505309
0.425644
0.433121
0.511213
0.418656
0.42395
0.504095
0.442758
0.442277
0.505242
0.431872
0.467162
0.511587
0.500413
0.417815
0.511517
0.505696
0.506331
0.470356
0.509343
0.431572
0.502303
0.446255
0.512396
0.505598
0.511873
0.423171
0.51148
0.42378
0.414057
0.414277
0.438208
0.488015
0.501516
0.423703
0.421831
0.412839
0.51081
0.51065
0.411071
0.481285
0.415669
0.438683
0.505184
0.487964
0.502964
0.503701
0.500442
0.491527
0.505315
0.46262
0.500163
0.505715
0.414412
0.512314
0.512124
0.510633
0.488983
0.477218
0.430392
0.503258
0.413179
0.410008
0.497488
0.491122
0.501541
0.511168
0.508994
0.500497
0.511724
0.439066
0.413012
0.485099
0.47339
0.512364
0.432593
0.432744
0.504126
0.469195
0.413877
0.426924
0.414044
0.426559
0.451533
0.504139
0.506939
0.507494
0.412863
0.505401
0.50523
0.500296
0.478578
0.510368
0.510227
0.505735
0.500559
0.425333
0.489118
0.426504
0.496803
0.493118
0.41588
0.492464
0.416396
0.450722
0.414487
0.437553
0.472643
0.498242
0.413304
0.438594
0.433766
0.50485
0.503318
0.473513
0.429233
0.502966
0.505377
0.512549
0.412616
0.512268
0.475659
0.42556
0.512102
0.4244
0.410843
0.429368
0.42912
0.500257
0.496337
0.512385
0.445313
0.468757
0.467069
0.504836
0.430394
0.507829
0.427074
0.420245
0.437347
0.414936
0.420117
0.433742
0.445364
0.51239
0.512354
0.439297
0.427397
0.502839
0.475115
0.430827
0.502452
0.502765
0.471195
0.512341
0.48709
0.504303
0.424611
0.414704
0.43034
0.484919
0.412337
0.439829
0.512146
0.475067
0.504676
0.474296
0.505746
0.416308
0.509622
0.505741
0.502925
0.504856
0.47163
0.507698
0.444698
0.428098
0.502902
0.480003
0.505586
0.504589
0.415152
0.441011
0.505616
0.512449
0.422274
0.504535
0.505362
0.434554
0.503215
0.453146
0.476243
0.426567
0.5097
0.502838
0.505528
0.413752
0.435879
0.505389
0.500055
0.413601
0.502928
0.434536
0.512487
0.50555
0.460621
0.511669
0.500411
0.511583
0.41243
0.509782
0.511286
0.40983
0.509692
0.410203
0.48473
0.511807
0.512479
0.472649
0.505164
0.414071
0.505683
0.422011
0.483875
0.486161
0.46174
0.464319
0.50053
0.501088
0.413432
0.412417
0.51143
0.452613
0.512265
0.505118
0.509787
0.512087
0.42894
0.508933
0.502991
0.504261
0.499763
0.504078
0.505839
0.505638
0.486108
0.473371
0.470897
0.500883
0.506535
0.480211
0.413263
0.42263
0.505698
0.46083
0.500401
0.500446
0.512289
0.503226
0.42191
0.464137
0.505657
0.410543
0.505568
0.505053
0.511375
0.458699
0.50887
0.434764
0.489117
0.50115
0.511459
0.502764
0.434935
0.430236
0.428012
0.502958
0.410006
0.439655
0.432541
0.51256
0.487319
0.501835
0.441744
0.510363
0.469542
0.412366
0.436729
0.500191
0.5076
0.504979
0.504391
0.511182
0.505414
0.512017
0.454347
0.504501
0.41643
0.503051
0.504832
0.509971
0.501322
0.410007
0.505082
0.470208
0.509579
0.509828
0.486516
0.410689
0.414251
0.487919
0.411396
0.50571
0.505447
0.489719
0.49954
0.471407
0.512364
0.486579
0.440892
0.501199
0.421227
0.424185
0.411998
0.412694
0.503027
0.488123
0.462103
0.500677
0.505433
0.510731
0.507531
0.453488
0.419696
0.502908
0.473121
0.503038
0.511549
0.511351
0.510268
0.469847
0.426176
0.416481
0.503887
0.508693
0.505691
0.509231
0.503825
0.490675
0.504354
0.410135
0.43524
0.454674
0.499272
0.500205
0.502552
0.502801
0.467821
0.502038
0.478835
0.481443
0.437192
0.440448
0.472283
0.50506
0.426483
0.507866
0.510816
0.50577
0.511917
0.50181
0.504026
0.511689
0.502918
0.428873
0.505705
0.500648
0.502916
0.43319
0.505019
0.502275
0.503216
0.511842
0.503389
0.509067
0.480166
0.505227
0.50307
0.461803
0.511303
0.510685
0.511595
0.50317
0.412418
0.512361
0.509172
0.510706
0.46698
0.504206
0.507447
0.500968
0.510906
0.441065
0.458943
0.510986
0.505283
0.434628
0.460603
0.506363
0.503221
0.504808
0.421334
0.505047
0.423101
0.499376
0.505124
0.452439
0.50148
0.410446
0.511115
0.504411
0.503738
0.500935
0.41491
0.497058
0.487793
0.453602
0.511571
0.429493
0.484413
0.409848
0.503274
0.500043
0.504556
0.503902
0.414777
0.44913
0.485414
0.472981
0.511012
0.459101
0.508607
0.471178
0.504194
0.410233
0.50531
0.503726
0.410313
0.46662
0.483081
0.471983
0.413842
0.415213
0.509967
0.503912
0.489858
0.505474
0.474779
0.505444
0.503181
0.50347
0.506203
0.49173
0.477892
0.505386
0.506029
0.504157
0.504159
0.504466
0.51039
0.505247
0.50003
0.466266
0.464025
0.503444
0.416264
0.503589
0.503138
0.501525
0.502957
0.508683
0.431492
0.47039
0.472564
0.417662
0.511925
0.465545
0.503438
0.5086
0.443218
0.502069
0.462857
0.509173
0.50374
0.512081
0.503859
0.510681
0.509966
0.410229
0.432834
0.501128
0.509398
0.508466
0.448516
0.503718
0.504551
0.508372
0.512057
0.501687
0.500296
0.504899
0.42846
0.51078
0.508955
0.50909
0.419763
0.508217
0.505427
0.465872
0.509026
0.511442
0.464513
0.503481
0.508125
0.44433
0.501396
0.485575
0.457999
0.505433
0.436385
0.443483
0.44032
0.441393
0.500158
0.507984
0.509664
0.508846
0.44633
0.504338
0.503011
0.507882
0.481918
0.434721
0.418435
0.416674
0.494209
0.503513
0.504784
0.508724
0.51096
0.504828
0.500717
0.414523
0.504983
0.505126
0.409775
0.511142
0.41443
0.42391
0.409177
0.445984
0.507727
0.415972
0.507621
0.501948
0.501722
0.436767
0.503679
0.503678
0.511702
0.41008
0.505344
0.503375
0.489988
0.460213
0.445158
0.445013
0.502005
0.502021
0.504011
0.508638
0.506687
0.50365
0.415368
0.483168
0.509274
0.504167
0.443997
0.452813
0.504957
0.467724
0.423197
0.459553
0.501813
0.509116
0.508794
0.438936
0.504258
0.481932
0.412523
0.502091
0.423597
0.420588
0.419145
0.506517
0.503521
0.409607
0.508717
0.503876
0.504301
0.504975
0.503978
0.421909
0.50394
0.502921
0.43587
0.503884
0.501036
0.509302
0.509055
0.502874
0.479476
0.420855
0.509078
0.50438
0.511631
0.511719
0.504948
0.419827
0.503978
0.504735
0.504797
0.504774
0.504071
0.502405
0.44477
0.509166
0.422256
0.50212
0.410075
0.50039
0.504074
0.440904
0.484542
0.510803
0.465484
0.409694
0.50505
0.508504
0.511469
0.505254
0.502392
0.480484
0.448334
0.456475
0.504442
0.417727
0.409917
0.504914
0.452084
0.483042
0.482971
0.449726
0.504347
0.503205
0.491155
0.413135
0.409972
0.447302
0.409428
0.504603
0.5004
0.446878
0.502226
0.505284
0.50039
0.428085
0.500674
0.501277
0.410206
0.487886
0.505082
0.421709
0.468934
0.409702
0.501692
0.50554
0.422364
0.506378
0.501472
0.413471
0.504603
0.500414
0.504799
0.50917
0.501227
0.507122
0.509401
0.50373
0.50379
0.504892
0.512243
0.479231
0.487996
0.44355
0.504715
0.503597
0.417647
0.420153
0.421038
0.508159
0.468778
0.503994
0.469028
0.505391
0.504908
0.501266
0.505436
0.504836
0.444321
0.508328
0.50155
0.418659
0.505063
0.409741
0.419998
0.50366
0.409987
0.505922
0.504985
0.421664
0.419297
0.504353
0.50481
0.502914
0.504526
0.504859
0.476815
0.505356
0.418074
0.416154
0.419133
0.503309
0.503694
0.504519
0.412
0.508261
0.44875
0.504912
0.504685
0.504992
0.504693
0.50722
0.50514
0.489931
0.505214
0.505072
0.505627
0.501659
0.505657
0.425741
0.508021
0.426663
0.490073
0.412085
0.45079
0.423351
0.418232
0.474429
0.474587
0.504121
0.504521
0.505149
0.504724
0.423765
0.487027
0.50084
0.505144
0.503929
0.505796
0.477615
0.421155
0.505223
0.474818
0.474668
0.411082
0.505489
0.505165
0.505571
0.427081
0.481713
0.481631
0.50204
0.446414
0.44821
0.409787
0.421507
0.503883
0.50018
0.502649
0.511495
0.420326
0.422933
0.501104
0.505081
0.511025
0.426162
0.411937
0.411857
0.412779
0.505658
0.417087
0.4414
0.504188
0.414619
0.509186
0.505557
0.5052
0.503111
0.471661
0.451228
0.501411
0.423247
0.491405
0.505768
0.508651
0.499889
0.501328
0.508633
0.500657
0.494578
0.428866
0.50824
0.502936
0.454141
0.414032
0.500997
0.505342
0.50554
0.505336
0.508475
0.5084
0.50114
0.506775
0.510431
0.427461
0.421117
0.505335
0.412949
0.50071
0.486641
0.503868
0.503988
0.455222
0.451213
0.500891
0.504805
0.50013
0.460302
0.505482
0.506097
0.508898
0.500887
0.421479
0.50087
0.504909
0.50626
0.508949
0.410174
0.503441
0.504387
0.504788
0.410765
0.410847
0.422641
0.505225
0.505572
0.500564
0.509288
0.512559
0.414397
0.425839
0.512142
0.506207
0.50552
0.412367
0.507766
0.41049
0.4167
0.501937
0.503313
0.507962
0.504046
0.512533
0.512539
0.508827
0.504114
0.512198
0.500173
0.505742
0.51216
0.410308
0.510319
0.499733
0.433526
0.503982
0.428842
0.452988
0.504784
0.504019
0.502268
0.505477
0.504845
0.505573
0.50277
0.410609
0.428849
0.511831
0.504
0.414364
0.503931
0.468433
0.500825
0.503329
0.447782
0.51029
0.500926
0.510632
0.500837
0.505451
0.504904
0.50349
0.505479
0.509089
0.503316
0.507911
0.499824
0.455369
0.509205
0.412543
0.506762
0.490717
0.428348
0.504434
0.493417
0.495307
0.50543
0.456607
0.500987
0.41008
0.419775
0.410103
0.500609
0.505972
0.46331
0.465768
0.421196
0.505577
0.504814
0.506896
0.414105
0.421838
0.503256
0.505101
0.503578
0.506433
0.503798
0.427029
0.505603
0.469617
0.427955
0.502178
0.507498
0.502386
0.500392
0.423674
0.502544
0.504356
0.498072
0.505971
0.498655
0.500632
0.505569
0.501147
0.504124
0.505567
0.428775
0.5107
0.511202
0.505568
0.50525
0.506916
0.4284
0.503664
0.505545
0.503569
0.415092
0.505433
0.501256
0.505912
0.420669
0.414953
0.505852
0.413099
0.451858
0.419309
0.411967
0.41202
0.452296
0.450162
0.50765
0.41617
0.503452
0.507941
0.504097
0.501233
0.411795
0.50495
0.502086
0.504488
0.41877
0.501159
0.504516
0.503909
0.504662
0.493518
0.500915
0.414158
0.41306
0.475806
0.475918
0.501599
0.504429
0.414321
0.504546
0.503713
0.501085
0.500681
0.510897
0.511846
0.503843
0.489289
0.436755
0.410984
0.501937
0.415235
0.505081
0.4105
0.481767
0.501401
0.508044
0.503745
0.502987
0.510281
0.510214
0.409828
0.503849
0.428359
0.503952
0.505248
0.501153
0.505349
0.500662
0.505543
0.511772
0.409602
0.411918
0.505336
0.45791
0.505316
0.502682
0.502463
0.426961
0.50402
0.505517
0.415815
0.502333
0.411512
0.420762
0.507586
0.505391
0.411177
0.470009
0.41013
0.41696
0.499186
0.508272
0.500266
0.497992
0.508049
0.51028
0.510342
0.429294
0.508289
0.500955
0.501323
0.417446
0.510541
0.50458
0.417836
0.412456
0.503442
0.508525
0.503878
0.501368
0.502273
0.500899
0.508705
0.504278
0.508704
0.502602
0.512067
0.506605
0.507123
0.507862
0.413747
0.503929
0.512267
0.512249
0.505573
0.502606
0.506551
0.50387
0.503111
0.511014
0.504616
0.506972
0.505506
0.441935
0.50666
0.441828
0.505577
0.512157
0.411654
0.502038
0.510774
0.510807
0.501099
0.501631
0.472871
0.500861
0.502351
0.503593
0.494924
0.494194
0.41085
0.501094
0.508001
0.501951
0.463753
0.500701
0.502415
0.50748
0.506735
0.501609
0.494209
0.495184
0.46803
0.50211
0.504578
0.501354
0.446937
0.446448
0.446808
0.510564
0.504603
0.502715
0.501675
0.500514
0.510366
0.432257
0.510295
0.510704
0.501304
0.410099
0.503849
0.473193
0.501891
0.501991
0.501504
0.506494
0.505421
0.503194
0.415793
0.50418
0.50078
0.421932
0.512028
0.503958
0.505477
0.511798
0.411803
0.410832
0.411722
0.51182
0.506711
0.502846
0.509895
0.510888
0.512454
0.50101
0.509829
0.512605
0.5123
0.511838
0.50174
0.510744
0.503165
0.425589
0.512191
0.505205
0.505434
0.507017
0.504144
0.511402
0.504397
0.501778
0.504046
0.427433
0.512267
0.502156
0.502204
0.502876
0.501591
0.502143
0.50369
0.409594
0.497492
0.496858
0.502622
0.504504
0.502232
0.5054
0.410829
0.504267
0.508763
0.501379
0.508389
0.437964
0.505431
0.506067
0.41783
0.505289
0.502923
0.410102
0.503247
0.442787
0.512493
0.415526
0.415374
0.443414
0.443221
0.509281
0.504843
0.503371
0.503302
0.441385
0.502491
0.501135
0.462017
0.436462
0.507735
0.413299
0.504378
0.504617
0.500343
0.420813
0.42848
0.459239
0.50175
0.501851
0.502172
0.501997
0.503971
0.506841
0.506515
0.506166
0.502577
0.507149
0.502419
0.504167
0.501562
0.505293
0.488251
0.504244
0.503618
0.50437
0.501807
0.504824
0.509271
0.505282
0.506467
0.510884
0.503575
0.505297
0.506653
0.503962
0.505594
0.456835
0.505592
0.448686
0.451783
0.504149
0.505173
0.50116
0.505481
0.420519
0.502798
0.505453
0.505175
0.503557
0.505779
0.504987
0.411104
0.503504
0.505385
0.50557
0.488355
0.489228
0.506859
0.41066
0.50412
0.504117
0.503999
0.423003
0.503421
0.505402
0.426487
0.471212
0.505504
0.506192
0.425521
0.503973
0.424639
0.504351
0.504327
0.503917
0.424056
0.507916
0.503937
0.504584
0.503802
0.504927
0.503869
0.501072
0.497351
0.429352
0.411249
0.503769
0.458081
0.506109
0.410635
0.430199
0.429739
0.505478
0.494599
0.424203
0.43402
0.505258
0.504095
0.502319
0.489329
0.506453
0.439309
0.504307
0.504296
0.505482
0.50394
0.505444
0.503481
0.431156
0.508777
0.508809
0.507027
0.503438
0.503139
0.503804
0.504076
0.502846
0.424603
0.500766
0.500912
0.418997
0.413206
0.413626
0.464972
0.505954
0.505484
0.494668
0.50573
0.506279
0.505619
0.507425
0.505628
0.503926
0.510494
0.503888
0.42272
0.490218
0.506995
0.441165
0.441014
0.505513
0.509258
0.505056
0.504987
0.505573
0.506613
0.510218
0.510154
0.504992
0.50525
0.502664
0.503659
0.446069
0.505738
0.507084
0.505415
0.447737
0.447355
0.502491
0.503969
0.506679
0.502179
0.505494
0.504301
0.502514
0.462218
0.503779
0.45044
0.450801
0.504995
0.508351
0.503661
0.507272
0.493507
0.492726
0.474815
0.502967
0.502526
0.413764
0.508002
0.50412
0.462962
0.507293
0.505348
0.501693
0.507439
0.51037
0.510428
0.51229
0.512238
0.509922
0.504623
0.512162
0.510608
0.510681
0.503683
0.507555
0.511707
0.505019
0.506343
0.505274
0.505545
0.509826
0.506589
0.509771
0.512448
0.512327
0.505265
0.507338
0.510945
0.500927
0.509727
0.420954
0.504715
0.476374
0.504023
0.505984
0.447879
0.507342
0.504349
0.504326
0.503904
0.501495
0.504396
0.505239
0.512069
0.503677
0.430126
0.505451
0.504983
0.503592
0.506023
0.503343
0.502762
0.426715
0.501264
0.501147
0.504007
0.418332
0.417754
0.507164
0.501914
0.512442
0.505328
0.507987
0.506776
0.505527
0.50553
0.50134
0.504211
0.503797
0.50184
0.505705
0.412196
0.411568
0.504939
0.512495
0.462337
0.491233
0.423619
0.504242
0.503815
0.502449
0.50416
0.503214
0.505191
0.505473
0.419978
0.509118
0.504149
0.487147
0.502988
0.504065
0.506814
0.50325
0.414832
0.506296
0.417924
0.511022
0.50747
0.503851
0.418701
0.418865
0.50296
0.508736
0.505545
0.504191
0.505268
0.506138
0.422655
0.507689
0.505136
0.502133
0.503151
0.504253
0.504417
0.505859
0.505336
0.505056
0.504083
0.506872
0.503337
0.505783
0.502629
0.505197
0.504097
0.505323
0.498678
0.498076
0.504576
0.505123
0.50381
0.50436
0.505122
0.503595
0.503301
0.496846
0.50371
0.50939
0.503806
0.503492
0.503433
0.507413
0.505672
0.511293
0.505865
0.505365
0.487668
0.486653
0.503793
0.503997
0.409677
0.503727
0.504629
0.501414
0.507222
0.508189
0.504979
0.504512
0.501428
0.504286
0.503429
0.505205
0.493761
0.504875
0.503403
0.505514
0.504111
0.469076
0.507323
0.502638
0.506668
0.503721
0.503673
0.499235
0.507453
0.506112
0.507825
0.504349
0.504484
0.503333
0.428835
0.456725
0.507102
0.504213
0.505278
0.469951
0.506876
0.505061
0.504129
0.50392
0.444171
0.443944
0.501181
0.511471
0.504045
0.433479
0.509194
0.504597
0.495467
0.506044
0.438685
0.504
0.509167
0.431625
0.504509
0.509644
0.505508
0.507863
0.502478
0.503432
0.503607
0.506963
0.506962
0.509415
0.505052
0.503245
0.501553
0.503963
0.505436
0.466493
0.504964
0.506324
0.502701
0.504732
0.437358
0.506505
0.504467
0.507383
0.50354
0.503497
0.499641
0.510486
0.509863
0.505798
0.501047
0.510407
0.501031
0.503664
0.507315
0.504865
0.503778
0.504624
0.505189
0.504086
0.503956
0.503551
0.411948
0.504481
0.410266
0.503846
0.505311
0.505518
0.504006
0.505414
0.505672
0.451494
0.451904
0.5065
0.504872
0.503451
0.426096
0.425157
0.512137
0.512264
0.504717
0.503731
0.504665
0.504185
0.505555
0.503867
0.509084
0.464457
0.504559
0.504563
0.505464
0.503185
0.415769
0.41121
0.503539
0.504569
0.504561
0.466807
0.505294
0.504015
0.504954
0.492066
0.49299
0.504124
0.505357
0.503935
0.442067
0.506061
0.506298
0.508329
0.463486
0.505125
0.505049
0.505493
0.505551
0.505055
0.497989
0.503894
0.509333
0.427986
0.505103
0.504832
0.503449
0.507951
0.505258
0.50423
0.506824
0.512497
0.512372
0.492303
0.505393
0.503551
0.505041
0.50541
0.510797
0.505117
0.450272
0.504258
0.505409
0.505382
0.507714
0.505541
0.502934
0.506876
0.505399
0.503581
0.507296
0.504515
0.507104
0.505653
0.505195
0.50514
0.505556
0.504786
0.504786
0.505287
0.504995
0.505129
0.510489
0.505442
0.504106
0.505479
0.511278
0.503564
0.504391
0.505005
0.504559
0.505109
0.504449
0.424936
0.503631
0.505026
0.505401
0.505388
0.504521
0.509761
0.504386
0.503458
0.505133
0.50468
0.504766
0.504853
0.505486
0.503977
0.505275
0.503671
0.505189
0.505922
0.50494
0.506927
0.509312
0.509057
0.507575
0.504183
0.505544
0.504597
0.508206
0.505255
0.505352
0.505367
0.505545
0.505124
0.505328
0.509524
0.505457
0.505145
0.50513
0.505554
0.509071
0.503224
0.511454
0.503404
0.504885
0.504124
0.498606
0.50552
0.418574
0.419533
0.501493
0.505136
0.505594
0.505363
0.509299
0.509747
0.503322
0.505499
0.504218
0.505571
0.505601
0.504434
0.505048
0.505032
0.504871
0.505271
0.505522
0.50544
0.512519
0.504166
0.511478
0.413925
0.508431
0.508103
0.509537
0.507976
0.512542
0.505265
0.511364
0.505489
0.502975
0.504822
0.505552
0.505451
0.505445
0.506446
0.50108
0.50318
0.504837
0.505516
0.501095
0.50555
0.496122
0.507842
0.503919
0.505406
0.501917
0.503773
0.430262
0.50093
0.504308
0.504886
0.504078
0.505561
0.425316
0.504799
0.503431
0.492814
0.50556
0.505179
0.505713
0.505201
0.50554
0.503885
0.505532
0.41172
0.504818
0.507264
0.507796
0.506227
0.501495
0.50555
0.503663
0.505536
0.505468
0.505575
0.504108
0.505562
0.491338
0.505488
0.505594
0.414955
0.493076
0.505662
0.504535
0.511103
0.505554
0.505282
0.505051
0.507677
0.505531
0.504212
0.467682
0.50602
0.505552
0.505201
0.505515
0.504766
0.505312
0.470959
0.503552
0.50527
0.505504
0.506486
0.503968
0.509149
0.504186
0.505599
0.504255
0.503514
0.50555
0.463762
0.504702
0.508381
0.505493
0.507596
0.505694
0.507182
0.505537
0.510088
0.504277
0.46913
0.504718
0.505193
0.508098
0.505624
0.505605
0.503602
0.504641
0.447374
0.508228
0.510496
0.507808
0.50561
0.505318
0.505298
0.50824
0.505537
0.505538
0.510399
0.460542
0.412662
0.410276
0.505526
0.473635
0.506731
0.426508
0.425237
0.512163
0.505527
0.462216
0.505426
0.505577
0.505489
0.504264
0.50557
0.505265
0.475327
0.502722
0.411376
0.505382
0.509058
0.505404
0.505456
0.508082
0.504917
0.491987
0.505821
0.493696
0.465755
0.508374
0.479813
0.462427
0.477051
0.50549
0.504866
0.510305
0.505457
0.504778
0.475395
0.50837
0.427584
0.509189
0.505528
0.509983
0.503065
0.505544
0.506717
0.505536
0.504173
0.508707
0.510804
0.508471
0.450648
0.505306
0.505485
0.505206
0.505485
0.504705
0.478271
0.508585
0.425238
0.508346
0.509515
0.504773
0.46222
0.50929
0.505478
0.503928
0.505589
0.509969
0.50941
0.510204
0.504042
0.46573
0.510058
0.505072
0.510189
0.50552
0.508839
0.509872
0.49796
0.505384
0.419615
0.418069
0.481995
0.483367
0.505504
0.504286
0.508345
0.509973
0.43796
0.43787
0.483453
0.504403
0.413544
0.505262
0.505512
0.505484
0.505192
0.505099
0.484775
0.50837
0.510522
0.505567
0.510202
0.504899
0.505302
0.509389
0.504976
0.50935
0.508501
0.504709
0.472343