# vtk DataFile Version 1.0
unstructured grid
ascii
DATASET UNSTRUCTURED_GRID
points 8094 float
-0.25 0.0574735 0
0.5 0.0546937 0
0.5 -0.0546937 0
-0.25 -0.0574735 0
-0.25 0.0574735 0.01
0.5 0.0546937 0.01
0.5 -0.0546937 0.01
-0.25 -0.0574735 0.01
-0.246045 0.0569295 0
-0.242089 0.0563854 0
-0.238136 0.0558289 0
-0.234184 0.0552582 0
-0.230232 0.0546875 0
-0.226284 0.0540912 0
-0.222337 0.0534933 0
-0.218391 0.0528841 0
-0.214448 0.0522585 0
-0.210504 0.0516328 0
-0.206565 0.0509829 0
-0.202626 0.0503294 0
-0.198689 0.0496667 0
-0.194755 0.0489856 0
-0.190821 0.0483046 0
-0.18689 0.0476022 0
-0.182961 0.0468942 0
-0.179033 0.0461799 0
-0.175108 0.0454463 0
-0.171183 0.0447127 0
-0.167262 0.0439627 0
-0.163342 0.0432056 0
-0.159422 0.0424455 0
-0.155506 0.041668 0
-0.15159 0.0408904 0
-0.147675 0.0401031 0
-0.143762 0.0393092 0
-0.13985 0.0385149 0
-0.135939 0.0377103 0
-0.132028 0.0369056 0
-0.128117 0.0361005 0
-0.124207 0.0352949 0
-0.120296 0.0344893 0
-0.116386 0.0336836 0
-0.112475 0.032878 0
-0.108563 0.0320794 0
-0.104649 0.0312931 0
-0.100735 0.0305068 0
-0.0968152 0.029745 0
-0.0928949 0.0289889 0
-0.0889722 0.0282446 0
-0.0850433 0.0275341 0
-0.0811144 0.0268235 0
-0.0771778 0.0261578 0
-0.0732381 0.0255098 0
-0.0692962 0.0248759 0
-0.0653442 0.0243073 0
-0.0613923 0.0237386 0
-0.0574324 0.0232306 0
-0.0534681 0.0227556 0
-0.0495024 0.0222934 0
-0.0455272 0.0219207 0
-0.041552 0.0215481 0
-0.0375717 0.0212385 0
-0.0335881 0.0209694 0
-0.029604 0.0207098 0
-0.0256151 0.0205369 0
-0.0216262 0.0203639 0
-0.0176357 0.0202396 0
-0.0136441 0.0201487 0
-0.00965243 0.0200635 0
-0.00565987 0.0200372 0
-0.00166732 0.020011 0
0.00232526 0.0200121 0
0.00631785 0.0200329 0
0.0103104 0.0200563 0
0.0143027 0.0201109 0
0.018295 0.0201654 0
0.022287 0.0202345 0
0.0262788 0.0203144 0
0.0302706 0.0203957 0
0.034262 0.0204956 0
0.0382534 0.0205955 0
0.0422446 0.0207045 0
0.0462355 0.0208207 0
0.0502265 0.0209377 0
0.054217 0.0210676 0
0.0582075 0.0211975 0
0.0621978 0.0213339 0
0.0661879 0.0214757 0
0.0701781 0.021618 0
0.0741678 0.0217703 0
0.0781575 0.0219227 0
0.0821471 0.0220801 0
0.0861364 0.022242 0
0.0901258 0.0224041 0
0.0941148 0.0225747 0
0.0981038 0.0227453 0
0.102093 0.0229202 0
0.106081 0.023099 0
0.11007 0.0232779 0
0.114058 0.0234644 0
0.118046 0.0236509 0
0.122035 0.0238411 0
0.126022 0.024035 0
0.13001 0.0242288 0
0.133998 0.0244298 0
0.137986 0.0246308 0
0.141973 0.0248352 0
0.14596 0.025043 0
0.149947 0.0252509 0
0.153934 0.0254654 0
0.157921 0.02568 0
0.161908 0.0258978 0
0.165894 0.026119 0
0.169881 0.0263402 0
0.173867 0.0265678 0
0.177853 0.0267956 0
0.181839 0.0270264 0
0.185825 0.0272607 0
0.189811 0.0274951 0
0.193796 0.0277356 0
0.197781 0.0279764 0
0.201767 0.02822 0
0.205752 0.0284673 0
0.209737 0.0287146 0
0.213721 0.0289679 0
0.217706 0.0292217 0
0.22169 0.0294782 0
0.225674 0.0297385 0
0.229658 0.0299988 0
0.233642 0.0302651 0
0.237626 0.0305319 0
0.241609 0.0308014 0
0.245593 0.0310748 0
0.249576 0.0313482 0
0.253559 0.0316276 0
0.257542 0.0319077 0
0.261524 0.0321904 0
0.265507 0.0324772 0
0.269489 0.032764 0
0.273471 0.0330568 0
0.277453 0.0333504 0
0.281434 0.0336466 0
0.285416 0.0339471 0
0.289397 0.0342476 0
0.293378 0.034554 0
0.297359 0.0348615 0
0.301339 0.0351714 0
0.305319 0.0354859 0
0.3093 0.0358005 0
0.313279 0.036121 0
0.317259 0.0364427 0
0.321239 0.0367667 0
0.325218 0.0370957 0
0.329197 0.0374248 0
0.333175 0.0377597 0
0.337154 0.0380961 0
0.341132 0.0384347 0
0.34511 0.0387786 0
0.349088 0.0391226 0
0.353065 0.0394724 0
0.357042 0.0398239 0
0.361019 0.0401775 0
0.364995 0.0405368 0
0.368972 0.0408961 0
0.372948 0.0412613 0
0.376924 0.0416285 0
0.380899 0.0419975 0
0.384874 0.0423727 0
0.388849 0.0427479 0
0.392823 0.0431289 0
0.396798 0.0435123 0
0.400772 0.0438973 0
0.404745 0.044289 0
0.408718 0.0446807 0
0.412691 0.0450781 0
0.416664 0.0454782 0
0.420636 0.0458797 0
0.424608 0.0462883 0
0.42858 0.046697 0
0.432551 0.0471114 0
0.436521 0.0475289 0
0.440492 0.0479474 0
0.444462 0.0483738 0
0.448432 0.0488001 0
0.452401 0.0492319 0
0.45637 0.0496673 0
0.460338 0.0501035 0
0.464306 0.0505482 0
0.468274 0.0509928 0
0.472241 0.0514427 0
0.476208 0.0518968 0
0.480175 0.0523512 0
0.48414 0.0528148 0
0.488106 0.0532784 0
0.492071 0.0537471 0
0.496036 0.0542204 0
0.5 0.050787 0
0.5 0.0468803 0
0.5 0.0429736 0
0.5 0.0390669 0
0.5 0.0351602 0
0.5 0.0312535 0
0.5 0.0273468 0
0.5 0.0234402 0
0.5 0.0195335 0
0.5 0.0156268 0
0.5 0.0117201 0
0.5 0.00781339 0
0.5 0.00390669 0
0.5 1.43781e-13 0
0.5 -0.00390669 0
0.5 -0.00781339 0
0.5 -0.0117201 0
0.5 -0.0156268 0
0.5 -0.0195335 0
0.5 -0.0234402 0
0.5 -0.0273468 0
0.5 -0.0312535 0
0.5 -0.0351602 0
0.5 -0.0390669 0
0.5 -0.0429736 0
0.5 -0.0468803 0
0.5 -0.050787 0
0.496036 -0.0542204 0
0.492071 -0.0537471 0
0.488106 -0.0532784 0
0.48414 -0.0528148 0
0.480175 -0.0523512 0
0.476208 -0.0518968 0
0.472241 -0.0514427 0
0.468274 -0.0509928 0
0.464306 -0.0505482 0
0.460338 -0.0501035 0
0.45637 -0.0496673 0
0.452401 -0.0492319 0
0.448432 -0.0488001 0
0.444462 -0.0483738 0
0.440492 -0.0479474 0
0.436521 -0.0475289 0
0.432551 -0.0471114 0
0.42858 -0.046697 0
0.424608 -0.0462883 0
0.420636 -0.0458797 0
0.416664 -0.0454782 0
0.412691 -0.0450781 0
0.408718 -0.0446807 0
0.404745 -0.044289 0
0.400772 -0.0438973 0
0.396798 -0.0435123 0
0.392823 -0.0431289 0
0.388849 -0.0427479 0
0.384874 -0.0423727 0
0.380899 -0.0419975 0
0.376924 -0.0416285 0
0.372948 -0.0412613 0
0.368972 -0.0408961 0
0.364995 -0.0405368 0
0.361019 -0.0401775 0
0.357042 -0.0398239 0
0.353065 -0.0394724 0
0.349088 -0.0391226 0
0.34511 -0.0387786 0
0.341132 -0.0384347 0
0.337154 -0.0380961 0
0.333175 -0.0377597 0
0.329197 -0.0374248 0
0.325218 -0.0370957 0
0.321239 -0.0367667 0
0.317259 -0.0364427 0
0.313279 -0.036121 0
0.3093 -0.0358005 0
0.305319 -0.0354859 0
0.301339 -0.0351714 0
0.297359 -0.0348615 0
0.293378 -0.034554 0
0.289397 -0.0342476 0
0.285416 -0.0339471 0
0.281434 -0.0336466 0
0.277453 -0.0333504 0
0.273471 -0.0330568 0
0.269489 -0.032764 0
0.265507 -0.0324772 0
0.261524 -0.0321904 0
0.257542 -0.0319077 0
0.253559 -0.0316276 0
0.249576 -0.0313482 0
0.245593 -0.0310748 0
0.241609 -0.0308014 0
0.237626 -0.0305319 0
0.233642 -0.0302651 0
0.229658 -0.0299988 0
0.225674 -0.0297385 0
0.22169 -0.0294782 0
0.217706 -0.0292217 0
0.213721 -0.0289679 0
0.209737 -0.0287146 0
0.205752 -0.0284673 0
0.201767 -0.02822 0
0.197781 -0.0279764 0
0.193796 -0.0277356 0
0.189811 -0.0274951 0
0.185825 -0.0272607 0
0.181839 -0.0270264 0
0.177853 -0.0267956 0
0.173867 -0.0265678 0
0.169881 -0.0263402 0
0.165894 -0.026119 0
0.161908 -0.0258978 0
0.157921 -0.02568 0
0.153934 -0.0254654 0
0.149947 -0.0252509 0
0.14596 -0.025043 0
0.141973 -0.0248352 0
0.137986 -0.0246308 0
0.133998 -0.0244298 0
0.13001 -0.0242288 0
0.126022 -0.024035 0
0.122035 -0.0238411 0
0.118046 -0.0236509 0
0.114058 -0.0234644 0
0.11007 -0.0232779 0
0.106081 -0.023099 0
0.102093 -0.0229202 0
0.0981038 -0.0227453 0
0.0941148 -0.0225747 0
0.0901258 -0.0224041 0
0.0861364 -0.022242 0
0.0821471 -0.0220801 0
0.0781575 -0.0219227 0
0.0741678 -0.0217703 0
0.0701781 -0.021618 0
0.0661879 -0.0214757 0
0.0621978 -0.0213339 0
0.0582075 -0.0211975 0
0.054217 -0.0210676 0
0.0502265 -0.0209377 0
0.0462355 -0.0208207 0
0.0422446 -0.0207045 0
0.0382534 -0.0205955 0
0.034262 -0.0204956 0
0.0302706 -0.0203957 0
0.0262788 -0.0203144 0
0.022287 -0.0202345 0
0.018295 -0.0201654 0
0.0143027 -0.0201109 0
0.0103104 -0.0200563 0
0.00631785 -0.0200329 0
0.00232526 -0.0200121 0
-0.00166732 -0.020011 0
-0.00565987 -0.0200372 0
-0.00965243 -0.0200635 0
-0.0136441 -0.0201487 0
-0.0176357 -0.0202396 0
-0.0216262 -0.0203639 0
-0.0256151 -0.0205369 0
-0.029604 -0.0207098 0
-0.0335881 -0.0209694 0
-0.0375717 -0.0212385 0
-0.041552 -0.0215481 0
-0.0455272 -0.0219207 0
-0.0495024 -0.0222934 0
-0.0534681 -0.0227556 0
-0.0574324 -0.0232306 0
-0.0613923 -0.0237386 0
-0.0653442 -0.0243073 0
-0.0692962 -0.0248759 0
-0.0732381 -0.0255098 0
-0.0771778 -0.0261578 0
-0.0811144 -0.0268235 0
-0.0850433 -0.0275341 0
-0.0889722 -0.0282446 0
-0.0928949 -0.0289889 0
-0.0968152 -0.029745 0
-0.100735 -0.0305068 0
-0.104649 -0.0312931 0
-0.108563 -0.0320794 0
-0.112475 -0.032878 0
-0.116386 -0.0336836 0
-0.120296 -0.0344893 0
-0.124207 -0.0352949 0
-0.128117 -0.0361005 0
-0.132028 -0.0369056 0
-0.135939 -0.0377103 0
-0.13985 -0.0385149 0
-0.143762 -0.0393092 0
-0.147675 -0.0401031 0
-0.15159 -0.0408904 0
-0.155506 -0.041668 0
-0.159422 -0.0424455 0
-0.163342 -0.0432056 0
-0.167262 -0.0439627 0
-0.171183 -0.0447127 0
-0.175108 -0.0454463 0
-0.179033 -0.0461799 0
-0.182961 -0.0468942 0
-0.18689 -0.0476022 0
-0.190821 -0.0483046 0
-0.194755 -0.0489856 0
-0.198689 -0.0496667 0
-0.202626 -0.0503294 0
-0.206565 -0.0509829 0
-0.210504 -0.0516328 0
-0.214448 -0.0522585 0
-0.218391 -0.0528841 0
-0.222337 -0.0534933 0
-0.226284 -0.0540912 0
-0.230232 -0.0546875 0
-0.234184 -0.0552582 0
-0.238136 -0.0558289 0
-0.242089 -0.0563854 0
-0.246045 -0.0569295 0
-0.25 -0.0535098 0
-0.25 -0.0495461 0
-0.25 -0.0455824 0
-0.25 -0.0416187 0
-0.25 -0.0376551 0
-0.25 -0.0336914 0
-0.25 -0.0297277 0
-0.25 -0.025764 0
-0.25 -0.0218003 0
-0.25 -0.0178366 0
-0.25 -0.0138729 0
-0.25 -0.00990922 0
-0.25 -0.00594553 0
-0.25 -0.00198184 0
-0.25 0.00198184 0
-0.25 0.00594553 0
-0.25 0.00990922 0
-0.25 0.0138729 0
-0.25 0.0178366 0
-0.25 0.0218003 0
-0.25 0.025764 0
-0.25 0.0297277 0
-0.25 0.0336914 0
-0.25 0.0376551 0
-0.25 0.0416187 0
-0.25 0.0455824 0
-0.25 0.0495461 0
-0.25 0.0535098 0
-0.246045 0.0569295 0.01
-0.242089 0.0563854 0.01
-0.238136 0.0558289 0.01
-0.234184 0.0552582 0.01
-0.230232 0.0546875 0.01
-0.226284 0.0540912 0.01
-0.222337 0.0534933 0.01
-0.218391 0.0528841 0.01
-0.214448 0.0522585 0.01
-0.210504 0.0516328 0.01
-0.206565 0.0509829 0.01
-0.202626 0.0503294 0.01
-0.198689 0.0496667 0.01
-0.194755 0.0489856 0.01
-0.190821 0.0483046 0.01
-0.18689 0.0476022 0.01
-0.182961 0.0468942 0.01
-0.179033 0.0461799 0.01
-0.175108 0.0454463 0.01
-0.171183 0.0447127 0.01
-0.167262 0.0439627 0.01
[...]
CELL_DATA 7657
SCALARS rho float
LOOKUP_TABLE default
0.475143
0.400168
0.449993
0.411257
0.496468
0.418697
0.385633
0.494761
0.386886
0.502419
0.502468
0.494207
0.381903
0.494395
0.495217
0.487532
0.495022
0.477948
0.476864
0.498259
0.493933
0.479272
0.396112
0.475941
0.488225
0.491524
0.407256
0.382793
0.499993
0.418982
0.390234
0.488232
0.394755
0.473136
0.473611
0.389553
0.418919
0.39589
0.478297
0.398896
0.447197
0.386601
0.415368
0.417726
0.445608
0.453301
0.384031
0.418619
0.488526
0.474703
0.417454
0.411481
0.500087
0.500584
0.385896
0.419422
0.494358
0.491443
0.453092
0.390919
0.488629
0.442599
0.488683
0.488792
0.502902
0.502911
0.381769
0.420119
0.501631
0.449913
0.452791
0.382187
0.414394
0.500141
0.471954
0.41836
0.478376
0.418234
0.471408
0.381683
0.394105
0.495236
0.498144
0.448482
0.451138
0.457059
0.451407
0.449047
0.491808
0.406885
0.502914
0.502942
0.454433
0.501179
0.397474
0.459268
0.458214
0.397862
0.443873
0.39744
0.47889
0.487435
0.399588
0.493343
0.38352
0.390377
0.394458
0.420598
0.382113
0.493205
0.390136
0.420323
0.416728
0.498105
0.464021
0.440894
0.420869
0.399175
0.486638
0.418757
0.503456
0.503445
0.394734
0.397401
0.496915
0.494386
0.493967
0.415434
0.419806
0.415677
0.410712
0.484069
0.419506
0.414258
0.498202
0.39363
0.487978
0.39486
0.483496
0.484075
0.394475
0.406229
0.399923
0.398008
0.475587
0.493839
0.393508
0.400901
0.442341
0.39447
0.400527
0.5017
0.410893
0.415753
0.49401
0.399709
0.420124
0.480368
0.498236
0.393359
0.481224
0.4911
0.491331
0.439783
0.435926
0.399407
0.478345
0.41667
0.461702
0.487178
0.446876
0.391128
0.483493
0.400313
0.388683
0.389028
0.413445
0.459318
0.496756
0.400236
0.398085
0.382468
0.485525
0.485898
0.381441
0.451662
0.38456
0.413678
0.492625
0.459284
0.499978
0.501464
0.498197
0.463476
0.492573
0.419721
0.498437
0.490619
0.389154
0.457337
0.476806
0.487185
0.460483
0.447181
0.40739
0.500818
0.382337
0.382945
0.471037
0.462954
0.426848
0.442015
0.435121
0.498206
0.445445
0.413863
0.387508
0.455908
0.420425
0.455921
0.400443
0.400641
0.502033
0.420254
0.382925
0.394889
0.3833
0.403354
0.418297
0.502073
0.43152
0.43237
0.382531
0.493676
0.485564
0.498259
0.448667
0.486919
0.487092
0.490244
0.426336
0.402046
0.460618
0.394476
0.470191
0.465449
0.384697
0.464635
0.384843
0.418046
0.389488
0.413025
0.420624
0.472069
0.387909
0.413665
0.401533
0.496322
0.500479
0.420337
0.397098
0.500787
0.486134
0.462489
0.38694
0.451348
0.445472
0.402315
0.476808
0.401011
0.381682
0.406378
0.406133
0.498318
0.469572
0.463148
0.41633
0.420338
0.420203
0.493311
0.398156
0.489757
0.403981
0.396265
0.41302
0.390043
0.396166
0.410436
0.413606
0.47045
0.464773
0.414025
0.404331
0.500853
0.420607
0.407815
0.478721
0.495542
0.440643
0.465966
0.458233
0.499872
0.401262
0.383523
0.407273
0.455747
0.386542
0.414273
0.473414
0.420543
0.493561
0.443997
0.489909
0.38486
0.48845
0.489628
0.500688
0.496339
0.420393
0.489833
0.416191
0.395921
0.500656
0.450249
0.487167
0.497666
0.383895
0.409109
0.49204
0.469171
0.390372
0.498042
0.486102
0.402477
0.494983
0.421676
0.420612
0.403405
0.488308
0.500098
0.492267
0.38851
0.403776
0.486173
0.498515
0.388083
0.499979
0.402426
0.454908
0.492177
0.418889
0.482024
0.498199
0.482749
0.386532
0.487884
0.484418
0.382548
0.487995
0.383335
0.421828
0.47826
0.456304
0.442207
0.494618
0.388937
0.492166
0.398296
0.454526
0.45713
0.419134
0.433292
0.497756
0.497356
0.382871
0.382267
0.482986
0.421118
0.469671
0.485083
0.436909
0.474465
0.405936
0.488787
0.500342
0.501425
0.474321
0.493773
0.491768
0.491477
0.421968
0.420631
0.420482
0.497585
0.491126
0.450414
0.387618
0.390605
0.491291
0.418893
0.498274
0.498266
0.474218
0.501408
0.3982
0.433087
0.488193
0.381576
0.491795
0.49517
0.483839
0.419199
0.488838
0.411103
0.460683
0.497246
0.446385
0.495262
0.410991
0.39809
0.395941
0.495099
0.382411
0.407663
0.400453
0.465177
0.458478
0.49642
0.415089
0.487478
0.43886
0.386439
0.404697
0.498421
0.490015
0.484588
0.499699
0.484941
0.48639
0.475667
0.418789
0.483185
0.391704
0.500186
0.493251
0.437301
0.426726
0.382644
0.495004
0.439636
0.488411
0.488237
0.422367
0.383953
0.383397
0.459285
0.385091
0.488285
0.48655
0.461304
0.473959
0.420034
0.468434
0.457744
0.408939
0.49746
0.389415
0.392112
0.38593
0.386933
0.500176
0.422651
0.430939
0.475853
0.493324
0.486913
0.490098
0.418586
0.395535
0.500006
0.442782
0.50003
0.482309
0.483638
0.438125
0.42024
0.402993
0.391803
0.50176
0.489105
0.49075
0.48849
0.494072
0.462555
0.493578
0.381802
0.411486
0.41801
0.473576
0.475029
0.496065
0.495834
0.437024
0.496266
0.448897
0.451795
0.405137
0.414558
0.44183
0.484848
0.403338
0.489803
0.486648
0.490542
0.477127
0.496832
0.48194
0.481771
0.479677
0.396832
0.487968
0.497772
0.49573
0.40996
0.493057
0.496373
0.501164
0.448545
0.501381
0.48868
0.421331
0.48545
0.495529
0.430645
0.444955
0.486841
0.447815
0.494908
0.386681
0.473007
0.434831
0.486987
0.436154
0.493738
0.490278
0.497669
0.48622
0.414809
0.419186
0.485825
0.485815
0.411175
0.429503
0.491094
0.480264
0.48404
0.397556
0.493389
0.391044
0.473654
0.4851
0.417573
0.497149
0.381754
0.48543
0.482891
0.501489
0.497704
0.389786
0.470414
0.459132
0.417915
0.482483
0.397326
0.455278
0.382058
0.495325
0.498325
0.493963
0.494137
0.383752
0.417502
0.456414
0.420203
0.485185
0.427906
0.489206
0.440598
0.501355
0.381717
0.492491
0.494467
0.383148
0.435864
0.45379
0.420181
0.388465
0.384018
0.436884
0.494678
0.461558
0.492933
0.420412
0.492312
0.49543
0.494709
0.491443
0.463809
0.420794
0.493711
0.491517
0.494389
0.493835
0.483043
0.438065
0.485569
0.498255
0.435357
0.43313
0.494684
0.391681
0.500012
0.500546
0.497134
0.495206
0.488905
0.39926
0.439805
0.442097
0.386186
0.478318
0.42002
0.500171
0.48898
0.415607
0.496595
0.431872
0.488663
0.499283
0.477694
0.499091
0.486828
0.488149
0.381979
0.40966
0.497451
0.488331
0.489102
0.416853
0.494888
0.483321
0.489182
0.452606
0.496935
0.498303
0.492843
0.405431
0.48653
0.488574
0.488521
0.395634
0.489307
0.486374
0.435086
0.488564
0.483794
0.433636
0.495117
0.489399
0.412523
0.497235
0.456601
0.426779
0.486553
0.41217
0.411611
0.408378
0.409492
0.498511
0.489549
0.435903
0.488663
0.414591
0.494179
0.495627
0.489645
0.421412
0.411055
0.386837
0.392173
0.466791
0.495093
0.493679
0.488731
0.485665
0.493668
0.497653
0.383619
0.495686
0.495016
0.3825
0.484742
0.383396
0.391942
0.381893
0.416229
0.489809
0.384608
0.489926
0.496695
0.496914
0.412449
0.494905
0.499701
0.479365
0.381556
0.486323
0.500892
0.461723
0.429099
0.416031
0.413199
0.496615
0.496608
0.498362
0.488855
0.490956
0.499589
0.39059
0.45382
0.488334
0.497347
0.415885
0.421321
0.49348
0.437054
0.391239
0.428279
0.496821
0.488509
0.488756
0.406987
0.497097
0.452492
0.386761
0.496519
0.391653
0.388779
0.39501
0.491116
0.500868
0.381196
0.489099
0.481528
0.501156
0.495068
0.498099
0.3983
0.498773
0.500381
0.403778
0.498406
0.497556
0.488335
0.488778
0.495751
0.42078
0.38906
0.488834
0.494166
0.482359
0.481536
0.484523
0.388111
0.49803
0.493762
0.484017
0.495144
0.497721
0.4274
0.416105
0.488921
0.398723
0.496498
0.383222
0.497957
0.497659
0.41478
0.455355
0.486539
0.43455
0.382628
0.49281
0.488921
0.443793
0.485685
0.496196
0.450893
0.416665
0.425165
0.49639
0.393327
0.381272
0.493565
0.420586
0.453663
0.453652
0.417076
0.496772
0.49466
0.463056
0.382468
0.381094
0.416791
0.381931
0.495905
0.497938
0.416481
0.496387
0.492655
0.497906
0.395932
0.498022
0.497333
0.383553
0.459176
0.493367
0.398123
0.438234
0.381527
0.496929
0.492811
0.398805
0.491832
0.497126
0.387966
0.483455
0.497935
0.494995
0.488424
0.497359
0.490548
0.488271
0.501267
0.499429
0.494607
0.454522
0.4495
0.459312
0.41553
0.495342
0.499934
0.393266
0.388296
0.3974
0.489239
0.438212
0.499008
0.43839
0.492056
0.494945
0.49737
0.491635
0.495322
0.415752
0.48894
0.497068
0.394438
0.494022
0.382678
0.3883
0.499656
0.380864
0.492344
0.494482
0.398086
0.395144
0.496717
0.494958
0.495653
0.496119
0.493456
0.446782
0.492889
0.386543
0.3848
0.387419
0.495303
0.494433
0.496175
0.381747
0.489106
0.416904
0.494861
0.495555
0.494404
0.495497
0.490402
0.493565
0.461589
0.493109
0.493951
0.487604
0.496909
0.488089
0.402515
0.489328
0.403506
0.461762
0.386413
0.417314
0.399901
0.393923
0.444256
0.444343
0.498238
0.493861
0.4935
0.493654
0.391735
0.458233
0.497688
0.493169
0.498682
0.492519
0.447739
0.39731
0.493051
0.444624
0.444524
0.381265
0.486972
0.49327
0.492797
0.403949
0.452179
0.452159
0.496596
0.41655
0.416975
0.380901
0.397744
0.499201
0.498375
0.495952
0.483223
0.396572
0.399432
0.497372
0.493173
0.440442
0.402968
0.381538
0.381592
0.382322
0.492519
0.392615
0.409487
0.493958
0.389907
0.488419
0.490775
0.493187
0.495303
0.420204
0.417604
0.497135
0.399812
0.463362
0.492534
0.488953
0.474461
0.476741
0.488953
0.497742
0.46726
0.405801
0.48908
0.49563
0.41785
0.38922
0.497623
0.492325
0.4927
0.49308
0.488887
0.489035
0.497402
0.490696
0.487608
0.404311
0.397284
0.492384
0.387771
0.497927
0.457754
0.498804
0.499581
0.423832
0.419641
0.497363
0.493086
0.498175
0.429132
0.491296
0.491988
0.488836
0.497334
0.397713
0.497698
0.495457
0.491816
0.4889
0.380803
0.499106
0.493666
0.493087
0.380937
0.38087
0.39077
0.493169
0.490319
0.498015
0.434872
0.454231
0.389691
0.402624
0.47456
0.492008
0.49103
0.386842
0.48957
0.384031
0.392136
0.496595
0.499404
0.489617
0.498569
0.453269
0.454169
0.434037
0.498148
0.473846
0.49823
0.492532
0.474563
0.380766
0.438044
0.474282
0.401383
0.498548
0.405885
0.417692
0.495093
0.49912
0.496377
0.491367
0.494873
0.490236
0.495621
0.384334
0.405726
0.480721
0.498275
0.383223
0.494178
0.419835
0.475943
0.495079
0.416671
0.487749
0.497369
0.486402
0.497727
0.492881
0.494577
0.495089
0.492704
0.488982
0.499359
0.489469
0.474392
0.418062
0.488917
0.387011
0.49067
0.462558
0.405189
0.496513
0.465885
0.468193
0.4929
0.41821
0.497546
0.383429
0.395959
0.383641
0.497612
0.491827
0.43225
0.434824
0.39743
0.489774
0.493106
0.490433
0.389284
0.398135
0.495314
0.485107
0.498805
0.491568
0.494777
0.403864
0.492715
0.419821
0.40482
0.496391
0.489839
0.427373
0.498142
0.40028
0.496076
0.49858
0.471879
0.491679
0.472713
0.497647
0.487466
0.497085
0.498314
0.489157
0.405609
0.43919
0.441635
0.489227
0.493076
0.490465
0.396213
0.494885
0.488681
0.495001
0.390284
0.486528
0.497244
0.492248
0.396981
0.390353
0.492251
0.387849
0.417483
0.395432
0.381484
0.381404
0.417755
0.41738
0.489725
0.391512
0.49907
0.489577
0.499397
0.49739
0.386191
0.493367
0.496484
0.493362
0.394823
0.497373
0.496317
0.494593
0.49366
0.466006
0.497595
0.389132
0.38742
0.44576
0.445802
0.496923
0.496576
0.38924
0.49396
0.498507
0.497465
0.49785
0.486188
0.47796
0.499477
0.460816
0.412554
0.38489
0.496613
0.390374
0.493159
0.384227
0.421528
0.497159
0.489428
0.494788
0.495392
0.487738
0.4874
0.381147
0.499133
0.405229
0.499455
0.493088
0.49709
0.492203
0.49785
0.488616
0.480934
0.382108
0.386238
0.492376
0.418412
0.492707
0.495871
0.496067
0.403776
0.498579
0.49111
0.384618
0.496256
0.38553
0.397065
0.49
0.491988
0.385254
0.420036
0.38083
0.392531
0.473478
0.489194
0.475083
0.471788
0.489446
0.487274
0.487426
0.406125
0.489229
0.49769
0.497238
0.393106
0.486964
0.493875
0.386121
0.38714
0.495096
0.48904
0.494676
0.497275
0.496268
0.497619
0.488716
0.498859
0.488791
0.42754
0.477038
0.490814
0.490912
0.489401
0.388397
0.49457
0.471718
0.471943
0.488935
0.495946
0.491593
0.500597
0.495412
0.484786
0.493439
0.491124
0.488133
0.414697
0.491336
0.414991
0.489697
0.474324
0.386056
0.477985
0.440844
0.442235
0.497486
0.497029
0.420201
0.497679
0.496275
0.498776
0.424154
0.423815
0.381491
0.497543
0.489302
0.496699
0.418896
0.497947
0.496171
0.489813
0.490596
0.497012
0.466884
0.468056
0.419615
0.49591
0.493376
0.49724
0.416649
0.416326
0.416176
0.487086
0.493855
0.495492
0.49686
0.498032
0.487535
0.409128
0.487169
0.486034
0.497351
0.381396
0.494696
0.420023
0.496702
0.427547
0.426906
0.491574
0.491954
0.495332
0.391107
0.498002
0.497807
0.398225
0.449826
0.499237
0.491215
0.478735
0.385977
0.38126
0.381693
0.444618
0.491429
0.49572
0.488025
0.485491
0.468758
0.497604
0.487862
0.460606
0.47205
0.479048
0.496914
0.486487
0.495415
0.402343
0.474656
0.493439
0.491618
0.491042
0.494364
0.482416
0.494056
0.496839
0.494478
0.404263
0.471027
0.496415
0.496314
0.495734
0.497049
0.496473
0.494802
0.380993
0.425128
0.4247
0.495974
0.49397
0.496397
0.49186
0.384272
0.494262
0.488873
0.497185
0.489543
0.41328
0.491952
0.491465
0.39374
0.485948
0.495419
0.382479
0.495079
0.415281
0.465965
0.390819
0.390873
0.415211
0.415451
0.488856
0.493554
0.49947
0.499596
0.414754
0.496164
0.497444
0.418901
0.404439
0.489528
0.388247
0.494078
0.493464
0.47519
0.39699
0.405417
0.418562
0.49681
0.496812
0.496484
0.496581
0.500545
0.49127
0.491662
0.492078
0.496055
0.490904
0.496164
0.494282
0.426871
0.492604
0.459554
0.49884
0.494988
0.493638
0.496796
0.493575
0.43699
0.492965
0.491036
0.485219
0.494296
0.49309
0.491505
0.500047
0.492099
0.425534
0.489415
0.417016
0.42013
0.499043
0.49256
0.497481
0.491635
0.396616
0.49584
0.487587
0.492544
0.498882
0.491887
0.492807
0.385184
0.499242
0.487041
0.488854
0.422394
0.422575
0.491197
0.384566
0.500019
0.493864
0.501118
0.391084
0.495119
0.492981
0.403283
0.419981
0.488076
0.430726
0.402267
0.501036
0.401326
0.501539
0.501516
0.501014
0.4007
0.489541
0.500672
0.493334
0.499095
0.494527
0.49469
0.497509
0.470905
0.40627
0.385103
0.500513
0.418182
0.492088
0.384142
0.407102
0.406554
0.492701
0.467241
0.400854
0.410294
0.486223
0.5004
0.496294
0.460814
0.491667
0.413599
0.501142
0.501114
0.491568
0.494188
0.491444
0.494879
0.407877
0.488583
0.488692
0.49097
0.499405
0.495436
0.499522
0.499876
0.495754
0.401289
0.49786
0.497678
0.394867
0.388161
0.388481
0.419267
0.492343
0.491091
0.467311
0.492614
0.491912
0.492614
0.490136
0.492698
0.500895
0.486662
0.500245
0.399236
0.461877
0.491053
0.414344
0.414581
0.49066
0.488594
0.494484
0.493462
0.492094
0.491503
0.487589
0.487436
0.49347
0.493181
0.495935
0.498727
0.416384
0.492429
0.490323
0.492886
0.416388
0.416533
0.495972
0.494568
0.491432
0.496366
0.492891
0.497052
0.496041
0.418647
0.498465
0.41724
0.417028
0.492852
0.489044
0.494877
0.49077
0.423656
0.423364
0.420212
0.428257
0.427568
0.388832
0.489906
0.499515
0.419028
0.490702
0.492279
0.47736
0.490566
0.439421
0.440798
0.470253
0.470586
0.488108
0.493774
0.451446
0.486645
0.486219
0.49857
0.490444
0.479672
0.484715
0.491836
0.429877
0.430681
0.487803
0.490828
0.48812
0.456267
0.457035
0.493067
0.489954
0.485008
0.49768
0.487982
0.39712
0.493761
0.446367
0.499676
0.492264
0.416065
0.490523
0.500087
0.500061
0.500371
0.497017
0.496753
0.493082
0.475514
0.500386
0.39792
0.487536
0.494222
0.500553
0.49226
0.495189
0.49586
0.394551
0.497366
0.497329
0.498924
0.394316
0.393676
0.490834
0.496722
0.464473
0.486658
0.489917
0.491272
0.490477
0.491313
0.497149
0.49767
0.498291
0.496694
0.490004
0.386743
0.385811
0.49451
0.456156
0.419033
0.463083
0.400227
0.499447
0.500165
0.496181
0.498346
0.50014
0.485855
0.492605
0.396001
0.488973
0.497977
0.458301
0.479805
0.498675
0.491279
0.500004
0.389866
0.491327
0.393666
0.485822
0.490487
0.499847
0.394765
0.394764
0.495548
0.435765
0.490048
0.497814
0.486287
0.492091
0.399176
0.490263
0.493726
0.496506
0.500287
0.497354
0.496754
0.492241
0.42981
0.493279
0.497934
0.491204
0.499873
0.491985
0.479099
0.493804
0.49447
0.486605
0.425647
0.425164
0.496133
0.494086
0.49826
0.497244
0.485499
0.498985
0.499532
0.470159
0.494577
0.488215
0.498463
0.499539
0.495098
0.490573
0.492422
0.483074
0.49222
0.492335
0.422206
0.422017
0.499787
0.500015
0.38196
0.500386
0.495823
0.497238
0.490146
0.489362
0.494758
0.496388
0.49708
0.497588
0.499261
0.485929
0.46619
0.494691
0.499797
0.491173
0.498665
0.419691
0.490623
0.479119
0.49143
0.498731
0.498609
0.473539
0.490499
0.491421
0.490147
0.497063
0.483322
0.499466
0.405739
0.417954
0.490352
0.499826
0.492791
0.419627
0.491115
0.494197
0.497635
0.498196
0.415419
0.415639
0.497303
0.481655
0.498248
0.409852
0.488859
0.495969
0.468335
0.492166
0.413274
0.497919
0.488919
0.408301
0.496449
0.488449
0.490833
0.490079
0.496156
0.499228
0.500316
0.490528
0.490538
0.488604
0.493896
0.499512
0.497023
0.498885
0.492159
0.419464
0.494292
0.491271
0.495847
0.495492
0.412774
0.491154
0.496448
0.49002
0.49925
0.499675
0.474128
0.48735
0.488121
0.492428
0.4976
0.486949
0.497611
0.498715
0.490692
0.494736
0.498377
0.496818
0.493192
0.497953
0.494348
0.499059
0.381859
0.497424
0.380906
0.498213
0.492465
0.49061
0.499286
0.491714
0.492396
0.417407
0.417227
0.491665
0.493577
0.499484
0.402882
0.401882
0.475885
0.473395
0.495498
0.498485
0.495817
0.494064
0.489654
0.4982
0.488914
0.419197
0.496136
0.497191
0.492575
0.499569
0.391012
0.384833
0.500427
0.498124
0.498107
0.419266
0.492722
0.498228
0.494331
0.464099
0.465225
0.500903
0.492158
0.497953
0.415017
0.430737
0.431598
0.489637
0.419111
0.493528
0.494577
0.490936
0.490775
0.494281
0.471743
0.498046
0.48847
0.404901
0.494172
0.494895
0.499514
0.489981
0.493395
0.497349
0.491272
0.457919
0.458651
0.464347
0.491914
0.498932
0.493928
0.492328
0.48565
0.494404
0.41855
0.498953
0.487167
0.492682
0.490258
0.490131
0.495628
0.491183
0.492342
0.499292
0.490291
0.493979
0.490412
0.489598
0.493595
0.485585
0.490864
0.496806
0.496779
0.493087
0.494198
0.493804
0.486816
0.491573
0.497638
0.491147
0.483471
0.498983
0.498238
0.485098
0.496862
0.493603
0.497007
0.392964
0.499307
0.494017
0.491973
0.492335
0.496567
0.488277
0.498623
0.494859
0.493286
0.495701
0.495275
0.494853
0.491198
0.497924
0.49308
0.49901
0.4939
0.492355
0.494434
0.491119
0.488725
0.489025
0.490379
0.497728
0.490397
0.49613
0.489391
0.492811
0.492724
0.49207
0.488802
0.494304
0.493105
0.488542
0.491304
0.485692
0.493997
0.489209
0.488929
0.499529
0.482124
0.499233
0.494832
0.498924
0.472609
0.490511
0.394367
0.395484
0.497142
0.485636
0.490532
0.492737
0.488743
0.488309
0.499792
0.492302
0.498021
0.488565
0.490066
0.496813
0.495453
0.495445
0.49484
0.492856
0.490792
0.492069
0.466242
0.498469
0.442221
0.388923
0.489162
0.489531
0.488518
0.489978
0.46533
0.493303
0.441432
0.491948
0.479775
0.484099
0.490021
0.49158
0.492384
0.491287
0.476378
0.49959
0.495555
0.490795
0.476402
0.48969
0.469199
0.490086
0.497978
0.491752
0.496637
0.498428
0.398066
0.497549
0.497386
0.484628
0.497872
0.49078
0.393192
0.493657
0.499201
0.465036
0.489588
0.493227
0.490494
0.49351
0.490295
0.498088
0.488293
0.38589
0.495164
0.490217
0.489671
0.491913
0.477071
0.488951
0.498774
0.490415
0.491981
0.491089
0.499032
0.489976
0.463179
0.487957
0.489501
0.389965
0.465307
0.490083
0.496858
0.48537
0.489297
0.486229
0.485159
0.489814
0.490781
0.494271
0.436787
0.492072
0.489343
0.493329
0.487778
0.496095
0.493116
0.440287
0.499123
0.492979
0.491175
0.491672
0.499613
0.488853
0.497656
0.489974
0.498073
0.499765
0.489006
0.432568
0.496577
0.489507
0.491574
0.490371
0.492626
0.490821
0.488367
0.487868
0.497723
0.438322
0.484065
0.493437
0.489822
0.489725
0.489146
0.499382
0.496558
0.415641
0.489726
0.487349
0.489679
0.489242
0.494082
0.494046
0.489506
0.490174
0.491186
0.486763
0.429304
0.382365
0.381175
0.488433
0.443127
0.491228
0.403316
0.401969
0.475704
0.488065
0.430993
0.492373
0.488655
0.4874
0.497394
0.488288
0.486136
0.444965
0.495769
0.38517
0.486445
0.488924
0.486869
0.491968
0.489879
0.495232
0.46402
0.492439
0.466122
0.434731
0.489422
0.449907
0.419142
0.446873
0.487917
0.49356
0.487369
0.492907
0.495902
0.445066
0.48935
0.404481
0.488799
0.491407
0.487981
0.49554
0.491642
0.491342
0.490353
0.497293
0.489294
0.48544
0.489499
0.418924
0.485984
0.48784
0.493192
0.49155
0.495386
0.448205
0.48937
0.393207
0.489313
0.488631
0.484219
0.430947
0.48858
0.48773
0.49992
0.489955
0.488024
0.488735
0.487606
0.500429
0.434662
0.488
0.49384
0.487662
0.488339
0.48917
0.488087
0.471706
0.486999
0.395553
0.393776
0.452316
0.453857
0.487684
0.482744
0.489585
0.487912
0.405972
0.405866
0.453967
0.497862
0.388415
0.49362
0.49086
0.487798
0.494133
0.493644
0.455464
0.489439
0.486701
0.489568
0.487499
0.484687
0.492502
0.48875
0.484939
0.488795
0.489358
0.483697
0.441766