# vtk DataFile Version 1.0
unstructured grid
ascii
DATASET UNSTRUCTURED_GRID
points 8094 float
-0.25 0.0574735 0
0.5 0.0546937 0
0.5 -0.0546937 0
-0.25 -0.0574735 0
-0.25 0.0574735 0.01
0.5 0.0546937 0.01
0.5 -0.0546937 0.01
-0.25 -0.0574735 0.01
-0.246045 0.0569295 0
-0.242089 0.0563854 0
-0.238136 0.0558289 0
-0.234184 0.0552582 0
-0.230232 0.0546875 0
-0.226284 0.0540912 0
-0.222337 0.0534933 0
-0.218391 0.0528841 0
-0.214448 0.0522585 0
-0.210504 0.0516328 0
-0.206565 0.0509829 0
-0.202626 0.0503294 0
-0.198689 0.0496667 0
-0.194755 0.0489856 0
-0.190821 0.0483046 0
-0.18689 0.0476022 0
-0.182961 0.0468942 0
-0.179033 0.0461799 0
-0.175108 0.0454463 0
-0.171183 0.0447127 0
-0.167262 0.0439627 0
-0.163342 0.0432056 0
-0.159422 0.0424455 0
-0.155506 0.041668 0
-0.15159 0.0408904 0
-0.147675 0.0401031 0
-0.143762 0.0393092 0
-0.13985 0.0385149 0
-0.135939 0.0377103 0
-0.132028 0.0369056 0
-0.128117 0.0361005 0
-0.124207 0.0352949 0
-0.120296 0.0344893 0
-0.116386 0.0336836 0
-0.112475 0.032878 0
-0.108563 0.0320794 0
-0.104649 0.0312931 0
-0.100735 0.0305068 0
-0.0968152 0.029745 0
-0.0928949 0.0289889 0
-0.0889722 0.0282446 0
-0.0850433 0.0275341 0
-0.0811144 0.0268235 0
-0.0771778 0.0261578 0
-0.0732381 0.0255098 0
-0.0692962 0.0248759 0
-0.0653442 0.0243073 0
-0.0613923 0.0237386 0
-0.0574324 0.0232306 0
-0.0534681 0.0227556 0
-0.0495024 0.0222934 0
-0.0455272 0.0219207 0
-0.041552 0.0215481 0
-0.0375717 0.0212385 0
-0.0335881 0.0209694 0
-0.029604 0.0207098 0
-0.0256151 0.0205369 0
-0.0216262 0.0203639 0
-0.0176357 0.0202396 0
-0.0136441 0.0201487 0
-0.00965243 0.0200635 0
-0.00565987 0.0200372 0
-0.00166732 0.020011 0
0.00232526 0.0200121 0
0.00631785 0.0200329 0
0.0103104 0.0200563 0
0.0143027 0.0201109 0
0.018295 0.0201654 0
0.022287 0.0202345 0
0.0262788 0.0203144 0
0.0302706 0.0203957 0
0.034262 0.0204956 0
0.0382534 0.0205955 0
0.0422446 0.0207045 0
0.0462355 0.0208207 0
0.0502265 0.0209377 0
0.054217 0.0210676 0
0.0582075 0.0211975 0
0.0621978 0.0213339 0
0.0661879 0.0214757 0
0.0701781 0.021618 0
0.0741678 0.0217703 0
0.0781575 0.0219227 0
0.0821471 0.0220801 0
0.0861364 0.022242 0
0.0901258 0.0224041 0
0.0941148 0.0225747 0
0.0981038 0.0227453 0
0.102093 0.0229202 0
0.106081 0.023099 0
0.11007 0.0232779 0
0.114058 0.0234644 0
0.118046 0.0236509 0
0.122035 0.0238411 0
0.126022 0.024035 0
0.13001 0.0242288 0
0.133998 0.0244298 0
0.137986 0.0246308 0
0.141973 0.0248352 0
0.14596 0.025043 0
0.149947 0.0252509 0
0.153934 0.0254654 0
0.157921 0.02568 0
0.161908 0.0258978 0
0.165894 0.026119 0
0.169881 0.0263402 0
0.173867 0.0265678 0
0.177853 0.0267956 0
0.181839 0.0270264 0
0.185825 0.0272607 0
0.189811 0.0274951 0
0.193796 0.0277356 0
0.197781 0.0279764 0
0.201767 0.02822 0
0.205752 0.0284673 0
0.209737 0.0287146 0
0.213721 0.0289679 0
0.217706 0.0292217 0
0.22169 0.0294782 0
0.225674 0.0297385 0
0.229658 0.0299988 0
0.233642 0.0302651 0
0.237626 0.0305319 0
0.241609 0.0308014 0
0.245593 0.0310748 0
0.249576 0.0313482 0
0.253559 0.0316276 0
0.257542 0.0319077 0
0.261524 0.0321904 0
0.265507 0.0324772 0
0.269489 0.032764 0
0.273471 0.0330568 0
0.277453 0.0333504 0
0.281434 0.0336466 0
0.285416 0.0339471 0
0.289397 0.0342476 0
0.293378 0.034554 0
0.297359 0.0348615 0
0.301339 0.0351714 0
0.305319 0.0354859 0
0.3093 0.0358005 0
0.313279 0.036121 0
0.317259 0.0364427 0
0.321239 0.0367667 0
0.325218 0.0370957 0
0.329197 0.0374248 0
0.333175 0.0377597 0
0.337154 0.0380961 0
0.341132 0.0384347 0
0.34511 0.0387786 0
0.349088 0.0391226 0
0.353065 0.0394724 0
0.357042 0.0398239 0
0.361019 0.0401775 0
0.364995 0.0405368 0
0.368972 0.0408961 0
0.372948 0.0412613 0
0.376924 0.0416285 0
0.380899 0.0419975 0
0.384874 0.0423727 0
0.388849 0.0427479 0
0.392823 0.0431289 0
0.396798 0.0435123 0
0.400772 0.0438973 0
0.404745 0.044289 0
0.408718 0.0446807 0
0.412691 0.0450781 0
0.416664 0.0454782 0
0.420636 0.0458797 0
0.424608 0.0462883 0
0.42858 0.046697 0
0.432551 0.0471114 0
0.436521 0.0475289 0
0.440492 0.0479474 0
0.444462 0.0483738 0
0.448432 0.0488001 0
0.452401 0.0492319 0
0.45637 0.0496673 0
0.460338 0.0501035 0
0.464306 0.0505482 0
0.468274 0.0509928 0
0.472241 0.0514427 0
0.476208 0.0518968 0
0.480175 0.0523512 0
0.48414 0.0528148 0
0.488106 0.0532784 0
0.492071 0.0537471 0
0.496036 0.0542204 0
0.5 0.050787 0
0.5 0.0468803 0
0.5 0.0429736 0
0.5 0.0390669 0
0.5 0.0351602 0
0.5 0.0312535 0
0.5 0.0273468 0
0.5 0.0234402 0
0.5 0.0195335 0
0.5 0.0156268 0
0.5 0.0117201 0
0.5 0.00781339 0
0.5 0.00390669 0
0.5 1.43781e-13 0
0.5 -0.00390669 0
0.5 -0.00781339 0
0.5 -0.0117201 0
0.5 -0.0156268 0
0.5 -0.0195335 0
0.5 -0.0234402 0
0.5 -0.0273468 0
0.5 -0.0312535 0
0.5 -0.0351602 0
0.5 -0.0390669 0
0.5 -0.0429736 0
0.5 -0.0468803 0
0.5 -0.050787 0
0.496036 -0.0542204 0
0.492071 -0.0537471 0
0.488106 -0.0532784 0
0.48414 -0.0528148 0
0.480175 -0.0523512 0
0.476208 -0.0518968 0
0.472241 -0.0514427 0
0.468274 -0.0509928 0
0.464306 -0.0505482 0
0.460338 -0.0501035 0
0.45637 -0.0496673 0
0.452401 -0.0492319 0
0.448432 -0.0488001 0
0.444462 -0.0483738 0
0.440492 -0.0479474 0
0.436521 -0.0475289 0
0.432551 -0.0471114 0
0.42858 -0.046697 0
0.424608 -0.0462883 0
0.420636 -0.0458797 0
0.416664 -0.0454782 0
0.412691 -0.0450781 0
0.408718 -0.0446807 0
0.404745 -0.044289 0
0.400772 -0.0438973 0
0.396798 -0.0435123 0
0.392823 -0.0431289 0
0.388849 -0.0427479 0
0.384874 -0.0423727 0
0.380899 -0.0419975 0
0.376924 -0.0416285 0
0.372948 -0.0412613 0
0.368972 -0.0408961 0
0.364995 -0.0405368 0
0.361019 -0.0401775 0
0.357042 -0.0398239 0
0.353065 -0.0394724 0
0.349088 -0.0391226 0
0.34511 -0.0387786 0
0.341132 -0.0384347 0
0.337154 -0.0380961 0
0.333175 -0.0377597 0
0.329197 -0.0374248 0
0.325218 -0.0370957 0
0.321239 -0.0367667 0
0.317259 -0.0364427 0
0.313279 -0.036121 0
0.3093 -0.0358005 0
0.305319 -0.0354859 0
0.301339 -0.0351714 0
0.297359 -0.0348615 0
0.293378 -0.034554 0
0.289397 -0.0342476 0
0.285416 -0.0339471 0
0.281434 -0.0336466 0
0.277453 -0.0333504 0
0.273471 -0.0330568 0
0.269489 -0.032764 0
0.265507 -0.0324772 0
0.261524 -0.0321904 0
0.257542 -0.0319077 0
0.253559 -0.0316276 0
0.249576 -0.0313482 0
0.245593 -0.0310748 0
0.241609 -0.0308014 0
0.237626 -0.0305319 0
0.233642 -0.0302651 0
0.229658 -0.0299988 0
0.225674 -0.0297385 0
0.22169 -0.0294782 0
0.217706 -0.0292217 0
0.213721 -0.0289679 0
0.209737 -0.0287146 0
0.205752 -0.0284673 0
0.201767 -0.02822 0
0.197781 -0.0279764 0
0.193796 -0.0277356 0
0.189811 -0.0274951 0
0.185825 -0.0272607 0
0.181839 -0.0270264 0
0.177853 -0.0267956 0
0.173867 -0.0265678 0
0.169881 -0.0263402 0
0.165894 -0.026119 0
0.161908 -0.0258978 0
0.157921 -0.02568 0
0.153934 -0.0254654 0
0.149947 -0.0252509 0
0.14596 -0.025043 0
0.141973 -0.0248352 0
0.137986 -0.0246308 0
0.133998 -0.0244298 0
0.13001 -0.0242288 0
0.126022 -0.024035 0
0.122035 -0.0238411 0
0.118046 -0.0236509 0
0.114058 -0.0234644 0
0.11007 -0.0232779 0
0.106081 -0.023099 0
0.102093 -0.0229202 0
0.0981038 -0.0227453 0
0.0941148 -0.0225747 0
0.0901258 -0.0224041 0
0.0861364 -0.022242 0
0.0821471 -0.0220801 0
0.0781575 -0.0219227 0
0.0741678 -0.0217703 0
0.0701781 -0.021618 0
0.0661879 -0.0214757 0
0.0621978 -0.0213339 0
0.0582075 -0.0211975 0
0.054217 -0.0210676 0
0.0502265 -0.0209377 0
0.0462355 -0.0208207 0
0.0422446 -0.0207045 0
0.0382534 -0.0205955 0
0.034262 -0.0204956 0
0.0302706 -0.0203957 0
0.0262788 -0.0203144 0
0.022287 -0.0202345 0
0.018295 -0.0201654 0
0.0143027 -0.0201109 0
0.0103104 -0.0200563 0
0.00631785 -0.0200329 0
0.00232526 -0.0200121 0
-0.00166732 -0.020011 0
-0.00565987 -0.0200372 0
-0.00965243 -0.0200635 0
-0.0136441 -0.0201487 0
-0.0176357 -0.0202396 0
-0.0216262 -0.0203639 0
-0.0256151 -0.0205369 0
-0.029604 -0.0207098 0
-0.0335881 -0.0209694 0
-0.0375717 -0.0212385 0
-0.041552 -0.0215481 0
-0.0455272 -0.0219207 0
-0.0495024 -0.0222934 0
-0.0534681 -0.0227556 0
-0.0574324 -0.0232306 0
-0.0613923 -0.0237386 0
-0.0653442 -0.0243073 0
-0.0692962 -0.0248759 0
-0.0732381 -0.0255098 0
-0.0771778 -0.0261578 0
-0.0811144 -0.0268235 0
-0.0850433 -0.0275341 0
-0.0889722 -0.0282446 0
-0.0928949 -0.0289889 0
-0.0968152 -0.029745 0
-0.100735 -0.0305068 0
-0.104649 -0.0312931 0
-0.108563 -0.0320794 0
-0.112475 -0.032878 0
-0.116386 -0.0336836 0
-0.120296 -0.0344893 0
-0.124207 -0.0352949 0
-0.128117 -0.0361005 0
-0.132028 -0.0369056 0
-0.135939 -0.0377103 0
-0.13985 -0.0385149 0
-0.143762 -0.0393092 0
-0.147675 -0.0401031 0
-0.15159 -0.0408904 0
-0.155506 -0.041668 0
-0.159422 -0.0424455 0
-0.163342 -0.0432056 0
-0.167262 -0.0439627 0
-0.171183 -0.0447127 0
-0.175108 -0.0454463 0
-0.179033 -0.0461799 0
-0.182961 -0.0468942 0
-0.18689 -0.0476022 0
-0.190821 -0.0483046 0
-0.194755 -0.0489856 0
-0.198689 -0.0496667 0
-0.202626 -0.0503294 0
-0.206565 -0.0509829 0
-0.210504 -0.0516328 0
-0.214448 -0.0522585 0
-0.218391 -0.0528841 0
-0.222337 -0.0534933 0
-0.226284 -0.0540912 0
-0.230232 -0.0546875 0
-0.234184 -0.0552582 0
-0.238136 -0.0558289 0
-0.242089 -0.0563854 0
-0.246045 -0.0569295 0
-0.25 -0.0535098 0
-0.25 -0.0495461 0
-0.25 -0.0455824 0
-0.25 -0.0416187 0
-0.25 -0.0376551 0
-0.25 -0.0336914 0
-0.25 -0.0297277 0
-0.25 -0.025764 0
-0.25 -0.0218003 0
-0.25 -0.0178366 0
-0.25 -0.0138729 0
-0.25 -0.00990922 0
-0.25 -0.00594553 0
-0.25 -0.00198184 0
-0.25 0.00198184 0
-0.25 0.00594553 0
-0.25 0.00990922 0
-0.25 0.0138729 0
-0.25 0.0178366 0
-0.25 0.0218003 0
-0.25 0.025764 0
-0.25 0.0297277 0
-0.25 0.0336914 0
-0.25 0.0376551 0
-0.25 0.0416187 0
-0.25 0.0455824 0
-0.25 0.0495461 0
-0.25 0.0535098 0
-0.246045 0.0569295 0.01
-0.242089 0.0563854 0.01
-0.238136 0.0558289 0.01
-0.234184 0.0552582 0.01
-0.230232 0.0546875 0.01
-0.226284 0.0540912 0.01
-0.222337 0.0534933 0.01
-0.218391 0.0528841 0.01
-0.214448 0.0522585 0.01
-0.210504 0.0516328 0.01
-0.206565 0.0509829 0.01
-0.202626 0.0503294 0.01
-0.198689 0.0496667 0.01
-0.194755 0.0489856 0.01
-0.190821 0.0483046 0.01
-0.18689 0.0476022 0.01
-0.182961 0.0468942 0.01
-0.179033 0.0461799 0.01
-0.175108 0.0454463 0.01
-0.171183 0.0447127 0.01
-0.167262 0.0439627 0.01
[...]
CELL_DATA 7657
SCALARS rho float
LOOKUP_TABLE default
0.48045
0.383376
0.407259
0.331781
0.496689
0.358177
0.318639
0.44586
0.35683
0.500276
0.500338
0.442609
0.336434
0.444689
0.496008
0.491049
0.49594
0.42426
0.423951
0.459984
0.495287
0.426155
0.375818
0.423932
0.433514
0.436188
0.32659
0.341126
0.497484
0.359512
0.316246
0.433493
0.373132
0.478549
0.47898
0.316296
0.359849
0.375132
0.483488
0.319072
0.405877
0.355956
0.340215
0.350783
0.405335
0.409048
0.319756
0.357381
0.433679
0.480078
0.349053
0.331982
0.497416
0.498222
0.318255
0.363156
0.49555
0.493768
0.456798
0.316411
0.433827
0.40359
0.433945
0.434025
0.50094
0.500954
0.336259
0.368892
0.499625
0.45294
0.40934
0.33772
0.337116
0.497475
0.477339
0.355647
0.426152
0.354637
0.476834
0.339165
0.372478
0.449588
0.463626
0.406565
0.408839
0.461399
0.408392
0.451995
0.436464
0.326301
0.50082
0.500858
0.45837
0.49902
0.31795
0.463864
0.462679
0.37892
0.404087
0.317865
0.425023
0.432239
0.381909
0.494891
0.320311
0.364079
0.316567
0.371708
0.340501
0.49486
0.316272
0.370567
0.345279
0.464282
0.415382
0.441887
0.373352
0.318912
0.490426
0.357894
0.501574
0.501558
0.31655
0.379282
0.460704
0.443722
0.441677
0.340223
0.366441
0.340999
0.330633
0.428886
0.364016
0.336791
0.458325
0.316296
0.491363
0.37327
0.429595
0.429969
0.316676
0.325597
0.319765
0.318133
0.422894
0.495207
0.370545
0.384417
0.402807
0.316557
0.320019
0.499735
0.400779
0.341035
0.495288
0.382668
0.368957
0.42745
0.458395
0.316537
0.428011
0.493555
0.43586
0.440583
0.398616
0.38172
0.48353
0.344952
0.414593
0.490833
0.405457
0.365738
0.428539
0.320115
0.316751
0.316388
0.335295
0.463874
0.459019
0.319796
0.31818
0.340069
0.43122
0.431252
0.334484
0.455127
0.349152
0.335771
0.438742
0.463827
0.497415
0.499206
0.458693
0.468482
0.438204
0.365626
0.459695
0.493237
0.316577
0.41249
0.423616
0.431883
0.465224
0.449756
0.326886
0.498318
0.342689
0.320785
0.476466
0.467986
0.390363
0.402766
0.398141
0.45797
0.404664
0.335796
0.317104
0.460101
0.37089
0.412036
0.383631
0.384841
0.500011
0.369946
0.344374
0.374021
0.344053
0.322431
0.354221
0.500048
0.39561
0.395853
0.339168
0.49518
0.489576
0.460602
0.451565
0.432296
0.432307
0.492984
0.389625
0.321659
0.465382
0.372981
0.47558
0.470648
0.349308
0.469793
0.351162
0.352509
0.316255
0.334511
0.372502
0.477539
0.316951
0.335407
0.385502
0.496641
0.498114
0.370226
0.378466
0.498037
0.490032
0.414618
0.317556
0.408284
0.447675
0.321709
0.423517
0.320734
0.331397
0.325727
0.325653
0.465339
0.47497
0.415376
0.343331
0.370538
0.369602
0.440186
0.379449
0.434514
0.323387
0.317316
0.33468
0.316235
0.317246
0.33036
0.405127
0.419434
0.416411
0.336549
0.323612
0.497977
0.372073
0.327468
0.483823
0.450644
0.441689
0.417144
0.462726
0.498634
0.320688
0.347223
0.3269
0.45989
0.317736
0.337133
0.421836
0.371617
0.44073
0.445862
0.49275
0.350999
0.433578
0.492572
0.497925
0.496669
0.370945
0.434549
0.342776
0.37536
0.497881
0.453441
0.490817
0.497356
0.347947
0.39816
0.494159
0.418681
0.364168
0.497577
0.490001
0.387887
0.448141
0.416483
0.371999
0.322433
0.433408
0.497394
0.437684
0.316587
0.389328
0.490077
0.461892
0.31686
0.497384
0.387164
0.410705
0.494211
0.359709
0.427388
0.458588
0.427848
0.317957
0.433142
0.429069
0.321105
0.433238
0.320154
0.378179
0.425489
0.411094
0.443641
0.495675
0.316541
0.43729
0.318511
0.458484
0.461489
0.361312
0.432246
0.464356
0.46311
0.341253
0.337807
0.428012
0.415874
0.419912
0.489213
0.399685
0.422454
0.325237
0.434016
0.497713
0.49969
0.4797
0.442915
0.436808
0.49377
0.378678
0.372438
0.37149
0.464382
0.43559
0.453669
0.317139
0.366174
0.49368
0.359665
0.459939
0.463007
0.422043
0.498737
0.318748
0.432005
0.491551
0.33021
0.493972
0.495999
0.42857
0.361615
0.434064
0.331181
0.465423
0.46209
0.404409
0.449972
0.331469
0.37934
0.375548
0.448673
0.322702
0.395982
0.383781
0.416538
0.462998
0.457223
0.339377
0.432179
0.439449
0.317558
0.39146
0.460499
0.434622
0.488827
0.498599
0.429553
0.490223
0.423352
0.35779
0.48767
0.316252
0.497649
0.440069
0.399932
0.389648
0.321191
0.4959
0.440332
0.433541
0.433282
0.380222
0.319554
0.346168
0.46381
0.319049
0.491636
0.490346
0.466123
0.479361
0.368224
0.419539
0.462048
0.397908
0.454776
0.361853
0.367765
0.318299
0.317547
0.497629
0.381114
0.429137
0.48113
0.494967
0.431603
0.434671
0.35633
0.317454
0.497387
0.444373
0.497519
0.42748
0.428551
0.400782
0.369868
0.322447
0.31592
0.499589
0.434244
0.493296
0.43373
0.444183
0.467403
0.44194
0.326142
0.331889
0.353214
0.478991
0.480367
0.447328
0.446001
0.437079
0.455349
0.45184
0.455285
0.391936
0.337883
0.443152
0.489034
0.322652
0.434536
0.431223
0.493208
0.424683
0.450842
0.486653
0.426894
0.484651
0.377721
0.491445
0.462063
0.444845
0.329706
0.439454
0.448638
0.498543
0.407178
0.498858
0.433913
0.375931
0.48952
0.444852
0.428783
0.403609
0.431457
0.405255
0.447258
0.31692
0.421237
0.399636
0.431575
0.435923
0.441673
0.434747
0.455641
0.430779
0.338536
0.361543
0.430404
0.489769
0.331437
0.427196
0.435632
0.485193
0.488387
0.317836
0.437698
0.366764
0.479133
0.48923
0.350689
0.453204
0.328802
0.430016
0.48745
0.499248
0.456573
0.316443
0.47589
0.463648
0.352398
0.427482
0.378713
0.45926
0.323396
0.443129
0.471529
0.439041
0.443388
0.347743
0.410568
0.460534
0.369308
0.429935
0.425127
0.434298
0.441639
0.499574
0.327861
0.437914
0.44527
0.320948
0.435575
0.45751
0.369264
0.31645
0.34933
0.400672
0.440909
0.466352
0.494719
0.370709
0.437504
0.44378
0.446563
0.4359
0.468809
0.37309
0.495205
0.436217
0.440148
0.442214
0.48757
0.401676
0.489599
0.468506
0.434982
0.432019
0.445928
0.316123
0.498023
0.498005
0.452341
0.448624
0.434073
0.381402
0.440562
0.443462
0.354787
0.424535
0.368064
0.497994
0.434104
0.341072
0.449317
0.430384
0.433899
0.497637
0.424445
0.497619
0.431469
0.433148
0.32659
0.329424
0.45385
0.433614
0.434166
0.409795
0.441463
0.487778
0.434195
0.408668
0.45074
0.467254
0.439365
0.324684
0.431131
0.433799
0.433748
0.317201
0.434241
0.490236
0.434544
0.433834
0.428604
0.43266
0.44242
0.434276
0.403561
0.452239
0.460777
0.423568
0.490328
0.333142
0.402059
0.397221
0.398902
0.461368
0.434331
0.400628
0.433863
0.406594
0.439737
0.444146
0.434374
0.37621
0.33166
0.356805
0.316191
0.472109
0.442108
0.438456
0.433918
0.430383
0.43819
0.462691
0.346446
0.496288
0.495953
0.3225
0.429515
0.347291
0.367533
0.321051
0.343887
0.434431
0.350936
0.43449
0.450963
0.450359
0.333794
0.441803
0.497881
0.426774
0.326774
0.490109
0.498476
0.466538
0.426691
0.342976
0.404409
0.448981
0.450115
0.497242
0.433995
0.435364
0.497771
0.316085
0.457542
0.433532
0.496652
0.34208
0.416055
0.437761
0.437054
0.367324
0.425577
0.450066
0.433781
0.433984
0.394858
0.496564
0.456022
0.317024
0.448691
0.367798
0.361878
0.316729
0.435363
0.498589
0.32714
0.434241
0.48633
0.499536
0.495814
0.497012
0.318548
0.49747
0.497694
0.389762
0.497142
0.458042
0.433565
0.434036
0.445416
0.373212
0.36217
0.434145
0.439405
0.427426
0.426885
0.488758
0.358841
0.496961
0.438266
0.488361
0.495635
0.496829
0.391585
0.343021
0.434256
0.318658
0.448653
0.320852
0.468276
0.496786
0.338272
0.459352
0.431181
0.433909
0.321113
0.438483
0.434028
0.403728
0.489671
0.447352
0.454105
0.409515
0.421443
0.496227
0.316192
0.328895
0.437854
0.415109
0.457351
0.457342
0.348145
0.496415
0.447333
0.468018
0.343048
0.329994
0.346129
0.323038
0.496036
0.466231
0.344978
0.44953
0.494267
0.46647
0.375988
0.458174
0.456489
0.320309
0.463699
0.437495
0.31811
0.43862
0.326376
0.452555
0.436593
0.318661
0.435468
0.456264
0.31675
0.4879
0.466764
0.495544
0.433624
0.45795
0.434829
0.433449
0.499075
0.497796
0.495346
0.410918
0.452475
0.463841
0.341024
0.495721
0.497975
0.316167
0.360666
0.317356
0.434177
0.438409
0.4977
0.438633
0.493932
0.495636
0.453161
0.493666
0.49585
0.341896
0.434017
0.451647
0.316542
0.495085
0.32114
0.360143
0.497832
0.331079
0.436158
0.495359
0.318066
0.316914
0.496379
0.495528
0.444871
0.496113
0.439431
0.449186
0.437784
0.355249
0.351105
0.358933
0.44371
0.444624
0.496149
0.33921
0.434116
0.347104
0.495575
0.495855
0.495305
0.495818
0.434718
0.494813
0.466376
0.49454
0.495038
0.491131
0.455983
0.491476
0.321994
0.434215
0.322927
0.466569
0.317556
0.349389
0.319614
0.316438
0.446084
0.446188
0.49727
0.440261
0.49477
0.439533
0.368539
0.462672
0.464655
0.438302
0.497391
0.436152
0.450316
0.317733
0.494504
0.446522
0.446412
0.335814
0.490621
0.437275
0.436508
0.323311
0.455603
0.455585
0.448719
0.345015
0.347148
0.329756
0.31792
0.497722
0.468214
0.446015
0.428045
0.31738
0.319257
0.462862
0.438799
0.403365
0.322352
0.339004
0.339071
0.341424
0.437251
0.315763
0.398751
0.44294
0.315879
0.433658
0.493174
0.43723
0.448025
0.369598
0.350681
0.45772
0.319566
0.468385
0.436205
0.434137
0.479864
0.482029
0.434139
0.466341
0.472553
0.325219
0.434088
0.444933
0.352938
0.315703
0.454906
0.49408
0.43732
0.436948
0.433988
0.434085
0.455782
0.435042
0.432382
0.323753
0.317795
0.494118
0.316397
0.456564
0.46206
0.49742
0.498102
0.419592
0.413736
0.464191
0.43969
0.46839
0.426748
0.493467
0.436229
0.434082
0.462664
0.317925
0.457371
0.496044
0.435954
0.434178
0.331997
0.497207
0.441921
0.440147
0.335392
0.335114
0.365717
0.437184
0.492865
0.4586
0.40093
0.413531
0.315442
0.321989
0.424891
0.435668
0.493316
0.317087
0.434327
0.3198
0.31597
0.454339
0.497305
0.434457
0.497434
0.412773
0.412841
0.399589
0.497195
0.424299
0.468779
0.436473
0.424353
0.332185
0.401014
0.479667
0.385736
0.497351
0.325356
0.351773
0.495605
0.497804
0.447534
0.493515
0.495503
0.492808
0.450598
0.318888
0.325244
0.426227
0.497168
0.346792
0.443463
0.367102
0.481269
0.446682
0.345967
0.432578
0.462909
0.431441
0.457034
0.436786
0.495337
0.443313
0.43771
0.434273
0.497275
0.434279
0.479789
0.354274
0.43423
0.316196
0.435114
0.467395
0.324596
0.496314
0.471033
0.473522
0.436798
0.355467
0.462285
0.320156
0.316933
0.318992
0.464573
0.436502
0.430845
0.434234
0.31734
0.492491
0.44019
0.434972
0.315781
0.318105
0.444415
0.489207
0.497119
0.43571
0.441747
0.323296
0.43647
0.367056
0.324316
0.449031
0.434469
0.390608
0.462661
0.319837
0.446295
0.497768
0.477302
0.436657
0.47813
0.464885
0.490994
0.460734
0.49733
0.492064
0.324972
0.40237
0.403401
0.492112
0.494561
0.434923
0.376401
0.441741
0.491729
0.442718
0.315629
0.490307
0.460594
0.436548
0.317459
0.315688
0.436847
0.316447
0.35052
0.316748
0.340166
0.339983
0.351824
0.349428
0.434404
0.315804
0.497192
0.434425
0.498083
0.453344
0.317284
0.43889
0.451702
0.440853
0.316397
0.456383
0.496258
0.440911
0.440148
0.471178
0.45904
0.315627
0.316923
0.447891
0.447933
0.457385
0.496358
0.315719
0.438763
0.497036
0.460869
0.461606
0.430795
0.424849
0.497883
0.465576
0.333661
0.318655
0.450904
0.315682
0.438082
0.318761
0.376833
0.454067
0.434354
0.442351
0.44913
0.432558
0.432457
0.327244
0.49764
0.324658
0.497979
0.437203
0.460963
0.493994
0.46082
0.491686
0.426291
0.323269
0.315888
0.494115
0.356819
0.494351
0.446184
0.448029
0.323169
0.497413
0.493371
0.350061
0.45018
0.317563
0.317595
0.434614
0.493883
0.318043
0.368397
0.331362
0.315719
0.47888
0.434257
0.480444
0.477198
0.434371
0.432181
0.43228
0.325603
0.434282
0.454869
0.459107
0.316043
0.431734
0.438748
0.35584
0.316284
0.442782
0.434192
0.440862
0.452757
0.451451
0.458172
0.43388
0.497885
0.434039
0.390517
0.42344
0.435377
0.434875
0.434244
0.316375
0.440958
0.420136
0.420285
0.491926
0.448781
0.435303
0.498718
0.446169
0.42999
0.440966
0.434961
0.491342
0.338531
0.435351
0.338761
0.492438
0.421806
0.317101
0.483157
0.401864
0.401849
0.455271
0.451108
0.369542
0.461379
0.44727
0.497114
0.383919
0.383916
0.332865
0.456718
0.434195
0.449216
0.36056
0.456598
0.447418
0.434476
0.435151
0.453602
0.47209
0.473358
0.365741
0.453855
0.440502
0.455266
0.34499
0.343764
0.343845
0.431758
0.438733
0.450162
0.452507
0.458443
0.432306
0.328709
0.432214
0.431097
0.453224
0.329055
0.44095
0.368183
0.452051
0.389636
0.389573
0.435536
0.493894
0.44386
0.316133
0.49716
0.456709
0.318143
0.407168
0.497827
0.493404
0.424841
0.31705
0.334233
0.337791
0.406551
0.435162
0.447414
0.433082
0.43035
0.420513
0.455204
0.432924
0.416589
0.420153
0.427061
0.451574
0.431991
0.443712
0.321759
0.42184
0.494795
0.493654
0.43493
0.440089
0.428077
0.439441
0.450229
0.440912
0.323678
0.420301
0.448839
0.449479
0.444798
0.451713
0.450495
0.441865
0.327069
0.385879
0.385851
0.446048
0.439414
0.447882
0.493794
0.318758
0.440103
0.434086
0.453672
0.434499
0.334562
0.493906
0.436097
0.316222
0.489849
0.449948
0.3237
0.44779
0.34021
0.416696
0.315681
0.315711
0.340136
0.340218
0.434164
0.438208
0.497414
0.497438
0.338586
0.44651
0.459394
0.360605
0.390952
0.43431
0.316249
0.439403
0.440957
0.480551
0.317421
0.324915
0.358037
0.454619
0.450135
0.448195
0.452979
0.498777
0.435042
0.435299
0.435658
0.446064
0.434863
0.449084
0.440192
0.389594
0.494237
0.464224
0.497837
0.442172
0.441403
0.453242
0.438178
0.398387
0.437402
0.435648
0.430362
0.445364
0.437074
0.435181
0.498412
0.437244
0.421886
0.492265
0.40992
0.414334
0.497881
0.438428
0.455806
0.49372
0.317347
0.445029
0.490951
0.438698
0.497156
0.437083
0.439402
0.317978
0.497373
0.490557
0.49187
0.379765
0.379769
0.435026
0.318026
0.498547
0.442366
0.499219
0.366094
0.442728
0.43681
0.322588
0.368235
0.491304
0.394142
0.32164
0.499135
0.320794
0.49986
0.499824
0.499068
0.320096
0.4344
0.498836
0.441024
0.497566
0.495325
0.441306
0.455037
0.476306
0.32565
0.31792
0.498563
0.355418
0.435895
0.318629
0.326506
0.326074
0.436979
0.472589
0.320422
0.330414
0.489963
0.498795
0.44741
0.465645
0.435466
0.335787
0.499538
0.499507
0.493674
0.444042
0.493533
0.444183
0.327497
0.433793
0.433976
0.434917
0.497428
0.443738
0.497878
0.498405
0.444917
0.320745
0.456683
0.455034
0.316436
0.316134
0.315516
0.363213
0.435924
0.493318
0.472658
0.436259
0.435661
0.436969
0.434675
0.436434
0.498991
0.431698
0.498482
0.319057
0.466802
0.434942
0.337605
0.337694
0.493038
0.433844
0.495446
0.437669
0.437561
0.435297
0.432499
0.432385
0.437896
0.437217
0.447684
0.497146
0.343817
0.436909
0.434792
0.437383
0.344845
0.344792
0.4493
0.441419
0.435159
0.452707
0.436679
0.496579
0.44995
0.359133
0.497075
0.348212
0.3481
0.438933
0.434186
0.443025
0.43481
0.382819
0.382856
0.369382
0.390534
0.390469
0.316179
0.434563
0.498191
0.360724
0.434791
0.438091
0.482601
0.434741
0.400936
0.400912
0.41924
0.419318
0.433109
0.438814
0.408085
0.431406
0.431059
0.497052
0.434707
0.425574
0.488929
0.435467
0.393215
0.3932
0.432938
0.435315
0.433227
0.410971
0.410946
0.437225
0.434572
0.429918
0.459869
0.433083
0.317541
0.438755
0.448701
0.498207
0.435893
0.408497
0.434739
0.498835
0.498795
0.498593
0.458776
0.496458
0.494552
0.422596
0.49838
0.37928
0.490919
0.495148
0.49842
0.435893
0.444966
0.445341
0.37305
0.453968
0.461759
0.49765
0.316399
0.316126
0.434846
0.449674
0.41561
0.490277
0.434572
0.435154
0.492926
0.493536
0.460964
0.496948
0.496962
0.455633
0.492784
0.316967
0.317838
0.495327
0.410986
0.360724
0.468141
0.31976
0.498266
0.498354
0.446919
0.497391
0.497765
0.489693
0.437318
0.316926
0.434281
0.497108
0.462749
0.484746
0.49753
0.43506
0.497701
0.315818
0.435836
0.316199
0.430486
0.434714
0.498159
0.31631
0.316355
0.445186
0.397479
0.492645
0.497031
0.490007
0.435697
0.318967
0.434661
0.494937
0.448749
0.497822
0.496756
0.496482
0.436257
0.393242
0.437705
0.497004
0.435043
0.497676
0.436885
0.484131
0.49507
0.440459
0.490242
0.386805
0.386737
0.496186
0.495208
0.496953
0.49679
0.489432
0.497273
0.49739
0.475607
0.443124
0.433453
0.497102
0.497584
0.44409
0.434748
0.436713
0.428592
0.436347
0.49412
0.378631
0.37865
0.498059
0.498424
0.324411
0.498431
0.496003
0.454098
0.434665
0.43434
0.495573
0.496309
0.454783
0.496967
0.497311
0.489745
0.471469
0.495392
0.497691
0.493418
0.497571
0.365736
0.434765
0.484145
0.435219
0.497213
0.497071
0.478947
0.434722
0.436267
0.434635
0.496643
0.487709
0.497373
0.324979
0.354056
0.434751
0.498507
0.494366
0.365676
0.435102
0.495223
0.496829
0.497023
0.340898
0.340958
0.457348
0.4275
0.497197
0.32979
0.434208
0.49608
0.473738
0.436058
0.335137
0.496902
0.434213
0.328043
0.496353
0.433893
0.49316
0.43461
0.448093
0.497291
0.498264
0.43484
0.434883
0.434015
0.49497
0.497321
0.454901
0.497578
0.494064
0.364541
0.49518
0.43596
0.446356
0.495865
0.333687
0.435534
0.496303
0.434575
0.497415
0.497684
0.479524
0.432061
0.433605
0.436596
0.454648
0.431978
0.454904
0.49714
0.434783
0.495416
0.497007
0.496766
0.494576
0.49702
0.442123
0.497282
0.337955
0.497061
0.332082
0.496957
0.494153
0.493009
0.49791
0.493701
0.436883
0.349349
0.349257
0.435371
0.438026
0.497498
0.322317
0.321381
0.422674
0.421054
0.49585
0.497039
0.496041
0.441231
0.492385
0.49697
0.434231
0.361969
0.496166
0.496979
0.43744
0.497307
0.315869
0.318587
0.49828
0.497691
0.497656
0.363152
0.494334
0.497149
0.495199
0.469229
0.470454
0.499184
0.493969
0.496857
0.339315
0.394085
0.394072
0.434531
0.361978
0.494766
0.495511
0.493216
0.49317
0.495282
0.477186
0.496882
0.433725
0.324335
0.495255
0.495504
0.497523
0.434597
0.494819
0.496725
0.435091
0.411927
0.411897
0.469523
0.493826
0.497187
0.494982
0.437824
0.430744
0.495453
0.412143
0.497932
0.490656
0.494404
0.434657
0.492698
0.446426
0.435018
0.494167
0.497486
0.434772
0.43888
0.434852
0.492454
0.494903
0.489494
0.493236
0.496954
0.496917
0.494615
0.495144
0.494991
0.431676
0.493626
0.496806
0.493353
0.428568
0.497241
0.497559
0.489101
0.496727
0.494805
0.496712
0.369919
0.497549
0.495035
0.493883
0.494148
0.496457
0.433746
0.49783
0.446472
0.437389
0.495967
0.49573
0.495496
0.493402
0.496881
0.494595
0.497368
0.495138
0.435988
0.495265
0.435035
0.434108
0.434288
0.434688
0.49696
0.492889
0.496207
0.434364
0.494356
0.494407
0.493916
0.491808
0.495383
0.494671
0.433969
0.493445
0.489556
0.495145
0.492084
0.434249
0.497312
0.427472
0.497267
0.49552
0.497773
0.47805
0.492942
0.316475
0.31677
0.451678
0.489518
0.49304
0.494431
0.434127
0.433767
0.497604
0.49424
0.497217
0.491685
0.49272
0.496546
0.496204
0.496171
0.495509
0.49441
0.493147
0.494
0.419469
0.497488
0.405489
0.316287
0.434254
0.434425
0.433949
0.434596
0.419409
0.494755
0.405444
0.493963
0.484725
0.488421
0.492634
0.493646
0.494246
0.435795
0.481657
0.497318
0.496038
0.49314
0.481676
0.492404
0.474616
0.434616
0.496858
0.49372
0.450543
0.497039
0.379615
0.463536
0.496842
0.488743
0.496953
0.493185
0.37071
0.438149
0.497269
0.470226
0.492346
0.494591
0.493133
0.494843
0.49281
0.496903
0.49147
0.31789
0.495705
0.434656
0.434461
0.435807
0.482296
0.491911
0.497183
0.492893
0.493969
0.49342
0.497834
0.492615
0.46824
0.491214
0.492325
0.315909
0.470537
0.492798
0.496698
0.430034
0.492144
0.489991
0.489183
0.434521
0.49315
0.44061
0.436834
0.436487
0.49217
0.4947
0.491134
0.496376
0.494667
0.441282
0.497331
0.43822
0.493407
0.435325
0.498107
0.434057
0.496908
0.492654
0.497294
0.497767
0.491945
0.431304
0.496672
0.434457
0.493691
0.434682
0.436356
0.434838
0.491521
0.433387
0.49706
0.438747
0.488294
0.494779
0.43456
0.492511
0.492101
0.497569
0.49659
0.408002
0.434546
0.432087
0.43446
0.492169
0.495427
0.495376
0.434404
0.492722
0.493455
0.432
0.426966
0.339931
0.331228
0.491552
0.444802
0.435148
0.322631
0.321417
0.422704
0.491323
0.429219
0.494221
0.491749
0.49088
0.496797
0.49151
0.489923
0.447113
0.446751
0.317935
0.490209
0.43412
0.490479
0.493946
0.434581
0.495878
0.469143
0.436138
0.471396
0.434128
0.434385
0.453101
0.362022
0.449444
0.491191
0.438543
0.432967
0.436829
0.496241
0.447191
0.434357
0.323945
0.434157
0.493602
0.433492
0.443956
0.493794
0.435241
0.492847
0.496617
0.434436
0.43078
0.434495
0.412584
0.489875
0.49114
0.437432
0.49366
0.495744
0.451019
0.434455
0.370259
0.434333
0.43388
0.488426
0.429217
0.433929
0.491065
0.498288
0.492632
0.433513
0.433996
0.433176
0.498763
0.434095
0.43346
0.494951
0.433198
0.491485
0.434381
0.433578
0.47715
0.490531
0.316812
0.316296
0.455925
0.457761
0.491067
0.487249
0.43451
0.43342
0.393503
0.393324
0.457857
0.4973
0.316448
0.494999
0.493182
0.491111
0.495324
0.494826
0.459623
0.434411
0.432425
0.492341
0.433069
0.488784
0.494171
0.43407
0.48899
0.434086
0.434394
0.488124
0.443097
0.490845
0.423645
0.434291