# vtk DataFile Version 1.0
unstructured grid
ascii
DATASET UNSTRUCTURED_GRID
points 8094 float
-0.25 0.0574735 0
0.5 0.0546937 0
0.5 -0.0546937 0
-0.25 -0.0574735 0
-0.25 0.0574735 0.01
0.5 0.0546937 0.01
0.5 -0.0546937 0.01
-0.25 -0.0574735 0.01
-0.246045 0.0569295 0
-0.242089 0.0563854 0
-0.238136 0.0558289 0
-0.234184 0.0552582 0
-0.230232 0.0546875 0
-0.226284 0.0540912 0
-0.222337 0.0534933 0
-0.218391 0.0528841 0
-0.214448 0.0522585 0
-0.210504 0.0516328 0
-0.206565 0.0509829 0
-0.202626 0.0503294 0
-0.198689 0.0496667 0
-0.194755 0.0489856 0
-0.190821 0.0483046 0
-0.18689 0.0476022 0
-0.182961 0.0468942 0
-0.179033 0.0461799 0
-0.175108 0.0454463 0
-0.171183 0.0447127 0
-0.167262 0.0439627 0
-0.163342 0.0432056 0
-0.159422 0.0424455 0
-0.155506 0.041668 0
-0.15159 0.0408904 0
-0.147675 0.0401031 0
-0.143762 0.0393092 0
-0.13985 0.0385149 0
-0.135939 0.0377103 0
-0.132028 0.0369056 0
-0.128117 0.0361005 0
-0.124207 0.0352949 0
-0.120296 0.0344893 0
-0.116386 0.0336836 0
-0.112475 0.032878 0
-0.108563 0.0320794 0
-0.104649 0.0312931 0
-0.100735 0.0305068 0
-0.0968152 0.029745 0
-0.0928949 0.0289889 0
-0.0889722 0.0282446 0
-0.0850433 0.0275341 0
-0.0811144 0.0268235 0
-0.0771778 0.0261578 0
-0.0732381 0.0255098 0
-0.0692962 0.0248759 0
-0.0653442 0.0243073 0
-0.0613923 0.0237386 0
-0.0574324 0.0232306 0
-0.0534681 0.0227556 0
-0.0495024 0.0222934 0
-0.0455272 0.0219207 0
-0.041552 0.0215481 0
-0.0375717 0.0212385 0
-0.0335881 0.0209694 0
-0.029604 0.0207098 0
-0.0256151 0.0205369 0
-0.0216262 0.0203639 0
-0.0176357 0.0202396 0
-0.0136441 0.0201487 0
-0.00965243 0.0200635 0
-0.00565987 0.0200372 0
-0.00166732 0.020011 0
0.00232526 0.0200121 0
0.00631785 0.0200329 0
0.0103104 0.0200563 0
0.0143027 0.0201109 0
0.018295 0.0201654 0
0.022287 0.0202345 0
0.0262788 0.0203144 0
0.0302706 0.0203957 0
0.034262 0.0204956 0
0.0382534 0.0205955 0
0.0422446 0.0207045 0
0.0462355 0.0208207 0
0.0502265 0.0209377 0
0.054217 0.0210676 0
0.0582075 0.0211975 0
0.0621978 0.0213339 0
0.0661879 0.0214757 0
0.0701781 0.021618 0
0.0741678 0.0217703 0
0.0781575 0.0219227 0
0.0821471 0.0220801 0
0.0861364 0.022242 0
0.0901258 0.0224041 0
0.0941148 0.0225747 0
0.0981038 0.0227453 0
0.102093 0.0229202 0
0.106081 0.023099 0
0.11007 0.0232779 0
0.114058 0.0234644 0
0.118046 0.0236509 0
0.122035 0.0238411 0
0.126022 0.024035 0
0.13001 0.0242288 0
0.133998 0.0244298 0
0.137986 0.0246308 0
0.141973 0.0248352 0
0.14596 0.025043 0
0.149947 0.0252509 0
0.153934 0.0254654 0
0.157921 0.02568 0
0.161908 0.0258978 0
0.165894 0.026119 0
0.169881 0.0263402 0
0.173867 0.0265678 0
0.177853 0.0267956 0
0.181839 0.0270264 0
0.185825 0.0272607 0
0.189811 0.0274951 0
0.193796 0.0277356 0
0.197781 0.0279764 0
0.201767 0.02822 0
0.205752 0.0284673 0
0.209737 0.0287146 0
0.213721 0.0289679 0
0.217706 0.0292217 0
0.22169 0.0294782 0
0.225674 0.0297385 0
0.229658 0.0299988 0
0.233642 0.0302651 0
0.237626 0.0305319 0
0.241609 0.0308014 0
0.245593 0.0310748 0
0.249576 0.0313482 0
0.253559 0.0316276 0
0.257542 0.0319077 0
0.261524 0.0321904 0
0.265507 0.0324772 0
0.269489 0.032764 0
0.273471 0.0330568 0
0.277453 0.0333504 0
0.281434 0.0336466 0
0.285416 0.0339471 0
0.289397 0.0342476 0
0.293378 0.034554 0
0.297359 0.0348615 0
0.301339 0.0351714 0
0.305319 0.0354859 0
0.3093 0.0358005 0
0.313279 0.036121 0
0.317259 0.0364427 0
0.321239 0.0367667 0
0.325218 0.0370957 0
0.329197 0.0374248 0
0.333175 0.0377597 0
0.337154 0.0380961 0
0.341132 0.0384347 0
0.34511 0.0387786 0
0.349088 0.0391226 0
0.353065 0.0394724 0
0.357042 0.0398239 0
0.361019 0.0401775 0
0.364995 0.0405368 0
0.368972 0.0408961 0
0.372948 0.0412613 0
0.376924 0.0416285 0
0.380899 0.0419975 0
0.384874 0.0423727 0
0.388849 0.0427479 0
0.392823 0.0431289 0
0.396798 0.0435123 0
0.400772 0.0438973 0
0.404745 0.044289 0
0.408718 0.0446807 0
0.412691 0.0450781 0
0.416664 0.0454782 0
0.420636 0.0458797 0
0.424608 0.0462883 0
0.42858 0.046697 0
0.432551 0.0471114 0
0.436521 0.0475289 0
0.440492 0.0479474 0
0.444462 0.0483738 0
0.448432 0.0488001 0
0.452401 0.0492319 0
0.45637 0.0496673 0
0.460338 0.0501035 0
0.464306 0.0505482 0
0.468274 0.0509928 0
0.472241 0.0514427 0
0.476208 0.0518968 0
0.480175 0.0523512 0
0.48414 0.0528148 0
0.488106 0.0532784 0
0.492071 0.0537471 0
0.496036 0.0542204 0
0.5 0.050787 0
0.5 0.0468803 0
0.5 0.0429736 0
0.5 0.0390669 0
0.5 0.0351602 0
0.5 0.0312535 0
0.5 0.0273468 0
0.5 0.0234402 0
0.5 0.0195335 0
0.5 0.0156268 0
0.5 0.0117201 0
0.5 0.00781339 0
0.5 0.00390669 0
0.5 1.43781e-13 0
0.5 -0.00390669 0
0.5 -0.00781339 0
0.5 -0.0117201 0
0.5 -0.0156268 0
0.5 -0.0195335 0
0.5 -0.0234402 0
0.5 -0.0273468 0
0.5 -0.0312535 0
0.5 -0.0351602 0
0.5 -0.0390669 0
0.5 -0.0429736 0
0.5 -0.0468803 0
0.5 -0.050787 0
0.496036 -0.0542204 0
0.492071 -0.0537471 0
0.488106 -0.0532784 0
0.48414 -0.0528148 0
0.480175 -0.0523512 0
0.476208 -0.0518968 0
0.472241 -0.0514427 0
0.468274 -0.0509928 0
0.464306 -0.0505482 0
0.460338 -0.0501035 0
0.45637 -0.0496673 0
0.452401 -0.0492319 0
0.448432 -0.0488001 0
0.444462 -0.0483738 0
0.440492 -0.0479474 0
0.436521 -0.0475289 0
0.432551 -0.0471114 0
0.42858 -0.046697 0
0.424608 -0.0462883 0
0.420636 -0.0458797 0
0.416664 -0.0454782 0
0.412691 -0.0450781 0
0.408718 -0.0446807 0
0.404745 -0.044289 0
0.400772 -0.0438973 0
0.396798 -0.0435123 0
0.392823 -0.0431289 0
0.388849 -0.0427479 0
0.384874 -0.0423727 0
0.380899 -0.0419975 0
0.376924 -0.0416285 0
0.372948 -0.0412613 0
0.368972 -0.0408961 0
0.364995 -0.0405368 0
0.361019 -0.0401775 0
0.357042 -0.0398239 0
0.353065 -0.0394724 0
0.349088 -0.0391226 0
0.34511 -0.0387786 0
0.341132 -0.0384347 0
0.337154 -0.0380961 0
0.333175 -0.0377597 0
0.329197 -0.0374248 0
0.325218 -0.0370957 0
0.321239 -0.0367667 0
0.317259 -0.0364427 0
0.313279 -0.036121 0
0.3093 -0.0358005 0
0.305319 -0.0354859 0
0.301339 -0.0351714 0
0.297359 -0.0348615 0
0.293378 -0.034554 0
0.289397 -0.0342476 0
0.285416 -0.0339471 0
0.281434 -0.0336466 0
0.277453 -0.0333504 0
0.273471 -0.0330568 0
0.269489 -0.032764 0
0.265507 -0.0324772 0
0.261524 -0.0321904 0
0.257542 -0.0319077 0
0.253559 -0.0316276 0
0.249576 -0.0313482 0
0.245593 -0.0310748 0
0.241609 -0.0308014 0
0.237626 -0.0305319 0
0.233642 -0.0302651 0
0.229658 -0.0299988 0
0.225674 -0.0297385 0
0.22169 -0.0294782 0
0.217706 -0.0292217 0
0.213721 -0.0289679 0
0.209737 -0.0287146 0
0.205752 -0.0284673 0
0.201767 -0.02822 0
0.197781 -0.0279764 0
0.193796 -0.0277356 0
0.189811 -0.0274951 0
0.185825 -0.0272607 0
0.181839 -0.0270264 0
0.177853 -0.0267956 0
0.173867 -0.0265678 0
0.169881 -0.0263402 0
0.165894 -0.026119 0
0.161908 -0.0258978 0
0.157921 -0.02568 0
0.153934 -0.0254654 0
0.149947 -0.0252509 0
0.14596 -0.025043 0
0.141973 -0.0248352 0
0.137986 -0.0246308 0
0.133998 -0.0244298 0
0.13001 -0.0242288 0
0.126022 -0.024035 0
0.122035 -0.0238411 0
0.118046 -0.0236509 0
0.114058 -0.0234644 0
0.11007 -0.0232779 0
0.106081 -0.023099 0
0.102093 -0.0229202 0
0.0981038 -0.0227453 0
0.0941148 -0.0225747 0
0.0901258 -0.0224041 0
0.0861364 -0.022242 0
0.0821471 -0.0220801 0
0.0781575 -0.0219227 0
0.0741678 -0.0217703 0
0.0701781 -0.021618 0
0.0661879 -0.0214757 0
0.0621978 -0.0213339 0
0.0582075 -0.0211975 0
0.054217 -0.0210676 0
0.0502265 -0.0209377 0
0.0462355 -0.0208207 0
0.0422446 -0.0207045 0
0.0382534 -0.0205955 0
0.034262 -0.0204956 0
0.0302706 -0.0203957 0
0.0262788 -0.0203144 0
0.022287 -0.0202345 0
0.018295 -0.0201654 0
0.0143027 -0.0201109 0
0.0103104 -0.0200563 0
0.00631785 -0.0200329 0
0.00232526 -0.0200121 0
-0.00166732 -0.020011 0
-0.00565987 -0.0200372 0
-0.00965243 -0.0200635 0
-0.0136441 -0.0201487 0
-0.0176357 -0.0202396 0
-0.0216262 -0.0203639 0
-0.0256151 -0.0205369 0
-0.029604 -0.0207098 0
-0.0335881 -0.0209694 0
-0.0375717 -0.0212385 0
-0.041552 -0.0215481 0
-0.0455272 -0.0219207 0
-0.0495024 -0.0222934 0
-0.0534681 -0.0227556 0
-0.0574324 -0.0232306 0
-0.0613923 -0.0237386 0
-0.0653442 -0.0243073 0
-0.0692962 -0.0248759 0
-0.0732381 -0.0255098 0
-0.0771778 -0.0261578 0
-0.0811144 -0.0268235 0
-0.0850433 -0.0275341 0
-0.0889722 -0.0282446 0
-0.0928949 -0.0289889 0
-0.0968152 -0.029745 0
-0.100735 -0.0305068 0
-0.104649 -0.0312931 0
-0.108563 -0.0320794 0
-0.112475 -0.032878 0
-0.116386 -0.0336836 0
-0.120296 -0.0344893 0
-0.124207 -0.0352949 0
-0.128117 -0.0361005 0
-0.132028 -0.0369056 0
-0.135939 -0.0377103 0
-0.13985 -0.0385149 0
-0.143762 -0.0393092 0
-0.147675 -0.0401031 0
-0.15159 -0.0408904 0
-0.155506 -0.041668 0
-0.159422 -0.0424455 0
-0.163342 -0.0432056 0
-0.167262 -0.0439627 0
-0.171183 -0.0447127 0
-0.175108 -0.0454463 0
-0.179033 -0.0461799 0
-0.182961 -0.0468942 0
-0.18689 -0.0476022 0
-0.190821 -0.0483046 0
-0.194755 -0.0489856 0
-0.198689 -0.0496667 0
-0.202626 -0.0503294 0
-0.206565 -0.0509829 0
-0.210504 -0.0516328 0
-0.214448 -0.0522585 0
-0.218391 -0.0528841 0
-0.222337 -0.0534933 0
-0.226284 -0.0540912 0
-0.230232 -0.0546875 0
-0.234184 -0.0552582 0
-0.238136 -0.0558289 0
-0.242089 -0.0563854 0
-0.246045 -0.0569295 0
-0.25 -0.0535098 0
-0.25 -0.0495461 0
-0.25 -0.0455824 0
-0.25 -0.0416187 0
-0.25 -0.0376551 0
-0.25 -0.0336914 0
-0.25 -0.0297277 0
-0.25 -0.025764 0
-0.25 -0.0218003 0
-0.25 -0.0178366 0
-0.25 -0.0138729 0
-0.25 -0.00990922 0
-0.25 -0.00594553 0
-0.25 -0.00198184 0
-0.25 0.00198184 0
-0.25 0.00594553 0
-0.25 0.00990922 0
-0.25 0.0138729 0
-0.25 0.0178366 0
-0.25 0.0218003 0
-0.25 0.025764 0
-0.25 0.0297277 0
-0.25 0.0336914 0
-0.25 0.0376551 0
-0.25 0.0416187 0
-0.25 0.0455824 0
-0.25 0.0495461 0
-0.25 0.0535098 0
-0.246045 0.0569295 0.01
-0.242089 0.0563854 0.01
-0.238136 0.0558289 0.01
-0.234184 0.0552582 0.01
-0.230232 0.0546875 0.01
-0.226284 0.0540912 0.01
-0.222337 0.0534933 0.01
-0.218391 0.0528841 0.01
-0.214448 0.0522585 0.01
-0.210504 0.0516328 0.01
-0.206565 0.0509829 0.01
-0.202626 0.0503294 0.01
-0.198689 0.0496667 0.01
-0.194755 0.0489856 0.01
-0.190821 0.0483046 0.01
-0.18689 0.0476022 0.01
-0.182961 0.0468942 0.01
-0.179033 0.0461799 0.01
-0.175108 0.0454463 0.01
-0.171183 0.0447127 0.01
-0.167262 0.0439627 0.01
[...]
CELL_DATA 7657
SCALARS rho float
LOOKUP_TABLE default
0.568234
0.553558
0.483806
0.481012
0.503902
0.445579
0.544702
0.501737
0.55022
0.50669
0.506644
0.501974
0.548017
0.501857
0.503711
0.517519
0.503747
0.493701
0.493657
0.500206
0.503699
0.494925
0.552568
0.493633
0.501059
0.502675
0.499642
0.548608
0.506113
0.445535
0.540931
0.501065
0.55223
0.57017
0.56959
0.541521
0.445399
0.552551
0.561393
0.526502
0.482941
0.550073
0.460475
0.448943
0.482496
0.485187
0.545336
0.445766
0.501015
0.568952
0.449771
0.47974
0.506085
0.504993
0.544459
0.445717
0.503691
0.50468
0.567358
0.540313
0.501215
0.481142
0.501816
0.501943
0.506836
0.506823
0.547992
0.447906
0.505188
0.566522
0.485151
0.548196
0.466027
0.506139
0.570415
0.446138
0.494912
0.446532
0.570804
0.548242
0.552021
0.50152
0.500272
0.4833
0.484969
0.568406
0.484567
0.566261
0.502653
0.501341
0.50686
0.506862
0.567725
0.505133
0.529489
0.568987
0.568747
0.553004
0.481596
0.529469
0.494126
0.499222
0.553452
0.503602
0.54553
0.551083
0.53503
0.45003
0.548426
0.503776
0.540971
0.449027
0.453246
0.500265
0.48883
0.563985
0.451195
0.525448
0.525072
0.44567
0.506965
0.506982
0.534618
0.552914
0.500774
0.501869
0.502083
0.460523
0.446723
0.459132
0.485218
0.496562
0.44591
0.467313
0.500276
0.536395
0.515131
0.552263
0.497148
0.497435
0.535261
0.50409
0.523944
0.528146
0.492944
0.503588
0.551917
0.553794
0.480504
0.535042
0.521391
0.506172
0.556144
0.459209
0.503523
0.553457
0.447993
0.49571
0.500257
0.53702
0.496069
0.505135
0.502691
0.563643
0.477
0.553395
0.559314
0.453994
0.488484
0.52059
0.482541
0.551314
0.496297
0.522286
0.542513
0.542032
0.471076
0.569063
0.500847
0.522858
0.528061
0.548427
0.498421
0.498517
0.547787
0.566963
0.549355
0.469774
0.50242
0.56908
0.506054
0.505285
0.500273
0.569961
0.502454
0.446362
0.500132
0.50588
0.54207
0.487271
0.493346
0.498914
0.569343
0.565711
0.499134
0.50507
0.548634
0.545678
0.56915
0.569925
0.46882
0.48048
0.476497
0.500295
0.481931
0.46924
0.543403
0.568088
0.449244
0.486954
0.553643
0.553612
0.506518
0.448599
0.548836
0.55227
0.548819
0.512882
0.447025
0.506402
0.474063
0.474423
0.548383
0.503794
0.530092
0.500207
0.566122
0.49946
0.499545
0.506666
0.467982
0.518225
0.569341
0.552136
0.570872
0.57045
0.549409
0.570338
0.54963
0.447568
0.541594
0.47302
0.450461
0.56871
0.543074
0.470656
0.553875
0.503734
0.505574
0.4489
0.552783
0.506256
0.528174
0.488376
0.543827
0.484484
0.565235
0.517115
0.493284
0.521143
0.54746
0.503105
0.504297
0.500178
0.570934
0.488944
0.455525
0.44894
0.448332
0.502299
0.553069
0.502587
0.51215
0.531953
0.474053
0.541081
0.531969
0.486611
0.556715
0.491048
0.48952
0.467945
0.51075
0.506316
0.450154
0.497879
0.559097
0.501432
0.563887
0.489938
0.568686
0.505297
0.520062
0.549095
0.499311
0.56807
0.544101
0.466604
0.492466
0.449848
0.502243
0.564819
0.508321
0.549541
0.500846
0.509617
0.504935
0.504011
0.449296
0.502627
0.456529
0.5525
0.506253
0.56657
0.52205
0.503897
0.549243
0.555678
0.504644
0.490636
0.55111
0.50401
0.526921
0.554063
0.501633
0.558822
0.450093
0.512859
0.500629
0.506103
0.502523
0.542576
0.554442
0.52454
0.500082
0.542965
0.506062
0.554108
0.486037
0.504186
0.445433
0.495557
0.500259
0.49587
0.544162
0.500533
0.496657
0.545875
0.500693
0.545489
0.455797
0.494526
0.48632
0.564326
0.503576
0.542179
0.502563
0.527702
0.567735
0.568387
0.445499
0.561895
0.50037
0.500623
0.548591
0.548197
0.495951
0.558619
0.491436
0.533563
0.477827
0.492819
0.504763
0.501695
0.506184
0.5062
0.570146
0.502056
0.502604
0.504984
0.456469
0.450375
0.449622
0.500521
0.502725
0.566621
0.543342
0.551175
0.505466
0.445461
0.500245
0.500262
0.492462
0.50645
0.528055
0.561819
0.51233
0.547294
0.504344
0.503651
0.496316
0.445512
0.501795
0.482805
0.569515
0.500659
0.481862
0.501474
0.482705
0.55305
0.552534
0.501559
0.54613
0.555323
0.553653
0.489427
0.568885
0.501001
0.461906
0.499249
0.563398
0.544017
0.554578
0.500146
0.502674
0.538274
0.505337
0.496999
0.520905
0.493303
0.445798
0.534885
0.539242
0.50609
0.502296
0.478095
0.468075
0.545917
0.503584
0.563616
0.50083
0.500443
0.457764
0.545274
0.548966
0.569167
0.54496
0.514749
0.520566
0.569546
0.566778
0.447654
0.491202
0.568776
0.555665
0.500663
0.550835
0.551551
0.544481
0.543837
0.504869
0.458772
0.561258
0.567288
0.504018
0.498645
0.502701
0.446044
0.53364
0.506086
0.564446
0.506134
0.495607
0.496305
0.47874
0.448515
0.515282
0.538867
0.505527
0.502105
0.505968
0.501226
0.501942
0.570073
0.502159
0.546716
0.481205
0.447125
0.570587
0.569535
0.501345
0.501461
0.562903
0.501093
0.566203
0.567004
0.554752
0.464929
0.564205
0.530127
0.513968
0.50261
0.498307
0.507155
0.494063
0.500978
0.548259
0.495241
0.556507
0.552691
0.515362
0.500414
0.501521
0.488637
0.502361
0.501206
0.506374
0.483816
0.506438
0.501518
0.453411
0.527241
0.501593
0.561148
0.481227
0.498508
0.482523
0.501624
0.543639
0.492033
0.477766
0.498619
0.562645
0.502097
0.502736
0.500546
0.497929
0.463568
0.445488
0.497633
0.52352
0.48331
0.560847
0.502777
0.554775
0.541565
0.529154
0.502461
0.551307
0.568214
0.534881
0.44841
0.50081
0.54713
0.497334
0.539381
0.505281
0.500529
0.541486
0.569757
0.569162
0.447628
0.495607
0.552869
0.568047
0.546275
0.501696
0.500108
0.502256
0.501961
0.549154
0.557774
0.568393
0.448307
0.497295
0.560405
0.502212
0.563869
0.50596
0.546976
0.502515
0.501854
0.545762
0.56254
0.567624
0.448237
0.542498
0.549269
0.478684
0.501984
0.569818
0.504111
0.449226
0.502551
0.501651
0.501746
0.502752
0.570375
0.451007
0.50395
0.50271
0.502095
0.502078
0.539487
0.479484
0.527438
0.500119
0.562432
0.561778
0.501738
0.539162
0.505317
0.506194
0.500831
0.501524
0.502144
0.553362
0.563656
0.564306
0.549946
0.493913
0.447436
0.505462
0.502225
0.458944
0.501105
0.561461
0.501436
0.504427
0.493802
0.504474
0.498525
0.500256
0.546811
0.490005
0.500637
0.501235
0.502339
0.557554
0.501898
0.535336
0.502411
0.484899
0.500919
0.500206
0.502374
0.506415
0.498224
0.501713
0.501586
0.533274
0.502506
0.523482
0.562317
0.501697
0.496345
0.561948
0.501792
0.502569
0.556469
0.50077
0.568421
0.560104
0.523352
0.477454
0.556279
0.555473
0.555778
0.500117
0.502643
0.478581
0.501849
0.556985
0.502169
0.501569
0.502688
0.45385
0.483122
0.550172
0.538522
0.570664
0.501806
0.502353
0.501973
0.497622
0.502371
0.500455
0.549042
0.503762
0.503773
0.546106
0.496979
0.549041
0.551497
0.545984
0.454896
0.502744
0.549507
0.502779
0.501041
0.500936
0.476236
0.501882
0.505224
0.495294
0.546841
0.516424
0.506297
0.569795
0.560706
0.456153
0.556693
0.501079
0.501083
0.504004
0.502101
0.502737
0.504509
0.540456
0.567637
0.501255
0.505132
0.45751
0.558727
0.502431
0.562858
0.551303
0.560541
0.50098
0.501592
0.501994
0.555164
0.504965
0.567247
0.543662
0.50112
0.55145
0.550666
0.53395
0.502806
0.505402
0.546895
0.502083
0.551015
0.506013
0.503504
0.505293
0.527215
0.504392
0.505004
0.554385
0.505365
0.500582
0.501265
0.501876
0.501502
0.45135
0.550775
0.501945
0.502188
0.495584
0.495233
0.536851
0.550494
0.505491
0.502341
0.540232
0.503616
0.50539
0.46993
0.456152
0.50197
0.52589
0.501132
0.545745
0.500287
0.505309
0.464265
0.568069
0.498267
0.562193
0.545878
0.50242
0.502198
0.481229
0.523338
0.501268
0.566793
0.557511
0.559664
0.504331
0.536704
0.547088
0.502412
0.558492
0.567608
0.567593
0.450459
0.504753
0.501689
0.570051
0.548673
0.547228
0.452573
0.546208
0.504187
0.5003
0.453702
0.501183
0.503305
0.500302
0.552529
0.500387
0.500703
0.545538
0.56918
0.502475
0.527159
0.563206
0.546767
0.500916
0.502645
0.525859
0.502865
0.500802
0.542933
0.543393
0.5003
0.503835
0.501414
0.50068
0.502868
0.501096
0.505592
0.505867
0.503764
0.486335
0.566384
0.569157
0.458936
0.504002
0.506024
0.536692
0.55053
0.528354
0.50247
0.563206
0.504916
0.563268
0.503409
0.50339
0.500703
0.503438
0.503472
0.457486
0.502275
0.500849
0.534913
0.503549
0.545901
0.550542
0.505934
0.547324
0.502731
0.503536
0.527153
0.534
0.504569
0.503921
0.50152
0.504131
0.502334
0.565629
0.502526
0.550069
0.549589
0.550309
0.501702
0.501844
0.504354
0.548271
0.502382
0.451483
0.503637
0.503996
0.503647
0.503772
0.502849
0.503425
0.56982
0.503325
0.503482
0.51884
0.500896
0.516278
0.515968
0.502536
0.512867
0.569766
0.544031
0.449539
0.523208
0.53585
0.564876
0.564913
0.504321
0.502218
0.503344
0.502292
0.551489
0.568881
0.500489
0.502447
0.504101
0.502725
0.565888
0.529542
0.503309
0.565013
0.56497
0.547899
0.51812
0.502509
0.502654
0.511292
0.567179
0.56716
0.501095
0.453704
0.451491
0.547166
0.528444
0.505022
0.500146
0.501392
0.495972
0.530757
0.524507
0.500625
0.502421
0.48086
0.514438
0.54821
0.54821
0.548515
0.502601
0.537495
0.555796
0.502046
0.540925
0.501426
0.503811
0.502522
0.501593
0.448374
0.448703
0.500776
0.523215
0.570082
0.502719
0.501975
0.567867
0.56459
0.50199
0.500412
0.570733
0.504722
0.502372
0.501527
0.447218
0.541446
0.500566
0.503346
0.502579
0.502571
0.502185
0.502301
0.500645
0.502811
0.499365
0.509716
0.529612
0.503357
0.542892
0.500415
0.568785
0.505393
0.504936
0.559348
0.558278
0.500548
0.502282
0.50017
0.5607
0.50353
0.502736
0.502002
0.50056
0.528444
0.500506
0.503585
0.502763
0.502053
0.547485
0.505864
0.502127
0.50228
0.547803
0.547808
0.551197
0.502527
0.503987
0.500346
0.478814
0.487768
0.540883
0.51588
0.494166
0.502831
0.50365
0.543686
0.502655
0.545339
0.538283
0.501037
0.505948
0.50253
0.504408
0.487304
0.487366
0.477662
0.503997
0.493813
0.500172
0.502685
0.493853
0.547492
0.478929
0.569608
0.553861
0.505314
0.505641
0.447911
0.503656
0.504695
0.501208
0.503523
0.503765
0.504016
0.501435
0.545095
0.504804
0.49484
0.504621
0.549025
0.501943
0.446981
0.565856
0.501688
0.452554
0.499583
0.500559
0.498663
0.500488
0.502602
0.503729
0.501781
0.502553
0.502007
0.505933
0.502606
0.56867
0.446643
0.501882
0.543237
0.502806
0.570055
0.506458
0.504571
0.570808
0.570764
0.502601
0.446152
0.500563
0.545498
0.531854
0.545258
0.500422
0.502626
0.561598
0.562298
0.528371
0.504261
0.502335
0.502799
0.541464
0.527198
0.501678
0.526025
0.505775
0.5028
0.501925
0.511315
0.502664
0.446954
0.508089
0.50116
0.50274
0.469069
0.500262
0.521831
0.501345
0.504668
0.570209
0.502695
0.56981
0.500418
0.51574
0.500686
0.505365
0.504662
0.504794
0.480102
0.48095
0.504622
0.503252
0.502808
0.552589
0.501869
0.505122
0.501825
0.540294
0.521097
0.5007
0.502684
0.529572
0.540311
0.502661
0.542915
0.448677
0.532934
0.548325
0.548324
0.44792
0.449548
0.502707
0.539
0.50585
0.502515
0.504794
0.500688
0.543989
0.502384
0.501111
0.502216
0.533936
0.500655
0.504621
0.50198
0.502265
0.57067
0.500533
0.541426
0.543326
0.565315
0.56534
0.50087
0.504807
0.541448
0.502261
0.505685
0.500611
0.500413
0.497951
0.494155
0.505878
0.569525
0.475674
0.544869
0.501041
0.540313
0.50244
0.545061
0.454346
0.500775
0.502437
0.501901
0.501532
0.499566
0.499687
0.5469
0.505756
0.506457
0.504782
0.502529
0.500675
0.503333
0.500404
0.505211
0.49487
0.546261
0.543559
0.503233
0.445787
0.503253
0.501407
0.501298
0.511318
0.50551
0.503619
0.549441
0.501228
0.544255
0.529598
0.502665
0.503253
0.544589
0.447649
0.547329
0.537479
0.570119
0.502275
0.568945
0.570792
0.502444
0.49942
0.499294
0.503141
0.502288
0.500543
0.500728
0.53666
0.49877
0.502273
0.54998
0.543274
0.501764
0.502095
0.501968
0.500756
0.501202
0.500525
0.501961
0.504751
0.501843
0.469017
0.493235
0.502795
0.502975
0.502585
0.542469
0.501985
0.491429
0.491621
0.505193
0.501364
0.502902
0.506042
0.501603
0.497469
0.502212
0.502969
0.505833
0.463109
0.502851
0.463148
0.504286
0.492335
0.543951
0.562721
0.479747
0.479832
0.50062
0.500888
0.448341
0.500495
0.501248
0.505762
0.461831
0.46199
0.547619
0.500607
0.502526
0.50105
0.44532
0.500409
0.501277
0.502729
0.502796
0.50087
0.570974
0.571034
0.446391
0.501171
0.502202
0.500744
0.453717
0.454932
0.454892
0.498783
0.502278
0.501413
0.500913
0.500323
0.499309
0.492058
0.499431
0.498367
0.50072
0.547121
0.501959
0.447545
0.501016
0.468003
0.468062
0.502823
0.503311
0.50165
0.53988
0.505181
0.500456
0.527224
0.483763
0.505776
0.503374
0.49417
0.543936
0.547737
0.54812
0.48327
0.502922
0.501474
0.500209
0.497765
0.491696
0.50057
0.500324
0.48954
0.491439
0.495459
0.500939
0.499051
0.501638
0.515987
0.492356
0.503357
0.503315
0.502967
0.502083
0.496124
0.502187
0.500965
0.502039
0.509714
0.491627
0.501151
0.501174
0.501503
0.500869
0.501137
0.501878
0.546845
0.463958
0.464085
0.501381
0.502234
0.501192
0.50338
0.545079
0.502129
0.501857
0.500764
0.502613
0.472377
0.503466
0.502639
0.535824
0.519511
0.501504
0.546319
0.501654
0.460272
0.489529
0.539654
0.539668
0.460221
0.460273
0.50175
0.502369
0.505881
0.505932
0.463174
0.501317
0.500634
0.445335
0.554527
0.502642
0.54245
0.502184
0.502217
0.566895
0.529587
0.506379
0.445516
0.500945
0.500998
0.50116
0.501063
0.504842
0.502957
0.502908
0.50283
0.501359
0.502976
0.501276
0.502089
0.46806
0.503331
0.568919
0.504549
0.501847
0.502121
0.500969
0.502368
0.47679
0.502521
0.502787
0.497764
0.501841
0.502558
0.502933
0.505104
0.502598
0.559801
0.504732
0.557645
0.558449
0.50469
0.502463
0.500643
0.503502
0.530756
0.501467
0.506824
0.502467
0.505804
0.502648
0.502403
0.544565
0.505822
0.508146
0.505222
0.457492
0.457389
0.502952
0.5448
0.504427
0.502027
0.504843
0.551307
0.501758
0.502594
0.512894
0.447571
0.505998
0.472658
0.515974
0.504731
0.518969
0.506375
0.506395
0.505084
0.520401
0.502503
0.505073
0.502248
0.505531
0.503621
0.501965
0.500607
0.570977
0.503096
0.544552
0.505719
0.446141
0.502786
0.545045
0.49976
0.501466
0.502587
0.569401
0.520415
0.486053
0.510926
0.504615
0.501234
0.569161
0.502859
0.469303
0.506276
0.506277
0.503546
0.501947
0.503411
0.501772
0.496345
0.501825
0.501716
0.502955
0.505792
0.501629
0.505107
0.504811
0.501491
0.518968
0.500446
0.500525
0.533919
0.542426
0.541915
0.445642
0.502774
0.503502
0.569165
0.502705
0.502819
0.502623
0.502689
0.502668
0.505091
0.498913
0.505964
0.524567
0.569321
0.502968
0.464573
0.464598
0.503584
0.501328
0.503335
0.502439
0.50259
0.502878
0.499532
0.499656
0.502429
0.502532
0.501391
0.505731
0.454935
0.502644
0.502808
0.502552
0.453687
0.453709
0.501309
0.501995
0.502935
0.501151
0.502624
0.504516
0.501314
0.445305
0.505656
0.450465
0.45045
0.502348
0.502173
0.501853
0.502975
0.460703
0.460881
0.448263
0.468962
0.469005
0.541986
0.502819
0.504632
0.445447
0.502972
0.502524
0.56432
0.502965
0.479004
0.479071
0.490947
0.491122
0.500225
0.502281
0.484386
0.498487
0.498354
0.505705
0.50295
0.494593
0.529745
0.502872
0.471787
0.471734
0.500325
0.502794
0.500408
0.486228
0.486343
0.50253
0.502757
0.497442
0.500523
0.500537
0.529613
0.502314
0.565485
0.505821
0.502781
0.55743
0.502912
0.505948
0.505975
0.505358
0.500817
0.504371
0.503123
0.49277
0.506156
0.553032
0.507076
0.5036
0.505314
0.50278
0.501705
0.501452
0.552192
0.500701
0.500647
0.505628
0.534923
0.535799
0.502968
0.501033
0.488951
0.509244
0.502829
0.502903
0.503676
0.503655
0.50074
0.504908
0.50561
0.500985
0.506038
0.543657
0.544316
0.50341
0.486231
0.445454
0.569484
0.521825
0.5042
0.506095
0.501299
0.505263
0.505423
0.512569
0.502568
0.531853
0.502001
0.505068
0.568894
0.544317
0.50483
0.502954
0.504815
0.540908
0.50268
0.535791
0.497694
0.502947
0.505998
0.533915
0.533904
0.501538
0.475972
0.50384
0.503902
0.510612
0.502825
0.524559
0.502923
0.503484
0.501142
0.504865
0.504257
0.504059
0.502705
0.471788
0.502451
0.504414
0.502943
0.504968
0.502586
0.550399
0.503328
0.502061
0.50959
0.464986
0.465072
0.503826
0.503301
0.50561
0.503786
0.51461
0.50576
0.505978
0.567984
0.501877
0.501095
0.505621
0.50474
0.501755
0.502965
0.50264
0.496468
0.502699
0.503272
0.456245
0.456373
0.505983
0.505906
0.546448
0.505281
0.503937
0.500771
0.502791
0.502378
0.503332
0.504448
0.500791
0.503888
0.505905
0.512336
0.569518
0.503674
0.504776
0.50366
0.505467
0.446492
0.502953
0.548801
0.502907
0.505691
0.505717
0.569304
0.502953
0.502725
0.502894
0.504152
0.525428
0.50592
0.504781
0.446597
0.502815
0.504326
0.503353
0.446363
0.502891
0.503457
0.50471
0.505539
0.45881
0.458841
0.500669
0.495755
0.50517
0.487759
0.501919
0.50444
0.56891
0.502749
0.470904
0.505448
0.501883
0.494643
0.503937
0.501318
0.50349
0.502878
0.501302
0.505862
0.506137
0.502827
0.502825
0.501586
0.503505
0.505941
0.500846
0.505656
0.503424
0.44598
0.503627
0.502769
0.501414
0.503585
0.474152
0.502715
0.504248
0.502777
0.504933
0.504617
0.564553
0.499061
0.500906
0.502669
0.500586
0.49918
0.500581
0.505756
0.502969
0.503526
0.50563
0.503907
0.503389
0.504539
0.501982
0.505833
0.548173
0.504142
0.547526
0.505593
0.503361
0.503624
0.505795
0.503404
0.502633
0.449542
0.449515
0.502876
0.502397
0.505375
0.514451
0.517491
0.492812
0.491927
0.503772
0.505673
0.503698
0.50208
0.504114
0.50558
0.502017
0.445543
0.50408
0.504025
0.50256
0.505976
0.539689
0.54485
0.504997
0.505131
0.505173
0.445617
0.503132
0.504466
0.503551
0.569547
0.56959
0.504673
0.503366
0.505512
0.461831
0.472659
0.472623
0.502682
0.445449
0.503428
0.503411
0.503535
0.503824
0.503301
0.566996
0.505506
0.501153
0.508063
0.503354
0.50388
0.504877
0.50285
0.503319
0.504598
0.50292
0.486807
0.48693
0.569483
0.503364
0.505822
0.503519
0.50254
0.498071
0.503424
0.558025
0.504321
0.508006
0.503393
0.502922
0.503819
0.501524
0.502948
0.503486
0.505139
0.502715
0.502251
0.502727
0.505669
0.50328
0.51452
0.50378
0.504453
0.504466
0.503399
0.503516
0.503394
0.498911
0.503435
0.505339
0.503486
0.496463
0.505796
0.504582
0.515059
0.504288
0.503443
0.503761
0.551755
0.504684
0.503455
0.503188
0.503414
0.503899
0.501106
0.503834
0.501744
0.502499
0.50425
0.503865
0.503527
0.503329
0.505491
0.503362
0.504877
0.50337
0.502765
0.503436
0.502909
0.501748
0.502019
0.502944
0.504395
0.503619
0.504248
0.502392
0.503357
0.503437
0.503363
0.504932
0.503403
0.503376
0.501467
0.503443
0.512626
0.503303
0.504438
0.502035
0.505951
0.495748
0.505869
0.503374
0.504636
0.5661
0.503634
0.534898
0.532914
0.50082
0.513069
0.504072
0.503544
0.501768
0.50113
0.505543
0.503689
0.504311
0.506001
0.504335
0.504036
0.504012
0.503988
0.503505
0.503391
0.503438
0.503453
0.491131
0.504725
0.482488
0.542025
0.502204
0.502476
0.501445
0.502847
0.491088
0.503316
0.482423
0.503555
0.545937
0.532688
0.503843
0.503235
0.503495
0.502728
0.559767
0.505986
0.503672
0.503613
0.55857
0.504031
0.568481
0.502884
0.505516
0.50338
0.501033
0.505663
0.553024
0.50054
0.504779
0.517534
0.50515
0.503984
0.551831
0.502362
0.505897
0.569716
0.504106
0.503385
0.505451
0.503371
0.503759
0.505506
0.50588
0.544336
0.503469
0.50281
0.502563
0.502798
0.557726
0.504731
0.50576
0.503621
0.503692
0.503872
0.505677
0.503841
0.569401
0.506093
0.504707
0.540934
0.56944
0.505129
0.503993
0.497357
0.504383
0.512688
0.517156
0.502617
0.503611
0.502105
0.562821
0.502696
0.504278
0.503429
0.508055
0.503777
0.503505
0.563787
0.505718
0.502479
0.50347
0.502904
0.505918
0.50164
0.504327
0.504356
0.505046
0.504441
0.504626
0.561707
0.503801
0.502614
0.503653
0.50294
0.502693
0.502963
0.505819
0.500573
0.504995
0.563267
0.519961
0.503269
0.502791
0.504869
0.505365
0.504364
0.504106
0.557277
0.502739
0.499087
0.502566
0.50536
0.503893
0.503951
0.502618
0.503757
0.503792
0.49919
0.56082
0.548416
0.547404
0.505401
0.564597
0.502893
0.512893
0.517483
0.492828
0.506775
0.56128
0.503608
0.505987
0.509677
0.504295
0.507066
0.512668
0.565093
0.501424
0.544565
0.517586
0.501774
0.51111
0.503557
0.502805
0.503588
0.569673
0.502729
0.56972
0.562286
0.502557
0.566473
0.445468
0.565627
0.506325
0.502365
0.500082
0.50261
0.503793
0.565138
0.50234
0.509676
0.501872
0.503639
0.500732
0.501596
0.503739
0.502872
0.503731
0.505008
0.502423
0.498093
0.502598
0.558165
0.520341
0.506481
0.502514
0.503543
0.503813
0.566014
0.502507
0.551824
0.50232
0.501292
0.519732
0.561249
0.501597
0.506785
0.505056
0.50437
0.500757
0.501462
0.50032
0.505009
0.562247
0.500645
0.503428
0.500347
0.505507
0.502304
0.500879
0.567582
0.508487
0.532913
0.535811
0.56714
0.567544
0.508044
0.528314
0.502666
0.500668
0.554898
0.554888
0.567581
0.505103
0.542511
0.503404
0.503605
0.506649
0.503443
0.503383
0.567962
0.502575
0.499508
0.504176
0.500223
0.517008
0.503346
0.501597
0.516697
0.50161
0.502507
0.536591
0.564219