# vtk DataFile Version 1.0
unstructured grid
ascii
DATASET UNSTRUCTURED_GRID
points 8094 float
-0.25 0.0574735 0
0.5 0.0546937 0
0.5 -0.0546937 0
-0.25 -0.0574735 0
-0.25 0.0574735 0.01
0.5 0.0546937 0.01
0.5 -0.0546937 0.01
-0.25 -0.0574735 0.01
-0.246045 0.0569295 0
-0.242089 0.0563854 0
-0.238136 0.0558289 0
-0.234184 0.0552582 0
-0.230232 0.0546875 0
-0.226284 0.0540912 0
-0.222337 0.0534933 0
-0.218391 0.0528841 0
-0.214448 0.0522585 0
-0.210504 0.0516328 0
-0.206565 0.0509829 0
-0.202626 0.0503294 0
-0.198689 0.0496667 0
-0.194755 0.0489856 0
-0.190821 0.0483046 0
-0.18689 0.0476022 0
-0.182961 0.0468942 0
-0.179033 0.0461799 0
-0.175108 0.0454463 0
-0.171183 0.0447127 0
-0.167262 0.0439627 0
-0.163342 0.0432056 0
-0.159422 0.0424455 0
-0.155506 0.041668 0
-0.15159 0.0408904 0
-0.147675 0.0401031 0
-0.143762 0.0393092 0
-0.13985 0.0385149 0
-0.135939 0.0377103 0
-0.132028 0.0369056 0
-0.128117 0.0361005 0
-0.124207 0.0352949 0
-0.120296 0.0344893 0
-0.116386 0.0336836 0
-0.112475 0.032878 0
-0.108563 0.0320794 0
-0.104649 0.0312931 0
-0.100735 0.0305068 0
-0.0968152 0.029745 0
-0.0928949 0.0289889 0
-0.0889722 0.0282446 0
-0.0850433 0.0275341 0
-0.0811144 0.0268235 0
-0.0771778 0.0261578 0
-0.0732381 0.0255098 0
-0.0692962 0.0248759 0
-0.0653442 0.0243073 0
-0.0613923 0.0237386 0
-0.0574324 0.0232306 0
-0.0534681 0.0227556 0
-0.0495024 0.0222934 0
-0.0455272 0.0219207 0
-0.041552 0.0215481 0
-0.0375717 0.0212385 0
-0.0335881 0.0209694 0
-0.029604 0.0207098 0
-0.0256151 0.0205369 0
-0.0216262 0.0203639 0
-0.0176357 0.0202396 0
-0.0136441 0.0201487 0
-0.00965243 0.0200635 0
-0.00565987 0.0200372 0
-0.00166732 0.020011 0
0.00232526 0.0200121 0
0.00631785 0.0200329 0
0.0103104 0.0200563 0
0.0143027 0.0201109 0
0.018295 0.0201654 0
0.022287 0.0202345 0
0.0262788 0.0203144 0
0.0302706 0.0203957 0
0.034262 0.0204956 0
0.0382534 0.0205955 0
0.0422446 0.0207045 0
0.0462355 0.0208207 0
0.0502265 0.0209377 0
0.054217 0.0210676 0
0.0582075 0.0211975 0
0.0621978 0.0213339 0
0.0661879 0.0214757 0
0.0701781 0.021618 0
0.0741678 0.0217703 0
0.0781575 0.0219227 0
0.0821471 0.0220801 0
0.0861364 0.022242 0
0.0901258 0.0224041 0
0.0941148 0.0225747 0
0.0981038 0.0227453 0
0.102093 0.0229202 0
0.106081 0.023099 0
0.11007 0.0232779 0
0.114058 0.0234644 0
0.118046 0.0236509 0
0.122035 0.0238411 0
0.126022 0.024035 0
0.13001 0.0242288 0
0.133998 0.0244298 0
0.137986 0.0246308 0
0.141973 0.0248352 0
0.14596 0.025043 0
0.149947 0.0252509 0
0.153934 0.0254654 0
0.157921 0.02568 0
0.161908 0.0258978 0
0.165894 0.026119 0
0.169881 0.0263402 0
0.173867 0.0265678 0
0.177853 0.0267956 0
0.181839 0.0270264 0
0.185825 0.0272607 0
0.189811 0.0274951 0
0.193796 0.0277356 0
0.197781 0.0279764 0
0.201767 0.02822 0
0.205752 0.0284673 0
0.209737 0.0287146 0
0.213721 0.0289679 0
0.217706 0.0292217 0
0.22169 0.0294782 0
0.225674 0.0297385 0
0.229658 0.0299988 0
0.233642 0.0302651 0
0.237626 0.0305319 0
0.241609 0.0308014 0
0.245593 0.0310748 0
0.249576 0.0313482 0
0.253559 0.0316276 0
0.257542 0.0319077 0
0.261524 0.0321904 0
0.265507 0.0324772 0
0.269489 0.032764 0
0.273471 0.0330568 0
0.277453 0.0333504 0
0.281434 0.0336466 0
0.285416 0.0339471 0
0.289397 0.0342476 0
0.293378 0.034554 0
0.297359 0.0348615 0
0.301339 0.0351714 0
0.305319 0.0354859 0
0.3093 0.0358005 0
0.313279 0.036121 0
0.317259 0.0364427 0
0.321239 0.0367667 0
0.325218 0.0370957 0
0.329197 0.0374248 0
0.333175 0.0377597 0
0.337154 0.0380961 0
0.341132 0.0384347 0
0.34511 0.0387786 0
0.349088 0.0391226 0
0.353065 0.0394724 0
0.357042 0.0398239 0
0.361019 0.0401775 0
0.364995 0.0405368 0
0.368972 0.0408961 0
0.372948 0.0412613 0
0.376924 0.0416285 0
0.380899 0.0419975 0
0.384874 0.0423727 0
0.388849 0.0427479 0
0.392823 0.0431289 0
0.396798 0.0435123 0
0.400772 0.0438973 0
0.404745 0.044289 0
0.408718 0.0446807 0
0.412691 0.0450781 0
0.416664 0.0454782 0
0.420636 0.0458797 0
0.424608 0.0462883 0
0.42858 0.046697 0
0.432551 0.0471114 0
0.436521 0.0475289 0
0.440492 0.0479474 0
0.444462 0.0483738 0
0.448432 0.0488001 0
0.452401 0.0492319 0
0.45637 0.0496673 0
0.460338 0.0501035 0
0.464306 0.0505482 0
0.468274 0.0509928 0
0.472241 0.0514427 0
0.476208 0.0518968 0
0.480175 0.0523512 0
0.48414 0.0528148 0
0.488106 0.0532784 0
0.492071 0.0537471 0
0.496036 0.0542204 0
0.5 0.050787 0
0.5 0.0468803 0
0.5 0.0429736 0
0.5 0.0390669 0
0.5 0.0351602 0
0.5 0.0312535 0
0.5 0.0273468 0
0.5 0.0234402 0
0.5 0.0195335 0
0.5 0.0156268 0
0.5 0.0117201 0
0.5 0.00781339 0
0.5 0.00390669 0
0.5 1.43781e-13 0
0.5 -0.00390669 0
0.5 -0.00781339 0
0.5 -0.0117201 0
0.5 -0.0156268 0
0.5 -0.0195335 0
0.5 -0.0234402 0
0.5 -0.0273468 0
0.5 -0.0312535 0
0.5 -0.0351602 0
0.5 -0.0390669 0
0.5 -0.0429736 0
0.5 -0.0468803 0
0.5 -0.050787 0
0.496036 -0.0542204 0
0.492071 -0.0537471 0
0.488106 -0.0532784 0
0.48414 -0.0528148 0
0.480175 -0.0523512 0
0.476208 -0.0518968 0
0.472241 -0.0514427 0
0.468274 -0.0509928 0
0.464306 -0.0505482 0
0.460338 -0.0501035 0
0.45637 -0.0496673 0
0.452401 -0.0492319 0
0.448432 -0.0488001 0
0.444462 -0.0483738 0
0.440492 -0.0479474 0
0.436521 -0.0475289 0
0.432551 -0.0471114 0
0.42858 -0.046697 0
0.424608 -0.0462883 0
0.420636 -0.0458797 0
0.416664 -0.0454782 0
0.412691 -0.0450781 0
0.408718 -0.0446807 0
0.404745 -0.044289 0
0.400772 -0.0438973 0
0.396798 -0.0435123 0
0.392823 -0.0431289 0
0.388849 -0.0427479 0
0.384874 -0.0423727 0
0.380899 -0.0419975 0
0.376924 -0.0416285 0
0.372948 -0.0412613 0
0.368972 -0.0408961 0
0.364995 -0.0405368 0
0.361019 -0.0401775 0
0.357042 -0.0398239 0
0.353065 -0.0394724 0
0.349088 -0.0391226 0
0.34511 -0.0387786 0
0.341132 -0.0384347 0
0.337154 -0.0380961 0
0.333175 -0.0377597 0
0.329197 -0.0374248 0
0.325218 -0.0370957 0
0.321239 -0.0367667 0
0.317259 -0.0364427 0
0.313279 -0.036121 0
0.3093 -0.0358005 0
0.305319 -0.0354859 0
0.301339 -0.0351714 0
0.297359 -0.0348615 0
0.293378 -0.034554 0
0.289397 -0.0342476 0
0.285416 -0.0339471 0
0.281434 -0.0336466 0
0.277453 -0.0333504 0
0.273471 -0.0330568 0
0.269489 -0.032764 0
0.265507 -0.0324772 0
0.261524 -0.0321904 0
0.257542 -0.0319077 0
0.253559 -0.0316276 0
0.249576 -0.0313482 0
0.245593 -0.0310748 0
0.241609 -0.0308014 0
0.237626 -0.0305319 0
0.233642 -0.0302651 0
0.229658 -0.0299988 0
0.225674 -0.0297385 0
0.22169 -0.0294782 0
0.217706 -0.0292217 0
0.213721 -0.0289679 0
0.209737 -0.0287146 0
0.205752 -0.0284673 0
0.201767 -0.02822 0
0.197781 -0.0279764 0
0.193796 -0.0277356 0
0.189811 -0.0274951 0
0.185825 -0.0272607 0
0.181839 -0.0270264 0
0.177853 -0.0267956 0
0.173867 -0.0265678 0
0.169881 -0.0263402 0
0.165894 -0.026119 0
0.161908 -0.0258978 0
0.157921 -0.02568 0
0.153934 -0.0254654 0
0.149947 -0.0252509 0
0.14596 -0.025043 0
0.141973 -0.0248352 0
0.137986 -0.0246308 0
0.133998 -0.0244298 0
0.13001 -0.0242288 0
0.126022 -0.024035 0
0.122035 -0.0238411 0
0.118046 -0.0236509 0
0.114058 -0.0234644 0
0.11007 -0.0232779 0
0.106081 -0.023099 0
0.102093 -0.0229202 0
0.0981038 -0.0227453 0
0.0941148 -0.0225747 0
0.0901258 -0.0224041 0
0.0861364 -0.022242 0
0.0821471 -0.0220801 0
0.0781575 -0.0219227 0
0.0741678 -0.0217703 0
0.0701781 -0.021618 0
0.0661879 -0.0214757 0
0.0621978 -0.0213339 0
0.0582075 -0.0211975 0
0.054217 -0.0210676 0
0.0502265 -0.0209377 0
0.0462355 -0.0208207 0
0.0422446 -0.0207045 0
0.0382534 -0.0205955 0
0.034262 -0.0204956 0
0.0302706 -0.0203957 0
0.0262788 -0.0203144 0
0.022287 -0.0202345 0
0.018295 -0.0201654 0
0.0143027 -0.0201109 0
0.0103104 -0.0200563 0
0.00631785 -0.0200329 0
0.00232526 -0.0200121 0
-0.00166732 -0.020011 0
-0.00565987 -0.0200372 0
-0.00965243 -0.0200635 0
-0.0136441 -0.0201487 0
-0.0176357 -0.0202396 0
-0.0216262 -0.0203639 0
-0.0256151 -0.0205369 0
-0.029604 -0.0207098 0
-0.0335881 -0.0209694 0
-0.0375717 -0.0212385 0
-0.041552 -0.0215481 0
-0.0455272 -0.0219207 0
-0.0495024 -0.0222934 0
-0.0534681 -0.0227556 0
-0.0574324 -0.0232306 0
-0.0613923 -0.0237386 0
-0.0653442 -0.0243073 0
-0.0692962 -0.0248759 0
-0.0732381 -0.0255098 0
-0.0771778 -0.0261578 0
-0.0811144 -0.0268235 0
-0.0850433 -0.0275341 0
-0.0889722 -0.0282446 0
-0.0928949 -0.0289889 0
-0.0968152 -0.029745 0
-0.100735 -0.0305068 0
-0.104649 -0.0312931 0
-0.108563 -0.0320794 0
-0.112475 -0.032878 0
-0.116386 -0.0336836 0
-0.120296 -0.0344893 0
-0.124207 -0.0352949 0
-0.128117 -0.0361005 0
-0.132028 -0.0369056 0
-0.135939 -0.0377103 0
-0.13985 -0.0385149 0
-0.143762 -0.0393092 0
-0.147675 -0.0401031 0
-0.15159 -0.0408904 0
-0.155506 -0.041668 0
-0.159422 -0.0424455 0
-0.163342 -0.0432056 0
-0.167262 -0.0439627 0
-0.171183 -0.0447127 0
-0.175108 -0.0454463 0
-0.179033 -0.0461799 0
-0.182961 -0.0468942 0
-0.18689 -0.0476022 0
-0.190821 -0.0483046 0
-0.194755 -0.0489856 0
-0.198689 -0.0496667 0
-0.202626 -0.0503294 0
-0.206565 -0.0509829 0
-0.210504 -0.0516328 0
-0.214448 -0.0522585 0
-0.218391 -0.0528841 0
-0.222337 -0.0534933 0
-0.226284 -0.0540912 0
-0.230232 -0.0546875 0
-0.234184 -0.0552582 0
-0.238136 -0.0558289 0
-0.242089 -0.0563854 0
-0.246045 -0.0569295 0
-0.25 -0.0535098 0
-0.25 -0.0495461 0
-0.25 -0.0455824 0
-0.25 -0.0416187 0
-0.25 -0.0376551 0
-0.25 -0.0336914 0
-0.25 -0.0297277 0
-0.25 -0.025764 0
-0.25 -0.0218003 0
-0.25 -0.0178366 0
-0.25 -0.0138729 0
-0.25 -0.00990922 0
-0.25 -0.00594553 0
-0.25 -0.00198184 0
-0.25 0.00198184 0
-0.25 0.00594553 0
-0.25 0.00990922 0
-0.25 0.0138729 0
-0.25 0.0178366 0
-0.25 0.0218003 0
-0.25 0.025764 0
-0.25 0.0297277 0
-0.25 0.0336914 0
-0.25 0.0376551 0
-0.25 0.0416187 0
-0.25 0.0455824 0
-0.25 0.0495461 0
-0.25 0.0535098 0
-0.246045 0.0569295 0.01
-0.242089 0.0563854 0.01
-0.238136 0.0558289 0.01
-0.234184 0.0552582 0.01
-0.230232 0.0546875 0.01
-0.226284 0.0540912 0.01
-0.222337 0.0534933 0.01
-0.218391 0.0528841 0.01
-0.214448 0.0522585 0.01
-0.210504 0.0516328 0.01
-0.206565 0.0509829 0.01
-0.202626 0.0503294 0.01
-0.198689 0.0496667 0.01
-0.194755 0.0489856 0.01
-0.190821 0.0483046 0.01
-0.18689 0.0476022 0.01
-0.182961 0.0468942 0.01
-0.179033 0.0461799 0.01
-0.175108 0.0454463 0.01
-0.171183 0.0447127 0.01
-0.167262 0.0439627 0.01
[...]
CELL_DATA 7657
SCALARS rho float
LOOKUP_TABLE default
0.478251
0.369868
0.394059
0.173827
0.49529
0.364181
0.258731
0.419886
0.336325
0.499154
0.499224
0.419221
0.304937
0.419567
0.49458
0.489421
0.494518
0.401484
0.401114
0.422682
0.493826
0.402319
0.360562
0.401129
0.409176
0.416319
0.186899
0.312179
0.495983
0.36598
0.23969
0.409185
0.357249
0.476243
0.476691
0.241557
0.365878
0.359616
0.481482
0.212811
0.39339
0.335181
0.15984
0.357806
0.393162
0.394775
0.265241
0.363632
0.409138
0.477872
0.356332
0.172781
0.495898
0.496822
0.256861
0.36694
0.494104
0.492251
0.452889
0.238013
0.409475
0.392329
0.410496
0.410775
0.499914
0.49993
0.304584
0.371911
0.498427
0.448659
0.395
0.306668
0.162891
0.495963
0.474943
0.362375
0.402375
0.361602
0.474417
0.310368
0.356638
0.420466
0.422756
0.393741
0.394722
0.457869
0.39456
0.447663
0.416624
0.188345
0.499768
0.499811
0.454592
0.497735
0.216661
0.460521
0.459239
0.364367
0.392543
0.216506
0.401863
0.406614
0.367874
0.493415
0.267045
0.346
0.22528
0.373079
0.312024
0.493394
0.239936
0.3722
0.341468
0.422765
0.397619
0.436573
0.374028
0.211082
0.488777
0.364421
0.500635
0.500617
0.224161
0.365042
0.422
0.41946
0.418974
0.160002
0.369073
0.158925
0.176295
0.403967
0.367445
0.164052
0.422573
0.227684
0.489751
0.357413
0.404527
0.404804
0.225619
0.190556
0.209584
0.214659
0.400853
0.493748
0.35402
0.370964
0.391851
0.225312
0.20619
0.498552
0.390379
0.159098
0.493829
0.368987
0.370749
0.403129
0.422582
0.229629
0.403482
0.492031
0.416041
0.435181
0.389498
0.367644
0.481525
0.3143
0.397069
0.489204
0.393195
0.348018
0.403758
0.207853
0.245886
0.243506
0.167158
0.460506
0.421826
0.207938
0.214578
0.310777
0.405802
0.405852
0.301866
0.451079
0.324888
0.166273
0.41778
0.460457
0.495903
0.497941
0.422561
0.465467
0.417639
0.368501
0.422744
0.4917
0.243834
0.396276
0.401184
0.406252
0.461992
0.445233
0.186604
0.496924
0.315861
0.268914
0.474018
0.464959
0.384627
0.391799
0.389217
0.422555
0.392815
0.165063
0.250512
0.456472
0.373437
0.396143
0.370065
0.371875
0.498861
0.372581
0.318177
0.358486
0.318137
0.197785
0.363463
0.498902
0.38773
0.387884
0.30896
0.493723
0.487883
0.422662
0.44721
0.406938
0.407019
0.491436
0.384145
0.203458
0.46216
0.357195
0.473072
0.467807
0.324993
0.466897
0.327534
0.362079
0.241997
0.168472
0.37418
0.475177
0.248753
0.166094
0.372378
0.495245
0.496702
0.372143
0.364006
0.496594
0.488362
0.39731
0.252647
0.394544
0.44296
0.201973
0.401131
0.206484
0.294624
0.189647
0.190885
0.422998
0.472432
0.397364
0.15528
0.371746
0.371618
0.418412
0.36496
0.413178
0.197569
0.219902
0.16989
0.240303
0.219921
0.177429
0.39556
0.399313
0.397767
0.16507
0.196081
0.496519
0.374163
0.186298
0.481825
0.420705
0.436402
0.39806
0.4593
0.497354
0.204818
0.322595
0.186871
0.456238
0.254152
0.164178
0.40008
0.372971
0.41864
0.440979
0.4912
0.327523
0.408876
0.491019
0.496465
0.495279
0.373514
0.413415
0.156329
0.360028
0.496415
0.449245
0.489184
0.495984
0.323047
0.38739
0.492669
0.398996
0.345946
0.496221
0.488331
0.375496
0.42022
0.40832
0.374081
0.197813
0.408652
0.49587
0.41733
0.246169
0.376946
0.488407
0.422846
0.247921
0.495865
0.374432
0.39554
0.492716
0.365262
0.403099
0.422565
0.403357
0.255035
0.408341
0.403986
0.271106
0.40857
0.267058
0.377053
0.401942
0.395707
0.438544
0.494229
0.244399
0.417152
0.214118
0.454714
0.457968
0.366292
0.425975
0.422571
0.422347
0.312629
0.306888
0.403254
0.407735
0.399264
0.487505
0.390096
0.400365
0.191044
0.410443
0.496234
0.498515
0.477457
0.419008
0.416766
0.492258
0.377404
0.374429
0.373538
0.42251
0.415738
0.449497
0.249557
0.348882
0.49217
0.365176
0.422693
0.422858
0.400457
0.497387
0.214763
0.425724
0.489942
0.292014
0.492461
0.494568
0.403672
0.365836
0.41062
0.174451
0.462193
0.422226
0.392636
0.420479
0.175044
0.364814
0.360208
0.420298
0.275823
0.38491
0.370248
0.398111
0.459585
0.421566
0.160852
0.406602
0.433947
0.253736
0.379687
0.422756
0.413703
0.487102
0.497324
0.404307
0.488557
0.400795
0.362045
0.485881
0.234846
0.496167
0.418375
0.390258
0.384155
0.271403
0.494465
0.434878
0.408959
0.408372
0.379118
0.26494
0.32132
0.460432
0.26097
0.490041
0.488683
0.46294
0.4771
0.370941
0.399113
0.458527
0.387084
0.42201
0.34287
0.350611
0.256969
0.252762
0.496145
0.379643
0.422519
0.478984
0.493502
0.405978
0.413903
0.361532
0.223469
0.495868
0.439371
0.496022
0.402956
0.403587
0.390718
0.372846
0.200465
0.233466
0.498375
0.411205
0.491765
0.409552
0.419319
0.464293
0.418771
0.284022
0.174452
0.360442
0.476706
0.478165
0.42076
0.420517
0.431319
0.421378
0.4475
0.451244
0.380141
0.163009
0.438002
0.48731
0.198945
0.413161
0.405642
0.491683
0.401521
0.421433
0.484809
0.402733
0.482695
0.363031
0.489842
0.422493
0.420361
0.178807
0.418158
0.421029
0.497171
0.393977
0.497532
0.410085
0.376515
0.487824
0.420243
0.422145
0.392277
0.405874
0.393023
0.420102
0.252174
0.400091
0.390238
0.405961
0.43003
0.418843
0.414166
0.422161
0.40525
0.16204
0.367226
0.404936
0.488077
0.17557
0.42034
0.415759
0.483275
0.486639
0.215594
0.417973
0.349551
0.476878
0.487523
0.358552
0.421755
0.289459
0.404641
0.485653
0.497986
0.422234
0.241845
0.473421
0.460264
0.359914
0.40304
0.364267
0.455528
0.277788
0.419977
0.423148
0.41859
0.419283
0.323449
0.40162
0.456895
0.371614
0.404535
0.418071
0.411464
0.436352
0.498381
0.288025
0.417452
0.419693
0.269447
0.429659
0.453625
0.371526
0.245492
0.325705
0.390745
0.419319
0.463176
0.493243
0.372448
0.41724
0.420091
0.419942
0.416132
0.465816
0.374716
0.493749
0.416311
0.419042
0.418973
0.485775
0.391292
0.487901
0.422975
0.42903
0.425729
0.419868
0.234456
0.49662
0.496569
0.421689
0.420367
0.411222
0.367309
0.435138
0.438329
0.333494
0.401583
0.370101
0.496576
0.411428
0.158633
0.421198
0.423915
0.409933
0.496207
0.401575
0.496199
0.405859
0.407988
0.283831
0.179991
0.421946
0.409458
0.411755
0.400829
0.419524
0.48599
0.41197
0.394575
0.421485
0.423044
0.41796
0.192334
0.405558
0.410342
0.410082
0.222593
0.412298
0.488573
0.428516
0.410285
0.40376
0.426425
0.419774
0.412517
0.393747
0.421736
0.457167
0.416308
0.488669
0.171657
0.391965
0.386366
0.388273
0.422883
0.412839
0.390786
0.410622
0.397208
0.418842
0.420248
0.413059
0.375885
0.175257
0.336463
0.232878
0.469382
0.419728
0.418307
0.410898
0.404897
0.418256
0.422434
0.321613
0.494876
0.494528
0.275182
0.404228
0.323025
0.350341
0.271718
0.215309
0.413382
0.327713
0.413609
0.421374
0.421446
0.1712
0.419569
0.49647
0.402736
0.285732
0.488426
0.497107
0.463377
0.419796
0.156466
0.394649
0.421193
0.421264
0.495798
0.411201
0.415474
0.496347
0.238221
0.453661
0.409392
0.495169
0.157692
0.407864
0.418079
0.431272
0.350365
0.418547
0.421363
0.410097
0.410864
0.383597
0.495084
0.452023
0.252154
0.421106
0.350823
0.343371
0.223113
0.415614
0.497241
0.286623
0.411201
0.484477
0.498345
0.494354
0.495544
0.213281
0.496041
0.496211
0.377628
0.495677
0.422263
0.409488
0.410544
0.420423
0.37433
0.343623
0.410504
0.418788
0.403082
0.402789
0.487026
0.338841
0.495488
0.418361
0.486613
0.494133
0.495352
0.385356
0.156568
0.41043
0.211159
0.421075
0.268528
0.42283
0.495306
0.162517
0.45563
0.405588
0.427833
0.270397
0.417774
0.41146
0.392335
0.487978
0.420813
0.449931
0.400468
0.413966
0.494736
0.228013
0.290258
0.418144
0.406836
0.45345
0.453441
0.357318
0.49493
0.419951
0.464974
0.316652
0.292838
0.355835
0.276794
0.494548
0.42272
0.324894
0.421107
0.492726
0.422695
0.36091
0.422479
0.42206
0.267121
0.460317
0.417924
0.212606
0.433022
0.284682
0.421604
0.41732
0.211203
0.416081
0.421942
0.247905
0.486127
0.422736
0.494038
0.409686
0.422155
0.414641
0.409116
0.497793
0.49639
0.493836
0.395655
0.448169
0.460465
0.158524
0.49422
0.496571
0.227881
0.342037
0.214011
0.412301
0.432714
0.4963
0.432963
0.492384
0.494152
0.421848
0.492107
0.494376
0.157341
0.411644
0.421599
0.224929
0.493575
0.270477
0.340893
0.496417
0.295077
0.416773
0.493861
0.212469
0.223292
0.494893
0.494023
0.4203
0.494623
0.418339
0.44458
0.417637
0.333955
0.327826
0.339623
0.419998
0.419614
0.49466
0.310226
0.412008
0.356252
0.494087
0.494361
0.493805
0.494323
0.414408
0.493292
0.463196
0.493008
0.493526
0.489511
0.42182
0.489873
0.200639
0.412568
0.197838
0.463404
0.253662
0.358549
0.208106
0.226731
0.441191
0.441306
0.49584
0.418721
0.493248
0.418474
0.351849
0.45922
0.422609
0.417934
0.495955
0.416969
0.445801
0.216279
0.492972
0.441663
0.441545
0.304541
0.488973
0.417824
0.417287
0.196206
0.451553
0.451536
0.421158
0.324085
0.356201
0.292701
0.214812
0.496313
0.423131
0.420567
0.403368
0.217936
0.209823
0.422375
0.418045
0.392152
0.199121
0.30998
0.310141
0.313806
0.417254
0.22938
0.388022
0.41917
0.239572
0.409784
0.491607
0.41776
0.420422
0.372629
0.359608
0.422032
0.208039
0.465376
0.417002
0.411129
0.477637
0.479935
0.411115
0.422653
0.469842
0.190716
0.411953
0.420268
0.361599
0.241362
0.422081
0.492536
0.417391
0.417604
0.411381
0.411748
0.421968
0.415072
0.406842
0.194663
0.216399
0.492574
0.24728
0.422324
0.458541
0.495983
0.49674
0.411878
0.405265
0.422374
0.418252
0.422886
0.419881
0.491905
0.416541
0.410829
0.422255
0.214834
0.422206
0.494596
0.416293
0.410762
0.296835
0.495708
0.418885
0.418302
0.304156
0.303166
0.34815
0.417722
0.491284
0.422439
0.390502
0.396455
0.239114
0.200557
0.401616
0.416335
0.491751
0.251852
0.413128
0.264829
0.231719
0.42156
0.495806
0.412875
0.496013
0.396254
0.396334
0.390226
0.495758
0.401282
0.422961
0.417026
0.401258
0.296806
0.390886
0.477422
0.372805
0.495919
0.192131
0.360677
0.494102
0.496415
0.420955
0.491953
0.494002
0.491225
0.420792
0.261973
0.190832
0.402458
0.495717
0.322007
0.419357
0.371063
0.479128
0.420181
0.355963
0.407112
0.422293
0.405978
0.422214
0.417401
0.493828
0.419833
0.417501
0.410505
0.495773
0.41286
0.477558
0.362651
0.410258
0.249059
0.415113
0.464276
0.191897
0.494831
0.468198
0.470874
0.41744
0.363457
0.422462
0.267118
0.219486
0.26406
0.422476
0.416734
0.424407
0.428175
0.214018
0.490893
0.418247
0.414823
0.241426
0.212639
0.420078
0.487488
0.495623
0.415987
0.41947
0.196153
0.417223
0.371101
0.193473
0.421006
0.413689
0.384735
0.422705
0.206275
0.420694
0.496415
0.47491
0.416565
0.475792
0.422519
0.489365
0.422055
0.495911
0.49045
0.19038
0.39164
0.392128
0.490499
0.493042
0.414808
0.361422
0.419529
0.4901
0.419719
0.236605
0.488649
0.422231
0.416844
0.216216
0.237365
0.416953
0.247435
0.359562
0.221393
0.312399
0.311762
0.36063
0.35845
0.413421
0.233263
0.495692
0.412862
0.49673
0.42188
0.253722
0.41818
0.421324
0.41851
0.223053
0.421979
0.494779
0.419255
0.418586
0.468359
0.422243
0.240753
0.249985
0.44315
0.443195
0.421907
0.494878
0.240851
0.418575
0.495545
0.422361
0.422512
0.405263
0.401559
0.496489
0.462357
0.170357
0.260188
0.421245
0.236717
0.417818
0.261936
0.377061
0.421738
0.412619
0.419551
0.420555
0.407166
0.407179
0.287348
0.496222
0.191984
0.496602
0.417656
0.422062
0.492444
0.422469
0.490057
0.402416
0.276844
0.25095
0.492575
0.364372
0.492826
0.420517
0.420737
0.195794
0.495991
0.491808
0.326278
0.421095
0.256152
0.216271
0.413808
0.492336
0.257319
0.371885
0.295743
0.229183
0.476586
0.412036
0.478248
0.474795
0.412576
0.406775
0.406873
0.189238
0.412001
0.42212
0.422158
0.227508
0.406204
0.41851
0.335349
0.248905
0.419747
0.411433
0.419316
0.42179
0.421197
0.422207
0.41081
0.496534
0.410895
0.384728
0.40105
0.4154
0.414834
0.412808
0.245291
0.41922
0.399538
0.399387
0.490308
0.420822
0.415787
0.497412
0.420309
0.404733
0.418626
0.415126
0.489698
0.161399
0.41558
0.160997
0.49084
0.400241
0.253692
0.481122
0.391401
0.391322
0.421992
0.421556
0.372617
0.422495
0.420864
0.495619
0.38056
0.381014
0.298326
0.422184
0.41253
0.421253
0.365484
0.422345
0.420782
0.413683
0.415101
0.42172
0.469331
0.470692
0.370279
0.421077
0.418549
0.421942
0.325218
0.217229
0.216977
0.406189
0.418471
0.420631
0.421486
0.422451
0.406835
0.181097
0.406859
0.405651
0.421855
0.290492
0.419354
0.37052
0.421458
0.384171
0.384412
0.415885
0.492353
0.419998
0.236473
0.495731
0.422248
0.212822
0.394023
0.496439
0.49184
0.401542
0.254273
0.301461
0.307403
0.393668
0.415533
0.420587
0.408135
0.404985
0.399438
0.422101
0.40792
0.397876
0.399606
0.402689
0.421527
0.406283
0.420051
0.200372
0.400336
0.493289
0.492098
0.415037
0.419002
0.403418
0.418689
0.421395
0.419187
0.194577
0.399412
0.421027
0.420984
0.420355
0.421605
0.421228
0.419473
0.287294
0.381801
0.382185
0.420601
0.418654
0.420995
0.492239
0.262183
0.418939
0.410852
0.421743
0.412153
0.167091
0.492369
0.416351
0.226525
0.488161
0.420629
0.277131
0.420277
0.159486
0.398162
0.234747
0.23553
0.159336
0.159152
0.410026
0.418154
0.495932
0.495952
0.161611
0.420757
0.422276
0.366979
0.379072
0.413099
0.245341
0.418725
0.418638
0.478366
0.216257
0.192297
0.365243
0.421685
0.421373
0.421061
0.421464
0.497481
0.415353
0.415893
0.416431
0.420656
0.414812
0.420959
0.418944
0.384169
0.492696
0.460918
0.496475
0.419651
0.418818
0.421588
0.418192
0.389443
0.417544
0.415708
0.405022
0.419564
0.417637
0.415668
0.497079
0.417043
0.414432
0.490663
0.400881
0.405903
0.496512
0.417608
0.422088
0.492171
0.217831
0.420451
0.489291
0.417646
0.495662
0.41684
0.417939
0.257233
0.495898
0.488882
0.490251
0.378538
0.377914
0.415289
0.258937
0.49724
0.41907
0.497974
0.348523
0.419781
0.417506
0.19722
0.371815
0.48966
0.386914
0.200321
0.497877
0.203199
0.498707
0.498668
0.497802
0.204399
0.412911
0.497546
0.418508
0.496138
0.493819
0.419372
0.422006
0.473843
0.189476
0.25786
0.49723
0.361935
0.416477
0.262101
0.187041
0.187986
0.417262
0.469901
0.20491
0.177131
0.488265
0.497513
0.420898
0.462455
0.415926
0.165726
0.498349
0.498318
0.49213
0.419421
0.491968
0.419735
0.184174
0.410497
0.410621
0.414971
0.495951
0.420087
0.496478
0.497082
0.420391
0.203077
0.42229
0.422127
0.222922
0.245288
0.242546
0.368679
0.416748
0.491748
0.469972
0.417066
0.416225
0.417234
0.41409
0.417186
0.497716
0.406252
0.497152
0.209402
0.463692
0.415064
0.16238
0.161558
0.491457
0.409891
0.493966
0.418042
0.41711
0.415675
0.407186
0.407052
0.418053
0.417714
0.420722
0.495661
0.221617
0.417091
0.414541
0.417531
0.321918
0.32425
0.420785
0.419304
0.415606
0.421336
0.417385
0.495107
0.420968
0.364516
0.495595
0.35669
0.355895
0.417976
0.411727
0.419682
0.414581
0.379842
0.380391
0.371292
0.38473
0.384947
0.243634
0.413095
0.496849
0.366835
0.414521
0.417362
0.48054
0.414268
0.390899
0.390811
0.399155
0.398947
0.408058
0.41841
0.394457
0.405848
0.405585
0.495559
0.414035
0.40193
0.487203
0.416145
0.386582
0.386378
0.408004
0.415384
0.408426
0.395769
0.395567
0.417617
0.413968
0.404646
0.422415
0.408227
0.216252
0.418404
0.44406
0.496862
0.416684
0.399264
0.414325
0.497579
0.497537
0.497275
0.422023
0.494986
0.49303
0.400571
0.497022
0.364846
0.48926
0.493635
0.497058
0.416628
0.420069
0.420492
0.357144
0.421909
0.422319
0.496249
0.224967
0.226438
0.414749
0.421298
0.397684
0.48859
0.413118
0.415375
0.491343
0.491985
0.422171
0.495501
0.495471
0.421688
0.491221
0.251829
0.255583
0.493824
0.395766
0.36603
0.465137
0.206151
0.496943
0.497006
0.420799
0.495981
0.496308
0.487984
0.417304
0.219508
0.410493
0.495671
0.459303
0.482802
0.496119
0.415378
0.49624
0.239051
0.416108
0.226029
0.405016
0.41418
0.496794
0.222941
0.222774
0.420225
0.388916
0.491052
0.495586
0.488308
0.416462
0.209316
0.413741
0.493427
0.421112
0.496367
0.495295
0.495016
0.416717
0.386373
0.417874
0.495549
0.415238
0.496216
0.416975
0.482156
0.493579
0.419123
0.488556
0.382385
0.382714
0.494711
0.493717
0.495463
0.495341
0.487714
0.495795
0.495899
0.473124
0.419452
0.409178
0.495627
0.496129
0.419926
0.414288
0.416991
0.403748
0.416726
0.492586
0.377184
0.377861
0.496679
0.497099
0.278726
0.497083
0.494518
0.421863
0.414253
0.412302
0.494092
0.494834
0.421737
0.495528
0.495821
0.488037
0.468699
0.493883
0.496241
0.491864
0.496174
0.370075
0.414432
0.482169
0.415574
0.495741
0.495578
0.476661
0.414207
0.416267
0.413488
0.495183
0.485913
0.495884
0.190695
0.360947
0.41451
0.497206
0.492832
0.368889
0.415192
0.493725
0.495361
0.495552
0.158185
0.158073
0.422003
0.403053
0.495756
0.178145
0.410348
0.494595
0.47113
0.416596
0.166721
0.495427
0.41027
0.182926
0.494886
0.409227
0.491588
0.41341
0.420872
0.495801
0.496889
0.414735
0.414793
0.409714
0.493452
0.495818
0.421809
0.496166
0.492531
0.36953
0.493667
0.416016
0.420494
0.494382
0.168152
0.41583
0.494826
0.413989
0.495948
0.496239
0.477284
0.406527
0.408579
0.416985
0.422068
0.406569
0.422063
0.495654
0.414496
0.493908
0.495519
0.495346
0.493046
0.495563
0.419199
0.4958
0.30755
0.495651
0.296958
0.495471
0.49261
0.491427
0.496534
0.492143
0.417039
0.357683
0.356978
0.41587
0.418182
0.496029
0.199099
0.201855
0.400708
0.399999
0.494363
0.49555
0.494565
0.418921
0.490783
0.495488
0.410579
0.367647
0.494688
0.495572
0.417344
0.495798
0.235151
0.260575
0.496901
0.496352
0.496317
0.367223
0.492804
0.495701
0.493684
0.466298
0.467617
0.497944
0.49242
0.495371
0.160622
0.387091
0.386908
0.412387
0.367883
0.493242
0.494035
0.491642
0.491608
0.493788
0.4748
0.495394
0.40959
0.193503
0.493772
0.494001
0.496059
0.413191
0.493315
0.495259
0.415322
0.396186
0.395967
0.466622
0.492271
0.495695
0.493463
0.417327
0.405341
0.493982
0.403456
0.496579
0.488986
0.492887
0.413723
0.491106
0.420447
0.415256
0.492644
0.496027
0.414393
0.418613
0.414669
0.490869
0.493397
0.487776
0.491671
0.495573
0.495538
0.493107
0.493633
0.493483
0.406187
0.492067
0.495333
0.491783
0.403714
0.495757
0.49619
0.487364
0.495302
0.493281
0.495267
0.353414
0.496103
0.493517
0.492338
0.492621
0.494998
0.408886
0.496485
0.420039
0.41786
0.494482
0.494236
0.493994
0.491841
0.495402
0.493083
0.495908
0.49365
0.416779
0.493754
0.415124
0.410017
0.410576
0.413976
0.495508
0.491309
0.494735
0.412302
0.492819
0.492894
0.492365
0.490184
0.493907
0.493167
0.409486
0.491879
0.487839
0.493651
0.49047
0.410605
0.495807
0.403021
0.495772
0.494027
0.496392
0.475721
0.491358
0.224797
0.22128
0.421647
0.487801
0.491472
0.492921
0.410047
0.40892
0.496137
0.492728
0.495793
0.490062
0.491137
0.495084
0.494789
0.494757
0.494013
0.492877
0.491577
0.492465
0.399016
0.496085
0.393135
0.243759
0.411731
0.412606
0.409453
0.413176
0.399059
0.493248
0.392966
0.492431
0.482781
0.486666
0.491042
0.492093
0.492728
0.415922
0.479544
0.49581
0.494587
0.491564
0.479563
0.4908
0.472063
0.413429
0.49537
0.492162
0.42125
0.495553
0.365381
0.422511
0.495397
0.486992
0.49549
0.491626
0.354462
0.418257
0.495775
0.467367
0.490744
0.49306
0.491589
0.493334
0.491222
0.495415
0.489834
0.255638
0.49422
0.414253
0.413136
0.416297
0.480219
0.49029
0.4957
0.491311
0.492443
0.49187
0.496461
0.491026
0.465239
0.489565
0.490724
0.239173
0.467702
0.49123
0.495262
0.404678
0.490532
0.488295
0.487455
0.413513
0.491582
0.419018
0.43108
0.416704
0.490558
0.493179
0.489488
0.494939
0.493169
0.435973
0.495854
0.417799
0.49185
0.41592
0.496747
0.410176
0.495455
0.491069
0.495885
0.496331
0.490324
0.424936
0.495254
0.412234
0.492151
0.413954
0.417098
0.414719
0.489886
0.408092
0.495632
0.433161
0.486521
0.493269
0.412881
0.490924
0.490496
0.49612
0.495163
0.398756
0.412628
0.406499
0.413206
0.490565
0.493982
0.493932
0.412414
0.491129
0.491908
0.406615
0.420113
0.31044
0.294834
0.489917
0.439815
0.415382
0.197385
0.201916
0.400761
0.489681
0.422619
0.492706
0.490126
0.489228
0.495339
0.489883
0.488227
0.442366
0.42047
0.257842
0.48854
0.410428
0.488805
0.492417
0.412938
0.494424
0.466209
0.416903
0.468623
0.428064
0.41216
0.448893
0.367773
0.444911
0.489543
0.418232
0.407444
0.417427
0.4948
0.44243
0.412018
0.195013
0.410278
0.492054
0.408318
0.420184
0.492261
0.415495
0.491259
0.495132
0.411529
0.405405
0.412079
0.40391
0.488194
0.489491
0.417766
0.49211
0.494243
0.446609
0.411783
0.353803
0.412028
0.409283
0.486662
0.422648
0.409974
0.489413
0.496941
0.49105
0.408352
0.409599
0.407752
0.497476
0.428056
0.408208
0.493434
0.407781
0.489848
0.41122
0.408552
0.474763
0.488857
0.221288
0.226111
0.451944
0.453948
0.489419
0.485431
0.412333
0.408247
0.382093
0.381825
0.454039
0.495908
0.245689
0.493512
0.491607
0.489459
0.493853
0.493301
0.455964
0.412174
0.406794
0.490741
0.407671
0.487033
0.492627
0.409721
0.487248
0.409805