# vtk DataFile Version 1.0
unstructured grid
ascii
DATASET UNSTRUCTURED_GRID
points 8094 float
-0.25 0.0574735 0
0.5 0.0546937 0
0.5 -0.0546937 0
-0.25 -0.0574735 0
-0.25 0.0574735 0.01
0.5 0.0546937 0.01
0.5 -0.0546937 0.01
-0.25 -0.0574735 0.01
-0.246045 0.0569295 0
-0.242089 0.0563854 0
-0.238136 0.0558289 0
-0.234184 0.0552582 0
-0.230232 0.0546875 0
-0.226284 0.0540912 0
-0.222337 0.0534933 0
-0.218391 0.0528841 0
-0.214448 0.0522585 0
-0.210504 0.0516328 0
-0.206565 0.0509829 0
-0.202626 0.0503294 0
-0.198689 0.0496667 0
-0.194755 0.0489856 0
-0.190821 0.0483046 0
-0.18689 0.0476022 0
-0.182961 0.0468942 0
-0.179033 0.0461799 0
-0.175108 0.0454463 0
-0.171183 0.0447127 0
-0.167262 0.0439627 0
-0.163342 0.0432056 0
-0.159422 0.0424455 0
-0.155506 0.041668 0
-0.15159 0.0408904 0
-0.147675 0.0401031 0
-0.143762 0.0393092 0
-0.13985 0.0385149 0
-0.135939 0.0377103 0
-0.132028 0.0369056 0
-0.128117 0.0361005 0
-0.124207 0.0352949 0
-0.120296 0.0344893 0
-0.116386 0.0336836 0
-0.112475 0.032878 0
-0.108563 0.0320794 0
-0.104649 0.0312931 0
-0.100735 0.0305068 0
-0.0968152 0.029745 0
-0.0928949 0.0289889 0
-0.0889722 0.0282446 0
-0.0850433 0.0275341 0
-0.0811144 0.0268235 0
-0.0771778 0.0261578 0
-0.0732381 0.0255098 0
-0.0692962 0.0248759 0
-0.0653442 0.0243073 0
-0.0613923 0.0237386 0
-0.0574324 0.0232306 0
-0.0534681 0.0227556 0
-0.0495024 0.0222934 0
-0.0455272 0.0219207 0
-0.041552 0.0215481 0
-0.0375717 0.0212385 0
-0.0335881 0.0209694 0
-0.029604 0.0207098 0
-0.0256151 0.0205369 0
-0.0216262 0.0203639 0
-0.0176357 0.0202396 0
-0.0136441 0.0201487 0
-0.00965243 0.0200635 0
-0.00565987 0.0200372 0
-0.00166732 0.020011 0
0.00232526 0.0200121 0
0.00631785 0.0200329 0
0.0103104 0.0200563 0
0.0143027 0.0201109 0
0.018295 0.0201654 0
0.022287 0.0202345 0
0.0262788 0.0203144 0
0.0302706 0.0203957 0
0.034262 0.0204956 0
0.0382534 0.0205955 0
0.0422446 0.0207045 0
0.0462355 0.0208207 0
0.0502265 0.0209377 0
0.054217 0.0210676 0
0.0582075 0.0211975 0
0.0621978 0.0213339 0
0.0661879 0.0214757 0
0.0701781 0.021618 0
0.0741678 0.0217703 0
0.0781575 0.0219227 0
0.0821471 0.0220801 0
0.0861364 0.022242 0
0.0901258 0.0224041 0
0.0941148 0.0225747 0
0.0981038 0.0227453 0
0.102093 0.0229202 0
0.106081 0.023099 0
0.11007 0.0232779 0
0.114058 0.0234644 0
0.118046 0.0236509 0
0.122035 0.0238411 0
0.126022 0.024035 0
0.13001 0.0242288 0
0.133998 0.0244298 0
0.137986 0.0246308 0
0.141973 0.0248352 0
0.14596 0.025043 0
0.149947 0.0252509 0
0.153934 0.0254654 0
0.157921 0.02568 0
0.161908 0.0258978 0
0.165894 0.026119 0
0.169881 0.0263402 0
0.173867 0.0265678 0
0.177853 0.0267956 0
0.181839 0.0270264 0
0.185825 0.0272607 0
0.189811 0.0274951 0
0.193796 0.0277356 0
0.197781 0.0279764 0
0.201767 0.02822 0
0.205752 0.0284673 0
0.209737 0.0287146 0
0.213721 0.0289679 0
0.217706 0.0292217 0
0.22169 0.0294782 0
0.225674 0.0297385 0
0.229658 0.0299988 0
0.233642 0.0302651 0
0.237626 0.0305319 0
0.241609 0.0308014 0
0.245593 0.0310748 0
0.249576 0.0313482 0
0.253559 0.0316276 0
0.257542 0.0319077 0
0.261524 0.0321904 0
0.265507 0.0324772 0
0.269489 0.032764 0
0.273471 0.0330568 0
0.277453 0.0333504 0
0.281434 0.0336466 0
0.285416 0.0339471 0
0.289397 0.0342476 0
0.293378 0.034554 0
0.297359 0.0348615 0
0.301339 0.0351714 0
0.305319 0.0354859 0
0.3093 0.0358005 0
0.313279 0.036121 0
0.317259 0.0364427 0
0.321239 0.0367667 0
0.325218 0.0370957 0
0.329197 0.0374248 0
0.333175 0.0377597 0
0.337154 0.0380961 0
0.341132 0.0384347 0
0.34511 0.0387786 0
0.349088 0.0391226 0
0.353065 0.0394724 0
0.357042 0.0398239 0
0.361019 0.0401775 0
0.364995 0.0405368 0
0.368972 0.0408961 0
0.372948 0.0412613 0
0.376924 0.0416285 0
0.380899 0.0419975 0
0.384874 0.0423727 0
0.388849 0.0427479 0
0.392823 0.0431289 0
0.396798 0.0435123 0
0.400772 0.0438973 0
0.404745 0.044289 0
0.408718 0.0446807 0
0.412691 0.0450781 0
0.416664 0.0454782 0
0.420636 0.0458797 0
0.424608 0.0462883 0
0.42858 0.046697 0
0.432551 0.0471114 0
0.436521 0.0475289 0
0.440492 0.0479474 0
0.444462 0.0483738 0
0.448432 0.0488001 0
0.452401 0.0492319 0
0.45637 0.0496673 0
0.460338 0.0501035 0
0.464306 0.0505482 0
0.468274 0.0509928 0
0.472241 0.0514427 0
0.476208 0.0518968 0
0.480175 0.0523512 0
0.48414 0.0528148 0
0.488106 0.0532784 0
0.492071 0.0537471 0
0.496036 0.0542204 0
0.5 0.050787 0
0.5 0.0468803 0
0.5 0.0429736 0
0.5 0.0390669 0
0.5 0.0351602 0
0.5 0.0312535 0
0.5 0.0273468 0
0.5 0.0234402 0
0.5 0.0195335 0
0.5 0.0156268 0
0.5 0.0117201 0
0.5 0.00781339 0
0.5 0.00390669 0
0.5 1.43781e-13 0
0.5 -0.00390669 0
0.5 -0.00781339 0
0.5 -0.0117201 0
0.5 -0.0156268 0
0.5 -0.0195335 0
0.5 -0.0234402 0
0.5 -0.0273468 0
0.5 -0.0312535 0
0.5 -0.0351602 0
0.5 -0.0390669 0
0.5 -0.0429736 0
0.5 -0.0468803 0
0.5 -0.050787 0
0.496036 -0.0542204 0
0.492071 -0.0537471 0
0.488106 -0.0532784 0
0.48414 -0.0528148 0
0.480175 -0.0523512 0
0.476208 -0.0518968 0
0.472241 -0.0514427 0
0.468274 -0.0509928 0
0.464306 -0.0505482 0
0.460338 -0.0501035 0
0.45637 -0.0496673 0
0.452401 -0.0492319 0
0.448432 -0.0488001 0
0.444462 -0.0483738 0
0.440492 -0.0479474 0
0.436521 -0.0475289 0
0.432551 -0.0471114 0
0.42858 -0.046697 0
0.424608 -0.0462883 0
0.420636 -0.0458797 0
0.416664 -0.0454782 0
0.412691 -0.0450781 0
0.408718 -0.0446807 0
0.404745 -0.044289 0
0.400772 -0.0438973 0
0.396798 -0.0435123 0
0.392823 -0.0431289 0
0.388849 -0.0427479 0
0.384874 -0.0423727 0
0.380899 -0.0419975 0
0.376924 -0.0416285 0
0.372948 -0.0412613 0
0.368972 -0.0408961 0
0.364995 -0.0405368 0
0.361019 -0.0401775 0
0.357042 -0.0398239 0
0.353065 -0.0394724 0
0.349088 -0.0391226 0
0.34511 -0.0387786 0
0.341132 -0.0384347 0
0.337154 -0.0380961 0
0.333175 -0.0377597 0
0.329197 -0.0374248 0
0.325218 -0.0370957 0
0.321239 -0.0367667 0
0.317259 -0.0364427 0
0.313279 -0.036121 0
0.3093 -0.0358005 0
0.305319 -0.0354859 0
0.301339 -0.0351714 0
0.297359 -0.0348615 0
0.293378 -0.034554 0
0.289397 -0.0342476 0
0.285416 -0.0339471 0
0.281434 -0.0336466 0
0.277453 -0.0333504 0
0.273471 -0.0330568 0
0.269489 -0.032764 0
0.265507 -0.0324772 0
0.261524 -0.0321904 0
0.257542 -0.0319077 0
0.253559 -0.0316276 0
0.249576 -0.0313482 0
0.245593 -0.0310748 0
0.241609 -0.0308014 0
0.237626 -0.0305319 0
0.233642 -0.0302651 0
0.229658 -0.0299988 0
0.225674 -0.0297385 0
0.22169 -0.0294782 0
0.217706 -0.0292217 0
0.213721 -0.0289679 0
0.209737 -0.0287146 0
0.205752 -0.0284673 0
0.201767 -0.02822 0
0.197781 -0.0279764 0
0.193796 -0.0277356 0
0.189811 -0.0274951 0
0.185825 -0.0272607 0
0.181839 -0.0270264 0
0.177853 -0.0267956 0
0.173867 -0.0265678 0
0.169881 -0.0263402 0
0.165894 -0.026119 0
0.161908 -0.0258978 0
0.157921 -0.02568 0
0.153934 -0.0254654 0
0.149947 -0.0252509 0
0.14596 -0.025043 0
0.141973 -0.0248352 0
0.137986 -0.0246308 0
0.133998 -0.0244298 0
0.13001 -0.0242288 0
0.126022 -0.024035 0
0.122035 -0.0238411 0
0.118046 -0.0236509 0
0.114058 -0.0234644 0
0.11007 -0.0232779 0
0.106081 -0.023099 0
0.102093 -0.0229202 0
0.0981038 -0.0227453 0
0.0941148 -0.0225747 0
0.0901258 -0.0224041 0
0.0861364 -0.022242 0
0.0821471 -0.0220801 0
0.0781575 -0.0219227 0
0.0741678 -0.0217703 0
0.0701781 -0.021618 0
0.0661879 -0.0214757 0
0.0621978 -0.0213339 0
0.0582075 -0.0211975 0
0.054217 -0.0210676 0
0.0502265 -0.0209377 0
0.0462355 -0.0208207 0
0.0422446 -0.0207045 0
0.0382534 -0.0205955 0
0.034262 -0.0204956 0
0.0302706 -0.0203957 0
0.0262788 -0.0203144 0
0.022287 -0.0202345 0
0.018295 -0.0201654 0
0.0143027 -0.0201109 0
0.0103104 -0.0200563 0
0.00631785 -0.0200329 0
0.00232526 -0.0200121 0
-0.00166732 -0.020011 0
-0.00565987 -0.0200372 0
-0.00965243 -0.0200635 0
-0.0136441 -0.0201487 0
-0.0176357 -0.0202396 0
-0.0216262 -0.0203639 0
-0.0256151 -0.0205369 0
-0.029604 -0.0207098 0
-0.0335881 -0.0209694 0
-0.0375717 -0.0212385 0
-0.041552 -0.0215481 0
-0.0455272 -0.0219207 0
-0.0495024 -0.0222934 0
-0.0534681 -0.0227556 0
-0.0574324 -0.0232306 0
-0.0613923 -0.0237386 0
-0.0653442 -0.0243073 0
-0.0692962 -0.0248759 0
-0.0732381 -0.0255098 0
-0.0771778 -0.0261578 0
-0.0811144 -0.0268235 0
-0.0850433 -0.0275341 0
-0.0889722 -0.0282446 0
-0.0928949 -0.0289889 0
-0.0968152 -0.029745 0
-0.100735 -0.0305068 0
-0.104649 -0.0312931 0
-0.108563 -0.0320794 0
-0.112475 -0.032878 0
-0.116386 -0.0336836 0
-0.120296 -0.0344893 0
-0.124207 -0.0352949 0
-0.128117 -0.0361005 0
-0.132028 -0.0369056 0
-0.135939 -0.0377103 0
-0.13985 -0.0385149 0
-0.143762 -0.0393092 0
-0.147675 -0.0401031 0
-0.15159 -0.0408904 0
-0.155506 -0.041668 0
-0.159422 -0.0424455 0
-0.163342 -0.0432056 0
-0.167262 -0.0439627 0
-0.171183 -0.0447127 0
-0.175108 -0.0454463 0
-0.179033 -0.0461799 0
-0.182961 -0.0468942 0
-0.18689 -0.0476022 0
-0.190821 -0.0483046 0
-0.194755 -0.0489856 0
-0.198689 -0.0496667 0
-0.202626 -0.0503294 0
-0.206565 -0.0509829 0
-0.210504 -0.0516328 0
-0.214448 -0.0522585 0
-0.218391 -0.0528841 0
-0.222337 -0.0534933 0
-0.226284 -0.0540912 0
-0.230232 -0.0546875 0
-0.234184 -0.0552582 0
-0.238136 -0.0558289 0
-0.242089 -0.0563854 0
-0.246045 -0.0569295 0
-0.25 -0.0535098 0
-0.25 -0.0495461 0
-0.25 -0.0455824 0
-0.25 -0.0416187 0
-0.25 -0.0376551 0
-0.25 -0.0336914 0
-0.25 -0.0297277 0
-0.25 -0.025764 0
-0.25 -0.0218003 0
-0.25 -0.0178366 0
-0.25 -0.0138729 0
-0.25 -0.00990922 0
-0.25 -0.00594553 0
-0.25 -0.00198184 0
-0.25 0.00198184 0
-0.25 0.00594553 0
-0.25 0.00990922 0
-0.25 0.0138729 0
-0.25 0.0178366 0
-0.25 0.0218003 0
-0.25 0.025764 0
-0.25 0.0297277 0
-0.25 0.0336914 0
-0.25 0.0376551 0
-0.25 0.0416187 0
-0.25 0.0455824 0
-0.25 0.0495461 0
-0.25 0.0535098 0
-0.246045 0.0569295 0.01
-0.242089 0.0563854 0.01
-0.238136 0.0558289 0.01
-0.234184 0.0552582 0.01
-0.230232 0.0546875 0.01
-0.226284 0.0540912 0.01
-0.222337 0.0534933 0.01
-0.218391 0.0528841 0.01
-0.214448 0.0522585 0.01
-0.210504 0.0516328 0.01
-0.206565 0.0509829 0.01
-0.202626 0.0503294 0.01
-0.198689 0.0496667 0.01
-0.194755 0.0489856 0.01
-0.190821 0.0483046 0.01
-0.18689 0.0476022 0.01
-0.182961 0.0468942 0.01
-0.179033 0.0461799 0.01
-0.175108 0.0454463 0.01
-0.171183 0.0447127 0.01
-0.167262 0.0439627 0.01
[...]
CELL_DATA 7657
SCALARS rho float
LOOKUP_TABLE default
0.47549
0.45461
0.510589
0.498841
0.494983
0.506514
0.448472
0.502123
0.449396
0.50014
0.500201
0.502489
0.446706
0.502304
0.493993
0.487418
0.493872
0.510042
0.510042
0.500164
0.492966
0.509865
0.453163
0.510063
0.507768
0.504242
0.49127
0.447178
0.497077
0.506784
0.453246
0.507751
0.452703
0.47361
0.47405
0.453322
0.506728
0.453041
0.478566
0.467494
0.51058
0.449404
0.503293
0.505642
0.510605
0.51054
0.449483
0.506463
0.507706
0.475125
0.5054
0.499156
0.49708
0.497863
0.448872
0.507185
0.49332
0.490946
0.458137
0.453875
0.507594
0.510598
0.507226
0.507117
0.500818
0.500828
0.446998
0.507776
0.499319
0.456302
0.510654
0.446847
0.502358
0.497143
0.472443
0.506233
0.509884
0.50611
0.471943
0.447244
0.452264
0.501844
0.500237
0.510631
0.510629
0.460327
0.510628
0.456353
0.504099
0.490322
0.500742
0.500777
0.45882
0.498693
0.465879
0.461785
0.461054
0.453872
0.510565
0.465484
0.51002
0.508703
0.454609
0.492455
0.449118
0.45077
0.460424
0.508007
0.447418
0.49238
0.453996
0.507967
0.504671
0.500219
0.510489
0.455858
0.508216
0.468555
0.486746
0.506572
0.501507
0.501496
0.460255
0.45274
0.500847
0.502318
0.502672
0.503133
0.507532
0.503435
0.497284
0.509487
0.507269
0.502142
0.500252
0.458505
0.487823
0.452708
0.509407
0.509327
0.459505
0.485363
0.46981
0.467771
0.510173
0.492875
0.452175
0.454817
0.510571
0.459398
0.477011
0.499424
0.457427
0.503382
0.493004
0.45435
0.507791
0.509731
0.500227
0.457636
0.509668
0.490668
0.504372
0.456241
0.510372
0.454373
0.478562
0.504586
0.5105
0.487116
0.510603
0.451034
0.509561
0.476249
0.451061
0.452599
0.500879
0.461251
0.500939
0.470953
0.46739
0.44709
0.509045
0.508939
0.4468
0.457601
0.448451
0.501242
0.503423
0.461651
0.497027
0.498959
0.500247
0.464508
0.50351
0.507461
0.500077
0.490266
0.451632
0.510532
0.510095
0.508802
0.462592
0.456423
0.48923
0.498043
0.447513
0.450468
0.471416
0.464165
0.509854
0.510542
0.51037
0.500276
0.510608
0.501743
0.450313
0.459767
0.507918
0.510626
0.454769
0.45431
0.499772
0.507873
0.447774
0.452387
0.447486
0.485304
0.506109
0.499811
0.51026
0.510204
0.446795
0.492795
0.485619
0.500161
0.456739
0.508634
0.508538
0.489945
0.509792
0.474581
0.462253
0.452471
0.470764
0.466608
0.448326
0.465929
0.448534
0.505874
0.452738
0.500366
0.508134
0.472434
0.450849
0.501464
0.455349
0.494886
0.49774
0.507858
0.453288
0.497845
0.486283
0.510522
0.449811
0.510622
0.45636
0.475801
0.510089
0.472223
0.446366
0.489334
0.485732
0.50014
0.470226
0.51047
0.504295
0.507973
0.50788
0.503124
0.454046
0.505856
0.479394
0.462211
0.500147
0.45343
0.462465
0.496796
0.457954
0.510338
0.510424
0.501658
0.480605
0.497838
0.508032
0.491976
0.478972
0.501722
0.456676
0.510411
0.461077
0.497804
0.473422
0.448042
0.489949
0.459523
0.449296
0.501998
0.510206
0.508007
0.503004
0.456302
0.489606
0.448669
0.507815
0.489383
0.497717
0.494922
0.507941
0.505734
0.504136
0.453164
0.497672
0.457073
0.487216
0.495935
0.44817
0.456854
0.491448
0.510389
0.450849
0.496254
0.486125
0.454887
0.50201
0.458203
0.508001
0.483764
0.507921
0.497069
0.503693
0.451397
0.456024
0.486324
0.500014
0.45049
0.497005
0.455484
0.510617
0.491532
0.506714
0.509726
0.500228
0.509659
0.448587
0.50808
0.509422
0.450073
0.507987
0.450863
0.508697
0.50992
0.510579
0.456539
0.493507
0.45204
0.503805
0.466463
0.458991
0.460464
0.506941
0.458415
0.500327
0.500669
0.447058
0.446605
0.509564
0.45881
0.510313
0.485181
0.510479
0.51016
0.48845
0.507107
0.497403
0.499259
0.474959
0.50262
0.503971
0.490953
0.508707
0.508111
0.50805
0.500542
0.504558
0.457448
0.449969
0.450949
0.490803
0.506713
0.50022
0.500248
0.510228
0.49862
0.466539
0.458269
0.488161
0.44633
0.491225
0.493959
0.509501
0.506996
0.507041
0.498272
0.462479
0.500709
0.5105
0.501728
0.498445
0.454046
0.453075
0.501851
0.447931
0.456772
0.45454
0.510515
0.460783
0.501138
0.502981
0.508603
0.457188
0.449924
0.455682
0.500095
0.505607
0.484871
0.4977
0.509338
0.486439
0.510102
0.506569
0.483274
0.454748
0.497283
0.503129
0.510498
0.509776
0.448096
0.493821
0.455812
0.507789
0.508043
0.508886
0.448776
0.448049
0.461381
0.448067
0.488172
0.486645
0.46276
0.47423
0.507643
0.510403
0.460228
0.456804
0.500711
0.450497
0.451565
0.448179
0.449004
0.497269
0.508959
0.458513
0.476197
0.492521
0.508892
0.505535
0.506406
0.461051
0.49702
0.455745
0.497119
0.509658
0.509492
0.510551
0.507844
0.476989
0.455476
0.499358
0.506795
0.490322
0.507478
0.502433
0.463902
0.502805
0.446914
0.498714
0.505919
0.474256
0.475639
0.501549
0.501705
0.457448
0.501262
0.45704
0.457813
0.455862
0.502342
0.456059
0.485001
0.478207
0.505876
0.508988
0.490178
0.510004
0.501087
0.482248
0.509759
0.47997
0.453109
0.488003
0.500392
0.501775
0.49611
0.503269
0.501375
0.498369
0.510643
0.498687
0.507267
0.508456
0.48558
0.501878
0.45832
0.510531
0.508884
0.510481
0.501992
0.452485
0.510287
0.510507
0.508875
0.456753
0.502692
0.505428
0.500569
0.509082
0.502661
0.506973
0.509164
0.485891
0.497833
0.457439
0.504452
0.480559
0.484365
0.465604
0.503233
0.450977
0.473979
0.485339
0.505535
0.500885
0.446295
0.509271
0.483008
0.498993
0.50055
0.452321
0.470859
0.461278
0.505829
0.509668
0.453241
0.458779
0.447691
0.502007
0.500028
0.502873
0.502473
0.44813
0.458143
0.45935
0.507757
0.509216
0.458166
0.506688
0.456625
0.499147
0.446341
0.503525
0.50235
0.448503
0.456503
0.457892
0.507766
0.452042
0.448442
0.510538
0.502426
0.463142
0.492196
0.507895
0.503631
0.501947
0.50218
0.50428
0.465024
0.5081
0.492837
0.504141
0.502596
0.502661
0.483199
0.510594
0.485756
0.50002
0.458095
0.456282
0.502167
0.455704
0.497452
0.497703
0.50091
0.501849
0.50685
0.454361
0.456063
0.456235
0.449153
0.509967
0.507719
0.497508
0.506754
0.503563
0.501245
0.45737
0.507364
0.496845
0.510069
0.496745
0.508879
0.508176
0.446372
0.495517
0.500669
0.507653
0.506599
0.458236
0.502295
0.483403
0.506491
0.510542
0.50101
0.500168
0.503216
0.487548
0.508977
0.507209
0.507347
0.461384
0.50632
0.486558
0.455926
0.507259
0.509539
0.456727
0.502141
0.506215
0.45737
0.500831
0.459554
0.457232
0.486519
0.499499
0.457705
0.456507
0.456252
0.50007
0.506053
0.510562
0.507083
0.457709
0.502723
0.501835
0.505939
0.508524
0.497531
0.449326
0.456508
0.467843
0.502161
0.503041
0.506955
0.509152
0.503067
0.500436
0.447954
0.494381
0.493871
0.448206
0.509318
0.448231
0.451559
0.448815
0.504332
0.505769
0.448653
0.505651
0.501173
0.501031
0.49983
0.502273
0.497207
0.50982
0.446773
0.486241
0.498189
0.463237
0.457123
0.504127
0.457803
0.501207
0.501218
0.496154
0.506838
0.504701
0.49708
0.454205
0.457696
0.507576
0.495296
0.503854
0.458394
0.503166
0.455581
0.45101
0.458454
0.501088
0.507365
0.506998
0.456502
0.495128
0.457372
0.45161
0.501261
0.451133
0.450202
0.464056
0.504557
0.498248
0.447171
0.50682
0.481858
0.499019
0.49377
0.495876
0.469766
0.496496
0.497414
0.455641
0.496104
0.500618
0.507589
0.507211
0.501751
0.508061
0.450182
0.507209
0.502748
0.509702
0.509778
0.48465
0.449882
0.49581
0.503
0.484185
0.493665
0.495581
0.510006
0.504095
0.507251
0.473344
0.501279
0.448808
0.500245
0.495525
0.502733
0.458616
0.508984
0.457439
0.449427
0.503314
0.506699
0.510602
0.485707
0.50145
0.456626
0.457926
0.457917
0.494592
0.461011
0.447186
0.50313
0.457833
0.457697
0.457766
0.505144
0.494884
0.502028
0.464167
0.447579
0.447058
0.504789
0.448725
0.494258
0.500244
0.504572
0.501348
0.491726
0.500243
0.452945
0.500388
0.500765
0.449138
0.46125
0.503256
0.472186
0.456569
0.447397
0.501017
0.503612
0.470984
0.504312
0.500887
0.451471
0.483653
0.500261
0.493542
0.507456
0.500737
0.505115
0.507705
0.498768
0.497028
0.493248
0.510597
0.456263
0.461174
0.503616
0.493806
0.497388
0.462401
0.449971
0.473073
0.506297
0.454575
0.496764
0.454655
0.491263
0.49359
0.500752
0.490917
0.493893
0.503855
0.50654
0.500928
0.463017
0.492833
0.448393
0.450012
0.497158
0.447537
0.503927
0.493209
0.474294
0.462149
0.494836
0.493517
0.501779
0.4944
0.503117
0.455637
0.503492
0.44925
0.448476
0.449619
0.502031
0.502333
0.494448
0.447285
0.506426
0.504977
0.493513
0.493987
0.49314
0.493937
0.50522
0.492462
0.463088
0.492092
0.492772
0.487605
0.501005
0.488035
0.479069
0.506153
0.481326
0.463063
0.450702
0.505358
0.4733
0.462016
0.455064
0.45506
0.496118
0.502867
0.492407
0.503012
0.450897
0.460723
0.500509
0.503324
0.496402
0.503817
0.455651
0.466479
0.492045
0.455141
0.455297
0.447087
0.486699
0.503318
0.503634
0.482461
0.456951
0.457013
0.501228
0.504554
0.504977
0.447621
0.469581
0.496866
0.500097
0.50161
0.509598
0.468867
0.47214
0.500674
0.503287
0.510623
0.480198
0.448102
0.447645
0.447593
0.503737
0.461359
0.45609
0.502668
0.456997
0.507464
0.490239
0.503351
0.501926
0.507776
0.505574
0.500854
0.475629
0.464806
0.503797
0.5068
0.474754
0.477011
0.506788
0.500405
0.467908
0.48679
0.506418
0.501794
0.505849
0.457916
0.500589
0.491469
0.503634
0.503448
0.506686
0.50657
0.500682
0.50482
0.50862
0.485374
0.468483
0.491518
0.45393
0.500412
0.460175
0.496482
0.497303
0.458656
0.45866
0.500559
0.503127
0.500083
0.457038
0.490651
0.504103
0.507056
0.500552
0.471022
0.500516
0.49409
0.504241
0.507079
0.447464
0.496467
0.502815
0.503117
0.447389
0.447917
0.450971
0.503369
0.489848
0.500327
0.510595
0.510671
0.458729
0.477533
0.51011
0.504168
0.490443
0.451224
0.505871
0.449568
0.460433
0.501179
0.496674
0.506009
0.49638
0.510682
0.51066
0.510527
0.496027
0.510154
0.50011
0.503783
0.510128
0.448073
0.510565
0.474834
0.454717
0.496319
0.484107
0.505702
0.493624
0.496885
0.501368
0.490709
0.493467
0.489786
0.501711
0.449927
0.488294
0.509865
0.496064
0.448539
0.502495
0.507512
0.476218
0.502066
0.504761
0.508496
0.500577
0.508916
0.500495
0.503548
0.493231
0.502152
0.503596
0.507169
0.496633
0.506019
0.474764
0.506034
0.507288
0.455644
0.504818
0.463817
0.488763
0.494705
0.466866
0.468769
0.503532
0.506168
0.500596
0.450238
0.467745
0.45056
0.500383
0.50405
0.457675
0.45762
0.474005
0.489391
0.503141
0.504972
0.456133
0.475178
0.502001
0.48515
0.496268
0.504403
0.502353
0.484369
0.503666
0.507485
0.486385
0.501319
0.505581
0.509848
0.500224
0.476732
0.501542
0.49663
0.472298
0.504083
0.473108
0.500401
0.487177
0.500709
0.496201
0.488877
0.489616
0.510591
0.510587
0.488932
0.492105
0.504979
0.453045
0.502265
0.488469
0.502203
0.460642
0.486298
0.500764
0.50394
0.472057
0.459705
0.503902
0.452427
0.505516
0.466669
0.447453
0.447877
0.505716
0.505368
0.505733
0.45947
0.496441
0.506
0.497206
0.500733
0.451979
0.503181
0.501265
0.502902
0.465562
0.500695
0.494585
0.502432
0.502975
0.466904
0.500548
0.458826
0.450904
0.455031
0.455008
0.500972
0.494762
0.455974
0.502866
0.496076
0.500655
0.500405
0.509076
0.509962
0.49711
0.462359
0.499638
0.450451
0.501171
0.45766
0.503287
0.451147
0.508532
0.500841
0.506127
0.502323
0.501849
0.508492
0.508512
0.447092
0.496783
0.487349
0.497161
0.503394
0.500718
0.491362
0.500392
0.488419
0.50983
0.447886
0.454742
0.491516
0.506341
0.491814
0.501634
0.501499
0.485979
0.496376
0.490507
0.448535
0.501418
0.453593
0.469936
0.505599
0.491205
0.450892
0.507661
0.448186
0.464513
0.474039
0.50639
0.475621
0.472386
0.506128
0.508595
0.508573
0.490522
0.506399
0.500562
0.5008
0.465537
0.508769
0.502896
0.449379
0.453191
0.502121
0.506664
0.502406
0.500815
0.501385
0.500536
0.506946
0.496834
0.506894
0.509818
0.51007
0.50468
0.505019
0.505999
0.453438
0.502446
0.510256
0.510296
0.488679
0.501591
0.504474
0.498208
0.501914
0.509268
0.502975
0.504863
0.488004
0.502964
0.504603
0.503085
0.489333
0.51016
0.453399
0.478307
0.510514
0.510511
0.500654
0.500975
0.507747
0.500514
0.501422
0.496251
0.509205
0.509237
0.446781
0.500649
0.506145
0.501172
0.506746
0.500406
0.501465
0.505573
0.504818
0.500966
0.467769
0.468809
0.507333
0.501313
0.50296
0.500811
0.504635
0.504384
0.504394
0.50878
0.502912
0.501693
0.501011
0.500297
0.508586
0.494809
0.508602
0.508994
0.500775
0.446719
0.502387
0.507573
0.501142
0.509737
0.509726
0.504442
0.491198
0.501961
0.454931
0.495945
0.500458
0.472243
0.510558
0.496962
0.490574
0.509933
0.454217
0.447116
0.447313
0.51068
0.504616
0.501741
0.508135
0.509168
0.510374
0.500594
0.508157
0.510565
0.510266
0.509861
0.501043
0.508891
0.501938
0.481174
0.510174
0.492414
0.490902
0.504915
0.50259
0.509599
0.502769
0.501067
0.502524
0.486938
0.510307
0.501305
0.501339
0.501752
0.500952
0.501296
0.502287
0.448555
0.509394
0.509406
0.501593
0.502842
0.501347
0.491092
0.449827
0.502673
0.506926
0.500827
0.506381
0.501054
0.491212
0.504168
0.463493
0.485903
0.501813
0.446704
0.50202
0.503354
0.510464
0.461557
0.460601
0.503478
0.503542
0.507376
0.50309
0.496783
0.496856
0.50278
0.501507
0.500682
0.506764
0.455463
0.505857
0.454617
0.502755
0.502975
0.475464
0.472993
0.485662
0.506473
0.50106
0.50111
0.501309
0.501211
0.498216
0.50474
0.504437
0.504128
0.501562
0.50504
0.501471
0.502611
0.509736
0.491686
0.462082
0.496784
0.502231
0.502807
0.501091
0.503076
0.510359
0.503434
0.504543
0.509163
0.502266
0.503423
0.504561
0.497733
0.503764
0.458179
0.489096
0.458109
0.458984
0.496904
0.503425
0.500689
0.490947
0.468787
0.501701
0.487537
0.503432
0.496329
0.503922
0.503284
0.452251
0.496648
0.487069
0.488623
0.508831
0.508781
0.504769
0.451593
0.497811
0.502635
0.498796
0.451111
0.502107
0.503503
0.484993
0.507598
0.487959
0.510155
0.482949
0.498694
0.478976
0.499423
0.499394
0.498644
0.479759
0.505988
0.498323
0.502972
0.496716
0.493204
0.502401
0.500637
0.471532
0.490599
0.453016
0.498057
0.506157
0.504091
0.451854
0.49212
0.491336
0.503594
0.468404
0.477878
0.497517
0.486365
0.49816
0.501402
0.463038
0.504395
0.50177
0.499016
0.498989
0.490902
0.5025
0.490752
0.502164
0.493666
0.507055
0.507021
0.50494
0.496758
0.501922
0.497122
0.497648
0.501734
0.480884
0.500448
0.500537
0.465476
0.456291
0.457905
0.507062
0.503946
0.49047
0.468675
0.50376
0.504233
0.503694
0.505435
0.503684
0.49853
0.508797
0.497879
0.474477
0.463829
0.504896
0.50262
0.502677
0.490113
0.507455
0.493275
0.503186
0.503752
0.504535
0.508461
0.508481
0.50319
0.503383
0.501623
0.496253
0.504397
0.503799
0.505138
0.503528
0.504589
0.504581
0.501523
0.502472
0.504595
0.501327
0.503572
0.495124
0.501535
0.50655
0.496085
0.505233
0.505163
0.503271
0.506505
0.502268
0.50516
0.509065
0.509123
0.507693
0.509811
0.509802
0.455381
0.505956
0.497334
0.506831
0.505194
0.503578
0.477698
0.505335
0.510454
0.510446
0.510292
0.510311
0.50815
0.502933
0.510572
0.508849
0.508982
0.496115
0.505453
0.509864
0.484803
0.504289
0.510054
0.510022
0.508151
0.504662
0.508015
0.510609
0.510573
0.503408
0.505424
0.509236
0.50055
0.508052
0.46991
0.502991
0.455629
0.497426
0.503979
0.458625
0.505281
0.498042
0.498012
0.49801
0.500909
0.494913
0.492099
0.510095
0.497877
0.453804
0.487498
0.492957
0.49798
0.504004
0.502062
0.501679
0.452477
0.500752
0.500698
0.496696
0.464541
0.465572
0.505069
0.50115
0.510443
0.486737
0.50594
0.504694
0.489968
0.490692
0.500818
0.495651
0.495926
0.50112
0.489675
0.452608
0.45147
0.493201
0.510623
0.506843
0.464827
0.478711
0.497354
0.497755
0.501483
0.496259
0.49734
0.486038
0.503609
0.467655
0.507194
0.495898
0.460556
0.480231
0.496494
0.504719
0.497234
0.456822
0.504349
0.466573
0.509178
0.505381
0.497472
0.467685
0.468667
0.501814
0.510288
0.489613
0.495765
0.486412
0.504108
0.476519
0.505604
0.492615
0.501286
0.497454
0.495379
0.494933
0.503907
0.510071
0.503253
0.495804
0.504775
0.497149
0.503902
0.47957
0.492742
0.502553
0.486697
0.50947
0.50947
0.494466
0.492949
0.495907
0.495351
0.485708
0.49646
0.496792
0.471287
0.502321
0.507701
0.496103
0.496933
0.502119
0.505314
0.50376
0.509514
0.503915
0.491506
0.508644
0.50868
0.497375
0.497732
0.447735
0.497908
0.494206
0.500844
0.505286
0.506272
0.493472
0.49465
0.500861
0.495624
0.496611
0.486086
0.467453
0.493313
0.497129
0.490567
0.496526
0.50737
0.505238
0.479419
0.504586
0.496303
0.496145
0.473922
0.505364
0.504223
0.505742
0.495176
0.483468
0.496753
0.489742
0.505969
0.505143
0.497695
0.491849
0.507302
0.504798
0.493002
0.495549
0.49593
0.503689
0.503738
0.500712
0.509665
0.496078
0.496908
0.507297
0.494315
0.469617
0.504036
0.501409
0.495723
0.507259
0.494383
0.494715
0.507788
0.490258
0.505794
0.501503
0.496584
0.497765
0.504994
0.504995
0.507563
0.492703
0.496737
0.500936
0.496629
0.491389
0.507217
0.493006
0.5044
0.501647
0.493978
0.500611
0.504534
0.494676
0.505443
0.496682
0.497061
0.474858
0.508693
0.50804
0.503837
0.500615
0.508703
0.500609
0.496242
0.505213
0.493347
0.495997
0.495158
0.492152
0.495818
0.502485
0.496497
0.447045
0.495621
0.446925
0.49589
0.491576
0.490074
0.497041
0.490972
0.503765
0.505374
0.505337
0.504426
0.503104
0.496844
0.482268
0.4801
0.510126
0.510231
0.493967
0.496069
0.494234
0.502647
0.489287
0.495893
0.507186
0.506978
0.494451
0.495466
0.503608
0.496754
0.458582
0.450346
0.497826
0.496379
0.496356
0.507035
0.491805
0.496036
0.493034
0.465647
0.466631
0.498662
0.491328
0.495705
0.503076
0.510116
0.510087
0.506301
0.506936
0.492416
0.493358
0.490341
0.490239
0.493076
0.472517
0.495763
0.507558
0.484614
0.493028
0.493475
0.496879
0.505889
0.492403
0.495354
0.504726
0.510599
0.510564
0.466105
0.491134
0.496372
0.492723
0.503608
0.509077
0.493252
0.459152
0.4969
0.487182
0.491832
0.505626
0.48968
0.501797
0.504785
0.491552
0.496746
0.505299
0.502846
0.505126
0.489235
0.49254
0.485747
0.490308
0.495305
0.495281
0.492153
0.492946
0.492683
0.508797
0.490866
0.495533
0.490514
0.509507
0.496436
0.496333
0.485374
0.495157
0.492472
0.495196
0.451957
0.496801
0.492795
0.491196
0.491532
0.494832
0.507923
0.496693
0.502158
0.503297
0.494127
0.493786
0.493451
0.490555
0.49571
0.492134
0.496538
0.492828
0.503923
0.493121
0.504833
0.507439
0.507127
0.505487
0.495678
0.489878
0.494474
0.50628
0.49185
0.491869
0.491259
0.488572
0.493161
0.492186
0.507669
0.490639
0.485895
0.492869
0.488913
0.507172
0.496739
0.509657
0.49657
0.493469
0.496777
0.473337
0.489991
0.464443
0.466574
0.500891
0.485853
0.490037
0.491893
0.507424
0.507908
0.497063
0.491579
0.495987
0.488366
0.489631
0.494997
0.494227
0.494217
0.493461
0.491904
0.490216
0.491313
0.510439
0.496375
0.510682
0.453789
0.506542
0.506152
0.507684
0.505911
0.510461
0.492322
0.510701
0.491234
0.480038
0.484202
0.489581
0.490877
0.491605
0.504466
0.476995
0.496772
0.494134
0.490234
0.476878
0.489312
0.470387
0.505774
0.495716
0.491
0.501158
0.496041
0.453844
0.500566
0.495456
0.484964
0.495736
0.490268
0.451891
0.503051
0.496554
0.466427
0.489216
0.492175
0.490112
0.492464
0.489818
0.495795
0.488147
0.450194
0.493733
0.505298
0.505854
0.5042
0.477654
0.488698
0.496297
0.489912
0.491279
0.490514
0.496874
0.489517
0.465107
0.487854
0.489154
0.455662
0.466907
0.489673
0.495125
0.509264
0.488987
0.486284
0.485359
0.505722
0.49021
0.502641
0.457984
0.50404
0.489021
0.492292
0.48764
0.494583
0.492206
0.45728
0.49656
0.503429
0.490549
0.504415
0.497327
0.507283
0.495617
0.489565
0.496072
0.497159
0.488741
0.459147
0.494992
0.506392
0.490924
0.505506
0.503736
0.505086
0.4882
0.508251
0.495754
0.457644
0.484457
0.4924
0.506057
0.489344
0.488853
0.496844
0.494935
0.45839
0.506191
0.508701
0.505863
0.488914
0.493141
0.493103
0.506278
0.489712
0.490613
0.508691
0.459113
0.44734
0.447078
0.488261
0.457078
0.504678
0.483299
0.477933
0.510136
0.487926
0.459229
0.491607
0.488419
0.487301
0.49542
0.4881
0.486248
0.457052
0.501665
0.450807
0.486465
0.507181
0.486815
0.491255
0.506024
0.493891
0.465563
0.503846
0.467398
0.45845
0.506416
0.457531
0.506959
0.456994
0.487823
0.503105
0.508487
0.503548
0.494419
0.45686
0.506435
0.483552
0.507315
0.490769
0.508154
0.501872
0.490995
0.504639
0.489865
0.495248
0.506734
0.509073
0.506465
0.459354
0.48605
0.487718
0.503356
0.490877
0.493839
0.457139
0.506605
0.452024
0.506424
0.50766
0.484595
0.459503
0.507473
0.487666
0.497589
0.489541
0.508139
0.507535
0.508378
0.498158
0.458718
0.508208
0.492669
0.508363
0.488179
0.50689
0.508051
0.472559
0.487036
0.465139
0.463396
0.458383
0.459068
0.487595
0.483232
0.506334
0.508165
0.45558
0.455643
0.458998
0.495987
0.453071
0.492622
0.490287
0.487716
0.493055
0.492501
0.459781
0.506407
0.50872
0.489161
0.508399
0.485007
0.491601
0.507505
0.485199
0.507458