# vtk DataFile Version 1.0
unstructured grid
ascii
DATASET UNSTRUCTURED_GRID
points 8094 float
-0.25 0.0574735 0
0.5 0.0546937 0
0.5 -0.0546937 0
-0.25 -0.0574735 0
-0.25 0.0574735 0.01
0.5 0.0546937 0.01
0.5 -0.0546937 0.01
-0.25 -0.0574735 0.01
-0.246045 0.0569295 0
-0.242089 0.0563854 0
-0.238136 0.0558289 0
-0.234184 0.0552582 0
-0.230232 0.0546875 0
-0.226284 0.0540912 0
-0.222337 0.0534933 0
-0.218391 0.0528841 0
-0.214448 0.0522585 0
-0.210504 0.0516328 0
-0.206565 0.0509829 0
-0.202626 0.0503294 0
-0.198689 0.0496667 0
-0.194755 0.0489856 0
-0.190821 0.0483046 0
-0.18689 0.0476022 0
-0.182961 0.0468942 0
-0.179033 0.0461799 0
-0.175108 0.0454463 0
-0.171183 0.0447127 0
-0.167262 0.0439627 0
-0.163342 0.0432056 0
-0.159422 0.0424455 0
-0.155506 0.041668 0
-0.15159 0.0408904 0
-0.147675 0.0401031 0
-0.143762 0.0393092 0
-0.13985 0.0385149 0
-0.135939 0.0377103 0
-0.132028 0.0369056 0
-0.128117 0.0361005 0
-0.124207 0.0352949 0
-0.120296 0.0344893 0
-0.116386 0.0336836 0
-0.112475 0.032878 0
-0.108563 0.0320794 0
-0.104649 0.0312931 0
-0.100735 0.0305068 0
-0.0968152 0.029745 0
-0.0928949 0.0289889 0
-0.0889722 0.0282446 0
-0.0850433 0.0275341 0
-0.0811144 0.0268235 0
-0.0771778 0.0261578 0
-0.0732381 0.0255098 0
-0.0692962 0.0248759 0
-0.0653442 0.0243073 0
-0.0613923 0.0237386 0
-0.0574324 0.0232306 0
-0.0534681 0.0227556 0
-0.0495024 0.0222934 0
-0.0455272 0.0219207 0
-0.041552 0.0215481 0
-0.0375717 0.0212385 0
-0.0335881 0.0209694 0
-0.029604 0.0207098 0
-0.0256151 0.0205369 0
-0.0216262 0.0203639 0
-0.0176357 0.0202396 0
-0.0136441 0.0201487 0
-0.00965243 0.0200635 0
-0.00565987 0.0200372 0
-0.00166732 0.020011 0
0.00232526 0.0200121 0
0.00631785 0.0200329 0
0.0103104 0.0200563 0
0.0143027 0.0201109 0
0.018295 0.0201654 0
0.022287 0.0202345 0
0.0262788 0.0203144 0
0.0302706 0.0203957 0
0.034262 0.0204956 0
0.0382534 0.0205955 0
0.0422446 0.0207045 0
0.0462355 0.0208207 0
0.0502265 0.0209377 0
0.054217 0.0210676 0
0.0582075 0.0211975 0
0.0621978 0.0213339 0
0.0661879 0.0214757 0
0.0701781 0.021618 0
0.0741678 0.0217703 0
0.0781575 0.0219227 0
0.0821471 0.0220801 0
0.0861364 0.022242 0
0.0901258 0.0224041 0
0.0941148 0.0225747 0
0.0981038 0.0227453 0
0.102093 0.0229202 0
0.106081 0.023099 0
0.11007 0.0232779 0
0.114058 0.0234644 0
0.118046 0.0236509 0
0.122035 0.0238411 0
0.126022 0.024035 0
0.13001 0.0242288 0
0.133998 0.0244298 0
0.137986 0.0246308 0
0.141973 0.0248352 0
0.14596 0.025043 0
0.149947 0.0252509 0
0.153934 0.0254654 0
0.157921 0.02568 0
0.161908 0.0258978 0
0.165894 0.026119 0
0.169881 0.0263402 0
0.173867 0.0265678 0
0.177853 0.0267956 0
0.181839 0.0270264 0
0.185825 0.0272607 0
0.189811 0.0274951 0
0.193796 0.0277356 0
0.197781 0.0279764 0
0.201767 0.02822 0
0.205752 0.0284673 0
0.209737 0.0287146 0
0.213721 0.0289679 0
0.217706 0.0292217 0
0.22169 0.0294782 0
0.225674 0.0297385 0
0.229658 0.0299988 0
0.233642 0.0302651 0
0.237626 0.0305319 0
0.241609 0.0308014 0
0.245593 0.0310748 0
0.249576 0.0313482 0
0.253559 0.0316276 0
0.257542 0.0319077 0
0.261524 0.0321904 0
0.265507 0.0324772 0
0.269489 0.032764 0
0.273471 0.0330568 0
0.277453 0.0333504 0
0.281434 0.0336466 0
0.285416 0.0339471 0
0.289397 0.0342476 0
0.293378 0.034554 0
0.297359 0.0348615 0
0.301339 0.0351714 0
0.305319 0.0354859 0
0.3093 0.0358005 0
0.313279 0.036121 0
0.317259 0.0364427 0
0.321239 0.0367667 0
0.325218 0.0370957 0
0.329197 0.0374248 0
0.333175 0.0377597 0
0.337154 0.0380961 0
0.341132 0.0384347 0
0.34511 0.0387786 0
0.349088 0.0391226 0
0.353065 0.0394724 0
0.357042 0.0398239 0
0.361019 0.0401775 0
0.364995 0.0405368 0
0.368972 0.0408961 0
0.372948 0.0412613 0
0.376924 0.0416285 0
0.380899 0.0419975 0
0.384874 0.0423727 0
0.388849 0.0427479 0
0.392823 0.0431289 0
0.396798 0.0435123 0
0.400772 0.0438973 0
0.404745 0.044289 0
0.408718 0.0446807 0
0.412691 0.0450781 0
0.416664 0.0454782 0
0.420636 0.0458797 0
0.424608 0.0462883 0
0.42858 0.046697 0
0.432551 0.0471114 0
0.436521 0.0475289 0
0.440492 0.0479474 0
0.444462 0.0483738 0
0.448432 0.0488001 0
0.452401 0.0492319 0
0.45637 0.0496673 0
0.460338 0.0501035 0
0.464306 0.0505482 0
0.468274 0.0509928 0
0.472241 0.0514427 0
0.476208 0.0518968 0
0.480175 0.0523512 0
0.48414 0.0528148 0
0.488106 0.0532784 0
0.492071 0.0537471 0
0.496036 0.0542204 0
0.5 0.050787 0
0.5 0.0468803 0
0.5 0.0429736 0
0.5 0.0390669 0
0.5 0.0351602 0
0.5 0.0312535 0
0.5 0.0273468 0
0.5 0.0234402 0
0.5 0.0195335 0
0.5 0.0156268 0
0.5 0.0117201 0
0.5 0.00781339 0
0.5 0.00390669 0
0.5 1.43781e-13 0
0.5 -0.00390669 0
0.5 -0.00781339 0
0.5 -0.0117201 0
0.5 -0.0156268 0
0.5 -0.0195335 0
0.5 -0.0234402 0
0.5 -0.0273468 0
0.5 -0.0312535 0
0.5 -0.0351602 0
0.5 -0.0390669 0
0.5 -0.0429736 0
0.5 -0.0468803 0
0.5 -0.050787 0
0.496036 -0.0542204 0
0.492071 -0.0537471 0
0.488106 -0.0532784 0
0.48414 -0.0528148 0
0.480175 -0.0523512 0
0.476208 -0.0518968 0
0.472241 -0.0514427 0
0.468274 -0.0509928 0
0.464306 -0.0505482 0
0.460338 -0.0501035 0
0.45637 -0.0496673 0
0.452401 -0.0492319 0
0.448432 -0.0488001 0
0.444462 -0.0483738 0
0.440492 -0.0479474 0
0.436521 -0.0475289 0
0.432551 -0.0471114 0
0.42858 -0.046697 0
0.424608 -0.0462883 0
0.420636 -0.0458797 0
0.416664 -0.0454782 0
0.412691 -0.0450781 0
0.408718 -0.0446807 0
0.404745 -0.044289 0
0.400772 -0.0438973 0
0.396798 -0.0435123 0
0.392823 -0.0431289 0
0.388849 -0.0427479 0
0.384874 -0.0423727 0
0.380899 -0.0419975 0
0.376924 -0.0416285 0
0.372948 -0.0412613 0
0.368972 -0.0408961 0
0.364995 -0.0405368 0
0.361019 -0.0401775 0
0.357042 -0.0398239 0
0.353065 -0.0394724 0
0.349088 -0.0391226 0
0.34511 -0.0387786 0
0.341132 -0.0384347 0
0.337154 -0.0380961 0
0.333175 -0.0377597 0
0.329197 -0.0374248 0
0.325218 -0.0370957 0
0.321239 -0.0367667 0
0.317259 -0.0364427 0
0.313279 -0.036121 0
0.3093 -0.0358005 0
0.305319 -0.0354859 0
0.301339 -0.0351714 0
0.297359 -0.0348615 0
0.293378 -0.034554 0
0.289397 -0.0342476 0
0.285416 -0.0339471 0
0.281434 -0.0336466 0
0.277453 -0.0333504 0
0.273471 -0.0330568 0
0.269489 -0.032764 0
0.265507 -0.0324772 0
0.261524 -0.0321904 0
0.257542 -0.0319077 0
0.253559 -0.0316276 0
0.249576 -0.0313482 0
0.245593 -0.0310748 0
0.241609 -0.0308014 0
0.237626 -0.0305319 0
0.233642 -0.0302651 0
0.229658 -0.0299988 0
0.225674 -0.0297385 0
0.22169 -0.0294782 0
0.217706 -0.0292217 0
0.213721 -0.0289679 0
0.209737 -0.0287146 0
0.205752 -0.0284673 0
0.201767 -0.02822 0
0.197781 -0.0279764 0
0.193796 -0.0277356 0
0.189811 -0.0274951 0
0.185825 -0.0272607 0
0.181839 -0.0270264 0
0.177853 -0.0267956 0
0.173867 -0.0265678 0
0.169881 -0.0263402 0
0.165894 -0.026119 0
0.161908 -0.0258978 0
0.157921 -0.02568 0
0.153934 -0.0254654 0
0.149947 -0.0252509 0
0.14596 -0.025043 0
0.141973 -0.0248352 0
0.137986 -0.0246308 0
0.133998 -0.0244298 0
0.13001 -0.0242288 0
0.126022 -0.024035 0
0.122035 -0.0238411 0
0.118046 -0.0236509 0
0.114058 -0.0234644 0
0.11007 -0.0232779 0
0.106081 -0.023099 0
0.102093 -0.0229202 0
0.0981038 -0.0227453 0
0.0941148 -0.0225747 0
0.0901258 -0.0224041 0
0.0861364 -0.022242 0
0.0821471 -0.0220801 0
0.0781575 -0.0219227 0
0.0741678 -0.0217703 0
0.0701781 -0.021618 0
0.0661879 -0.0214757 0
0.0621978 -0.0213339 0
0.0582075 -0.0211975 0
0.054217 -0.0210676 0
0.0502265 -0.0209377 0
0.0462355 -0.0208207 0
0.0422446 -0.0207045 0
0.0382534 -0.0205955 0
0.034262 -0.0204956 0
0.0302706 -0.0203957 0
0.0262788 -0.0203144 0
0.022287 -0.0202345 0
0.018295 -0.0201654 0
0.0143027 -0.0201109 0
0.0103104 -0.0200563 0
0.00631785 -0.0200329 0
0.00232526 -0.0200121 0
-0.00166732 -0.020011 0
-0.00565987 -0.0200372 0
-0.00965243 -0.0200635 0
-0.0136441 -0.0201487 0
-0.0176357 -0.0202396 0
-0.0216262 -0.0203639 0
-0.0256151 -0.0205369 0
-0.029604 -0.0207098 0
-0.0335881 -0.0209694 0
-0.0375717 -0.0212385 0
-0.041552 -0.0215481 0
-0.0455272 -0.0219207 0
-0.0495024 -0.0222934 0
-0.0534681 -0.0227556 0
-0.0574324 -0.0232306 0
-0.0613923 -0.0237386 0
-0.0653442 -0.0243073 0
-0.0692962 -0.0248759 0
-0.0732381 -0.0255098 0
-0.0771778 -0.0261578 0
-0.0811144 -0.0268235 0
-0.0850433 -0.0275341 0
-0.0889722 -0.0282446 0
-0.0928949 -0.0289889 0
-0.0968152 -0.029745 0
-0.100735 -0.0305068 0
-0.104649 -0.0312931 0
-0.108563 -0.0320794 0
-0.112475 -0.032878 0
-0.116386 -0.0336836 0
-0.120296 -0.0344893 0
-0.124207 -0.0352949 0
-0.128117 -0.0361005 0
-0.132028 -0.0369056 0
-0.135939 -0.0377103 0
-0.13985 -0.0385149 0
-0.143762 -0.0393092 0
-0.147675 -0.0401031 0
-0.15159 -0.0408904 0
-0.155506 -0.041668 0
-0.159422 -0.0424455 0
-0.163342 -0.0432056 0
-0.167262 -0.0439627 0
-0.171183 -0.0447127 0
-0.175108 -0.0454463 0
-0.179033 -0.0461799 0
-0.182961 -0.0468942 0
-0.18689 -0.0476022 0
-0.190821 -0.0483046 0
-0.194755 -0.0489856 0
-0.198689 -0.0496667 0
-0.202626 -0.0503294 0
-0.206565 -0.0509829 0
-0.210504 -0.0516328 0
-0.214448 -0.0522585 0
-0.218391 -0.0528841 0
-0.222337 -0.0534933 0
-0.226284 -0.0540912 0
-0.230232 -0.0546875 0
-0.234184 -0.0552582 0
-0.238136 -0.0558289 0
-0.242089 -0.0563854 0
-0.246045 -0.0569295 0
-0.25 -0.0535098 0
-0.25 -0.0495461 0
-0.25 -0.0455824 0
-0.25 -0.0416187 0
-0.25 -0.0376551 0
-0.25 -0.0336914 0
-0.25 -0.0297277 0
-0.25 -0.025764 0
-0.25 -0.0218003 0
-0.25 -0.0178366 0
-0.25 -0.0138729 0
-0.25 -0.00990922 0
-0.25 -0.00594553 0
-0.25 -0.00198184 0
-0.25 0.00198184 0
-0.25 0.00594553 0
-0.25 0.00990922 0
-0.25 0.0138729 0
-0.25 0.0178366 0
-0.25 0.0218003 0
-0.25 0.025764 0
-0.25 0.0297277 0
-0.25 0.0336914 0
-0.25 0.0376551 0
-0.25 0.0416187 0
-0.25 0.0455824 0
-0.25 0.0495461 0
-0.25 0.0535098 0
-0.246045 0.0569295 0.01
-0.242089 0.0563854 0.01
-0.238136 0.0558289 0.01
-0.234184 0.0552582 0.01
-0.230232 0.0546875 0.01
-0.226284 0.0540912 0.01
-0.222337 0.0534933 0.01
-0.218391 0.0528841 0.01
-0.214448 0.0522585 0.01
-0.210504 0.0516328 0.01
-0.206565 0.0509829 0.01
-0.202626 0.0503294 0.01
-0.198689 0.0496667 0.01
-0.194755 0.0489856 0.01
-0.190821 0.0483046 0.01
-0.18689 0.0476022 0.01
-0.182961 0.0468942 0.01
-0.179033 0.0461799 0.01
-0.175108 0.0454463 0.01
-0.171183 0.0447127 0.01
-0.167262 0.0439627 0.01
[...]
CELL_DATA 7657
SCALARS rho float
LOOKUP_TABLE default
0.472001
0.434138
0.506473
0.499516
0.494616
0.502915
0.462129
0.501297
0.444752
0.500789
0.500847
0.501534
0.45
0.50141
0.493377
0.485358
0.493201
0.50625
0.506213
0.500005
0.49212
0.506112
0.438388
0.506232
0.504786
0.50258
0.497365
0.448201
0.497797
0.503163
0.470639
0.504774
0.439899
0.469881
0.470389
0.470657
0.503096
0.438557
0.475255
0.484932
0.506445
0.445619
0.501119
0.502327
0.506466
0.506437
0.463529
0.502886
0.50477
0.471572
0.502153
0.499599
0.49786
0.498546
0.463
0.503468
0.492548
0.489629
0.448273
0.471484
0.504704
0.506449
0.504461
0.504396
0.501413
0.501421
0.450828
0.503939
0.499898
0.444805
0.506556
0.449502
0.500637
0.497923
0.468591
0.502706
0.506129
0.502618
0.468007
0.450383
0.439633
0.501065
0.500061
0.506506
0.506517
0.452574
0.506522
0.443952
0.502496
0.497069
0.501385
0.501418
0.449723
0.499316
0.483837
0.454972
0.453816
0.43714
0.506422
0.48355
0.506249
0.505414
0.435452
0.491415
0.462709
0.442885
0.478654
0.504137
0.449892
0.491279
0.471572
0.5041
0.501691
0.500046
0.506483
0.435591
0.504318
0.485725
0.484636
0.502996
0.502086
0.502075
0.47883
0.432421
0.500427
0.50142
0.501657
0.501104
0.503742
0.501216
0.499197
0.505902
0.503531
0.500609
0.500066
0.477022
0.48583
0.439644
0.505827
0.505776
0.478048
0.495223
0.486636
0.485247
0.50633
0.491935
0.440804
0.432968
0.506423
0.47774
0.491116
0.499989
0.422424
0.501226
0.49213
0.433982
0.503953
0.506032
0.500054
0.476051
0.505995
0.489279
0.502659
0.434601
0.506222
0.434911
0.475259
0.501675
0.506465
0.48499
0.506472
0.44204
0.505952
0.490665
0.46739
0.469625
0.50029
0.454799
0.500484
0.487436
0.485015
0.448881
0.5056
0.505517
0.451349
0.446744
0.447218
0.500391
0.502062
0.455
0.497765
0.499626
0.500068
0.459259
0.502119
0.503688
0.49995
0.488793
0.468301
0.506469
0.506278
0.505471
0.45633
0.441985
0.496664
0.498783
0.449024
0.464896
0.467408
0.458732
0.50574
0.506397
0.506217
0.500086
0.506469
0.500457
0.465756
0.451383
0.50405
0.506549
0.433977
0.431309
0.500366
0.504018
0.448608
0.438009
0.447732
0.495099
0.502695
0.500409
0.506112
0.506062
0.448425
0.491886
0.483302
0.500007
0.443559
0.505334
0.505261
0.488399
0.505684
0.489764
0.456224
0.439558
0.466683
0.46168
0.446604
0.460807
0.446076
0.502524
0.469597
0.500106
0.504236
0.468532
0.466656
0.500396
0.433681
0.494476
0.498422
0.50401
0.43589
0.498673
0.484108
0.506502
0.464817
0.506516
0.440208
0.490491
0.506273
0.488282
0.451802
0.496709
0.495321
0.499984
0.466048
0.506449
0.501504
0.504106
0.504028
0.501891
0.436899
0.503599
0.492458
0.480557
0.500153
0.470561
0.480683
0.499078
0.421247
0.506413
0.506422
0.50054
0.493058
0.498714
0.504145
0.497657
0.475714
0.500993
0.435314
0.506423
0.453857
0.498062
0.489053
0.44783
0.496883
0.451147
0.463881
0.500651
0.506316
0.504137
0.501819
0.438685
0.487939
0.446856
0.50484
0.487683
0.498549
0.494513
0.504071
0.503521
0.501436
0.439209
0.498507
0.445228
0.485181
0.4958
0.447382
0.423266
0.490171
0.506447
0.442815
0.496185
0.483874
0.42922
0.501172
0.420845
0.504117
0.494448
0.504905
0.497862
0.502234
0.467573
0.430837
0.483974
0.499907
0.466442
0.497755
0.431984
0.506536
0.490277
0.503074
0.506056
0.500054
0.506014
0.462782
0.50498
0.505857
0.46398
0.504921
0.465756
0.504729
0.506142
0.506508
0.436877
0.492791
0.468556
0.502308
0.484133
0.449872
0.452705
0.503263
0.428544
0.500112
0.50032
0.447949
0.448888
0.505941
0.421268
0.506379
0.482797
0.506324
0.506289
0.496398
0.504381
0.498176
0.499734
0.471336
0.501607
0.502403
0.489584
0.504735
0.504216
0.504168
0.500238
0.50278
0.445462
0.465532
0.442095
0.489355
0.503076
0.500045
0.500061
0.506362
0.499436
0.484083
0.428447
0.486204
0.45242
0.489986
0.493344
0.505906
0.503317
0.504343
0.499414
0.456466
0.500342
0.506362
0.501035
0.499464
0.43711
0.438353
0.501116
0.4596
0.425395
0.432863
0.506527
0.453941
0.500614
0.500994
0.505334
0.433603
0.465193
0.42738
0.499964
0.503444
0.482482
0.497904
0.505806
0.484078
0.506254
0.503005
0.480505
0.472667
0.498019
0.501889
0.506344
0.50567
0.460358
0.493176
0.434451
0.504817
0.504985
0.504881
0.462433
0.448392
0.454936
0.46123
0.486243
0.484345
0.456935
0.470531
0.50383
0.506452
0.453339
0.423279
0.500371
0.443715
0.441709
0.46192
0.463651
0.498007
0.504944
0.426652
0.472785
0.491552
0.505528
0.503402
0.502886
0.479586
0.49778
0.437528
0.49784
0.506005
0.505898
0.506397
0.503992
0.491164
0.473596
0.5
0.504198
0.488792
0.504613
0.501486
0.458512
0.50173
0.456021
0.499576
0.502477
0.470536
0.472106
0.500924
0.501025
0.431842
0.500695
0.443837
0.446926
0.427036
0.500764
0.436647
0.482413
0.491826
0.503618
0.505588
0.488603
0.506197
0.500623
0.479312
0.506073
0.47681
0.436285
0.485981
0.50016
0.501078
0.498885
0.501978
0.500809
0.49916
0.506515
0.499448
0.504482
0.504509
0.483073
0.501138
0.426582
0.506386
0.505519
0.506352
0.501154
0.469075
0.506398
0.506346
0.505514
0.431162
0.501656
0.503339
0.500277
0.505646
0.500874
0.503297
0.505696
0.483447
0.499379
0.425608
0.502753
0.47745
0.481903
0.483338
0.502016
0.441435
0.470228
0.483021
0.502194
0.500486
0.453019
0.505769
0.480178
0.499655
0.500265
0.469343
0.466755
0.45484
0.502424
0.506013
0.435327
0.450654
0.458851
0.501235
0.499899
0.501782
0.501518
0.447594
0.419959
0.451921
0.503925
0.50572
0.424639
0.504134
0.43534
0.499636
0.453688
0.502186
0.501391
0.461299
0.431043
0.449057
0.503934
0.468773
0.447691
0.506379
0.5015
0.457452
0.49116
0.504041
0.502248
0.501191
0.501281
0.502654
0.459883
0.504199
0.491936
0.50256
0.50161
0.501641
0.480378
0.506435
0.483317
0.499904
0.430383
0.42869
0.501269
0.473499
0.497985
0.498448
0.500505
0.501066
0.504225
0.435491
0.434613
0.436788
0.445606
0.506189
0.503897
0.498113
0.504167
0.501218
0.500727
0.427593
0.504549
0.497234
0.506276
0.497066
0.505514
0.505073
0.454339
0.498713
0.500347
0.504716
0.504072
0.420364
0.501419
0.480639
0.504006
0.506437
0.500577
0.500002
0.501985
0.496036
0.505578
0.504433
0.504522
0.479937
0.503901
0.484286
0.430409
0.504468
0.505938
0.429011
0.50132
0.503839
0.421019
0.500456
0.452065
0.423703
0.484325
0.499871
0.422409
0.423412
0.42114
0.499944
0.503741
0.5064
0.504356
0.420443
0.501687
0.501123
0.503671
0.504582
0.499307
0.444684
0.474458
0.463152
0.501334
0.50189
0.504277
0.505687
0.501911
0.500189
0.447754
0.493849
0.493213
0.460035
0.505788
0.448439
0.442078
0.461665
0.501531
0.503569
0.446894
0.503497
0.500673
0.500592
0.499969
0.501402
0.49767
0.506089
0.455347
0.483905
0.498898
0.457562
0.425448
0.501439
0.421137
0.500709
0.500706
0.496326
0.50421
0.50287
0.497539
0.471601
0.448976
0.504659
0.495283
0.501356
0.420987
0.501983
0.432208
0.441143
0.424746
0.500633
0.504537
0.504312
0.42576
0.495049
0.447696
0.467828
0.500748
0.440742
0.443598
0.48218
0.502827
0.498909
0.455911
0.504216
0.478865
0.499448
0.493169
0.496028
0.486433
0.496747
0.498208
0.429392
0.496328
0.500302
0.50467
0.504458
0.50106
0.504175
0.442992
0.504466
0.501707
0.506038
0.506088
0.482198
0.444267
0.495953
0.501877
0.481664
0.493158
0.495651
0.50588
0.501461
0.504506
0.488816
0.500761
0.461729
0.500039
0.495586
0.500838
0.450619
0.505584
0.429795
0.462813
0.502051
0.504122
0.506459
0.483236
0.500874
0.445993
0.420179
0.422933
0.494358
0.479397
0.455225
0.501957
0.420592
0.44897
0.448988
0.501977
0.494733
0.501224
0.458869
0.448846
0.454432
0.501819
0.460972
0.493905
0.500057
0.501664
0.500788
0.490735
0.500055
0.437708
0.500158
0.500399
0.462596
0.454858
0.502033
0.488062
0.433146
0.456768
0.500571
0.502262
0.487275
0.502692
0.500476
0.467868
0.481063
0.500049
0.493007
0.504584
0.500379
0.503178
0.504742
0.499407
0.497413
0.492633
0.506513
0.444547
0.454825
0.501198
0.493345
0.497905
0.480648
0.444087
0.488735
0.503879
0.433149
0.497023
0.433278
0.490156
0.493006
0.500408
0.489739
0.493381
0.501296
0.504017
0.500526
0.481266
0.492086
0.460796
0.444132
0.497619
0.455163
0.502441
0.492543
0.489515
0.480557
0.494676
0.492974
0.501091
0.494101
0.501906
0.441551
0.50215
0.445198
0.446014
0.444373
0.501236
0.501376
0.494159
0.45022
0.503955
0.501887
0.492919
0.493562
0.492464
0.493503
0.503237
0.491633
0.457442
0.491183
0.492015
0.485634
0.50055
0.48614
0.49215
0.503789
0.493291
0.457463
0.466092
0.502116
0.488804
0.480355
0.439237
0.439285
0.496233
0.501756
0.491568
0.501846
0.439281
0.453825
0.50022
0.502043
0.496645
0.502395
0.442685
0.484246
0.491125
0.439378
0.43939
0.451581
0.484456
0.502079
0.502278
0.493818
0.447398
0.447407
0.500725
0.501687
0.501916
0.455965
0.486502
0.497192
0.499954
0.50098
0.50597
0.485785
0.488057
0.500326
0.502014
0.506472
0.492719
0.45268
0.451401
0.449701
0.502295
0.479673
0.420642
0.501594
0.47491
0.504592
0.488847
0.502101
0.501139
0.50393
0.502281
0.500452
0.490206
0.459412
0.50238
0.504185
0.4711
0.473569
0.504177
0.500145
0.463405
0.49568
0.503946
0.501101
0.502429
0.476142
0.500298
0.490416
0.502237
0.502159
0.50411
0.504045
0.500361
0.502979
0.505362
0.495069
0.485721
0.490475
0.471013
0.500179
0.453325
0.496759
0.497639
0.42229
0.420827
0.500239
0.501873
0.499947
0.425384
0.489408
0.502531
0.504358
0.500261
0.487427
0.500249
0.493562
0.502616
0.504383
0.454357
0.496941
0.501683
0.501867
0.452762
0.454147
0.442252
0.502114
0.48838
0.50012
0.506431
0.506612
0.477048
0.491367
0.506304
0.502602
0.489136
0.467016
0.503618
0.463523
0.478771
0.500664
0.497228
0.503696
0.496565
0.506614
0.506596
0.506363
0.496133
0.506332
0.499954
0.502352
0.506312
0.455819
0.506406
0.471192
0.431234
0.496522
0.494705
0.502335
0.493107
0.497151
0.500817
0.48947
0.492899
0.488333
0.500997
0.464375
0.496238
0.506144
0.496229
0.449549
0.501479
0.50371
0.472706
0.501228
0.501759
0.505277
0.500252
0.505509
0.500234
0.502227
0.492607
0.501309
0.502208
0.504454
0.49718
0.50371
0.471106
0.502562
0.504529
0.473391
0.502975
0.458467
0.4964
0.494489
0.462133
0.464408
0.502216
0.502652
0.500279
0.464672
0.484943
0.465491
0.500147
0.502462
0.427757
0.429884
0.489394
0.487863
0.501946
0.503067
0.473895
0.490131
0.501213
0.482603
0.496655
0.502717
0.501444
0.494648
0.5023
0.503684
0.495498
0.500787
0.503442
0.505734
0.500051
0.490828
0.500932
0.496695
0.468388
0.502531
0.46929
0.500137
0.484984
0.500366
0.496319
0.487283
0.496691
0.506437
0.50644
0.487336
0.491121
0.503074
0.437621
0.501408
0.486803
0.501349
0.479048
0.48401
0.500388
0.502428
0.488119
0.478067
0.502399
0.468927
0.50221
0.484117
0.450382
0.451615
0.502363
0.502146
0.503536
0.477797
0.496905
0.503686
0.497478
0.500395
0.468107
0.501954
0.500727
0.501788
0.483224
0.500369
0.494314
0.501516
0.501817
0.462193
0.500269
0.477163
0.466945
0.440738
0.440748
0.500526
0.494556
0.473879
0.501794
0.496376
0.500321
0.500174
0.505641
0.506164
0.497482
0.456461
0.499938
0.465349
0.500688
0.47585
0.502055
0.466527
0.504574
0.500468
0.503762
0.501421
0.501083
0.505274
0.505254
0.455857
0.497109
0.495862
0.497493
0.502129
0.500339
0.490291
0.500164
0.48675
0.506118
0.459132
0.472262
0.490439
0.502781
0.490743
0.500995
0.500905
0.49533
0.496567
0.489193
0.446997
0.500825
0.470514
0.486542
0.503438
0.490048
0.466232
0.503835
0.456674
0.48261
0.470315
0.503925
0.472058
0.46848
0.503764
0.5053
0.505319
0.497035
0.503934
0.50028
0.500414
0.483462
0.505442
0.501813
0.445986
0.469994
0.501314
0.5041
0.501499
0.500446
0.500801
0.500262
0.504269
0.496965
0.504237
0.505709
0.506256
0.502892
0.503137
0.503691
0.470605
0.501525
0.506354
0.506368
0.486998
0.500938
0.502792
0.498713
0.501147
0.505728
0.501786
0.503041
0.486264
0.500856
0.502848
0.500961
0.487811
0.506301
0.470323
0.474988
0.506367
0.506359
0.500343
0.500552
0.503903
0.500228
0.500855
0.496629
0.505161
0.505199
0.452082
0.500325
0.503781
0.500684
0.503076
0.500175
0.500884
0.503434
0.502972
0.500533
0.463216
0.464435
0.503557
0.500759
0.50177
0.500431
0.501678
0.501507
0.501512
0.505452
0.501824
0.500969
0.500581
0.500098
0.505331
0.498486
0.505307
0.505554
0.500417
0.454004
0.501486
0.503752
0.500649
0.505632
0.505628
0.502747
0.489948
0.50121
0.472537
0.496002
0.500209
0.48823
0.506447
0.497261
0.489267
0.506139
0.471449
0.45238
0.451042
0.506549
0.50288
0.501035
0.505037
0.505662
0.506455
0.500295
0.505022
0.50656
0.506362
0.506147
0.500591
0.505534
0.501196
0.493163
0.506313
0.49152
0.489675
0.503075
0.501618
0.505938
0.501732
0.500618
0.501554
0.495714
0.506378
0.500777
0.500799
0.501073
0.500535
0.50075
0.501422
0.459109
0.505327
0.505346
0.500968
0.501758
0.500801
0.489958
0.464376
0.501649
0.504264
0.500458
0.503966
0.500256
0.490013
0.502522
0.481468
0.483497
0.501058
0.456491
0.501193
0.501088
0.506482
0.479943
0.478976
0.501068
0.501125
0.504582
0.501937
0.497323
0.497437
0.500859
0.500907
0.50034
0.503099
0.427118
0.503605
0.471961
0.501724
0.50179
0.471887
0.488795
0.495243
0.502877
0.50059
0.50064
0.500774
0.500688
0.498683
0.502967
0.50278
0.502589
0.500946
0.503151
0.500864
0.501631
0.505635
0.490686
0.455357
0.496929
0.50137
0.501674
0.500612
0.501928
0.506205
0.50215
0.502813
0.505657
0.501377
0.50214
0.502855
0.498139
0.50233
0.422996
0.487491
0.420068
0.420896
0.497111
0.502115
0.500355
0.489696
0.48586
0.501036
0.485722
0.502121
0.496733
0.50243
0.502032
0.468462
0.497113
0.485179
0.486956
0.504845
0.504788
0.502984
0.467411
0.498157
0.501563
0.499323
0.442026
0.501305
0.502197
0.494923
0.503776
0.486214
0.506014
0.494025
0.499221
0.492051
0.499883
0.499856
0.499186
0.4925
0.503675
0.498815
0.501837
0.497053
0.492564
0.501481
0.500331
0.467523
0.49709
0.469593
0.498589
0.502626
0.502544
0.467661
0.497572
0.497304
0.502249
0.463778
0.491475
0.499207
0.484349
0.498564
0.500841
0.456746
0.502733
0.500433
0.499439
0.49941
0.489623
0.501485
0.489548
0.501335
0.498066
0.50433
0.504317
0.503088
0.497269
0.501184
0.497517
0.49799
0.501059
0.493076
0.500205
0.500259
0.483301
0.474226
0.476156
0.503337
0.502473
0.489203
0.464032
0.502355
0.502631
0.502283
0.503332
0.502312
0.499056
0.505428
0.498333
0.489511
0.4579
0.503062
0.500689
0.500738
0.488776
0.504609
0.492569
0.501997
0.502322
0.502819
0.505246
0.505226
0.501984
0.502111
0.500963
0.496599
0.501539
0.502342
0.503173
0.502178
0.501614
0.501611
0.500919
0.501515
0.502877
0.500759
0.502233
0.49502
0.500897
0.502916
0.496354
0.502022
0.501952
0.501962
0.503993
0.501379
0.503224
0.505036
0.5051
0.503852
0.505698
0.505696
0.472944
0.503708
0.497613
0.503168
0.503244
0.502209
0.474315
0.503332
0.506308
0.506295
0.506371
0.506368
0.505051
0.501837
0.506469
0.505489
0.505544
0.496434
0.503403
0.506097
0.48219
0.502688
0.505924
0.505889
0.505016
0.502879
0.504958
0.506536
0.506489
0.502138
0.503343
0.5057
0.500255
0.504959
0.486655
0.501851
0.4413
0.497758
0.502496
0.42077
0.50329
0.498312
0.498281
0.498476
0.500482
0.494736
0.491123
0.50626
0.498423
0.4365
0.485678
0.492262
0.49858
0.5025
0.501241
0.50102
0.43938
0.5004
0.500341
0.496937
0.482378
0.483429
0.503168
0.500669
0.506447
0.484788
0.503699
0.502918
0.488597
0.489358
0.500419
0.495657
0.49617
0.500621
0.488009
0.469081
0.46721
0.492551
0.506548
0.503179
0.45923
0.49198
0.49758
0.498224
0.500889
0.496367
0.498015
0.483948
0.502253
0.485012
0.50447
0.495965
0.453768
0.47739
0.496685
0.502952
0.497879
0.474883
0.502643
0.484292
0.50571
0.503358
0.497888
0.485078
0.485873
0.501112
0.506138
0.488172
0.495801
0.484393
0.502574
0.490803
0.503495
0.491803
0.500757
0.498165
0.495331
0.494748
0.502443
0.505939
0.502039
0.495893
0.502978
0.497753
0.502367
0.47665
0.491887
0.501577
0.484743
0.505394
0.505402
0.494146
0.492166
0.496141
0.495251
0.48352
0.496861
0.497366
0.467153
0.501434
0.504738
0.496362
0.497438
0.501284
0.503317
0.50235
0.505882
0.502447
0.490349
0.504668
0.504713
0.497805
0.498117
0.458357
0.498439
0.49383
0.500457
0.503262
0.503857
0.492833
0.494389
0.50048
0.495594
0.497107
0.483979
0.462621
0.492715
0.497696
0.489209
0.496694
0.503604
0.50327
0.476504
0.502857
0.496626
0.496473
0.470185
0.503348
0.502613
0.503579
0.495055
0.480965
0.497305
0.49677
0.502484
0.503178
0.497981
0.490876
0.503526
0.502976
0.492271
0.495583
0.496113
0.501149
0.501193
0.500379
0.505977
0.496218
0.499004
0.504531
0.493972
0.465162
0.502502
0.500303
0.495841
0.504508
0.498286
0.494459
0.504836
0.488881
0.503611
0.500889
0.497073
0.498327
0.503088
0.503089
0.504691
0.491945
0.497327
0.500511
0.49688
0.490205
0.503464
0.492328
0.502728
0.501004
0.493522
0.500021
0.502764
0.494436
0.503361
0.497135
0.497585
0.471305
0.505401
0.504989
0.502371
0.500311
0.50537
0.500313
0.496587
0.503257
0.492759
0.496258
0.494903
0.491259
0.495911
0.501541
0.496925
0.450076
0.495495
0.452912
0.496103
0.49055
0.488729
0.497329
0.489814
0.502351
0.502102
0.502061
0.502757
0.501938
0.49736
0.493697
0.492642
0.506288
0.506348
0.493518
0.496359
0.493842
0.501644
0.487783
0.496097
0.50446
0.503287
0.494138
0.49528
0.50225
0.497372
0.476855
0.465345
0.498427
0.496304
0.496279
0.503307
0.490749
0.496187
0.492364
0.460333
0.461575
0.49912
0.490248
0.495853
0.500978
0.50598
0.505949
0.503922
0.503238
0.491587
0.492666
0.48905
0.488803
0.492354
0.468665
0.495939
0.50467
0.494786
0.492274
0.492915
0.497397
0.503669
0.491466
0.495314
0.502943
0.506538
0.506492
0.460782
0.49001
0.496785
0.491974
0.502233
0.505604
0.492513
0.421037
0.497054
0.485303
0.490731
0.503509
0.488257
0.501076
0.502994
0.49046
0.497192
0.503248
0.501779
0.503136
0.487441
0.491672
0.483525
0.488893
0.494985
0.494956
0.491198
0.492243
0.491879
0.505429
0.489679
0.495576
0.489256
0.505877
0.496848
0.49634
0.483217
0.494926
0.491659
0.495033
0.441147
0.497228
0.492062
0.489964
0.490411
0.494588
0.504918
0.496752
0.501279
0.502064
0.49372
0.493298
0.492881
0.489138
0.495838
0.491165
0.496915
0.491988
0.502457
0.49247
0.503003
0.504616
0.504426
0.503423
0.495706
0.488277
0.494149
0.503866
0.490887
0.490844
0.490163
0.486937
0.492402
0.491172
0.504761
0.489411
0.483809
0.492078
0.48734
0.504452
0.497339
0.50597
0.49707
0.492874
0.496977
0.469607
0.48863
0.482448
0.484184
0.5005
0.483765
0.488536
0.490873
0.504608
0.504909
0.497661
0.490391
0.496037
0.486604
0.488049
0.494817
0.493651
0.493639
0.492876
0.490941
0.4887
0.49014
0.506494
0.496501
0.506541
0.470875
0.504027
0.503788
0.504769
0.503683
0.50651
0.491381
0.506557
0.48996
0.477192
0.481515
0.488057
0.489547
0.490422
0.502727
0.473739
0.497394
0.493641
0.488913
0.473651
0.487819
0.466098
0.503599
0.495873
0.48985
0.50068
0.496311
0.436611
0.500257
0.495388
0.48274
0.495821
0.488901
0.440333
0.501912
0.497043
0.461325
0.487613
0.491291
0.488536
0.491593
0.488418
0.495981
0.486411
0.465182
0.493204
0.503276
0.503592
0.502605
0.474487
0.487087
0.49665
0.488454
0.490128
0.489071
0.49709
0.487819
0.459489
0.486097
0.487526
0.47356
0.461831
0.487968
0.49491
0.505763
0.487432
0.484107
0.483049
0.503512
0.488681
0.501624
0.431829
0.502484
0.487474
0.491409
0.48568
0.494187
0.491251
0.435138
0.496995
0.502102
0.489113
0.502765
0.497671
0.504509
0.495631
0.488015
0.496109
0.497688
0.487137
0.428152
0.494678
0.503972
0.489695
0.503436
0.502337
0.503178
0.486458
0.505127
0.49574
0.433226
0.482163
0.491495
0.503771
0.487674
0.48714
0.497296
0.494635
0.42088
0.503855
0.505408
0.503599
0.487163
0.492306
0.49226
0.503892
0.488297
0.489314
0.505359
0.425651
0.4496
0.45376
0.486573
0.43796
0.502921
0.494154
0.491532
0.506295
0.486085
0.42692
0.49052
0.486626
0.485254
0.495376
0.48622
0.484106
0.439863
0.501014
0.466271
0.484373
0.504447
0.484686
0.490093
0.503752
0.49333
0.460211
0.502413
0.462524
0.429967
0.503979
0.44503
0.503263
0.441824
0.486056
0.501918
0.505271
0.502215
0.493988
0.439925
0.50397
0.494333
0.504537
0.489414
0.505063
0.501149
0.489637
0.502877
0.488473
0.495227
0.504187
0.505601
0.504022
0.420984
0.483894
0.485845
0.502089
0.489639
0.493387
0.443209
0.504107
0.440915
0.503958
0.504753
0.482299
0.426931
0.504621
0.48586
0.49799
0.48795
0.505054
0.504676
0.505204
0.498582
0.429941
0.505103
0.491895
0.505195
0.486475
0.504282
0.504995
0.46866
0.485138
0.483094
0.48154
0.447645
0.449326
0.485669
0.480691
0.503941
0.505064
0.424457
0.424782
0.449396
0.49594
0.469858
0.491711
0.488973
0.485908
0.492252
0.491697
0.451035
0.503975
0.505412
0.487386
0.50521
0.482781
0.490583
0.504661
0.482935
0.504631
0.50406
0.481092
0.436573