# vtk DataFile Version 1.0
unstructured grid
ascii
DATASET UNSTRUCTURED_GRID
points 8094 float
-0.25 0.0574735 0
0.5 0.0546937 0
0.5 -0.0546937 0
-0.25 -0.0574735 0
-0.25 0.0574735 0.01
0.5 0.0546937 0.01
0.5 -0.0546937 0.01
-0.25 -0.0574735 0.01
-0.246045 0.0569295 0
-0.242089 0.0563854 0
-0.238136 0.0558289 0
-0.234184 0.0552582 0
-0.230232 0.0546875 0
-0.226284 0.0540912 0
-0.222337 0.0534933 0
-0.218391 0.0528841 0
-0.214448 0.0522585 0
-0.210504 0.0516328 0
-0.206565 0.0509829 0
-0.202626 0.0503294 0
-0.198689 0.0496667 0
-0.194755 0.0489856 0
-0.190821 0.0483046 0
-0.18689 0.0476022 0
-0.182961 0.0468942 0
-0.179033 0.0461799 0
-0.175108 0.0454463 0
-0.171183 0.0447127 0
-0.167262 0.0439627 0
-0.163342 0.0432056 0
-0.159422 0.0424455 0
-0.155506 0.041668 0
-0.15159 0.0408904 0
-0.147675 0.0401031 0
-0.143762 0.0393092 0
-0.13985 0.0385149 0
-0.135939 0.0377103 0
-0.132028 0.0369056 0
-0.128117 0.0361005 0
-0.124207 0.0352949 0
-0.120296 0.0344893 0
-0.116386 0.0336836 0
-0.112475 0.032878 0
-0.108563 0.0320794 0
-0.104649 0.0312931 0
-0.100735 0.0305068 0
-0.0968152 0.029745 0
-0.0928949 0.0289889 0
-0.0889722 0.0282446 0
-0.0850433 0.0275341 0
-0.0811144 0.0268235 0
-0.0771778 0.0261578 0
-0.0732381 0.0255098 0
-0.0692962 0.0248759 0
-0.0653442 0.0243073 0
-0.0613923 0.0237386 0
-0.0574324 0.0232306 0
-0.0534681 0.0227556 0
-0.0495024 0.0222934 0
-0.0455272 0.0219207 0
-0.041552 0.0215481 0
-0.0375717 0.0212385 0
-0.0335881 0.0209694 0
-0.029604 0.0207098 0
-0.0256151 0.0205369 0
-0.0216262 0.0203639 0
-0.0176357 0.0202396 0
-0.0136441 0.0201487 0
-0.00965243 0.0200635 0
-0.00565987 0.0200372 0
-0.00166732 0.020011 0
0.00232526 0.0200121 0
0.00631785 0.0200329 0
0.0103104 0.0200563 0
0.0143027 0.0201109 0
0.018295 0.0201654 0
0.022287 0.0202345 0
0.0262788 0.0203144 0
0.0302706 0.0203957 0
0.034262 0.0204956 0
0.0382534 0.0205955 0
0.0422446 0.0207045 0
0.0462355 0.0208207 0
0.0502265 0.0209377 0
0.054217 0.0210676 0
0.0582075 0.0211975 0
0.0621978 0.0213339 0
0.0661879 0.0214757 0
0.0701781 0.021618 0
0.0741678 0.0217703 0
0.0781575 0.0219227 0
0.0821471 0.0220801 0
0.0861364 0.022242 0
0.0901258 0.0224041 0
0.0941148 0.0225747 0
0.0981038 0.0227453 0
0.102093 0.0229202 0
0.106081 0.023099 0
0.11007 0.0232779 0
0.114058 0.0234644 0
0.118046 0.0236509 0
0.122035 0.0238411 0
0.126022 0.024035 0
0.13001 0.0242288 0
0.133998 0.0244298 0
0.137986 0.0246308 0
0.141973 0.0248352 0
0.14596 0.025043 0
0.149947 0.0252509 0
0.153934 0.0254654 0
0.157921 0.02568 0
0.161908 0.0258978 0
0.165894 0.026119 0
0.169881 0.0263402 0
0.173867 0.0265678 0
0.177853 0.0267956 0
0.181839 0.0270264 0
0.185825 0.0272607 0
0.189811 0.0274951 0
0.193796 0.0277356 0
0.197781 0.0279764 0
0.201767 0.02822 0
0.205752 0.0284673 0
0.209737 0.0287146 0
0.213721 0.0289679 0
0.217706 0.0292217 0
0.22169 0.0294782 0
0.225674 0.0297385 0
0.229658 0.0299988 0
0.233642 0.0302651 0
0.237626 0.0305319 0
0.241609 0.0308014 0
0.245593 0.0310748 0
0.249576 0.0313482 0
0.253559 0.0316276 0
0.257542 0.0319077 0
0.261524 0.0321904 0
0.265507 0.0324772 0
0.269489 0.032764 0
0.273471 0.0330568 0
0.277453 0.0333504 0
0.281434 0.0336466 0
0.285416 0.0339471 0
0.289397 0.0342476 0
0.293378 0.034554 0
0.297359 0.0348615 0
0.301339 0.0351714 0
0.305319 0.0354859 0
0.3093 0.0358005 0
0.313279 0.036121 0
0.317259 0.0364427 0
0.321239 0.0367667 0
0.325218 0.0370957 0
0.329197 0.0374248 0
0.333175 0.0377597 0
0.337154 0.0380961 0
0.341132 0.0384347 0
0.34511 0.0387786 0
0.349088 0.0391226 0
0.353065 0.0394724 0
0.357042 0.0398239 0
0.361019 0.0401775 0
0.364995 0.0405368 0
0.368972 0.0408961 0
0.372948 0.0412613 0
0.376924 0.0416285 0
0.380899 0.0419975 0
0.384874 0.0423727 0
0.388849 0.0427479 0
0.392823 0.0431289 0
0.396798 0.0435123 0
0.400772 0.0438973 0
0.404745 0.044289 0
0.408718 0.0446807 0
0.412691 0.0450781 0
0.416664 0.0454782 0
0.420636 0.0458797 0
0.424608 0.0462883 0
0.42858 0.046697 0
0.432551 0.0471114 0
0.436521 0.0475289 0
0.440492 0.0479474 0
0.444462 0.0483738 0
0.448432 0.0488001 0
0.452401 0.0492319 0
0.45637 0.0496673 0
0.460338 0.0501035 0
0.464306 0.0505482 0
0.468274 0.0509928 0
0.472241 0.0514427 0
0.476208 0.0518968 0
0.480175 0.0523512 0
0.48414 0.0528148 0
0.488106 0.0532784 0
0.492071 0.0537471 0
0.496036 0.0542204 0
0.5 0.050787 0
0.5 0.0468803 0
0.5 0.0429736 0
0.5 0.0390669 0
0.5 0.0351602 0
0.5 0.0312535 0
0.5 0.0273468 0
0.5 0.0234402 0
0.5 0.0195335 0
0.5 0.0156268 0
0.5 0.0117201 0
0.5 0.00781339 0
0.5 0.00390669 0
0.5 1.43781e-13 0
0.5 -0.00390669 0
0.5 -0.00781339 0
0.5 -0.0117201 0
0.5 -0.0156268 0
0.5 -0.0195335 0
0.5 -0.0234402 0
0.5 -0.0273468 0
0.5 -0.0312535 0
0.5 -0.0351602 0
0.5 -0.0390669 0
0.5 -0.0429736 0
0.5 -0.0468803 0
0.5 -0.050787 0
0.496036 -0.0542204 0
0.492071 -0.0537471 0
0.488106 -0.0532784 0
0.48414 -0.0528148 0
0.480175 -0.0523512 0
0.476208 -0.0518968 0
0.472241 -0.0514427 0
0.468274 -0.0509928 0
0.464306 -0.0505482 0
0.460338 -0.0501035 0
0.45637 -0.0496673 0
0.452401 -0.0492319 0
0.448432 -0.0488001 0
0.444462 -0.0483738 0
0.440492 -0.0479474 0
0.436521 -0.0475289 0
0.432551 -0.0471114 0
0.42858 -0.046697 0
0.424608 -0.0462883 0
0.420636 -0.0458797 0
0.416664 -0.0454782 0
0.412691 -0.0450781 0
0.408718 -0.0446807 0
0.404745 -0.044289 0
0.400772 -0.0438973 0
0.396798 -0.0435123 0
0.392823 -0.0431289 0
0.388849 -0.0427479 0
0.384874 -0.0423727 0
0.380899 -0.0419975 0
0.376924 -0.0416285 0
0.372948 -0.0412613 0
0.368972 -0.0408961 0
0.364995 -0.0405368 0
0.361019 -0.0401775 0
0.357042 -0.0398239 0
0.353065 -0.0394724 0
0.349088 -0.0391226 0
0.34511 -0.0387786 0
0.341132 -0.0384347 0
0.337154 -0.0380961 0
0.333175 -0.0377597 0
0.329197 -0.0374248 0
0.325218 -0.0370957 0
0.321239 -0.0367667 0
0.317259 -0.0364427 0
0.313279 -0.036121 0
0.3093 -0.0358005 0
0.305319 -0.0354859 0
0.301339 -0.0351714 0
0.297359 -0.0348615 0
0.293378 -0.034554 0
0.289397 -0.0342476 0
0.285416 -0.0339471 0
0.281434 -0.0336466 0
0.277453 -0.0333504 0
0.273471 -0.0330568 0
0.269489 -0.032764 0
0.265507 -0.0324772 0
0.261524 -0.0321904 0
0.257542 -0.0319077 0
0.253559 -0.0316276 0
0.249576 -0.0313482 0
0.245593 -0.0310748 0
0.241609 -0.0308014 0
0.237626 -0.0305319 0
0.233642 -0.0302651 0
0.229658 -0.0299988 0
0.225674 -0.0297385 0
0.22169 -0.0294782 0
0.217706 -0.0292217 0
0.213721 -0.0289679 0
0.209737 -0.0287146 0
0.205752 -0.0284673 0
0.201767 -0.02822 0
0.197781 -0.0279764 0
0.193796 -0.0277356 0
0.189811 -0.0274951 0
0.185825 -0.0272607 0
0.181839 -0.0270264 0
0.177853 -0.0267956 0
0.173867 -0.0265678 0
0.169881 -0.0263402 0
0.165894 -0.026119 0
0.161908 -0.0258978 0
0.157921 -0.02568 0
0.153934 -0.0254654 0
0.149947 -0.0252509 0
0.14596 -0.025043 0
0.141973 -0.0248352 0
0.137986 -0.0246308 0
0.133998 -0.0244298 0
0.13001 -0.0242288 0
0.126022 -0.024035 0
0.122035 -0.0238411 0
0.118046 -0.0236509 0
0.114058 -0.0234644 0
0.11007 -0.0232779 0
0.106081 -0.023099 0
0.102093 -0.0229202 0
0.0981038 -0.0227453 0
0.0941148 -0.0225747 0
0.0901258 -0.0224041 0
0.0861364 -0.022242 0
0.0821471 -0.0220801 0
0.0781575 -0.0219227 0
0.0741678 -0.0217703 0
0.0701781 -0.021618 0
0.0661879 -0.0214757 0
0.0621978 -0.0213339 0
0.0582075 -0.0211975 0
0.054217 -0.0210676 0
0.0502265 -0.0209377 0
0.0462355 -0.0208207 0
0.0422446 -0.0207045 0
0.0382534 -0.0205955 0
0.034262 -0.0204956 0
0.0302706 -0.0203957 0
0.0262788 -0.0203144 0
0.022287 -0.0202345 0
0.018295 -0.0201654 0
0.0143027 -0.0201109 0
0.0103104 -0.0200563 0
0.00631785 -0.0200329 0
0.00232526 -0.0200121 0
-0.00166732 -0.020011 0
-0.00565987 -0.0200372 0
-0.00965243 -0.0200635 0
-0.0136441 -0.0201487 0
-0.0176357 -0.0202396 0
-0.0216262 -0.0203639 0
-0.0256151 -0.0205369 0
-0.029604 -0.0207098 0
-0.0335881 -0.0209694 0
-0.0375717 -0.0212385 0
-0.041552 -0.0215481 0
-0.0455272 -0.0219207 0
-0.0495024 -0.0222934 0
-0.0534681 -0.0227556 0
-0.0574324 -0.0232306 0
-0.0613923 -0.0237386 0
-0.0653442 -0.0243073 0
-0.0692962 -0.0248759 0
-0.0732381 -0.0255098 0
-0.0771778 -0.0261578 0
-0.0811144 -0.0268235 0
-0.0850433 -0.0275341 0
-0.0889722 -0.0282446 0
-0.0928949 -0.0289889 0
-0.0968152 -0.029745 0
-0.100735 -0.0305068 0
-0.104649 -0.0312931 0
-0.108563 -0.0320794 0
-0.112475 -0.032878 0
-0.116386 -0.0336836 0
-0.120296 -0.0344893 0
-0.124207 -0.0352949 0
-0.128117 -0.0361005 0
-0.132028 -0.0369056 0
-0.135939 -0.0377103 0
-0.13985 -0.0385149 0
-0.143762 -0.0393092 0
-0.147675 -0.0401031 0
-0.15159 -0.0408904 0
-0.155506 -0.041668 0
-0.159422 -0.0424455 0
-0.163342 -0.0432056 0
-0.167262 -0.0439627 0
-0.171183 -0.0447127 0
-0.175108 -0.0454463 0
-0.179033 -0.0461799 0
-0.182961 -0.0468942 0
-0.18689 -0.0476022 0
-0.190821 -0.0483046 0
-0.194755 -0.0489856 0
-0.198689 -0.0496667 0
-0.202626 -0.0503294 0
-0.206565 -0.0509829 0
-0.210504 -0.0516328 0
-0.214448 -0.0522585 0
-0.218391 -0.0528841 0
-0.222337 -0.0534933 0
-0.226284 -0.0540912 0
-0.230232 -0.0546875 0
-0.234184 -0.0552582 0
-0.238136 -0.0558289 0
-0.242089 -0.0563854 0
-0.246045 -0.0569295 0
-0.25 -0.0535098 0
-0.25 -0.0495461 0
-0.25 -0.0455824 0
-0.25 -0.0416187 0
-0.25 -0.0376551 0
-0.25 -0.0336914 0
-0.25 -0.0297277 0
-0.25 -0.025764 0
-0.25 -0.0218003 0
-0.25 -0.0178366 0
-0.25 -0.0138729 0
-0.25 -0.00990922 0
-0.25 -0.00594553 0
-0.25 -0.00198184 0
-0.25 0.00198184 0
-0.25 0.00594553 0
-0.25 0.00990922 0
-0.25 0.0138729 0
-0.25 0.0178366 0
-0.25 0.0218003 0
-0.25 0.025764 0
-0.25 0.0297277 0
-0.25 0.0336914 0
-0.25 0.0376551 0
-0.25 0.0416187 0
-0.25 0.0455824 0
-0.25 0.0495461 0
-0.25 0.0535098 0
-0.246045 0.0569295 0.01
-0.242089 0.0563854 0.01
-0.238136 0.0558289 0.01
-0.234184 0.0552582 0.01
-0.230232 0.0546875 0.01
-0.226284 0.0540912 0.01
-0.222337 0.0534933 0.01
-0.218391 0.0528841 0.01
-0.214448 0.0522585 0.01
-0.210504 0.0516328 0.01
-0.206565 0.0509829 0.01
-0.202626 0.0503294 0.01
-0.198689 0.0496667 0.01
-0.194755 0.0489856 0.01
-0.190821 0.0483046 0.01
-0.18689 0.0476022 0.01
-0.182961 0.0468942 0.01
-0.179033 0.0461799 0.01
-0.175108 0.0454463 0.01
-0.171183 0.0447127 0.01
-0.167262 0.0439627 0.01
[...]
CELL_DATA 7657
SCALARS rho float
LOOKUP_TABLE default
0.574351
0.557046
0.553425
0.543078
0.509293
0.545829
0.546859
0.503413
0.553882
0.504677
0.505127
0.510231
0.550887
0.50708
0.519616
0.577086
0.523883
0.556439
0.556404
0.498118
0.532619
0.556886
0.556105
0.556392
0.560148
0.547946
0.542796
0.551698
0.505183
0.545899
0.545255
0.560159
0.555757
0.573754
0.573907
0.545411
0.545989
0.556032
0.57521
0.543461
0.553202
0.55367
0.544007
0.545023
0.553067
0.553783
0.547404
0.545723
0.560269
0.574205
0.544921
0.543109
0.505706
0.504889
0.546694
0.546319
0.528133
0.562987
0.568513
0.545111
0.560419
0.552737
0.560776
0.560874
0.506182
0.506322
0.550904
0.546986
0.504827
0.56779
0.553757
0.551125
0.543661
0.505326
0.573438
0.545576
0.556876
0.545472
0.573261
0.551394
0.555679
0.498937
0.496701
0.553286
0.553696
0.569476
0.55361
0.567538
0.545055
0.542797
0.506415
0.503523
0.568834
0.505083
0.54366
0.570044
0.569776
0.556444
0.552853
0.543654
0.556587
0.558993
0.556886
0.539633
0.547597
0.554551
0.5442
0.547387
0.551617
0.545162
0.54526
0.547208
0.544543
0.496614
0.554811
0.565729
0.547551
0.543391
0.57748
0.545777
0.506985
0.507047
0.544154
0.556789
0.494222
0.507345
0.513467
0.544
0.546706
0.544094
0.542979
0.557624
0.546429
0.543604
0.49796
0.544382
0.576776
0.555759
0.557837
0.55797
0.544233
0.542818
0.543314
0.543557
0.556165
0.534794
0.55541
0.557294
0.552616
0.544199
0.543162
0.505058
0.559419
0.544091
0.530884
0.557034
0.547011
0.5572
0.497833
0.544481
0.557349
0.566208
0.550127
0.565431
0.55183
0.556893
0.575227
0.544472
0.554688
0.577327
0.553101
0.554818
0.55751
0.543208
0.545751
0.545579
0.543447
0.570069
0.494064
0.543258
0.543553
0.551463
0.558458
0.55852
0.550638
0.568163
0.552714
0.543508
0.531914
0.570069
0.505254
0.505285
0.497527
0.571132
0.533573
0.546588
0.498185
0.569219
0.545597
0.554345
0.556315
0.55882
0.570345
0.567112
0.542805
0.505095
0.551949
0.547791
0.573146
0.570966
0.550274
0.55261
0.551731
0.497938
0.55296
0.543512
0.546122
0.569186
0.547255
0.554233
0.557157
0.557311
0.504975
0.547129
0.552181
0.555979
0.551983
0.542896
0.545349
0.504863
0.551225
0.551302
0.551345
0.538423
0.577333
0.497387
0.567449
0.559044
0.559104
0.571329
0.550133
0.543076
0.570372
0.555731
0.572934
0.571643
0.552749
0.571416
0.553231
0.545247
0.545454
0.543362
0.547458
0.573416
0.545978
0.543457
0.557271
0.510579
0.505199
0.547182
0.556542
0.505469
0.577455
0.554674
0.54633
0.553579
0.566715
0.543036
0.556286
0.543185
0.550067
0.542794
0.542813
0.49759
0.572757
0.554827
0.544347
0.547187
0.547067
0.52377
0.556522
0.560804
0.542915
0.543874
0.543326
0.545308
0.543865
0.542951
0.559892
0.555498
0.55501
0.543587
0.542887
0.506719
0.547409
0.542804
0.575356
0.497171
0.565615
0.555121
0.569775
0.505393
0.543136
0.552539
0.542798
0.569157
0.546481
0.543655
0.55596
0.547342
0.520446
0.566378
0.573579
0.553082
0.560138
0.574787
0.504637
0.511459
0.547257
0.560519
0.544272
0.555969
0.504172
0.567832
0.577452
0.505831
0.55273
0.559032
0.561318
0.555358
0.55466
0.50571
0.577395
0.557718
0.501266
0.561656
0.547405
0.542897
0.559971
0.505
0.537592
0.545784
0.557825
0.577263
0.497979
0.54593
0.505177
0.557553
0.553995
0.556589
0.545978
0.557183
0.497642
0.557313
0.546509
0.559747
0.557689
0.548016
0.559865
0.547588
0.54824
0.556734
0.554073
0.565973
0.522122
0.545637
0.539731
0.543543
0.56886
0.569496
0.546098
0.564004
0.495879
0.494837
0.551634
0.551092
0.557364
0.561442
0.555613
0.577254
0.551991
0.556083
0.542805
0.560866
0.505037
0.505324
0.574102
0.513646
0.543632
0.564552
0.548336
0.547437
0.547311
0.495263
0.552389
0.567859
0.546092
0.555023
0.567222
0.545951
0.49797
0.497428
0.555987
0.505926
0.543563
0.563954
0.576148
0.549844
0.559277
0.516792
0.557534
0.546172
0.560934
0.543021
0.570399
0.494588
0.552912
0.498312
0.543037
0.556528
0.556112
0.499595
0.548287
0.558707
0.557207
0.554955
0.569825
0.494195
0.543911
0.559006
0.565214
0.546432
0.558148
0.49792
0.560103
0.577163
0.50554
0.557848
0.5771
0.55626
0.545717
0.57663
0.544866
0.505102
0.524089
0.552057
0.550153
0.548042
0.518543
0.565439
0.560138
0.559827
0.54853
0.547356
0.552325
0.570071
0.547063
0.576764
0.577133
0.570556
0.573966
0.546925
0.555511
0.569691
0.559044
0.496991
0.554349
0.555049
0.546702
0.546333
0.50465
0.548677
0.563514
0.57456
0.545474
0.558673
0.559802
0.545613
0.544058
0.504686
0.566104
0.505587
0.55721
0.557522
0.55218
0.547107
0.542986
0.544787
0.504773
0.561153
0.569351
0.560439
0.509998
0.570916
0.517245
0.549039
0.543055
0.545321
0.573884
0.574311
0.498835
0.499827
0.564819
0.494368
0.567506
0.568199
0.558249
0.54374
0.565899
0.577051
0.54295
0.560799
0.55849
0.57194
0.556552
0.497286
0.576312
0.557058
0.575649
0.556381
0.576835
0.495832
0.500751
0.542913
0.52716
0.497821
0.504701
0.55339
0.505941
0.560701
0.547901
0.577151
0.50155
0.563447
0.552756
0.558614
0.553073
0.501151
0.546235
0.555838
0.55201
0.55867
0.564663
0.515057
0.559245
0.497302
0.558307
0.543819
0.546138
0.558156
0.57711
0.543016
0.563278
0.550778
0.575813
0.577016
0.543646
0.525151
0.555075
0.573859
0.577284
0.545078
0.496966
0.549588
0.558002
0.576571
0.504583
0.497253
0.545418
0.572952
0.570024
0.545221
0.557215
0.556565
0.569071
0.548493
0.503277
0.497202
0.517522
0.510291
0.552601
0.560817
0.569362
0.547061
0.557986
0.5629
0.5612
0.565602
0.505095
0.549379
0.533429
0.506863
0.547833
0.564599
0.568719
0.547044
0.545745
0.552841
0.552209
0.509161
0.57064
0.550184
0.54724
0.536067
0.502541
0.503895
0.547811
0.571228
0.54755
0.540321
0.54612
0.512202
0.513981
0.57662
0.552384
0.5772
0.497109
0.564429
0.56405
0.503785
0.54486
0.504899
0.505487
0.497077
0.498959
0.561049
0.556795
0.565475
0.565967
0.55354
0.556505
0.546878
0.505003
0.561104
0.544104
0.497567
0.563745
0.560611
0.504891
0.556458
0.505
0.558621
0.559672
0.549127
0.542885
0.497195
0.560287
0.561162
0.560615
0.507121
0.576675
0.561178
0.553675
0.497238
0.497184
0.527273
0.542812
0.558461
0.560723
0.560602
0.54402
0.561148
0.577274
0.564474
0.560686
0.557541
0.564145
0.504977
0.561079
0.559777
0.497168
0.569399
0.562741
0.577363
0.543208
0.559526
0.558939
0.55926
0.498343
0.560915
0.552183
0.560843
0.560202
0.514594
0.501386
0.560742
0.547951
0.543035
0.553829
0.544738
0.571983
0.505219
0.521086
0.560948
0.558146
0.521539
0.495525
0.552359
0.515871
0.521751
0.54825
0.557834
0.552547
0.55503
0.548196
0.544392
0.560364
0.553139
0.560004
0.496933
0.497179
0.543245
0.506804
0.504893
0.557028
0.549244
0.576632
0.504744
0.570686
0.563201
0.544295
0.559898
0.497492
0.497387
0.505131
0.561046
0.554029
0.504825
0.545147
0.568726
0.560323
0.50543
0.544203
0.561575
0.52374
0.564897
0.555114
0.562979
0.496863
0.560595
0.560928
0.558585
0.505472
0.568393
0.546242
0.497212
0.555189
0.554435
0.54406
0.551673
0.504864
0.549386
0.561141
0.576183
0.505294
0.512045
0.505303
0.543487
0.505071
0.504968
0.557873
0.505242
0.496548
0.560326
0.560834
0.500492
0.547576
0.554488
0.560859
0.515015
0.557204
0.55705
0.577126
0.554005
0.505359
0.520148
0.576998
0.507464
0.505399
0.550434
0.544299
0.560858
0.543403
0.497074
0.547816
0.496186
0.505407
0.543738
0.569085
0.558474
0.564285
0.54801
0.528941
0.561114
0.552777
0.577058
0.497746
0.568027
0.560631
0.562362
0.505578
0.544418
0.549643
0.522894
0.56145
0.568689
0.568688
0.544818
0.505496
0.502615
0.571017
0.551997
0.549878
0.54461
0.548443
0.506084
0.496205
0.544497
0.497571
0.527811
0.496161
0.556208
0.497549
0.496228
0.547602
0.570031
0.525605
0.543477
0.565101
0.549164
0.496808
0.533211
0.543402
0.546529
0.495818
0.545912
0.57684
0.496101
0.507855
0.560461
0.496089
0.556981
0.560188
0.504816
0.505046
0.509573
0.554063
0.567685
0.570072
0.5441
0.506941
0.504922
0.544408
0.554217
0.543548
0.561151
0.565215
0.50509
0.565249
0.537015
0.509935
0.496724
0.541681
0.508528
0.544194
0.56115
0.496612
0.544174
0.514823
0.548019
0.554194
0.504975
0.550101
0.539909
0.512101
0.543474
0.544077
0.505508
0.508177
0.500222
0.505784
0.523167
0.567059
0.531478
0.553607
0.553182
0.55408
0.503161
0.506719
0.505735
0.55144
0.561175
0.544711
0.510203
0.506545
0.512395
0.506683
0.557868
0.518273
0.570645
0.522648
0.515266
0.577283
0.495469
0.57704
0.54299
0.561071
0.542915
0.570694
0.546444
0.544936
0.543259
0.544299
0.566494
0.566512
0.505244
0.517649
0.519027
0.520696
0.555386
0.569784
0.495551
0.527695
0.505059
0.53738
0.567294
0.543659
0.523644
0.566581
0.566552
0.550898
0.577023
0.52692
0.5336
0.542882
0.568338
0.568334
0.497419
0.544502
0.544716
0.549853
0.54357
0.505001
0.497486
0.49885
0.557376
0.543754
0.543327
0.495025
0.527063
0.552702
0.542948
0.551418
0.551415
0.551736
0.536903
0.544528
0.55928
0.513461
0.545255
0.560464
0.555581
0.527733
0.500599
0.54709
0.545061
0.495643
0.543257
0.571094
0.537011
0.561114
0.574107
0.574761
0.561119
0.495628
0.572115
0.542804
0.561172
0.500158
0.545288
0.545392
0.496836
0.532866
0.53452
0.529674
0.561107
0.561164
0.495705
0.555103
0.55909
0.542854
0.543664
0.531732
0.545897
0.497246
0.56969
0.505088
0.50499
0.562051
0.561189
0.494872
0.525135
0.49686
0.563204
0.546946
0.543937
0.560943
0.494932
0.543567
0.496174
0.510173
0.546354
0.560957
0.550352
0.50484
0.517122
0.524989
0.55086
0.550876
0.554881
0.528096
0.559252
0.496914
0.552242
0.554496
0.545233
0.542993
0.556566
0.54411
0.551181
0.54626
0.560702
0.547401
0.544667
0.495769
0.504801
0.561027
0.50518
0.554362
0.554381
0.551985
0.505242
0.556436
0.496841
0.537065
0.556456
0.550367
0.552256
0.57406
0.557431
0.505164
0.54283
0.54517
0.507723
0.504991
0.498094
0.54603
0.508733
0.559632
0.498018
0.547192
0.542805
0.556884
0.505216
0.552535
0.509953
0.546788
0.574536
0.502372
0.5446
0.559233
0.494803
0.558602
0.496362
0.532019
0.51003
0.504587
0.533943
0.560926
0.504761
0.560927
0.574088
0.545417
0.560826
0.546042
0.555144
0.570914
0.542812
0.505597
0.571782
0.572373
0.531673
0.54554
0.495557
0.547586
0.543849
0.547367
0.495517
0.54448
0.563826
0.56435
0.543536
0.56289
0.524576
0.556597
0.545404
0.543469
0.502739
0.577015
0.504978
0.548962
0.507802
0.542882
0.534401
0.546792
0.542835
0.496581
0.559939
0.550319
0.496823
0.543191
0.498985
0.505334
0.573383
0.544712
0.573617
0.495431
0.57677
0.494514
0.505328
0.566869
0.542798
0.55253
0.552726
0.566263
0.52716
0.556577
0.556204
0.506398
0.569152
0.505591
0.545072
0.577196
0.495217
0.540826
0.543647
0.545091
0.540324
0.545912
0.545049
0.543956
0.551653
0.551655
0.545175
0.54494
0.560376
0.544798
0.504895
0.561032
0.505118
0.496867
0.546424
0.52455
0.496677
0.519983
0.544062
0.495526
0.505766
0.509171
0.520047
0.57181
0.495676
0.545373
0.546081
0.566854
0.566866
0.495271
0.505575
0.545383
0.517423
0.505123
0.49572
0.496055
0.558312
0.556588
0.505064
0.570423
0.543265
0.547001
0.495795
0.545081
0.526858
0.547177
0.54804
0.495592
0.561171
0.507322
0.499359
0.559228
0.559189
0.549405
0.505116
0.542815
0.504935
0.528824
0.494342
0.533379
0.496135
0.569607
0.556903
0.548466
0.546202
0.533338
0.545673
0.531787
0.498663
0.497154
0.542876
0.505264
0.550685
0.55293
0.497113
0.546593
0.543654
0.560112
0.538179
0.5468
0.546939
0.550115
0.544518
0.573832
0.561259
0.574286
0.573358
0.561169
0.559039
0.559068
0.542796
0.56126
0.497122
0.495343
0.544391
0.558761
0.518115
0.55374
0.546062
0.504096
0.561191
0.508782
0.497202
0.496769
0.495823
0.560941
0.505261
0.561011
0.550301
0.556274
0.553662
0.555492
0.560926
0.545727
0.5093
0.555625
0.555666
0.568596
0.498282
0.54906
0.505091
0.501255
0.558003
0.520798
0.553881
0.571411
0.54383
0.551562
0.543827
0.563476
0.555942
0.546406
0.575134
0.552427
0.552429
0.496106
0.497256
0.547093
0.496292
0.497956
0.505043
0.549128
0.549144
0.550365
0.496654
0.56107
0.497541
0.546065
0.497365
0.497611
0.559947
0.555254
0.496406
0.572049
0.572339
0.546642
0.495047
0.520833
0.496536
0.544496
0.544379
0.54439
0.558767
0.518397
0.497077
0.495464
0.497082
0.559073
0.542857
0.559038
0.558449
0.49719
0.549647
0.508586
0.546924
0.4967
0.550111
0.550125
0.549302
0.541694
0.50196
0.545014
0.505385
0.496743
0.543483
0.553395
0.505138
0.54804
0.55659
0.546402
0.55063
0.551179
0.553294
0.551044
0.499321
0.559669
0.558141
0.555705
0.497355
0.559616
0.555016
0.555635
0.557079
0.496979
0.558803
0.501954
0.542985
0.555953
0.524208
0.543297
0.554474
0.511992
0.55739
0.515476
0.49699
0.510855
0.54285
0.555673
0.496755
0.496218
0.500255
0.497229
0.496966
0.506613
0.549376
0.549455
0.549472
0.498926
0.517026
0.498094
0.538624
0.547188
0.513548
0.56102
0.495784
0.561159
0.543377
0.54349
0.547444
0.544297
0.576879
0.498815
0.548468
0.501766
0.544005
0.555006
0.544924
0.544943
0.544004
0.543997
0.560737
0.52223
0.504777
0.50512
0.543829
0.498865
0.49582
0.546073
0.55812
0.560702
0.545727
0.515263
0.52059
0.574316
0.543633
0.54282
0.545802
0.495945
0.497385
0.497965
0.496046
0.504926
0.552473
0.548333
0.543265
0.498981
0.555662
0.497857
0.512397
0.550135
0.528849
0.570106
0.505302
0.506004
0.517132
0.496183
0.521952
0.551765
0.530002
0.551783
0.558148
0.506873
0.529257
0.550129
0.504997
0.538839
0.562436
0.566243
0.560705
0.561287
0.505175
0.531951
0.496894
0.545985
0.543745
0.500132
0.573108
0.53198
0.504955
0.541806
0.528292
0.54679
0.504844
0.57442
0.568989
0.548486
0.548478
0.552917
0.546972
0.505101
0.513393
0.50485
0.554936
0.504064
0.530892
0.542906
0.546936
0.571724
0.550965
0.542978
0.504861
0.543078
0.505407
0.505424
0.504998
0.543125
0.561036
0.504963
0.52093
0.505029
0.510352
0.50878
0.496289
0.573114
0.542786
0.546789
0.504832
0.545535
0.543028
0.547178
0.542783
0.542792
0.533553
0.572101
0.543135
0.542972
0.575747
0.505052
0.498034
0.570417
0.548164
0.543516
0.505434
0.505446
0.548305
0.509999
0.543328
0.504069
0.542813
0.560826
0.560898
0.554841
0.505049
0.501942
0.504945
0.505114
0.500255
0.543076
0.496923
0.497231
0.544047
0.545714
0.545525
0.546355
0.53986
0.548459
0.572123
0.536207
0.54552
0.535634
0.559538
0.534765
0.504885
0.558742
0.505119
0.543326
0.570699
0.554284
0.543738
0.543728
0.552799
0.560535
0.515066
0.524121
0.538695
0.550232
0.559216
0.559183
0.52421
0.528318
0.49867
0.505069
0.544387
0.53804
0.557694
0.53203
0.544491
0.544481
0.496679
0.509734
0.550655
0.496032
0.532346
0.505356
0.497404
0.545922
0.505148
0.544836
0.544816
0.52863
0.561233
0.506175
0.5567
0.548958
0.54897
0.547071
0.550274
0.550288
0.545567
0.560588
0.505174
0.546077
0.556991
0.535452
0.574943
0.557968
0.552256
0.552257
0.555459
0.555503
0.559673
0.51895
0.553555
0.558602
0.558442
0.505091
0.558682
0.556751
0.577001
0.546073
0.550786
0.550769
0.559613
0.55355
0.559814
0.554036
0.55407
0.529138
0.559374
0.557983
0.496393
0.55976
0.54365
0.520024
0.566954
0.505233
0.540603
0.560448
0.557852
0.505591
0.505579
0.504934
0.494921
0.505429
0.525501
0.556097
0.505017
0.556575
0.573403
0.512015
0.504751
0.5411
0.502949
0.500046
0.555816
0.497148
0.495058
0.505212
0.544181
0.544287
0.555993
0.497524
0.554839
0.575096
0.56055
0.552356
0.555566
0.551279
0.494645
0.505355
0.505174
0.495217
0.569897
0.546244
0.546616
0.511044
0.554043
0.546081
0.571001
0.543187
0.505271
0.505048
0.498774
0.505348
0.504569
0.576132
0.534222
0.543838
0.560907
0.505298
0.569796
0.575689
0.505156
0.552246
0.504824
0.545232
0.549861
0.544268
0.558172
0.558305
0.505115
0.544054
0.544035
0.500016
0.551593
0.559409
0.505299
0.575653
0.542932
0.543322
0.559442
0.518428
0.497873
0.504988
0.505275
0.505464
0.539965
0.550793
0.525856
0.505108
0.553052
0.504597
0.541731
0.575494
0.522366
0.511318
0.575262
0.549615
0.549629
0.505918
0.518006
0.505226
0.505442
0.576399
0.504949
0.505018
0.572892
0.506834
0.560177
0.505138
0.504713
0.504098
0.55785
0.537201
0.557542
0.540204
0.536789
0.548312
0.548317
0.504991
0.50517
0.548702
0.504776
0.506206
0.496685
0.558626
0.561241
0.511998
0.505728
0.495201
0.505391
0.505005
0.576058
0.571827
0.509336
0.504742
0.552975
0.505281
0.546637
0.557392
0.575494
0.550791
0.505031
0.505045
0.573851
0.558197
0.547329
0.55997
0.505348
0.576604
0.504837
0.542789
0.545405
0.557667
0.505216
0.527327
0.54663
0.553761
0.515093
0.505212
0.505213
0.544093
0.544084
0.495191
0.557231
0.505233
0.54293
0.560811
0.506021
0.572392
0.542208
0.543442
0.505301
0.560844
0.542828
0.50562
0.5603
0.552774
0.560143
0.498184
0.504897
0.50484
0.556538
0.556516
0.56053
0.514771
0.504908
0.496214
0.505191
0.541054
0.546501
0.511654
0.549648
0.498542
0.507128
0.543287
0.552025
0.505577
0.559355
0.504696
0.504689
0.57403
0.558924
0.559982
0.538536
0.497347
0.558893
0.496679
0.505084
0.557128
0.508946
0.505164
0.505996
0.521726
0.505277
0.509832
0.505055
0.551194
0.505548
0.550362
0.505225
0.53055
0.553681
0.505246
0.540361
0.537414
0.544941
0.544929
0.548465
0.522443
0.504851
0.542947
0.543032
0.556116
0.5558
0.506812
0.505152
0.506368
0.513137
0.563055
0.505246
0.5609
0.546213
0.505792
0.505767
0.534368
0.504758
0.544943
0.546993
0.504772
0.505982
0.506039
0.546344
0.530223
0.505007
0.511105
0.571275
0.571563
0.504995
0.534438
0.505313
0.543913
0.550951
0.550933
0.56109
0.546217
0.517827
0.514711
0.550032
0.557187
0.514735
0.573345
0.505274
0.56039
0.542835
0.517675
0.508376
0.504605
0.560425
0.526262
0.505272
0.552593
0.554199
0.55423
0.571327
0.537528
0.504966
0.514042
0.535679
0.5583
0.5182
0.560915
0.505347
0.574313
0.536081
0.559518
0.558563
0.500287
0.553123
0.540282
0.504905
0.558826
0.517078
0.557849
0.569183
0.521861
0.576351
0.55531
0.508505
0.509132
0.530343
0.512651
0.518055
0.558743
0.54283
0.505348
0.547427
0.557529
0.504965
0.505413
0.576413
0.505873
0.517283
0.505571
0.555345
0.50473
0.513673
0.540116
0.538436
0.505753
0.560133
0.505367
0.503758
0.526524
0.506589
0.507438
0.508808
0.549885
0.505308
0.528651
0.504753
0.521971
0.539496
0.510865
0.553979
0.560667
0.560963
0.558876
0.505357
0.5585
0.50607
0.561242
0.525758
0.535217
0.535189
0.568641
0.518516
0.531619
0.560425
0.545074
0.576119
0.518406
0.565989
0.560913
0.504841
0.557219
0.504902
0.509759
0.505119
0.573583
0.554303
0.544164
0.543943
0.496897
0.576202
0.559801
0.537583
0.560683
0.560152
0.504858
0.547188
0.505339
0.570918
0.56302
0.505553
0.518316
0.518808
0.509128
0.526421
0.554297
0.541473
0.555517
0.505253
0.553101
0.545588
0.561244
0.561164
0.560407
0.560469
0.5555
0.526705
0.553085
0.546304
0.575686
0.576874
0.560855
0.544985
0.541827
0.550973
0.57468
0.504685
0.508996
0.552369
0.574684
0.56204
0.572635
0.560087
0.505293
0.539143
0.495985
0.505166
0.556509
0.495499
0.505407
0.576557
0.50537
0.558746
0.555481
0.521279
0.504894
0.571525
0.564129
0.520732
0.567772
0.522302
0.557285
0.505242
0.571288
0.546626
0.508187
0.558563
0.560825
0.545164
0.574891
0.567573
0.505114
0.556926
0.547534
0.555948
0.50531
0.562092
0.571031
0.571925
0.565989
0.545245
0.571589
0.566942
0.505749
0.558006
0.565343
0.576035
0.576583
0.560507
0.555763
0.513019
0.564732
0.542978
0.564646
0.521903
0.573831
0.507326
0.532607
0.565511
0.505048
0.530192
0.55131
0.548047
0.505182
0.56077
0.505185
0.563199
0.505398
0.504732
0.567087
0.56383
0.506584
0.56115
0.550096
0.558968
0.535815
0.556148
0.570892
0.559736
0.505427
0.565094
0.576577
0.52273
0.560782
0.566449
0.56886
0.504758
0.506224
0.56036
0.560976
0.558929
0.560824
0.568762
0.534777
0.537261
0.561098
0.557633
0.55459
0.5589
0.563149
0.551491
0.550128
0.570223
0.566169
0.552223
0.542908
0.543033
0.556127
0.572446
0.563497
0.542602
0.570769
0.574957
0.505399
0.572662
0.576084
0.566569
0.498288
0.546791
0.576929
0.560879
0.575583
0.545244
0.560722
0.51076
0.571251
0.538121
0.571807
0.564304
0.561169
0.567721
0.546214
0.56701
0.572418
0.522573
0.559404
0.531914
0.507699
0.566613
0.561268
0.542859
0.560779
0.550949
0.55985
0.501712
0.551743
0.551835
0.556415
0.505431
0.561177
0.558314
0.561177
0.561
0.577069
0.572922
0.527863
0.54634
0.506736
0.56734
0.561195
0.555373
0.561267
0.560398
0.576599
0.563456
0.560569
0.573039
0.504936
0.564377
0.559869
0.560545
0.55956
0.504983
0.564261
0.559796
0.51532
0.55958
0.570669
0.561114
0.559963
0.573335
0.574721
0.543953
0.544281
0.568314
0.568672
0.573902
0.576449
0.561112
0.559811
0.558478
0.558474
0.568712
0.505547
0.545759
0.526999
0.551331
0.572757
0.522784
0.516495
0.569063
0.561163
0.559052
0.565344
0.559503
0.576524
0.529376
0.5606
0.576533
0.560643
0.561192
0.576794