# vtk DataFile Version 1.0
unstructured grid
ascii
DATASET UNSTRUCTURED_GRID
points 8094 float
-0.25 0.0574735 0
0.5 0.0546937 0
0.5 -0.0546937 0
-0.25 -0.0574735 0
-0.25 0.0574735 0.01
0.5 0.0546937 0.01
0.5 -0.0546937 0.01
-0.25 -0.0574735 0.01
-0.246045 0.0569295 0
-0.242089 0.0563854 0
-0.238136 0.0558289 0
-0.234184 0.0552582 0
-0.230232 0.0546875 0
-0.226284 0.0540912 0
-0.222337 0.0534933 0
-0.218391 0.0528841 0
-0.214448 0.0522585 0
-0.210504 0.0516328 0
-0.206565 0.0509829 0
-0.202626 0.0503294 0
-0.198689 0.0496667 0
-0.194755 0.0489856 0
-0.190821 0.0483046 0
-0.18689 0.0476022 0
-0.182961 0.0468942 0
-0.179033 0.0461799 0
-0.175108 0.0454463 0
-0.171183 0.0447127 0
-0.167262 0.0439627 0
-0.163342 0.0432056 0
-0.159422 0.0424455 0
-0.155506 0.041668 0
-0.15159 0.0408904 0
-0.147675 0.0401031 0
-0.143762 0.0393092 0
-0.13985 0.0385149 0
-0.135939 0.0377103 0
-0.132028 0.0369056 0
-0.128117 0.0361005 0
-0.124207 0.0352949 0
-0.120296 0.0344893 0
-0.116386 0.0336836 0
-0.112475 0.032878 0
-0.108563 0.0320794 0
-0.104649 0.0312931 0
-0.100735 0.0305068 0
-0.0968152 0.029745 0
-0.0928949 0.0289889 0
-0.0889722 0.0282446 0
-0.0850433 0.0275341 0
-0.0811144 0.0268235 0
-0.0771778 0.0261578 0
-0.0732381 0.0255098 0
-0.0692962 0.0248759 0
-0.0653442 0.0243073 0
-0.0613923 0.0237386 0
-0.0574324 0.0232306 0
-0.0534681 0.0227556 0
-0.0495024 0.0222934 0
-0.0455272 0.0219207 0
-0.041552 0.0215481 0
-0.0375717 0.0212385 0
-0.0335881 0.0209694 0
-0.029604 0.0207098 0
-0.0256151 0.0205369 0
-0.0216262 0.0203639 0
-0.0176357 0.0202396 0
-0.0136441 0.0201487 0
-0.00965243 0.0200635 0
-0.00565987 0.0200372 0
-0.00166732 0.020011 0
0.00232526 0.0200121 0
0.00631785 0.0200329 0
0.0103104 0.0200563 0
0.0143027 0.0201109 0
0.018295 0.0201654 0
0.022287 0.0202345 0
0.0262788 0.0203144 0
0.0302706 0.0203957 0
0.034262 0.0204956 0
0.0382534 0.0205955 0
0.0422446 0.0207045 0
0.0462355 0.0208207 0
0.0502265 0.0209377 0
0.054217 0.0210676 0
0.0582075 0.0211975 0
0.0621978 0.0213339 0
0.0661879 0.0214757 0
0.0701781 0.021618 0
0.0741678 0.0217703 0
0.0781575 0.0219227 0
0.0821471 0.0220801 0
0.0861364 0.022242 0
0.0901258 0.0224041 0
0.0941148 0.0225747 0
0.0981038 0.0227453 0
0.102093 0.0229202 0
0.106081 0.023099 0
0.11007 0.0232779 0
0.114058 0.0234644 0
0.118046 0.0236509 0
0.122035 0.0238411 0
0.126022 0.024035 0
0.13001 0.0242288 0
0.133998 0.0244298 0
0.137986 0.0246308 0
0.141973 0.0248352 0
0.14596 0.025043 0
0.149947 0.0252509 0
0.153934 0.0254654 0
0.157921 0.02568 0
0.161908 0.0258978 0
0.165894 0.026119 0
0.169881 0.0263402 0
0.173867 0.0265678 0
0.177853 0.0267956 0
0.181839 0.0270264 0
0.185825 0.0272607 0
0.189811 0.0274951 0
0.193796 0.0277356 0
0.197781 0.0279764 0
0.201767 0.02822 0
0.205752 0.0284673 0
0.209737 0.0287146 0
0.213721 0.0289679 0
0.217706 0.0292217 0
0.22169 0.0294782 0
0.225674 0.0297385 0
0.229658 0.0299988 0
0.233642 0.0302651 0
0.237626 0.0305319 0
0.241609 0.0308014 0
0.245593 0.0310748 0
0.249576 0.0313482 0
0.253559 0.0316276 0
0.257542 0.0319077 0
0.261524 0.0321904 0
0.265507 0.0324772 0
0.269489 0.032764 0
0.273471 0.0330568 0
0.277453 0.0333504 0
0.281434 0.0336466 0
0.285416 0.0339471 0
0.289397 0.0342476 0
0.293378 0.034554 0
0.297359 0.0348615 0
0.301339 0.0351714 0
0.305319 0.0354859 0
0.3093 0.0358005 0
0.313279 0.036121 0
0.317259 0.0364427 0
0.321239 0.0367667 0
0.325218 0.0370957 0
0.329197 0.0374248 0
0.333175 0.0377597 0
0.337154 0.0380961 0
0.341132 0.0384347 0
0.34511 0.0387786 0
0.349088 0.0391226 0
0.353065 0.0394724 0
0.357042 0.0398239 0
0.361019 0.0401775 0
0.364995 0.0405368 0
0.368972 0.0408961 0
0.372948 0.0412613 0
0.376924 0.0416285 0
0.380899 0.0419975 0
0.384874 0.0423727 0
0.388849 0.0427479 0
0.392823 0.0431289 0
0.396798 0.0435123 0
0.400772 0.0438973 0
0.404745 0.044289 0
0.408718 0.0446807 0
0.412691 0.0450781 0
0.416664 0.0454782 0
0.420636 0.0458797 0
0.424608 0.0462883 0
0.42858 0.046697 0
0.432551 0.0471114 0
0.436521 0.0475289 0
0.440492 0.0479474 0
0.444462 0.0483738 0
0.448432 0.0488001 0
0.452401 0.0492319 0
0.45637 0.0496673 0
0.460338 0.0501035 0
0.464306 0.0505482 0
0.468274 0.0509928 0
0.472241 0.0514427 0
0.476208 0.0518968 0
0.480175 0.0523512 0
0.48414 0.0528148 0
0.488106 0.0532784 0
0.492071 0.0537471 0
0.496036 0.0542204 0
0.5 0.050787 0
0.5 0.0468803 0
0.5 0.0429736 0
0.5 0.0390669 0
0.5 0.0351602 0
0.5 0.0312535 0
0.5 0.0273468 0
0.5 0.0234402 0
0.5 0.0195335 0
0.5 0.0156268 0
0.5 0.0117201 0
0.5 0.00781339 0
0.5 0.00390669 0
0.5 1.43781e-13 0
0.5 -0.00390669 0
0.5 -0.00781339 0
0.5 -0.0117201 0
0.5 -0.0156268 0
0.5 -0.0195335 0
0.5 -0.0234402 0
0.5 -0.0273468 0
0.5 -0.0312535 0
0.5 -0.0351602 0
0.5 -0.0390669 0
0.5 -0.0429736 0
0.5 -0.0468803 0
0.5 -0.050787 0
0.496036 -0.0542204 0
0.492071 -0.0537471 0
0.488106 -0.0532784 0
0.48414 -0.0528148 0
0.480175 -0.0523512 0
0.476208 -0.0518968 0
0.472241 -0.0514427 0
0.468274 -0.0509928 0
0.464306 -0.0505482 0
0.460338 -0.0501035 0
0.45637 -0.0496673 0
0.452401 -0.0492319 0
0.448432 -0.0488001 0
0.444462 -0.0483738 0
0.440492 -0.0479474 0
0.436521 -0.0475289 0
0.432551 -0.0471114 0
0.42858 -0.046697 0
0.424608 -0.0462883 0
0.420636 -0.0458797 0
0.416664 -0.0454782 0
0.412691 -0.0450781 0
0.408718 -0.0446807 0
0.404745 -0.044289 0
0.400772 -0.0438973 0
0.396798 -0.0435123 0
0.392823 -0.0431289 0
0.388849 -0.0427479 0
0.384874 -0.0423727 0
0.380899 -0.0419975 0
0.376924 -0.0416285 0
0.372948 -0.0412613 0
0.368972 -0.0408961 0
0.364995 -0.0405368 0
0.361019 -0.0401775 0
0.357042 -0.0398239 0
0.353065 -0.0394724 0
0.349088 -0.0391226 0
0.34511 -0.0387786 0
0.341132 -0.0384347 0
0.337154 -0.0380961 0
0.333175 -0.0377597 0
0.329197 -0.0374248 0
0.325218 -0.0370957 0
0.321239 -0.0367667 0
0.317259 -0.0364427 0
0.313279 -0.036121 0
0.3093 -0.0358005 0
0.305319 -0.0354859 0
0.301339 -0.0351714 0
0.297359 -0.0348615 0
0.293378 -0.034554 0
0.289397 -0.0342476 0
0.285416 -0.0339471 0
0.281434 -0.0336466 0
0.277453 -0.0333504 0
0.273471 -0.0330568 0
0.269489 -0.032764 0
0.265507 -0.0324772 0
0.261524 -0.0321904 0
0.257542 -0.0319077 0
0.253559 -0.0316276 0
0.249576 -0.0313482 0
0.245593 -0.0310748 0
0.241609 -0.0308014 0
0.237626 -0.0305319 0
0.233642 -0.0302651 0
0.229658 -0.0299988 0
0.225674 -0.0297385 0
0.22169 -0.0294782 0
0.217706 -0.0292217 0
0.213721 -0.0289679 0
0.209737 -0.0287146 0
0.205752 -0.0284673 0
0.201767 -0.02822 0
0.197781 -0.0279764 0
0.193796 -0.0277356 0
0.189811 -0.0274951 0
0.185825 -0.0272607 0
0.181839 -0.0270264 0
0.177853 -0.0267956 0
0.173867 -0.0265678 0
0.169881 -0.0263402 0
0.165894 -0.026119 0
0.161908 -0.0258978 0
0.157921 -0.02568 0
0.153934 -0.0254654 0
0.149947 -0.0252509 0
0.14596 -0.025043 0
0.141973 -0.0248352 0
0.137986 -0.0246308 0
0.133998 -0.0244298 0
0.13001 -0.0242288 0
0.126022 -0.024035 0
0.122035 -0.0238411 0
0.118046 -0.0236509 0
0.114058 -0.0234644 0
0.11007 -0.0232779 0
0.106081 -0.023099 0
0.102093 -0.0229202 0
0.0981038 -0.0227453 0
0.0941148 -0.0225747 0
0.0901258 -0.0224041 0
0.0861364 -0.022242 0
0.0821471 -0.0220801 0
0.0781575 -0.0219227 0
0.0741678 -0.0217703 0
0.0701781 -0.021618 0
0.0661879 -0.0214757 0
0.0621978 -0.0213339 0
0.0582075 -0.0211975 0
0.054217 -0.0210676 0
0.0502265 -0.0209377 0
0.0462355 -0.0208207 0
0.0422446 -0.0207045 0
0.0382534 -0.0205955 0
0.034262 -0.0204956 0
0.0302706 -0.0203957 0
0.0262788 -0.0203144 0
0.022287 -0.0202345 0
0.018295 -0.0201654 0
0.0143027 -0.0201109 0
0.0103104 -0.0200563 0
0.00631785 -0.0200329 0
0.00232526 -0.0200121 0
-0.00166732 -0.020011 0
-0.00565987 -0.0200372 0
-0.00965243 -0.0200635 0
-0.0136441 -0.0201487 0
-0.0176357 -0.0202396 0
-0.0216262 -0.0203639 0
-0.0256151 -0.0205369 0
-0.029604 -0.0207098 0
-0.0335881 -0.0209694 0
-0.0375717 -0.0212385 0
-0.041552 -0.0215481 0
-0.0455272 -0.0219207 0
-0.0495024 -0.0222934 0
-0.0534681 -0.0227556 0
-0.0574324 -0.0232306 0
-0.0613923 -0.0237386 0
-0.0653442 -0.0243073 0
-0.0692962 -0.0248759 0
-0.0732381 -0.0255098 0
-0.0771778 -0.0261578 0
-0.0811144 -0.0268235 0
-0.0850433 -0.0275341 0
-0.0889722 -0.0282446 0
-0.0928949 -0.0289889 0
-0.0968152 -0.029745 0
-0.100735 -0.0305068 0
-0.104649 -0.0312931 0
-0.108563 -0.0320794 0
-0.112475 -0.032878 0
-0.116386 -0.0336836 0
-0.120296 -0.0344893 0
-0.124207 -0.0352949 0
-0.128117 -0.0361005 0
-0.132028 -0.0369056 0
-0.135939 -0.0377103 0
-0.13985 -0.0385149 0
-0.143762 -0.0393092 0
-0.147675 -0.0401031 0
-0.15159 -0.0408904 0
-0.155506 -0.041668 0
-0.159422 -0.0424455 0
-0.163342 -0.0432056 0
-0.167262 -0.0439627 0
-0.171183 -0.0447127 0
-0.175108 -0.0454463 0
-0.179033 -0.0461799 0
-0.182961 -0.0468942 0
-0.18689 -0.0476022 0
-0.190821 -0.0483046 0
-0.194755 -0.0489856 0
-0.198689 -0.0496667 0
-0.202626 -0.0503294 0
-0.206565 -0.0509829 0
-0.210504 -0.0516328 0
-0.214448 -0.0522585 0
-0.218391 -0.0528841 0
-0.222337 -0.0534933 0
-0.226284 -0.0540912 0
-0.230232 -0.0546875 0
-0.234184 -0.0552582 0
-0.238136 -0.0558289 0
-0.242089 -0.0563854 0
-0.246045 -0.0569295 0
-0.25 -0.0535098 0
-0.25 -0.0495461 0
-0.25 -0.0455824 0
-0.25 -0.0416187 0
-0.25 -0.0376551 0
-0.25 -0.0336914 0
-0.25 -0.0297277 0
-0.25 -0.025764 0
-0.25 -0.0218003 0
-0.25 -0.0178366 0
-0.25 -0.0138729 0
-0.25 -0.00990922 0
-0.25 -0.00594553 0
-0.25 -0.00198184 0
-0.25 0.00198184 0
-0.25 0.00594553 0
-0.25 0.00990922 0
-0.25 0.0138729 0
-0.25 0.0178366 0
-0.25 0.0218003 0
-0.25 0.025764 0
-0.25 0.0297277 0
-0.25 0.0336914 0
-0.25 0.0376551 0
-0.25 0.0416187 0
-0.25 0.0455824 0
-0.25 0.0495461 0
-0.25 0.0535098 0
-0.246045 0.0569295 0.01
-0.242089 0.0563854 0.01
-0.238136 0.0558289 0.01
-0.234184 0.0552582 0.01
-0.230232 0.0546875 0.01
-0.226284 0.0540912 0.01
-0.222337 0.0534933 0.01
-0.218391 0.0528841 0.01
-0.214448 0.0522585 0.01
-0.210504 0.0516328 0.01
-0.206565 0.0509829 0.01
-0.202626 0.0503294 0.01
-0.198689 0.0496667 0.01
-0.194755 0.0489856 0.01
-0.190821 0.0483046 0.01
-0.18689 0.0476022 0.01
-0.182961 0.0468942 0.01
-0.179033 0.0461799 0.01
-0.175108 0.0454463 0.01
-0.171183 0.0447127 0.01
-0.167262 0.0439627 0.01
[...]
CELL_DATA 7657
SCALARS rho float
LOOKUP_TABLE default
0.604531
0.504008
0.5
0.5
0.58568
0.5
0.5
0.5
0.500116
0.506506
0.506512
0.5
0.500001
0.5
0.588603
0.595928
0.588951
0.5
0.5
0.5
0.590041
0.5
0.501448
0.5
0.5
0.5
0.5
0.500002
0.506475
0.5
0.5
0.5
0.500956
0.605818
0.605465
0.5
0.5
0.501251
0.602937
0.5
0.5
0.500081
0.5
0.5
0.5
0.5
0.5
0.5
0.5
0.604906
0.5
0.5
0.506212
0.506542
0.5
0.5
0.589622
0.592448
0.614051
0.5
0.5
0.5
0.5
0.5
0.506661
0.506659
0.500001
0.5
0.50692
0.614898
0.5
0.500001
0.5
0.506198
0.606396
0.5
0.5
0.5
0.606788
0.500002
0.501039
0.5
0.5
0.5
0.5
0.612868
0.5
0.615104
0.5
0.5
0.50649
0.506493
0.613637
0.506729
0.5
0.612267
0.612641
0.501906
0.5
0.5
0.5
0.5
0.503098
0.590611
0.5
0.50021
0.5
0.5
0.500003
0.590821
0.5
0.5
0.5
0.5
0.5
0.614769
0.5
0.5
0.59668
0.5
0.506642
0.506646
0.5
0.504701
0.5
0.5
0.5
0.5
0.5
0.5
0.5
0.5
0.5
0.5
0.5
0.5
0.595508
0.500929
0.5
0.5
0.5
0.5
0.5
0.5
0.5
0.590151
0.500613
0.505244
0.5
0.5
0.5
0.507158
0.531369
0.5
0.589916
0.504406
0.5
0.5
0.5
0.5
0.5
0.592787
0.5
0.614338
0.5
0.503335
0.603001
0.5
0.5
0.596286
0.5
0.500306
0.5
0.5
0.5
0.5
0.5
0.612303
0.5
0.5
0.5
0.500002
0.5
0.5
0.5
0.61432
0.500016
0.5
0.5
0.612295
0.506391
0.506509
0.5
0.610747
0.5
0.5
0.5
0.593197
0.5
0.5
0.5
0.5
0.611854
0.615153
0.5
0.506294
0.500005
0.5
0.607311
0.6111
0.5
0.5
0.5
0.5
0.5
0.5
0.5
0.613034
0.5
0.5
0.504633
0.506793
0.506739
0.5
0.500008
0.501555
0.500004
0.5
0.5
0.506718
0.5
0.5
0.500001
0.590371
0.597536
0.5
0.614875
0.5
0.5
0.593544
0.5
0.5
0.611846
0.50101
0.607385
0.609866
0.500017
0.610268
0.500046
0.5
0.5
0.5
0.5
0.606781
0.5
0.5
0.504583
0.586548
0.506585
0.5
0.503177
0.50598
0.597072
0.5
0.5
0.5
0.615182
0.5
0.5
0.5
0.5
0.5
0.5
0.5
0.607756
0.5
0.5
0.5
0.5
0.5
0.502124
0.5
0.5
0.5
0.5
0.5
0.5
0.5
0.541529
0.5
0.5
0.5
0.5
0.505806
0.5
0.5
0.602525
0.5
0.614718
0.5
0.612531
0.522909
0.5
0.500014
0.5
0.613332
0.5
0.5
0.5
0.5
0.5
0.615272
0.593865
0.500035
0.5
0.594119
0.505984
0.586771
0.5
0.5
0.5
0.501155
0.505972
0.614693
0.596243
0.574782
0.50002
0.524721
0.591914
0.5
0.500266
0.56935
0.597111
0.50981
0.5
0.581027
0.5
0.5
0.5
0.506159
0.5
0.5
0.50809
0.597039
0.5
0.5
0.506345
0.506532
0.5
0.591739
0.5
0.5
0.5
0.5
0.5
0.5
0.5
0.5
0.5
0.5
0.5
0.5
0.5
0.615018
0.589303
0.5
0.5
0.5
0.61346
0.612731
0.5
0.608891
0.5
0.5
0.500002
0.500001
0.5
0.575495
0.5
0.597915
0.5
0.5
0.5
0.5
0.506212
0.508175
0.605085
0.5
0.5
0.592388
0.5
0.5
0.5
0.5
0.5
0.614365
0.5
0.500614
0.592628
0.5
0.5
0.5
0.5
0.505992
0.5
0.608686
0.595327
0.5
0.592083
0.588638
0.5
0.5
0.5
0.5
0.611862
0.5
0.5
0.5
0.5
0.502196
0.50152
0.5
0.5
0.519231
0.505018
0.5
0.612794
0.5
0.5
0.5
0.613951
0.5
0.513773
0.5
0.5
0.598273
0.533461
0.5
0.596935
0.5
0.5
0.599752
0.5
0.506371
0.5
0.5
0.5
0.5
0.588853
0.614416
0.5
0.5
0.5
0.5
0.50001
0.612415
0.5
0.59533
0.596752
0.611704
0.605648
0.5
0.5
0.612934
0.525476
0.5
0.500172
0.500402
0.5
0.5
0.50636
0.5
0.60526
0.604073
0.590686
0.5
0.5
0.5
0.5
0.506297
0.615111
0.506449
0.5
0.5
0.5
0.5
0.5
0.5
0.506583
0.5
0.593076
0.5
0.5
0.61087
0.5
0.5
0.5
0.5
0.605558
0.604616
0.5
0.5
0.612891
0.5
0.614713
0.614127
0.51399
0.5
0.615416
0.598191
0.5
0.5
0.5
0.593339
0.5
0.5
0.600253
0.5
0.601777
0.50241
0.595589
0.5
0.5
0.5
0.5
0.5
0.506091
0.5
0.506185
0.5
0.5
0.597708
0.5
0.604925
0.5
0.5
0.5
0.5
0.5
0.5
0.5
0.5
0.612698
0.5
0.5
0.5
0.5
0.5
0.5
0.5
0.597409
0.5
0.604243
0.5
0.6014
0.59869
0.5
0.5
0.500595
0.605913
0.597884
0.5
0.5
0.5
0.5
0.599826
0.506531
0.5
0.5
0.607705
0.612455
0.5
0.5
0.503052
0.613818
0.5
0.5
0.5
0.5
0.5
0.500016
0.56392
0.613401
0.5
0.5
0.59988
0.5
0.614876
0.507964
0.5
0.5
0.5
0.5
0.612575
0.614274
0.5
0.5
0.500026
0.5
0.5
0.611414
0.591047
0.5
0.5
0.5
0.5
0.5
0.610372
0.5
0.590324
0.5
0.5
0.5
0.599628
0.5
0.597528
0.5
0.61127
0.610325
0.5
0.5
0.507853
0.506289
0.5
0.5
0.5
0.502802
0.614911
0.615359
0.500069
0.5
0.5
0.507037
0.5
0.5
0.5
0.607894
0.5
0.512207
0.5
0.516734
0.5
0.5
0.5
0.5
0.5
0.5
0.5
0.558764
0.5
0.599544
0.5
0.5
0.5
0.5
0.5
0.5
0.5
0.5
0.5
0.5
0.5
0.596869
0.612337
0.5
0.5
0.6105
0.5
0.5
0.541735
0.5
0.613396
0.599427
0.59674
0.5
0.533452
0.525284
0.532852
0.5
0.5
0.5
0.5
0.551088
0.5
0.5
0.5
0.5
0.5
0.500109
0.5
0.609293
0.5
0.5
0.5
0.5
0.5
0.5
0.500009
0.587989
0.588945
0.5
0.5
0.500016
0.500408
0.5
0.5
0.5
0.500042
0.5
0.5
0.5
0.5
0.5
0.509177
0.5
0.5
0.597239
0.506398
0.611404
0.604036
0.5
0.542007
0.5
0.5
0.530589
0.5
0.5
0.509687
0.5
0.614053
0.5
0.553607
0.5
0.579437
0.5
0.613802
0.500649
0.600244
0.5
0.5
0.5
0.51793
0.562323
0.614665
0.5
0.5
0.50065
0.50027
0.5
0.5
0.506606
0.5
0.5
0.600622
0.509103
0.588426
0.532173
0.5
0.522197
0.506128
0.509654
0.524835
0.5
0.5
0.5
0.5
0.5
0.500269
0.5
0.5
0.5
0.5
0.598344
0.500111
0.533916
0.5
0.598724
0.587331
0.542259
0.5
0.5
0.5
0.5
0.5
0.5
0.5
0.545001
0.5
0.61364
0.5
0.610909
0.5
0.5
0.5
0.5
0.597597
0.5
0.615075
0.560857
0.59389
0.576268
0.5
0.5
0.5
0.579168
0.614112
0.614326
0.5
0.569226
0.5
0.610856
0.500006
0.5
0.5
0.5
0.583027
0.5
0.5
0.5
0.5918
0.5
0.501997
0.5
0.5
0.5
0.612422
0.5
0.5
0.614072
0.5
0.5
0.5
0.5
0.5
0.5
0.5
0.599154
0.5
0.587745
0.5
0.5
0.5
0.5
0.506644
0.511606
0.588859
0.5
0.615363
0.612369
0.5
0.58638
0.507765
0.5
0.500186
0.5
0.5
0.614639
0.521637
0.614267
0.592427
0.588328
0.5
0.592882
0.587371
0.5
0.5
0.5
0.5
0.589991
0.5
0.500172
0.509172
0.5
0.5
0.589244
0.5
0.5
0.57093
0.587912
0.5
0.580628
0.5
0.615318
0.5
0.50007
0.500043
0.500173
0.5
0.5
0.579628
0.500002
0.5
0.5
0.588521
0.585323
0.5894
0.585828
0.5
0.590652
0.611442
0.591247
0.590138
0.595856
0.5
0.595421
0.5
0.5
0.5
0.611384
0.5
0.5
0.5
0.5
0.615876
0.615502
0.538167
0.5
0.590771
0.5
0.500983
0.612884
0.5
0.5
0.523532
0.5
0.615645
0.5
0.591344
0.615499
0.615875
0.500001
0.596454
0.5
0.5
0.5
0.614498
0.614748
0.5
0.5
0.5
0.5
0.5
0.515515
0.5
0.5
0.5
0.5
0.5
0.5
0.5
0.5
0.5
0.500002
0.500002
0.500003
0.5
0.5
0.533306
0.5
0.5
0.5
0.593587
0.5
0.5
0.5
0.5
0.5
0.5
0.610799
0.5
0.5
0.60526
0.603868
0.5
0.5
0.609009
0.5
0.5
0.5
0.5
0.5
0.5
0.592172
0.5
0.5
0.5
0.5
0.5
0.5
0.5
0.5
0.5
0.592075
0.5
0.5
0.612857
0.520204
0.514162
0.587539
0.570834
0.5
0.5
0.5
0.603879
0.593226
0.5
0.5
0.5
0.5
0.5
0.587676
0.5
0.5
0.5
0.509203
0.5
0.5
0.500001
0.500001
0.50042
0.5
0.594047
0.5
0.5
0.5
0.5
0.5
0.5
0.5
0.593426
0.5
0.5
0.5
0.5
0.5
0.507637
0.5
0.530171
0.5
0.5
0.5
0.539879
0.5
0.5
0.5
0.5
0.5
0.5
0.605166
0.506657
0.526972
0.5
0.5
0.58757
0.520222
0.5
0.5931
0.588336
0.594204
0.5
0.5
0.5
0.5
0.532366
0.500016
0.5
0.5
0.604312
0.5
0.5
0.5
0.5
0.5
0.5
0.5
0.589011
0.5
0.5
0.5
0.50784
0.5
0.605225
0.5
0.5
0.5
0.5
0.610927
0.5
0.575289
0.609386
0.608542
0.5
0.5
0.5
0.5
0.5
0.5
0.5
0.5
0.608162
0.611091
0.5
0.594665
0.5
0.5
0.5
0.5
0.5
0.598072
0.512249
0.5
0.5
0.5
0.5
0.5
0.5
0.5
0.5
0.5
0.5
0.5
0.5
0.548498
0.606634
0.5
0.606155
0.5
0.59603
0.5
0.537488
0.59539
0.5
0.5
0.5
0.595267
0.591079
0.5
0.501834
0.5
0.595844
0.5
0.5
0.596822
0.5
0.5
0.5
0.5
0.5
0.5
0.5
0.5
0.500003
0.500003
0.5
0.5
0.5
0.5
0.509642
0.5
0.520075
0.5
0.5
0.5
0.5
0.5
0.5
0.5
0.578705
0.5
0.5
0.609401
0.5
0.5
0.5
0.615827
0.615465
0.5
0.573645
0.5
0.5
0.517531
0.5
0.5
0.5
0.5
0.51247
0.611822
0.5
0.5
0.5
0.5
0.5
0.5
0.5
0.5
0.5
0.5
0.5
0.5
0.5
0.5
0.515726
0.5
0.515151
0.5
0.5
0.592316
0.5
0.595941
0.5
0.5
0.5
0.591987
0.5
0.591459
0.5
0.5
0.5
0.529014
0.593279
0.500026
0.5
0.5
0.5
0.5
0.592379
0.5
0.5
0.5
0.5
0.605644
0.5
0.6047
0.606602
0.5
0.5
0.5
0.5
0.5
0.5
0.5
0.5
0.5
0.5
0.50011
0.5
0.5
0.5
0.5
0.5
0.5
0.5
0.5
0.539457
0.5
0.5
0.5
0.5
0.5
0.5
0.5
0.5
0.5
0.5
0.595443
0.5
0.5
0.50778
0.5
0.5
0.5
0.5
0.596388
0.5
0.5
0.5
0.594808
0.5
0.5
0.602916
0.5
0.5
0.5
0.5
0.5
0.5
0.5
0.513177
0.5
0.5
0.5
0.5
0.5
0.5
0.5
0.5
0.5
0.5
0.5
0.5
0.608869
0.608523
0.5
0.5
0.5
0.5
0.5
0.5
0.5
0.5
0.5
0.5
0.5
0.5
0.5
0.5
0.5
0.5
0.5
0.5
0.5
0.5
0.5
0.5
0.5
0.5
0.592248
0.5
0.5
0.546826
0.5
0.5
0.5
0.516827
0.593186
0.5
0.5
0.5
0.500001
0.5
0.5
0.5
0.5
0.5
0.5
0.5
0.5
0.5
0.5
0.5
0.5
0.5
0.5
0.5
0.5
0.590619
0.592798
0.5
0.5
0.5
0.5
0.5
0.5
0.5
0.5
0.5
0.5
0.5
0.5
0.5
0.5
0.5
0.5
0.5
0.5
0.5
0.5
0.592696
0.5
0.5
0.5
0.5
0.5
0.5
0.592192
0.5
0.5
0.597512
0.5
0.5
0.5
0.5
0.5
0.5
0.5
0.5
0.5
0.5
0.5
0.507794
0.507292
0.5
0.5
0.5
0.5
0.513718
0.5
0.5
0.5
0.5
0.604795
0.5
0.5
0.5
0.5
0.5
0.5
0.5
0.508382
0.5
0.5
0.5
0.5
0.5
0.5
0.5
0.5
0.591874
0.611947
0.536
0.5
0.5
0.5
0.5
0.5
0.5
0.5
0.5
0.5
0.5
0.5
0.510277
0.5
0.594109
0.594978
0.561139
0.571367
0.526602
0.5
0.5
0.592666
0.5
0.5
0.596892
0.5
0.511802
0.5
0.5
0.5
0.509114
0.59735
0.595594
0.5
0.5
0.5
0.5
0.513815
0.5
0.50747
0.500416
0.5
0.5
0.5
0.5
0.596455
0.5
0.5
0.5073
0.5
0.508532
0.508587
0.507227
0.5
0.5
0.508048
0.5
0.51477
0.589124
0.5
0.5
0.607085
0.5
0.5
0.507361
0.5
0.5
0.5
0.5
0.5
0.5
0.609221
0.5
0.5
0.598104
0.510616
0.5
0.611519
0.5
0.5
0.510263
0.5107
0.592551
0.5
0.593135
0.5
0.5
0.5
0.5
0.5
0.508377
0.5
0.511843
0.514238
0.5
0.5
0.5
0.5
0.5
0.5
0.5
0.5
0.5
0.59351
0.609212
0.5
0.5
0.5
0.5
0.5
0.507458
0.5
0.509042
0.5
0.61117
0.5
0.5
0.5
0.593948
0.5
0.58934
0.5
0.5
0.5
0.5
0.5
0.5
0.5
0.5
0.514673
0.5
0.5
0.5
0.5
0.5
0.5
0.5
0.5
0.5
0.5
0.5
0.565887
0.5
0.5
0.519751
0.5
0.5
0.5
0.5
0.5
0.5
0.5
0.5
0.5
0.5
0.5
0.5
0.5
0.519045
0.5
0.5
0.5
0.603379
0.5
0.5
0.5
0.5
0.5
0.5
0.5
0.5
0.5
0.5
0.51674
0.5
0.5
0.598368
0.5
0.5
0.5
0.5
0.5
0.5
0.5
0.5
0.5
0.5
0.5
0.5
0.5
0.5
0.5
0.6158
0.515265
0.5
0.55219
0.5
0.526057
0.52677
0.508478
0.5
0.572269
0.591113
0.5
0.507426
0.502546
0.596926
0.589681
0.506944
0.5
0.5
0.5
0.501182
0.5
0.5
0.523184
0.5
0.5
0.5
0.5
0.5
0.597719
0.5
0.5
0.594048
0.592967
0.5
0.553315
0.522447
0.5
0.593848
0.5
0.5
0.589197
0.5
0.5
0.61076
0.5
0.526153
0.508452
0.5
0.539886
0.506674
0.598383
0.5
0.5
0.5
0.54416
0.612792
0.602732
0.528385
0.5
0.506811
0.5
0.5
0.5
0.5
0.5
0.510426
0.5
0.5
0.5
0.5
0.594448
0.548295
0.598024
0.5
0.5
0.5
0.590413
0.5
0.506458
0.559933
0.573611
0.5
0.5
0.5
0.542275
0.5
0.507221
0.5
0.602901
0.590231
0.5
0.597758
0.5
0.5
0.581991
0.589867
0.524072
0.564903
0.598596
0.511683
0.507543
0.608071
0.5
0.5
0.521484
0.508452
0.5
0.5
0.5
0.5
0.5
0.591879
0.5
0.5
0.509622
0.511394
0.5
0.50754
0.58416
0.5
0.5
0.5
0.588817
0.577985
0.5
0.557598
0.508636
0.598262
0.609616
0.588737
0.507385
0.592971
0.530859
0.5
0.5
0.603016
0.5
0.515547
0.515616
0.60568
0.5
0.5
0.5
0.567274
0.600155
0.507562
0.5
0.5
0.5
0.519651
0.591616
0.5
0.5
0.589749
0.549291
0.528628
0.5
0.5
0.5
0.5
0.535421
0.5
0.5
0.582142
0.608831
0.5
0.5
0.537518
0.5
0.5
0.578329
0.5
0.593607
0.5
0.5
0.508805
0.507218
0.5
0.5
0.5
0.590225
0.507492
0.5
0.52139
0.592055
0.5
0.589573
0.5
0.5
0.586356
0.5
0.5
0.577538
0.5
0.509778
0.508261
0.605834
0.5
0.5
0.5
0.5
0.5
0.5
0.51499
0.5
0.5886
0.52166
0.579717
0.591153
0.540581
0.5
0.510759
0.500001
0.56973
0.5
0.525152
0.591997
0.594002
0.518785
0.592819
0.5
0.5
0.5
0.5
0.5
0.508328
0.5
0.5
0.5
0.5
0.586086
0.518913
0.584513
0.5
0.594866
0.526982
0.5
0.5
0.581317
0.575788
0.5
0.507126
0.5
0.5
0.506986
0.573517
0.574174
0.5
0.591538
0.533091
0.589488
0.610398
0.609995
0.508329
0.592366
0.533409
0.5
0.5
0.5
0.5
0.5
0.590713
0.58919
0.593637
0.593329
0.589599
0.607211
0.530419
0.5
0.5
0.589717
0.588135
0.508096
0.5
0.590692
0.557858
0.5
0.5
0.5
0.610315
0.592621
0.511097
0.590162
0.5
0.5
0.58947
0.56225
0.534789
0.597278
0.591451
0.5
0.594454
0.5
0.5
0.59172
0.510288
0.5
0.5
0.5
0.594366
0.590503
0.598437
0.593423
0.585355
0.58556
0.590952
0.589749
0.590277
0.5
0.592983
0.546407
0.593431
0.5
0.510914
0.557224
0.599028
0.578423
0.590647
0.571897
0.500643
0.510342
0.590061
0.592343
0.591776
0.577777
0.5
0.552007
0.5
0.5
0.584801
0.586985
0.588398
0.593144
0.534983
0.590998
0.512584
0.590088
0.5
0.589345
0.5
0.5
0.5
0.5
0.550226
0.593948
0.581863
0.5
0.591586
0.591313
0.592415
0.595689
0.589611
0.591006
0.5
0.593233
0.59855
0.590016
0.595268
0.5
0.507287
0.5
0.50863
0.588534
0.528091
0.606833
0.59405
0.5
0.5
0.5
0.598595
0.593716
0.591261
0.5
0.5
0.507325
0.591726
0.54787
0.59575
0.594175
0.572491
0.588421
0.588414
0.588452
0.591503
0.59352
0.592211
0.5
0.53761
0.5
0.5
0.5
0.5
0.5
0.5
0.5
0.590839
0.5
0.59219
0.60264
0.598851
0.59442
0.592721
0.591747
0.5
0.604608
0.507056
0.58723
0.593788
0.604713
0.594869
0.60845
0.5
0.531478
0.592794
0.5
0.520118
0.502191
0.5
0.561436
0.599435
0.541645
0.593256
0.500831
0.5
0.508948
0.610041
0.594808
0.591117
0.59342
0.590646
0.594321
0.52869
0.596189
0.5
0.587602
0.5
0.5
0.5
0.604123
0.595635
0.513911
0.593995
0.592014
0.59309
0.525443
0.594323
0.610705
0.596519
0.594811
0.5
0.609963
0.593918
0.576562
0.5
0.595274
0.597778
0.598749
0.5
0.593461
0.5
0.612228
0.5
0.595247
0.590904
0.596337
0.58524
0.590862
0.61416
0.510095
0.5
0.593035
0.5
0.513723
0.5
0.551143
0.594348
0.548948
0.508008
0.595573
0.607354
0.582977
0.5
0.592486
0.5
0.5
0.5
0.596058
0.5
0.555619
0.613329
0.599872
0.590649
0.5
0.594461
0.595107
0.509871
0.581852
0.5517
0.5
0.5
0.5
0.594923
0.589957
0.589963
0.5
0.594429
0.592839
0.5
0.60128
0.500002
0.5
0.596098
0.614761
0.5
0.5
0.5
0.5
0.59622
0.604598
0.591613
0.595574
0.596624
0.558341
0.595864
0.597958
0.614808
0.5
0.5
0.596967
0.5
0.597103
0.592075
0.5
0.588075
0.610438
0.5
0.609625
0.610358
0.5
0.614278
0.5
0.614718
0.596517
0.5
0.5
0.5
0.586026
0.614798
0.5
0.5
0.5
0.592802
0.5
0.5
0.592476
0.5
0.594237
0.555891
0.5
0.5
0.5
0.562973
0.597332
0.596454
0.5
0.59282
0.586103
0.614518
0.5
0.500628
0.5
0.5
0.599764
0.604112
0.5
0.596753
0.51088
0.594114
0.5
0.5
0.5
0.509657
0.610111
0.5
0.590268
0.5
0.596093
0.5
0.5
0.607145
0.597351
0.5
0.5
0.613763
0.613407
0.596523
0.600838
0.5
0.5
0.518834
0.518821
0.613354
0.562578
0.5
0.590416
0.593681
0.596648
0.589829
0.590589
0.61301
0.5
0.5
0.594757
0.5
0.599384
0.59197
0.5
0.599071
0.5
0.5
0.599139
0.614558
0.596925
0.599352
0.5
0.596892
0.5
0.5
0.5
0.594553
0.5
0.594637
0.5
0.599668
0.5
0.593612
0.5
0.597205
0.5
0.500523
0.5
0.5
0.5
0.5
0.5
0.5
0.5
0.5
0.5
0.517204
0.600491
0.604979
0.60002
0.597873
0.5
0.5
0.589233
0.559376
0.5
0.5
0.597388
0.596381
0.599233
0.600597
0.5
0.59819
0.507657
0.5
0.611612
0.587829
0.600688
0.612418
0.5
0.5
0.608092
0.5
0.596699
0.5
0.597762
0.5
0.5
0.5
0.596606
0.5
0.5
0.5
0.500003
0.595205
0.600278
0.5
0.593541
0.598853
0.5
0.5
0.50223
0.502185
0.613989
0.598187
0.599401
0.572823
0.55364
0.597249
0.5
0.610186
0.5
0.595238
0.5
0.5
0.5
0.5
0.613002
0.5
0.525441
0.610136
0.599035
0.61198
0.598845
0.587485
0.570179
0.570154
0.5
0.500419
0.5
0.595627
0.527036
0.591033
0.612659
0.5
0.614526
0.6109
0.601007
0.599424
0.611272
0.612732
0.5
0.5
0.591413
0.610562
0.5
0.5
0.592919
0.599342
0.591255
0.5
0.5
0.5
0.5
0.598128
0.5
0.5
0.599689
0.599454
0.5
0.598975
0.609749
0.609017
0.500023
0.5
0.612033
0.613906
0.599884
0.543672
0.5
0.5
0.599631
0.598605
0.598573
0.5
0.5
0.5
0.5
0.599828
0.598139
0.612677
0.5
0.598645
0.509911
0.5
0.5
0.5
0.500493
0.598155
0.597287
0.593609
0.601056
0.500014
0.5
0.5
0.500026
0.5
0.5
0.554525
0.5
0.5
0.573692
0.612911
0.5
0.599201
0.5
0.5
0.614564
0.60022
0.5
0.500009
0.5
0.529457
0.613676
0.61384
0.601652
0.5
0.608011
0.5
0.61536
0.600124
0.589973
0.613803
0.5
0.609412
0.5
0.607948
0.500037
0.5
0.609348
0.5
0.500109
0.5
0.614849
0.611947
0.61194
0.615065
0.5
0.5
0.611214
0.5
0.614883
0.5
0.59186
0.601116
0.501509
0.522046
0.600623
0.500005
0.602129
0.5
0.614856
0.614911
0.526395
0.5
0.5
0.605458
0.509318
0.5
0.615011
0.614035
0.5
0.612412
0.5
0.614966
0.5
0.5
0.582774
0.614687
0.500069
0.601312
0.535113
0.591605
0.5
0.606784
0.613645
0.5
0.519644
0.5
0.5
0.601005
0.614469
0.536708
0.5
0.61385
0.500004
0.608401
0.5
0.614791
0.5
0.600903
0.5
0.5
0.5
0.601428
0.608938
0.601492
0.526599
0.613509
0.597282
0.59954
0.614096
0.5
0.5
0.5
0.5
0.615436
0.600408
0.613281
0.613108
0.5
0.601074
0.5
0.607538
0.606865
0.604747
0.5
0.601609
0.500003
0.60935
0.5
0.5
0.5
0.526929
0.5
0.532254
0.589879
0.520804
0.602462
0.5
0.5
0.5
0.500007
0.5
0.5
0.5
0.602254
0.583197
0.610445
0.612332
0.614302
0.5
0.599303
0.612743
0.597482
0.597424
0.5
0.60668
0.5
0.607201
0.609964
0.5
0.5
0.531039
0.614604
0.5
0.500003
0.613788
0.500005
0.601122
0.596628
0.614951
0.608453
0.614255
0.609979
0.609873
0.611106
0.5
0.5
0.61154
0.601183
0.611932
0.5
0.5
0.5
0.601995
0.614756
0.610917
0.5
0.614032
0.61138
0.5
0.611939
0.610269
0.602403
0.5
0.5
0.603493
0.523272
0.612317
0.5
0.601804
0.614731
0.5
0.601233
0.615515
0.611241
0.5
0.500012
0.5
0.5
0.5
0.5
0.5
0.5
0.525353
0.615088
0.5
0.603196
0.610065
0.601546
0.5
0.607022
0.600686
0.5
0.61066
0.611931
0.607002
0.5
0.592328
0.5
0.610507
0.5
0.5
0.506465
0.5
0.5
0.5
0.608993
0.5
0.601566
0.603583
0.5
0.614976
0.611556
0.611134
0.5
0.601899
0.511522
0.604289
0.607459
0.5
0.5
0.5
0.609624
0.5
0.59773
0.609197
0.609275
0.609489
0.574067
0.5
0.612351
0.614573
0.607179
0.609435
0.5
0.5
0.601278
0.606401
0.610864
0.597179
0.5
0.60082
0.601889
0.609805
0.610032
0.6134
0.508308
0.5
0.611858
0.609184
0.608625
0.600696
0.60168
0.606986
0.5
0.5
0.608747
0.600064
0.5
0.5
0.608743
0.605624
0.5
0.608711
0.609211
0.5
0.500003
0.5
0.600718
0.5
0.5
0.5
0.608159
0.5
0.5
0.605441
0.608327
0.5
0.5
0.5
0.5
0.591508
0.606092
0.500001
0.612674
0.5
0.5
0.5
0.5
0.5
0.5
0.606255
0.5
0.608372
0.5
0.5
0.602292
0.607776
0.5
0.5
0.5
0.608013
0.607168
0.601076
0.5
0.5
0.601138
0.5
0.5
0.5
0.5
0.5
0.5
0.500149
0.5
0.606535
0.5
0.5
0.5
0.5
0.5
0.5
0.5
0.5
0.5
0.606349
0.606237
0.5
0.5
0.5
0.5
0.5
0.5
0.5
0.5
0.5
0.609684
0.598647
0.608974
0.60574
0.5
0.5
0.606895
0.5
0.5
0.5
0.5
0.5
0.5
0.5
0.5
0.5
0.5
0.5
0.5
0.5
0.5
0.606594
0.5
0.5
0.5
0.5
0.610439
0.5
0.5
0.5
0.5
0.5
0.5
0.5
0.5
0.5
0.5
0.5
0.5
0.5
0.5
0.5
0.606685
0.5
0.609489
0.5
0.5
0.5
0.5
0.5
0.5
0.608519
0.5
0.602016
0.602435
0.601589
0.5
0.600307
0.601162
0.5
0.600736
0.607103
0.604532
0.5
0.5
0.5
0.5
0.5
0.5
0.5
0.5
0.5
0.608071
0.5
0.5
0.5
0.5
0.5
0.602848
0.5
0.5
0.608216
0.5
0.5
0.5
0.61033
0.5
0.604843
0.5
0.605315
0.5
0.5
0.607518
0.5
0.603691
0.5
0.5
0.606111
0.5
0.5
0.5
0.5
0.5
0.5
0.5
0.5
0.5
0.5
0.603253
0.5
0.5
0.5
0.5
0.5
0.5
0.606665
0.5
0.5
0.5
0.5
0.5
0.5
0.5
0.5
0.5
0.5
0.5
0.500307
0.5
0.5
0.5
0.602438
0.5
0.5
0.5
0.5
0.5
0.5
0.607298
0.607858
0.5
0.5
0.5
0.5
0.5
0.5
0.5
0.5
0.5
0.5
0.5
0.5
0.5
0.5
0.5
0.5
0.5
0.5
0.5
0.5
0.5
0.5
0.5
0.5
0.5
0.5
0.608823
0.606228
0.5
0.5
0.604235
0.5
0.5
0.5
0.5
0.5
0.5
0.5
0.600188
0.5
0.5
0.5
0.5
0.5
0.5
0.5
0.5
0.5
0.5
0.605542
0.5
0.5
0.5
0.5
0.5
0.5
0.604093
0.5
0.5
0.5
0.5
0.5
0.5
0.5
0.5
0.5
0.5
0.5
0.5
0.5
0.5
0.5
0.5
0.5
0.5
0.604522
0.5
0.5
0.5
0.5
0.5
0.5
0.5
0.5
0.5
0.5
0.5
0.5
0.5
0.5
0.5
0.5
0.5
0.5
0.5
0.5
0.602597
0.5
0.5
0.5
0.608869
0.600719
0.608409
0.5
0.5
0.5
0.5
0.5
0.5
0.5
0.5
0.5
0.5
0.5
0.5
0.5
0.5
0.5
0.5
0.5
0.5
0.5
0.5
0.5
0.5
0.5
0.5
0.5
0.5
0.5
0.5
0.5
0.5
0.5
0.608684
0.5
0.5
0.5
0.5
0.5
0.5
0.5
0.5
0.5
0.5
0.5
0.5
0.5
0.5
0.5
0.5
0.5
0.5
0.5
0.5
0.5
0.5
0.5
0.5
0.5
0.5
0.5
0.5
0.5
0.5
0.5
0.5
0.5
0.5
0.5
0.5
0.5
0.5
0.5
0.5
0.600279
0.5
0.5
0.5
0.5
0.5
0.5
0.5
0.5
0.5
0.5
0.5
0.5
0.5
0.5
0.5
0.5
0.5
0.5
0.5
0.5
0.5
0.5
0.5
0.5
0.5
0.5
0.5
0.5
0.5
0.5
0.5
0.5
0.602864
0.5
0.5
0.5
0.5
0.5
0.5
0.5
0.5
0.5
0.5
0.5
0.5
0.5
0.5
0.5
0.5
0.5
0.5
0.5
0.5
0.5
0.5
0.5
0.5
0.5
0.5
0.5
0.5
0.5
0.5
0.5
0.5
0.5
0.5
0.5
0.5
0.5
0.5
0.5
0.5
0.5
0.5
0.5
0.5
0.5
0.5
0.5
0.5
0.5
0.5
0.5
0.5
0.5
0.5
0.5
0.5
0.5
0.5
0.5
0.5
0.5
0.5
0.5
0.5
0.5
0.5
0.5
0.5
0.5
0.5
0.5
0.5
0.5
0.5
0.5
0.5
0.5
0.5
0.5
0.5
0.5
0.5
0.5
0.5
0.5
0.5
0.5
0.5
0.5
0.5
0.5
0.5
0.5
0.5
0.5
0.5
0.5
0.5
0.5
0.5
0.5
0.5
0.5
0.5
0.5
0.5
0.5
0.5
0.5
0.5
0.5
0.5
0.5
0.5
0.5
0.5
0.5
0.5
0.5
0.5
0.5
0.5
0.5
0.5
0.602398
0.5
0.5
0.5
0.5
0.5
0.5
0.5
0.5
0.5
0.5
0.5
0.5
0.5
0.5
0.5
0.5
0.5
0.5
0.5
0.5
0.5
0.5
0.5
0.5
0.604658
0.5
0.5
0.5
0.5
0.5
0.5
0.5
0.5
0.5
0.5
0.5
0.5
0.5
0.5
0.5
0.5
0.5
0.5
0.5
0.5
0.5
0.5
0.5
0.5
0.5
0.5
0.5
0.5
0.5
0.5
0.5
0.5
0.5
0.5
0.5
0.5
0.5
0.5
0.5
0.5
0.5
0.5
0.5
0.5
0.5
0.5
0.5
0.5
0.5
0.5
0.5
0.5
0.5
0.5
0.5
0.5
0.5
0.5
0.5
0.5
0.5
0.5
0.5
0.5
0.5
0.5
0.5
0.5
0.5
0.5
0.5
0.5
0.605912
0.5
0.5
0.5
0.5
0.5
0.5
0.5
0.5
0.5
0.5
0.5
0.5
0.5
0.5
0.5
0.604141
0.5
0.5
0.5
0.5
0.5
0.5
0.5
0.5
0.5
0.5
0.5
0.5
0.5
0.5
0.5
0.5
0.5
0.5
0.5
0.5
0.5
0.5
0.5
0.5
0.5
0.5
0.5
0.5
0.5
0.5
0.5
0.5
0.5
0.5
0.5
0.5
0.5
0.5
0.5
0.5
0.5
0.5
0.5
0.5
0.5
0.5