# vtk DataFile Version 1.0
unstructured grid
ascii
DATASET UNSTRUCTURED_GRID
points 8094 float
-0.25 0.0574735 0
0.5 0.0546937 0
0.5 -0.0546937 0
-0.25 -0.0574735 0
-0.25 0.0574735 0.01
0.5 0.0546937 0.01
0.5 -0.0546937 0.01
-0.25 -0.0574735 0.01
-0.246045 0.0569295 0
-0.242089 0.0563854 0
-0.238136 0.0558289 0
-0.234184 0.0552582 0
-0.230232 0.0546875 0
-0.226284 0.0540912 0
-0.222337 0.0534933 0
-0.218391 0.0528841 0
-0.214448 0.0522585 0
-0.210504 0.0516328 0
-0.206565 0.0509829 0
-0.202626 0.0503294 0
-0.198689 0.0496667 0
-0.194755 0.0489856 0
-0.190821 0.0483046 0
-0.18689 0.0476022 0
-0.182961 0.0468942 0
-0.179033 0.0461799 0
-0.175108 0.0454463 0
-0.171183 0.0447127 0
-0.167262 0.0439627 0
-0.163342 0.0432056 0
-0.159422 0.0424455 0
-0.155506 0.041668 0
-0.15159 0.0408904 0
-0.147675 0.0401031 0
-0.143762 0.0393092 0
-0.13985 0.0385149 0
-0.135939 0.0377103 0
-0.132028 0.0369056 0
-0.128117 0.0361005 0
-0.124207 0.0352949 0
-0.120296 0.0344893 0
-0.116386 0.0336836 0
-0.112475 0.032878 0
-0.108563 0.0320794 0
-0.104649 0.0312931 0
-0.100735 0.0305068 0
-0.0968152 0.029745 0
-0.0928949 0.0289889 0
-0.0889722 0.0282446 0
-0.0850433 0.0275341 0
-0.0811144 0.0268235 0
-0.0771778 0.0261578 0
-0.0732381 0.0255098 0
-0.0692962 0.0248759 0
-0.0653442 0.0243073 0
-0.0613923 0.0237386 0
-0.0574324 0.0232306 0
-0.0534681 0.0227556 0
-0.0495024 0.0222934 0
-0.0455272 0.0219207 0
-0.041552 0.0215481 0
-0.0375717 0.0212385 0
-0.0335881 0.0209694 0
-0.029604 0.0207098 0
-0.0256151 0.0205369 0
-0.0216262 0.0203639 0
-0.0176357 0.0202396 0
-0.0136441 0.0201487 0
-0.00965243 0.0200635 0
-0.00565987 0.0200372 0
-0.00166732 0.020011 0
0.00232526 0.0200121 0
0.00631785 0.0200329 0
0.0103104 0.0200563 0
0.0143027 0.0201109 0
0.018295 0.0201654 0
0.022287 0.0202345 0
0.0262788 0.0203144 0
0.0302706 0.0203957 0
0.034262 0.0204956 0
0.0382534 0.0205955 0
0.0422446 0.0207045 0
0.0462355 0.0208207 0
0.0502265 0.0209377 0
0.054217 0.0210676 0
0.0582075 0.0211975 0
0.0621978 0.0213339 0
0.0661879 0.0214757 0
0.0701781 0.021618 0
0.0741678 0.0217703 0
0.0781575 0.0219227 0
0.0821471 0.0220801 0
0.0861364 0.022242 0
0.0901258 0.0224041 0
0.0941148 0.0225747 0
0.0981038 0.0227453 0
0.102093 0.0229202 0
0.106081 0.023099 0
0.11007 0.0232779 0
0.114058 0.0234644 0
0.118046 0.0236509 0
0.122035 0.0238411 0
0.126022 0.024035 0
0.13001 0.0242288 0
0.133998 0.0244298 0
0.137986 0.0246308 0
0.141973 0.0248352 0
0.14596 0.025043 0
0.149947 0.0252509 0
0.153934 0.0254654 0
0.157921 0.02568 0
0.161908 0.0258978 0
0.165894 0.026119 0
0.169881 0.0263402 0
0.173867 0.0265678 0
0.177853 0.0267956 0
0.181839 0.0270264 0
0.185825 0.0272607 0
0.189811 0.0274951 0
0.193796 0.0277356 0
0.197781 0.0279764 0
0.201767 0.02822 0
0.205752 0.0284673 0
0.209737 0.0287146 0
0.213721 0.0289679 0
0.217706 0.0292217 0
0.22169 0.0294782 0
0.225674 0.0297385 0
0.229658 0.0299988 0
0.233642 0.0302651 0
0.237626 0.0305319 0
0.241609 0.0308014 0
0.245593 0.0310748 0
0.249576 0.0313482 0
0.253559 0.0316276 0
0.257542 0.0319077 0
0.261524 0.0321904 0
0.265507 0.0324772 0
0.269489 0.032764 0
0.273471 0.0330568 0
0.277453 0.0333504 0
0.281434 0.0336466 0
0.285416 0.0339471 0
0.289397 0.0342476 0
0.293378 0.034554 0
0.297359 0.0348615 0
0.301339 0.0351714 0
0.305319 0.0354859 0
0.3093 0.0358005 0
0.313279 0.036121 0
0.317259 0.0364427 0
0.321239 0.0367667 0
0.325218 0.0370957 0
0.329197 0.0374248 0
0.333175 0.0377597 0
0.337154 0.0380961 0
0.341132 0.0384347 0
0.34511 0.0387786 0
0.349088 0.0391226 0
0.353065 0.0394724 0
0.357042 0.0398239 0
0.361019 0.0401775 0
0.364995 0.0405368 0
0.368972 0.0408961 0
0.372948 0.0412613 0
0.376924 0.0416285 0
0.380899 0.0419975 0
0.384874 0.0423727 0
0.388849 0.0427479 0
0.392823 0.0431289 0
0.396798 0.0435123 0
0.400772 0.0438973 0
0.404745 0.044289 0
0.408718 0.0446807 0
0.412691 0.0450781 0
0.416664 0.0454782 0
0.420636 0.0458797 0
0.424608 0.0462883 0
0.42858 0.046697 0
0.432551 0.0471114 0
0.436521 0.0475289 0
0.440492 0.0479474 0
0.444462 0.0483738 0
0.448432 0.0488001 0
0.452401 0.0492319 0
0.45637 0.0496673 0
0.460338 0.0501035 0
0.464306 0.0505482 0
0.468274 0.0509928 0
0.472241 0.0514427 0
0.476208 0.0518968 0
0.480175 0.0523512 0
0.48414 0.0528148 0
0.488106 0.0532784 0
0.492071 0.0537471 0
0.496036 0.0542204 0
0.5 0.050787 0
0.5 0.0468803 0
0.5 0.0429736 0
0.5 0.0390669 0
0.5 0.0351602 0
0.5 0.0312535 0
0.5 0.0273468 0
0.5 0.0234402 0
0.5 0.0195335 0
0.5 0.0156268 0
0.5 0.0117201 0
0.5 0.00781339 0
0.5 0.00390669 0
0.5 1.43781e-13 0
0.5 -0.00390669 0
0.5 -0.00781339 0
0.5 -0.0117201 0
0.5 -0.0156268 0
0.5 -0.0195335 0
0.5 -0.0234402 0
0.5 -0.0273468 0
0.5 -0.0312535 0
0.5 -0.0351602 0
0.5 -0.0390669 0
0.5 -0.0429736 0
0.5 -0.0468803 0
0.5 -0.050787 0
0.496036 -0.0542204 0
0.492071 -0.0537471 0
0.488106 -0.0532784 0
0.48414 -0.0528148 0
0.480175 -0.0523512 0
0.476208 -0.0518968 0
0.472241 -0.0514427 0
0.468274 -0.0509928 0
0.464306 -0.0505482 0
0.460338 -0.0501035 0
0.45637 -0.0496673 0
0.452401 -0.0492319 0
0.448432 -0.0488001 0
0.444462 -0.0483738 0
0.440492 -0.0479474 0
0.436521 -0.0475289 0
0.432551 -0.0471114 0
0.42858 -0.046697 0
0.424608 -0.0462883 0
0.420636 -0.0458797 0
0.416664 -0.0454782 0
0.412691 -0.0450781 0
0.408718 -0.0446807 0
0.404745 -0.044289 0
0.400772 -0.0438973 0
0.396798 -0.0435123 0
0.392823 -0.0431289 0
0.388849 -0.0427479 0
0.384874 -0.0423727 0
0.380899 -0.0419975 0
0.376924 -0.0416285 0
0.372948 -0.0412613 0
0.368972 -0.0408961 0
0.364995 -0.0405368 0
0.361019 -0.0401775 0
0.357042 -0.0398239 0
0.353065 -0.0394724 0
0.349088 -0.0391226 0
0.34511 -0.0387786 0
0.341132 -0.0384347 0
0.337154 -0.0380961 0
0.333175 -0.0377597 0
0.329197 -0.0374248 0
0.325218 -0.0370957 0
0.321239 -0.0367667 0
0.317259 -0.0364427 0
0.313279 -0.036121 0
0.3093 -0.0358005 0
0.305319 -0.0354859 0
0.301339 -0.0351714 0
0.297359 -0.0348615 0
0.293378 -0.034554 0
0.289397 -0.0342476 0
0.285416 -0.0339471 0
0.281434 -0.0336466 0
0.277453 -0.0333504 0
0.273471 -0.0330568 0
0.269489 -0.032764 0
0.265507 -0.0324772 0
0.261524 -0.0321904 0
0.257542 -0.0319077 0
0.253559 -0.0316276 0
0.249576 -0.0313482 0
0.245593 -0.0310748 0
0.241609 -0.0308014 0
0.237626 -0.0305319 0
0.233642 -0.0302651 0
0.229658 -0.0299988 0
0.225674 -0.0297385 0
0.22169 -0.0294782 0
0.217706 -0.0292217 0
0.213721 -0.0289679 0
0.209737 -0.0287146 0
0.205752 -0.0284673 0
0.201767 -0.02822 0
0.197781 -0.0279764 0
0.193796 -0.0277356 0
0.189811 -0.0274951 0
0.185825 -0.0272607 0
0.181839 -0.0270264 0
0.177853 -0.0267956 0
0.173867 -0.0265678 0
0.169881 -0.0263402 0
0.165894 -0.026119 0
0.161908 -0.0258978 0
0.157921 -0.02568 0
0.153934 -0.0254654 0
0.149947 -0.0252509 0
0.14596 -0.025043 0
0.141973 -0.0248352 0
0.137986 -0.0246308 0
0.133998 -0.0244298 0
0.13001 -0.0242288 0
0.126022 -0.024035 0
0.122035 -0.0238411 0
0.118046 -0.0236509 0
0.114058 -0.0234644 0
0.11007 -0.0232779 0
0.106081 -0.023099 0
0.102093 -0.0229202 0
0.0981038 -0.0227453 0
0.0941148 -0.0225747 0
0.0901258 -0.0224041 0
0.0861364 -0.022242 0
0.0821471 -0.0220801 0
0.0781575 -0.0219227 0
0.0741678 -0.0217703 0
0.0701781 -0.021618 0
0.0661879 -0.0214757 0
0.0621978 -0.0213339 0
0.0582075 -0.0211975 0
0.054217 -0.0210676 0
0.0502265 -0.0209377 0
0.0462355 -0.0208207 0
0.0422446 -0.0207045 0
0.0382534 -0.0205955 0
0.034262 -0.0204956 0
0.0302706 -0.0203957 0
0.0262788 -0.0203144 0
0.022287 -0.0202345 0
0.018295 -0.0201654 0
0.0143027 -0.0201109 0
0.0103104 -0.0200563 0
0.00631785 -0.0200329 0
0.00232526 -0.0200121 0
-0.00166732 -0.020011 0
-0.00565987 -0.0200372 0
-0.00965243 -0.0200635 0
-0.0136441 -0.0201487 0
-0.0176357 -0.0202396 0
-0.0216262 -0.0203639 0
-0.0256151 -0.0205369 0
-0.029604 -0.0207098 0
-0.0335881 -0.0209694 0
-0.0375717 -0.0212385 0
-0.041552 -0.0215481 0
-0.0455272 -0.0219207 0
-0.0495024 -0.0222934 0
-0.0534681 -0.0227556 0
-0.0574324 -0.0232306 0
-0.0613923 -0.0237386 0
-0.0653442 -0.0243073 0
-0.0692962 -0.0248759 0
-0.0732381 -0.0255098 0
-0.0771778 -0.0261578 0
-0.0811144 -0.0268235 0
-0.0850433 -0.0275341 0
-0.0889722 -0.0282446 0
-0.0928949 -0.0289889 0
-0.0968152 -0.029745 0
-0.100735 -0.0305068 0
-0.104649 -0.0312931 0
-0.108563 -0.0320794 0
-0.112475 -0.032878 0
-0.116386 -0.0336836 0
-0.120296 -0.0344893 0
-0.124207 -0.0352949 0
-0.128117 -0.0361005 0
-0.132028 -0.0369056 0
-0.135939 -0.0377103 0
-0.13985 -0.0385149 0
-0.143762 -0.0393092 0
-0.147675 -0.0401031 0
-0.15159 -0.0408904 0
-0.155506 -0.041668 0
-0.159422 -0.0424455 0
-0.163342 -0.0432056 0
-0.167262 -0.0439627 0
-0.171183 -0.0447127 0
-0.175108 -0.0454463 0
-0.179033 -0.0461799 0
-0.182961 -0.0468942 0
-0.18689 -0.0476022 0
-0.190821 -0.0483046 0
-0.194755 -0.0489856 0
-0.198689 -0.0496667 0
-0.202626 -0.0503294 0
-0.206565 -0.0509829 0
-0.210504 -0.0516328 0
-0.214448 -0.0522585 0
-0.218391 -0.0528841 0
-0.222337 -0.0534933 0
-0.226284 -0.0540912 0
-0.230232 -0.0546875 0
-0.234184 -0.0552582 0
-0.238136 -0.0558289 0
-0.242089 -0.0563854 0
-0.246045 -0.0569295 0
-0.25 -0.0535098 0
-0.25 -0.0495461 0
-0.25 -0.0455824 0
-0.25 -0.0416187 0
-0.25 -0.0376551 0
-0.25 -0.0336914 0
-0.25 -0.0297277 0
-0.25 -0.025764 0
-0.25 -0.0218003 0
-0.25 -0.0178366 0
-0.25 -0.0138729 0
-0.25 -0.00990922 0
-0.25 -0.00594553 0
-0.25 -0.00198184 0
-0.25 0.00198184 0
-0.25 0.00594553 0
-0.25 0.00990922 0
-0.25 0.0138729 0
-0.25 0.0178366 0
-0.25 0.0218003 0
-0.25 0.025764 0
-0.25 0.0297277 0
-0.25 0.0336914 0
-0.25 0.0376551 0
-0.25 0.0416187 0
-0.25 0.0455824 0
-0.25 0.0495461 0
-0.25 0.0535098 0
-0.246045 0.0569295 0.01
-0.242089 0.0563854 0.01
-0.238136 0.0558289 0.01
-0.234184 0.0552582 0.01
-0.230232 0.0546875 0.01
-0.226284 0.0540912 0.01
-0.222337 0.0534933 0.01
-0.218391 0.0528841 0.01
-0.214448 0.0522585 0.01
-0.210504 0.0516328 0.01
-0.206565 0.0509829 0.01
-0.202626 0.0503294 0.01
-0.198689 0.0496667 0.01
-0.194755 0.0489856 0.01
-0.190821 0.0483046 0.01
-0.18689 0.0476022 0.01
-0.182961 0.0468942 0.01
-0.179033 0.0461799 0.01
-0.175108 0.0454463 0.01
-0.171183 0.0447127 0.01
-0.167262 0.0439627 0.01
[...]
CELL_DATA 7657
SCALARS rho float
LOOKUP_TABLE default
0.527606
0.515837
0.501584
0.461157
0.504076
0.490615
0.450345
0.499421
0.499043
0.506289
0.506332
0.499392
0.480304
0.499397
0.503366
0.501876
0.503258
0.500792
0.500763
0.499618
0.502622
0.500601
0.510999
0.500773
0.499651
0.499341
0.440689
0.485431
0.50551
0.491153
0.436862
0.499646
0.50916
0.534548
0.53218
0.438326
0.491434
0.510479
0.516077
0.422067
0.50158
0.49781
0.477753
0.486458
0.501592
0.501497
0.45482
0.490199
0.499688
0.529646
0.485712
0.462294
0.505514
0.504666
0.449122
0.492757
0.502767
0.5019
0.548707
0.435422
0.499666
0.5016
0.499551
0.499531
0.506423
0.506471
0.480409
0.494955
0.50523
0.550533
0.50157
0.481765
0.473529
0.505538
0.5365
0.489455
0.500609
0.488905
0.538962
0.483754
0.50909
0.499451
0.499632
0.501615
0.501539
0.547352
0.50158
0.550655
0.499351
0.438664
0.506439
0.50648
0.548416
0.504897
0.423191
0.547444
0.548231
0.512617
0.501585
0.423169
0.500754
0.499992
0.514775
0.502279
0.456449
0.502705
0.427394
0.495938
0.485098
0.50226
0.436951
0.495564
0.482887
0.499622
0.501312
0.547286
0.496403
0.421797
0.502588
0.490559
0.506639
0.506581
0.427022
0.515055
0.499541
0.499392
0.499394
0.477708
0.494093
0.478712
0.457166
0.500383
0.493162
0.472639
0.499616
0.429094
0.501765
0.509155
0.500282
0.500237
0.427679
0.435367
0.421712
0.422528
0.500903
0.50245
0.507296
0.516819
0.501613
0.427404
0.421716
0.506011
0.526693
0.478673
0.502434
0.51586
0.49501
0.500493
0.499625
0.429869
0.500446
0.501851
0.49934
0.546974
0.50144
0.514937
0.514176
0.482365
0.501306
0.502112
0.501617
0.504202
0.500429
0.421647
0.441135
0.439733
0.469793
0.548837
0.49953
0.421681
0.422522
0.484068
0.50009
0.500039
0.478641
0.548818
0.492115
0.470813
0.499342
0.549601
0.505494
0.505259
0.499627
0.546044
0.49935
0.493725
0.499638
0.501813
0.43981
0.501388
0.500842
0.500033
0.548976
0.548506
0.441348
0.505071
0.487322
0.458055
0.531567
0.547407
0.500578
0.501597
0.501417
0.49962
0.501629
0.471145
0.444227
0.546789
0.495667
0.501448
0.516013
0.517514
0.506174
0.495354
0.488675
0.510604
0.48729
0.426015
0.488481
0.50622
0.501231
0.501234
0.483192
0.50253
0.503054
0.499629
0.548701
0.499913
0.499872
0.501779
0.500448
0.422904
0.548137
0.509267
0.540869
0.546176
0.492288
0.547311
0.495242
0.48784
0.438463
0.468179
0.49621
0.529656
0.443047
0.470093
0.516677
0.503617
0.505496
0.495414
0.51363
0.50577
0.502913
0.501354
0.446008
0.501576
0.548056
0.423347
0.50084
0.421965
0.474572
0.436488
0.435148
0.499636
0.542151
0.501266
0.481233
0.495526
0.495193
0.499379
0.513056
0.499414
0.426896
0.42464
0.467499
0.437169
0.424608
0.455803
0.528794
0.501098
0.501209
0.472228
0.428085
0.505831
0.496073
0.443087
0.51381
0.499475
0.546415
0.501172
0.546555
0.505452
0.422146
0.491012
0.44114
0.547986
0.447206
0.47325
0.500913
0.495851
0.49939
0.547677
0.501789
0.494207
0.499717
0.501827
0.505767
0.50414
0.495697
0.4994
0.480519
0.510212
0.505751
0.548871
0.502342
0.503823
0.491955
0.525167
0.502147
0.501148
0.503305
0.504012
0.502673
0.519387
0.499441
0.53562
0.496043
0.426023
0.499736
0.505508
0.499343
0.441288
0.519331
0.502416
0.499647
0.442651
0.505484
0.518018
0.50151
0.502065
0.491344
0.500538
0.499623
0.500492
0.44753
0.499728
0.500352
0.459756
0.499702
0.456424
0.49787
0.50065
0.501481
0.546984
0.502696
0.440136
0.499347
0.422396
0.54729
0.54604
0.491912
0.542556
0.499584
0.499582
0.485076
0.481596
0.500442
0.53485
0.501031
0.503604
0.50151
0.500868
0.434511
0.499553
0.505638
0.506014
0.533542
0.49936
0.499323
0.502001
0.498038
0.496168
0.495851
0.499592
0.499347
0.548104
0.444029
0.505712
0.501945
0.491248
0.49963
0.49964
0.500958
0.505959
0.422497
0.542763
0.501664
0.473068
0.501962
0.503161
0.500401
0.492198
0.499543
0.459496
0.55181
0.499568
0.501547
0.499429
0.459655
0.513073
0.511095
0.499424
0.461759
0.523697
0.516565
0.501279
0.550228
0.499515
0.4767
0.499941
0.545548
0.446992
0.521355
0.499645
0.499395
0.504591
0.505375
0.500302
0.501985
0.500809
0.490329
0.503502
0.433367
0.505591
0.499375
0.501534
0.500458
0.459896
0.50284
0.547443
0.499703
0.499771
0.498432
0.454563
0.489745
0.552306
0.451909
0.501853
0.502007
0.548266
0.524292
0.494705
0.501086
0.554392
0.525213
0.499557
0.501532
0.505387
0.449211
0.446066
0.504749
0.49867
0.541466
0.525286
0.502846
0.500073
0.499402
0.48982
0.426056
0.505488
0.548055
0.505526
0.500503
0.500395
0.501567
0.495302
0.424493
0.432743
0.505521
0.499515
0.501829
0.499613
0.499369
0.552626
0.499365
0.46733
0.461082
0.48814
0.535763
0.531144
0.49945
0.499436
0.544666
0.499512
0.548073
0.547953
0.521619
0.474487
0.548231
0.502923
0.425335
0.499423
0.500115
0.50188
0.500718
0.499503
0.507382
0.500571
0.511701
0.512688
0.501889
0.499595
0.499421
0.453642
0.499374
0.499473
0.505866
0.501582
0.505972
0.499579
0.497238
0.502602
0.499415
0.541642
0.501568
0.500072
0.501529
0.499426
0.445417
0.501015
0.501526
0.500067
0.545214
0.499358
0.4994
0.49957
0.500165
0.475497
0.492087
0.500206
0.502155
0.459125
0.541479
0.499304
0.510606
0.505389
0.42296
0.499307
0.505886
0.527783
0.503906
0.486743
0.49953
0.471146
0.500262
0.504575
0.506048
0.499577
0.438195
0.534386
0.554179
0.48763
0.500509
0.513646
0.55311
0.463274
0.499393
0.499628
0.499333
0.499388
0.491433
0.532373
0.554482
0.495097
0.500232
0.540209
0.4995
0.546946
0.505923
0.469756
0.499326
0.499423
0.458338
0.545568
0.553064
0.495059
0.441132
0.493024
0.501567
0.49936
0.553339
0.502699
0.495571
0.499321
0.499401
0.49943
0.499317
0.551823
0.496405
0.503001
0.499303
0.499344
0.499378
0.504604
0.501605
0.502679
0.499612
0.543705
0.544315
0.499424
0.433152
0.505194
0.505696
0.499528
0.499447
0.499481
0.514376
0.547246
0.547625
0.497083
0.500736
0.494644
0.5054
0.499469
0.478831
0.499486
0.542976
0.4996
0.505182
0.500794
0.505001
0.500067
0.49981
0.467881
0.452186
0.499546
0.499624
0.499452
0.531755
0.499368
0.503631
0.499439
0.501495
0.499508
0.499645
0.499325
0.43255
0.500114
0.49953
0.499559
0.425802
0.499421
0.502349
0.545605
0.499538
0.50042
0.544214
0.49938
0.499409
0.528544
0.499531
0.553011
0.539967
0.502279
0.464584
0.527263
0.524944
0.526402
0.499648
0.499398
0.501571
0.499509
0.530293
0.499339
0.499413
0.499387
0.497318
0.459368
0.4988
0.432083
0.544959
0.499379
0.49932
0.499489
0.500198
0.499318
0.499586
0.489857
0.503568
0.503261
0.461471
0.50029
0.491214
0.505326
0.461126
0.481718
0.499377
0.494824
0.499367
0.499501
0.499508
0.465639
0.49937
0.505099
0.500558
0.46877
0.501465
0.505802
0.551429
0.541543
0.480826
0.528833
0.499486
0.499488
0.504702
0.499479
0.499352
0.505322
0.435717
0.552338
0.499599
0.504788
0.47988
0.535473
0.499308
0.546853
0.506232
0.540119
0.499511
0.499565
0.499495
0.523063
0.504701
0.552933
0.445477
0.499489
0.506478
0.502395
0.426274
0.499325
0.505106
0.469891
0.499525
0.508602
0.505963
0.502965
0.50493
0.42212
0.504806
0.50517
0.519928
0.505041
0.499571
0.499605
0.499556
0.499425
0.496439
0.502576
0.499553
0.499336
0.500528
0.500579
0.504209
0.49959
0.504962
0.499318
0.504993
0.504066
0.504866
0.500751
0.480844
0.499561
0.42173
0.499492
0.458127
0.499604
0.504877
0.474898
0.552339
0.500113
0.544164
0.459676
0.499332
0.499458
0.501628
0.502096
0.499472
0.552624
0.532035
0.538609
0.50451
0.429368
0.471726
0.499309
0.535259
0.55381
0.554288
0.48509
0.504604
0.499387
0.549173
0.487669
0.473403
0.483508
0.462979
0.504287
0.4996
0.482621
0.499477
0.502827
0.499596
0.511718
0.499609
0.499557
0.456473
0.553531
0.499304
0.422001
0.546349
0.46826
0.499517
0.49929
0.421748
0.499296
0.499549
0.442601
0.505857
0.499604
0.504048
0.499576
0.499564
0.499345
0.499631
0.505989
0.505386
0.503931
0.501467
0.552252
0.551309
0.478817
0.50417
0.505535
0.429331
0.500943
0.422302
0.499415
0.547733
0.504656
0.547636
0.502514
0.502821
0.499554
0.502318
0.502955
0.479836
0.499426
0.499531
0.427235
0.503305
0.459713
0.500866
0.50544
0.475031
0.499307
0.503055
0.421972
0.426358
0.504611
0.504054
0.499436
0.504419
0.499359
0.549838
0.499333
0.49737
0.494985
0.5004
0.499404
0.499416
0.5044
0.484024
0.499425
0.484304
0.503174
0.504174
0.503429
0.504196
0.499347
0.503308
0.552486
0.503077
0.503465
0.502101
0.499539
0.50198
0.423923
0.499399
0.426142
0.550111
0.447005
0.485887
0.421548
0.428322
0.550947
0.550731
0.504379
0.499357
0.503272
0.499356
0.507744
0.55286
0.499606
0.499344
0.504905
0.499291
0.551687
0.423127
0.503033
0.549941
0.550372
0.480441
0.501739
0.499302
0.499292
0.427476
0.553572
0.553995
0.499488
0.482637
0.484324
0.473279
0.422581
0.504815
0.499647
0.499453
0.500461
0.423722
0.421598
0.499583
0.499348
0.501627
0.424892
0.483881
0.483938
0.485936
0.499344
0.430408
0.526424
0.499404
0.436767
0.499579
0.501865
0.499304
0.499446
0.495228
0.486676
0.499551
0.421511
0.548327
0.499288
0.499506
0.526631
0.520149
0.499501
0.499599
0.544586
0.434469
0.499419
0.499439
0.488045
0.438052
0.499576
0.502632
0.499336
0.499296
0.49945
0.499444
0.499572
0.49932
0.499964
0.42894
0.423165
0.502692
0.442431
0.4996
0.553782
0.504862
0.504823
0.537216
0.534003
0.499563
0.499356
0.499613
0.541452
0.502158
0.499327
0.499523
0.499556
0.42256
0.499592
0.503095
0.499333
0.499529
0.47678
0.505271
0.499387
0.499354
0.480271
0.480225
0.504742
0.499308
0.501729
0.499611
0.501585
0.501438
0.436634
0.423991
0.500773
0.499291
0.502086
0.445472
0.499376
0.454872
0.431646
0.499516
0.505351
0.499428
0.504599
0.501469
0.501458
0.501528
0.504464
0.500818
0.499627
0.499303
0.500807
0.476813
0.501584
0.53142
0.517849
0.504795
0.433649
0.487357
0.504054
0.50427
0.499468
0.502248
0.504019
0.501787
0.499468
0.453213
0.43439
0.500641
0.504823
0.491051
0.499406
0.494336
0.522263
0.499437
0.483462
0.499917
0.499566
0.500033
0.499592
0.499308
0.50393
0.499399
0.499341
0.499552
0.505336
0.499391
0.528647
0.488741
0.499577
0.44383
0.499318
0.551643
0.432388
0.504504
0.549694
0.542926
0.499303
0.489375
0.499588
0.456393
0.424437
0.454672
0.499572
0.499349
0.542789
0.543873
0.422356
0.501646
0.499358
0.499317
0.438097
0.422049
0.499408
0.50232
0.505194
0.499329
0.499375
0.427435
0.499294
0.494319
0.430675
0.499496
0.499355
0.500604
0.499624
0.421591
0.499447
0.504179
0.535279
0.499323
0.533088
0.499581
0.501635
0.499541
0.505041
0.5014
0.434283
0.501611
0.501614
0.501459
0.50272
0.499322
0.511652
0.499387
0.501292
0.499384
0.435377
0.501962
0.499567
0.499333
0.422955
0.435364
0.499337
0.442483
0.48662
0.425313
0.48556
0.485516
0.487375
0.485906
0.499369
0.432846
0.505262
0.499421
0.50481
0.499553
0.446915
0.499343
0.499494
0.499341
0.426178
0.499571
0.504261
0.499374
0.49936
0.547413
0.499587
0.438064
0.444056
0.551699
0.551453
0.499543
0.50441
0.438121
0.499329
0.505116
0.499581
0.49961
0.500159
0.500692
0.505427
0.550764
0.466047
0.451665
0.499517
0.435419
0.49935
0.453142
0.497518
0.499554
0.499428
0.499379
0.499457
0.499916
0.499869
0.46997
0.505283
0.432426
0.504374
0.499315
0.499544
0.502685
0.499605
0.501293
0.500624
0.463097
0.445179
0.502626
0.490022
0.502561
0.499457
0.499481
0.427343
0.505111
0.502014
0.493426
0.499483
0.448395
0.423021
0.499403
0.502442
0.450038
0.494798
0.475061
0.43037
0.533694
0.499451
0.529066
0.538109
0.499431
0.499898
0.499941
0.43634
0.499457
0.499577
0.499567
0.429237
0.500018
0.499333
0.498458
0.443856
0.499407
0.499489
0.499369
0.499538
0.499487
0.499587
0.499485
0.504252
0.499506
0.500587
0.500834
0.499315
0.499311
0.499378
0.441062
0.499379
0.50103
0.501009
0.501422
0.49946
0.499296
0.5056
0.499428
0.500209
0.49938
0.499305
0.501198
0.475738
0.499326
0.475774
0.501586
0.500927
0.446825
0.517522
0.501576
0.501562
0.499574
0.499517
0.49521
0.499587
0.49947
0.505187
0.499332
0.49933
0.476688
0.499568
0.499394
0.49949
0.491748
0.499602
0.499475
0.49935
0.499311
0.499528
0.548494
0.545638
0.493838
0.499456
0.49937
0.499542
0.482549
0.481595
0.481688
0.500025
0.499338
0.499466
0.499535
0.499608
0.499949
0.449784
0.4999
0.500067
0.499543
0.471735
0.499365
0.494738
0.499504
0.500443
0.500432
0.499328
0.50223
0.499423
0.434539
0.504931
0.499593
0.422095
0.501563
0.505367
0.502098
0.500675
0.446829
0.478629
0.482283
0.501627
0.499304
0.499449
0.499791
0.500155
0.501067
0.499562
0.499747
0.501289
0.501038
0.500588
0.499513
0.500042
0.499418
0.423804
0.500937
0.503019
0.502279
0.499312
0.49936
0.500413
0.499355
0.499508
0.499357
0.428893
0.501016
0.499494
0.499499
0.499432
0.499518
0.49949
0.499393
0.46981
0.499752
0.499745
0.49945
0.499336
0.499468
0.502483
0.453167
0.499351
0.499524
0.499553
0.499431
0.468696
0.502263
0.499318
0.428199
0.501694
0.499464
0.463096
0.499437
0.477845
0.501255
0.434051
0.434037
0.477832
0.477807
0.499599
0.499335
0.505349
0.505419
0.475731
0.499451
0.499575
0.491768
0.521137
0.499366
0.440951
0.499349
0.499383
0.524339
0.422998
0.432627
0.490615
0.499524
0.4995
0.499473
0.499511
0.505655
0.499302
0.499294
0.49929
0.499449
0.499315
0.499467
0.499367
0.500438
0.502882
0.544044
0.504601
0.499381
0.49938
0.499519
0.49933
0.501417
0.499335
0.499322
0.500152
0.499372
0.499295
0.499294
0.505512
0.499319
0.538606
0.501539
0.532137
0.534116
0.50468
0.499323
0.499562
0.501938
0.423749
0.49943
0.501144
0.499325
0.505215
0.499323
0.499339
0.449993
0.505294
0.501092
0.501384
0.498304
0.498321
0.499306
0.45149
0.505275
0.499384
0.504992
0.504945
0.499403
0.499298
0.425967
0.494758
0.501231
0.501087
0.423738
0.505875
0.422338
0.506073
0.506051
0.50474
0.421789
0.499416
0.504675
0.499359
0.505006
0.503896
0.499362
0.499572
0.540199
0.436425
0.449987
0.505749
0.489351
0.499302
0.453084
0.440475
0.438375
0.499331
0.533208
0.421916
0.456378
0.501044
0.505505
0.499467
0.542886
0.499306
0.471094
0.505955
0.505937
0.502093
0.499409
0.502289
0.499424
0.44473
0.499493
0.499524
0.499317
0.505374
0.499414
0.504928
0.50535
0.499429
0.422305
0.499601
0.499569
0.426177
0.440892
0.439401
0.492847
0.499287
0.502103
0.531769
0.499289
0.499308
0.49932
0.499386
0.499298
0.50582
0.499978
0.505511
0.421523
0.541523
0.499307
0.47459
0.474578
0.501926
0.499626
0.50264
0.499311
0.499319
0.499314
0.499898
0.499854
0.499318
0.499305
0.499455
0.505182
0.48163
0.499328
0.499332
0.499329
0.482565
0.482481
0.499487
0.499372
0.499297
0.499504
0.499294
0.504102
0.499476
0.491153
0.505111
0.485075
0.485063
0.499346
0.499454
0.499395
0.49932
0.499081
0.499092
0.495165
0.500585
0.500577
0.439541
0.499384
0.505177
0.491739
0.499322
0.499313
0.519643
0.499331
0.501538
0.50152
0.501076
0.501051
0.4998
0.499346
0.501554
0.50005
0.500062
0.505132
0.499339
0.500615
0.502829
0.499291
0.500969
0.500949
0.499741
0.499312
0.499754
0.501503
0.501457
0.499321
0.49934
0.500191
0.499589
0.499718
0.423073
0.499332
0.551146
0.505363
0.499289
0.530861
0.49935
0.505637
0.505646
0.505651
0.499554
0.50402
0.502548
0.500868
0.505692
0.513402
0.501165
0.5038
0.504903
0.499293
0.499419
0.499429
0.509571
0.499545
0.499574
0.505273
0.427209
0.428138
0.499318
0.499492
0.501278
0.501044
0.49938
0.499314
0.50199
0.501821
0.499572
0.504455
0.505057
0.499531
0.501583
0.445405
0.448506
0.503486
0.50151
0.491759
0.540144
0.421546
0.504836
0.505639
0.499451
0.505109
0.505608
0.501068
0.499344
0.424457
0.499554
0.504586
0.551964
0.50461
0.504527
0.499298
0.504438
0.436783
0.499336
0.428149
0.500207
0.49934
0.505547
0.426127
0.426127
0.499443
0.501349
0.501818
0.50423
0.501033
0.499286
0.421476
0.499349
0.50313
0.499476
0.504726
0.503735
0.503609
0.499324
0.500976
0.499329
0.503852
0.499306
0.505525
0.499345
0.507204
0.502433
0.499354
0.501064
0.499936
0.499922
0.503469
0.502507
0.505049
0.503776
0.501151
0.505226
0.505394
0.525759
0.499407
0.499623
0.505087
0.504198
0.499403
0.499328
0.499334
0.500357
0.49933
0.502391
0.49802
0.498
0.505518
0.505454
0.464855
0.504988
0.503846
0.499543
0.499339
0.499448
0.502706
0.503981
0.499552
0.504
0.505323
0.501078
0.535052
0.50392
0.504288
0.501931
0.505206
0.493797
0.499332
0.506221
0.499304
0.505159
0.505143
0.530882
0.499335
0.499314
0.499362
0.503658
0.501474
0.505381
0.434335
0.488678
0.499335
0.50508
0.502895
0.493816
0.499326
0.502895
0.5042
0.505015
0.478818
0.478787
0.499568
0.50046
0.504658
0.45453
0.499569
0.504151
0.529861
0.499315
0.46981
0.504938
0.499574
0.446783
0.503525
0.499674
0.501941
0.499368
0.499464
0.505316
0.50566
0.499321
0.499329
0.499621
0.503662
0.50538
0.499532
0.50522
0.501916
0.493365
0.5038
0.499328
0.49946
0.503314
0.467091
0.499348
0.503984
0.499352
0.504377
0.505458
0.518579
0.499991
0.499737
0.499324
0.499565
0.49994
0.499579
0.505175
0.499326
0.50391
0.505083
0.503565
0.503347
0.504649
0.499397
0.505273
0.482339
0.503817
0.476824
0.505038
0.50299
0.502013
0.505392
0.502607
0.499338
0.485803
0.485835
0.499304
0.499308
0.505403
0.424856
0.423017
0.500886
0.500992
0.503748
0.505112
0.503378
0.499386
0.50167
0.505037
0.499548
0.492283
0.503895
0.503709
0.499344
0.505386
0.434149
0.451646
0.504551
0.504951
0.505083
0.492825
0.502421
0.503894
0.503776
0.538525
0.53689
0.50579
0.502772
0.504965
0.476732
0.501071
0.501051
0.49942
0.492332
0.503511
0.502808
0.502226
0.501786
0.50258
0.522962
0.504992
0.499641
0.430714
0.503325
0.504046
0.504337
0.499374
0.502301
0.504125
0.499313
0.501472
0.501424
0.537367
0.502426
0.505231
0.503658
0.499324
0.500108
0.502703
0.532693
0.504786
0.501101
0.502093
0.499353
0.501874
0.499433
0.499311
0.502273
0.50534
0.49938
0.499326
0.499362
0.501428
0.502351
0.501166
0.501698
0.504463
0.504619
0.502673
0.503766
0.502772
0.499979
0.502246
0.50486
0.502056
0.500353
0.505252
0.504097
0.50106
0.504672
0.5035
0.503598
0.507138
0.504121
0.50362
0.50213
0.502446
0.503575
0.499707
0.504048
0.499429
0.4993
0.503994
0.504044
0.503934
0.501838
0.504961
0.502829
0.504315
0.50257
0.499285
0.503763
0.499325
0.499596
0.499552
0.499341
0.504418
0.501565
0.503783
0.499453
0.503175
0.502467
0.502802
0.501411
0.502701
0.502222
0.499645
0.502415
0.501026
0.502481
0.501525
0.499544
0.505381
0.500456
0.505312
0.503138
0.504285
0.520933
0.502043
0.427194
0.425308
0.499531
0.501049
0.501605
0.502555
0.499592
0.499703
0.505493
0.50199
0.504193
0.50135
0.501496
0.503787
0.503895
0.50395
0.503571
0.50296
0.50169
0.502068
0.501132
0.504383
0.501639
0.439635
0.499478
0.499444
0.499649
0.499378
0.501141
0.502258
0.501645
0.501891
0.505226
0.503229
0.501637
0.501973
0.502014
0.499347
0.513007
0.505392
0.504135
0.501903
0.511613
0.501712
0.527745
0.499364
0.504971
0.502581
0.499515
0.505098
0.513093
0.499588
0.504377
0.50115
0.504786
0.501664
0.507912
0.499323
0.505301
0.538506
0.501494
0.503336
0.50166
0.502615
0.50177
0.505004
0.501239
0.448541
0.503213
0.499345
0.499405
0.499311
0.511358
0.501427
0.505195
0.501774
0.502192
0.501654
0.505326
0.501434
0.53891
0.501232
0.501493
0.436843
0.535532
0.501512
0.503592
0.500254
0.501573
0.501168
0.50129
0.499401
0.501761
0.499355
0.544333
0.499342
0.501545
0.502993
0.501206
0.503356
0.50276
0.545948
0.505295
0.49935
0.501911
0.499289
0.505488
0.4996
0.50378
0.501611
0.505036
0.505448
0.501376
0.541805
0.503435
0.499432
0.501934
0.499345
0.499288
0.499323
0.501284
0.4998
0.504855
0.54502
0.501233
0.502886
0.499391
0.501432
0.501412
0.505356
0.504566
0.530721
0.499406
0.499992
0.49941
0.50134
0.503146
0.503282
0.499422
0.501843
0.50179
0.499933
0.540187
0.484264
0.475094
0.501336
0.546657
0.499326
0.425999
0.423053
0.500891
0.501259
0.541019
0.502371
0.501316
0.501213
0.504221
0.501275
0.501161
0.547238
0.499464
0.450003
0.501677
0.499583
0.501179
0.502095
0.499389
0.503973
0.540144
0.499296
0.536793
0.543203
0.499438
0.548022
0.492349
0.54785
0.501217
0.499334
0.499874
0.499296
0.504298
0.547375
0.499478
0.429091
0.499571
0.50172
0.49977
0.49941
0.501819
0.499325
0.501739
0.504782
0.499476
0.500106
0.499439
0.532797
0.501854
0.501103
0.499307
0.502162
0.504174
0.547819
0.499456
0.507215
0.499471
0.499665
0.501259
0.540829
0.4996
0.501151
0.504937
0.501535
0.499766
0.49964
0.499838
0.504595
0.543012
0.49979
0.503622
0.499834
0.501297
0.499499
0.49974
0.524765
0.501091
0.425334
0.428207
0.547254
0.547002
0.501228
0.501987
0.499421
0.499771
0.522856
0.522895
0.54699
0.504866
0.441114
0.502459
0.501979
0.501157
0.502575
0.503453
0.546597
0.499435
0.499956
0.501328
0.499842
0.501119
0.502971
0.499623
0.501186
0.49962
0.499452
0.504004
0.546425
0.501134