# vtk DataFile Version 1.0
unstructured grid
ascii
DATASET UNSTRUCTURED_GRID
points 8094 float
-0.25 0.0574735 0
0.5 0.0546937 0
0.5 -0.0546937 0
-0.25 -0.0574735 0
-0.25 0.0574735 0.01
0.5 0.0546937 0.01
0.5 -0.0546937 0.01
-0.25 -0.0574735 0.01
-0.246045 0.0569295 0
-0.242089 0.0563854 0
-0.238136 0.0558289 0
-0.234184 0.0552582 0
-0.230232 0.0546875 0
-0.226284 0.0540912 0
-0.222337 0.0534933 0
-0.218391 0.0528841 0
-0.214448 0.0522585 0
-0.210504 0.0516328 0
-0.206565 0.0509829 0
-0.202626 0.0503294 0
-0.198689 0.0496667 0
-0.194755 0.0489856 0
-0.190821 0.0483046 0
-0.18689 0.0476022 0
-0.182961 0.0468942 0
-0.179033 0.0461799 0
-0.175108 0.0454463 0
-0.171183 0.0447127 0
-0.167262 0.0439627 0
-0.163342 0.0432056 0
-0.159422 0.0424455 0
-0.155506 0.041668 0
-0.15159 0.0408904 0
-0.147675 0.0401031 0
-0.143762 0.0393092 0
-0.13985 0.0385149 0
-0.135939 0.0377103 0
-0.132028 0.0369056 0
-0.128117 0.0361005 0
-0.124207 0.0352949 0
-0.120296 0.0344893 0
-0.116386 0.0336836 0
-0.112475 0.032878 0
-0.108563 0.0320794 0
-0.104649 0.0312931 0
-0.100735 0.0305068 0
-0.0968152 0.029745 0
-0.0928949 0.0289889 0
-0.0889722 0.0282446 0
-0.0850433 0.0275341 0
-0.0811144 0.0268235 0
-0.0771778 0.0261578 0
-0.0732381 0.0255098 0
-0.0692962 0.0248759 0
-0.0653442 0.0243073 0
-0.0613923 0.0237386 0
-0.0574324 0.0232306 0
-0.0534681 0.0227556 0
-0.0495024 0.0222934 0
-0.0455272 0.0219207 0
-0.041552 0.0215481 0
-0.0375717 0.0212385 0
-0.0335881 0.0209694 0
-0.029604 0.0207098 0
-0.0256151 0.0205369 0
-0.0216262 0.0203639 0
-0.0176357 0.0202396 0
-0.0136441 0.0201487 0
-0.00965243 0.0200635 0
-0.00565987 0.0200372 0
-0.00166732 0.020011 0
0.00232526 0.0200121 0
0.00631785 0.0200329 0
0.0103104 0.0200563 0
0.0143027 0.0201109 0
0.018295 0.0201654 0
0.022287 0.0202345 0
0.0262788 0.0203144 0
0.0302706 0.0203957 0
0.034262 0.0204956 0
0.0382534 0.0205955 0
0.0422446 0.0207045 0
0.0462355 0.0208207 0
0.0502265 0.0209377 0
0.054217 0.0210676 0
0.0582075 0.0211975 0
0.0621978 0.0213339 0
0.0661879 0.0214757 0
0.0701781 0.021618 0
0.0741678 0.0217703 0
0.0781575 0.0219227 0
0.0821471 0.0220801 0
0.0861364 0.022242 0
0.0901258 0.0224041 0
0.0941148 0.0225747 0
0.0981038 0.0227453 0
0.102093 0.0229202 0
0.106081 0.023099 0
0.11007 0.0232779 0
0.114058 0.0234644 0
0.118046 0.0236509 0
0.122035 0.0238411 0
0.126022 0.024035 0
0.13001 0.0242288 0
0.133998 0.0244298 0
0.137986 0.0246308 0
0.141973 0.0248352 0
0.14596 0.025043 0
0.149947 0.0252509 0
0.153934 0.0254654 0
0.157921 0.02568 0
0.161908 0.0258978 0
0.165894 0.026119 0
0.169881 0.0263402 0
0.173867 0.0265678 0
0.177853 0.0267956 0
0.181839 0.0270264 0
0.185825 0.0272607 0
0.189811 0.0274951 0
0.193796 0.0277356 0
0.197781 0.0279764 0
0.201767 0.02822 0
0.205752 0.0284673 0
0.209737 0.0287146 0
0.213721 0.0289679 0
0.217706 0.0292217 0
0.22169 0.0294782 0
0.225674 0.0297385 0
0.229658 0.0299988 0
0.233642 0.0302651 0
0.237626 0.0305319 0
0.241609 0.0308014 0
0.245593 0.0310748 0
0.249576 0.0313482 0
0.253559 0.0316276 0
0.257542 0.0319077 0
0.261524 0.0321904 0
0.265507 0.0324772 0
0.269489 0.032764 0
0.273471 0.0330568 0
0.277453 0.0333504 0
0.281434 0.0336466 0
0.285416 0.0339471 0
0.289397 0.0342476 0
0.293378 0.034554 0
0.297359 0.0348615 0
0.301339 0.0351714 0
0.305319 0.0354859 0
0.3093 0.0358005 0
0.313279 0.036121 0
0.317259 0.0364427 0
0.321239 0.0367667 0
0.325218 0.0370957 0
0.329197 0.0374248 0
0.333175 0.0377597 0
0.337154 0.0380961 0
0.341132 0.0384347 0
0.34511 0.0387786 0
0.349088 0.0391226 0
0.353065 0.0394724 0
0.357042 0.0398239 0
0.361019 0.0401775 0
0.364995 0.0405368 0
0.368972 0.0408961 0
0.372948 0.0412613 0
0.376924 0.0416285 0
0.380899 0.0419975 0
0.384874 0.0423727 0
0.388849 0.0427479 0
0.392823 0.0431289 0
0.396798 0.0435123 0
0.400772 0.0438973 0
0.404745 0.044289 0
0.408718 0.0446807 0
0.412691 0.0450781 0
0.416664 0.0454782 0
0.420636 0.0458797 0
0.424608 0.0462883 0
0.42858 0.046697 0
0.432551 0.0471114 0
0.436521 0.0475289 0
0.440492 0.0479474 0
0.444462 0.0483738 0
0.448432 0.0488001 0
0.452401 0.0492319 0
0.45637 0.0496673 0
0.460338 0.0501035 0
0.464306 0.0505482 0
0.468274 0.0509928 0
0.472241 0.0514427 0
0.476208 0.0518968 0
0.480175 0.0523512 0
0.48414 0.0528148 0
0.488106 0.0532784 0
0.492071 0.0537471 0
0.496036 0.0542204 0
0.5 0.050787 0
0.5 0.0468803 0
0.5 0.0429736 0
0.5 0.0390669 0
0.5 0.0351602 0
0.5 0.0312535 0
0.5 0.0273468 0
0.5 0.0234402 0
0.5 0.0195335 0
0.5 0.0156268 0
0.5 0.0117201 0
0.5 0.00781339 0
0.5 0.00390669 0
0.5 1.43781e-13 0
0.5 -0.00390669 0
0.5 -0.00781339 0
0.5 -0.0117201 0
0.5 -0.0156268 0
0.5 -0.0195335 0
0.5 -0.0234402 0
0.5 -0.0273468 0
0.5 -0.0312535 0
0.5 -0.0351602 0
0.5 -0.0390669 0
0.5 -0.0429736 0
0.5 -0.0468803 0
0.5 -0.050787 0
0.496036 -0.0542204 0
0.492071 -0.0537471 0
0.488106 -0.0532784 0
0.48414 -0.0528148 0
0.480175 -0.0523512 0
0.476208 -0.0518968 0
0.472241 -0.0514427 0
0.468274 -0.0509928 0
0.464306 -0.0505482 0
0.460338 -0.0501035 0
0.45637 -0.0496673 0
0.452401 -0.0492319 0
0.448432 -0.0488001 0
0.444462 -0.0483738 0
0.440492 -0.0479474 0
0.436521 -0.0475289 0
0.432551 -0.0471114 0
0.42858 -0.046697 0
0.424608 -0.0462883 0
0.420636 -0.0458797 0
0.416664 -0.0454782 0
0.412691 -0.0450781 0
0.408718 -0.0446807 0
0.404745 -0.044289 0
0.400772 -0.0438973 0
0.396798 -0.0435123 0
0.392823 -0.0431289 0
0.388849 -0.0427479 0
0.384874 -0.0423727 0
0.380899 -0.0419975 0
0.376924 -0.0416285 0
0.372948 -0.0412613 0
0.368972 -0.0408961 0
0.364995 -0.0405368 0
0.361019 -0.0401775 0
0.357042 -0.0398239 0
0.353065 -0.0394724 0
0.349088 -0.0391226 0
0.34511 -0.0387786 0
0.341132 -0.0384347 0
0.337154 -0.0380961 0
0.333175 -0.0377597 0
0.329197 -0.0374248 0
0.325218 -0.0370957 0
0.321239 -0.0367667 0
0.317259 -0.0364427 0
0.313279 -0.036121 0
0.3093 -0.0358005 0
0.305319 -0.0354859 0
0.301339 -0.0351714 0
0.297359 -0.0348615 0
0.293378 -0.034554 0
0.289397 -0.0342476 0
0.285416 -0.0339471 0
0.281434 -0.0336466 0
0.277453 -0.0333504 0
0.273471 -0.0330568 0
0.269489 -0.032764 0
0.265507 -0.0324772 0
0.261524 -0.0321904 0
0.257542 -0.0319077 0
0.253559 -0.0316276 0
0.249576 -0.0313482 0
0.245593 -0.0310748 0
0.241609 -0.0308014 0
0.237626 -0.0305319 0
0.233642 -0.0302651 0
0.229658 -0.0299988 0
0.225674 -0.0297385 0
0.22169 -0.0294782 0
0.217706 -0.0292217 0
0.213721 -0.0289679 0
0.209737 -0.0287146 0
0.205752 -0.0284673 0
0.201767 -0.02822 0
0.197781 -0.0279764 0
0.193796 -0.0277356 0
0.189811 -0.0274951 0
0.185825 -0.0272607 0
0.181839 -0.0270264 0
0.177853 -0.0267956 0
0.173867 -0.0265678 0
0.169881 -0.0263402 0
0.165894 -0.026119 0
0.161908 -0.0258978 0
0.157921 -0.02568 0
0.153934 -0.0254654 0
0.149947 -0.0252509 0
0.14596 -0.025043 0
0.141973 -0.0248352 0
0.137986 -0.0246308 0
0.133998 -0.0244298 0
0.13001 -0.0242288 0
0.126022 -0.024035 0
0.122035 -0.0238411 0
0.118046 -0.0236509 0
0.114058 -0.0234644 0
0.11007 -0.0232779 0
0.106081 -0.023099 0
0.102093 -0.0229202 0
0.0981038 -0.0227453 0
0.0941148 -0.0225747 0
0.0901258 -0.0224041 0
0.0861364 -0.022242 0
0.0821471 -0.0220801 0
0.0781575 -0.0219227 0
0.0741678 -0.0217703 0
0.0701781 -0.021618 0
0.0661879 -0.0214757 0
0.0621978 -0.0213339 0
0.0582075 -0.0211975 0
0.054217 -0.0210676 0
0.0502265 -0.0209377 0
0.0462355 -0.0208207 0
0.0422446 -0.0207045 0
0.0382534 -0.0205955 0
0.034262 -0.0204956 0
0.0302706 -0.0203957 0
0.0262788 -0.0203144 0
0.022287 -0.0202345 0
0.018295 -0.0201654 0
0.0143027 -0.0201109 0
0.0103104 -0.0200563 0
0.00631785 -0.0200329 0
0.00232526 -0.0200121 0
-0.00166732 -0.020011 0
-0.00565987 -0.0200372 0
-0.00965243 -0.0200635 0
-0.0136441 -0.0201487 0
-0.0176357 -0.0202396 0
-0.0216262 -0.0203639 0
-0.0256151 -0.0205369 0
-0.029604 -0.0207098 0
-0.0335881 -0.0209694 0
-0.0375717 -0.0212385 0
-0.041552 -0.0215481 0
-0.0455272 -0.0219207 0
-0.0495024 -0.0222934 0
-0.0534681 -0.0227556 0
-0.0574324 -0.0232306 0
-0.0613923 -0.0237386 0
-0.0653442 -0.0243073 0
-0.0692962 -0.0248759 0
-0.0732381 -0.0255098 0
-0.0771778 -0.0261578 0
-0.0811144 -0.0268235 0
-0.0850433 -0.0275341 0
-0.0889722 -0.0282446 0
-0.0928949 -0.0289889 0
-0.0968152 -0.029745 0
-0.100735 -0.0305068 0
-0.104649 -0.0312931 0
-0.108563 -0.0320794 0
-0.112475 -0.032878 0
-0.116386 -0.0336836 0
-0.120296 -0.0344893 0
-0.124207 -0.0352949 0
-0.128117 -0.0361005 0
-0.132028 -0.0369056 0
-0.135939 -0.0377103 0
-0.13985 -0.0385149 0
-0.143762 -0.0393092 0
-0.147675 -0.0401031 0
-0.15159 -0.0408904 0
-0.155506 -0.041668 0
-0.159422 -0.0424455 0
-0.163342 -0.0432056 0
-0.167262 -0.0439627 0
-0.171183 -0.0447127 0
-0.175108 -0.0454463 0
-0.179033 -0.0461799 0
-0.182961 -0.0468942 0
-0.18689 -0.0476022 0
-0.190821 -0.0483046 0
-0.194755 -0.0489856 0
-0.198689 -0.0496667 0
-0.202626 -0.0503294 0
-0.206565 -0.0509829 0
-0.210504 -0.0516328 0
-0.214448 -0.0522585 0
-0.218391 -0.0528841 0
-0.222337 -0.0534933 0
-0.226284 -0.0540912 0
-0.230232 -0.0546875 0
-0.234184 -0.0552582 0
-0.238136 -0.0558289 0
-0.242089 -0.0563854 0
-0.246045 -0.0569295 0
-0.25 -0.0535098 0
-0.25 -0.0495461 0
-0.25 -0.0455824 0
-0.25 -0.0416187 0
-0.25 -0.0376551 0
-0.25 -0.0336914 0
-0.25 -0.0297277 0
-0.25 -0.025764 0
-0.25 -0.0218003 0
-0.25 -0.0178366 0
-0.25 -0.0138729 0
-0.25 -0.00990922 0
-0.25 -0.00594553 0
-0.25 -0.00198184 0
-0.25 0.00198184 0
-0.25 0.00594553 0
-0.25 0.00990922 0
-0.25 0.0138729 0
-0.25 0.0178366 0
-0.25 0.0218003 0
-0.25 0.025764 0
-0.25 0.0297277 0
-0.25 0.0336914 0
-0.25 0.0376551 0
-0.25 0.0416187 0
-0.25 0.0455824 0
-0.25 0.0495461 0
-0.25 0.0535098 0
-0.246045 0.0569295 0.01
-0.242089 0.0563854 0.01
-0.238136 0.0558289 0.01
-0.234184 0.0552582 0.01
-0.230232 0.0546875 0.01
-0.226284 0.0540912 0.01
-0.222337 0.0534933 0.01
-0.218391 0.0528841 0.01
-0.214448 0.0522585 0.01
-0.210504 0.0516328 0.01
-0.206565 0.0509829 0.01
-0.202626 0.0503294 0.01
-0.198689 0.0496667 0.01
-0.194755 0.0489856 0.01
-0.190821 0.0483046 0.01
-0.18689 0.0476022 0.01
-0.182961 0.0468942 0.01
-0.179033 0.0461799 0.01
-0.175108 0.0454463 0.01
-0.171183 0.0447127 0.01
-0.167262 0.0439627 0.01
[...]
CELL_DATA 7657
SCALARS rho float
LOOKUP_TABLE default
0.507753
0.445763
0.519297
0.45717
0.502916
0.501821
0.423101
0.502006
0.433077
0.50018
0.500232
0.502441
0.425979
0.502212
0.504488
0.511498
0.504879
0.516735
0.516759
0.500021
0.506212
0.516217
0.441852
0.516798
0.511189
0.504789
0.44374
0.427652
0.497845
0.498127
0.424828
0.511155
0.440574
0.506528
0.506824
0.424466
0.499633
0.441919
0.50966
0.430947
0.519397
0.432679
0.474031
0.491766
0.519488
0.519014
0.422645
0.500625
0.511091
0.507513
0.490441
0.458108
0.497598
0.498502
0.423107
0.502267
0.505679
0.509163
0.491515
0.425216
0.510834
0.519647
0.510022
0.509793
0.500852
0.500861
0.425758
0.508352
0.499883
0.488711
0.519192
0.426473
0.46992
0.497642
0.505741
0.499259
0.516255
0.497949
0.505384
0.426468
0.439764
0.501686
0.500083
0.51943
0.51917
0.494736
0.519236
0.488004
0.504573
0.442769
0.500626
0.50066
0.492621
0.499289
0.42973
0.496594
0.49578
0.443723
0.519541
0.429671
0.516613
0.513303
0.445284
0.506871
0.422543
0.436541
0.427444
0.512945
0.427053
0.507197
0.424769
0.50951
0.484425
0.500053
0.51834
0.481097
0.513672
0.431235
0.511739
0.496929
0.501388
0.501376
0.427576
0.4431
0.500637
0.50223
0.502661
0.472065
0.50593
0.473825
0.452838
0.515248
0.503481
0.468441
0.500115
0.426813
0.511339
0.440859
0.514983
0.514787
0.427393
0.440009
0.431917
0.430242
0.517102
0.506299
0.439567
0.446494
0.519709
0.427396
0.43324
0.500008
0.454931
0.472614
0.506034
0.445271
0.508284
0.515836
0.50009
0.426649
0.515656
0.509502
0.504989
0.480131
0.519805
0.444929
0.50968
0.48303
0.518422
0.511658
0.519491
0.437331
0.515427
0.432962
0.424138
0.424234
0.463009
0.496435
0.50073
0.432272
0.430269
0.427134
0.514078
0.513877
0.425163
0.490353
0.430023
0.464399
0.503619
0.496534
0.497733
0.499297
0.500107
0.499704
0.503744
0.50475
0.499939
0.50992
0.424335
0.518673
0.516899
0.513552
0.497462
0.486634
0.442874
0.498401
0.427633
0.422368
0.505246
0.49932
0.519486
0.519674
0.519854
0.500144
0.519584
0.466695
0.42363
0.493854
0.511328
0.518861
0.445852
0.445968
0.500132
0.509433
0.428328
0.440549
0.428402
0.437549
0.491296
0.500144
0.519884
0.519792
0.427131
0.506673
0.511753
0.500012
0.487878
0.513122
0.512936
0.510201
0.51939
0.434127
0.497453
0.440196
0.504546
0.501173
0.430264
0.50058
0.430913
0.49003
0.42444
0.461363
0.511442
0.505943
0.423785
0.465292
0.447021
0.503182
0.498428
0.511725
0.442779
0.497919
0.511764
0.518469
0.423454
0.519242
0.485216
0.434518
0.516898
0.433008
0.424661
0.441794
0.440186
0.499995
0.504119
0.518297
0.481245
0.509388
0.508441
0.503239
0.44394
0.507437
0.4365
0.428719
0.460299
0.424732
0.42866
0.451866
0.457261
0.517711
0.518129
0.465931
0.437065
0.497735
0.512183
0.444644
0.50983
0.501558
0.48114
0.518031
0.495664
0.500348
0.43335
0.429182
0.443278
0.493678
0.423317
0.46738
0.517248
0.512504
0.503084
0.483968
0.510442
0.430768
0.511328
0.510661
0.497828
0.503218
0.510619
0.507212
0.479907
0.441874
0.497784
0.489178
0.511637
0.501666
0.429639
0.453329
0.508603
0.517866
0.436359
0.501373
0.511758
0.447618
0.501878
0.464351
0.512566
0.4371
0.511567
0.497543
0.50399
0.424017
0.448811
0.511773
0.499872
0.423878
0.497673
0.447583
0.519002
0.508381
0.50279
0.515852
0.500086
0.515677
0.423381
0.511875
0.515108
0.422387
0.511669
0.42238
0.516143
0.516389
0.518893
0.482471
0.505288
0.424206
0.504153
0.430438
0.492732
0.494819
0.503833
0.474881
0.500132
0.50048
0.427763
0.426626
0.515493
0.463849
0.51761
0.511755
0.519878
0.517108
0.440966
0.509854
0.497843
0.500269
0.507357
0.502572
0.504382
0.5091
0.516459
0.511598
0.510501
0.500358
0.505269
0.489399
0.423709
0.436718
0.509354
0.502912
0.500087
0.500115
0.51728
0.498497
0.430402
0.474742
0.511333
0.424274
0.508751
0.504594
0.515313
0.500904
0.509705
0.455251
0.49746
0.500513
0.519427
0.501547
0.455905
0.443695
0.441599
0.501687
0.422686
0.452326
0.445717
0.518271
0.495781
0.500933
0.472267
0.513123
0.479639
0.423226
0.449594
0.499957
0.506988
0.511719
0.50056
0.514888
0.511731
0.516921
0.49565
0.511442
0.425618
0.497915
0.50324
0.519877
0.519413
0.422501
0.504787
0.479974
0.511286
0.511831
0.516536
0.422549
0.428606
0.496366
0.422972
0.511344
0.51173
0.498014
0.507157
0.510459
0.517787
0.495182
0.453456
0.500562
0.435372
0.438209
0.423175
0.423473
0.497894
0.51694
0.472886
0.508156
0.507114
0.513771
0.506854
0.494463
0.42818
0.497646
0.482677
0.497864
0.515721
0.515297
0.519883
0.509598
0.435249
0.425646
0.499668
0.509196
0.509776
0.510628
0.502354
0.498954
0.502808
0.423345
0.456293
0.496354
0.506911
0.507762
0.50142
0.501589
0.478068
0.501066
0.48814
0.490516
0.450096
0.468984
0.482171
0.511756
0.435749
0.507465
0.514006
0.510049
0.516619
0.500939
0.511147
0.515965
0.510245
0.442309
0.511507
0.500212
0.50167
0.450532
0.503423
0.501237
0.498416
0.51935
0.498747
0.510181
0.514421
0.511798
0.501778
0.47259
0.519552
0.513774
0.519315
0.501843
0.423194
0.517453
0.519917
0.513747
0.477319
0.502673
0.506665
0.500421
0.514247
0.470604
0.500978
0.514451
0.511752
0.454005
0.471386
0.505076
0.510501
0.511642
0.42987
0.50341
0.437204
0.507005
0.51176
0.493472
0.500732
0.424011
0.514699
0.511406
0.499342
0.500402
0.424635
0.504839
0.496301
0.494982
0.515739
0.443088
0.493153
0.422699
0.501925
0.499852
0.502952
0.502413
0.429157
0.460697
0.494112
0.511299
0.514616
0.470018
0.508977
0.481182
0.50013
0.423708
0.503746
0.502272
0.42261
0.476881
0.491926
0.510927
0.423973
0.429592
0.51987
0.502411
0.498202
0.507572
0.51219
0.503894
0.501858
0.502071
0.504817
0.499929
0.513276
0.506638
0.504616
0.502611
0.502635
0.51145
0.519863
0.511786
0.499834
0.476653
0.474474
0.50205
0.425628
0.498868
0.498145
0.500761
0.501688
0.509277
0.445024
0.480439
0.482456
0.43195
0.516583
0.507145
0.498596
0.509086
0.475792
0.501104
0.473446
0.510372
0.499166
0.516762
0.49944
0.513766
0.512113
0.423524
0.449552
0.500513
0.51094
0.508781
0.460133
0.502258
0.51148
0.508577
0.519056
0.50086
0.500019
0.503331
0.440145
0.513998
0.510016
0.510293
0.428256
0.508252
0.511787
0.476169
0.510119
0.515373
0.474953
0.502078
0.508054
0.456498
0.50068
0.494215
0.468964
0.511694
0.458728
0.455802
0.452858
0.453839
0.499943
0.507753
0.519913
0.509758
0.458319
0.502764
0.501736
0.50755
0.515253
0.453916
0.432698
0.425932
0.502178
0.502102
0.503161
0.509492
0.514433
0.503198
0.500249
0.428896
0.503936
0.504911
0.422532
0.514858
0.428818
0.437862
0.421989
0.482171
0.507243
0.430358
0.507038
0.501025
0.500882
0.459695
0.502229
0.49903
0.516071
0.423434
0.511637
0.498609
0.498252
0.47099
0.480489
0.457193
0.50106
0.501072
0.499911
0.509252
0.505489
0.49897
0.42501
0.491943
0.510786
0.500614
0.477507
0.464288
0.503324
0.477868
0.437105
0.470536
0.500939
0.510322
0.50958
0.451447
0.500966
0.49088
0.423257
0.501115
0.437494
0.43469
0.427928
0.505239
0.498849
0.42315
0.50924
0.511042
0.500309
0.504349
0.499893
0.430754
0.499666
0.497766
0.448893
0.4996
0.50046
0.51081
0.50999
0.501641
0.514033
0.434957
0.509984
0.502798
0.515804
0.516
0.511688
0.434067
0.499909
0.503113
0.511629
0.503616
0.500233
0.519655
0.479204
0.510081
0.431455
0.501134
0.422478
0.500055
0.500258
0.471249
0.49322
0.514007
0.475952
0.422295
0.503468
0.50898
0.519659
0.511748
0.501311
0.48955
0.460152
0.467573
0.501831
0.426721
0.42357
0.503279
0.463562
0.491911
0.491868
0.488805
0.501363
0.501868
0.499381
0.427525
0.423758
0.484239
0.422367
0.502595
0.500058
0.483854
0.501204
0.507116
0.500051
0.441801
0.50025
0.500606
0.422434
0.496409
0.503442
0.43086
0.479108
0.423085
0.500864
0.503916
0.431265
0.504913
0.500725
0.423778
0.511517
0.50007
0.503796
0.510531
0.500575
0.506128
0.511056
0.499281
0.499281
0.50437
0.518913
0.488407
0.49643
0.47709
0.503293
0.498892
0.426743
0.434432
0.430346
0.508207
0.478829
0.49976
0.478955
0.507911
0.504199
0.5006
0.508375
0.503709
0.478787
0.508679
0.500774
0.427501
0.505363
0.422342
0.434145
0.499006
0.423886
0.504351
0.504774
0.431016
0.427926
0.501404
0.503855
0.501666
0.502231
0.503244
0.486071
0.503741
0.432381
0.430548
0.433336
0.501951
0.502246
0.502183
0.426309
0.508454
0.487182
0.504266
0.503067
0.504846
0.503123
0.506306
0.505955
0.498307
0.506542
0.505435
0.51153
0.500839
0.511351
0.435403
0.507939
0.436731
0.49837
0.423148
0.490446
0.432376
0.427142
0.484019
0.484083
0.50022
0.502931
0.506026
0.503114
0.437655
0.495548
0.500336
0.503519
0.499652
0.504198
0.486923
0.429648
0.50661
0.484217
0.48423
0.425268
0.511597
0.503524
0.503947
0.437406
0.490679
0.490635
0.501083
0.482564
0.485915
0.423572
0.430216
0.499483
0.499949
0.501484
0.515547
0.429399
0.431874
0.500492
0.503464
0.519741
0.436024
0.426283
0.426158
0.427108
0.504074
0.426279
0.453698
0.502655
0.424625
0.510543
0.509365
0.503563
0.501805
0.510377
0.490864
0.500685
0.432611
0.499605
0.50417
0.509234
0.507493
0.508815
0.509209
0.500217
0.502576
0.440461
0.50844
0.501681
0.495115
0.424242
0.500437
0.507552
0.503935
0.503696
0.50896
0.508727
0.500516
0.505659
0.513109
0.438635
0.429802
0.507489
0.423567
0.500266
0.495252
0.499513
0.499676
0.466482
0.462832
0.500348
0.503229
0.499898
0.470935
0.508762
0.504596
0.509682
0.500343
0.430353
0.500356
0.503871
0.504799
0.509722
0.424195
0.498549
0.502833
0.503215
0.424959
0.425076
0.436601
0.503587
0.50974
0.500174
0.519928
0.518809
0.424475
0.435139
0.516778
0.504699
0.509073
0.423258
0.507424
0.422528
0.425982
0.501014
0.498301
0.507706
0.499957
0.518899
0.518854
0.519951
0.500221
0.516918
0.499932
0.504148
0.516867
0.424351
0.51989
0.507386
0.446775
0.499822
0.439273
0.493596
0.503677
0.499796
0.501232
0.508703
0.504037
0.509793
0.501562
0.42248
0.441078
0.516224
0.499907
0.428842
0.502439
0.508402
0.50836
0.501964
0.485519
0.512841
0.50037
0.513794
0.500336
0.503824
0.50443
0.502085
0.503879
0.509924
0.498305
0.507691
0.507454
0.496628
0.510167
0.423277
0.505651
0.499036
0.440741
0.501746
0.501491
0.503258
0.503803
0.498067
0.500424
0.42232
0.428865
0.422185
0.500177
0.504503
0.473968
0.476233
0.430453
0.510129
0.503236
0.505894
0.424263
0.431138
0.501912
0.511724
0.49885
0.505039
0.502321
0.4379
0.503988
0.509027
0.439447
0.501168
0.506912
0.519513
0.500068
0.433157
0.501414
0.500735
0.505835
0.504525
0.506375
0.500195
0.511505
0.500501
0.500224
0.510508
0.441589
0.519785
0.519679
0.510471
0.506709
0.505906
0.442122
0.502217
0.510763
0.502145
0.424924
0.511696
0.500587
0.504362
0.429932
0.424893
0.504305
0.423641
0.492029
0.428422
0.42636
0.426472
0.492456
0.489213
0.507178
0.42557
0.498573
0.507696
0.499935
0.50058
0.422936
0.50333
0.501111
0.50293
0.427925
0.500528
0.502097
0.50241
0.503062
0.50151
0.500379
0.424263
0.423553
0.485281
0.485319
0.5008
0.501704
0.424265
0.502944
0.499184
0.500487
0.500241
0.514235
0.51653
0.499388
0.497624
0.459033
0.422658
0.501012
0.424888
0.50346
0.422385
0.514985
0.500677
0.507932
0.502281
0.501714
0.512837
0.512845
0.423332
0.499429
0.440222
0.499614
0.503616
0.500503
0.507671
0.500227
0.510794
0.516156
0.422534
0.422847
0.507507
0.499489
0.507206
0.501505
0.501355
0.438282
0.499907
0.509013
0.430171
0.501272
0.422768
0.429846
0.506971
0.507983
0.422677
0.509416
0.424042
0.426375
0.506883
0.508432
0.507872
0.505785
0.507933
0.513057
0.513045
0.442556
0.508444
0.500413
0.50063
0.426784
0.513511
0.502977
0.432242
0.423254
0.502047
0.508959
0.502384
0.500665
0.501232
0.500369
0.50948
0.500467
0.509437
0.51948
0.516874
0.505426
0.506002
0.507659
0.423934
0.502426
0.517511
0.517548
0.510673
0.501455
0.505153
0.499455
0.501807
0.514675
0.503038
0.505755
0.511007
0.474211
0.505345
0.473913
0.510175
0.517188
0.422826
0.509465
0.519709
0.519682
0.500495
0.500827
0.510897
0.50035
0.501285
0.498886
0.518231
0.518247
0.424814
0.500497
0.507926
0.501027
0.504842
0.500262
0.501326
0.5069
0.505645
0.50081
0.502219
0.503185
0.508001
0.501097
0.503011
0.500653
0.484546
0.483869
0.484304
0.513527
0.502996
0.501518
0.500846
0.500142
0.513063
0.448355
0.513067
0.514
0.500625
0.423752
0.502362
0.510905
0.500987
0.519327
0.519322
0.505101
0.508111
0.501865
0.425304
0.500455
0.500304
0.430861
0.519247
0.49966
0.508827
0.51648
0.422883
0.424918
0.42595
0.519503
0.505372
0.501619
0.512053
0.514438
0.517663
0.500444
0.512061
0.518346
0.517528
0.516115
0.500894
0.513695
0.501845
0.435728
0.517209
0.506296
0.508392
0.505834
0.5026
0.515528
0.502816
0.500916
0.502521
0.439082
0.517564
0.501155
0.501183
0.501641
0.500801
0.501149
0.502237
0.423131
0.518691
0.518699
0.501466
0.502909
0.501208
0.508089
0.422549
0.502703
0.509487
0.500664
0.508383
0.463688
0.508147
0.504677
0.427095
0.511699
0.501669
0.422965
0.501903
0.475348
0.518173
0.425239
0.425196
0.47755
0.4772
0.510353
0.503219
0.498428
0.49829
0.47202
0.50138
0.500518
0.503425
0.449202
0.507402
0.423759
0.5028
0.50304
0.507911
0.430018
0.43966
0.500846
0.500897
0.500965
0.50117
0.501053
0.499635
0.505561
0.505096
0.504641
0.501436
0.506036
0.50133
0.502621
0.519363
0.507179
0.496735
0.500372
0.502181
0.502819
0.500933
0.503202
0.519787
0.50366
0.505208
0.514431
0.502151
0.503661
0.505286
0.499606
0.504072
0.46795
0.510402
0.460534
0.463453
0.500105
0.503609
0.500538
0.508516
0.42936
0.501588
0.511204
0.503615
0.498798
0.504292
0.503417
0.422623
0.498688
0.511358
0.510709
0.516951
0.516942
0.505602
0.422375
0.499929
0.502601
0.499747
0.43699
0.502032
0.503768
0.437508
0.509964
0.511032
0.519836
0.436022
0.499682
0.434406
0.500442
0.500413
0.499586
0.433966
0.507675
0.499585
0.503019
0.499333
0.504553
0.502378
0.500478
0.505193
0.442533
0.422685
0.499252
0.499767
0.504585
0.42244
0.444343
0.443485
0.503873
0.502573
0.433811
0.453595
0.511514
0.499874
0.501264
0.497727
0.505033
0.467698
0.500333
0.500321
0.508591
0.502447
0.508543
0.502077
0.446544
0.509711
0.509693
0.505869
0.498544
0.501827
0.499294
0.49985
0.50162
0.434683
0.500299
0.500383
0.427913
0.42371
0.423887
0.505832
0.504381
0.508924
0.502737
0.504122
0.504793
0.50402
0.506694
0.504013
0.499584
0.513534
0.499473
0.431997
0.498538
0.505805
0.47249
0.472127
0.509328
0.510555
0.505012
0.50335
0.504054
0.505246
0.512792
0.512801
0.503355
0.503609
0.501495
0.49904
0.482941
0.504163
0.506165
0.503794
0.485959
0.485536
0.501372
0.502458
0.505334
0.501169
0.503863
0.501119
0.501392
0.503583
0.499349
0.490559
0.490839
0.503419
0.508661
0.502215
0.506234
0.517901
0.517932
0.511714
0.51943
0.519431
0.424061
0.50759
0.499973
0.504592
0.506285
0.503811
0.509154
0.506521
0.519701
0.519672
0.517653
0.517659
0.512073
0.503018
0.519176
0.513716
0.513984
0.499106
0.506722
0.516282
0.511733
0.504874
0.519713
0.519658
0.512055
0.505403
0.511792
0.518945
0.518875
0.503633
0.506645
0.514626
0.500394
0.511817
0.429812
0.503097
0.485794
0.499762
0.504425
0.459898
0.506415
0.500432
0.500409
0.499503
0.500733
0.501533
0.506666
0.517001
0.499071
0.443723
0.511225
0.504953
0.498922
0.504464
0.501975
0.501563
0.440582
0.5006
0.500517
0.499812
0.427535
0.427128
0.506079
0.501004
0.518244
0.51144
0.507563
0.505491
0.509502
0.508894
0.500636
0.500642
0.499411
0.50095
0.510296
0.423154
0.422876
0.504607
0.518969
0.504206
0.499474
0.433374
0.500255
0.499326
0.501352
0.500304
0.498193
0.51156
0.503881
0.428834
0.509971
0.50038
0.495639
0.51026
0.499982
0.505528
0.498254
0.424619
0.504951
0.4272
0.514468
0.506592
0.499394
0.427985
0.42806
0.501697
0.519756
0.50986
0.500521
0.511505
0.504611
0.432168
0.506979
0.505821
0.501145
0.49812
0.500865
0.501594
0.504306
0.519753
0.503427
0.500216
0.505617
0.498373
0.504285
0.509945
0.505969
0.50256
0.511453
0.518861
0.518861
0.502401
0.505525
0.49945
0.501199
0.511591
0.498884
0.498285
0.504733
0.502255
0.511052
0.499412
0.498673
0.502043
0.506486
0.504096
0.515309
0.504315
0.507643
0.516497
0.516453
0.499276
0.499691
0.422759
0.499162
0.502739
0.500692
0.50641
0.508201
0.504569
0.502053
0.50069
0.500855
0.498524
0.511555
0.501797
0.504249
0.498517
0.508976
0.500107
0.508924
0.506352
0.509951
0.505324
0.499183
0.499078
0.506913
0.506566
0.504727
0.507219
0.50126
0.511377
0.498351
0.441588
0.49834
0.506177
0.500146
0.50699
0.509093
0.505652
0.505228
0.500423
0.499738
0.479202
0.478841
0.500538
0.515714
0.500041
0.452289
0.510168
0.502544
0.503471
0.504506
0.4661
0.500003
0.510111
0.447631
0.502025
0.511196
0.509195
0.507305
0.50137
0.498537
0.498936
0.50594
0.505936
0.510719
0.505415
0.498176
0.500774
0.49972
0.507983
0.506958
0.50483
0.50499
0.501517
0.503278
0.462645
0.505226
0.501892
0.506675
0.498763
0.498667
0.507241
0.513311
0.51174
0.504219
0.500468
0.513308
0.500458
0.499045
0.506315
0.504189
0.499351
0.502176
0.506398
0.500206
0.502452
0.498778
0.426193
0.501472
0.424297
0.499549
0.507352
0.509374
0.49976
0.508249
0.504098
0.492125
0.492414
0.505082
0.503243
0.498571
0.436451
0.435093
0.517047
0.517382
0.503222
0.49923
0.502866
0.502644
0.510154
0.499603
0.50994
0.505767
0.502342
0.501811
0.503876
0.498067
0.425284
0.422727
0.498814
0.501492
0.501466
0.507084
0.507115
0.499967
0.50477
0.500236
0.50109
0.499954
0.507728
0.499825
0.473675
0.51976
0.519706
0.508229
0.504671
0.505939
0.504929
0.509067
0.509374
0.505155
0.505708
0.499696
0.510784
0.438864
0.505423
0.503978
0.498586
0.507478
0.506483
0.5008
0.505543
0.518838
0.518768
0.500577
0.508031
0.498784
0.505355
0.503861
0.514215
0.505281
0.462073
0.500384
0.511335
0.507419
0.507015
0.509785
0.501682
0.505626
0.507757
0.498835
0.506461
0.502918
0.506171
0.510443
0.506122
0.511591
0.509305
0.502719
0.502718
0.506834
0.505011
0.505748
0.513532
0.508434
0.500362
0.50887
0.5153
0.498818
0.500932
0.51156
0.501982
0.505819
0.501558
0.438754
0.498953
0.505233
0.508027
0.507724
0.501986
0.511484
0.500796
0.502061
0.503495
0.502964
0.503504
0.504067
0.508867
0.499942
0.506799
0.499048
0.505883
0.504348
0.504646
0.505709
0.510458
0.509841
0.506775
0.500531
0.509614
0.502455
0.508211
0.506909
0.507321
0.507836
0.510687
0.505369
0.506919
0.510945
0.508694
0.511552
0.505605
0.510451
0.509913
0.498136
0.515702
0.498479
0.504211
0.500071
0.506281
0.50946
0.427534
0.428407
0.50074
0.511558
0.50964
0.507349
0.51043
0.511455
0.498344
0.508063
0.500532
0.510891
0.509994
0.501604
0.504347
0.504309
0.504157
0.506923
0.509273
0.508057
0.51787
0.500274
0.519612
0.424137
0.508717
0.507968
0.510973
0.507516
0.517912
0.506566
0.51965
0.508304
0.51024
0.511642
0.509896
0.50848
0.507834
0.505127
0.508561
0.498061
0.503602
0.509232
0.508571
0.510119
0.504068
0.507272
0.499779
0.508198
0.501
0.499331
0.443851
0.500387
0.501015
0.511545
0.500212
0.509401
0.439272
0.503174
0.498528
0.500915
0.510219
0.50634
0.509967
0.506199
0.509661
0.499664
0.510966
0.422972
0.503771
0.506434
0.507433
0.504742
0.508938
0.510602
0.499038
0.509578
0.508244
0.509187
0.500031
0.509964
0.499692
0.511071
0.510358
0.424672
0.501281
0.510132
0.501889
0.514686
0.510389
0.511562
0.511611
0.507187
0.509307
0.50266
0.477927
0.504503
0.510355
0.50634
0.511233
0.503015
0.506903
0.480953
0.49878
0.503653
0.508943
0.505064
0.499647
0.51018
0.500574
0.510046
0.500629
0.498704
0.510569
0.474428
0.502541
0.508387
0.508621
0.506806
0.504087
0.506105
0.510937
0.512205
0.500805
0.479282
0.511485
0.506255
0.507776
0.51028
0.510611
0.498871
0.502392
0.45934
0.508023
0.513318
0.507442
0.510569
0.506172
0.50617
0.508169
0.509744
0.50904
0.513289
0.471259
0.426943
0.424159
0.51087
0.483513
0.505448
0.437117
0.43474
0.517063
0.511094
0.472908
0.50782
0.510857
0.511377
0.500869
0.511056
0.511568
0.485059
0.50153
0.422718
0.511644
0.509964
0.511485
0.508217
0.507721
0.504076
0.500151
0.504235
0.50173
0.476169
0.508428
0.489136
0.503845
0.486583
0.511095
0.50324
0.512737
0.503828
0.503198
0.485067
0.508496
0.438159
0.510202
0.508825
0.511989
0.501774
0.508689
0.505405
0.509615
0.500649
0.509049
0.514207
0.508534
0.462447
0.511709
0.511134
0.50357
0.508583
0.503235
0.487724
0.5088
0.43909
0.50848
0.510963
0.511514
0.472994
0.510532
0.511174
0.499539
0.510053
0.51196
0.510697
0.512488
0.499777
0.476223
0.512116
0.505534
0.512458
0.510917
0.509351
0.511764
0.505683
0.511375
0.428355
0.427095
0.491202
0.492458
0.511256
0.511263
0.508286
0.512017
0.450555
0.450633
0.492508
0.501101
0.423917
0.50632
0.509179
0.511152
0.505715
0.505758
0.493718
0.508412
0.513272
0.51025
0.512537
0.511546
0.507296
0.510621
0.511576
0.510529
0.508669
0.511604