# vtk DataFile Version 1.0
unstructured grid
ascii
DATASET UNSTRUCTURED_GRID
points 8094 float
-0.25 0.0574735 0
0.5 0.0546937 0
0.5 -0.0546937 0
-0.25 -0.0574735 0
-0.25 0.0574735 0.01
0.5 0.0546937 0.01
0.5 -0.0546937 0.01
-0.25 -0.0574735 0.01
-0.246045 0.0569295 0
-0.242089 0.0563854 0
-0.238136 0.0558289 0
-0.234184 0.0552582 0
-0.230232 0.0546875 0
-0.226284 0.0540912 0
-0.222337 0.0534933 0
-0.218391 0.0528841 0
-0.214448 0.0522585 0
-0.210504 0.0516328 0
-0.206565 0.0509829 0
-0.202626 0.0503294 0
-0.198689 0.0496667 0
-0.194755 0.0489856 0
-0.190821 0.0483046 0
-0.18689 0.0476022 0
-0.182961 0.0468942 0
-0.179033 0.0461799 0
-0.175108 0.0454463 0
-0.171183 0.0447127 0
-0.167262 0.0439627 0
-0.163342 0.0432056 0
-0.159422 0.0424455 0
-0.155506 0.041668 0
-0.15159 0.0408904 0
-0.147675 0.0401031 0
-0.143762 0.0393092 0
-0.13985 0.0385149 0
-0.135939 0.0377103 0
-0.132028 0.0369056 0
-0.128117 0.0361005 0
-0.124207 0.0352949 0
-0.120296 0.0344893 0
-0.116386 0.0336836 0
-0.112475 0.032878 0
-0.108563 0.0320794 0
-0.104649 0.0312931 0
-0.100735 0.0305068 0
-0.0968152 0.029745 0
-0.0928949 0.0289889 0
-0.0889722 0.0282446 0
-0.0850433 0.0275341 0
-0.0811144 0.0268235 0
-0.0771778 0.0261578 0
-0.0732381 0.0255098 0
-0.0692962 0.0248759 0
-0.0653442 0.0243073 0
-0.0613923 0.0237386 0
-0.0574324 0.0232306 0
-0.0534681 0.0227556 0
-0.0495024 0.0222934 0
-0.0455272 0.0219207 0
-0.041552 0.0215481 0
-0.0375717 0.0212385 0
-0.0335881 0.0209694 0
-0.029604 0.0207098 0
-0.0256151 0.0205369 0
-0.0216262 0.0203639 0
-0.0176357 0.0202396 0
-0.0136441 0.0201487 0
-0.00965243 0.0200635 0
-0.00565987 0.0200372 0
-0.00166732 0.020011 0
0.00232526 0.0200121 0
0.00631785 0.0200329 0
0.0103104 0.0200563 0
0.0143027 0.0201109 0
0.018295 0.0201654 0
0.022287 0.0202345 0
0.0262788 0.0203144 0
0.0302706 0.0203957 0
0.034262 0.0204956 0
0.0382534 0.0205955 0
0.0422446 0.0207045 0
0.0462355 0.0208207 0
0.0502265 0.0209377 0
0.054217 0.0210676 0
0.0582075 0.0211975 0
0.0621978 0.0213339 0
0.0661879 0.0214757 0
0.0701781 0.021618 0
0.0741678 0.0217703 0
0.0781575 0.0219227 0
0.0821471 0.0220801 0
0.0861364 0.022242 0
0.0901258 0.0224041 0
0.0941148 0.0225747 0
0.0981038 0.0227453 0
0.102093 0.0229202 0
0.106081 0.023099 0
0.11007 0.0232779 0
0.114058 0.0234644 0
0.118046 0.0236509 0
0.122035 0.0238411 0
0.126022 0.024035 0
0.13001 0.0242288 0
0.133998 0.0244298 0
0.137986 0.0246308 0
0.141973 0.0248352 0
0.14596 0.025043 0
0.149947 0.0252509 0
0.153934 0.0254654 0
0.157921 0.02568 0
0.161908 0.0258978 0
0.165894 0.026119 0
0.169881 0.0263402 0
0.173867 0.0265678 0
0.177853 0.0267956 0
0.181839 0.0270264 0
0.185825 0.0272607 0
0.189811 0.0274951 0
0.193796 0.0277356 0
0.197781 0.0279764 0
0.201767 0.02822 0
0.205752 0.0284673 0
0.209737 0.0287146 0
0.213721 0.0289679 0
0.217706 0.0292217 0
0.22169 0.0294782 0
0.225674 0.0297385 0
0.229658 0.0299988 0
0.233642 0.0302651 0
0.237626 0.0305319 0
0.241609 0.0308014 0
0.245593 0.0310748 0
0.249576 0.0313482 0
0.253559 0.0316276 0
0.257542 0.0319077 0
0.261524 0.0321904 0
0.265507 0.0324772 0
0.269489 0.032764 0
0.273471 0.0330568 0
0.277453 0.0333504 0
0.281434 0.0336466 0
0.285416 0.0339471 0
0.289397 0.0342476 0
0.293378 0.034554 0
0.297359 0.0348615 0
0.301339 0.0351714 0
0.305319 0.0354859 0
0.3093 0.0358005 0
0.313279 0.036121 0
0.317259 0.0364427 0
0.321239 0.0367667 0
0.325218 0.0370957 0
0.329197 0.0374248 0
0.333175 0.0377597 0
0.337154 0.0380961 0
0.341132 0.0384347 0
0.34511 0.0387786 0
0.349088 0.0391226 0
0.353065 0.0394724 0
0.357042 0.0398239 0
0.361019 0.0401775 0
0.364995 0.0405368 0
0.368972 0.0408961 0
0.372948 0.0412613 0
0.376924 0.0416285 0
0.380899 0.0419975 0
0.384874 0.0423727 0
0.388849 0.0427479 0
0.392823 0.0431289 0
0.396798 0.0435123 0
0.400772 0.0438973 0
0.404745 0.044289 0
0.408718 0.0446807 0
0.412691 0.0450781 0
0.416664 0.0454782 0
0.420636 0.0458797 0
0.424608 0.0462883 0
0.42858 0.046697 0
0.432551 0.0471114 0
0.436521 0.0475289 0
0.440492 0.0479474 0
0.444462 0.0483738 0
0.448432 0.0488001 0
0.452401 0.0492319 0
0.45637 0.0496673 0
0.460338 0.0501035 0
0.464306 0.0505482 0
0.468274 0.0509928 0
0.472241 0.0514427 0
0.476208 0.0518968 0
0.480175 0.0523512 0
0.48414 0.0528148 0
0.488106 0.0532784 0
0.492071 0.0537471 0
0.496036 0.0542204 0
0.5 0.050787 0
0.5 0.0468803 0
0.5 0.0429736 0
0.5 0.0390669 0
0.5 0.0351602 0
0.5 0.0312535 0
0.5 0.0273468 0
0.5 0.0234402 0
0.5 0.0195335 0
0.5 0.0156268 0
0.5 0.0117201 0
0.5 0.00781339 0
0.5 0.00390669 0
0.5 1.43781e-13 0
0.5 -0.00390669 0
0.5 -0.00781339 0
0.5 -0.0117201 0
0.5 -0.0156268 0
0.5 -0.0195335 0
0.5 -0.0234402 0
0.5 -0.0273468 0
0.5 -0.0312535 0
0.5 -0.0351602 0
0.5 -0.0390669 0
0.5 -0.0429736 0
0.5 -0.0468803 0
0.5 -0.050787 0
0.496036 -0.0542204 0
0.492071 -0.0537471 0
0.488106 -0.0532784 0
0.48414 -0.0528148 0
0.480175 -0.0523512 0
0.476208 -0.0518968 0
0.472241 -0.0514427 0
0.468274 -0.0509928 0
0.464306 -0.0505482 0
0.460338 -0.0501035 0
0.45637 -0.0496673 0
0.452401 -0.0492319 0
0.448432 -0.0488001 0
0.444462 -0.0483738 0
0.440492 -0.0479474 0
0.436521 -0.0475289 0
0.432551 -0.0471114 0
0.42858 -0.046697 0
0.424608 -0.0462883 0
0.420636 -0.0458797 0
0.416664 -0.0454782 0
0.412691 -0.0450781 0
0.408718 -0.0446807 0
0.404745 -0.044289 0
0.400772 -0.0438973 0
0.396798 -0.0435123 0
0.392823 -0.0431289 0
0.388849 -0.0427479 0
0.384874 -0.0423727 0
0.380899 -0.0419975 0
0.376924 -0.0416285 0
0.372948 -0.0412613 0
0.368972 -0.0408961 0
0.364995 -0.0405368 0
0.361019 -0.0401775 0
0.357042 -0.0398239 0
0.353065 -0.0394724 0
0.349088 -0.0391226 0
0.34511 -0.0387786 0
0.341132 -0.0384347 0
0.337154 -0.0380961 0
0.333175 -0.0377597 0
0.329197 -0.0374248 0
0.325218 -0.0370957 0
0.321239 -0.0367667 0
0.317259 -0.0364427 0
0.313279 -0.036121 0
0.3093 -0.0358005 0
0.305319 -0.0354859 0
0.301339 -0.0351714 0
0.297359 -0.0348615 0
0.293378 -0.034554 0
0.289397 -0.0342476 0
0.285416 -0.0339471 0
0.281434 -0.0336466 0
0.277453 -0.0333504 0
0.273471 -0.0330568 0
0.269489 -0.032764 0
0.265507 -0.0324772 0
0.261524 -0.0321904 0
0.257542 -0.0319077 0
0.253559 -0.0316276 0
0.249576 -0.0313482 0
0.245593 -0.0310748 0
0.241609 -0.0308014 0
0.237626 -0.0305319 0
0.233642 -0.0302651 0
0.229658 -0.0299988 0
0.225674 -0.0297385 0
0.22169 -0.0294782 0
0.217706 -0.0292217 0
0.213721 -0.0289679 0
0.209737 -0.0287146 0
0.205752 -0.0284673 0
0.201767 -0.02822 0
0.197781 -0.0279764 0
0.193796 -0.0277356 0
0.189811 -0.0274951 0
0.185825 -0.0272607 0
0.181839 -0.0270264 0
0.177853 -0.0267956 0
0.173867 -0.0265678 0
0.169881 -0.0263402 0
0.165894 -0.026119 0
0.161908 -0.0258978 0
0.157921 -0.02568 0
0.153934 -0.0254654 0
0.149947 -0.0252509 0
0.14596 -0.025043 0
0.141973 -0.0248352 0
0.137986 -0.0246308 0
0.133998 -0.0244298 0
0.13001 -0.0242288 0
0.126022 -0.024035 0
0.122035 -0.0238411 0
0.118046 -0.0236509 0
0.114058 -0.0234644 0
0.11007 -0.0232779 0
0.106081 -0.023099 0
0.102093 -0.0229202 0
0.0981038 -0.0227453 0
0.0941148 -0.0225747 0
0.0901258 -0.0224041 0
0.0861364 -0.022242 0
0.0821471 -0.0220801 0
0.0781575 -0.0219227 0
0.0741678 -0.0217703 0
0.0701781 -0.021618 0
0.0661879 -0.0214757 0
0.0621978 -0.0213339 0
0.0582075 -0.0211975 0
0.054217 -0.0210676 0
0.0502265 -0.0209377 0
0.0462355 -0.0208207 0
0.0422446 -0.0207045 0
0.0382534 -0.0205955 0
0.034262 -0.0204956 0
0.0302706 -0.0203957 0
0.0262788 -0.0203144 0
0.022287 -0.0202345 0
0.018295 -0.0201654 0
0.0143027 -0.0201109 0
0.0103104 -0.0200563 0
0.00631785 -0.0200329 0
0.00232526 -0.0200121 0
-0.00166732 -0.020011 0
-0.00565987 -0.0200372 0
-0.00965243 -0.0200635 0
-0.0136441 -0.0201487 0
-0.0176357 -0.0202396 0
-0.0216262 -0.0203639 0
-0.0256151 -0.0205369 0
-0.029604 -0.0207098 0
-0.0335881 -0.0209694 0
-0.0375717 -0.0212385 0
-0.041552 -0.0215481 0
-0.0455272 -0.0219207 0
-0.0495024 -0.0222934 0
-0.0534681 -0.0227556 0
-0.0574324 -0.0232306 0
-0.0613923 -0.0237386 0
-0.0653442 -0.0243073 0
-0.0692962 -0.0248759 0
-0.0732381 -0.0255098 0
-0.0771778 -0.0261578 0
-0.0811144 -0.0268235 0
-0.0850433 -0.0275341 0
-0.0889722 -0.0282446 0
-0.0928949 -0.0289889 0
-0.0968152 -0.029745 0
-0.100735 -0.0305068 0
-0.104649 -0.0312931 0
-0.108563 -0.0320794 0
-0.112475 -0.032878 0
-0.116386 -0.0336836 0
-0.120296 -0.0344893 0
-0.124207 -0.0352949 0
-0.128117 -0.0361005 0
-0.132028 -0.0369056 0
-0.135939 -0.0377103 0
-0.13985 -0.0385149 0
-0.143762 -0.0393092 0
-0.147675 -0.0401031 0
-0.15159 -0.0408904 0
-0.155506 -0.041668 0
-0.159422 -0.0424455 0
-0.163342 -0.0432056 0
-0.167262 -0.0439627 0
-0.171183 -0.0447127 0
-0.175108 -0.0454463 0
-0.179033 -0.0461799 0
-0.182961 -0.0468942 0
-0.18689 -0.0476022 0
-0.190821 -0.0483046 0
-0.194755 -0.0489856 0
-0.198689 -0.0496667 0
-0.202626 -0.0503294 0
-0.206565 -0.0509829 0
-0.210504 -0.0516328 0
-0.214448 -0.0522585 0
-0.218391 -0.0528841 0
-0.222337 -0.0534933 0
-0.226284 -0.0540912 0
-0.230232 -0.0546875 0
-0.234184 -0.0552582 0
-0.238136 -0.0558289 0
-0.242089 -0.0563854 0
-0.246045 -0.0569295 0
-0.25 -0.0535098 0
-0.25 -0.0495461 0
-0.25 -0.0455824 0
-0.25 -0.0416187 0
-0.25 -0.0376551 0
-0.25 -0.0336914 0
-0.25 -0.0297277 0
-0.25 -0.025764 0
-0.25 -0.0218003 0
-0.25 -0.0178366 0
-0.25 -0.0138729 0
-0.25 -0.00990922 0
-0.25 -0.00594553 0
-0.25 -0.00198184 0
-0.25 0.00198184 0
-0.25 0.00594553 0
-0.25 0.00990922 0
-0.25 0.0138729 0
-0.25 0.0178366 0
-0.25 0.0218003 0
-0.25 0.025764 0
-0.25 0.0297277 0
-0.25 0.0336914 0
-0.25 0.0376551 0
-0.25 0.0416187 0
-0.25 0.0455824 0
-0.25 0.0495461 0
-0.25 0.0535098 0
-0.246045 0.0569295 0.01
-0.242089 0.0563854 0.01
-0.238136 0.0558289 0.01
-0.234184 0.0552582 0.01
-0.230232 0.0546875 0.01
-0.226284 0.0540912 0.01
-0.222337 0.0534933 0.01
-0.218391 0.0528841 0.01
-0.214448 0.0522585 0.01
-0.210504 0.0516328 0.01
-0.206565 0.0509829 0.01
-0.202626 0.0503294 0.01
-0.198689 0.0496667 0.01
-0.194755 0.0489856 0.01
-0.190821 0.0483046 0.01
-0.18689 0.0476022 0.01
-0.182961 0.0468942 0.01
-0.179033 0.0461799 0.01
-0.175108 0.0454463 0.01
-0.171183 0.0447127 0.01
-0.167262 0.0439627 0.01
[...]
CELL_DATA 7657
SCALARS rho float
LOOKUP_TABLE default
0.478245
0.369861
0.39444
0.173822
0.495289
0.366178
0.258726
0.416718
0.336318
0.499154
0.499224
0.416241
0.304931
0.416448
0.494578
0.489417
0.494516
0.401025
0.401126
0.419099
0.493823
0.402263
0.360555
0.401292
0.408088
0.413773
0.186895
0.312173
0.495983
0.366505
0.239685
0.408054
0.357242
0.476237
0.476685
0.241552
0.368316
0.359609
0.481476
0.212806
0.394089
0.335175
0.159834
0.359978
0.393855
0.395284
0.265236
0.365567
0.407967
0.477866
0.358623
0.172776
0.495898
0.496822
0.256856
0.370389
0.494101
0.492247
0.452882
0.238008
0.408278
0.393114
0.409176
0.409412
0.499914
0.49993
0.304578
0.37409
0.498427
0.448652
0.395305
0.306662
0.162885
0.495963
0.474937
0.364261
0.402379
0.363585
0.474411
0.310362
0.356631
0.417166
0.419268
0.394163
0.395439
0.457862
0.394897
0.447656
0.414024
0.18834
0.499768
0.499812
0.454585
0.497735
0.216657
0.460514
0.459232
0.36436
0.393342
0.216501
0.401364
0.405731
0.367867
0.493413
0.26704
0.345993
0.225275
0.376209
0.312018
0.493392
0.239931
0.373349
0.359305
0.419271
0.397647
0.436565
0.377163
0.211077
0.488773
0.365869
0.500635
0.500617
0.224156
0.365035
0.418541
0.416423
0.416052
0.159997
0.372668
0.15892
0.17629
0.403221
0.371103
0.164047
0.418989
0.22768
0.489747
0.357406
0.404178
0.404416
0.225614
0.190551
0.20958
0.214654
0.400458
0.493746
0.354013
0.370957
0.392435
0.225307
0.206186
0.498552
0.390372
0.159093
0.493826
0.36898
0.374244
0.402991
0.419056
0.229624
0.403286
0.492027
0.413561
0.435174
0.390282
0.367637
0.481519
0.359532
0.397546
0.4892
0.393657
0.348011
0.403025
0.207848
0.245882
0.243502
0.167153
0.460499
0.418386
0.207933
0.214574
0.310771
0.405323
0.405314
0.30186
0.451072
0.324882
0.166268
0.414903
0.46045
0.495903
0.497941
0.419054
0.46546
0.414805
0.372081
0.419208
0.491696
0.243829
0.39693
0.400738
0.405389
0.461985
0.445225
0.186599
0.496924
0.315855
0.268909
0.474012
0.464952
0.385923
0.392364
0.390054
0.418997
0.393319
0.165057
0.250507
0.456465
0.376128
0.396804
0.370058
0.371868
0.498861
0.374754
0.318171
0.358479
0.318131
0.19778
0.359131
0.498902
0.388754
0.388837
0.308955
0.49372
0.487879
0.419155
0.447202
0.406299
0.406317
0.491432
0.385548
0.203453
0.462152
0.357188
0.473066
0.4678
0.324987
0.46689
0.327527
0.358052
0.241992
0.168467
0.37623
0.475171
0.248748
0.166089
0.372371
0.495243
0.496702
0.375093
0.363999
0.496594
0.488358
0.397378
0.252642
0.394889
0.442952
0.201968
0.400708
0.20648
0.294618
0.189642
0.19088
0.419328
0.472425
0.397822
0.278494
0.375173
0.372577
0.415421
0.364953
0.411439
0.197564
0.219898
0.169885
0.240298
0.219916
0.177424
0.395552
0.399132
0.398208
0.165065
0.196077
0.496519
0.376652
0.186293
0.481819
0.41738
0.436395
0.398498
0.459293
0.497353
0.204813
0.322589
0.186866
0.456231
0.254147
0.164173
0.400245
0.375937
0.415611
0.440971
0.491197
0.327516
0.407733
0.491016
0.496465
0.495277
0.375585
0.411618
0.211991
0.360021
0.496415
0.449237
0.48918
0.495983
0.323041
0.387382
0.492667
0.398867
0.345939
0.49622
0.488327
0.375489
0.41695
0.408312
0.375375
0.197808
0.407468
0.49587
0.414545
0.246164
0.376939
0.488402
0.419327
0.247916
0.495865
0.374425
0.395841
0.492713
0.368116
0.402422
0.419047
0.402657
0.25503
0.407381
0.403382
0.271101
0.407553
0.267053
0.379781
0.401955
0.395973
0.438537
0.494226
0.244394
0.414411
0.214114
0.454707
0.45796
0.369006
0.425968
0.419084
0.418862
0.312623
0.306882
0.402878
0.407728
0.399696
0.487501
0.390849
0.400476
0.191039
0.409112
0.496234
0.498515
0.477451
0.415891
0.414085
0.492255
0.380057
0.376349
0.375641
0.419029
0.413333
0.44949
0.249553
0.348876
0.492168
0.366999
0.419058
0.41918
0.400121
0.497387
0.214759
0.425716
0.489937
0.292008
0.492457
0.494565
0.403097
0.369631
0.409273
0.174446
0.462186
0.418766
0.392808
0.417145
0.175039
0.364807
0.360201
0.416993
0.275818
0.384903
0.370241
0.398092
0.459578
0.41814
0.160847
0.405706
0.433939
0.253731
0.37968
0.419232
0.411856
0.487097
0.497323
0.40367
0.488552
0.400863
0.366843
0.485875
0.234841
0.496167
0.415395
0.390986
0.385657
0.271398
0.494462
0.434871
0.407745
0.40722
0.380654
0.264935
0.321314
0.460425
0.260966
0.490037
0.488678
0.462932
0.477094
0.373758
0.399566
0.45852
0.387077
0.41844
0.342864
0.350604
0.256964
0.252757
0.496145
0.381079
0.422512
0.478978
0.493499
0.40513
0.41199
0.36584
0.223464
0.495868
0.439364
0.496022
0.402619
0.403175
0.391415
0.375052
0.20046
0.233462
0.498375
0.409801
0.491762
0.408291
0.41615
0.464286
0.415709
0.284017
0.174446
0.362536
0.4767
0.478159
0.41739
0.4172
0.431311
0.417981
0.447493
0.451237
0.380134
0.163004
0.437995
0.487305
0.19894
0.411462
0.404813
0.49168
0.40161
0.417967
0.484804
0.402248
0.482689
0.363024
0.489837
0.419011
0.417116
0.178802
0.415223
0.417612
0.497171
0.394705
0.497533
0.408782
0.378486
0.487819
0.416979
0.422137
0.39251
0.405053
0.393066
0.416907
0.252169
0.399813
0.391005
0.405113
0.430023
0.415887
0.412204
0.418594
0.404512
0.162035
0.369317
0.404234
0.488072
0.175565
0.420332
0.413422
0.483269
0.486634
0.21559
0.415266
0.349544
0.476871
0.487518
0.361241
0.418217
0.289453
0.40397
0.485647
0.497986
0.418637
0.24184
0.473414
0.460257
0.362224
0.402524
0.36426
0.455521
0.277783
0.416827
0.419758
0.415738
0.416221
0.323443
0.401612
0.456888
0.374581
0.403985
0.418064
0.410032
0.436344
0.498381
0.28802
0.414816
0.416508
0.269442
0.429652
0.453617
0.37456
0.245487
0.325699
0.391479
0.416302
0.463169
0.493239
0.375559
0.414643
0.416898
0.416718
0.413752
0.46581
0.376081
0.493746
0.413887
0.416084
0.415971
0.485769
0.391993
0.487896
0.419509
0.429022
0.425721
0.416707
0.234452
0.49662
0.496569
0.418185
0.41714
0.409752
0.367302
0.43513
0.438321
0.333487
0.401087
0.373625
0.496575
0.40991
0.158628
0.417774
0.423908
0.40865
0.496206
0.401083
0.496198
0.405024
0.406937
0.283826
0.179986
0.418461
0.40831
0.410186
0.400822
0.416468
0.485985
0.410354
0.394877
0.418063
0.41944
0.415163
0.192329
0.404779
0.408938
0.40873
0.222588
0.410627
0.488568
0.428509
0.408965
0.403075
0.426418
0.416659
0.410804
0.393739
0.41828
0.45716
0.416301
0.488665
0.171651
0.391957
0.386358
0.388266
0.419239
0.411081
0.391526
0.409163
0.397201
0.415922
0.417049
0.411261
0.378695
0.175252
0.336456
0.232873
0.469375
0.416634
0.415518
0.409386
0.404295
0.415489
0.418947
0.321607
0.494875
0.494525
0.275176
0.403727
0.323019
0.350335
0.271713
0.329184
0.411537
0.327706
0.411731
0.417873
0.418043
0.171195
0.416491
0.496469
0.402673
0.285726
0.488421
0.497107
0.46337
0.419789
0.234284
0.394642
0.417827
0.417803
0.495797
0.409636
0.413135
0.496347
0.238217
0.453654
0.408175
0.495168
0.157686
0.407857
0.41534
0.431265
0.350359
0.41854
0.417989
0.408782
0.409454
0.38359
0.495083
0.452015
0.252149
0.417771
0.350816
0.343364
0.223108
0.413366
0.497241
0.286618
0.409805
0.484471
0.498345
0.494351
0.495543
0.213277
0.49604
0.496211
0.377621
0.495676
0.418615
0.408248
0.409293
0.417144
0.376891
0.343617
0.409258
0.415894
0.402455
0.40219
0.487022
0.338834
0.495487
0.415564
0.486608
0.494131
0.495351
0.386591
0.228699
0.408822
0.211154
0.417756
0.268523
0.419424
0.495305
0.162511
0.455623
0.404779
0.427826
0.270392
0.415075
0.409842
0.392884
0.487973
0.417537
0.449923
0.400461
0.413958
0.494734
0.228008
0.290252
0.415396
0.406829
0.453443
0.453433
0.357109
0.494928
0.41669
0.464967
0.316646
0.292833
0.359978
0.276789
0.494546
0.41924
0.35592
0.417649
0.492723
0.419218
0.360903
0.418859
0.418431
0.267116
0.46031
0.41523
0.212601
0.433015
0.284676
0.418066
0.414751
0.211198
0.413804
0.418318
0.2479
0.486122
0.419362
0.494036
0.408417
0.41851
0.412628
0.407949
0.497793
0.496389
0.493834
0.396296
0.448162
0.460458
0.158518
0.494218
0.49657
0.227876
0.34203
0.214006
0.410529
0.432706
0.496299
0.432956
0.492381
0.494149
0.418406
0.492104
0.494373
0.157335
0.409987
0.418188
0.224924
0.493573
0.270473
0.340886
0.496417
0.295072
0.414365
0.493858
0.212465
0.223287
0.494891
0.494021
0.417118
0.494621
0.41542
0.444572
0.41493
0.333948
0.32782
0.339616
0.416792
0.416491
0.494659
0.31022
0.410286
0.356708
0.494084
0.494359
0.493802
0.49432
0.412429
0.493289
0.463188
0.493005
0.493524
0.489508
0.418208
0.48987
0.200634
0.410745
0.197833
0.463397
0.253657
0.357587
0.208102
0.226727
0.441184
0.441298
0.495839
0.415732
0.493245
0.415554
0.351842
0.459213
0.419067
0.415155
0.495954
0.414477
0.445793
0.216274
0.492969
0.441656
0.441538
0.304535
0.488969
0.415147
0.414728
0.196201
0.451546
0.451528
0.417808
0.359144
0.361115
0.292696
0.214807
0.496312
0.419522
0.417337
0.402817
0.217931
0.209818
0.418828
0.415196
0.39281
0.199116
0.309974
0.310135
0.3138
0.414621
0.229375
0.388015
0.416072
0.239567
0.408489
0.491603
0.415094
0.417014
0.375608
0.364776
0.418398
0.208034
0.465369
0.414501
0.409703
0.477631
0.479929
0.409704
0.419222
0.469836
0.190711
0.410239
0.417109
0.358689
0.241357
0.418609
0.492533
0.414757
0.414978
0.40978
0.410078
0.418551
0.412898
0.405914
0.194658
0.216394
0.492571
0.247275
0.418828
0.458534
0.495983
0.496739
0.411871
0.405258
0.418932
0.415318
0.419437
0.419874
0.491901
0.414126
0.409518
0.418761
0.214829
0.41876
0.494594
0.41395
0.409453
0.296829
0.495708
0.415829
0.415335
0.30415
0.30316
0.348144
0.415072
0.49128
0.418956
0.391313
0.396944
0.239109
0.200552
0.401377
0.414
0.491748
0.251847
0.411208
0.264824
0.231715
0.417976
0.495805
0.411198
0.496012
0.396744
0.396824
0.390993
0.495757
0.401157
0.419611
0.414549
0.401173
0.2968
0.391581
0.477415
0.372798
0.495919
0.192126
0.358232
0.4941
0.496414
0.417632
0.49195
0.494
0.491221
0.417331
0.261968
0.190827
0.401892
0.495716
0.322001
0.416271
0.374692
0.479122
0.416823
0.356061
0.406152
0.4189
0.405319
0.418753
0.414824
0.493826
0.41664
0.414795
0.409078
0.495772
0.410989
0.477551
0.359378
0.408877
0.249054
0.412859
0.464269
0.191892
0.49483
0.468191
0.470868
0.414847
0.360208
0.418843
0.267113
0.219482
0.264055
0.418987
0.414055
0.4244
0.428167
0.214013
0.490889
0.415301
0.412569
0.241421
0.212635
0.416825
0.487483
0.495622
0.413715
0.416387
0.196148
0.414673
0.371612
0.193469
0.417729
0.411676
0.386147
0.419219
0.20627
0.417414
0.496414
0.474903
0.41398
0.475786
0.419132
0.489362
0.418556
0.49591
0.490446
0.190375
0.39233
0.39274
0.490495
0.49304
0.412607
0.361415
0.416502
0.490096
0.416572
0.236601
0.488645
0.418618
0.414356
0.216211
0.23736
0.414393
0.24743
0.357843
0.221388
0.312393
0.311756
0.365525
0.363462
0.411454
0.233258
0.495692
0.411157
0.49673
0.418424
0.253717
0.41533
0.417788
0.415608
0.223049
0.418573
0.494777
0.416282
0.415599
0.468352
0.418803
0.240748
0.24998
0.443143
0.443188
0.418294
0.494876
0.240846
0.415734
0.495544
0.41872
0.41904
0.404479
0.401504
0.496489
0.46235
0.170352
0.260183
0.417944
0.236712
0.415241
0.261931
0.378921
0.418357
0.410883
0.416418
0.417137
0.406167
0.406364
0.287343
0.496222
0.191979
0.496602
0.415024
0.418663
0.492441
0.419004
0.490053
0.401966
0.276839
0.250945
0.492572
0.361291
0.492824
0.417308
0.417528
0.195789
0.49599
0.491804
0.326272
0.417598
0.256147
0.216266
0.411814
0.492333
0.257314
0.375147
0.295737
0.229178
0.47658
0.410413
0.478242
0.474788
0.410924
0.405928
0.405908
0.189233
0.410454
0.418638
0.418529
0.227504
0.405364
0.415685
0.335342
0.2489
0.416691
0.40997
0.416322
0.418309
0.417667
0.418767
0.409322
0.496533
0.409429
0.386133
0.400736
0.413037
0.412739
0.410927
0.245286
0.416273
0.399539
0.399206
0.490304
0.41737
0.413563
0.497412
0.416955
0.404202
0.415614
0.412987
0.489693
0.161394
0.413432
0.160991
0.490836
0.400186
0.253687
0.481116
0.392077
0.39163
0.418561
0.418111
0.373647
0.418833
0.417571
0.495618
0.382256
0.382579
0.29832
0.418558
0.410703
0.41787
0.368557
0.41884
0.417528
0.411641
0.412792
0.418146
0.469325
0.470686
0.370431
0.417643
0.415574
0.418339
0.353049
0.329828
0.330536
0.405324
0.415667
0.417371
0.418142
0.418955
0.40588
0.181092
0.406089
0.405025
0.418349
0.290487
0.416342
0.373814
0.417919
0.385417
0.38559
0.413672
0.492351
0.416889
0.236468
0.49573
0.418776
0.212817
0.394509
0.496439
0.491837
0.401107
0.254268
0.301455
0.307397
0.394312
0.413365
0.417183
0.40695
0.404234
0.399653
0.418561
0.406938
0.398228
0.399441
0.402344
0.418025
0.405356
0.416919
0.200367
0.400097
0.493287
0.492095
0.412872
0.416085
0.40305
0.415854
0.418006
0.416166
0.194572
0.399703
0.417727
0.417728
0.417154
0.418133
0.417729
0.416471
0.287288
0.383339
0.383608
0.417352
0.415765
0.417653
0.492236
0.262178
0.415985
0.409462
0.418344
0.410487
0.167086
0.492366
0.413736
0.22652
0.488156
0.417215
0.277126
0.4169
0.15948
0.398316
0.234742
0.235525
0.159331
0.159146
0.408735
0.415434
0.495931
0.495951
0.161606
0.41746
0.418626
0.365098
0.379065
0.411163
0.245336
0.415864
0.41561
0.47836
0.216252
0.192292
0.362418
0.418088
0.41794
0.417697
0.417898
0.497481
0.413161
0.41361
0.414048
0.417392
0.412701
0.417503
0.416052
0.385656
0.492693
0.460911
0.496474
0.416544
0.415806
0.418016
0.415446
0.390059
0.415001
0.413289
0.404458
0.416347
0.415003
0.413436
0.497079
0.414431
0.414425
0.490659
0.400874
0.405895
0.496511
0.414867
0.418489
0.492168
0.217826
0.417219
0.489287
0.414819
0.495661
0.414193
0.41505
0.257228
0.495898
0.488877
0.490247
0.380359
0.380035
0.413086
0.258932
0.49724
0.41602
0.497974
0.348516
0.416699
0.4149
0.197215
0.372639
0.489656
0.388034
0.200317
0.497877
0.203195
0.498707
0.498668
0.497802
0.204394
0.41111
0.497546
0.415504
0.496137
0.493817
0.416325
0.418559
0.473837
0.189471
0.257855
0.49723
0.364792
0.414131
0.262096
0.187036
0.187981
0.414774
0.469894
0.204906
0.177125
0.48826
0.497512
0.417589
0.462448
0.413705
0.165721
0.498349
0.498317
0.492128
0.41628
0.491964
0.416735
0.184169
0.409065
0.40918
0.412799
0.495951
0.416935
0.496477
0.497082
0.417173
0.203073
0.418804
0.418635
0.222917
0.245283
0.242542
0.36789
0.414305
0.491744
0.469965
0.414558
0.413944
0.414669
0.412024
0.414649
0.497716
0.405561
0.497152
0.209397
0.463685
0.412913
0.162375
0.161553
0.491453
0.408518
0.493964
0.415318
0.414407
0.413514
0.40616
0.406177
0.415333
0.415075
0.417314
0.49566
0.325859
0.41453
0.412391
0.414894
0.357515
0.357764
0.417578
0.416236
0.413369
0.417785
0.414814
0.495106
0.417478
0.367464
0.495594
0.358813
0.359969
0.415086
0.410151
0.416496
0.412527
0.381649
0.382
0.374504
0.385914
0.386072
0.243629
0.411159
0.496849
0.367848
0.412447
0.414598
0.480534
0.41223
0.3916
0.391204
0.399199
0.398766
0.40694
0.415633
0.394914
0.40507
0.40481
0.495558
0.412057
0.401449
0.487198
0.413813
0.387571
0.387376
0.407036
0.413073
0.407198
0.396134
0.395554
0.415009
0.411873
0.403909
0.418751
0.407202
0.216248
0.415586
0.444052
0.496862
0.414247
0.399256
0.412335
0.497578
0.497537
0.497274
0.418423
0.494985
0.493027
0.400485
0.497022
0.364839
0.489256
0.493633
0.497058
0.414236
0.41677
0.417241
0.357137
0.418373
0.418733
0.496248
0.224962
0.226433
0.412619
0.417891
0.397857
0.488586
0.411182
0.413267
0.49134
0.491982
0.418631
0.4955
0.49547
0.4181
0.491216
0.251824
0.255578
0.493822
0.396006
0.367915
0.46513
0.206146
0.496942
0.497006
0.41748
0.49598
0.496307
0.487979
0.414832
0.219503
0.409006
0.49567
0.459295
0.482796
0.496118
0.413194
0.49624
0.239046
0.413549
0.226024
0.404249
0.412108
0.496793
0.222937
0.222769
0.417092
0.389602
0.491048
0.495584
0.488304
0.414073
0.209311
0.411798
0.493424
0.41772
0.496367
0.495294
0.495014
0.414336
0.387562
0.41521
0.495548
0.413118
0.496216
0.414248
0.482151
0.493576
0.416141
0.488552
0.383841
0.384072
0.49471
0.493714
0.495462
0.49534
0.487709
0.495795
0.495898
0.473117
0.416506
0.407993
0.495626
0.496129
0.416679
0.412273
0.414586
0.403336
0.414375
0.492584
0.379427
0.379716
0.496678
0.497098
0.278721
0.497082
0.494517
0.418291
0.412149
0.410705
0.49409
0.494832
0.418364
0.495526
0.495821
0.488032
0.468692
0.493881
0.496241
0.491861
0.496173
0.371507
0.412328
0.482164
0.41341
0.495741
0.495578
0.476655
0.412145
0.41374
0.41158
0.495182
0.485908
0.495884
0.190691
0.363935
0.412432
0.497206
0.492829
0.372264
0.413132
0.493722
0.49536
0.495551
0.15818
0.158067
0.418592
0.402738
0.495755
0.17814
0.408807
0.494593
0.471124
0.414226
0.166715
0.495426
0.408931
0.182921
0.494885
0.407851
0.491584
0.411443
0.41746
0.4958
0.496889
0.412671
0.412673
0.408394
0.493449
0.495818
0.418206
0.496165
0.492528
0.369235
0.493664
0.413544
0.417311
0.49438
0.168147
0.41333
0.494825
0.41193
0.495947
0.496238
0.477278
0.405618
0.40743
0.414494
0.418551
0.405842
0.418603
0.495654
0.412401
0.493905
0.495518
0.495344
0.493043
0.495562
0.41631
0.4958
0.307544
0.495649
0.296952
0.49547
0.492608
0.491424
0.496534
0.49214
0.414626
0.360004
0.360892
0.413654
0.415422
0.496029
0.199095
0.201851
0.400427
0.399797
0.494362
0.49555
0.494564
0.41609
0.49078
0.495487
0.409109
0.368706
0.494686
0.495571
0.414836
0.495798
0.235146
0.26057
0.496901
0.49635
0.496316
0.370531
0.492801
0.4957
0.493682
0.466292
0.46761
0.497943
0.492417
0.49537
0.160617
0.388038
0.387847
0.41061
0.366585
0.493239
0.494032
0.491639
0.491605
0.493785
0.474794
0.495393
0.408238
0.193498
0.49377
0.493999
0.496059
0.411317
0.493312
0.495258
0.413212
0.396521
0.395923
0.466615
0.492268
0.495694
0.49346
0.414655
0.404747
0.493979
0.403448
0.496578
0.488982
0.492884
0.411751
0.491102
0.417089
0.413048
0.492641
0.496027
0.412247
0.415757
0.412449
0.490864
0.493394
0.487771
0.491668
0.495571
0.495536
0.493105
0.493631
0.49348
0.405383
0.492064
0.495332
0.491779
0.40304
0.495756
0.496189
0.487359
0.495301
0.493278
0.495265
0.353408
0.496103
0.493514
0.492335
0.492619
0.494996
0.407693
0.496484
0.416711
0.415171
0.49448
0.494234
0.493991
0.491838
0.495401
0.493081
0.495907
0.493647
0.414328
0.493752
0.413072
0.408647
0.409197
0.411971
0.495507
0.491306
0.494733
0.410729
0.492816
0.492892
0.492362
0.490181
0.493904
0.493164
0.408073
0.491875
0.487834
0.493648
0.490467
0.409024
0.495807
0.402404
0.495772
0.494025
0.496391
0.475715
0.491354
0.224792
0.221275
0.418224
0.487797
0.491469
0.492919
0.408551
0.40759
0.496137
0.492724
0.495792
0.490057
0.491133
0.495082
0.494787
0.494756
0.494011
0.492874
0.491574
0.492462
0.399292
0.496084
0.393832
0.243754
0.410228
0.410983
0.408175
0.411267
0.39928
0.493245
0.393705
0.492428
0.482776
0.486661
0.491039
0.49209
0.492725
0.413509
0.479538
0.49581
0.494585
0.491561
0.479557
0.490797
0.472056
0.411489
0.495369
0.492159
0.417929
0.495552
0.365374
0.418923
0.495396
0.486988
0.495489
0.491623
0.354455
0.41549
0.495775
0.46736
0.490741
0.493057
0.491585
0.493331
0.491218
0.495414
0.48983
0.255633
0.494218
0.412219
0.411364
0.413992
0.480214
0.490286
0.4957
0.491307
0.49244
0.491866
0.49646
0.491022
0.465232
0.489561
0.49072
0.239168
0.467695
0.491226
0.49526
0.403935
0.490528
0.48829
0.48745
0.411574
0.491579
0.416015
0.431073
0.414217
0.490554
0.493176
0.489483
0.494937
0.493166
0.435966
0.495853
0.41502
0.491847
0.413638
0.496747
0.408909
0.495454
0.491065
0.495884
0.49633
0.49032
0.424929
0.495252
0.410467
0.492148
0.411924
0.414585
0.412581
0.489882
0.406874
0.49563
0.433153
0.486517
0.493266
0.411002
0.49092
0.490491
0.496119
0.495161
0.398748
0.410779
0.405604
0.41134
0.490561
0.493979
0.49393
0.410752
0.491126
0.491905
0.405956
0.420106
0.310434
0.294828
0.489914
0.439808
0.413231
0.197381
0.201911
0.400381
0.489677
0.422611
0.492704
0.490122
0.489223
0.495337
0.489878
0.488222
0.442358
0.41731
0.257837
0.488536
0.409125
0.488801
0.492414
0.411097
0.494422
0.466202
0.41442
0.468617
0.428057
0.410555
0.448886
0.373058
0.444903
0.48954
0.415437
0.406422
0.414848
0.494798
0.442422
0.410509
0.195009
0.40886
0.49205
0.4072
0.417
0.492257
0.413379
0.491256
0.495131
0.4098
0.404879
0.41029
0.403902
0.48819
0.489487
0.41511
0.492106
0.494241
0.446602
0.410022
0.353796
0.4105
0.408143
0.486657
0.42264
0.408872
0.489408
0.49694
0.491047
0.407101
0.408421
0.406697
0.497475
0.428048
0.406893
0.493432
0.406605
0.489845
0.40951
0.407546
0.474757
0.488853
0.221283
0.226107
0.451937
0.453941
0.489415
0.485426
0.410513
0.407277
0.382086
0.381818
0.454032
0.495907
0.245684
0.493509
0.491604
0.489454
0.49385
0.493298
0.455957
0.410491
0.406044
0.490737
0.406864
0.487028
0.492624
0.408466
0.487243
0.408582
0.410291
0.486356
0.437936
0.489179
0.416419