# vtk DataFile Version 1.0
unstructured grid
ascii
DATASET UNSTRUCTURED_GRID
points 8094 float
-0.25 0.0574735 0
0.5 0.0546937 0
0.5 -0.0546937 0
-0.25 -0.0574735 0
-0.25 0.0574735 0.01
0.5 0.0546937 0.01
0.5 -0.0546937 0.01
-0.25 -0.0574735 0.01
-0.246045 0.0569295 0
-0.242089 0.0563854 0
-0.238136 0.0558289 0
-0.234184 0.0552582 0
-0.230232 0.0546875 0
-0.226284 0.0540912 0
-0.222337 0.0534933 0
-0.218391 0.0528841 0
-0.214448 0.0522585 0
-0.210504 0.0516328 0
-0.206565 0.0509829 0
-0.202626 0.0503294 0
-0.198689 0.0496667 0
-0.194755 0.0489856 0
-0.190821 0.0483046 0
-0.18689 0.0476022 0
-0.182961 0.0468942 0
-0.179033 0.0461799 0
-0.175108 0.0454463 0
-0.171183 0.0447127 0
-0.167262 0.0439627 0
-0.163342 0.0432056 0
-0.159422 0.0424455 0
-0.155506 0.041668 0
-0.15159 0.0408904 0
-0.147675 0.0401031 0
-0.143762 0.0393092 0
-0.13985 0.0385149 0
-0.135939 0.0377103 0
-0.132028 0.0369056 0
-0.128117 0.0361005 0
-0.124207 0.0352949 0
-0.120296 0.0344893 0
-0.116386 0.0336836 0
-0.112475 0.032878 0
-0.108563 0.0320794 0
-0.104649 0.0312931 0
-0.100735 0.0305068 0
-0.0968152 0.029745 0
-0.0928949 0.0289889 0
-0.0889722 0.0282446 0
-0.0850433 0.0275341 0
-0.0811144 0.0268235 0
-0.0771778 0.0261578 0
-0.0732381 0.0255098 0
-0.0692962 0.0248759 0
-0.0653442 0.0243073 0
-0.0613923 0.0237386 0
-0.0574324 0.0232306 0
-0.0534681 0.0227556 0
-0.0495024 0.0222934 0
-0.0455272 0.0219207 0
-0.041552 0.0215481 0
-0.0375717 0.0212385 0
-0.0335881 0.0209694 0
-0.029604 0.0207098 0
-0.0256151 0.0205369 0
-0.0216262 0.0203639 0
-0.0176357 0.0202396 0
-0.0136441 0.0201487 0
-0.00965243 0.0200635 0
-0.00565987 0.0200372 0
-0.00166732 0.020011 0
0.00232526 0.0200121 0
0.00631785 0.0200329 0
0.0103104 0.0200563 0
0.0143027 0.0201109 0
0.018295 0.0201654 0
0.022287 0.0202345 0
0.0262788 0.0203144 0
0.0302706 0.0203957 0
0.034262 0.0204956 0
0.0382534 0.0205955 0
0.0422446 0.0207045 0
0.0462355 0.0208207 0
0.0502265 0.0209377 0
0.054217 0.0210676 0
0.0582075 0.0211975 0
0.0621978 0.0213339 0
0.0661879 0.0214757 0
0.0701781 0.021618 0
0.0741678 0.0217703 0
0.0781575 0.0219227 0
0.0821471 0.0220801 0
0.0861364 0.022242 0
0.0901258 0.0224041 0
0.0941148 0.0225747 0
0.0981038 0.0227453 0
0.102093 0.0229202 0
0.106081 0.023099 0
0.11007 0.0232779 0
0.114058 0.0234644 0
0.118046 0.0236509 0
0.122035 0.0238411 0
0.126022 0.024035 0
0.13001 0.0242288 0
0.133998 0.0244298 0
0.137986 0.0246308 0
0.141973 0.0248352 0
0.14596 0.025043 0
0.149947 0.0252509 0
0.153934 0.0254654 0
0.157921 0.02568 0
0.161908 0.0258978 0
0.165894 0.026119 0
0.169881 0.0263402 0
0.173867 0.0265678 0
0.177853 0.0267956 0
0.181839 0.0270264 0
0.185825 0.0272607 0
0.189811 0.0274951 0
0.193796 0.0277356 0
0.197781 0.0279764 0
0.201767 0.02822 0
0.205752 0.0284673 0
0.209737 0.0287146 0
0.213721 0.0289679 0
0.217706 0.0292217 0
0.22169 0.0294782 0
0.225674 0.0297385 0
0.229658 0.0299988 0
0.233642 0.0302651 0
0.237626 0.0305319 0
0.241609 0.0308014 0
0.245593 0.0310748 0
0.249576 0.0313482 0
0.253559 0.0316276 0
0.257542 0.0319077 0
0.261524 0.0321904 0
0.265507 0.0324772 0
0.269489 0.032764 0
0.273471 0.0330568 0
0.277453 0.0333504 0
0.281434 0.0336466 0
0.285416 0.0339471 0
0.289397 0.0342476 0
0.293378 0.034554 0
0.297359 0.0348615 0
0.301339 0.0351714 0
0.305319 0.0354859 0
0.3093 0.0358005 0
0.313279 0.036121 0
0.317259 0.0364427 0
0.321239 0.0367667 0
0.325218 0.0370957 0
0.329197 0.0374248 0
0.333175 0.0377597 0
0.337154 0.0380961 0
0.341132 0.0384347 0
0.34511 0.0387786 0
0.349088 0.0391226 0
0.353065 0.0394724 0
0.357042 0.0398239 0
0.361019 0.0401775 0
0.364995 0.0405368 0
0.368972 0.0408961 0
0.372948 0.0412613 0
0.376924 0.0416285 0
0.380899 0.0419975 0
0.384874 0.0423727 0
0.388849 0.0427479 0
0.392823 0.0431289 0
0.396798 0.0435123 0
0.400772 0.0438973 0
0.404745 0.044289 0
0.408718 0.0446807 0
0.412691 0.0450781 0
0.416664 0.0454782 0
0.420636 0.0458797 0
0.424608 0.0462883 0
0.42858 0.046697 0
0.432551 0.0471114 0
0.436521 0.0475289 0
0.440492 0.0479474 0
0.444462 0.0483738 0
0.448432 0.0488001 0
0.452401 0.0492319 0
0.45637 0.0496673 0
0.460338 0.0501035 0
0.464306 0.0505482 0
0.468274 0.0509928 0
0.472241 0.0514427 0
0.476208 0.0518968 0
0.480175 0.0523512 0
0.48414 0.0528148 0
0.488106 0.0532784 0
0.492071 0.0537471 0
0.496036 0.0542204 0
0.5 0.050787 0
0.5 0.0468803 0
0.5 0.0429736 0
0.5 0.0390669 0
0.5 0.0351602 0
0.5 0.0312535 0
0.5 0.0273468 0
0.5 0.0234402 0
0.5 0.0195335 0
0.5 0.0156268 0
0.5 0.0117201 0
0.5 0.00781339 0
0.5 0.00390669 0
0.5 1.43781e-13 0
0.5 -0.00390669 0
0.5 -0.00781339 0
0.5 -0.0117201 0
0.5 -0.0156268 0
0.5 -0.0195335 0
0.5 -0.0234402 0
0.5 -0.0273468 0
0.5 -0.0312535 0
0.5 -0.0351602 0
0.5 -0.0390669 0
0.5 -0.0429736 0
0.5 -0.0468803 0
0.5 -0.050787 0
0.496036 -0.0542204 0
0.492071 -0.0537471 0
0.488106 -0.0532784 0
0.48414 -0.0528148 0
0.480175 -0.0523512 0
0.476208 -0.0518968 0
0.472241 -0.0514427 0
0.468274 -0.0509928 0
0.464306 -0.0505482 0
0.460338 -0.0501035 0
0.45637 -0.0496673 0
0.452401 -0.0492319 0
0.448432 -0.0488001 0
0.444462 -0.0483738 0
0.440492 -0.0479474 0
0.436521 -0.0475289 0
0.432551 -0.0471114 0
0.42858 -0.046697 0
0.424608 -0.0462883 0
0.420636 -0.0458797 0
0.416664 -0.0454782 0
0.412691 -0.0450781 0
0.408718 -0.0446807 0
0.404745 -0.044289 0
0.400772 -0.0438973 0
0.396798 -0.0435123 0
0.392823 -0.0431289 0
0.388849 -0.0427479 0
0.384874 -0.0423727 0
0.380899 -0.0419975 0
0.376924 -0.0416285 0
0.372948 -0.0412613 0
0.368972 -0.0408961 0
0.364995 -0.0405368 0
0.361019 -0.0401775 0
0.357042 -0.0398239 0
0.353065 -0.0394724 0
0.349088 -0.0391226 0
0.34511 -0.0387786 0
0.341132 -0.0384347 0
0.337154 -0.0380961 0
0.333175 -0.0377597 0
0.329197 -0.0374248 0
0.325218 -0.0370957 0
0.321239 -0.0367667 0
0.317259 -0.0364427 0
0.313279 -0.036121 0
0.3093 -0.0358005 0
0.305319 -0.0354859 0
0.301339 -0.0351714 0
0.297359 -0.0348615 0
0.293378 -0.034554 0
0.289397 -0.0342476 0
0.285416 -0.0339471 0
0.281434 -0.0336466 0
0.277453 -0.0333504 0
0.273471 -0.0330568 0
0.269489 -0.032764 0
0.265507 -0.0324772 0
0.261524 -0.0321904 0
0.257542 -0.0319077 0
0.253559 -0.0316276 0
0.249576 -0.0313482 0
0.245593 -0.0310748 0
0.241609 -0.0308014 0
0.237626 -0.0305319 0
0.233642 -0.0302651 0
0.229658 -0.0299988 0
0.225674 -0.0297385 0
0.22169 -0.0294782 0
0.217706 -0.0292217 0
0.213721 -0.0289679 0
0.209737 -0.0287146 0
0.205752 -0.0284673 0
0.201767 -0.02822 0
0.197781 -0.0279764 0
0.193796 -0.0277356 0
0.189811 -0.0274951 0
0.185825 -0.0272607 0
0.181839 -0.0270264 0
0.177853 -0.0267956 0
0.173867 -0.0265678 0
0.169881 -0.0263402 0
0.165894 -0.026119 0
0.161908 -0.0258978 0
0.157921 -0.02568 0
0.153934 -0.0254654 0
0.149947 -0.0252509 0
0.14596 -0.025043 0
0.141973 -0.0248352 0
0.137986 -0.0246308 0
0.133998 -0.0244298 0
0.13001 -0.0242288 0
0.126022 -0.024035 0
0.122035 -0.0238411 0
0.118046 -0.0236509 0
0.114058 -0.0234644 0
0.11007 -0.0232779 0
0.106081 -0.023099 0
0.102093 -0.0229202 0
0.0981038 -0.0227453 0
0.0941148 -0.0225747 0
0.0901258 -0.0224041 0
0.0861364 -0.022242 0
0.0821471 -0.0220801 0
0.0781575 -0.0219227 0
0.0741678 -0.0217703 0
0.0701781 -0.021618 0
0.0661879 -0.0214757 0
0.0621978 -0.0213339 0
0.0582075 -0.0211975 0
0.054217 -0.0210676 0
0.0502265 -0.0209377 0
0.0462355 -0.0208207 0
0.0422446 -0.0207045 0
0.0382534 -0.0205955 0
0.034262 -0.0204956 0
0.0302706 -0.0203957 0
0.0262788 -0.0203144 0
0.022287 -0.0202345 0
0.018295 -0.0201654 0
0.0143027 -0.0201109 0
0.0103104 -0.0200563 0
0.00631785 -0.0200329 0
0.00232526 -0.0200121 0
-0.00166732 -0.020011 0
-0.00565987 -0.0200372 0
-0.00965243 -0.0200635 0
-0.0136441 -0.0201487 0
-0.0176357 -0.0202396 0
-0.0216262 -0.0203639 0
-0.0256151 -0.0205369 0
-0.029604 -0.0207098 0
-0.0335881 -0.0209694 0
-0.0375717 -0.0212385 0
-0.041552 -0.0215481 0
-0.0455272 -0.0219207 0
-0.0495024 -0.0222934 0
-0.0534681 -0.0227556 0
-0.0574324 -0.0232306 0
-0.0613923 -0.0237386 0
-0.0653442 -0.0243073 0
-0.0692962 -0.0248759 0
-0.0732381 -0.0255098 0
-0.0771778 -0.0261578 0
-0.0811144 -0.0268235 0
-0.0850433 -0.0275341 0
-0.0889722 -0.0282446 0
-0.0928949 -0.0289889 0
-0.0968152 -0.029745 0
-0.100735 -0.0305068 0
-0.104649 -0.0312931 0
-0.108563 -0.0320794 0
-0.112475 -0.032878 0
-0.116386 -0.0336836 0
-0.120296 -0.0344893 0
-0.124207 -0.0352949 0
-0.128117 -0.0361005 0
-0.132028 -0.0369056 0
-0.135939 -0.0377103 0
-0.13985 -0.0385149 0
-0.143762 -0.0393092 0
-0.147675 -0.0401031 0
-0.15159 -0.0408904 0
-0.155506 -0.041668 0
-0.159422 -0.0424455 0
-0.163342 -0.0432056 0
-0.167262 -0.0439627 0
-0.171183 -0.0447127 0
-0.175108 -0.0454463 0
-0.179033 -0.0461799 0
-0.182961 -0.0468942 0
-0.18689 -0.0476022 0
-0.190821 -0.0483046 0
-0.194755 -0.0489856 0
-0.198689 -0.0496667 0
-0.202626 -0.0503294 0
-0.206565 -0.0509829 0
-0.210504 -0.0516328 0
-0.214448 -0.0522585 0
-0.218391 -0.0528841 0
-0.222337 -0.0534933 0
-0.226284 -0.0540912 0
-0.230232 -0.0546875 0
-0.234184 -0.0552582 0
-0.238136 -0.0558289 0
-0.242089 -0.0563854 0
-0.246045 -0.0569295 0
-0.25 -0.0535098 0
-0.25 -0.0495461 0
-0.25 -0.0455824 0
-0.25 -0.0416187 0
-0.25 -0.0376551 0
-0.25 -0.0336914 0
-0.25 -0.0297277 0
-0.25 -0.025764 0
-0.25 -0.0218003 0
-0.25 -0.0178366 0
-0.25 -0.0138729 0
-0.25 -0.00990922 0
-0.25 -0.00594553 0
-0.25 -0.00198184 0
-0.25 0.00198184 0
-0.25 0.00594553 0
-0.25 0.00990922 0
-0.25 0.0138729 0
-0.25 0.0178366 0
-0.25 0.0218003 0
-0.25 0.025764 0
-0.25 0.0297277 0
-0.25 0.0336914 0
-0.25 0.0376551 0
-0.25 0.0416187 0
-0.25 0.0455824 0
-0.25 0.0495461 0
-0.25 0.0535098 0
-0.246045 0.0569295 0.01
-0.242089 0.0563854 0.01
-0.238136 0.0558289 0.01
-0.234184 0.0552582 0.01
-0.230232 0.0546875 0.01
-0.226284 0.0540912 0.01
-0.222337 0.0534933 0.01
-0.218391 0.0528841 0.01
-0.214448 0.0522585 0.01
-0.210504 0.0516328 0.01
-0.206565 0.0509829 0.01
-0.202626 0.0503294 0.01
-0.198689 0.0496667 0.01
-0.194755 0.0489856 0.01
-0.190821 0.0483046 0.01
-0.18689 0.0476022 0.01
-0.182961 0.0468942 0.01
-0.179033 0.0461799 0.01
-0.175108 0.0454463 0.01
-0.171183 0.0447127 0.01
-0.167262 0.0439627 0.01
[...]
CELL_DATA 7657
SCALARS rho float
LOOKUP_TABLE default
0.47834
0.370046
0.397682
0.175039
0.495321
0.360924
0.259192
0.430751
0.336547
0.49916
0.499229
0.430326
0.305222
0.430485
0.494617
0.489484
0.494556
0.409814
0.409138
0.433033
0.493868
0.410958
0.36075
0.408967
0.420696
0.427785
0.187926
0.312457
0.495993
0.362118
0.240257
0.420713
0.357441
0.476335
0.476782
0.242116
0.362436
0.359806
0.481567
0.213601
0.396895
0.335405
0.341276
0.354025
0.396538
0.398801
0.265655
0.360242
0.420814
0.477962
0.352404
0.174003
0.495907
0.496831
0.257345
0.365181
0.494144
0.492302
0.453002
0.238583
0.4212
0.395573
0.422187
0.422514
0.499919
0.499935
0.304871
0.369682
0.498435
0.448777
0.398948
0.306954
0.334761
0.495972
0.475037
0.358729
0.410848
0.357804
0.474512
0.310653
0.35683
0.431053
0.43295
0.397213
0.398703
0.457979
0.398364
0.447781
0.428086
0.189355
0.499772
0.499816
0.454704
0.497744
0.217416
0.460628
0.459348
0.36455
0.395809
0.217261
0.410437
0.417922
0.368056
0.493459
0.267455
0.346204
0.225939
0.371773
0.312305
0.493439
0.240504
0.370956
0.348205
0.432923
0.4031
0.436698
0.372975
0.211885
0.488842
0.360802
0.500639
0.500621
0.224859
0.365228
0.432167
0.430479
0.43015
0.340744
0.367745
0.342254
0.177481
0.414048
0.365843
0.33712
0.432993
0.228361
0.489813
0.357605
0.41442
0.414876
0.226302
0.191571
0.2104
0.215416
0.408615
0.49379
0.354215
0.371142
0.394728
0.225972
0.207015
0.49856
0.390538
0.342632
0.49387
0.369167
0.369691
0.412107
0.433019
0.230287
0.412688
0.492083
0.427549
0.435307
0.391858
0.367826
0.48161
0.347764
0.40226
0.489268
0.396511
0.34822
0.413662
0.208662
0.246422
0.244047
0.168908
0.460614
0.432059
0.208765
0.215338
0.311055
0.41641
0.41657
0.302153
0.451193
0.325142
0.226615
0.428972
0.460565
0.495913
0.497949
0.432997
0.465572
0.428893
0.367123
0.433139
0.491755
0.244372
0.400751
0.409227
0.417449
0.462098
0.445351
0.187662
0.496931
0.316129
0.269314
0.474114
0.465064
0.38586
0.39468
0.39152
0.432998
0.395969
0.2702
0.251014
0.456582
0.370981
0.400482
0.370243
0.372051
0.498868
0.370466
0.318443
0.358677
0.31839
0.19868
0.357564
0.498908
0.389752
0.389902
0.309241
0.493766
0.487951
0.433024
0.447327
0.418041
0.418159
0.491492
0.385286
0.204324
0.462266
0.357386
0.473168
0.467908
0.325247
0.466999
0.327787
0.356102
0.242534
0.169767
0.3724
0.475271
0.249263
0.182166
0.372553
0.495277
0.496711
0.370687
0.364192
0.496601
0.488429
0.402552
0.253128
0.398293
0.44308
0.202858
0.409171
0.207324
0.294927
0.190636
0.191899
0.433055
0.472529
0.402777
0.345709
0.370918
0.370219
0.429555
0.365143
0.424972
0.1985
0.220625
0.17117
0.240855
0.220642
0.178595
0.395713
0.405958
0.403452
0.331147
0.197032
0.496525
0.371996
0.187337
0.481909
0.431258
0.436527
0.403948
0.459408
0.49737
0.205673
0.322853
0.187927
0.456349
0.254623
0.338715
0.40735
0.371735
0.429757
0.4411
0.491256
0.327774
0.420523
0.491076
0.496472
0.495311
0.371275
0.42519
0.344805
0.360217
0.496422
0.44936
0.489248
0.49601
0.323311
0.387551
0.492718
0.405375
0.346152
0.496245
0.488398
0.375668
0.430872
0.408465
0.372694
0.198708
0.420153
0.495879
0.428611
0.24668
0.377116
0.488475
0.433172
0.248469
0.495875
0.374605
0.399811
0.492764
0.36225
0.412549
0.432996
0.413019
0.255529
0.419772
0.414278
0.271483
0.420029
0.26747
0.376595
0.410331
0.400128
0.438667
0.494268
0.24492
0.428486
0.214897
0.454826
0.458077
0.363524
0.426107
0.432704
0.432443
0.312903
0.307171
0.413198
0.407879
0.405782
0.487575
0.392581
0.407843
0.192018
0.422181
0.496243
0.498525
0.477547
0.430001
0.428116
0.492309
0.376951
0.372421
0.371662
0.432578
0.427282
0.449613
0.250084
0.349086
0.492222
0.362141
0.433033
0.433015
0.407918
0.497393
0.215542
0.425855
0.490003
0.292335
0.492511
0.494604
0.413784
0.363947
0.422379
0.175663
0.462299
0.432366
0.395784
0.4311
0.176242
0.364999
0.360398
0.430988
0.276209
0.385074
0.370427
0.403803
0.459694
0.431851
0.340313
0.417929
0.434073
0.254201
0.379855
0.433128
0.42549
0.487173
0.497341
0.414773
0.488624
0.408561
0.360645
0.485955
0.235436
0.496176
0.429505
0.39275
0.385275
0.271772
0.494502
0.435005
0.4205
0.419847
0.378729
0.265354
0.321572
0.460541
0.261452
0.490102
0.48875
0.463046
0.477192
0.369134
0.405418
0.458638
0.387246
0.432536
0.343081
0.35081
0.257448
0.253243
0.496154
0.379442
0.422653
0.479072
0.493546
0.417071
0.425653
0.359512
0.224173
0.495878
0.439494
0.496031
0.412688
0.413716
0.393292
0.370479
0.201362
0.234078
0.498382
0.423089
0.491819
0.421174
0.430235
0.464398
0.429834
0.284371
0.175686
0.356468
0.476798
0.478254
0.431639
0.43148
0.431446
0.431744
0.447617
0.451359
0.380309
0.33785
0.438126
0.487381
0.199861
0.42501
0.416637
0.491737
0.409626
0.432144
0.484887
0.412199
0.482777
0.363217
0.489905
0.432717
0.431414
0.179953
0.429335
0.431841
0.497178
0.397791
0.497539
0.421774
0.375277
0.487894
0.431272
0.422279
0.395231
0.416941
0.396171
0.430817
0.252657
0.407285
0.392466
0.417082
0.430159
0.42997
0.425925
0.432667
0.416117
0.338897
0.36388
0.415687
0.488145
0.17677
0.420477
0.427413
0.483356
0.486711
0.21636
0.429619
0.349752
0.47697
0.487592
0.35416
0.432343
0.289771
0.415259
0.485728
0.497994
0.432688
0.242396
0.473517
0.460373
0.355782
0.412732
0.364452
0.45564
0.278157
0.431141
0.433038
0.430096
0.430287
0.3237
0.40177
0.457007
0.369958
0.415134
0.418209
0.423379
0.436476
0.498391
0.288341
0.428898
0.430491
0.26983
0.42979
0.453739
0.369939
0.246041
0.325954
0.393205
0.430659
0.463283
0.493289
0.37099
0.428723
0.431209
0.430673
0.427797
0.465921
0.373635
0.493792
0.427907
0.430442
0.430051
0.48585
0.393872
0.48797
0.433003
0.429159
0.425862
0.430649
0.235045
0.496633
0.496577
0.432334
0.431025
0.422992
0.367491
0.435264
0.438452
0.333722
0.41002
0.369015
0.496587
0.423209
0.342442
0.431989
0.424049
0.421623
0.496223
0.409838
0.496216
0.416946
0.419528
0.284187
0.181117
0.432538
0.421008
0.423576
0.400979
0.430819
0.486064
0.423793
0.398582
0.432215
0.433025
0.429231
0.193292
0.416534
0.422016
0.421733
0.223303
0.424155
0.48864
0.428648
0.421941
0.413787
0.426558
0.430989
0.424379
0.393903
0.432402
0.457278
0.416448
0.488735
0.172904
0.392122
0.386529
0.388435
0.433175
0.424733
0.393132
0.422321
0.397362
0.430275
0.431349
0.424943
0.375155
0.176452
0.336683
0.23348
0.469482
0.430972
0.429866
0.422622
0.415624
0.429855
0.432629
0.321864
0.494911
0.494565
0.275561
0.414691
0.323276
0.350541
0.27215
0.347387
0.425289
0.32796
0.425512
0.432048
0.4322
0.172461
0.430831
0.496484
0.411454
0.286067
0.488493
0.497115
0.463483
0.419934
0.346091
0.394804
0.432012
0.431997
0.495819
0.422952
0.427053
0.496362
0.238788
0.453775
0.421068
0.495194
0.343705
0.40801
0.429711
0.431402
0.350565
0.418684
0.432144
0.42173
0.422585
0.383761
0.495111
0.452137
0.252638
0.431952
0.351023
0.343579
0.22381
0.427383
0.49725
0.286942
0.423053
0.484556
0.498356
0.494391
0.495565
0.21407
0.49606
0.496219
0.377798
0.495697
0.43259
0.421079
0.4223
0.431429
0.372893
0.343832
0.422366
0.430263
0.412661
0.412127
0.487097
0.339059
0.49551
0.429944
0.486685
0.494168
0.495375
0.386768
0.34492
0.422341
0.211958
0.431936
0.268976
0.432809
0.49533
0.338273
0.455742
0.416572
0.427964
0.270841
0.429177
0.423227
0.395332
0.488046
0.431741
0.450047
0.40062
0.414107
0.494766
0.228677
0.290569
0.429774
0.406983
0.453565
0.453555
0.352512
0.494958
0.430688
0.465079
0.316912
0.293154
0.348818
0.277165
0.49458
0.432808
0.348763
0.43185
0.492772
0.432785
0.361099
0.43288
0.432446
0.267579
0.460427
0.429599
0.213381
0.43315
0.285001
0.432201
0.429098
0.212003
0.42805
0.432311
0.248454
0.4862
0.432789
0.494075
0.421384
0.432461
0.426545
0.420767
0.497801
0.496405
0.493874
0.399747
0.448287
0.460574
0.343243
0.494255
0.496584
0.228547
0.342244
0.214766
0.424114
0.432843
0.496318
0.433092
0.492433
0.494189
0.432488
0.492157
0.494411
0.34463
0.423452
0.432302
0.225616
0.493616
0.270919
0.341106
0.496432
0.295391
0.428611
0.4939
0.213245
0.22399
0.494921
0.49406
0.431377
0.494654
0.429668
0.4447
0.429161
0.334182
0.328073
0.339836
0.43111
0.430462
0.494691
0.310498
0.423806
0.351333
0.494124
0.494395
0.493844
0.494357
0.426329
0.493334
0.463303
0.493053
0.493567
0.489575
0.432172
0.489935
0.201549
0.424384
0.19878
0.46351
0.25413
0.353759
0.208942
0.227407
0.441314
0.441429
0.495862
0.430012
0.493291
0.429835
0.352048
0.45933
0.432651
0.429412
0.495974
0.428813
0.44592
0.217025
0.493016
0.441785
0.441668
0.304825
0.489038
0.429519
0.429081
0.197162
0.45167
0.451652
0.431998
0.34744
0.350131
0.293017
0.215568
0.49633
0.43308
0.431577
0.413278
0.218659
0.210639
0.432459
0.429425
0.394962
0.200052
0.310264
0.310414
0.31407
0.428797
0.230037
0.388185
0.430098
0.240125
0.421408
0.49166
0.429456
0.431104
0.369856
0.354203
0.432317
0.208876
0.46548
0.428831
0.42287
0.477728
0.480022
0.422892
0.432678
0.469943
0.191726
0.42377
0.431358
0.357064
0.241908
0.432647
0.492583
0.428972
0.429343
0.423183
0.423536
0.432506
0.42685
0.418184
0.195637
0.217144
0.492621
0.247784
0.43283
0.458652
0.496002
0.496755
0.412021
0.405413
0.432447
0.429374
0.432942
0.420018
0.491956
0.428245
0.422615
0.432435
0.215588
0.432685
0.494632
0.428042
0.422637
0.297146
0.495723
0.429868
0.429388
0.30444
0.303428
0.348353
0.429438
0.491338
0.432878
0.393282
0.401346
0.239669
0.201463
0.40968
0.428261
0.491803
0.252346
0.424948
0.265277
0.232374
0.431974
0.495819
0.424678
0.496033
0.400833
0.400896
0.392391
0.49578
0.409167
0.432971
0.42881
0.409278
0.297101
0.393477
0.477514
0.37298
0.495939
0.19313
0.356024
0.494138
0.496433
0.431855
0.492004
0.494039
0.49128
0.431326
0.262409
0.191843
0.41155
0.495738
0.322268
0.430266
0.367764
0.479217
0.430941
0.350042
0.418508
0.432441
0.416885
0.432708
0.429177
0.493867
0.430954
0.428988
0.422485
0.495786
0.424683
0.477649
0.358194
0.422223
0.249544
0.426825
0.464383
0.192897
0.494861
0.4683
0.470974
0.429197
0.359205
0.432568
0.267575
0.22019
0.264509
0.432608
0.428111
0.42454
0.428305
0.214761
0.490949
0.429438
0.426513
0.24197
0.213398
0.431118
0.487558
0.49564
0.427761
0.430727
0.197112
0.429015
0.368359
0.194459
0.431867
0.425498
0.386006
0.43295
0.207133
0.431658
0.496437
0.475005
0.428061
0.475886
0.432614
0.489428
0.432286
0.495932
0.490509
0.191392
0.394317
0.39503
0.490557
0.493086
0.426548
0.361609
0.430829
0.49016
0.430896
0.23724
0.488715
0.432384
0.428516
0.216957
0.23793
0.428533
0.247937
0.354871
0.222083
0.312665
0.312041
0.355346
0.352836
0.42524
0.233911
0.495708
0.424634
0.496747
0.432503
0.254199
0.429594
0.431907
0.429676
0.223726
0.432481
0.49481
0.430616
0.429847
0.46846
0.432614
0.241362
0.250529
0.443272
0.443317
0.432182
0.494907
0.241455
0.43011
0.495564
0.432522
0.43277
0.416122
0.409861
0.496505
0.462464
0.171624
0.260649
0.432008
0.237345
0.429455
0.262375
0.376049
0.432354
0.424324
0.430736
0.431164
0.41849
0.418458
0.287683
0.49624
0.192983
0.496618
0.429376
0.432263
0.492492
0.432774
0.490117
0.411636
0.277219
0.251418
0.492622
0.360299
0.492872
0.431525
0.431652
0.196759
0.496011
0.491859
0.326529
0.431754
0.256607
0.217012
0.42548
0.492384
0.25777
0.368853
0.296047
0.229843
0.476679
0.423739
0.478339
0.47489
0.424347
0.41804
0.418052
0.190263
0.423775
0.432685
0.432379
0.228178
0.417279
0.43005
0.335571
0.249395
0.430983
0.423191
0.430672
0.432428
0.431762
0.432633
0.422585
0.496554
0.422534
0.385868
0.409203
0.427033
0.426886
0.424621
0.24584
0.430597
0.406553
0.406353
0.490367
0.43155
0.427777
0.497423
0.431182
0.415034
0.429672
0.427171
0.489759
0.339229
0.427464
0.337168
0.490896
0.407837
0.254172
0.481207
0.393984
0.393999
0.43256
0.432271
0.370528
0.432657
0.43179
0.495636
0.380521
0.380797
0.298621
0.432586
0.424349
0.432062
0.362749
0.432844
0.431723
0.425464
0.426761
0.432248
0.469432
0.470792
0.367242
0.431534
0.429624
0.432397
0.347608
0.345595
0.346493
0.417333
0.430032
0.431224
0.432168
0.432891
0.418105
0.182205
0.418058
0.416422
0.432471
0.290803
0.430688
0.368013
0.432052
0.384908
0.385019
0.427748
0.492402
0.431155
0.23705
0.495754
0.432757
0.213581
0.397601
0.496456
0.491891
0.409995
0.254739
0.30175
0.307687
0.396955
0.42756
0.431393
0.419447
0.415519
0.406251
0.43263
0.419425
0.403361
0.40661
0.411738
0.432192
0.417314
0.431208
0.201295
0.407909
0.493332
0.492148
0.427078
0.430437
0.412925
0.430198
0.432156
0.430506
0.195554
0.406216
0.431886
0.431817
0.431428
0.432283
0.4319
0.430774
0.287627
0.382011
0.382241
0.431593
0.430105
0.431869
0.492288
0.262603
0.430334
0.422585
0.432375
0.42424
0.168433
0.492418
0.427761
0.227168
0.488229
0.431187
0.277518
0.430947
0.342079
0.403997
0.23539
0.236106
0.341485
0.339938
0.421982
0.429784
0.495945
0.495964
0.33931
0.431712
0.432507
0.363202
0.379241
0.424905
0.245862
0.430217
0.429698
0.478456
0.216994
0.193294
0.36124
0.432114
0.43213
0.431921
0.431964
0.497493
0.427377
0.427872
0.42835
0.431643
0.426867
0.431699
0.430381
0.385161
0.492743
0.461025
0.496494
0.430886
0.429839
0.432106
0.429804
0.391555
0.429275
0.427311
0.415487
0.43041
0.429356
0.427672
0.497093
0.428518
0.414573
0.49072
0.401032
0.406049
0.496531
0.428961
0.43255
0.492221
0.218558
0.431496
0.489354
0.428943
0.495678
0.428289
0.429182
0.257685
0.495913
0.488946
0.49031
0.377707
0.377169
0.427307
0.259365
0.497255
0.430031
0.497984
0.348725
0.431002
0.429261
0.19817
0.369364
0.489722
0.388597
0.201248
0.497887
0.204091
0.498717
0.498678
0.497812
0.205279
0.424607
0.497557
0.429636
0.496155
0.493858
0.430669
0.432577
0.47394
0.190467
0.2583
0.497241
0.35865
0.428345
0.262525
0.188067
0.189025
0.429036
0.47
0.205782
0.178301
0.488331
0.497526
0.431804
0.462561
0.427865
0.257066
0.49836
0.498329
0.492181
0.430282
0.492018
0.430828
0.185253
0.42225
0.422224
0.427008
0.495965
0.431225
0.496493
0.497097
0.431443
0.203973
0.432794
0.432678
0.223616
0.245812
0.243134
0.365208
0.428626
0.491799
0.470071
0.428898
0.428139
0.428893
0.425751
0.428996
0.497727
0.417263
0.497165
0.210221
0.463797
0.427098
0.337874
0.334598
0.49151
0.421405
0.494005
0.429693
0.428513
0.427653
0.4184
0.418391
0.429681
0.429427
0.431542
0.495678
0.346038
0.428712
0.426309
0.429149
0.347769
0.347059
0.431584
0.430568
0.427601
0.431822
0.429163
0.495134
0.431609
0.361695
0.495614
0.351252
0.351517
0.429161
0.423415
0.430797
0.426654
0.379599
0.379996
0.368865
0.385595
0.385682
0.244166
0.42515
0.496866
0.363227
0.426579
0.42871
0.480627
0.426342
0.393308
0.393341
0.405866
0.40562
0.419495
0.429974
0.398214
0.416852
0.416415
0.495578
0.426124
0.410629
0.487275
0.428088
0.38771
0.387632
0.419437
0.427058
0.419766
0.400124
0.400095
0.429356
0.425731
0.415007
0.432656
0.419779
0.21699
0.429927
0.44418
0.496878
0.428559
0.399415
0.42638
0.497594
0.497553
0.497287
0.432238
0.495015
0.493074
0.408459
0.497034
0.36503
0.489323
0.493675
0.497069
0.428526
0.431021
0.431511
0.357338
0.43248
0.432432
0.496267
0.225626
0.227083
0.426795
0.432077
0.403298
0.488655
0.425174
0.427369
0.491397
0.492037
0.432316
0.495526
0.495491
0.432033
0.491277
0.252324
0.256034
0.493863
0.400108
0.36308
0.46524
0.207011
0.496961
0.497019
0.431725
0.496002
0.496318
0.488051
0.428961
0.220221
0.422458
0.495693
0.459412
0.482882
0.496139
0.427396
0.496251
0.239654
0.427553
0.226707
0.415749
0.426246
0.496808
0.223615
0.22347
0.431305
0.390883
0.491107
0.495609
0.488375
0.428368
0.210135
0.425824
0.493468
0.431935
0.496377
0.495321
0.495044
0.42858
0.38791
0.429553
0.495571
0.427278
0.496228
0.428307
0.482238
0.493621
0.430497
0.488621
0.382737
0.382898
0.494743
0.493757
0.495483
0.495368
0.487782
0.495812
0.495911
0.473219
0.430609
0.420751
0.495646
0.496143
0.430962
0.426362
0.428775
0.413469
0.428559
0.492634
0.376217
0.376876
0.496693
0.497113
0.279101
0.497094
0.494551
0.432396
0.426037
0.424081
0.49413
0.494864
0.432302
0.495552
0.495836
0.488104
0.468799
0.493921
0.496254
0.491915
0.496194
0.367315
0.426487
0.482251
0.427573
0.495759
0.495597
0.476754
0.426268
0.4278
0.425581
0.49521
0.485986
0.495897
0.19167
0.357443
0.426336
0.497222
0.492878
0.366277
0.427163
0.493765
0.495385
0.495573
0.342612
0.341223
0.432436
0.412338
0.495777
0.179301
0.422226
0.494627
0.471228
0.428422
0.168944
0.495449
0.422243
0.184021
0.494916
0.42098
0.49164
0.425479
0.431694
0.495816
0.496901
0.426592
0.426606
0.421521
0.493493
0.495831
0.432253
0.496185
0.492579
0.366269
0.493706
0.427592
0.431506
0.494416
0.169473
0.427316
0.494856
0.425791
0.495963
0.496252
0.477374
0.417742
0.420239
0.428699
0.432629
0.417677
0.432639
0.495672
0.426559
0.493945
0.495539
0.495375
0.49309
0.495586
0.430432
0.495816
0.307834
0.495677
0.297267
0.495492
0.492657
0.491481
0.496552
0.492192
0.428749
0.352434
0.352737
0.427852
0.429787
0.496043
0.200035
0.202759
0.408574
0.407283
0.494398
0.495569
0.494598
0.430217
0.49084
0.495508
0.422474
0.364261
0.494719
0.4956
0.428938
0.49581
0.235786
0.261006
0.496911
0.496376
0.496342
0.364567
0.49285
0.495722
0.493723
0.466401
0.467718
0.497955
0.492468
0.495393
0.340437
0.388348
0.38831
0.424458
0.36426
0.493284
0.494074
0.491694
0.49166
0.493827
0.474893
0.495415
0.421058
0.194486
0.493813
0.494037
0.496073
0.425273
0.493359
0.495285
0.427356
0.400758
0.400692
0.466724
0.49232
0.495711
0.493503
0.42874
0.415962
0.494021
0.403603
0.496599
0.48905
0.492933
0.425804
0.49116
0.431335
0.427286
0.492691
0.496042
0.426021
0.430128
0.426275
0.490926
0.493439
0.487844
0.491724
0.495603
0.495568
0.493152
0.493673
0.493524
0.417266
0.492117
0.495357
0.491834
0.413519
0.495773
0.496213
0.487433
0.495331
0.493323
0.495295
0.35361
0.496118
0.493557
0.492387
0.492669
0.495027
0.420597
0.496507
0.430785
0.429536
0.494516
0.494271
0.49403
0.491892
0.495424
0.493128
0.495924
0.493691
0.428644
0.493793
0.42715
0.421862
0.422586
0.426046
0.495532
0.491363
0.494766
0.424114
0.492864
0.49294
0.492413
0.490243
0.493947
0.493211
0.421266
0.491929
0.487906
0.493692
0.490528
0.4225
0.49582
0.412395
0.495787
0.494065
0.496411
0.475813
0.491411
0.225485
0.221984
0.432346
0.487869
0.491526
0.492967
0.421889
0.420627
0.496149
0.492776
0.495816
0.490122
0.491192
0.495112
0.494825
0.494793
0.49405
0.492922
0.49163
0.492514
0.405414
0.496106
0.39625
0.244289
0.423504
0.424421
0.421237
0.425252
0.405313
0.493292
0.396203
0.49248
0.482862
0.486739
0.491097
0.492143
0.492775
0.427476
0.47963
0.495822
0.494622
0.491617
0.479649
0.490856
0.472159
0.425501
0.495391
0.492211
0.432028
0.495572
0.365562
0.432571
0.495423
0.487063
0.495513
0.491679
0.354656
0.429864
0.49579
0.467468
0.490801
0.493103
0.491643
0.493376
0.491276
0.495436
0.489895
0.256088
0.494255
0.426098
0.42489
0.428152
0.480305
0.490349
0.495718
0.491364
0.492492
0.491922
0.49648
0.491081
0.465342
0.489627
0.490781
0.239768
0.467803
0.491286
0.495291
0.415255
0.490589
0.488362
0.487524
0.425183
0.491635
0.430343
0.431208
0.428334
0.490615
0.493223
0.48955
0.494971
0.493213
0.436098
0.495869
0.429241
0.491901
0.42789
0.496763
0.422017
0.495479
0.491125
0.495908
0.496343
0.490383
0.425068
0.495284
0.424246
0.492201
0.426026
0.428914
0.426774
0.489946
0.419661
0.495656
0.433287
0.486593
0.493312
0.424944
0.490981
0.490554
0.496135
0.495193
0.398908
0.424691
0.417762
0.424894
0.490624
0.494024
0.493974
0.424402
0.491184
0.491959
0.417651
0.420249
0.310721
0.295152
0.489978
0.439938
0.427398
0.198333
0.202815
0.40854
0.489743
0.422752
0.492754
0.490186
0.489292
0.495364
0.489944
0.488294
0.442486
0.431455
0.258279
0.488606
0.422281
0.488871
0.492465
0.425025
0.49446
0.466312
0.428747
0.468723
0.428194
0.42414
0.449009
0.363754
0.445029
0.489605
0.429756
0.418863
0.429181
0.494833
0.44255
0.423879
0.195981
0.422139
0.492105
0.419937
0.431294
0.492311
0.427452
0.491314
0.495158
0.423536
0.415953
0.424118
0.404057
0.488261
0.489553
0.42944
0.49216
0.494278
0.446727
0.423797
0.353998
0.423843
0.42114
0.486733
0.422781
0.421682
0.489475
0.496955
0.491106
0.419968
0.4215
0.419249
0.497489
0.428185
0.419795
0.493476
0.419282
0.489909
0.423186
0.42021
0.474856
0.488922
0.221992
0.226788
0.452058
0.454061
0.489482
0.485506
0.424376
0.419847
0.382258
0.381993
0.454151
0.495933
0.246201
0.493554
0.49166
0.489521
0.493894
0.493343
0.456075
0.424166
0.418002
0.490797
0.419131
0.487103
0.492673
0.421633
0.487318
0.421741
0.423902
0.486435
0.438067