# vtk DataFile Version 1.0
unstructured grid
ascii
DATASET UNSTRUCTURED_GRID
points 8094 float
-0.25 0.0574735 0
0.5 0.0546937 0
0.5 -0.0546937 0
-0.25 -0.0574735 0
-0.25 0.0574735 0.01
0.5 0.0546937 0.01
0.5 -0.0546937 0.01
-0.25 -0.0574735 0.01
-0.246045 0.0569295 0
-0.242089 0.0563854 0
-0.238136 0.0558289 0
-0.234184 0.0552582 0
-0.230232 0.0546875 0
-0.226284 0.0540912 0
-0.222337 0.0534933 0
-0.218391 0.0528841 0
-0.214448 0.0522585 0
-0.210504 0.0516328 0
-0.206565 0.0509829 0
-0.202626 0.0503294 0
-0.198689 0.0496667 0
-0.194755 0.0489856 0
-0.190821 0.0483046 0
-0.18689 0.0476022 0
-0.182961 0.0468942 0
-0.179033 0.0461799 0
-0.175108 0.0454463 0
-0.171183 0.0447127 0
-0.167262 0.0439627 0
-0.163342 0.0432056 0
-0.159422 0.0424455 0
-0.155506 0.041668 0
-0.15159 0.0408904 0
-0.147675 0.0401031 0
-0.143762 0.0393092 0
-0.13985 0.0385149 0
-0.135939 0.0377103 0
-0.132028 0.0369056 0
-0.128117 0.0361005 0
-0.124207 0.0352949 0
-0.120296 0.0344893 0
-0.116386 0.0336836 0
-0.112475 0.032878 0
-0.108563 0.0320794 0
-0.104649 0.0312931 0
-0.100735 0.0305068 0
-0.0968152 0.029745 0
-0.0928949 0.0289889 0
-0.0889722 0.0282446 0
-0.0850433 0.0275341 0
-0.0811144 0.0268235 0
-0.0771778 0.0261578 0
-0.0732381 0.0255098 0
-0.0692962 0.0248759 0
-0.0653442 0.0243073 0
-0.0613923 0.0237386 0
-0.0574324 0.0232306 0
-0.0534681 0.0227556 0
-0.0495024 0.0222934 0
-0.0455272 0.0219207 0
-0.041552 0.0215481 0
-0.0375717 0.0212385 0
-0.0335881 0.0209694 0
-0.029604 0.0207098 0
-0.0256151 0.0205369 0
-0.0216262 0.0203639 0
-0.0176357 0.0202396 0
-0.0136441 0.0201487 0
-0.00965243 0.0200635 0
-0.00565987 0.0200372 0
-0.00166732 0.020011 0
0.00232526 0.0200121 0
0.00631785 0.0200329 0
0.0103104 0.0200563 0
0.0143027 0.0201109 0
0.018295 0.0201654 0
0.022287 0.0202345 0
0.0262788 0.0203144 0
0.0302706 0.0203957 0
0.034262 0.0204956 0
0.0382534 0.0205955 0
0.0422446 0.0207045 0
0.0462355 0.0208207 0
0.0502265 0.0209377 0
0.054217 0.0210676 0
0.0582075 0.0211975 0
0.0621978 0.0213339 0
0.0661879 0.0214757 0
0.0701781 0.021618 0
0.0741678 0.0217703 0
0.0781575 0.0219227 0
0.0821471 0.0220801 0
0.0861364 0.022242 0
0.0901258 0.0224041 0
0.0941148 0.0225747 0
0.0981038 0.0227453 0
0.102093 0.0229202 0
0.106081 0.023099 0
0.11007 0.0232779 0
0.114058 0.0234644 0
0.118046 0.0236509 0
0.122035 0.0238411 0
0.126022 0.024035 0
0.13001 0.0242288 0
0.133998 0.0244298 0
0.137986 0.0246308 0
0.141973 0.0248352 0
0.14596 0.025043 0
0.149947 0.0252509 0
0.153934 0.0254654 0
0.157921 0.02568 0
0.161908 0.0258978 0
0.165894 0.026119 0
0.169881 0.0263402 0
0.173867 0.0265678 0
0.177853 0.0267956 0
0.181839 0.0270264 0
0.185825 0.0272607 0
0.189811 0.0274951 0
0.193796 0.0277356 0
0.197781 0.0279764 0
0.201767 0.02822 0
0.205752 0.0284673 0
0.209737 0.0287146 0
0.213721 0.0289679 0
0.217706 0.0292217 0
0.22169 0.0294782 0
0.225674 0.0297385 0
0.229658 0.0299988 0
0.233642 0.0302651 0
0.237626 0.0305319 0
0.241609 0.0308014 0
0.245593 0.0310748 0
0.249576 0.0313482 0
0.253559 0.0316276 0
0.257542 0.0319077 0
0.261524 0.0321904 0
0.265507 0.0324772 0
0.269489 0.032764 0
0.273471 0.0330568 0
0.277453 0.0333504 0
0.281434 0.0336466 0
0.285416 0.0339471 0
0.289397 0.0342476 0
0.293378 0.034554 0
0.297359 0.0348615 0
0.301339 0.0351714 0
0.305319 0.0354859 0
0.3093 0.0358005 0
0.313279 0.036121 0
0.317259 0.0364427 0
0.321239 0.0367667 0
0.325218 0.0370957 0
0.329197 0.0374248 0
0.333175 0.0377597 0
0.337154 0.0380961 0
0.341132 0.0384347 0
0.34511 0.0387786 0
0.349088 0.0391226 0
0.353065 0.0394724 0
0.357042 0.0398239 0
0.361019 0.0401775 0
0.364995 0.0405368 0
0.368972 0.0408961 0
0.372948 0.0412613 0
0.376924 0.0416285 0
0.380899 0.0419975 0
0.384874 0.0423727 0
0.388849 0.0427479 0
0.392823 0.0431289 0
0.396798 0.0435123 0
0.400772 0.0438973 0
0.404745 0.044289 0
0.408718 0.0446807 0
0.412691 0.0450781 0
0.416664 0.0454782 0
0.420636 0.0458797 0
0.424608 0.0462883 0
0.42858 0.046697 0
0.432551 0.0471114 0
0.436521 0.0475289 0
0.440492 0.0479474 0
0.444462 0.0483738 0
0.448432 0.0488001 0
0.452401 0.0492319 0
0.45637 0.0496673 0
0.460338 0.0501035 0
0.464306 0.0505482 0
0.468274 0.0509928 0
0.472241 0.0514427 0
0.476208 0.0518968 0
0.480175 0.0523512 0
0.48414 0.0528148 0
0.488106 0.0532784 0
0.492071 0.0537471 0
0.496036 0.0542204 0
0.5 0.050787 0
0.5 0.0468803 0
0.5 0.0429736 0
0.5 0.0390669 0
0.5 0.0351602 0
0.5 0.0312535 0
0.5 0.0273468 0
0.5 0.0234402 0
0.5 0.0195335 0
0.5 0.0156268 0
0.5 0.0117201 0
0.5 0.00781339 0
0.5 0.00390669 0
0.5 1.43781e-13 0
0.5 -0.00390669 0
0.5 -0.00781339 0
0.5 -0.0117201 0
0.5 -0.0156268 0
0.5 -0.0195335 0
0.5 -0.0234402 0
0.5 -0.0273468 0
0.5 -0.0312535 0
0.5 -0.0351602 0
0.5 -0.0390669 0
0.5 -0.0429736 0
0.5 -0.0468803 0
0.5 -0.050787 0
0.496036 -0.0542204 0
0.492071 -0.0537471 0
0.488106 -0.0532784 0
0.48414 -0.0528148 0
0.480175 -0.0523512 0
0.476208 -0.0518968 0
0.472241 -0.0514427 0
0.468274 -0.0509928 0
0.464306 -0.0505482 0
0.460338 -0.0501035 0
0.45637 -0.0496673 0
0.452401 -0.0492319 0
0.448432 -0.0488001 0
0.444462 -0.0483738 0
0.440492 -0.0479474 0
0.436521 -0.0475289 0
0.432551 -0.0471114 0
0.42858 -0.046697 0
0.424608 -0.0462883 0
0.420636 -0.0458797 0
0.416664 -0.0454782 0
0.412691 -0.0450781 0
0.408718 -0.0446807 0
0.404745 -0.044289 0
0.400772 -0.0438973 0
0.396798 -0.0435123 0
0.392823 -0.0431289 0
0.388849 -0.0427479 0
0.384874 -0.0423727 0
0.380899 -0.0419975 0
0.376924 -0.0416285 0
0.372948 -0.0412613 0
0.368972 -0.0408961 0
0.364995 -0.0405368 0
0.361019 -0.0401775 0
0.357042 -0.0398239 0
0.353065 -0.0394724 0
0.349088 -0.0391226 0
0.34511 -0.0387786 0
0.341132 -0.0384347 0
0.337154 -0.0380961 0
0.333175 -0.0377597 0
0.329197 -0.0374248 0
0.325218 -0.0370957 0
0.321239 -0.0367667 0
0.317259 -0.0364427 0
0.313279 -0.036121 0
0.3093 -0.0358005 0
0.305319 -0.0354859 0
0.301339 -0.0351714 0
0.297359 -0.0348615 0
0.293378 -0.034554 0
0.289397 -0.0342476 0
0.285416 -0.0339471 0
0.281434 -0.0336466 0
0.277453 -0.0333504 0
0.273471 -0.0330568 0
0.269489 -0.032764 0
0.265507 -0.0324772 0
0.261524 -0.0321904 0
0.257542 -0.0319077 0
0.253559 -0.0316276 0
0.249576 -0.0313482 0
0.245593 -0.0310748 0
0.241609 -0.0308014 0
0.237626 -0.0305319 0
0.233642 -0.0302651 0
0.229658 -0.0299988 0
0.225674 -0.0297385 0
0.22169 -0.0294782 0
0.217706 -0.0292217 0
0.213721 -0.0289679 0
0.209737 -0.0287146 0
0.205752 -0.0284673 0
0.201767 -0.02822 0
0.197781 -0.0279764 0
0.193796 -0.0277356 0
0.189811 -0.0274951 0
0.185825 -0.0272607 0
0.181839 -0.0270264 0
0.177853 -0.0267956 0
0.173867 -0.0265678 0
0.169881 -0.0263402 0
0.165894 -0.026119 0
0.161908 -0.0258978 0
0.157921 -0.02568 0
0.153934 -0.0254654 0
0.149947 -0.0252509 0
0.14596 -0.025043 0
0.141973 -0.0248352 0
0.137986 -0.0246308 0
0.133998 -0.0244298 0
0.13001 -0.0242288 0
0.126022 -0.024035 0
0.122035 -0.0238411 0
0.118046 -0.0236509 0
0.114058 -0.0234644 0
0.11007 -0.0232779 0
0.106081 -0.023099 0
0.102093 -0.0229202 0
0.0981038 -0.0227453 0
0.0941148 -0.0225747 0
0.0901258 -0.0224041 0
0.0861364 -0.022242 0
0.0821471 -0.0220801 0
0.0781575 -0.0219227 0
0.0741678 -0.0217703 0
0.0701781 -0.021618 0
0.0661879 -0.0214757 0
0.0621978 -0.0213339 0
0.0582075 -0.0211975 0
0.054217 -0.0210676 0
0.0502265 -0.0209377 0
0.0462355 -0.0208207 0
0.0422446 -0.0207045 0
0.0382534 -0.0205955 0
0.034262 -0.0204956 0
0.0302706 -0.0203957 0
0.0262788 -0.0203144 0
0.022287 -0.0202345 0
0.018295 -0.0201654 0
0.0143027 -0.0201109 0
0.0103104 -0.0200563 0
0.00631785 -0.0200329 0
0.00232526 -0.0200121 0
-0.00166732 -0.020011 0
-0.00565987 -0.0200372 0
-0.00965243 -0.0200635 0
-0.0136441 -0.0201487 0
-0.0176357 -0.0202396 0
-0.0216262 -0.0203639 0
-0.0256151 -0.0205369 0
-0.029604 -0.0207098 0
-0.0335881 -0.0209694 0
-0.0375717 -0.0212385 0
-0.041552 -0.0215481 0
-0.0455272 -0.0219207 0
-0.0495024 -0.0222934 0
-0.0534681 -0.0227556 0
-0.0574324 -0.0232306 0
-0.0613923 -0.0237386 0
-0.0653442 -0.0243073 0
-0.0692962 -0.0248759 0
-0.0732381 -0.0255098 0
-0.0771778 -0.0261578 0
-0.0811144 -0.0268235 0
-0.0850433 -0.0275341 0
-0.0889722 -0.0282446 0
-0.0928949 -0.0289889 0
-0.0968152 -0.029745 0
-0.100735 -0.0305068 0
-0.104649 -0.0312931 0
-0.108563 -0.0320794 0
-0.112475 -0.032878 0
-0.116386 -0.0336836 0
-0.120296 -0.0344893 0
-0.124207 -0.0352949 0
-0.128117 -0.0361005 0
-0.132028 -0.0369056 0
-0.135939 -0.0377103 0
-0.13985 -0.0385149 0
-0.143762 -0.0393092 0
-0.147675 -0.0401031 0
-0.15159 -0.0408904 0
-0.155506 -0.041668 0
-0.159422 -0.0424455 0
-0.163342 -0.0432056 0
-0.167262 -0.0439627 0
-0.171183 -0.0447127 0
-0.175108 -0.0454463 0
-0.179033 -0.0461799 0
-0.182961 -0.0468942 0
-0.18689 -0.0476022 0
-0.190821 -0.0483046 0
-0.194755 -0.0489856 0
-0.198689 -0.0496667 0
-0.202626 -0.0503294 0
-0.206565 -0.0509829 0
-0.210504 -0.0516328 0
-0.214448 -0.0522585 0
-0.218391 -0.0528841 0
-0.222337 -0.0534933 0
-0.226284 -0.0540912 0
-0.230232 -0.0546875 0
-0.234184 -0.0552582 0
-0.238136 -0.0558289 0
-0.242089 -0.0563854 0
-0.246045 -0.0569295 0
-0.25 -0.0535098 0
-0.25 -0.0495461 0
-0.25 -0.0455824 0
-0.25 -0.0416187 0
-0.25 -0.0376551 0
-0.25 -0.0336914 0
-0.25 -0.0297277 0
-0.25 -0.025764 0
-0.25 -0.0218003 0
-0.25 -0.0178366 0
-0.25 -0.0138729 0
-0.25 -0.00990922 0
-0.25 -0.00594553 0
-0.25 -0.00198184 0
-0.25 0.00198184 0
-0.25 0.00594553 0
-0.25 0.00990922 0
-0.25 0.0138729 0
-0.25 0.0178366 0
-0.25 0.0218003 0
-0.25 0.025764 0
-0.25 0.0297277 0
-0.25 0.0336914 0
-0.25 0.0376551 0
-0.25 0.0416187 0
-0.25 0.0455824 0
-0.25 0.0495461 0
-0.25 0.0535098 0
-0.246045 0.0569295 0.01
-0.242089 0.0563854 0.01
-0.238136 0.0558289 0.01
-0.234184 0.0552582 0.01
-0.230232 0.0546875 0.01
-0.226284 0.0540912 0.01
-0.222337 0.0534933 0.01
-0.218391 0.0528841 0.01
-0.214448 0.0522585 0.01
-0.210504 0.0516328 0.01
-0.206565 0.0509829 0.01
-0.202626 0.0503294 0.01
-0.198689 0.0496667 0.01
-0.194755 0.0489856 0.01
-0.190821 0.0483046 0.01
-0.18689 0.0476022 0.01
-0.182961 0.0468942 0.01
-0.179033 0.0461799 0.01
-0.175108 0.0454463 0.01
-0.171183 0.0447127 0.01
-0.167262 0.0439627 0.01
[...]
CELL_DATA 7657
SCALARS rho float
LOOKUP_TABLE default
0.577575
0.560552
0.540001
0.540375
0.506987
0.537612
0.550529
0.489077
0.557417
0.505585
0.505986
0.487616
0.554595
0.48822
0.51107
0.575237
0.513212
0.538764
0.538937
0.497694
0.51796
0.536891
0.559625
0.538985
0.495367
0.479964
0.542107
0.555371
0.505911
0.537611
0.548557
0.495161
0.559289
0.577078
0.577204
0.548771
0.537576
0.559573
0.578296
0.545413
0.539835
0.557225
0.538766
0.537948
0.539745
0.540212
0.551119
0.537647
0.494381
0.57746
0.538003
0.54027
0.506557
0.505147
0.550341
0.537531
0.515235
0.546384
0.572173
0.548359
0.491826
0.539532
0.485501
0.483748
0.506865
0.506879
0.554604
0.53747
0.504741
0.57147
0.540216
0.554825
0.53915
0.506233
0.576799
0.537691
0.53696
0.537731
0.576652
0.555051
0.559176
0.490283
0.497202
0.539909
0.540156
0.573138
0.540122
0.571227
0.48071
0.542281
0.506861
0.506853
0.572499
0.505455
0.545888
0.573679
0.573422
0.559984
0.539605
0.54588
0.538189
0.514885
0.560413
0.523285
0.551321
0.558128
0.546944
0.537474
0.555268
0.52777
0.548568
0.537474
0.538234
0.497174
0.54073
0.569366
0.537487
0.545244
0.577726
0.537642
0.507108
0.507162
0.546864
0.560195
0.494466
0.488201
0.486917
0.53877
0.537485
0.538667
0.54073
0.531544
0.537512
0.539256
0.497455
0.547253
0.573836
0.5593
0.529502
0.528066
0.547
0.542591
0.545023
0.545661
0.539648
0.519793
0.558961
0.560789
0.539466
0.546944
0.54464
0.50508
0.562892
0.538673
0.517254
0.560515
0.537472
0.534969
0.497519
0.547414
0.533887
0.551016
0.479379
0.569067
0.538979
0.5604
0.578307
0.538295
0.540678
0.576496
0.539786
0.558381
0.532589
0.544775
0.549211
0.548991
0.53957
0.573748
0.494061
0.544865
0.545645
0.555144
0.522047
0.521056
0.554345
0.571826
0.556329
0.539464
0.483415
0.573694
0.50629
0.505541
0.497402
0.574765
0.483127
0.537497
0.498003
0.556014
0.549013
0.540535
0.539235
0.517512
0.573959
0.570761
0.542069
0.505216
0.555575
0.551517
0.576605
0.574618
0.538199
0.53946
0.538924
0.497414
0.539692
0.539403
0.549671
0.572864
0.53747
0.540478
0.560651
0.560747
0.505324
0.537467
0.555801
0.559454
0.555642
0.543557
0.537799
0.505531
0.53865
0.538686
0.555041
0.521985
0.578434
0.497561
0.571106
0.513472
0.512375
0.559889
0.538141
0.54425
0.57404
0.559244
0.576361
0.575198
0.556369
0.574988
0.556788
0.537841
0.548825
0.539719
0.537477
0.576838
0.549495
0.539516
0.560795
0.507395
0.505672
0.537465
0.55999
0.506476
0.578254
0.540695
0.54992
0.540102
0.570363
0.544093
0.539263
0.544629
0.553808
0.542471
0.54261
0.497703
0.576206
0.540712
0.538402
0.537474
0.537474
0.485074
0.560054
0.475511
0.543496
0.546335
0.539831
0.54863
0.546327
0.540864
0.563371
0.540576
0.540739
0.539329
0.54333
0.506751
0.537474
0.541969
0.578388
0.490938
0.569243
0.540721
0.573429
0.505202
0.544475
0.556136
0.542085
0.572818
0.550097
0.539225
0.540021
0.537469
0.485694
0.570017
0.564771
0.556655
0.496485
0.567565
0.504402
0.507727
0.537464
0.475451
0.538472
0.559514
0.503946
0.571489
0.577001
0.505768
0.556317
0.562497
0.544616
0.540661
0.55821
0.505669
0.578
0.561151
0.489619
0.565158
0.537477
0.543556
0.498843
0.505834
0.482312
0.549253
0.561333
0.577621
0.498123
0.549435
0.506453
0.561052
0.540358
0.538954
0.537575
0.535035
0.497454
0.534098
0.550129
0.501783
0.530848
0.55175
0.499886
0.551306
0.537571
0.537658
0.540403
0.569609
0.511979
0.549065
0.481893
0.545614
0.572535
0.573166
0.537555
0.567602
0.496528
0.495379
0.555316
0.554798
0.533513
0.564958
0.540495
0.578764
0.539075
0.539762
0.542652
0.484859
0.505726
0.50563
0.577374
0.486717
0.480973
0.549024
0.537582
0.537473
0.537473
0.495892
0.478657
0.571537
0.549634
0.55849
0.552944
0.537581
0.497593
0.497445
0.539998
0.506788
0.545669
0.567543
0.571823
0.553589
0.541604
0.509552
0.532245
0.537552
0.483729
0.540528
0.574005
0.495131
0.539643
0.490565
0.540542
0.560052
0.559621
0.490086
0.552035
0.562178
0.560687
0.540733
0.573519
0.493259
0.538874
0.514122
0.568839
0.550038
0.561588
0.497923
0.475524
0.579076
0.505367
0.529252
0.576631
0.539335
0.537661
0.578631
0.548012
0.505936
0.48495
0.539116
0.538148
0.551782
0.510312
0.569062
0.496352
0.501199
0.537621
0.551066
0.55594
0.573685
0.550757
0.573593
0.576581
0.574221
0.577302
0.537464
0.540569
0.573302
0.562501
0.49578
0.557913
0.558606
0.55035
0.549924
0.505376
0.537652
0.567089
0.57774
0.527569
0.519538
0.475686
0.537696
0.546689
0.505434
0.569747
0.506456
0.534671
0.532229
0.53919
0.537463
0.543872
0.547896
0.504741
0.480329
0.556481
0.491014
0.487489
0.574486
0.486055
0.552796
0.54041
0.537785
0.577191
0.577544
0.492558
0.49194
0.568432
0.492797
0.571178
0.571874
0.561707
0.539098
0.569508
0.578384
0.543703
0.475464
0.52176
0.56123
0.538422
0.494388
0.578956
0.535773
0.578585
0.559849
0.574179
0.496417
0.491717
0.541053
0.484371
0.493252
0.505501
0.539958
0.506689
0.487288
0.53752
0.578039
0.491228
0.567009
0.539544
0.519917
0.539747
0.48953
0.549806
0.540257
0.539086
0.519503
0.568241
0.486513
0.47592
0.496294
0.524018
0.538993
0.537553
0.525815
0.577328
0.540577
0.566803
0.478812
0.578691
0.579159
0.545857
0.485241
0.558561
0.577216
0.578908
0.537886
0.495117
0.553342
0.527607
0.578838
0.504441
0.496369
0.548778
0.576439
0.573633
0.53783
0.534707
0.560028
0.572698
0.552242
0.490736
0.497795
0.486943
0.487498
0.556195
0.564297
0.572975
0.537462
0.527566
0.566428
0.479098
0.569223
0.504999
0.553136
0.482971
0.48823
0.551571
0.568164
0.572342
0.537463
0.549205
0.556404
0.539207
0.488981
0.574228
0.53183
0.537466
0.482448
0.491001
0.488894
0.479703
0.574786
0.537483
0.523391
0.480122
0.488221
0.486728
0.578867
0.539315
0.578108
0.497707
0.56804
0.567576
0.488875
0.547998
0.505386
0.50623
0.495056
0.490214
0.480946
0.560326
0.569068
0.569589
0.557093
0.538472
0.537478
0.505598
0.479939
0.538655
0.493794
0.56729
0.488438
0.504801
0.538702
0.504855
0.519881
0.503694
0.55289
0.541183
0.495868
0.493144
0.478513
0.564098
0.489556
0.578668
0.477734
0.54014
0.494648
0.497566
0.484152
0.542829
0.521959
0.486141
0.488035
0.546615
0.476694
0.577413
0.568011
0.486657
0.532329
0.567693
0.490194
0.476166
0.56322
0.495324
0.573021
0.56623
0.577282
0.540119
0.563
0.562375
0.562676
0.498106
0.475631
0.53919
0.484322
0.563651
0.487623
0.491468
0.475397
0.537529
0.540584
0.557362
0.547816
0.575517
0.490109
0.486146
0.482636
0.525796
0.48606
0.496177
0.555984
0.509401
0.511848
0.552004
0.529247
0.556127
0.558577
0.551936
0.538368
0.475263
0.556685
0.475255
0.493991
0.494567
0.54001
0.489631
0.505255
0.536103
0.552995
0.574824
0.505535
0.574278
0.566708
0.538458
0.563367
0.493884
0.493855
0.504943
0.481096
0.47811
0.504802
0.548408
0.572403
0.49228
0.505444
0.538556
0.565067
0.48553
0.568446
0.558583
0.566523
0.494294
0.488108
0.482864
0.562051
0.505557
0.57202
0.549815
0.493596
0.558675
0.557929
0.5467
0.47857
0.505393
0.553129
0.480537
0.578923
0.505364
0.507703
0.505247
0.545504
0.504906
0.505521
0.561348
0.505218
0.495995
0.492342
0.485077
0.491792
0.537464
0.557996
0.484705
0.487546
0.534888
0.535845
0.578954
0.557574
0.505293
0.486356
0.579078
0.506268
0.505365
0.538269
0.53846
0.484954
0.545293
0.493502
0.551559
0.496916
0.505347
0.539046
0.572767
0.521872
0.567863
0.551755
0.483876
0.479789
0.539571
0.577252
0.49279
0.571646
0.564088
0.565854
0.505726
0.547319
0.553383
0.485751
0.564912
0.57236
0.572303
0.538052
0.505641
0.48915
0.574646
0.555619
0.553607
0.538209
0.552192
0.505927
0.496887
0.538285
0.49331
0.51473
0.496857
0.559688
0.497005
0.495439
0.551333
0.573697
0.485137
0.545486
0.568694
0.552916
0.494588
0.483326
0.545296
0.479704
0.494921
0.549414
0.579122
0.496849
0.506371
0.490145
0.495509
0.476407
0.494479
0.504869
0.50499
0.506859
0.540382
0.571304
0.573742
0.538652
0.506142
0.505006
0.547311
0.55774
0.545664
0.476836
0.568753
0.505007
0.56883
0.520624
0.506977
0.49556
0.524067
0.506558
0.538549
0.478635
0.494877
0.546904
0.508702
0.551765
0.557723
0.504993
0.553812
0.481724
0.507699
0.545479
0.54672
0.505648
0.506468
0.491463
0.505825
0.485437
0.570725
0.483755
0.557175
0.556738
0.55758
0.490599
0.488194
0.505813
0.555093
0.477644
0.538127
0.507075
0.506046
0.507811
0.506075
0.476081
0.510093
0.574288
0.512058
0.508858
0.575895
0.494378
0.574624
0.543941
0.476241
0.543565
0.574338
0.550051
0.537986
0.544902
0.547118
0.570079
0.570145
0.505091
0.486684
0.510377
0.48602
0.558824
0.573411
0.496126
0.484562
0.504848
0.482267
0.570902
0.545896
0.512518
0.570224
0.570149
0.55458
0.575475
0.484816
0.483231
0.543377
0.572005
0.571946
0.493798
0.538287
0.53813
0.553575
0.545701
0.505035
0.497803
0.49219
0.533558
0.546101
0.545095
0.495434
0.484655
0.539516
0.543751
0.555064
0.55506
0.55538
0.482557
0.547507
0.562697
0.486876
0.548561
0.490123
0.537291
0.484596
0.490474
0.537464
0.537926
0.494973
0.544896
0.574681
0.482359
0.481069
0.577409
0.577942
0.480962
0.496347
0.575665
0.542646
0.477659
0.49136
0.537801
0.548752
0.496145
0.517767
0.483089
0.484188
0.479803
0.47861
0.495559
0.477388
0.513052
0.543195
0.545904
0.51711
0.549396
0.496819
0.573357
0.505113
0.504894
0.565562
0.564682
0.495576
0.484676
0.497494
0.566729
0.528473
0.480778
0.483139
0.495554
0.545704
0.496231
0.50708
0.480147
0.483061
0.554051
0.504813
0.48616
0.484709
0.554529
0.554544
0.55839
0.484502
0.541545
0.496983
0.539221
0.540619
0.548537
0.543935
0.538508
0.480429
0.532595
0.549834
0.475554
0.551121
0.547721
0.493688
0.504837
0.475744
0.505001
0.540556
0.540566
0.53907
0.505076
0.538947
0.497506
0.482434
0.538866
0.554063
0.539239
0.57735
0.5609
0.505141
0.542764
0.537859
0.506333
0.504872
0.493293
0.52781
0.506629
0.541916
0.491254
0.550893
0.542655
0.536805
0.505069
0.556119
0.487521
0.53747
0.577757
0.489844
0.538203
0.510774
0.495525
0.519925
0.496333
0.483573
0.507006
0.490025
0.483201
0.483964
0.504888
0.475799
0.577383
0.53775
0.485646
0.549575
0.477407
0.574536
0.542831
0.505737
0.575302
0.575896
0.48366
0.5377
0.495842
0.551314
0.546296
0.551078
0.49623
0.480855
0.567388
0.567942
0.545669
0.546163
0.484686
0.476848
0.548763
0.545496
0.490662
0.577781
0.504985
0.479324
0.489222
0.543379
0.483014
0.537472
0.543015
0.493185
0.47551
0.538217
0.497245
0.544699
0.492589
0.505324
0.576783
0.480545
0.576983
0.496225
0.574176
0.494926
0.505273
0.551837
0.542651
0.539405
0.539532
0.550968
0.514485
0.476845
0.559702
0.489479
0.555751
0.489868
0.54832
0.576594
0.495183
0.48161
0.545878
0.548339
0.481744
0.54941
0.537919
0.546504
0.555272
0.555276
0.537861
0.537989
0.475448
0.54792
0.50509
0.475768
0.504948
0.495645
0.550029
0.485231
0.493497
0.485552
0.546703
0.495467
0.505813
0.488714
0.486095
0.575335
0.495977
0.548731
0.54962
0.570441
0.570502
0.494436
0.505716
0.548741
0.486942
0.505092
0.495702
0.496536
0.523947
0.53825
0.504852
0.574084
0.539956
0.550686
0.493685
0.54833
0.484545
0.550876
0.537535
0.494979
0.476175
0.489288
0.490632
0.510787
0.510981
0.553143
0.505026
0.542831
0.504865
0.484292
0.494898
0.518095
0.496571
0.556581
0.536666
0.552221
0.549764
0.517992
0.537658
0.517221
0.491966
0.492368
0.543375
0.505171
0.532198
0.556513
0.492888
0.55022
0.545892
0.47562
0.521281
0.55046
0.537467
0.553822
0.547498
0.577158
0.477504
0.57754
0.576754
0.476168
0.513346
0.513149
0.54248
0.477502
0.496303
0.495123
0.547293
0.517692
0.486714
0.557253
0.549598
0.490001
0.479604
0.488945
0.495414
0.492941
0.496053
0.482668
0.505229
0.482424
0.538206
0.539272
0.477958
0.476185
0.475827
0.549185
0.488609
0.54044
0.540433
0.554986
0.492192
0.478826
0.505741
0.490859
0.527609
0.485504
0.476892
0.56015
0.538956
0.478338
0.538961
0.546823
0.539999
0.55001
0.578223
0.539343
0.539339
0.495764
0.49483
0.537467
0.496256
0.493002
0.505147
0.537767
0.537783
0.554087
0.49593
0.476257
0.494068
0.537552
0.496871
0.492689
0.475523
0.477374
0.49472
0.575546
0.575856
0.537479
0.492229
0.485447
0.495302
0.538278
0.538355
0.538366
0.517691
0.486614
0.490909
0.49428
0.497082
0.513141
0.541368
0.513326
0.522004
0.495564
0.553391
0.489045
0.53746
0.494044
0.538114
0.538128
0.479157
0.524156
0.490621
0.54822
0.505381
0.496538
0.54551
0.539976
0.504942
0.529249
0.538199
0.55
0.55433
0.554853
0.5399
0.478143
0.49157
0.503633
0.525863
0.540452
0.496188
0.503909
0.540763
0.540449
0.535938
0.494529
0.518035
0.490851
0.543936
0.540004
0.512985
0.525182
0.476711
0.488067
0.533521
0.487181
0.494382
0.488465
0.543192
0.540438
0.493285
0.492972
0.491684
0.494902
0.493443
0.489245
0.553106
0.537869
0.537885
0.492288
0.487022
0.493378
0.52169
0.550882
0.487803
0.482526
0.495072
0.476082
0.539659
0.525664
0.480082
0.547116
0.576157
0.490716
0.55223
0.489901
0.538752
0.540741
0.548111
0.548128
0.538744
0.538742
0.487137
0.485712
0.505243
0.506022
0.538965
0.492785
0.495639
0.537553
0.561554
0.475561
0.549183
0.487283
0.485574
0.57758
0.545878
0.542827
0.537618
0.494238
0.494319
0.493559
0.493634
0.504755
0.477491
0.479026
0.480639
0.492498
0.476135
0.492754
0.487836
0.538135
0.515334
0.573763
0.505127
0.489798
0.486134
0.494182
0.485809
0.538939
0.483935
0.478593
0.525855
0.488136
0.484284
0.478373
0.504912
0.481853
0.565946
0.551096
0.564177
0.564799
0.504996
0.483263
0.495839
0.527902
0.546094
0.491986
0.563998
0.48325
0.504821
0.481219
0.48396
0.55045
0.50507
0.567395
0.55554
0.537618
0.537605
0.477376
0.55065
0.50485
0.486811
0.504739
0.55846
0.490106
0.483872
0.543559
0.537465
0.56084
0.53852
0.543929
0.504623
0.544315
0.505882
0.505982
0.505408
0.544497
0.475784
0.505303
0.485358
0.505149
0.507102
0.489051
0.495853
0.576542
0.542461
0.550442
0.505061
0.5377
0.480845
0.550868
0.542114
0.542305
0.483144
0.575663
0.544509
0.540837
0.571695
0.504812
0.493095
0.574068
0.47928
0.539425
0.505704
0.505806
0.529828
0.487533
0.525302
0.48935
0.541797
0.484329
0.484058
0.476663
0.505734
0.490952
0.505101
0.504931
0.491779
0.544312
0.496646
0.496349
0.546689
0.54917
0.54893
0.537508
0.481607
0.529732
0.575689
0.482586
0.48015
0.482818
0.475847
0.482926
0.504786
0.517814
0.505482
0.545092
0.574336
0.476748
0.53906
0.539053
0.533935
0.489783
0.508818
0.485432
0.481891
0.478624
0.510811
0.511026
0.485446
0.484521
0.492139
0.505092
0.538361
0.482265
0.476372
0.483651
0.53828
0.53827
0.492077
0.488636
0.478198
0.493079
0.48356
0.505408
0.492326
0.537576
0.50509
0.538049
0.53805
0.484041
0.478447
0.489441
0.47564
0.537715
0.537732
0.537457
0.538183
0.538197
0.548977
0.474635
0.504967
0.537557
0.475539
0.482545
0.578079
0.475081
0.539235
0.539231
0.540573
0.540574
0.503631
0.48639
0.540082
0.519836
0.52202
0.504969
0.474749
0.537467
0.57831
0.479774
0.538427
0.538409
0.503911
0.477982
0.501251
0.540387
0.540387
0.484204
0.475709
0.527621
0.496211
0.501471
0.545893
0.486345
0.570564
0.505245
0.481396
0.563948
0.475686
0.505472
0.505602
0.504965
0.494592
0.505516
0.513434
0.539668
0.505359
0.560082
0.564678
0.507641
0.50529
0.481323
0.490224
0.492076
0.559323
0.495626
0.495343
0.505054
0.546915
0.547101
0.476062
0.494148
0.540727
0.56946
0.474563
0.477795
0.536848
0.53284
0.494859
0.505372
0.505017
0.493834
0.55743
0.549818
0.550252
0.507276
0.540393
0.537558
0.57463
0.544694
0.505044
0.505195
0.492866
0.505291
0.504649
0.573251
0.482943
0.546288
0.484202
0.50528
0.573479
0.578529
0.505033
0.477558
0.505285
0.548538
0.479456
0.547088
0.525663
0.475081
0.505082
0.54669
0.546679
0.49113
0.538841
0.541318
0.505182
0.57134
0.480724
0.545085
0.474474
0.510208
0.493636
0.505362
0.505263
0.505505
0.481648
0.538434
0.484905
0.505051
0.477325
0.504583
0.481446
0.57846
0.512094
0.488394
0.569948
0.537922
0.537937
0.505764
0.510033
0.505116
0.505426
0.574546
0.504993
0.505512
0.576392
0.488596
0.494502
0.505029
0.505084
0.490083
0.47511
0.482307
0.532222
0.481601
0.520511
0.53757
0.537578
0.504781
0.505334
0.55246
0.505138
0.505897
0.495252
0.475991
0.476734
0.507664
0.505759
0.494785
0.505322
0.505382
0.572933
0.575405
0.506778
0.505202
0.53433
0.50517
0.537479
0.475525
0.578448
0.478279
0.504974
0.504865
0.57718
0.475062
0.479865
0.474363
0.505378
0.577948
0.505473
0.542638
0.537744
0.476343
0.504966
0.514531
0.537474
0.477377
0.508816
0.50517
0.505103
0.53864
0.538636
0.495302
0.53468
0.50519
0.540986
0.485663
0.505902
0.57594
0.481158
0.539548
0.505217
0.485383
0.541631
0.505626
0.49409
0.533798
0.474433
0.4927
0.505284
0.504817
0.476718
0.476801
0.490176
0.50863
0.505759
0.494776
0.505086
0.52388
0.537493
0.50751
0.479248
0.491863
0.506132
0.539778
0.478804
0.505641
0.47569
0.504865
0.504597
0.577357
0.515444
0.499249
0.48214
0.496145
0.515605
0.49607
0.50496
0.475523
0.506658
0.504969
0.505789
0.511622
0.505153
0.487957
0.505293
0.554875
0.505515
0.554067
0.505166
0.516389
0.534908
0.505106
0.52304
0.482253
0.537975
0.537981
0.479136
0.48585
0.505261
0.54375
0.544127
0.539674
0.540252
0.506067
0.505148
0.505918
0.487201
0.54608
0.505152
0.484129
0.537535
0.505752
0.505678
0.482901
0.505626
0.548132
0.550671
0.50511
0.50593
0.506054
0.537505
0.516079
0.504967
0.507314
0.574886
0.575162
0.504708
0.518835
0.505237
0.538865
0.538508
0.538491
0.475563
0.537531
0.50986
0.508682
0.531265
0.538903
0.508667
0.57678
0.50512
0.491942
0.54301
0.509947
0.506532
0.504965
0.474412
0.514127
0.505276
0.477642
0.540479
0.540476
0.574949
0.520888
0.504883
0.508346
0.482529
0.523984
0.510157
0.56443
0.505159
0.567086
0.520264
0.474473
0.540378
0.491434
0.47735
0.523179
0.505076
0.476165
0.487041
0.476591
0.556191
0.511805
0.574314
0.537017
0.50669
0.50699
0.516448
0.507851
0.510036
0.517818
0.524902
0.505323
0.528785
0.532222
0.505148
0.505427
0.57494
0.505937
0.509621
0.505565
0.55887
0.504999
0.508192
0.522724
0.521785
0.505713
0.496769
0.505336
0.489281
0.484912
0.506058
0.506278
0.506633
0.530991
0.505231
0.515424
0.504801
0.511906
0.481703
0.507235
0.477211
0.487969
0.483413
0.474707
0.505266
0.540168
0.505884
0.476707
0.513666
0.519569
0.519346
0.554774
0.510293
0.517322
0.491994
0.526815
0.573334
0.510206
0.550392
0.48394
0.505916
0.534683
0.505523
0.506876
0.504957
0.576992
0.535568
0.546897
0.546491
0.49507
0.573659
0.542281
0.521379
0.487757
0.496532
0.505438
0.529199
0.505215
0.559304
0.54649
0.505585
0.510306
0.510679
0.506698
0.514107
0.535436
0.52419
0.540622
0.505109
0.53977
0.549
0.478454
0.476113
0.49222
0.474446
0.540638
0.514362
0.539758
0.528303
0.578545
0.578556
0.543051
0.526615
0.524582
0.479053
0.577892
0.505042
0.506842
0.533497
0.577898
0.544791
0.576157
0.474394
0.505184
0.522122
0.493781
0.505023
0.560034
0.495894
0.505483
0.576063
0.505308
0.540736
0.558989
0.486032
0.504874
0.575111
0.547519
0.511142
0.553761
0.512027
0.538814
0.505069
0.559866
0.550262
0.506426
0.475936
0.475556
0.480293
0.578049
0.553051
0.505232
0.538288
0.529358
0.53781
0.505187
0.544731
0.574665
0.56127
0.550793
0.54855
0.575192
0.552431
0.50569
0.527527
0.549492
0.572735
0.575653
0.47551
0.537229
0.487876
0.568368
0.481116
0.548468
0.511814
0.56586
0.506216
0.518024
0.569165
0.505539
0.484001
0.5326
0.479103
0.505072
0.486498
0.505145
0.546706
0.505411
0.504763
0.552203
0.567444
0.506002
0.476265
0.531516
0.474716
0.482687
0.476058
0.559151
0.503495
0.505495
0.568738
0.57683
0.512171
0.474721
0.551546
0.555522
0.504608
0.506063
0.563843
0.475103
0.515392
0.475564
0.55538
0.519396
0.521436
0.476035
0.539284
0.536055
0.515551
0.566735
0.555165
0.55385
0.557782
0.569836
0.478007
0.54356
0.544129
0.539684
0.562545
0.5671
0.525196
0.559082
0.568882
0.505365
0.563032
0.572914
0.570246
0.491642
0.550444
0.575483
0.48488
0.570936
0.52717
0.474605
0.507396
0.574856
0.48207
0.575378
0.567928
0.476682
0.57142
0.53753
0.570698
0.562247
0.485744
0.508785
0.483666
0.506474
0.570291
0.47742
0.543196
0.48611
0.532549
0.501493
0.491264
0.533447
0.478169
0.537811
0.505444
0.478648
0.523909
0.476502
0.56453
0.576545
0.563319
0.484618
0.528201
0.506083
0.571031
0.477572
0.558908
0.477457
0.492562
0.576777
0.567063
0.489033
0.56376
0.504937
0.548123
0.501251
0.490184
0.506276
0.505214
0.567887
0.502609
0.508828
0.506033
0.558562
0.480272
0.499467
0.576764
0.568141
0.546498
0.547099
0.572011
0.572372
0.566
0.578178
0.475771
0.501965
0.5619
0.561895
0.572415
0.505678
0.549219
0.514597
0.532552
0.563105
0.512359
0.50927
0.572767
0.476551
0.51406
0.54935
0.50694
0.575863
0.515682
0.489363
0.575636
0.488653
0.477364
0.57881
0.569526
0.565295