# vtk DataFile Version 1.0
unstructured grid
ascii
DATASET UNSTRUCTURED_GRID
points 8094 float
-0.25 0.0574735 0
0.5 0.0546937 0
0.5 -0.0546937 0
-0.25 -0.0574735 0
-0.25 0.0574735 0.01
0.5 0.0546937 0.01
0.5 -0.0546937 0.01
-0.25 -0.0574735 0.01
-0.246045 0.0569295 0
-0.242089 0.0563854 0
-0.238136 0.0558289 0
-0.234184 0.0552582 0
-0.230232 0.0546875 0
-0.226284 0.0540912 0
-0.222337 0.0534933 0
-0.218391 0.0528841 0
-0.214448 0.0522585 0
-0.210504 0.0516328 0
-0.206565 0.0509829 0
-0.202626 0.0503294 0
-0.198689 0.0496667 0
-0.194755 0.0489856 0
-0.190821 0.0483046 0
-0.18689 0.0476022 0
-0.182961 0.0468942 0
-0.179033 0.0461799 0
-0.175108 0.0454463 0
-0.171183 0.0447127 0
-0.167262 0.0439627 0
-0.163342 0.0432056 0
-0.159422 0.0424455 0
-0.155506 0.041668 0
-0.15159 0.0408904 0
-0.147675 0.0401031 0
-0.143762 0.0393092 0
-0.13985 0.0385149 0
-0.135939 0.0377103 0
-0.132028 0.0369056 0
-0.128117 0.0361005 0
-0.124207 0.0352949 0
-0.120296 0.0344893 0
-0.116386 0.0336836 0
-0.112475 0.032878 0
-0.108563 0.0320794 0
-0.104649 0.0312931 0
-0.100735 0.0305068 0
-0.0968152 0.029745 0
-0.0928949 0.0289889 0
-0.0889722 0.0282446 0
-0.0850433 0.0275341 0
-0.0811144 0.0268235 0
-0.0771778 0.0261578 0
-0.0732381 0.0255098 0
-0.0692962 0.0248759 0
-0.0653442 0.0243073 0
-0.0613923 0.0237386 0
-0.0574324 0.0232306 0
-0.0534681 0.0227556 0
-0.0495024 0.0222934 0
-0.0455272 0.0219207 0
-0.041552 0.0215481 0
-0.0375717 0.0212385 0
-0.0335881 0.0209694 0
-0.029604 0.0207098 0
-0.0256151 0.0205369 0
-0.0216262 0.0203639 0
-0.0176357 0.0202396 0
-0.0136441 0.0201487 0
-0.00965243 0.0200635 0
-0.00565987 0.0200372 0
-0.00166732 0.020011 0
0.00232526 0.0200121 0
0.00631785 0.0200329 0
0.0103104 0.0200563 0
0.0143027 0.0201109 0
0.018295 0.0201654 0
0.022287 0.0202345 0
0.0262788 0.0203144 0
0.0302706 0.0203957 0
0.034262 0.0204956 0
0.0382534 0.0205955 0
0.0422446 0.0207045 0
0.0462355 0.0208207 0
0.0502265 0.0209377 0
0.054217 0.0210676 0
0.0582075 0.0211975 0
0.0621978 0.0213339 0
0.0661879 0.0214757 0
0.0701781 0.021618 0
0.0741678 0.0217703 0
0.0781575 0.0219227 0
0.0821471 0.0220801 0
0.0861364 0.022242 0
0.0901258 0.0224041 0
0.0941148 0.0225747 0
0.0981038 0.0227453 0
0.102093 0.0229202 0
0.106081 0.023099 0
0.11007 0.0232779 0
0.114058 0.0234644 0
0.118046 0.0236509 0
0.122035 0.0238411 0
0.126022 0.024035 0
0.13001 0.0242288 0
0.133998 0.0244298 0
0.137986 0.0246308 0
0.141973 0.0248352 0
0.14596 0.025043 0
0.149947 0.0252509 0
0.153934 0.0254654 0
0.157921 0.02568 0
0.161908 0.0258978 0
0.165894 0.026119 0
0.169881 0.0263402 0
0.173867 0.0265678 0
0.177853 0.0267956 0
0.181839 0.0270264 0
0.185825 0.0272607 0
0.189811 0.0274951 0
0.193796 0.0277356 0
0.197781 0.0279764 0
0.201767 0.02822 0
0.205752 0.0284673 0
0.209737 0.0287146 0
0.213721 0.0289679 0
0.217706 0.0292217 0
0.22169 0.0294782 0
0.225674 0.0297385 0
0.229658 0.0299988 0
0.233642 0.0302651 0
0.237626 0.0305319 0
0.241609 0.0308014 0
0.245593 0.0310748 0
0.249576 0.0313482 0
0.253559 0.0316276 0
0.257542 0.0319077 0
0.261524 0.0321904 0
0.265507 0.0324772 0
0.269489 0.032764 0
0.273471 0.0330568 0
0.277453 0.0333504 0
0.281434 0.0336466 0
0.285416 0.0339471 0
0.289397 0.0342476 0
0.293378 0.034554 0
0.297359 0.0348615 0
0.301339 0.0351714 0
0.305319 0.0354859 0
0.3093 0.0358005 0
0.313279 0.036121 0
0.317259 0.0364427 0
0.321239 0.0367667 0
0.325218 0.0370957 0
0.329197 0.0374248 0
0.333175 0.0377597 0
0.337154 0.0380961 0
0.341132 0.0384347 0
0.34511 0.0387786 0
0.349088 0.0391226 0
0.353065 0.0394724 0
0.357042 0.0398239 0
0.361019 0.0401775 0
0.364995 0.0405368 0
0.368972 0.0408961 0
0.372948 0.0412613 0
0.376924 0.0416285 0
0.380899 0.0419975 0
0.384874 0.0423727 0
0.388849 0.0427479 0
0.392823 0.0431289 0
0.396798 0.0435123 0
0.400772 0.0438973 0
0.404745 0.044289 0
0.408718 0.0446807 0
0.412691 0.0450781 0
0.416664 0.0454782 0
0.420636 0.0458797 0
0.424608 0.0462883 0
0.42858 0.046697 0
0.432551 0.0471114 0
0.436521 0.0475289 0
0.440492 0.0479474 0
0.444462 0.0483738 0
0.448432 0.0488001 0
0.452401 0.0492319 0
0.45637 0.0496673 0
0.460338 0.0501035 0
0.464306 0.0505482 0
0.468274 0.0509928 0
0.472241 0.0514427 0
0.476208 0.0518968 0
0.480175 0.0523512 0
0.48414 0.0528148 0
0.488106 0.0532784 0
0.492071 0.0537471 0
0.496036 0.0542204 0
0.5 0.050787 0
0.5 0.0468803 0
0.5 0.0429736 0
0.5 0.0390669 0
0.5 0.0351602 0
0.5 0.0312535 0
0.5 0.0273468 0
0.5 0.0234402 0
0.5 0.0195335 0
0.5 0.0156268 0
0.5 0.0117201 0
0.5 0.00781339 0
0.5 0.00390669 0
0.5 1.43781e-13 0
0.5 -0.00390669 0
0.5 -0.00781339 0
0.5 -0.0117201 0
0.5 -0.0156268 0
0.5 -0.0195335 0
0.5 -0.0234402 0
0.5 -0.0273468 0
0.5 -0.0312535 0
0.5 -0.0351602 0
0.5 -0.0390669 0
0.5 -0.0429736 0
0.5 -0.0468803 0
0.5 -0.050787 0
0.496036 -0.0542204 0
0.492071 -0.0537471 0
0.488106 -0.0532784 0
0.48414 -0.0528148 0
0.480175 -0.0523512 0
0.476208 -0.0518968 0
0.472241 -0.0514427 0
0.468274 -0.0509928 0
0.464306 -0.0505482 0
0.460338 -0.0501035 0
0.45637 -0.0496673 0
0.452401 -0.0492319 0
0.448432 -0.0488001 0
0.444462 -0.0483738 0
0.440492 -0.0479474 0
0.436521 -0.0475289 0
0.432551 -0.0471114 0
0.42858 -0.046697 0
0.424608 -0.0462883 0
0.420636 -0.0458797 0
0.416664 -0.0454782 0
0.412691 -0.0450781 0
0.408718 -0.0446807 0
0.404745 -0.044289 0
0.400772 -0.0438973 0
0.396798 -0.0435123 0
0.392823 -0.0431289 0
0.388849 -0.0427479 0
0.384874 -0.0423727 0
0.380899 -0.0419975 0
0.376924 -0.0416285 0
0.372948 -0.0412613 0
0.368972 -0.0408961 0
0.364995 -0.0405368 0
0.361019 -0.0401775 0
0.357042 -0.0398239 0
0.353065 -0.0394724 0
0.349088 -0.0391226 0
0.34511 -0.0387786 0
0.341132 -0.0384347 0
0.337154 -0.0380961 0
0.333175 -0.0377597 0
0.329197 -0.0374248 0
0.325218 -0.0370957 0
0.321239 -0.0367667 0
0.317259 -0.0364427 0
0.313279 -0.036121 0
0.3093 -0.0358005 0
0.305319 -0.0354859 0
0.301339 -0.0351714 0
0.297359 -0.0348615 0
0.293378 -0.034554 0
0.289397 -0.0342476 0
0.285416 -0.0339471 0
0.281434 -0.0336466 0
0.277453 -0.0333504 0
0.273471 -0.0330568 0
0.269489 -0.032764 0
0.265507 -0.0324772 0
0.261524 -0.0321904 0
0.257542 -0.0319077 0
0.253559 -0.0316276 0
0.249576 -0.0313482 0
0.245593 -0.0310748 0
0.241609 -0.0308014 0
0.237626 -0.0305319 0
0.233642 -0.0302651 0
0.229658 -0.0299988 0
0.225674 -0.0297385 0
0.22169 -0.0294782 0
0.217706 -0.0292217 0
0.213721 -0.0289679 0
0.209737 -0.0287146 0
0.205752 -0.0284673 0
0.201767 -0.02822 0
0.197781 -0.0279764 0
0.193796 -0.0277356 0
0.189811 -0.0274951 0
0.185825 -0.0272607 0
0.181839 -0.0270264 0
0.177853 -0.0267956 0
0.173867 -0.0265678 0
0.169881 -0.0263402 0
0.165894 -0.026119 0
0.161908 -0.0258978 0
0.157921 -0.02568 0
0.153934 -0.0254654 0
0.149947 -0.0252509 0
0.14596 -0.025043 0
0.141973 -0.0248352 0
0.137986 -0.0246308 0
0.133998 -0.0244298 0
0.13001 -0.0242288 0
0.126022 -0.024035 0
0.122035 -0.0238411 0
0.118046 -0.0236509 0
0.114058 -0.0234644 0
0.11007 -0.0232779 0
0.106081 -0.023099 0
0.102093 -0.0229202 0
0.0981038 -0.0227453 0
0.0941148 -0.0225747 0
0.0901258 -0.0224041 0
0.0861364 -0.022242 0
0.0821471 -0.0220801 0
0.0781575 -0.0219227 0
0.0741678 -0.0217703 0
0.0701781 -0.021618 0
0.0661879 -0.0214757 0
0.0621978 -0.0213339 0
0.0582075 -0.0211975 0
0.054217 -0.0210676 0
0.0502265 -0.0209377 0
0.0462355 -0.0208207 0
0.0422446 -0.0207045 0
0.0382534 -0.0205955 0
0.034262 -0.0204956 0
0.0302706 -0.0203957 0
0.0262788 -0.0203144 0
0.022287 -0.0202345 0
0.018295 -0.0201654 0
0.0143027 -0.0201109 0
0.0103104 -0.0200563 0
0.00631785 -0.0200329 0
0.00232526 -0.0200121 0
-0.00166732 -0.020011 0
-0.00565987 -0.0200372 0
-0.00965243 -0.0200635 0
-0.0136441 -0.0201487 0
-0.0176357 -0.0202396 0
-0.0216262 -0.0203639 0
-0.0256151 -0.0205369 0
-0.029604 -0.0207098 0
-0.0335881 -0.0209694 0
-0.0375717 -0.0212385 0
-0.041552 -0.0215481 0
-0.0455272 -0.0219207 0
-0.0495024 -0.0222934 0
-0.0534681 -0.0227556 0
-0.0574324 -0.0232306 0
-0.0613923 -0.0237386 0
-0.0653442 -0.0243073 0
-0.0692962 -0.0248759 0
-0.0732381 -0.0255098 0
-0.0771778 -0.0261578 0
-0.0811144 -0.0268235 0
-0.0850433 -0.0275341 0
-0.0889722 -0.0282446 0
-0.0928949 -0.0289889 0
-0.0968152 -0.029745 0
-0.100735 -0.0305068 0
-0.104649 -0.0312931 0
-0.108563 -0.0320794 0
-0.112475 -0.032878 0
-0.116386 -0.0336836 0
-0.120296 -0.0344893 0
-0.124207 -0.0352949 0
-0.128117 -0.0361005 0
-0.132028 -0.0369056 0
-0.135939 -0.0377103 0
-0.13985 -0.0385149 0
-0.143762 -0.0393092 0
-0.147675 -0.0401031 0
-0.15159 -0.0408904 0
-0.155506 -0.041668 0
-0.159422 -0.0424455 0
-0.163342 -0.0432056 0
-0.167262 -0.0439627 0
-0.171183 -0.0447127 0
-0.175108 -0.0454463 0
-0.179033 -0.0461799 0
-0.182961 -0.0468942 0
-0.18689 -0.0476022 0
-0.190821 -0.0483046 0
-0.194755 -0.0489856 0
-0.198689 -0.0496667 0
-0.202626 -0.0503294 0
-0.206565 -0.0509829 0
-0.210504 -0.0516328 0
-0.214448 -0.0522585 0
-0.218391 -0.0528841 0
-0.222337 -0.0534933 0
-0.226284 -0.0540912 0
-0.230232 -0.0546875 0
-0.234184 -0.0552582 0
-0.238136 -0.0558289 0
-0.242089 -0.0563854 0
-0.246045 -0.0569295 0
-0.25 -0.0535098 0
-0.25 -0.0495461 0
-0.25 -0.0455824 0
-0.25 -0.0416187 0
-0.25 -0.0376551 0
-0.25 -0.0336914 0
-0.25 -0.0297277 0
-0.25 -0.025764 0
-0.25 -0.0218003 0
-0.25 -0.0178366 0
-0.25 -0.0138729 0
-0.25 -0.00990922 0
-0.25 -0.00594553 0
-0.25 -0.00198184 0
-0.25 0.00198184 0
-0.25 0.00594553 0
-0.25 0.00990922 0
-0.25 0.0138729 0
-0.25 0.0178366 0
-0.25 0.0218003 0
-0.25 0.025764 0
-0.25 0.0297277 0
-0.25 0.0336914 0
-0.25 0.0376551 0
-0.25 0.0416187 0
-0.25 0.0455824 0
-0.25 0.0495461 0
-0.25 0.0535098 0
-0.246045 0.0569295 0.01
-0.242089 0.0563854 0.01
-0.238136 0.0558289 0.01
-0.234184 0.0552582 0.01
-0.230232 0.0546875 0.01
-0.226284 0.0540912 0.01
-0.222337 0.0534933 0.01
-0.218391 0.0528841 0.01
-0.214448 0.0522585 0.01
-0.210504 0.0516328 0.01
-0.206565 0.0509829 0.01
-0.202626 0.0503294 0.01
-0.198689 0.0496667 0.01
-0.194755 0.0489856 0.01
-0.190821 0.0483046 0.01
-0.18689 0.0476022 0.01
-0.182961 0.0468942 0.01
-0.179033 0.0461799 0.01
-0.175108 0.0454463 0.01
-0.171183 0.0447127 0.01
-0.167262 0.0439627 0.01
[...]
CELL_DATA 7657
SCALARS rho float
LOOKUP_TABLE default
0.47825
0.369902
0.396264
0.174157
0.4953
0.361133
0.258862
0.430428
0.336377
0.499167
0.499236
0.429976
0.305014
0.430154
0.49459
0.489424
0.494527
0.405149
0.405252
0.432807
0.493835
0.406498
0.3606
0.405285
0.41551
0.427345
0.187175
0.312254
0.495999
0.362132
0.239845
0.415602
0.357289
0.476243
0.47669
0.241711
0.362383
0.359655
0.481482
0.213023
0.39564
0.335234
0.298412
0.352409
0.395314
0.397259
0.265357
0.36051
0.416434
0.477871
0.350598
0.173114
0.495915
0.496838
0.256998
0.365196
0.494113
0.492258
0.452891
0.238168
0.417015
0.394384
0.417949
0.418435
0.499926
0.499942
0.304662
0.369667
0.49844
0.448663
0.397452
0.306746
0.163275
0.49598
0.474943
0.359031
0.406369
0.358121
0.474416
0.310447
0.356679
0.43073
0.432724
0.395879
0.397382
0.45787
0.396927
0.447667
0.427644
0.188616
0.49978
0.499824
0.454593
0.49775
0.216864
0.460521
0.45924
0.364403
0.394671
0.216709
0.405596
0.411925
0.367909
0.493423
0.267161
0.346045
0.225458
0.371815
0.312101
0.493401
0.240091
0.371023
0.347237
0.432697
0.400561
0.436579
0.373
0.211297
0.488779
0.360881
0.500646
0.500628
0.22435
0.365081
0.431902
0.43014
0.429793
0.304384
0.36786
0.343045
0.176613
0.408217
0.365923
0.164431
0.43276
0.227868
0.489754
0.357453
0.408686
0.409006
0.225804
0.190829
0.209803
0.214862
0.404448
0.493756
0.354061
0.370998
0.393609
0.22549
0.206413
0.498565
0.390404
0.341582
0.493837
0.369022
0.369797
0.407139
0.432786
0.229807
0.407502
0.492037
0.427087
0.435188
0.3909
0.36768
0.481525
0.346288
0.400379
0.489207
0.395218
0.348062
0.407939
0.208071
0.246035
0.243656
0.167514
0.460507
0.431788
0.208158
0.214783
0.310852
0.41025
0.410397
0.301944
0.451081
0.324954
0.166634
0.428579
0.460458
0.49592
0.497956
0.432763
0.465467
0.428487
0.367179
0.432916
0.491707
0.243983
0.39928
0.40482
0.4114
0.461992
0.445237
0.18689
0.496939
0.315932
0.269026
0.474018
0.464959
0.385279
0.39361
0.390574
0.432763
0.394753
0.165436
0.250651
0.456473
0.371112
0.399066
0.370098
0.371908
0.498874
0.370495
0.318247
0.358527
0.318202
0.198026
0.357416
0.498914
0.38895
0.389076
0.309036
0.493732
0.487885
0.432795
0.447213
0.411852
0.412049
0.491442
0.384725
0.203689
0.46216
0.357235
0.473071
0.467806
0.325059
0.466896
0.3276
0.355986
0.242145
0.168824
0.372388
0.475176
0.248894
0.166462
0.37241
0.495255
0.496717
0.370631
0.364044
0.496611
0.488364
0.400172
0.252781
0.396834
0.442964
0.202209
0.404732
0.206709
0.294708
0.189912
0.191157
0.432837
0.472431
0.400803
0.343253
0.370957
0.370292
0.42916
0.364996
0.423781
0.197818
0.220097
0.170238
0.240455
0.220115
0.177742
0.395581
0.402602
0.401362
0.165435
0.196336
0.496536
0.372022
0.186577
0.481825
0.430939
0.436409
0.401767
0.4593
0.497367
0.205046
0.322662
0.187157
0.456239
0.254283
0.164548
0.404132
0.371696
0.429364
0.440984
0.491205
0.327587
0.415907
0.491024
0.496482
0.495289
0.371207
0.42411
0.342159
0.360066
0.496432
0.449247
0.489187
0.495996
0.323117
0.387416
0.492676
0.402225
0.345992
0.496233
0.488333
0.375528
0.430541
0.408337
0.372441
0.198054
0.415422
0.495888
0.428204
0.24631
0.376976
0.48841
0.432953
0.248075
0.495882
0.374464
0.398214
0.492723
0.362288
0.407105
0.432763
0.407431
0.255174
0.414136
0.408368
0.271213
0.414538
0.267175
0.376618
0.406119
0.398399
0.43855
0.494238
0.244542
0.428067
0.214327
0.454716
0.457968
0.363447
0.425985
0.43247
0.432187
0.312702
0.306965
0.407462
0.407752
0.403198
0.487507
0.391598
0.404432
0.191305
0.418989
0.496251
0.498528
0.477456
0.429652
0.427701
0.492264
0.376949
0.372316
0.371632
0.432329
0.426791
0.4495
0.249705
0.348928
0.492176
0.362286
0.432803
0.432788
0.403997
0.497403
0.214972
0.425733
0.489946
0.292105
0.492468
0.494577
0.407957
0.363966
0.419363
0.174776
0.462193
0.432107
0.394231
0.430788
0.17537
0.364851
0.360247
0.430674
0.275933
0.384937
0.370283
0.401153
0.459585
0.43157
0.203774
0.412063
0.433954
0.253866
0.379716
0.432904
0.424496
0.487103
0.497336
0.408801
0.488561
0.404927
0.360888
0.485883
0.235006
0.496183
0.429109
0.391803
0.384723
0.271508
0.494475
0.434886
0.416019
0.414908
0.378122
0.265057
0.321385
0.460433
0.261108
0.490044
0.488687
0.46294
0.4771
0.368959
0.403035
0.458529
0.387111
0.432274
0.342918
0.350654
0.257104
0.252896
0.496161
0.37874
0.42253
0.478983
0.49351
0.410982
0.424727
0.35974
0.223661
0.495885
0.439377
0.496038
0.407071
0.40788
0.392339
0.370352
0.200704
0.233632
0.498389
0.420417
0.491771
0.417283
0.429898
0.464293
0.429482
0.284122
0.174783
0.356622
0.476705
0.478164
0.431318
0.431147
0.431327
0.431454
0.447503
0.451247
0.38017
0.163385
0.438009
0.487313
0.19919
0.423767
0.410567
0.491688
0.405679
0.431854
0.484811
0.406737
0.482696
0.363069
0.489846
0.432481
0.431072
0.179114
0.428935
0.431532
0.497187
0.396476
0.497548
0.418325
0.374936
0.487827
0.430927
0.422156
0.393794
0.410963
0.394571
0.43048
0.252309
0.403577
0.391735
0.411047
0.430039
0.429613
0.425049
0.432413
0.410076
0.162422
0.363714
0.40965
0.48808
0.175892
0.420353
0.426809
0.483276
0.48664
0.2158
0.429155
0.349596
0.476877
0.487524
0.354281
0.432069
0.289546
0.409244
0.485655
0.498001
0.432437
0.241996
0.47342
0.460265
0.356073
0.407135
0.364305
0.45553
0.277893
0.430778
0.432829
0.429669
0.42995
0.323514
0.40164
0.456897
0.369848
0.409122
0.418084
0.420869
0.436358
0.498394
0.288114
0.428479
0.430139
0.269556
0.429669
0.453627
0.369799
0.245645
0.325769
0.392382
0.430265
0.463177
0.493251
0.370936
0.428291
0.430854
0.430331
0.427229
0.465817
0.373132
0.493758
0.427388
0.430036
0.429702
0.485777
0.393031
0.487904
0.432787
0.429038
0.42574
0.430301
0.234617
0.496635
0.496585
0.432057
0.430696
0.419455
0.367344
0.435145
0.438335
0.333549
0.405309
0.36909
0.496591
0.419919
0.33999
0.431688
0.423926
0.417931
0.496221
0.405268
0.496213
0.410935
0.414286
0.283933
0.180293
0.432275
0.416035
0.420521
0.400849
0.430433
0.485992
0.420995
0.396866
0.431928
0.432805
0.428848
0.192591
0.410516
0.418009
0.417482
0.222786
0.421599
0.488576
0.428527
0.417613
0.408002
0.426436
0.430617
0.422036
0.39377
0.432127
0.457169
0.416323
0.488672
0.171996
0.391988
0.386393
0.3883
0.432956
0.422591
0.392385
0.418555
0.39723
0.429862
0.430998
0.423023
0.375234
0.175582
0.336515
0.233042
0.469381
0.430595
0.429426
0.419111
0.409591
0.429404
0.43239
0.321677
0.494886
0.494537
0.27529
0.408716
0.32309
0.350384
0.271845
0.345393
0.423559
0.327776
0.423957
0.431756
0.43191
0.171543
0.430451
0.496485
0.406732
0.285827
0.48843
0.497123
0.463377
0.41981
0.344286
0.394671
0.431709
0.431699
0.495812
0.419685
0.426521
0.496362
0.238377
0.453664
0.416658
0.495182
0.342721
0.407882
0.429244
0.431281
0.35041
0.41856
0.431849
0.417277
0.418807
0.383624
0.495097
0.452025
0.25229
0.431645
0.350867
0.343418
0.223301
0.42668
0.497256
0.286714
0.420389
0.484478
0.498358
0.494364
0.495558
0.213493
0.496055
0.496228
0.377658
0.495692
0.432337
0.416379
0.418146
0.431091
0.372857
0.343671
0.418282
0.429842
0.40713
0.406755
0.487028
0.338891
0.495502
0.429492
0.486614
0.494144
0.495366
0.386142
0.343466
0.418143
0.211372
0.431628
0.268659
0.432582
0.49532
0.162905
0.455632
0.410524
0.427843
0.270527
0.428771
0.420214
0.394173
0.487981
0.43142
0.449934
0.400489
0.413981
0.494748
0.228193
0.290345
0.429309
0.406855
0.453453
0.453443
0.351434
0.494943
0.430364
0.464974
0.31672
0.292928
0.348457
0.276901
0.49456
0.432582
0.347266
0.431545
0.492735
0.432558
0.360949
0.43264
0.432184
0.267254
0.460318
0.429123
0.212812
0.43303
0.284772
0.43192
0.428576
0.211417
0.427382
0.432041
0.24806
0.486128
0.432556
0.494049
0.417203
0.432201
0.425517
0.416129
0.497807
0.496404
0.493847
0.398376
0.448173
0.460466
0.341189
0.494231
0.496586
0.228062
0.342083
0.214212
0.421803
0.432723
0.496314
0.432973
0.492392
0.494162
0.432218
0.492115
0.494386
0.34191
0.420952
0.432019
0.225115
0.493585
0.270607
0.340942
0.496432
0.295166
0.428071
0.493871
0.212676
0.22348
0.494905
0.494034
0.431031
0.494635
0.429262
0.444584
0.428725
0.334009
0.32789
0.339672
0.430753
0.430102
0.494672
0.310299
0.421271
0.350177
0.494097
0.494372
0.493815
0.494334
0.425178
0.493301
0.463196
0.493017
0.493536
0.489515
0.431897
0.489877
0.200882
0.422295
0.19809
0.463405
0.253792
0.352837
0.208329
0.226914
0.441197
0.441312
0.495854
0.429613
0.493257
0.429426
0.351893
0.459221
0.432407
0.428984
0.495969
0.428247
0.445806
0.21648
0.492981
0.441669
0.441551
0.304618
0.488976
0.429031
0.428548
0.196462
0.451557
0.451539
0.431693
0.346636
0.349893
0.292791
0.215016
0.496327
0.432867
0.431243
0.407555
0.218129
0.210041
0.432205
0.429012
0.394077
0.19937
0.310058
0.310214
0.313875
0.428358
0.229558
0.388049
0.429727
0.239724
0.416931
0.491613
0.428968
0.430774
0.370139
0.354818
0.432051
0.208262
0.465376
0.428275
0.420295
0.477636
0.479935
0.420355
0.43244
0.469842
0.190988
0.421493
0.431012
0.356213
0.241513
0.432388
0.492544
0.428525
0.42884
0.420449
0.420759
0.432244
0.426029
0.412385
0.194924
0.216599
0.492582
0.24742
0.432584
0.458543
0.495998
0.496753
0.411894
0.405284
0.432199
0.428975
0.432723
0.419894
0.491912
0.427757
0.418698
0.432189
0.215037
0.432434
0.494607
0.42753
0.418811
0.296923
0.495724
0.429491
0.429003
0.304233
0.303235
0.348195
0.428945
0.49129
0.432638
0.392558
0.399807
0.239266
0.200799
0.405543
0.427642
0.491758
0.25199
0.423255
0.264957
0.231898
0.431688
0.495822
0.423325
0.496027
0.399423
0.399456
0.39171
0.495772
0.405229
0.432748
0.428299
0.405254
0.296888
0.392573
0.477422
0.372838
0.495933
0.1924
0.355168
0.494113
0.496429
0.431539
0.49196
0.494012
0.491231
0.431012
0.262096
0.191104
0.406339
0.495731
0.322075
0.429897
0.368284
0.479128
0.430603
0.348572
0.412828
0.432186
0.410809
0.432456
0.428663
0.493839
0.430592
0.428559
0.418456
0.495789
0.422795
0.477557
0.357424
0.417938
0.249194
0.426071
0.464277
0.192166
0.494843
0.468198
0.470874
0.428686
0.358476
0.432319
0.267251
0.219675
0.264189
0.432371
0.427653
0.424418
0.428184
0.214218
0.490899
0.429074
0.425752
0.241576
0.212844
0.430767
0.487491
0.495638
0.427227
0.430346
0.19641
0.428482
0.368977
0.193738
0.431558
0.424145
0.385417
0.432722
0.206504
0.43133
0.496427
0.47491
0.427603
0.475792
0.43237
0.489369
0.432033
0.495924
0.490456
0.190652
0.393457
0.394058
0.490504
0.49305
0.425697
0.36146
0.430444
0.490105
0.430527
0.236781
0.488652
0.432125
0.428042
0.216414
0.23752
0.428086
0.247574
0.353961
0.221579
0.31247
0.311838
0.356156
0.353173
0.423722
0.23344
0.495708
0.423247
0.496744
0.432234
0.253855
0.429177
0.431612
0.429313
0.223235
0.432221
0.494791
0.43022
0.429449
0.468359
0.432366
0.240922
0.250138
0.443156
0.443201
0.43191
0.49489
0.241018
0.429671
0.49556
0.432269
0.432534
0.410069
0.405734
0.496503
0.462358
0.170701
0.260319
0.431713
0.23689
0.429011
0.26206
0.37563
0.432081
0.422765
0.430362
0.430841
0.41288
0.412516
0.287443
0.496237
0.192253
0.496616
0.428887
0.432002
0.492452
0.432536
0.490062
0.406333
0.276952
0.251081
0.492583
0.359725
0.492834
0.431192
0.431335
0.196053
0.496004
0.491815
0.326343
0.431449
0.256281
0.216469
0.424485
0.492343
0.257445
0.369232
0.295828
0.229363
0.476586
0.421813
0.478248
0.474795
0.422808
0.412132
0.41235
0.189514
0.421861
0.432429
0.432117
0.22769
0.411387
0.429613
0.335401
0.249041
0.430612
0.420848
0.430274
0.432156
0.431462
0.432383
0.41937
0.496547
0.419735
0.38525
0.404651
0.426406
0.425862
0.422947
0.245444
0.430201
0.402866
0.402979
0.490313
0.431233
0.427063
0.497426
0.430844
0.409202
0.429285
0.42623
0.489702
0.161782
0.426839
0.161741
0.490846
0.403713
0.253826
0.481122
0.392903
0.392741
0.432298
0.431987
0.370803
0.432413
0.43147
0.495634
0.380514
0.380334
0.298407
0.432331
0.422485
0.431762
0.36312
0.432599
0.431401
0.424269
0.426074
0.431971
0.469331
0.470692
0.367928
0.431246
0.429231
0.43213
0.343873
0.346881
0.344812
0.411419
0.429592
0.430903
0.431884
0.432652
0.412375
0.181394
0.412047
0.410372
0.432202
0.29058
0.430293
0.369242
0.431763
0.384467
0.384316
0.42716
0.492361
0.430797
0.236631
0.495744
0.432508
0.213026
0.396145
0.496453
0.491847
0.405449
0.254405
0.30154
0.30748
0.396
0.426778
0.431067
0.41435
0.409513
0.403292
0.432374
0.414002
0.401361
0.402929
0.406798
0.431907
0.411096
0.430849
0.200619
0.403794
0.493298
0.492105
0.426112
0.430026
0.407678
0.429775
0.431864
0.430112
0.194839
0.403395
0.431577
0.431511
0.431082
0.432003
0.431601
0.430392
0.287389
0.381863
0.381676
0.431261
0.429687
0.431557
0.492246
0.262302
0.429928
0.419767
0.432101
0.421654
0.167452
0.492376
0.427307
0.2267
0.488164
0.430868
0.277243
0.430615
0.316651
0.401181
0.234924
0.235687
0.31451
0.313728
0.417576
0.429332
0.495947
0.495968
0.161993
0.431387
0.432252
0.363299
0.379102
0.423405
0.245485
0.429794
0.429313
0.478366
0.216455
0.192565
0.360857
0.431834
0.431838
0.431612
0.431674
0.497495
0.426505
0.427135
0.427712
0.431312
0.425816
0.431388
0.429973
0.384576
0.492705
0.460918
0.496488
0.430511
0.429454
0.431822
0.429351
0.390561
0.4288
0.426741
0.409559
0.43008
0.428864
0.426884
0.497093
0.428085
0.414447
0.490668
0.400902
0.405921
0.496525
0.428564
0.432291
0.492179
0.218027
0.431155
0.489296
0.428555
0.495677
0.427856
0.428805
0.25736
0.495914
0.488886
0.490256
0.377453
0.377661
0.426434
0.259056
0.497254
0.429655
0.497988
0.348567
0.430631
0.428748
0.197474
0.369869
0.489665
0.387836
0.200569
0.497891
0.203437
0.498719
0.498681
0.497816
0.204634
0.423209
0.49756
0.429282
0.496152
0.493829
0.430282
0.432315
0.473843
0.189742
0.257985
0.497245
0.358661
0.427781
0.262221
0.187316
0.188267
0.428542
0.4699
0.205143
0.177449
0.488268
0.497526
0.431486
0.462455
0.427226
0.166088
0.498362
0.49833
0.492137
0.429921
0.491975
0.430482
0.184466
0.418793
0.419179
0.426045
0.495967
0.430867
0.496492
0.497096
0.4311
0.203317
0.432546
0.432423
0.223109
0.245434
0.242709
0.365729
0.428034
0.491755
0.469971
0.428345
0.427537
0.428426
0.424868
0.428457
0.49773
0.411184
0.497166
0.20962
0.463692
0.426151
0.162756
0.161948
0.491463
0.417616
0.493976
0.429221
0.428104
0.42696
0.412824
0.41258
0.429224
0.428942
0.431221
0.495676
0.342284
0.428254
0.425352
0.428693
0.346553
0.349016
0.431277
0.430182
0.426809
0.431527
0.428646
0.49512
0.431299
0.3619
0.495609
0.352984
0.351622
0.428761
0.421287
0.430431
0.425514
0.379746
0.379581
0.370154
0.385092
0.384956
0.243781
0.423206
0.496863
0.363801
0.42543
0.428318
0.48054
0.42506
0.392276
0.392163
0.402402
0.402392
0.414365
0.42954
0.396671
0.410897
0.41035
0.495574
0.424729
0.405882
0.487206
0.427411
0.386922
0.38696
0.413842
0.426382
0.414861
0.398263
0.397881
0.428867
0.424667
0.409066
0.432408
0.414536
0.216451
0.429496
0.444065
0.496876
0.427965
0.399284
0.425184
0.497591
0.49755
0.497289
0.431971
0.494999
0.493038
0.404116
0.497037
0.364882
0.489264
0.493645
0.497073
0.427939
0.430673
0.431174
0.357185
0.432214
0.432178
0.496262
0.225145
0.226613
0.425741
0.431781
0.400612
0.488594
0.423257
0.426625
0.491349
0.491992
0.432054
0.495514
0.495485
0.431752
0.491226
0.251967
0.255708
0.493834
0.398306
0.363175
0.465136
0.206381
0.496956
0.49702
0.431403
0.495994
0.496324
0.487987
0.428497
0.2197
0.418335
0.495684
0.459304
0.482802
0.496133
0.426546
0.496256
0.239217
0.427074
0.226212
0.409706
0.424941
0.496808
0.223123
0.222962
0.430962
0.389941
0.491058
0.495599
0.488312
0.427743
0.209534
0.424293
0.493436
0.43163
0.496384
0.495308
0.495028
0.428031
0.387186
0.429086
0.495562
0.426434
0.496232
0.427866
0.482156
0.493588
0.430097
0.48856
0.382496
0.382292
0.494723
0.493726
0.495477
0.495354
0.487717
0.49581
0.495915
0.473123
0.430254
0.415835
0.495641
0.496145
0.430606
0.425113
0.428267
0.408051
0.428019
0.492594
0.376866
0.376647
0.496693
0.497112
0.278836
0.497097
0.49453
0.432126
0.424964
0.422361
0.494102
0.494846
0.432031
0.49554
0.495837
0.48804
0.468698
0.493893
0.496257
0.49187
0.496187
0.367311
0.425316
0.48217
0.42684
0.495756
0.495593
0.476661
0.424982
0.427323
0.423874
0.495196
0.485915
0.4959
0.190957
0.35749
0.425291
0.497219
0.492841
0.367301
0.42642
0.493735
0.495374
0.495566
0.341727
0.345945
0.432178
0.407285
0.495769
0.178459
0.417995
0.494606
0.471129
0.427885
0.167079
0.495441
0.418087
0.183223
0.494898
0.415875
0.491594
0.423728
0.431379
0.495817
0.496904
0.425624
0.42567
0.416825
0.493461
0.495834
0.43198
0.49618
0.492539
0.366901
0.493676
0.427074
0.431173
0.494393
0.168508
0.42679
0.494838
0.424583
0.495963
0.496254
0.477283
0.411908
0.414768
0.428213
0.432371
0.411615
0.432379
0.495669
0.425386
0.493918
0.495534
0.495357
0.493055
0.495577
0.430067
0.495815
0.307627
0.495663
0.297045
0.495486
0.492618
0.491434
0.496548
0.49215
0.428259
0.353893
0.352988
0.427167
0.429332
0.496045
0.19935
0.202097
0.404241
0.403392
0.494374
0.495565
0.494576
0.429843
0.490789
0.495502
0.418462
0.364681
0.494699
0.495584
0.428489
0.495814
0.235325
0.260697
0.496916
0.496363
0.496329
0.36528
0.492812
0.495714
0.493694
0.466298
0.467616
0.497957
0.492428
0.495385
0.203921
0.38754
0.387577
0.421966
0.364577
0.493251
0.494045
0.491649
0.491614
0.493797
0.474799
0.495408
0.417025
0.193767
0.493781
0.494011
0.496075
0.423405
0.493324
0.495272
0.426551
0.398769
0.398377
0.466621
0.492279
0.49571
0.493472
0.428329
0.40996
0.493991
0.403474
0.496592
0.48899
0.492895
0.424235
0.491112
0.431002
0.426401
0.492651
0.496042
0.425221
0.429693
0.425556
0.490874
0.493406
0.487779
0.491678
0.495584
0.495548
0.493115
0.493643
0.493492
0.411235
0.492074
0.495346
0.49179
0.407897
0.495772
0.496202
0.487367
0.495314
0.49329
0.495279
0.353456
0.496118
0.493527
0.492346
0.492629
0.49501
0.415287
0.496497
0.430444
0.429057
0.494494
0.494247
0.494004
0.491847
0.495415
0.493091
0.495923
0.493659
0.428065
0.493765
0.426333
0.417377
0.418655
0.42464
0.495521
0.491315
0.494746
0.422419
0.492827
0.492902
0.492373
0.490189
0.493917
0.493175
0.416376
0.491886
0.487842
0.49366
0.490476
0.418523
0.495823
0.407078
0.495788
0.494037
0.496406
0.47572
0.491364
0.224983
0.22147
0.432065
0.487805
0.491479
0.492929
0.417439
0.415346
0.496153
0.492736
0.495806
0.490067
0.491143
0.495096
0.494799
0.494767
0.494023
0.492885
0.491583
0.492473
0.402784
0.496098
0.395386
0.243905
0.421378
0.422905
0.416315
0.423341
0.40276
0.493257
0.395359
0.492439
0.482781
0.486669
0.491048
0.4921
0.492736
0.427006
0.479543
0.495826
0.494597
0.491571
0.479562
0.490806
0.472062
0.423781
0.495384
0.492169
0.431732
0.495568
0.365416
0.432324
0.495409
0.486995
0.495504
0.491632
0.354503
0.429408
0.495791
0.467366
0.49075
0.493068
0.491595
0.493343
0.491228
0.495429
0.489839
0.255763
0.49423
0.424921
0.42365
0.42759
0.480219
0.490295
0.495715
0.491317
0.49245
0.491877
0.496474
0.491031
0.465238
0.48957
0.49073
0.239337
0.467701
0.491236
0.495274
0.409247
0.490537
0.488299
0.487458
0.424053
0.491589
0.429946
0.431088
0.427871
0.490563
0.493188
0.489492
0.49495
0.493177
0.43598
0.495869
0.428819
0.491857
0.42717
0.496761
0.418398
0.495468
0.491075
0.495898
0.496346
0.49033
0.424946
0.495265
0.421666
0.492158
0.424592
0.428376
0.425705
0.489891
0.413903
0.495644
0.433168
0.486524
0.493277
0.422855
0.49093
0.490501
0.496135
0.495174
0.398777
0.422383
0.411873
0.423633
0.490571
0.493991
0.493941
0.422006
0.491135
0.491914
0.411507
0.420125
0.310516
0.294924
0.489922
0.439821
0.426593
0.197639
0.202156
0.404301
0.489686
0.422629
0.492714
0.490132
0.489232
0.495351
0.489887
0.488231
0.44237
0.431126
0.257966
0.488543
0.418907
0.488809
0.492424
0.422951
0.494433
0.466209
0.428183
0.468622
0.428073
0.42151
0.448896
0.364579
0.444914
0.489548
0.429323
0.412883
0.428679
0.494811
0.442434
0.421922
0.195273
0.417901
0.492061
0.414302
0.43094
0.492268
0.426762
0.491266
0.495146
0.420313
0.409934
0.421369
0.403928
0.488196
0.489496
0.428969
0.492117
0.494254
0.446612
0.420831
0.353844
0.421946
0.416419
0.486664
0.422658
0.416982
0.489417
0.496955
0.491056
0.414357
0.416988
0.413361
0.497489
0.428064
0.414039
0.493444
0.413414
0.489853
0.419699
0.414697
0.474762
0.488861
0.221478
0.226294
0.451946
0.45395
0.489424
0.485433
0.421868
0.414188
0.382121
0.381855
0.45404
0.49592
0.24583
0.49352
0.491614
0.489463
0.493862
0.49331
0.455965
0.421577
0.411801
0.490746
0.413162
0.487036
0.492635
0.417013
0.487251
0.417259
0.421071