# vtk DataFile Version 1.0
unstructured grid
ascii
DATASET UNSTRUCTURED_GRID
points 8094 float
-0.25 0.0574735 0
0.5 0.0546937 0
0.5 -0.0546937 0
-0.25 -0.0574735 0
-0.25 0.0574735 0.01
0.5 0.0546937 0.01
0.5 -0.0546937 0.01
-0.25 -0.0574735 0.01
-0.246045 0.0569295 0
-0.242089 0.0563854 0
-0.238136 0.0558289 0
-0.234184 0.0552582 0
-0.230232 0.0546875 0
-0.226284 0.0540912 0
-0.222337 0.0534933 0
-0.218391 0.0528841 0
-0.214448 0.0522585 0
-0.210504 0.0516328 0
-0.206565 0.0509829 0
-0.202626 0.0503294 0
-0.198689 0.0496667 0
-0.194755 0.0489856 0
-0.190821 0.0483046 0
-0.18689 0.0476022 0
-0.182961 0.0468942 0
-0.179033 0.0461799 0
-0.175108 0.0454463 0
-0.171183 0.0447127 0
-0.167262 0.0439627 0
-0.163342 0.0432056 0
-0.159422 0.0424455 0
-0.155506 0.041668 0
-0.15159 0.0408904 0
-0.147675 0.0401031 0
-0.143762 0.0393092 0
-0.13985 0.0385149 0
-0.135939 0.0377103 0
-0.132028 0.0369056 0
-0.128117 0.0361005 0
-0.124207 0.0352949 0
-0.120296 0.0344893 0
-0.116386 0.0336836 0
-0.112475 0.032878 0
-0.108563 0.0320794 0
-0.104649 0.0312931 0
-0.100735 0.0305068 0
-0.0968152 0.029745 0
-0.0928949 0.0289889 0
-0.0889722 0.0282446 0
-0.0850433 0.0275341 0
-0.0811144 0.0268235 0
-0.0771778 0.0261578 0
-0.0732381 0.0255098 0
-0.0692962 0.0248759 0
-0.0653442 0.0243073 0
-0.0613923 0.0237386 0
-0.0574324 0.0232306 0
-0.0534681 0.0227556 0
-0.0495024 0.0222934 0
-0.0455272 0.0219207 0
-0.041552 0.0215481 0
-0.0375717 0.0212385 0
-0.0335881 0.0209694 0
-0.029604 0.0207098 0
-0.0256151 0.0205369 0
-0.0216262 0.0203639 0
-0.0176357 0.0202396 0
-0.0136441 0.0201487 0
-0.00965243 0.0200635 0
-0.00565987 0.0200372 0
-0.00166732 0.020011 0
0.00232526 0.0200121 0
0.00631785 0.0200329 0
0.0103104 0.0200563 0
0.0143027 0.0201109 0
0.018295 0.0201654 0
0.022287 0.0202345 0
0.0262788 0.0203144 0
0.0302706 0.0203957 0
0.034262 0.0204956 0
0.0382534 0.0205955 0
0.0422446 0.0207045 0
0.0462355 0.0208207 0
0.0502265 0.0209377 0
0.054217 0.0210676 0
0.0582075 0.0211975 0
0.0621978 0.0213339 0
0.0661879 0.0214757 0
0.0701781 0.021618 0
0.0741678 0.0217703 0
0.0781575 0.0219227 0
0.0821471 0.0220801 0
0.0861364 0.022242 0
0.0901258 0.0224041 0
0.0941148 0.0225747 0
0.0981038 0.0227453 0
0.102093 0.0229202 0
0.106081 0.023099 0
0.11007 0.0232779 0
0.114058 0.0234644 0
0.118046 0.0236509 0
0.122035 0.0238411 0
0.126022 0.024035 0
0.13001 0.0242288 0
0.133998 0.0244298 0
0.137986 0.0246308 0
0.141973 0.0248352 0
0.14596 0.025043 0
0.149947 0.0252509 0
0.153934 0.0254654 0
0.157921 0.02568 0
0.161908 0.0258978 0
0.165894 0.026119 0
0.169881 0.0263402 0
0.173867 0.0265678 0
0.177853 0.0267956 0
0.181839 0.0270264 0
0.185825 0.0272607 0
0.189811 0.0274951 0
0.193796 0.0277356 0
0.197781 0.0279764 0
0.201767 0.02822 0
0.205752 0.0284673 0
0.209737 0.0287146 0
0.213721 0.0289679 0
0.217706 0.0292217 0
0.22169 0.0294782 0
0.225674 0.0297385 0
0.229658 0.0299988 0
0.233642 0.0302651 0
0.237626 0.0305319 0
0.241609 0.0308014 0
0.245593 0.0310748 0
0.249576 0.0313482 0
0.253559 0.0316276 0
0.257542 0.0319077 0
0.261524 0.0321904 0
0.265507 0.0324772 0
0.269489 0.032764 0
0.273471 0.0330568 0
0.277453 0.0333504 0
0.281434 0.0336466 0
0.285416 0.0339471 0
0.289397 0.0342476 0
0.293378 0.034554 0
0.297359 0.0348615 0
0.301339 0.0351714 0
0.305319 0.0354859 0
0.3093 0.0358005 0
0.313279 0.036121 0
0.317259 0.0364427 0
0.321239 0.0367667 0
0.325218 0.0370957 0
0.329197 0.0374248 0
0.333175 0.0377597 0
0.337154 0.0380961 0
0.341132 0.0384347 0
0.34511 0.0387786 0
0.349088 0.0391226 0
0.353065 0.0394724 0
0.357042 0.0398239 0
0.361019 0.0401775 0
0.364995 0.0405368 0
0.368972 0.0408961 0
0.372948 0.0412613 0
0.376924 0.0416285 0
0.380899 0.0419975 0
0.384874 0.0423727 0
0.388849 0.0427479 0
0.392823 0.0431289 0
0.396798 0.0435123 0
0.400772 0.0438973 0
0.404745 0.044289 0
0.408718 0.0446807 0
0.412691 0.0450781 0
0.416664 0.0454782 0
0.420636 0.0458797 0
0.424608 0.0462883 0
0.42858 0.046697 0
0.432551 0.0471114 0
0.436521 0.0475289 0
0.440492 0.0479474 0
0.444462 0.0483738 0
0.448432 0.0488001 0
0.452401 0.0492319 0
0.45637 0.0496673 0
0.460338 0.0501035 0
0.464306 0.0505482 0
0.468274 0.0509928 0
0.472241 0.0514427 0
0.476208 0.0518968 0
0.480175 0.0523512 0
0.48414 0.0528148 0
0.488106 0.0532784 0
0.492071 0.0537471 0
0.496036 0.0542204 0
0.5 0.050787 0
0.5 0.0468803 0
0.5 0.0429736 0
0.5 0.0390669 0
0.5 0.0351602 0
0.5 0.0312535 0
0.5 0.0273468 0
0.5 0.0234402 0
0.5 0.0195335 0
0.5 0.0156268 0
0.5 0.0117201 0
0.5 0.00781339 0
0.5 0.00390669 0
0.5 1.43781e-13 0
0.5 -0.00390669 0
0.5 -0.00781339 0
0.5 -0.0117201 0
0.5 -0.0156268 0
0.5 -0.0195335 0
0.5 -0.0234402 0
0.5 -0.0273468 0
0.5 -0.0312535 0
0.5 -0.0351602 0
0.5 -0.0390669 0
0.5 -0.0429736 0
0.5 -0.0468803 0
0.5 -0.050787 0
0.496036 -0.0542204 0
0.492071 -0.0537471 0
0.488106 -0.0532784 0
0.48414 -0.0528148 0
0.480175 -0.0523512 0
0.476208 -0.0518968 0
0.472241 -0.0514427 0
0.468274 -0.0509928 0
0.464306 -0.0505482 0
0.460338 -0.0501035 0
0.45637 -0.0496673 0
0.452401 -0.0492319 0
0.448432 -0.0488001 0
0.444462 -0.0483738 0
0.440492 -0.0479474 0
0.436521 -0.0475289 0
0.432551 -0.0471114 0
0.42858 -0.046697 0
0.424608 -0.0462883 0
0.420636 -0.0458797 0
0.416664 -0.0454782 0
0.412691 -0.0450781 0
0.408718 -0.0446807 0
0.404745 -0.044289 0
0.400772 -0.0438973 0
0.396798 -0.0435123 0
0.392823 -0.0431289 0
0.388849 -0.0427479 0
0.384874 -0.0423727 0
0.380899 -0.0419975 0
0.376924 -0.0416285 0
0.372948 -0.0412613 0
0.368972 -0.0408961 0
0.364995 -0.0405368 0
0.361019 -0.0401775 0
0.357042 -0.0398239 0
0.353065 -0.0394724 0
0.349088 -0.0391226 0
0.34511 -0.0387786 0
0.341132 -0.0384347 0
0.337154 -0.0380961 0
0.333175 -0.0377597 0
0.329197 -0.0374248 0
0.325218 -0.0370957 0
0.321239 -0.0367667 0
0.317259 -0.0364427 0
0.313279 -0.036121 0
0.3093 -0.0358005 0
0.305319 -0.0354859 0
0.301339 -0.0351714 0
0.297359 -0.0348615 0
0.293378 -0.034554 0
0.289397 -0.0342476 0
0.285416 -0.0339471 0
0.281434 -0.0336466 0
0.277453 -0.0333504 0
0.273471 -0.0330568 0
0.269489 -0.032764 0
0.265507 -0.0324772 0
0.261524 -0.0321904 0
0.257542 -0.0319077 0
0.253559 -0.0316276 0
0.249576 -0.0313482 0
0.245593 -0.0310748 0
0.241609 -0.0308014 0
0.237626 -0.0305319 0
0.233642 -0.0302651 0
0.229658 -0.0299988 0
0.225674 -0.0297385 0
0.22169 -0.0294782 0
0.217706 -0.0292217 0
0.213721 -0.0289679 0
0.209737 -0.0287146 0
0.205752 -0.0284673 0
0.201767 -0.02822 0
0.197781 -0.0279764 0
0.193796 -0.0277356 0
0.189811 -0.0274951 0
0.185825 -0.0272607 0
0.181839 -0.0270264 0
0.177853 -0.0267956 0
0.173867 -0.0265678 0
0.169881 -0.0263402 0
0.165894 -0.026119 0
0.161908 -0.0258978 0
0.157921 -0.02568 0
0.153934 -0.0254654 0
0.149947 -0.0252509 0
0.14596 -0.025043 0
0.141973 -0.0248352 0
0.137986 -0.0246308 0
0.133998 -0.0244298 0
0.13001 -0.0242288 0
0.126022 -0.024035 0
0.122035 -0.0238411 0
0.118046 -0.0236509 0
0.114058 -0.0234644 0
0.11007 -0.0232779 0
0.106081 -0.023099 0
0.102093 -0.0229202 0
0.0981038 -0.0227453 0
0.0941148 -0.0225747 0
0.0901258 -0.0224041 0
0.0861364 -0.022242 0
0.0821471 -0.0220801 0
0.0781575 -0.0219227 0
0.0741678 -0.0217703 0
0.0701781 -0.021618 0
0.0661879 -0.0214757 0
0.0621978 -0.0213339 0
0.0582075 -0.0211975 0
0.054217 -0.0210676 0
0.0502265 -0.0209377 0
0.0462355 -0.0208207 0
0.0422446 -0.0207045 0
0.0382534 -0.0205955 0
0.034262 -0.0204956 0
0.0302706 -0.0203957 0
0.0262788 -0.0203144 0
0.022287 -0.0202345 0
0.018295 -0.0201654 0
0.0143027 -0.0201109 0
0.0103104 -0.0200563 0
0.00631785 -0.0200329 0
0.00232526 -0.0200121 0
-0.00166732 -0.020011 0
-0.00565987 -0.0200372 0
-0.00965243 -0.0200635 0
-0.0136441 -0.0201487 0
-0.0176357 -0.0202396 0
-0.0216262 -0.0203639 0
-0.0256151 -0.0205369 0
-0.029604 -0.0207098 0
-0.0335881 -0.0209694 0
-0.0375717 -0.0212385 0
-0.041552 -0.0215481 0
-0.0455272 -0.0219207 0
-0.0495024 -0.0222934 0
-0.0534681 -0.0227556 0
-0.0574324 -0.0232306 0
-0.0613923 -0.0237386 0
-0.0653442 -0.0243073 0
-0.0692962 -0.0248759 0
-0.0732381 -0.0255098 0
-0.0771778 -0.0261578 0
-0.0811144 -0.0268235 0
-0.0850433 -0.0275341 0
-0.0889722 -0.0282446 0
-0.0928949 -0.0289889 0
-0.0968152 -0.029745 0
-0.100735 -0.0305068 0
-0.104649 -0.0312931 0
-0.108563 -0.0320794 0
-0.112475 -0.032878 0
-0.116386 -0.0336836 0
-0.120296 -0.0344893 0
-0.124207 -0.0352949 0
-0.128117 -0.0361005 0
-0.132028 -0.0369056 0
-0.135939 -0.0377103 0
-0.13985 -0.0385149 0
-0.143762 -0.0393092 0
-0.147675 -0.0401031 0
-0.15159 -0.0408904 0
-0.155506 -0.041668 0
-0.159422 -0.0424455 0
-0.163342 -0.0432056 0
-0.167262 -0.0439627 0
-0.171183 -0.0447127 0
-0.175108 -0.0454463 0
-0.179033 -0.0461799 0
-0.182961 -0.0468942 0
-0.18689 -0.0476022 0
-0.190821 -0.0483046 0
-0.194755 -0.0489856 0
-0.198689 -0.0496667 0
-0.202626 -0.0503294 0
-0.206565 -0.0509829 0
-0.210504 -0.0516328 0
-0.214448 -0.0522585 0
-0.218391 -0.0528841 0
-0.222337 -0.0534933 0
-0.226284 -0.0540912 0
-0.230232 -0.0546875 0
-0.234184 -0.0552582 0
-0.238136 -0.0558289 0
-0.242089 -0.0563854 0
-0.246045 -0.0569295 0
-0.25 -0.0535098 0
-0.25 -0.0495461 0
-0.25 -0.0455824 0
-0.25 -0.0416187 0
-0.25 -0.0376551 0
-0.25 -0.0336914 0
-0.25 -0.0297277 0
-0.25 -0.025764 0
-0.25 -0.0218003 0
-0.25 -0.0178366 0
-0.25 -0.0138729 0
-0.25 -0.00990922 0
-0.25 -0.00594553 0
-0.25 -0.00198184 0
-0.25 0.00198184 0
-0.25 0.00594553 0
-0.25 0.00990922 0
-0.25 0.0138729 0
-0.25 0.0178366 0
-0.25 0.0218003 0
-0.25 0.025764 0
-0.25 0.0297277 0
-0.25 0.0336914 0
-0.25 0.0376551 0
-0.25 0.0416187 0
-0.25 0.0455824 0
-0.25 0.0495461 0
-0.25 0.0535098 0
-0.246045 0.0569295 0.01
-0.242089 0.0563854 0.01
-0.238136 0.0558289 0.01
-0.234184 0.0552582 0.01
-0.230232 0.0546875 0.01
-0.226284 0.0540912 0.01
-0.222337 0.0534933 0.01
-0.218391 0.0528841 0.01
-0.214448 0.0522585 0.01
-0.210504 0.0516328 0.01
-0.206565 0.0509829 0.01
-0.202626 0.0503294 0.01
-0.198689 0.0496667 0.01
-0.194755 0.0489856 0.01
-0.190821 0.0483046 0.01
-0.18689 0.0476022 0.01
-0.182961 0.0468942 0.01
-0.179033 0.0461799 0.01
-0.175108 0.0454463 0.01
-0.171183 0.0447127 0.01
-0.167262 0.0439627 0.01
[...]
CELL_DATA 7657
SCALARS rho float
LOOKUP_TABLE default
0.478334
0.370072
0.400323
0.175834
0.495311
0.361144
0.259438
0.430288
0.336606
0.49915
0.49922
0.4298
0.305325
0.429985
0.494607
0.489477
0.494546
0.412144
0.411895
0.432978
0.493857
0.413306
0.360784
0.41185
0.420774
0.427141
0.188588
0.312554
0.49598
0.362231
0.240597
0.42078
0.357477
0.47633
0.476777
0.242448
0.362419
0.359841
0.481558
0.214091
0.398887
0.335465
0.344154
0.355113
0.398338
0.401491
0.265868
0.360551
0.420859
0.477956
0.353702
0.174807
0.495894
0.49682
0.25761
0.365035
0.494133
0.492291
0.452997
0.238923
0.421212
0.396932
0.422106
0.4224
0.499911
0.499927
0.304975
0.36896
0.498425
0.448772
0.401876
0.307057
0.339533
0.49596
0.475032
0.359227
0.413273
0.358438
0.474506
0.310755
0.356867
0.430646
0.432883
0.399709
0.401209
0.457973
0.401169
0.447776
0.427435
0.190004
0.499764
0.499807
0.454699
0.497733
0.217875
0.460623
0.459342
0.364581
0.397404
0.217722
0.412635
0.418343
0.368085
0.493449
0.267664
0.346249
0.226341
0.37133
0.312404
0.493429
0.240844
0.370219
0.350382
0.432856
0.406438
0.436695
0.372562
0.212385
0.488836
0.361024
0.500631
0.500614
0.225283
0.365258
0.431972
0.429978
0.429598
0.345806
0.367399
0.346506
0.178259
0.41526
0.365683
0.338616
0.432927
0.228773
0.489805
0.357641
0.415784
0.416099
0.226715
0.192212
0.210907
0.215874
0.411299
0.49378
0.354254
0.371169
0.396533
0.226374
0.207521
0.49855
0.390553
0.346061
0.49386
0.369195
0.369122
0.414159
0.432957
0.230686
0.414566
0.492072
0.426916
0.435305
0.39282
0.367856
0.481601
0.349977
0.405622
0.489261
0.398834
0.348264
0.415006
0.209155
0.246735
0.244364
0.337621
0.460608
0.431844
0.209281
0.215798
0.311154
0.417254
0.417302
0.302258
0.451189
0.325222
0.342226
0.428328
0.460559
0.4959
0.497938
0.432931
0.465565
0.428247
0.36683
0.433103
0.491744
0.244688
0.403982
0.411743
0.417931
0.462093
0.445347
0.188332
0.49692
0.31622
0.269515
0.474106
0.465057
0.385586
0.396437
0.39239
0.432929
0.398137
0.337624
0.2513
0.456577
0.370726
0.403593
0.37027
0.372076
0.498859
0.369692
0.318531
0.358713
0.31847
0.19924
0.358157
0.498899
0.39006
0.390342
0.309341
0.493755
0.487944
0.432971
0.447323
0.418513
0.418567
0.491481
0.384986
0.204865
0.46226
0.357422
0.473163
0.467903
0.325328
0.466993
0.327867
0.356871
0.242845
0.253776
0.371497
0.475263
0.249557
0.336458
0.372578
0.495266
0.4967
0.370225
0.364223
0.496589
0.488423
0.405877
0.253399
0.401065
0.443076
0.203413
0.411669
0.207847
0.295045
0.19127
0.192538
0.433007
0.472523
0.406187
0.348402
0.370214
0.369559
0.428942
0.365174
0.424579
0.199084
0.221069
0.200118
0.241178
0.221085
0.179359
0.395724
0.409098
0.406901
0.339643
0.197629
0.496513
0.371604
0.188008
0.4819
0.430884
0.436524
0.407411
0.459402
0.497359
0.206208
0.322936
0.188597
0.456343
0.254886
0.340572
0.410513
0.371299
0.429161
0.441097
0.491248
0.327852
0.420598
0.491068
0.49646
0.4953
0.370214
0.42477
0.347767
0.360251
0.49641
0.449356
0.489242
0.495999
0.323399
0.387567
0.49271
0.4086
0.346199
0.496234
0.488391
0.375691
0.430432
0.408471
0.372047
0.199267
0.42026
0.495867
0.427957
0.246972
0.377139
0.488465
0.433147
0.248789
0.495863
0.374629
0.402936
0.492755
0.362328
0.414192
0.432932
0.414512
0.255802
0.419955
0.415386
0.271664
0.420176
0.267679
0.37617
0.412858
0.403325
0.438664
0.494256
0.245221
0.427831
0.215379
0.454821
0.458071
0.363439
0.426107
0.432607
0.432293
0.312997
0.307273
0.414581
0.407885
0.409223
0.487569
0.393674
0.410903
0.19264
0.422088
0.496231
0.498515
0.477542
0.429447
0.427461
0.4923
0.376513
0.371337
0.370785
0.432454
0.426665
0.449608
0.250386
0.349129
0.492214
0.36218
0.432974
0.432954
0.410762
0.497382
0.216024
0.425855
0.489993
0.292466
0.4925
0.494593
0.415013
0.363891
0.422266
0.176459
0.462294
0.432205
0.397744
0.430707
0.177024
0.36503
0.360432
0.430573
0.276395
0.385091
0.370455
0.407146
0.459687
0.431594
0.343065
0.418296
0.434071
0.254462
0.379875
0.433089
0.42504
0.487167
0.49733
0.415761
0.488614
0.411485
0.361028
0.485946
0.23579
0.496164
0.428891
0.393869
0.385048
0.271946
0.494491
0.435003
0.420572
0.419987
0.377789
0.265568
0.321651
0.460535
0.261719
0.490094
0.48874
0.463039
0.477183
0.368619
0.408931
0.458633
0.387263
0.432381
0.343131
0.350851
0.257709
0.253512
0.496142
0.378485
0.422654
0.479066
0.493535
0.417624
0.425186
0.359906
0.224595
0.495865
0.439491
0.496019
0.414212
0.414971
0.394531
0.369393
0.201924
0.234448
0.498373
0.422912
0.49181
0.421172
0.429709
0.464393
0.429258
0.284525
0.176501
0.357274
0.476793
0.478249
0.431308
0.431117
0.431445
0.431465
0.447612
0.451354
0.380329
0.341146
0.438124
0.487371
0.200435
0.424617
0.417246
0.491729
0.41234
0.43191
0.484878
0.413852
0.482768
0.363249
0.489894
0.432614
0.431037
0.180703
0.428708
0.431547
0.497167
0.399937
0.497528
0.421719
0.374524
0.487884
0.430872
0.42228
0.397032
0.417478
0.398303
0.430376
0.252934
0.410256
0.393342
0.417608
0.430159
0.429407
0.425433
0.432539
0.416814
0.342128
0.363648
0.416472
0.488135
0.177559
0.420479
0.426768
0.483347
0.486705
0.216834
0.429001
0.349795
0.476961
0.487586
0.355214
0.432151
0.289897
0.416144
0.485719
0.497984
0.432564
0.242723
0.473509
0.460368
0.356679
0.414241
0.364483
0.455635
0.278329
0.430716
0.433002
0.429522
0.429759
0.323779
0.401779
0.457002
0.369442
0.416039
0.418212
0.423173
0.436474
0.498381
0.28847
0.428249
0.429989
0.270015
0.429789
0.453734
0.369466
0.246363
0.326031
0.394318
0.430156
0.463277
0.493278
0.370497
0.428069
0.430796
0.430201
0.42714
0.465915
0.372823
0.493781
0.427249
0.42991
0.429495
0.485841
0.395158
0.487961
0.432964
0.429158
0.425863
0.430178
0.235393
0.496621
0.496566
0.432138
0.430617
0.422817
0.36752
0.435262
0.43845
0.333784
0.412294
0.368533
0.496575
0.423006
0.34522
0.431723
0.42405
0.421587
0.496211
0.412243
0.496204
0.417491
0.419708
0.284348
0.181853
0.432386
0.421051
0.423332
0.400988
0.43034
0.486055
0.423522
0.401154
0.431995
0.432975
0.428604
0.1939
0.417147
0.421933
0.421682
0.223731
0.423839
0.48863
0.428648
0.421877
0.415054
0.426558
0.430538
0.424036
0.393916
0.43222
0.457273
0.416452
0.488728
0.173729
0.392135
0.386545
0.388451
0.433144
0.424348
0.394169
0.422205
0.397373
0.429721
0.430959
0.424533
0.374684
0.177232
0.33674
0.233839
0.469476
0.430517
0.429268
0.422471
0.416432
0.429255
0.432516
0.321943
0.494901
0.494554
0.275746
0.415704
0.323355
0.350582
0.272374
0.350074
0.424838
0.328035
0.425036
0.431797
0.431977
0.173299
0.430355
0.496472
0.413698
0.286213
0.488483
0.497104
0.463478
0.419937
0.348828
0.394816
0.431751
0.431735
0.495807
0.422766
0.426452
0.49635
0.23912
0.45377
0.421079
0.495182
0.346314
0.408016
0.4291
0.431401
0.350607
0.418687
0.431909
0.421687
0.422454
0.383779
0.495099
0.452133
0.252916
0.43168
0.351064
0.343628
0.224231
0.426743
0.497239
0.287073
0.422881
0.484547
0.498346
0.494379
0.495553
0.214561
0.496048
0.496207
0.377819
0.495685
0.432452
0.421096
0.422221
0.431056
0.372275
0.34388
0.422298
0.429707
0.41422
0.413849
0.487091
0.339114
0.495498
0.429354
0.486679
0.494157
0.495363
0.386559
0.347509
0.422283
0.212458
0.431661
0.269207
0.432734
0.495318
0.341216
0.455737
0.417198
0.427963
0.271074
0.428544
0.423007
0.397315
0.488036
0.431429
0.450043
0.40063
0.414112
0.494754
0.229078
0.290694
0.429167
0.40699
0.453559
0.453551
0.354787
0.494946
0.430231
0.465072
0.316996
0.293281
0.351162
0.277343
0.494569
0.43273
0.351392
0.431561
0.492761
0.432706
0.361132
0.432791
0.43228
0.267818
0.460421
0.428979
0.213866
0.433148
0.285134
0.431982
0.428451
0.212503
0.427402
0.432119
0.248776
0.486194
0.432714
0.494063
0.421364
0.432299
0.425969
0.420812
0.497791
0.496394
0.493863
0.402731
0.448283
0.460568
0.346062
0.494243
0.496572
0.228949
0.342291
0.215238
0.423789
0.432842
0.496307
0.433091
0.492422
0.494177
0.432323
0.492146
0.494399
0.347408
0.4232
0.4321
0.22603
0.493604
0.271151
0.341157
0.49642
0.295516
0.427955
0.493888
0.213731
0.224411
0.494909
0.494048
0.430996
0.494642
0.429059
0.444695
0.428519
0.334245
0.328148
0.339888
0.43068
0.429961
0.494679
0.310593
0.423516
0.353746
0.494112
0.494383
0.493832
0.494345
0.425771
0.493323
0.463296
0.493041
0.493556
0.489568
0.431955
0.489928
0.202119
0.424025
0.19937
0.463504
0.254392
0.355919
0.209465
0.227816
0.441312
0.441426
0.49585
0.429434
0.49328
0.429239
0.352089
0.459324
0.432534
0.428783
0.495962
0.428159
0.445917
0.217476
0.493005
0.441782
0.441665
0.304928
0.48903
0.428894
0.428433
0.19776
0.451665
0.451647
0.431735
0.349874
0.35233
0.293143
0.216025
0.496318
0.433039
0.431232
0.414642
0.219108
0.211148
0.432306
0.428798
0.396607
0.200634
0.310364
0.310508
0.314159
0.428144
0.230434
0.388201
0.429543
0.240446
0.421389
0.491649
0.428828
0.430688
0.369768
0.355875
0.43213
0.209401
0.465474
0.428177
0.422707
0.47772
0.480014
0.422724
0.432575
0.469935
0.192361
0.423483
0.430975
0.358758
0.242223
0.432513
0.492572
0.428323
0.428707
0.422965
0.423281
0.432351
0.42624
0.418541
0.196247
0.217595
0.49261
0.248069
0.432732
0.458646
0.49599
0.496744
0.412025
0.40542
0.432308
0.428755
0.432894
0.420021
0.491945
0.427591
0.4225
0.432292
0.216044
0.432565
0.49462
0.427393
0.422534
0.297268
0.495711
0.429289
0.428769
0.304543
0.303517
0.348397
0.428809
0.491328
0.432795
0.394365
0.40469
0.239991
0.202031
0.412408
0.427607
0.491793
0.252626
0.424521
0.265524
0.232771
0.431718
0.495807
0.424318
0.496021
0.40411
0.40421
0.393226
0.495768
0.412028
0.432925
0.428156
0.412081
0.297213
0.394701
0.477506
0.373004
0.495928
0.19376
0.357883
0.494126
0.496421
0.431562
0.491993
0.494027
0.491269
0.430953
0.262641
0.19248
0.413424
0.495726
0.322353
0.429738
0.36794
0.479209
0.430498
0.352545
0.418813
0.432302
0.417539
0.432591
0.428535
0.493855
0.4305
0.428339
0.4224
0.495774
0.42429
0.477641
0.359705
0.422169
0.249823
0.426215
0.464376
0.193525
0.494849
0.468295
0.470966
0.428555
0.360524
0.432433
0.267813
0.220626
0.264735
0.432499
0.427462
0.424541
0.428304
0.215209
0.490939
0.428822
0.425925
0.242284
0.213857
0.430693
0.487548
0.495628
0.427123
0.430236
0.197712
0.428366
0.368537
0.195078
0.431581
0.425009
0.385843
0.432884
0.20767
0.431328
0.496426
0.474997
0.4274
0.475878
0.432509
0.489421
0.432112
0.495921
0.490498
0.192028
0.395782
0.396786
0.490547
0.493076
0.425958
0.361642
0.430354
0.49015
0.430432
0.237626
0.488708
0.432214
0.42786
0.21742
0.23826
0.427877
0.248222
0.356885
0.222508
0.312755
0.312138
0.356907
0.354715
0.424782
0.234305
0.495695
0.424278
0.496736
0.43234
0.254467
0.428978
0.431634
0.429083
0.224139
0.432323
0.494798
0.430111
0.429253
0.468455
0.432484
0.241734
0.250851
0.443269
0.443314
0.43197
0.494895
0.241824
0.429538
0.495552
0.432376
0.43267
0.41683
0.412454
0.496493
0.462458
0.172466
0.260894
0.431753
0.237727
0.428831
0.262607
0.375218
0.432167
0.424003
0.430249
0.430762
0.418792
0.418812
0.287826
0.496228
0.193609
0.496607
0.428744
0.432093
0.492481
0.432675
0.490107
0.413445
0.277399
0.251683
0.492612
0.361435
0.492862
0.431174
0.431328
0.197362
0.495999
0.491849
0.326607
0.43145
0.256856
0.217474
0.425033
0.492374
0.25802
0.368885
0.296166
0.230243
0.476672
0.423482
0.478331
0.474883
0.424023
0.418442
0.418417
0.190909
0.423514
0.432559
0.432203
0.228583
0.417764
0.429473
0.33563
0.24967
0.430535
0.422994
0.430172
0.43225
0.431463
0.432506
0.422436
0.496543
0.4224
0.385795
0.411629
0.426409
0.426305
0.42423
0.246163
0.43009
0.409507
0.409534
0.490356
0.431207
0.427138
0.497413
0.430773
0.416142
0.429073
0.426569
0.489749
0.342388
0.426841
0.342786
0.490886
0.410555
0.254441
0.481199
0.395695
0.395583
0.432412
0.432061
0.370303
0.432537
0.431485
0.495624
0.380395
0.380306
0.298733
0.432443
0.423992
0.431811
0.362558
0.432748
0.431408
0.424978
0.426153
0.43204
0.469427
0.470785
0.367599
0.431224
0.429026
0.432219
0.349845
0.348924
0.347821
0.417801
0.429453
0.43085
0.431946
0.432812
0.418457
0.182926
0.418475
0.417174
0.432302
0.290928
0.430191
0.368186
0.431806
0.38501
0.384951
0.427112
0.492392
0.430737
0.23739
0.495742
0.432648
0.21404
0.400214
0.496445
0.491882
0.412432
0.255
0.301857
0.30779
0.399261
0.426933
0.43102
0.419632
0.416452
0.40962
0.432495
0.419626
0.406923
0.409581
0.413881
0.431968
0.417968
0.430797
0.201873
0.41063
0.493322
0.492138
0.426481
0.429906
0.414639
0.429639
0.431925
0.429983
0.196165
0.409551
0.431603
0.431526
0.431055
0.432078
0.431622
0.430294
0.287769
0.381938
0.38186
0.431252
0.429533
0.43158
0.492277
0.262822
0.429788
0.422451
0.432191
0.423949
0.299707
0.492408
0.427117
0.227558
0.488219
0.430791
0.277706
0.430509
0.344729
0.40725
0.23578
0.236443
0.34422
0.345067
0.421951
0.429183
0.495933
0.495952
0.342255
0.431391
0.432357
0.363999
0.379261
0.424481
0.24616
0.42966
0.4291
0.478448
0.217438
0.19392
0.362266
0.431884
0.431893
0.431641
0.431703
0.497483
0.42676
0.42723
0.427695
0.431309
0.426288
0.431383
0.429845
0.385027
0.492732
0.461019
0.496483
0.430418
0.429261
0.431871
0.429204
0.392573
0.42864
0.426673
0.416465
0.42991
0.428721
0.427039
0.497082
0.427859
0.414577
0.49071
0.401042
0.406056
0.496519
0.428318
0.432399
0.49221
0.218996
0.431134
0.489345
0.4283
0.495666
0.427628
0.428551
0.257937
0.495901
0.488937
0.4903
0.37701
0.3771
0.426693
0.259602
0.497244
0.429477
0.497974
0.348769
0.430557
0.428621
0.198764
0.369368
0.489712
0.388889
0.201828
0.497877
0.204648
0.498708
0.498669
0.497802
0.20583
0.424253
0.497547
0.429039
0.496143
0.493847
0.430169
0.432432
0.473932
0.191102
0.258537
0.497231
0.358469
0.42769
0.262746
0.188728
0.189681
0.42839
0.469993
0.206327
0.179061
0.488322
0.497515
0.431503
0.462554
0.427223
0.336825
0.498351
0.498319
0.492171
0.429753
0.492008
0.430366
0.185939
0.422134
0.422122
0.426414
0.495953
0.430816
0.496482
0.497086
0.431073
0.204533
0.432689
0.432553
0.224035
0.246111
0.243494
0.365812
0.42797
0.491789
0.470064
0.428245
0.427489
0.428242
0.425272
0.428347
0.497717
0.41783
0.497154
0.210734
0.463791
0.426499
0.341141
0.341352
0.4915
0.421393
0.493994
0.429081
0.427854
0.427021
0.418714
0.418734
0.429067
0.428795
0.431195
0.495666
0.348694
0.428057
0.425741
0.428506
0.348784
0.349892
0.431252
0.430055
0.42697
0.431536
0.428519
0.495122
0.431279
0.361467
0.495602
0.352922
0.35194
0.428529
0.42319
0.43032
0.426095
0.37949
0.379425
0.36908
0.385757
0.385711
0.244472
0.42475
0.496855
0.363121
0.426024
0.428057
0.480618
0.425811
0.394861
0.394775
0.40892
0.408866
0.419671
0.429392
0.40096
0.417406
0.417134
0.495565
0.425616
0.412905
0.487265
0.427438
0.388066
0.388004
0.419641
0.426431
0.419914
0.403188
0.403012
0.428724
0.425215
0.416061
0.432532
0.419936
0.217435
0.429336
0.444177
0.496867
0.427903
0.399425
0.425835
0.497584
0.497543
0.497276
0.432039
0.495003
0.493064
0.411039
0.497022
0.36506
0.489314
0.493664
0.497058
0.427869
0.430583
0.431153
0.357375
0.432315
0.432275
0.496256
0.226028
0.227473
0.426219
0.43183
0.406556
0.488646
0.42477
0.426753
0.491387
0.492026
0.432136
0.495514
0.495478
0.431791
0.491266
0.252604
0.256284
0.493852
0.403215
0.36301
0.465234
0.20755
0.49695
0.497008
0.431407
0.495991
0.496306
0.488042
0.428312
0.220651
0.422382
0.495682
0.459406
0.482875
0.496127
0.426777
0.496239
0.24002
0.426921
0.227116
0.416554
0.425722
0.496797
0.224029
0.22389
0.430916
0.391773
0.491097
0.495597
0.488365
0.427712
0.210649
0.425347
0.493457
0.43166
0.496365
0.495309
0.495033
0.427923
0.388098
0.428934
0.495559
0.426668
0.496216
0.427654
0.482231
0.493609
0.429972
0.488613
0.382695
0.382587
0.494731
0.493746
0.495471
0.495356
0.487773
0.4958
0.495899
0.473212
0.430116
0.4208
0.495634
0.496131
0.430512
0.425828
0.42812
0.415018
0.427902
0.492624
0.376195
0.37615
0.496681
0.497102
0.279278
0.497083
0.49454
0.432214
0.425492
0.423788
0.494119
0.494852
0.432109
0.49554
0.495823
0.488095
0.468793
0.493909
0.496242
0.491905
0.496182
0.366706
0.425938
0.482244
0.426945
0.495747
0.495584
0.476745
0.425742
0.427143
0.425133
0.495199
0.485979
0.495885
0.192291
0.357332
0.425768
0.497211
0.492867
0.366335
0.426561
0.493753
0.495373
0.495561
0.345037
0.346025
0.432272
0.414219
0.495765
0.180048
0.422184
0.494615
0.471221
0.427766
0.33768
0.495437
0.422181
0.18472
0.494905
0.421086
0.49163
0.425041
0.431374
0.495803
0.496889
0.426004
0.426016
0.421558
0.493482
0.495819
0.43205
0.496173
0.492568
0.36675
0.493695
0.426941
0.431152
0.494405
0.184792
0.426699
0.494844
0.425273
0.495951
0.49624
0.477368
0.41815
0.420432
0.428044
0.432491
0.418167
0.432503
0.49566
0.426006
0.493933
0.495526
0.495363
0.493079
0.495574
0.429912
0.495804
0.307937
0.495666
0.297389
0.495479
0.492646
0.49147
0.49654
0.492182
0.428094
0.353861
0.353018
0.427211
0.429183
0.496031
0.20062
0.203324
0.411153
0.41014
0.494386
0.495557
0.494587
0.429671
0.49083
0.495496
0.422401
0.364022
0.494708
0.495588
0.428288
0.495798
0.236173
0.261235
0.4969
0.496365
0.496331
0.364481
0.49284
0.49571
0.493712
0.466394
0.467712
0.497945
0.492457
0.49538
0.343423
0.388826
0.388771
0.424145
0.36494
0.493273
0.494062
0.491684
0.491651
0.493816
0.474887
0.495403
0.421077
0.195102
0.493802
0.494026
0.496061
0.424859
0.493347
0.495273
0.426742
0.403902
0.403723
0.466717
0.492309
0.495699
0.493492
0.428086
0.416824
0.49401
0.403611
0.496588
0.489041
0.492922
0.42533
0.491151
0.430951
0.426673
0.492681
0.49603
0.425515
0.429557
0.42574
0.490915
0.493428
0.487835
0.491713
0.495592
0.495557
0.493141
0.493662
0.493513
0.417808
0.492106
0.495345
0.491824
0.41499
0.495761
0.496202
0.487425
0.49532
0.493312
0.495283
0.353649
0.496106
0.493546
0.492377
0.492659
0.495015
0.420749
0.496496
0.43032
0.428912
0.494504
0.494259
0.494019
0.491882
0.495412
0.493118
0.495912
0.49368
0.427987
0.493782
0.42655
0.421861
0.422487
0.425545
0.49552
0.491353
0.494754
0.423818
0.492853
0.492931
0.492403
0.490234
0.493936
0.4932
0.421334
0.491919
0.487898
0.49368
0.490519
0.422422
0.495807
0.414184
0.495775
0.494053
0.4964
0.475807
0.491401
0.225901
0.222408
0.432152
0.487861
0.491515
0.492958
0.421883
0.420772
0.496137
0.492765
0.495804
0.490111
0.491181
0.4951
0.494814
0.494783
0.494039
0.492911
0.49162
0.492502
0.408903
0.496094
0.398315
0.244594
0.423275
0.424093
0.421311
0.424842
0.408825
0.493281
0.398224
0.492469
0.482855
0.486729
0.491088
0.492133
0.492764
0.426848
0.479623
0.49581
0.494611
0.491606
0.479643
0.490847
0.472152
0.42506
0.495379
0.492201
0.431776
0.49556
0.365592
0.432439
0.495411
0.487054
0.495501
0.49167
0.354695
0.429267
0.495778
0.467462
0.490792
0.493092
0.491632
0.493365
0.491266
0.495424
0.489885
0.256336
0.494244
0.425554
0.424503
0.4275
0.480298
0.490339
0.495706
0.491355
0.492482
0.491911
0.496468
0.491072
0.465336
0.489618
0.490771
0.240129
0.467797
0.491275
0.495279
0.416159
0.49058
0.488352
0.487515
0.424766
0.491626
0.4298
0.431207
0.42768
0.490605
0.493211
0.48954
0.49496
0.493203
0.436096
0.495857
0.428603
0.491892
0.427246
0.496752
0.421952
0.495467
0.491114
0.495897
0.496332
0.490373
0.425068
0.495272
0.423954
0.492191
0.425527
0.428261
0.4262
0.489936
0.419938
0.495644
0.433286
0.486585
0.493301
0.424568
0.49097
0.490543
0.496123
0.495182
0.398918
0.424349
0.418177
0.424509
0.490613
0.494012
0.493965
0.424081
0.491174
0.49195
0.41817
0.42025
0.310821
0.295279
0.489968
0.439934
0.426772
0.198925
0.203377
0.411175
0.489733
0.422753
0.492744
0.490176
0.489281
0.495352
0.489933
0.488284
0.442482
0.431095
0.258514
0.488598
0.42219
0.48886
0.492456
0.424643
0.494449
0.466305
0.428092
0.468717
0.428194
0.423854
0.449004
0.364306
0.445025
0.489596
0.42915
0.419252
0.428537
0.494822
0.442546
0.423614
0.196588
0.422103
0.492094
0.420174
0.430895
0.4923
0.426831
0.491303
0.495146
0.423336
0.416846
0.423847
0.404065
0.488254
0.489544
0.42881
0.492149
0.494266
0.446722
0.423563
0.354036
0.42358
0.421181
0.486725
0.422782
0.421685
0.489465
0.496944
0.491097
0.420197
0.421505
0.419585
0.497478
0.428185
0.42005
0.493465
0.419609
0.4899
0.423028
0.420408
0.47485
0.488913
0.222416
0.227196
0.452053
0.454055
0.489472
0.485497
0.42407
0.420088
0.382277
0.382012
0.454146
0.495922
0.246493
0.493543
0.491649
0.489511
0.493882
0.493332
0.456069
0.423879
0.418527
0.490788
0.419474
0.487095
0.492663
0.421637
0.487309
0.421729
0.423651
0.486426
0.438064
0.489237
0.416569