# vtk DataFile Version 1.0
unstructured grid
ascii
DATASET UNSTRUCTURED_GRID
points 8094 float
-0.25 0.0574735 0
0.5 0.0546937 0
0.5 -0.0546937 0
-0.25 -0.0574735 0
-0.25 0.0574735 0.01
0.5 0.0546937 0.01
0.5 -0.0546937 0.01
-0.25 -0.0574735 0.01
-0.246045 0.0569295 0
-0.242089 0.0563854 0
-0.238136 0.0558289 0
-0.234184 0.0552582 0
-0.230232 0.0546875 0
-0.226284 0.0540912 0
-0.222337 0.0534933 0
-0.218391 0.0528841 0
-0.214448 0.0522585 0
-0.210504 0.0516328 0
-0.206565 0.0509829 0
-0.202626 0.0503294 0
-0.198689 0.0496667 0
-0.194755 0.0489856 0
-0.190821 0.0483046 0
-0.18689 0.0476022 0
-0.182961 0.0468942 0
-0.179033 0.0461799 0
-0.175108 0.0454463 0
-0.171183 0.0447127 0
-0.167262 0.0439627 0
-0.163342 0.0432056 0
-0.159422 0.0424455 0
-0.155506 0.041668 0
-0.15159 0.0408904 0
-0.147675 0.0401031 0
-0.143762 0.0393092 0
-0.13985 0.0385149 0
-0.135939 0.0377103 0
-0.132028 0.0369056 0
-0.128117 0.0361005 0
-0.124207 0.0352949 0
-0.120296 0.0344893 0
-0.116386 0.0336836 0
-0.112475 0.032878 0
-0.108563 0.0320794 0
-0.104649 0.0312931 0
-0.100735 0.0305068 0
-0.0968152 0.029745 0
-0.0928949 0.0289889 0
-0.0889722 0.0282446 0
-0.0850433 0.0275341 0
-0.0811144 0.0268235 0
-0.0771778 0.0261578 0
-0.0732381 0.0255098 0
-0.0692962 0.0248759 0
-0.0653442 0.0243073 0
-0.0613923 0.0237386 0
-0.0574324 0.0232306 0
-0.0534681 0.0227556 0
-0.0495024 0.0222934 0
-0.0455272 0.0219207 0
-0.041552 0.0215481 0
-0.0375717 0.0212385 0
-0.0335881 0.0209694 0
-0.029604 0.0207098 0
-0.0256151 0.0205369 0
-0.0216262 0.0203639 0
-0.0176357 0.0202396 0
-0.0136441 0.0201487 0
-0.00965243 0.0200635 0
-0.00565987 0.0200372 0
-0.00166732 0.020011 0
0.00232526 0.0200121 0
0.00631785 0.0200329 0
0.0103104 0.0200563 0
0.0143027 0.0201109 0
0.018295 0.0201654 0
0.022287 0.0202345 0
0.0262788 0.0203144 0
0.0302706 0.0203957 0
0.034262 0.0204956 0
0.0382534 0.0205955 0
0.0422446 0.0207045 0
0.0462355 0.0208207 0
0.0502265 0.0209377 0
0.054217 0.0210676 0
0.0582075 0.0211975 0
0.0621978 0.0213339 0
0.0661879 0.0214757 0
0.0701781 0.021618 0
0.0741678 0.0217703 0
0.0781575 0.0219227 0
0.0821471 0.0220801 0
0.0861364 0.022242 0
0.0901258 0.0224041 0
0.0941148 0.0225747 0
0.0981038 0.0227453 0
0.102093 0.0229202 0
0.106081 0.023099 0
0.11007 0.0232779 0
0.114058 0.0234644 0
0.118046 0.0236509 0
0.122035 0.0238411 0
0.126022 0.024035 0
0.13001 0.0242288 0
0.133998 0.0244298 0
0.137986 0.0246308 0
0.141973 0.0248352 0
0.14596 0.025043 0
0.149947 0.0252509 0
0.153934 0.0254654 0
0.157921 0.02568 0
0.161908 0.0258978 0
0.165894 0.026119 0
0.169881 0.0263402 0
0.173867 0.0265678 0
0.177853 0.0267956 0
0.181839 0.0270264 0
0.185825 0.0272607 0
0.189811 0.0274951 0
0.193796 0.0277356 0
0.197781 0.0279764 0
0.201767 0.02822 0
0.205752 0.0284673 0
0.209737 0.0287146 0
0.213721 0.0289679 0
0.217706 0.0292217 0
0.22169 0.0294782 0
0.225674 0.0297385 0
0.229658 0.0299988 0
0.233642 0.0302651 0
0.237626 0.0305319 0
0.241609 0.0308014 0
0.245593 0.0310748 0
0.249576 0.0313482 0
0.253559 0.0316276 0
0.257542 0.0319077 0
0.261524 0.0321904 0
0.265507 0.0324772 0
0.269489 0.032764 0
0.273471 0.0330568 0
0.277453 0.0333504 0
0.281434 0.0336466 0
0.285416 0.0339471 0
0.289397 0.0342476 0
0.293378 0.034554 0
0.297359 0.0348615 0
0.301339 0.0351714 0
0.305319 0.0354859 0
0.3093 0.0358005 0
0.313279 0.036121 0
0.317259 0.0364427 0
0.321239 0.0367667 0
0.325218 0.0370957 0
0.329197 0.0374248 0
0.333175 0.0377597 0
0.337154 0.0380961 0
0.341132 0.0384347 0
0.34511 0.0387786 0
0.349088 0.0391226 0
0.353065 0.0394724 0
0.357042 0.0398239 0
0.361019 0.0401775 0
0.364995 0.0405368 0
0.368972 0.0408961 0
0.372948 0.0412613 0
0.376924 0.0416285 0
0.380899 0.0419975 0
0.384874 0.0423727 0
0.388849 0.0427479 0
0.392823 0.0431289 0
0.396798 0.0435123 0
0.400772 0.0438973 0
0.404745 0.044289 0
0.408718 0.0446807 0
0.412691 0.0450781 0
0.416664 0.0454782 0
0.420636 0.0458797 0
0.424608 0.0462883 0
0.42858 0.046697 0
0.432551 0.0471114 0
0.436521 0.0475289 0
0.440492 0.0479474 0
0.444462 0.0483738 0
0.448432 0.0488001 0
0.452401 0.0492319 0
0.45637 0.0496673 0
0.460338 0.0501035 0
0.464306 0.0505482 0
0.468274 0.0509928 0
0.472241 0.0514427 0
0.476208 0.0518968 0
0.480175 0.0523512 0
0.48414 0.0528148 0
0.488106 0.0532784 0
0.492071 0.0537471 0
0.496036 0.0542204 0
0.5 0.050787 0
0.5 0.0468803 0
0.5 0.0429736 0
0.5 0.0390669 0
0.5 0.0351602 0
0.5 0.0312535 0
0.5 0.0273468 0
0.5 0.0234402 0
0.5 0.0195335 0
0.5 0.0156268 0
0.5 0.0117201 0
0.5 0.00781339 0
0.5 0.00390669 0
0.5 1.43781e-13 0
0.5 -0.00390669 0
0.5 -0.00781339 0
0.5 -0.0117201 0
0.5 -0.0156268 0
0.5 -0.0195335 0
0.5 -0.0234402 0
0.5 -0.0273468 0
0.5 -0.0312535 0
0.5 -0.0351602 0
0.5 -0.0390669 0
0.5 -0.0429736 0
0.5 -0.0468803 0
0.5 -0.050787 0
0.496036 -0.0542204 0
0.492071 -0.0537471 0
0.488106 -0.0532784 0
0.48414 -0.0528148 0
0.480175 -0.0523512 0
0.476208 -0.0518968 0
0.472241 -0.0514427 0
0.468274 -0.0509928 0
0.464306 -0.0505482 0
0.460338 -0.0501035 0
0.45637 -0.0496673 0
0.452401 -0.0492319 0
0.448432 -0.0488001 0
0.444462 -0.0483738 0
0.440492 -0.0479474 0
0.436521 -0.0475289 0
0.432551 -0.0471114 0
0.42858 -0.046697 0
0.424608 -0.0462883 0
0.420636 -0.0458797 0
0.416664 -0.0454782 0
0.412691 -0.0450781 0
0.408718 -0.0446807 0
0.404745 -0.044289 0
0.400772 -0.0438973 0
0.396798 -0.0435123 0
0.392823 -0.0431289 0
0.388849 -0.0427479 0
0.384874 -0.0423727 0
0.380899 -0.0419975 0
0.376924 -0.0416285 0
0.372948 -0.0412613 0
0.368972 -0.0408961 0
0.364995 -0.0405368 0
0.361019 -0.0401775 0
0.357042 -0.0398239 0
0.353065 -0.0394724 0
0.349088 -0.0391226 0
0.34511 -0.0387786 0
0.341132 -0.0384347 0
0.337154 -0.0380961 0
0.333175 -0.0377597 0
0.329197 -0.0374248 0
0.325218 -0.0370957 0
0.321239 -0.0367667 0
0.317259 -0.0364427 0
0.313279 -0.036121 0
0.3093 -0.0358005 0
0.305319 -0.0354859 0
0.301339 -0.0351714 0
0.297359 -0.0348615 0
0.293378 -0.034554 0
0.289397 -0.0342476 0
0.285416 -0.0339471 0
0.281434 -0.0336466 0
0.277453 -0.0333504 0
0.273471 -0.0330568 0
0.269489 -0.032764 0
0.265507 -0.0324772 0
0.261524 -0.0321904 0
0.257542 -0.0319077 0
0.253559 -0.0316276 0
0.249576 -0.0313482 0
0.245593 -0.0310748 0
0.241609 -0.0308014 0
0.237626 -0.0305319 0
0.233642 -0.0302651 0
0.229658 -0.0299988 0
0.225674 -0.0297385 0
0.22169 -0.0294782 0
0.217706 -0.0292217 0
0.213721 -0.0289679 0
0.209737 -0.0287146 0
0.205752 -0.0284673 0
0.201767 -0.02822 0
0.197781 -0.0279764 0
0.193796 -0.0277356 0
0.189811 -0.0274951 0
0.185825 -0.0272607 0
0.181839 -0.0270264 0
0.177853 -0.0267956 0
0.173867 -0.0265678 0
0.169881 -0.0263402 0
0.165894 -0.026119 0
0.161908 -0.0258978 0
0.157921 -0.02568 0
0.153934 -0.0254654 0
0.149947 -0.0252509 0
0.14596 -0.025043 0
0.141973 -0.0248352 0
0.137986 -0.0246308 0
0.133998 -0.0244298 0
0.13001 -0.0242288 0
0.126022 -0.024035 0
0.122035 -0.0238411 0
0.118046 -0.0236509 0
0.114058 -0.0234644 0
0.11007 -0.0232779 0
0.106081 -0.023099 0
0.102093 -0.0229202 0
0.0981038 -0.0227453 0
0.0941148 -0.0225747 0
0.0901258 -0.0224041 0
0.0861364 -0.022242 0
0.0821471 -0.0220801 0
0.0781575 -0.0219227 0
0.0741678 -0.0217703 0
0.0701781 -0.021618 0
0.0661879 -0.0214757 0
0.0621978 -0.0213339 0
0.0582075 -0.0211975 0
0.054217 -0.0210676 0
0.0502265 -0.0209377 0
0.0462355 -0.0208207 0
0.0422446 -0.0207045 0
0.0382534 -0.0205955 0
0.034262 -0.0204956 0
0.0302706 -0.0203957 0
0.0262788 -0.0203144 0
0.022287 -0.0202345 0
0.018295 -0.0201654 0
0.0143027 -0.0201109 0
0.0103104 -0.0200563 0
0.00631785 -0.0200329 0
0.00232526 -0.0200121 0
-0.00166732 -0.020011 0
-0.00565987 -0.0200372 0
-0.00965243 -0.0200635 0
-0.0136441 -0.0201487 0
-0.0176357 -0.0202396 0
-0.0216262 -0.0203639 0
-0.0256151 -0.0205369 0
-0.029604 -0.0207098 0
-0.0335881 -0.0209694 0
-0.0375717 -0.0212385 0
-0.041552 -0.0215481 0
-0.0455272 -0.0219207 0
-0.0495024 -0.0222934 0
-0.0534681 -0.0227556 0
-0.0574324 -0.0232306 0
-0.0613923 -0.0237386 0
-0.0653442 -0.0243073 0
-0.0692962 -0.0248759 0
-0.0732381 -0.0255098 0
-0.0771778 -0.0261578 0
-0.0811144 -0.0268235 0
-0.0850433 -0.0275341 0
-0.0889722 -0.0282446 0
-0.0928949 -0.0289889 0
-0.0968152 -0.029745 0
-0.100735 -0.0305068 0
-0.104649 -0.0312931 0
-0.108563 -0.0320794 0
-0.112475 -0.032878 0
-0.116386 -0.0336836 0
-0.120296 -0.0344893 0
-0.124207 -0.0352949 0
-0.128117 -0.0361005 0
-0.132028 -0.0369056 0
-0.135939 -0.0377103 0
-0.13985 -0.0385149 0
-0.143762 -0.0393092 0
-0.147675 -0.0401031 0
-0.15159 -0.0408904 0
-0.155506 -0.041668 0
-0.159422 -0.0424455 0
-0.163342 -0.0432056 0
-0.167262 -0.0439627 0
-0.171183 -0.0447127 0
-0.175108 -0.0454463 0
-0.179033 -0.0461799 0
-0.182961 -0.0468942 0
-0.18689 -0.0476022 0
-0.190821 -0.0483046 0
-0.194755 -0.0489856 0
-0.198689 -0.0496667 0
-0.202626 -0.0503294 0
-0.206565 -0.0509829 0
-0.210504 -0.0516328 0
-0.214448 -0.0522585 0
-0.218391 -0.0528841 0
-0.222337 -0.0534933 0
-0.226284 -0.0540912 0
-0.230232 -0.0546875 0
-0.234184 -0.0552582 0
-0.238136 -0.0558289 0
-0.242089 -0.0563854 0
-0.246045 -0.0569295 0
-0.25 -0.0535098 0
-0.25 -0.0495461 0
-0.25 -0.0455824 0
-0.25 -0.0416187 0
-0.25 -0.0376551 0
-0.25 -0.0336914 0
-0.25 -0.0297277 0
-0.25 -0.025764 0
-0.25 -0.0218003 0
-0.25 -0.0178366 0
-0.25 -0.0138729 0
-0.25 -0.00990922 0
-0.25 -0.00594553 0
-0.25 -0.00198184 0
-0.25 0.00198184 0
-0.25 0.00594553 0
-0.25 0.00990922 0
-0.25 0.0138729 0
-0.25 0.0178366 0
-0.25 0.0218003 0
-0.25 0.025764 0
-0.25 0.0297277 0
-0.25 0.0336914 0
-0.25 0.0376551 0
-0.25 0.0416187 0
-0.25 0.0455824 0
-0.25 0.0495461 0
-0.25 0.0535098 0
-0.246045 0.0569295 0.01
-0.242089 0.0563854 0.01
-0.238136 0.0558289 0.01
-0.234184 0.0552582 0.01
-0.230232 0.0546875 0.01
-0.226284 0.0540912 0.01
-0.222337 0.0534933 0.01
-0.218391 0.0528841 0.01
-0.214448 0.0522585 0.01
-0.210504 0.0516328 0.01
-0.206565 0.0509829 0.01
-0.202626 0.0503294 0.01
-0.198689 0.0496667 0.01
-0.194755 0.0489856 0.01
-0.190821 0.0483046 0.01
-0.18689 0.0476022 0.01
-0.182961 0.0468942 0.01
-0.179033 0.0461799 0.01
-0.175108 0.0454463 0.01
-0.171183 0.0447127 0.01
-0.167262 0.0439627 0.01
[...]
CELL_DATA 7657
SCALARS rho float
LOOKUP_TABLE default
0.477678
0.369935
0.404429
0.193557
0.49515
0.383231
0.262319
0.430715
0.336948
0.49922
0.499288
0.43029
0.306318
0.430442
0.494396
0.489026
0.494325
0.412189
0.411987
0.433045
0.493601
0.413207
0.360767
0.411993
0.420852
0.427745
0.199779
0.313445
0.49604
0.383734
0.244773
0.420859
0.357495
0.475652
0.476105
0.24643
0.383874
0.359838
0.480936
0.220625
0.403795
0.335818
0.372421
0.379907
0.40356
0.405197
0.268535
0.382902
0.420963
0.477292
0.379112
0.193264
0.495966
0.496878
0.260727
0.385183
0.493891
0.491952
0.452262
0.243063
0.421355
0.402751
0.422334
0.422663
0.499975
0.49999
0.305986
0.387315
0.498475
0.448051
0.405419
0.308048
0.368293
0.496032
0.474346
0.382195
0.413219
0.381749
0.473814
0.311674
0.356886
0.430996
0.432911
0.404134
0.405177
0.457232
0.404965
0.447051
0.428041
0.200812
0.499836
0.499879
0.453961
0.497787
0.223903
0.459885
0.458604
0.364508
0.402946
0.223766
0.412621
0.418208
0.367985
0.493172
0.270241
0.346389
0.231402
0.388287
0.313291
0.493144
0.245001
0.387953
0.37664
0.432878
0.408036
0.436017
0.38893
0.219097
0.488362
0.383114
0.500696
0.500679
0.230511
0.365208
0.432123
0.430441
0.43011
0.37231
0.386413
0.373147
0.193965
0.415012
0.385505
0.367528
0.433014
0.233811
0.489367
0.357655
0.415539
0.415851
0.231825
0.202578
0.217826
0.221993
0.411522
0.493519
0.354309
0.371037
0.402334
0.231431
0.214758
0.498598
0.390207
0.372627
0.493606
0.369078
0.387345
0.414004
0.433033
0.235455
0.414379
0.491723
0.427519
0.434625
0.400208
0.367767
0.480978
0.376277
0.407682
0.488799
0.403595
0.348393
0.414773
0.21615
0.250543
0.248144
0.36399
0.459873
0.432019
0.216326
0.22194
0.312058
0.417032
0.417079
0.303286
0.450456
0.325862
0.365351
0.428898
0.459826
0.495964
0.498002
0.433003
0.464836
0.428827
0.386111
0.433154
0.49138
0.248468
0.406755
0.411868
0.417764
0.461357
0.444629
0.199809
0.496991
0.317001
0.271978
0.473411
0.464323
0.396142
0.402301
0.399991
0.433018
0.403237
0.365419
0.254783
0.455835
0.388127
0.406625
0.370142
0.371911
0.498915
0.387696
0.319274
0.358724
0.319109
0.2078
0.381395
0.498955
0.398741
0.398803
0.310279
0.493488
0.487448
0.433015
0.446598
0.41837
0.418431
0.491106
0.395798
0.212523
0.461524
0.357436
0.472464
0.467178
0.325975
0.466265
0.328516
0.380684
0.246588
0.362425
0.388646
0.474574
0.253091
0.364137
0.372407
0.495097
0.496756
0.38776
0.36417
0.496677
0.487938
0.407712
0.256639
0.404907
0.442365
0.211313
0.411802
0.215107
0.296396
0.201672
0.202843
0.433042
0.471819
0.40801
0.375208
0.387937
0.387601
0.429484
0.365102
0.425059
0.207799
0.226743
0.360866
0.245135
0.226757
0.194414
0.395311
0.409841
0.408455
0.366889
0.206645
0.496611
0.388541
0.199537
0.481286
0.43121
0.435838
0.408773
0.458663
0.497334
0.213659
0.323607
0.20002
0.455604
0.258028
0.368048
0.410938
0.388291
0.42969
0.440393
0.49086
0.32847
0.420679
0.490672
0.496547
0.495132
0.388055
0.425268
0.374654
0.360226
0.496497
0.448627
0.488781
0.495886
0.324124
0.387247
0.492385
0.409509
0.346369
0.496136
0.487905
0.375486
0.430811
0.407972
0.388532
0.207825
0.420314
0.495941
0.428546
0.250438
0.37692
0.487984
0.433164
0.252578
0.495928
0.374435
0.406023
0.492437
0.383798
0.414001
0.433005
0.414294
0.259021
0.419948
0.415139
0.273842
0.420194
0.270262
0.390778
0.412822
0.406159
0.43797
0.494026
0.248829
0.428428
0.221713
0.454082
0.45733
0.384409
0.425474
0.432648
0.432404
0.313848
0.308246
0.414363
0.407375
0.410037
0.487061
0.400787
0.411228
0.202707
0.422325
0.496303
0.498543
0.476876
0.429957
0.42806
0.49196
0.390928
0.388627
0.388282
0.432543
0.427264
0.448876
0.25392
0.349263
0.491865
0.383772
0.433051
0.433015
0.411103
0.497473
0.222325
0.425224
0.489563
0.294034
0.492174
0.494382
0.414771
0.384582
0.422519
0.193162
0.46156
0.432329
0.403032
0.43106
0.193936
0.364962
0.360424
0.43095
0.278705
0.384787
0.370331
0.408576
0.458947
0.431804
0.371431
0.418158
0.433395
0.257739
0.379626
0.43313
0.425559
0.486649
0.497294
0.415512
0.488139
0.411681
0.383048
0.485403
0.240102
0.496228
0.429435
0.400915
0.395784
0.27403
0.494274
0.434331
0.420655
0.420013
0.391696
0.268246
0.322276
0.459803
0.264936
0.489661
0.488268
0.462305
0.476513
0.386987
0.409913
0.457903
0.38695
0.432547
0.34335
0.350941
0.260776
0.256731
0.496207
0.39204
0.422045
0.478418
0.493257
0.417441
0.425716
0.38245
0.22985
0.495932
0.438793
0.496079
0.414019
0.414743
0.401349
0.387667
0.210078
0.238925
0.498435
0.423231
0.491447
0.421317
0.43019
0.463669
0.42979
0.286422
0.194464
0.381126
0.476119
0.477591
0.431627
0.431464
0.430784
0.431702
0.446886
0.45062
0.380081
0.369283
0.437435
0.486862
0.208848
0.425097
0.417036
0.491358
0.41239
0.432148
0.484314
0.413674
0.482171
0.363208
0.489455
0.432681
0.431401
0.195062
0.429266
0.431836
0.497251
0.404428
0.497609
0.421917
0.390015
0.487387
0.43125
0.421673
0.402678
0.417292
0.403391
0.430762
0.256408
0.41072
0.400818
0.417421
0.42951
0.429927
0.425982
0.432682
0.416593
0.370308
0.384548
0.416237
0.487648
0.193948
0.419893
0.42739
0.482757
0.486177
0.222972
0.429569
0.34992
0.476285
0.487079
0.379852
0.432349
0.291443
0.415901
0.48517
0.498046
0.432701
0.246729
0.472807
0.459636
0.38068
0.414033
0.364427
0.454904
0.280465
0.43112
0.432984
0.430049
0.430244
0.324398
0.401334
0.456273
0.387382
0.415804
0.417635
0.42352
0.435788
0.498411
0.290062
0.428852
0.430426
0.272264
0.429143
0.453006
0.38739
0.250115
0.326626
0.40132
0.430625
0.462548
0.492987
0.387888
0.428679
0.431189
0.43061
0.427768
0.465192
0.388913
0.493516
0.427872
0.430402
0.430008
0.485296
0.401843
0.487467
0.432926
0.428505
0.425243
0.430592
0.239694
0.496647
0.496636
0.432343
0.430976
0.42313
0.367422
0.434589
0.437759
0.334178
0.412295
0.38702
0.496615
0.423339
0.373353
0.43199
0.423437
0.421773
0.496204
0.412309
0.496183
0.417302
0.4197
0.28632
0.195633
0.43255
0.421161
0.423699
0.400538
0.43079
0.485515
0.423908
0.405016
0.432222
0.433
0.429181
0.203659
0.416941
0.422146
0.421866
0.229084
0.424259
0.488155
0.428013
0.422086
0.414813
0.425932
0.430963
0.424475
0.39353
0.432414
0.456541
0.415896
0.488254
0.330448
0.391763
0.386236
0.388134
0.433194
0.424817
0.401333
0.422451
0.396957
0.43023
0.431335
0.425018
0.39001
0.194039
0.337062
0.238279
0.468754
0.430947
0.429815
0.422746
0.416209
0.429806
0.432587
0.322567
0.494707
0.494336
0.27809
0.415467
0.323969
0.350676
0.275109
0.375982
0.425351
0.328618
0.425564
0.432045
0.432208
0.359642
0.4308
0.496482
0.41359
0.28797
0.488008
0.497171
0.462748
0.419355
0.375283
0.394424
0.432014
0.431995
0.495753
0.423073
0.427047
0.496358
0.243217
0.453042
0.4212
0.495088
0.374312
0.407518
0.429664
0.430753
0.350709
0.418107
0.432148
0.421871
0.422728
0.383488
0.494992
0.451406
0.256403
0.431951
0.351167
0.343826
0.229533
0.427366
0.497296
0.288735
0.423199
0.483974
0.498363
0.494171
0.495494
0.22102
0.496012
0.496284
0.377587
0.495642
0.432588
0.421213
0.422463
0.431413
0.388723
0.344082
0.422551
0.43022
0.414016
0.413679
0.486572
0.339407
0.495436
0.429901
0.486149
0.493963
0.495287
0.396765
0.375134
0.422526
0.219054
0.431935
0.27192
0.432764
0.495239
0.370012
0.455005
0.416993
0.427323
0.273899
0.429134
0.423342
0.402777
0.487545
0.431735
0.449322
0.400193
0.413566
0.494615
0.233953
0.292221
0.429727
0.406501
0.452834
0.452825
0.378713
0.494824
0.430642
0.464345
0.31771
0.294652
0.377419
0.279657
0.494406
0.432743
0.37675
0.431841
0.492472
0.432719
0.361112
0.432897
0.432444
0.270669
0.459689
0.42955
0.220216
0.432482
0.286841
0.432201
0.429051
0.219101
0.428022
0.4323
0.252584
0.485654
0.432755
0.493864
0.421517
0.432451
0.426558
0.420903
0.497847
0.496388
0.493648
0.406074
0.447564
0.459836
0.373579
0.494059
0.496594
0.23385
0.342472
0.221387
0.424206
0.432196
0.496274
0.432441
0.492111
0.49397
0.432497
0.491822
0.494206
0.374401
0.423564
0.432307
0.231154
0.493364
0.273944
0.3414
0.49643
0.296831
0.428566
0.493664
0.220086
0.229717
0.494785
0.493847
0.431362
0.49449
0.429603
0.443985
0.4291
0.33464
0.328736
0.340135
0.431083
0.430403
0.49453
0.311449
0.423906
0.378109
0.493902
0.494206
0.493606
0.494166
0.426351
0.493066
0.462569
0.492768
0.493313
0.489118
0.432152
0.489491
0.210268
0.424467
0.208058
0.462775
0.257543
0.379399
0.216492
0.232785
0.440618
0.440731
0.495786
0.429952
0.49302
0.429775
0.352191
0.458589
0.432615
0.42935
0.495924
0.428772
0.445207
0.223406
0.49273
0.441085
0.440968
0.305911
0.488566
0.429473
0.429036
0.206692
0.450942
0.450925
0.432001
0.376659
0.378072
0.294499
0.222113
0.496299
0.433051
0.431567
0.414413
0.224919
0.217951
0.43242
0.429359
0.402662
0.209078
0.311273
0.31136
0.314926
0.428739
0.235253
0.387895
0.430028
0.244346
0.421539
0.491295
0.42941
0.431053
0.38764
0.380054
0.432299
0.216441
0.464744
0.428788
0.423012
0.477054
0.479373
0.423025
0.432635
0.469221
0.202554
0.423876
0.431343
0.381141
0.246022
0.432655
0.492271
0.428914
0.429296
0.423303
0.423644
0.432497
0.426846
0.418427
0.205486
0.22352
0.492311
0.251478
0.432841
0.457917
0.495959
0.49673
0.411491
0.404938
0.432402
0.429305
0.432868
0.419436
0.491609
0.4282
0.422776
0.432383
0.222119
0.432677
0.494426
0.428004
0.422812
0.298537
0.495718
0.429795
0.429312
0.305521
0.304428
0.34853
0.429393
0.49096
0.432874
0.401512
0.407369
0.243871
0.21017
0.412591
0.428226
0.491448
0.256032
0.425011
0.268569
0.237511
0.431948
0.495831
0.424775
0.495972
0.407032
0.407038
0.400824
0.495702
0.412278
0.432935
0.428761
0.412288
0.298503
0.401501
0.476842
0.372834
0.495881
0.203775
0.380597
0.493931
0.496391
0.431854
0.491659
0.493821
0.4909
0.431275
0.265408
0.202664
0.413293
0.495671
0.323039
0.430204
0.386731
0.47856
0.430888
0.377407
0.418723
0.432407
0.41731
0.432703
0.429134
0.493638
0.430921
0.428925
0.422654
0.495797
0.424757
0.476976
0.381753
0.422398
0.25327
0.426822
0.463653
0.203376
0.494714
0.467578
0.470257
0.429153
0.382257
0.43254
0.270641
0.226249
0.267337
0.432549
0.428073
0.423925
0.427662
0.221182
0.490556
0.429392
0.426522
0.246063
0.220054
0.431089
0.487045
0.495616
0.427731
0.430691
0.206658
0.428971
0.386735
0.204615
0.431859
0.42554
0.396239
0.432918
0.214943
0.431652
0.496355
0.474311
0.428027
0.475199
0.43258
0.488968
0.43224
0.495858
0.490098
0.202189
0.402162
0.402641
0.490148
0.492798
0.426553
0.36161
0.430802
0.489737
0.430863
0.242062
0.488232
0.432353
0.428465
0.223426
0.242256
0.428478
0.251623
0.379978
0.227967
0.313544
0.313014
0.380614
0.379389
0.425294
0.238971
0.4957
0.424738
0.496709
0.432513
0.257713
0.429532
0.431891
0.429627
0.229436
0.432468
0.494652
0.430584
0.429782
0.467737
0.432591
0.246032
0.254735
0.442571
0.442615
0.432155
0.494762
0.246085
0.43007
0.495522
0.4325
0.432738
0.416605
0.412455
0.496485
0.461724
0.359516
0.263818
0.432
0.242134
0.429413
0.265386
0.390341
0.432347
0.424444
0.430697
0.431111
0.418704
0.418682
0.289483
0.496209
0.203447
0.496591
0.429332
0.432229
0.492177
0.432747
0.489692
0.413308
0.279747
0.254947
0.492311
0.382831
0.492571
0.431513
0.431639
0.206348
0.495951
0.491506
0.327224
0.431736
0.260028
0.223476
0.425559
0.49206
0.261085
0.387217
0.297504
0.235092
0.476
0.423873
0.477675
0.474198
0.424459
0.418292
0.418309
0.201434
0.423901
0.432699
0.432356
0.233562
0.417607
0.430009
0.335969
0.252947
0.43096
0.423328
0.430642
0.43244
0.431737
0.432616
0.422715
0.496487
0.422681
0.396162
0.411744
0.427026
0.426901
0.424699
0.249925
0.430565
0.410119
0.410205
0.48995
0.431524
0.427756
0.497439
0.431147
0.415864
0.4296
0.427175
0.489321
0.370378
0.427448
0.37015
0.490501
0.410909
0.257705
0.480576
0.401829
0.401816
0.432558
0.432282
0.38764
0.432642
0.431787
0.495611
0.393154
0.393121
0.299869
0.43259
0.424437
0.432067
0.384057
0.432857
0.431715
0.425511
0.42676
0.432246
0.468715
0.470078
0.386241
0.431495
0.429557
0.432396
0.376561
0.375424
0.375452
0.417637
0.429992
0.431179
0.432159
0.432891
0.418342
0.196161
0.418317
0.416926
0.432485
0.292451
0.430657
0.386981
0.432044
0.395745
0.395678
0.427723
0.492075
0.431134
0.241577
0.495666
0.432759
0.220235
0.404339
0.496422
0.491542
0.412425
0.258267
0.302902
0.308758
0.404188
0.427548
0.431364
0.419631
0.416186
0.410412
0.432644
0.419596
0.408677
0.410147
0.413807
0.432196
0.417811
0.43119
0.210102
0.410946
0.493056
0.491812
0.427087
0.430402
0.414398
0.43016
0.432161
0.430463
0.205426
0.410231
0.43188
0.431805
0.431416
0.432292
0.43189
0.430745
0.289402
0.394012
0.393968
0.431584
0.430055
0.431868
0.49196
0.265541
0.430288
0.422727
0.432371
0.424364
0.361478
0.49209
0.427722
0.232527
0.487734
0.431131
0.280135
0.430888
0.372736
0.408609
0.240299
0.240569
0.372213
0.372026
0.422157
0.429742
0.495955
0.495983
0.370878
0.431708
0.432493
0.384319
0.37902
0.424972
0.249748
0.430178
0.429625
0.477791
0.22328
0.203787
0.38332
0.432097
0.432137
0.431923
0.431946
0.497501
0.427374
0.427853
0.428317
0.431637
0.426885
0.431682
0.430345
0.395713
0.492441
0.460279
0.496429
0.430856
0.429773
0.432096
0.429761
0.400087
0.429233
0.427296
0.416193
0.430365
0.429307
0.427658
0.497085
0.428476
0.414028
0.490316
0.400604
0.40557
0.496478
0.428915
0.432557
0.491884
0.224684
0.431487
0.488902
0.428898
0.495659
0.428251
0.429137
0.261029
0.495908
0.48848
0.489891
0.391368
0.391413
0.427306
0.26253
0.497236
0.429966
0.498009
0.348902
0.430979
0.429216
0.207468
0.387148
0.489282
0.397986
0.210074
0.49791
0.21238
0.498733
0.498695
0.497838
0.213357
0.424718
0.497571
0.429591
0.496126
0.493626
0.430633
0.432578
0.473241
0.201531
0.261522
0.49726
0.381898
0.428305
0.265492
0.19989
0.200599
0.428995
0.469273
0.213812
0.19464
0.487846
0.49752
0.431801
0.461814
0.427839
0.36557
0.498366
0.498334
0.49184
0.430214
0.491677
0.430798
0.198139
0.422381
0.422375
0.427019
0.495969
0.431207
0.496478
0.497076
0.431431
0.212289
0.4328
0.432692
0.229272
0.249709
0.247728
0.385314
0.428588
0.491447
0.469344
0.428854
0.428106
0.428838
0.425814
0.428954
0.497748
0.417622
0.497168
0.217548
0.463054
0.427104
0.369196
0.368761
0.491144
0.421569
0.493765
0.429648
0.42847
0.427635
0.418631
0.41861
0.42963
0.429377
0.431522
0.495647
0.375737
0.428656
0.426323
0.429092
0.376168
0.376175
0.431564
0.430525
0.427589
0.431795
0.429116
0.495011
0.431581
0.383439
0.495567
0.378455
0.37823
0.429093
0.423554
0.430756
0.426681
0.392637
0.392625
0.38742
0.39617
0.396105
0.248132
0.425244
0.49683
0.38414
0.426607
0.428664
0.479986
0.426382
0.401334
0.401322
0.409691
0.409721
0.419666
0.429933
0.404767
0.417226
0.416894
0.49554
0.426173
0.412828
0.486752
0.428061
0.39747
0.397469
0.419602
0.427046
0.419941
0.406095
0.406066
0.429313
0.425767
0.415788
0.43265
0.419936
0.223284
0.429876
0.443469
0.496854
0.428522
0.398994
0.426414
0.497562
0.497522
0.497293
0.432207
0.494877
0.492787
0.411281
0.497054
0.364988
0.48887
0.493432
0.4971
0.428485
0.430982
0.431501
0.357408
0.432491
0.432398
0.49622
0.23117
0.232459
0.426814
0.432082
0.408091
0.488181
0.425265
0.427361
0.491025
0.491688
0.432279
0.495426
0.495437
0.432005
0.490885
0.256015
0.259291
0.49363
0.406125
0.384203
0.464498
0.21484
0.496915
0.497024
0.43172
0.495927
0.496359
0.487557
0.428919
0.226154
0.422633
0.495607
0.45867
0.482275
0.49608
0.42739
0.496286
0.244306
0.427528
0.232184
0.416319
0.42629
0.4968
0.229338
0.229144
0.431287
0.399606
0.490722
0.495515
0.487891
0.428333
0.217469
0.425885
0.493204
0.431936
0.496426
0.495209
0.494905
0.428544
0.397511
0.429509
0.495488
0.427276
0.496253
0.428259
0.48162
0.493355
0.430458
0.488145
0.394416
0.39435
0.494576
0.493503
0.495428
0.495246
0.48728
0.495793
0.495928
0.472508
0.430576
0.420887
0.495597
0.496148
0.430925
0.426399
0.428735
0.414755
0.428523
0.49232
0.390926
0.390873
0.496687
0.497101
0.281618
0.497111
0.494373
0.432401
0.426059
0.424201
0.493902
0.494708
0.432288
0.495446
0.495836
0.487612
0.468068
0.493697
0.496272
0.491563
0.496131
0.386043
0.426519
0.481634
0.427558
0.495724
0.495561
0.476074
0.426309
0.427769
0.425655
0.495084
0.485439
0.49591
0.202384
0.381262
0.42635
0.49719
0.492582
0.386035
0.427161
0.493517
0.49529
0.495509
0.373008
0.372881
0.432414
0.414004
0.495706
0.194985
0.422419
0.494454
0.470506
0.428379
0.36375
0.495371
0.422412
0.197434
0.494762
0.421205
0.491279
0.425558
0.431682
0.495814
0.496923
0.426599
0.426611
0.421729
0.493238
0.49585
0.432245
0.496138
0.492258
0.385815
0.493467
0.427568
0.431492
0.494222
0.356183
0.427306
0.494705
0.425823
0.495955
0.496261
0.476697
0.418011
0.420487
0.428648
0.432645
0.417985
0.432646
0.49564
0.426589
0.493723
0.495489
0.495224
0.492809
0.495503
0.430397
0.495802
0.308905
0.495553
0.298649
0.495433
0.49235
0.491113
0.496516
0.49186
0.428709
0.379155
0.378875
0.427828
0.429739
0.496049
0.209088
0.211275
0.411361
0.410578
0.494205
0.495526
0.494417
0.430179
0.490444
0.495447
0.422661
0.384635
0.494553
0.495463
0.428895
0.495835
0.240732
0.26405
0.496942
0.496267
0.496232
0.385078
0.49255
0.495652
0.493486
0.465662
0.466983
0.497964
0.492151
0.49532
0.371783
0.397903
0.397903
0.424579
0.384858
0.493015
0.493836
0.491337
0.491295
0.493582
0.474195
0.495348
0.421223
0.204624
0.493561
0.493822
0.49608
0.425359
0.493079
0.495174
0.42735
0.406521
0.406487
0.465984
0.491994
0.495693
0.49325
0.428694
0.416564
0.493775
0.403138
0.496536
0.488588
0.492629
0.425868
0.490779
0.431308
0.427287
0.492375
0.496034
0.426073
0.430086
0.426311
0.490524
0.493168
0.487344
0.491362
0.495442
0.495406
0.492861
0.493429
0.493263
0.417607
0.49178
0.495263
0.491484
0.414733
0.495756
0.496119
0.486923
0.495185
0.493057
0.495161
0.353703
0.496107
0.493307
0.492062
0.492354
0.494876
0.420836
0.496425
0.430724
0.429488
0.494331
0.494069
0.493813
0.491542
0.495347
0.492838
0.495901
0.493428
0.428603
0.493559
0.427152
0.422064
0.422751
0.426098
0.495436
0.490988
0.494598
0.424229
0.492569
0.492637
0.492093
0.489823
0.493698
0.49292
0.421479
0.491584
0.487409
0.493435
0.49012
0.422683
0.495841
0.413977
0.495788
0.493843
0.496356
0.475122
0.491041
0.231052
0.227803
0.432355
0.487371
0.491153
0.492664
0.422086
0.420859
0.496172
0.492455
0.495727
0.489694
0.490806
0.494973
0.494612
0.494581
0.49383
0.492628
0.491267
0.49219
0.409946
0.496034
0.403703
0.248233
0.423638
0.424528
0.421456
0.425341
0.409938
0.49301
0.403705
0.492151
0.482254
0.486205
0.490712
0.491805
0.492459
0.427449
0.478977
0.495848
0.494422
0.491255
0.478996
0.490462
0.471443
0.425577
0.49532
0.49188
0.432022
0.495525
0.365495
0.432536
0.495308
0.486542
0.495428
0.491313
0.354743
0.429821
0.495788
0.466734
0.490403
0.492824
0.491264
0.493103
0.490899
0.495371
0.489461
0.25931
0.494047
0.426122
0.424984
0.428115
0.47966
0.489933
0.495688
0.490991
0.492163
0.491565
0.496429
0.490693
0.4646
0.489185
0.49038
0.244373
0.467068
0.490897
0.495147
0.415913
0.490183
0.487876
0.487014
0.425275
0.491271
0.430294
0.430541
0.428285
0.490211
0.492945
0.489102
0.494792
0.492922
0.435407
0.495857
0.429177
0.49155
0.427868
0.49674
0.422164
0.495381
0.490736
0.495818
0.496354
0.489969
0.424438
0.495121
0.424376
0.49186
0.42608
0.428868
0.426795
0.489514
0.419943
0.495553
0.432612
0.486061
0.493036
0.425043
0.490584
0.490142
0.496128
0.495033
0.398488
0.424803
0.418035
0.424997
0.490214
0.49376
0.49371
0.42452
0.490804
0.491606
0.417995
0.419652
0.311748
0.296617
0.489548
0.439231
0.427392
0.207611
0.211305
0.411392
0.489303
0.422138
0.492437
0.489761
0.488833
0.495253
0.489508
0.487806
0.441767
0.431438
0.261501
0.488122
0.422427
0.488399
0.492137
0.425123
0.494246
0.465573
0.428707
0.467992
0.427547
0.42427
0.44827
0.384858
0.444302
0.489162
0.429701
0.419198
0.429131
0.494646
0.441834
0.424001
0.205804
0.422332
0.491759
0.420204
0.431277
0.491971
0.427439
0.490939
0.49505
0.42369
0.416594
0.424253
0.403591
0.487766
0.489107
0.429388
0.49182
0.494083
0.445996
0.42394
0.354086
0.423966
0.42131
0.486204
0.422162
0.421868
0.489027
0.496944
0.490716
0.420227
0.421668
0.41956
0.497488
0.427534
0.420062
0.493218
0.419583
0.489476
0.423352
0.420462
0.474158
0.488455
0.227817
0.232242
0.451315
0.453313
0.489031
0.484948
0.424499
0.42011
0.382006
0.381752
0.453405
0.495826
0.249954
0.49328
0.4913
0.489074
0.493637
0.493079
0.455325
0.424296
0.418417
0.490398
0.41944
0.486584
0.492368
0.421811
0.486804
0.421913
0.424045
0.485892