# vtk DataFile Version 1.0
unstructured grid
ascii
DATASET UNSTRUCTURED_GRID
points 8094 float
-0.25 0.0574735 0
0.5 0.0546937 0
0.5 -0.0546937 0
-0.25 -0.0574735 0
-0.25 0.0574735 0.01
0.5 0.0546937 0.01
0.5 -0.0546937 0.01
-0.25 -0.0574735 0.01
-0.246045 0.0569295 0
-0.242089 0.0563854 0
-0.238136 0.0558289 0
-0.234184 0.0552582 0
-0.230232 0.0546875 0
-0.226284 0.0540912 0
-0.222337 0.0534933 0
-0.218391 0.0528841 0
-0.214448 0.0522585 0
-0.210504 0.0516328 0
-0.206565 0.0509829 0
-0.202626 0.0503294 0
-0.198689 0.0496667 0
-0.194755 0.0489856 0
-0.190821 0.0483046 0
-0.18689 0.0476022 0
-0.182961 0.0468942 0
-0.179033 0.0461799 0
-0.175108 0.0454463 0
-0.171183 0.0447127 0
-0.167262 0.0439627 0
-0.163342 0.0432056 0
-0.159422 0.0424455 0
-0.155506 0.041668 0
-0.15159 0.0408904 0
-0.147675 0.0401031 0
-0.143762 0.0393092 0
-0.13985 0.0385149 0
-0.135939 0.0377103 0
-0.132028 0.0369056 0
-0.128117 0.0361005 0
-0.124207 0.0352949 0
-0.120296 0.0344893 0
-0.116386 0.0336836 0
-0.112475 0.032878 0
-0.108563 0.0320794 0
-0.104649 0.0312931 0
-0.100735 0.0305068 0
-0.0968152 0.029745 0
-0.0928949 0.0289889 0
-0.0889722 0.0282446 0
-0.0850433 0.0275341 0
-0.0811144 0.0268235 0
-0.0771778 0.0261578 0
-0.0732381 0.0255098 0
-0.0692962 0.0248759 0
-0.0653442 0.0243073 0
-0.0613923 0.0237386 0
-0.0574324 0.0232306 0
-0.0534681 0.0227556 0
-0.0495024 0.0222934 0
-0.0455272 0.0219207 0
-0.041552 0.0215481 0
-0.0375717 0.0212385 0
-0.0335881 0.0209694 0
-0.029604 0.0207098 0
-0.0256151 0.0205369 0
-0.0216262 0.0203639 0
-0.0176357 0.0202396 0
-0.0136441 0.0201487 0
-0.00965243 0.0200635 0
-0.00565987 0.0200372 0
-0.00166732 0.020011 0
0.00232526 0.0200121 0
0.00631785 0.0200329 0
0.0103104 0.0200563 0
0.0143027 0.0201109 0
0.018295 0.0201654 0
0.022287 0.0202345 0
0.0262788 0.0203144 0
0.0302706 0.0203957 0
0.034262 0.0204956 0
0.0382534 0.0205955 0
0.0422446 0.0207045 0
0.0462355 0.0208207 0
0.0502265 0.0209377 0
0.054217 0.0210676 0
0.0582075 0.0211975 0
0.0621978 0.0213339 0
0.0661879 0.0214757 0
0.0701781 0.021618 0
0.0741678 0.0217703 0
0.0781575 0.0219227 0
0.0821471 0.0220801 0
0.0861364 0.022242 0
0.0901258 0.0224041 0
0.0941148 0.0225747 0
0.0981038 0.0227453 0
0.102093 0.0229202 0
0.106081 0.023099 0
0.11007 0.0232779 0
0.114058 0.0234644 0
0.118046 0.0236509 0
0.122035 0.0238411 0
0.126022 0.024035 0
0.13001 0.0242288 0
0.133998 0.0244298 0
0.137986 0.0246308 0
0.141973 0.0248352 0
0.14596 0.025043 0
0.149947 0.0252509 0
0.153934 0.0254654 0
0.157921 0.02568 0
0.161908 0.0258978 0
0.165894 0.026119 0
0.169881 0.0263402 0
0.173867 0.0265678 0
0.177853 0.0267956 0
0.181839 0.0270264 0
0.185825 0.0272607 0
0.189811 0.0274951 0
0.193796 0.0277356 0
0.197781 0.0279764 0
0.201767 0.02822 0
0.205752 0.0284673 0
0.209737 0.0287146 0
0.213721 0.0289679 0
0.217706 0.0292217 0
0.22169 0.0294782 0
0.225674 0.0297385 0
0.229658 0.0299988 0
0.233642 0.0302651 0
0.237626 0.0305319 0
0.241609 0.0308014 0
0.245593 0.0310748 0
0.249576 0.0313482 0
0.253559 0.0316276 0
0.257542 0.0319077 0
0.261524 0.0321904 0
0.265507 0.0324772 0
0.269489 0.032764 0
0.273471 0.0330568 0
0.277453 0.0333504 0
0.281434 0.0336466 0
0.285416 0.0339471 0
0.289397 0.0342476 0
0.293378 0.034554 0
0.297359 0.0348615 0
0.301339 0.0351714 0
0.305319 0.0354859 0
0.3093 0.0358005 0
0.313279 0.036121 0
0.317259 0.0364427 0
0.321239 0.0367667 0
0.325218 0.0370957 0
0.329197 0.0374248 0
0.333175 0.0377597 0
0.337154 0.0380961 0
0.341132 0.0384347 0
0.34511 0.0387786 0
0.349088 0.0391226 0
0.353065 0.0394724 0
0.357042 0.0398239 0
0.361019 0.0401775 0
0.364995 0.0405368 0
0.368972 0.0408961 0
0.372948 0.0412613 0
0.376924 0.0416285 0
0.380899 0.0419975 0
0.384874 0.0423727 0
0.388849 0.0427479 0
0.392823 0.0431289 0
0.396798 0.0435123 0
0.400772 0.0438973 0
0.404745 0.044289 0
0.408718 0.0446807 0
0.412691 0.0450781 0
0.416664 0.0454782 0
0.420636 0.0458797 0
0.424608 0.0462883 0
0.42858 0.046697 0
0.432551 0.0471114 0
0.436521 0.0475289 0
0.440492 0.0479474 0
0.444462 0.0483738 0
0.448432 0.0488001 0
0.452401 0.0492319 0
0.45637 0.0496673 0
0.460338 0.0501035 0
0.464306 0.0505482 0
0.468274 0.0509928 0
0.472241 0.0514427 0
0.476208 0.0518968 0
0.480175 0.0523512 0
0.48414 0.0528148 0
0.488106 0.0532784 0
0.492071 0.0537471 0
0.496036 0.0542204 0
0.5 0.050787 0
0.5 0.0468803 0
0.5 0.0429736 0
0.5 0.0390669 0
0.5 0.0351602 0
0.5 0.0312535 0
0.5 0.0273468 0
0.5 0.0234402 0
0.5 0.0195335 0
0.5 0.0156268 0
0.5 0.0117201 0
0.5 0.00781339 0
0.5 0.00390669 0
0.5 1.43781e-13 0
0.5 -0.00390669 0
0.5 -0.00781339 0
0.5 -0.0117201 0
0.5 -0.0156268 0
0.5 -0.0195335 0
0.5 -0.0234402 0
0.5 -0.0273468 0
0.5 -0.0312535 0
0.5 -0.0351602 0
0.5 -0.0390669 0
0.5 -0.0429736 0
0.5 -0.0468803 0
0.5 -0.050787 0
0.496036 -0.0542204 0
0.492071 -0.0537471 0
0.488106 -0.0532784 0
0.48414 -0.0528148 0
0.480175 -0.0523512 0
0.476208 -0.0518968 0
0.472241 -0.0514427 0
0.468274 -0.0509928 0
0.464306 -0.0505482 0
0.460338 -0.0501035 0
0.45637 -0.0496673 0
0.452401 -0.0492319 0
0.448432 -0.0488001 0
0.444462 -0.0483738 0
0.440492 -0.0479474 0
0.436521 -0.0475289 0
0.432551 -0.0471114 0
0.42858 -0.046697 0
0.424608 -0.0462883 0
0.420636 -0.0458797 0
0.416664 -0.0454782 0
0.412691 -0.0450781 0
0.408718 -0.0446807 0
0.404745 -0.044289 0
0.400772 -0.0438973 0
0.396798 -0.0435123 0
0.392823 -0.0431289 0
0.388849 -0.0427479 0
0.384874 -0.0423727 0
0.380899 -0.0419975 0
0.376924 -0.0416285 0
0.372948 -0.0412613 0
0.368972 -0.0408961 0
0.364995 -0.0405368 0
0.361019 -0.0401775 0
0.357042 -0.0398239 0
0.353065 -0.0394724 0
0.349088 -0.0391226 0
0.34511 -0.0387786 0
0.341132 -0.0384347 0
0.337154 -0.0380961 0
0.333175 -0.0377597 0
0.329197 -0.0374248 0
0.325218 -0.0370957 0
0.321239 -0.0367667 0
0.317259 -0.0364427 0
0.313279 -0.036121 0
0.3093 -0.0358005 0
0.305319 -0.0354859 0
0.301339 -0.0351714 0
0.297359 -0.0348615 0
0.293378 -0.034554 0
0.289397 -0.0342476 0
0.285416 -0.0339471 0
0.281434 -0.0336466 0
0.277453 -0.0333504 0
0.273471 -0.0330568 0
0.269489 -0.032764 0
0.265507 -0.0324772 0
0.261524 -0.0321904 0
0.257542 -0.0319077 0
0.253559 -0.0316276 0
0.249576 -0.0313482 0
0.245593 -0.0310748 0
0.241609 -0.0308014 0
0.237626 -0.0305319 0
0.233642 -0.0302651 0
0.229658 -0.0299988 0
0.225674 -0.0297385 0
0.22169 -0.0294782 0
0.217706 -0.0292217 0
0.213721 -0.0289679 0
0.209737 -0.0287146 0
0.205752 -0.0284673 0
0.201767 -0.02822 0
0.197781 -0.0279764 0
0.193796 -0.0277356 0
0.189811 -0.0274951 0
0.185825 -0.0272607 0
0.181839 -0.0270264 0
0.177853 -0.0267956 0
0.173867 -0.0265678 0
0.169881 -0.0263402 0
0.165894 -0.026119 0
0.161908 -0.0258978 0
0.157921 -0.02568 0
0.153934 -0.0254654 0
0.149947 -0.0252509 0
0.14596 -0.025043 0
0.141973 -0.0248352 0
0.137986 -0.0246308 0
0.133998 -0.0244298 0
0.13001 -0.0242288 0
0.126022 -0.024035 0
0.122035 -0.0238411 0
0.118046 -0.0236509 0
0.114058 -0.0234644 0
0.11007 -0.0232779 0
0.106081 -0.023099 0
0.102093 -0.0229202 0
0.0981038 -0.0227453 0
0.0941148 -0.0225747 0
0.0901258 -0.0224041 0
0.0861364 -0.022242 0
0.0821471 -0.0220801 0
0.0781575 -0.0219227 0
0.0741678 -0.0217703 0
0.0701781 -0.021618 0
0.0661879 -0.0214757 0
0.0621978 -0.0213339 0
0.0582075 -0.0211975 0
0.054217 -0.0210676 0
0.0502265 -0.0209377 0
0.0462355 -0.0208207 0
0.0422446 -0.0207045 0
0.0382534 -0.0205955 0
0.034262 -0.0204956 0
0.0302706 -0.0203957 0
0.0262788 -0.0203144 0
0.022287 -0.0202345 0
0.018295 -0.0201654 0
0.0143027 -0.0201109 0
0.0103104 -0.0200563 0
0.00631785 -0.0200329 0
0.00232526 -0.0200121 0
-0.00166732 -0.020011 0
-0.00565987 -0.0200372 0
-0.00965243 -0.0200635 0
-0.0136441 -0.0201487 0
-0.0176357 -0.0202396 0
-0.0216262 -0.0203639 0
-0.0256151 -0.0205369 0
-0.029604 -0.0207098 0
-0.0335881 -0.0209694 0
-0.0375717 -0.0212385 0
-0.041552 -0.0215481 0
-0.0455272 -0.0219207 0
-0.0495024 -0.0222934 0
-0.0534681 -0.0227556 0
-0.0574324 -0.0232306 0
-0.0613923 -0.0237386 0
-0.0653442 -0.0243073 0
-0.0692962 -0.0248759 0
-0.0732381 -0.0255098 0
-0.0771778 -0.0261578 0
-0.0811144 -0.0268235 0
-0.0850433 -0.0275341 0
-0.0889722 -0.0282446 0
-0.0928949 -0.0289889 0
-0.0968152 -0.029745 0
-0.100735 -0.0305068 0
-0.104649 -0.0312931 0
-0.108563 -0.0320794 0
-0.112475 -0.032878 0
-0.116386 -0.0336836 0
-0.120296 -0.0344893 0
-0.124207 -0.0352949 0
-0.128117 -0.0361005 0
-0.132028 -0.0369056 0
-0.135939 -0.0377103 0
-0.13985 -0.0385149 0
-0.143762 -0.0393092 0
-0.147675 -0.0401031 0
-0.15159 -0.0408904 0
-0.155506 -0.041668 0
-0.159422 -0.0424455 0
-0.163342 -0.0432056 0
-0.167262 -0.0439627 0
-0.171183 -0.0447127 0
-0.175108 -0.0454463 0
-0.179033 -0.0461799 0
-0.182961 -0.0468942 0
-0.18689 -0.0476022 0
-0.190821 -0.0483046 0
-0.194755 -0.0489856 0
-0.198689 -0.0496667 0
-0.202626 -0.0503294 0
-0.206565 -0.0509829 0
-0.210504 -0.0516328 0
-0.214448 -0.0522585 0
-0.218391 -0.0528841 0
-0.222337 -0.0534933 0
-0.226284 -0.0540912 0
-0.230232 -0.0546875 0
-0.234184 -0.0552582 0
-0.238136 -0.0558289 0
-0.242089 -0.0563854 0
-0.246045 -0.0569295 0
-0.25 -0.0535098 0
-0.25 -0.0495461 0
-0.25 -0.0455824 0
-0.25 -0.0416187 0
-0.25 -0.0376551 0
-0.25 -0.0336914 0
-0.25 -0.0297277 0
-0.25 -0.025764 0
-0.25 -0.0218003 0
-0.25 -0.0178366 0
-0.25 -0.0138729 0
-0.25 -0.00990922 0
-0.25 -0.00594553 0
-0.25 -0.00198184 0
-0.25 0.00198184 0
-0.25 0.00594553 0
-0.25 0.00990922 0
-0.25 0.0138729 0
-0.25 0.0178366 0
-0.25 0.0218003 0
-0.25 0.025764 0
-0.25 0.0297277 0
-0.25 0.0336914 0
-0.25 0.0376551 0
-0.25 0.0416187 0
-0.25 0.0455824 0
-0.25 0.0495461 0
-0.25 0.0535098 0
-0.246045 0.0569295 0.01
-0.242089 0.0563854 0.01
-0.238136 0.0558289 0.01
-0.234184 0.0552582 0.01
-0.230232 0.0546875 0.01
-0.226284 0.0540912 0.01
-0.222337 0.0534933 0.01
-0.218391 0.0528841 0.01
-0.214448 0.0522585 0.01
-0.210504 0.0516328 0.01
-0.206565 0.0509829 0.01
-0.202626 0.0503294 0.01
-0.198689 0.0496667 0.01
-0.194755 0.0489856 0.01
-0.190821 0.0483046 0.01
-0.18689 0.0476022 0.01
-0.182961 0.0468942 0.01
-0.179033 0.0461799 0.01
-0.175108 0.0454463 0.01
-0.171183 0.0447127 0.01
-0.167262 0.0439627 0.01
[...]
CELL_DATA 7657
SCALARS rho float
LOOKUP_TABLE default
0.570575
0.554163
0.568906
0.556086
0.516337
0.561152
0.550079
0.514566
0.552096
0.505325
0.505812
0.523163
0.550711
0.518734
0.534356
0.575486
0.540035
0.571689
0.571716
0.500419
0.550425
0.572162
0.553507
0.571709
0.575181
0.569593
0.554271
0.551031
0.505293
0.561249
0.550463
0.575201
0.553278
0.569851
0.570034
0.550386
0.561361
0.553466
0.571695
0.551834
0.568707
0.551981
0.558357
0.560043
0.568577
0.569263
0.550024
0.561014
0.575253
0.570396
0.559891
0.556202
0.505034
0.505117
0.550094
0.56176
0.545654
0.571929
0.564097
0.550523
0.575387
0.568261
0.575799
0.575908
0.50564
0.506015
0.550704
0.562526
0.505369
0.563387
0.569219
0.550803
0.557688
0.505281
0.569475
0.560821
0.572148
0.56068
0.569266
0.550872
0.553215
0.509393
0.500454
0.568774
0.569178
0.565095
0.569079
0.563126
0.56747
0.554117
0.506905
0.504242
0.564426
0.505259
0.551547
0.565697
0.56541
0.553745
0.56837
0.551545
0.57183
0.574092
0.554048
0.556516
0.550023
0.552527
0.551026
0.562976
0.550971
0.561006
0.550443
0.562776
0.559307
0.500453
0.570189
0.561383
0.563151
0.551921
0.575154
0.561095
0.504732
0.506866
0.551064
0.553954
0.501631
0.51914
0.528102
0.558342
0.562212
0.558522
0.555693
0.57281
0.56189
0.557554
0.500509
0.550905
0.575613
0.553283
0.573014
0.573137
0.551016
0.553882
0.552067
0.551658
0.571439
0.552124
0.553057
0.554332
0.568135
0.551021
0.55223
0.505611
0.555935
0.558517
0.548107
0.554151
0.562556
0.572441
0.500478
0.550848
0.572577
0.573285
0.57117
0.5611
0.567385
0.55405
0.571729
0.559189
0.570113
0.575357
0.568599
0.552687
0.572699
0.552151
0.5503
0.550334
0.557139
0.565729
0.501956
0.552161
0.551677
0.550931
0.573589
0.573644
0.550604
0.563741
0.551487
0.557287
0.553101
0.565725
0.50509
0.50524
0.500495
0.566869
0.555125
0.562076
0.50034
0.574322
0.550345
0.56979
0.571576
0.573933
0.566021
0.562692
0.554342
0.504996
0.551104
0.55001
0.56917
0.566682
0.565888
0.568126
0.567294
0.500524
0.568464
0.557344
0.550191
0.564792
0.562811
0.569688
0.554225
0.554337
0.505581
0.562685
0.551215
0.553409
0.551148
0.553001
0.560529
0.505557
0.56681
0.566882
0.550898
0.555843
0.574715
0.500411
0.563024
0.574138
0.574194
0.574956
0.56575
0.552576
0.566054
0.553255
0.568884
0.567421
0.551511
0.567171
0.551729
0.560387
0.550368
0.556928
0.563043
0.569489
0.550224
0.557202
0.554318
0.519103
0.505252
0.562754
0.553789
0.505204
0.574949
0.570065
0.550154
0.569051
0.562303
0.552684
0.571548
0.552323
0.550445
0.553932
0.553854
0.500364
0.568681
0.570241
0.558979
0.562752
0.562621
0.542339
0.553797
0.576602
0.553131
0.551321
0.556811
0.550423
0.551304
0.55555
0.556308
0.570817
0.570409
0.557475
0.553257
0.506053
0.562977
0.554411
0.571887
0.507605
0.561249
0.570512
0.565411
0.505684
0.552418
0.551381
0.554316
0.56476
0.550125
0.557627
0.571301
0.562929
0.538344
0.561977
0.575518
0.55165
0.575129
0.575762
0.50525
0.520918
0.56282
0.576565
0.558849
0.553423
0.504796
0.563408
0.575371
0.506722
0.55147
0.555634
0.571108
0.570688
0.552577
0.506154
0.574936
0.554633
0.512001
0.557761
0.562967
0.553005
0.574965
0.505027
0.559919
0.550268
0.554721
0.574951
0.500282
0.550248
0.505087
0.554517
0.569433
0.568536
0.561342
0.572388
0.500482
0.572514
0.550124
0.574804
0.572839
0.550025
0.574919
0.550003
0.563869
0.572023
0.569506
0.561588
0.5384
0.550315
0.562101
0.551719
0.564451
0.565117
0.561491
0.559765
0.500616
0.501092
0.551012
0.550798
0.57254
0.557573
0.570979
0.574498
0.567539
0.571417
0.553779
0.575821
0.505122
0.505712
0.570252
0.528258
0.566028
0.572537
0.563965
0.563016
0.562885
0.50085
0.572848
0.563428
0.550209
0.552765
0.57368
0.561308
0.500462
0.500458
0.571271
0.506673
0.551678
0.559722
0.575572
0.550377
0.570162
0.530806
0.572694
0.561583
0.575902
0.555902
0.566075
0.501217
0.568427
0.50856
0.555914
0.553798
0.553508
0.510259
0.550062
0.555378
0.554267
0.57032
0.565459
0.502793
0.558169
0.574093
0.560872
0.550121
0.554952
0.500343
0.576496
0.574277
0.505748
0.572983
0.575042
0.571581
0.561016
0.57375
0.550611
0.505261
0.542991
0.5676
0.56577
0.550033
0.533394
0.561117
0.575119
0.574838
0.564143
0.55001
0.551279
0.565722
0.55006
0.575706
0.575102
0.566242
0.570153
0.562467
0.570884
0.56533
0.555637
0.501258
0.552392
0.552827
0.550095
0.550147
0.504942
0.56429
0.559333
0.570839
0.561599
0.573791
0.576416
0.56088
0.551155
0.505091
0.561741
0.505327
0.572398
0.572687
0.567716
0.562656
0.552846
0.55064
0.505307
0.576196
0.574371
0.575396
0.522825
0.566641
0.533267
0.550186
0.556037
0.560473
0.569988
0.570513
0.505429
0.506953
0.560507
0.503454
0.563074
0.563773
0.555032
0.557814
0.561524
0.574405
0.552967
0.576626
0.573605
0.575216
0.571859
0.502482
0.573157
0.572259
0.572272
0.553677
0.575595
0.500678
0.507791
0.555346
0.547278
0.504044
0.504839
0.568887
0.504996
0.575655
0.563499
0.574653
0.509161
0.559278
0.568279
0.573701
0.568581
0.512144
0.550126
0.571136
0.567548
0.573777
0.560377
0.530242
0.576286
0.500974
0.573412
0.557981
0.561543
0.573268
0.574819
0.555861
0.559144
0.571759
0.57249
0.574042
0.551574
0.544273
0.552811
0.569999
0.574502
0.56013
0.501738
0.550314
0.573129
0.573591
0.505241
0.500932
0.550409
0.568925
0.565677
0.560334
0.5724
0.553812
0.564677
0.550079
0.511177
0.500263
0.532656
0.523038
0.551405
0.557058
0.564988
0.562618
0.573112
0.558808
0.576294
0.561235
0.505565
0.550259
0.555304
0.519213
0.550036
0.560324
0.564319
0.562601
0.550276
0.551509
0.567739
0.519764
0.566337
0.564906
0.562816
0.557974
0.510188
0.515413
0.569682
0.566977
0.563122
0.557531
0.568092
0.524326
0.528607
0.573646
0.567905
0.574704
0.500295
0.560148
0.559842
0.515347
0.550617
0.505286
0.505315
0.501813
0.509567
0.576136
0.553985
0.561128
0.561584
0.551898
0.571755
0.562407
0.505257
0.576221
0.558544
0.503248
0.559553
0.575562
0.505307
0.571711
0.50538
0.573708
0.574706
0.55021
0.5552
0.50121
0.575314
0.57634
0.556893
0.516684
0.573796
0.576412
0.569157
0.502204
0.500375
0.547006
0.553615
0.573553
0.575751
0.575629
0.551197
0.576496
0.575028
0.560225
0.575705
0.572718
0.559915
0.513528
0.576538
0.556212
0.501601
0.565017
0.558685
0.575129
0.556458
0.556012
0.555554
0.555806
0.500318
0.576572
0.567713
0.575877
0.556552
0.528064
0.508591
0.57658
0.563572
0.555884
0.552056
0.550681
0.567801
0.513931
0.538133
0.575995
0.573262
0.538861
0.500753
0.551308
0.528733
0.537858
0.550047
0.572974
0.551363
0.55281
0.549999
0.559072
0.576524
0.551662
0.576457
0.502855
0.502283
0.556581
0.51622
0.505301
0.572288
0.55022
0.575018
0.505195
0.566382
0.559085
0.558899
0.556307
0.503094
0.503113
0.505346
0.576118
0.573856
0.505288
0.550485
0.564345
0.575352
0.505264
0.558728
0.557679
0.542198
0.560613
0.552826
0.55887
0.502509
0.575621
0.57598
0.555287
0.505362
0.563983
0.550136
0.503393
0.552884
0.552403
0.551117
0.572371
0.505218
0.550224
0.576178
0.572973
0.505741
0.522434
0.505375
0.55175
0.505379
0.504936
0.554756
0.505435
0.50105
0.575358
0.575864
0.507496
0.563172
0.552445
0.575889
0.528738
0.572404
0.572258
0.574264
0.552186
0.505381
0.536724
0.574039
0.512461
0.505309
0.566043
0.558904
0.57589
0.551862
0.503488
0.550019
0.500464
0.505303
0.557849
0.564708
0.573573
0.560028
0.550008
0.549373
0.576221
0.56829
0.574772
0.504671
0.563616
0.556901
0.558352
0.506047
0.550858
0.550295
0.540904
0.557581
0.564312
0.564292
0.559778
0.505536
0.513885
0.566752
0.551117
0.550351
0.559435
0.550044
0.508077
0.500498
0.559252
0.503871
0.545678
0.500506
0.553568
0.500666
0.501371
0.550009
0.565697
0.545017
0.551741
0.560777
0.550185
0.502184
0.55555
0.551866
0.569438
0.501693
0.550232
0.573804
0.500484
0.513498
0.575487
0.50129
0.575445
0.575222
0.505345
0.505365
0.517577
0.569526
0.563271
0.565738
0.55854
0.510942
0.505284
0.550847
0.552285
0.551612
0.57648
0.560922
0.505416
0.560971
0.554869
0.518226
0.501377
0.558833
0.51497
0.558718
0.576309
0.501893
0.551026
0.527518
0.550018
0.552275
0.505328
0.550397
0.563134
0.522626
0.551736
0.551132
0.505613
0.514257
0.507972
0.506966
0.541306
0.562665
0.552835
0.551949
0.551693
0.552186
0.511486
0.519143
0.506739
0.550878
0.576405
0.559606
0.518769
0.509674
0.52316
0.510154
0.575767
0.533116
0.566353
0.539373
0.528351
0.575528
0.502088
0.575688
0.552772
0.576528
0.553055
0.566403
0.550111
0.559958
0.552109
0.550944
0.562117
0.562154
0.505366
0.53305
0.534365
0.537669
0.552992
0.565414
0.500775
0.547745
0.505369
0.560559
0.562889
0.55152
0.540691
0.562213
0.562164
0.550672
0.575268
0.546933
0.556049
0.553198
0.563957
0.563935
0.503197
0.559256
0.559609
0.550328
0.551616
0.505374
0.500313
0.506059
0.572551
0.551417
0.55199
0.501095
0.546802
0.568203
0.552909
0.550869
0.550858
0.55101
0.559363
0.55076
0.555831
0.528131
0.55041
0.575493
0.568042
0.54805
0.510043
0.562629
0.560137
0.501599
0.552105
0.566818
0.560154
0.576108
0.570297
0.571125
0.576127
0.500642
0.567961
0.553801
0.576402
0.508158
0.560473
0.550335
0.501015
0.551014
0.55666
0.550864
0.576216
0.576324
0.501204
0.57426
0.574159
0.553338
0.551519
0.549831
0.550199
0.500717
0.565345
0.505338
0.505372
0.558076
0.557354
0.500936
0.543963
0.500344
0.559105
0.56277
0.56675
0.575981
0.501002
0.551607
0.500873
0.518626
0.568815
0.576001
0.550472
0.505297
0.533147
0.543656
0.550638
0.550652
0.552695
0.54856
0.569971
0.5006
0.567757
0.569906
0.55039
0.552786
0.571862
0.567397
0.565485
0.550139
0.576543
0.550014
0.55069
0.502867
0.505269
0.5766
0.505404
0.569772
0.569788
0.567523
0.50536
0.571736
0.500327
0.560028
0.571749
0.550489
0.567788
0.570233
0.554434
0.505329
0.553735
0.560305
0.513167
0.505336
0.50405
0.562014
0.515707
0.570204
0.507203
0.550011
0.553797
0.572106
0.50538
0.551366
0.523426
0.562292
0.570836
0.512438
0.559427
0.574293
0.500959
0.573717
0.500844
0.553839
0.518582
0.513716
0.555863
0.575958
0.505253
0.576556
0.570269
0.560647
0.575844
0.550147
0.574279
0.56665
0.553634
0.506045
0.567587
0.568249
0.553418
0.560811
0.500964
0.54999
0.551311
0.549977
0.500711
0.566667
0.559619
0.560083
0.551579
0.571682
0.543526
0.575056
0.550345
0.551698
0.511048
0.574541
0.505355
0.570875
0.518043
0.553193
0.556978
0.562292
0.553491
0.503754
0.576385
0.565932
0.500461
0.552227
0.505416
0.505475
0.569418
0.566811
0.569703
0.500677
0.575413
0.501359
0.505341
0.573274
0.553786
0.568039
0.568227
0.573038
0.544749
0.575054
0.55357
0.516192
0.573977
0.514756
0.550461
0.575103
0.501334
0.563719
0.551512
0.550463
0.563109
0.550216
0.560129
0.551213
0.550942
0.550953
0.560304
0.559959
0.576495
0.550613
0.505322
0.576591
0.505459
0.501333
0.550085
0.543273
0.503361
0.537012
0.551112
0.501232
0.506783
0.520206
0.536705
0.567615
0.500922
0.550336
0.55019
0.56247
0.562502
0.501968
0.505942
0.55035
0.532503
0.505384
0.501086
0.500671
0.573419
0.571885
0.505381
0.566111
0.556643
0.55003
0.502914
0.550474
0.546607
0.549993
0.563642
0.501614
0.576559
0.51743
0.509029
0.574285
0.574275
0.550236
0.505401
0.55364
0.505319
0.54949
0.501298
0.551477
0.500668
0.57411
0.572113
0.550066
0.550092
0.551549
0.560981
0.549744
0.50635
0.505109
0.553184
0.505384
0.565101
0.551574
0.504336
0.550053
0.551519
0.576477
0.556004
0.550038
0.562462
0.550413
0.550747
0.569957
0.576421
0.570511
0.569391
0.576556
0.574128
0.574127
0.55395
0.576419
0.500965
0.50142
0.550827
0.573837
0.533598
0.551991
0.55015
0.513315
0.576222
0.519411
0.50154
0.504118
0.500907
0.575991
0.505436
0.575971
0.565914
0.571529
0.573493
0.575126
0.576545
0.550269
0.520572
0.570925
0.571017
0.573795
0.505825
0.571361
0.505413
0.509746
0.57315
0.538208
0.57435
0.574541
0.558013
0.572743
0.558019
0.571979
0.571212
0.550065
0.571588
0.56796
0.567967
0.501144
0.502047
0.562627
0.50084
0.504435
0.505382
0.564739
0.564773
0.55052
0.501117
0.576524
0.502898
0.561455
0.500703
0.50479
0.57638
0.574372
0.501985
0.567887
0.568217
0.562123
0.504371
0.538373
0.501514
0.559229
0.559042
0.559071
0.573843
0.534095
0.507376
0.502199
0.500574
0.574135
0.555006
0.574131
0.573569
0.50143
0.550309
0.518986
0.562444
0.502722
0.565721
0.565736
0.571196
0.558713
0.510592
0.550545
0.505315
0.50079
0.551712
0.568872
0.50541
0.56359
0.571873
0.550076
0.550585
0.550786
0.56875
0.572677
0.5074
0.574685
0.573292
0.571039
0.501026
0.574672
0.5704
0.570941
0.572332
0.502286
0.573916
0.510144
0.552761
0.571232
0.5412
0.560178
0.574606
0.524338
0.572602
0.529735
0.502431
0.522447
0.553332
0.571032
0.503667
0.50391
0.50759
0.501967
0.503533
0.516831
0.550222
0.565067
0.565097
0.505902
0.531885
0.503915
0.556297
0.550018
0.526613
0.575986
0.501578
0.576584
0.557003
0.560142
0.569149
0.550931
0.574887
0.508528
0.550096
0.511812
0.55836
0.570369
0.550525
0.550528
0.558363
0.558357
0.575746
0.539941
0.505184
0.50535
0.558007
0.505079
0.501154
0.561468
0.554934
0.576536
0.550241
0.529301
0.538004
0.570569
0.551479
0.553653
0.561142
0.502334
0.502587
0.503651
0.503031
0.505407
0.573563
0.570854
0.566648
0.505586
0.575193
0.504771
0.525147
0.56575
0.546775
0.565772
0.50548
0.515277
0.533216
0.502462
0.539488
0.56733
0.55094
0.572351
0.573283
0.518889
0.550259
0.572133
0.505436
0.561109
0.55841
0.573022
0.556959
0.55743
0.505444
0.552865
0.501201
0.561874
0.551397
0.506968
0.574839
0.553051
0.505377
0.564106
0.548492
0.550024
0.505228
0.574977
0.573946
0.564114
0.564084
0.573765
0.549997
0.505509
0.528128
0.505308
0.552737
0.513041
0.552472
0.553038
0.562453
0.574609
0.566565
0.552752
0.505425
0.552489
0.505867
0.505836
0.505267
0.552346
0.57659
0.505267
0.538427
0.505322
0.519382
0.519222
0.501114
0.569103
0.553923
0.550036
0.505361
0.560797
0.566257
0.550005
0.554237
0.554107
0.555487
0.567998
0.55236
0.55561
0.574958
0.505493
0.504306
0.566111
0.570582
0.557317
0.505856
0.505832
0.563623
0.523452
0.56012
0.514658
0.554596
0.575862
0.57584
0.574731
0.505398
0.509903
0.505352
0.505519
0.507386
0.552484
0.500763
0.50094
0.5511
0.550228
0.550274
0.561797
0.56332
0.563817
0.568031
0.559253
0.568453
0.558134
0.576311
0.557398
0.505416
0.57385
0.505435
0.551979
0.566418
0.57453
0.557828
0.557832
0.566565
0.575477
0.527837
0.542789
0.560854
0.572024
0.574266
0.574263
0.542903
0.548923
0.506107
0.505366
0.559049
0.560782
0.575571
0.553645
0.559246
0.559212
0.505374
0.521053
0.57244
0.503702
0.55443
0.505369
0.505278
0.561283
0.505361
0.559765
0.559773
0.548756
0.576318
0.516197
0.575643
0.564567
0.564599
0.562606
0.565883
0.565895
0.550296
0.576677
0.505523
0.561463
0.575739
0.557166
0.571343
0.576098
0.567796
0.5678
0.570775
0.570865
0.574695
0.535001
0.569024
0.573685
0.57357
0.505402
0.576328
0.572021
0.574358
0.569078
0.566382
0.566368
0.574672
0.573389
0.574816
0.569476
0.569537
0.5499
0.576205
0.573144
0.500892
0.574811
0.551497
0.536558
0.562551
0.505508
0.564024
0.556743
0.57591
0.505836
0.505804
0.505415
0.501743
0.505661
0.543025
0.571353
0.505358
0.55383
0.5749
0.522649
0.505215
0.564527
0.512141
0.506743
0.553309
0.501374
0.501175
0.505418
0.551023
0.550926
0.575304
0.502794
0.570217
0.574991
0.576682
0.573381
0.568177
0.565465
0.501437
0.505291
0.505378
0.502558
0.574393
0.55012
0.550065
0.520945
0.569486
0.56147
0.566753
0.552221
0.505566
0.505383
0.504903
0.505358
0.505121
0.574881
0.556108
0.551292
0.57594
0.505276
0.565441
0.572469
0.505399
0.573444
0.505028
0.550414
0.570988
0.55091
0.573294
0.57617
0.505427
0.551108
0.551085
0.5085
0.567165
0.570151
0.505333
0.574966
0.566357
0.551973
0.576524
0.533189
0.503512
0.505098
0.505277
0.505866
0.562847
0.566397
0.545242
0.5052
0.573878
0.505157
0.564213
0.572147
0.538578
0.523102
0.575005
0.565227
0.56525
0.507701
0.532517
0.505384
0.505562
0.574773
0.505301
0.505376
0.56894
0.518345
0.575212
0.505348
0.504998
0.513188
0.576063
0.55971
0.572734
0.563017
0.554549
0.563914
0.56394
0.505332
0.505479
0.550105
0.50527
0.508721
0.501593
0.575945
0.576504
0.5224
0.506662
0.501678
0.505428
0.505394
0.574893
0.567679
0.5171
0.504993
0.566618
0.505392
0.562133
0.57584
0.572173
0.572478
0.505326
0.505391
0.569979
0.57615
0.569027
0.576632
0.505451
0.573921
0.505191
0.553756
0.560625
0.575573
0.505584
0.545053
0.562112
0.574107
0.527936
0.505197
0.505311
0.558535
0.558523
0.501268
0.572462
0.505305
0.555432
0.57584
0.507825
0.568348
0.565339
0.557139
0.505278
0.575862
0.554761
0.506543
0.575321
0.566608
0.576645
0.504993
0.505268
0.50527
0.575085
0.575054
0.575548
0.527625
0.505235
0.501884
0.505404
0.558042
0.561964
0.521928
0.570872
0.506491
0.51163
0.556793
0.572646
0.506277
0.576213
0.505025
0.505198
0.570272
0.573996
0.575017
0.561427
0.501057
0.573994
0.501043
0.505448
0.575779
0.516248
0.505412
0.50765
0.538077
0.505332
0.52234
0.505459
0.550805
0.505925
0.550486
0.505348
0.54854
0.56705
0.505481
0.55771
0.559863
0.559928
0.559947
0.570861
0.540208
0.505283
0.552905
0.552627
0.571383
0.571093
0.510707
0.505382
0.509305
0.527024
0.571805
0.50535
0.575939
0.56163
0.507209
0.506728
0.556252
0.505211
0.550547
0.550036
0.505158
0.506929
0.507175
0.561784
0.548331
0.505191
0.520915
0.567055
0.567383
0.505484
0.552426
0.505319
0.558177
0.566542
0.566529
0.576629
0.561637
0.532536
0.527248
0.564814
0.568989
0.527358
0.569462
0.505356
0.575339
0.553494
0.532235
0.51477
0.504964
0.576688
0.54344
0.505216
0.573561
0.569628
0.569687
0.567123
0.555386
0.50539
0.526362
0.557369
0.573428
0.532729
0.557121
0.505521
0.574998
0.553662
0.576537
0.569704
0.5081
0.573849
0.557593
0.505332
0.576075
0.531912
0.575697
0.574065
0.538005
0.57479
0.567877
0.514619
0.515966
0.548252
0.523951
0.532651
0.573851
0.559777
0.505221
0.563145
0.572732
0.505312
0.505579
0.574639
0.507121
0.531685
0.506024
0.553003
0.505021
0.525785
0.557592
0.556005
0.506768
0.575161
0.505604
0.514484
0.546334
0.509713
0.512265
0.515859
0.56477
0.505289
0.546407
0.505066
0.53805
0.562932
0.520454
0.574268
0.575687
0.575997
0.576371
0.505351
0.569709
0.507961
0.576514
0.543175
0.553111
0.553152
0.573829
0.533196
0.549293
0.575444
0.561385
0.574825
0.533126
0.572935
0.575955
0.505213
0.572451
0.505254
0.518204
0.505402
0.569759
0.567409
0.551015
0.551198
0.501778
0.574815
0.570251
0.555138
0.575704
0.575178
0.505289
0.562623
0.505389
0.574465
0.571721
0.505951
0.532907
0.533412
0.516789
0.54386
0.567446
0.558403
0.570869
0.505408
0.568564
0.550312
0.576331
0.576576
0.575427
0.576689
0.570858
0.543987
0.568547
0.562032
0.572441
0.574105
0.570864
0.561382
0.5586
0.571936
0.571098
0.505192
0.516065
0.566344
0.571125
0.571323
0.568631
0.576642
0.505325
0.55667
0.502852
0.505425
0.553789
0.50091
0.50538
0.574473
0.505347
0.569827
0.553088
0.53848
0.505361
0.567326
0.572252
0.536717
0.573726
0.538577
0.569083
0.505361
0.57455
0.550082
0.514499
0.575954
0.576587
0.568073
0.571354
0.573468
0.505459
0.568924
0.563034
0.568226
0.50547
0.571384
0.56679
0.574629
0.572903
0.550431
0.567418
0.573332
0.506717
0.573139
0.572682
0.574965
0.574643
0.576551
0.568198
0.525848
0.560429
0.565709
0.572397
0.538091
0.575022
0.511804
0.550416
0.561151
0.505417
0.551069
0.565563
0.570662
0.505465
0.575743
0.505199
0.571805
0.505337
0.505218
0.573313
0.559608
0.50958
0.576558
0.564841
0.576388
0.558762
0.575349
0.574438
0.574782
0.505329
0.560762
0.574254
0.539346
0.576691
0.573109
0.573903
0.505214
0.508438
0.556675
0.576667
0.574001
0.576592
0.573875
0.552577
0.554601
0.576573
0.569212
0.567585
0.573995
0.55902
0.550935
0.550425
0.574251
0.561769
0.57311
0.553043
0.552632
0.571397
0.574774
0.559317
0.559354
0.574419
0.575149
0.505378
0.57487
0.574951
0.562154
0.506744
0.550043
0.575074
0.575862
0.575096
0.561475
0.576701
0.519928
0.567023
0.561296
0.567648
0.56004
0.576515
0.563291
0.561632
0.562587
0.574762
0.540419
0.574474
0.55382
0.51285
0.562201
0.576478
0.55335
0.575805
0.565233
0.574892
0.509136
0.565704
0.572973
0.56864
0.505273
0.576355
0.573442
0.576542
0.557189
0.574896
0.574859
0.548211
0.562144
0.510369
0.562912
0.576446
0.553027
0.576448
0.575405
0.574313
0.559276
0.575592
0.574872
0.505356
0.572341
0.574908
0.575546
0.57462
0.50528
0.559995
0.574835
0.528672
0.574636
0.574368
0.576224
0.575001
0.569435
0.575029
0.551211
0.550926
0.563888
0.564255
0.575027
0.573694
0.576608
0.574857
0.555207
0.555198
0.5643
0.505621
0.550263
0.544214
0.565673
0.574818
0.539026
0.530541
0.564664
0.576529
0.574151
0.572722
0.57457
0.574494
0.547271
0.575607
0.574578
0.575647