# vtk DataFile Version 1.0
unstructured grid
ascii
DATASET UNSTRUCTURED_GRID
points 8094 float
-0.25 0.0574735 0
0.5 0.0546937 0
0.5 -0.0546937 0
-0.25 -0.0574735 0
-0.25 0.0574735 0.01
0.5 0.0546937 0.01
0.5 -0.0546937 0.01
-0.25 -0.0574735 0.01
-0.246045 0.0569295 0
-0.242089 0.0563854 0
-0.238136 0.0558289 0
-0.234184 0.0552582 0
-0.230232 0.0546875 0
-0.226284 0.0540912 0
-0.222337 0.0534933 0
-0.218391 0.0528841 0
-0.214448 0.0522585 0
-0.210504 0.0516328 0
-0.206565 0.0509829 0
-0.202626 0.0503294 0
-0.198689 0.0496667 0
-0.194755 0.0489856 0
-0.190821 0.0483046 0
-0.18689 0.0476022 0
-0.182961 0.0468942 0
-0.179033 0.0461799 0
-0.175108 0.0454463 0
-0.171183 0.0447127 0
-0.167262 0.0439627 0
-0.163342 0.0432056 0
-0.159422 0.0424455 0
-0.155506 0.041668 0
-0.15159 0.0408904 0
-0.147675 0.0401031 0
-0.143762 0.0393092 0
-0.13985 0.0385149 0
-0.135939 0.0377103 0
-0.132028 0.0369056 0
-0.128117 0.0361005 0
-0.124207 0.0352949 0
-0.120296 0.0344893 0
-0.116386 0.0336836 0
-0.112475 0.032878 0
-0.108563 0.0320794 0
-0.104649 0.0312931 0
-0.100735 0.0305068 0
-0.0968152 0.029745 0
-0.0928949 0.0289889 0
-0.0889722 0.0282446 0
-0.0850433 0.0275341 0
-0.0811144 0.0268235 0
-0.0771778 0.0261578 0
-0.0732381 0.0255098 0
-0.0692962 0.0248759 0
-0.0653442 0.0243073 0
-0.0613923 0.0237386 0
-0.0574324 0.0232306 0
-0.0534681 0.0227556 0
-0.0495024 0.0222934 0
-0.0455272 0.0219207 0
-0.041552 0.0215481 0
-0.0375717 0.0212385 0
-0.0335881 0.0209694 0
-0.029604 0.0207098 0
-0.0256151 0.0205369 0
-0.0216262 0.0203639 0
-0.0176357 0.0202396 0
-0.0136441 0.0201487 0
-0.00965243 0.0200635 0
-0.00565987 0.0200372 0
-0.00166732 0.020011 0
0.00232526 0.0200121 0
0.00631785 0.0200329 0
0.0103104 0.0200563 0
0.0143027 0.0201109 0
0.018295 0.0201654 0
0.022287 0.0202345 0
0.0262788 0.0203144 0
0.0302706 0.0203957 0
0.034262 0.0204956 0
0.0382534 0.0205955 0
0.0422446 0.0207045 0
0.0462355 0.0208207 0
0.0502265 0.0209377 0
0.054217 0.0210676 0
0.0582075 0.0211975 0
0.0621978 0.0213339 0
0.0661879 0.0214757 0
0.0701781 0.021618 0
0.0741678 0.0217703 0
0.0781575 0.0219227 0
0.0821471 0.0220801 0
0.0861364 0.022242 0
0.0901258 0.0224041 0
0.0941148 0.0225747 0
0.0981038 0.0227453 0
0.102093 0.0229202 0
0.106081 0.023099 0
0.11007 0.0232779 0
0.114058 0.0234644 0
0.118046 0.0236509 0
0.122035 0.0238411 0
0.126022 0.024035 0
0.13001 0.0242288 0
0.133998 0.0244298 0
0.137986 0.0246308 0
0.141973 0.0248352 0
0.14596 0.025043 0
0.149947 0.0252509 0
0.153934 0.0254654 0
0.157921 0.02568 0
0.161908 0.0258978 0
0.165894 0.026119 0
0.169881 0.0263402 0
0.173867 0.0265678 0
0.177853 0.0267956 0
0.181839 0.0270264 0
0.185825 0.0272607 0
0.189811 0.0274951 0
0.193796 0.0277356 0
0.197781 0.0279764 0
0.201767 0.02822 0
0.205752 0.0284673 0
0.209737 0.0287146 0
0.213721 0.0289679 0
0.217706 0.0292217 0
0.22169 0.0294782 0
0.225674 0.0297385 0
0.229658 0.0299988 0
0.233642 0.0302651 0
0.237626 0.0305319 0
0.241609 0.0308014 0
0.245593 0.0310748 0
0.249576 0.0313482 0
0.253559 0.0316276 0
0.257542 0.0319077 0
0.261524 0.0321904 0
0.265507 0.0324772 0
0.269489 0.032764 0
0.273471 0.0330568 0
0.277453 0.0333504 0
0.281434 0.0336466 0
0.285416 0.0339471 0
0.289397 0.0342476 0
0.293378 0.034554 0
0.297359 0.0348615 0
0.301339 0.0351714 0
0.305319 0.0354859 0
0.3093 0.0358005 0
0.313279 0.036121 0
0.317259 0.0364427 0
0.321239 0.0367667 0
0.325218 0.0370957 0
0.329197 0.0374248 0
0.333175 0.0377597 0
0.337154 0.0380961 0
0.341132 0.0384347 0
0.34511 0.0387786 0
0.349088 0.0391226 0
0.353065 0.0394724 0
0.357042 0.0398239 0
0.361019 0.0401775 0
0.364995 0.0405368 0
0.368972 0.0408961 0
0.372948 0.0412613 0
0.376924 0.0416285 0
0.380899 0.0419975 0
0.384874 0.0423727 0
0.388849 0.0427479 0
0.392823 0.0431289 0
0.396798 0.0435123 0
0.400772 0.0438973 0
0.404745 0.044289 0
0.408718 0.0446807 0
0.412691 0.0450781 0
0.416664 0.0454782 0
0.420636 0.0458797 0
0.424608 0.0462883 0
0.42858 0.046697 0
0.432551 0.0471114 0
0.436521 0.0475289 0
0.440492 0.0479474 0
0.444462 0.0483738 0
0.448432 0.0488001 0
0.452401 0.0492319 0
0.45637 0.0496673 0
0.460338 0.0501035 0
0.464306 0.0505482 0
0.468274 0.0509928 0
0.472241 0.0514427 0
0.476208 0.0518968 0
0.480175 0.0523512 0
0.48414 0.0528148 0
0.488106 0.0532784 0
0.492071 0.0537471 0
0.496036 0.0542204 0
0.5 0.050787 0
0.5 0.0468803 0
0.5 0.0429736 0
0.5 0.0390669 0
0.5 0.0351602 0
0.5 0.0312535 0
0.5 0.0273468 0
0.5 0.0234402 0
0.5 0.0195335 0
0.5 0.0156268 0
0.5 0.0117201 0
0.5 0.00781339 0
0.5 0.00390669 0
0.5 1.43781e-13 0
0.5 -0.00390669 0
0.5 -0.00781339 0
0.5 -0.0117201 0
0.5 -0.0156268 0
0.5 -0.0195335 0
0.5 -0.0234402 0
0.5 -0.0273468 0
0.5 -0.0312535 0
0.5 -0.0351602 0
0.5 -0.0390669 0
0.5 -0.0429736 0
0.5 -0.0468803 0
0.5 -0.050787 0
0.496036 -0.0542204 0
0.492071 -0.0537471 0
0.488106 -0.0532784 0
0.48414 -0.0528148 0
0.480175 -0.0523512 0
0.476208 -0.0518968 0
0.472241 -0.0514427 0
0.468274 -0.0509928 0
0.464306 -0.0505482 0
0.460338 -0.0501035 0
0.45637 -0.0496673 0
0.452401 -0.0492319 0
0.448432 -0.0488001 0
0.444462 -0.0483738 0
0.440492 -0.0479474 0
0.436521 -0.0475289 0
0.432551 -0.0471114 0
0.42858 -0.046697 0
0.424608 -0.0462883 0
0.420636 -0.0458797 0
0.416664 -0.0454782 0
0.412691 -0.0450781 0
0.408718 -0.0446807 0
0.404745 -0.044289 0
0.400772 -0.0438973 0
0.396798 -0.0435123 0
0.392823 -0.0431289 0
0.388849 -0.0427479 0
0.384874 -0.0423727 0
0.380899 -0.0419975 0
0.376924 -0.0416285 0
0.372948 -0.0412613 0
0.368972 -0.0408961 0
0.364995 -0.0405368 0
0.361019 -0.0401775 0
0.357042 -0.0398239 0
0.353065 -0.0394724 0
0.349088 -0.0391226 0
0.34511 -0.0387786 0
0.341132 -0.0384347 0
0.337154 -0.0380961 0
0.333175 -0.0377597 0
0.329197 -0.0374248 0
0.325218 -0.0370957 0
0.321239 -0.0367667 0
0.317259 -0.0364427 0
0.313279 -0.036121 0
0.3093 -0.0358005 0
0.305319 -0.0354859 0
0.301339 -0.0351714 0
0.297359 -0.0348615 0
0.293378 -0.034554 0
0.289397 -0.0342476 0
0.285416 -0.0339471 0
0.281434 -0.0336466 0
0.277453 -0.0333504 0
0.273471 -0.0330568 0
0.269489 -0.032764 0
0.265507 -0.0324772 0
0.261524 -0.0321904 0
0.257542 -0.0319077 0
0.253559 -0.0316276 0
0.249576 -0.0313482 0
0.245593 -0.0310748 0
0.241609 -0.0308014 0
0.237626 -0.0305319 0
0.233642 -0.0302651 0
0.229658 -0.0299988 0
0.225674 -0.0297385 0
0.22169 -0.0294782 0
0.217706 -0.0292217 0
0.213721 -0.0289679 0
0.209737 -0.0287146 0
0.205752 -0.0284673 0
0.201767 -0.02822 0
0.197781 -0.0279764 0
0.193796 -0.0277356 0
0.189811 -0.0274951 0
0.185825 -0.0272607 0
0.181839 -0.0270264 0
0.177853 -0.0267956 0
0.173867 -0.0265678 0
0.169881 -0.0263402 0
0.165894 -0.026119 0
0.161908 -0.0258978 0
0.157921 -0.02568 0
0.153934 -0.0254654 0
0.149947 -0.0252509 0
0.14596 -0.025043 0
0.141973 -0.0248352 0
0.137986 -0.0246308 0
0.133998 -0.0244298 0
0.13001 -0.0242288 0
0.126022 -0.024035 0
0.122035 -0.0238411 0
0.118046 -0.0236509 0
0.114058 -0.0234644 0
0.11007 -0.0232779 0
0.106081 -0.023099 0
0.102093 -0.0229202 0
0.0981038 -0.0227453 0
0.0941148 -0.0225747 0
0.0901258 -0.0224041 0
0.0861364 -0.022242 0
0.0821471 -0.0220801 0
0.0781575 -0.0219227 0
0.0741678 -0.0217703 0
0.0701781 -0.021618 0
0.0661879 -0.0214757 0
0.0621978 -0.0213339 0
0.0582075 -0.0211975 0
0.054217 -0.0210676 0
0.0502265 -0.0209377 0
0.0462355 -0.0208207 0
0.0422446 -0.0207045 0
0.0382534 -0.0205955 0
0.034262 -0.0204956 0
0.0302706 -0.0203957 0
0.0262788 -0.0203144 0
0.022287 -0.0202345 0
0.018295 -0.0201654 0
0.0143027 -0.0201109 0
0.0103104 -0.0200563 0
0.00631785 -0.0200329 0
0.00232526 -0.0200121 0
-0.00166732 -0.020011 0
-0.00565987 -0.0200372 0
-0.00965243 -0.0200635 0
-0.0136441 -0.0201487 0
-0.0176357 -0.0202396 0
-0.0216262 -0.0203639 0
-0.0256151 -0.0205369 0
-0.029604 -0.0207098 0
-0.0335881 -0.0209694 0
-0.0375717 -0.0212385 0
-0.041552 -0.0215481 0
-0.0455272 -0.0219207 0
-0.0495024 -0.0222934 0
-0.0534681 -0.0227556 0
-0.0574324 -0.0232306 0
-0.0613923 -0.0237386 0
-0.0653442 -0.0243073 0
-0.0692962 -0.0248759 0
-0.0732381 -0.0255098 0
-0.0771778 -0.0261578 0
-0.0811144 -0.0268235 0
-0.0850433 -0.0275341 0
-0.0889722 -0.0282446 0
-0.0928949 -0.0289889 0
-0.0968152 -0.029745 0
-0.100735 -0.0305068 0
-0.104649 -0.0312931 0
-0.108563 -0.0320794 0
-0.112475 -0.032878 0
-0.116386 -0.0336836 0
-0.120296 -0.0344893 0
-0.124207 -0.0352949 0
-0.128117 -0.0361005 0
-0.132028 -0.0369056 0
-0.135939 -0.0377103 0
-0.13985 -0.0385149 0
-0.143762 -0.0393092 0
-0.147675 -0.0401031 0
-0.15159 -0.0408904 0
-0.155506 -0.041668 0
-0.159422 -0.0424455 0
-0.163342 -0.0432056 0
-0.167262 -0.0439627 0
-0.171183 -0.0447127 0
-0.175108 -0.0454463 0
-0.179033 -0.0461799 0
-0.182961 -0.0468942 0
-0.18689 -0.0476022 0
-0.190821 -0.0483046 0
-0.194755 -0.0489856 0
-0.198689 -0.0496667 0
-0.202626 -0.0503294 0
-0.206565 -0.0509829 0
-0.210504 -0.0516328 0
-0.214448 -0.0522585 0
-0.218391 -0.0528841 0
-0.222337 -0.0534933 0
-0.226284 -0.0540912 0
-0.230232 -0.0546875 0
-0.234184 -0.0552582 0
-0.238136 -0.0558289 0
-0.242089 -0.0563854 0
-0.246045 -0.0569295 0
-0.25 -0.0535098 0
-0.25 -0.0495461 0
-0.25 -0.0455824 0
-0.25 -0.0416187 0
-0.25 -0.0376551 0
-0.25 -0.0336914 0
-0.25 -0.0297277 0
-0.25 -0.025764 0
-0.25 -0.0218003 0
-0.25 -0.0178366 0
-0.25 -0.0138729 0
-0.25 -0.00990922 0
-0.25 -0.00594553 0
-0.25 -0.00198184 0
-0.25 0.00198184 0
-0.25 0.00594553 0
-0.25 0.00990922 0
-0.25 0.0138729 0
-0.25 0.0178366 0
-0.25 0.0218003 0
-0.25 0.025764 0
-0.25 0.0297277 0
-0.25 0.0336914 0
-0.25 0.0376551 0
-0.25 0.0416187 0
-0.25 0.0455824 0
-0.25 0.0495461 0
-0.25 0.0535098 0
-0.246045 0.0569295 0.01
-0.242089 0.0563854 0.01
-0.238136 0.0558289 0.01
-0.234184 0.0552582 0.01
-0.230232 0.0546875 0.01
-0.226284 0.0540912 0.01
-0.222337 0.0534933 0.01
-0.218391 0.0528841 0.01
-0.214448 0.0522585 0.01
-0.210504 0.0516328 0.01
-0.206565 0.0509829 0.01
-0.202626 0.0503294 0.01
-0.198689 0.0496667 0.01
-0.194755 0.0489856 0.01
-0.190821 0.0483046 0.01
-0.18689 0.0476022 0.01
-0.182961 0.0468942 0.01
-0.179033 0.0461799 0.01
-0.175108 0.0454463 0.01
-0.171183 0.0447127 0.01
-0.167262 0.0439627 0.01
[...]
CELL_DATA 7657
SCALARS rho float
LOOKUP_TABLE default
0.478224
0.369839
0.39373
0.173857
0.495282
0.360239
0.258729
0.423839
0.336302
0.499154
0.499223
0.422753
0.30492
0.42335
0.49457
0.489402
0.494508
0.402604
0.402478
0.429193
0.493813
0.403784
0.360535
0.402414
0.412234
0.419269
0.186922
0.312162
0.495981
0.362036
0.239692
0.412246
0.357222
0.476216
0.476663
0.24156
0.362207
0.359589
0.481456
0.212824
0.393021
0.335159
0.159878
0.353637
0.392684
0.394758
0.265235
0.359682
0.412328
0.477845
0.351982
0.172811
0.495897
0.496821
0.25686
0.364128
0.494091
0.492235
0.452856
0.238015
0.412702
0.391675
0.413695
0.413999
0.499914
0.49993
0.304568
0.368886
0.498426
0.448627
0.394758
0.306652
0.162928
0.495962
0.474915
0.358359
0.403684
0.357559
0.474389
0.310351
0.356611
0.425655
0.429173
0.393367
0.394594
0.457837
0.394254
0.447631
0.419623
0.188367
0.499768
0.499811
0.45456
0.497734
0.216673
0.460489
0.459207
0.364339
0.391938
0.216517
0.40307
0.409446
0.367846
0.493403
0.267039
0.345975
0.225287
0.37055
0.312008
0.493381
0.239938
0.370142
0.34808
0.429229
0.397873
0.43654
0.371598
0.211096
0.488757
0.360756
0.500635
0.500617
0.22417
0.365015
0.428668
0.423125
0.422404
0.16004
0.366566
0.158964
0.176324
0.405881
0.36473
0.164089
0.428858
0.227693
0.489733
0.357386
0.406335
0.406702
0.225627
0.190578
0.209598
0.21467
0.401782
0.493736
0.353993
0.370936
0.391222
0.225319
0.206204
0.498551
0.390349
0.159137
0.493817
0.368959
0.368545
0.404581
0.429048
0.229636
0.405007
0.492014
0.418958
0.435148
0.388427
0.367617
0.481499
0.349186
0.397561
0.489185
0.392752
0.347992
0.405571
0.207866
0.245888
0.243508
0.167191
0.460474
0.428319
0.207952
0.214589
0.31076
0.40802
0.408156
0.30185
0.451046
0.324868
0.166307
0.421128
0.460425
0.495902
0.49794
0.42906
0.465436
0.420913
0.365862
0.429389
0.491683
0.243835
0.396434
0.402205
0.408984
0.461961
0.4452
0.186628
0.496923
0.315843
0.268907
0.473989
0.464928
0.382877
0.391078
0.388119
0.428855
0.392329
0.165099
0.250511
0.45644
0.371166
0.396199
0.370036
0.371846
0.498861
0.369699
0.318159
0.35846
0.318118
0.197802
0.357958
0.498901
0.386344
0.386536
0.308944
0.49371
0.487862
0.429263
0.447177
0.409552
0.40968
0.491419
0.382394
0.203474
0.462128
0.357168
0.473043
0.467776
0.324973
0.466866
0.327514
0.356598
0.241998
0.168505
0.371455
0.475148
0.248753
0.166129
0.372349
0.495236
0.4967
0.369321
0.363978
0.496593
0.488342
0.397501
0.252645
0.394278
0.442927
0.201989
0.402152
0.206499
0.29461
0.189667
0.190907
0.429939
0.472403
0.397958
0.274504
0.369682
0.369399
0.421951
0.364932
0.416227
0.197588
0.219913
0.169922
0.240304
0.219931
0.177457
0.395529
0.399909
0.398465
0.165104
0.196101
0.496519
0.37185
0.18632
0.481799
0.426053
0.436369
0.398834
0.459268
0.49735
0.204833
0.322576
0.186895
0.456206
0.254149
0.164213
0.401266
0.370268
0.422276
0.440946
0.491184
0.327503
0.412029
0.491003
0.496465
0.49527
0.370542
0.416428
0.211613
0.360001
0.496415
0.449212
0.489165
0.495977
0.323029
0.38736
0.492656
0.399531
0.345921
0.496214
0.488311
0.375467
0.425181
0.408288
0.371643
0.19783
0.411624
0.495869
0.420495
0.246169
0.376917
0.488386
0.429622
0.247924
0.495864
0.374404
0.395405
0.492702
0.361387
0.404678
0.429065
0.40504
0.255034
0.411287
0.405978
0.271098
0.411549
0.267053
0.374928
0.40335
0.395616
0.438511
0.494217
0.244399
0.420252
0.214131
0.454682
0.457935
0.362461
0.425942
0.429043
0.429245
0.312612
0.306871
0.405049
0.407703
0.400213
0.487485
0.38911
0.401606
0.191064
0.413651
0.496233
0.498513
0.477429
0.422676
0.419776
0.492243
0.375306
0.371441
0.370729
0.429558
0.418621
0.449464
0.249559
0.348857
0.492156
0.361221
0.429092
0.429546
0.401293
0.497387
0.214776
0.425691
0.489922
0.292001
0.492445
0.494556
0.405562
0.363022
0.413849
0.174481
0.462161
0.429061
0.392316
0.425043
0.175073
0.364787
0.360181
0.424715
0.275815
0.38488
0.37022
0.398435
0.459553
0.427821
0.160889
0.409453
0.433913
0.253734
0.379657
0.429479
0.416707
0.487081
0.497319
0.406399
0.488536
0.402106
0.360326
0.485857
0.234849
0.496165
0.421922
0.389249
0.382485
0.271395
0.494453
0.434845
0.411978
0.41131
0.376591
0.264934
0.321301
0.460401
0.26097
0.490023
0.488662
0.462908
0.477072
0.368108
0.400011
0.458496
0.387054
0.427703
0.342846
0.350585
0.256968
0.25276
0.496143
0.377145
0.422486
0.478957
0.493488
0.408616
0.416858
0.359373
0.223479
0.495867
0.439338
0.49602
0.404664
0.40547
0.389781
0.369823
0.200482
0.233471
0.498375
0.414518
0.49175
0.41268
0.423166
0.464262
0.422309
0.284012
0.174482
0.356313
0.476679
0.478138
0.425365
0.424927
0.431285
0.427408
0.447467
0.451212
0.380111
0.163045
0.437969
0.487288
0.198963
0.416271
0.408177
0.491668
0.402865
0.426606
0.484785
0.404308
0.48267
0.363004
0.489822
0.428664
0.424675
0.178833
0.4216
0.42583
0.497171
0.393713
0.497532
0.413266
0.374014
0.487803
0.42448
0.422112
0.391896
0.408385
0.392771
0.425038
0.252172
0.400848
0.388996
0.408603
0.429997
0.422257
0.417112
0.428026
0.407605
0.162077
0.363479
0.407209
0.488055
0.175599
0.420307
0.418774
0.48325
0.486617
0.215607
0.421261
0.349525
0.476849
0.487502
0.354189
0.427223
0.289445
0.406827
0.485629
0.497985
0.428178
0.241846
0.473391
0.460232
0.35581
0.404718
0.36424
0.455496
0.277779
0.424099
0.430939
0.422031
0.422918
0.323429
0.401588
0.456863
0.368892
0.406661
0.418039
0.41478
0.436319
0.498379
0.288012
0.420514
0.424192
0.269439
0.429627
0.453592
0.368612
0.245495
0.325685
0.389628
0.42304
0.463145
0.493228
0.369845
0.420291
0.424241
0.424658
0.419168
0.465786
0.37223
0.493736
0.419308
0.422651
0.422453
0.485751
0.39026
0.487879
0.429983
0.428997
0.425696
0.42458
0.23446
0.496618
0.496568
0.427083
0.425516
0.414468
0.367281
0.435105
0.438296
0.333471
0.402759
0.36774
0.496574
0.414684
0.158672
0.426145
0.423882
0.413107
0.496203
0.402674
0.496195
0.408443
0.411021
0.283821
0.180017
0.427721
0.412549
0.415026
0.400798
0.423357
0.485967
0.41524
0.394545
0.426798
0.430267
0.421099
0.192353
0.407995
0.413471
0.413197
0.222602
0.415576
0.488552
0.428483
0.413466
0.40563
0.426393
0.423751
0.415792
0.393716
0.427275
0.457135
0.416276
0.48865
0.171687
0.391934
0.386336
0.388243
0.429462
0.416115
0.389621
0.413763
0.397177
0.422371
0.424533
0.416319
0.373613
0.175286
0.33644
0.232882
0.469352
0.423691
0.42167
0.414048
0.407098
0.421605
0.428726
0.321593
0.494867
0.494516
0.275174
0.406278
0.323005
0.350316
0.271715
0.323345
0.41664
0.327692
0.416847
0.42648
0.426742
0.171231
0.42342
0.496467
0.404108
0.28572
0.488405
0.497106
0.463346
0.419764
0.227676
0.394618
0.426275
0.426283
0.495792
0.414361
0.418337
0.496344
0.238224
0.453629
0.412416
0.495162
0.157731
0.407833
0.421404
0.431239
0.35034
0.418515
0.426648
0.413243
0.414087
0.383567
0.495077
0.45199
0.252153
0.426175
0.350797
0.343346
0.223122
0.418716
0.49724
0.286611
0.414474
0.484453
0.498343
0.494343
0.495538
0.213294
0.496036
0.49621
0.377599
0.495672
0.428314
0.412564
0.413784
0.424781
0.371966
0.343599
0.41381
0.422296
0.404714
0.404308
0.487005
0.338817
0.495482
0.421759
0.486591
0.494122
0.495346
0.383669
0.229209
0.413787
0.211172
0.426126
0.268526
0.43035
0.4953
0.162555
0.455598
0.408089
0.4278
0.270394
0.420881
0.414623
0.391788
0.487956
0.425656
0.449898
0.400437
0.413933
0.494728
0.228021
0.290244
0.421475
0.406804
0.453418
0.453408
0.352066
0.494922
0.42416
0.464943
0.316634
0.292825
0.349685
0.276785
0.494539
0.429488
0.348745
0.426003
0.492712
0.429578
0.360883
0.428642
0.427904
0.267119
0.460286
0.421202
0.212618
0.432989
0.284669
0.426939
0.420504
0.211216
0.41923
0.427751
0.247908
0.486105
0.430183
0.494028
0.412713
0.428186
0.417808
0.412128
0.497792
0.496386
0.493825
0.395623
0.448137
0.460434
0.158563
0.49421
0.496568
0.227889
0.342012
0.214022
0.415475
0.432681
0.496295
0.432931
0.49237
0.494141
0.427597
0.492092
0.494365
0.15738
0.41462
0.427121
0.224938
0.493563
0.270475
0.340869
0.496414
0.295064
0.419922
0.493849
0.212482
0.223301
0.494885
0.494013
0.424747
0.494614
0.421759
0.444547
0.420863
0.333932
0.327806
0.339599
0.42407
0.424102
0.494651
0.310208
0.415179
0.350804
0.494076
0.494351
0.493793
0.494313
0.417598
0.493279
0.463164
0.492995
0.493514
0.489493
0.4276
0.489855
0.200657
0.415735
0.197857
0.463373
0.253659
0.353475
0.208122
0.226739
0.441158
0.441273
0.495834
0.422256
0.493235
0.421919
0.351823
0.459188
0.429612
0.421225
0.49595
0.420115
0.445768
0.21629
0.492958
0.44163
0.441513
0.304524
0.488954
0.42109
0.420468
0.196226
0.451521
0.451503
0.426226
0.348928
0.350874
0.292688
0.214823
0.496309
0.430424
0.425201
0.405153
0.217945
0.209837
0.429164
0.421375
0.391282
0.19914
0.309964
0.310124
0.313788
0.420409
0.229387
0.387992
0.423271
0.239573
0.412883
0.49159
0.42102
0.425108
0.370401
0.354523
0.428038
0.208054
0.465345
0.420152
0.414284
0.477609
0.479908
0.414325
0.429967
0.469812
0.190738
0.414919
0.424689
0.356865
0.241364
0.428078
0.492521
0.420573
0.420828
0.414366
0.414917
0.427802
0.418188
0.409655
0.194684
0.216409
0.49256
0.24728
0.428556
0.458509
0.495979
0.496736
0.411846
0.405234
0.429459
0.421815
0.430002
0.419849
0.491889
0.419628
0.414079
0.428647
0.214845
0.428268
0.494586
0.419371
0.41407
0.296821
0.495705
0.422809
0.421902
0.30414
0.303148
0.348125
0.420977
0.491267
0.428796
0.389979
0.39693
0.239115
0.200574
0.402896
0.419476
0.491735
0.251851
0.416283
0.264826
0.231727
0.427109
0.495803
0.415955
0.496008
0.396515
0.396516
0.389013
0.495752
0.402537
0.430607
0.420186
0.402568
0.296791
0.389872
0.477394
0.372776
0.495915
0.192153
0.355781
0.494092
0.49641
0.425812
0.491937
0.493991
0.491208
0.425887
0.261969
0.190854
0.403867
0.495711
0.321988
0.423639
0.368733
0.479101
0.424683
0.3492
0.409984
0.429318
0.40842
0.428351
0.420595
0.493817
0.423824
0.420699
0.413952
0.49577
0.416024
0.47753
0.357967
0.4137
0.249058
0.418157
0.464245
0.191919
0.494823
0.468168
0.470844
0.420643
0.359013
0.429102
0.267116
0.219495
0.264057
0.42912
0.41966
0.424374
0.428142
0.214028
0.490876
0.42156
0.417673
0.241428
0.21265
0.424225
0.487466
0.495619
0.419053
0.42326
0.196173
0.420394
0.368546
0.193495
0.425991
0.416821
0.383108
0.429108
0.206291
0.425353
0.49641
0.474881
0.419474
0.475764
0.429768
0.489347
0.428201
0.495905
0.490433
0.190402
0.390684
0.391326
0.490481
0.493029
0.417868
0.361395
0.423472
0.490082
0.423644
0.236613
0.48863
0.428655
0.419957
0.216226
0.237368
0.420061
0.247434
0.35462
0.221401
0.312381
0.311745
0.355551
0.353357
0.416569
0.23327
0.495689
0.415892
0.496726
0.427645
0.25372
0.421537
0.426495
0.42181
0.223061
0.427729
0.49477
0.42306
0.422096
0.468329
0.428162
0.240759
0.249988
0.443118
0.443163
0.427889
0.494869
0.240857
0.422054
0.495541
0.428792
0.428661
0.407666
0.402992
0.496486
0.462326
0.170388
0.260185
0.426384
0.236724
0.42101
0.261932
0.37452
0.427338
0.415576
0.423401
0.425453
0.40992
0.409937
0.287336
0.496219
0.192006
0.496598
0.420898
0.428877
0.49243
0.428626
0.490039
0.403891
0.276836
0.250947
0.492561
0.360103
0.492813
0.425133
0.425445
0.195815
0.495986
0.491792
0.326258
0.426052
0.256149
0.216282
0.416651
0.492322
0.257315
0.369608
0.295728
0.229191
0.476558
0.415048
0.478221
0.474766
0.415632
0.40947
0.409418
0.189261
0.415113
0.428107
0.428373
0.227516
0.408652
0.421985
0.335326
0.248903
0.423823
0.414581
0.423128
0.427355
0.426331
0.428195
0.413813
0.496529
0.413941
0.383116
0.402145
0.418234
0.418012
0.415742
0.245294
0.423004
0.400433
0.400441
0.49029
0.425574
0.41894
0.49741
0.424682
0.406808
0.422367
0.418288
0.489679
0.161436
0.418685
0.161036
0.490822
0.401297
0.25369
0.481096
0.390876
0.390857
0.427894
0.426877
0.370214
0.42897
0.425712
0.495615
0.378661
0.378778
0.298311
0.428075
0.415474
0.426335
0.363028
0.42857
0.425597
0.416582
0.41794
0.427178
0.469302
0.470662
0.367579
0.426287
0.422277
0.427629
0.347188
0.323469
0.323565
0.408766
0.421936
0.426015
0.426853
0.428868
0.409533
0.181122
0.409545
0.408001
0.427434
0.290479
0.423173
0.368636
0.426692
0.382619
0.382571
0.418989
0.492339
0.424243
0.236476
0.495725
0.428438
0.212833
0.393841
0.496435
0.491825
0.402986
0.254271
0.301446
0.307386
0.393145
0.418706
0.425146
0.410848
0.407172
0.400389
0.427957
0.410824
0.398407
0.400349
0.404313
0.42676
0.408879
0.424315
0.200391
0.401254
0.493277
0.492083
0.418174
0.422679
0.405168
0.422235
0.426695
0.422856
0.194598
0.400462
0.426058
0.425904
0.424807
0.426961
0.426242
0.423398
0.287282
0.380038
0.380081
0.425252
0.422121
0.425869
0.492224
0.262178
0.422501
0.414021
0.427411
0.41558
0.167125
0.492355
0.419246
0.226531
0.488139
0.425687
0.277123
0.424968
0.159523
0.39877
0.234755
0.235533
0.159374
0.159192
0.413478
0.421516
0.495929
0.495949
0.161647
0.425416
0.428508
0.363301
0.379043
0.416022
0.245341
0.42229
0.422348
0.478339
0.216267
0.192318
0.361135
0.427263
0.426495
0.425939
0.426818
0.497479
0.418487
0.419007
0.419547
0.425304
0.41798
0.425766
0.422602
0.382515
0.492683
0.460886
0.496469
0.423527
0.422718
0.426981
0.42157
0.388609
0.420721
0.418548
0.407185
0.423585
0.420865
0.418801
0.497076
0.420077
0.4144
0.490645
0.40085
0.405871
0.496507
0.420695
0.427882
0.492156
0.21784
0.424909
0.489272
0.420759
0.495658
0.419785
0.42114
0.25723
0.495895
0.488862
0.490233
0.37608
0.375843
0.418408
0.258931
0.497237
0.423154
0.497973
0.348497
0.42388
0.420718
0.19724
0.36938
0.489642
0.38551
0.200341
0.497875
0.203217
0.498705
0.498667
0.4978
0.204417
0.415832
0.497544
0.421937
0.496134
0.493808
0.42312
0.427956
0.473814
0.189497
0.257856
0.497228
0.358878
0.419613
0.262096
0.187063
0.18801
0.420393
0.469871
0.204927
0.177159
0.488244
0.49751
0.425758
0.462423
0.419066
0.16576
0.498347
0.498315
0.492116
0.423715
0.491953
0.423566
0.184199
0.413508
0.413648
0.418096
0.495948
0.424364
0.496474
0.497079
0.424852
0.203096
0.428516
0.428112
0.22293
0.245289
0.242552
0.365522
0.419883
0.491732
0.469942
0.420226
0.419365
0.4204
0.416918
0.420352
0.497714
0.408779
0.49715
0.209416
0.463661
0.41821
0.162416
0.161596
0.491441
0.412841
0.493954
0.421363
0.420121
0.418831
0.409773
0.409811
0.421355
0.420955
0.42533
0.495657
0.321737
0.420229
0.417628
0.420741
0.348235
0.348891
0.425329
0.423028
0.418724
0.426667
0.420579
0.4951
0.425893
0.361915
0.49559
0.351178
0.351921
0.42142
0.414755
0.423617
0.417785
0.377891
0.378061
0.369417
0.383223
0.383172
0.243635
0.416364
0.496845
0.364641
0.417706
0.420431
0.480513
0.417479
0.390292
0.39026
0.399978
0.399919
0.410951
0.421857
0.394339
0.408241
0.407953
0.495555
0.417284
0.403437
0.487181
0.419254
0.38505
0.385024
0.41092
0.418389
0.411178
0.395869
0.39575
0.420846
0.416855
0.40674
0.4287
0.411171
0.216262
0.421793
0.444027
0.496859
0.419808
0.399232
0.417483
0.497575
0.497534
0.497272
0.428228
0.494979
0.493017
0.401702
0.49702
0.364818
0.489241
0.493624
0.497057
0.419776
0.424274
0.424965
0.357118
0.427538
0.428936
0.496244
0.224973
0.226444
0.417901
0.426402
0.398174
0.48857
0.416395
0.41854
0.491327
0.491969
0.428747
0.495495
0.495466
0.427447
0.491203
0.251828
0.255579
0.493813
0.395691
0.362374
0.465106
0.206167
0.496939
0.497004
0.425479
0.495976
0.496306
0.487963
0.420384
0.219517
0.413915
0.495665
0.459271
0.482777
0.496114
0.41852
0.496238
0.239056
0.418949
0.226037
0.40733
0.417366
0.496791
0.222949
0.222783
0.424608
0.387978
0.491035
0.495579
0.488288
0.419583
0.20933
0.417009
0.493414
0.426024
0.496366
0.495289
0.495008
0.419795
0.38491
0.421161
0.495543
0.418423
0.496214
0.419974
0.482131
0.493566
0.422754
0.488536
0.380677
0.380676
0.494703
0.493704
0.495458
0.495334
0.487692
0.495792
0.495896
0.473094
0.423139
0.412231
0.495622
0.496127
0.424008
0.41751
0.420068
0.405571
0.419791
0.492573
0.375103
0.375378
0.496676
0.497096
0.278719
0.49708
0.494509
0.427418
0.417354
0.415391
0.494081
0.494825
0.427254
0.495521
0.495818
0.488016
0.468669
0.493872
0.496239
0.491849
0.496169
0.36846
0.417594
0.482144
0.418737
0.495737
0.495574
0.476633
0.4174
0.419171
0.416783
0.495176
0.485891
0.495881
0.190716
0.357762
0.417676
0.497202
0.492819
0.366912
0.418345
0.493713
0.495355
0.495547
0.158224
0.158114
0.427684
0.404734
0.495751
0.178173
0.413668
0.494585
0.4711
0.419729
0.166754
0.495421
0.413731
0.182952
0.494878
0.412454
0.491572
0.416671
0.425559
0.495798
0.496887
0.417896
0.417941
0.412986
0.49344
0.495816
0.42743
0.496162
0.492516
0.3666
0.493655
0.418897
0.425065
0.494372
0.168186
0.418613
0.494818
0.417108
0.495944
0.496236
0.477257
0.40917
0.411709
0.420128
0.427903
0.409179
0.428046
0.49565
0.417672
0.493897
0.495514
0.495337
0.493033
0.495557
0.422761
0.495796
0.307534
0.495643
0.296944
0.495466
0.492597
0.491411
0.496531
0.492128
0.420103
0.352444
0.353222
0.419026
0.42152
0.496026
0.199119
0.201874
0.401712
0.400832
0.494354
0.495546
0.494556
0.422372
0.490766
0.495482
0.413903
0.365687
0.494679
0.495564
0.420415
0.495796
0.235158
0.260571
0.496899
0.496345
0.496311
0.365043
0.492791
0.495696
0.493673
0.466268
0.467587
0.497941
0.492406
0.495365
0.16066
0.385658
0.385619
0.41576
0.364441
0.493229
0.494023
0.491626
0.491592
0.493775
0.474772
0.495388
0.412498
0.193524
0.493761
0.49399
0.496057
0.416504
0.493302
0.495252
0.418507
0.396372
0.396228
0.466591
0.492256
0.495691
0.493451
0.42038
0.407598
0.493969
0.403424
0.496574
0.488967
0.492873
0.416978
0.491089
0.424867
0.418369
0.49263
0.496024
0.417182
0.422097
0.41745
0.490851
0.493384
0.487755
0.491655
0.495564
0.49553
0.493094
0.493622
0.49347
0.408731
0.492052
0.495327
0.491767
0.40556
0.495753
0.496184
0.487343
0.495295
0.493269
0.495259
0.353388
0.4961
0.493505
0.492324
0.492608
0.494989
0.412068
0.49648
0.424548
0.42113
0.494473
0.494225
0.493983
0.491826
0.495396
0.493071
0.495904
0.493637
0.419918
0.493743
0.418312
0.413316
0.414053
0.417205
0.495501
0.491293
0.494725
0.415441
0.492805
0.492881
0.492351
0.490167
0.493895
0.493153
0.412738
0.491863
0.487818
0.493638
0.490453
0.413931
0.495805
0.404718
0.495769
0.494017
0.496387
0.475693
0.491342
0.224805
0.221289
0.427169
0.487781
0.491456
0.492908
0.413346
0.412104
0.496135
0.492713
0.495787
0.490043
0.491119
0.495076
0.494778
0.494748
0.494003
0.492863
0.491562
0.49245
0.399857
0.496079
0.392583
0.24376
0.414865
0.41572
0.412705
0.416474
0.399844
0.493235
0.392605
0.492416
0.482757
0.486643
0.491026
0.492079
0.492713
0.418855
0.479517
0.495808
0.494577
0.491548
0.479536
0.490783
0.472033
0.416702
0.495364
0.492147
0.426457
0.495548
0.365353
0.42933
0.49539
0.486971
0.495484
0.491611
0.354435
0.421645
0.495772
0.467336
0.490727
0.493047
0.491571
0.493321
0.491205
0.49541
0.489816
0.255634
0.49421
0.417441
0.416126
0.419418
0.480193
0.490272
0.495696
0.491295
0.492429
0.491854
0.496457
0.491009
0.465208
0.489547
0.490706
0.239178
0.467672
0.491213
0.495254
0.406883
0.490514
0.488274
0.487433
0.416361
0.491567
0.422627
0.431047
0.419787
0.49054
0.493166
0.489468
0.494929
0.493156
0.43594
0.49585
0.421063
0.491835
0.419041
0.496744
0.413516
0.495449
0.491052
0.49588
0.496328
0.490306
0.424903
0.495245
0.415542
0.492136
0.417173
0.420262
0.417865
0.489867
0.411134
0.495625
0.433128
0.486499
0.493256
0.416195
0.490907
0.490477
0.496116
0.495155
0.398724
0.415963
0.409239
0.416093
0.490547
0.493969
0.493921
0.415697
0.491113
0.491893
0.40918
0.42008
0.310423
0.294821
0.489899
0.439782
0.418471
0.197405
0.201934
0.401693
0.489662
0.422586
0.492693
0.490108
0.489208
0.495331
0.489864
0.488206
0.442332
0.424979
0.257838
0.48852
0.413772
0.488785
0.492403
0.416276
0.494414
0.466178
0.420037
0.468593
0.428031
0.415458
0.44886
0.364548
0.444878
0.489525
0.421582
0.410325
0.420627
0.494791
0.442396
0.415238
0.195034
0.413586
0.492038
0.411404
0.424468
0.492245
0.418639
0.491243
0.495126
0.414907
0.40761
0.415441
0.403878
0.488174
0.489473
0.421015
0.492094
0.494233
0.446576
0.41515
0.353777
0.415192
0.412674
0.48664
0.422615
0.413169
0.489393
0.496937
0.491034
0.411443
0.413021
0.410712
0.497473
0.428022
0.411286
0.493423
0.410755
0.48983
0.414576
0.411675
0.474735
0.488838
0.221296
0.226119
0.451912
0.453916
0.4894
0.485408
0.415678
0.411307
0.382063
0.381796
0.454006
0.495902
0.245689
0.493498
0.491591
0.489439
0.49384
0.493288
0.455932
0.415472
0.409454
0.490724
0.410579
0.487011
0.492613
0.413144
0.487227
0.413252
0.415232