# vtk DataFile Version 1.0
unstructured grid
ascii
DATASET UNSTRUCTURED_GRID
points 8094 float
-0.25 0.0574735 0
0.5 0.0546937 0
0.5 -0.0546937 0
-0.25 -0.0574735 0
-0.25 0.0574735 0.01
0.5 0.0546937 0.01
0.5 -0.0546937 0.01
-0.25 -0.0574735 0.01
-0.246045 0.0569295 0
-0.242089 0.0563854 0
-0.238136 0.0558289 0
-0.234184 0.0552582 0
-0.230232 0.0546875 0
-0.226284 0.0540912 0
-0.222337 0.0534933 0
-0.218391 0.0528841 0
-0.214448 0.0522585 0
-0.210504 0.0516328 0
-0.206565 0.0509829 0
-0.202626 0.0503294 0
-0.198689 0.0496667 0
-0.194755 0.0489856 0
-0.190821 0.0483046 0
-0.18689 0.0476022 0
-0.182961 0.0468942 0
-0.179033 0.0461799 0
-0.175108 0.0454463 0
-0.171183 0.0447127 0
-0.167262 0.0439627 0
-0.163342 0.0432056 0
-0.159422 0.0424455 0
-0.155506 0.041668 0
-0.15159 0.0408904 0
-0.147675 0.0401031 0
-0.143762 0.0393092 0
-0.13985 0.0385149 0
-0.135939 0.0377103 0
-0.132028 0.0369056 0
-0.128117 0.0361005 0
-0.124207 0.0352949 0
-0.120296 0.0344893 0
-0.116386 0.0336836 0
-0.112475 0.032878 0
-0.108563 0.0320794 0
-0.104649 0.0312931 0
-0.100735 0.0305068 0
-0.0968152 0.029745 0
-0.0928949 0.0289889 0
-0.0889722 0.0282446 0
-0.0850433 0.0275341 0
-0.0811144 0.0268235 0
-0.0771778 0.0261578 0
-0.0732381 0.0255098 0
-0.0692962 0.0248759 0
-0.0653442 0.0243073 0
-0.0613923 0.0237386 0
-0.0574324 0.0232306 0
-0.0534681 0.0227556 0
-0.0495024 0.0222934 0
-0.0455272 0.0219207 0
-0.041552 0.0215481 0
-0.0375717 0.0212385 0
-0.0335881 0.0209694 0
-0.029604 0.0207098 0
-0.0256151 0.0205369 0
-0.0216262 0.0203639 0
-0.0176357 0.0202396 0
-0.0136441 0.0201487 0
-0.00965243 0.0200635 0
-0.00565987 0.0200372 0
-0.00166732 0.020011 0
0.00232526 0.0200121 0
0.00631785 0.0200329 0
0.0103104 0.0200563 0
0.0143027 0.0201109 0
0.018295 0.0201654 0
0.022287 0.0202345 0
0.0262788 0.0203144 0
0.0302706 0.0203957 0
0.034262 0.0204956 0
0.0382534 0.0205955 0
0.0422446 0.0207045 0
0.0462355 0.0208207 0
0.0502265 0.0209377 0
0.054217 0.0210676 0
0.0582075 0.0211975 0
0.0621978 0.0213339 0
0.0661879 0.0214757 0
0.0701781 0.021618 0
0.0741678 0.0217703 0
0.0781575 0.0219227 0
0.0821471 0.0220801 0
0.0861364 0.022242 0
0.0901258 0.0224041 0
0.0941148 0.0225747 0
0.0981038 0.0227453 0
0.102093 0.0229202 0
0.106081 0.023099 0
0.11007 0.0232779 0
0.114058 0.0234644 0
0.118046 0.0236509 0
0.122035 0.0238411 0
0.126022 0.024035 0
0.13001 0.0242288 0
0.133998 0.0244298 0
0.137986 0.0246308 0
0.141973 0.0248352 0
0.14596 0.025043 0
0.149947 0.0252509 0
0.153934 0.0254654 0
0.157921 0.02568 0
0.161908 0.0258978 0
0.165894 0.026119 0
0.169881 0.0263402 0
0.173867 0.0265678 0
0.177853 0.0267956 0
0.181839 0.0270264 0
0.185825 0.0272607 0
0.189811 0.0274951 0
0.193796 0.0277356 0
0.197781 0.0279764 0
0.201767 0.02822 0
0.205752 0.0284673 0
0.209737 0.0287146 0
0.213721 0.0289679 0
0.217706 0.0292217 0
0.22169 0.0294782 0
0.225674 0.0297385 0
0.229658 0.0299988 0
0.233642 0.0302651 0
0.237626 0.0305319 0
0.241609 0.0308014 0
0.245593 0.0310748 0
0.249576 0.0313482 0
0.253559 0.0316276 0
0.257542 0.0319077 0
0.261524 0.0321904 0
0.265507 0.0324772 0
0.269489 0.032764 0
0.273471 0.0330568 0
0.277453 0.0333504 0
0.281434 0.0336466 0
0.285416 0.0339471 0
0.289397 0.0342476 0
0.293378 0.034554 0
0.297359 0.0348615 0
0.301339 0.0351714 0
0.305319 0.0354859 0
0.3093 0.0358005 0
0.313279 0.036121 0
0.317259 0.0364427 0
0.321239 0.0367667 0
0.325218 0.0370957 0
0.329197 0.0374248 0
0.333175 0.0377597 0
0.337154 0.0380961 0
0.341132 0.0384347 0
0.34511 0.0387786 0
0.349088 0.0391226 0
0.353065 0.0394724 0
0.357042 0.0398239 0
0.361019 0.0401775 0
0.364995 0.0405368 0
0.368972 0.0408961 0
0.372948 0.0412613 0
0.376924 0.0416285 0
0.380899 0.0419975 0
0.384874 0.0423727 0
0.388849 0.0427479 0
0.392823 0.0431289 0
0.396798 0.0435123 0
0.400772 0.0438973 0
0.404745 0.044289 0
0.408718 0.0446807 0
0.412691 0.0450781 0
0.416664 0.0454782 0
0.420636 0.0458797 0
0.424608 0.0462883 0
0.42858 0.046697 0
0.432551 0.0471114 0
0.436521 0.0475289 0
0.440492 0.0479474 0
0.444462 0.0483738 0
0.448432 0.0488001 0
0.452401 0.0492319 0
0.45637 0.0496673 0
0.460338 0.0501035 0
0.464306 0.0505482 0
0.468274 0.0509928 0
0.472241 0.0514427 0
0.476208 0.0518968 0
0.480175 0.0523512 0
0.48414 0.0528148 0
0.488106 0.0532784 0
0.492071 0.0537471 0
0.496036 0.0542204 0
0.5 0.050787 0
0.5 0.0468803 0
0.5 0.0429736 0
0.5 0.0390669 0
0.5 0.0351602 0
0.5 0.0312535 0
0.5 0.0273468 0
0.5 0.0234402 0
0.5 0.0195335 0
0.5 0.0156268 0
0.5 0.0117201 0
0.5 0.00781339 0
0.5 0.00390669 0
0.5 1.43781e-13 0
0.5 -0.00390669 0
0.5 -0.00781339 0
0.5 -0.0117201 0
0.5 -0.0156268 0
0.5 -0.0195335 0
0.5 -0.0234402 0
0.5 -0.0273468 0
0.5 -0.0312535 0
0.5 -0.0351602 0
0.5 -0.0390669 0
0.5 -0.0429736 0
0.5 -0.0468803 0
0.5 -0.050787 0
0.496036 -0.0542204 0
0.492071 -0.0537471 0
0.488106 -0.0532784 0
0.48414 -0.0528148 0
0.480175 -0.0523512 0
0.476208 -0.0518968 0
0.472241 -0.0514427 0
0.468274 -0.0509928 0
0.464306 -0.0505482 0
0.460338 -0.0501035 0
0.45637 -0.0496673 0
0.452401 -0.0492319 0
0.448432 -0.0488001 0
0.444462 -0.0483738 0
0.440492 -0.0479474 0
0.436521 -0.0475289 0
0.432551 -0.0471114 0
0.42858 -0.046697 0
0.424608 -0.0462883 0
0.420636 -0.0458797 0
0.416664 -0.0454782 0
0.412691 -0.0450781 0
0.408718 -0.0446807 0
0.404745 -0.044289 0
0.400772 -0.0438973 0
0.396798 -0.0435123 0
0.392823 -0.0431289 0
0.388849 -0.0427479 0
0.384874 -0.0423727 0
0.380899 -0.0419975 0
0.376924 -0.0416285 0
0.372948 -0.0412613 0
0.368972 -0.0408961 0
0.364995 -0.0405368 0
0.361019 -0.0401775 0
0.357042 -0.0398239 0
0.353065 -0.0394724 0
0.349088 -0.0391226 0
0.34511 -0.0387786 0
0.341132 -0.0384347 0
0.337154 -0.0380961 0
0.333175 -0.0377597 0
0.329197 -0.0374248 0
0.325218 -0.0370957 0
0.321239 -0.0367667 0
0.317259 -0.0364427 0
0.313279 -0.036121 0
0.3093 -0.0358005 0
0.305319 -0.0354859 0
0.301339 -0.0351714 0
0.297359 -0.0348615 0
0.293378 -0.034554 0
0.289397 -0.0342476 0
0.285416 -0.0339471 0
0.281434 -0.0336466 0
0.277453 -0.0333504 0
0.273471 -0.0330568 0
0.269489 -0.032764 0
0.265507 -0.0324772 0
0.261524 -0.0321904 0
0.257542 -0.0319077 0
0.253559 -0.0316276 0
0.249576 -0.0313482 0
0.245593 -0.0310748 0
0.241609 -0.0308014 0
0.237626 -0.0305319 0
0.233642 -0.0302651 0
0.229658 -0.0299988 0
0.225674 -0.0297385 0
0.22169 -0.0294782 0
0.217706 -0.0292217 0
0.213721 -0.0289679 0
0.209737 -0.0287146 0
0.205752 -0.0284673 0
0.201767 -0.02822 0
0.197781 -0.0279764 0
0.193796 -0.0277356 0
0.189811 -0.0274951 0
0.185825 -0.0272607 0
0.181839 -0.0270264 0
0.177853 -0.0267956 0
0.173867 -0.0265678 0
0.169881 -0.0263402 0
0.165894 -0.026119 0
0.161908 -0.0258978 0
0.157921 -0.02568 0
0.153934 -0.0254654 0
0.149947 -0.0252509 0
0.14596 -0.025043 0
0.141973 -0.0248352 0
0.137986 -0.0246308 0
0.133998 -0.0244298 0
0.13001 -0.0242288 0
0.126022 -0.024035 0
0.122035 -0.0238411 0
0.118046 -0.0236509 0
0.114058 -0.0234644 0
0.11007 -0.0232779 0
0.106081 -0.023099 0
0.102093 -0.0229202 0
0.0981038 -0.0227453 0
0.0941148 -0.0225747 0
0.0901258 -0.0224041 0
0.0861364 -0.022242 0
0.0821471 -0.0220801 0
0.0781575 -0.0219227 0
0.0741678 -0.0217703 0
0.0701781 -0.021618 0
0.0661879 -0.0214757 0
0.0621978 -0.0213339 0
0.0582075 -0.0211975 0
0.054217 -0.0210676 0
0.0502265 -0.0209377 0
0.0462355 -0.0208207 0
0.0422446 -0.0207045 0
0.0382534 -0.0205955 0
0.034262 -0.0204956 0
0.0302706 -0.0203957 0
0.0262788 -0.0203144 0
0.022287 -0.0202345 0
0.018295 -0.0201654 0
0.0143027 -0.0201109 0
0.0103104 -0.0200563 0
0.00631785 -0.0200329 0
0.00232526 -0.0200121 0
-0.00166732 -0.020011 0
-0.00565987 -0.0200372 0
-0.00965243 -0.0200635 0
-0.0136441 -0.0201487 0
-0.0176357 -0.0202396 0
-0.0216262 -0.0203639 0
-0.0256151 -0.0205369 0
-0.029604 -0.0207098 0
-0.0335881 -0.0209694 0
-0.0375717 -0.0212385 0
-0.041552 -0.0215481 0
-0.0455272 -0.0219207 0
-0.0495024 -0.0222934 0
-0.0534681 -0.0227556 0
-0.0574324 -0.0232306 0
-0.0613923 -0.0237386 0
-0.0653442 -0.0243073 0
-0.0692962 -0.0248759 0
-0.0732381 -0.0255098 0
-0.0771778 -0.0261578 0
-0.0811144 -0.0268235 0
-0.0850433 -0.0275341 0
-0.0889722 -0.0282446 0
-0.0928949 -0.0289889 0
-0.0968152 -0.029745 0
-0.100735 -0.0305068 0
-0.104649 -0.0312931 0
-0.108563 -0.0320794 0
-0.112475 -0.032878 0
-0.116386 -0.0336836 0
-0.120296 -0.0344893 0
-0.124207 -0.0352949 0
-0.128117 -0.0361005 0
-0.132028 -0.0369056 0
-0.135939 -0.0377103 0
-0.13985 -0.0385149 0
-0.143762 -0.0393092 0
-0.147675 -0.0401031 0
-0.15159 -0.0408904 0
-0.155506 -0.041668 0
-0.159422 -0.0424455 0
-0.163342 -0.0432056 0
-0.167262 -0.0439627 0
-0.171183 -0.0447127 0
-0.175108 -0.0454463 0
-0.179033 -0.0461799 0
-0.182961 -0.0468942 0
-0.18689 -0.0476022 0
-0.190821 -0.0483046 0
-0.194755 -0.0489856 0
-0.198689 -0.0496667 0
-0.202626 -0.0503294 0
-0.206565 -0.0509829 0
-0.210504 -0.0516328 0
-0.214448 -0.0522585 0
-0.218391 -0.0528841 0
-0.222337 -0.0534933 0
-0.226284 -0.0540912 0
-0.230232 -0.0546875 0
-0.234184 -0.0552582 0
-0.238136 -0.0558289 0
-0.242089 -0.0563854 0
-0.246045 -0.0569295 0
-0.25 -0.0535098 0
-0.25 -0.0495461 0
-0.25 -0.0455824 0
-0.25 -0.0416187 0
-0.25 -0.0376551 0
-0.25 -0.0336914 0
-0.25 -0.0297277 0
-0.25 -0.025764 0
-0.25 -0.0218003 0
-0.25 -0.0178366 0
-0.25 -0.0138729 0
-0.25 -0.00990922 0
-0.25 -0.00594553 0
-0.25 -0.00198184 0
-0.25 0.00198184 0
-0.25 0.00594553 0
-0.25 0.00990922 0
-0.25 0.0138729 0
-0.25 0.0178366 0
-0.25 0.0218003 0
-0.25 0.025764 0
-0.25 0.0297277 0
-0.25 0.0336914 0
-0.25 0.0376551 0
-0.25 0.0416187 0
-0.25 0.0455824 0
-0.25 0.0495461 0
-0.25 0.0535098 0
-0.246045 0.0569295 0.01
-0.242089 0.0563854 0.01
-0.238136 0.0558289 0.01
-0.234184 0.0552582 0.01
-0.230232 0.0546875 0.01
-0.226284 0.0540912 0.01
-0.222337 0.0534933 0.01
-0.218391 0.0528841 0.01
-0.214448 0.0522585 0.01
-0.210504 0.0516328 0.01
-0.206565 0.0509829 0.01
-0.202626 0.0503294 0.01
-0.198689 0.0496667 0.01
-0.194755 0.0489856 0.01
-0.190821 0.0483046 0.01
-0.18689 0.0476022 0.01
-0.182961 0.0468942 0.01
-0.179033 0.0461799 0.01
-0.175108 0.0454463 0.01
-0.171183 0.0447127 0.01
-0.167262 0.0439627 0.01
[...]
CELL_DATA 7657
SCALARS rho float
LOOKUP_TABLE default
0.477693
0.374261
0.420871
0.298414
0.495649
0.36694
0.286026
0.431258
0.344
0.499901
0.499966
0.430864
0.317638
0.431017
0.494833
0.489163
0.494744
0.423966
0.4239
0.434397
0.493979
0.424302
0.36578
0.42392
0.42671
0.429491
0.285643
0.323801
0.49691
0.368681
0.277828
0.4267
0.36274
0.47567
0.476128
0.278604
0.36934
0.364945
0.480928
0.275599
0.420535
0.342954
0.331122
0.355394
0.4204
0.421266
0.289657
0.365743
0.426733
0.477297
0.352588
0.299012
0.496862
0.497693
0.285452
0.373906
0.494285
0.49222
0.452742
0.277386
0.426887
0.419885
0.427249
0.427381
0.500598
0.500612
0.317394
0.382348
0.49917
0.448679
0.421417
0.319237
0.320259
0.496925
0.474385
0.363291
0.424326
0.361744
0.47385
0.321804
0.362127
0.431759
0.435094
0.420727
0.421295
0.457576
0.421173
0.447688
0.429658
0.285234
0.500485
0.500525
0.454392
0.498533
0.274697
0.460171
0.458921
0.369228
0.420008
0.274584
0.42413
0.425869
0.37252
0.493526
0.291043
0.352436
0.274349
0.386819
0.323376
0.493481
0.277879
0.384912
0.345036
0.435199
0.422513
0.437045
0.38922
0.275229
0.488467
0.366487
0.501277
0.50126
0.274142
0.369897
0.433686
0.43099
0.430731
0.331124
0.378731
0.333618
0.294269
0.424843
0.375214
0.318521
0.434128
0.27504
0.489517
0.362887
0.42504
0.425133
0.27448
0.284075
0.276039
0.274567
0.423785
0.493891
0.359791
0.375354
0.419568
0.274319
0.276798
0.499282
0.393306
0.333641
0.49399
0.373488
0.382475
0.424564
0.434242
0.27555
0.424689
0.491975
0.429376
0.435681
0.417771
0.372335
0.480972
0.344134
0.422385
0.488917
0.420398
0.354326
0.424785
0.277008
0.280247
0.278978
0.311956
0.460172
0.433375
0.275911
0.274572
0.322541
0.425509
0.425458
0.315031
0.450985
0.334416
0.313936
0.430092
0.460128
0.496844
0.498752
0.434309
0.465023
0.430065
0.377459
0.434524
0.491614
0.279184
0.421999
0.423877
0.425713
0.461608
0.445339
0.286055
0.49782
0.326482
0.292067
0.473451
0.464502
0.412031
0.41954
0.417538
0.434115
0.420186
0.314543
0.282025
0.45621
0.385474
0.421991
0.374492
0.376042
0.499593
0.383995
0.328521
0.363868
0.328114
0.279538
0.36091
0.499633
0.416103
0.416237
0.321126
0.493845
0.487534
0.434653
0.447241
0.425914
0.42588
0.491327
0.411302
0.278781
0.461768
0.362652
0.47252
0.467311
0.334556
0.46641
0.336924
0.358448
0.278564
0.308853
0.387916
0.474592
0.281447
0.312586
0.376564
0.495583
0.497577
0.384495
0.368907
0.497553
0.488033
0.422392
0.283323
0.421136
0.443147
0.278769
0.423838
0.277434
0.310059
0.284299
0.284235
0.435195
0.471877
0.422505
0.340405
0.384812
0.383383
0.430489
0.369809
0.428283
0.281127
0.274404
0.308591
0.278008
0.27436
0.293546
0.398058
0.423177
0.422668
0.317292
0.281312
0.497507
0.387329
0.287215
0.48129
0.431981
0.436844
0.422786
0.458972
0.497971
0.277373
0.332274
0.286149
0.45599
0.283895
0.31965
0.423561
0.386582
0.430626
0.441241
0.491066
0.336766
0.426637
0.490864
0.497432
0.495614
0.38556
0.42836
0.338831
0.365246
0.497386
0.449213
0.4889
0.496444
0.332962
0.3905
0.492669
0.423072
0.352512
0.496707
0.488001
0.379386
0.431555
0.410168
0.387225
0.27952
0.426487
0.496843
0.4299
0.279715
0.38079
0.48808
0.435005
0.281149
0.496815
0.378443
0.421693
0.492734
0.369159
0.424547
0.434275
0.424631
0.284299
0.426391
0.42485
0.292925
0.426465
0.290892
0.396665
0.424176
0.421731
0.4389
0.494437
0.279298
0.42985
0.275013
0.454509
0.457669
0.371296
0.426872
0.434999
0.434287
0.32404
0.319368
0.424584
0.409542
0.423258
0.487134
0.418303
0.423649
0.283535
0.427187
0.49718
0.499198
0.476889
0.430595
0.42962
0.492228
0.397529
0.387803
0.386296
0.434623
0.429258
0.449446
0.281966
0.355094
0.49212
0.369029
0.434337
0.434737
0.423643
0.498304
0.275384
0.426626
0.489717
0.308382
0.492459
0.494818
0.424733
0.371802
0.427262
0.296297
0.461814
0.434062
0.420039
0.431726
0.29684
0.369687
0.365478
0.431557
0.296294
0.388145
0.374689
0.422743
0.459252
0.432993
0.328375
0.425767
0.434483
0.283811
0.383275
0.434698
0.428501
0.486711
0.497912
0.424961
0.488244
0.423804
0.366197
0.485449
0.276314
0.497095
0.430447
0.418433
0.411337
0.292959
0.494702
0.435415
0.426604
0.426396
0.39969
0.289524
0.330959
0.460111
0.287566
0.489811
0.488378
0.46254
0.476525
0.381488
0.423258
0.458263
0.390226
0.433334
0.349778
0.356653
0.285478
0.283288
0.497075
0.401016
0.423589
0.478425
0.493599
0.42561
0.428571
0.364226
0.274906
0.496823
0.43969
0.496949
0.424494
0.424709
0.418804
0.383864
0.279939
0.275742
0.499155
0.427577
0.491687
0.426789
0.430795
0.463897
0.430476
0.302016
0.298905
0.359579
0.476133
0.477602
0.432134
0.431964
0.431978
0.432719
0.447521
0.451144
0.383741
0.322789
0.438392
0.486933
0.280125
0.428322
0.425464
0.491579
0.424049
0.432721
0.48434
0.424415
0.482184
0.368026
0.489592
0.434565
0.431884
0.29183
0.430345
0.43235
0.498085
0.420905
0.498414
0.427028
0.393205
0.487467
0.431772
0.423227
0.419823
0.425515
0.42025
0.431466
0.282764
0.423521
0.418359
0.425587
0.43077
0.430578
0.428705
0.433538
0.425306
0.325223
0.371636
0.425185
0.487743
0.296749
0.421554
0.429133
0.482768
0.486229
0.274347
0.430604
0.355714
0.476282
0.487152
0.35559
0.433042
0.306091
0.425096
0.485207
0.498794
0.433639
0.278338
0.472841
0.459946
0.358231
0.42451
0.369155
0.455331
0.29762
0.431636
0.436764
0.430895
0.430836
0.33292
0.40385
0.456673
0.383122
0.425008
0.419367
0.427698
0.436794
0.499078
0.304837
0.429902
0.431177
0.292035
0.430413
0.453492
0.383008
0.279592
0.334934
0.418796
0.431272
0.46279
0.493313
0.385244
0.429803
0.431703
0.431345
0.429347
0.465379
0.388954
0.493874
0.429371
0.431118
0.430644
0.485336
0.419219
0.487553
0.436302
0.42977
0.426675
0.431302
0.276026
0.497419
0.497484
0.432978
0.431688
0.427518
0.371976
0.435661
0.43871
0.34153
0.423961
0.381064
0.497415
0.427591
0.333954
0.432508
0.424931
0.426994
0.496945
0.424032
0.4969
0.42552
0.426308
0.302501
0.291211
0.433301
0.426815
0.427734
0.403053
0.431386
0.485565
0.427806
0.421163
0.432793
0.435583
0.430072
0.282742
0.425401
0.427113
0.427026
0.274556
0.42794
0.488255
0.429338
0.427119
0.424784
0.427336
0.431517
0.42802
0.396393
0.433054
0.456926
0.41773
0.488363
0.302688
0.394727
0.389529
0.391356
0.43466
0.428161
0.418807
0.42722
0.399646
0.431006
0.431815
0.428234
0.393663
0.29712
0.344036
0.275882
0.468852
0.431497
0.430748
0.427321
0.42516
0.430747
0.434577
0.331244
0.495162
0.494755
0.295798
0.424922
0.332475
0.356406
0.293843
0.341861
0.428369
0.336817
0.428454
0.432637
0.432761
0.305136
0.431398
0.497237
0.424444
0.303141
0.488124
0.497979
0.462984
0.421036
0.339462
0.39726
0.432525
0.432552
0.496436
0.427454
0.429157
0.497118
0.277029
0.453525
0.426771
0.495731
0.336867
0.409722
0.430641
0.43198
0.356398
0.419826
0.432702
0.427044
0.427352
0.386922
0.495613
0.451929
0.28285
0.432462
0.356863
0.350094
0.274464
0.429183
0.498081
0.303933
0.427564
0.483989
0.499011
0.494626
0.496181
0.275245
0.496711
0.497168
0.381366
0.496349
0.433684
0.426793
0.427332
0.43191
0.38931
0.350367
0.427399
0.431002
0.424535
0.424432
0.486637
0.346239
0.496122
0.430787
0.486203
0.494462
0.495952
0.413095
0.33952
0.427431
0.274927
0.432446
0.292058
0.435695
0.495903
0.3245
0.455427
0.425438
0.428648
0.293094
0.430065
0.427541
0.419882
0.487636
0.43222
0.449914
0.402753
0.415478
0.495194
0.274517
0.306647
0.430692
0.408746
0.453326
0.453318
0.351025
0.495425
0.431246
0.464541
0.326994
0.308408
0.34682
0.297183
0.494947
0.435498
0.344376
0.432397
0.492839
0.435528
0.36607
0.43398
0.433399
0.291048
0.459996
0.430593
0.274291
0.433618
0.302472
0.432869
0.430305
0.274872
0.429782
0.433263
0.281048
0.4857
0.435353
0.494356
0.426884
0.433567
0.428881
0.426677
0.498597
0.497117
0.494117
0.421713
0.448202
0.460142
0.333897
0.494571
0.497363
0.274517
0.348732
0.273634
0.427864
0.433405
0.496963
0.433637
0.492445
0.494439
0.433228
0.492139
0.494693
0.336612
0.427579
0.432946
0.274696
0.493793
0.29311
0.347943
0.497185
0.310121
0.430049
0.494113
0.274267
0.274633
0.495384
0.494337
0.431834
0.495049
0.430589
0.444736
0.430299
0.341994
0.336958
0.346701
0.431627
0.431132
0.49509
0.321766
0.427743
0.348932
0.49437
0.494727
0.494053
0.494685
0.428791
0.493474
0.462812
0.493156
0.493739
0.489251
0.433122
0.489638
0.279254
0.427953
0.28053
0.463013
0.283735
0.353243
0.275993
0.274602
0.441489
0.441596
0.496444
0.430814
0.493426
0.430703
0.357813
0.458915
0.434743
0.430447
0.496624
0.430143
0.445931
0.274581
0.493114
0.441939
0.441826
0.317127
0.48869
0.430536
0.430295
0.280903
0.451491
0.451474
0.432501
0.344417
0.34898
0.308197
0.274658
0.497013
0.435853
0.432031
0.424636
0.274127
0.275409
0.434262
0.430438
0.419824
0.279775
0.321551
0.321653
0.324677
0.43009
0.274365
0.391166
0.430853
0.277366
0.426906
0.491567
0.430484
0.431735
0.383529
0.355428
0.433422
0.275974
0.464926
0.430157
0.427436
0.477059
0.479369
0.427438
0.435129
0.469321
0.283592
0.427708
0.431813
0.359205
0.277754
0.43353
0.49262
0.4302
0.430446
0.427499
0.427658
0.433521
0.428925
0.425914
0.281683
0.274697
0.492663
0.280084
0.43387
0.458274
0.49667
0.497427
0.41349
0.407248
0.434495
0.430338
0.436183
0.421103
0.491909
0.429811
0.427432
0.434387
0.274654
0.433872
0.494897
0.429716
0.427483
0.311471
0.496514
0.430677
0.430343
0.316715
0.316072
0.354434
0.430465
0.491217
0.43421
0.418975
0.422375
0.276747
0.279173
0.424217
0.429879
0.491733
0.282672
0.428158
0.289816
0.275561
0.432811
0.496652
0.428162
0.496648
0.422227
0.422212
0.418359
0.496361
0.424111
0.436
0.430147
0.424095
0.311707
0.418934
0.476852
0.376944
0.496568
0.283728
0.357306
0.494427
0.497077
0.432325
0.491962
0.494302
0.491153
0.432031
0.287907
0.283677
0.424324
0.496354
0.331778
0.43097
0.379793
0.478559
0.431562
0.346621
0.425991
0.434292
0.425549
0.433851
0.430302
0.494105
0.431503
0.430188
0.427461
0.496617
0.428071
0.476982
0.361232
0.427373
0.280734
0.428884
0.463885
0.282837
0.495294
0.467721
0.470343
0.430325
0.363052
0.43425
0.290933
0.273769
0.288796
0.434929
0.429668
0.425403
0.42898
0.273556
0.490794
0.430207
0.428725
0.277801
0.274155
0.431644
0.487127
0.496386
0.429571
0.431324
0.280931
0.430242
0.37974
0.28246
0.432399
0.428362
0.412241
0.434925
0.276175
0.432117
0.496966
0.474341
0.429436
0.475221
0.434805
0.489104
0.43391
0.496513
0.490315
0.28332
0.419465
0.419795
0.490368
0.493174
0.428766
0.36652
0.431356
0.489939
0.431454
0.276399
0.488341
0.433843
0.429956
0.274264
0.276526
0.429944
0.280113
0.355242
0.273993
0.323369
0.323043
0.357362
0.353287
0.428276
0.275824
0.496495
0.428132
0.497382
0.433249
0.28357
0.430551
0.432561
0.430368
0.273973
0.433558
0.495214
0.431194
0.430699
0.467874
0.434009
0.277717
0.281971
0.443387
0.443429
0.433277
0.495344
0.277778
0.430879
0.496264
0.433995
0.434543
0.425309
0.424042
0.497206
0.461972
0.304925
0.286894
0.432634
0.276429
0.430352
0.28781
0.394644
0.433203
0.428001
0.431331
0.431828
0.425975
0.425984
0.30421
0.496926
0.282874
0.497292
0.430406
0.43383
0.492522
0.434434
0.489891
0.4243
0.297368
0.281243
0.49266
0.365009
0.492928
0.431988
0.432156
0.280874
0.49663
0.491795
0.335617
0.432349
0.284662
0.27435
0.428495
0.492391
0.285438
0.381697
0.310672
0.274336
0.476017
0.427762
0.477679
0.474232
0.42801
0.425832
0.425819
0.284211
0.427783
0.433547
0.433641
0.274508
0.42559
0.430824
0.343008
0.280562
0.431473
0.427558
0.431248
0.433109
0.432428
0.433926
0.427289
0.497116
0.427282
0.412157
0.423796
0.428948
0.42923
0.428008
0.279546
0.431168
0.42323
0.423312
0.490157
0.432116
0.429644
0.49816
0.431732
0.425088
0.430547
0.429365
0.489505
0.325766
0.429449
0.326279
0.490735
0.4235
0.283441
0.480577
0.419187
0.419211
0.433512
0.432858
0.383463
0.43418
0.432259
0.496377
0.404856
0.404821
0.312453
0.433541
0.427917
0.432576
0.370415
0.433871
0.432202
0.428325
0.428821
0.432979
0.468838
0.470171
0.377835
0.432381
0.4305
0.433244
0.344366
0.341605
0.341809
0.425615
0.4308
0.431923
0.432898
0.434193
0.425846
0.289692
0.425855
0.425413
0.43317
0.306843
0.431268
0.381461
0.432705
0.411365
0.411261
0.429591
0.492398
0.431624
0.27656
0.496307
0.433847
0.274153
0.420797
0.497118
0.491839
0.424003
0.283631
0.314722
0.319676
0.4208
0.429548
0.431937
0.426243
0.425167
0.423467
0.433481
0.426235
0.422869
0.423255
0.424572
0.432799
0.425808
0.431674
0.279006
0.423529
0.493445
0.492126
0.429303
0.431068
0.424641
0.430889
0.432721
0.431162
0.281632
0.423338
0.43241
0.432376
0.43188
0.432901
0.432485
0.431302
0.304072
0.407294
0.407228
0.432051
0.430892
0.432352
0.492289
0.287686
0.431046
0.427328
0.433188
0.428127
0.309271
0.49241
0.429445
0.274546
0.487836
0.431886
0.297708
0.431602
0.331361
0.422735
0.276123
0.276258
0.331285
0.331339
0.427273
0.430628
0.496764
0.496806
0.325815
0.43217
0.433781
0.370469
0.382713
0.428113
0.27957
0.430916
0.430567
0.477794
0.27422
0.283226
0.366793
0.432948
0.432674
0.432406
0.432696
0.498206
0.42945
0.429679
0.429909
0.432095
0.429222
0.43225
0.43101
0.411287
0.492804
0.460547
0.497068
0.431443
0.430648
0.432832
0.430655
0.417697
0.43028
0.42908
0.425174
0.430954
0.43045
0.429595
0.497789
0.429676
0.415929
0.490537
0.40316
0.407861
0.497138
0.429912
0.433432
0.492192
0.274153
0.431949
0.48907
0.429887
0.496432
0.429545
0.430034
0.2854
0.496692
0.488631
0.490095
0.399052
0.399103
0.429398
0.286131
0.49791
0.430779
0.498709
0.354809
0.431496
0.430381
0.279964
0.381525
0.489464
0.415109
0.278918
0.498617
0.277407
0.499373
0.499337
0.498552
0.276443
0.428113
0.498282
0.430336
0.496851
0.494087
0.431279
0.4335
0.473287
0.284229
0.285369
0.498001
0.362993
0.429907
0.287582
0.28565
0.284972
0.430143
0.46936
0.276944
0.293458
0.487972
0.498202
0.432279
0.462044
0.42967
0.314561
0.499011
0.498979
0.492142
0.430995
0.491989
0.431311
0.287145
0.427151
0.427161
0.429249
0.496767
0.431694
0.497208
0.497757
0.4319
0.277384
0.433868
0.433543
0.274148
0.279501
0.278228
0.374169
0.430058
0.491742
0.469431
0.430206
0.429811
0.430166
0.428597
0.430224
0.498462
0.42563
0.497885
0.275483
0.46326
0.429316
0.322736
0.323007
0.491422
0.426922
0.494199
0.430625
0.429654
0.429575
0.425913
0.425922
0.430642
0.430499
0.432066
0.4964
0.34168
0.430053
0.428682
0.430311
0.344201
0.344073
0.432135
0.431207
0.429545
0.432562
0.430351
0.495621
0.43222
0.368451
0.496294
0.351084
0.350972
0.430205
0.427616
0.431382
0.429136
0.403447
0.40346
0.383277
0.412213
0.412108
0.278952
0.428483
0.4975
0.370562
0.429089
0.429747
0.479982
0.428995
0.418795
0.418818
0.423069
0.42311
0.426271
0.430741
0.421031
0.425449
0.425385
0.496288
0.428908
0.424127
0.48682
0.429775
0.414414
0.414445
0.426241
0.42897
0.426338
0.421704
0.421691
0.430379
0.428423
0.425021
0.433969
0.426351
0.274298
0.430785
0.444235
0.497541
0.430007
0.401612
0.428923
0.498192
0.498152
0.498008
0.433485
0.495465
0.493166
0.42361
0.49781
0.36968
0.489034
0.493879
0.497874
0.430018
0.43158
0.431971
0.362686
0.433228
0.434057
0.496904
0.274463
0.274491
0.429171
0.43261
0.422496
0.488321
0.428496
0.429435
0.491294
0.491978
0.433849
0.496059
0.496161
0.432977
0.491105
0.282564
0.284549
0.494087
0.42173
0.370576
0.46467
0.276124
0.497561
0.497753
0.432193
0.496575
0.497197
0.487673
0.430031
0.273817
0.427465
0.496255
0.458993
0.482292
0.496753
0.429459
0.497116
0.277303
0.429373
0.274597
0.42524
0.42893
0.497521
0.273919
0.274102
0.431767
0.417208
0.490974
0.496157
0.48802
0.429921
0.275434
0.428774
0.493615
0.432441
0.497273
0.495832
0.495488
0.429903
0.41444
0.430486
0.49615
0.429411
0.497071
0.429752
0.48163
0.493753
0.431159
0.488282
0.408387
0.408277
0.495121
0.49392
0.496148
0.495848
0.487385
0.496558
0.496751
0.47255
0.431118
0.426668
0.496319
0.496934
0.431518
0.429002
0.429971
0.424742
0.429866
0.492661
0.397459
0.397464
0.497418
0.497796
0.299108
0.497859
0.494905
0.433149
0.42857
0.427915
0.494354
0.495272
0.43322
0.496065
0.496635
0.487731
0.468177
0.494171
0.497075
0.491849
0.496792
0.377818
0.429024
0.481645
0.429541
0.496464
0.496311
0.476088
0.428945
0.429296
0.428681
0.495684
0.4855
0.496726
0.283202
0.360998
0.428726
0.497845
0.492951
0.377762
0.429325
0.493948
0.495941
0.496206
0.333881
0.333918
0.433617
0.424508
0.496377
0.292044
0.427387
0.494997
0.470572
0.42994
0.311967
0.496051
0.427361
0.288225
0.495324
0.426955
0.49156
0.428627
0.432206
0.496612
0.497691
0.428847
0.42884
0.427123
0.493667
0.496683
0.433088
0.496831
0.492585
0.37606
0.493918
0.429218
0.43197
0.49473
0.306207
0.42928
0.495276
0.428486
0.496732
0.497049
0.476706
0.425749
0.426694
0.430069
0.433443
0.425756
0.433533
0.496393
0.429077
0.4942
0.496217
0.495766
0.493201
0.496167
0.430975
0.496578
0.31983
0.49613
0.311555
0.496146
0.492707
0.491388
0.497203
0.492182
0.429923
0.353152
0.353087
0.42968
0.430698
0.496845
0.279759
0.278366
0.423673
0.423415
0.494716
0.496263
0.494941
0.43081
0.49068
0.496156
0.427467
0.372344
0.495103
0.496021
0.429993
0.496679
0.276144
0.286824
0.497724
0.496828
0.496793
0.374101
0.492913
0.49633
0.49394
0.465816
0.467108
0.498643
0.492493
0.496013
0.328296
0.415056
0.415088
0.428229
0.372387
0.493425
0.494273
0.491625
0.491565
0.494015
0.474222
0.496051
0.426781
0.282451
0.493978
0.494306
0.496874
0.428547
0.49346
0.495802
0.429446
0.421898
0.42188
0.466125
0.492326
0.496469
0.493682
0.429796
0.425296
0.494195
0.405524
0.497174
0.488741
0.492975
0.428769
0.491034
0.431859
0.429379
0.492708
0.496805
0.428717
0.430896
0.428806
0.490741
0.493565
0.487453
0.491637
0.495946
0.495909
0.493228
0.493872
0.493675
0.425615
0.492094
0.495919
0.491781
0.424722
0.496527
0.496719
0.487023
0.495737
0.493472
0.495741
0.359181
0.496866
0.493744
0.49239
0.492689
0.495438
0.426821
0.49703
0.431433
0.430549
0.494854
0.494571
0.494293
0.491836
0.496032
0.493208
0.496652
0.493829
0.430067
0.494018
0.429341
0.42725
0.427495
0.428862
0.496078
0.49125
0.495141
0.427937
0.492943
0.492985
0.492432
0.490029
0.494116
0.493283
0.427042
0.491888
0.487524
0.493849
0.49034
0.427475
0.496678
0.424484
0.49659
0.494314
0.49702
0.475139
0.491312
0.274656
0.274059
0.43298
0.487482
0.491411
0.49301
0.427258
0.426827
0.496992
0.492773
0.496363
0.489885
0.491049
0.495556
0.495052
0.495021
0.494304
0.493
0.491544
0.492514
0.423319
0.496685
0.420524
0.279034
0.42769
0.42807
0.427035
0.428543
0.423333
0.493388
0.420535
0.492463
0.482269
0.486265
0.490961
0.492115
0.492788
0.42936
0.478979
0.496693
0.494905
0.491535
0.479
0.490701
0.4715
0.428636
0.496018
0.492205
0.432633
0.496254
0.370088
0.434463
0.495918
0.48663
0.496092
0.49158
0.360138
0.430713
0.496587
0.466869
0.490635
0.493219
0.491498
0.493497
0.491161
0.496076
0.489647
0.284578
0.494534
0.428643
0.428225
0.429798
0.479663
0.490144
0.496441
0.491255
0.492475
0.491841
0.497094
0.490938
0.464773
0.489363
0.490604
0.277376
0.467193
0.491128
0.495708
0.4251
0.490407
0.487999
0.487109
0.428357
0.491546
0.431046
0.431724
0.429847
0.490437
0.493337
0.489267
0.495298
0.493283
0.436413
0.496633
0.430336
0.491839
0.429689
0.497437
0.427194
0.496019
0.490976
0.496444
0.49714
0.490183
0.42587
0.495645
0.428119
0.49216
0.428852
0.430211
0.429154
0.489704
0.426526
0.496172
0.433732
0.486139
0.493428
0.428411
0.49081
0.49035
0.496896
0.495565
0.401111
0.428319
0.425766
0.428237
0.490426
0.494134
0.494082
0.42813
0.491062
0.491887
0.42576
0.421286
0.322329
0.31008
0.489741
0.440112
0.429353
0.279982
0.278364
0.4237
0.48948
0.423665
0.492764
0.489956
0.488983
0.495876
0.489686
0.487926
0.442552
0.431933
0.285374
0.488236
0.427294
0.488538
0.492451
0.428455
0.49471
0.465728
0.430087
0.468102
0.428857
0.428042
0.448849
0.372438
0.445005
0.489338
0.430673
0.426269
0.430356
0.495144
0.442628
0.427874
0.281825
0.427338
0.492053
0.426608
0.431764
0.492266
0.429467
0.491203
0.495691
0.427873
0.425313
0.428096
0.405971
0.487866
0.48928
0.430498
0.492125
0.494598
0.446655
0.427964
0.359541
0.427841
0.426924
0.486283
0.423671
0.427133
0.489196
0.497653
0.490954
0.426613
0.427062
0.426395
0.498177
0.428829
0.426566
0.493642
0.426399
0.489667
0.42774
0.426685
0.474185
0.488603
0.274074
0.274653
0.451813
0.453747
0.489193
0.484998
0.428187
0.426559
0.385523
0.385312
0.453845
0.49642
0.279567
0.493662
0.491583
0.489247
0.494038
0.493496
0.455705
0.428062
0.426005
0.490628
0.426338
0.486675
0.492728
0.427139
0.486899
0.427169
0.427974
0.485939
0.438317
0.488952