# vtk DataFile Version 1.0
unstructured grid
ascii
DATASET UNSTRUCTURED_GRID
points 8094 float
-0.25 0.0574735 0
0.5 0.0546937 0
0.5 -0.0546937 0
-0.25 -0.0574735 0
-0.25 0.0574735 0.01
0.5 0.0546937 0.01
0.5 -0.0546937 0.01
-0.25 -0.0574735 0.01
-0.246045 0.0569295 0
-0.242089 0.0563854 0
-0.238136 0.0558289 0
-0.234184 0.0552582 0
-0.230232 0.0546875 0
-0.226284 0.0540912 0
-0.222337 0.0534933 0
-0.218391 0.0528841 0
-0.214448 0.0522585 0
-0.210504 0.0516328 0
-0.206565 0.0509829 0
-0.202626 0.0503294 0
-0.198689 0.0496667 0
-0.194755 0.0489856 0
-0.190821 0.0483046 0
-0.18689 0.0476022 0
-0.182961 0.0468942 0
-0.179033 0.0461799 0
-0.175108 0.0454463 0
-0.171183 0.0447127 0
-0.167262 0.0439627 0
-0.163342 0.0432056 0
-0.159422 0.0424455 0
-0.155506 0.041668 0
-0.15159 0.0408904 0
-0.147675 0.0401031 0
-0.143762 0.0393092 0
-0.13985 0.0385149 0
-0.135939 0.0377103 0
-0.132028 0.0369056 0
-0.128117 0.0361005 0
-0.124207 0.0352949 0
-0.120296 0.0344893 0
-0.116386 0.0336836 0
-0.112475 0.032878 0
-0.108563 0.0320794 0
-0.104649 0.0312931 0
-0.100735 0.0305068 0
-0.0968152 0.029745 0
-0.0928949 0.0289889 0
-0.0889722 0.0282446 0
-0.0850433 0.0275341 0
-0.0811144 0.0268235 0
-0.0771778 0.0261578 0
-0.0732381 0.0255098 0
-0.0692962 0.0248759 0
-0.0653442 0.0243073 0
-0.0613923 0.0237386 0
-0.0574324 0.0232306 0
-0.0534681 0.0227556 0
-0.0495024 0.0222934 0
-0.0455272 0.0219207 0
-0.041552 0.0215481 0
-0.0375717 0.0212385 0
-0.0335881 0.0209694 0
-0.029604 0.0207098 0
-0.0256151 0.0205369 0
-0.0216262 0.0203639 0
-0.0176357 0.0202396 0
-0.0136441 0.0201487 0
-0.00965243 0.0200635 0
-0.00565987 0.0200372 0
-0.00166732 0.020011 0
0.00232526 0.0200121 0
0.00631785 0.0200329 0
0.0103104 0.0200563 0
0.0143027 0.0201109 0
0.018295 0.0201654 0
0.022287 0.0202345 0
0.0262788 0.0203144 0
0.0302706 0.0203957 0
0.034262 0.0204956 0
0.0382534 0.0205955 0
0.0422446 0.0207045 0
0.0462355 0.0208207 0
0.0502265 0.0209377 0
0.054217 0.0210676 0
0.0582075 0.0211975 0
0.0621978 0.0213339 0
0.0661879 0.0214757 0
0.0701781 0.021618 0
0.0741678 0.0217703 0
0.0781575 0.0219227 0
0.0821471 0.0220801 0
0.0861364 0.022242 0
0.0901258 0.0224041 0
0.0941148 0.0225747 0
0.0981038 0.0227453 0
0.102093 0.0229202 0
0.106081 0.023099 0
0.11007 0.0232779 0
0.114058 0.0234644 0
0.118046 0.0236509 0
0.122035 0.0238411 0
0.126022 0.024035 0
0.13001 0.0242288 0
0.133998 0.0244298 0
0.137986 0.0246308 0
0.141973 0.0248352 0
0.14596 0.025043 0
0.149947 0.0252509 0
0.153934 0.0254654 0
0.157921 0.02568 0
0.161908 0.0258978 0
0.165894 0.026119 0
0.169881 0.0263402 0
0.173867 0.0265678 0
0.177853 0.0267956 0
0.181839 0.0270264 0
0.185825 0.0272607 0
0.189811 0.0274951 0
0.193796 0.0277356 0
0.197781 0.0279764 0
0.201767 0.02822 0
0.205752 0.0284673 0
0.209737 0.0287146 0
0.213721 0.0289679 0
0.217706 0.0292217 0
0.22169 0.0294782 0
0.225674 0.0297385 0
0.229658 0.0299988 0
0.233642 0.0302651 0
0.237626 0.0305319 0
0.241609 0.0308014 0
0.245593 0.0310748 0
0.249576 0.0313482 0
0.253559 0.0316276 0
0.257542 0.0319077 0
0.261524 0.0321904 0
0.265507 0.0324772 0
0.269489 0.032764 0
0.273471 0.0330568 0
0.277453 0.0333504 0
0.281434 0.0336466 0
0.285416 0.0339471 0
0.289397 0.0342476 0
0.293378 0.034554 0
0.297359 0.0348615 0
0.301339 0.0351714 0
0.305319 0.0354859 0
0.3093 0.0358005 0
0.313279 0.036121 0
0.317259 0.0364427 0
0.321239 0.0367667 0
0.325218 0.0370957 0
0.329197 0.0374248 0
0.333175 0.0377597 0
0.337154 0.0380961 0
0.341132 0.0384347 0
0.34511 0.0387786 0
0.349088 0.0391226 0
0.353065 0.0394724 0
0.357042 0.0398239 0
0.361019 0.0401775 0
0.364995 0.0405368 0
0.368972 0.0408961 0
0.372948 0.0412613 0
0.376924 0.0416285 0
0.380899 0.0419975 0
0.384874 0.0423727 0
0.388849 0.0427479 0
0.392823 0.0431289 0
0.396798 0.0435123 0
0.400772 0.0438973 0
0.404745 0.044289 0
0.408718 0.0446807 0
0.412691 0.0450781 0
0.416664 0.0454782 0
0.420636 0.0458797 0
0.424608 0.0462883 0
0.42858 0.046697 0
0.432551 0.0471114 0
0.436521 0.0475289 0
0.440492 0.0479474 0
0.444462 0.0483738 0
0.448432 0.0488001 0
0.452401 0.0492319 0
0.45637 0.0496673 0
0.460338 0.0501035 0
0.464306 0.0505482 0
0.468274 0.0509928 0
0.472241 0.0514427 0
0.476208 0.0518968 0
0.480175 0.0523512 0
0.48414 0.0528148 0
0.488106 0.0532784 0
0.492071 0.0537471 0
0.496036 0.0542204 0
0.5 0.050787 0
0.5 0.0468803 0
0.5 0.0429736 0
0.5 0.0390669 0
0.5 0.0351602 0
0.5 0.0312535 0
0.5 0.0273468 0
0.5 0.0234402 0
0.5 0.0195335 0
0.5 0.0156268 0
0.5 0.0117201 0
0.5 0.00781339 0
0.5 0.00390669 0
0.5 1.43781e-13 0
0.5 -0.00390669 0
0.5 -0.00781339 0
0.5 -0.0117201 0
0.5 -0.0156268 0
0.5 -0.0195335 0
0.5 -0.0234402 0
0.5 -0.0273468 0
0.5 -0.0312535 0
0.5 -0.0351602 0
0.5 -0.0390669 0
0.5 -0.0429736 0
0.5 -0.0468803 0
0.5 -0.050787 0
0.496036 -0.0542204 0
0.492071 -0.0537471 0
0.488106 -0.0532784 0
0.48414 -0.0528148 0
0.480175 -0.0523512 0
0.476208 -0.0518968 0
0.472241 -0.0514427 0
0.468274 -0.0509928 0
0.464306 -0.0505482 0
0.460338 -0.0501035 0
0.45637 -0.0496673 0
0.452401 -0.0492319 0
0.448432 -0.0488001 0
0.444462 -0.0483738 0
0.440492 -0.0479474 0
0.436521 -0.0475289 0
0.432551 -0.0471114 0
0.42858 -0.046697 0
0.424608 -0.0462883 0
0.420636 -0.0458797 0
0.416664 -0.0454782 0
0.412691 -0.0450781 0
0.408718 -0.0446807 0
0.404745 -0.044289 0
0.400772 -0.0438973 0
0.396798 -0.0435123 0
0.392823 -0.0431289 0
0.388849 -0.0427479 0
0.384874 -0.0423727 0
0.380899 -0.0419975 0
0.376924 -0.0416285 0
0.372948 -0.0412613 0
0.368972 -0.0408961 0
0.364995 -0.0405368 0
0.361019 -0.0401775 0
0.357042 -0.0398239 0
0.353065 -0.0394724 0
0.349088 -0.0391226 0
0.34511 -0.0387786 0
0.341132 -0.0384347 0
0.337154 -0.0380961 0
0.333175 -0.0377597 0
0.329197 -0.0374248 0
0.325218 -0.0370957 0
0.321239 -0.0367667 0
0.317259 -0.0364427 0
0.313279 -0.036121 0
0.3093 -0.0358005 0
0.305319 -0.0354859 0
0.301339 -0.0351714 0
0.297359 -0.0348615 0
0.293378 -0.034554 0
0.289397 -0.0342476 0
0.285416 -0.0339471 0
0.281434 -0.0336466 0
0.277453 -0.0333504 0
0.273471 -0.0330568 0
0.269489 -0.032764 0
0.265507 -0.0324772 0
0.261524 -0.0321904 0
0.257542 -0.0319077 0
0.253559 -0.0316276 0
0.249576 -0.0313482 0
0.245593 -0.0310748 0
0.241609 -0.0308014 0
0.237626 -0.0305319 0
0.233642 -0.0302651 0
0.229658 -0.0299988 0
0.225674 -0.0297385 0
0.22169 -0.0294782 0
0.217706 -0.0292217 0
0.213721 -0.0289679 0
0.209737 -0.0287146 0
0.205752 -0.0284673 0
0.201767 -0.02822 0
0.197781 -0.0279764 0
0.193796 -0.0277356 0
0.189811 -0.0274951 0
0.185825 -0.0272607 0
0.181839 -0.0270264 0
0.177853 -0.0267956 0
0.173867 -0.0265678 0
0.169881 -0.0263402 0
0.165894 -0.026119 0
0.161908 -0.0258978 0
0.157921 -0.02568 0
0.153934 -0.0254654 0
0.149947 -0.0252509 0
0.14596 -0.025043 0
0.141973 -0.0248352 0
0.137986 -0.0246308 0
0.133998 -0.0244298 0
0.13001 -0.0242288 0
0.126022 -0.024035 0
0.122035 -0.0238411 0
0.118046 -0.0236509 0
0.114058 -0.0234644 0
0.11007 -0.0232779 0
0.106081 -0.023099 0
0.102093 -0.0229202 0
0.0981038 -0.0227453 0
0.0941148 -0.0225747 0
0.0901258 -0.0224041 0
0.0861364 -0.022242 0
0.0821471 -0.0220801 0
0.0781575 -0.0219227 0
0.0741678 -0.0217703 0
0.0701781 -0.021618 0
0.0661879 -0.0214757 0
0.0621978 -0.0213339 0
0.0582075 -0.0211975 0
0.054217 -0.0210676 0
0.0502265 -0.0209377 0
0.0462355 -0.0208207 0
0.0422446 -0.0207045 0
0.0382534 -0.0205955 0
0.034262 -0.0204956 0
0.0302706 -0.0203957 0
0.0262788 -0.0203144 0
0.022287 -0.0202345 0
0.018295 -0.0201654 0
0.0143027 -0.0201109 0
0.0103104 -0.0200563 0
0.00631785 -0.0200329 0
0.00232526 -0.0200121 0
-0.00166732 -0.020011 0
-0.00565987 -0.0200372 0
-0.00965243 -0.0200635 0
-0.0136441 -0.0201487 0
-0.0176357 -0.0202396 0
-0.0216262 -0.0203639 0
-0.0256151 -0.0205369 0
-0.029604 -0.0207098 0
-0.0335881 -0.0209694 0
-0.0375717 -0.0212385 0
-0.041552 -0.0215481 0
-0.0455272 -0.0219207 0
-0.0495024 -0.0222934 0
-0.0534681 -0.0227556 0
-0.0574324 -0.0232306 0
-0.0613923 -0.0237386 0
-0.0653442 -0.0243073 0
-0.0692962 -0.0248759 0
-0.0732381 -0.0255098 0
-0.0771778 -0.0261578 0
-0.0811144 -0.0268235 0
-0.0850433 -0.0275341 0
-0.0889722 -0.0282446 0
-0.0928949 -0.0289889 0
-0.0968152 -0.029745 0
-0.100735 -0.0305068 0
-0.104649 -0.0312931 0
-0.108563 -0.0320794 0
-0.112475 -0.032878 0
-0.116386 -0.0336836 0
-0.120296 -0.0344893 0
-0.124207 -0.0352949 0
-0.128117 -0.0361005 0
-0.132028 -0.0369056 0
-0.135939 -0.0377103 0
-0.13985 -0.0385149 0
-0.143762 -0.0393092 0
-0.147675 -0.0401031 0
-0.15159 -0.0408904 0
-0.155506 -0.041668 0
-0.159422 -0.0424455 0
-0.163342 -0.0432056 0
-0.167262 -0.0439627 0
-0.171183 -0.0447127 0
-0.175108 -0.0454463 0
-0.179033 -0.0461799 0
-0.182961 -0.0468942 0
-0.18689 -0.0476022 0
-0.190821 -0.0483046 0
-0.194755 -0.0489856 0
-0.198689 -0.0496667 0
-0.202626 -0.0503294 0
-0.206565 -0.0509829 0
-0.210504 -0.0516328 0
-0.214448 -0.0522585 0
-0.218391 -0.0528841 0
-0.222337 -0.0534933 0
-0.226284 -0.0540912 0
-0.230232 -0.0546875 0
-0.234184 -0.0552582 0
-0.238136 -0.0558289 0
-0.242089 -0.0563854 0
-0.246045 -0.0569295 0
-0.25 -0.0535098 0
-0.25 -0.0495461 0
-0.25 -0.0455824 0
-0.25 -0.0416187 0
-0.25 -0.0376551 0
-0.25 -0.0336914 0
-0.25 -0.0297277 0
-0.25 -0.025764 0
-0.25 -0.0218003 0
-0.25 -0.0178366 0
-0.25 -0.0138729 0
-0.25 -0.00990922 0
-0.25 -0.00594553 0
-0.25 -0.00198184 0
-0.25 0.00198184 0
-0.25 0.00594553 0
-0.25 0.00990922 0
-0.25 0.0138729 0
-0.25 0.0178366 0
-0.25 0.0218003 0
-0.25 0.025764 0
-0.25 0.0297277 0
-0.25 0.0336914 0
-0.25 0.0376551 0
-0.25 0.0416187 0
-0.25 0.0455824 0
-0.25 0.0495461 0
-0.25 0.0535098 0
-0.246045 0.0569295 0.01
-0.242089 0.0563854 0.01
-0.238136 0.0558289 0.01
-0.234184 0.0552582 0.01
-0.230232 0.0546875 0.01
-0.226284 0.0540912 0.01
-0.222337 0.0534933 0.01
-0.218391 0.0528841 0.01
-0.214448 0.0522585 0.01
-0.210504 0.0516328 0.01
-0.206565 0.0509829 0.01
-0.202626 0.0503294 0.01
-0.198689 0.0496667 0.01
-0.194755 0.0489856 0.01
-0.190821 0.0483046 0.01
-0.18689 0.0476022 0.01
-0.182961 0.0468942 0.01
-0.179033 0.0461799 0.01
-0.175108 0.0454463 0.01
-0.171183 0.0447127 0.01
-0.167262 0.0439627 0.01
[...]
CELL_DATA 7657
SCALARS rho float
LOOKUP_TABLE default
0.469516
0.400874
0.502568
0.500063
0.494498
0.500481
0.473674
0.500621
0.424772
0.501536
0.501591
0.50076
0.449319
0.500682
0.493016
0.483784
0.492786
0.502848
0.502835
0.499876
0.491566
0.502851
0.403667
0.502849
0.502485
0.501441
0.500027
0.443784
0.498668
0.500679
0.48417
0.502477
0.40619
0.467326
0.46785
0.483932
0.500576
0.403475
0.472914
0.495276
0.502552
0.427806
0.500169
0.500409
0.502564
0.502599
0.474268
0.500507
0.502502
0.469053
0.500325
0.500049
0.498787
0.499369
0.474831
0.500769
0.492061
0.488597
0.445538
0.48505
0.502487
0.502529
0.502361
0.502336
0.502097
0.502105
0.450552
0.500938
0.500596
0.442483
0.502678
0.447856
0.500057
0.49885
0.466022
0.500423
0.502863
0.500403
0.465427
0.448304
0.406542
0.500549
0.499907
0.502589
0.502664
0.44978
0.502633
0.441629
0.501401
0.500011
0.502116
0.502146
0.446967
0.500067
0.494685
0.45224
0.451107
0.401619
0.50251
0.49453
0.502882
0.502732
0.400479
0.49058
0.473063
0.416758
0.49096
0.500978
0.446806
0.490404
0.484872
0.501011
0.500174
0.499894
0.502747
0.433122
0.501091
0.495685
0.482976
0.500593
0.502745
0.502734
0.491342
0.400571
0.500148
0.500688
0.500838
0.500174
0.500861
0.500179
0.500149
0.502817
0.500778
0.500116
0.499917
0.489927
0.484315
0.405566
0.502823
0.50281
0.490759
0.499556
0.496198
0.49545
0.50286
0.49119
0.408453
0.400026
0.502475
0.490406
0.498228
0.500673
0.405008
0.500198
0.491468
0.401321
0.500944
0.502852
0.499907
0.489163
0.502854
0.488174
0.501483
0.43213
0.502276
0.400615
0.472924
0.500215
0.502743
0.48335
0.502544
0.413541
0.502831
0.498042
0.48074
0.482863
0.500146
0.452308
0.500184
0.496595
0.495364
0.445623
0.502777
0.502721
0.45212
0.444007
0.436855
0.500139
0.501141
0.45239
0.498653
0.500412
0.499915
0.456735
0.501179
0.500856
0.499841
0.487613
0.481761
0.502697
0.502846
0.502737
0.453677
0.439249
0.499845
0.499654
0.443956
0.475009
0.464878
0.456199
0.501904
0.50245
0.502272
0.499931
0.502532
0.500102
0.478437
0.448512
0.500953
0.502756
0.400178
0.40182
0.501071
0.500962
0.442343
0.403939
0.441718
0.499611
0.500551
0.501117
0.502187
0.502137
0.445454
0.491267
0.481489
0.499872
0.44082
0.50269
0.502642
0.48715
0.501865
0.497694
0.453704
0.406085
0.464095
0.459013
0.435646
0.458142
0.431821
0.500464
0.482796
0.500113
0.501057
0.466013
0.479494
0.500139
0.400077
0.494302
0.499245
0.500925
0.402975
0.49963
0.482391
0.502742
0.477236
0.502624
0.437431
0.497988
0.502835
0.497023
0.454375
0.49994
0.499572
0.499871
0.463444
0.502751
0.500167
0.501023
0.50099
0.501052
0.401585
0.501986
0.498739
0.492551
0.50025
0.483802
0.492548
0.500173
0.407312
0.502804
0.502755
0.500153
0.49893
0.499715
0.500991
0.500128
0.473401
0.50051
0.432357
0.502778
0.45105
0.498488
0.497363
0.439089
0.499889
0.448378
0.476078
0.500158
0.502837
0.500988
0.501013
0.435883
0.486692
0.434229
0.502528
0.486403
0.499512
0.494356
0.500967
0.501947
0.500173
0.404704
0.499475
0.442509
0.483589
0.495888
0.437588
0.403847
0.489227
0.502809
0.415799
0.49633
0.482118
0.402057
0.500615
0.414387
0.500968
0.499396
0.502544
0.498801
0.501245
0.480595
0.400643
0.482134
0.499812
0.479616
0.498655
0.400352
0.502687
0.489335
0.500548
0.502846
0.499905
0.50284
0.475016
0.502557
0.502791
0.473701
0.502534
0.476225
0.501289
0.502843
0.50267
0.433986
0.492358
0.481667
0.50129
0.494809
0.447017
0.44983
0.500662
0.424678
0.499923
0.500089
0.443581
0.447007
0.502788
0.414056
0.502824
0.480925
0.502371
0.502838
0.4999
0.502334
0.49909
0.500336
0.468778
0.50079
0.501334
0.488569
0.501272
0.501043
0.501039
0.500036
0.501554
0.442609
0.478522
0.412312
0.488278
0.50056
0.499909
0.499925
0.502853
0.500367
0.49472
0.42483
0.484608
0.455803
0.489033
0.493005
0.502796
0.500696
0.502324
0.500113
0.453975
0.500099
0.502459
0.500459
0.500148
0.402175
0.403957
0.500509
0.468415
0.403541
0.400274
0.502814
0.451466
0.500267
0.500154
0.502671
0.430479
0.47759
0.403017
0.499851
0.501912
0.480586
0.49828
0.502785
0.482249
0.502844
0.500627
0.478432
0.486239
0.498901
0.50105
0.502391
0.50185
0.469727
0.492808
0.432187
0.50251
0.502576
0.50138
0.473226
0.44096
0.452495
0.472398
0.484768
0.482532
0.45443
0.468062
0.500846
0.502874
0.451065
0.404168
0.500109
0.419615
0.411608
0.473797
0.476171
0.498891
0.501409
0.422635
0.470322
0.490889
0.502749
0.501897
0.500578
0.491936
0.498689
0.435101
0.498712
0.502808
0.502788
0.502441
0.500944
0.49826
0.487035
0.500757
0.502274
0.487654
0.502419
0.500718
0.456067
0.500868
0.462609
0.500153
0.500357
0.467953
0.469574
0.500445
0.500508
0.428563
0.500321
0.440984
0.444084
0.401935
0.500149
0.434296
0.480447
0.498499
0.502002
0.502757
0.487428
0.502852
0.50026
0.47715
0.502831
0.47454
0.402127
0.484347
0.499959
0.500533
0.500177
0.501105
0.500377
0.500073
0.502633
0.500327
0.502374
0.501185
0.481154
0.500575
0.422974
0.502473
0.502728
0.502462
0.500598
0.481301
0.502855
0.502396
0.502736
0.428513
0.500822
0.50187
0.500048
0.50276
0.500154
0.500689
0.502767
0.481569
0.500175
0.422512
0.501451
0.475203
0.47995
0.494258
0.501086
0.410862
0.46774
0.481183
0.500242
0.500178
0.457296
0.502792
0.478086
0.500437
0.500043
0.482907
0.464207
0.452499
0.500366
0.502815
0.401471
0.448349
0.467154
0.500618
0.499813
0.500956
0.500746
0.438194
0.410461
0.449704
0.500886
0.502747
0.420995
0.502251
0.432606
0.500255
0.45866
0.501133
0.500752
0.471145
0.428789
0.446817
0.500899
0.481887
0.436811
0.502427
0.500785
0.455027
0.490436
0.500934
0.501166
0.500599
0.500683
0.501403
0.457391
0.500999
0.491335
0.50134
0.500848
0.500819
0.47829
0.502482
0.481425
0.499797
0.426831
0.426678
0.500673
0.486661
0.498675
0.499331
0.500189
0.500548
0.502244
0.400246
0.43222
0.434155
0.428605
0.502814
0.500938
0.498869
0.502217
0.500158
0.500325
0.424849
0.50241
0.4978
0.502879
0.49757
0.502726
0.502615
0.460114
0.50017
0.500082
0.502457
0.502172
0.410497
0.500733
0.478582
0.502139
0.50259
0.500224
0.499887
0.501009
0.49981
0.502741
0.502324
0.50237
0.492196
0.502086
0.482496
0.428559
0.502345
0.502825
0.426575
0.500672
0.502056
0.40802
0.500152
0.449716
0.420605
0.482626
0.500205
0.406311
0.404979
0.405419
0.499845
0.502007
0.502447
0.50229
0.40971
0.500898
0.500553
0.50197
0.501225
0.500178
0.424771
0.487525
0.460469
0.500679
0.501017
0.502255
0.502757
0.501027
0.499973
0.439824
0.493567
0.492834
0.468872
0.502767
0.439818
0.412387
0.4709
0.500163
0.501917
0.433495
0.501878
0.500297
0.500233
0.500201
0.500724
0.4983
0.502863
0.461319
0.482125
0.499738
0.455072
0.422825
0.500165
0.407503
0.500302
0.500313
0.496703
0.50223
0.501605
0.498167
0.48484
0.446722
0.502419
0.4955
0.500186
0.414697
0.501054
0.430463
0.410518
0.420599
0.500255
0.502381
0.502279
0.402546
0.495208
0.445491
0.480239
0.500323
0.409456
0.418325
0.493392
0.501504
0.499703
0.461592
0.502287
0.476672
0.500012
0.492807
0.49639
0.495934
0.497191
0.499142
0.401558
0.496755
0.500069
0.502429
0.502368
0.500525
0.500945
0.417016
0.502382
0.500907
0.502834
0.502843
0.480272
0.423095
0.496307
0.500994
0.479683
0.492938
0.495941
0.502019
0.50019
0.502418
0.497111
0.50033
0.471538
0.499902
0.495868
0.500138
0.448314
0.502749
0.426894
0.472495
0.501054
0.502185
0.502516
0.48136
0.500396
0.443855
0.411442
0.419151
0.49438
0.49138
0.460117
0.501045
0.414882
0.446832
0.446895
0.500237
0.494827
0.500563
0.456402
0.443341
0.45851
0.500258
0.4697
0.49382
0.499892
0.500198
0.500366
0.490089
0.499889
0.403523
0.49998
0.500131
0.472828
0.452519
0.501093
0.496713
0.430622
0.463162
0.500233
0.501219
0.496379
0.501479
0.500182
0.480855
0.47903
0.499909
0.492764
0.502388
0.500121
0.50171
0.502459
0.500172
0.497972
0.492319
0.502703
0.442443
0.452431
0.500132
0.493165
0.498581
0.492098
0.420891
0.496997
0.502068
0.431528
0.49747
0.431453
0.489402
0.492695
0.500121
0.488921
0.493136
0.500127
0.502123
0.50019
0.492755
0.491646
0.470144
0.421171
0.498246
0.45905
0.501346
0.492168
0.497429
0.492465
0.494762
0.492722
0.500524
0.494065
0.501052
0.439255
0.501189
0.427592
0.431817
0.422115
0.500636
0.50074
0.494131
0.447841
0.502102
0.500236
0.492608
0.493414
0.492087
0.493346
0.501738
0.491126
0.455037
0.490606
0.491569
0.484103
0.50023
0.484677
0.49859
0.50202
0.49899
0.455027
0.478199
0.500284
0.497153
0.492108
0.437515
0.43742
0.496556
0.500957
0.491053
0.501013
0.406766
0.451411
0.500027
0.501129
0.497083
0.50129
0.440649
0.494854
0.49054
0.437262
0.437409
0.451715
0.482837
0.501111
0.501227
0.499145
0.44532
0.445387
0.500311
0.500222
0.500264
0.460713
0.496046
0.497699
0.499855
0.500459
0.502815
0.495469
0.496796
0.500092
0.501114
0.502527
0.498782
0.451657
0.44977
0.445885
0.501281
0.491346
0.404375
0.500875
0.487217
0.502396
0.487809
0.501119
0.500594
0.500896
0.500357
0.500167
0.497775
0.456772
0.501283
0.502249
0.468645
0.471178
0.502244
0.499973
0.460892
0.499636
0.502094
0.500529
0.500341
0.488052
0.500054
0.489713
0.501243
0.501162
0.502173
0.50215
0.500086
0.50158
0.502715
0.499528
0.49563
0.489778
0.483334
0.499982
0.451042
0.497228
0.498149
0.417104
0.41318
0.500027
0.501031
0.499825
0.422496
0.488531
0.501409
0.502316
0.500009
0.496457
0.50002
0.493275
0.50146
0.50234
0.457315
0.497593
0.500925
0.501027
0.453626
0.45556
0.413399
0.501125
0.487272
0.499942
0.502482
0.502832
0.48886
0.498293
0.502937
0.501425
0.488188
0.479328
0.501931
0.474143
0.490647
0.500299
0.497952
0.502036
0.496948
0.502812
0.502797
0.502412
0.496449
0.502932
0.499851
0.501291
0.502917
0.459224
0.502451
0.468707
0.400752
0.496923
0.499439
0.500329
0.492879
0.497601
0.500368
0.488589
0.492623
0.487247
0.500508
0.47534
0.499804
0.502855
0.4966
0.441857
0.500803
0.500801
0.470293
0.50065
0.500202
0.502677
0.500037
0.502735
0.500011
0.501187
0.492284
0.500684
0.501228
0.502397
0.497898
0.501982
0.468642
0.500388
0.502433
0.48521
0.501576
0.45605
0.499866
0.494525
0.459591
0.461893
0.501182
0.5004
0.500061
0.475135
0.494946
0.476285
0.499941
0.50138
0.42456
0.426619
0.497367
0.486708
0.500998
0.501625
0.486254
0.497779
0.500624
0.480681
0.49723
0.501514
0.50076
0.499426
0.501233
0.500779
0.49965
0.500342
0.501837
0.501892
0.499899
0.498033
0.500436
0.496962
0.465885
0.501332
0.4668
0.499963
0.48341
0.500072
0.496644
0.486095
0.499899
0.502488
0.502498
0.486135
0.49035
0.501632
0.402988
0.500711
0.485553
0.500701
0.490464
0.482338
0.500129
0.501353
0.496709
0.489747
0.501339
0.481545
0.500292
0.494433
0.447258
0.449138
0.500355
0.500313
0.50189
0.489842
0.49755
0.502027
0.497928
0.500113
0.48007
0.501074
0.500333
0.500896
0.493837
0.50009
0.4943
0.500773
0.500998
0.459618
0.500029
0.488831
0.47977
0.438989
0.43888
0.500216
0.494599
0.486335
0.500942
0.496873
0.500087
0.499973
0.502758
0.502832
0.498028
0.454027
0.500174
0.476621
0.500282
0.48816
0.501078
0.477608
0.501209
0.500151
0.502061
0.500748
0.500562
0.502673
0.502658
0.461592
0.497618
0.49971
0.498
0.501129
0.500089
0.489575
0.499966
0.485507
0.502835
0.467424
0.484049
0.489647
0.500447
0.489887
0.500466
0.50041
0.499634
0.496958
0.488228
0.435218
0.500396
0.482105
0.495895
0.501913
0.489184
0.477772
0.500861
0.460981
0.493241
0.467813
0.502133
0.469594
0.465954
0.502062
0.50266
0.502671
0.499988
0.502141
0.500044
0.500147
0.493845
0.502699
0.500949
0.427441
0.482232
0.500654
0.502215
0.500767
0.500149
0.500382
0.500025
0.502246
0.497291
0.50226
0.50187
0.502817
0.501531
0.501714
0.501963
0.483393
0.500777
0.502775
0.502827
0.485698
0.500463
0.501534
0.499364
0.50059
0.502777
0.500987
0.501663
0.484961
0.500077
0.501584
0.500168
0.486675
0.502789
0.482166
0.47264
0.502416
0.502436
0.500077
0.500214
0.500873
0.500024
0.500387
0.497195
0.501529
0.501544
0.453987
0.500083
0.502012
0.500291
0.500519
0.499981
0.500401
0.501829
0.501572
0.500212
0.460661
0.461908
0.500719
0.500293
0.500973
0.500147
0.500198
0.500127
0.500138
0.50271
0.500954
0.50049
0.500218
0.499928
0.502683
0.500144
0.502666
0.502736
0.500133
0.458446
0.50076
0.50079
0.500283
0.501836
0.501811
0.501531
0.488937
0.500592
0.485749
0.496275
0.499997
0.496875
0.502544
0.497741
0.488279
0.502813
0.483152
0.453672
0.450012
0.502636
0.501586
0.500524
0.502581
0.502756
0.502887
0.500056
0.502561
0.502861
0.502782
0.502913
0.500244
0.502794
0.500587
0.498945
0.502801
0.490907
0.488755
0.501674
0.500834
0.502814
0.500898
0.500246
0.500823
0.499728
0.502835
0.500337
0.500347
0.500516
0.500204
0.500347
0.500716
0.465698
0.501633
0.501629
0.500453
0.500944
0.50036
0.489187
0.475452
0.500882
0.502283
0.500146
0.502164
0.500129
0.489132
0.501398
0.49262
0.481667
0.500548
0.464238
0.500627
0.500123
0.50278
0.491197
0.490503
0.500086
0.500133
0.502455
0.501016
0.498031
0.498183
0.500106
0.500425
0.500098
0.50054
0.401837
0.501918
0.484328
0.500894
0.500991
0.469454
0.497092
0.499553
0.500468
0.500251
0.500269
0.500347
0.500313
0.499297
0.501617
0.501511
0.501402
0.500443
0.501721
0.500415
0.500837
0.501817
0.490031
0.452465
0.497267
0.500712
0.500917
0.500264
0.501013
0.502284
0.501134
0.501491
0.50275
0.500651
0.501152
0.501558
0.498704
0.501212
0.418688
0.486261
0.410724
0.412662
0.497506
0.501085
0.500101
0.488772
0.495569
0.500499
0.484361
0.50109
0.497323
0.501273
0.501042
0.479998
0.497755
0.483756
0.485684
0.501341
0.501307
0.501621
0.478741
0.498666
0.500848
0.499983
0.412706
0.50065
0.501176
0.499526
0.50081
0.484912
0.502107
0.499251
0.499884
0.498536
0.500468
0.500443
0.499861
0.49871
0.50202
0.499452
0.500931
0.497575
0.492224
0.500775
0.50007
0.464991
0.500011
0.481036
0.499267
0.500376
0.501402
0.478698
0.500041
0.500017
0.50119
0.460918
0.498321
0.50017
0.482817
0.49912
0.500379
0.453843
0.50151
0.500085
0.499997
0.499966
0.488682
0.500807
0.488715
0.500656
0.500113
0.502266
0.502293
0.501676
0.497951
0.500581
0.498084
0.498497
0.500509
0.498949
0.499998
0.500029
0.49395
0.486244
0.48791
0.500634
0.501339
0.488315
0.461124
0.501275
0.501455
0.501262
0.501853
0.501239
0.499718
0.502699
0.498942
0.497442
0.455001
0.501669
0.500021
0.500058
0.487826
0.502439
0.492105
0.50106
0.501207
0.501561
0.502646
0.502631
0.501075
0.501144
0.500477
0.497136
0.500159
0.501301
0.50169
0.501203
0.500147
0.500137
0.500415
0.500807
0.501564
0.50036
0.501209
0.495155
0.500443
0.500437
0.496822
0.500263
0.500211
0.501081
0.502156
0.500729
0.501765
0.501442
0.501481
0.50083
0.501882
0.501858
0.485328
0.502017
0.498068
0.50059
0.50177
0.501137
0.471938
0.501821
0.502358
0.502372
0.50276
0.502796
0.502594
0.500957
0.502578
0.5027
0.502726
0.496949
0.501864
0.502811
0.480225
0.501456
0.502033
0.502023
0.502555
0.501521
0.50255
0.502691
0.502681
0.501133
0.501779
0.502751
0.500043
0.502542
0.496017
0.501002
0.439274
0.498261
0.501346
0.408903
0.501782
0.498744
0.498715
0.499093
0.500189
0.494805
0.490337
0.502785
0.499118
0.401901
0.484313
0.491876
0.499322
0.501369
0.50065
0.500491
0.405534
0.500123
0.5001
0.497367
0.49327
0.493855
0.501724
0.500283
0.502719
0.483312
0.502014
0.501615
0.487618
0.48836
0.500153
0.495885
0.496616
0.500276
0.486653
0.481201
0.478982
0.492177
0.502703
0.500599
0.456327
0.498525
0.497984
0.498849
0.500415
0.496682
0.498841
0.482349
0.501187
0.495046
0.502405
0.496247
0.451385
0.475213
0.497072
0.50161
0.498677
0.487285
0.501473
0.494412
0.502784
0.501828
0.498469
0.494936
0.495425
0.500532
0.502223
0.487133
0.496055
0.482854
0.501395
0.498031
0.501912
0.491302
0.500339
0.49902
0.495513
0.494809
0.501301
0.502047
0.501074
0.496196
0.501639
0.498516
0.501324
0.474368
0.491264
0.500835
0.483265
0.501673
0.501659
0.494081
0.491624
0.496578
0.495385
0.481829
0.497445
0.498106
0.464324
0.50071
0.502453
0.49682
0.498112
0.50067
0.501814
0.501245
0.502801
0.501302
0.489414
0.501231
0.501253
0.498399
0.498665
0.466053
0.499118
0.493718
0.500164
0.501739
0.502109
0.492446
0.494383
0.500156
0.495789
0.497779
0.482352
0.459748
0.492415
0.498423
0.488208
0.49706
0.500748
0.501777
0.474272
0.501575
0.497141
0.496996
0.467706
0.501824
0.501374
0.50196
0.495172
0.479119
0.498027
0.499936
0.500318
0.501695
0.498435
0.490242
0.500691
0.501651
0.491831
0.49584
0.496502
0.50007
0.500105
0.500094
0.502812
0.496567
0.50013
0.502425
0.493895
0.462274
0.501386
0.500071
0.496174
0.502421
0.500131
0.494453
0.502557
0.487845
0.501969
0.500429
0.497739
0.499037
0.501643
0.501647
0.502489
0.491504
0.498083
0.500199
0.497322
0.489311
0.500691
0.491957
0.501447
0.50047
0.493322
0.500019
0.501548
0.494448
0.501797
0.497764
0.498274
0.468659
0.502705
0.502612
0.501316
0.500067
0.502685
0.500064
0.497123
0.501776
0.492467
0.49672
0.494889
0.4907
0.496218
0.500775
0.497534
0.448479
0.495598
0.455174
0.496523
0.489874
0.487773
0.497797
0.489021
0.501245
0.500257
0.500231
0.501521
0.501035
0.498046
0.499137
0.498774
0.502813
0.502803
0.493338
0.496847
0.493708
0.500833
0.486691
0.496508
0.502388
0.500638
0.494084
0.495327
0.501183
0.498154
0.489051
0.476729
0.499173
0.496439
0.496415
0.500608
0.489882
0.496545
0.492001
0.457439
0.458685
0.499718
0.489525
0.496214
0.500124
0.502076
0.50207
0.502139
0.500603
0.491083
0.492202
0.488142
0.487747
0.491904
0.465946
0.496326
0.502453
0.499422
0.491821
0.492649
0.498082
0.502005
0.490764
0.495504
0.501627
0.502713
0.502705
0.457828
0.489245
0.497382
0.49154
0.501157
0.502741
0.492002
0.411216
0.497399
0.483886
0.489873
0.501918
0.487233
0.500544
0.501625
0.48971
0.497814
0.501812
0.500935
0.501748
0.486057
0.491077
0.481787
0.487826
0.494906
0.494875
0.490567
0.491847
0.491373
0.502699
0.488858
0.495842
0.488373
0.502797
0.497443
0.496559
0.481568
0.49494
0.49117
0.495108
0.409479
0.497831
0.491644
0.488936
0.489594
0.494593
0.502587
0.497014
0.500681
0.501104
0.493585
0.493092
0.492604
0.487976
0.49618
0.490482
0.497475
0.491362
0.501332
0.492122
0.501665
0.502459
0.502388
0.501869
0.495953
0.487011
0.494085
0.502117
0.490266
0.490152
0.489425
0.485732
0.49186
0.49039
0.502523
0.488557
0.482219
0.491554
0.486188
0.502386
0.498104
0.502806
0.497746
0.492526
0.497368
0.466925
0.487661
0.493384
0.494536
0.500177
0.482174
0.487395
0.490194
0.502456
0.502584
0.498419
0.489439
0.4963
0.485227
0.486838
0.49488
0.493345
0.493332
0.492566
0.490312
0.487473
0.489285
0.502887
0.49683
0.502617
0.483648
0.502187
0.502083
0.502525
0.502011
0.5029
0.490708
0.502632
0.488954
0.475016
0.479506
0.486917
0.488439
0.489488
0.501526
0.471236
0.49818
0.493424
0.487972
0.471203
0.486736
0.46324
0.501964
0.496243
0.489064
0.500278
0.49678
0.401604
0.500046
0.495552
0.481035
0.496122
0.487924
0.407638
0.501008
0.497707
0.458456
0.486418
0.490739
0.487251
0.491019
0.487412
0.496375
0.485097
0.47704
0.492928
0.501752
0.501978
0.501442
0.472035
0.4859
0.497192
0.487358
0.489334
0.487961
0.497494
0.486503
0.456533
0.484786
0.48627
0.486364
0.45889
0.486644
0.494933
0.502789
0.486294
0.482379
0.481246
0.501946
0.487484
0.500869
0.428522
0.50139
0.486342
0.490844
0.484128
0.494034
0.490628
0.432123
0.497611
0.501168
0.48797
0.501504
0.498186
0.502413
0.495869
0.486831
0.496359
0.498381
0.485952
0.423988
0.494607
0.50215
0.488829
0.501874
0.501267
0.501728
0.48512
0.502671
0.495947
0.430051
0.480401
0.490808
0.502055
0.48639
0.485808
0.497921
0.494587
0.409624
0.502101
0.502713
0.501987
0.48581
0.491766
0.491721
0.502098
0.48728
0.48839
0.502676
0.421153
0.446711
0.456998
0.485322
0.43496
0.501574
0.499257
0.498343
0.502821
0.484638
0.422584
0.489782
0.485221
0.483631
0.49556
0.48474
0.482426
0.436922
0.500473
0.477919
0.482812
0.50239
0.482996
0.489284
0.502052
0.493052
0.457338
0.501295
0.459656
0.42637
0.502145
0.442205
0.500625
0.438998
0.484739
0.501046
0.502716
0.501202
0.493826
0.43707
0.502173
0.499315
0.50242
0.488376
0.502644
0.500565
0.488562
0.501599
0.48747
0.495436
0.502269
0.502741
0.502187
0.410708
0.482275
0.484465
0.501134
0.488742
0.493215
0.44038
0.502227
0.408868
0.502163
0.502516
0.480537
0.422387
0.502442
0.484498
0.498554
0.486791
0.502641
0.502489
0.502696
0.499158
0.42618
0.502665
0.491436
0.502693
0.485211
0.502312
0.502613
0.465905
0.483708
0.494
0.49274
0.444739
0.446408
0.484145
0.478748
0.502143
0.502636
0.402317
0.403245
0.446528
0.496113
0.482576
0.491009
0.488031
0.484532
0.491674
0.491216
0.448152
0.502145
0.502754
0.486042
0.502689
0.481077
0.489915
0.502486
0.481188
0.502474
0.502191
0.479045
0.433619