# vtk DataFile Version 1.0
unstructured grid
ascii
DATASET UNSTRUCTURED_GRID
points 8094 float
-0.25 0.0574735 0
0.5 0.0546937 0
0.5 -0.0546937 0
-0.25 -0.0574735 0
-0.25 0.0574735 0.01
0.5 0.0546937 0.01
0.5 -0.0546937 0.01
-0.25 -0.0574735 0.01
-0.246045 0.0569295 0
-0.242089 0.0563854 0
-0.238136 0.0558289 0
-0.234184 0.0552582 0
-0.230232 0.0546875 0
-0.226284 0.0540912 0
-0.222337 0.0534933 0
-0.218391 0.0528841 0
-0.214448 0.0522585 0
-0.210504 0.0516328 0
-0.206565 0.0509829 0
-0.202626 0.0503294 0
-0.198689 0.0496667 0
-0.194755 0.0489856 0
-0.190821 0.0483046 0
-0.18689 0.0476022 0
-0.182961 0.0468942 0
-0.179033 0.0461799 0
-0.175108 0.0454463 0
-0.171183 0.0447127 0
-0.167262 0.0439627 0
-0.163342 0.0432056 0
-0.159422 0.0424455 0
-0.155506 0.041668 0
-0.15159 0.0408904 0
-0.147675 0.0401031 0
-0.143762 0.0393092 0
-0.13985 0.0385149 0
-0.135939 0.0377103 0
-0.132028 0.0369056 0
-0.128117 0.0361005 0
-0.124207 0.0352949 0
-0.120296 0.0344893 0
-0.116386 0.0336836 0
-0.112475 0.032878 0
-0.108563 0.0320794 0
-0.104649 0.0312931 0
-0.100735 0.0305068 0
-0.0968152 0.029745 0
-0.0928949 0.0289889 0
-0.0889722 0.0282446 0
-0.0850433 0.0275341 0
-0.0811144 0.0268235 0
-0.0771778 0.0261578 0
-0.0732381 0.0255098 0
-0.0692962 0.0248759 0
-0.0653442 0.0243073 0
-0.0613923 0.0237386 0
-0.0574324 0.0232306 0
-0.0534681 0.0227556 0
-0.0495024 0.0222934 0
-0.0455272 0.0219207 0
-0.041552 0.0215481 0
-0.0375717 0.0212385 0
-0.0335881 0.0209694 0
-0.029604 0.0207098 0
-0.0256151 0.0205369 0
-0.0216262 0.0203639 0
-0.0176357 0.0202396 0
-0.0136441 0.0201487 0
-0.00965243 0.0200635 0
-0.00565987 0.0200372 0
-0.00166732 0.020011 0
0.00232526 0.0200121 0
0.00631785 0.0200329 0
0.0103104 0.0200563 0
0.0143027 0.0201109 0
0.018295 0.0201654 0
0.022287 0.0202345 0
0.0262788 0.0203144 0
0.0302706 0.0203957 0
0.034262 0.0204956 0
0.0382534 0.0205955 0
0.0422446 0.0207045 0
0.0462355 0.0208207 0
0.0502265 0.0209377 0
0.054217 0.0210676 0
0.0582075 0.0211975 0
0.0621978 0.0213339 0
0.0661879 0.0214757 0
0.0701781 0.021618 0
0.0741678 0.0217703 0
0.0781575 0.0219227 0
0.0821471 0.0220801 0
0.0861364 0.022242 0
0.0901258 0.0224041 0
0.0941148 0.0225747 0
0.0981038 0.0227453 0
0.102093 0.0229202 0
0.106081 0.023099 0
0.11007 0.0232779 0
0.114058 0.0234644 0
0.118046 0.0236509 0
0.122035 0.0238411 0
0.126022 0.024035 0
0.13001 0.0242288 0
0.133998 0.0244298 0
0.137986 0.0246308 0
0.141973 0.0248352 0
0.14596 0.025043 0
0.149947 0.0252509 0
0.153934 0.0254654 0
0.157921 0.02568 0
0.161908 0.0258978 0
0.165894 0.026119 0
0.169881 0.0263402 0
0.173867 0.0265678 0
0.177853 0.0267956 0
0.181839 0.0270264 0
0.185825 0.0272607 0
0.189811 0.0274951 0
0.193796 0.0277356 0
0.197781 0.0279764 0
0.201767 0.02822 0
0.205752 0.0284673 0
0.209737 0.0287146 0
0.213721 0.0289679 0
0.217706 0.0292217 0
0.22169 0.0294782 0
0.225674 0.0297385 0
0.229658 0.0299988 0
0.233642 0.0302651 0
0.237626 0.0305319 0
0.241609 0.0308014 0
0.245593 0.0310748 0
0.249576 0.0313482 0
0.253559 0.0316276 0
0.257542 0.0319077 0
0.261524 0.0321904 0
0.265507 0.0324772 0
0.269489 0.032764 0
0.273471 0.0330568 0
0.277453 0.0333504 0
0.281434 0.0336466 0
0.285416 0.0339471 0
0.289397 0.0342476 0
0.293378 0.034554 0
0.297359 0.0348615 0
0.301339 0.0351714 0
0.305319 0.0354859 0
0.3093 0.0358005 0
0.313279 0.036121 0
0.317259 0.0364427 0
0.321239 0.0367667 0
0.325218 0.0370957 0
0.329197 0.0374248 0
0.333175 0.0377597 0
0.337154 0.0380961 0
0.341132 0.0384347 0
0.34511 0.0387786 0
0.349088 0.0391226 0
0.353065 0.0394724 0
0.357042 0.0398239 0
0.361019 0.0401775 0
0.364995 0.0405368 0
0.368972 0.0408961 0
0.372948 0.0412613 0
0.376924 0.0416285 0
0.380899 0.0419975 0
0.384874 0.0423727 0
0.388849 0.0427479 0
0.392823 0.0431289 0
0.396798 0.0435123 0
0.400772 0.0438973 0
0.404745 0.044289 0
0.408718 0.0446807 0
0.412691 0.0450781 0
0.416664 0.0454782 0
0.420636 0.0458797 0
0.424608 0.0462883 0
0.42858 0.046697 0
0.432551 0.0471114 0
0.436521 0.0475289 0
0.440492 0.0479474 0
0.444462 0.0483738 0
0.448432 0.0488001 0
0.452401 0.0492319 0
0.45637 0.0496673 0
0.460338 0.0501035 0
0.464306 0.0505482 0
0.468274 0.0509928 0
0.472241 0.0514427 0
0.476208 0.0518968 0
0.480175 0.0523512 0
0.48414 0.0528148 0
0.488106 0.0532784 0
0.492071 0.0537471 0
0.496036 0.0542204 0
0.5 0.050787 0
0.5 0.0468803 0
0.5 0.0429736 0
0.5 0.0390669 0
0.5 0.0351602 0
0.5 0.0312535 0
0.5 0.0273468 0
0.5 0.0234402 0
0.5 0.0195335 0
0.5 0.0156268 0
0.5 0.0117201 0
0.5 0.00781339 0
0.5 0.00390669 0
0.5 1.43781e-13 0
0.5 -0.00390669 0
0.5 -0.00781339 0
0.5 -0.0117201 0
0.5 -0.0156268 0
0.5 -0.0195335 0
0.5 -0.0234402 0
0.5 -0.0273468 0
0.5 -0.0312535 0
0.5 -0.0351602 0
0.5 -0.0390669 0
0.5 -0.0429736 0
0.5 -0.0468803 0
0.5 -0.050787 0
0.496036 -0.0542204 0
0.492071 -0.0537471 0
0.488106 -0.0532784 0
0.48414 -0.0528148 0
0.480175 -0.0523512 0
0.476208 -0.0518968 0
0.472241 -0.0514427 0
0.468274 -0.0509928 0
0.464306 -0.0505482 0
0.460338 -0.0501035 0
0.45637 -0.0496673 0
0.452401 -0.0492319 0
0.448432 -0.0488001 0
0.444462 -0.0483738 0
0.440492 -0.0479474 0
0.436521 -0.0475289 0
0.432551 -0.0471114 0
0.42858 -0.046697 0
0.424608 -0.0462883 0
0.420636 -0.0458797 0
0.416664 -0.0454782 0
0.412691 -0.0450781 0
0.408718 -0.0446807 0
0.404745 -0.044289 0
0.400772 -0.0438973 0
0.396798 -0.0435123 0
0.392823 -0.0431289 0
0.388849 -0.0427479 0
0.384874 -0.0423727 0
0.380899 -0.0419975 0
0.376924 -0.0416285 0
0.372948 -0.0412613 0
0.368972 -0.0408961 0
0.364995 -0.0405368 0
0.361019 -0.0401775 0
0.357042 -0.0398239 0
0.353065 -0.0394724 0
0.349088 -0.0391226 0
0.34511 -0.0387786 0
0.341132 -0.0384347 0
0.337154 -0.0380961 0
0.333175 -0.0377597 0
0.329197 -0.0374248 0
0.325218 -0.0370957 0
0.321239 -0.0367667 0
0.317259 -0.0364427 0
0.313279 -0.036121 0
0.3093 -0.0358005 0
0.305319 -0.0354859 0
0.301339 -0.0351714 0
0.297359 -0.0348615 0
0.293378 -0.034554 0
0.289397 -0.0342476 0
0.285416 -0.0339471 0
0.281434 -0.0336466 0
0.277453 -0.0333504 0
0.273471 -0.0330568 0
0.269489 -0.032764 0
0.265507 -0.0324772 0
0.261524 -0.0321904 0
0.257542 -0.0319077 0
0.253559 -0.0316276 0
0.249576 -0.0313482 0
0.245593 -0.0310748 0
0.241609 -0.0308014 0
0.237626 -0.0305319 0
0.233642 -0.0302651 0
0.229658 -0.0299988 0
0.225674 -0.0297385 0
0.22169 -0.0294782 0
0.217706 -0.0292217 0
0.213721 -0.0289679 0
0.209737 -0.0287146 0
0.205752 -0.0284673 0
0.201767 -0.02822 0
0.197781 -0.0279764 0
0.193796 -0.0277356 0
0.189811 -0.0274951 0
0.185825 -0.0272607 0
0.181839 -0.0270264 0
0.177853 -0.0267956 0
0.173867 -0.0265678 0
0.169881 -0.0263402 0
0.165894 -0.026119 0
0.161908 -0.0258978 0
0.157921 -0.02568 0
0.153934 -0.0254654 0
0.149947 -0.0252509 0
0.14596 -0.025043 0
0.141973 -0.0248352 0
0.137986 -0.0246308 0
0.133998 -0.0244298 0
0.13001 -0.0242288 0
0.126022 -0.024035 0
0.122035 -0.0238411 0
0.118046 -0.0236509 0
0.114058 -0.0234644 0
0.11007 -0.0232779 0
0.106081 -0.023099 0
0.102093 -0.0229202 0
0.0981038 -0.0227453 0
0.0941148 -0.0225747 0
0.0901258 -0.0224041 0
0.0861364 -0.022242 0
0.0821471 -0.0220801 0
0.0781575 -0.0219227 0
0.0741678 -0.0217703 0
0.0701781 -0.021618 0
0.0661879 -0.0214757 0
0.0621978 -0.0213339 0
0.0582075 -0.0211975 0
0.054217 -0.0210676 0
0.0502265 -0.0209377 0
0.0462355 -0.0208207 0
0.0422446 -0.0207045 0
0.0382534 -0.0205955 0
0.034262 -0.0204956 0
0.0302706 -0.0203957 0
0.0262788 -0.0203144 0
0.022287 -0.0202345 0
0.018295 -0.0201654 0
0.0143027 -0.0201109 0
0.0103104 -0.0200563 0
0.00631785 -0.0200329 0
0.00232526 -0.0200121 0
-0.00166732 -0.020011 0
-0.00565987 -0.0200372 0
-0.00965243 -0.0200635 0
-0.0136441 -0.0201487 0
-0.0176357 -0.0202396 0
-0.0216262 -0.0203639 0
-0.0256151 -0.0205369 0
-0.029604 -0.0207098 0
-0.0335881 -0.0209694 0
-0.0375717 -0.0212385 0
-0.041552 -0.0215481 0
-0.0455272 -0.0219207 0
-0.0495024 -0.0222934 0
-0.0534681 -0.0227556 0
-0.0574324 -0.0232306 0
-0.0613923 -0.0237386 0
-0.0653442 -0.0243073 0
-0.0692962 -0.0248759 0
-0.0732381 -0.0255098 0
-0.0771778 -0.0261578 0
-0.0811144 -0.0268235 0
-0.0850433 -0.0275341 0
-0.0889722 -0.0282446 0
-0.0928949 -0.0289889 0
-0.0968152 -0.029745 0
-0.100735 -0.0305068 0
-0.104649 -0.0312931 0
-0.108563 -0.0320794 0
-0.112475 -0.032878 0
-0.116386 -0.0336836 0
-0.120296 -0.0344893 0
-0.124207 -0.0352949 0
-0.128117 -0.0361005 0
-0.132028 -0.0369056 0
-0.135939 -0.0377103 0
-0.13985 -0.0385149 0
-0.143762 -0.0393092 0
-0.147675 -0.0401031 0
-0.15159 -0.0408904 0
-0.155506 -0.041668 0
-0.159422 -0.0424455 0
-0.163342 -0.0432056 0
-0.167262 -0.0439627 0
-0.171183 -0.0447127 0
-0.175108 -0.0454463 0
-0.179033 -0.0461799 0
-0.182961 -0.0468942 0
-0.18689 -0.0476022 0
-0.190821 -0.0483046 0
-0.194755 -0.0489856 0
-0.198689 -0.0496667 0
-0.202626 -0.0503294 0
-0.206565 -0.0509829 0
-0.210504 -0.0516328 0
-0.214448 -0.0522585 0
-0.218391 -0.0528841 0
-0.222337 -0.0534933 0
-0.226284 -0.0540912 0
-0.230232 -0.0546875 0
-0.234184 -0.0552582 0
-0.238136 -0.0558289 0
-0.242089 -0.0563854 0
-0.246045 -0.0569295 0
-0.25 -0.0535098 0
-0.25 -0.0495461 0
-0.25 -0.0455824 0
-0.25 -0.0416187 0
-0.25 -0.0376551 0
-0.25 -0.0336914 0
-0.25 -0.0297277 0
-0.25 -0.025764 0
-0.25 -0.0218003 0
-0.25 -0.0178366 0
-0.25 -0.0138729 0
-0.25 -0.00990922 0
-0.25 -0.00594553 0
-0.25 -0.00198184 0
-0.25 0.00198184 0
-0.25 0.00594553 0
-0.25 0.00990922 0
-0.25 0.0138729 0
-0.25 0.0178366 0
-0.25 0.0218003 0
-0.25 0.025764 0
-0.25 0.0297277 0
-0.25 0.0336914 0
-0.25 0.0376551 0
-0.25 0.0416187 0
-0.25 0.0455824 0
-0.25 0.0495461 0
-0.25 0.0535098 0
-0.246045 0.0569295 0.01
-0.242089 0.0563854 0.01
-0.238136 0.0558289 0.01
-0.234184 0.0552582 0.01
-0.230232 0.0546875 0.01
-0.226284 0.0540912 0.01
-0.222337 0.0534933 0.01
-0.218391 0.0528841 0.01
-0.214448 0.0522585 0.01
-0.210504 0.0516328 0.01
-0.206565 0.0509829 0.01
-0.202626 0.0503294 0.01
-0.198689 0.0496667 0.01
-0.194755 0.0489856 0.01
-0.190821 0.0483046 0.01
-0.18689 0.0476022 0.01
-0.182961 0.0468942 0.01
-0.179033 0.0461799 0.01
-0.175108 0.0454463 0.01
-0.171183 0.0447127 0.01
-0.167262 0.0439627 0.01
[...]
CELL_DATA 7657
SCALARS rho float
LOOKUP_TABLE default
0.553539
0.54867
0.499868
0.434021
0.503807
0.464447
0.507535
0.501261
0.541841
0.506453
0.506588
0.501506
0.53184
0.501385
0.50325
0.506317
0.503189
0.504555
0.504426
0.500035
0.50292
0.504831
0.546883
0.50442
0.505235
0.502806
0.442378
0.534992
0.505813
0.465452
0.492774
0.505226
0.546191
0.558892
0.557197
0.494572
0.466084
0.546758
0.54091
0.467344
0.49923
0.541287
0.441514
0.456118
0.498965
0.500493
0.511913
0.46357
0.505274
0.555252
0.45465
0.433869
0.505788
0.504689
0.506287
0.468865
0.502998
0.502841
0.564317
0.491026
0.505213
0.498169
0.504935
0.504861
0.506604
0.506691
0.531921
0.473776
0.505198
0.564002
0.500633
0.532778
0.437218
0.505849
0.56015
0.462051
0.504829
0.460937
0.561633
0.533958
0.54601
0.501086
0.500084
0.499582
0.500382
0.564594
0.500307
0.563851
0.50269
0.44356
0.506615
0.506726
0.564478
0.504848
0.471309
0.564838
0.564945
0.547586
0.49844
0.471292
0.504702
0.505584
0.548397
0.502638
0.513409
0.543557
0.479846
0.476246
0.534766
0.502695
0.492919
0.475206
0.449512
0.500074
0.502532
0.561618
0.477377
0.466064
0.50968
0.464209
0.506842
0.50677
0.479154
0.547993
0.50045
0.501393
0.501628
0.441473
0.471803
0.442794
0.435155
0.505315
0.469744
0.436562
0.500085
0.482401
0.505443
0.546215
0.505347
0.505391
0.480249
0.445596
0.46426
0.469482
0.50429
0.502729
0.545483
0.549061
0.497923
0.479871
0.461379
0.50613
0.55253
0.442752
0.502692
0.548594
0.473897
0.505043
0.500073
0.483571
0.505133
0.502916
0.502908
0.561303
0.495731
0.548374
0.538091
0.448628
0.502219
0.507593
0.499138
0.544183
0.505268
0.462318
0.497758
0.496188
0.43491
0.565154
0.500507
0.463033
0.46938
0.534153
0.505502
0.505481
0.530781
0.564096
0.538556
0.435377
0.502193
0.565394
0.505754
0.505
0.500087
0.564671
0.502254
0.470978
0.499986
0.503044
0.496251
0.501612
0.504431
0.505579
0.565351
0.563184
0.442062
0.504788
0.536003
0.514892
0.556972
0.565143
0.490353
0.49791
0.495406
0.500099
0.498782
0.435622
0.501211
0.564333
0.475496
0.501454
0.548791
0.549004
0.506327
0.474714
0.536763
0.546569
0.536011
0.452853
0.460002
0.506467
0.493838
0.494071
0.533651
0.502912
0.512298
0.500039
0.56351
0.505508
0.505481
0.503193
0.489782
0.458015
0.565087
0.546138
0.562632
0.564863
0.538663
0.565244
0.540084
0.458695
0.494739
0.434335
0.476778
0.555477
0.499891
0.43512
0.549101
0.503462
0.505712
0.474976
0.547614
0.505968
0.511261
0.502312
0.503066
0.500254
0.562767
0.456937
0.504408
0.461104
0.52802
0.444801
0.445723
0.500023
0.563278
0.502445
0.446707
0.4751
0.474326
0.501967
0.547731
0.504041
0.452225
0.474822
0.434261
0.493187
0.474845
0.435607
0.553283
0.503536
0.502717
0.436196
0.450995
0.506027
0.476485
0.441221
0.537678
0.501002
0.561499
0.502913
0.564512
0.505258
0.459976
0.537979
0.442156
0.56457
0.504357
0.436926
0.503992
0.476032
0.501877
0.562398
0.503516
0.539582
0.505328
0.503867
0.506019
0.503895
0.475554
0.503945
0.44559
0.546637
0.506044
0.563844
0.508279
0.50374
0.538491
0.551918
0.502869
0.503362
0.543785
0.503864
0.510583
0.549694
0.501197
0.555892
0.476425
0.45283
0.505368
0.50581
0.50239
0.497995
0.55003
0.509358
0.499954
0.499449
0.505762
0.549525
0.501112
0.502705
0.465953
0.505098
0.500075
0.505172
0.504662
0.505365
0.505332
0.516392
0.50533
0.513418
0.481235
0.504708
0.501258
0.561923
0.502933
0.496645
0.502471
0.468885
0.564263
0.564281
0.467139
0.559398
0.500139
0.50034
0.534754
0.532651
0.50518
0.555644
0.503579
0.514379
0.49625
0.504125
0.446059
0.504929
0.505943
0.506115
0.558275
0.5016
0.502603
0.50286
0.481748
0.47669
0.47589
0.500263
0.503046
0.563769
0.50095
0.544545
0.502949
0.465762
0.500067
0.500086
0.504111
0.506168
0.469293
0.559345
0.504529
0.526938
0.502793
0.503238
0.505266
0.467669
0.504884
0.43446
0.566149
0.500365
0.498575
0.501005
0.434393
0.547717
0.54688
0.501083
0.518086
0.551429
0.548886
0.502818
0.565439
0.500631
0.440232
0.505547
0.560999
0.504127
0.550436
0.499999
0.503844
0.517498
0.505227
0.505394
0.507645
0.504302
0.46375
0.515121
0.488401
0.505892
0.501972
0.496433
0.489851
0.516517
0.503024
0.561315
0.50531
0.505418
0.482746
0.511637
0.53732
0.566068
0.509006
0.505367
0.507506
0.565224
0.550689
0.473322
0.50349
0.566247
0.551927
0.500357
0.543038
0.544693
0.506382
0.503139
0.504518
0.483472
0.558719
0.551408
0.503109
0.505572
0.503786
0.462682
0.477443
0.505789
0.562084
0.505829
0.505105
0.50526
0.496832
0.474608
0.455124
0.487572
0.505328
0.504716
0.502985
0.505148
0.501474
0.566641
0.501725
0.522611
0.434179
0.459417
0.559789
0.556493
0.500882
0.500982
0.560484
0.500708
0.563483
0.563978
0.550637
0.437955
0.56195
0.512237
0.4539
0.504052
0.505551
0.503297
0.504565
0.500588
0.525493
0.505018
0.534276
0.547345
0.505609
0.500176
0.501027
0.436387
0.502071
0.500769
0.50609
0.49973
0.506158
0.505027
0.479422
0.510685
0.501097
0.558624
0.498206
0.505553
0.498957
0.501185
0.502541
0.503947
0.496248
0.505565
0.560291
0.501648
0.503698
0.500272
0.505516
0.43893
0.467445
0.505483
0.508796
0.434641
0.558307
0.502928
0.532248
0.519925
0.470812
0.502036
0.544681
0.553833
0.515207
0.456678
0.500463
0.525552
0.505451
0.518281
0.505883
0.500261
0.494366
0.558936
0.566465
0.4584
0.505107
0.547689
0.565528
0.519392
0.50118
0.499961
0.501778
0.501499
0.538207
0.554622
0.566
0.474235
0.505423
0.557798
0.504636
0.561543
0.506025
0.524485
0.502237
0.501425
0.515081
0.560217
0.565221
0.474135
0.497806
0.538976
0.496823
0.501465
0.56668
0.503059
0.475363
0.502316
0.501141
0.501311
0.50279
0.566599
0.477332
0.503175
0.502697
0.501583
0.501627
0.518322
0.497319
0.510788
0.49996
0.559984
0.559391
0.501302
0.488175
0.505321
0.5059
0.500478
0.501089
0.504695
0.548241
0.561373
0.561977
0.540956
0.504601
0.473046
0.505566
0.504631
0.442947
0.500687
0.559008
0.505079
0.50448
0.504589
0.504357
0.505552
0.505469
0.523053
0.436955
0.500332
0.505179
0.504522
0.554352
0.501375
0.515433
0.504449
0.500322
0.50054
0.500044
0.502022
0.44733
0.505537
0.504927
0.505008
0.47691
0.504326
0.508864
0.559997
0.504954
0.505281
0.559556
0.50127
0.504249
0.553032
0.50043
0.565755
0.55747
0.508796
0.433908
0.552732
0.551709
0.552153
0.49998
0.504128
0.49676
0.504849
0.553691
0.501673
0.501066
0.504047
0.479708
0.434536
0.541725
0.486719
0.564477
0.501283
0.501898
0.504766
0.505476
0.501916
0.500204
0.537395
0.503406
0.503317
0.517836
0.505381
0.538066
0.544641
0.51765
0.447381
0.503917
0.539851
0.50383
0.500643
0.500553
0.433965
0.50136
0.505148
0.504938
0.523768
0.505724
0.506008
0.566193
0.558167
0.445923
0.553283
0.500663
0.50067
0.503999
0.504688
0.503153
0.504769
0.491438
0.565084
0.505134
0.504999
0.444466
0.555818
0.501984
0.560599
0.544769
0.55793
0.50059
0.505018
0.504795
0.551195
0.5049
0.564936
0.502586
0.500698
0.544942
0.543228
0.478
0.502997
0.505149
0.524646
0.504733
0.528159
0.506115
0.503177
0.504938
0.468218
0.504179
0.504674
0.550064
0.505048
0.500303
0.505142
0.50493
0.501012
0.47757
0.543357
0.504932
0.501689
0.505105
0.505017
0.51652
0.542171
0.505137
0.501865
0.518943
0.503857
0.505048
0.491088
0.445958
0.504977
0.466544
0.50071
0.514905
0.500088
0.505097
0.438456
0.565385
0.505542
0.559796
0.516318
0.502086
0.504594
0.49836
0.508722
0.500818
0.564547
0.554351
0.556953
0.504592
0.482947
0.525992
0.501959
0.555561
0.565314
0.565391
0.453404
0.504783
0.501203
0.565727
0.536213
0.527221
0.450487
0.51916
0.504372
0.500091
0.448917
0.500753
0.502617
0.500091
0.547019
0.500165
0.500393
0.51342
0.566359
0.502051
0.468126
0.560898
0.523378
0.500545
0.502311
0.466517
0.502838
0.500469
0.499425
0.521403
0.500097
0.503964
0.505069
0.500378
0.503421
0.5052
0.505804
0.505566
0.503857
0.501125
0.564186
0.565834
0.44292
0.504141
0.505717
0.482921
0.542661
0.469656
0.50431
0.560976
0.504668
0.560989
0.502525
0.503041
0.500385
0.502441
0.503156
0.444392
0.504486
0.500492
0.479641
0.503389
0.516342
0.542651
0.505626
0.528375
0.50255
0.503291
0.468113
0.478071
0.504744
0.504035
0.501031
0.504439
0.501958
0.563239
0.502231
0.541127
0.53996
0.542365
0.501198
0.501415
0.504518
0.53414
0.504404
0.451935
0.503422
0.5042
0.503551
0.50407
0.503503
0.50314
0.566512
0.502798
0.503316
0.506905
0.500543
0.505936
0.455767
0.504206
0.45285
0.565852
0.504176
0.454914
0.463376
0.481329
0.562779
0.562756
0.504024
0.50178
0.502955
0.501882
0.545307
0.566029
0.500245
0.502107
0.504232
0.502459
0.563713
0.471353
0.50275
0.562756
0.562806
0.531953
0.506494
0.502094
0.502325
0.45143
0.564951
0.565016
0.500676
0.448949
0.451971
0.527143
0.469856
0.504808
0.500002
0.50092
0.505196
0.473023
0.464882
0.500344
0.502082
0.49816
0.454296
0.534038
0.534077
0.535247
0.502412
0.484538
0.552154
0.501645
0.492791
0.505074
0.502422
0.502116
0.501136
0.474461
0.456434
0.50045
0.463369
0.565469
0.502446
0.504729
0.552835
0.546134
0.504723
0.500183
0.564392
0.446023
0.504398
0.50104
0.459152
0.494391
0.500287
0.502532
0.502335
0.50219
0.504586
0.504504
0.500347
0.503206
0.505576
0.450049
0.471442
0.502582
0.499329
0.500182
0.566143
0.505068
0.504923
0.556557
0.55527
0.500276
0.501977
0.499998
0.558118
0.502416
0.502688
0.504831
0.500275
0.469834
0.500248
0.503295
0.502791
0.504851
0.529571
0.505536
0.501751
0.501972
0.531847
0.531817
0.544278
0.502128
0.502386
0.500135
0.496904
0.501992
0.492727
0.455697
0.504664
0.502729
0.502448
0.502589
0.503997
0.511922
0.486215
0.500652
0.505629
0.504153
0.504144
0.501768
0.501803
0.496182
0.503857
0.504557
0.500008
0.502443
0.504572
0.529573
0.496966
0.556864
0.54928
0.504995
0.446775
0.457782
0.503848
0.504457
0.500764
0.502479
0.503934
0.502404
0.500996
0.510384
0.446082
0.50491
0.504424
0.537993
0.501525
0.472403
0.548517
0.50123
0.450405
0.505551
0.500286
0.505498
0.500235
0.502257
0.503839
0.50128
0.502309
0.504939
0.505611
0.504106
0.554619
0.460546
0.505013
0.500897
0.503205
0.56642
0.447347
0.504662
0.566178
0.5637
0.502247
0.461838
0.500296
0.513373
0.474645
0.511823
0.500174
0.502654
0.559131
0.559872
0.469696
0.502387
0.501958
0.503321
0.494416
0.468185
0.50118
0.510011
0.505445
0.502916
0.501417
0.451442
0.502347
0.472376
0.448692
0.500737
0.503779
0.490517
0.500075
0.461807
0.500875
0.504328
0.559545
0.502644
0.558057
0.50018
0.505597
0.500369
0.505206
0.502381
0.446036
0.497702
0.498209
0.50239
0.502666
0.503326
0.547048
0.501352
0.502422
0.501315
0.491129
0.507759
0.500397
0.502563
0.471329
0.491117
0.502537
0.499364
0.456338
0.476328
0.535022
0.534991
0.457817
0.45495
0.503892
0.487854
0.505522
0.504149
0.504817
0.500373
0.504135
0.502004
0.500703
0.501797
0.477951
0.500355
0.504486
0.501466
0.501857
0.565346
0.500266
0.494402
0.501023
0.563229
0.563192
0.500524
0.504623
0.494436
0.501769
0.505355
0.500331
0.500182
0.505515
0.504588
0.505598
0.565907
0.433973
0.508865
0.500645
0.491153
0.502062
0.51034
0.480182
0.500443
0.504243
0.501397
0.501086
0.505548
0.505484
0.52471
0.505467
0.447359
0.504566
0.502145
0.500372
0.502573
0.500174
0.502428
0.504917
0.519232
0.502424
0.5025
0.463158
0.502553
0.500937
0.500851
0.451423
0.505289
0.502437
0.539211
0.5008
0.505671
0.471374
0.503838
0.502395
0.507292
0.473454
0.528375
0.484514
0.558519
0.504438
0.554989
0.561326
0.504246
0.505488
0.505549
0.444818
0.504445
0.500269
0.500419
0.482866
0.505552
0.501789
0.541497
0.50092
0.501256
0.504633
0.501448
0.500421
0.500781
0.50026
0.50476
0.504396
0.504791
0.490482
0.504391
0.503098
0.50337
0.504094
0.497747
0.501475
0.503687
0.503651
0.502485
0.500912
0.502961
0.505751
0.501124
0.505379
0.501864
0.503251
0.502507
0.439147
0.503067
0.43933
0.50238
0.504051
0.504081
0.542899
0.497453
0.497372
0.500329
0.500518
0.47443
0.500244
0.500799
0.505432
0.485606
0.485689
0.529488
0.50032
0.5042
0.50064
0.466787
0.500178
0.500828
0.503774
0.503205
0.500514
0.56585
0.564923
0.471301
0.500742
0.501854
0.500419
0.448931
0.447338
0.447349
0.505559
0.501799
0.500986
0.500547
0.500117
0.505557
0.43795
0.50549
0.505473
0.500396
0.52598
0.501436
0.473362
0.500624
0.489774
0.489831
0.502943
0.502367
0.50115
0.489938
0.505087
0.500211
0.468229
0.499835
0.505531
0.502262
0.504585
0.504077
0.530785
0.53309
0.499589
0.503069
0.50101
0.505447
0.505413
0.503792
0.500287
0.505388
0.50285
0.503694
0.505046
0.500561
0.505591
0.501134
0.455758
0.504063
0.502782
0.50233
0.503285
0.501574
0.505132
0.501698
0.500577
0.501535
0.450032
0.50366
0.500728
0.500751
0.501012
0.500504
0.500722
0.501368
0.524589
0.487058
0.487131
0.500909
0.501758
0.500751
0.502484
0.510357
0.501638
0.504813
0.500434
0.5044
0.434577
0.502425
0.502756
0.481255
0.50698
0.501064
0.519163
0.501201
0.441618
0.502862
0.48947
0.48946
0.441606
0.441712
0.50507
0.501925
0.505569
0.505693
0.439143
0.500852
0.500346
0.46681
0.550353
0.503988
0.497697
0.50169
0.501863
0.550657
0.471368
0.447325
0.464388
0.500576
0.500602
0.500726
0.500671
0.505173
0.503155
0.502924
0.502692
0.500888
0.503383
0.500833
0.501589
0.489838
0.502697
0.563914
0.504483
0.501332
0.501745
0.500594
0.501916
0.495486
0.50217
0.502989
0.50541
0.501362
0.502173
0.503021
0.50545
0.502413
0.557094
0.50245
0.554498
0.555454
0.504655
0.50217
0.500345
0.502428
0.47304
0.500978
0.502672
0.502172
0.505476
0.502525
0.502063
0.507263
0.505506
0.502944
0.502489
0.482498
0.48248
0.503174
0.508776
0.504762
0.501625
0.505041
0.544411
0.501247
0.502227
0.452833
0.473386
0.502538
0.492913
0.455723
0.505313
0.458748
0.50628
0.506176
0.504812
0.460227
0.504139
0.504798
0.50184
0.505207
0.50374
0.501449
0.500318
0.562478
0.44478
0.507256
0.505809
0.461808
0.502675
0.510302
0.442415
0.443607
0.502286
0.559048
0.460277
0.435363
0.503647
0.504984
0.500787
0.563615
0.502905
0.435485
0.506155
0.506049
0.502381
0.501529
0.502398
0.501284
0.440256
0.504832
0.504873
0.503301
0.505601
0.501124
0.504955
0.505184
0.501
0.458736
0.500206
0.500254
0.477934
0.497661
0.496005
0.469118
0.502557
0.502355
0.558184
0.50242
0.502781
0.50238
0.503716
0.502359
0.505368
0.505493
0.505657
0.464941
0.563155
0.503274
0.437993
0.438115
0.502303
0.505131
0.50287
0.501997
0.502402
0.503011
0.505531
0.505469
0.502005
0.502145
0.500931
0.505407
0.447374
0.502459
0.503444
0.502256
0.448843
0.44884
0.500866
0.501499
0.503044
0.500746
0.502282
0.504302
0.500877
0.46555
0.505332
0.453492
0.453373
0.502082
0.504524
0.501361
0.503478
0.484827
0.484919
0.474358
0.490411
0.490466
0.496072
0.50407
0.504976
0.466796
0.503501
0.502279
0.545546
0.503608
0.49699
0.496902
0.503481
0.503435
0.505455
0.501814
0.50019
0.505535
0.505467
0.505381
0.503701
0.504716
0.512041
0.502812
0.492329
0.492235
0.505383
0.503088
0.505402
0.501207
0.501116
0.502153
0.503663
0.505362
0.500265
0.505351
0.471418
0.501863
0.563328
0.505502
0.50258
0.554191
0.503552
0.505778
0.505725
0.5056
0.500487
0.504206
0.502541
0.504212
0.50586
0.547773
0.502733
0.503649
0.505058
0.502606
0.501223
0.500964
0.546268
0.500382
0.500358
0.505437
0.479642
0.481211
0.503403
0.500627
0.50258
0.503199
0.504061
0.503134
0.502314
0.502414
0.500432
0.504651
0.5053
0.500616
0.502905
0.502544
0.505737
0.503371
0.501212
0.466822
0.562647
0.461786
0.504333
0.5058
0.500837
0.505245
0.505803
0.504146
0.502294
0.474658
0.50495
0.504783
0.565843
0.52104
0.504545
0.503141
0.504465
0.492807
0.502889
0.481215
0.505494
0.503637
0.505706
0.477914
0.477907
0.501054
0.494966
0.502286
0.503689
0.503569
0.502678
0.464919
0.503816
0.503213
0.500712
0.504515
0.503952
0.503807
0.502516
0.492334
0.502042
0.504077
0.503191
0.505635
0.502543
0.526879
0.502718
0.501554
0.503295
0.487752
0.487804
0.503634
0.502765
0.505287
0.503501
0.504848
0.50544
0.505673
0.553558
0.501391
0.505197
0.505299
0.504391
0.50126
0.503595
0.502406
0.505203
0.502521
0.50245
0.481639
0.481667
0.505688
0.505592
0.520663
0.505146
0.503946
0.500439
0.503557
0.504351
0.502919
0.504163
0.500456
0.503629
0.505591
0.504102
0.560147
0.50376
0.504426
0.502349
0.505355
0.47127
0.503528
0.52512
0.503049
0.505369
0.505396
0.556424
0.503627
0.502751
0.50392
0.503865
0.50899
0.505608
0.446028
0.460452
0.503447
0.504553
0.502702
0.471275
0.503216
0.50313
0.504415
0.505224
0.44293
0.443027
0.500365
0.505041
0.504862
0.435947
0.504997
0.50437
0.55685
0.502634
0.434861
0.505149
0.504999
0.439265
0.503709
0.505271
0.502233
0.503952
0.500852
0.505545
0.505837
0.503337
0.503334
0.505148
0.503457
0.505628
0.500497
0.505397
0.502424
0.470244
0.503661
0.502878
0.500945
0.503426
0.434105
0.503022
0.504151
0.503674
0.504592
0.505355
0.545637
0.505566
0.505382
0.502485
0.5003
0.505497
0.5003
0.505429
0.503512
0.503639
0.505331
0.503656
0.503088
0.504268
0.501501
0.505521
0.533124
0.503882
0.5296
0.505267
0.502773
0.502337
0.505545
0.502537
0.502409
0.454884
0.454842
0.502926
0.501942
0.505545
0.454297
0.457251
0.504236
0.503896
0.503802
0.505345
0.50352
0.501613
0.502299
0.50526
0.504925
0.467949
0.504033
0.503771
0.502293
0.505661
0.489517
0.508851
0.504721
0.505082
0.505093
0.469092
0.502442
0.50412
0.503569
0.561936
0.56115
0.505214
0.502646
0.505195
0.440253
0.492908
0.492815
0.504335
0.468004
0.503267
0.503025
0.502386
0.502337
0.502835
0.550822
0.50523
0.505189
0.448678
0.502869
0.50402
0.504531
0.504031
0.502626
0.504332
0.503156
0.501514
0.501426
0.56142
0.502437
0.505492
0.503473
0.502301
0.505444
0.502956
0.554928
0.504457
0.502929
0.502518
0.503829
0.502314
0.501045
0.503184
0.502434
0.505334
0.503608
0.501756
0.503478
0.502685
0.502657
0.504845
0.502372
0.504528
0.504486
0.502546
0.503549
0.503
0.505495
0.502396
0.505067
0.502334
0.5052
0.505476
0.504262
0.504886
0.504536
0.503278
0.503473
0.545323
0.504334
0.503364
0.502271
0.502489
0.503588
0.505332
0.503617
0.501293
0.50208
0.504213
0.504034
0.503669
0.50216
0.50518
0.502667
0.504534
0.50283
0.502542
0.503435
0.503239
0.505078
0.504916
0.503724
0.504074
0.502113
0.504001
0.504356
0.502918
0.502481
0.502638
0.502376
0.502938
0.502593
0.50521
0.502442
0.504117
0.502758
0.502312
0.504919
0.505637
0.505036
0.50555
0.503183
0.504416
0.548713
0.50233
0.47961
0.476305
0.500468
0.50426
0.502404
0.502597
0.505073
0.505328
0.505689
0.502592
0.504009
0.502635
0.502396
0.503708
0.503847
0.503745
0.503515
0.502852
0.502121
0.502497
0.503554
0.504434
0.499134
0.496152
0.504546
0.504258
0.505214
0.504043
0.503533
0.502602
0.499094
0.502453
0.522531
0.513752
0.502205
0.5022
0.502508
0.502974
0.53789
0.505672
0.503718
0.502327
0.536072
0.502295
0.555232
0.503941
0.505205
0.502531
0.500637
0.505344
0.547696
0.500278
0.504562
0.505772
0.504762
0.502389
0.545582
0.501899
0.505572
0.561855
0.502208
0.503098
0.502836
0.502864
0.5023
0.505244
0.502561
0.505754
0.503296
0.503562
0.504041
0.502758
0.53514
0.502356
0.505433
0.502199
0.502513
0.502411
0.50547
0.502107
0.562125
0.502541
0.502432
0.492848
0.560464
0.502624
0.503726
0.50545
0.502325
0.504287
0.505812
0.503933
0.502218
0.501618
0.560368
0.50264
0.5023
0.503059
0.503048
0.503538
0.50267
0.561355
0.505498
0.502185
0.50225
0.50291
0.505641
0.50503
0.504
0.502424
0.505137
0.505032
0.502333
0.559157
0.503541
0.504386
0.502385
0.503735
0.502404
0.503412
0.502561
0.505469
0.504984
0.56082
0.506702
0.502801
0.504152
0.502488
0.502545
0.505104
0.50435
0.554022
0.504251
0.505572
0.504041
0.502535
0.503244
0.503255
0.504298
0.502297
0.502382
0.505494
0.558186
0.534287
0.528411
0.502443
0.5621
0.503095
0.452842
0.457255
0.504242
0.502756
0.558692
0.50255
0.502622
0.503478
0.503955
0.502857
0.504271
0.562557
0.500958
0.507257
0.506281
0.504967
0.503846
0.502404
0.504131
0.503523
0.562605
0.502479
0.560997
0.559792
0.504397
0.56364
0.468033
0.563027
0.502591
0.501947
0.505531
0.502266
0.503935
0.562598
0.504464
0.450037
0.505004
0.502379
0.505429
0.50109
0.502471
0.503093
0.502293
0.504982
0.504638
0.505448
0.504449
0.555078
0.507423
0.502555
0.502126
0.502507
0.504051
0.563295
0.504548
0.545392
0.504459
0.505237
0.506634
0.558655
0.505083
0.502696
0.505052
0.502364
0.505427
0.505169
0.505505
0.504722
0.559749
0.505463
0.503351
0.505503
0.502446
0.50474
0.505383
0.552263
0.503033
0.476308
0.481251
0.563922
0.5641
0.503049
0.510696
0.504355
0.505427
0.550911
0.550919
0.564096
0.504981
0.497819
0.502763
0.502361
0.502681
0.502872
0.503178
0.564205
0.504393
0.505558
0.502139
0.5055
0.505572
0.502774
0.505145
0.505556
0.505122
0.50449
0.516299
0.561762
0.502757
0.557419