# vtk DataFile Version 1.0
unstructured grid
ascii
DATASET UNSTRUCTURED_GRID
points 8094 float
-0.25 0.0574735 0
0.5 0.0546937 0
0.5 -0.0546937 0
-0.25 -0.0574735 0
-0.25 0.0574735 0.01
0.5 0.0546937 0.01
0.5 -0.0546937 0.01
-0.25 -0.0574735 0.01
-0.246045 0.0569295 0
-0.242089 0.0563854 0
-0.238136 0.0558289 0
-0.234184 0.0552582 0
-0.230232 0.0546875 0
-0.226284 0.0540912 0
-0.222337 0.0534933 0
-0.218391 0.0528841 0
-0.214448 0.0522585 0
-0.210504 0.0516328 0
-0.206565 0.0509829 0
-0.202626 0.0503294 0
-0.198689 0.0496667 0
-0.194755 0.0489856 0
-0.190821 0.0483046 0
-0.18689 0.0476022 0
-0.182961 0.0468942 0
-0.179033 0.0461799 0
-0.175108 0.0454463 0
-0.171183 0.0447127 0
-0.167262 0.0439627 0
-0.163342 0.0432056 0
-0.159422 0.0424455 0
-0.155506 0.041668 0
-0.15159 0.0408904 0
-0.147675 0.0401031 0
-0.143762 0.0393092 0
-0.13985 0.0385149 0
-0.135939 0.0377103 0
-0.132028 0.0369056 0
-0.128117 0.0361005 0
-0.124207 0.0352949 0
-0.120296 0.0344893 0
-0.116386 0.0336836 0
-0.112475 0.032878 0
-0.108563 0.0320794 0
-0.104649 0.0312931 0
-0.100735 0.0305068 0
-0.0968152 0.029745 0
-0.0928949 0.0289889 0
-0.0889722 0.0282446 0
-0.0850433 0.0275341 0
-0.0811144 0.0268235 0
-0.0771778 0.0261578 0
-0.0732381 0.0255098 0
-0.0692962 0.0248759 0
-0.0653442 0.0243073 0
-0.0613923 0.0237386 0
-0.0574324 0.0232306 0
-0.0534681 0.0227556 0
-0.0495024 0.0222934 0
-0.0455272 0.0219207 0
-0.041552 0.0215481 0
-0.0375717 0.0212385 0
-0.0335881 0.0209694 0
-0.029604 0.0207098 0
-0.0256151 0.0205369 0
-0.0216262 0.0203639 0
-0.0176357 0.0202396 0
-0.0136441 0.0201487 0
-0.00965243 0.0200635 0
-0.00565987 0.0200372 0
-0.00166732 0.020011 0
0.00232526 0.0200121 0
0.00631785 0.0200329 0
0.0103104 0.0200563 0
0.0143027 0.0201109 0
0.018295 0.0201654 0
0.022287 0.0202345 0
0.0262788 0.0203144 0
0.0302706 0.0203957 0
0.034262 0.0204956 0
0.0382534 0.0205955 0
0.0422446 0.0207045 0
0.0462355 0.0208207 0
0.0502265 0.0209377 0
0.054217 0.0210676 0
0.0582075 0.0211975 0
0.0621978 0.0213339 0
0.0661879 0.0214757 0
0.0701781 0.021618 0
0.0741678 0.0217703 0
0.0781575 0.0219227 0
0.0821471 0.0220801 0
0.0861364 0.022242 0
0.0901258 0.0224041 0
0.0941148 0.0225747 0
0.0981038 0.0227453 0
0.102093 0.0229202 0
0.106081 0.023099 0
0.11007 0.0232779 0
0.114058 0.0234644 0
0.118046 0.0236509 0
0.122035 0.0238411 0
0.126022 0.024035 0
0.13001 0.0242288 0
0.133998 0.0244298 0
0.137986 0.0246308 0
0.141973 0.0248352 0
0.14596 0.025043 0
0.149947 0.0252509 0
0.153934 0.0254654 0
0.157921 0.02568 0
0.161908 0.0258978 0
0.165894 0.026119 0
0.169881 0.0263402 0
0.173867 0.0265678 0
0.177853 0.0267956 0
0.181839 0.0270264 0
0.185825 0.0272607 0
0.189811 0.0274951 0
0.193796 0.0277356 0
0.197781 0.0279764 0
0.201767 0.02822 0
0.205752 0.0284673 0
0.209737 0.0287146 0
0.213721 0.0289679 0
0.217706 0.0292217 0
0.22169 0.0294782 0
0.225674 0.0297385 0
0.229658 0.0299988 0
0.233642 0.0302651 0
0.237626 0.0305319 0
0.241609 0.0308014 0
0.245593 0.0310748 0
0.249576 0.0313482 0
0.253559 0.0316276 0
0.257542 0.0319077 0
0.261524 0.0321904 0
0.265507 0.0324772 0
0.269489 0.032764 0
0.273471 0.0330568 0
0.277453 0.0333504 0
0.281434 0.0336466 0
0.285416 0.0339471 0
0.289397 0.0342476 0
0.293378 0.034554 0
0.297359 0.0348615 0
0.301339 0.0351714 0
0.305319 0.0354859 0
0.3093 0.0358005 0
0.313279 0.036121 0
0.317259 0.0364427 0
0.321239 0.0367667 0
0.325218 0.0370957 0
0.329197 0.0374248 0
0.333175 0.0377597 0
0.337154 0.0380961 0
0.341132 0.0384347 0
0.34511 0.0387786 0
0.349088 0.0391226 0
0.353065 0.0394724 0
0.357042 0.0398239 0
0.361019 0.0401775 0
0.364995 0.0405368 0
0.368972 0.0408961 0
0.372948 0.0412613 0
0.376924 0.0416285 0
0.380899 0.0419975 0
0.384874 0.0423727 0
0.388849 0.0427479 0
0.392823 0.0431289 0
0.396798 0.0435123 0
0.400772 0.0438973 0
0.404745 0.044289 0
0.408718 0.0446807 0
0.412691 0.0450781 0
0.416664 0.0454782 0
0.420636 0.0458797 0
0.424608 0.0462883 0
0.42858 0.046697 0
0.432551 0.0471114 0
0.436521 0.0475289 0
0.440492 0.0479474 0
0.444462 0.0483738 0
0.448432 0.0488001 0
0.452401 0.0492319 0
0.45637 0.0496673 0
0.460338 0.0501035 0
0.464306 0.0505482 0
0.468274 0.0509928 0
0.472241 0.0514427 0
0.476208 0.0518968 0
0.480175 0.0523512 0
0.48414 0.0528148 0
0.488106 0.0532784 0
0.492071 0.0537471 0
0.496036 0.0542204 0
0.5 0.050787 0
0.5 0.0468803 0
0.5 0.0429736 0
0.5 0.0390669 0
0.5 0.0351602 0
0.5 0.0312535 0
0.5 0.0273468 0
0.5 0.0234402 0
0.5 0.0195335 0
0.5 0.0156268 0
0.5 0.0117201 0
0.5 0.00781339 0
0.5 0.00390669 0
0.5 1.43781e-13 0
0.5 -0.00390669 0
0.5 -0.00781339 0
0.5 -0.0117201 0
0.5 -0.0156268 0
0.5 -0.0195335 0
0.5 -0.0234402 0
0.5 -0.0273468 0
0.5 -0.0312535 0
0.5 -0.0351602 0
0.5 -0.0390669 0
0.5 -0.0429736 0
0.5 -0.0468803 0
0.5 -0.050787 0
0.496036 -0.0542204 0
0.492071 -0.0537471 0
0.488106 -0.0532784 0
0.48414 -0.0528148 0
0.480175 -0.0523512 0
0.476208 -0.0518968 0
0.472241 -0.0514427 0
0.468274 -0.0509928 0
0.464306 -0.0505482 0
0.460338 -0.0501035 0
0.45637 -0.0496673 0
0.452401 -0.0492319 0
0.448432 -0.0488001 0
0.444462 -0.0483738 0
0.440492 -0.0479474 0
0.436521 -0.0475289 0
0.432551 -0.0471114 0
0.42858 -0.046697 0
0.424608 -0.0462883 0
0.420636 -0.0458797 0
0.416664 -0.0454782 0
0.412691 -0.0450781 0
0.408718 -0.0446807 0
0.404745 -0.044289 0
0.400772 -0.0438973 0
0.396798 -0.0435123 0
0.392823 -0.0431289 0
0.388849 -0.0427479 0
0.384874 -0.0423727 0
0.380899 -0.0419975 0
0.376924 -0.0416285 0
0.372948 -0.0412613 0
0.368972 -0.0408961 0
0.364995 -0.0405368 0
0.361019 -0.0401775 0
0.357042 -0.0398239 0
0.353065 -0.0394724 0
0.349088 -0.0391226 0
0.34511 -0.0387786 0
0.341132 -0.0384347 0
0.337154 -0.0380961 0
0.333175 -0.0377597 0
0.329197 -0.0374248 0
0.325218 -0.0370957 0
0.321239 -0.0367667 0
0.317259 -0.0364427 0
0.313279 -0.036121 0
0.3093 -0.0358005 0
0.305319 -0.0354859 0
0.301339 -0.0351714 0
0.297359 -0.0348615 0
0.293378 -0.034554 0
0.289397 -0.0342476 0
0.285416 -0.0339471 0
0.281434 -0.0336466 0
0.277453 -0.0333504 0
0.273471 -0.0330568 0
0.269489 -0.032764 0
0.265507 -0.0324772 0
0.261524 -0.0321904 0
0.257542 -0.0319077 0
0.253559 -0.0316276 0
0.249576 -0.0313482 0
0.245593 -0.0310748 0
0.241609 -0.0308014 0
0.237626 -0.0305319 0
0.233642 -0.0302651 0
0.229658 -0.0299988 0
0.225674 -0.0297385 0
0.22169 -0.0294782 0
0.217706 -0.0292217 0
0.213721 -0.0289679 0
0.209737 -0.0287146 0
0.205752 -0.0284673 0
0.201767 -0.02822 0
0.197781 -0.0279764 0
0.193796 -0.0277356 0
0.189811 -0.0274951 0
0.185825 -0.0272607 0
0.181839 -0.0270264 0
0.177853 -0.0267956 0
0.173867 -0.0265678 0
0.169881 -0.0263402 0
0.165894 -0.026119 0
0.161908 -0.0258978 0
0.157921 -0.02568 0
0.153934 -0.0254654 0
0.149947 -0.0252509 0
0.14596 -0.025043 0
0.141973 -0.0248352 0
0.137986 -0.0246308 0
0.133998 -0.0244298 0
0.13001 -0.0242288 0
0.126022 -0.024035 0
0.122035 -0.0238411 0
0.118046 -0.0236509 0
0.114058 -0.0234644 0
0.11007 -0.0232779 0
0.106081 -0.023099 0
0.102093 -0.0229202 0
0.0981038 -0.0227453 0
0.0941148 -0.0225747 0
0.0901258 -0.0224041 0
0.0861364 -0.022242 0
0.0821471 -0.0220801 0
0.0781575 -0.0219227 0
0.0741678 -0.0217703 0
0.0701781 -0.021618 0
0.0661879 -0.0214757 0
0.0621978 -0.0213339 0
0.0582075 -0.0211975 0
0.054217 -0.0210676 0
0.0502265 -0.0209377 0
0.0462355 -0.0208207 0
0.0422446 -0.0207045 0
0.0382534 -0.0205955 0
0.034262 -0.0204956 0
0.0302706 -0.0203957 0
0.0262788 -0.0203144 0
0.022287 -0.0202345 0
0.018295 -0.0201654 0
0.0143027 -0.0201109 0
0.0103104 -0.0200563 0
0.00631785 -0.0200329 0
0.00232526 -0.0200121 0
-0.00166732 -0.020011 0
-0.00565987 -0.0200372 0
-0.00965243 -0.0200635 0
-0.0136441 -0.0201487 0
-0.0176357 -0.0202396 0
-0.0216262 -0.0203639 0
-0.0256151 -0.0205369 0
-0.029604 -0.0207098 0
-0.0335881 -0.0209694 0
-0.0375717 -0.0212385 0
-0.041552 -0.0215481 0
-0.0455272 -0.0219207 0
-0.0495024 -0.0222934 0
-0.0534681 -0.0227556 0
-0.0574324 -0.0232306 0
-0.0613923 -0.0237386 0
-0.0653442 -0.0243073 0
-0.0692962 -0.0248759 0
-0.0732381 -0.0255098 0
-0.0771778 -0.0261578 0
-0.0811144 -0.0268235 0
-0.0850433 -0.0275341 0
-0.0889722 -0.0282446 0
-0.0928949 -0.0289889 0
-0.0968152 -0.029745 0
-0.100735 -0.0305068 0
-0.104649 -0.0312931 0
-0.108563 -0.0320794 0
-0.112475 -0.032878 0
-0.116386 -0.0336836 0
-0.120296 -0.0344893 0
-0.124207 -0.0352949 0
-0.128117 -0.0361005 0
-0.132028 -0.0369056 0
-0.135939 -0.0377103 0
-0.13985 -0.0385149 0
-0.143762 -0.0393092 0
-0.147675 -0.0401031 0
-0.15159 -0.0408904 0
-0.155506 -0.041668 0
-0.159422 -0.0424455 0
-0.163342 -0.0432056 0
-0.167262 -0.0439627 0
-0.171183 -0.0447127 0
-0.175108 -0.0454463 0
-0.179033 -0.0461799 0
-0.182961 -0.0468942 0
-0.18689 -0.0476022 0
-0.190821 -0.0483046 0
-0.194755 -0.0489856 0
-0.198689 -0.0496667 0
-0.202626 -0.0503294 0
-0.206565 -0.0509829 0
-0.210504 -0.0516328 0
-0.214448 -0.0522585 0
-0.218391 -0.0528841 0
-0.222337 -0.0534933 0
-0.226284 -0.0540912 0
-0.230232 -0.0546875 0
-0.234184 -0.0552582 0
-0.238136 -0.0558289 0
-0.242089 -0.0563854 0
-0.246045 -0.0569295 0
-0.25 -0.0535098 0
-0.25 -0.0495461 0
-0.25 -0.0455824 0
-0.25 -0.0416187 0
-0.25 -0.0376551 0
-0.25 -0.0336914 0
-0.25 -0.0297277 0
-0.25 -0.025764 0
-0.25 -0.0218003 0
-0.25 -0.0178366 0
-0.25 -0.0138729 0
-0.25 -0.00990922 0
-0.25 -0.00594553 0
-0.25 -0.00198184 0
-0.25 0.00198184 0
-0.25 0.00594553 0
-0.25 0.00990922 0
-0.25 0.0138729 0
-0.25 0.0178366 0
-0.25 0.0218003 0
-0.25 0.025764 0
-0.25 0.0297277 0
-0.25 0.0336914 0
-0.25 0.0376551 0
-0.25 0.0416187 0
-0.25 0.0455824 0
-0.25 0.0495461 0
-0.25 0.0535098 0
-0.246045 0.0569295 0.01
-0.242089 0.0563854 0.01
-0.238136 0.0558289 0.01
-0.234184 0.0552582 0.01
-0.230232 0.0546875 0.01
-0.226284 0.0540912 0.01
-0.222337 0.0534933 0.01
-0.218391 0.0528841 0.01
-0.214448 0.0522585 0.01
-0.210504 0.0516328 0.01
-0.206565 0.0509829 0.01
-0.202626 0.0503294 0.01
-0.198689 0.0496667 0.01
-0.194755 0.0489856 0.01
-0.190821 0.0483046 0.01
-0.18689 0.0476022 0.01
-0.182961 0.0468942 0.01
-0.179033 0.0461799 0.01
-0.175108 0.0454463 0.01
-0.171183 0.0447127 0.01
-0.167262 0.0439627 0.01
[...]
CELL_DATA 7657
SCALARS rho float
LOOKUP_TABLE default
0.477201
0.371744
0.414718
0.282017
0.495318
0.384975
0.274345
0.430259
0.340275
0.499642
0.499708
0.429895
0.311944
0.430007
0.494496
0.488784
0.494408
0.418164
0.418038
0.432849
0.493628
0.418638
0.362961
0.418056
0.422903
0.427837
0.260801
0.318576
0.49656
0.386915
0.262466
0.422901
0.359814
0.475157
0.475618
0.263676
0.387735
0.362082
0.480473
0.252381
0.414447
0.339185
0.339487
0.369893
0.414358
0.41501
0.279378
0.38354
0.42297
0.476803
0.366387
0.283093
0.496509
0.497367
0.273592
0.392263
0.493938
0.491857
0.451925
0.26142
0.423229
0.414018
0.423884
0.424112
0.50036
0.500375
0.311665
0.398737
0.498891
0.447794
0.415183
0.31362
0.325144
0.496573
0.473854
0.3806
0.418661
0.37859
0.473315
0.316635
0.359207
0.430693
0.432719
0.414617
0.415054
0.45683
0.414967
0.446794
0.428088
0.260212
0.500242
0.500283
0.453599
0.498234
0.252565
0.45946
0.458192
0.366533
0.414074
0.252446
0.418392
0.421327
0.369912
0.493178
0.281067
0.349135
0.254526
0.40115
0.318253
0.493136
0.262639
0.400289
0.356472
0.4327
0.416269
0.43597
0.402362
0.251986
0.488085
0.38449
0.50106
0.501043
0.254403
0.367248
0.431895
0.430022
0.429741
0.339469
0.396267
0.342529
0.272986
0.419563
0.393447
0.322453
0.432788
0.256312
0.489142
0.359966
0.419835
0.419999
0.254977
0.258883
0.25203
0.252102
0.417877
0.493547
0.356755
0.372847
0.413822
0.25449
0.251539
0.499007
0.391328
0.34253
0.493646
0.37094
0.398829
0.419044
0.432804
0.257176
0.419241
0.491611
0.427654
0.434591
0.412793
0.369719
0.480517
0.355196
0.4161
0.488539
0.414365
0.351085
0.419451
0.25191
0.26657
0.264323
0.311463
0.459457
0.431765
0.251298
0.252061
0.317255
0.420647
0.420632
0.309123
0.450142
0.330044
0.315069
0.428792
0.459411
0.496492
0.498459
0.432767
0.464374
0.428741
0.39529
0.432955
0.491248
0.264589
0.415698
0.418024
0.421065
0.460917
0.444408
0.261104
0.497496
0.321661
0.282421
0.472911
0.463852
0.41057
0.413793
0.412703
0.432787
0.414227
0.316117
0.269207
0.455445
0.400537
0.415696
0.371967
0.373618
0.499326
0.399737
0.32381
0.360999
0.323458
0.254178
0.377253
0.499367
0.412096
0.412083
0.315661
0.493495
0.487142
0.432806
0.446342
0.421399
0.421402
0.490959
0.410339
0.252821
0.461081
0.359741
0.471968
0.466694
0.330175
0.465783
0.332655
0.374203
0.263623
0.305573
0.40186
0.474068
0.268145
0.312545
0.374115
0.495253
0.497247
0.399899
0.366223
0.497219
0.487647
0.416134
0.270729
0.414935
0.442182
0.252851
0.417978
0.251811
0.303381
0.258814
0.259121
0.432945
0.471319
0.416234
0.350738
0.400238
0.3994
0.42932
0.367124
0.425768
0.255775
0.253168
0.304612
0.262839
0.25316
0.271972
0.396226
0.417071
0.416421
0.320626
0.256096
0.49717
0.401509
0.262638
0.480836
0.430904
0.435774
0.41656
0.458245
0.497668
0.251905
0.327847
0.2613
0.455222
0.271589
0.324261
0.417551
0.40104
0.429505
0.440245
0.490703
0.33253
0.422792
0.490502
0.497094
0.495285
0.400598
0.425916
0.348732
0.362416
0.497046
0.448343
0.488522
0.496116
0.328484
0.388456
0.492319
0.416931
0.349183
0.496383
0.487614
0.377062
0.430516
0.408582
0.401436
0.254145
0.42255
0.496488
0.428497
0.265598
0.37847
0.487689
0.432999
0.267865
0.496461
0.376062
0.41543
0.492383
0.387492
0.419059
0.432775
0.419202
0.272239
0.422325
0.419607
0.283708
0.422475
0.280935
0.405461
0.418446
0.41546
0.437865
0.494089
0.264809
0.428405
0.252176
0.453718
0.456924
0.389639
0.425625
0.432452
0.432228
0.318876
0.313775
0.419188
0.407962
0.417144
0.48674
0.413107
0.417679
0.25794
0.423842
0.496836
0.498924
0.476388
0.429557
0.428082
0.491873
0.405719
0.401789
0.40104
0.4324
0.427451
0.448581
0.268745
0.351923
0.491766
0.387292
0.432847
0.432858
0.417679
0.497992
0.252526
0.425377
0.489337
0.301504
0.492097
0.494474
0.419414
0.390286
0.423972
0.277018
0.461123
0.432131
0.41406
0.430574
0.277822
0.366994
0.362644
0.430467
0.287932
0.386051
0.372167
0.416529
0.458529
0.431528
0.336086
0.421245
0.433374
0.271384
0.381058
0.43294
0.426141
0.486314
0.49761
0.419799
0.487852
0.417895
0.384022
0.485034
0.25957
0.49675
0.429273
0.413177
0.410322
0.283714
0.494357
0.434315
0.422765
0.42237
0.406597
0.279219
0.326491
0.459392
0.276326
0.48944
0.487987
0.46186
0.476021
0.398036
0.417124
0.457517
0.388174
0.43227
0.346319
0.35351
0.273624
0.270725
0.49673
0.407018
0.422279
0.477943
0.493247
0.420882
0.426259
0.381753
0.254591
0.496469
0.438673
0.4966
0.419025
0.419388
0.413391
0.399642
0.254037
0.25875
0.498874
0.42448
0.491329
0.423159
0.429762
0.463229
0.42942
0.29441
0.283599
0.375761
0.475624
0.477109
0.43133
0.431174
0.430823
0.43141
0.446625
0.450303
0.38152
0.328733
0.437347
0.486531
0.254261
0.425807
0.420645
0.491222
0.418247
0.431846
0.483915
0.418874
0.481738
0.365303
0.489213
0.43241
0.43111
0.269088
0.429126
0.431535
0.497767
0.414737
0.498107
0.423565
0.404207
0.48707
0.430968
0.421913
0.413936
0.420769
0.414191
0.430467
0.270392
0.417507
0.413172
0.420861
0.429589
0.429558
0.426469
0.432415
0.420388
0.33202
0.390075
0.420187
0.487347
0.277975
0.420199
0.427494
0.482329
0.485828
0.252006
0.42945
0.352557
0.475779
0.486758
0.370456
0.432059
0.298923
0.420017
0.484791
0.498501
0.432442
0.26329
0.472297
0.459226
0.373911
0.419041
0.366474
0.454546
0.289401
0.430833
0.433152
0.429874
0.429833
0.328546
0.402126
0.455905
0.399068
0.419925
0.417978
0.424685
0.435724
0.4988
0.29762
0.428668
0.430156
0.282371
0.429228
0.452678
0.399013
0.265447
0.330673
0.413395
0.43039
0.46211
0.492959
0.400292
0.428528
0.430908
0.430326
0.427809
0.464733
0.40227
0.493525
0.427874
0.430186
0.429625
0.484921
0.413653
0.487156
0.432952
0.428581
0.425422
0.43031
0.258736
0.49709
0.497151
0.432048
0.430674
0.424416
0.369358
0.434565
0.437667
0.33767
0.418182
0.397918
0.497084
0.424559
0.342949
0.431687
0.423647
0.42348
0.496608
0.418243
0.496564
0.420775
0.422186
0.294799
0.268274
0.432258
0.4231
0.424814
0.401326
0.430536
0.48515
0.424959
0.414919
0.431908
0.432962
0.428916
0.257008
0.420571
0.423727
0.423547
0.254221
0.425209
0.487865
0.428132
0.423698
0.419462
0.426094
0.430694
0.425362
0.394517
0.432109
0.456164
0.416303
0.487979
0.291533
0.392803
0.38747
0.389335
0.433021
0.425613
0.413427
0.423932
0.397845
0.430032
0.431036
0.425756
0.404318
0.278298
0.34034
0.258364
0.468257
0.430675
0.429665
0.424129
0.420161
0.42966
0.432318
0.326778
0.494829
0.494413
0.287261
0.419759
0.328107
0.353256
0.285066
0.352525
0.426002
0.332619
0.426158
0.431746
0.431887
0.297171
0.430548
0.496905
0.418845
0.295718
0.487729
0.497662
0.462307
0.419674
0.349585
0.395394
0.431688
0.431693
0.496093
0.424361
0.427279
0.496783
0.261345
0.452714
0.423098
0.495379
0.346442
0.408131
0.429521
0.430818
0.353285
0.418442
0.431805
0.423556
0.42413
0.384795
0.495261
0.451094
0.270436
0.431604
0.353747
0.346715
0.254297
0.42751
0.497767
0.296595
0.424458
0.483563
0.498731
0.494275
0.495832
0.252309
0.496373
0.496824
0.379088
0.496002
0.432338
0.423115
0.423987
0.431123
0.40228
0.346981
0.424058
0.430026
0.419055
0.418888
0.486238
0.342603
0.495773
0.42973
0.4858
0.494104
0.495602
0.410983
0.349644
0.424058
0.251292
0.431576
0.282475
0.432768
0.495552
0.330893
0.454646
0.420613
0.427436
0.283953
0.428904
0.424541
0.414019
0.48724
0.431376
0.449046
0.401011
0.414014
0.494839
0.255674
0.299664
0.429585
0.40714
0.452511
0.452501
0.364235
0.495072
0.430169
0.463888
0.322246
0.301658
0.358674
0.288898
0.494592
0.432622
0.355614
0.43154
0.492472
0.432602
0.363282
0.432663
0.432175
0.281255
0.459279
0.429434
0.251012
0.432491
0.294876
0.431907
0.429
0.251266
0.428146
0.432026
0.267809
0.485293
0.432707
0.493998
0.423306
0.432196
0.42691
0.42291
0.498299
0.496787
0.493758
0.41542
0.44731
0.459425
0.34289
0.494214
0.497034
0.25564
0.345338
0.251101
0.425151
0.432257
0.496632
0.432495
0.492077
0.494083
0.432177
0.491768
0.49434
0.346188
0.424676
0.431973
0.255001
0.493432
0.283973
0.344437
0.496854
0.303579
0.42859
0.493755
0.250967
0.25441
0.49503
0.493979
0.431015
0.494694
0.429451
0.44379
0.429019
0.338134
0.33275
0.343185
0.430814
0.430134
0.494735
0.316538
0.424934
0.361445
0.494013
0.494371
0.493694
0.494328
0.426753
0.493111
0.462132
0.49279
0.493378
0.488875
0.431873
0.489265
0.253145
0.425332
0.254945
0.462336
0.271332
0.367162
0.251575
0.255303
0.440489
0.440599
0.496104
0.429765
0.493062
0.42961
0.354743
0.458182
0.432484
0.429238
0.496284
0.428759
0.445
0.252527
0.492749
0.440947
0.440832
0.311479
0.488307
0.429359
0.428987
0.255008
0.450648
0.450629
0.431666
0.355656
0.361495
0.301465
0.252325
0.49668
0.433052
0.431214
0.41924
0.252505
0.251322
0.43224
0.429235
0.414013
0.253921
0.316327
0.316435
0.319701
0.428704
0.256169
0.389127
0.429793
0.261926
0.423328
0.491194
0.429295
0.43076
0.399414
0.370076
0.432037
0.251574
0.464278
0.428775
0.424303
0.476561
0.478897
0.424308
0.432561
0.468731
0.258429
0.424902
0.430983
0.375234
0.262761
0.432356
0.492252
0.428862
0.429212
0.424502
0.424756
0.432153
0.427097
0.421442
0.256247
0.252631
0.492295
0.266241
0.432569
0.457531
0.496332
0.497105
0.411985
0.405608
0.432256
0.42915
0.432865
0.419748
0.491537
0.428257
0.424191
0.432096
0.252326
0.432365
0.494549
0.428097
0.42423
0.305084
0.496162
0.429582
0.42915
0.311075
0.310237
0.351217
0.429275
0.490841
0.43261
0.413538
0.416096
0.261154
0.253061
0.418438
0.428311
0.491361
0.270079
0.425723
0.279728
0.258105
0.431657
0.4963
0.425558
0.496311
0.415947
0.415932
0.413197
0.496019
0.418286
0.432976
0.428752
0.418277
0.305265
0.413485
0.476352
0.374527
0.49623
0.258341
0.372653
0.494069
0.496748
0.431529
0.49159
0.493945
0.490776
0.430974
0.277343
0.258576
0.418707
0.496009
0.327323
0.429953
0.39699
0.478078
0.430604
0.358478
0.421603
0.432235
0.420773
0.432402
0.429045
0.493746
0.43066
0.42886
0.424136
0.496264
0.425544
0.476484
0.377893
0.423968
0.267585
0.427064
0.463216
0.257896
0.494941
0.467106
0.469765
0.429067
0.380266
0.432351
0.281164
0.252583
0.278581
0.432339
0.428114
0.424125
0.42777
0.250859
0.490415
0.42909
0.426823
0.262775
0.251105
0.430815
0.486726
0.496034
0.42787
0.43045
0.255069
0.428923
0.396942
0.257414
0.431471
0.426109
0.410621
0.432712
0.251537
0.43133
0.496647
0.473812
0.427991
0.474702
0.432465
0.488725
0.431889
0.496178
0.489933
0.25839
0.413781
0.413972
0.489986
0.492815
0.426859
0.363749
0.430498
0.489554
0.430607
0.260273
0.487956
0.432129
0.428482
0.252159
0.260418
0.428481
0.266286
0.369878
0.253411
0.31837
0.317967
0.372714
0.367212
0.425933
0.258783
0.496142
0.425526
0.497062
0.432203
0.271076
0.429394
0.431592
0.429293
0.25406
0.432113
0.494861
0.430298
0.429606
0.467261
0.432268
0.262834
0.269268
0.442415
0.442459
0.431887
0.494991
0.262855
0.42987
0.495912
0.432284
0.43247
0.420394
0.418254
0.496879
0.461285
0.296907
0.27589
0.4316
0.260305
0.429212
0.277263
0.404756
0.431978
0.42531
0.430451
0.430813
0.421587
0.421565
0.297009
0.496593
0.257896
0.496967
0.429208
0.432013
0.492154
0.432474
0.489506
0.418692
0.289048
0.268554
0.492295
0.382695
0.492567
0.431144
0.431233
0.255129
0.496295
0.491422
0.331326
0.431435
0.272895
0.252196
0.42614
0.492025
0.273882
0.398281
0.304225
0.256108
0.475507
0.424898
0.477188
0.473701
0.42532
0.421319
0.421338
0.259137
0.424921
0.432408
0.432111
0.255597
0.420931
0.429803
0.339287
0.267165
0.430625
0.424521
0.430367
0.432143
0.431437
0.432298
0.424099
0.496798
0.424062
0.410557
0.417932
0.427208
0.427244
0.425485
0.265338
0.430268
0.41716
0.417214
0.489774
0.431226
0.427926
0.497855
0.430862
0.419971
0.429412
0.427464
0.489118
0.332797
0.42765
0.333258
0.490356
0.417523
0.271005
0.480116
0.413565
0.413558
0.432225
0.431975
0.39936
0.432439
0.431441
0.496025
0.408202
0.408174
0.306168
0.432327
0.425301
0.43175
0.388845
0.432592
0.431343
0.426077
0.427001
0.431956
0.468237
0.46959
0.395537
0.431018
0.429372
0.432118
0.355564
0.352196
0.352459
0.420958
0.429778
0.430872
0.431771
0.432636
0.421368
0.266143
0.421342
0.420548
0.432194
0.299877
0.43039
0.398078
0.431747
0.410282
0.410225
0.427877
0.492034
0.430785
0.259963
0.49597
0.432469
0.251181
0.414643
0.496792
0.49147
0.418218
0.271539
0.308784
0.314192
0.414692
0.42776
0.431072
0.42212
0.420132
0.417401
0.432372
0.422087
0.416645
0.417185
0.419013
0.431898
0.421131
0.430856
0.252865
0.417555
0.493088
0.491758
0.427388
0.430139
0.419209
0.429909
0.431829
0.430241
0.256236
0.417239
0.431507
0.4314
0.431083
0.431991
0.43159
0.430427
0.296891
0.408972
0.408933
0.431242
0.429874
0.43155
0.491919
0.276986
0.430085
0.424109
0.432015
0.42533
0.306298
0.492047
0.427808
0.255257
0.48744
0.43083
0.28934
0.430597
0.339804
0.416523
0.259481
0.259695
0.339724
0.339654
0.423802
0.429548
0.496417
0.496458
0.332847
0.431394
0.432256
0.388911
0.380478
0.425682
0.265478
0.429938
0.429436
0.477304
0.25213
0.258077
0.384844
0.43181
0.431831
0.431611
0.431649
0.497902
0.42762
0.428004
0.428383
0.431307
0.427233
0.431383
0.430069
0.410255
0.492437
0.459843
0.496744
0.430603
0.429564
0.431803
0.429575
0.412745
0.429082
0.427419
0.420137
0.429915
0.429221
0.42785
0.497475
0.428354
0.414469
0.490158
0.401419
0.406229
0.496814
0.428702
0.432286
0.491822
0.252556
0.431172
0.48868
0.428677
0.496081
0.428165
0.428873
0.273842
0.496346
0.488239
0.489712
0.406274
0.406308
0.427558
0.27509
0.497602
0.429733
0.498419
0.351591
0.430657
0.429133
0.253873
0.398144
0.489077
0.411682
0.252844
0.498323
0.25166
0.499103
0.499068
0.498257
0.251277
0.425508
0.49798
0.429253
0.496515
0.493729
0.430396
0.432257
0.472745
0.258749
0.273828
0.497689
0.380192
0.428369
0.276902
0.260893
0.259963
0.428881
0.468773
0.251788
0.271233
0.487575
0.4979
0.431466
0.461361
0.427984
0.316199
0.498732
0.498701
0.491778
0.42996
0.491617
0.430387
0.262286
0.423862
0.423852
0.427326
0.49642
0.430884
0.496878
0.497444
0.431107
0.251635
0.432519
0.432408
0.254097
0.265444
0.263912
0.392488
0.428611
0.491369
0.468845
0.428837
0.428207
0.428803
0.426328
0.428904
0.498163
0.420938
0.497574
0.251357
0.462593
0.427402
0.32883
0.329061
0.491047
0.423348
0.493844
0.429503
0.428335
0.427821
0.421521
0.421499
0.429505
0.429286
0.431227
0.49605
0.35228
0.42864
0.426691
0.429023
0.355424
0.355262
0.431118
0.430296
0.427788
0.431496
0.429061
0.495272
0.431281
0.386765
0.495945
0.364324
0.364169
0.428965
0.424663
0.430503
0.427075
0.407708
0.407706
0.399209
0.410563
0.41051
0.264434
0.425977
0.497183
0.388917
0.427013
0.428484
0.479516
0.426843
0.413312
0.413306
0.416953
0.416965
0.422152
0.429709
0.414834
0.420702
0.420519
0.495936
0.426683
0.41841
0.486417
0.42817
0.411364
0.411359
0.422094
0.427229
0.422306
0.415434
0.415396
0.429183
0.426264
0.419902
0.432425
0.422299
0.252154
0.429718
0.443282
0.497225
0.428548
0.399838
0.426839
0.497894
0.497857
0.497698
0.431954
0.495116
0.492805
0.417686
0.497494
0.367003
0.488645
0.493519
0.497555
0.42853
0.430708
0.431192
0.359755
0.432207
0.432195
0.496574
0.254819
0.255217
0.427171
0.43177
0.416256
0.487926
0.425992
0.427596
0.49092
0.491608
0.432059
0.495717
0.495809
0.431721
0.490733
0.270012
0.272273
0.49373
0.415461
0.388946
0.464023
0.251512
0.497247
0.497438
0.43141
0.496243
0.496857
0.487273
0.428777
0.252861
0.424128
0.495915
0.458263
0.481848
0.496419
0.427632
0.496775
0.261945
0.42766
0.255196
0.420251
0.426765
0.497201
0.254023
0.254051
0.43091
0.41249
0.490598
0.495813
0.487623
0.428397
0.251327
0.42646
0.493253
0.431628
0.496935
0.495486
0.495141
0.428511
0.411398
0.429345
0.495806
0.427539
0.49673
0.428262
0.481181
0.493395
0.430239
0.487888
0.4093
0.409243
0.494771
0.493562
0.495796
0.495502
0.486983
0.496211
0.496402
0.472002
0.430183
0.422897
0.495971
0.496594
0.430658
0.426853
0.428649
0.419385
0.428481
0.492299
0.405704
0.405665
0.497095
0.497485
0.290911
0.497543
0.494553
0.432116
0.426493
0.42514
0.493999
0.49492
0.431905
0.495722
0.496285
0.487331
0.467574
0.493812
0.496736
0.491483
0.496463
0.395429
0.426938
0.481195
0.427762
0.496118
0.495959
0.475579
0.42678
0.427782
0.426289
0.495338
0.485085
0.496377
0.257501
0.377648
0.426726
0.497537
0.492585
0.395461
0.427429
0.493589
0.495594
0.495859
0.342908
0.342843
0.432051
0.419001
0.496038
0.269218
0.423984
0.494642
0.470001
0.428427
0.311663
0.495702
0.423969
0.263712
0.494976
0.423188
0.491189
0.426214
0.431384
0.496262
0.497371
0.42692
0.426925
0.423519
0.493306
0.496332
0.431962
0.496498
0.492219
0.394122
0.493558
0.427634
0.431108
0.494378
0.300109
0.427489
0.494925
0.426323
0.496388
0.49671
0.476205
0.421182
0.422726
0.428645
0.432366
0.421154
0.432337
0.496042
0.427
0.493841
0.495866
0.495426
0.492838
0.495821
0.430027
0.496229
0.314342
0.495793
0.305176
0.495795
0.492341
0.491014
0.49688
0.491813
0.42861
0.367088
0.366991
0.427984
0.429595
0.4965
0.253953
0.252176
0.417754
0.417393
0.494363
0.495912
0.494591
0.429833
0.490302
0.495806
0.424144
0.3907
0.494752
0.495684
0.428744
0.496326
0.259491
0.275822
0.497401
0.496508
0.496478
0.392413
0.492551
0.495988
0.49358
0.465182
0.466492
0.498352
0.492125
0.495662
0.336016
0.41161
0.411606
0.425494
0.390825
0.493063
0.493918
0.491252
0.491197
0.493657
0.473693
0.495698
0.423114
0.257361
0.493627
0.493948
0.496531
0.426064
0.4931
0.495455
0.427597
0.415621
0.415577
0.465498
0.491956
0.496117
0.493321
0.428527
0.420345
0.493842
0.403848
0.496852
0.488349
0.492612
0.42645
0.490658
0.43102
0.42754
0.492349
0.496461
0.426528
0.429889
0.426702
0.490364
0.493204
0.487051
0.491264
0.495615
0.495583
0.492872
0.493513
0.493314
0.420924
0.491723
0.495571
0.491408
0.419366
0.496179
0.496396
0.486619
0.4954
0.493109
0.495396
0.356148
0.496527
0.493382
0.492024
0.492329
0.495089
0.42295
0.496713
0.430443
0.429375
0.494499
0.494214
0.493934
0.491467
0.495682
0.49285
0.496309
0.493472
0.428623
0.493657
0.427432
0.423744
0.424201
0.426621
0.495732
0.490877
0.494789
0.425164
0.492578
0.492628
0.492064
0.489647
0.493761
0.492923
0.42336
0.491517
0.487123
0.49349
0.48996
0.424158
0.496326
0.418977
0.49624
0.49396
0.496692
0.474621
0.490938
0.254977
0.253503
0.432032
0.487082
0.491038
0.492653
0.423758
0.422963
0.496649
0.49241
0.496024
0.489501
0.490672
0.495207
0.494712
0.494688
0.493949
0.492634
0.491173
0.492147
0.417201
0.496351
0.414493
0.264498
0.424742
0.425385
0.423346
0.426054
0.417211
0.493027
0.414512
0.492097
0.481826
0.485857
0.490585
0.491748
0.492425
0.427604
0.478503
0.49634
0.494561
0.491161
0.478523
0.490323
0.470939
0.426226
0.495665
0.491835
0.431638
0.495903
0.367447
0.432373
0.495577
0.486223
0.495745
0.491213
0.357149
0.429643
0.496236
0.466249
0.490258
0.492855
0.49113
0.493136
0.490784
0.495724
0.489261
0.272301
0.494182
0.42656
0.425701
0.428204
0.479194
0.489762
0.496091
0.490882
0.492116
0.491471
0.496771
0.490564
0.464126
0.488976
0.490225
0.262007
0.466578
0.490754
0.495364
0.420022
0.490027
0.487602
0.486706
0.425922
0.491176
0.430085
0.430571
0.428322
0.490057
0.492974
0.488879
0.494953
0.492929
0.43534
0.496285
0.429079
0.491472
0.428016
0.497118
0.423767
0.495676
0.490599
0.496112
0.496803
0.4898
0.424606
0.495304
0.42534
0.491797
0.426609
0.428847
0.427155
0.489318
0.422399
0.495835
0.432609
0.485728
0.49307
0.42583
0.490433
0.489969
0.496555
0.495227
0.399336
0.425658
0.4212
0.425715
0.490045
0.493787
0.493742
0.425427
0.490685
0.491523
0.421159
0.419936
0.317005
0.303458
0.489357
0.439098
0.427594
0.25388
0.25217
0.417783
0.489093
0.42236
0.492407
0.489572
0.488594
0.495528
0.489301
0.487528
0.441581
0.431035
0.273848
0.487848
0.423944
0.488144
0.492091
0.425893
0.494366
0.465094
0.428695
0.467499
0.427648
0.425252
0.447978
0.390879
0.444074
0.488951
0.429559
0.421941
0.429072
0.494803
0.441655
0.425016
0.256364
0.423918
0.491683
0.422555
0.430972
0.491899
0.427655
0.490826
0.495338
0.424859
0.420367
0.425259
0.404297
0.487476
0.488894
0.429292
0.491755
0.494241
0.445747
0.425033
0.356517
0.424982
0.423226
0.485873
0.422372
0.423595
0.488807
0.497336
0.490582
0.422568
0.423464
0.422163
0.497876
0.427625
0.422473
0.493281
0.422175
0.489282
0.424622
0.42271
0.473655
0.488211
0.253493
0.255221
0.450984
0.452949
0.488804
0.484577
0.425432
0.422488
0.383368
0.383141
0.453045
0.496091
0.265232
0.493305
0.491209
0.488858
0.493685
0.493133
0.454936
0.425272
0.421473
0.490252
0.422079
0.486268
0.492361
0.423569
0.486493
0.423634
0.425098
0.48553