# vtk DataFile Version 1.0
unstructured grid
ascii
DATASET UNSTRUCTURED_GRID
points 8094 float
-0.25 0.0574735 0
0.5 0.0546937 0
0.5 -0.0546937 0
-0.25 -0.0574735 0
-0.25 0.0574735 0.01
0.5 0.0546937 0.01
0.5 -0.0546937 0.01
-0.25 -0.0574735 0.01
-0.246045 0.0569295 0
-0.242089 0.0563854 0
-0.238136 0.0558289 0
-0.234184 0.0552582 0
-0.230232 0.0546875 0
-0.226284 0.0540912 0
-0.222337 0.0534933 0
-0.218391 0.0528841 0
-0.214448 0.0522585 0
-0.210504 0.0516328 0
-0.206565 0.0509829 0
-0.202626 0.0503294 0
-0.198689 0.0496667 0
-0.194755 0.0489856 0
-0.190821 0.0483046 0
-0.18689 0.0476022 0
-0.182961 0.0468942 0
-0.179033 0.0461799 0
-0.175108 0.0454463 0
-0.171183 0.0447127 0
-0.167262 0.0439627 0
-0.163342 0.0432056 0
-0.159422 0.0424455 0
-0.155506 0.041668 0
-0.15159 0.0408904 0
-0.147675 0.0401031 0
-0.143762 0.0393092 0
-0.13985 0.0385149 0
-0.135939 0.0377103 0
-0.132028 0.0369056 0
-0.128117 0.0361005 0
-0.124207 0.0352949 0
-0.120296 0.0344893 0
-0.116386 0.0336836 0
-0.112475 0.032878 0
-0.108563 0.0320794 0
-0.104649 0.0312931 0
-0.100735 0.0305068 0
-0.0968152 0.029745 0
-0.0928949 0.0289889 0
-0.0889722 0.0282446 0
-0.0850433 0.0275341 0
-0.0811144 0.0268235 0
-0.0771778 0.0261578 0
-0.0732381 0.0255098 0
-0.0692962 0.0248759 0
-0.0653442 0.0243073 0
-0.0613923 0.0237386 0
-0.0574324 0.0232306 0
-0.0534681 0.0227556 0
-0.0495024 0.0222934 0
-0.0455272 0.0219207 0
-0.041552 0.0215481 0
-0.0375717 0.0212385 0
-0.0335881 0.0209694 0
-0.029604 0.0207098 0
-0.0256151 0.0205369 0
-0.0216262 0.0203639 0
-0.0176357 0.0202396 0
-0.0136441 0.0201487 0
-0.00965243 0.0200635 0
-0.00565987 0.0200372 0
-0.00166732 0.020011 0
0.00232526 0.0200121 0
0.00631785 0.0200329 0
0.0103104 0.0200563 0
0.0143027 0.0201109 0
0.018295 0.0201654 0
0.022287 0.0202345 0
0.0262788 0.0203144 0
0.0302706 0.0203957 0
0.034262 0.0204956 0
0.0382534 0.0205955 0
0.0422446 0.0207045 0
0.0462355 0.0208207 0
0.0502265 0.0209377 0
0.054217 0.0210676 0
0.0582075 0.0211975 0
0.0621978 0.0213339 0
0.0661879 0.0214757 0
0.0701781 0.021618 0
0.0741678 0.0217703 0
0.0781575 0.0219227 0
0.0821471 0.0220801 0
0.0861364 0.022242 0
0.0901258 0.0224041 0
0.0941148 0.0225747 0
0.0981038 0.0227453 0
0.102093 0.0229202 0
0.106081 0.023099 0
0.11007 0.0232779 0
0.114058 0.0234644 0
0.118046 0.0236509 0
0.122035 0.0238411 0
0.126022 0.024035 0
0.13001 0.0242288 0
0.133998 0.0244298 0
0.137986 0.0246308 0
0.141973 0.0248352 0
0.14596 0.025043 0
0.149947 0.0252509 0
0.153934 0.0254654 0
0.157921 0.02568 0
0.161908 0.0258978 0
0.165894 0.026119 0
0.169881 0.0263402 0
0.173867 0.0265678 0
0.177853 0.0267956 0
0.181839 0.0270264 0
0.185825 0.0272607 0
0.189811 0.0274951 0
0.193796 0.0277356 0
0.197781 0.0279764 0
0.201767 0.02822 0
0.205752 0.0284673 0
0.209737 0.0287146 0
0.213721 0.0289679 0
0.217706 0.0292217 0
0.22169 0.0294782 0
0.225674 0.0297385 0
0.229658 0.0299988 0
0.233642 0.0302651 0
0.237626 0.0305319 0
0.241609 0.0308014 0
0.245593 0.0310748 0
0.249576 0.0313482 0
0.253559 0.0316276 0
0.257542 0.0319077 0
0.261524 0.0321904 0
0.265507 0.0324772 0
0.269489 0.032764 0
0.273471 0.0330568 0
0.277453 0.0333504 0
0.281434 0.0336466 0
0.285416 0.0339471 0
0.289397 0.0342476 0
0.293378 0.034554 0
0.297359 0.0348615 0
0.301339 0.0351714 0
0.305319 0.0354859 0
0.3093 0.0358005 0
0.313279 0.036121 0
0.317259 0.0364427 0
0.321239 0.0367667 0
0.325218 0.0370957 0
0.329197 0.0374248 0
0.333175 0.0377597 0
0.337154 0.0380961 0
0.341132 0.0384347 0
0.34511 0.0387786 0
0.349088 0.0391226 0
0.353065 0.0394724 0
0.357042 0.0398239 0
0.361019 0.0401775 0
0.364995 0.0405368 0
0.368972 0.0408961 0
0.372948 0.0412613 0
0.376924 0.0416285 0
0.380899 0.0419975 0
0.384874 0.0423727 0
0.388849 0.0427479 0
0.392823 0.0431289 0
0.396798 0.0435123 0
0.400772 0.0438973 0
0.404745 0.044289 0
0.408718 0.0446807 0
0.412691 0.0450781 0
0.416664 0.0454782 0
0.420636 0.0458797 0
0.424608 0.0462883 0
0.42858 0.046697 0
0.432551 0.0471114 0
0.436521 0.0475289 0
0.440492 0.0479474 0
0.444462 0.0483738 0
0.448432 0.0488001 0
0.452401 0.0492319 0
0.45637 0.0496673 0
0.460338 0.0501035 0
0.464306 0.0505482 0
0.468274 0.0509928 0
0.472241 0.0514427 0
0.476208 0.0518968 0
0.480175 0.0523512 0
0.48414 0.0528148 0
0.488106 0.0532784 0
0.492071 0.0537471 0
0.496036 0.0542204 0
0.5 0.050787 0
0.5 0.0468803 0
0.5 0.0429736 0
0.5 0.0390669 0
0.5 0.0351602 0
0.5 0.0312535 0
0.5 0.0273468 0
0.5 0.0234402 0
0.5 0.0195335 0
0.5 0.0156268 0
0.5 0.0117201 0
0.5 0.00781339 0
0.5 0.00390669 0
0.5 1.43781e-13 0
0.5 -0.00390669 0
0.5 -0.00781339 0
0.5 -0.0117201 0
0.5 -0.0156268 0
0.5 -0.0195335 0
0.5 -0.0234402 0
0.5 -0.0273468 0
0.5 -0.0312535 0
0.5 -0.0351602 0
0.5 -0.0390669 0
0.5 -0.0429736 0
0.5 -0.0468803 0
0.5 -0.050787 0
0.496036 -0.0542204 0
0.492071 -0.0537471 0
0.488106 -0.0532784 0
0.48414 -0.0528148 0
0.480175 -0.0523512 0
0.476208 -0.0518968 0
0.472241 -0.0514427 0
0.468274 -0.0509928 0
0.464306 -0.0505482 0
0.460338 -0.0501035 0
0.45637 -0.0496673 0
0.452401 -0.0492319 0
0.448432 -0.0488001 0
0.444462 -0.0483738 0
0.440492 -0.0479474 0
0.436521 -0.0475289 0
0.432551 -0.0471114 0
0.42858 -0.046697 0
0.424608 -0.0462883 0
0.420636 -0.0458797 0
0.416664 -0.0454782 0
0.412691 -0.0450781 0
0.408718 -0.0446807 0
0.404745 -0.044289 0
0.400772 -0.0438973 0
0.396798 -0.0435123 0
0.392823 -0.0431289 0
0.388849 -0.0427479 0
0.384874 -0.0423727 0
0.380899 -0.0419975 0
0.376924 -0.0416285 0
0.372948 -0.0412613 0
0.368972 -0.0408961 0
0.364995 -0.0405368 0
0.361019 -0.0401775 0
0.357042 -0.0398239 0
0.353065 -0.0394724 0
0.349088 -0.0391226 0
0.34511 -0.0387786 0
0.341132 -0.0384347 0
0.337154 -0.0380961 0
0.333175 -0.0377597 0
0.329197 -0.0374248 0
0.325218 -0.0370957 0
0.321239 -0.0367667 0
0.317259 -0.0364427 0
0.313279 -0.036121 0
0.3093 -0.0358005 0
0.305319 -0.0354859 0
0.301339 -0.0351714 0
0.297359 -0.0348615 0
0.293378 -0.034554 0
0.289397 -0.0342476 0
0.285416 -0.0339471 0
0.281434 -0.0336466 0
0.277453 -0.0333504 0
0.273471 -0.0330568 0
0.269489 -0.032764 0
0.265507 -0.0324772 0
0.261524 -0.0321904 0
0.257542 -0.0319077 0
0.253559 -0.0316276 0
0.249576 -0.0313482 0
0.245593 -0.0310748 0
0.241609 -0.0308014 0
0.237626 -0.0305319 0
0.233642 -0.0302651 0
0.229658 -0.0299988 0
0.225674 -0.0297385 0
0.22169 -0.0294782 0
0.217706 -0.0292217 0
0.213721 -0.0289679 0
0.209737 -0.0287146 0
0.205752 -0.0284673 0
0.201767 -0.02822 0
0.197781 -0.0279764 0
0.193796 -0.0277356 0
0.189811 -0.0274951 0
0.185825 -0.0272607 0
0.181839 -0.0270264 0
0.177853 -0.0267956 0
0.173867 -0.0265678 0
0.169881 -0.0263402 0
0.165894 -0.026119 0
0.161908 -0.0258978 0
0.157921 -0.02568 0
0.153934 -0.0254654 0
0.149947 -0.0252509 0
0.14596 -0.025043 0
0.141973 -0.0248352 0
0.137986 -0.0246308 0
0.133998 -0.0244298 0
0.13001 -0.0242288 0
0.126022 -0.024035 0
0.122035 -0.0238411 0
0.118046 -0.0236509 0
0.114058 -0.0234644 0
0.11007 -0.0232779 0
0.106081 -0.023099 0
0.102093 -0.0229202 0
0.0981038 -0.0227453 0
0.0941148 -0.0225747 0
0.0901258 -0.0224041 0
0.0861364 -0.022242 0
0.0821471 -0.0220801 0
0.0781575 -0.0219227 0
0.0741678 -0.0217703 0
0.0701781 -0.021618 0
0.0661879 -0.0214757 0
0.0621978 -0.0213339 0
0.0582075 -0.0211975 0
0.054217 -0.0210676 0
0.0502265 -0.0209377 0
0.0462355 -0.0208207 0
0.0422446 -0.0207045 0
0.0382534 -0.0205955 0
0.034262 -0.0204956 0
0.0302706 -0.0203957 0
0.0262788 -0.0203144 0
0.022287 -0.0202345 0
0.018295 -0.0201654 0
0.0143027 -0.0201109 0
0.0103104 -0.0200563 0
0.00631785 -0.0200329 0
0.00232526 -0.0200121 0
-0.00166732 -0.020011 0
-0.00565987 -0.0200372 0
-0.00965243 -0.0200635 0
-0.0136441 -0.0201487 0
-0.0176357 -0.0202396 0
-0.0216262 -0.0203639 0
-0.0256151 -0.0205369 0
-0.029604 -0.0207098 0
-0.0335881 -0.0209694 0
-0.0375717 -0.0212385 0
-0.041552 -0.0215481 0
-0.0455272 -0.0219207 0
-0.0495024 -0.0222934 0
-0.0534681 -0.0227556 0
-0.0574324 -0.0232306 0
-0.0613923 -0.0237386 0
-0.0653442 -0.0243073 0
-0.0692962 -0.0248759 0
-0.0732381 -0.0255098 0
-0.0771778 -0.0261578 0
-0.0811144 -0.0268235 0
-0.0850433 -0.0275341 0
-0.0889722 -0.0282446 0
-0.0928949 -0.0289889 0
-0.0968152 -0.029745 0
-0.100735 -0.0305068 0
-0.104649 -0.0312931 0
-0.108563 -0.0320794 0
-0.112475 -0.032878 0
-0.116386 -0.0336836 0
-0.120296 -0.0344893 0
-0.124207 -0.0352949 0
-0.128117 -0.0361005 0
-0.132028 -0.0369056 0
-0.135939 -0.0377103 0
-0.13985 -0.0385149 0
-0.143762 -0.0393092 0
-0.147675 -0.0401031 0
-0.15159 -0.0408904 0
-0.155506 -0.041668 0
-0.159422 -0.0424455 0
-0.163342 -0.0432056 0
-0.167262 -0.0439627 0
-0.171183 -0.0447127 0
-0.175108 -0.0454463 0
-0.179033 -0.0461799 0
-0.182961 -0.0468942 0
-0.18689 -0.0476022 0
-0.190821 -0.0483046 0
-0.194755 -0.0489856 0
-0.198689 -0.0496667 0
-0.202626 -0.0503294 0
-0.206565 -0.0509829 0
-0.210504 -0.0516328 0
-0.214448 -0.0522585 0
-0.218391 -0.0528841 0
-0.222337 -0.0534933 0
-0.226284 -0.0540912 0
-0.230232 -0.0546875 0
-0.234184 -0.0552582 0
-0.238136 -0.0558289 0
-0.242089 -0.0563854 0
-0.246045 -0.0569295 0
-0.25 -0.0535098 0
-0.25 -0.0495461 0
-0.25 -0.0455824 0
-0.25 -0.0416187 0
-0.25 -0.0376551 0
-0.25 -0.0336914 0
-0.25 -0.0297277 0
-0.25 -0.025764 0
-0.25 -0.0218003 0
-0.25 -0.0178366 0
-0.25 -0.0138729 0
-0.25 -0.00990922 0
-0.25 -0.00594553 0
-0.25 -0.00198184 0
-0.25 0.00198184 0
-0.25 0.00594553 0
-0.25 0.00990922 0
-0.25 0.0138729 0
-0.25 0.0178366 0
-0.25 0.0218003 0
-0.25 0.025764 0
-0.25 0.0297277 0
-0.25 0.0336914 0
-0.25 0.0376551 0
-0.25 0.0416187 0
-0.25 0.0455824 0
-0.25 0.0495461 0
-0.25 0.0535098 0
-0.246045 0.0569295 0.01
-0.242089 0.0563854 0.01
-0.238136 0.0558289 0.01
-0.234184 0.0552582 0.01
-0.230232 0.0546875 0.01
-0.226284 0.0540912 0.01
-0.222337 0.0534933 0.01
-0.218391 0.0528841 0.01
-0.214448 0.0522585 0.01
-0.210504 0.0516328 0.01
-0.206565 0.0509829 0.01
-0.202626 0.0503294 0.01
-0.198689 0.0496667 0.01
-0.194755 0.0489856 0.01
-0.190821 0.0483046 0.01
-0.18689 0.0476022 0.01
-0.182961 0.0468942 0.01
-0.179033 0.0461799 0.01
-0.175108 0.0454463 0.01
-0.171183 0.0447127 0.01
-0.167262 0.0439627 0.01
[...]
CELL_DATA 7657
SCALARS rho float
LOOKUP_TABLE default
0.477408
0.373011
0.418413
0.291519
0.495484
0.372957
0.280494
0.430649
0.342181
0.499788
0.499855
0.430298
0.314884
0.430412
0.494661
0.488952
0.494572
0.421375
0.421285
0.433358
0.493797
0.421749
0.364388
0.421304
0.4249
0.428659
0.275469
0.321272
0.496757
0.374923
0.27062
0.424894
0.361297
0.475373
0.475832
0.271645
0.375793
0.363532
0.48066
0.265483
0.418154
0.341113
0.333558
0.359514
0.418059
0.418718
0.284744
0.371507
0.424947
0.47701
0.356511
0.292274
0.496708
0.49755
0.27991
0.381136
0.494106
0.492025
0.452289
0.269954
0.425146
0.41769
0.425635
0.42581
0.500494
0.500509
0.314624
0.390453
0.499047
0.448194
0.418869
0.316522
0.320973
0.496771
0.474078
0.368655
0.421772
0.366828
0.47354
0.319295
0.360687
0.431104
0.43357
0.418311
0.418762
0.457158
0.41866
0.447198
0.428865
0.275042
0.50038
0.500421
0.453951
0.498401
0.265004
0.45977
0.458511
0.367893
0.41776
0.264885
0.421558
0.423751
0.371228
0.493344
0.286291
0.350813
0.265357
0.394793
0.320892
0.4933
0.270707
0.393036
0.348413
0.433601
0.419841
0.43647
0.396951
0.26514
0.488252
0.372364
0.501184
0.501167
0.265234
0.368589
0.432512
0.430415
0.430161
0.333556
0.386621
0.336298
0.285789
0.422433
0.382675
0.318786
0.433219
0.266565
0.489308
0.361446
0.42265
0.42277
0.265645
0.273771
0.265562
0.264757
0.421163
0.493712
0.358295
0.374109
0.417458
0.265324
0.266097
0.49916
0.392309
0.336315
0.493812
0.372224
0.390593
0.422059
0.433279
0.267205
0.422209
0.491778
0.428512
0.435098
0.416234
0.371039
0.480704
0.347427
0.419713
0.488705
0.418052
0.352733
0.422355
0.266316
0.273842
0.272112
0.310282
0.459768
0.432319
0.265272
0.264738
0.319982
0.423252
0.423216
0.312173
0.450519
0.332293
0.31291
0.429419
0.459725
0.49669
0.498624
0.433287
0.464652
0.429384
0.385194
0.433477
0.491414
0.272319
0.419358
0.421271
0.423552
0.461217
0.444831
0.275926
0.497678
0.324143
0.287449
0.473136
0.46413
0.412843
0.41743
0.416102
0.433217
0.417903
0.313736
0.275954
0.455782
0.39356
0.419363
0.373239
0.374836
0.499476
0.392124
0.326235
0.362454
0.325846
0.269012
0.365711
0.499517
0.415243
0.415279
0.318482
0.493662
0.487312
0.433446
0.446749
0.423799
0.423781
0.491126
0.412425
0.268083
0.461378
0.361216
0.472202
0.466958
0.33243
0.466052
0.334856
0.362981
0.271585
0.306111
0.395858
0.474285
0.275182
0.311118
0.375345
0.495418
0.497432
0.392581
0.367581
0.497408
0.487816
0.419727
0.277368
0.418629
0.442623
0.268059
0.421229
0.266489
0.306849
0.273963
0.273973
0.433714
0.471555
0.419826
0.343533
0.392928
0.391513
0.429872
0.36848
0.427051
0.27082
0.264942
0.305616
0.27092
0.264918
0.284907
0.397129
0.420509
0.419983
0.317243
0.270945
0.497362
0.395308
0.277299
0.481024
0.431309
0.436271
0.420099
0.458563
0.497831
0.266577
0.330124
0.276055
0.455561
0.278126
0.320197
0.420907
0.394563
0.430029
0.440702
0.490868
0.334711
0.424815
0.490665
0.497285
0.49545
0.393649
0.42716
0.341842
0.363848
0.497239
0.448735
0.488688
0.496285
0.330792
0.389472
0.492482
0.420398
0.350878
0.496552
0.487783
0.378227
0.43093
0.409355
0.395206
0.268989
0.424626
0.496688
0.429183
0.273102
0.379632
0.487857
0.433699
0.274916
0.49666
0.377257
0.419101
0.492547
0.375612
0.422061
0.433277
0.422166
0.278559
0.424467
0.422454
0.288494
0.424575
0.286138
0.402953
0.421601
0.419125
0.438343
0.494259
0.272526
0.429114
0.265019
0.454068
0.457251
0.37808
0.426215
0.433374
0.432939
0.321538
0.316663
0.422131
0.40873
0.420583
0.48691
0.416605
0.421004
0.273122
0.425583
0.49703
0.499075
0.476598
0.429989
0.428841
0.492037
0.403561
0.395748
0.394352
0.433171
0.428355
0.44897
0.275769
0.353538
0.491929
0.375426
0.43333
0.433485
0.421006
0.498169
0.265377
0.425968
0.489504
0.305082
0.492265
0.494643
0.422308
0.378704
0.425682
0.288533
0.461424
0.432795
0.417755
0.430998
0.289185
0.368354
0.36408
0.430874
0.292276
0.387093
0.373438
0.420067
0.458844
0.432037
0.330494
0.423658
0.433891
0.27796
0.382166
0.433541
0.42734
0.486485
0.497772
0.422596
0.488021
0.421175
0.371949
0.485209
0.268582
0.496944
0.429828
0.416694
0.412427
0.288512
0.494527
0.434828
0.424785
0.424496
0.405177
0.28462
0.328785
0.459707
0.282197
0.489605
0.488156
0.462154
0.47623
0.389549
0.420579
0.457846
0.389195
0.432615
0.348083
0.355106
0.279944
0.277358
0.496923
0.40607
0.422903
0.478146
0.493414
0.423416
0.427432
0.369679
0.265732
0.496668
0.439141
0.496795
0.422014
0.422284
0.416948
0.391987
0.269387
0.267909
0.499032
0.426083
0.491493
0.42506
0.430182
0.463519
0.42987
0.298355
0.292294
0.364327
0.475838
0.477316
0.431634
0.431484
0.431365
0.431869
0.44703
0.45068
0.38263
0.324007
0.43783
0.486702
0.269598
0.427091
0.423234
0.491385
0.421452
0.432146
0.484092
0.42191
0.481923
0.366681
0.489379
0.433175
0.431421
0.282737
0.429708
0.431831
0.497947
0.41845
0.49828
0.425372
0.400363
0.487239
0.431296
0.422539
0.417613
0.423315
0.417898
0.43087
0.276915
0.420872
0.416673
0.423395
0.430145
0.429993
0.427601
0.432777
0.423037
0.326874
0.378476
0.422884
0.487517
0.289117
0.420848
0.428294
0.482511
0.486
0.264504
0.430004
0.354164
0.475986
0.486929
0.359829
0.432384
0.302649
0.422763
0.484965
0.498666
0.432829
0.271233
0.472523
0.459541
0.362768
0.422031
0.367829
0.454895
0.293675
0.431169
0.434481
0.430354
0.430246
0.330795
0.402972
0.456245
0.391218
0.422674
0.418644
0.426241
0.43622
0.498954
0.301365
0.42924
0.430591
0.287375
0.429786
0.453042
0.391099
0.272941
0.332864
0.416952
0.430787
0.462406
0.493126
0.393297
0.429124
0.431238
0.430747
0.428554
0.465012
0.396766
0.493692
0.428595
0.430613
0.430055
0.485095
0.41725
0.487326
0.434206
0.42914
0.426017
0.430723
0.268035
0.497271
0.497338
0.432358
0.43107
0.426022
0.370679
0.435076
0.438149
0.339646
0.421376
0.389115
0.497268
0.426126
0.336664
0.431977
0.424257
0.425316
0.496791
0.421445
0.496746
0.42332
0.424368
0.298814
0.282012
0.4326
0.425045
0.42632
0.402173
0.430911
0.485325
0.426425
0.41863
0.43221
0.43388
0.429436
0.272251
0.423167
0.42549
0.425361
0.265362
0.426611
0.488033
0.428702
0.42548
0.422358
0.426682
0.431048
0.426724
0.395444
0.432424
0.456501
0.41699
0.488147
0.297366
0.393754
0.388494
0.39034
0.433555
0.426915
0.416978
0.425641
0.398732
0.430484
0.431353
0.427019
0.400666
0.289535
0.34223
0.267849
0.46851
0.43103
0.43018
0.425785
0.422859
0.430177
0.433124
0.329072
0.494994
0.494581
0.291697
0.422557
0.330352
0.354856
0.289635
0.345088
0.427205
0.33478
0.427322
0.432055
0.432187
0.300808
0.430922
0.497087
0.421912
0.299567
0.4879
0.49784
0.462601
0.420326
0.342554
0.396315
0.431984
0.431994
0.496276
0.425962
0.428221
0.496966
0.269641
0.453075
0.42502
0.495563
0.339795
0.408906
0.430053
0.431364
0.354869
0.419106
0.432117
0.425375
0.425802
0.385855
0.495444
0.451468
0.276987
0.431911
0.355332
0.348438
0.265445
0.428331
0.497943
0.30041
0.426066
0.48374
0.498885
0.494448
0.496018
0.265279
0.496555
0.497018
0.380228
0.496188
0.432778
0.42504
0.425726
0.431436
0.397016
0.348708
0.425795
0.43048
0.422051
0.421926
0.486409
0.34446
0.495959
0.430227
0.485973
0.494283
0.495787
0.413491
0.342613
0.425813
0.26465
0.431888
0.287486
0.433816
0.495737
0.326
0.454991
0.423205
0.428008
0.28871
0.429434
0.426091
0.417679
0.48741
0.431687
0.449438
0.401866
0.414721
0.495021
0.265862
0.303292
0.430111
0.407923
0.452875
0.452866
0.354807
0.495254
0.430582
0.464168
0.324688
0.305162
0.350301
0.293213
0.494771
0.433677
0.347729
0.431847
0.492646
0.433678
0.364693
0.433086
0.432577
0.286376
0.459591
0.429991
0.26409
0.433018
0.298826
0.432231
0.429634
0.264597
0.428958
0.432438
0.274838
0.485467
0.433643
0.494176
0.425175
0.432649
0.427896
0.424885
0.498466
0.496967
0.493935
0.419107
0.447714
0.459737
0.336604
0.494393
0.497215
0.265857
0.347065
0.263675
0.426544
0.432797
0.49681
0.433031
0.49225
0.494259
0.432528
0.491941
0.494516
0.339533
0.426173
0.432304
0.265873
0.493607
0.288729
0.346226
0.497035
0.306975
0.429309
0.493931
0.264066
0.265585
0.495213
0.494157
0.431337
0.494874
0.429992
0.444222
0.429641
0.340111
0.334916
0.344979
0.431157
0.430563
0.494916
0.319232
0.426379
0.352554
0.494189
0.49455
0.49387
0.494507
0.427775
0.493286
0.462426
0.492965
0.493553
0.489041
0.432295
0.489431
0.268564
0.426674
0.270107
0.462629
0.277936
0.357203
0.26552
0.265826
0.44095
0.441058
0.496285
0.430255
0.493238
0.430127
0.356305
0.458504
0.433268
0.429821
0.496467
0.429433
0.445424
0.264877
0.492924
0.441403
0.441289
0.314394
0.488476
0.429923
0.429622
0.27039
0.451026
0.451009
0.431963
0.347771
0.352602
0.304959
0.264958
0.49686
0.434042
0.431525
0.422183
0.264485
0.264968
0.432937
0.429812
0.417664
0.269204
0.319017
0.319124
0.322261
0.429383
0.265956
0.390143
0.430268
0.27015
0.425197
0.491365
0.429863
0.431145
0.391656
0.359595
0.432501
0.265516
0.464557
0.429449
0.425926
0.476767
0.479092
0.425929
0.433467
0.46898
0.273277
0.426346
0.431308
0.363875
0.270747
0.432747
0.492426
0.429516
0.429808
0.426051
0.426252
0.432621
0.428003
0.423826
0.271295
0.264998
0.492469
0.27358
0.433001
0.457857
0.496514
0.497279
0.412713
0.406408
0.433036
0.429714
0.434104
0.420397
0.49171
0.429027
0.425873
0.432917
0.264958
0.432881
0.494722
0.428901
0.425917
0.308397
0.496355
0.430083
0.429714
0.313985
0.313255
0.352854
0.429842
0.491012
0.433157
0.417105
0.419724
0.269483
0.268447
0.42163
0.429087
0.491533
0.276767
0.426963
0.284993
0.267568
0.432054
0.496494
0.42689
0.496491
0.419589
0.419572
0.41669
0.4962
0.421511
0.434063
0.429437
0.421497
0.308617
0.417052
0.476559
0.375742
0.49641
0.273376
0.361708
0.494247
0.496925
0.431821
0.491763
0.494122
0.490948
0.43137
0.282863
0.273385
0.421793
0.496193
0.329616
0.430402
0.387782
0.478277
0.430994
0.350104
0.423938
0.432946
0.423328
0.432895
0.429647
0.493923
0.431022
0.429507
0.425865
0.496459
0.426835
0.47669
0.366198
0.425741
0.274541
0.427965
0.463505
0.272558
0.495122
0.46737
0.470008
0.429671
0.368335
0.432997
0.286271
0.264289
0.283933
0.433278
0.428883
0.424732
0.428341
0.263558
0.490587
0.429584
0.42777
0.270782
0.264103
0.43116
0.486897
0.496225
0.428718
0.430839
0.27043
0.429562
0.387727
0.272154
0.431804
0.427249
0.412951
0.433498
0.265589
0.431629
0.496814
0.474032
0.428681
0.474917
0.433282
0.488892
0.432605
0.496355
0.490104
0.273038
0.417406
0.417625
0.490158
0.492986
0.427808
0.365151
0.430866
0.489726
0.430974
0.268911
0.488124
0.432711
0.429209
0.264546
0.269036
0.429201
0.273614
0.359408
0.264784
0.320943
0.320583
0.361764
0.357247
0.427122
0.26795
0.496335
0.426858
0.497234
0.432551
0.277705
0.429947
0.431931
0.429762
0.264981
0.43261
0.495041
0.430691
0.430119
0.467524
0.432873
0.270751
0.27596
0.442861
0.442904
0.432358
0.495173
0.270801
0.430338
0.496102
0.432861
0.433202
0.423041
0.421449
0.497056
0.461582
0.300569
0.28162
0.431963
0.268942
0.429739
0.282775
0.401487
0.432398
0.426689
0.430839
0.431205
0.423923
0.42391
0.300744
0.496772
0.272582
0.497143
0.429777
0.432637
0.492327
0.433162
0.489678
0.421772
0.293383
0.27526
0.492468
0.370633
0.492738
0.431465
0.431572
0.27035
0.496473
0.491594
0.333534
0.431765
0.279077
0.2646
0.427336
0.492197
0.279919
0.389788
0.307574
0.265922
0.475718
0.426372
0.477391
0.473922
0.426699
0.423719
0.423728
0.273952
0.426394
0.432783
0.432625
0.265871
0.423425
0.430275
0.34119
0.274296
0.430978
0.42609
0.430755
0.432462
0.43179
0.432861
0.425754
0.496966
0.425733
0.41288
0.421186
0.428064
0.428241
0.426774
0.272899
0.430661
0.420567
0.420639
0.489945
0.431559
0.428781
0.498023
0.431213
0.422732
0.429941
0.428416
0.48929
0.327538
0.42855
0.328068
0.490528
0.420858
0.277596
0.480306
0.417175
0.417185
0.432662
0.432273
0.39159
0.433023
0.431743
0.496216
0.408524
0.408466
0.30942
0.432721
0.426641
0.43204
0.377094
0.433014
0.43166
0.427214
0.427901
0.432298
0.468495
0.469835
0.385655
0.431502
0.4299
0.432488
0.347691
0.344792
0.345031
0.423451
0.430249
0.431269
0.432161
0.433165
0.423756
0.280206
0.423742
0.423155
0.432514
0.303496
0.430778
0.38955
0.432076
0.412423
0.412338
0.428732
0.492205
0.431124
0.268847
0.496147
0.432933
0.264124
0.41834
0.496967
0.491641
0.421411
0.27791
0.311851
0.317024
0.418389
0.428653
0.431408
0.424302
0.422843
0.420804
0.432732
0.424276
0.420191
0.420593
0.422058
0.432203
0.423632
0.431188
0.268306
0.420889
0.493259
0.49193
0.428346
0.430554
0.422167
0.430352
0.432138
0.430659
0.271257
0.420664
0.431831
0.431749
0.431397
0.432297
0.431907
0.4308
0.300615
0.41002
0.409949
0.431551
0.430351
0.431842
0.492092
0.28258
0.430529
0.42578
0.432415
0.426767
0.306676
0.492218
0.428621
0.265826
0.48761
0.431233
0.293702
0.430999
0.333831
0.420057
0.26844
0.268599
0.333753
0.333759
0.425613
0.43005
0.496608
0.496651
0.327587
0.431687
0.432764
0.377153
0.381597
0.42692
0.272947
0.430382
0.429963
0.477506
0.264457
0.272901
0.372767
0.432195
0.432122
0.431898
0.432011
0.49807
0.428533
0.428834
0.429133
0.431607
0.428232
0.431701
0.430487
0.412367
0.492611
0.460149
0.496916
0.43097
0.430063
0.432152
0.430079
0.416186
0.429645
0.428231
0.422848
0.430327
0.429815
0.428718
0.497646
0.428975
0.415173
0.490328
0.402274
0.407025
0.496987
0.429257
0.432659
0.491994
0.264491
0.431478
0.488852
0.429229
0.496272
0.428818
0.429395
0.279883
0.496535
0.488411
0.489883
0.404648
0.404728
0.428475
0.280856
0.49777
0.430205
0.49858
0.353229
0.431008
0.429734
0.269326
0.389618
0.489248
0.414642
0.268242
0.498486
0.266541
0.499253
0.499216
0.49842
0.26569
0.42684
0.498146
0.429724
0.496697
0.493905
0.430791
0.432676
0.472971
0.273896
0.279885
0.497862
0.368272
0.42913
0.282484
0.275528
0.274793
0.42948
0.469021
0.266197
0.284659
0.487748
0.498065
0.431765
0.461657
0.428823
0.313768
0.498886
0.498854
0.491948
0.430413
0.49179
0.430757
0.277119
0.425571
0.425573
0.428287
0.496611
0.431214
0.497057
0.497614
0.43142
0.266527
0.432971
0.43278
0.265189
0.272893
0.271487
0.381494
0.42932
0.491541
0.469093
0.429505
0.429003
0.429471
0.427479
0.429542
0.498329
0.423443
0.497744
0.265134
0.462881
0.42836
0.324025
0.324314
0.491219
0.425218
0.494017
0.430035
0.428953
0.428697
0.423858
0.423846
0.430051
0.429873
0.431547
0.496239
0.344871
0.429334
0.427687
0.429651
0.34755
0.347395
0.431486
0.430707
0.428662
0.431871
0.429688
0.495453
0.431626
0.374784
0.496133
0.354862
0.35475
0.42956
0.426186
0.430886
0.428113
0.407611
0.407587
0.391405
0.412913
0.412832
0.272149
0.427255
0.497354
0.377256
0.428058
0.429068
0.479708
0.427929
0.416891
0.4169
0.420397
0.420429
0.424331
0.430182
0.418529
0.423248
0.423127
0.496126
0.427809
0.421556
0.486588
0.428962
0.414199
0.414212
0.424283
0.428085
0.424436
0.419101
0.419083
0.42975
0.427352
0.422664
0.432935
0.424434
0.264503
0.430224
0.443718
0.497396
0.429262
0.40071
0.427887
0.498055
0.498015
0.497869
0.432474
0.495295
0.492977
0.420982
0.497669
0.368355
0.488816
0.493695
0.497733
0.429263
0.431071
0.431498
0.361242
0.432541
0.432831
0.496751
0.265622
0.265786
0.428174
0.432063
0.419821
0.488098
0.427269
0.428517
0.491091
0.491779
0.432673
0.495896
0.495998
0.432151
0.490901
0.276673
0.278765
0.493906
0.419128
0.377279
0.464301
0.265555
0.497415
0.49761
0.431704
0.496418
0.497047
0.487446
0.429366
0.26441
0.425863
0.496094
0.458582
0.482035
0.496597
0.428544
0.496965
0.270124
0.428514
0.265828
0.422942
0.427858
0.497375
0.264943
0.265155
0.431244
0.415864
0.49077
0.495994
0.487796
0.429147
0.2651
0.427634
0.493428
0.431919
0.497124
0.495666
0.495319
0.429182
0.414229
0.429881
0.495987
0.428476
0.496919
0.428996
0.481369
0.493568
0.43066
0.48806
0.410664
0.410569
0.494949
0.493736
0.495985
0.495682
0.487156
0.4964
0.496595
0.472232
0.430567
0.424874
0.496158
0.496781
0.431022
0.427938
0.429279
0.422295
0.429146
0.49247
0.403549
0.403497
0.497271
0.497654
0.295193
0.497718
0.49473
0.432456
0.427536
0.426565
0.494174
0.495099
0.432358
0.495901
0.496478
0.487504
0.467831
0.493989
0.496923
0.491653
0.496638
0.385623
0.427987
0.481384
0.42865
0.496305
0.496149
0.47579
0.427873
0.428511
0.427506
0.495517
0.485262
0.496569
0.272756
0.365961
0.427727
0.497703
0.492759
0.385579
0.42838
0.493764
0.495776
0.496044
0.336601
0.336593
0.432593
0.422007
0.496218
0.282959
0.425755
0.494822
0.470242
0.429175
0.310372
0.495887
0.425735
0.278378
0.495154
0.425162
0.49136
0.427442
0.43169
0.496454
0.497548
0.427881
0.427879
0.425401
0.493481
0.496526
0.432337
0.496676
0.492391
0.383656
0.493734
0.428403
0.431435
0.494554
0.302518
0.428384
0.495105
0.427414
0.496576
0.496897
0.476414
0.423622
0.424813
0.429346
0.432716
0.423606
0.432737
0.496232
0.428045
0.494018
0.496055
0.4956
0.493012
0.496004
0.430426
0.496419
0.317176
0.495968
0.308484
0.495982
0.492514
0.491186
0.497053
0.491986
0.429232
0.357111
0.357044
0.428828
0.43012
0.49669
0.269196
0.267535
0.421047
0.420763
0.49454
0.496101
0.494767
0.430253
0.490473
0.495993
0.42587
0.379361
0.49493
0.495857
0.429329
0.496522
0.268382
0.281584
0.497581
0.496674
0.496641
0.381422
0.492723
0.49617
0.493756
0.465453
0.466755
0.498512
0.492298
0.495848
0.330415
0.414578
0.41459
0.426897
0.379407
0.493237
0.494092
0.491425
0.491366
0.493831
0.473915
0.495886
0.425036
0.27213
0.493797
0.494125
0.49672
0.42733
0.493272
0.495636
0.428523
0.419272
0.41925
0.465766
0.492129
0.496309
0.493496
0.429117
0.423005
0.494014
0.404667
0.497023
0.488521
0.492784
0.427627
0.490829
0.431352
0.428457
0.492518
0.496649
0.427636
0.430357
0.427764
0.490534
0.493378
0.487224
0.491435
0.495783
0.495747
0.493042
0.493689
0.493489
0.423428
0.491896
0.495754
0.491581
0.422276
0.496369
0.496564
0.486793
0.495572
0.493284
0.495574
0.357687
0.496712
0.493558
0.492196
0.492499
0.495268
0.424983
0.496879
0.430851
0.429937
0.494677
0.494392
0.494112
0.491638
0.495867
0.493021
0.496495
0.493645
0.429331
0.493834
0.42839
0.425572
0.425913
0.427755
0.495914
0.491048
0.494968
0.426588
0.492752
0.492798
0.492237
0.489818
0.493934
0.493094
0.425286
0.49169
0.487296
0.493664
0.490131
0.425881
0.496521
0.421984
0.496432
0.494135
0.496867
0.474838
0.491109
0.265841
0.264871
0.432352
0.487255
0.491208
0.492822
0.425583
0.424992
0.496839
0.49258
0.496203
0.489672
0.490843
0.495387
0.49488
0.494852
0.494125
0.492809
0.491344
0.492319
0.420647
0.496528
0.418183
0.272215
0.426262
0.426761
0.425277
0.427323
0.420661
0.4932
0.418201
0.492268
0.482012
0.486029
0.490756
0.491919
0.492595
0.428481
0.478702
0.496536
0.494732
0.491333
0.478722
0.490494
0.471175
0.427452
0.495853
0.492008
0.431987
0.496092
0.368778
0.433093
0.495754
0.486398
0.495929
0.491383
0.358665
0.430144
0.496429
0.466514
0.490429
0.49303
0.491297
0.49331
0.490956
0.495912
0.489433
0.278796
0.494357
0.427607
0.426989
0.428995
0.47939
0.489933
0.496281
0.491053
0.492284
0.491642
0.496943
0.490734
0.464404
0.489148
0.490396
0.270192
0.46684
0.490923
0.49554
0.422767
0.490198
0.487774
0.486879
0.427162
0.491346
0.430526
0.431111
0.429076
0.490228
0.493148
0.48905
0.495126
0.493098
0.435838
0.496475
0.429688
0.491642
0.428846
0.49729
0.425554
0.495856
0.49077
0.496286
0.496989
0.489972
0.425205
0.495477
0.426767
0.491966
0.427744
0.429514
0.428158
0.489489
0.424577
0.496011
0.433133
0.485903
0.493242
0.427149
0.490603
0.49014
0.496742
0.495398
0.400208
0.427021
0.423639
0.427003
0.490216
0.493954
0.493905
0.426812
0.490857
0.491692
0.42361
0.420581
0.319754
0.306896
0.489528
0.439564
0.428466
0.269342
0.267517
0.421075
0.489264
0.422981
0.492576
0.489743
0.488764
0.49571
0.489472
0.4877
0.442025
0.431373
0.279894
0.488018
0.425687
0.488316
0.49226
0.427202
0.494536
0.465365
0.429372
0.467756
0.428218
0.426685
0.44837
0.379462
0.444496
0.489122
0.430091
0.424234
0.429696
0.494974
0.4421
0.426487
0.271417
0.425698
0.491854
0.424691
0.431295
0.492069
0.428562
0.490998
0.495523
0.426415
0.423023
0.426718
0.405115
0.487646
0.489065
0.429875
0.491927
0.49442
0.446158
0.426543
0.358051
0.426453
0.425165
0.486048
0.422989
0.425441
0.488979
0.497509
0.490751
0.424699
0.425347
0.424401
0.49804
0.428192
0.424633
0.493456
0.424409
0.489454
0.426235
0.424801
0.473877
0.488383
0.264874
0.265867
0.451354
0.453302
0.488975
0.484755
0.426846
0.424634
0.384445
0.384226
0.4534
0.496262
0.272884
0.493477
0.491381
0.48903
0.493856
0.493309
0.455274
0.426705
0.423884
0.490422
0.424332
0.486442
0.492535
0.425435
0.486667
0.425481
0.426578