# vtk DataFile Version 1.0
unstructured grid
ascii
DATASET UNSTRUCTURED_GRID
points 8094 float
-0.25 0.0574735 0
0.5 0.0546937 0
0.5 -0.0546937 0
-0.25 -0.0574735 0
-0.25 0.0574735 0.01
0.5 0.0546937 0.01
0.5 -0.0546937 0.01
-0.25 -0.0574735 0.01
-0.246045 0.0569295 0
-0.242089 0.0563854 0
-0.238136 0.0558289 0
-0.234184 0.0552582 0
-0.230232 0.0546875 0
-0.226284 0.0540912 0
-0.222337 0.0534933 0
-0.218391 0.0528841 0
-0.214448 0.0522585 0
-0.210504 0.0516328 0
-0.206565 0.0509829 0
-0.202626 0.0503294 0
-0.198689 0.0496667 0
-0.194755 0.0489856 0
-0.190821 0.0483046 0
-0.18689 0.0476022 0
-0.182961 0.0468942 0
-0.179033 0.0461799 0
-0.175108 0.0454463 0
-0.171183 0.0447127 0
-0.167262 0.0439627 0
-0.163342 0.0432056 0
-0.159422 0.0424455 0
-0.155506 0.041668 0
-0.15159 0.0408904 0
-0.147675 0.0401031 0
-0.143762 0.0393092 0
-0.13985 0.0385149 0
-0.135939 0.0377103 0
-0.132028 0.0369056 0
-0.128117 0.0361005 0
-0.124207 0.0352949 0
-0.120296 0.0344893 0
-0.116386 0.0336836 0
-0.112475 0.032878 0
-0.108563 0.0320794 0
-0.104649 0.0312931 0
-0.100735 0.0305068 0
-0.0968152 0.029745 0
-0.0928949 0.0289889 0
-0.0889722 0.0282446 0
-0.0850433 0.0275341 0
-0.0811144 0.0268235 0
-0.0771778 0.0261578 0
-0.0732381 0.0255098 0
-0.0692962 0.0248759 0
-0.0653442 0.0243073 0
-0.0613923 0.0237386 0
-0.0574324 0.0232306 0
-0.0534681 0.0227556 0
-0.0495024 0.0222934 0
-0.0455272 0.0219207 0
-0.041552 0.0215481 0
-0.0375717 0.0212385 0
-0.0335881 0.0209694 0
-0.029604 0.0207098 0
-0.0256151 0.0205369 0
-0.0216262 0.0203639 0
-0.0176357 0.0202396 0
-0.0136441 0.0201487 0
-0.00965243 0.0200635 0
-0.00565987 0.0200372 0
-0.00166732 0.020011 0
0.00232526 0.0200121 0
0.00631785 0.0200329 0
0.0103104 0.0200563 0
0.0143027 0.0201109 0
0.018295 0.0201654 0
0.022287 0.0202345 0
0.0262788 0.0203144 0
0.0302706 0.0203957 0
0.034262 0.0204956 0
0.0382534 0.0205955 0
0.0422446 0.0207045 0
0.0462355 0.0208207 0
0.0502265 0.0209377 0
0.054217 0.0210676 0
0.0582075 0.0211975 0
0.0621978 0.0213339 0
0.0661879 0.0214757 0
0.0701781 0.021618 0
0.0741678 0.0217703 0
0.0781575 0.0219227 0
0.0821471 0.0220801 0
0.0861364 0.022242 0
0.0901258 0.0224041 0
0.0941148 0.0225747 0
0.0981038 0.0227453 0
0.102093 0.0229202 0
0.106081 0.023099 0
0.11007 0.0232779 0
0.114058 0.0234644 0
0.118046 0.0236509 0
0.122035 0.0238411 0
0.126022 0.024035 0
0.13001 0.0242288 0
0.133998 0.0244298 0
0.137986 0.0246308 0
0.141973 0.0248352 0
0.14596 0.025043 0
0.149947 0.0252509 0
0.153934 0.0254654 0
0.157921 0.02568 0
0.161908 0.0258978 0
0.165894 0.026119 0
0.169881 0.0263402 0
0.173867 0.0265678 0
0.177853 0.0267956 0
0.181839 0.0270264 0
0.185825 0.0272607 0
0.189811 0.0274951 0
0.193796 0.0277356 0
0.197781 0.0279764 0
0.201767 0.02822 0
0.205752 0.0284673 0
0.209737 0.0287146 0
0.213721 0.0289679 0
0.217706 0.0292217 0
0.22169 0.0294782 0
0.225674 0.0297385 0
0.229658 0.0299988 0
0.233642 0.0302651 0
0.237626 0.0305319 0
0.241609 0.0308014 0
0.245593 0.0310748 0
0.249576 0.0313482 0
0.253559 0.0316276 0
0.257542 0.0319077 0
0.261524 0.0321904 0
0.265507 0.0324772 0
0.269489 0.032764 0
0.273471 0.0330568 0
0.277453 0.0333504 0
0.281434 0.0336466 0
0.285416 0.0339471 0
0.289397 0.0342476 0
0.293378 0.034554 0
0.297359 0.0348615 0
0.301339 0.0351714 0
0.305319 0.0354859 0
0.3093 0.0358005 0
0.313279 0.036121 0
0.317259 0.0364427 0
0.321239 0.0367667 0
0.325218 0.0370957 0
0.329197 0.0374248 0
0.333175 0.0377597 0
0.337154 0.0380961 0
0.341132 0.0384347 0
0.34511 0.0387786 0
0.349088 0.0391226 0
0.353065 0.0394724 0
0.357042 0.0398239 0
0.361019 0.0401775 0
0.364995 0.0405368 0
0.368972 0.0408961 0
0.372948 0.0412613 0
0.376924 0.0416285 0
0.380899 0.0419975 0
0.384874 0.0423727 0
0.388849 0.0427479 0
0.392823 0.0431289 0
0.396798 0.0435123 0
0.400772 0.0438973 0
0.404745 0.044289 0
0.408718 0.0446807 0
0.412691 0.0450781 0
0.416664 0.0454782 0
0.420636 0.0458797 0
0.424608 0.0462883 0
0.42858 0.046697 0
0.432551 0.0471114 0
0.436521 0.0475289 0
0.440492 0.0479474 0
0.444462 0.0483738 0
0.448432 0.0488001 0
0.452401 0.0492319 0
0.45637 0.0496673 0
0.460338 0.0501035 0
0.464306 0.0505482 0
0.468274 0.0509928 0
0.472241 0.0514427 0
0.476208 0.0518968 0
0.480175 0.0523512 0
0.48414 0.0528148 0
0.488106 0.0532784 0
0.492071 0.0537471 0
0.496036 0.0542204 0
0.5 0.050787 0
0.5 0.0468803 0
0.5 0.0429736 0
0.5 0.0390669 0
0.5 0.0351602 0
0.5 0.0312535 0
0.5 0.0273468 0
0.5 0.0234402 0
0.5 0.0195335 0
0.5 0.0156268 0
0.5 0.0117201 0
0.5 0.00781339 0
0.5 0.00390669 0
0.5 1.43781e-13 0
0.5 -0.00390669 0
0.5 -0.00781339 0
0.5 -0.0117201 0
0.5 -0.0156268 0
0.5 -0.0195335 0
0.5 -0.0234402 0
0.5 -0.0273468 0
0.5 -0.0312535 0
0.5 -0.0351602 0
0.5 -0.0390669 0
0.5 -0.0429736 0
0.5 -0.0468803 0
0.5 -0.050787 0
0.496036 -0.0542204 0
0.492071 -0.0537471 0
0.488106 -0.0532784 0
0.48414 -0.0528148 0
0.480175 -0.0523512 0
0.476208 -0.0518968 0
0.472241 -0.0514427 0
0.468274 -0.0509928 0
0.464306 -0.0505482 0
0.460338 -0.0501035 0
0.45637 -0.0496673 0
0.452401 -0.0492319 0
0.448432 -0.0488001 0
0.444462 -0.0483738 0
0.440492 -0.0479474 0
0.436521 -0.0475289 0
0.432551 -0.0471114 0
0.42858 -0.046697 0
0.424608 -0.0462883 0
0.420636 -0.0458797 0
0.416664 -0.0454782 0
0.412691 -0.0450781 0
0.408718 -0.0446807 0
0.404745 -0.044289 0
0.400772 -0.0438973 0
0.396798 -0.0435123 0
0.392823 -0.0431289 0
0.388849 -0.0427479 0
0.384874 -0.0423727 0
0.380899 -0.0419975 0
0.376924 -0.0416285 0
0.372948 -0.0412613 0
0.368972 -0.0408961 0
0.364995 -0.0405368 0
0.361019 -0.0401775 0
0.357042 -0.0398239 0
0.353065 -0.0394724 0
0.349088 -0.0391226 0
0.34511 -0.0387786 0
0.341132 -0.0384347 0
0.337154 -0.0380961 0
0.333175 -0.0377597 0
0.329197 -0.0374248 0
0.325218 -0.0370957 0
0.321239 -0.0367667 0
0.317259 -0.0364427 0
0.313279 -0.036121 0
0.3093 -0.0358005 0
0.305319 -0.0354859 0
0.301339 -0.0351714 0
0.297359 -0.0348615 0
0.293378 -0.034554 0
0.289397 -0.0342476 0
0.285416 -0.0339471 0
0.281434 -0.0336466 0
0.277453 -0.0333504 0
0.273471 -0.0330568 0
0.269489 -0.032764 0
0.265507 -0.0324772 0
0.261524 -0.0321904 0
0.257542 -0.0319077 0
0.253559 -0.0316276 0
0.249576 -0.0313482 0
0.245593 -0.0310748 0
0.241609 -0.0308014 0
0.237626 -0.0305319 0
0.233642 -0.0302651 0
0.229658 -0.0299988 0
0.225674 -0.0297385 0
0.22169 -0.0294782 0
0.217706 -0.0292217 0
0.213721 -0.0289679 0
0.209737 -0.0287146 0
0.205752 -0.0284673 0
0.201767 -0.02822 0
0.197781 -0.0279764 0
0.193796 -0.0277356 0
0.189811 -0.0274951 0
0.185825 -0.0272607 0
0.181839 -0.0270264 0
0.177853 -0.0267956 0
0.173867 -0.0265678 0
0.169881 -0.0263402 0
0.165894 -0.026119 0
0.161908 -0.0258978 0
0.157921 -0.02568 0
0.153934 -0.0254654 0
0.149947 -0.0252509 0
0.14596 -0.025043 0
0.141973 -0.0248352 0
0.137986 -0.0246308 0
0.133998 -0.0244298 0
0.13001 -0.0242288 0
0.126022 -0.024035 0
0.122035 -0.0238411 0
0.118046 -0.0236509 0
0.114058 -0.0234644 0
0.11007 -0.0232779 0
0.106081 -0.023099 0
0.102093 -0.0229202 0
0.0981038 -0.0227453 0
0.0941148 -0.0225747 0
0.0901258 -0.0224041 0
0.0861364 -0.022242 0
0.0821471 -0.0220801 0
0.0781575 -0.0219227 0
0.0741678 -0.0217703 0
0.0701781 -0.021618 0
0.0661879 -0.0214757 0
0.0621978 -0.0213339 0
0.0582075 -0.0211975 0
0.054217 -0.0210676 0
0.0502265 -0.0209377 0
0.0462355 -0.0208207 0
0.0422446 -0.0207045 0
0.0382534 -0.0205955 0
0.034262 -0.0204956 0
0.0302706 -0.0203957 0
0.0262788 -0.0203144 0
0.022287 -0.0202345 0
0.018295 -0.0201654 0
0.0143027 -0.0201109 0
0.0103104 -0.0200563 0
0.00631785 -0.0200329 0
0.00232526 -0.0200121 0
-0.00166732 -0.020011 0
-0.00565987 -0.0200372 0
-0.00965243 -0.0200635 0
-0.0136441 -0.0201487 0
-0.0176357 -0.0202396 0
-0.0216262 -0.0203639 0
-0.0256151 -0.0205369 0
-0.029604 -0.0207098 0
-0.0335881 -0.0209694 0
-0.0375717 -0.0212385 0
-0.041552 -0.0215481 0
-0.0455272 -0.0219207 0
-0.0495024 -0.0222934 0
-0.0534681 -0.0227556 0
-0.0574324 -0.0232306 0
-0.0613923 -0.0237386 0
-0.0653442 -0.0243073 0
-0.0692962 -0.0248759 0
-0.0732381 -0.0255098 0
-0.0771778 -0.0261578 0
-0.0811144 -0.0268235 0
-0.0850433 -0.0275341 0
-0.0889722 -0.0282446 0
-0.0928949 -0.0289889 0
-0.0968152 -0.029745 0
-0.100735 -0.0305068 0
-0.104649 -0.0312931 0
-0.108563 -0.0320794 0
-0.112475 -0.032878 0
-0.116386 -0.0336836 0
-0.120296 -0.0344893 0
-0.124207 -0.0352949 0
-0.128117 -0.0361005 0
-0.132028 -0.0369056 0
-0.135939 -0.0377103 0
-0.13985 -0.0385149 0
-0.143762 -0.0393092 0
-0.147675 -0.0401031 0
-0.15159 -0.0408904 0
-0.155506 -0.041668 0
-0.159422 -0.0424455 0
-0.163342 -0.0432056 0
-0.167262 -0.0439627 0
-0.171183 -0.0447127 0
-0.175108 -0.0454463 0
-0.179033 -0.0461799 0
-0.182961 -0.0468942 0
-0.18689 -0.0476022 0
-0.190821 -0.0483046 0
-0.194755 -0.0489856 0
-0.198689 -0.0496667 0
-0.202626 -0.0503294 0
-0.206565 -0.0509829 0
-0.210504 -0.0516328 0
-0.214448 -0.0522585 0
-0.218391 -0.0528841 0
-0.222337 -0.0534933 0
-0.226284 -0.0540912 0
-0.230232 -0.0546875 0
-0.234184 -0.0552582 0
-0.238136 -0.0558289 0
-0.242089 -0.0563854 0
-0.246045 -0.0569295 0
-0.25 -0.0535098 0
-0.25 -0.0495461 0
-0.25 -0.0455824 0
-0.25 -0.0416187 0
-0.25 -0.0376551 0
-0.25 -0.0336914 0
-0.25 -0.0297277 0
-0.25 -0.025764 0
-0.25 -0.0218003 0
-0.25 -0.0178366 0
-0.25 -0.0138729 0
-0.25 -0.00990922 0
-0.25 -0.00594553 0
-0.25 -0.00198184 0
-0.25 0.00198184 0
-0.25 0.00594553 0
-0.25 0.00990922 0
-0.25 0.0138729 0
-0.25 0.0178366 0
-0.25 0.0218003 0
-0.25 0.025764 0
-0.25 0.0297277 0
-0.25 0.0336914 0
-0.25 0.0376551 0
-0.25 0.0416187 0
-0.25 0.0455824 0
-0.25 0.0495461 0
-0.25 0.0535098 0
-0.246045 0.0569295 0.01
-0.242089 0.0563854 0.01
-0.238136 0.0558289 0.01
-0.234184 0.0552582 0.01
-0.230232 0.0546875 0.01
-0.226284 0.0540912 0.01
-0.222337 0.0534933 0.01
-0.218391 0.0528841 0.01
-0.214448 0.0522585 0.01
-0.210504 0.0516328 0.01
-0.206565 0.0509829 0.01
-0.202626 0.0503294 0.01
-0.198689 0.0496667 0.01
-0.194755 0.0489856 0.01
-0.190821 0.0483046 0.01
-0.18689 0.0476022 0.01
-0.182961 0.0468942 0.01
-0.179033 0.0461799 0.01
-0.175108 0.0454463 0.01
-0.171183 0.0447127 0.01
-0.167262 0.0439627 0.01
[...]
CELL_DATA 7657
SCALARS rho float
LOOKUP_TABLE default
0.474738
0.452872
0.50989
0.4991
0.494895
0.505655
0.450945
0.501964
0.449239
0.500244
0.500304
0.502304
0.44757
0.502132
0.49386
0.487009
0.493729
0.509382
0.509369
0.500131
0.492787
0.509202
0.451923
0.50939
0.507209
0.5039
0.492952
0.447724
0.497188
0.505932
0.456484
0.507193
0.451645
0.472778
0.47324
0.456572
0.505878
0.451804
0.477869
0.471215
0.509873
0.449349
0.502759
0.504813
0.509897
0.509836
0.452094
0.505603
0.50715
0.474353
0.504583
0.499351
0.497202
0.497969
0.451437
0.506335
0.493155
0.490682
0.454655
0.457168
0.507044
0.509888
0.506701
0.506599
0.500913
0.500923
0.44795
0.50694
0.499409
0.452068
0.509958
0.447619
0.501942
0.497265
0.471563
0.505377
0.509221
0.505256
0.471033
0.44811
0.451258
0.501685
0.500202
0.509931
0.509924
0.45777
0.509931
0.45178
0.503769
0.49216
0.500846
0.500881
0.455668
0.498789
0.469662
0.459654
0.458727
0.452431
0.509856
0.469274
0.509363
0.508104
0.452953
0.492252
0.451646
0.450201
0.46407
0.507184
0.448185
0.492166
0.45731
0.507138
0.503912
0.500185
0.509804
0.448889
0.507398
0.472262
0.48633
0.505723
0.501601
0.501589
0.463954
0.451081
0.500762
0.502144
0.502476
0.502651
0.506689
0.502898
0.497899
0.508852
0.506421
0.501782
0.500213
0.462132
0.487428
0.45161
0.508765
0.50869
0.463169
0.487893
0.473484
0.471528
0.509507
0.492689
0.45124
0.452939
0.509865
0.463018
0.480348
0.499512
0.453731
0.502868
0.492828
0.452642
0.506957
0.509075
0.500191
0.461208
0.509015
0.49039
0.504021
0.448994
0.509659
0.452703
0.477868
0.503847
0.509804
0.486693
0.509901
0.450348
0.508923
0.479633
0.454038
0.45577
0.500799
0.459191
0.500847
0.474596
0.47116
0.447743
0.508421
0.508318
0.447856
0.453709
0.448707
0.501086
0.503143
0.45956
0.497141
0.499064
0.50021
0.463007
0.503224
0.506615
0.500051
0.489973
0.454686
0.509833
0.509433
0.508197
0.460687
0.451177
0.491223
0.49816
0.448151
0.453209
0.470471
0.462583
0.509114
0.509837
0.509655
0.500236
0.509905
0.501454
0.453133
0.456941
0.507092
0.509925
0.452976
0.452375
0.499865
0.507043
0.448315
0.451219
0.447925
0.487826
0.505282
0.499906
0.509538
0.509485
0.447414
0.492605
0.485159
0.50013
0.451945
0.50803
0.507937
0.489639
0.50905
0.478056
0.460393
0.451427
0.469795
0.465291
0.448509
0.464529
0.448647
0.505058
0.455877
0.500379
0.507314
0.471533
0.453748
0.501239
0.453462
0.494791
0.497846
0.507028
0.45189
0.497978
0.485854
0.509836
0.452544
0.509925
0.450544
0.479209
0.509427
0.475813
0.447535
0.491318
0.488197
0.500108
0.469219
0.509776
0.503584
0.507143
0.507045
0.50287
0.452572
0.505403
0.482536
0.465927
0.500239
0.456638
0.466171
0.49751
0.453668
0.509663
0.509731
0.501427
0.483639
0.497979
0.507212
0.493559
0.47829
0.501573
0.449489
0.50972
0.45876
0.497834
0.476963
0.448446
0.491822
0.456686
0.451943
0.501701
0.509526
0.507182
0.50276
0.450046
0.489278
0.448862
0.507254
0.489047
0.49785
0.494826
0.507116
0.505288
0.50345
0.45199
0.497806
0.452785
0.486814
0.495891
0.448493
0.453479
0.491197
0.509712
0.450273
0.496222
0.485679
0.452666
0.501839
0.451707
0.507181
0.486464
0.507355
0.497193
0.503393
0.454374
0.453805
0.485866
0.499992
0.453388
0.497121
0.453437
0.509923
0.491287
0.505856
0.509081
0.500192
0.509017
0.451134
0.507504
0.508789
0.452713
0.507416
0.453695
0.507903
0.509253
0.509886
0.449736
0.493353
0.455097
0.503497
0.470196
0.455843
0.457913
0.506082
0.450336
0.500285
0.500598
0.447577
0.447313
0.508924
0.452664
0.509628
0.484708
0.509767
0.509483
0.490565
0.50658
0.497525
0.49933
0.47417
0.502425
0.503649
0.490684
0.507917
0.507291
0.507225
0.500481
0.504194
0.453126
0.452785
0.450363
0.49052
0.505854
0.500183
0.500209
0.50956
0.498752
0.470248
0.450205
0.487781
0.447597
0.490974
0.493824
0.508865
0.506146
0.506518
0.498668
0.460641
0.500635
0.509791
0.501594
0.498801
0.452605
0.451855
0.501709
0.450109
0.453785
0.452687
0.509833
0.458548
0.501032
0.502501
0.508007
0.449592
0.452715
0.453142
0.500068
0.50517
0.4844
0.49772
0.508709
0.485976
0.509427
0.505722
0.482717
0.458123
0.497398
0.502874
0.509787
0.509035
0.450376
0.49368
0.448603
0.507228
0.507472
0.508102
0.451292
0.448521
0.459337
0.450451
0.48779
0.486198
0.460992
0.473405
0.506805
0.509716
0.457956
0.453443
0.50064
0.450059
0.450783
0.450644
0.451637
0.497384
0.508181
0.450539
0.475469
0.492319
0.508284
0.505103
0.505563
0.464764
0.497138
0.449291
0.49723
0.509016
0.508856
0.509841
0.507014
0.480315
0.458921
0.499459
0.506287
0.490023
0.506932
0.502251
0.462338
0.502598
0.448652
0.499035
0.50507
0.473435
0.474879
0.501419
0.501563
0.44958
0.501147
0.452254
0.453925
0.45325
0.501979
0.449282
0.484489
0.481444
0.505422
0.508375
0.489869
0.509335
0.50099
0.481654
0.509112
0.479316
0.451717
0.487611
0.500346
0.50163
0.496956
0.503003
0.501256
0.498496
0.509936
0.498809
0.506732
0.507652
0.485086
0.501724
0.450371
0.509821
0.508275
0.509774
0.501821
0.455629
0.509615
0.509793
0.508267
0.448872
0.502492
0.505004
0.500508
0.508465
0.502237
0.506122
0.508542
0.485411
0.49835
0.449495
0.504121
0.479919
0.483879
0.469323
0.502981
0.450295
0.473137
0.484882
0.504698
0.500801
0.447653
0.508646
0.482436
0.499097
0.50049
0.455457
0.469877
0.459222
0.504985
0.509025
0.451768
0.455963
0.449783
0.501847
0.500002
0.502646
0.502289
0.448484
0.452736
0.456828
0.506923
0.508592
0.450485
0.506187
0.449443
0.49922
0.447796
0.503265
0.502153
0.450877
0.448642
0.454757
0.506931
0.455146
0.448779
0.509826
0.502234
0.46144
0.491981
0.507067
0.503363
0.50179
0.501996
0.503963
0.463582
0.507285
0.492648
0.503833
0.502391
0.502465
0.48263
0.509884
0.485278
0.499998
0.450068
0.448253
0.501983
0.459106
0.49753
0.49782
0.500825
0.501689
0.506348
0.452728
0.448819
0.449467
0.44912
0.50931
0.50688
0.497599
0.506258
0.502981
0.501137
0.449327
0.506825
0.496896
0.509409
0.496784
0.50827
0.507599
0.447918
0.496473
0.500602
0.507101
0.506113
0.453057
0.502113
0.482846
0.506012
0.509838
0.50092
0.500134
0.502978
0.489783
0.508364
0.506683
0.506813
0.465113
0.505853
0.486115
0.44804
0.50673
0.508902
0.448692
0.501971
0.505754
0.453157
0.500753
0.457026
0.449543
0.486083
0.499683
0.453897
0.453208
0.45251
0.500043
0.505604
0.50985
0.506564
0.452994
0.502507
0.501688
0.505498
0.507719
0.498104
0.449162
0.459965
0.466634
0.50199
0.502801
0.506444
0.508531
0.502827
0.500388
0.448347
0.494263
0.493728
0.450425
0.508689
0.448696
0.45083
0.451237
0.503621
0.50534
0.448859
0.50523
0.501069
0.50094
0.499949
0.502092
0.497272
0.50916
0.448427
0.485776
0.4983
0.461549
0.449195
0.503446
0.453539
0.501104
0.501111
0.496164
0.506336
0.504326
0.497144
0.457486
0.454594
0.507027
0.495271
0.50323
0.45201
0.502923
0.447964
0.450297
0.450739
0.500995
0.50683
0.506486
0.45362
0.495091
0.453878
0.454642
0.501156
0.450347
0.449828
0.467843
0.50422
0.498351
0.448877
0.506312
0.48125
0.499082
0.493638
0.495882
0.473419
0.496522
0.497539
0.453334
0.496123
0.500552
0.50704
0.506687
0.501607
0.507248
0.449727
0.506687
0.502531
0.509057
0.50913
0.484164
0.449579
0.495814
0.502769
0.483685
0.493548
0.495572
0.509269
0.503435
0.506727
0.476872
0.501173
0.451221
0.500204
0.495514
0.502271
0.455838
0.508371
0.449416
0.451946
0.503069
0.506205
0.509898
0.485217
0.501333
0.452727
0.452664
0.450611
0.494526
0.464745
0.44878
0.502888
0.451472
0.454586
0.454633
0.504346
0.494834
0.501873
0.462638
0.448181
0.448549
0.504042
0.451037
0.49417
0.500208
0.503834
0.501231
0.491519
0.500206
0.451709
0.50034
0.500689
0.45165
0.45921
0.503003
0.47577
0.448978
0.449203
0.500924
0.503334
0.474596
0.503978
0.500802
0.4545
0.483139
0.500219
0.49342
0.506914
0.500663
0.504735
0.50715
0.498868
0.497078
0.493112
0.509896
0.451933
0.45915
0.503007
0.493698
0.497463
0.46618
0.449668
0.476671
0.505831
0.447275
0.496791
0.447389
0.491035
0.49346
0.500682
0.490675
0.493776
0.503208
0.506056
0.500845
0.466794
0.492672
0.450713
0.449701
0.497222
0.449082
0.503619
0.493063
0.477826
0.465898
0.494784
0.493394
0.50164
0.494322
0.502866
0.450444
0.503214
0.449149
0.448581
0.449399
0.501865
0.502137
0.494372
0.44812
0.505951
0.504197
0.493381
0.493886
0.492992
0.493834
0.504832
0.492285
0.461399
0.491901
0.492609
0.487215
0.500911
0.487661
0.482202
0.505696
0.484259
0.461389
0.453558
0.504546
0.476812
0.465775
0.449241
0.449269
0.496119
0.502637
0.492228
0.50277
0.450017
0.458472
0.50045
0.503059
0.496425
0.503526
0.450837
0.470253
0.491851
0.449373
0.449474
0.448146
0.486243
0.503064
0.503355
0.485278
0.45348
0.453519
0.501124
0.503832
0.504209
0.449279
0.473303
0.496906
0.500068
0.501482
0.508958
0.472573
0.475705
0.500603
0.503023
0.509916
0.483232
0.449198
0.448608
0.44831
0.503439
0.465118
0.452291
0.502447
0.460532
0.506922
0.489959
0.503096
0.501763
0.506945
0.504757
0.500771
0.479022
0.463279
0.503507
0.506289
0.473946
0.476274
0.506278
0.500352
0.46675
0.489102
0.505942
0.501654
0.505007
0.461569
0.500529
0.491251
0.503345
0.503182
0.506193
0.506085
0.500618
0.504461
0.508024
0.487856
0.472234
0.491302
0.457213
0.500364
0.457916
0.496512
0.497345
0.451774
0.452811
0.500495
0.502869
0.500057
0.449113
0.490397
0.503778
0.506542
0.500496
0.474697
0.500462
0.493971
0.503906
0.506564
0.448896
0.496532
0.502583
0.50286
0.44859
0.449262
0.450351
0.503113
0.489554
0.500285
0.509882
0.509976
0.46243
0.480795
0.509446
0.503845
0.490178
0.454166
0.505434
0.452174
0.464163
0.501072
0.496754
0.505546
0.496394
0.509986
0.509965
0.509812
0.496025
0.509489
0.500079
0.503486
0.509464
0.449653
0.509854
0.474032
0.45271
0.496336
0.486787
0.504867
0.493505
0.496914
0.501254
0.490456
0.49334
0.489494
0.501564
0.452629
0.490395
0.509214
0.496073
0.449128
0.502287
0.506672
0.475459
0.501894
0.504
0.507904
0.500512
0.508296
0.500443
0.503281
0.493093
0.501976
0.503309
0.506648
0.496711
0.505572
0.473956
0.505186
0.50676
0.459146
0.504459
0.462264
0.490801
0.494643
0.465614
0.467674
0.503265
0.505316
0.500531
0.452958
0.471477
0.45338
0.500337
0.503724
0.449604
0.449581
0.477575
0.489084
0.50291
0.504602
0.459613
0.478679
0.501837
0.484643
0.496317
0.504055
0.502164
0.486973
0.503387
0.506645
0.488744
0.501212
0.505165
0.50911
0.50019
0.480048
0.501416
0.496622
0.471395
0.503782
0.47224
0.500348
0.486734
0.500642
0.496202
0.488557
0.491524
0.509882
0.509881
0.488612
0.491908
0.504608
0.451775
0.502091
0.488135
0.502025
0.464437
0.485834
0.500686
0.503627
0.475712
0.463445
0.503592
0.455529
0.504692
0.470418
0.448299
0.448853
0.504888
0.504564
0.505306
0.463167
0.496504
0.505537
0.497237
0.500663
0.455033
0.502927
0.501153
0.502687
0.469322
0.50063
0.494512
0.502247
0.502735
0.465661
0.500492
0.462548
0.453855
0.449712
0.449712
0.50088
0.494702
0.459473
0.502646
0.496109
0.500587
0.500359
0.508459
0.509293
0.497158
0.460549
0.49981
0.453243
0.501075
0.46127
0.503044
0.454059
0.507733
0.500766
0.505655
0.502135
0.501692
0.507901
0.507913
0.448797
0.496823
0.489577
0.497202
0.503139
0.500641
0.491141
0.500347
0.488084
0.50918
0.450005
0.458178
0.491298
0.505486
0.491603
0.501505
0.501381
0.488401
0.49639
0.490241
0.448756
0.501294
0.456874
0.473609
0.505162
0.490973
0.453775
0.506825
0.449884
0.468373
0.473209
0.505902
0.474846
0.471488
0.505657
0.507991
0.507978
0.492297
0.505911
0.500503
0.500721
0.469395
0.508165
0.502676
0.4494
0.456404
0.501958
0.506161
0.502221
0.500738
0.501264
0.500482
0.506436
0.496838
0.506377
0.509081
0.509408
0.504332
0.504637
0.505553
0.456692
0.502261
0.509584
0.509612
0.488344
0.501455
0.504128
0.498282
0.501754
0.508631
0.502731
0.504492
0.487655
0.502431
0.504241
0.502551
0.489027
0.509493
0.456658
0.477607
0.509808
0.509799
0.500591
0.500887
0.506916
0.500455
0.501305
0.496299
0.508441
0.508471
0.447945
0.500582
0.505688
0.50107
0.505887
0.500358
0.501347
0.505157
0.504459
0.500876
0.466599
0.467715
0.506488
0.501206
0.502716
0.500731
0.50388
0.503645
0.503652
0.508175
0.502692
0.501545
0.500925
0.500257
0.50799
0.49589
0.507998
0.50837
0.500699
0.448181
0.502203
0.506737
0.501039
0.508996
0.508986
0.504093
0.490957
0.50181
0.458274
0.495934
0.500407
0.475865
0.509861
0.496997
0.490315
0.509265
0.457577
0.448288
0.44826
0.509977
0.504259
0.501594
0.507559
0.508536
0.509698
0.500532
0.507576
0.509877
0.509594
0.509209
0.500948
0.508284
0.501788
0.484115
0.509506
0.49223
0.490657
0.504543
0.502393
0.508948
0.502561
0.500975
0.502322
0.489234
0.509622
0.501198
0.501231
0.501613
0.500864
0.501183
0.502114
0.450595
0.508639
0.508649
0.501465
0.502617
0.501234
0.490858
0.452537
0.50246
0.506408
0.500753
0.505904
0.500906
0.490974
0.50383
0.467249
0.485424
0.501658
0.448538
0.50185
0.502788
0.509782
0.46538
0.464375
0.502861
0.502925
0.506843
0.502858
0.496861
0.496941
0.502311
0.501382
0.500612
0.505908
0.452917
0.50542
0.457971
0.502547
0.502732
0.474682
0.476623
0.488122
0.505617
0.500962
0.501012
0.501197
0.501103
0.498284
0.50438
0.504099
0.503814
0.501435
0.504658
0.501344
0.502415
0.508995
0.491478
0.459995
0.496791
0.502052
0.502574
0.500991
0.502844
0.509642
0.503179
0.504206
0.508531
0.502095
0.503158
0.504212
0.497789
0.503486
0.450847
0.488775
0.4528
0.453082
0.496923
0.503172
0.500619
0.490695
0.472535
0.501563
0.487174
0.503179
0.496381
0.503633
0.503042
0.455343
0.496712
0.486691
0.48829
0.508046
0.507998
0.504409
0.454598
0.497857
0.502415
0.498876
0.450444
0.501945
0.503236
0.487539
0.506762
0.487609
0.509428
0.485733
0.498773
0.482116
0.499492
0.499463
0.498726
0.482867
0.505525
0.498395
0.502753
0.496757
0.493063
0.502209
0.500575
0.470593
0.492372
0.456215
0.498136
0.505298
0.503771
0.45488
0.49364
0.492979
0.503327
0.46724
0.48111
0.498057
0.485962
0.498217
0.501287
0.461148
0.504052
0.501458
0.499078
0.49905
0.490649
0.502292
0.490505
0.502002
0.49492
0.506538
0.506497
0.504568
0.496831
0.501772
0.497175
0.497693
0.501595
0.483888
0.500399
0.500479
0.469275
0.459833
0.461582
0.506211
0.503644
0.490211
0.467513
0.503471
0.503902
0.503402
0.505009
0.503405
0.49861
0.508183
0.497944
0.47794
0.462099
0.504525
0.502137
0.502195
0.489841
0.506912
0.493124
0.502943
0.503475
0.504181
0.50787
0.507883
0.502939
0.503119
0.501486
0.496294
0.503666
0.503498
0.504755
0.503248
0.503825
0.503819
0.501404
0.502272
0.504246
0.50121
0.503295
0.495083
0.501402
0.505691
0.496113
0.504419
0.504348
0.503002
0.50601
0.502083
0.504768
0.508297
0.508353
0.506862
0.509073
0.509065
0.458799
0.505512
0.497366
0.505972
0.504801
0.503314
0.47698
0.504932
0.509746
0.509733
0.509618
0.509625
0.507573
0.502713
0.509875
0.508241
0.508359
0.496151
0.50504
0.509199
0.484282
0.503963
0.509326
0.509293
0.50757
0.504315
0.507444
0.509916
0.509872
0.503152
0.50502
0.5086
0.500489
0.507477
0.473625
0.502754
0.450334
0.497467
0.503677
0.453781
0.504887
0.498075
0.498044
0.498077
0.500822
0.494859
0.491903
0.509431
0.497958
0.452351
0.487134
0.492806
0.498072
0.503693
0.501892
0.501542
0.451418
0.500678
0.500626
0.49672
0.468302
0.469407
0.504686
0.50105
0.50976
0.486347
0.505496
0.504329
0.489691
0.490426
0.500737
0.495631
0.495949
0.501017
0.489352
0.455741
0.454438
0.493059
0.50993
0.505985
0.463247
0.481915
0.497377
0.497822
0.501359
0.496258
0.497443
0.485622
0.503343
0.471428
0.506671
0.495889
0.458332
0.479644
0.496509
0.504359
0.497332
0.460378
0.503999
0.470422
0.508557
0.504977
0.497529
0.471492
0.472473
0.501673
0.50957
0.489322
0.49575
0.486009
0.503794
0.4799
0.505181
0.492442
0.501175
0.497564
0.495349
0.494877
0.503616
0.509343
0.503009
0.495799
0.504406
0.49724
0.503587
0.47897
0.492565
0.50235
0.486306
0.508719
0.508718
0.494385
0.492784
0.495928
0.495311
0.485274
0.496512
0.496876
0.470321
0.502148
0.507146
0.496129
0.497005
0.501945
0.504911
0.503482
0.508865
0.503625
0.49128
0.507856
0.507891
0.497434
0.497784
0.449747
0.497987
0.494115
0.500763
0.504892
0.505792
0.493332
0.49458
0.500786
0.495597
0.49668
0.485668
0.466202
0.493179
0.497212
0.4903
0.496537
0.506524
0.504844
0.478813
0.50423
0.49634
0.496183
0.473085
0.50496
0.503911
0.505309
0.495132
0.482952
0.496833
0.491642
0.505114
0.50476
0.49773
0.491645
0.506457
0.504424
0.492844
0.495534
0.495942
0.503036
0.503086
0.500646
0.50901
0.496082
0.497558
0.506771
0.494229
0.46853
0.503719
0.501163
0.495722
0.506732
0.49551
0.494646
0.507235
0.489986
0.505359
0.501375
0.496652
0.497849
0.504621
0.504623
0.507021
0.49254
0.496824
0.500847
0.496654
0.491153
0.506369
0.492858
0.504075
0.501518
0.493872
0.500517
0.504171
0.49461
0.505038
0.496744
0.497137
0.47409
0.508093
0.507472
0.503533
0.500551
0.508094
0.500549
0.496283
0.504819
0.493216
0.496023
0.49509
0.491964
0.495813
0.5023
0.496554
0.447884
0.495577
0.448207
0.495907
0.491363
0.489801
0.497074
0.490735
0.503487
0.504548
0.50451
0.504081
0.502863
0.496918
0.485102
0.483145
0.509461
0.509561
0.493862
0.4961
0.49414
0.502451
0.488984
0.495909
0.506666
0.506122
0.494371
0.495411
0.503343
0.496846
0.462236
0.453145
0.497917
0.496346
0.496322
0.506181
0.491596
0.496042
0.492887
0.46419
0.465287
0.498729
0.491105
0.49571
0.502557
0.509391
0.509361
0.505832
0.506081
0.49224
0.49321
0.490079
0.489957
0.492921
0.471644
0.495773
0.507008
0.487196
0.492868
0.49335
0.496953
0.505447
0.492211
0.495325
0.50436
0.509908
0.509864
0.46466
0.490902
0.496426
0.492562
0.503342
0.50845
0.493094
0.453769
0.496909
0.486806
0.491613
0.505202
0.489392
0.501647
0.504425
0.491329
0.496807
0.504883
0.502627
0.504721
0.488886
0.492358
0.485309
0.490026
0.495226
0.4952
0.491956
0.492794
0.492512
0.508183
0.490622
0.495519
0.490257
0.508859
0.49649
0.496314
0.484943
0.495094
0.492299
0.495145
0.451113
0.496858
0.492637
0.490958
0.491308
0.494765
0.507362
0.496684
0.501977
0.503043
0.494029
0.493673
0.493323
0.490286
0.495711
0.491936
0.496586
0.492653
0.503622
0.492978
0.504457
0.506904
0.506606
0.505073
0.495662
0.489575
0.494391
0.505801
0.491649
0.491659
0.491033
0.488245
0.493001
0.491982
0.507122
0.490389
0.485478
0.492702
0.488597
0.506652
0.496828
0.509002
0.49664
0.493338
0.496794
0.472506
0.489715
0.468243
0.470363
0.500811
0.485436
0.48974
0.491683
0.50689
0.507348
0.497152
0.491343
0.495975
0.488016
0.489318
0.494941
0.4941
0.49409
0.493331
0.491703
0.489929
0.491076
0.509759
0.496378
0.509977
0.457036
0.506046
0.50568
0.507136
0.505468
0.50978
0.492128
0.509995
0.490984
0.479448
0.483664
0.489281
0.490622
0.491371
0.504109
0.476311
0.496865
0.494021
0.489965
0.476195
0.489011
0.469363
0.505341
0.495722
0.490764
0.501062
0.496068
0.452379
0.500503
0.495422
0.484519
0.49573
0.489994
0.450986
0.502819
0.496622
0.465066
0.488901
0.491988
0.489806
0.492281
0.489534
0.495807
0.4878
0.452968
0.493614
0.504904
0.5054
0.50387
0.476993
0.488374
0.49634
0.489625
0.491045
0.490231
0.496894
0.489196
0.463531
0.487502
0.48883
0.459124
0.465565
0.489342
0.495064
0.508639
0.488674
0.485856
0.484904
0.505276
0.489919
0.50243
0.450088
0.503719
0.48871
0.492106
0.487253
0.494489
0.492008
0.44995
0.496618
0.503154
0.490276
0.504078
0.497371
0.50675
0.495598
0.489256
0.496058
0.497236
0.488418
0.45112
0.494913
0.505919
0.490676
0.505091
0.503447
0.504703
0.487853
0.507674
0.49573
0.449936
0.483998
0.492216
0.505604
0.489014
0.488513
0.496906
0.494858
0.453609
0.50573
0.508101
0.505408
0.488568
0.492965
0.492927
0.505813
0.489426
0.490352
0.508082
0.451405
0.448067
0.448462
0.487923
0.450429
0.504329
0.48602
0.481154
0.50947
0.487561
0.451335
0.491385
0.488063
0.486897
0.49539
0.487728
0.485825
0.450944
0.501535
0.453703
0.486044
0.506654
0.486395
0.491019
0.505572
0.493766
0.464093
0.503555
0.466136
0.450409
0.505942
0.453011
0.506106
0.451516
0.48747
0.502858
0.507898
0.503272
0.494318
0.450817
0.505947
0.486257
0.506787
0.490502
0.507581
0.501723
0.490731
0.504276
0.489583
0.495222
0.506239
0.508446
0.505987
0.453914
0.485616
0.487347
0.503093
0.490626
0.493733
0.452088
0.506118
0.451133
0.505936
0.50711
0.484135
0.451624
0.506934
0.487305
0.497644
0.489229
0.507568
0.506992
0.507794
0.498218
0.450665
0.507634
0.492504
0.50778
0.487838
0.506386
0.507483
0.471679
0.486657
0.468929
0.46719
0.454574
0.455676
0.487214
0.482722
0.505864
0.507591
0.452648
0.452749
0.455653
0.495958
0.456241
0.492436
0.490019
0.487356
0.492887
0.49233
0.456807
0.505934
0.508117
0.488823
0.507812
0.484562
0.491389
0.506965
0.48475
0.50692
0.506061
0.48329