# vtk DataFile Version 1.0
unstructured grid
ascii
DATASET UNSTRUCTURED_GRID
points 8094 float
-0.25 0.0574735 0
0.5 0.0546937 0
0.5 -0.0546937 0
-0.25 -0.0574735 0
-0.25 0.0574735 0.01
0.5 0.0546937 0.01
0.5 -0.0546937 0.01
-0.25 -0.0574735 0.01
-0.246045 0.0569295 0
-0.242089 0.0563854 0
-0.238136 0.0558289 0
-0.234184 0.0552582 0
-0.230232 0.0546875 0
-0.226284 0.0540912 0
-0.222337 0.0534933 0
-0.218391 0.0528841 0
-0.214448 0.0522585 0
-0.210504 0.0516328 0
-0.206565 0.0509829 0
-0.202626 0.0503294 0
-0.198689 0.0496667 0
-0.194755 0.0489856 0
-0.190821 0.0483046 0
-0.18689 0.0476022 0
-0.182961 0.0468942 0
-0.179033 0.0461799 0
-0.175108 0.0454463 0
-0.171183 0.0447127 0
-0.167262 0.0439627 0
-0.163342 0.0432056 0
-0.159422 0.0424455 0
-0.155506 0.041668 0
-0.15159 0.0408904 0
-0.147675 0.0401031 0
-0.143762 0.0393092 0
-0.13985 0.0385149 0
-0.135939 0.0377103 0
-0.132028 0.0369056 0
-0.128117 0.0361005 0
-0.124207 0.0352949 0
-0.120296 0.0344893 0
-0.116386 0.0336836 0
-0.112475 0.032878 0
-0.108563 0.0320794 0
-0.104649 0.0312931 0
-0.100735 0.0305068 0
-0.0968152 0.029745 0
-0.0928949 0.0289889 0
-0.0889722 0.0282446 0
-0.0850433 0.0275341 0
-0.0811144 0.0268235 0
-0.0771778 0.0261578 0
-0.0732381 0.0255098 0
-0.0692962 0.0248759 0
-0.0653442 0.0243073 0
-0.0613923 0.0237386 0
-0.0574324 0.0232306 0
-0.0534681 0.0227556 0
-0.0495024 0.0222934 0
-0.0455272 0.0219207 0
-0.041552 0.0215481 0
-0.0375717 0.0212385 0
-0.0335881 0.0209694 0
-0.029604 0.0207098 0
-0.0256151 0.0205369 0
-0.0216262 0.0203639 0
-0.0176357 0.0202396 0
-0.0136441 0.0201487 0
-0.00965243 0.0200635 0
-0.00565987 0.0200372 0
-0.00166732 0.020011 0
0.00232526 0.0200121 0
0.00631785 0.0200329 0
0.0103104 0.0200563 0
0.0143027 0.0201109 0
0.018295 0.0201654 0
0.022287 0.0202345 0
0.0262788 0.0203144 0
0.0302706 0.0203957 0
0.034262 0.0204956 0
0.0382534 0.0205955 0
0.0422446 0.0207045 0
0.0462355 0.0208207 0
0.0502265 0.0209377 0
0.054217 0.0210676 0
0.0582075 0.0211975 0
0.0621978 0.0213339 0
0.0661879 0.0214757 0
0.0701781 0.021618 0
0.0741678 0.0217703 0
0.0781575 0.0219227 0
0.0821471 0.0220801 0
0.0861364 0.022242 0
0.0901258 0.0224041 0
0.0941148 0.0225747 0
0.0981038 0.0227453 0
0.102093 0.0229202 0
0.106081 0.023099 0
0.11007 0.0232779 0
0.114058 0.0234644 0
0.118046 0.0236509 0
0.122035 0.0238411 0
0.126022 0.024035 0
0.13001 0.0242288 0
0.133998 0.0244298 0
0.137986 0.0246308 0
0.141973 0.0248352 0
0.14596 0.025043 0
0.149947 0.0252509 0
0.153934 0.0254654 0
0.157921 0.02568 0
0.161908 0.0258978 0
0.165894 0.026119 0
0.169881 0.0263402 0
0.173867 0.0265678 0
0.177853 0.0267956 0
0.181839 0.0270264 0
0.185825 0.0272607 0
0.189811 0.0274951 0
0.193796 0.0277356 0
0.197781 0.0279764 0
0.201767 0.02822 0
0.205752 0.0284673 0
0.209737 0.0287146 0
0.213721 0.0289679 0
0.217706 0.0292217 0
0.22169 0.0294782 0
0.225674 0.0297385 0
0.229658 0.0299988 0
0.233642 0.0302651 0
0.237626 0.0305319 0
0.241609 0.0308014 0
0.245593 0.0310748 0
0.249576 0.0313482 0
0.253559 0.0316276 0
0.257542 0.0319077 0
0.261524 0.0321904 0
0.265507 0.0324772 0
0.269489 0.032764 0
0.273471 0.0330568 0
0.277453 0.0333504 0
0.281434 0.0336466 0
0.285416 0.0339471 0
0.289397 0.0342476 0
0.293378 0.034554 0
0.297359 0.0348615 0
0.301339 0.0351714 0
0.305319 0.0354859 0
0.3093 0.0358005 0
0.313279 0.036121 0
0.317259 0.0364427 0
0.321239 0.0367667 0
0.325218 0.0370957 0
0.329197 0.0374248 0
0.333175 0.0377597 0
0.337154 0.0380961 0
0.341132 0.0384347 0
0.34511 0.0387786 0
0.349088 0.0391226 0
0.353065 0.0394724 0
0.357042 0.0398239 0
0.361019 0.0401775 0
0.364995 0.0405368 0
0.368972 0.0408961 0
0.372948 0.0412613 0
0.376924 0.0416285 0
0.380899 0.0419975 0
0.384874 0.0423727 0
0.388849 0.0427479 0
0.392823 0.0431289 0
0.396798 0.0435123 0
0.400772 0.0438973 0
0.404745 0.044289 0
0.408718 0.0446807 0
0.412691 0.0450781 0
0.416664 0.0454782 0
0.420636 0.0458797 0
0.424608 0.0462883 0
0.42858 0.046697 0
0.432551 0.0471114 0
0.436521 0.0475289 0
0.440492 0.0479474 0
0.444462 0.0483738 0
0.448432 0.0488001 0
0.452401 0.0492319 0
0.45637 0.0496673 0
0.460338 0.0501035 0
0.464306 0.0505482 0
0.468274 0.0509928 0
0.472241 0.0514427 0
0.476208 0.0518968 0
0.480175 0.0523512 0
0.48414 0.0528148 0
0.488106 0.0532784 0
0.492071 0.0537471 0
0.496036 0.0542204 0
0.5 0.050787 0
0.5 0.0468803 0
0.5 0.0429736 0
0.5 0.0390669 0
0.5 0.0351602 0
0.5 0.0312535 0
0.5 0.0273468 0
0.5 0.0234402 0
0.5 0.0195335 0
0.5 0.0156268 0
0.5 0.0117201 0
0.5 0.00781339 0
0.5 0.00390669 0
0.5 1.43781e-13 0
0.5 -0.00390669 0
0.5 -0.00781339 0
0.5 -0.0117201 0
0.5 -0.0156268 0
0.5 -0.0195335 0
0.5 -0.0234402 0
0.5 -0.0273468 0
0.5 -0.0312535 0
0.5 -0.0351602 0
0.5 -0.0390669 0
0.5 -0.0429736 0
0.5 -0.0468803 0
0.5 -0.050787 0
0.496036 -0.0542204 0
0.492071 -0.0537471 0
0.488106 -0.0532784 0
0.48414 -0.0528148 0
0.480175 -0.0523512 0
0.476208 -0.0518968 0
0.472241 -0.0514427 0
0.468274 -0.0509928 0
0.464306 -0.0505482 0
0.460338 -0.0501035 0
0.45637 -0.0496673 0
0.452401 -0.0492319 0
0.448432 -0.0488001 0
0.444462 -0.0483738 0
0.440492 -0.0479474 0
0.436521 -0.0475289 0
0.432551 -0.0471114 0
0.42858 -0.046697 0
0.424608 -0.0462883 0
0.420636 -0.0458797 0
0.416664 -0.0454782 0
0.412691 -0.0450781 0
0.408718 -0.0446807 0
0.404745 -0.044289 0
0.400772 -0.0438973 0
0.396798 -0.0435123 0
0.392823 -0.0431289 0
0.388849 -0.0427479 0
0.384874 -0.0423727 0
0.380899 -0.0419975 0
0.376924 -0.0416285 0
0.372948 -0.0412613 0
0.368972 -0.0408961 0
0.364995 -0.0405368 0
0.361019 -0.0401775 0
0.357042 -0.0398239 0
0.353065 -0.0394724 0
0.349088 -0.0391226 0
0.34511 -0.0387786 0
0.341132 -0.0384347 0
0.337154 -0.0380961 0
0.333175 -0.0377597 0
0.329197 -0.0374248 0
0.325218 -0.0370957 0
0.321239 -0.0367667 0
0.317259 -0.0364427 0
0.313279 -0.036121 0
0.3093 -0.0358005 0
0.305319 -0.0354859 0
0.301339 -0.0351714 0
0.297359 -0.0348615 0
0.293378 -0.034554 0
0.289397 -0.0342476 0
0.285416 -0.0339471 0
0.281434 -0.0336466 0
0.277453 -0.0333504 0
0.273471 -0.0330568 0
0.269489 -0.032764 0
0.265507 -0.0324772 0
0.261524 -0.0321904 0
0.257542 -0.0319077 0
0.253559 -0.0316276 0
0.249576 -0.0313482 0
0.245593 -0.0310748 0
0.241609 -0.0308014 0
0.237626 -0.0305319 0
0.233642 -0.0302651 0
0.229658 -0.0299988 0
0.225674 -0.0297385 0
0.22169 -0.0294782 0
0.217706 -0.0292217 0
0.213721 -0.0289679 0
0.209737 -0.0287146 0
0.205752 -0.0284673 0
0.201767 -0.02822 0
0.197781 -0.0279764 0
0.193796 -0.0277356 0
0.189811 -0.0274951 0
0.185825 -0.0272607 0
0.181839 -0.0270264 0
0.177853 -0.0267956 0
0.173867 -0.0265678 0
0.169881 -0.0263402 0
0.165894 -0.026119 0
0.161908 -0.0258978 0
0.157921 -0.02568 0
0.153934 -0.0254654 0
0.149947 -0.0252509 0
0.14596 -0.025043 0
0.141973 -0.0248352 0
0.137986 -0.0246308 0
0.133998 -0.0244298 0
0.13001 -0.0242288 0
0.126022 -0.024035 0
0.122035 -0.0238411 0
0.118046 -0.0236509 0
0.114058 -0.0234644 0
0.11007 -0.0232779 0
0.106081 -0.023099 0
0.102093 -0.0229202 0
0.0981038 -0.0227453 0
0.0941148 -0.0225747 0
0.0901258 -0.0224041 0
0.0861364 -0.022242 0
0.0821471 -0.0220801 0
0.0781575 -0.0219227 0
0.0741678 -0.0217703 0
0.0701781 -0.021618 0
0.0661879 -0.0214757 0
0.0621978 -0.0213339 0
0.0582075 -0.0211975 0
0.054217 -0.0210676 0
0.0502265 -0.0209377 0
0.0462355 -0.0208207 0
0.0422446 -0.0207045 0
0.0382534 -0.0205955 0
0.034262 -0.0204956 0
0.0302706 -0.0203957 0
0.0262788 -0.0203144 0
0.022287 -0.0202345 0
0.018295 -0.0201654 0
0.0143027 -0.0201109 0
0.0103104 -0.0200563 0
0.00631785 -0.0200329 0
0.00232526 -0.0200121 0
-0.00166732 -0.020011 0
-0.00565987 -0.0200372 0
-0.00965243 -0.0200635 0
-0.0136441 -0.0201487 0
-0.0176357 -0.0202396 0
-0.0216262 -0.0203639 0
-0.0256151 -0.0205369 0
-0.029604 -0.0207098 0
-0.0335881 -0.0209694 0
-0.0375717 -0.0212385 0
-0.041552 -0.0215481 0
-0.0455272 -0.0219207 0
-0.0495024 -0.0222934 0
-0.0534681 -0.0227556 0
-0.0574324 -0.0232306 0
-0.0613923 -0.0237386 0
-0.0653442 -0.0243073 0
-0.0692962 -0.0248759 0
-0.0732381 -0.0255098 0
-0.0771778 -0.0261578 0
-0.0811144 -0.0268235 0
-0.0850433 -0.0275341 0
-0.0889722 -0.0282446 0
-0.0928949 -0.0289889 0
-0.0968152 -0.029745 0
-0.100735 -0.0305068 0
-0.104649 -0.0312931 0
-0.108563 -0.0320794 0
-0.112475 -0.032878 0
-0.116386 -0.0336836 0
-0.120296 -0.0344893 0
-0.124207 -0.0352949 0
-0.128117 -0.0361005 0
-0.132028 -0.0369056 0
-0.135939 -0.0377103 0
-0.13985 -0.0385149 0
-0.143762 -0.0393092 0
-0.147675 -0.0401031 0
-0.15159 -0.0408904 0
-0.155506 -0.041668 0
-0.159422 -0.0424455 0
-0.163342 -0.0432056 0
-0.167262 -0.0439627 0
-0.171183 -0.0447127 0
-0.175108 -0.0454463 0
-0.179033 -0.0461799 0
-0.182961 -0.0468942 0
-0.18689 -0.0476022 0
-0.190821 -0.0483046 0
-0.194755 -0.0489856 0
-0.198689 -0.0496667 0
-0.202626 -0.0503294 0
-0.206565 -0.0509829 0
-0.210504 -0.0516328 0
-0.214448 -0.0522585 0
-0.218391 -0.0528841 0
-0.222337 -0.0534933 0
-0.226284 -0.0540912 0
-0.230232 -0.0546875 0
-0.234184 -0.0552582 0
-0.238136 -0.0558289 0
-0.242089 -0.0563854 0
-0.246045 -0.0569295 0
-0.25 -0.0535098 0
-0.25 -0.0495461 0
-0.25 -0.0455824 0
-0.25 -0.0416187 0
-0.25 -0.0376551 0
-0.25 -0.0336914 0
-0.25 -0.0297277 0
-0.25 -0.025764 0
-0.25 -0.0218003 0
-0.25 -0.0178366 0
-0.25 -0.0138729 0
-0.25 -0.00990922 0
-0.25 -0.00594553 0
-0.25 -0.00198184 0
-0.25 0.00198184 0
-0.25 0.00594553 0
-0.25 0.00990922 0
-0.25 0.0138729 0
-0.25 0.0178366 0
-0.25 0.0218003 0
-0.25 0.025764 0
-0.25 0.0297277 0
-0.25 0.0336914 0
-0.25 0.0376551 0
-0.25 0.0416187 0
-0.25 0.0455824 0
-0.25 0.0495461 0
-0.25 0.0535098 0
-0.246045 0.0569295 0.01
-0.242089 0.0563854 0.01
-0.238136 0.0558289 0.01
-0.234184 0.0552582 0.01
-0.230232 0.0546875 0.01
-0.226284 0.0540912 0.01
-0.222337 0.0534933 0.01
-0.218391 0.0528841 0.01
-0.214448 0.0522585 0.01
-0.210504 0.0516328 0.01
-0.206565 0.0509829 0.01
-0.202626 0.0503294 0.01
-0.198689 0.0496667 0.01
-0.194755 0.0489856 0.01
-0.190821 0.0483046 0.01
-0.18689 0.0476022 0.01
-0.182961 0.0468942 0.01
-0.179033 0.0461799 0.01
-0.175108 0.0454463 0.01
-0.171183 0.0447127 0.01
-0.167262 0.0439627 0.01
[...]
CELL_DATA 7657
SCALARS rho float
LOOKUP_TABLE default
0.547681
0.544061
0.501944
0.432408
0.503836
0.472395
0.492064
0.500921
0.533933
0.506381
0.50652
0.501097
0.520039
0.501012
0.50323
0.504635
0.50315
0.504797
0.504808
0.499943
0.502789
0.504952
0.541354
0.504804
0.504238
0.502013
0.432257
0.524154
0.505724
0.473198
0.476857
0.504232
0.540286
0.553915
0.551908
0.478658
0.473742
0.541103
0.534301
0.45235
0.501564
0.533091
0.450571
0.465072
0.501376
0.502454
0.49675
0.471629
0.504187
0.549622
0.463773
0.433023
0.505703
0.504578
0.49075
0.47617
0.502891
0.502524
0.562744
0.475099
0.504107
0.500793
0.503866
0.503786
0.506538
0.506638
0.520147
0.480441
0.505122
0.562884
0.502479
0.521239
0.444349
0.505761
0.555487
0.470308
0.504949
0.469332
0.557332
0.522863
0.540156
0.50076
0.500004
0.501745
0.502382
0.562535
0.502252
0.562816
0.50193
0.432947
0.506547
0.506665
0.562768
0.504758
0.456031
0.562606
0.562907
0.542336
0.500988
0.456015
0.504861
0.504754
0.54357
0.502492
0.498387
0.536306
0.464132
0.482659
0.523923
0.502524
0.476995
0.481704
0.459021
0.499994
0.503718
0.560634
0.483635
0.451176
0.507056
0.472127
0.506797
0.506708
0.463474
0.543413
0.500275
0.501012
0.501192
0.450516
0.478728
0.4521
0.431144
0.504981
0.476934
0.443136
0.499981
0.466619
0.504047
0.540298
0.505021
0.505005
0.464521
0.43425
0.449538
0.454321
0.504683
0.502606
0.539184
0.544636
0.500539
0.464154
0.446939
0.506065
0.549735
0.452042
0.50257
0.544028
0.480554
0.505002
0.499978
0.467748
0.505018
0.50256
0.50209
0.560343
0.498874
0.543606
0.531552
0.45816
0.5036
0.505533
0.501426
0.537263
0.504988
0.447765
0.481901
0.4803
0.439523
0.563099
0.500319
0.448435
0.454231
0.523053
0.504928
0.504886
0.518697
0.562642
0.529094
0.440722
0.501564
0.56345
0.505669
0.504913
0.499992
0.561887
0.501613
0.47801
0.499912
0.502626
0.480366
0.503199
0.504742
0.504801
0.563235
0.561983
0.432087
0.50468
0.525621
0.500016
0.55167
0.562607
0.494609
0.500524
0.498626
0.499994
0.50117
0.441201
0.485443
0.562293
0.481924
0.50311
0.544222
0.544794
0.506255
0.481257
0.526645
0.541047
0.525535
0.439653
0.468468
0.506398
0.497404
0.497581
0.522373
0.502752
0.508985
0.499959
0.562244
0.504746
0.504703
0.502708
0.494142
0.444011
0.562836
0.540291
0.558668
0.561967
0.52923
0.562574
0.531374
0.467343
0.47883
0.437766
0.483056
0.549904
0.48409
0.439942
0.544618
0.503456
0.505647
0.481555
0.542701
0.505884
0.508223
0.503585
0.487376
0.502216
0.561615
0.44309
0.504731
0.446715
0.515235
0.433703
0.434325
0.499942
0.55953
0.503738
0.456257
0.481606
0.480939
0.501399
0.542576
0.50297
0.43918
0.45933
0.437132
0.477268
0.459345
0.430872
0.550768
0.5043
0.503903
0.442518
0.438201
0.505941
0.482784
0.431698
0.531114
0.5007
0.560403
0.504018
0.562246
0.505298
0.445724
0.528356
0.432127
0.562701
0.488714
0.443888
0.504612
0.48247
0.501333
0.56128
0.50288
0.530621
0.50426
0.503103
0.505956
0.503923
0.481979
0.502891
0.455094
0.540911
0.505954
0.562492
0.50605
0.5037
0.529059
0.548913
0.502602
0.504206
0.536688
0.503833
0.507696
0.545797
0.500843
0.554172
0.482727
0.439634
0.504325
0.505724
0.501711
0.482135
0.546032
0.506835
0.499894
0.483632
0.505677
0.545306
0.502796
0.50247
0.473705
0.504966
0.499981
0.504976
0.489038
0.504441
0.504976
0.501684
0.504382
0.498392
0.486959
0.504912
0.502891
0.560819
0.50283
0.480769
0.501771
0.453773
0.562399
0.562036
0.474734
0.558154
0.500042
0.500194
0.523836
0.521076
0.504963
0.553827
0.504391
0.510599
0.499275
0.504674
0.434543
0.503793
0.505852
0.506056
0.553115
0.501172
0.501861
0.50255
0.487397
0.482971
0.482285
0.500134
0.502192
0.56232
0.485179
0.538097
0.502593
0.473538
0.499971
0.499992
0.504599
0.506087
0.454136
0.558122
0.503482
0.51392
0.502508
0.503197
0.504978
0.475129
0.503742
0.431816
0.564411
0.500212
0.501084
0.500722
0.431781
0.542571
0.54139
0.500783
0.503589
0.548156
0.544453
0.503898
0.563657
0.500416
0.448936
0.504704
0.559888
0.488474
0.546842
0.499927
0.502808
0.5131
0.505237
0.504971
0.505569
0.504757
0.471725
0.511165
0.472494
0.505802
0.501406
0.499416
0.494198
0.501821
0.50294
0.560405
0.504244
0.504399
0.488212
0.496462
0.527396
0.564494
0.493645
0.504029
0.505483
0.562937
0.544514
0.480122
0.504357
0.565055
0.548896
0.500178
0.535554
0.538003
0.490848
0.487449
0.504419
0.488834
0.557411
0.54531
0.502972
0.504842
0.502768
0.470808
0.461822
0.505702
0.561105
0.50574
0.504959
0.504973
0.499718
0.481157
0.441555
0.471681
0.505243
0.503561
0.502574
0.504038
0.501077
0.564873
0.501267
0.508785
0.432542
0.467998
0.554945
0.551015
0.500549
0.500622
0.559344
0.500477
0.562131
0.562409
0.547064
0.445636
0.560981
0.508952
0.440538
0.502976
0.50488
0.502782
0.50486
0.50034
0.519858
0.504948
0.527837
0.542222
0.504231
0.500074
0.500648
0.43061
0.50148
0.500471
0.506009
0.501928
0.506079
0.503898
0.48534
0.507792
0.500701
0.557334
0.500816
0.504845
0.501358
0.500833
0.48681
0.50452
0.499267
0.504838
0.559216
0.501202
0.502698
0.500115
0.504916
0.447112
0.474925
0.504938
0.506382
0.431753
0.557019
0.502142
0.525949
0.515094
0.455563
0.501352
0.53823
0.548007
0.511264
0.465583
0.500253
0.512241
0.504965
0.513743
0.506073
0.500109
0.478459
0.554029
0.565154
0.467102
0.504961
0.542756
0.564345
0.505065
0.500756
0.499895
0.501177
0.501099
0.528648
0.552558
0.564909
0.480914
0.504939
0.556409
0.503482
0.560501
0.505974
0.51098
0.501632
0.501014
0.500235
0.559181
0.564128
0.480826
0.481941
0.529787
0.499704
0.500953
0.565086
0.502889
0.481893
0.501692
0.500727
0.500929
0.502043
0.564634
0.483516
0.50307
0.501969
0.501034
0.501194
0.513772
0.50008
0.507881
0.499898
0.558804
0.5583
0.500922
0.472264
0.50531
0.505817
0.500263
0.500763
0.503613
0.543332
0.560378
0.560936
0.532595
0.504792
0.479814
0.505536
0.503547
0.452287
0.500411
0.557819
0.503956
0.504711
0.504811
0.504503
0.50484
0.504475
0.509288
0.43054
0.500158
0.50416
0.503445
0.552207
0.500889
0.511421
0.503373
0.502334
0.500308
0.499964
0.501475
0.43542
0.50488
0.50388
0.503968
0.461333
0.503264
0.506485
0.55898
0.503896
0.504991
0.558446
0.500817
0.503191
0.550465
0.500229
0.564468
0.556079
0.506375
0.434588
0.549966
0.54866
0.549336
0.499907
0.503088
0.499656
0.503794
0.551338
0.5011
0.500677
0.503014
0.48565
0.431727
0.533749
0.470833
0.56131
0.500827
0.501259
0.503709
0.504932
0.501269
0.500097
0.527472
0.503402
0.503276
0.503306
0.50496
0.528489
0.537952
0.503086
0.457009
0.502908
0.53105
0.502832
0.500385
0.500319
0.435443
0.500879
0.505158
0.504978
0.510137
0.504166
0.505928
0.564322
0.556892
0.455531
0.550732
0.500398
0.5004
0.504139
0.503628
0.502275
0.505014
0.475511
0.563922
0.504126
0.504917
0.453984
0.554017
0.501323
0.559647
0.538405
0.556529
0.500356
0.503975
0.503711
0.547865
0.504822
0.563914
0.486859
0.500436
0.538595
0.536048
0.462347
0.502196
0.505054
0.511174
0.503583
0.522223
0.506081
0.5031
0.504896
0.453132
0.504264
0.504579
0.546199
0.505021
0.500145
0.504131
0.503843
0.500638
0.4838
0.536189
0.503812
0.50111
0.504966
0.504949
0.512297
0.534287
0.505054
0.501237
0.514274
0.503939
0.50496
0.495206
0.455564
0.503796
0.451586
0.500449
0.500039
0.499994
0.50501
0.446326
0.564117
0.504878
0.558666
0.501603
0.501522
0.503538
0.500864
0.506319
0.500529
0.563582
0.552199
0.555444
0.504578
0.467125
0.512785
0.501299
0.553754
0.564344
0.564453
0.462662
0.504718
0.500868
0.563431
0.52588
0.514275
0.45999
0.5048
0.504354
0.500006
0.458506
0.500462
0.502594
0.500005
0.541698
0.500042
0.500212
0.498404
0.564965
0.501362
0.453033
0.559873
0.509674
0.500314
0.501548
0.451566
0.501935
0.500273
0.483603
0.516328
0.500002
0.504001
0.504046
0.500204
0.5025
0.504209
0.50595
0.505491
0.503896
0.502885
0.563262
0.564125
0.452262
0.504162
0.505639
0.467094
0.53514
0.454429
0.50327
0.560066
0.504641
0.560135
0.502431
0.502952
0.500208
0.502315
0.503066
0.453913
0.503436
0.500287
0.463922
0.503372
0.50163
0.535096
0.505549
0.515701
0.501738
0.50322
0.453016
0.46242
0.504706
0.504056
0.500681
0.504449
0.501356
0.562236
0.501536
0.5328
0.531175
0.534773
0.500774
0.501007
0.504485
0.523078
0.503358
0.46133
0.503343
0.504207
0.503525
0.50413
0.502569
0.503168
0.564793
0.502812
0.503352
0.50508
0.500332
0.504424
0.442077
0.503179
0.439663
0.563787
0.488522
0.464011
0.448718
0.465559
0.561969
0.56198
0.503999
0.50121
0.502996
0.501288
0.5393
0.564612
0.50012
0.501452
0.504395
0.501666
0.562816
0.456059
0.50276
0.561882
0.561928
0.520212
0.504708
0.501398
0.501562
0.43852
0.564049
0.564132
0.500412
0.458536
0.461363
0.514186
0.454657
0.504802
0.49993
0.5006
0.504978
0.457611
0.450079
0.500195
0.501441
0.500702
0.440842
0.522984
0.523012
0.524551
0.501688
0.468665
0.549389
0.501175
0.476858
0.504048
0.502207
0.501425
0.500774
0.481019
0.465354
0.500261
0.448705
0.563039
0.501651
0.503592
0.546865
0.53963
0.503582
0.500071
0.561123
0.434501
0.503354
0.500695
0.467723
0.478458
0.500138
0.502469
0.501618
0.501462
0.503531
0.50345
0.500199
0.502354
0.504721
0.437431
0.456141
0.502526
0.483494
0.50006
0.564882
0.504991
0.504881
0.554914
0.553314
0.500139
0.501412
0.49993
0.556909
0.502255
0.501872
0.503742
0.500152
0.45463
0.500122
0.50322
0.501954
0.50373
0.517192
0.505448
0.501251
0.501406
0.520095
0.520076
0.537542
0.50144
0.502143
0.500033
0.499766
0.503369
0.476778
0.442026
0.504836
0.501852
0.502273
0.486865
0.502998
0.496773
0.470317
0.50041
0.50554
0.503066
0.504159
0.50322
0.50324
0.499217
0.503936
0.504789
0.499934
0.501656
0.504792
0.517217
0.499818
0.551412
0.545082
0.50492
0.435064
0.466531
0.503923
0.504388
0.500469
0.50234
0.503988
0.502163
0.500678
0.495106
0.43454
0.504922
0.50449
0.52841
0.501088
0.479224
0.542147
0.500847
0.459917
0.504659
0.500148
0.504888
0.500109
0.501545
0.503889
0.500839
0.501607
0.503746
0.505522
0.50309
0.548855
0.468933
0.503828
0.485097
0.502358
0.564505
0.435406
0.504608
0.563764
0.560126
0.501529
0.47005
0.500153
0.49835
0.45914
0.496655
0.500071
0.501908
0.557919
0.558711
0.454471
0.502115
0.501441
0.50245
0.478489
0.45309
0.500765
0.507254
0.505358
0.502042
0.500928
0.438524
0.501589
0.479197
0.43641
0.500484
0.502816
0.49474
0.499993
0.447303
0.500549
0.504245
0.554689
0.501943
0.552879
0.500065
0.504101
0.500227
0.505144
0.502054
0.434479
0.500361
0.500737
0.502072
0.502659
0.502453
0.541684
0.500907
0.502052
0.500854
0.475179
0.505601
0.500229
0.501785
0.456005
0.475173
0.501775
0.483534
0.465267
0.460745
0.524299
0.524284
0.466563
0.464043
0.502909
0.47193
0.505435
0.503064
0.504808
0.500196
0.488474
0.501372
0.500436
0.501309
0.462291
0.500208
0.504392
0.500991
0.501278
0.56259
0.500142
0.478464
0.485247
0.562427
0.562417
0.500321
0.504527
0.478503
0.501178
0.505271
0.500176
0.50008
0.50491
0.504871
0.505524
0.564012
0.435763
0.493481
0.500423
0.475208
0.50147
0.495057
0.485997
0.500271
0.503148
0.500919
0.500748
0.504659
0.504693
0.511258
0.505393
0.435425
0.504495
0.50147
0.500214
0.502534
0.500071
0.502054
0.504922
0.504883
0.486666
0.502487
0.471193
0.502524
0.500624
0.500577
0.438493
0.505221
0.50226
0.530062
0.500509
0.490077
0.456055
0.502813
0.50235
0.491802
0.480142
0.515722
0.468637
0.55338
0.50332
0.549239
0.556855
0.503149
0.504743
0.504702
0.433688
0.503325
0.50012
0.500244
0.467029
0.504795
0.501205
0.533518
0.485128
0.500849
0.5035
0.500963
0.500222
0.500499
0.500135
0.503706
0.504314
0.503656
0.49471
0.504723
0.50228
0.502342
0.503083
0.481878
0.501006
0.504375
0.504441
0.50212
0.500587
0.502025
0.505679
0.50074
0.504995
0.501332
0.502248
0.502075
0.44748
0.502144
0.447587
0.502096
0.50456
0.488411
0.536287
0.500186
0.500195
0.50018
0.500291
0.480988
0.500106
0.500506
0.505347
0.49065
0.490738
0.517061
0.500155
0.503176
0.500378
0.47433
0.500055
0.500542
0.502813
0.502361
0.500296
0.563194
0.561751
0.478258
0.500517
0.501326
0.500225
0.458461
0.45689
0.456977
0.504801
0.501221
0.500687
0.500351
0.500015
0.504709
0.430593
0.504743
0.504917
0.500203
0.512769
0.500948
0.480051
0.500374
0.494145
0.494176
0.502055
0.502283
0.500778
0.474018
0.505033
0.500087
0.453138
0.501917
0.50546
0.502146
0.504863
0.488402
0.518711
0.521682
0.501731
0.502109
0.500661
0.504458
0.504973
0.504426
0.500125
0.504497
0.503895
0.504381
0.504951
0.500323
0.504806
0.500752
0.442052
0.50457
0.502798
0.502249
0.502292
0.501063
0.505015
0.501164
0.500342
0.501008
0.437408
0.504447
0.500471
0.500504
0.500656
0.50028
0.500446
0.500933
0.511121
0.491877
0.491945
0.500586
0.501166
0.500457
0.502404
0.49507
0.501084
0.503676
0.50026
0.50321
0.438384
0.50231
0.501975
0.465477
0.50505
0.500735
0.504812
0.500829
0.45072
0.503922
0.473523
0.47352
0.450714
0.450721
0.503896
0.501324
0.505487
0.505609
0.447461
0.500528
0.500185
0.474354
0.546758
0.502991
0.481821
0.501148
0.501329
0.544459
0.456043
0.435423
0.472257
0.500349
0.500349
0.500437
0.500421
0.50525
0.502181
0.502007
0.501835
0.500562
0.502358
0.500524
0.501091
0.494183
0.502686
0.56118
0.504506
0.500864
0.501246
0.500359
0.501308
0.498746
0.501531
0.5022
0.504967
0.500991
0.501448
0.502072
0.505429
0.501768
0.555579
0.50213
0.552351
0.553503
0.504658
0.501589
0.500171
0.502244
0.457627
0.500619
0.50215
0.501593
0.505387
0.501855
0.501515
0.491769
0.505426
0.502291
0.502117
0.488037
0.487975
0.50221
0.493374
0.504835
0.501158
0.504984
0.537694
0.500835
0.5015
0.439622
0.480076
0.502097
0.496673
0.44201
0.50551
0.444613
0.506218
0.50611
0.504728
0.44589
0.503059
0.504721
0.501354
0.50513
0.503815
0.500943
0.500168
0.558347
0.433674
0.491755
0.505763
0.470022
0.501826
0.495006
0.432248
0.432927
0.50162
0.554118
0.445955
0.430865
0.502706
0.505057
0.500492
0.560608
0.501997
0.441068
0.506094
0.505984
0.502231
0.50109
0.502287
0.500916
0.4312
0.503782
0.503739
0.502322
0.505533
0.500738
0.504957
0.505201
0.500642
0.444597
0.500082
0.500105
0.46227
0.481779
0.48008
0.476359
0.501729
0.502204
0.553035
0.501626
0.501908
0.501632
0.502713
0.501605
0.505484
0.504837
0.505585
0.450122
0.559857
0.502275
0.445788
0.445835
0.502123
0.50402
0.502778
0.501338
0.501762
0.502081
0.504644
0.504684
0.501337
0.501431
0.500597
0.505326
0.45693
0.501703
0.502544
0.501546
0.458436
0.45837
0.500605
0.500994
0.5021
0.500482
0.501526
0.504237
0.500572
0.473257
0.505252
0.462722
0.462632
0.501488
0.503397
0.500904
0.502426
0.489984
0.490089
0.480919
0.49467
0.494695
0.480169
0.502943
0.505023
0.474443
0.502453
0.50167
0.539002
0.502537
0.499835
0.499836
0.504262
0.50432
0.504465
0.50125
0.502168
0.504827
0.504914
0.505294
0.502606
0.504909
0.508797
0.501927
0.496203
0.496159
0.504489
0.502269
0.504387
0.502871
0.502887
0.501487
0.502722
0.504983
0.500122
0.504431
0.456101
0.501243
0.562448
0.50543
0.501756
0.551875
0.502564
0.505724
0.505667
0.505567
0.500298
0.504148
0.502526
0.504634
0.505784
0.54272
0.502189
0.503715
0.504964
0.501763
0.500814
0.500606
0.540492
0.500193
0.500203
0.505369
0.463923
0.465427
0.502387
0.500368
0.503743
0.502434
0.502928
0.502171
0.502144
0.502199
0.500264
0.504583
0.505214
0.500392
0.502461
0.486815
0.49016
0.503424
0.502875
0.474467
0.559046
0.447276
0.504417
0.505725
0.500515
0.505195
0.505762
0.503025
0.501657
0.45915
0.503758
0.504711
0.564309
0.515671
0.504502
0.502165
0.504368
0.476868
0.502077
0.465426
0.504939
0.502582
0.505632
0.46225
0.462237
0.500719
0.498337
0.502079
0.503732
0.502661
0.501819
0.450095
0.502702
0.503189
0.500427
0.504416
0.503879
0.503744
0.501786
0.496208
0.501412
0.503998
0.502201
0.505635
0.501826
0.520821
0.502606
0.501019
0.502494
0.49246
0.492504
0.503588
0.502663
0.505203
0.50347
0.503492
0.50536
0.505585
0.547476
0.500997
0.504203
0.505221
0.5043
0.500829
0.502521
0.501723
0.505017
0.501801
0.502394
0.487249
0.487325
0.505613
0.50552
0.506521
0.505067
0.50393
0.500239
0.502635
0.50324
0.502831
0.504053
0.500287
0.503624
0.505504
0.503005
0.555555
0.503814
0.504332
0.502167
0.505294
0.478339
0.5025
0.519195
0.502098
0.50529
0.505307
0.550944
0.502566
0.50202
0.502788
0.503797
0.506223
0.505526
0.434486
0.468847
0.502542
0.504639
0.502679
0.478231
0.502246
0.503057
0.50434
0.505147
0.452289
0.45229
0.50022
0.504998
0.504787
0.430547
0.503838
0.504289
0.551377
0.501811
0.439537
0.505073
0.503815
0.430835
0.503653
0.504167
0.502079
0.50283
0.500535
0.505463
0.505759
0.502445
0.502451
0.504031
0.50353
0.505545
0.500286
0.505326
0.502236
0.477339
0.503714
0.502118
0.500636
0.503402
0.436775
0.502179
0.504104
0.502729
0.504504
0.505437
0.538874
0.504761
0.504344
0.501714
0.500136
0.504792
0.500151
0.50534
0.502469
0.503726
0.505242
0.503588
0.503153
0.504302
0.501075
0.505438
0.521714
0.503823
0.517221
0.505185
0.502795
0.502172
0.505475
0.502492
0.501735
0.463976
0.463944
0.502007
0.501285
0.50552
0.440837
0.443328
0.504653
0.504488
0.503804
0.505262
0.503484
0.50116
0.502052
0.50518
0.503772
0.475449
0.504
0.503709
0.501664
0.505575
0.473583
0.493461
0.50462
0.505021
0.50505
0.476331
0.502409
0.504039
0.503632
0.558012
0.556897
0.505364
0.502625
0.505113
0.448976
0.496666
0.496628
0.503152
0.475391
0.503342
0.502945
0.502264
0.50212
0.502739
0.544401
0.505145
0.50409
0.436403
0.502927
0.504053
0.50444
0.502884
0.502498
0.504262
0.502182
0.503076
0.503094
0.557296
0.50234
0.505403
0.503534
0.501685
0.504943
0.502864
0.552816
0.50454
0.502294
0.502355
0.502718
0.502117
0.500676
0.502227
0.5023
0.505362
0.502628
0.501163
0.502524
0.502263
0.502541
0.503497
0.502135
0.504515
0.504496
0.502487
0.503635
0.502927
0.50484
0.50226
0.504994
0.502168
0.505016
0.505395
0.504178
0.503461
0.50459
0.503337
0.503418
0.539036
0.504244
0.503428
0.502188
0.502407
0.5035
0.504264
0.503656
0.500901
0.501385
0.50414
0.504053
0.503759
0.502019
0.505102
0.502652
0.504448
0.502732
0.501715
0.503524
0.502257
0.503943
0.503725
0.502633
0.504073
0.501907
0.503891
0.503242
0.502969
0.502382
0.502632
0.502036
0.50285
0.502449
0.504093
0.502363
0.502982
0.502653
0.502023
0.503757
0.505552
0.504996
0.505467
0.503181
0.504364
0.542085
0.502173
0.463886
0.460718
0.500263
0.503074
0.50213
0.502498
0.503928
0.50425
0.505642
0.50238
0.503954
0.502195
0.502094
0.50363
0.50386
0.503766
0.503554
0.502836
0.501948
0.502334
0.504298
0.504379
0.501405
0.480254
0.503417
0.503155
0.504107
0.502899
0.504288
0.50247
0.501378
0.502246
0.516963
0.510107
0.50198
0.50209
0.502322
0.502132
0.531055
0.505585
0.503831
0.502127
0.529223
0.502062
0.549437
0.502814
0.505122
0.502481
0.500412
0.505255
0.542557
0.500141
0.504499
0.504049
0.504708
0.502131
0.539484
0.501279
0.505483
0.557859
0.501944
0.503153
0.502444
0.502777
0.502083
0.505158
0.502127
0.49018
0.503282
0.502632
0.502974
0.501898
0.528411
0.502035
0.50535
0.502011
0.502344
0.502151
0.505404
0.501865
0.558323
0.50209
0.502109
0.476915
0.555996
0.502251
0.503645
0.504959
0.502047
0.503152
0.50415
0.502888
0.502035
0.501074
0.559237
0.501856
0.502027
0.503032
0.502408
0.503463
0.502609
0.560258
0.505437
0.501521
0.502101
0.501991
0.505569
0.503888
0.503924
0.502137
0.505103
0.505275
0.502012
0.557879
0.503471
0.503238
0.502186
0.502649
0.501614
0.502404
0.502134
0.504464
0.504943
0.5597
0.504668
0.502812
0.502996
0.502138
0.50216
0.505236
0.504426
0.551695
0.503082
0.504762
0.502977
0.50214
0.503171
0.503202
0.503196
0.5021
0.502153
0.504784
0.556824
0.523236
0.515732
0.502061
0.560934
0.502209
0.439635
0.443337
0.504656
0.502242
0.557376
0.502415
0.502179
0.502674
0.503921
0.502314
0.50314
0.561364
0.500658
0.49176
0.504557
0.503816
0.502888
0.502234
0.50297
0.503631
0.55893
0.501695
0.556669
0.558605
0.503281
0.562228
0.47542
0.561795
0.502117
0.501312
0.504615
0.501516
0.504042
0.561411
0.503334
0.437441
0.503864
0.502147
0.504412
0.500699
0.502238
0.502155
0.502067
0.504912
0.503444
0.504939
0.503263
0.552976
0.505354
0.502055
0.501421
0.502355
0.504107
0.561967
0.50336
0.539101
0.503333
0.504108
0.50464
0.557317
0.504013
0.502178
0.504996
0.502074
0.504398
0.504025
0.504548
0.504649
0.558543
0.504429
0.503444
0.504535
0.502049
0.503554
0.504357
0.546056
0.502344
0.460728
0.465468
0.562227
0.562257
0.502413
0.507574
0.503178
0.504433
0.547608
0.54759
0.562237
0.504929
0.481954
0.502647
0.502172
0.502174
0.502764
0.503238
0.562176
0.503266
0.50476
0.501857
0.50458
0.503916
0.502789
0.503983
0.503945
0.503962
0.503351
0.51214
0.560643
0.502191
0.556094
0.503731