# vtk DataFile Version 1.0
unstructured grid
ascii
DATASET UNSTRUCTURED_GRID
points 8094 float
-0.25 0.0574735 0
0.5 0.0546937 0
0.5 -0.0546937 0
-0.25 -0.0574735 0
-0.25 0.0574735 0.01
0.5 0.0546937 0.01
0.5 -0.0546937 0.01
-0.25 -0.0574735 0.01
-0.246045 0.0569295 0
-0.242089 0.0563854 0
-0.238136 0.0558289 0
-0.234184 0.0552582 0
-0.230232 0.0546875 0
-0.226284 0.0540912 0
-0.222337 0.0534933 0
-0.218391 0.0528841 0
-0.214448 0.0522585 0
-0.210504 0.0516328 0
-0.206565 0.0509829 0
-0.202626 0.0503294 0
-0.198689 0.0496667 0
-0.194755 0.0489856 0
-0.190821 0.0483046 0
-0.18689 0.0476022 0
-0.182961 0.0468942 0
-0.179033 0.0461799 0
-0.175108 0.0454463 0
-0.171183 0.0447127 0
-0.167262 0.0439627 0
-0.163342 0.0432056 0
-0.159422 0.0424455 0
-0.155506 0.041668 0
-0.15159 0.0408904 0
-0.147675 0.0401031 0
-0.143762 0.0393092 0
-0.13985 0.0385149 0
-0.135939 0.0377103 0
-0.132028 0.0369056 0
-0.128117 0.0361005 0
-0.124207 0.0352949 0
-0.120296 0.0344893 0
-0.116386 0.0336836 0
-0.112475 0.032878 0
-0.108563 0.0320794 0
-0.104649 0.0312931 0
-0.100735 0.0305068 0
-0.0968152 0.029745 0
-0.0928949 0.0289889 0
-0.0889722 0.0282446 0
-0.0850433 0.0275341 0
-0.0811144 0.0268235 0
-0.0771778 0.0261578 0
-0.0732381 0.0255098 0
-0.0692962 0.0248759 0
-0.0653442 0.0243073 0
-0.0613923 0.0237386 0
-0.0574324 0.0232306 0
-0.0534681 0.0227556 0
-0.0495024 0.0222934 0
-0.0455272 0.0219207 0
-0.041552 0.0215481 0
-0.0375717 0.0212385 0
-0.0335881 0.0209694 0
-0.029604 0.0207098 0
-0.0256151 0.0205369 0
-0.0216262 0.0203639 0
-0.0176357 0.0202396 0
-0.0136441 0.0201487 0
-0.00965243 0.0200635 0
-0.00565987 0.0200372 0
-0.00166732 0.020011 0
0.00232526 0.0200121 0
0.00631785 0.0200329 0
0.0103104 0.0200563 0
0.0143027 0.0201109 0
0.018295 0.0201654 0
0.022287 0.0202345 0
0.0262788 0.0203144 0
0.0302706 0.0203957 0
0.034262 0.0204956 0
0.0382534 0.0205955 0
0.0422446 0.0207045 0
0.0462355 0.0208207 0
0.0502265 0.0209377 0
0.054217 0.0210676 0
0.0582075 0.0211975 0
0.0621978 0.0213339 0
0.0661879 0.0214757 0
0.0701781 0.021618 0
0.0741678 0.0217703 0
0.0781575 0.0219227 0
0.0821471 0.0220801 0
0.0861364 0.022242 0
0.0901258 0.0224041 0
0.0941148 0.0225747 0
0.0981038 0.0227453 0
0.102093 0.0229202 0
0.106081 0.023099 0
0.11007 0.0232779 0
0.114058 0.0234644 0
0.118046 0.0236509 0
0.122035 0.0238411 0
0.126022 0.024035 0
0.13001 0.0242288 0
0.133998 0.0244298 0
0.137986 0.0246308 0
0.141973 0.0248352 0
0.14596 0.025043 0
0.149947 0.0252509 0
0.153934 0.0254654 0
0.157921 0.02568 0
0.161908 0.0258978 0
0.165894 0.026119 0
0.169881 0.0263402 0
0.173867 0.0265678 0
0.177853 0.0267956 0
0.181839 0.0270264 0
0.185825 0.0272607 0
0.189811 0.0274951 0
0.193796 0.0277356 0
0.197781 0.0279764 0
0.201767 0.02822 0
0.205752 0.0284673 0
0.209737 0.0287146 0
0.213721 0.0289679 0
0.217706 0.0292217 0
0.22169 0.0294782 0
0.225674 0.0297385 0
0.229658 0.0299988 0
0.233642 0.0302651 0
0.237626 0.0305319 0
0.241609 0.0308014 0
0.245593 0.0310748 0
0.249576 0.0313482 0
0.253559 0.0316276 0
0.257542 0.0319077 0
0.261524 0.0321904 0
0.265507 0.0324772 0
0.269489 0.032764 0
0.273471 0.0330568 0
0.277453 0.0333504 0
0.281434 0.0336466 0
0.285416 0.0339471 0
0.289397 0.0342476 0
0.293378 0.034554 0
0.297359 0.0348615 0
0.301339 0.0351714 0
0.305319 0.0354859 0
0.3093 0.0358005 0
0.313279 0.036121 0
0.317259 0.0364427 0
0.321239 0.0367667 0
0.325218 0.0370957 0
0.329197 0.0374248 0
0.333175 0.0377597 0
0.337154 0.0380961 0
0.341132 0.0384347 0
0.34511 0.0387786 0
0.349088 0.0391226 0
0.353065 0.0394724 0
0.357042 0.0398239 0
0.361019 0.0401775 0
0.364995 0.0405368 0
0.368972 0.0408961 0
0.372948 0.0412613 0
0.376924 0.0416285 0
0.380899 0.0419975 0
0.384874 0.0423727 0
0.388849 0.0427479 0
0.392823 0.0431289 0
0.396798 0.0435123 0
0.400772 0.0438973 0
0.404745 0.044289 0
0.408718 0.0446807 0
0.412691 0.0450781 0
0.416664 0.0454782 0
0.420636 0.0458797 0
0.424608 0.0462883 0
0.42858 0.046697 0
0.432551 0.0471114 0
0.436521 0.0475289 0
0.440492 0.0479474 0
0.444462 0.0483738 0
0.448432 0.0488001 0
0.452401 0.0492319 0
0.45637 0.0496673 0
0.460338 0.0501035 0
0.464306 0.0505482 0
0.468274 0.0509928 0
0.472241 0.0514427 0
0.476208 0.0518968 0
0.480175 0.0523512 0
0.48414 0.0528148 0
0.488106 0.0532784 0
0.492071 0.0537471 0
0.496036 0.0542204 0
0.5 0.050787 0
0.5 0.0468803 0
0.5 0.0429736 0
0.5 0.0390669 0
0.5 0.0351602 0
0.5 0.0312535 0
0.5 0.0273468 0
0.5 0.0234402 0
0.5 0.0195335 0
0.5 0.0156268 0
0.5 0.0117201 0
0.5 0.00781339 0
0.5 0.00390669 0
0.5 1.43781e-13 0
0.5 -0.00390669 0
0.5 -0.00781339 0
0.5 -0.0117201 0
0.5 -0.0156268 0
0.5 -0.0195335 0
0.5 -0.0234402 0
0.5 -0.0273468 0
0.5 -0.0312535 0
0.5 -0.0351602 0
0.5 -0.0390669 0
0.5 -0.0429736 0
0.5 -0.0468803 0
0.5 -0.050787 0
0.496036 -0.0542204 0
0.492071 -0.0537471 0
0.488106 -0.0532784 0
0.48414 -0.0528148 0
0.480175 -0.0523512 0
0.476208 -0.0518968 0
0.472241 -0.0514427 0
0.468274 -0.0509928 0
0.464306 -0.0505482 0
0.460338 -0.0501035 0
0.45637 -0.0496673 0
0.452401 -0.0492319 0
0.448432 -0.0488001 0
0.444462 -0.0483738 0
0.440492 -0.0479474 0
0.436521 -0.0475289 0
0.432551 -0.0471114 0
0.42858 -0.046697 0
0.424608 -0.0462883 0
0.420636 -0.0458797 0
0.416664 -0.0454782 0
0.412691 -0.0450781 0
0.408718 -0.0446807 0
0.404745 -0.044289 0
0.400772 -0.0438973 0
0.396798 -0.0435123 0
0.392823 -0.0431289 0
0.388849 -0.0427479 0
0.384874 -0.0423727 0
0.380899 -0.0419975 0
0.376924 -0.0416285 0
0.372948 -0.0412613 0
0.368972 -0.0408961 0
0.364995 -0.0405368 0
0.361019 -0.0401775 0
0.357042 -0.0398239 0
0.353065 -0.0394724 0
0.349088 -0.0391226 0
0.34511 -0.0387786 0
0.341132 -0.0384347 0
0.337154 -0.0380961 0
0.333175 -0.0377597 0
0.329197 -0.0374248 0
0.325218 -0.0370957 0
0.321239 -0.0367667 0
0.317259 -0.0364427 0
0.313279 -0.036121 0
0.3093 -0.0358005 0
0.305319 -0.0354859 0
0.301339 -0.0351714 0
0.297359 -0.0348615 0
0.293378 -0.034554 0
0.289397 -0.0342476 0
0.285416 -0.0339471 0
0.281434 -0.0336466 0
0.277453 -0.0333504 0
0.273471 -0.0330568 0
0.269489 -0.032764 0
0.265507 -0.0324772 0
0.261524 -0.0321904 0
0.257542 -0.0319077 0
0.253559 -0.0316276 0
0.249576 -0.0313482 0
0.245593 -0.0310748 0
0.241609 -0.0308014 0
0.237626 -0.0305319 0
0.233642 -0.0302651 0
0.229658 -0.0299988 0
0.225674 -0.0297385 0
0.22169 -0.0294782 0
0.217706 -0.0292217 0
0.213721 -0.0289679 0
0.209737 -0.0287146 0
0.205752 -0.0284673 0
0.201767 -0.02822 0
0.197781 -0.0279764 0
0.193796 -0.0277356 0
0.189811 -0.0274951 0
0.185825 -0.0272607 0
0.181839 -0.0270264 0
0.177853 -0.0267956 0
0.173867 -0.0265678 0
0.169881 -0.0263402 0
0.165894 -0.026119 0
0.161908 -0.0258978 0
0.157921 -0.02568 0
0.153934 -0.0254654 0
0.149947 -0.0252509 0
0.14596 -0.025043 0
0.141973 -0.0248352 0
0.137986 -0.0246308 0
0.133998 -0.0244298 0
0.13001 -0.0242288 0
0.126022 -0.024035 0
0.122035 -0.0238411 0
0.118046 -0.0236509 0
0.114058 -0.0234644 0
0.11007 -0.0232779 0
0.106081 -0.023099 0
0.102093 -0.0229202 0
0.0981038 -0.0227453 0
0.0941148 -0.0225747 0
0.0901258 -0.0224041 0
0.0861364 -0.022242 0
0.0821471 -0.0220801 0
0.0781575 -0.0219227 0
0.0741678 -0.0217703 0
0.0701781 -0.021618 0
0.0661879 -0.0214757 0
0.0621978 -0.0213339 0
0.0582075 -0.0211975 0
0.054217 -0.0210676 0
0.0502265 -0.0209377 0
0.0462355 -0.0208207 0
0.0422446 -0.0207045 0
0.0382534 -0.0205955 0
0.034262 -0.0204956 0
0.0302706 -0.0203957 0
0.0262788 -0.0203144 0
0.022287 -0.0202345 0
0.018295 -0.0201654 0
0.0143027 -0.0201109 0
0.0103104 -0.0200563 0
0.00631785 -0.0200329 0
0.00232526 -0.0200121 0
-0.00166732 -0.020011 0
-0.00565987 -0.0200372 0
-0.00965243 -0.0200635 0
-0.0136441 -0.0201487 0
-0.0176357 -0.0202396 0
-0.0216262 -0.0203639 0
-0.0256151 -0.0205369 0
-0.029604 -0.0207098 0
-0.0335881 -0.0209694 0
-0.0375717 -0.0212385 0
-0.041552 -0.0215481 0
-0.0455272 -0.0219207 0
-0.0495024 -0.0222934 0
-0.0534681 -0.0227556 0
-0.0574324 -0.0232306 0
-0.0613923 -0.0237386 0
-0.0653442 -0.0243073 0
-0.0692962 -0.0248759 0
-0.0732381 -0.0255098 0
-0.0771778 -0.0261578 0
-0.0811144 -0.0268235 0
-0.0850433 -0.0275341 0
-0.0889722 -0.0282446 0
-0.0928949 -0.0289889 0
-0.0968152 -0.029745 0
-0.100735 -0.0305068 0
-0.104649 -0.0312931 0
-0.108563 -0.0320794 0
-0.112475 -0.032878 0
-0.116386 -0.0336836 0
-0.120296 -0.0344893 0
-0.124207 -0.0352949 0
-0.128117 -0.0361005 0
-0.132028 -0.0369056 0
-0.135939 -0.0377103 0
-0.13985 -0.0385149 0
-0.143762 -0.0393092 0
-0.147675 -0.0401031 0
-0.15159 -0.0408904 0
-0.155506 -0.041668 0
-0.159422 -0.0424455 0
-0.163342 -0.0432056 0
-0.167262 -0.0439627 0
-0.171183 -0.0447127 0
-0.175108 -0.0454463 0
-0.179033 -0.0461799 0
-0.182961 -0.0468942 0
-0.18689 -0.0476022 0
-0.190821 -0.0483046 0
-0.194755 -0.0489856 0
-0.198689 -0.0496667 0
-0.202626 -0.0503294 0
-0.206565 -0.0509829 0
-0.210504 -0.0516328 0
-0.214448 -0.0522585 0
-0.218391 -0.0528841 0
-0.222337 -0.0534933 0
-0.226284 -0.0540912 0
-0.230232 -0.0546875 0
-0.234184 -0.0552582 0
-0.238136 -0.0558289 0
-0.242089 -0.0563854 0
-0.246045 -0.0569295 0
-0.25 -0.0535098 0
-0.25 -0.0495461 0
-0.25 -0.0455824 0
-0.25 -0.0416187 0
-0.25 -0.0376551 0
-0.25 -0.0336914 0
-0.25 -0.0297277 0
-0.25 -0.025764 0
-0.25 -0.0218003 0
-0.25 -0.0178366 0
-0.25 -0.0138729 0
-0.25 -0.00990922 0
-0.25 -0.00594553 0
-0.25 -0.00198184 0
-0.25 0.00198184 0
-0.25 0.00594553 0
-0.25 0.00990922 0
-0.25 0.0138729 0
-0.25 0.0178366 0
-0.25 0.0218003 0
-0.25 0.025764 0
-0.25 0.0297277 0
-0.25 0.0336914 0
-0.25 0.0376551 0
-0.25 0.0416187 0
-0.25 0.0455824 0
-0.25 0.0495461 0
-0.25 0.0535098 0
-0.246045 0.0569295 0.01
-0.242089 0.0563854 0.01
-0.238136 0.0558289 0.01
-0.234184 0.0552582 0.01
-0.230232 0.0546875 0.01
-0.226284 0.0540912 0.01
-0.222337 0.0534933 0.01
-0.218391 0.0528841 0.01
-0.214448 0.0522585 0.01
-0.210504 0.0516328 0.01
-0.206565 0.0509829 0.01
-0.202626 0.0503294 0.01
-0.198689 0.0496667 0.01
-0.194755 0.0489856 0.01
-0.190821 0.0483046 0.01
-0.18689 0.0476022 0.01
-0.182961 0.0468942 0.01
-0.179033 0.0461799 0.01
-0.175108 0.0454463 0.01
-0.171183 0.0447127 0.01
-0.167262 0.0439627 0.01
[...]
CELL_DATA 7657
SCALARS rho float
LOOKUP_TABLE default
0.474926
0.399363
0.444399
0.408481
0.496279
0.41647
0.383774
0.494483
0.385916
0.502255
0.502305
0.493874
0.380708
0.494085
0.495028
0.487344
0.494835
0.473246
0.472138
0.498208
0.493748
0.47484
0.395261
0.471083
0.486254
0.49083
0.4043
0.381673
0.499773
0.416775
0.38794
0.48628
0.393886
0.472914
0.473389
0.38731
0.416711
0.395034
0.478099
0.396061
0.441858
0.38562
0.412867
0.415426
0.440373
0.447697
0.382304
0.416386
0.486671
0.474487
0.41514
0.408719
0.499865
0.50038
0.383997
0.417241
0.494174
0.491261
0.452763
0.38858
0.486836
0.437584
0.48701
0.487177
0.502753
0.502762
0.380579
0.41793
0.501457
0.449558
0.447083
0.381015
0.411816
0.49992
0.471725
0.416115
0.473787
0.415982
0.471179
0.380543
0.39323
0.494992
0.498089
0.442968
0.445618
0.456757
0.44575
0.44869
0.491156
0.40392
0.50276
0.502789
0.454114
0.500992
0.394694
0.458977
0.457917
0.39703
0.438752
0.39466
0.47431
0.48487
0.398777
0.493153
0.381835
0.389443
0.391858
0.418332
0.380993
0.493017
0.387848
0.41815
0.414359
0.49805
0.458274
0.440472
0.418591
0.396325
0.486452
0.416538
0.503318
0.503307
0.392109
0.396567
0.496794
0.494075
0.493608
0.412933
0.41763
0.413198
0.407875
0.480456
0.417327
0.41166
0.498146
0.391076
0.48779
0.39399
0.479806
0.480521
0.391872
0.403264
0.397048
0.3952
0.470568
0.493649
0.392621
0.400108
0.437254
0.391866
0.397616
0.501528
0.410201
0.413275
0.49382
0.398902
0.417945
0.47608
0.498182
0.390832
0.477078
0.490919
0.490604
0.439354
0.431479
0.398594
0.478146
0.414286
0.45604
0.486991
0.441453
0.390208
0.479738
0.397411
0.38653
0.386833
0.41079
0.459028
0.496625
0.397347
0.395274
0.381326
0.482354
0.482879
0.380225
0.451324
0.383516
0.411042
0.49211
0.45899
0.499757
0.50128
0.498141
0.46321
0.492043
0.417547
0.498396
0.490438
0.386957
0.451668
0.471938
0.48452
0.460199
0.446811
0.404451
0.500614
0.381242
0.381307
0.470809
0.462689
0.4237
0.436954
0.430778
0.498148
0.44012
0.411236
0.385462
0.4556
0.418168
0.450272
0.39965
0.399847
0.501866
0.418056
0.381848
0.394027
0.382204
0.400387
0.416037
0.501906
0.427668
0.42837
0.381376
0.493494
0.485375
0.498209
0.448309
0.484241
0.484521
0.490063
0.423272
0.399108
0.460338
0.393604
0.469955
0.465191
0.383653
0.464374
0.383833
0.415774
0.38726
0.410344
0.418407
0.471847
0.385825
0.411018
0.400746
0.496134
0.500273
0.418103
0.396266
0.500576
0.485947
0.456709
0.384949
0.445696
0.44509
0.399371
0.471957
0.3981
0.380397
0.403406
0.403171
0.49827
0.469335
0.457512
0.413921
0.418158
0.418037
0.492866
0.397327
0.48862
0.401013
0.393556
0.410321
0.387772
0.393461
0.407583
0.412944
0.464998
0.459182
0.411412
0.401361
0.500639
0.418334
0.404863
0.478523
0.49532
0.440223
0.460416
0.457938
0.49969
0.398342
0.38247
0.404338
0.455436
0.384589
0.41168
0.468326
0.418299
0.493142
0.443603
0.489723
0.383847
0.486533
0.489443
0.500474
0.496152
0.418167
0.488734
0.413766
0.395067
0.500442
0.449901
0.48698
0.497478
0.382861
0.408398
0.491854
0.463636
0.389443
0.497855
0.485914
0.401703
0.494716
0.421085
0.418319
0.400434
0.486325
0.499875
0.491699
0.386373
0.403013
0.485991
0.498479
0.38598
0.499757
0.401651
0.449134
0.49199
0.416674
0.477963
0.498144
0.478838
0.384582
0.485712
0.480932
0.380954
0.485891
0.381655
0.419445
0.473688
0.4505
0.4418
0.494432
0.38676
0.491576
0.395487
0.454209
0.456829
0.416925
0.432812
0.497688
0.497257
0.381743
0.381087
0.479195
0.420528
0.464288
0.484893
0.432367
0.469477
0.40296
0.487191
0.500125
0.501255
0.474103
0.493411
0.491131
0.491291
0.419547
0.418395
0.418279
0.4975
0.490355
0.45007
0.385559
0.389698
0.491105
0.416672
0.49822
0.498211
0.469056
0.501211
0.3954
0.432605
0.488011
0.380263
0.491613
0.494985
0.480214
0.41701
0.487277
0.408292
0.460397
0.497142
0.441041
0.495033
0.408194
0.397262
0.395089
0.494855
0.380864
0.406943
0.399653
0.459459
0.458186
0.496267
0.412564
0.485004
0.438428
0.384477
0.403947
0.498379
0.488961
0.484399
0.499518
0.481592
0.486206
0.4708
0.416573
0.482992
0.389297
0.49997
0.492803
0.432715
0.423573
0.381051
0.494819
0.439203
0.4865
0.486186
0.419905
0.382217
0.382329
0.458989
0.38328
0.488099
0.486367
0.461027
0.473743
0.417805
0.462973
0.457437
0.408229
0.49736
0.388471
0.391205
0.38403
0.38494
0.499959
0.42014
0.430437
0.47564
0.493143
0.48414
0.489068
0.416359
0.392873
0.499784
0.442381
0.499811
0.478373
0.479988
0.433458
0.418027
0.400036
0.389377
0.501584
0.487654
0.490563
0.486728
0.493738
0.462276
0.493189
0.380378
0.408689
0.415743
0.473356
0.474814
0.495871
0.495621
0.436575
0.496099
0.448541
0.451459
0.404389
0.411989
0.441417
0.484662
0.400377
0.488667
0.483792
0.490357
0.472407
0.496693
0.481751
0.477705
0.479481
0.395995
0.48779
0.497701
0.495509
0.407086
0.492584
0.496201
0.500963
0.44314
0.501188
0.487019
0.418999
0.485267
0.495292
0.43014
0.439705
0.484091
0.442389
0.494641
0.384676
0.467733
0.430601
0.484255
0.435692
0.493366
0.489289
0.497583
0.483243
0.412261
0.41699
0.48273
0.485629
0.408357
0.428983
0.490353
0.480071
0.48385
0.394783
0.492937
0.390137
0.473441
0.484912
0.415279
0.497031
0.380407
0.482208
0.482701
0.501305
0.49762
0.387538
0.470186
0.458835
0.415639
0.478561
0.396494
0.454958
0.380549
0.495072
0.498285
0.493576
0.493803
0.382703
0.416874
0.456099
0.417964
0.481939
0.427375
0.4878
0.440178
0.501182
0.380342
0.491968
0.494151
0.381511
0.435401
0.453459
0.417957
0.386317
0.382985
0.432387
0.494364
0.461276
0.492752
0.418161
0.491764
0.495185
0.494418
0.490754
0.463539
0.418481
0.493529
0.490851
0.494048
0.493471
0.482854
0.433445
0.485386
0.498215
0.434897
0.43264
0.494393
0.389279
0.499809
0.500336
0.497014
0.494962
0.487396
0.398445
0.439373
0.441686
0.385196
0.47366
0.417847
0.499964
0.487515
0.413129
0.496438
0.431375
0.486964
0.499077
0.472929
0.498887
0.484067
0.486018
0.380566
0.406772
0.497354
0.486432
0.4877
0.416219
0.494594
0.48313
0.487822
0.447012
0.496803
0.498254
0.492374
0.402452
0.483669
0.48691
0.486799
0.392963
0.48801
0.486194
0.434612
0.48686
0.480126
0.433151
0.494845
0.488142
0.41185
0.497122
0.45629
0.426232
0.486365
0.40943
0.410931
0.407664
0.408783
0.498471
0.488351
0.431549
0.487057
0.413937
0.493817
0.495398
0.488484
0.41908
0.408251
0.385862
0.389733
0.466542
0.494819
0.493261
0.487181
0.482542
0.493247
0.497576
0.382551
0.495497
0.494833
0.38095
0.481366
0.382344
0.391035
0.38034
0.41381
0.488706
0.383591
0.48886
0.496545
0.49678
0.409725
0.494613
0.499497
0.474917
0.380164
0.486131
0.500692
0.461442
0.428574
0.413592
0.412533
0.496462
0.496453
0.498156
0.487361
0.490151
0.499382
0.388272
0.453493
0.486505
0.497135
0.413428
0.420728
0.493042
0.436596
0.390332
0.427751
0.496682
0.486766
0.487178
0.406259
0.496886
0.452154
0.384755
0.49636
0.390749
0.387838
0.392361
0.490361
0.500672
0.379831
0.487641
0.481339
0.500985
0.494874
0.497888
0.395493
0.498569
0.500164
0.403017
0.498195
0.497464
0.486487
0.487112
0.495532
0.418464
0.388121
0.487168
0.4938
0.478385
0.477402
0.484332
0.387146
0.497818
0.493355
0.483826
0.494934
0.497509
0.424187
0.413668
0.487251
0.395899
0.496337
0.381587
0.497897
0.497447
0.412222
0.455039
0.483661
0.434078
0.381035
0.492327
0.487479
0.438588
0.485498
0.496015
0.450543
0.416029
0.424608
0.496178
0.39079
0.379942
0.493133
0.419986
0.453334
0.453319
0.414726
0.496561
0.494386
0.462788
0.381375
0.379795
0.414412
0.380419
0.495695
0.497879
0.41408
0.496217
0.492444
0.497847
0.395086
0.497954
0.497227
0.381877
0.458884
0.492911
0.395322
0.437793
0.380129
0.496797
0.492285
0.395975
0.49115
0.497007
0.385864
0.483263
0.497874
0.494783
0.486657
0.497256
0.489648
0.48638
0.501081
0.499225
0.494396
0.448901
0.449141
0.45902
0.413051
0.49513
0.49973
0.390731
0.387351
0.394625
0.487949
0.437757
0.498808
0.437938
0.491847
0.494742
0.497266
0.491426
0.49512
0.413294
0.487553
0.496945
0.391825
0.493816
0.381086
0.387347
0.499451
0.379593
0.491749
0.494277
0.395285
0.392494
0.496505
0.494746
0.495431
0.495907
0.493019
0.446406
0.49238
0.385555
0.383785
0.386459
0.495046
0.494118
0.495964
0.38061
0.487766
0.414539
0.494656
0.495345
0.494198
0.495286
0.489469
0.493357
0.461311
0.492899
0.493744
0.487418
0.496776
0.487903
0.399577
0.488088
0.400553
0.461485
0.38446
0.41498
0.39703
0.391347
0.443855
0.443946
0.498035
0.493469
0.493291
0.493238
0.390836
0.457933
0.497606
0.492694
0.498476
0.491952
0.447365
0.394534
0.49284
0.444229
0.444126
0.380079
0.486781
0.492803
0.492268
0.400992
0.451838
0.451815
0.496441
0.414152
0.414613
0.379601
0.394944
0.498998
0.49833
0.495752
0.479453
0.393851
0.396579
0.497273
0.492703
0.435577
0.400022
0.380405
0.380454
0.381209
0.491958
0.39012
0.408774
0.493592
0.387637
0.486636
0.490573
0.492714
0.495055
0.417959
0.41529
0.497019
0.396947
0.463093
0.49197
0.487478
0.474249
0.476537
0.487483
0.497667
0.467016
0.402846
0.487743
0.495406
0.415556
0.386993
0.497535
0.492115
0.492162
0.492588
0.48745
0.487646
0.497304
0.489861
0.485149
0.401359
0.394509
0.492175
0.385681
0.497856
0.457451
0.498597
0.499386
0.423265
0.419036
0.497271
0.492629
0.49813
0.428608
0.491089
0.491345
0.487238
0.497244
0.394915
0.497617
0.495263
0.491142
0.487294
0.37956
0.498888
0.493271
0.492631
0.379749
0.379692
0.389854
0.492693
0.490116
0.497951
0.4307
0.448494
0.387421
0.399677
0.469308
0.49136
0.490825
0.384843
0.488425
0.38231
0.389681
0.496442
0.499186
0.488433
0.498366
0.447557
0.448416
0.429934
0.497943
0.468527
0.498184
0.491967
0.469326
0.379529
0.433404
0.47407
0.400594
0.498342
0.402914
0.415386
0.494882
0.498922
0.496206
0.49116
0.494662
0.490032
0.495401
0.382569
0.402776
0.476439
0.498067
0.382173
0.493837
0.417603
0.475736
0.494811
0.414288
0.485381
0.497276
0.483545
0.497648
0.492369
0.494366
0.494815
0.492171
0.487363
0.49914
0.488277
0.474181
0.415781
0.487243
0.384962
0.489835
0.462283
0.402238
0.496302
0.465626
0.467953
0.492391
0.415939
0.497455
0.381751
0.393268
0.38192
0.497538
0.491182
0.431756
0.434355
0.394637
0.489568
0.49266
0.489553
0.387059
0.395316
0.49506
0.484918
0.498587
0.490853
0.494473
0.400914
0.492179
0.417575
0.401867
0.496225
0.488786
0.424116
0.498087
0.397399
0.495884
0.498389
0.471657
0.491034
0.472495
0.497571
0.487276
0.496979
0.498111
0.488948
0.40266
0.434446
0.436634
0.48902
0.49287
0.489586
0.395367
0.494596
0.488472
0.494719
0.38796
0.486338
0.497136
0.491644
0.394232
0.388038
0.491652
0.385757
0.415164
0.392772
0.380364
0.380289
0.415456
0.415051
0.488627
0.389098
0.498852
0.48839
0.499204
0.497288
0.384243
0.492918
0.496323
0.492952
0.392196
0.497273
0.496109
0.494278
0.493248
0.465749
0.49751
0.386898
0.385365
0.445369
0.445414
0.496793
0.496366
0.387002
0.493575
0.498291
0.497369
0.497779
0.483196
0.47337
0.499276
0.460535
0.409835
0.38308
0.496464
0.388047
0.492695
0.382461
0.419167
0.497045
0.488193
0.494487
0.495154
0.485375
0.484946
0.379784
0.498928
0.402277
0.499257
0.492606
0.496982
0.491991
0.49778
0.488407
0.476717
0.380598
0.384237
0.492167
0.41615
0.492503
0.495667
0.49588
0.400827
0.498374
0.490906
0.38359
0.496078
0.383623
0.394316
0.488946
0.491779
0.383398
0.417799
0.379565
0.390039
0.473263
0.487865
0.474874
0.471565
0.488214
0.484779
0.484951
0.40318
0.487903
0.497605
0.497127
0.390574
0.484293
0.493485
0.385147
0.385098
0.494827
0.487618
0.494366
0.497164
0.496092
0.497535
0.487174
0.498667
0.48726
0.424238
0.472245
0.490016
0.49005
0.488209
0.386248
0.494254
0.466407
0.466749
0.48873
0.495745
0.490871
0.500408
0.495168
0.48145
0.493016
0.490305
0.487923
0.412154
0.490574
0.412453
0.48949
0.469248
0.384106
0.477785
0.435888
0.43718
0.497391
0.496902
0.417938
0.497595
0.496098
0.498559
0.421351
0.421104
0.380245
0.497449
0.488063
0.496551
0.416636
0.497877
0.495989
0.48876
0.489758
0.496884
0.46663
0.467815
0.417372
0.495732
0.492953
0.497129
0.414266
0.413921
0.413754
0.484441
0.493463
0.495269
0.496728
0.49797
0.485083
0.406223
0.484622
0.483065
0.497244
0.380062
0.494388
0.417741
0.496555
0.424211
0.423695
0.490853
0.491749
0.495085
0.38875
0.497797
0.497732
0.395403
0.444245
0.499038
0.491006
0.474282
0.384023
0.380046
0.380533
0.439399
0.490672
0.4955
0.485883
0.482369
0.463105
0.497514
0.485694
0.454738
0.466743
0.474363
0.496779
0.483515
0.495172
0.399411
0.469591
0.493236
0.491409
0.49021
0.494025
0.478544
0.493687
0.496701
0.494147
0.401311
0.465747
0.496251
0.496145
0.495516
0.496924
0.496309
0.494509
0.379629
0.422171
0.421845
0.495776
0.493586
0.496228
0.491649
0.382501
0.493907
0.487348
0.497073
0.488247
0.410606
0.49175
0.490779
0.391184
0.485758
0.495185
0.380959
0.494815
0.41278
0.460307
0.388452
0.388516
0.41271
0.412959
0.487144
0.49313
0.499254
0.49938
0.41221
0.495976
0.497346
0.416657
0.403685
0.488383
0.386112
0.493711
0.493043
0.47498
0.394224
0.402458
0.416307
0.496672
0.49667
0.49632
0.496426
0.500358
0.490484
0.490954
0.491442
0.495861
0.490038
0.495978
0.493939
0.423671
0.492393
0.459268
0.498648
0.494703
0.493243
0.496655
0.493153
0.432423
0.492474
0.490278
0.482011
0.493987
0.492601
0.490765
0.499856
0.491523
0.42498
0.489211
0.416383
0.419528
0.498848
0.492051
0.497383
0.491434
0.393874
0.495628
0.487376
0.492034
0.498665
0.491277
0.492329
0.383327
0.499028
0.48683
0.488649
0.419902
0.420011
0.490403
0.382755
0.499832
0.493497
0.500938
0.39017
0.494852
0.492479
0.400338
0.417727
0.487866
0.426961
0.399336
0.500854
0.398415
0.501373
0.501349
0.50083
0.397804
0.488353
0.500485
0.492917
0.498888
0.494316
0.494379
0.497416
0.470678
0.403303
0.383242
0.50032
0.4159
0.491454
0.382373
0.404149
0.403615
0.492177
0.466994
0.397956
0.407464
0.486014
0.500215
0.496119
0.460536
0.490961
0.410969
0.500971
0.500943
0.491366
0.493847
0.491233
0.494601
0.404963
0.486985
0.487108
0.49013
0.49919
0.495195
0.49932
0.499686
0.495538
0.398379
0.497786
0.497594
0.392221
0.386025
0.386293
0.417028
0.491747
0.49088
0.467065
0.492058
0.491246
0.492064
0.489127
0.492159
0.500711
0.483914
0.500052
0.396391
0.461603
0.490225
0.41178
0.412021
0.490449
0.486846
0.494286
0.493021
0.491519
0.490763
0.485203
0.485028
0.493026
0.4927
0.495732
0.498512
0.413981
0.491855
0.489402
0.492372
0.413983
0.414146
0.49578
0.494245
0.490682
0.496197
0.492374
0.496841
0.495847
0.416383
0.49825
0.414909
0.414673
0.492366
0.487666
0.494584
0.489869
0.420921
0.420717
0.417918
0.424812
0.424252
0.386651
0.488758
0.499324
0.416801
0.489791
0.491737
0.477159
0.489616
0.434594
0.435858
0.464836
0.465298
0.485984
0.493377
0.445797
0.483869
0.483323
0.498353
0.489458
0.475357
0.484529
0.491161
0.426221
0.426887
0.485604
0.490033
0.486051
0.450492
0.451345
0.492583
0.488945
0.481765
0.497595
0.485888
0.394349
0.493352
0.445986
0.499483
0.491661
0.415424
0.489585
0.499909
0.499881
0.500181
0.496895
0.496543
0.492875
0.470567
0.500189
0.397092
0.487326
0.494011
0.500355
0.491649
0.494925
0.495651
0.393686
0.497261
0.497227
0.498723
0.391724
0.39112
0.489958
0.496575
0.458767
0.486448
0.488774
0.49049
0.490267
0.491114
0.497035
0.497464
0.498075
0.496548
0.489818
0.384747
0.383908
0.494301
0.45037
0.416814
0.462816
0.397346
0.499259
0.499969
0.495996
0.498145
0.499928
0.485646
0.492075
0.39329
0.487339
0.497771
0.458005
0.479594
0.498474
0.490497
0.499791
0.387583
0.490602
0.391097
0.4827
0.489523
0.49965
0.392139
0.392122
0.495321
0.431328
0.489838
0.497609
0.486078
0.491458
0.396331
0.489229
0.493521
0.496344
0.500075
0.497146
0.496545
0.49165
0.426171
0.492824
0.497725
0.490405
0.499661
0.491372
0.47889
0.493607
0.494135
0.486395
0.422603
0.422228
0.495925
0.493888
0.498044
0.49704
0.485293
0.498771
0.499314
0.469925
0.494273
0.486301
0.498249
0.499328
0.494827
0.489627
0.491862
0.47934
0.491627
0.49213
0.419689
0.419571
0.499587
0.499824
0.380488
0.500191
0.495613
0.497125
0.489182
0.488083
0.494558
0.496181
0.496964
0.497384
0.499045
0.485722
0.465938
0.494479
0.499586
0.49097
0.498465
0.417462
0.489699
0.478908
0.490678
0.498518
0.498393
0.473324
0.489538
0.49074
0.489072
0.496855
0.483115
0.499249
0.402768
0.415663
0.489431
0.49964
0.492582
0.417362
0.490304
0.493994
0.497424
0.497983
0.412939
0.413169
0.497202
0.477645
0.498041
0.407006
0.487157
0.495761
0.468094
0.491544
0.410622
0.497706
0.487263
0.405398
0.496242
0.486456
0.490624
0.488986
0.495968
0.499011
0.500116
0.489648
0.48966
0.486748
0.493685
0.499293
0.496898
0.498682
0.49196
0.417225
0.49408
0.490553
0.495641
0.495285
0.410077
0.490391
0.496238
0.489012
0.499037
0.499465
0.473907
0.484804
0.485938
0.491849
0.497509
0.484304
0.497521
0.4985
0.489777
0.494524
0.498162
0.496624
0.492981
0.497745
0.49402
0.498844
0.380698
0.497228
0.379664
0.497999
0.492254
0.490399
0.499088
0.491502
0.491834
0.415092
0.414887
0.490954
0.493148
0.499271
0.399942
0.39896
0.470951
0.468204
0.495289
0.498269
0.495609
0.49371
0.489444
0.497986
0.487265
0.416972
0.495927
0.496997
0.492044
0.499349
0.388641
0.383015
0.500226
0.497942
0.497921
0.417007
0.492514
0.49802
0.494119
0.463837
0.464969
0.500724
0.491946
0.497738
0.412494
0.426958
0.427678
0.488371
0.416871
0.493317
0.494381
0.490725
0.490573
0.494079
0.471514
0.497831
0.486663
0.401942
0.493972
0.494684
0.499301
0.488856
0.493197
0.497139
0.490486
0.452128
0.452956
0.464088
0.491703
0.498715
0.493716
0.491783
0.482562
0.494211
0.417936
0.498762
0.486957
0.492485
0.489219
0.48992
0.495401
0.490385
0.492142
0.499081
0.489324
0.493597
0.489489
0.489406
0.493394
0.48538
0.490664
0.496623
0.496593
0.492887
0.493988
0.4936
0.48413
0.491363
0.497426
0.490937
0.479844
0.498768
0.498045
0.484887
0.496663
0.493392
0.496804
0.392074
0.499097
0.493806
0.491765
0.492133
0.496362
0.486183
0.498433
0.494576
0.492823
0.495493
0.495066
0.494643
0.490991
0.497711
0.492877
0.498798
0.493704
0.491763
0.494223
0.490302
0.486942
0.487431
0.489382
0.497521
0.49019
0.495924
0.488116
0.4926
0.492524
0.491859
0.488591
0.494109
0.492909
0.486627
0.491093
0.485482
0.493797
0.488999
0.48729
0.499309
0.478225
0.499016
0.494624
0.498728
0.472383
0.4903
0.391756
0.392804
0.497024
0.485426
0.490334
0.492539
0.486972
0.486233
0.499578
0.492113
0.497819
0.488362
0.489867
0.496608
0.495271
0.495259
0.494631
0.492648
0.490585
0.491868
0.460469
0.49827
0.43722
0.386739
0.487789
0.488303
0.486588
0.488847
0.459521
0.493104
0.436523
0.491752
0.479565
0.483911
0.489812
0.491374
0.492189
0.490542
0.476162
0.49937
0.495356
0.490586
0.476186
0.489479
0.46896
0.488998
0.497763
0.491541
0.49649
0.498213
0.397238
0.497461
0.49718
0.484418
0.497663
0.49058
0.392309
0.493241
0.498984
0.464778
0.489379
0.493015
0.490309
0.493307
0.490084
0.497873
0.488085
0.383985
0.494957
0.489255
0.488528
0.491251
0.476858
0.488741
0.498559
0.490207
0.491783
0.490893
0.498836
0.489769
0.462913
0.487746
0.489299
0.387679
0.465052
0.489892
0.496659
0.482122
0.489086
0.486026
0.484955
0.488717
0.490576
0.49392
0.43634
0.491444
0.489132
0.493123
0.487577
0.4959
0.492919
0.439868
0.498908
0.492482
0.490971
0.490967
0.499416
0.487208
0.497448
0.489773
0.497873
0.499556
0.488796
0.432084
0.496383
0.488201
0.491374
0.489369
0.492074
0.489942
0.48816
0.485515
0.49752
0.437886
0.483855
0.493232
0.48864
0.489528
0.488946
0.499172
0.49636
0.414999
0.4885
0.484793
0.488536
0.489043
0.493901
0.49386
0.488236
0.489963
0.490987
0.484048
0.42879
0.381228
0.379906
0.488222
0.44273
0.490455
0.40037
0.399041
0.470725
0.487862
0.430495
0.492176
0.488453
0.487202
0.497188
0.488089
0.485932
0.444584
0.49556
0.383306
0.486251
0.487327
0.486669
0.491768
0.48871
0.495034
0.463757
0.491865
0.46587
0.434266
0.488102
0.449562
0.416913
0.446506
0.487707
0.493129
0.484781
0.492393
0.495704
0.444683
0.488029
0.401522
0.487083
0.491209
0.485705
0.495305
0.491448
0.490574
0.490143
0.49708
0.48786
0.48228
0.488172
0.418312
0.485791
0.487632
0.492715
0.491347
0.495174
0.447847
0.487987
0.392318
0.487991
0.486787
0.48401
0.430451
0.486775
0.487521
0.499726
0.489754
0.485768
0.486957
0.485126
0.500243
0.434197
0.485707
0.49363
0.485207
0.488129
0.487666
0.48589
0.471477
0.486789
0.39287
0.391203
0.451986
0.453539
0.487482
0.482536
0.488305
0.485622
0.40523
0.405125
0.453648
0.497666
0.386279
0.493426
0.490651
0.487589
0.493941
0.493433
0.455156
0.488124
0.483854
0.48936
0.484996
0.484477
0.49229
0.486972
0.484732
0.487048
0.487992
0.48351
0.441358
0.487226
0.426273