# vtk DataFile Version 1.0
unstructured grid
ascii
DATASET UNSTRUCTURED_GRID
points 8094 float
-0.25 0.0574735 0
0.5 0.0546937 0
0.5 -0.0546937 0
-0.25 -0.0574735 0
-0.25 0.0574735 0.01
0.5 0.0546937 0.01
0.5 -0.0546937 0.01
-0.25 -0.0574735 0.01
-0.246045 0.0569295 0
-0.242089 0.0563854 0
-0.238136 0.0558289 0
-0.234184 0.0552582 0
-0.230232 0.0546875 0
-0.226284 0.0540912 0
-0.222337 0.0534933 0
-0.218391 0.0528841 0
-0.214448 0.0522585 0
-0.210504 0.0516328 0
-0.206565 0.0509829 0
-0.202626 0.0503294 0
-0.198689 0.0496667 0
-0.194755 0.0489856 0
-0.190821 0.0483046 0
-0.18689 0.0476022 0
-0.182961 0.0468942 0
-0.179033 0.0461799 0
-0.175108 0.0454463 0
-0.171183 0.0447127 0
-0.167262 0.0439627 0
-0.163342 0.0432056 0
-0.159422 0.0424455 0
-0.155506 0.041668 0
-0.15159 0.0408904 0
-0.147675 0.0401031 0
-0.143762 0.0393092 0
-0.13985 0.0385149 0
-0.135939 0.0377103 0
-0.132028 0.0369056 0
-0.128117 0.0361005 0
-0.124207 0.0352949 0
-0.120296 0.0344893 0
-0.116386 0.0336836 0
-0.112475 0.032878 0
-0.108563 0.0320794 0
-0.104649 0.0312931 0
-0.100735 0.0305068 0
-0.0968152 0.029745 0
-0.0928949 0.0289889 0
-0.0889722 0.0282446 0
-0.0850433 0.0275341 0
-0.0811144 0.0268235 0
-0.0771778 0.0261578 0
-0.0732381 0.0255098 0
-0.0692962 0.0248759 0
-0.0653442 0.0243073 0
-0.0613923 0.0237386 0
-0.0574324 0.0232306 0
-0.0534681 0.0227556 0
-0.0495024 0.0222934 0
-0.0455272 0.0219207 0
-0.041552 0.0215481 0
-0.0375717 0.0212385 0
-0.0335881 0.0209694 0
-0.029604 0.0207098 0
-0.0256151 0.0205369 0
-0.0216262 0.0203639 0
-0.0176357 0.0202396 0
-0.0136441 0.0201487 0
-0.00965243 0.0200635 0
-0.00565987 0.0200372 0
-0.00166732 0.020011 0
0.00232526 0.0200121 0
0.00631785 0.0200329 0
0.0103104 0.0200563 0
0.0143027 0.0201109 0
0.018295 0.0201654 0
0.022287 0.0202345 0
0.0262788 0.0203144 0
0.0302706 0.0203957 0
0.034262 0.0204956 0
0.0382534 0.0205955 0
0.0422446 0.0207045 0
0.0462355 0.0208207 0
0.0502265 0.0209377 0
0.054217 0.0210676 0
0.0582075 0.0211975 0
0.0621978 0.0213339 0
0.0661879 0.0214757 0
0.0701781 0.021618 0
0.0741678 0.0217703 0
0.0781575 0.0219227 0
0.0821471 0.0220801 0
0.0861364 0.022242 0
0.0901258 0.0224041 0
0.0941148 0.0225747 0
0.0981038 0.0227453 0
0.102093 0.0229202 0
0.106081 0.023099 0
0.11007 0.0232779 0
0.114058 0.0234644 0
0.118046 0.0236509 0
0.122035 0.0238411 0
0.126022 0.024035 0
0.13001 0.0242288 0
0.133998 0.0244298 0
0.137986 0.0246308 0
0.141973 0.0248352 0
0.14596 0.025043 0
0.149947 0.0252509 0
0.153934 0.0254654 0
0.157921 0.02568 0
0.161908 0.0258978 0
0.165894 0.026119 0
0.169881 0.0263402 0
0.173867 0.0265678 0
0.177853 0.0267956 0
0.181839 0.0270264 0
0.185825 0.0272607 0
0.189811 0.0274951 0
0.193796 0.0277356 0
0.197781 0.0279764 0
0.201767 0.02822 0
0.205752 0.0284673 0
0.209737 0.0287146 0
0.213721 0.0289679 0
0.217706 0.0292217 0
0.22169 0.0294782 0
0.225674 0.0297385 0
0.229658 0.0299988 0
0.233642 0.0302651 0
0.237626 0.0305319 0
0.241609 0.0308014 0
0.245593 0.0310748 0
0.249576 0.0313482 0
0.253559 0.0316276 0
0.257542 0.0319077 0
0.261524 0.0321904 0
0.265507 0.0324772 0
0.269489 0.032764 0
0.273471 0.0330568 0
0.277453 0.0333504 0
0.281434 0.0336466 0
0.285416 0.0339471 0
0.289397 0.0342476 0
0.293378 0.034554 0
0.297359 0.0348615 0
0.301339 0.0351714 0
0.305319 0.0354859 0
0.3093 0.0358005 0
0.313279 0.036121 0
0.317259 0.0364427 0
0.321239 0.0367667 0
0.325218 0.0370957 0
0.329197 0.0374248 0
0.333175 0.0377597 0
0.337154 0.0380961 0
0.341132 0.0384347 0
0.34511 0.0387786 0
0.349088 0.0391226 0
0.353065 0.0394724 0
0.357042 0.0398239 0
0.361019 0.0401775 0
0.364995 0.0405368 0
0.368972 0.0408961 0
0.372948 0.0412613 0
0.376924 0.0416285 0
0.380899 0.0419975 0
0.384874 0.0423727 0
0.388849 0.0427479 0
0.392823 0.0431289 0
0.396798 0.0435123 0
0.400772 0.0438973 0
0.404745 0.044289 0
0.408718 0.0446807 0
0.412691 0.0450781 0
0.416664 0.0454782 0
0.420636 0.0458797 0
0.424608 0.0462883 0
0.42858 0.046697 0
0.432551 0.0471114 0
0.436521 0.0475289 0
0.440492 0.0479474 0
0.444462 0.0483738 0
0.448432 0.0488001 0
0.452401 0.0492319 0
0.45637 0.0496673 0
0.460338 0.0501035 0
0.464306 0.0505482 0
0.468274 0.0509928 0
0.472241 0.0514427 0
0.476208 0.0518968 0
0.480175 0.0523512 0
0.48414 0.0528148 0
0.488106 0.0532784 0
0.492071 0.0537471 0
0.496036 0.0542204 0
0.5 0.050787 0
0.5 0.0468803 0
0.5 0.0429736 0
0.5 0.0390669 0
0.5 0.0351602 0
0.5 0.0312535 0
0.5 0.0273468 0
0.5 0.0234402 0
0.5 0.0195335 0
0.5 0.0156268 0
0.5 0.0117201 0
0.5 0.00781339 0
0.5 0.00390669 0
0.5 1.43781e-13 0
0.5 -0.00390669 0
0.5 -0.00781339 0
0.5 -0.0117201 0
0.5 -0.0156268 0
0.5 -0.0195335 0
0.5 -0.0234402 0
0.5 -0.0273468 0
0.5 -0.0312535 0
0.5 -0.0351602 0
0.5 -0.0390669 0
0.5 -0.0429736 0
0.5 -0.0468803 0
0.5 -0.050787 0
0.496036 -0.0542204 0
0.492071 -0.0537471 0
0.488106 -0.0532784 0
0.48414 -0.0528148 0
0.480175 -0.0523512 0
0.476208 -0.0518968 0
0.472241 -0.0514427 0
0.468274 -0.0509928 0
0.464306 -0.0505482 0
0.460338 -0.0501035 0
0.45637 -0.0496673 0
0.452401 -0.0492319 0
0.448432 -0.0488001 0
0.444462 -0.0483738 0
0.440492 -0.0479474 0
0.436521 -0.0475289 0
0.432551 -0.0471114 0
0.42858 -0.046697 0
0.424608 -0.0462883 0
0.420636 -0.0458797 0
0.416664 -0.0454782 0
0.412691 -0.0450781 0
0.408718 -0.0446807 0
0.404745 -0.044289 0
0.400772 -0.0438973 0
0.396798 -0.0435123 0
0.392823 -0.0431289 0
0.388849 -0.0427479 0
0.384874 -0.0423727 0
0.380899 -0.0419975 0
0.376924 -0.0416285 0
0.372948 -0.0412613 0
0.368972 -0.0408961 0
0.364995 -0.0405368 0
0.361019 -0.0401775 0
0.357042 -0.0398239 0
0.353065 -0.0394724 0
0.349088 -0.0391226 0
0.34511 -0.0387786 0
0.341132 -0.0384347 0
0.337154 -0.0380961 0
0.333175 -0.0377597 0
0.329197 -0.0374248 0
0.325218 -0.0370957 0
0.321239 -0.0367667 0
0.317259 -0.0364427 0
0.313279 -0.036121 0
0.3093 -0.0358005 0
0.305319 -0.0354859 0
0.301339 -0.0351714 0
0.297359 -0.0348615 0
0.293378 -0.034554 0
0.289397 -0.0342476 0
0.285416 -0.0339471 0
0.281434 -0.0336466 0
0.277453 -0.0333504 0
0.273471 -0.0330568 0
0.269489 -0.032764 0
0.265507 -0.0324772 0
0.261524 -0.0321904 0
0.257542 -0.0319077 0
0.253559 -0.0316276 0
0.249576 -0.0313482 0
0.245593 -0.0310748 0
0.241609 -0.0308014 0
0.237626 -0.0305319 0
0.233642 -0.0302651 0
0.229658 -0.0299988 0
0.225674 -0.0297385 0
0.22169 -0.0294782 0
0.217706 -0.0292217 0
0.213721 -0.0289679 0
0.209737 -0.0287146 0
0.205752 -0.0284673 0
0.201767 -0.02822 0
0.197781 -0.0279764 0
0.193796 -0.0277356 0
0.189811 -0.0274951 0
0.185825 -0.0272607 0
0.181839 -0.0270264 0
0.177853 -0.0267956 0
0.173867 -0.0265678 0
0.169881 -0.0263402 0
0.165894 -0.026119 0
0.161908 -0.0258978 0
0.157921 -0.02568 0
0.153934 -0.0254654 0
0.149947 -0.0252509 0
0.14596 -0.025043 0
0.141973 -0.0248352 0
0.137986 -0.0246308 0
0.133998 -0.0244298 0
0.13001 -0.0242288 0
0.126022 -0.024035 0
0.122035 -0.0238411 0
0.118046 -0.0236509 0
0.114058 -0.0234644 0
0.11007 -0.0232779 0
0.106081 -0.023099 0
0.102093 -0.0229202 0
0.0981038 -0.0227453 0
0.0941148 -0.0225747 0
0.0901258 -0.0224041 0
0.0861364 -0.022242 0
0.0821471 -0.0220801 0
0.0781575 -0.0219227 0
0.0741678 -0.0217703 0
0.0701781 -0.021618 0
0.0661879 -0.0214757 0
0.0621978 -0.0213339 0
0.0582075 -0.0211975 0
0.054217 -0.0210676 0
0.0502265 -0.0209377 0
0.0462355 -0.0208207 0
0.0422446 -0.0207045 0
0.0382534 -0.0205955 0
0.034262 -0.0204956 0
0.0302706 -0.0203957 0
0.0262788 -0.0203144 0
0.022287 -0.0202345 0
0.018295 -0.0201654 0
0.0143027 -0.0201109 0
0.0103104 -0.0200563 0
0.00631785 -0.0200329 0
0.00232526 -0.0200121 0
-0.00166732 -0.020011 0
-0.00565987 -0.0200372 0
-0.00965243 -0.0200635 0
-0.0136441 -0.0201487 0
-0.0176357 -0.0202396 0
-0.0216262 -0.0203639 0
-0.0256151 -0.0205369 0
-0.029604 -0.0207098 0
-0.0335881 -0.0209694 0
-0.0375717 -0.0212385 0
-0.041552 -0.0215481 0
-0.0455272 -0.0219207 0
-0.0495024 -0.0222934 0
-0.0534681 -0.0227556 0
-0.0574324 -0.0232306 0
-0.0613923 -0.0237386 0
-0.0653442 -0.0243073 0
-0.0692962 -0.0248759 0
-0.0732381 -0.0255098 0
-0.0771778 -0.0261578 0
-0.0811144 -0.0268235 0
-0.0850433 -0.0275341 0
-0.0889722 -0.0282446 0
-0.0928949 -0.0289889 0
-0.0968152 -0.029745 0
-0.100735 -0.0305068 0
-0.104649 -0.0312931 0
-0.108563 -0.0320794 0
-0.112475 -0.032878 0
-0.116386 -0.0336836 0
-0.120296 -0.0344893 0
-0.124207 -0.0352949 0
-0.128117 -0.0361005 0
-0.132028 -0.0369056 0
-0.135939 -0.0377103 0
-0.13985 -0.0385149 0
-0.143762 -0.0393092 0
-0.147675 -0.0401031 0
-0.15159 -0.0408904 0
-0.155506 -0.041668 0
-0.159422 -0.0424455 0
-0.163342 -0.0432056 0
-0.167262 -0.0439627 0
-0.171183 -0.0447127 0
-0.175108 -0.0454463 0
-0.179033 -0.0461799 0
-0.182961 -0.0468942 0
-0.18689 -0.0476022 0
-0.190821 -0.0483046 0
-0.194755 -0.0489856 0
-0.198689 -0.0496667 0
-0.202626 -0.0503294 0
-0.206565 -0.0509829 0
-0.210504 -0.0516328 0
-0.214448 -0.0522585 0
-0.218391 -0.0528841 0
-0.222337 -0.0534933 0
-0.226284 -0.0540912 0
-0.230232 -0.0546875 0
-0.234184 -0.0552582 0
-0.238136 -0.0558289 0
-0.242089 -0.0563854 0
-0.246045 -0.0569295 0
-0.25 -0.0535098 0
-0.25 -0.0495461 0
-0.25 -0.0455824 0
-0.25 -0.0416187 0
-0.25 -0.0376551 0
-0.25 -0.0336914 0
-0.25 -0.0297277 0
-0.25 -0.025764 0
-0.25 -0.0218003 0
-0.25 -0.0178366 0
-0.25 -0.0138729 0
-0.25 -0.00990922 0
-0.25 -0.00594553 0
-0.25 -0.00198184 0
-0.25 0.00198184 0
-0.25 0.00594553 0
-0.25 0.00990922 0
-0.25 0.0138729 0
-0.25 0.0178366 0
-0.25 0.0218003 0
-0.25 0.025764 0
-0.25 0.0297277 0
-0.25 0.0336914 0
-0.25 0.0376551 0
-0.25 0.0416187 0
-0.25 0.0455824 0
-0.25 0.0495461 0
-0.25 0.0535098 0
-0.246045 0.0569295 0.01
-0.242089 0.0563854 0.01
-0.238136 0.0558289 0.01
-0.234184 0.0552582 0.01
-0.230232 0.0546875 0.01
-0.226284 0.0540912 0.01
-0.222337 0.0534933 0.01
-0.218391 0.0528841 0.01
-0.214448 0.0522585 0.01
-0.210504 0.0516328 0.01
-0.206565 0.0509829 0.01
-0.202626 0.0503294 0.01
-0.198689 0.0496667 0.01
-0.194755 0.0489856 0.01
-0.190821 0.0483046 0.01
-0.18689 0.0476022 0.01
-0.182961 0.0468942 0.01
-0.179033 0.0461799 0.01
-0.175108 0.0454463 0.01
-0.171183 0.0447127 0.01
-0.167262 0.0439627 0.01
[...]
CELL_DATA 7657
SCALARS rho float
LOOKUP_TABLE default
0.478332
0.370029
0.397247
0.174854
0.495321
0.36126
0.25913
0.430809
0.336524
0.499162
0.499231
0.430395
0.305189
0.43055
0.494616
0.489479
0.494554
0.408446
0.407886
0.433036
0.493867
0.409674
0.360732
0.407694
0.420729
0.427928
0.187769
0.312426
0.495996
0.362254
0.240173
0.420752
0.357423
0.476328
0.476775
0.242034
0.362622
0.359788
0.48156
0.213482
0.396614
0.335382
0.341351
0.35407
0.396302
0.39828
0.2656
0.360526
0.420906
0.477954
0.352361
0.173816
0.49591
0.496834
0.257279
0.365379
0.494144
0.4923
0.452993
0.238499
0.421321
0.395436
0.422363
0.422708
0.499921
0.499937
0.304838
0.369987
0.498438
0.448766
0.398439
0.306921
0.337796
0.495976
0.475029
0.358955
0.409533
0.357946
0.474504
0.310621
0.356812
0.431084
0.432953
0.39683
0.398287
0.457969
0.397905
0.447771
0.428212
0.189201
0.499775
0.499818
0.454694
0.497746
0.217303
0.460619
0.459338
0.364533
0.39563
0.217148
0.409082
0.417578
0.368039
0.493457
0.267401
0.346183
0.225841
0.372071
0.312274
0.493436
0.24042
0.371218
0.348174
0.432926
0.402117
0.436687
0.373262
0.211764
0.488837
0.3609
0.500641
0.500623
0.224755
0.36521
0.432193
0.430544
0.430225
0.340834
0.36803
0.342065
0.177298
0.413031
0.366093
0.300466
0.432998
0.22826
0.489808
0.357586
0.413344
0.413864
0.2262
0.191417
0.210277
0.215303
0.407234
0.493788
0.354196
0.371126
0.394518
0.225873
0.206892
0.498562
0.390524
0.341731
0.493868
0.36915
0.369998
0.410834
0.433022
0.230188
0.411447
0.492081
0.427705
0.435296
0.391799
0.36781
0.481603
0.347676
0.401437
0.489263
0.396169
0.3482
0.412575
0.208541
0.246345
0.243969
0.168264
0.460605
0.432086
0.208639
0.215224
0.311024
0.415628
0.415869
0.30212
0.451184
0.325115
0.167602
0.42905
0.460556
0.495916
0.497951
0.433001
0.465562
0.428976
0.367369
0.433137
0.491752
0.244295
0.400055
0.407841
0.417033
0.462089
0.445341
0.187502
0.496935
0.3161
0.269261
0.474105
0.465054
0.385983
0.394511
0.391465
0.433003
0.395674
0.170874
0.250942
0.456573
0.371181
0.39986
0.370226
0.372035
0.498871
0.370806
0.318413
0.358659
0.318362
0.198545
0.357526
0.498911
0.38975
0.389901
0.30921
0.493765
0.487946
0.433026
0.447317
0.417591
0.417776
0.491489
0.385427
0.204193
0.462257
0.357368
0.47316
0.4679
0.32522
0.46699
0.32776
0.356044
0.242457
0.169567
0.372749
0.475263
0.249191
0.167263
0.372537
0.495276
0.496714
0.370976
0.364174
0.496604
0.488424
0.401631
0.253061
0.397813
0.44307
0.202724
0.407795
0.207197
0.294892
0.190485
0.191745
0.43306
0.47252
0.401905
0.345816
0.371211
0.370468
0.429614
0.365126
0.425237
0.198359
0.220516
0.170973
0.240775
0.220533
0.178415
0.3957
0.404713
0.402526
0.260222
0.196888
0.496529
0.372051
0.187178
0.481902
0.431288
0.436516
0.402979
0.459399
0.497372
0.205543
0.322825
0.187767
0.456339
0.254558
0.323723
0.40616
0.372011
0.42981
0.44109
0.491252
0.327747
0.420584
0.491072
0.496475
0.49531
0.371615
0.425451
0.345042
0.360199
0.496425
0.44935
0.489244
0.496011
0.323282
0.387537
0.492715
0.404176
0.346132
0.496247
0.488393
0.375653
0.430905
0.408452
0.37252
0.198573
0.420181
0.495882
0.428707
0.246607
0.377101
0.48847
0.433168
0.248391
0.495878
0.374589
0.399226
0.492761
0.362613
0.411328
0.432999
0.411857
0.25546
0.419664
0.413341
0.271435
0.419969
0.267416
0.376857
0.409041
0.399484
0.438657
0.494268
0.244846
0.42859
0.21478
0.454817
0.458067
0.363896
0.426096
0.432713
0.432466
0.312872
0.307139
0.412124
0.407867
0.404658
0.48757
0.392502
0.406628
0.19187
0.422382
0.496246
0.498527
0.47754
0.430077
0.428237
0.492305
0.377218
0.372745
0.37199
0.432598
0.427454
0.449603
0.25001
0.349066
0.492219
0.362487
0.433037
0.433022
0.406556
0.497396
0.215424
0.425844
0.49
0.292297
0.492509
0.494604
0.412772
0.364123
0.422592
0.175475
0.46229
0.43239
0.395363
0.431147
0.176058
0.364981
0.36038
0.431039
0.27616
0.385059
0.370411
0.402768
0.459684
0.43188
0.339261
0.417643
0.434062
0.254136
0.37984
0.433126
0.425744
0.487167
0.497343
0.413918
0.48862
0.407325
0.360716
0.48595
0.235349
0.496179
0.429565
0.392681
0.385399
0.271725
0.494502
0.434994
0.420565
0.419838
0.378493
0.265299
0.321545
0.460532
0.261385
0.490097
0.488745
0.463037
0.477184
0.369452
0.404346
0.458629
0.387232
0.432555
0.34306
0.35079
0.257382
0.253176
0.496157
0.379288
0.422642
0.479064
0.493545
0.416583
0.425903
0.359514
0.224069
0.495881
0.439483
0.496035
0.411549
0.412709
0.393209
0.370799
0.201226
0.233987
0.498385
0.423328
0.491815
0.421311
0.430305
0.464389
0.429917
0.284328
0.175495
0.356521
0.47679
0.478247
0.431671
0.431513
0.431436
0.431773
0.447607
0.451349
0.380293
0.336166
0.438116
0.487376
0.199722
0.425274
0.416092
0.491734
0.408339
0.432169
0.484881
0.41099
0.48277
0.3632
0.489901
0.432727
0.431449
0.179776
0.429401
0.43187
0.497181
0.397468
0.497542
0.421952
0.375
0.487889
0.431308
0.422268
0.394858
0.416478
0.395699
0.430849
0.252589
0.405952
0.39246
0.416621
0.430148
0.430048
0.426166
0.432682
0.4155
0.337
0.364051
0.414992
0.488141
0.176585
0.420465
0.427579
0.483349
0.486705
0.216244
0.429695
0.349733
0.476962
0.487587
0.353926
0.432365
0.289734
0.414482
0.485723
0.497996
0.432703
0.242315
0.473508
0.460364
0.35565
0.41158
0.364435
0.455631
0.27811
0.431182
0.433042
0.430155
0.430358
0.323673
0.401757
0.456998
0.370268
0.414358
0.418197
0.423627
0.436466
0.498393
0.288304
0.429012
0.430527
0.269781
0.429778
0.453729
0.370245
0.245962
0.325928
0.393157
0.430706
0.463274
0.493287
0.3713
0.428843
0.431247
0.430707
0.427951
0.465912
0.373341
0.493791
0.428056
0.430494
0.430128
0.485844
0.393805
0.487966
0.433002
0.429148
0.425851
0.430682
0.234959
0.496635
0.49658
0.432357
0.431056
0.423214
0.367474
0.435253
0.438442
0.333698
0.408643
0.369291
0.49659
0.42344
0.343022
0.432017
0.424038
0.421785
0.496225
0.408452
0.496218
0.416471
0.41947
0.284143
0.180944
0.432555
0.421081
0.423815
0.400966
0.430864
0.486059
0.424037
0.39805
0.432239
0.433031
0.429332
0.193146
0.415996
0.422197
0.421891
0.223198
0.424401
0.488636
0.428637
0.422106
0.412746
0.426546
0.431031
0.424626
0.393889
0.432423
0.457269
0.416436
0.48873
0.172712
0.392108
0.386514
0.388421
0.433174
0.424977
0.393107
0.422522
0.397349
0.430329
0.431386
0.425185
0.375431
0.176269
0.336661
0.233392
0.469473
0.431015
0.429931
0.422839
0.414925
0.429922
0.432641
0.321837
0.49491
0.494565
0.275513
0.413836
0.323249
0.350521
0.272093
0.346152
0.425525
0.327933
0.425743
0.432075
0.432225
0.172267
0.430875
0.496486
0.410152
0.286027
0.488488
0.497118
0.463474
0.419922
0.344659
0.39479
0.43204
0.432024
0.49582
0.423182
0.427238
0.496364
0.238705
0.453765
0.421171
0.495195
0.344797
0.407997
0.429788
0.431391
0.350546
0.418673
0.432169
0.421879
0.422791
0.383747
0.495112
0.452128
0.25257
0.431981
0.351003
0.343559
0.223706
0.427554
0.497253
0.286904
0.423291
0.48455
0.498358
0.494391
0.495567
0.21395
0.496062
0.496222
0.377782
0.495699
0.432608
0.421175
0.422478
0.431463
0.373235
0.343811
0.422539
0.430318
0.411477
0.410885
0.487091
0.339036
0.495511
0.430014
0.486679
0.494168
0.495377
0.38687
0.346177
0.422509
0.211837
0.431966
0.268917
0.432821
0.495331
0.337294
0.455733
0.416017
0.427953
0.270782
0.429281
0.423467
0.395077
0.488042
0.431775
0.450037
0.400607
0.414095
0.494767
0.228578
0.290532
0.429847
0.40697
0.453555
0.453546
0.352063
0.494959
0.430745
0.46507
0.316884
0.293117
0.349817
0.277119
0.494581
0.432814
0.347782
0.431879
0.492771
0.432791
0.361081
0.43289
0.432468
0.267518
0.460417
0.429676
0.213263
0.433139
0.284963
0.432226
0.429197
0.211882
0.428195
0.432335
0.248376
0.486195
0.432802
0.494074
0.421519
0.432482
0.426747
0.420834
0.497804
0.496407
0.493874
0.399175
0.448277
0.460565
0.341498
0.494255
0.496586
0.228448
0.342223
0.214651
0.424365
0.432832
0.49632
0.433081
0.492431
0.494189
0.432507
0.492155
0.494411
0.342949
0.423698
0.432325
0.225513
0.493615
0.27086
0.341084
0.496434
0.295355
0.428725
0.493899
0.213127
0.223886
0.494922
0.494059
0.431417
0.494654
0.42973
0.444689
0.429244
0.334159
0.328047
0.339814
0.431147
0.430497
0.494692
0.310468
0.424055
0.350737
0.494124
0.494395
0.493843
0.494357
0.426537
0.493333
0.463293
0.493051
0.493566
0.48957
0.432198
0.48993
0.201411
0.424634
0.198637
0.463501
0.254065
0.353451
0.208815
0.227307
0.441304
0.441418
0.495864
0.430065
0.49329
0.429893
0.352029
0.45932
0.432669
0.429484
0.495976
0.428926
0.44591
0.216914
0.493015
0.441775
0.441657
0.304793
0.489033
0.429603
0.429182
0.197017
0.451659
0.451642
0.432027
0.348644
0.350868
0.29298
0.215455
0.496332
0.433084
0.431613
0.412193
0.21855
0.210515
0.432481
0.429495
0.394846
0.19991
0.310232
0.310384
0.314041
0.428895
0.229939
0.38817
0.43014
0.240045
0.421537
0.491657
0.429544
0.431137
0.370227
0.354109
0.432341
0.208749
0.465471
0.428942
0.423106
0.47772
0.480015
0.42313
0.432695
0.469934
0.191573
0.42402
0.431399
0.357131
0.241829
0.432661
0.492581
0.429063
0.429432
0.423423
0.423781
0.432523
0.427039
0.417916
0.195489
0.217033
0.49262
0.247713
0.432839
0.458642
0.496004
0.496758
0.412008
0.4054
0.432468
0.429435
0.432943
0.420007
0.491954
0.428372
0.422811
0.432451
0.215476
0.432697
0.494632
0.42818
0.42283
0.29711
0.495726
0.429916
0.42945
0.304408
0.303399
0.348333
0.429527
0.491336
0.432885
0.393287
0.400673
0.239589
0.201326
0.408305
0.428395
0.491801
0.252276
0.425191
0.265216
0.232277
0.432002
0.495822
0.424946
0.496035
0.400214
0.40026
0.392415
0.495782
0.407786
0.432977
0.428915
0.407885
0.297068
0.393408
0.477506
0.372964
0.495941
0.192979
0.355964
0.494138
0.496435
0.431885
0.492002
0.494038
0.491277
0.431357
0.262351
0.19169
0.41026
0.49574
0.322239
0.430304
0.368397
0.479209
0.430975
0.34925
0.4183
0.432462
0.416244
0.432719
0.429278
0.493866
0.430992
0.429076
0.422671
0.495789
0.42493
0.477641
0.358389
0.422389
0.249475
0.427014
0.464373
0.192746
0.494861
0.468291
0.470965
0.429296
0.359505
0.432588
0.267514
0.220084
0.26445
0.432619
0.428234
0.424529
0.428294
0.21465
0.490947
0.429534
0.426711
0.241891
0.213285
0.431154
0.487553
0.495642
0.427915
0.43077
0.196966
0.42912
0.368873
0.19431
0.431898
0.425729
0.38611
0.432953
0.207002
0.431692
0.496438
0.474996
0.428204
0.475877
0.432631
0.489424
0.432307
0.495933
0.490505
0.191239
0.394227
0.394892
0.490554
0.493085
0.426747
0.361592
0.430879
0.490156
0.430936
0.237146
0.48871
0.432407
0.428629
0.216844
0.237848
0.428643
0.247866
0.354689
0.221979
0.312636
0.31201
0.355165
0.352998
0.425478
0.233815
0.49571
0.424902
0.496749
0.432521
0.254133
0.42966
0.431935
0.429763
0.223625
0.432499
0.49481
0.430672
0.429903
0.468452
0.432627
0.241272
0.25045
0.443262
0.443307
0.432209
0.494908
0.241366
0.430177
0.495566
0.432543
0.43278
0.41549
0.408602
0.496507
0.462455
0.171428
0.260587
0.432037
0.237252
0.42955
0.262316
0.375735
0.432375
0.424591
0.430778
0.431196
0.418289
0.418122
0.287642
0.496241
0.192831
0.496621
0.42947
0.432287
0.49249
0.432783
0.490113
0.410377
0.277172
0.251353
0.49262
0.3607
0.49287
0.431563
0.431688
0.196612
0.496012
0.491857
0.326502
0.431784
0.256545
0.216899
0.425733
0.492382
0.257707
0.369357
0.296012
0.229745
0.476671
0.424
0.478331
0.474882
0.424616
0.41766
0.417784
0.190108
0.424038
0.432699
0.432402
0.228078
0.416881
0.430121
0.335548
0.249326
0.431031
0.423439
0.430725
0.432448
0.431792
0.432646
0.422804
0.496555
0.422756
0.385987
0.407847
0.427212
0.427083
0.424868
0.245761
0.430654
0.405294
0.405235
0.490363
0.431581
0.427935
0.497426
0.431216
0.414094
0.429725
0.427356
0.489755
0.337527
0.427635
0.336564
0.490893
0.40652
0.254105
0.4812
0.393759
0.393673
0.432576
0.432295
0.370702
0.432674
0.431822
0.495638
0.380309
0.381057
0.298587
0.432605
0.424599
0.432089
0.363151
0.432853
0.431757
0.425695
0.426949
0.432273
0.469424
0.470783
0.3679
0.431571
0.429677
0.432419
0.348222
0.3452
0.346113
0.416943
0.430104
0.431254
0.432194
0.432897
0.417846
0.182034
0.417649
0.415704
0.432491
0.290767
0.43074
0.369184
0.432079
0.384844
0.38524
0.427904
0.4924
0.4312
0.236965
0.495755
0.432768
0.213468
0.397113
0.496458
0.491889
0.408786
0.254675
0.301717
0.307655
0.396706
0.427729
0.431425
0.419389
0.414704
0.405011
0.432645
0.419297
0.402442
0.405328
0.410382
0.432217
0.416735
0.431251
0.201155
0.406569
0.493331
0.492145
0.427265
0.430497
0.411761
0.430266
0.432182
0.430552
0.195406
0.405087
0.431917
0.43185
0.431466
0.432307
0.431929
0.430827
0.287587
0.381849
0.382491
0.431629
0.430161
0.431899
0.492286
0.262547
0.430384
0.422809
0.432395
0.424491
0.168225
0.492415
0.4279
0.227073
0.488224
0.431219
0.277469
0.430981
0.340174
0.402933
0.235295
0.236022
0.340206
0.338587
0.422134
0.429865
0.495948
0.495967
0.337771
0.431744
0.432528
0.363911
0.379226
0.425148
0.245788
0.430284
0.429751
0.478448
0.216884
0.193143
0.361769
0.43214
0.432156
0.43195
0.431992
0.497496
0.427553
0.428026
0.428483
0.431677
0.427064
0.431729
0.430444
0.385305
0.492741
0.461016
0.496496
0.430927
0.429886
0.432132
0.429883
0.391366
0.429375
0.427481
0.414618
0.430475
0.429443
0.427835
0.497095
0.428646
0.414561
0.490717
0.401019
0.406036
0.496533
0.429072
0.432569
0.492219
0.218449
0.431532
0.48935
0.429054
0.495681
0.428424
0.429285
0.257623
0.495916
0.488942
0.490307
0.378031
0.377051
0.427485
0.259306
0.497257
0.430073
0.497987
0.348705
0.431049
0.429356
0.198026
0.36974
0.489718
0.388635
0.201107
0.49789
0.203955
0.498719
0.49868
0.497814
0.205145
0.424873
0.49756
0.429726
0.496157
0.493857
0.430714
0.432593
0.473931
0.190316
0.25824
0.497244
0.358614
0.428473
0.262468
0.18791
0.188868
0.429145
0.469991
0.205649
0.178123
0.488327
0.497528
0.431836
0.462551
0.428017
0.171791
0.498363
0.498331
0.492178
0.430321
0.492016
0.430883
0.185089
0.422453
0.42243
0.427197
0.495968
0.431267
0.496496
0.4971
0.431481
0.203837
0.432804
0.432691
0.223513
0.245737
0.243047
0.365979
0.428747
0.491797
0.470062
0.429005
0.428277
0.42899
0.425996
0.429103
0.497729
0.416701
0.497167
0.210096
0.463788
0.427285
0.335583
0.336511
0.491507
0.421548
0.494005
0.429772
0.42864
0.427816
0.418192
0.41808
0.429752
0.429509
0.431574
0.495681
0.346885
0.428815
0.426517
0.429234
0.347546
0.346606
0.431622
0.430612
0.427767
0.431851
0.429258
0.495135
0.431639
0.361932
0.495616
0.350776
0.351514
0.429231
0.42367
0.430836
0.426861
0.379373
0.380271
0.370014
0.385534
0.385892
0.24409
0.42539
0.496868
0.363311
0.426787
0.428829
0.480619
0.426558
0.39313
0.393053
0.404649
0.404533
0.419444
0.430049
0.397673
0.416384
0.415743
0.49558
0.426349
0.409427
0.487269
0.428233
0.387858
0.38756
0.419297
0.427237
0.41975
0.399423
0.399384
0.429451
0.425954
0.414126
0.432673
0.419708
0.21688
0.429988
0.44417
0.49688
0.428683
0.399402
0.426587
0.497596
0.497555
0.49729
0.432264
0.495015
0.493072
0.407128
0.497036
0.365012
0.489319
0.493674
0.497071
0.428647
0.431056
0.431547
0.357319
0.4325
0.432455
0.496269
0.225527
0.226987
0.426993
0.432104
0.40229
0.488651
0.425415
0.427546
0.491394
0.492034
0.432341
0.495527
0.495493
0.432061
0.491274
0.252254
0.255972
0.493862
0.399446
0.36344
0.465231
0.20688
0.496963
0.497021
0.431756
0.496004
0.496321
0.488047
0.429074
0.220115
0.422638
0.495695
0.459403
0.482876
0.496141
0.427571
0.496254
0.239565
0.427707
0.226606
0.415032
0.426462
0.49681
0.223514
0.223366
0.431348
0.390722
0.491104
0.495611
0.48837
0.4285
0.21001
0.426057
0.493468
0.431964
0.49638
0.495322
0.495045
0.428706
0.387972
0.429642
0.495572
0.42746
0.496231
0.428418
0.482231
0.49362
0.430546
0.488617
0.382608
0.383145
0.494743
0.493757
0.495485
0.495369
0.487777
0.495814
0.495914
0.473211
0.43067
0.420807
0.495648
0.496146
0.430999
0.426578
0.428894
0.412351
0.428686
0.492631
0.376195
0.377218
0.496695
0.497115
0.279054
0.497097
0.494551
0.432418
0.426253
0.424348
0.49413
0.494865
0.432324
0.495554
0.495838
0.488099
0.46879
0.49392
0.496256
0.491912
0.496195
0.367513
0.426695
0.482245
0.427741
0.495761
0.495599
0.476745
0.426484
0.427953
0.425819
0.495211
0.485981
0.4959
0.191521
0.357378
0.426543
0.497224
0.492876
0.367336
0.42735
0.493764
0.495386
0.495575
0.341526
0.340102
0.432454
0.411138
0.495779
0.179125
0.422385
0.494627
0.471219
0.428544
0.167833
0.495451
0.422417
0.183855
0.494917
0.421017
0.491637
0.425715
0.431725
0.495818
0.496903
0.426789
0.426804
0.421622
0.493491
0.495834
0.432278
0.496186
0.492578
0.36699
0.493705
0.427753
0.431544
0.494416
0.169268
0.427483
0.494856
0.426014
0.495965
0.496255
0.477367
0.41742
0.420181
0.428805
0.432645
0.417192
0.432654
0.495674
0.426766
0.493945
0.495541
0.495376
0.493088
0.495587
0.430497
0.495818
0.307802
0.495678
0.297231
0.495493
0.492655
0.491478
0.496553
0.49219
0.42887
0.352104
0.352726
0.428005
0.429859
0.496046
0.199893
0.202622
0.40722
0.405967
0.494397
0.495571
0.494598
0.430289
0.490836
0.49551
0.422651
0.364382
0.494719
0.495601
0.429053
0.495813
0.235691
0.260948
0.496914
0.496377
0.496342
0.365328
0.492848
0.495723
0.493723
0.466392
0.46771
0.497957
0.492466
0.495394
0.338854
0.388469
0.388223
0.424706
0.365004
0.493283
0.494073
0.491692
0.491657
0.493827
0.474885
0.495417
0.421174
0.194337
0.493811
0.494037
0.496076
0.425517
0.493358
0.495285
0.427534
0.399998
0.399933
0.466715
0.492318
0.495714
0.493502
0.42886
0.415166
0.494021
0.40359
0.496601
0.489046
0.492932
0.426035
0.491158
0.431369
0.427464
0.492689
0.496045
0.426255
0.430192
0.426498
0.490923
0.493438
0.48784
0.491722
0.495604
0.495568
0.49315
0.493672
0.493523
0.416742
0.492115
0.495358
0.491832
0.412465
0.495775
0.496214
0.487428
0.495331
0.493322
0.495296
0.353591
0.496121
0.493557
0.492384
0.492666
0.495028
0.420585
0.496507
0.43082
0.429618
0.494516
0.494271
0.49403
0.491889
0.495425
0.493126
0.495926
0.493691
0.428762
0.493793
0.427338
0.421992
0.42278
0.426271
0.495533
0.49136
0.494767
0.424382
0.492862
0.492938
0.492411
0.49024
0.493947
0.49321
0.421339
0.491927
0.487902
0.493691
0.490525
0.42268
0.495823
0.411258
0.495789
0.494064
0.496413
0.475805
0.491408
0.225382
0.221879
0.432367
0.487865
0.491524
0.492965
0.422023
0.420622
0.496152
0.492774
0.495818
0.490118
0.491189
0.495113
0.494825
0.494792
0.494049
0.492921
0.491627
0.492512
0.404264
0.496108
0.396056
0.244213
0.42376
0.42469
0.421305
0.425495
0.404188
0.493291
0.396028
0.492478
0.482855
0.486734
0.491094
0.492141
0.492774
0.427639
0.479623
0.495825
0.494621
0.491614
0.479642
0.490853
0.472151
0.425738
0.495393
0.492209
0.432057
0.495574
0.365545
0.43259
0.495423
0.487058
0.495514
0.491676
0.354638
0.429939
0.495793
0.467459
0.490798
0.493102
0.491641
0.493376
0.491274
0.495438
0.489891
0.256026
0.494255
0.426313
0.425155
0.428287
0.480298
0.490345
0.49572
0.491361
0.492489
0.49192
0.496481
0.491078
0.465333
0.489623
0.490778
0.23968
0.467795
0.491283
0.495292
0.414458
0.490586
0.488357
0.487519
0.425441
0.491632
0.430391
0.431197
0.428455
0.490612
0.493222
0.489546
0.494972
0.493211
0.436087
0.495872
0.429318
0.491899
0.428043
0.496765
0.422199
0.49548
0.491122
0.495909
0.496346
0.490379
0.425057
0.495285
0.424485
0.492198
0.426249
0.429019
0.426971
0.489943
0.419504
0.495657
0.433276
0.486588
0.49331
0.425189
0.490978
0.490551
0.496137
0.495193
0.398894
0.424937
0.417429
0.425157
0.49062
0.494023
0.493972
0.424643
0.491181
0.491956
0.41714
0.420237
0.310689
0.295115
0.489974
0.439927
0.427569
0.198189
0.202678
0.407169
0.489739
0.422741
0.492751
0.490183
0.489288
0.495365
0.48994
0.48829
0.442476
0.431495
0.25822
0.488601
0.422481
0.488866
0.492463
0.425272
0.494459
0.466303
0.428864
0.468715
0.428183
0.424379
0.448999
0.364423
0.445019
0.489601
0.42982
0.418573
0.429273
0.494833
0.44254
0.424142
0.195835
0.422295
0.492103
0.419827
0.431333
0.492309
0.427624
0.491311
0.495159
0.423765
0.415132
0.424361
0.404044
0.488256
0.489549
0.42952
0.492158
0.494278
0.446717
0.424034
0.353979
0.424107
0.421236
0.486728
0.42277
0.421803
0.489471
0.496957
0.491102
0.419866
0.421625
0.419023
0.497491
0.428174
0.419661
0.493474
0.419066
0.489905
0.423401
0.420145
0.474849
0.488917
0.221887
0.226687
0.452049
0.454051
0.489478
0.4855
0.424621
0.419729
0.382244
0.381978
0.454142
0.495933
0.246128
0.493553
0.491657
0.489517
0.493893
0.493342
0.456065
0.424404
0.417551
0.490794
0.418888
0.487098
0.492671
0.421758
0.487313
0.421879
0.424138
0.48643
0.438056
0.489242