# vtk DataFile Version 1.0
unstructured grid
ascii
DATASET UNSTRUCTURED_GRID
points 8094 float
-0.25 0.0574735 0
0.5 0.0546937 0
0.5 -0.0546937 0
-0.25 -0.0574735 0
-0.25 0.0574735 0.01
0.5 0.0546937 0.01
0.5 -0.0546937 0.01
-0.25 -0.0574735 0.01
-0.246045 0.0569295 0
-0.242089 0.0563854 0
-0.238136 0.0558289 0
-0.234184 0.0552582 0
-0.230232 0.0546875 0
-0.226284 0.0540912 0
-0.222337 0.0534933 0
-0.218391 0.0528841 0
-0.214448 0.0522585 0
-0.210504 0.0516328 0
-0.206565 0.0509829 0
-0.202626 0.0503294 0
-0.198689 0.0496667 0
-0.194755 0.0489856 0
-0.190821 0.0483046 0
-0.18689 0.0476022 0
-0.182961 0.0468942 0
-0.179033 0.0461799 0
-0.175108 0.0454463 0
-0.171183 0.0447127 0
-0.167262 0.0439627 0
-0.163342 0.0432056 0
-0.159422 0.0424455 0
-0.155506 0.041668 0
-0.15159 0.0408904 0
-0.147675 0.0401031 0
-0.143762 0.0393092 0
-0.13985 0.0385149 0
-0.135939 0.0377103 0
-0.132028 0.0369056 0
-0.128117 0.0361005 0
-0.124207 0.0352949 0
-0.120296 0.0344893 0
-0.116386 0.0336836 0
-0.112475 0.032878 0
-0.108563 0.0320794 0
-0.104649 0.0312931 0
-0.100735 0.0305068 0
-0.0968152 0.029745 0
-0.0928949 0.0289889 0
-0.0889722 0.0282446 0
-0.0850433 0.0275341 0
-0.0811144 0.0268235 0
-0.0771778 0.0261578 0
-0.0732381 0.0255098 0
-0.0692962 0.0248759 0
-0.0653442 0.0243073 0
-0.0613923 0.0237386 0
-0.0574324 0.0232306 0
-0.0534681 0.0227556 0
-0.0495024 0.0222934 0
-0.0455272 0.0219207 0
-0.041552 0.0215481 0
-0.0375717 0.0212385 0
-0.0335881 0.0209694 0
-0.029604 0.0207098 0
-0.0256151 0.0205369 0
-0.0216262 0.0203639 0
-0.0176357 0.0202396 0
-0.0136441 0.0201487 0
-0.00965243 0.0200635 0
-0.00565987 0.0200372 0
-0.00166732 0.020011 0
0.00232526 0.0200121 0
0.00631785 0.0200329 0
0.0103104 0.0200563 0
0.0143027 0.0201109 0
0.018295 0.0201654 0
0.022287 0.0202345 0
0.0262788 0.0203144 0
0.0302706 0.0203957 0
0.034262 0.0204956 0
0.0382534 0.0205955 0
0.0422446 0.0207045 0
0.0462355 0.0208207 0
0.0502265 0.0209377 0
0.054217 0.0210676 0
0.0582075 0.0211975 0
0.0621978 0.0213339 0
0.0661879 0.0214757 0
0.0701781 0.021618 0
0.0741678 0.0217703 0
0.0781575 0.0219227 0
0.0821471 0.0220801 0
0.0861364 0.022242 0
0.0901258 0.0224041 0
0.0941148 0.0225747 0
0.0981038 0.0227453 0
0.102093 0.0229202 0
0.106081 0.023099 0
0.11007 0.0232779 0
0.114058 0.0234644 0
0.118046 0.0236509 0
0.122035 0.0238411 0
0.126022 0.024035 0
0.13001 0.0242288 0
0.133998 0.0244298 0
0.137986 0.0246308 0
0.141973 0.0248352 0
0.14596 0.025043 0
0.149947 0.0252509 0
0.153934 0.0254654 0
0.157921 0.02568 0
0.161908 0.0258978 0
0.165894 0.026119 0
0.169881 0.0263402 0
0.173867 0.0265678 0
0.177853 0.0267956 0
0.181839 0.0270264 0
0.185825 0.0272607 0
0.189811 0.0274951 0
0.193796 0.0277356 0
0.197781 0.0279764 0
0.201767 0.02822 0
0.205752 0.0284673 0
0.209737 0.0287146 0
0.213721 0.0289679 0
0.217706 0.0292217 0
0.22169 0.0294782 0
0.225674 0.0297385 0
0.229658 0.0299988 0
0.233642 0.0302651 0
0.237626 0.0305319 0
0.241609 0.0308014 0
0.245593 0.0310748 0
0.249576 0.0313482 0
0.253559 0.0316276 0
0.257542 0.0319077 0
0.261524 0.0321904 0
0.265507 0.0324772 0
0.269489 0.032764 0
0.273471 0.0330568 0
0.277453 0.0333504 0
0.281434 0.0336466 0
0.285416 0.0339471 0
0.289397 0.0342476 0
0.293378 0.034554 0
0.297359 0.0348615 0
0.301339 0.0351714 0
0.305319 0.0354859 0
0.3093 0.0358005 0
0.313279 0.036121 0
0.317259 0.0364427 0
0.321239 0.0367667 0
0.325218 0.0370957 0
0.329197 0.0374248 0
0.333175 0.0377597 0
0.337154 0.0380961 0
0.341132 0.0384347 0
0.34511 0.0387786 0
0.349088 0.0391226 0
0.353065 0.0394724 0
0.357042 0.0398239 0
0.361019 0.0401775 0
0.364995 0.0405368 0
0.368972 0.0408961 0
0.372948 0.0412613 0
0.376924 0.0416285 0
0.380899 0.0419975 0
0.384874 0.0423727 0
0.388849 0.0427479 0
0.392823 0.0431289 0
0.396798 0.0435123 0
0.400772 0.0438973 0
0.404745 0.044289 0
0.408718 0.0446807 0
0.412691 0.0450781 0
0.416664 0.0454782 0
0.420636 0.0458797 0
0.424608 0.0462883 0
0.42858 0.046697 0
0.432551 0.0471114 0
0.436521 0.0475289 0
0.440492 0.0479474 0
0.444462 0.0483738 0
0.448432 0.0488001 0
0.452401 0.0492319 0
0.45637 0.0496673 0
0.460338 0.0501035 0
0.464306 0.0505482 0
0.468274 0.0509928 0
0.472241 0.0514427 0
0.476208 0.0518968 0
0.480175 0.0523512 0
0.48414 0.0528148 0
0.488106 0.0532784 0
0.492071 0.0537471 0
0.496036 0.0542204 0
0.5 0.050787 0
0.5 0.0468803 0
0.5 0.0429736 0
0.5 0.0390669 0
0.5 0.0351602 0
0.5 0.0312535 0
0.5 0.0273468 0
0.5 0.0234402 0
0.5 0.0195335 0
0.5 0.0156268 0
0.5 0.0117201 0
0.5 0.00781339 0
0.5 0.00390669 0
0.5 1.43781e-13 0
0.5 -0.00390669 0
0.5 -0.00781339 0
0.5 -0.0117201 0
0.5 -0.0156268 0
0.5 -0.0195335 0
0.5 -0.0234402 0
0.5 -0.0273468 0
0.5 -0.0312535 0
0.5 -0.0351602 0
0.5 -0.0390669 0
0.5 -0.0429736 0
0.5 -0.0468803 0
0.5 -0.050787 0
0.496036 -0.0542204 0
0.492071 -0.0537471 0
0.488106 -0.0532784 0
0.48414 -0.0528148 0
0.480175 -0.0523512 0
0.476208 -0.0518968 0
0.472241 -0.0514427 0
0.468274 -0.0509928 0
0.464306 -0.0505482 0
0.460338 -0.0501035 0
0.45637 -0.0496673 0
0.452401 -0.0492319 0
0.448432 -0.0488001 0
0.444462 -0.0483738 0
0.440492 -0.0479474 0
0.436521 -0.0475289 0
0.432551 -0.0471114 0
0.42858 -0.046697 0
0.424608 -0.0462883 0
0.420636 -0.0458797 0
0.416664 -0.0454782 0
0.412691 -0.0450781 0
0.408718 -0.0446807 0
0.404745 -0.044289 0
0.400772 -0.0438973 0
0.396798 -0.0435123 0
0.392823 -0.0431289 0
0.388849 -0.0427479 0
0.384874 -0.0423727 0
0.380899 -0.0419975 0
0.376924 -0.0416285 0
0.372948 -0.0412613 0
0.368972 -0.0408961 0
0.364995 -0.0405368 0
0.361019 -0.0401775 0
0.357042 -0.0398239 0
0.353065 -0.0394724 0
0.349088 -0.0391226 0
0.34511 -0.0387786 0
0.341132 -0.0384347 0
0.337154 -0.0380961 0
0.333175 -0.0377597 0
0.329197 -0.0374248 0
0.325218 -0.0370957 0
0.321239 -0.0367667 0
0.317259 -0.0364427 0
0.313279 -0.036121 0
0.3093 -0.0358005 0
0.305319 -0.0354859 0
0.301339 -0.0351714 0
0.297359 -0.0348615 0
0.293378 -0.034554 0
0.289397 -0.0342476 0
0.285416 -0.0339471 0
0.281434 -0.0336466 0
0.277453 -0.0333504 0
0.273471 -0.0330568 0
0.269489 -0.032764 0
0.265507 -0.0324772 0
0.261524 -0.0321904 0
0.257542 -0.0319077 0
0.253559 -0.0316276 0
0.249576 -0.0313482 0
0.245593 -0.0310748 0
0.241609 -0.0308014 0
0.237626 -0.0305319 0
0.233642 -0.0302651 0
0.229658 -0.0299988 0
0.225674 -0.0297385 0
0.22169 -0.0294782 0
0.217706 -0.0292217 0
0.213721 -0.0289679 0
0.209737 -0.0287146 0
0.205752 -0.0284673 0
0.201767 -0.02822 0
0.197781 -0.0279764 0
0.193796 -0.0277356 0
0.189811 -0.0274951 0
0.185825 -0.0272607 0
0.181839 -0.0270264 0
0.177853 -0.0267956 0
0.173867 -0.0265678 0
0.169881 -0.0263402 0
0.165894 -0.026119 0
0.161908 -0.0258978 0
0.157921 -0.02568 0
0.153934 -0.0254654 0
0.149947 -0.0252509 0
0.14596 -0.025043 0
0.141973 -0.0248352 0
0.137986 -0.0246308 0
0.133998 -0.0244298 0
0.13001 -0.0242288 0
0.126022 -0.024035 0
0.122035 -0.0238411 0
0.118046 -0.0236509 0
0.114058 -0.0234644 0
0.11007 -0.0232779 0
0.106081 -0.023099 0
0.102093 -0.0229202 0
0.0981038 -0.0227453 0
0.0941148 -0.0225747 0
0.0901258 -0.0224041 0
0.0861364 -0.022242 0
0.0821471 -0.0220801 0
0.0781575 -0.0219227 0
0.0741678 -0.0217703 0
0.0701781 -0.021618 0
0.0661879 -0.0214757 0
0.0621978 -0.0213339 0
0.0582075 -0.0211975 0
0.054217 -0.0210676 0
0.0502265 -0.0209377 0
0.0462355 -0.0208207 0
0.0422446 -0.0207045 0
0.0382534 -0.0205955 0
0.034262 -0.0204956 0
0.0302706 -0.0203957 0
0.0262788 -0.0203144 0
0.022287 -0.0202345 0
0.018295 -0.0201654 0
0.0143027 -0.0201109 0
0.0103104 -0.0200563 0
0.00631785 -0.0200329 0
0.00232526 -0.0200121 0
-0.00166732 -0.020011 0
-0.00565987 -0.0200372 0
-0.00965243 -0.0200635 0
-0.0136441 -0.0201487 0
-0.0176357 -0.0202396 0
-0.0216262 -0.0203639 0
-0.0256151 -0.0205369 0
-0.029604 -0.0207098 0
-0.0335881 -0.0209694 0
-0.0375717 -0.0212385 0
-0.041552 -0.0215481 0
-0.0455272 -0.0219207 0
-0.0495024 -0.0222934 0
-0.0534681 -0.0227556 0
-0.0574324 -0.0232306 0
-0.0613923 -0.0237386 0
-0.0653442 -0.0243073 0
-0.0692962 -0.0248759 0
-0.0732381 -0.0255098 0
-0.0771778 -0.0261578 0
-0.0811144 -0.0268235 0
-0.0850433 -0.0275341 0
-0.0889722 -0.0282446 0
-0.0928949 -0.0289889 0
-0.0968152 -0.029745 0
-0.100735 -0.0305068 0
-0.104649 -0.0312931 0
-0.108563 -0.0320794 0
-0.112475 -0.032878 0
-0.116386 -0.0336836 0
-0.120296 -0.0344893 0
-0.124207 -0.0352949 0
-0.128117 -0.0361005 0
-0.132028 -0.0369056 0
-0.135939 -0.0377103 0
-0.13985 -0.0385149 0
-0.143762 -0.0393092 0
-0.147675 -0.0401031 0
-0.15159 -0.0408904 0
-0.155506 -0.041668 0
-0.159422 -0.0424455 0
-0.163342 -0.0432056 0
-0.167262 -0.0439627 0
-0.171183 -0.0447127 0
-0.175108 -0.0454463 0
-0.179033 -0.0461799 0
-0.182961 -0.0468942 0
-0.18689 -0.0476022 0
-0.190821 -0.0483046 0
-0.194755 -0.0489856 0
-0.198689 -0.0496667 0
-0.202626 -0.0503294 0
-0.206565 -0.0509829 0
-0.210504 -0.0516328 0
-0.214448 -0.0522585 0
-0.218391 -0.0528841 0
-0.222337 -0.0534933 0
-0.226284 -0.0540912 0
-0.230232 -0.0546875 0
-0.234184 -0.0552582 0
-0.238136 -0.0558289 0
-0.242089 -0.0563854 0
-0.246045 -0.0569295 0
-0.25 -0.0535098 0
-0.25 -0.0495461 0
-0.25 -0.0455824 0
-0.25 -0.0416187 0
-0.25 -0.0376551 0
-0.25 -0.0336914 0
-0.25 -0.0297277 0
-0.25 -0.025764 0
-0.25 -0.0218003 0
-0.25 -0.0178366 0
-0.25 -0.0138729 0
-0.25 -0.00990922 0
-0.25 -0.00594553 0
-0.25 -0.00198184 0
-0.25 0.00198184 0
-0.25 0.00594553 0
-0.25 0.00990922 0
-0.25 0.0138729 0
-0.25 0.0178366 0
-0.25 0.0218003 0
-0.25 0.025764 0
-0.25 0.0297277 0
-0.25 0.0336914 0
-0.25 0.0376551 0
-0.25 0.0416187 0
-0.25 0.0455824 0
-0.25 0.0495461 0
-0.25 0.0535098 0
-0.246045 0.0569295 0.01
-0.242089 0.0563854 0.01
-0.238136 0.0558289 0.01
-0.234184 0.0552582 0.01
-0.230232 0.0546875 0.01
-0.226284 0.0540912 0.01
-0.222337 0.0534933 0.01
-0.218391 0.0528841 0.01
-0.214448 0.0522585 0.01
-0.210504 0.0516328 0.01
-0.206565 0.0509829 0.01
-0.202626 0.0503294 0.01
-0.198689 0.0496667 0.01
-0.194755 0.0489856 0.01
-0.190821 0.0483046 0.01
-0.18689 0.0476022 0.01
-0.182961 0.0468942 0.01
-0.179033 0.0461799 0.01
-0.175108 0.0454463 0.01
-0.171183 0.0447127 0.01
-0.167262 0.0439627 0.01
[...]
CELL_DATA 7657
SCALARS rho float
LOOKUP_TABLE default
0.598231
0.5
0.5
0.5
0.586357
0.5
0.5
0.5
0.5
0.505982
0.505971
0.5
0.5
0.5
0.587664
0.593714
0.587951
0.5
0.5
0.5
0.588801
0.5
0.5
0.5
0.5
0.5
0.5
0.5
0.506026
0.5
0.5
0.5
0.5
0.597725
0.597948
0.5
0.5
0.5
0.597949
0.5
0.5
0.5
0.5
0.5
0.5
0.5
0.5
0.5
0.5
0.598373
0.5
0.5
0.505433
0.506067
0.5
0.5
0.588446
0.590943
0.504659
0.5
0.5
0.5
0.5
0.5
0.506278
0.506259
0.5
0.5
0.507141
0.502152
0.5
0.5
0.5
0.505412
0.596537
0.5
0.5
0.5
0.595647
0.5
0.5
0.5
0.5
0.5
0.5
0.513034
0.5
0.501485
0.5
0.5
0.505968
0.505962
0.506575
0.50656
0.5
0.523796
0.518099
0.5
0.5
0.5
0.5
0.5
0.5
0.58922
0.5
0.5
0.5
0.5
0.5
0.589473
0.5
0.5
0.5
0.5
0.5
0.500168
0.5
0.5
0.594402
0.5
0.506184
0.506197
0.5
0.5
0.5
0.5
0.5
0.5
0.5
0.5
0.5
0.5
0.5
0.5
0.5
0.5
0.59341
0.5
0.5
0.5
0.5
0.5
0.5
0.5
0.5
0.588826
0.5
0.5
0.5
0.5
0.5
0.508204
0.5
0.5
0.588677
0.5
0.5
0.5
0.5
0.5
0.5
0.591211
0.5
0.500111
0.5
0.5
0.598127
0.5
0.5
0.594045
0.5
0.5
0.5
0.5
0.5
0.5
0.5
0.524396
0.5
0.5
0.5
0.5
0.5
0.5
0.5
0.503084
0.5
0.5
0.5
0.524878
0.505765
0.505948
0.5
0.554307
0.5
0.5
0.5
0.591595
0.5
0.5
0.5
0.5
0.532009
0.500889
0.5
0.505566
0.5
0.5
0.595482
0.548338
0.5
0.5
0.5
0.5
0.5
0.5
0.5
0.509322
0.5
0.5
0.5
0.5
0.50639
0.5
0.5
0.5
0.5
0.5
0.5
0.506289
0.5
0.5
0.5
0.589135
0.594912
0.5
0.501327
0.5
0.5
0.591854
0.5
0.5
0.532289
0.5
0.593036
0.568982
0.5
0.56229
0.5
0.5
0.5
0.5
0.5
0.597133
0.5
0.5
0.5
0.586589
0.506322
0.5
0.5
0.505236
0.594657
0.5
0.5
0.5
0.500544
0.5
0.5
0.5
0.5
0.5
0.5
0.5
0.59139
0.5
0.5
0.5
0.5
0.5
0.5
0.5
0.5
0.5
0.5
0.5
0.5
0.5
0.5
0.5
0.5
0.5
0.5
0.505067
0.5
0.5
0.59763
0.5
0.500134
0.5
0.51778
0.545659
0.5
0.5
0.5
0.509445
0.5
0.5
0.5
0.5
0.5
0.500358
0.592176
0.5
0.5
0.592422
0.505271
0.58668
0.5
0.5
0.5
0.5
0.50525
0.502112
0.59407
0.583476
0.5
0.5
0.590556
0.5
0.5
0.581709
0.594644
0.5
0.5
0.500001
0.5
0.5
0.5
0.505341
0.5
0.5
0.5
0.594406
0.5
0.5
0.505683
0.5
0.5
0.590361
0.5
0.5
0.5
0.5
0.5
0.5
0.5
0.5
0.5
0.5
0.5
0.5
0.5
0.500214
0.588144
0.5
0.5
0.5
0.50656
0.513016
0.5
0.500016
0.5
0.5
0.5
0.5
0.5
0.500001
0.5
0.595192
0.5
0.5
0.5
0.5
0.505423
0.512107
0.597943
0.5
0.5
0.59096
0.5
0.5
0.5
0.5
0.5
0.502044
0.5
0.5
0.59114
0.5
0.5
0.5
0.5
0.505301
0.5
0.500015
0.59321
0.5
0.590601
0.587693
0.5
0.5
0.5
0.5
0.533733
0.5
0.5
0.5
0.5
0.5
0.5
0.5
0.5
0.5
0.5
0.5
0.518886
0.5
0.5
0.5
0.500079
0.5
0.5
0.5
0.5
0.59544
0.558177
0.5
0.594231
0.5
0.5
0.596106
0.5
0.505702
0.5
0.5
0.5
0.5
0.587801
0.500122
0.5
0.5
0.5
0.5
0.5
0.525581
0.5
0.593348
0.594181
0.536782
0.598761
0.5
0.5
0.518929
0.5
0.5
0.5
0.5
0.5
0.5
0.505677
0.5
0.500009
0.598207
0.589461
0.5
0.5
0.5
0.5
0.505556
0.500284
0.505894
0.5
0.5
0.5
0.5
0.5
0.5
0.506043
0.5
0.591516
0.5
0.5
0.550297
0.5
0.5
0.5
0.5
0.597704
0.598056
0.5
0.5
0.500047
0.5
0.501343
0.503085
0.5
0.5
0.500211
0.595104
0.5
0.5
0.5
0.591779
0.5
0.5
0.596341
0.5
0.597144
0.5
0.593463
0.5
0.5
0.5
0.5
0.5
0.505384
0.5
0.505517
0.5
0.5
0.594796
0.5
0.500008
0.5
0.5
0.5
0.5
0.5
0.5
0.5
0.5
0.500045
0.5
0.5
0.5
0.5
0.5
0.5
0.5
0.594541
0.5
0.500008
0.5
0.596947
0.595678
0.5
0.5
0.5
0.598418
0.595193
0.5
0.5
0.5
0.5
0.596162
0.505915
0.5
0.5
0.593477
0.525283
0.5
0.5
0.5
0.509737
0.5
0.5
0.5
0.5
0.5
0.5
0.5
0.513808
0.5
0.5
0.500005
0.5
0.500133
0.510988
0.5
0.5
0.5
0.5
0.500044
0.506782
0.5
0.5
0.5
0.5
0.5
0.541421
0.589773
0.5
0.5
0.5
0.5
0.5
0.55925
0.5
0.589128
0.5
0.5
0.5
0.596029
0.5
0.594721
0.5
0.500028
0.500025
0.5
0.5
0.511077
0.50556
0.5
0.5
0.5
0.5
0.500128
0.500217
0.5
0.5
0.5
0.507744
0.5
0.5
0.5
0.500015
0.5
0.524677
0.5
0.534777
0.5
0.5
0.5
0.5
0.5
0.5
0.5
0.5
0.5
0.595959
0.5
0.5
0.5
0.5
0.5
0.5
0.5
0.5
0.5
0.5
0.5
0.594349
0.500044
0.5
0.5
0.500025
0.5
0.5
0.5
0.5
0.513774
0.500005
0.59434
0.5
0.5
0.5
0.5
0.5
0.5
0.5
0.5
0.5
0.5
0.5
0.5
0.5
0.5
0.5
0.5
0.577436
0.5
0.5
0.5
0.5
0.5
0.5
0.5
0.587258
0.587928
0.5
0.5
0.5
0.5
0.5
0.5
0.5
0.5
0.5
0.5
0.5
0.5
0.5
0.515839
0.5
0.5
0.594094
0.505745
0.542049
0.500008
0.5
0.5
0.5
0.5
0.555379
0.5
0.5
0.517496
0.5
0.506839
0.5
0.57477
0.5
0.500001
0.5
0.500074
0.5
0.500005
0.5
0.5
0.5
0.5
0.578948
0.504612
0.5
0.5
0.5
0.5
0.5
0.5
0.506188
0.5
0.5
0.596576
0.515558
0.587226
0.557571
0.5
0.544313
0.505331
0.5
0.548489
0.5
0.5
0.5
0.5
0.5
0.5
0.5
0.5
0.5
0.5
0.595445
0.5
0.559377
0.5
0.595689
0.586272
0.566931
0.5
0.5
0.5
0.5
0.5
0.5
0.5
0.569306
0.5
0.50986
0.5
0.500026
0.5
0.5
0.5
0.5
0.594602
0.5
0.503094
0.5
0.500003
0.583631
0.5
0.5
0.5
0.500001
0.506806
0.506786
0.5
0.581573
0.5
0.552359
0.5
0.5
0.5
0.5
0.585257
0.5
0.5
0.5
0.588577
0.5
0.5
0.5
0.5
0.5
0.525543
0.5
0.5
0.500077
0.5
0.5
0.5
0.5
0.5
0.5
0.5
0.595926
0.5
0.586389
0.5
0.5
0.5
0.5
0.506188
0.523862
0.586792
0.5
0.502041
0.525766
0.5
0.585993
0.510865
0.5
0.5
0.5
0.5
0.500123
0.543474
0.500124
0.589177
0.586859
0.5
0.589515
0.586514
0.5
0.5
0.5
0.5
0.587531
0.5
0.5
0.516369
0.5
0.5
0.587196
0.5
0.5
0.582076
0.586438
0.5
0.584677
0.5
0.500923
0.5
0.5
0.5
0.5
0.5
0.5
0.584495
0.5
0.5
0.5
0.586869
0.585794
0.58721
0.585862
0.5
0.587872
0.541764
0.58822
0.58755
0.593793
0.5
0.593447
0.5
0.5
0.5
0.542535
0.5
0.5
0.5
0.5
0.500535
0.500538
0.563135
0.5
0.587895
0.5
0.5
0.519243
0.5
0.5
0.546192
0.5
0.501325
0.5
0.588248
0.50055
0.500537
0.5
0.593986
0.5
0.5
0.5
0.504636
0.504629
0.5
0.5
0.5
0.5
0.5
0.53245
0.5
0.5
0.5
0.5
0.5
0.5
0.5
0.5
0.5
0.5
0.5
0.5
0.5
0.5
0.5
0.5
0.5
0.5
0.590475
0.5
0.5
0.5
0.5
0.5
0.5
0.552889
0.5
0.5
0.598378
0.59835
0.5
0.5
0.581643
0.5
0.5
0.5
0.5
0.5
0.5
0.588887
0.5
0.5
0.5
0.5
0.5
0.5
0.5
0.5
0.5
0.588861
0.5
0.5
0.519088
0.54141
0.529858
0.500001
0.5
0.5
0.5
0.5
0.500008
0.589839
0.5
0.5
0.5
0.5
0.5
0.586896
0.5
0.5
0.5
0.51635
0.5
0.5
0.5
0.5
0.5
0.5
0.590816
0.5
0.5
0.5
0.5
0.5
0.5
0.5
0.590151
0.5
0.5
0.5
0.5
0.5
0.510276
0.5
0.554885
0.5
0.5
0.5
0.564518
0.5
0.5
0.5
0.5
0.5
0.5
0.597968
0.5
0.5513
0.5
0.5
0.586316
0.541486
0.5
0.589819
0.586601
0.590833
0.5
0.5
0.5
0.5
0.557591
0.5
0.5
0.5
0.598371
0.5
0.5
0.5
0.5
0.5
0.5
0.5
0.586843
0.5
0.5
0.5
0.511179
0.5
0.598192
0.5
0.5
0.5
0.5
0.550606
0.5
0.58338
0.574557
0.586466
0.5
0.5
0.5
0.5
0.5
0.5
0.5
0.5
0.500015
0.500027
0.5
0.591184
0.5
0.5
0.5
0.5
0.5
0.594923
0.525401
0.5
0.5
0.5
0.5
0.5
0.5
0.5
0.5
0.5
0.5
0.5
0.5
0.571083
0.596523
0.5
0.597436
0.5
0.593705
0.5
0.563196
0.591607
0.5
0.5
0.5
0.591574
0.588476
0.5
0.5
0.5
0.591983
0.5
0.5
0.594328
0.5
0.5
0.5
0.5
0.5
0.5
0.5
0.5
0.5
0.5
0.5
0.5
0.5
0.5
0.517756
0.5
0.541193
0.5
0.5
0.5
0.5
0.5
0.5
0.5
0.584272
0.5
0.5
0.574675
0.5
0.5
0.5
0.500845
0.500852
0.5
0.582919
0.5
0.5
0.536912
0.5
0.5
0.5
0.5
0.52611
0.534339
0.5
0.5
0.5
0.5
0.5
0.5
0.5
0.5
0.5
0.5
0.5
0.5
0.5
0.5
0.533679
0.5
0.531862
0.5
0.5
0.588943
0.5
0.59202
0.5
0.5
0.5
0.588874
0.5
0.588835
0.5
0.5
0.5
0.554375
0.590137
0.5
0.5
0.5
0.5
0.5
0.589225
0.5
0.5
0.5
0.5
0.597755
0.5
0.598061
0.596401
0.5
0.5
0.5
0.5
0.5
0.5
0.5
0.5
0.5
0.5
0.5
0.5
0.5
0.5
0.5
0.5
0.5
0.5
0.5
0.564082
0.5
0.5
0.5
0.5
0.5
0.5
0.5
0.5
0.5
0.5
0.591885
0.5
0.5
0.510693
0.5
0.5
0.5
0.5
0.592409
0.5
0.5
0.5
0.59121
0.5
0.5
0.59766
0.5
0.5
0.5
0.5
0.5
0.5
0.5
0.527548
0.5
0.5
0.5
0.5
0.5
0.5
0.5
0.5
0.5
0.5
0.5
0.5
0.580707
0.5863
0.5
0.5
0.5
0.5
0.5
0.5
0.5
0.5
0.5
0.5
0.5
0.5
0.5
0.5
0.5
0.5
0.5
0.5
0.5
0.5
0.5
0.5
0.5
0.5
0.589466
0.5
0.5
0.57053
0.5
0.5
0.5
0.535815
0.589871
0.5
0.5
0.5
0.5
0.5
0.5
0.5
0.5
0.5
0.5
0.5
0.5
0.5
0.5
0.5
0.5
0.5
0.5
0.5
0.5
0.5883
0.589513
0.5
0.5
0.5
0.5
0.5
0.5
0.5
0.5
0.5
0.5
0.5
0.5
0.5
0.5
0.5
0.5
0.5
0.5
0.5
0.5
0.589253
0.5
0.5
0.5
0.5
0.5
0.5
0.589558
0.5
0.5
0.594386
0.5
0.5
0.5
0.5
0.5
0.5
0.5
0.5
0.5
0.5
0.5
0.51105
0.508697
0.5
0.5
0.5
0.5
0.5
0.5
0.5
0.5
0.5
0.598537
0.5
0.5
0.5
0.5
0.5
0.5
0.5
0.513235
0.5
0.5
0.5
0.5
0.5
0.5
0.5
0.5
0.588607
0.523802
0.561265
0.5
0.5
0.5
0.5
0.5
0.5
0.5
0.5
0.5
0.5
0.5
0.519678
0.5
0.500003
0.591525
0.5
0.5
0.550914
0.5
0.5
0.589796
0.5
0.5
0.592848
0.5
0.524436
0.5
0.5
0.5
0.51618
0.593297
0.591918
0.5
0.5
0.5
0.5
0.529124
0.5
0.509273
0.5
0.5
0.5
0.5
0.5
0.592448
0.5
0.5
0.508655
0.5
0.513406
0.513671
0.508309
0.5
0.5
0.511733
0.5
0.531012
0.586949
0.5
0.5
0.595014
0.5
0.5
0.508906
0.5
0.5
0.5
0.5
0.5
0.5
0.579258
0.5
0.5
0.594024
0.520741
0.5
0.531031
0.5
0.5
0.519134
0.520338
0.589928
0.5
0.589596
0.5
0.5
0.5
0.5
0.5
0.513084
0.5
0.523808
0.529849
0.5
0.5
0.5
0.5
0.5
0.5
0.5
0.5
0.5
0.589915
0.579588
0.5
0.5
0.5
0.5
0.5
0.509478
0.5
0.515514
0.5
0.538876
0.5
0.5
0.5
0.590267
0.5
0.587536
0.5
0.5
0.5
0.5
0.5
0.5
0.5
0.5
0.531414
0.5
0.5
0.5
0.5
0.5
0.5
0.5
0.5
0.5
0.5
0.5
0.580351
0.5
0.5
0.541332
0.5
0.5
0.5
0.5
0.5
0.5
0.5
0.5
0.5
0.5
0.5
0.5
0.5
0.53944
0.5
0.5
0.5
0.59792
0.5
0.5
0.5
0.5
0.5
0.5
0.5
0.5
0.5
0.5
0.535641
0.5
0.5
0.595179
0.5
0.5
0.5
0.5
0.5
0.5
0.5
0.5
0.5
0.5
0.5
0.5
0.5
0.5
0.5
0.500852
0.532013
0.5
0.5
0.5
0.549145
0.549912
0.513546
0.5
0.582542
0.588393
0.5
0.50945
0.5
0.592886
0.58718
0.507252
0.5
0.5
0.5
0.5
0.5
0.5
0.546615
0.5
0.5
0.5
0.5
0.5
0.593638
0.5
0.5
0.590422
0.590136
0.5
0.574281
0.545548
0.5
0.591809
0.5
0.5
0.58701
0.5
0.5
0.547597
0.5
0.550365
0.513462
0.5
0.565236
0.506619
0.594353
0.5
0.5
0.5
0.568267
0.519436
0.599128
0.552913
0.5
0.506974
0.5
0.5
0.5
0.5
0.5
0.520196
0.5
0.5
0.5
0.5
0.590787
0.570984
0.593971
0.5
0.5
0.5
0.587848
0.5
0.505909
0.577787
0.582898
0.5
0.5
0.5
0.567017
0.5
0.508595
0.5
0.599082
0.588185
0.5
0.593679
0.5
0.5
0.585054
0.587851
0.547688
0.579817
0.594653
0.524271
0.509868
0.59368
0.5
0.5
0.544388
0.513602
0.5
0.5
0.5
0.5
0.5
0.589103
0.5
0.5
0.51777
0.522668
0.5
0.509783
0.585512
0.5
0.5
0.5
0.587198
0.584127
0.5
0.576429
0.513965
0.594283
0.572326
0.586715
0.509201
0.590196
0.55646
0.5
0.5
0.599308
0.5
0.533563
0.533575
0.597865
0.5
0.5
0.5
0.580847
0.59636
0.509895
0.5
0.5
0.5
0.540556
0.58853
0.5
0.5
0.587521
0.572147
0.554225
0.5
0.5
0.5
0.5
0.560767
0.5
0.5
0.585107
0.585475
0.5
0.5
0.563425
0.5
0.5
0.584216
0.5
0.590167
0.5
0.5
0.514936
0.508469
0.5
0.5
0.5
0.587466
0.509722
0.5
0.543945
0.58947
0.5
0.587092
0.5
0.5
0.58609
0.5
0.5
0.583968
0.5
0.518428
0.51256
0.600134
0.5
0.5
0.5
0.5
0.5
0.5
0.532198
0.5
0.586675
0.544531
0.584774
0.588086
0.565458
0.5
0.520962
0.5
0.581817
0.5
0.548969
0.588715
0.590301
0.539153
0.589358
0.5
0.5
0.5
0.5
0.5
0.512849
0.5
0.5
0.5
0.5
0.586003
0.53921
0.585674
0.5
0.591109
0.551959
0.5
0.5
0.584905
0.583706
0.5
0.50824
0.5
0.5
0.507525
0.582849
0.583047
0.5
0.588665
0.55872
0.587052
0.556149
0.564722
0.512937
0.588977
0.558832
0.5
0.5
0.5
0.5
0.5
0.587798
0.587542
0.590019
0.59057
0.587517
0.59788
0.555987
0.5
0.5
0.587868
0.586539
0.512229
0.5
0.5885
0.576926
0.5
0.5
0.5
0.557087
0.589223
0.522472
0.587422
0.5
0.5
0.587885
0.5
0.56008
0.593218
0.589157
0.5
0.590699
0.5
0.5
0.589391
0.519456
0.5
0.5
0.5
0.591806
0.588161
0.594565
0.590468
0.586151
0.586226
0.58876
0.587233
0.587839
0.5
0.589541
0.570412
0.589885
0.5
0.521848
0.576308
0.594965
0.584414
0.587714
0.58236
0.5
0.519951
0.587351
0.589296
0.589293
0.584076
0.5
0.572968
0.5
0.5
0.585712
0.586212
0.586615
0.589939
0.560929
0.588664
0.526491
0.588194
0.5
0.586987
0.5
0.5
0.5
0.5
0.572389
0.590597
0.585059
0.5
0.588421
0.589129
0.589056
0.59182
0.587879
0.588838
0.5
0.589708
0.594466
0.587846
0.591484
0.5
0.508801
0.5
0.513841
0.586795
0.552656
0.599381
0.590377
0.5
0.5
0.5
0.594512
0.59081
0.589228
0.5
0.5
0.509099
0.58986
0.570712
0.592227
0.591145
0.582581
0.587553
0.587577
0.586723
0.588509
0.590305
0.589468
0.5
0.562636
0.5
0.5
0.5
0.5
0.5
0.5
0.5
0.588492
0.5
0.589821
0.598974
0.595498
0.590839
0.589656
0.5895
0.5
0.600375
0.507899
0.58666
0.590211
0.60068
0.591067
0.589911
0.5
0.556988
0.589319
0.5
0.542066
0.5
0.5
0.578446
0.595389
0.566336
0.590667
0.5
0.5
0.515523
0.564379
0.591212
0.588044
0.5915
0.588162
0.590595
0.554201
0.592334
0.5
0.586495
0.5
0.5
0.5
0.59997
0.591707
0.529162
0.590532
0.589864
0.590482
0.549443
0.590969
0.548077
0.592522
0.591502
0.5
0.565144
0.591487
0.583828
0.5
0.591401
0.594058
0.594918
0.5
0.590384
0.5
0.500039
0.5
0.591363
0.588169
0.59289
0.586107
0.588963
0.500108
0.51894
0.5
0.590106
0.5
0.528839
0.5
0.573147
0.591156
0.571954
0.511603
0.591671
0.500011
0.585572
0.5
0.590027
0.5
0.5
0.5
0.592293
0.5
0.575859
0.500063
0.595867
0.58821
0.5
0.591484
0.591841
0.517968
0.585297
0.5
0.5
0.5
0.5
0.591822
0.588813
0.588854
0.5
0.590661
0.590401
0.5
0.500005
0.5
0.5
0.592128
0.500248
0.5
0.5
0.5
0.5
0.592596
0.500007
0.5896
0.592194
0.59322
0.576968
0.592529
0.594137
0.500408
0.5
0.5
0.594215
0.5
0.593593
0.589763
0.5
0.587049
0.555953
0.5
0.57217
0.500022
0.5
0.501678
0.5
0.500709
0.59256
0.5
0.5
0.5
0.586331
0.500437
0.5
0.5
0.5
0.590138
0.5
0.5
0.590166
0.5
0.590565
0.575936
0.5
0.5
0.5
0.5
0.594564
0.592645
0.5
0.589801
0.585935
0.501063
0.5
0.5
0.5
0.5
0.595755
0.500007
0.5
0.592768
0.521432
0.591222
0.5
0.5
0.5
0.517301
0.50002
0.5
0.587568
0.5
0.592208
0.5
0.5
0.59762
0.593333
0.5
0.5
0.503364
0.505058
0.592936
0.596988
0.5
0.5
0.5
0.5
0.505337
0.579057
0.5
0.588531
0.590185
0.592724
0.58822
0.587678
0.507886
0.5
0.5
0.591272
0.5
0.595336
0.588674
0.5
0.595109
0.5
0.5
0.595717
0.50017
0.592962
0.500005
0.5
0.593
0.5
0.5
0.5
0.591811
0.5
0.592132
0.5
0.595676
0.5
0.58998
0.5
0.593174
0.5
0.5
0.5
0.5
0.5
0.5
0.5
0.5
0.5
0.5
0.5
0.536754
0.596584
0.600344
0.596077
0.594308
0.5
0.5
0.587895
0.577469
0.5
0.5
0.593919
0.592641
0.59537
0.596683
0.5
0.594145
0.510407
0.5
0.527122
0.58654
0.596846
0.514074
0.5
0.5
0.500013
0.5
0.593492
0.5
0.593751
0.5
0.5
0.5
0.500003
0.5
0.5
0.5
0.5
0.592155
0.596313
0.5
0.590809
0.595144
0.5
0.5
0.5
0.5
0.502454
0.594109
0.595483
0.5
0.5
0.5946
0.5
0.559979
0.5
0.591532
0.5
0.5
0.5
0.5
0.508373
0.5
0.5
0.5613
0.594999
0.520228
0.594804
0.586354
0.5
0.5
0.5
0.5
0.5
0.591915
0.551215
0.588184
0.512109
0.5
0.500158
0.542815
0.597207
0.595475
0.534001
0.510339
0.5
0.5
0.588927
0.55078
0.5
0.5
0.590488
0.595584
0.588488
0.5
0.5
0.5
0.5
0.594207
0.5
0.5
0.596021
0.595457
0.5
0.595046
0.569966
0.583112
0.5
0.5
0.519446
0.500075
0.595901
0.5
0.5
0.5
0.595899
0.594582
0.594608
0.5
0.5
0.5
0.5
0.595929
0.595175
0.51084
0.5
0.59503
0.5
0.5
0.5
0.5
0.5
0.594625
0.593408
0.591044
0.597205
0.5
0.5
0.5
0.5
0.5
0.5
0.5
0.5
0.5
0.5
0.500054
0.5
0.595197
0.5
0.5
0.500144
0.596251
0.5
0.5
0.5
0.5
0.509817
0.509793
0.597913
0.5
0.594705
0.5
0.500205
0.596354
0.587317
0.500084
0.5
0.57645
0.5
0.595068
0.5
0.5
0.500019
0.5
0.5
0.5
0.500221
0.533131
0.532914
0.50037
0.5
0.5
0.50003
0.5
0.500126
0.5
0.590161
0.597327
0.5
0.5
0.596827
0.5
0.598461
0.5
0.500309
0.50051
0.5
0.5
0.5
0.600513
0.5
0.5
0.500558
0.502312
0.5
0.500043
0.5
0.500911
0.5
0.5
0.500001
0.501338
0.5
0.59752
0.5
0.589148
0.5
0.600381
0.500075
0.5
0.5
0.5
0.5
0.59704
0.50212
0.5
0.5
0.505137
0.5
0.591112
0.5
0.500284
0.5
0.597106
0.5
0.5
0.5
0.597643
0.58407
0.597734
0.5
0.507799
0.500003
0.595719
0.503048
0.5
0.5
0.5
0.5
0.500206
0.59664
0.513862
0.510411
0.5
0.597122
0.5
0.597581
0.599365
0.598175
0.5
0.597834
0.5
0.500017
0.5
0.5
0.5
0.5
0.5
0.5
0.500002
0.5
0.598827
0.5
0.5
0.5
0.5
0.5
0.5
0.5
0.598616
0.500001
0.559614
0.519455
0.501804
0.5
0.500004
0.515004
0.594951
0.594732
0.5
0.600378
0.5
0.599181
0.566259
0.5
0.5
0.5
0.501229
0.5
0.5
0.50468
0.5
0.597279
0.500003
0.500215
0.500015
0.503608
0.567685
0.567397
0.5442
0.5
0.5
0.532931
0.597348
0.523466
0.5
0.5
0.5
0.598327
0.500766
0.54729
0.5
0.502811
0.538586
0.5
0.526491
0.561246
0.598798
0.5
0.5
0.599829
0.5
0.518187
0.5
0.598066
0.500201
0.5
0.597291
0.500356
0.538707
0.5
0.5
0.5
0.5
0.5
0.5
0.5
0.5
0.5
0.500969
0.5
0.599657
0.56445
0.597815
0.5
0.598148
0.596853
0.5
0.554044
0.52831
0.59936
0.5
0.500002
0.5
0.556115
0.5
0.5
0.5
0.5
0.5
0.5
0.581257
0.5
0.597803
0.600022
0.5
0.501513
0.531193
0.542055
0.5
0.598094
0.5
0.598195
0.595336
0.5
0.5
0.5
0.572293
0.5
0.593784
0.578961
0.578885
0.57533
0.5
0.5
0.52245
0.502309
0.598075
0.576188
0.5
0.5
0.597179
0.600204
0.547236
0.593852
0.5
0.597022
0.598186
0.570193
0.564495
0.506506
0.5
0.5
0.500033
0.580174
0.587183
0.596511
0.597819
0.597089
0.5
0.5
0.586157
0.596328
0.5
0.5
0.584641
0.600965
0.5
0.584365
0.578957
0.5
0.5
0.5
0.596646
0.5
0.5
0.5
0.59153
0.5
0.5
0.600677
0.589183
0.5
0.5
0.5
0.5
0.500002
0.600813
0.5
0.512918
0.5
0.5
0.5
0.5
0.5
0.5
0.500009
0.5
0.589285
0.5
0.5
0.598604
0.592536
0.5
0.5
0.5
0.592206
0.596805
0.596967
0.5
0.5
0.597341
0.5
0.5
0.5
0.5
0.5
0.5
0.5
0.5
0.599247
0.5
0.5
0.5
0.5
0.5
0.5
0.5
0.5
0.5
0.599123
0.600974
0.5
0.5
0.5
0.5
0.5
0.5
0.5
0.5
0.5
0.571364
0.500003
0.582923
0.600336
0.5
0.5
0.596843
0.5
0.5
0.5
0.5
0.5
0.5
0.5
0.5
0.5
0.5
0.5
0.5
0.5
0.5
0.598506
0.5
0.5
0.5
0.5
0.560025
0.5
0.5
0.5
0.5
0.5
0.5
0.5
0.5
0.5
0.5
0.5
0.5
0.5
0.5
0.5
0.59881
0.5
0.57508
0.5
0.5
0.5
0.5
0.5
0.5
0.589267
0.5
0.598345
0.597296
0.597837
0.5
0.59638
0.597346
0.5
0.596849
0.595513
0.600856
0.5
0.5
0.5
0.5
0.5
0.5
0.5
0.5
0.5
0.590432
0.5
0.5
0.5
0.5
0.5
0.59932
0.5
0.5
0.588713
0.5
0.5
0.5
0.559148
0.5
0.600923
0.5
0.601154
0.5
0.5
0.595069
0.5
0.600269
0.5
0.5
0.599151
0.5
0.5
0.5
0.5
0.5
0.5
0.5
0.5
0.5
0.5
0.599767
0.5
0.5
0.5
0.5
0.5
0.5
0.598179
0.5
0.5
0.5
0.5
0.5
0.5
0.5
0.5
0.5
0.5
0.5
0.5
0.5
0.5
0.5
0.598847
0.5
0.5
0.5
0.5
0.5
0.5
0.594974
0.592636
0.5
0.5
0.5
0.5
0.5
0.5
0.5
0.5
0.5
0.5
0.5
0.5
0.5
0.5
0.5
0.5
0.5
0.5
0.5
0.5
0.5
0.5
0.5
0.5
0.5
0.5
0.584878
0.600032
0.5
0.5
0.597983
0.5
0.5
0.5
0.5
0.5
0.5
0.5
0.596448
0.5
0.5
0.5
0.5
0.5
0.5
0.5
0.5
0.5
0.5
0.600044
0.5
0.5
0.5
0.5
0.5
0.5
0.600651
0.5
0.5
0.5
0.5
0.5
0.5
0.5
0.5
0.5
0.5
0.5
0.5
0.5
0.5
0.5
0.5
0.5
0.5
0.601074
0.5
0.5
0.5
0.5
0.5
0.5
0.5
0.5
0.5
0.5
0.5
0.5
0.5
0.5
0.5
0.5
0.5
0.5
0.5
0.5
0.598889
0.5
0.5
0.5
0.584262
0.596815
0.590016
0.5
0.5
0.5
0.5
0.5
0.5
0.5
0.5
0.5
0.5
0.5
0.5
0.5
0.5
0.5
0.5
0.5
0.5
0.5
0.5
0.5
0.5
0.5
0.5
0.5
0.5
0.5
0.5
0.5
0.5
0.5
0.58776
0.5
0.5
0.5
0.5
0.5
0.5
0.5
0.5
0.5
0.5
0.5
0.5
0.5
0.5
0.5
0.5
0.5
0.5
0.5
0.5
0.5
0.5
0.5
0.5
0.5
0.5
0.5
0.5
0.5
0.5
0.5
0.5
0.5
0.5
0.5
0.5
0.5
0.5
0.5
0.5
0.596387
0.5
0.5
0.5
0.5
0.5
0.5
0.5
0.5
0.5
0.5
0.5
0.5
0.5
0.5
0.5
0.5
0.5
0.5
0.5
0.5
0.5
0.5
0.5
0.5
0.5
0.5
0.5
0.5
0.5
0.5
0.5
0.5
0.599351
0.5
0.5
0.5
0.5
0.5
0.5
0.5
0.5
0.5
0.5
0.5
0.5
0.5
0.5
0.5
0.5
0.5
0.5
0.5
0.5
0.5
0.5
0.5
0.5
0.5
0.5
0.5
0.5
0.5
0.5
0.5
0.5
0.5
0.5
0.5
0.5
0.5
0.5
0.5
0.5
0.5
0.5
0.5
0.5
0.5
0.5
0.5
0.5
0.5
0.5
0.5
0.5
0.5
0.5
0.5
0.5
0.5
0.5
0.5
0.5
0.5
0.5
0.5
0.5
0.5
0.5
0.5
0.5
0.5
0.5
0.5
0.5
0.5
0.5
0.5
0.5
0.5
0.5
0.5
0.5
0.5
0.5
0.5
0.5
0.5
0.5
0.5
0.5
0.5
0.5
0.5
0.5
0.5
0.5
0.5
0.5
0.5
0.5
0.5
0.5
0.5
0.5
0.5
0.5
0.5
0.5
0.5
0.5
0.5
0.5
0.5
0.5
0.5
0.5
0.5
0.5
0.5
0.5
0.5
0.5
0.5
0.5
0.5
0.5
0.597367
0.5
0.5
0.5
0.5
0.5
0.5
0.5
0.5
0.5
0.5
0.5
0.5
0.5
0.5
0.5
0.5
0.5
0.5
0.5
0.5
0.5
0.5
0.5
0.5
0.600603
0.5
0.5
0.5
0.5
0.5
0.5
0.5
0.5
0.5
0.5
0.5
0.5
0.5
0.5
0.5
0.5
0.5
0.5
0.5
0.5
0.5
0.5
0.5
0.5
0.5
0.5
0.5
0.5
0.5
0.5
0.5
0.5
0.5
0.5
0.5
0.5
0.5
0.5
0.5
0.5
0.5
0.5
0.5
0.5
0.5
0.5
0.5
0.5
0.5
0.5
0.5
0.5
0.5
0.5
0.5
0.5
0.5
0.5
0.5
0.5
0.5
0.5
0.5
0.5
0.5
0.5
0.5
0.5
0.5
0.5
0.5
0.5
0.60137
0.5
0.5
0.5
0.5
0.5
0.5
0.5
0.5
0.5
0.5
0.5
0.5
0.5
0.5
0.5
0.597976
0.5
0.5
0.5
0.5
0.5
0.5
0.5
0.5
0.5
0.5
0.5
0.5
0.5
0.5
0.5
0.5
0.5
0.5
0.5
0.5
0.5
0.5
0.5
0.5
0.5
0.5
0.5
0.5
0.5
0.5
0.5
0.5
0.5
0.5
0.5
0.5
0.5
0.5
0.5
0.5
0.5
0.5
0.5
0.5
0.5
0.5
0.5
0.5
0.5
0.5
0.5
0.5
0.5
0.5
0.5
0.5
0.5
0.5
0.5
0.5
0.5
0.5
0.5
0.5
0.5
0.5
0.5
0.5
0.5
0.5
0.5
0.5
0.5
0.5
0.5
0.5
0.5
0.5
0.5
0.5
0.5
0.5
0.5
0.5
0.5
0.5
0.5
0.5
0.5
0.5
0.5
0.5
0.5
0.600747
0.5
0.5
0.5
0.5
0.5
0.5
0.5
0.5
0.5
0.5
0.5
0.5
0.5
0.5
0.5
0.5
0.5
0.5
0.5
0.5
0.5
0.5
0.5
0.5
0.5
0.5
0.5
0.5
0.5
0.5
0.5
0.5
0.5
0.5
0.5
0.5
0.5
0.5
0.5
0.5
0.5
0.5
0.5
0.5
0.5
0.5
0.5
0.5
0.5
0.5
0.5
0.5
0.5
0.5
0.5
0.5
0.5
0.5
0.5
0.5
0.5
0.5
0.5
0.5
0.5
0.5
0.5
0.5
0.5
0.5
0.5
0.5
0.5
0.5
0.5
0.5
0.5
0.5
0.597235
0.597106
0.5
0.5
0.5
0.5
0.5
0.5
0.5
0.5
0.500333
0.5
0.5
0.595693
0.59315
0.5
0.590096
0.590161
0.5
0.5
0.593209
0.595899
0.5
0.500333
0.5
0.5
0.5
0.5
0.5
0.5
0.5
0.5
0.5
0.5
0.5
0.5
0.5
0.5
0.5
0.5
0.5
0.5
0.5
0.5
0.5
0.5
0.5
0.5
0.5
0.5
0.5
0.5
0.5
0.5
0.5
0.5
0.5
0.5
0.5
0.5
0.5
0.5
0.5
0.5
0.5
0.5
0.5
0.5
0.5
0.5
0.5
0.5
0.5
0.5
0.5
0.5
0.5
0.5
0.5
0.5
0.5
0.5
0.5
0.5
0.59881
0.5
0.5
0.5