# vtk DataFile Version 1.0
unstructured grid
ascii
DATASET UNSTRUCTURED_GRID
points 8094 float
-0.25 0.0574735 0
0.5 0.0546937 0
0.5 -0.0546937 0
-0.25 -0.0574735 0
-0.25 0.0574735 0.01
0.5 0.0546937 0.01
0.5 -0.0546937 0.01
-0.25 -0.0574735 0.01
-0.246045 0.0569295 0
-0.242089 0.0563854 0
-0.238136 0.0558289 0
-0.234184 0.0552582 0
-0.230232 0.0546875 0
-0.226284 0.0540912 0
-0.222337 0.0534933 0
-0.218391 0.0528841 0
-0.214448 0.0522585 0
-0.210504 0.0516328 0
-0.206565 0.0509829 0
-0.202626 0.0503294 0
-0.198689 0.0496667 0
-0.194755 0.0489856 0
-0.190821 0.0483046 0
-0.18689 0.0476022 0
-0.182961 0.0468942 0
-0.179033 0.0461799 0
-0.175108 0.0454463 0
-0.171183 0.0447127 0
-0.167262 0.0439627 0
-0.163342 0.0432056 0
-0.159422 0.0424455 0
-0.155506 0.041668 0
-0.15159 0.0408904 0
-0.147675 0.0401031 0
-0.143762 0.0393092 0
-0.13985 0.0385149 0
-0.135939 0.0377103 0
-0.132028 0.0369056 0
-0.128117 0.0361005 0
-0.124207 0.0352949 0
-0.120296 0.0344893 0
-0.116386 0.0336836 0
-0.112475 0.032878 0
-0.108563 0.0320794 0
-0.104649 0.0312931 0
-0.100735 0.0305068 0
-0.0968152 0.029745 0
-0.0928949 0.0289889 0
-0.0889722 0.0282446 0
-0.0850433 0.0275341 0
-0.0811144 0.0268235 0
-0.0771778 0.0261578 0
-0.0732381 0.0255098 0
-0.0692962 0.0248759 0
-0.0653442 0.0243073 0
-0.0613923 0.0237386 0
-0.0574324 0.0232306 0
-0.0534681 0.0227556 0
-0.0495024 0.0222934 0
-0.0455272 0.0219207 0
-0.041552 0.0215481 0
-0.0375717 0.0212385 0
-0.0335881 0.0209694 0
-0.029604 0.0207098 0
-0.0256151 0.0205369 0
-0.0216262 0.0203639 0
-0.0176357 0.0202396 0
-0.0136441 0.0201487 0
-0.00965243 0.0200635 0
-0.00565987 0.0200372 0
-0.00166732 0.020011 0
0.00232526 0.0200121 0
0.00631785 0.0200329 0
0.0103104 0.0200563 0
0.0143027 0.0201109 0
0.018295 0.0201654 0
0.022287 0.0202345 0
0.0262788 0.0203144 0
0.0302706 0.0203957 0
0.034262 0.0204956 0
0.0382534 0.0205955 0
0.0422446 0.0207045 0
0.0462355 0.0208207 0
0.0502265 0.0209377 0
0.054217 0.0210676 0
0.0582075 0.0211975 0
0.0621978 0.0213339 0
0.0661879 0.0214757 0
0.0701781 0.021618 0
0.0741678 0.0217703 0
0.0781575 0.0219227 0
0.0821471 0.0220801 0
0.0861364 0.022242 0
0.0901258 0.0224041 0
0.0941148 0.0225747 0
0.0981038 0.0227453 0
0.102093 0.0229202 0
0.106081 0.023099 0
0.11007 0.0232779 0
0.114058 0.0234644 0
0.118046 0.0236509 0
0.122035 0.0238411 0
0.126022 0.024035 0
0.13001 0.0242288 0
0.133998 0.0244298 0
0.137986 0.0246308 0
0.141973 0.0248352 0
0.14596 0.025043 0
0.149947 0.0252509 0
0.153934 0.0254654 0
0.157921 0.02568 0
0.161908 0.0258978 0
0.165894 0.026119 0
0.169881 0.0263402 0
0.173867 0.0265678 0
0.177853 0.0267956 0
0.181839 0.0270264 0
0.185825 0.0272607 0
0.189811 0.0274951 0
0.193796 0.0277356 0
0.197781 0.0279764 0
0.201767 0.02822 0
0.205752 0.0284673 0
0.209737 0.0287146 0
0.213721 0.0289679 0
0.217706 0.0292217 0
0.22169 0.0294782 0
0.225674 0.0297385 0
0.229658 0.0299988 0
0.233642 0.0302651 0
0.237626 0.0305319 0
0.241609 0.0308014 0
0.245593 0.0310748 0
0.249576 0.0313482 0
0.253559 0.0316276 0
0.257542 0.0319077 0
0.261524 0.0321904 0
0.265507 0.0324772 0
0.269489 0.032764 0
0.273471 0.0330568 0
0.277453 0.0333504 0
0.281434 0.0336466 0
0.285416 0.0339471 0
0.289397 0.0342476 0
0.293378 0.034554 0
0.297359 0.0348615 0
0.301339 0.0351714 0
0.305319 0.0354859 0
0.3093 0.0358005 0
0.313279 0.036121 0
0.317259 0.0364427 0
0.321239 0.0367667 0
0.325218 0.0370957 0
0.329197 0.0374248 0
0.333175 0.0377597 0
0.337154 0.0380961 0
0.341132 0.0384347 0
0.34511 0.0387786 0
0.349088 0.0391226 0
0.353065 0.0394724 0
0.357042 0.0398239 0
0.361019 0.0401775 0
0.364995 0.0405368 0
0.368972 0.0408961 0
0.372948 0.0412613 0
0.376924 0.0416285 0
0.380899 0.0419975 0
0.384874 0.0423727 0
0.388849 0.0427479 0
0.392823 0.0431289 0
0.396798 0.0435123 0
0.400772 0.0438973 0
0.404745 0.044289 0
0.408718 0.0446807 0
0.412691 0.0450781 0
0.416664 0.0454782 0
0.420636 0.0458797 0
0.424608 0.0462883 0
0.42858 0.046697 0
0.432551 0.0471114 0
0.436521 0.0475289 0
0.440492 0.0479474 0
0.444462 0.0483738 0
0.448432 0.0488001 0
0.452401 0.0492319 0
0.45637 0.0496673 0
0.460338 0.0501035 0
0.464306 0.0505482 0
0.468274 0.0509928 0
0.472241 0.0514427 0
0.476208 0.0518968 0
0.480175 0.0523512 0
0.48414 0.0528148 0
0.488106 0.0532784 0
0.492071 0.0537471 0
0.496036 0.0542204 0
0.5 0.050787 0
0.5 0.0468803 0
0.5 0.0429736 0
0.5 0.0390669 0
0.5 0.0351602 0
0.5 0.0312535 0
0.5 0.0273468 0
0.5 0.0234402 0
0.5 0.0195335 0
0.5 0.0156268 0
0.5 0.0117201 0
0.5 0.00781339 0
0.5 0.00390669 0
0.5 1.43781e-13 0
0.5 -0.00390669 0
0.5 -0.00781339 0
0.5 -0.0117201 0
0.5 -0.0156268 0
0.5 -0.0195335 0
0.5 -0.0234402 0
0.5 -0.0273468 0
0.5 -0.0312535 0
0.5 -0.0351602 0
0.5 -0.0390669 0
0.5 -0.0429736 0
0.5 -0.0468803 0
0.5 -0.050787 0
0.496036 -0.0542204 0
0.492071 -0.0537471 0
0.488106 -0.0532784 0
0.48414 -0.0528148 0
0.480175 -0.0523512 0
0.476208 -0.0518968 0
0.472241 -0.0514427 0
0.468274 -0.0509928 0
0.464306 -0.0505482 0
0.460338 -0.0501035 0
0.45637 -0.0496673 0
0.452401 -0.0492319 0
0.448432 -0.0488001 0
0.444462 -0.0483738 0
0.440492 -0.0479474 0
0.436521 -0.0475289 0
0.432551 -0.0471114 0
0.42858 -0.046697 0
0.424608 -0.0462883 0
0.420636 -0.0458797 0
0.416664 -0.0454782 0
0.412691 -0.0450781 0
0.408718 -0.0446807 0
0.404745 -0.044289 0
0.400772 -0.0438973 0
0.396798 -0.0435123 0
0.392823 -0.0431289 0
0.388849 -0.0427479 0
0.384874 -0.0423727 0
0.380899 -0.0419975 0
0.376924 -0.0416285 0
0.372948 -0.0412613 0
0.368972 -0.0408961 0
0.364995 -0.0405368 0
0.361019 -0.0401775 0
0.357042 -0.0398239 0
0.353065 -0.0394724 0
0.349088 -0.0391226 0
0.34511 -0.0387786 0
0.341132 -0.0384347 0
0.337154 -0.0380961 0
0.333175 -0.0377597 0
0.329197 -0.0374248 0
0.325218 -0.0370957 0
0.321239 -0.0367667 0
0.317259 -0.0364427 0
0.313279 -0.036121 0
0.3093 -0.0358005 0
0.305319 -0.0354859 0
0.301339 -0.0351714 0
0.297359 -0.0348615 0
0.293378 -0.034554 0
0.289397 -0.0342476 0
0.285416 -0.0339471 0
0.281434 -0.0336466 0
0.277453 -0.0333504 0
0.273471 -0.0330568 0
0.269489 -0.032764 0
0.265507 -0.0324772 0
0.261524 -0.0321904 0
0.257542 -0.0319077 0
0.253559 -0.0316276 0
0.249576 -0.0313482 0
0.245593 -0.0310748 0
0.241609 -0.0308014 0
0.237626 -0.0305319 0
0.233642 -0.0302651 0
0.229658 -0.0299988 0
0.225674 -0.0297385 0
0.22169 -0.0294782 0
0.217706 -0.0292217 0
0.213721 -0.0289679 0
0.209737 -0.0287146 0
0.205752 -0.0284673 0
0.201767 -0.02822 0
0.197781 -0.0279764 0
0.193796 -0.0277356 0
0.189811 -0.0274951 0
0.185825 -0.0272607 0
0.181839 -0.0270264 0
0.177853 -0.0267956 0
0.173867 -0.0265678 0
0.169881 -0.0263402 0
0.165894 -0.026119 0
0.161908 -0.0258978 0
0.157921 -0.02568 0
0.153934 -0.0254654 0
0.149947 -0.0252509 0
0.14596 -0.025043 0
0.141973 -0.0248352 0
0.137986 -0.0246308 0
0.133998 -0.0244298 0
0.13001 -0.0242288 0
0.126022 -0.024035 0
0.122035 -0.0238411 0
0.118046 -0.0236509 0
0.114058 -0.0234644 0
0.11007 -0.0232779 0
0.106081 -0.023099 0
0.102093 -0.0229202 0
0.0981038 -0.0227453 0
0.0941148 -0.0225747 0
0.0901258 -0.0224041 0
0.0861364 -0.022242 0
0.0821471 -0.0220801 0
0.0781575 -0.0219227 0
0.0741678 -0.0217703 0
0.0701781 -0.021618 0
0.0661879 -0.0214757 0
0.0621978 -0.0213339 0
0.0582075 -0.0211975 0
0.054217 -0.0210676 0
0.0502265 -0.0209377 0
0.0462355 -0.0208207 0
0.0422446 -0.0207045 0
0.0382534 -0.0205955 0
0.034262 -0.0204956 0
0.0302706 -0.0203957 0
0.0262788 -0.0203144 0
0.022287 -0.0202345 0
0.018295 -0.0201654 0
0.0143027 -0.0201109 0
0.0103104 -0.0200563 0
0.00631785 -0.0200329 0
0.00232526 -0.0200121 0
-0.00166732 -0.020011 0
-0.00565987 -0.0200372 0
-0.00965243 -0.0200635 0
-0.0136441 -0.0201487 0
-0.0176357 -0.0202396 0
-0.0216262 -0.0203639 0
-0.0256151 -0.0205369 0
-0.029604 -0.0207098 0
-0.0335881 -0.0209694 0
-0.0375717 -0.0212385 0
-0.041552 -0.0215481 0
-0.0455272 -0.0219207 0
-0.0495024 -0.0222934 0
-0.0534681 -0.0227556 0
-0.0574324 -0.0232306 0
-0.0613923 -0.0237386 0
-0.0653442 -0.0243073 0
-0.0692962 -0.0248759 0
-0.0732381 -0.0255098 0
-0.0771778 -0.0261578 0
-0.0811144 -0.0268235 0
-0.0850433 -0.0275341 0
-0.0889722 -0.0282446 0
-0.0928949 -0.0289889 0
-0.0968152 -0.029745 0
-0.100735 -0.0305068 0
-0.104649 -0.0312931 0
-0.108563 -0.0320794 0
-0.112475 -0.032878 0
-0.116386 -0.0336836 0
-0.120296 -0.0344893 0
-0.124207 -0.0352949 0
-0.128117 -0.0361005 0
-0.132028 -0.0369056 0
-0.135939 -0.0377103 0
-0.13985 -0.0385149 0
-0.143762 -0.0393092 0
-0.147675 -0.0401031 0
-0.15159 -0.0408904 0
-0.155506 -0.041668 0
-0.159422 -0.0424455 0
-0.163342 -0.0432056 0
-0.167262 -0.0439627 0
-0.171183 -0.0447127 0
-0.175108 -0.0454463 0
-0.179033 -0.0461799 0
-0.182961 -0.0468942 0
-0.18689 -0.0476022 0
-0.190821 -0.0483046 0
-0.194755 -0.0489856 0
-0.198689 -0.0496667 0
-0.202626 -0.0503294 0
-0.206565 -0.0509829 0
-0.210504 -0.0516328 0
-0.214448 -0.0522585 0
-0.218391 -0.0528841 0
-0.222337 -0.0534933 0
-0.226284 -0.0540912 0
-0.230232 -0.0546875 0
-0.234184 -0.0552582 0
-0.238136 -0.0558289 0
-0.242089 -0.0563854 0
-0.246045 -0.0569295 0
-0.25 -0.0535098 0
-0.25 -0.0495461 0
-0.25 -0.0455824 0
-0.25 -0.0416187 0
-0.25 -0.0376551 0
-0.25 -0.0336914 0
-0.25 -0.0297277 0
-0.25 -0.025764 0
-0.25 -0.0218003 0
-0.25 -0.0178366 0
-0.25 -0.0138729 0
-0.25 -0.00990922 0
-0.25 -0.00594553 0
-0.25 -0.00198184 0
-0.25 0.00198184 0
-0.25 0.00594553 0
-0.25 0.00990922 0
-0.25 0.0138729 0
-0.25 0.0178366 0
-0.25 0.0218003 0
-0.25 0.025764 0
-0.25 0.0297277 0
-0.25 0.0336914 0
-0.25 0.0376551 0
-0.25 0.0416187 0
-0.25 0.0455824 0
-0.25 0.0495461 0
-0.25 0.0535098 0
-0.246045 0.0569295 0.01
-0.242089 0.0563854 0.01
-0.238136 0.0558289 0.01
-0.234184 0.0552582 0.01
-0.230232 0.0546875 0.01
-0.226284 0.0540912 0.01
-0.222337 0.0534933 0.01
-0.218391 0.0528841 0.01
-0.214448 0.0522585 0.01
-0.210504 0.0516328 0.01
-0.206565 0.0509829 0.01
-0.202626 0.0503294 0.01
-0.198689 0.0496667 0.01
-0.194755 0.0489856 0.01
-0.190821 0.0483046 0.01
-0.18689 0.0476022 0.01
-0.182961 0.0468942 0.01
-0.179033 0.0461799 0.01
-0.175108 0.0454463 0.01
-0.171183 0.0447127 0.01
-0.167262 0.0439627 0.01
[...]
CELL_DATA 7657
SCALARS rho float
LOOKUP_TABLE default
0.587003
0.586721
0.5
0.598007
0.547607
0.590991
0.59005
0.5
0.586838
0.507239
0.507515
0.5
0.587805
0.5
0.569583
0.58615
0.573665
0.5
0.5
0.5
0.579876
0.5
0.586707
0.5
0.5
0.5
0.596467
0.587522
0.508024
0.58948
0.59144
0.5
0.586757
0.587124
0.587088
0.591248
0.586902
0.586801
0.58685
0.593831
0.5
0.58691
0.599934
0.599848
0.5
0.5
0.589592
0.593136
0.5
0.587033
0.600109
0.59811
0.507682
0.507698
0.59017
0.576098
0.577658
0.585489
0.587518
0.591591
0.5
0.5
0.5
0.5
0.507502
0.507672
0.587771
0.542285
0.507772
0.587532
0.5
0.587726
0.599504
0.507733
0.587166
0.595425
0.5
0.596733
0.587209
0.587469
0.586623
0.5
0.5
0.5
0.5
0.587548
0.5
0.587562
0.5
0.596325
0.507927
0.506674
0.587539
0.507769
0.593462
0.5875
0.587526
0.586798
0.5
0.593461
0.5
0.5
0.586745
0.581973
0.589454
0.586955
0.592641
0.523756
0.587421
0.583269
0.591402
0.531664
0.60046
0.5
0.5
0.587369
0.518049
0.593935
0.586232
0.592057
0.506915
0.507912
0.592704
0.586374
0.5
0.5
0.5
0.599933
0.557399
0.600062
0.597813
0.5
0.571171
0.599402
0.5
0.592415
0.586093
0.586791
0.5
0.5
0.592617
0.596039
0.594116
0.59362
0.5
0.58033
0.586829
0.586671
0.5
0.592626
0.59438
0.508049
0.586623
0.600081
0.57852
0.586645
0.541209
0.5
0.5
0.592302
0.5
0.585647
0.5
0.587368
0.500001
0.586667
0.586854
0.60047
0.5
0.586195
0.5
0.586902
0.5
0.594288
0.590973
0.591096
0.59896
0.58757
0.5
0.594226
0.593648
0.587594
0.5
0.5
0.587856
0.587515
0.587179
0.599097
0.5
0.587488
0.507899
0.507414
0.5
0.587496
0.5
0.563643
0.5
0.585766
0.591111
0.5
0.5
0.5
0.587461
0.587457
0.596443
0.507298
0.58728
0.58927
0.587262
0.587524
0.500055
0.5
0.500002
0.5
0.5
0.599233
0.590637
0.587573
0.529193
0.5
0.586599
0.586488
0.507657
0.534993
0.587238
0.586542
0.587412
0.595239
0.597807
0.507694
0.500006
0.500005
0.587671
0.581849
0.586316
0.5
0.587485
0.5
0.5
0.585843
0.500076
0.594709
0.587535
0.586686
0.58725
0.587403
0.587195
0.587429
0.586937
0.598492
0.591225
0.598776
0.521169
0.587209
0.590762
0.59912
0.586727
0.552359
0.50796
0.532353
0.586511
0.507231
0.58627
0.5
0.590471
0.5
0.587441
0.594829
0.5
0.594419
0.588149
0.596151
0.596007
0.5
0.587262
0.5
0.600405
0.532626
0.538499
0.5
0.586759
0.5
0.595316
0.593116
0.598667
0.591373
0.593092
0.597685
0.586647
0.5
0.5
0.599241
0.595439
0.507923
0.522824
0.5966
0.5868
0.5
0.58736
0.5
0.587534
0.508946
0.594526
0.587127
0.596414
0.587535
0.590342
0.599376
0.5
0.525378
0.5
0.587411
0.585914
0.586985
0.5
0.585943
0.507309
0.555117
0.528778
0.5
0.600364
0.586815
0.507108
0.587493
0.586192
0.521568
0.587061
0.586585
0.585308
0.5
0.586828
0.517662
0.586273
0.586488
0.5
0.586808
0.523141
0.595251
0.5
0.507613
0.5
0.590922
0.586688
0.586244
0.5
0.590802
0.507896
0.586643
0.5
0.584932
0.587315
0.5
0.5
0.5
0.59033
0.5
0.5
0.58913
0.5
0.589406
0.50472
0.5
0.5
0.587387
0.573575
0.591064
0.5
0.59368
0.587563
0.587564
0.583993
0.587221
0.5
0.5
0.587565
0.587754
0.5
0.586833
0.5
0.586357
0.500001
0.5
0.596009
0.5
0.507486
0.508408
0.587069
0.5
0.5
0.585524
0.503782
0.52173
0.526944
0.5
0.5
0.587544
0.590664
0.58656
0.585658
0.58804
0.5
0.5
0.5
0.507965
0.593629
0.587198
0.586055
0.588236
0.585233
0.56772
0.5
0.581581
0.5
0.597992
0.587463
0.5
0.5
0.5
0.597858
0.586727
0.586666
0.5
0.589004
0.586633
0.586575
0.5
0.587605
0.5
0.599788
0.5
0.587333
0.590338
0.586516
0.5
0.5
0.58639
0.509613
0.5
0.586232
0.5
0.593306
0.586501
0.591821
0.507825
0.5
0.500001
0.500072
0.58914
0.569838
0.587338
0.5
0.5
0.502574
0.589599
0.587204
0.587477
0.589895
0.586081
0.586208
0.587544
0.587097
0.545171
0.5
0.587449
0.586603
0.5
0.586892
0.586851
0.590173
0.590461
0.507501
0.501863
0.587144
0.586924
0.583481
0.5
0.5
0.59489
0.592856
0.507842
0.587372
0.507997
0.5
0.5
0.500001
0.535801
0.595011
0.591891
0.507341
0.5
0.585757
0.5
0.5
0.587396
0.5
0.588604
0.598107
0.59815
0.587111
0.587014
0.5
0.5
0.587294
0.5
0.587525
0.587548
0.586581
0.599515
0.587335
0.586361
0.595139
0.5
0.5
0.585846
0.5
0.5
0.586587
0.5
0.586722
0.586503
0.586089
0.5
0.5
0.597494
0.5
0.5
0.507148
0.5
0.507297
0.5
0.509425
0.586312
0.5
0.587106
0.5
0.5
0.5
0.5
0.590438
0.5
0.500001
0.5
0.587207
0.5
0.5
0.5
0.5
0.599657
0.58249
0.5
0.58628
0.597958
0.586997
0.5
0.586684
0.586431
0.593486
0.5
0.586633
0.587128
0.586351
0.599549
0.5
0.588366
0.5
0.586521
0.507474
0.5
0.591291
0.587309
0.587453
0.598841
0.5
0.586563
0.587466
0.588861
0.5
0.5
0.5
0.5
0.587095
0.586688
0.587444
0.538159
0.5
0.586985
0.5
0.58735
0.508304
0.588456
0.5
0.5
0.58931
0.587174
0.587449
0.539036
0.590926
0.586951
0.500001
0.5
0.587427
0.584243
0.529724
0.5
0.5
0.5
0.5
0.587385
0.517963
0.582351
0.5
0.5
0.5
0.586505
0.5
0.586295
0.5
0.587267
0.587035
0.5
0.591838
0.508343
0.507653
0.5
0.5
0.5
0.586771
0.587279
0.587369
0.586869
0.5
0.548352
0.508189
0.5
0.600041
0.5
0.587076
0.5
0.508463
0.5
0.508577
0.5
0.5
0.588597
0.597353
0.5
0.5
0.5
0.58669
0.5
0.586488
0.5
0.5
0.5
0.5
0.5
0.595853
0.5
0.5
0.5
0.592923
0.5
0.58621
0.587089
0.5
0.5
0.587107
0.5
0.5
0.58658
0.5
0.587466
0.586864
0.586231
0.598354
0.586671
0.586526
0.586474
0.5
0.5
0.500001
0.5
0.586621
0.5
0.5
0.5
0.50851
0.597837
0.586785
0.591979
0.587381
0.5
0.5
0.5
0.5
0.5
0.5
0.587251
0.564485
0.573008
0.589029
0.5
0.587037
0.586815
0.588971
0.600276
0.5
0.586866
0.5
0.5
0.5
0.598464
0.5
0.508421
0.5
0.58847
0.586261
0.507628
0.587439
0.586938
0.600226
0.586673
0.5
0.5
0.509045
0.5
0.5
0.508407
0.591532
0.587531
0.5
0.511048
0.600154
0.586815
0.5
0.587139
0.586515
0.587036
0.5
0.5
0.5
0.586557
0.513106
0.587451
0.590457
0.5
0.586581
0.586618
0.592797
0.5
0.507761
0.588363
0.5
0.586622
0.508516
0.558908
0.509021
0.593726
0.508722
0.507166
0.58663
0.508696
0.5
0.5
0.5
0.5
0.51634
0.586669
0.5
0.5
0.5
0.5
0.586398
0.586923
0.509089
0.5
0.586437
0.543122
0.509722
0.500038
0.600227
0.5
0.593868
0.5
0.589314
0.5
0.509897
0.59963
0.58755
0.5
0.587188
0.589148
0.5
0.5
0.5
0.5863
0.5
0.587427
0.58666
0.586853
0.520038
0.592327
0.588258
0.5
0.586715
0.587515
0.587432
0.600064
0.515647
0.5
0.587476
0.587263
0.588129
0.600318
0.588861
0.52961
0.5
0.600314
0.5
0.578617
0.5
0.586616
0.5
0.5
0.589448
0.587528
0.5
0.593713
0.587258
0.588501
0.5
0.5
0.593871
0.5
0.5
0.590781
0.586477
0.5
0.545356
0.5
0.5
0.5
0.5
0.507817
0.508496
0.552924
0.5
0.587418
0.587553
0.600041
0.539097
0.508384
0.592304
0.586767
0.593541
0.5
0.587121
0.508757
0.5872
0.58216
0.553362
0.5
0.583325
0.547458
0.600133
0.5
0.5
0.59264
0.565419
0.589153
0.586757
0.508433
0.587975
0.5
0.55973
0.593706
0.592821
0.51643
0.546747
0.5
0.525083
0.5
0.587479
0.5
0.586926
0.5869
0.586648
0.5
0.5
0.523824
0.58746
0.5
0.600225
0.554194
0.535302
0.560439
0.536927
0.5
0.570725
0.587493
0.575241
0.566466
0.586145
0.5
0.586095
0.594902
0.5
0.5952
0.587508
0.590329
0.599815
0.594164
0.592489
0.587298
0.58738
0.509628
0.5
0.571817
0.5
0.586406
0.587498
0.5
0.5
0.508742
0.5
0.587382
0.593426
0.575991
0.587409
0.587334
0.587676
0.586199
0.5
0.5
0.595344
0.587501
0.587415
0.5
0.600321
0.600237
0.588094
0.593564
0.508574
0.5
0.5
0.5
0.59327
0.594023
0.5
0.5
0.5
0.595044
0.587415
0.587424
0.587384
0.5
0.592135
0.586435
0.5
0.591371
0.5
0.585143
0.5
0.5
0.536797
0.599428
0.5
0.59416
0.587446
0.5
0.5
0.587074
0.586929
0.5
0.5
0.587374
0.595937
0.5
0.5
0.598072
0.591196
0.5
0.580838
0.5
0.5
0.5
0.5
0.5
0.5
0.5
0.595483
0.593422
0.580402
0.590762
0.5
0.587522
0.508633
0.508611
0.586894
0.586798
0.5
0.5
0.5
0.586939
0.584241
0.5
0.5
0.5
0.593562
0.5
0.553351
0.5
0.5
0.587856
0.508272
0.5
0.5
0.587617
0.58758
0.586663
0.5
0.585455
0.5
0.500001
0.5
0.591342
0.594932
0.5
0.5
0.584744
0.590473
0.5
0.589599
0.591986
0.5
0.508249
0.5
0.509095
0.5
0.5
0.500001
0.509756
0.5
0.5
0.5
0.5
0.587817
0.5
0.587053
0.586612
0.508888
0.595907
0.598858
0.544674
0.508733
0.5
0.58405
0.549927
0.585509
0.5
0.58973
0.595932
0.5
0.509107
0.587074
0.5
0.552562
0.586972
0.5
0.600292
0.5
0.5
0.5
0.5
0.5
0.554587
0.5
0.5
0.5
0.508247
0.5
0.587059
0.59699
0.5
0.59056
0.5
0.587455
0.595772
0.519542
0.587336
0.587339
0.5
0.595566
0.5
0.589431
0.59311
0.589556
0.5
0.5
0.587125
0.587224
0.593532
0.585721
0.5
0.5
0.591208
0.5937
0.5
0.586346
0.508305
0.5
0.5
0.595339
0.5
0.552684
0.595638
0.5
0.5
0.500049
0.5
0.5943
0.5
0.511273
0.587182
0.5
0.587135
0.5
0.586157
0.5
0.509518
0.585942
0.595915
0.5
0.5
0.585912
0.577856
0.5
0.586668
0.5
0.586042
0.5
0.591494
0.586239
0.5
0.5
0.593404
0.59151
0.5
0.590773
0.599423
0.592957
0.587284
0.587287
0.59885
0.599825
0.5
0.591822
0.508274
0.5
0.508779
0.5
0.59031
0.5
0.5
0.5
0.592793
0.5
0.523496
0.5
0.5
0.587354
0.5
0.591173
0.59063
0.587315
0.587394
0.5
0.518687
0.591188
0.5
0.508395
0.5
0.5
0.5
0.5
0.508532
0.58754
0.598519
0.589884
0.5
0.591504
0.5
0.589715
0.507096
0.5
0.5
0.5
0.5
0.5
0.5
0.588321
0.508559
0.595779
0.508609
0.5
0.5
0.581004
0.5
0.586061
0.5
0.588883
0.590383
0.581029
0.59367
0.580129
0.5
0.5
0.595324
0.508986
0.584638
0.587025
0.5
0.590114
0.593415
0.5
0.582521
0.590018
0.544611
0.587933
0.592131
0.587093
0.5
0.587013
0.587174
0.5
0.5
0.5
0.596073
0.5
0.5
0.5
0.592289
0.5
0.5
0.586751
0.590601
0.5
0.5
0.5
0.5
0.5
0.5
0.5
0.510061
0.5
0.50005
0.5
0.5
0.5
0.5
0.590924
0.5
0.5
0.5
0.585986
0.5
0.5
0.508407
0.5
0.5
0.5
0.5
0.586134
0.599623
0.5
0.599784
0.585768
0.5
0.59029
0.58685
0.5
0.5
0.5
0.5
0.536962
0.5
0.5
0.50832
0.500688
0.500663
0.587988
0.5
0.5
0.5
0.584324
0.5
0.5
0.5
0.5
0.5
0.587309
0.587322
0.560431
0.5
0.5
0.5
0.600503
0.600467
0.60026
0.5
0.5
0.5
0.5
0.5
0.5
0.597169
0.5
0.5
0.5
0.588296
0.5
0.544993
0.5
0.500075
0.500073
0.5
0.583147
0.5
0.591675
0.510442
0.5
0.593711
0.5
0.508635
0.584419
0.5
0.590257
0.587805
0.587592
0.5
0.5
0.5
0.5
0.5
0.5
0.5
0.5
0.5
0.5
0.5
0.5
0.5
0.5
0.594887
0.5
0.575983
0.583644
0.5
0.5
0.5
0.5
0.5
0.5
0.595475
0.5
0.5
0.5
0.5
0.5
0.5
0.5
0.588304
0.500333
0.500319
0.5
0.5
0.5
0.582591
0.589712
0.5
0.5
0.5
0.5
0.598947
0.583519
0.5
0.592474
0.58629
0.5
0.588948
0.5
0.599917
0.5
0.591649
0.591662
0.59988
0.600046
0.5
0.5
0.508279
0.508247
0.599664
0.5
0.5
0.584305
0.586436
0.5
0.590907
0.5
0.5
0.587016
0.593387
0.5958
0.591248
0.5
0.5
0.5
0.5
0.50847
0.5
0.5
0.5
0.5
0.5
0.5
0.5
0.500073
0.579058
0.587546
0.50962
0.5
0.5
0.5
0.5
0.500002
0.5
0.5
0.5
0.5
0.5
0.5
0.508547
0.5
0.586911
0.585874
0.586714
0.586866
0.509012
0.5
0.5
0.583903
0.593251
0.5
0.586201
0.5
0.508304
0.5
0.5
0.590009
0.508327
0.586251
0.586013
0.50279
0.502812
0.5
0.589849
0.508645
0.5
0.508128
0.586719
0.5
0.5
0.595175
0.54489
0.586145
0.500011
0.594874
0.508313
0.594593
0.508459
0.508449
0.508121
0.594431
0.5
0.508347
0.5
0.50852
0.556086
0.5
0.5
0.587214
0.596123
0.589976
0.508352
0.59558
0.5
0.589684
0.596421
0.596216
0.5
0.587416
0.594452
0.597591
0.586316
0.508564
0.5
0.58754
0.5
0.599083
0.508542
0.508546
0.584329
0.5
0.583648
0.5
0.596662
0.5
0.5
0.5
0.508306
0.5
0.508501
0.508646
0.5
0.594585
0.5
0.5
0.59277
0.590892
0.591006
0.574022
0.5
0.584467
0.587423
0.5
0.5
0.5
0.5
0.5
0.508344
0.5
0.50849
0.594011
0.587521
0.5
0.599473
0.599625
0.584998
0.5
0.565241
0.5
0.5
0.5
0.5
0.5
0.5
0.5
0.5
0.508371
0.600473
0.5
0.5
0.5
0.600287
0.600519
0.5
0.5
0.5
0.5
0.5
0.514334
0.5
0.588172
0.508474
0.600323
0.600054
0.5
0.5
0.5
0.5
0.500987
0.500963
0.537378
0.500052
0.50005
0.591063
0.5
0.508769
0.584555
0.5
0.5
0.586893
0.5
0.5
0.5
0.5
0.5
0.5
0.5
0.5
0.5
0.5
0.508369
0.5
0.5
0.586379
0.5
0.500016
0.500016
0.5
0.5
0.5
0.5
0.5
0.5
0.5
0.5
0.5
0.5
0.593403
0.5
0.587376
0.508654
0.5
0.586792
0.5
0.509118
0.509169
0.508475
0.5
0.51746
0.57715
0.5
0.508359
0.586709
0.586208
0.560351
0.508068
0.5
0.5
0.5
0.586695
0.5
0.5
0.508796
0.592638
0.592463
0.5
0.5
0.5
0.586283
0.5
0.5
0.585264
0.584646
0.5
0.511476
0.508495
0.5
0.585838
0.590463
0.590173
0.558287
0.5
0.584443
0.587512
0.594291
0.509045
0.508462
0.5
0.509756
0.507913
0.586339
0.5
0.593087
0.5
0.510149
0.587581
0.58669
0.509017
0.5
0.507944
0.591352
0.5
0.592448
0.5
0.5
0.508517
0.592783
0.592761
0.5
0.500002
0.58556
0.510709
0.58631
0.5
0.594001
0.5
0.57046
0.5
0.507622
0.512686
0.518754
0.5
0.500016
0.5
0.509773
0.5
0.508149
0.5
0.586748
0.573983
0.5
0.586288
0.500231
0.500223
0.528501
0.569597
0.508556
0.514771
0.58636
0.508352
0.508256
0.587311
0.5
0.5
0.508525
0.508301
0.5
0.5
0.5
0.5
0.5
0.581883
0.503953
0.503914
0.508484
0.508573
0.588759
0.508316
0.532586
0.5
0.5
0.5
0.559149
0.522851
0.5
0.512564
0.508287
0.586332
0.587443
0.552216
0.508174
0.584897
0.509143
0.560481
0.5
0.586744
0.5
0.508416
0.508352
0.587097
0.5
0.5
0.5
0.515206
0.586477
0.50826
0.595963
0.597003
0.5
0.508806
0.578283
0.560482
0.5
0.565636
0.510454
0.508765
0.599992
0.600166
0.5
0.5
0.509341
0.597424
0.5
0.528391
0.58739
0.5
0.598931
0.509233
0.5
0.596811
0.523091
0.5
0.584979
0.5
0.5
0.508292
0.508312
0.5
0.5
0.5
0.565898
0.508222
0.5
0.508712
0.582858
0.567557
0.559289
0.5
0.5
0.540971
0.598758
0.5
0.521694
0.5
0.508336
0.508305
0.587085
0.5
0.5
0.5
0.5
0.5
0.5
0.508363
0.5
0.550908
0.508478
0.526785
0.574337
0.509696
0.5
0.508326
0.587637
0.517406
0.587887
0.508624
0.579833
0.585072
0.508712
0.58301
0.5
0.600065
0.599801
0.5
0.5
0.508306
0.59504
0.594745
0.5
0.5
0.538799
0.508438
0.534385
0.5
0.585772
0.508684
0.5
0.579914
0.526633
0.522182
0.5
0.508197
0.591671
0.589867
0.508068
0.521463
0.522531
0.574054
0.57965
0.509101
0.558104
0.587489
0.587471
0.508471
0.581306
0.509
0.599797
0.500011
0.500011
0.5
0.579587
0.570361
0.5646
0.584677
0.585288
0.565029
0.587224
0.508783
0.5
0.595641
0.569758
0.54794
0.508266
0.5
0.576912
0.51198
0.5
0.5
0.5
0.587507
0.582349
0.508305
0.564555
0.5
0.5
0.569526
0.586857
0.509551
0.586244
0.581396
0.5
0.585495
0.5
0.5
0.582816
0.508368
0.5
0.5
0.5
0.585876
0.573808
0.586351
0.585093
0.545383
0.54749
0.579496
0.56209
0.569974
0.5
0.583556
0.510035
0.584345
0.5
0.508329
0.513094
0.58638
0.524632
0.569552
0.518453
0.586725
0.508388
0.564008
0.582893
0.582377
0.523113
0.5
0.512242
0.5
0.5
0.534875
0.542219
0.550095
0.584596
0.509081
0.578705
0.508402
0.573591
0.5
0.557521
0.5
0.5
0.5
0.5
0.510931
0.585433
0.528596
0.5
0.577335
0.581405
0.581612
0.586024
0.569953
0.57967
0.5
0.583963
0.586347
0.570184
0.585917
0.5
0.508213
0.5
0.508273
0.554028
0.509059
0.587176
0.58515
0.592618
0.592934
0.5
0.586351
0.585441
0.581975
0.5
0.5
0.508233
0.583885
0.510768
0.586062
0.585657
0.518357
0.569126
0.569206
0.551947
0.577605
0.585085
0.582992
0.5
0.50965
0.5
0.591075
0.5
0.5
0.5
0.5
0.5
0.577272
0.5
0.583838
0.586695
0.586426
0.585626
0.583879
0.582929
0.5
0.586935
0.508189
0.549398
0.584945
0.586932
0.585724
0.587352
0.5
0.508857
0.582704
0.5
0.508454
0.586762
0.5
0.51345
0.586407
0.509774
0.585384
0.586704
0.5
0.508283
0.587451
0.585809
0.573403
0.585746
0.574224
0.585392
0.5087
0.586113
0.590179
0.547447
0.5
0.5
0.5
0.586891
0.585986
0.508365
0.585357
0.584117
0.585095
0.508957
0.585668
0.587524
0.586156
0.585842
0.591383
0.58748
0.58577
0.52252
0.5
0.58589
0.586301
0.586378
0.5
0.585173
0.5
0.587327
0.5
0.58586
0.574067
0.586157
0.539961
0.580272
0.587404
0.508334
0.5
0.584717
0.5
0.508603
0.5
0.51089
0.585688
0.510816
0.508303
0.585967
0.58724
0.53352
0.5
0.584546
0.5
0.5
0.5
0.586094
0.5
0.511914
0.587364
0.586435
0.574857
0.5
0.585816
0.585953
0.508371
0.530126
0.586732
0.5
0.5
0.5
0.585928
0.580667
0.581177
0.5
0.585427
0.585044
0.5
0.587125
0.587566
0.588024
0.586091
0.587462
0.5
0.595181
0.594749
0.5
0.586131
0.587193
0.583231
0.586039
0.586195
0.512494
0.586098
0.586314
0.587496
0.5
0.589995
0.586253
0.5
0.586242
0.583832
0.5
0.555751
0.587476
0.5
0.587431
0.587283
0.5
0.587575
0.579531
0.587532
0.586164
0.5
0.5
0.5
0.542793
0.5875
0.5
0.595501
0.5
0.584576
0.5
0.5
0.584606
0.5
0.585332
0.51142
0.5
0.5
0.5
0.586903
0.586292
0.586167
0.5
0.583995
0.5377
0.587551
0.5
0.586767
0.5
0.5
0.58643
0.587201
0.5
0.586188
0.508537
0.585745
0.5
0.5
0.5
0.508498
0.587286
0.5
0.567125
0.5
0.586102
0.5
0.5
0.58722
0.586255
0.59295
0.592456
0.587591
0.587604
0.586176
0.586512
0.5
0.5
0.586417
0.586465
0.587608
0.514326
0.59092
0.577182
0.58483
0.586175
0.574046
0.568694
0.587615
0.5
0.5
0.585837
0.5
0.586404
0.579266
0.5
0.586392
0.5
0.5
0.586457
0.587437
0.586213
0.586854
0.5
0.586215
0.5
0.5
0.5
0.585899
0.590041
0.585953
0.5
0.586427
0.5
0.584527
0.5
0.586236
0.5
0.586764
0.590625
0.5
0.591229
0.591547
0.593233
0.5
0.5
0.5
0.5
0.508467
0.586483
0.586988
0.586454
0.586315
0.5
0.5
0.570267
0.512733
0.5
0.5
0.586273
0.58615
0.586412
0.586486
0.5
0.586324
0.508314
0.5
0.587593
0.547947
0.586509
0.587604
0.5
0.5
0.587241
0.5
0.586207
0.5
0.586291
0.5
0.5
0.5
0.587068
0.5
0.5
0.5
0.587443
0.586006
0.586462
0.594608
0.585402
0.586395
0.5
0.5
0.586422
0.586514
0.587587
0.586321
0.586419
0.586961
0.586892
0.586281
0.5
0.587518
0.5
0.585942
0.573884
0.584224
0.5
0.595529
0.587616
0.5
0.586523
0.587515
0.586382
0.587602
0.586371
0.545551
0.586606
0.586588
0.5
0.58651
0.594635
0.586036
0.509092
0.574754
0.587617
0.5
0.587436
0.587562
0.58654
0.586412
0.587577
0.58761
0.5
0.5
0.580816
0.58754
0.5
0.5
0.585047
0.586431
0.57744
0.5
0.5
0.5
0.5
0.586324
0.593112
0.5
0.58648
0.586411
0.573649
0.586385
0.587486
0.58742
0.587205
0.5
0.587599
0.587181
0.586437
0.586838
0.5
0.5
0.58646
0.586354
0.586355
0.5
0.5
0.5
0.5
0.586443
0.58637
0.587613
0.589891
0.586382
0.586386
0.5
0.5
0.59156
0.586799
0.586343
0.586255
0.585617
0.586516
0.587274
0.5
0.5
0.586991
0.5
0.5
0.586914
0.5
0.5
0.586985
0.587325
0.5
0.586398
0.5
0.5
0.587383
0.586459
0.5
0.587343
0.5
0.586707
0.587504
0.587419
0.586576
0.5
0.587306
0.5
0.587204
0.586495
0.562963
0.587355
0.5
0.587456
0.5
0.5873
0.587146
0.594456
0.587211
0.5
0.586698
0.5
0.587426
0.587509
0.587437
0.587456
0.5
0.5
0.587267
0.5
0.587244
0.5
0.584679
0.586569
0.586448
0.586678
0.586505
0.587423
0.586612
0.5
0.58747
0.587508
0.586747
0.56747
0.583958
0.587033
0.586777
0.5
0.587503
0.587582
0.5
0.587321
0.5
0.587547
0.5
0.5
0.587038
0.587566
0.586685
0.586544
0.586834
0.58159
0.5
0.587151
0.587361
0.5
0.586698
0.5
0.5
0.586618
0.587588
0.586746
0.5
0.587603
0.587422
0.587351
0.588705
0.587474
0.5
0.586563
0.593122
0.593261
0.5
0.586547
0.587411
0.586573
0.586774
0.587612
0.587131
0.58644
0.587598
0.5
0.5
0.5
0.58884
0.587265
0.586527
0.587523
0.587615
0.589761
0.58664
0.5
0.58725
0.587177
0.587019
0.5
0.586605
0.587517
0.587258
0.588421
0.5
0.588855
0.586787
0.5
0.586841
0.58706
0.586732
0.586649
0.587682
0.59172
0.5
0.587347
0.5
0.5
0.588991
0.586615
0.58697
0.587434
0.587605
0.587578
0.5
0.587154
0.587609
0.58631
0.586275
0.5
0.587141
0.5
0.587205
0.587495
0.5
0.5
0.586857
0.587562
0.5
0.587515
0.587608
0.587436
0.586519
0.587115
0.587421
0.587227
0.587595
0.587412
0.587364
0.587552
0.5
0.588597
0.587579
0.586598
0.587601
0.589139
0.594314
0.5
0.586598
0.587533
0.587473
0.58895
0.587597
0.587484
0.5
0.587591
0.587508
0.586639
0.5
0.5
0.586783
0.586832
0.58761
0.5
0.586608
0.587435
0.5
0.586628
0.587409
0.587506
0.560229
0.587259
0.588731
0.5
0.587631
0.5
0.5
0.5
0.586809
0.587548
0.5
0.586728
0.587441
0.586566
0.5
0.587208
0.586502
0.587642
0.587529
0.587581
0.587188
0.589817
0.587108
0.589002
0.587456
0.5
0.5
0.586755
0.5
0.5
0.5
0.587348
0.5
0.586552
0.586778
0.589289
0.5876
0.587588
0.587561
0.5
0.586642
0.586763
0.586973
0.587254
0.592964
0.589609
0.5
0.587413
0.5
0.586292
0.587391
0.587444
0.5874
0.586917
0.593285
0.587587
0.587591
0.58722
0.587448
0.58927
0.5
0.586656
0.587123
0.587487
0.586253
0.5
0.586535
0.586581
0.587473
0.587505
0.587613
0.586757
0.590741
0.587321
0.587433
0.58738
0.586627
0.586637
0.587216
0.5
0.591725
0.587393
0.586479
0.5
0.589475
0.587359
0.587022
0.5
0.58735
0.587401
0.5
0.587503
0.5
0.586635
0.58932
0.5
0.5
0.587337
0.5
0.590592
0.587012
0.587327
0.5
0.591877
0.590711
0.598836
0.587102
0.587076
0.587492
0.587615
0.5
0.5
0.592936
0.588875
0.598667
0.5
0.587212
0.598541
0.587337
0.588736
0.595598
0.586646
0.587272
0.58923
0.590417
0.595348
0.587324
0.587236
0.586645
0.5
0.5
0.58653
0.5
0.59576
0.594323
0.595899
0.591323
0.5
0.586978
0.5
0.587155
0.5
0.592912
0.592318
0.560082
0.589015
0.591691
0.591519
0.589149
0.5
0.587141
0.587086
0.5
0.590874
0.5
0.5
0.595186
0.5
0.596062
0.588628
0.598374
0.587479
0.587156
0.58741
0.587058
0.588729
0.5
0.587207
0.5
0.589103
0.5
0.5
0.5
0.5
0.5