# vtk DataFile Version 1.0
unstructured grid
ascii
DATASET UNSTRUCTURED_GRID
points 8094 float
-0.25 0.0574735 0
0.5 0.0546937 0
0.5 -0.0546937 0
-0.25 -0.0574735 0
-0.25 0.0574735 0.01
0.5 0.0546937 0.01
0.5 -0.0546937 0.01
-0.25 -0.0574735 0.01
-0.246045 0.0569295 0
-0.242089 0.0563854 0
-0.238136 0.0558289 0
-0.234184 0.0552582 0
-0.230232 0.0546875 0
-0.226284 0.0540912 0
-0.222337 0.0534933 0
-0.218391 0.0528841 0
-0.214448 0.0522585 0
-0.210504 0.0516328 0
-0.206565 0.0509829 0
-0.202626 0.0503294 0
-0.198689 0.0496667 0
-0.194755 0.0489856 0
-0.190821 0.0483046 0
-0.18689 0.0476022 0
-0.182961 0.0468942 0
-0.179033 0.0461799 0
-0.175108 0.0454463 0
-0.171183 0.0447127 0
-0.167262 0.0439627 0
-0.163342 0.0432056 0
-0.159422 0.0424455 0
-0.155506 0.041668 0
-0.15159 0.0408904 0
-0.147675 0.0401031 0
-0.143762 0.0393092 0
-0.13985 0.0385149 0
-0.135939 0.0377103 0
-0.132028 0.0369056 0
-0.128117 0.0361005 0
-0.124207 0.0352949 0
-0.120296 0.0344893 0
-0.116386 0.0336836 0
-0.112475 0.032878 0
-0.108563 0.0320794 0
-0.104649 0.0312931 0
-0.100735 0.0305068 0
-0.0968152 0.029745 0
-0.0928949 0.0289889 0
-0.0889722 0.0282446 0
-0.0850433 0.0275341 0
-0.0811144 0.0268235 0
-0.0771778 0.0261578 0
-0.0732381 0.0255098 0
-0.0692962 0.0248759 0
-0.0653442 0.0243073 0
-0.0613923 0.0237386 0
-0.0574324 0.0232306 0
-0.0534681 0.0227556 0
-0.0495024 0.0222934 0
-0.0455272 0.0219207 0
-0.041552 0.0215481 0
-0.0375717 0.0212385 0
-0.0335881 0.0209694 0
-0.029604 0.0207098 0
-0.0256151 0.0205369 0
-0.0216262 0.0203639 0
-0.0176357 0.0202396 0
-0.0136441 0.0201487 0
-0.00965243 0.0200635 0
-0.00565987 0.0200372 0
-0.00166732 0.020011 0
0.00232526 0.0200121 0
0.00631785 0.0200329 0
0.0103104 0.0200563 0
0.0143027 0.0201109 0
0.018295 0.0201654 0
0.022287 0.0202345 0
0.0262788 0.0203144 0
0.0302706 0.0203957 0
0.034262 0.0204956 0
0.0382534 0.0205955 0
0.0422446 0.0207045 0
0.0462355 0.0208207 0
0.0502265 0.0209377 0
0.054217 0.0210676 0
0.0582075 0.0211975 0
0.0621978 0.0213339 0
0.0661879 0.0214757 0
0.0701781 0.021618 0
0.0741678 0.0217703 0
0.0781575 0.0219227 0
0.0821471 0.0220801 0
0.0861364 0.022242 0
0.0901258 0.0224041 0
0.0941148 0.0225747 0
0.0981038 0.0227453 0
0.102093 0.0229202 0
0.106081 0.023099 0
0.11007 0.0232779 0
0.114058 0.0234644 0
0.118046 0.0236509 0
0.122035 0.0238411 0
0.126022 0.024035 0
0.13001 0.0242288 0
0.133998 0.0244298 0
0.137986 0.0246308 0
0.141973 0.0248352 0
0.14596 0.025043 0
0.149947 0.0252509 0
0.153934 0.0254654 0
0.157921 0.02568 0
0.161908 0.0258978 0
0.165894 0.026119 0
0.169881 0.0263402 0
0.173867 0.0265678 0
0.177853 0.0267956 0
0.181839 0.0270264 0
0.185825 0.0272607 0
0.189811 0.0274951 0
0.193796 0.0277356 0
0.197781 0.0279764 0
0.201767 0.02822 0
0.205752 0.0284673 0
0.209737 0.0287146 0
0.213721 0.0289679 0
0.217706 0.0292217 0
0.22169 0.0294782 0
0.225674 0.0297385 0
0.229658 0.0299988 0
0.233642 0.0302651 0
0.237626 0.0305319 0
0.241609 0.0308014 0
0.245593 0.0310748 0
0.249576 0.0313482 0
0.253559 0.0316276 0
0.257542 0.0319077 0
0.261524 0.0321904 0
0.265507 0.0324772 0
0.269489 0.032764 0
0.273471 0.0330568 0
0.277453 0.0333504 0
0.281434 0.0336466 0
0.285416 0.0339471 0
0.289397 0.0342476 0
0.293378 0.034554 0
0.297359 0.0348615 0
0.301339 0.0351714 0
0.305319 0.0354859 0
0.3093 0.0358005 0
0.313279 0.036121 0
0.317259 0.0364427 0
0.321239 0.0367667 0
0.325218 0.0370957 0
0.329197 0.0374248 0
0.333175 0.0377597 0
0.337154 0.0380961 0
0.341132 0.0384347 0
0.34511 0.0387786 0
0.349088 0.0391226 0
0.353065 0.0394724 0
0.357042 0.0398239 0
0.361019 0.0401775 0
0.364995 0.0405368 0
0.368972 0.0408961 0
0.372948 0.0412613 0
0.376924 0.0416285 0
0.380899 0.0419975 0
0.384874 0.0423727 0
0.388849 0.0427479 0
0.392823 0.0431289 0
0.396798 0.0435123 0
0.400772 0.0438973 0
0.404745 0.044289 0
0.408718 0.0446807 0
0.412691 0.0450781 0
0.416664 0.0454782 0
0.420636 0.0458797 0
0.424608 0.0462883 0
0.42858 0.046697 0
0.432551 0.0471114 0
0.436521 0.0475289 0
0.440492 0.0479474 0
0.444462 0.0483738 0
0.448432 0.0488001 0
0.452401 0.0492319 0
0.45637 0.0496673 0
0.460338 0.0501035 0
0.464306 0.0505482 0
0.468274 0.0509928 0
0.472241 0.0514427 0
0.476208 0.0518968 0
0.480175 0.0523512 0
0.48414 0.0528148 0
0.488106 0.0532784 0
0.492071 0.0537471 0
0.496036 0.0542204 0
0.5 0.050787 0
0.5 0.0468803 0
0.5 0.0429736 0
0.5 0.0390669 0
0.5 0.0351602 0
0.5 0.0312535 0
0.5 0.0273468 0
0.5 0.0234402 0
0.5 0.0195335 0
0.5 0.0156268 0
0.5 0.0117201 0
0.5 0.00781339 0
0.5 0.00390669 0
0.5 1.43781e-13 0
0.5 -0.00390669 0
0.5 -0.00781339 0
0.5 -0.0117201 0
0.5 -0.0156268 0
0.5 -0.0195335 0
0.5 -0.0234402 0
0.5 -0.0273468 0
0.5 -0.0312535 0
0.5 -0.0351602 0
0.5 -0.0390669 0
0.5 -0.0429736 0
0.5 -0.0468803 0
0.5 -0.050787 0
0.496036 -0.0542204 0
0.492071 -0.0537471 0
0.488106 -0.0532784 0
0.48414 -0.0528148 0
0.480175 -0.0523512 0
0.476208 -0.0518968 0
0.472241 -0.0514427 0
0.468274 -0.0509928 0
0.464306 -0.0505482 0
0.460338 -0.0501035 0
0.45637 -0.0496673 0
0.452401 -0.0492319 0
0.448432 -0.0488001 0
0.444462 -0.0483738 0
0.440492 -0.0479474 0
0.436521 -0.0475289 0
0.432551 -0.0471114 0
0.42858 -0.046697 0
0.424608 -0.0462883 0
0.420636 -0.0458797 0
0.416664 -0.0454782 0
0.412691 -0.0450781 0
0.408718 -0.0446807 0
0.404745 -0.044289 0
0.400772 -0.0438973 0
0.396798 -0.0435123 0
0.392823 -0.0431289 0
0.388849 -0.0427479 0
0.384874 -0.0423727 0
0.380899 -0.0419975 0
0.376924 -0.0416285 0
0.372948 -0.0412613 0
0.368972 -0.0408961 0
0.364995 -0.0405368 0
0.361019 -0.0401775 0
0.357042 -0.0398239 0
0.353065 -0.0394724 0
0.349088 -0.0391226 0
0.34511 -0.0387786 0
0.341132 -0.0384347 0
0.337154 -0.0380961 0
0.333175 -0.0377597 0
0.329197 -0.0374248 0
0.325218 -0.0370957 0
0.321239 -0.0367667 0
0.317259 -0.0364427 0
0.313279 -0.036121 0
0.3093 -0.0358005 0
0.305319 -0.0354859 0
0.301339 -0.0351714 0
0.297359 -0.0348615 0
0.293378 -0.034554 0
0.289397 -0.0342476 0
0.285416 -0.0339471 0
0.281434 -0.0336466 0
0.277453 -0.0333504 0
0.273471 -0.0330568 0
0.269489 -0.032764 0
0.265507 -0.0324772 0
0.261524 -0.0321904 0
0.257542 -0.0319077 0
0.253559 -0.0316276 0
0.249576 -0.0313482 0
0.245593 -0.0310748 0
0.241609 -0.0308014 0
0.237626 -0.0305319 0
0.233642 -0.0302651 0
0.229658 -0.0299988 0
0.225674 -0.0297385 0
0.22169 -0.0294782 0
0.217706 -0.0292217 0
0.213721 -0.0289679 0
0.209737 -0.0287146 0
0.205752 -0.0284673 0
0.201767 -0.02822 0
0.197781 -0.0279764 0
0.193796 -0.0277356 0
0.189811 -0.0274951 0
0.185825 -0.0272607 0
0.181839 -0.0270264 0
0.177853 -0.0267956 0
0.173867 -0.0265678 0
0.169881 -0.0263402 0
0.165894 -0.026119 0
0.161908 -0.0258978 0
0.157921 -0.02568 0
0.153934 -0.0254654 0
0.149947 -0.0252509 0
0.14596 -0.025043 0
0.141973 -0.0248352 0
0.137986 -0.0246308 0
0.133998 -0.0244298 0
0.13001 -0.0242288 0
0.126022 -0.024035 0
0.122035 -0.0238411 0
0.118046 -0.0236509 0
0.114058 -0.0234644 0
0.11007 -0.0232779 0
0.106081 -0.023099 0
0.102093 -0.0229202 0
0.0981038 -0.0227453 0
0.0941148 -0.0225747 0
0.0901258 -0.0224041 0
0.0861364 -0.022242 0
0.0821471 -0.0220801 0
0.0781575 -0.0219227 0
0.0741678 -0.0217703 0
0.0701781 -0.021618 0
0.0661879 -0.0214757 0
0.0621978 -0.0213339 0
0.0582075 -0.0211975 0
0.054217 -0.0210676 0
0.0502265 -0.0209377 0
0.0462355 -0.0208207 0
0.0422446 -0.0207045 0
0.0382534 -0.0205955 0
0.034262 -0.0204956 0
0.0302706 -0.0203957 0
0.0262788 -0.0203144 0
0.022287 -0.0202345 0
0.018295 -0.0201654 0
0.0143027 -0.0201109 0
0.0103104 -0.0200563 0
0.00631785 -0.0200329 0
0.00232526 -0.0200121 0
-0.00166732 -0.020011 0
-0.00565987 -0.0200372 0
-0.00965243 -0.0200635 0
-0.0136441 -0.0201487 0
-0.0176357 -0.0202396 0
-0.0216262 -0.0203639 0
-0.0256151 -0.0205369 0
-0.029604 -0.0207098 0
-0.0335881 -0.0209694 0
-0.0375717 -0.0212385 0
-0.041552 -0.0215481 0
-0.0455272 -0.0219207 0
-0.0495024 -0.0222934 0
-0.0534681 -0.0227556 0
-0.0574324 -0.0232306 0
-0.0613923 -0.0237386 0
-0.0653442 -0.0243073 0
-0.0692962 -0.0248759 0
-0.0732381 -0.0255098 0
-0.0771778 -0.0261578 0
-0.0811144 -0.0268235 0
-0.0850433 -0.0275341 0
-0.0889722 -0.0282446 0
-0.0928949 -0.0289889 0
-0.0968152 -0.029745 0
-0.100735 -0.0305068 0
-0.104649 -0.0312931 0
-0.108563 -0.0320794 0
-0.112475 -0.032878 0
-0.116386 -0.0336836 0
-0.120296 -0.0344893 0
-0.124207 -0.0352949 0
-0.128117 -0.0361005 0
-0.132028 -0.0369056 0
-0.135939 -0.0377103 0
-0.13985 -0.0385149 0
-0.143762 -0.0393092 0
-0.147675 -0.0401031 0
-0.15159 -0.0408904 0
-0.155506 -0.041668 0
-0.159422 -0.0424455 0
-0.163342 -0.0432056 0
-0.167262 -0.0439627 0
-0.171183 -0.0447127 0
-0.175108 -0.0454463 0
-0.179033 -0.0461799 0
-0.182961 -0.0468942 0
-0.18689 -0.0476022 0
-0.190821 -0.0483046 0
-0.194755 -0.0489856 0
-0.198689 -0.0496667 0
-0.202626 -0.0503294 0
-0.206565 -0.0509829 0
-0.210504 -0.0516328 0
-0.214448 -0.0522585 0
-0.218391 -0.0528841 0
-0.222337 -0.0534933 0
-0.226284 -0.0540912 0
-0.230232 -0.0546875 0
-0.234184 -0.0552582 0
-0.238136 -0.0558289 0
-0.242089 -0.0563854 0
-0.246045 -0.0569295 0
-0.25 -0.0535098 0
-0.25 -0.0495461 0
-0.25 -0.0455824 0
-0.25 -0.0416187 0
-0.25 -0.0376551 0
-0.25 -0.0336914 0
-0.25 -0.0297277 0
-0.25 -0.025764 0
-0.25 -0.0218003 0
-0.25 -0.0178366 0
-0.25 -0.0138729 0
-0.25 -0.00990922 0
-0.25 -0.00594553 0
-0.25 -0.00198184 0
-0.25 0.00198184 0
-0.25 0.00594553 0
-0.25 0.00990922 0
-0.25 0.0138729 0
-0.25 0.0178366 0
-0.25 0.0218003 0
-0.25 0.025764 0
-0.25 0.0297277 0
-0.25 0.0336914 0
-0.25 0.0376551 0
-0.25 0.0416187 0
-0.25 0.0455824 0
-0.25 0.0495461 0
-0.25 0.0535098 0
-0.246045 0.0569295 0.01
-0.242089 0.0563854 0.01
-0.238136 0.0558289 0.01
-0.234184 0.0552582 0.01
-0.230232 0.0546875 0.01
-0.226284 0.0540912 0.01
-0.222337 0.0534933 0.01
-0.218391 0.0528841 0.01
-0.214448 0.0522585 0.01
-0.210504 0.0516328 0.01
-0.206565 0.0509829 0.01
-0.202626 0.0503294 0.01
-0.198689 0.0496667 0.01
-0.194755 0.0489856 0.01
-0.190821 0.0483046 0.01
-0.18689 0.0476022 0.01
-0.182961 0.0468942 0.01
-0.179033 0.0461799 0.01
-0.175108 0.0454463 0.01
-0.171183 0.0447127 0.01
-0.167262 0.0439627 0.01
[...]
CELL_DATA 7657
SCALARS rho float
LOOKUP_TABLE default
0.478217
0.369845
0.3958
0.173947
0.495286
0.359594
0.258766
0.429122
0.336314
0.499161
0.49923
0.428155
0.304942
0.428679
0.494573
0.489399
0.49451
0.404449
0.40421
0.432459
0.493815
0.405436
0.360542
0.40425
0.412722
0.423835
0.186997
0.312182
0.49599
0.361068
0.239736
0.412778
0.35723
0.476208
0.476656
0.241604
0.36114
0.359596
0.48145
0.212883
0.395204
0.335171
0.159986
0.353993
0.394882
0.396925
0.265268
0.359023
0.41273
0.477837
0.35248
0.172902
0.495906
0.496829
0.2569
0.363763
0.494093
0.492235
0.452849
0.238059
0.413123
0.393887
0.414149
0.414465
0.499921
0.499936
0.304589
0.367799
0.498433
0.44862
0.39698
0.306673
0.163033
0.495972
0.474907
0.357731
0.405432
0.356957
0.474381
0.310373
0.356619
0.429968
0.432415
0.395419
0.396823
0.457829
0.396474
0.447624
0.424327
0.188441
0.499775
0.499818
0.454552
0.497742
0.216729
0.460481
0.459199
0.364345
0.394164
0.216574
0.40486
0.410018
0.367852
0.493404
0.267073
0.345984
0.225337
0.370047
0.312029
0.493383
0.239983
0.369465
0.347315
0.432396
0.400035
0.436534
0.371184
0.211155
0.488754
0.359816
0.500641
0.500623
0.224223
0.365022
0.431538
0.428528
0.427765
0.160148
0.366335
0.179016
0.176411
0.407127
0.364495
0.164192
0.432377
0.227744
0.48973
0.357394
0.407665
0.407968
0.225679
0.190653
0.209659
0.214727
0.4038
0.493738
0.354002
0.370941
0.393162
0.225369
0.206266
0.498558
0.390351
0.173641
0.493819
0.368964
0.368141
0.406191
0.432412
0.229686
0.406555
0.492014
0.423326
0.435143
0.390353
0.367623
0.481493
0.345651
0.399731
0.489182
0.394765
0.348001
0.406905
0.207927
0.245931
0.243551
0.167289
0.460466
0.431389
0.208013
0.214647
0.31078
0.409079
0.409153
0.301871
0.451039
0.324885
0.166406
0.426366
0.460417
0.495911
0.497948
0.432391
0.465429
0.426093
0.365676
0.432576
0.491683
0.243878
0.398698
0.404147
0.409615
0.461952
0.445193
0.186707
0.496931
0.315862
0.268939
0.473982
0.46492
0.384168
0.393177
0.38999
0.432373
0.394309
0.165201
0.250551
0.456432
0.369468
0.398501
0.370042
0.371851
0.498868
0.368544
0.318178
0.358467
0.318134
0.197868
0.357342
0.498908
0.38817
0.38839
0.308964
0.493711
0.487858
0.432457
0.44717
0.41034
0.410428
0.491418
0.383538
0.203538
0.46212
0.357176
0.473035
0.467768
0.32499
0.466858
0.327531
0.356056
0.24204
0.168601
0.37036
0.475141
0.248793
0.16623
0.372354
0.49524
0.496709
0.368805
0.363985
0.496603
0.488339
0.399634
0.252683
0.396346
0.44292
0.202055
0.404059
0.206561
0.294633
0.18974
0.190982
0.432563
0.472395
0.400101
0.344257
0.369248
0.368844
0.42728
0.364938
0.418228
0.197657
0.219967
0.170017
0.240348
0.219985
0.177542
0.395529
0.402035
0.400591
0.165205
0.196171
0.496529
0.370196
0.186397
0.481793
0.430236
0.436363
0.400942
0.45926
0.497356
0.204896
0.322593
0.186973
0.456198
0.254187
0.164315
0.403163
0.36983
0.427608
0.440939
0.491182
0.327519
0.412416
0.491001
0.496474
0.495274
0.368939
0.418613
0.343288
0.360008
0.496424
0.449204
0.489162
0.495982
0.323047
0.387362
0.492656
0.401664
0.345931
0.496219
0.488307
0.375472
0.42969
0.408287
0.370106
0.197896
0.412018
0.495879
0.425599
0.246208
0.37692
0.488383
0.432643
0.247968
0.495873
0.374408
0.397739
0.492703
0.360686
0.406197
0.432392
0.406472
0.255074
0.411877
0.407197
0.271129
0.412121
0.267086
0.374767
0.405062
0.397941
0.438505
0.494219
0.24444
0.425261
0.214189
0.454674
0.457927
0.361803
0.425938
0.432161
0.431866
0.312631
0.306892
0.406468
0.407701
0.402268
0.48748
0.391062
0.403448
0.191136
0.414266
0.496242
0.49852
0.477422
0.427952
0.424658
0.492243
0.375155
0.370027
0.369634
0.43203
0.422755
0.449457
0.249601
0.348867
0.492155
0.36059
0.432451
0.432482
0.403377
0.497396
0.214834
0.425686
0.48992
0.292027
0.492446
0.494559
0.406869
0.362546
0.414512
0.17457
0.462153
0.431771
0.394317
0.429893
0.175162
0.364793
0.360188
0.429681
0.275847
0.384883
0.370226
0.400593
0.459545
0.431119
0.160995
0.40998
0.433908
0.253771
0.379661
0.432573
0.419071
0.487076
0.497325
0.407532
0.488533
0.403904
0.359802
0.485853
0.234895
0.496174
0.42723
0.391278
0.38365
0.271424
0.494456
0.43484
0.412382
0.411709
0.376042
0.264968
0.321317
0.460393
0.26101
0.49002
0.488659
0.4629
0.477065
0.367395
0.402109
0.458488
0.387057
0.431774
0.342856
0.350594
0.257007
0.252798
0.496152
0.376791
0.422482
0.47895
0.493489
0.409313
0.419393
0.358723
0.223533
0.495876
0.439332
0.496029
0.406147
0.406812
0.391827
0.368148
0.200548
0.233518
0.498382
0.415282
0.491749
0.413136
0.4284
0.464254
0.42759
0.28404
0.174572
0.355836
0.476671
0.47813
0.430405
0.430114
0.43128
0.430949
0.44746
0.451204
0.380115
0.163148
0.437963
0.487284
0.19903
0.418164
0.408937
0.491667
0.404641
0.431184
0.48478
0.405858
0.482664
0.363011
0.48982
0.432137
0.429931
0.178917
0.426894
0.43072
0.49718
0.395924
0.497541
0.41381
0.372824
0.487799
0.42977
0.422108
0.393858
0.409118
0.394766
0.429581
0.252211
0.402978
0.39112
0.409283
0.429992
0.427588
0.419795
0.431948
0.40849
0.162181
0.362327
0.408175
0.488052
0.175687
0.420304
0.422141
0.483244
0.486613
0.215664
0.426311
0.349535
0.476842
0.487498
0.353871
0.431507
0.28947
0.407876
0.485625
0.497993
0.431995
0.24189
0.473384
0.460225
0.355357
0.406194
0.364246
0.455488
0.277809
0.429432
0.43262
0.42736
0.428271
0.323446
0.401588
0.456856
0.368238
0.407764
0.418036
0.415619
0.436313
0.498386
0.288037
0.425209
0.429058
0.26947
0.429622
0.453585
0.368043
0.245539
0.325701
0.391809
0.428486
0.463137
0.493229
0.369257
0.424824
0.429578
0.429366
0.422748
0.465778
0.370977
0.493738
0.423151
0.42807
0.427793
0.485747
0.392479
0.487876
0.432539
0.428991
0.425692
0.429294
0.234505
0.496626
0.496577
0.431462
0.429886
0.414989
0.367287
0.435099
0.43829
0.333484
0.40459
0.367499
0.496582
0.415253
0.183996
0.430928
0.423878
0.413605
0.49621
0.404562
0.496202
0.409155
0.411419
0.283851
0.180099
0.431759
0.413015
0.415649
0.400797
0.428785
0.485962
0.415933
0.396677
0.43127
0.432551
0.426165
0.192424
0.408803
0.414104
0.413804
0.222657
0.416363
0.488549
0.428479
0.413951
0.406927
0.426388
0.429146
0.416667
0.393717
0.431544
0.457128
0.416273
0.488646
0.17178
0.391935
0.386338
0.388245
0.432634
0.4171
0.391789
0.414429
0.397178
0.427771
0.429793
0.417435
0.373405
0.175375
0.336452
0.232929
0.469343
0.429083
0.426902
0.414763
0.408121
0.426783
0.432053
0.321609
0.49487
0.494519
0.275205
0.407463
0.323022
0.350324
0.271753
0.346169
0.41791
0.327709
0.418274
0.431083
0.431237
0.171325
0.428856
0.496474
0.405797
0.285747
0.488402
0.497115
0.463338
0.419761
0.346651
0.394619
0.430952
0.430982
0.495799
0.415128
0.422242
0.496352
0.238268
0.453622
0.413003
0.495168
0.303653
0.407831
0.426486
0.431234
0.350349
0.418511
0.431159
0.413777
0.414562
0.38357
0.495082
0.451983
0.252192
0.430869
0.350807
0.343356
0.223175
0.421719
0.497248
0.286636
0.415258
0.484447
0.498349
0.494346
0.495544
0.213353
0.496043
0.496219
0.377603
0.495679
0.431927
0.413139
0.414162
0.430004
0.371392
0.343609
0.414165
0.427663
0.406198
0.405881
0.487
0.338829
0.495489
0.426956
0.486586
0.494126
0.495352
0.385084
0.347782
0.4142
0.211232
0.430844
0.268565
0.43234
0.495306
0.162661
0.45559
0.408873
0.427795
0.270433
0.425758
0.415455
0.393719
0.487953
0.430538
0.449891
0.400437
0.413931
0.494733
0.228071
0.290269
0.426577
0.406803
0.453411
0.453401
0.351113
0.494927
0.429236
0.464935
0.316651
0.292851
0.349862
0.276816
0.494543
0.432304
0.347533
0.430787
0.492714
0.432284
0.36089
0.432244
0.431729
0.267158
0.460278
0.426196
0.212676
0.432984
0.284695
0.431325
0.42512
0.211276
0.422824
0.431575
0.247953
0.4861
0.4323
0.494031
0.413347
0.431782
0.419994
0.412671
0.4978
0.496394
0.493829
0.397906
0.44813
0.460426
0.185688
0.494214
0.496576
0.22794
0.342022
0.214079
0.416553
0.432677
0.496302
0.432926
0.492371
0.494144
0.431678
0.492093
0.494369
0.300752
0.41583
0.431412
0.22499
0.493566
0.270513
0.34088
0.496422
0.295089
0.424216
0.493852
0.21254
0.223354
0.49489
0.494016
0.429909
0.494618
0.427115
0.44454
0.425946
0.333945
0.327822
0.33961
0.429451
0.428972
0.494656
0.310228
0.416165
0.350097
0.494079
0.494355
0.493796
0.494316
0.419571
0.493281
0.463157
0.492997
0.493516
0.48949
0.431418
0.489853
0.200724
0.416925
0.197927
0.463365
0.253696
0.352334
0.208184
0.226791
0.441152
0.441267
0.495841
0.427676
0.493237
0.427294
0.351833
0.45918
0.432113
0.42643
0.495957
0.424475
0.445761
0.216346
0.49296
0.441624
0.441506
0.304545
0.488951
0.426023
0.425048
0.196297
0.451514
0.451496
0.430922
0.348386
0.350713
0.292714
0.21488
0.496316
0.432624
0.430243
0.406543
0.218
0.209898
0.431879
0.426659
0.393568
0.199208
0.309985
0.310143
0.313806
0.425333
0.229438
0.387995
0.428381
0.239617
0.413474
0.49159
0.425945
0.429902
0.368689
0.354256
0.431622
0.208116
0.465337
0.424539
0.415142
0.477602
0.479902
0.415176
0.432172
0.469805
0.190812
0.416246
0.42988
0.355624
0.241406
0.431912
0.492523
0.425513
0.42562
0.41547
0.415818
0.431767
0.420803
0.410185
0.194756
0.216465
0.492561
0.247319
0.43216
0.458502
0.495986
0.496743
0.411844
0.405233
0.431901
0.427057
0.432472
0.419846
0.491889
0.424024
0.414475
0.431847
0.214902
0.432008
0.494589
0.423559
0.414469
0.296846
0.495713
0.427998
0.427173
0.304161
0.303166
0.348134
0.425891
0.491266
0.432256
0.392046
0.399164
0.239159
0.200641
0.404781
0.423323
0.491735
0.25189
0.417729
0.264863
0.231778
0.431149
0.495811
0.417731
0.496014
0.398795
0.398835
0.391115
0.495758
0.40449
0.432516
0.424698
0.404528
0.296814
0.392036
0.477387
0.372781
0.495921
0.192227
0.354544
0.494095
0.496417
0.430679
0.491938
0.493994
0.491207
0.430298
0.262004
0.190929
0.405519
0.495718
0.322006
0.428636
0.36729
0.479094
0.429629
0.348743
0.41047
0.431869
0.40929
0.43203
0.425346
0.493821
0.429231
0.425766
0.414348
0.495778
0.417332
0.477523
0.356828
0.414065
0.249097
0.420989
0.464238
0.191993
0.494828
0.46816
0.470837
0.425398
0.357869
0.431989
0.267155
0.219548
0.264095
0.432068
0.424434
0.42437
0.428137
0.214084
0.490875
0.426762
0.420751
0.24147
0.212708
0.429553
0.487462
0.495627
0.423019
0.428724
0.196244
0.424968
0.366516
0.193568
0.430769
0.418584
0.384416
0.432399
0.206355
0.430364
0.496416
0.474874
0.423858
0.475756
0.432089
0.489344
0.431652
0.495912
0.490431
0.190477
0.392938
0.393605
0.49048
0.493031
0.420448
0.361402
0.428862
0.49008
0.429076
0.236663
0.488626
0.431758
0.424552
0.216282
0.237412
0.424822
0.247474
0.353384
0.221454
0.3124
0.311766
0.355509
0.352988
0.418162
0.233321
0.495697
0.417685
0.496733
0.431702
0.253758
0.426839
0.430968
0.427077
0.223112
0.431749
0.494775
0.428464
0.427496
0.468321
0.431959
0.240808
0.250032
0.443111
0.443157
0.431467
0.494874
0.240905
0.427333
0.495548
0.431912
0.432184
0.408529
0.40466
0.496493
0.462318
0.170483
0.260223
0.431018
0.236774
0.426055
0.261968
0.373489
0.431541
0.417242
0.428847
0.430047
0.410423
0.41064
0.287364
0.496226
0.19208
0.496605
0.425824
0.431652
0.492431
0.432174
0.490037
0.40551
0.276868
0.250985
0.492562
0.35899
0.492814
0.430191
0.43044
0.195886
0.495992
0.491792
0.326275
0.430725
0.256187
0.216337
0.419178
0.492322
0.257351
0.36802
0.295752
0.229242
0.476551
0.416355
0.478214
0.474759
0.417243
0.409949
0.410015
0.189337
0.416377
0.431953
0.431722
0.227568
0.409372
0.427264
0.335338
0.248942
0.429187
0.415559
0.428525
0.431591
0.430801
0.431966
0.414728
0.496535
0.414717
0.384492
0.403983
0.421765
0.420503
0.417477
0.245338
0.428428
0.402227
0.402326
0.490288
0.430418
0.422297
0.497417
0.429819
0.407888
0.427617
0.421003
0.489677
0.16154
0.422186
0.161144
0.490821
0.403061
0.253728
0.481089
0.392458
0.392736
0.431817
0.431345
0.368255
0.43207
0.43059
0.495622
0.379238
0.379661
0.298333
0.431889
0.417062
0.431017
0.362654
0.432176
0.430512
0.418829
0.421246
0.431419
0.469294
0.470655
0.365634
0.430611
0.427499
0.431639
0.349116
0.344558
0.346526
0.409432
0.42722
0.430182
0.431273
0.432273
0.410083
0.181204
0.410283
0.408919
0.431652
0.290503
0.428567
0.367917
0.431141
0.383772
0.384231
0.422726
0.49234
0.429529
0.236521
0.495731
0.432081
0.21289
0.3956
0.496442
0.491825
0.404458
0.254309
0.301467
0.307407
0.395488
0.421804
0.430152
0.411285
0.407882
0.402621
0.431896
0.411255
0.40068
0.40234
0.406006
0.43127
0.409679
0.429585
0.200459
0.403171
0.493279
0.492084
0.42087
0.428073
0.406485
0.427603
0.431184
0.428316
0.19467
0.402462
0.430792
0.430724
0.429964
0.431384
0.430899
0.428804
0.287309
0.380775
0.381261
0.430272
0.427495
0.430718
0.492225
0.262212
0.427934
0.414775
0.431559
0.416377
0.167224
0.492355
0.423864
0.226581
0.488136
0.430121
0.277156
0.429727
0.159631
0.400531
0.234805
0.235577
0.159482
0.159304
0.413826
0.426716
0.495937
0.495958
0.161752
0.430435
0.431868
0.362068
0.379047
0.417916
0.245382
0.427644
0.427632
0.478332
0.216322
0.192392
0.360059
0.43131
0.431135
0.43079
0.431087
0.497486
0.421429
0.422439
0.423459
0.430328
0.420447
0.430597
0.428012
0.383765
0.492684
0.460878
0.496475
0.428974
0.427892
0.43125
0.426762
0.390403
0.425638
0.422311
0.408209
0.42875
0.425703
0.422003
0.497083
0.424517
0.414398
0.490644
0.40085
0.40587
0.496513
0.425548
0.431822
0.492156
0.217895
0.430062
0.48927
0.425778
0.495666
0.424359
0.426267
0.257266
0.495903
0.48886
0.490231
0.376405
0.376071
0.421355
0.258965
0.497243
0.428251
0.49798
0.348507
0.429219
0.42547
0.19731
0.367328
0.48964
0.387211
0.200409
0.497882
0.203283
0.498712
0.498673
0.497808
0.204482
0.417698
0.497551
0.42719
0.496141
0.493811
0.428577
0.431835
0.473807
0.18957
0.257892
0.497235
0.358062
0.423687
0.262131
0.187139
0.188087
0.425134
0.469863
0.204992
0.177246
0.488241
0.497516
0.430618
0.462415
0.422666
0.16586
0.498353
0.498322
0.492116
0.428713
0.491953
0.429023
0.184279
0.414339
0.414327
0.420796
0.495956
0.429616
0.496482
0.497085
0.429997
0.203162
0.432122
0.431953
0.222983
0.24533
0.242599
0.363927
0.424041
0.491732
0.469934
0.424631
0.423199
0.425191
0.419693
0.424912
0.497722
0.409602
0.497157
0.209477
0.463653
0.420923
0.162519
0.161703
0.491441
0.413328
0.493957
0.426426
0.424852
0.42218
0.410319
0.41027
0.42646
0.425841
0.43033
0.495664
0.34754
0.425004
0.419974
0.425696
0.347695
0.346168
0.430392
0.428494
0.421922
0.430924
0.425228
0.495105
0.430558
0.361461
0.495597
0.351123
0.351307
0.426648
0.415904
0.429028
0.420036
0.378378
0.378839
0.368671
0.38448
0.384909
0.243677
0.417646
0.496852
0.36324
0.419958
0.425315
0.480507
0.419504
0.391866
0.392115
0.401764
0.401833
0.411363
0.427157
0.396102
0.409031
0.408565
0.495562
0.419113
0.404827
0.487177
0.42294
0.38687
0.386555
0.411522
0.421496
0.411597
0.39764
0.397868
0.425773
0.419295
0.407508
0.432038
0.41162
0.216318
0.427082
0.44402
0.496866
0.42396
0.399232
0.419608
0.497581
0.49754
0.497279
0.431563
0.494984
0.493019
0.403453
0.497028
0.364824
0.489239
0.493626
0.497064
0.42385
0.429526
0.430107
0.357125
0.431688
0.431836
0.496251
0.225024
0.226494
0.420373
0.431057
0.399987
0.488567
0.417694
0.421652
0.491327
0.49197
0.431693
0.495501
0.495473
0.431258
0.491202
0.251868
0.255615
0.493816
0.397782
0.361654
0.465097
0.206231
0.496945
0.497011
0.430479
0.495982
0.496314
0.48796
0.425006
0.219571
0.41431
0.495671
0.459263
0.482771
0.496121
0.421489
0.496247
0.239104
0.423379
0.226089
0.408275
0.41938
0.496798
0.223
0.222836
0.429827
0.389749
0.491035
0.495585
0.488285
0.423522
0.209391
0.418654
0.493416
0.430839
0.496375
0.495294
0.495013
0.424121
0.386554
0.426242
0.495549
0.421287
0.496222
0.424893
0.482125
0.493568
0.428199
0.488533
0.38151
0.381992
0.494707
0.493707
0.495465
0.495339
0.487689
0.495799
0.495904
0.473087
0.428617
0.412808
0.495629
0.496135
0.42935
0.419555
0.424553
0.406829
0.424047
0.492574
0.375213
0.375538
0.496683
0.497103
0.27875
0.497088
0.494514
0.431597
0.419495
0.416821
0.494084
0.49483
0.431498
0.495526
0.495826
0.488013
0.46866
0.493875
0.496247
0.491849
0.496175
0.366657
0.419833
0.482138
0.421951
0.495745
0.495581
0.476626
0.419431
0.423351
0.418239
0.495181
0.485886
0.49589
0.190788
0.356827
0.419796
0.497209
0.49282
0.366339
0.421395
0.493715
0.495361
0.495554
0.180476
0.191739
0.431717
0.406116
0.495757
0.178259
0.414076
0.494589
0.471092
0.423955
0.166852
0.495428
0.414103
0.183033
0.494883
0.412821
0.491572
0.418123
0.430523
0.495806
0.496895
0.420179
0.42028
0.413338
0.493442
0.495824
0.431471
0.496168
0.492517
0.364822
0.493658
0.422865
0.430165
0.494376
0.168283
0.422798
0.494823
0.419052
0.495952
0.496244
0.477249
0.409773
0.412102
0.424732
0.431879
0.409959
0.4319
0.495658
0.419908
0.4939
0.495521
0.495341
0.493035
0.495563
0.428234
0.495804
0.307555
0.495648
0.296969
0.495473
0.492598
0.491411
0.496537
0.492129
0.424506
0.35237
0.352414
0.422478
0.426661
0.496034
0.199188
0.20194
0.403595
0.402785
0.494358
0.495553
0.49456
0.427806
0.490765
0.495489
0.414323
0.364165
0.494684
0.495569
0.424992
0.495804
0.235207
0.260606
0.496907
0.49635
0.496316
0.364636
0.492792
0.495702
0.493676
0.466259
0.467578
0.497948
0.492407
0.495372
0.160766
0.387456
0.387221
0.416647
0.363033
0.493231
0.494026
0.491626
0.491592
0.493778
0.474764
0.495395
0.412945
0.193597
0.493764
0.493993
0.496065
0.417806
0.493303
0.495258
0.421467
0.398131
0.398346
0.466583
0.492257
0.495699
0.493453
0.425039
0.408573
0.493972
0.403423
0.49658
0.488964
0.492874
0.418609
0.491089
0.430002
0.421301
0.492631
0.496031
0.420192
0.42739
0.420708
0.49085
0.493386
0.487751
0.491655
0.495568
0.495534
0.493096
0.493624
0.493472
0.409267
0.492052
0.495333
0.491767
0.406537
0.495761
0.49619
0.487339
0.495299
0.493271
0.495264
0.353396
0.496107
0.493508
0.492325
0.492609
0.494994
0.412437
0.496485
0.429457
0.426093
0.494477
0.494229
0.493986
0.491826
0.495402
0.493072
0.495911
0.493639
0.424116
0.493746
0.421175
0.413679
0.414454
0.419036
0.495507
0.491292
0.49473
0.416848
0.492807
0.492883
0.492352
0.490165
0.493897
0.493154
0.413102
0.491864
0.487815
0.493641
0.490452
0.414375
0.495813
0.405848
0.495777
0.49402
0.496394
0.475685
0.491341
0.224858
0.221342
0.431461
0.487777
0.491455
0.49291
0.41373
0.412484
0.496143
0.492714
0.495793
0.490041
0.491119
0.49508
0.494781
0.494751
0.494006
0.492865
0.491561
0.492451
0.402095
0.496085
0.394871
0.243801
0.415978
0.417307
0.413052
0.417765
0.402053
0.493236
0.394844
0.492417
0.48275
0.486639
0.491025
0.492079
0.492714
0.423101
0.47951
0.495816
0.494581
0.491548
0.47953
0.490782
0.472025
0.418165
0.495371
0.492148
0.431037
0.495555
0.365359
0.432012
0.495396
0.486967
0.49549
0.49161
0.354444
0.426827
0.49578
0.467328
0.490726
0.493049
0.491571
0.493322
0.491205
0.495417
0.489814
0.25567
0.494213
0.419347
0.418122
0.423423
0.480186
0.490271
0.495704
0.491294
0.49243
0.491854
0.496463
0.491008
0.465199
0.489545
0.490705
0.239225
0.467663
0.491212
0.495258
0.407914
0.490513
0.488271
0.48743
0.418651
0.491567
0.428079
0.431042
0.424367
0.490539
0.493168
0.489466
0.494933
0.493157
0.435934
0.495858
0.426251
0.491835
0.422501
0.496751
0.414009
0.495455
0.491051
0.495885
0.496336
0.490305
0.424898
0.495249
0.416404
0.492137
0.41899
0.42472
0.42032
0.489865
0.411598
0.495631
0.433122
0.486495
0.493258
0.417346
0.490906
0.490476
0.496124
0.495159
0.398724
0.416973
0.409824
0.41816
0.490546
0.493971
0.493923
0.416592
0.491112
0.491893
0.410035
0.420077
0.310444
0.294847
0.489897
0.439776
0.421562
0.197475
0.202
0.403659
0.48966
0.422582
0.492694
0.490106
0.489206
0.495337
0.489862
0.488203
0.442326
0.430116
0.257873
0.488517
0.414314
0.488782
0.492403
0.417419
0.494417
0.46617
0.424402
0.468585
0.428026
0.416234
0.448853
0.364391
0.444871
0.489523
0.426834
0.410887
0.425342
0.494795
0.44239
0.41641
0.195105
0.413974
0.492038
0.411827
0.429717
0.492246
0.421926
0.491243
0.495131
0.415522
0.40869
0.416228
0.403877
0.48817
0.489471
0.425976
0.492094
0.494237
0.446569
0.41585
0.353785
0.416435
0.413014
0.486636
0.422611
0.41347
0.489391
0.496944
0.491033
0.411871
0.413371
0.411221
0.49748
0.428017
0.411736
0.493425
0.411262
0.489828
0.415128
0.412055
0.474727
0.488835
0.22135
0.226171
0.451904
0.453908
0.489397
0.485403
0.416576
0.411724
0.382066
0.3818
0.453999
0.495907
0.245729
0.4935
0.491591
0.489437
0.493842
0.493291
0.455924
0.4163
0.410153
0.490723
0.411085
0.487007
0.492614
0.413479
0.487223
0.413595
0.415951
0.486334
0.437904