# vtk DataFile Version 1.0
unstructured grid
ascii
DATASET UNSTRUCTURED_GRID
points 8094 float
-0.25 0.0574735 0
0.5 0.0546937 0
0.5 -0.0546937 0
-0.25 -0.0574735 0
-0.25 0.0574735 0.01
0.5 0.0546937 0.01
0.5 -0.0546937 0.01
-0.25 -0.0574735 0.01
-0.246045 0.0569295 0
-0.242089 0.0563854 0
-0.238136 0.0558289 0
-0.234184 0.0552582 0
-0.230232 0.0546875 0
-0.226284 0.0540912 0
-0.222337 0.0534933 0
-0.218391 0.0528841 0
-0.214448 0.0522585 0
-0.210504 0.0516328 0
-0.206565 0.0509829 0
-0.202626 0.0503294 0
-0.198689 0.0496667 0
-0.194755 0.0489856 0
-0.190821 0.0483046 0
-0.18689 0.0476022 0
-0.182961 0.0468942 0
-0.179033 0.0461799 0
-0.175108 0.0454463 0
-0.171183 0.0447127 0
-0.167262 0.0439627 0
-0.163342 0.0432056 0
-0.159422 0.0424455 0
-0.155506 0.041668 0
-0.15159 0.0408904 0
-0.147675 0.0401031 0
-0.143762 0.0393092 0
-0.13985 0.0385149 0
-0.135939 0.0377103 0
-0.132028 0.0369056 0
-0.128117 0.0361005 0
-0.124207 0.0352949 0
-0.120296 0.0344893 0
-0.116386 0.0336836 0
-0.112475 0.032878 0
-0.108563 0.0320794 0
-0.104649 0.0312931 0
-0.100735 0.0305068 0
-0.0968152 0.029745 0
-0.0928949 0.0289889 0
-0.0889722 0.0282446 0
-0.0850433 0.0275341 0
-0.0811144 0.0268235 0
-0.0771778 0.0261578 0
-0.0732381 0.0255098 0
-0.0692962 0.0248759 0
-0.0653442 0.0243073 0
-0.0613923 0.0237386 0
-0.0574324 0.0232306 0
-0.0534681 0.0227556 0
-0.0495024 0.0222934 0
-0.0455272 0.0219207 0
-0.041552 0.0215481 0
-0.0375717 0.0212385 0
-0.0335881 0.0209694 0
-0.029604 0.0207098 0
-0.0256151 0.0205369 0
-0.0216262 0.0203639 0
-0.0176357 0.0202396 0
-0.0136441 0.0201487 0
-0.00965243 0.0200635 0
-0.00565987 0.0200372 0
-0.00166732 0.020011 0
0.00232526 0.0200121 0
0.00631785 0.0200329 0
0.0103104 0.0200563 0
0.0143027 0.0201109 0
0.018295 0.0201654 0
0.022287 0.0202345 0
0.0262788 0.0203144 0
0.0302706 0.0203957 0
0.034262 0.0204956 0
0.0382534 0.0205955 0
0.0422446 0.0207045 0
0.0462355 0.0208207 0
0.0502265 0.0209377 0
0.054217 0.0210676 0
0.0582075 0.0211975 0
0.0621978 0.0213339 0
0.0661879 0.0214757 0
0.0701781 0.021618 0
0.0741678 0.0217703 0
0.0781575 0.0219227 0
0.0821471 0.0220801 0
0.0861364 0.022242 0
0.0901258 0.0224041 0
0.0941148 0.0225747 0
0.0981038 0.0227453 0
0.102093 0.0229202 0
0.106081 0.023099 0
0.11007 0.0232779 0
0.114058 0.0234644 0
0.118046 0.0236509 0
0.122035 0.0238411 0
0.126022 0.024035 0
0.13001 0.0242288 0
0.133998 0.0244298 0
0.137986 0.0246308 0
0.141973 0.0248352 0
0.14596 0.025043 0
0.149947 0.0252509 0
0.153934 0.0254654 0
0.157921 0.02568 0
0.161908 0.0258978 0
0.165894 0.026119 0
0.169881 0.0263402 0
0.173867 0.0265678 0
0.177853 0.0267956 0
0.181839 0.0270264 0
0.185825 0.0272607 0
0.189811 0.0274951 0
0.193796 0.0277356 0
0.197781 0.0279764 0
0.201767 0.02822 0
0.205752 0.0284673 0
0.209737 0.0287146 0
0.213721 0.0289679 0
0.217706 0.0292217 0
0.22169 0.0294782 0
0.225674 0.0297385 0
0.229658 0.0299988 0
0.233642 0.0302651 0
0.237626 0.0305319 0
0.241609 0.0308014 0
0.245593 0.0310748 0
0.249576 0.0313482 0
0.253559 0.0316276 0
0.257542 0.0319077 0
0.261524 0.0321904 0
0.265507 0.0324772 0
0.269489 0.032764 0
0.273471 0.0330568 0
0.277453 0.0333504 0
0.281434 0.0336466 0
0.285416 0.0339471 0
0.289397 0.0342476 0
0.293378 0.034554 0
0.297359 0.0348615 0
0.301339 0.0351714 0
0.305319 0.0354859 0
0.3093 0.0358005 0
0.313279 0.036121 0
0.317259 0.0364427 0
0.321239 0.0367667 0
0.325218 0.0370957 0
0.329197 0.0374248 0
0.333175 0.0377597 0
0.337154 0.0380961 0
0.341132 0.0384347 0
0.34511 0.0387786 0
0.349088 0.0391226 0
0.353065 0.0394724 0
0.357042 0.0398239 0
0.361019 0.0401775 0
0.364995 0.0405368 0
0.368972 0.0408961 0
0.372948 0.0412613 0
0.376924 0.0416285 0
0.380899 0.0419975 0
0.384874 0.0423727 0
0.388849 0.0427479 0
0.392823 0.0431289 0
0.396798 0.0435123 0
0.400772 0.0438973 0
0.404745 0.044289 0
0.408718 0.0446807 0
0.412691 0.0450781 0
0.416664 0.0454782 0
0.420636 0.0458797 0
0.424608 0.0462883 0
0.42858 0.046697 0
0.432551 0.0471114 0
0.436521 0.0475289 0
0.440492 0.0479474 0
0.444462 0.0483738 0
0.448432 0.0488001 0
0.452401 0.0492319 0
0.45637 0.0496673 0
0.460338 0.0501035 0
0.464306 0.0505482 0
0.468274 0.0509928 0
0.472241 0.0514427 0
0.476208 0.0518968 0
0.480175 0.0523512 0
0.48414 0.0528148 0
0.488106 0.0532784 0
0.492071 0.0537471 0
0.496036 0.0542204 0
0.5 0.050787 0
0.5 0.0468803 0
0.5 0.0429736 0
0.5 0.0390669 0
0.5 0.0351602 0
0.5 0.0312535 0
0.5 0.0273468 0
0.5 0.0234402 0
0.5 0.0195335 0
0.5 0.0156268 0
0.5 0.0117201 0
0.5 0.00781339 0
0.5 0.00390669 0
0.5 1.43781e-13 0
0.5 -0.00390669 0
0.5 -0.00781339 0
0.5 -0.0117201 0
0.5 -0.0156268 0
0.5 -0.0195335 0
0.5 -0.0234402 0
0.5 -0.0273468 0
0.5 -0.0312535 0
0.5 -0.0351602 0
0.5 -0.0390669 0
0.5 -0.0429736 0
0.5 -0.0468803 0
0.5 -0.050787 0
0.496036 -0.0542204 0
0.492071 -0.0537471 0
0.488106 -0.0532784 0
0.48414 -0.0528148 0
0.480175 -0.0523512 0
0.476208 -0.0518968 0
0.472241 -0.0514427 0
0.468274 -0.0509928 0
0.464306 -0.0505482 0
0.460338 -0.0501035 0
0.45637 -0.0496673 0
0.452401 -0.0492319 0
0.448432 -0.0488001 0
0.444462 -0.0483738 0
0.440492 -0.0479474 0
0.436521 -0.0475289 0
0.432551 -0.0471114 0
0.42858 -0.046697 0
0.424608 -0.0462883 0
0.420636 -0.0458797 0
0.416664 -0.0454782 0
0.412691 -0.0450781 0
0.408718 -0.0446807 0
0.404745 -0.044289 0
0.400772 -0.0438973 0
0.396798 -0.0435123 0
0.392823 -0.0431289 0
0.388849 -0.0427479 0
0.384874 -0.0423727 0
0.380899 -0.0419975 0
0.376924 -0.0416285 0
0.372948 -0.0412613 0
0.368972 -0.0408961 0
0.364995 -0.0405368 0
0.361019 -0.0401775 0
0.357042 -0.0398239 0
0.353065 -0.0394724 0
0.349088 -0.0391226 0
0.34511 -0.0387786 0
0.341132 -0.0384347 0
0.337154 -0.0380961 0
0.333175 -0.0377597 0
0.329197 -0.0374248 0
0.325218 -0.0370957 0
0.321239 -0.0367667 0
0.317259 -0.0364427 0
0.313279 -0.036121 0
0.3093 -0.0358005 0
0.305319 -0.0354859 0
0.301339 -0.0351714 0
0.297359 -0.0348615 0
0.293378 -0.034554 0
0.289397 -0.0342476 0
0.285416 -0.0339471 0
0.281434 -0.0336466 0
0.277453 -0.0333504 0
0.273471 -0.0330568 0
0.269489 -0.032764 0
0.265507 -0.0324772 0
0.261524 -0.0321904 0
0.257542 -0.0319077 0
0.253559 -0.0316276 0
0.249576 -0.0313482 0
0.245593 -0.0310748 0
0.241609 -0.0308014 0
0.237626 -0.0305319 0
0.233642 -0.0302651 0
0.229658 -0.0299988 0
0.225674 -0.0297385 0
0.22169 -0.0294782 0
0.217706 -0.0292217 0
0.213721 -0.0289679 0
0.209737 -0.0287146 0
0.205752 -0.0284673 0
0.201767 -0.02822 0
0.197781 -0.0279764 0
0.193796 -0.0277356 0
0.189811 -0.0274951 0
0.185825 -0.0272607 0
0.181839 -0.0270264 0
0.177853 -0.0267956 0
0.173867 -0.0265678 0
0.169881 -0.0263402 0
0.165894 -0.026119 0
0.161908 -0.0258978 0
0.157921 -0.02568 0
0.153934 -0.0254654 0
0.149947 -0.0252509 0
0.14596 -0.025043 0
0.141973 -0.0248352 0
0.137986 -0.0246308 0
0.133998 -0.0244298 0
0.13001 -0.0242288 0
0.126022 -0.024035 0
0.122035 -0.0238411 0
0.118046 -0.0236509 0
0.114058 -0.0234644 0
0.11007 -0.0232779 0
0.106081 -0.023099 0
0.102093 -0.0229202 0
0.0981038 -0.0227453 0
0.0941148 -0.0225747 0
0.0901258 -0.0224041 0
0.0861364 -0.022242 0
0.0821471 -0.0220801 0
0.0781575 -0.0219227 0
0.0741678 -0.0217703 0
0.0701781 -0.021618 0
0.0661879 -0.0214757 0
0.0621978 -0.0213339 0
0.0582075 -0.0211975 0
0.054217 -0.0210676 0
0.0502265 -0.0209377 0
0.0462355 -0.0208207 0
0.0422446 -0.0207045 0
0.0382534 -0.0205955 0
0.034262 -0.0204956 0
0.0302706 -0.0203957 0
0.0262788 -0.0203144 0
0.022287 -0.0202345 0
0.018295 -0.0201654 0
0.0143027 -0.0201109 0
0.0103104 -0.0200563 0
0.00631785 -0.0200329 0
0.00232526 -0.0200121 0
-0.00166732 -0.020011 0
-0.00565987 -0.0200372 0
-0.00965243 -0.0200635 0
-0.0136441 -0.0201487 0
-0.0176357 -0.0202396 0
-0.0216262 -0.0203639 0
-0.0256151 -0.0205369 0
-0.029604 -0.0207098 0
-0.0335881 -0.0209694 0
-0.0375717 -0.0212385 0
-0.041552 -0.0215481 0
-0.0455272 -0.0219207 0
-0.0495024 -0.0222934 0
-0.0534681 -0.0227556 0
-0.0574324 -0.0232306 0
-0.0613923 -0.0237386 0
-0.0653442 -0.0243073 0
-0.0692962 -0.0248759 0
-0.0732381 -0.0255098 0
-0.0771778 -0.0261578 0
-0.0811144 -0.0268235 0
-0.0850433 -0.0275341 0
-0.0889722 -0.0282446 0
-0.0928949 -0.0289889 0
-0.0968152 -0.029745 0
-0.100735 -0.0305068 0
-0.104649 -0.0312931 0
-0.108563 -0.0320794 0
-0.112475 -0.032878 0
-0.116386 -0.0336836 0
-0.120296 -0.0344893 0
-0.124207 -0.0352949 0
-0.128117 -0.0361005 0
-0.132028 -0.0369056 0
-0.135939 -0.0377103 0
-0.13985 -0.0385149 0
-0.143762 -0.0393092 0
-0.147675 -0.0401031 0
-0.15159 -0.0408904 0
-0.155506 -0.041668 0
-0.159422 -0.0424455 0
-0.163342 -0.0432056 0
-0.167262 -0.0439627 0
-0.171183 -0.0447127 0
-0.175108 -0.0454463 0
-0.179033 -0.0461799 0
-0.182961 -0.0468942 0
-0.18689 -0.0476022 0
-0.190821 -0.0483046 0
-0.194755 -0.0489856 0
-0.198689 -0.0496667 0
-0.202626 -0.0503294 0
-0.206565 -0.0509829 0
-0.210504 -0.0516328 0
-0.214448 -0.0522585 0
-0.218391 -0.0528841 0
-0.222337 -0.0534933 0
-0.226284 -0.0540912 0
-0.230232 -0.0546875 0
-0.234184 -0.0552582 0
-0.238136 -0.0558289 0
-0.242089 -0.0563854 0
-0.246045 -0.0569295 0
-0.25 -0.0535098 0
-0.25 -0.0495461 0
-0.25 -0.0455824 0
-0.25 -0.0416187 0
-0.25 -0.0376551 0
-0.25 -0.0336914 0
-0.25 -0.0297277 0
-0.25 -0.025764 0
-0.25 -0.0218003 0
-0.25 -0.0178366 0
-0.25 -0.0138729 0
-0.25 -0.00990922 0
-0.25 -0.00594553 0
-0.25 -0.00198184 0
-0.25 0.00198184 0
-0.25 0.00594553 0
-0.25 0.00990922 0
-0.25 0.0138729 0
-0.25 0.0178366 0
-0.25 0.0218003 0
-0.25 0.025764 0
-0.25 0.0297277 0
-0.25 0.0336914 0
-0.25 0.0376551 0
-0.25 0.0416187 0
-0.25 0.0455824 0
-0.25 0.0495461 0
-0.25 0.0535098 0
-0.246045 0.0569295 0.01
-0.242089 0.0563854 0.01
-0.238136 0.0558289 0.01
-0.234184 0.0552582 0.01
-0.230232 0.0546875 0.01
-0.226284 0.0540912 0.01
-0.222337 0.0534933 0.01
-0.218391 0.0528841 0.01
-0.214448 0.0522585 0.01
-0.210504 0.0516328 0.01
-0.206565 0.0509829 0.01
-0.202626 0.0503294 0.01
-0.198689 0.0496667 0.01
-0.194755 0.0489856 0.01
-0.190821 0.0483046 0.01
-0.18689 0.0476022 0.01
-0.182961 0.0468942 0.01
-0.179033 0.0461799 0.01
-0.175108 0.0454463 0.01
-0.171183 0.0447127 0.01
-0.167262 0.0439627 0.01
[...]
CELL_DATA 7657
SCALARS rho float
LOOKUP_TABLE default
0.477523
0.369988
0.405315
0.205593
0.495136
0.387429
0.263411
0.430555
0.337162
0.499264
0.499333
0.430123
0.306757
0.430277
0.494369
0.488929
0.494295
0.412329
0.41213
0.432973
0.493556
0.413268
0.360861
0.412138
0.420606
0.427525
0.205395
0.313842
0.49609
0.388
0.246316
0.420612
0.357601
0.475491
0.475946
0.247914
0.388047
0.359936
0.480786
0.223272
0.404754
0.336035
0.376579
0.384532
0.404552
0.405979
0.269538
0.387169
0.420724
0.477135
0.383755
0.206077
0.49602
0.496925
0.261887
0.389194
0.493851
0.491883
0.452095
0.244602
0.42111
0.403851
0.422071
0.422398
0.500015
0.50003
0.306431
0.390951
0.498515
0.447891
0.406198
0.308485
0.370027
0.496086
0.474184
0.38653
0.413282
0.386149
0.47365
0.312045
0.356993
0.430852
0.432803
0.405063
0.405972
0.457061
0.405791
0.44689
0.427827
0.206146
0.49988
0.499923
0.453792
0.49783
0.226369
0.459714
0.458433
0.364583
0.404012
0.226236
0.412733
0.418036
0.368051
0.493126
0.271222
0.346538
0.233408
0.391701
0.313667
0.493095
0.246541
0.391476
0.381379
0.432768
0.408526
0.435875
0.392251
0.221852
0.488258
0.387438
0.500736
0.500718
0.232559
0.36529
0.432017
0.430278
0.429939
0.376276
0.390203
0.377405
0.203848
0.414975
0.389447
0.368655
0.432941
0.23575
0.489274
0.357761
0.415468
0.415765
0.233829
0.207604
0.220691
0.224535
0.411715
0.493477
0.354428
0.371091
0.403494
0.233432
0.217858
0.498637
0.390187
0.377249
0.493567
0.369138
0.390974
0.414017
0.432956
0.237247
0.414372
0.49165
0.427296
0.434485
0.401654
0.367837
0.480829
0.381049
0.408199
0.488699
0.404587
0.348537
0.414751
0.219134
0.251976
0.249542
0.362864
0.459703
0.431909
0.219238
0.224487
0.312461
0.416894
0.416935
0.303742
0.450291
0.32617
0.365367
0.428701
0.459656
0.496015
0.498048
0.432919
0.464665
0.42863
0.389969
0.433082
0.491303
0.249871
0.407368
0.412032
0.417607
0.461186
0.444472
0.205652
0.497042
0.317354
0.272924
0.473245
0.464149
0.398235
0.403461
0.401475
0.432944
0.404279
0.36518
0.256082
0.455664
0.391562
0.407263
0.370198
0.371955
0.498956
0.391256
0.319615
0.358828
0.319422
0.211582
0.386043
0.498996
0.400422
0.400456
0.310696
0.493439
0.487337
0.432926
0.446437
0.418184
0.418239
0.491026
0.397952
0.215795
0.461351
0.357541
0.472298
0.467007
0.326286
0.466093
0.328826
0.385378
0.247986
0.358873
0.392041
0.474409
0.254418
0.362807
0.372449
0.495082
0.496804
0.391271
0.364251
0.496733
0.487831
0.408236
0.257861
0.40574
0.442211
0.214719
0.411969
0.218146
0.296982
0.206698
0.207831
0.432971
0.471652
0.408493
0.379828
0.391476
0.391196
0.429299
0.365177
0.424805
0.211726
0.229017
0.356961
0.246614
0.22903
0.203636
0.395269
0.410165
0.408893
0.368325
0.210759
0.49667
0.391902
0.205448
0.48114
0.431072
0.435695
0.409181
0.458491
0.497355
0.216799
0.323922
0.205829
0.455434
0.259189
0.370189
0.411161
0.391717
0.429511
0.440242
0.490781
0.328769
0.420445
0.490591
0.496604
0.495116
0.391538
0.425016
0.379206
0.360319
0.496555
0.448465
0.488681
0.495883
0.324455
0.387237
0.492325
0.409863
0.346527
0.496137
0.487798
0.375516
0.430662
0.407898
0.391879
0.211608
0.420086
0.495996
0.428343
0.251715
0.376945
0.487874
0.43308
0.253998
0.49598
0.374468
0.40673
0.492379
0.387933
0.414024
0.432925
0.414298
0.260215
0.419717
0.415094
0.274679
0.419959
0.271244
0.393784
0.412908
0.406844
0.437822
0.493988
0.25017
0.428222
0.224261
0.453913
0.457158
0.38848
0.425352
0.432528
0.432307
0.314232
0.308677
0.414358
0.407298
0.410336
0.486947
0.402163
0.411428
0.207496
0.422071
0.496357
0.498577
0.476718
0.429782
0.427847
0.491895
0.393892
0.392019
0.391752
0.432451
0.427037
0.448712
0.255265
0.349408
0.491798
0.387909
0.43298
0.432942
0.411328
0.497528
0.224843
0.425101
0.489466
0.294691
0.492108
0.494351
0.414745
0.388671
0.422263
0.204164
0.461389
0.43223
0.404077
0.430905
0.205082
0.365039
0.360521
0.430794
0.279577
0.384782
0.370388
0.409019
0.458776
0.431687
0.375296
0.417983
0.433255
0.258948
0.37964
0.43305
0.425309
0.486532
0.497311
0.415447
0.48803
0.411847
0.387416
0.485276
0.241709
0.496279
0.42925
0.402274
0.397933
0.274835
0.494241
0.434192
0.420421
0.419791
0.394528
0.269254
0.322582
0.459634
0.266002
0.489569
0.488161
0.462133
0.476353
0.390622
0.410229
0.457735
0.386942
0.432458
0.343523
0.351072
0.261917
0.257937
0.496258
0.394807
0.421931
0.478265
0.493206
0.417295
0.425468
0.386892
0.231941
0.495985
0.438645
0.49613
0.414036
0.414718
0.402652
0.391226
0.213652
0.240574
0.498479
0.422973
0.491376
0.421071
0.430019
0.4635
0.429611
0.287139
0.206666
0.385589
0.475958
0.477435
0.431506
0.431338
0.43065
0.431581
0.446725
0.450454
0.380096
0.372208
0.437289
0.486744
0.212575
0.424843
0.416905
0.491284
0.412507
0.432044
0.48418
0.413714
0.482028
0.363293
0.489356
0.432565
0.431272
0.203505
0.429077
0.431721
0.497305
0.405312
0.497661
0.421666
0.393137
0.487272
0.431117
0.42156
0.403778
0.41715
0.404386
0.430614
0.257663
0.410975
0.402201
0.417275
0.429381
0.429752
0.425737
0.432598
0.41648
0.373673
0.388649
0.416139
0.487535
0.204655
0.419788
0.427162
0.482616
0.486057
0.225434
0.429389
0.350062
0.476122
0.486966
0.384441
0.432252
0.292096
0.415819
0.485041
0.498092
0.432617
0.248194
0.472638
0.459467
0.385229
0.41405
0.364507
0.454737
0.281291
0.430983
0.432911
0.429882
0.430075
0.3247
0.40128
0.456106
0.390951
0.415723
0.417533
0.423261
0.435645
0.498447
0.29073
0.428653
0.430265
0.273129
0.429015
0.452842
0.390968
0.251486
0.326921
0.402629
0.430473
0.462378
0.492932
0.391372
0.428477
0.431053
0.430455
0.427547
0.465022
0.392187
0.493468
0.427654
0.430244
0.429833
0.485167
0.403084
0.487353
0.432814
0.428375
0.425125
0.430439
0.241333
0.496685
0.496687
0.432246
0.430834
0.422863
0.367489
0.43445
0.437613
0.334409
0.412422
0.39072
0.496658
0.423071
0.377765
0.431881
0.423321
0.421523
0.496233
0.412444
0.496208
0.417159
0.419485
0.287067
0.203537
0.432459
0.42091
0.423431
0.400483
0.430643
0.485389
0.423641
0.405817
0.432119
0.432926
0.428989
0.208229
0.416813
0.421884
0.421606
0.231221
0.423993
0.488046
0.427889
0.421825
0.414788
0.425812
0.430821
0.42421
0.393496
0.432318
0.456373
0.415801
0.48815
0.306389
0.391734
0.386229
0.388125
0.433129
0.424554
0.402648
0.422186
0.396913
0.430067
0.431204
0.424757
0.393154
0.205074
0.33727
0.239973
0.468583
0.430805
0.429641
0.42248
0.416111
0.429632
0.432466
0.322873
0.494685
0.494302
0.278943
0.415403
0.32427
0.350808
0.276044
0.380634
0.425093
0.328909
0.425308
0.431938
0.432104
0.350688
0.430654
0.496516
0.413629
0.288643
0.4879
0.49722
0.462578
0.419251
0.379834
0.394388
0.431904
0.431886
0.49577
0.422806
0.426817
0.496392
0.24477
0.452877
0.420948
0.495094
0.378917
0.407445
0.429486
0.430623
0.350844
0.418004
0.432039
0.421611
0.422462
0.383488
0.494993
0.451242
0.257663
0.431836
0.351303
0.343992
0.231641
0.427138
0.497342
0.28943
0.422941
0.483838
0.498394
0.494141
0.495509
0.223633
0.496033
0.496339
0.377608
0.495661
0.4325
0.42096
0.4222
0.431285
0.392032
0.34425
0.422287
0.430057
0.414036
0.41372
0.486455
0.339605
0.495451
0.429729
0.486029
0.493939
0.495297
0.398769
0.379849
0.422266
0.221727
0.431818
0.27287
0.432681
0.495249
0.372564
0.454837
0.416863
0.427197
0.274855
0.428942
0.423074
0.403879
0.487432
0.431612
0.449161
0.400142
0.413475
0.494607
0.235811
0.29287
0.429551
0.406431
0.45267
0.452661
0.383462
0.494821
0.430479
0.464174
0.318047
0.295234
0.382231
0.280505
0.494391
0.432624
0.381468
0.431726
0.49242
0.432599
0.361204
0.432821
0.43235
0.271643
0.45952
0.42937
0.222773
0.432346
0.287551
0.432099
0.428857
0.221775
0.427806
0.4322
0.253996
0.485531
0.432673
0.493839
0.42126
0.432357
0.426315
0.420655
0.497891
0.496418
0.493618
0.406764
0.447405
0.459666
0.377739
0.494038
0.496632
0.23572
0.342634
0.223849
0.42394
0.432067
0.496295
0.432311
0.492052
0.493941
0.432399
0.491759
0.494181
0.378788
0.423297
0.432203
0.233141
0.493325
0.274894
0.341582
0.496464
0.297386
0.428362
0.49363
0.222644
0.231829
0.494782
0.493822
0.431228
0.494479
0.429422
0.44383
0.428907
0.334871
0.329029
0.340318
0.430945
0.430244
0.494518
0.311838
0.423639
0.38287
0.493873
0.494187
0.493572
0.494146
0.426104
0.493023
0.462398
0.492721
0.493274
0.489021
0.432047
0.489398
0.2138
0.424202
0.21193
0.462605
0.258713
0.384117
0.219376
0.234694
0.44047
0.440582
0.495798
0.429781
0.492977
0.429599
0.352326
0.458419
0.432525
0.429164
0.495944
0.428572
0.445052
0.225844
0.492682
0.440935
0.440819
0.306345
0.488465
0.42929
0.428842
0.210724
0.45078
0.450763
0.431889
0.381466
0.382865
0.295076
0.224652
0.496325
0.432979
0.43144
0.414408
0.227238
0.220724
0.432323
0.429172
0.403789
0.212783
0.311655
0.311748
0.315284
0.428538
0.237083
0.387889
0.429857
0.245823
0.421282
0.491223
0.429225
0.43091
0.391153
0.38471
0.432199
0.219329
0.464572
0.428588
0.422754
0.476894
0.47922
0.422767
0.432548
0.469051
0.207477
0.423609
0.431208
0.385692
0.247446
0.432563
0.492215
0.428718
0.429108
0.423036
0.423377
0.432389
0.426609
0.418247
0.209719
0.225957
0.492256
0.252719
0.432755
0.457749
0.495983
0.496756
0.411405
0.40487
0.432307
0.42912
0.432753
0.419332
0.491543
0.427988
0.42251
0.432255
0.224656
0.432574
0.4944
0.427788
0.422547
0.299073
0.495753
0.429619
0.429125
0.305953
0.304882
0.348675
0.429208
0.490885
0.432781
0.402809
0.407946
0.245341
0.213706
0.41271
0.428015
0.491378
0.25727
0.42475
0.269594
0.239287
0.431835
0.495871
0.42452
0.495989
0.407644
0.407646
0.402213
0.495714
0.41242
0.43286
0.428562
0.412428
0.29907
0.402787
0.476682
0.372876
0.495901
0.208551
0.385216
0.493906
0.496412
0.431739
0.491594
0.493795
0.490823
0.431139
0.266499
0.207578
0.413359
0.495686
0.323359
0.43004
0.390395
0.478404
0.430741
0.38216
0.418533
0.432312
0.417158
0.432604
0.428942
0.493608
0.430777
0.428728
0.422394
0.495836
0.424494
0.476816
0.386229
0.422141
0.254502
0.426584
0.463484
0.208041
0.494707
0.467409
0.470088
0.428961
0.386656
0.432449
0.271599
0.228484
0.268369
0.432425
0.427861
0.423808
0.427535
0.223687
0.490476
0.429204
0.42628
0.24748
0.222668
0.43095
0.486929
0.495646
0.427511
0.430541
0.210691
0.428776
0.390393
0.20906
0.431736
0.425284
0.39831
0.432814
0.21795
0.43153
0.496367
0.474146
0.427811
0.475036
0.432492
0.488871
0.432108
0.495872
0.490013
0.207087
0.403354
0.403763
0.490064
0.492752
0.426311
0.361698
0.430653
0.489648
0.430718
0.243682
0.488128
0.432254
0.428259
0.225826
0.243789
0.428271
0.252862
0.384653
0.23013
0.313909
0.313394
0.385202
0.384101
0.425036
0.240723
0.495735
0.424483
0.496731
0.432417
0.258898
0.429349
0.431777
0.429444
0.231534
0.432356
0.494642
0.430429
0.429605
0.467567
0.432478
0.247532
0.256053
0.442421
0.442465
0.432049
0.494755
0.247585
0.429902
0.495547
0.432406
0.432626
0.416491
0.412564
0.496515
0.461553
0.352486
0.264956
0.431878
0.243748
0.429226
0.266475
0.3934
0.432235
0.424188
0.430547
0.43097
0.418515
0.418484
0.29013
0.496235
0.208109
0.496617
0.429145
0.432128
0.49212
0.432638
0.489603
0.413371
0.280605
0.256115
0.492257
0.387147
0.49252
0.431382
0.431509
0.210394
0.49597
0.491438
0.327525
0.431617
0.261193
0.225874
0.42531
0.492003
0.262228
0.390805
0.298066
0.236937
0.475839
0.423616
0.477517
0.474033
0.424202
0.418104
0.418131
0.2066
0.423643
0.43261
0.432257
0.235462
0.417452
0.429839
0.336182
0.254118
0.430814
0.42307
0.430489
0.432345
0.431618
0.432508
0.422449
0.496502
0.422424
0.398237
0.411913
0.426792
0.426664
0.424436
0.25129
0.430409
0.410414
0.410489
0.489863
0.431399
0.427535
0.497476
0.431009
0.415773
0.429419
0.426943
0.489229
0.373475
0.427222
0.373472
0.49042
0.411139
0.258892
0.480426
0.40305
0.403034
0.432454
0.432182
0.391141
0.432555
0.431667
0.49564
0.395715
0.395706
0.300367
0.432502
0.424172
0.43196
0.388256
0.432773
0.43159
0.425255
0.426522
0.432146
0.468547
0.469909
0.389979
0.431349
0.429377
0.432301
0.381177
0.380137
0.380249
0.417481
0.429821
0.431042
0.432042
0.432801
0.418163
0.203536
0.418129
0.416789
0.432392
0.293099
0.430506
0.390624
0.431937
0.397878
0.397827
0.427503
0.492017
0.430993
0.243148
0.495677
0.432665
0.222845
0.405228
0.496447
0.491477
0.412534
0.259452
0.303363
0.309184
0.40512
0.427323
0.431233
0.419417
0.416079
0.410697
0.432557
0.419372
0.40912
0.410441
0.413845
0.432093
0.417652
0.431052
0.213654
0.411175
0.493013
0.49175
0.426852
0.430243
0.414384
0.429993
0.432054
0.430307
0.209665
0.410514
0.431759
0.431679
0.431285
0.432193
0.431777
0.430594
0.290044
0.396431
0.396406
0.431458
0.429888
0.431754
0.4919
0.266548
0.430127
0.422471
0.432262
0.424102
0.358165
0.492032
0.427505
0.234488
0.487623
0.43099
0.281019
0.43074
0.376648
0.409045
0.241984
0.242175
0.376157
0.376104
0.421902
0.429565
0.495995
0.496024
0.373988
0.431589
0.432401
0.388385
0.379037
0.424711
0.25106
0.430013
0.429445
0.477633
0.225705
0.208472
0.387553
0.431991
0.432032
0.431811
0.431833
0.497535
0.427145
0.427632
0.428107
0.431514
0.426647
0.431562
0.430183
0.39786
0.492388
0.460106
0.496443
0.430711
0.429598
0.43199
0.429585
0.401547
0.429042
0.427067
0.416085
0.430198
0.42912
0.427434
0.497115
0.428269
0.413937
0.490233
0.400553
0.405501
0.496496
0.428718
0.432467
0.49182
0.227007
0.43136
0.488806
0.428701
0.495689
0.42804
0.428944
0.262181
0.495943
0.48838
0.489803
0.394261
0.394267
0.427074
0.263635
0.497262
0.429796
0.498047
0.349048
0.430834
0.429026
0.211327
0.390729
0.48919
0.399782
0.21363
0.497948
0.215638
0.498766
0.498729
0.497877
0.216494
0.424464
0.497607
0.429407
0.496153
0.493596
0.430481
0.432478
0.473075
0.206566
0.262619
0.497298
0.386483
0.428096
0.26651
0.205478
0.20606
0.428799
0.469102
0.216937
0.20425
0.48774
0.49755
0.431683
0.461641
0.42762
0.365326
0.498397
0.498366
0.491778
0.430048
0.491614
0.430643
0.20458
0.422116
0.42212
0.426782
0.496006
0.43107
0.496507
0.497102
0.431302
0.215554
0.432709
0.432604
0.231316
0.251024
0.249145
0.389214
0.428383
0.49138
0.469173
0.428656
0.427892
0.42864
0.425568
0.428758
0.497786
0.417457
0.497202
0.220326
0.462881
0.42687
0.37171
0.371529
0.491073
0.421322
0.49373
0.429469
0.428264
0.427412
0.418443
0.418412
0.429451
0.429192
0.431397
0.495675
0.38027
0.428454
0.426077
0.4289
0.38105
0.380945
0.431427
0.43037
0.427363
0.431677
0.428924
0.495012
0.431456
0.387738
0.49559
0.383179
0.383183
0.428903
0.423296
0.430608
0.42644
0.395275
0.395288
0.390978
0.398233
0.398183
0.249484
0.424985
0.496853
0.388227
0.426365
0.428462
0.479834
0.426137
0.402615
0.4026
0.41002
0.410041
0.419451
0.429761
0.405607
0.417084
0.416757
0.495566
0.425926
0.412909
0.486633
0.427845
0.399337
0.399325
0.419378
0.426813
0.41972
0.406789
0.406753
0.429125
0.425514
0.415697
0.432564
0.419705
0.225711
0.429704
0.443315
0.49688
0.428316
0.398944
0.426167
0.497583
0.497544
0.497327
0.432103
0.494873
0.49274
0.411481
0.497094
0.365063
0.488773
0.493398
0.497142
0.42828
0.43084
0.431375
0.357519
0.4324
0.432301
0.496241
0.233209
0.234425
0.426574
0.431975
0.408569
0.488078
0.425006
0.427133
0.490953
0.49162
0.432177
0.495434
0.495458
0.431893
0.490803
0.257252
0.260416
0.493599
0.406818
0.388271
0.464325
0.217854
0.496934
0.497059
0.431601
0.49594
0.496406
0.487448
0.428721
0.228377
0.422374
0.495618
0.4585
0.482134
0.496097
0.427162
0.496331
0.245851
0.427306
0.234128
0.416219
0.426043
0.496832
0.231438
0.231195
0.431149
0.40113
0.490647
0.495523
0.487785
0.428123
0.220249
0.425634
0.493162
0.431824
0.496476
0.495214
0.494901
0.428337
0.399376
0.429326
0.4955
0.427046
0.496296
0.42805
0.481477
0.493312
0.430301
0.488042
0.396763
0.396717
0.494564
0.493464
0.495448
0.495246
0.487168
0.495824
0.495969
0.47234
0.430416
0.420639
0.495619
0.496185
0.430781
0.426154
0.428533
0.41472
0.428317
0.492266
0.393857
0.393839
0.496719
0.497131
0.282481
0.497149
0.494357
0.432306
0.42581
0.423944
0.49387
0.494699
0.432171
0.49545
0.495872
0.487503
0.467896
0.493668
0.496313
0.491497
0.496148
0.389823
0.426275
0.48149
0.427334
0.495751
0.495587
0.475912
0.426062
0.427549
0.425401
0.495084
0.485316
0.49595
0.207179
0.385937
0.426105
0.497213
0.492531
0.389855
0.426931
0.49348
0.495299
0.495526
0.377253
0.377214
0.432297
0.414011
0.495722
0.20389
0.422159
0.49444
0.470336
0.428171
0.36226
0.495385
0.422155
0.204285
0.494754
0.420959
0.49121
0.425302
0.431562
0.495851
0.496964
0.426358
0.42637
0.421474
0.4932
0.495893
0.432144
0.496161
0.492199
0.389634
0.493433
0.427343
0.431359
0.494202
0.350718
0.427081
0.494697
0.425571
0.495989
0.496299
0.476537
0.417844
0.420251
0.428446
0.432557
0.417808
0.43255
0.495667
0.426347
0.493695
0.495511
0.495214
0.492763
0.495515
0.430233
0.495834
0.309332
0.495551
0.299182
0.495452
0.492297
0.491042
0.49654
0.4918
0.428507
0.383809
0.383803
0.427609
0.429563
0.496086
0.212797
0.214668
0.411559
0.410838
0.494185
0.49555
0.494401
0.43001
0.490364
0.495466
0.422399
0.388643
0.494542
0.495458
0.428697
0.495879
0.24241
0.265075
0.496984
0.496267
0.496235
0.389084
0.4925
0.495668
0.493453
0.46549
0.46681
0.497997
0.492094
0.495335
0.375291
0.399701
0.399691
0.424317
0.388841
0.492973
0.493802
0.491269
0.491226
0.493545
0.47403
0.495365
0.42098
0.209066
0.493525
0.493795
0.496118
0.425102
0.493032
0.495179
0.427122
0.40717
0.407127
0.465811
0.491935
0.495725
0.493213
0.428492
0.416441
0.493738
0.403074
0.496551
0.488488
0.492574
0.425616
0.490703
0.431176
0.427055
0.492321
0.496067
0.42583
0.429919
0.426071
0.490441
0.493124
0.487233
0.491291
0.495428
0.495395
0.492814
0.493395
0.493221
0.417443
0.491717
0.495273
0.491417
0.414698
0.495787
0.496127
0.48681
0.495179
0.493016
0.495156
0.353822
0.49614
0.493271
0.492004
0.492299
0.494867
0.420594
0.496436
0.430571
0.429306
0.494312
0.494046
0.493785
0.491477
0.495362
0.492791
0.495931
0.493386
0.428399
0.493527
0.426921
0.421806
0.422492
0.425849
0.495444
0.490915
0.494584
0.423971
0.49252
0.492586
0.492036
0.489737
0.49366
0.49287
0.421228
0.49152
0.4873
0.493395
0.490037
0.42242
0.495884
0.413985
0.495824
0.493816
0.496374
0.474959
0.490969
0.233049
0.229959
0.432254
0.487261
0.491079
0.492613
0.421828
0.420617
0.496215
0.492395
0.495735
0.489604
0.490727
0.494968
0.494583
0.494556
0.493803
0.492577
0.491198
0.49213
0.410272
0.496047
0.4047
0.249579
0.423379
0.424271
0.421205
0.425084
0.410267
0.492962
0.404706
0.492089
0.482113
0.486082
0.490636
0.491744
0.492401
0.427224
0.478824
0.495892
0.494401
0.491185
0.478843
0.490383
0.471274
0.425321
0.495336
0.49182
0.431903
0.495547
0.365562
0.432444
0.495312
0.486426
0.495439
0.491244
0.354859
0.429647
0.495824
0.466562
0.490323
0.492779
0.491187
0.493058
0.490825
0.495389
0.489369
0.260428
0.494024
0.425873
0.42473
0.427902
0.479509
0.489847
0.495715
0.490918
0.492105
0.491495
0.496449
0.490617
0.464427
0.489091
0.490297
0.245914
0.466896
0.490817
0.495139
0.41583
0.490101
0.487769
0.4869
0.425025
0.491202
0.430133
0.430405
0.428075
0.490128
0.492899
0.489005
0.494773
0.492875
0.435262
0.49589
0.428986
0.491484
0.427648
0.496768
0.421911
0.495389
0.490657
0.495827
0.496392
0.489883
0.424317
0.495108
0.424112
0.491798
0.42583
0.42867
0.426555
0.489423
0.419721
0.49556
0.432474
0.485942
0.492993
0.424784
0.490502
0.490055
0.496161
0.495023
0.398439
0.424542
0.417867
0.424744
0.490128
0.493716
0.49367
0.424255
0.490729
0.49154
0.417818
0.419543
0.312158
0.29718
0.489458
0.439081
0.427162
0.211464
0.214693
0.41159
0.489209
0.422022
0.492383
0.489671
0.488733
0.495256
0.489415
0.487698
0.441612
0.431302
0.262608
0.488017
0.422171
0.488296
0.492079
0.424865
0.494221
0.465401
0.428505
0.467821
0.427419
0.424004
0.448106
0.388827
0.444143
0.489068
0.429524
0.418992
0.42894
0.494629
0.441679
0.423742
0.210035
0.422071
0.491692
0.419975
0.431144
0.491905
0.427214
0.490864
0.495055
0.423425
0.41647
0.423989
0.403526
0.487658
0.489014
0.429203
0.491755
0.494062
0.445836
0.423676
0.354203
0.423707
0.421065
0.486085
0.422045
0.421609
0.488931
0.496974
0.49064
0.419997
0.421419
0.419346
0.49752
0.427404
0.419838
0.49318
0.419368
0.489386
0.423087
0.420227
0.473993
0.488355
0.22998
0.23418
0.451148
0.453143
0.488934
0.48482
0.424236
0.419882
0.382013
0.381762
0.453236
0.495831
0.251224
0.493234
0.49123
0.488979
0.493596
0.493038
0.455154
0.42403
0.418234
0.490318
0.419227
0.486468
0.492315
0.421559
0.486689
0.421662
0.423778
0.485767
0.437222