# vtk DataFile Version 1.0
unstructured grid
ascii
DATASET UNSTRUCTURED_GRID
points 8094 float
-0.25 0.0574735 0
0.5 0.0546937 0
0.5 -0.0546937 0
-0.25 -0.0574735 0
-0.25 0.0574735 0.01
0.5 0.0546937 0.01
0.5 -0.0546937 0.01
-0.25 -0.0574735 0.01
-0.246045 0.0569295 0
-0.242089 0.0563854 0
-0.238136 0.0558289 0
-0.234184 0.0552582 0
-0.230232 0.0546875 0
-0.226284 0.0540912 0
-0.222337 0.0534933 0
-0.218391 0.0528841 0
-0.214448 0.0522585 0
-0.210504 0.0516328 0
-0.206565 0.0509829 0
-0.202626 0.0503294 0
-0.198689 0.0496667 0
-0.194755 0.0489856 0
-0.190821 0.0483046 0
-0.18689 0.0476022 0
-0.182961 0.0468942 0
-0.179033 0.0461799 0
-0.175108 0.0454463 0
-0.171183 0.0447127 0
-0.167262 0.0439627 0
-0.163342 0.0432056 0
-0.159422 0.0424455 0
-0.155506 0.041668 0
-0.15159 0.0408904 0
-0.147675 0.0401031 0
-0.143762 0.0393092 0
-0.13985 0.0385149 0
-0.135939 0.0377103 0
-0.132028 0.0369056 0
-0.128117 0.0361005 0
-0.124207 0.0352949 0
-0.120296 0.0344893 0
-0.116386 0.0336836 0
-0.112475 0.032878 0
-0.108563 0.0320794 0
-0.104649 0.0312931 0
-0.100735 0.0305068 0
-0.0968152 0.029745 0
-0.0928949 0.0289889 0
-0.0889722 0.0282446 0
-0.0850433 0.0275341 0
-0.0811144 0.0268235 0
-0.0771778 0.0261578 0
-0.0732381 0.0255098 0
-0.0692962 0.0248759 0
-0.0653442 0.0243073 0
-0.0613923 0.0237386 0
-0.0574324 0.0232306 0
-0.0534681 0.0227556 0
-0.0495024 0.0222934 0
-0.0455272 0.0219207 0
-0.041552 0.0215481 0
-0.0375717 0.0212385 0
-0.0335881 0.0209694 0
-0.029604 0.0207098 0
-0.0256151 0.0205369 0
-0.0216262 0.0203639 0
-0.0176357 0.0202396 0
-0.0136441 0.0201487 0
-0.00965243 0.0200635 0
-0.00565987 0.0200372 0
-0.00166732 0.020011 0
0.00232526 0.0200121 0
0.00631785 0.0200329 0
0.0103104 0.0200563 0
0.0143027 0.0201109 0
0.018295 0.0201654 0
0.022287 0.0202345 0
0.0262788 0.0203144 0
0.0302706 0.0203957 0
0.034262 0.0204956 0
0.0382534 0.0205955 0
0.0422446 0.0207045 0
0.0462355 0.0208207 0
0.0502265 0.0209377 0
0.054217 0.0210676 0
0.0582075 0.0211975 0
0.0621978 0.0213339 0
0.0661879 0.0214757 0
0.0701781 0.021618 0
0.0741678 0.0217703 0
0.0781575 0.0219227 0
0.0821471 0.0220801 0
0.0861364 0.022242 0
0.0901258 0.0224041 0
0.0941148 0.0225747 0
0.0981038 0.0227453 0
0.102093 0.0229202 0
0.106081 0.023099 0
0.11007 0.0232779 0
0.114058 0.0234644 0
0.118046 0.0236509 0
0.122035 0.0238411 0
0.126022 0.024035 0
0.13001 0.0242288 0
0.133998 0.0244298 0
0.137986 0.0246308 0
0.141973 0.0248352 0
0.14596 0.025043 0
0.149947 0.0252509 0
0.153934 0.0254654 0
0.157921 0.02568 0
0.161908 0.0258978 0
0.165894 0.026119 0
0.169881 0.0263402 0
0.173867 0.0265678 0
0.177853 0.0267956 0
0.181839 0.0270264 0
0.185825 0.0272607 0
0.189811 0.0274951 0
0.193796 0.0277356 0
0.197781 0.0279764 0
0.201767 0.02822 0
0.205752 0.0284673 0
0.209737 0.0287146 0
0.213721 0.0289679 0
0.217706 0.0292217 0
0.22169 0.0294782 0
0.225674 0.0297385 0
0.229658 0.0299988 0
0.233642 0.0302651 0
0.237626 0.0305319 0
0.241609 0.0308014 0
0.245593 0.0310748 0
0.249576 0.0313482 0
0.253559 0.0316276 0
0.257542 0.0319077 0
0.261524 0.0321904 0
0.265507 0.0324772 0
0.269489 0.032764 0
0.273471 0.0330568 0
0.277453 0.0333504 0
0.281434 0.0336466 0
0.285416 0.0339471 0
0.289397 0.0342476 0
0.293378 0.034554 0
0.297359 0.0348615 0
0.301339 0.0351714 0
0.305319 0.0354859 0
0.3093 0.0358005 0
0.313279 0.036121 0
0.317259 0.0364427 0
0.321239 0.0367667 0
0.325218 0.0370957 0
0.329197 0.0374248 0
0.333175 0.0377597 0
0.337154 0.0380961 0
0.341132 0.0384347 0
0.34511 0.0387786 0
0.349088 0.0391226 0
0.353065 0.0394724 0
0.357042 0.0398239 0
0.361019 0.0401775 0
0.364995 0.0405368 0
0.368972 0.0408961 0
0.372948 0.0412613 0
0.376924 0.0416285 0
0.380899 0.0419975 0
0.384874 0.0423727 0
0.388849 0.0427479 0
0.392823 0.0431289 0
0.396798 0.0435123 0
0.400772 0.0438973 0
0.404745 0.044289 0
0.408718 0.0446807 0
0.412691 0.0450781 0
0.416664 0.0454782 0
0.420636 0.0458797 0
0.424608 0.0462883 0
0.42858 0.046697 0
0.432551 0.0471114 0
0.436521 0.0475289 0
0.440492 0.0479474 0
0.444462 0.0483738 0
0.448432 0.0488001 0
0.452401 0.0492319 0
0.45637 0.0496673 0
0.460338 0.0501035 0
0.464306 0.0505482 0
0.468274 0.0509928 0
0.472241 0.0514427 0
0.476208 0.0518968 0
0.480175 0.0523512 0
0.48414 0.0528148 0
0.488106 0.0532784 0
0.492071 0.0537471 0
0.496036 0.0542204 0
0.5 0.050787 0
0.5 0.0468803 0
0.5 0.0429736 0
0.5 0.0390669 0
0.5 0.0351602 0
0.5 0.0312535 0
0.5 0.0273468 0
0.5 0.0234402 0
0.5 0.0195335 0
0.5 0.0156268 0
0.5 0.0117201 0
0.5 0.00781339 0
0.5 0.00390669 0
0.5 1.43781e-13 0
0.5 -0.00390669 0
0.5 -0.00781339 0
0.5 -0.0117201 0
0.5 -0.0156268 0
0.5 -0.0195335 0
0.5 -0.0234402 0
0.5 -0.0273468 0
0.5 -0.0312535 0
0.5 -0.0351602 0
0.5 -0.0390669 0
0.5 -0.0429736 0
0.5 -0.0468803 0
0.5 -0.050787 0
0.496036 -0.0542204 0
0.492071 -0.0537471 0
0.488106 -0.0532784 0
0.48414 -0.0528148 0
0.480175 -0.0523512 0
0.476208 -0.0518968 0
0.472241 -0.0514427 0
0.468274 -0.0509928 0
0.464306 -0.0505482 0
0.460338 -0.0501035 0
0.45637 -0.0496673 0
0.452401 -0.0492319 0
0.448432 -0.0488001 0
0.444462 -0.0483738 0
0.440492 -0.0479474 0
0.436521 -0.0475289 0
0.432551 -0.0471114 0
0.42858 -0.046697 0
0.424608 -0.0462883 0
0.420636 -0.0458797 0
0.416664 -0.0454782 0
0.412691 -0.0450781 0
0.408718 -0.0446807 0
0.404745 -0.044289 0
0.400772 -0.0438973 0
0.396798 -0.0435123 0
0.392823 -0.0431289 0
0.388849 -0.0427479 0
0.384874 -0.0423727 0
0.380899 -0.0419975 0
0.376924 -0.0416285 0
0.372948 -0.0412613 0
0.368972 -0.0408961 0
0.364995 -0.0405368 0
0.361019 -0.0401775 0
0.357042 -0.0398239 0
0.353065 -0.0394724 0
0.349088 -0.0391226 0
0.34511 -0.0387786 0
0.341132 -0.0384347 0
0.337154 -0.0380961 0
0.333175 -0.0377597 0
0.329197 -0.0374248 0
0.325218 -0.0370957 0
0.321239 -0.0367667 0
0.317259 -0.0364427 0
0.313279 -0.036121 0
0.3093 -0.0358005 0
0.305319 -0.0354859 0
0.301339 -0.0351714 0
0.297359 -0.0348615 0
0.293378 -0.034554 0
0.289397 -0.0342476 0
0.285416 -0.0339471 0
0.281434 -0.0336466 0
0.277453 -0.0333504 0
0.273471 -0.0330568 0
0.269489 -0.032764 0
0.265507 -0.0324772 0
0.261524 -0.0321904 0
0.257542 -0.0319077 0
0.253559 -0.0316276 0
0.249576 -0.0313482 0
0.245593 -0.0310748 0
0.241609 -0.0308014 0
0.237626 -0.0305319 0
0.233642 -0.0302651 0
0.229658 -0.0299988 0
0.225674 -0.0297385 0
0.22169 -0.0294782 0
0.217706 -0.0292217 0
0.213721 -0.0289679 0
0.209737 -0.0287146 0
0.205752 -0.0284673 0
0.201767 -0.02822 0
0.197781 -0.0279764 0
0.193796 -0.0277356 0
0.189811 -0.0274951 0
0.185825 -0.0272607 0
0.181839 -0.0270264 0
0.177853 -0.0267956 0
0.173867 -0.0265678 0
0.169881 -0.0263402 0
0.165894 -0.026119 0
0.161908 -0.0258978 0
0.157921 -0.02568 0
0.153934 -0.0254654 0
0.149947 -0.0252509 0
0.14596 -0.025043 0
0.141973 -0.0248352 0
0.137986 -0.0246308 0
0.133998 -0.0244298 0
0.13001 -0.0242288 0
0.126022 -0.024035 0
0.122035 -0.0238411 0
0.118046 -0.0236509 0
0.114058 -0.0234644 0
0.11007 -0.0232779 0
0.106081 -0.023099 0
0.102093 -0.0229202 0
0.0981038 -0.0227453 0
0.0941148 -0.0225747 0
0.0901258 -0.0224041 0
0.0861364 -0.022242 0
0.0821471 -0.0220801 0
0.0781575 -0.0219227 0
0.0741678 -0.0217703 0
0.0701781 -0.021618 0
0.0661879 -0.0214757 0
0.0621978 -0.0213339 0
0.0582075 -0.0211975 0
0.054217 -0.0210676 0
0.0502265 -0.0209377 0
0.0462355 -0.0208207 0
0.0422446 -0.0207045 0
0.0382534 -0.0205955 0
0.034262 -0.0204956 0
0.0302706 -0.0203957 0
0.0262788 -0.0203144 0
0.022287 -0.0202345 0
0.018295 -0.0201654 0
0.0143027 -0.0201109 0
0.0103104 -0.0200563 0
0.00631785 -0.0200329 0
0.00232526 -0.0200121 0
-0.00166732 -0.020011 0
-0.00565987 -0.0200372 0
-0.00965243 -0.0200635 0
-0.0136441 -0.0201487 0
-0.0176357 -0.0202396 0
-0.0216262 -0.0203639 0
-0.0256151 -0.0205369 0
-0.029604 -0.0207098 0
-0.0335881 -0.0209694 0
-0.0375717 -0.0212385 0
-0.041552 -0.0215481 0
-0.0455272 -0.0219207 0
-0.0495024 -0.0222934 0
-0.0534681 -0.0227556 0
-0.0574324 -0.0232306 0
-0.0613923 -0.0237386 0
-0.0653442 -0.0243073 0
-0.0692962 -0.0248759 0
-0.0732381 -0.0255098 0
-0.0771778 -0.0261578 0
-0.0811144 -0.0268235 0
-0.0850433 -0.0275341 0
-0.0889722 -0.0282446 0
-0.0928949 -0.0289889 0
-0.0968152 -0.029745 0
-0.100735 -0.0305068 0
-0.104649 -0.0312931 0
-0.108563 -0.0320794 0
-0.112475 -0.032878 0
-0.116386 -0.0336836 0
-0.120296 -0.0344893 0
-0.124207 -0.0352949 0
-0.128117 -0.0361005 0
-0.132028 -0.0369056 0
-0.135939 -0.0377103 0
-0.13985 -0.0385149 0
-0.143762 -0.0393092 0
-0.147675 -0.0401031 0
-0.15159 -0.0408904 0
-0.155506 -0.041668 0
-0.159422 -0.0424455 0
-0.163342 -0.0432056 0
-0.167262 -0.0439627 0
-0.171183 -0.0447127 0
-0.175108 -0.0454463 0
-0.179033 -0.0461799 0
-0.182961 -0.0468942 0
-0.18689 -0.0476022 0
-0.190821 -0.0483046 0
-0.194755 -0.0489856 0
-0.198689 -0.0496667 0
-0.202626 -0.0503294 0
-0.206565 -0.0509829 0
-0.210504 -0.0516328 0
-0.214448 -0.0522585 0
-0.218391 -0.0528841 0
-0.222337 -0.0534933 0
-0.226284 -0.0540912 0
-0.230232 -0.0546875 0
-0.234184 -0.0552582 0
-0.238136 -0.0558289 0
-0.242089 -0.0563854 0
-0.246045 -0.0569295 0
-0.25 -0.0535098 0
-0.25 -0.0495461 0
-0.25 -0.0455824 0
-0.25 -0.0416187 0
-0.25 -0.0376551 0
-0.25 -0.0336914 0
-0.25 -0.0297277 0
-0.25 -0.025764 0
-0.25 -0.0218003 0
-0.25 -0.0178366 0
-0.25 -0.0138729 0
-0.25 -0.00990922 0
-0.25 -0.00594553 0
-0.25 -0.00198184 0
-0.25 0.00198184 0
-0.25 0.00594553 0
-0.25 0.00990922 0
-0.25 0.0138729 0
-0.25 0.0178366 0
-0.25 0.0218003 0
-0.25 0.025764 0
-0.25 0.0297277 0
-0.25 0.0336914 0
-0.25 0.0376551 0
-0.25 0.0416187 0
-0.25 0.0455824 0
-0.25 0.0495461 0
-0.25 0.0535098 0
-0.246045 0.0569295 0.01
-0.242089 0.0563854 0.01
-0.238136 0.0558289 0.01
-0.234184 0.0552582 0.01
-0.230232 0.0546875 0.01
-0.226284 0.0540912 0.01
-0.222337 0.0534933 0.01
-0.218391 0.0528841 0.01
-0.214448 0.0522585 0.01
-0.210504 0.0516328 0.01
-0.206565 0.0509829 0.01
-0.202626 0.0503294 0.01
-0.198689 0.0496667 0.01
-0.194755 0.0489856 0.01
-0.190821 0.0483046 0.01
-0.18689 0.0476022 0.01
-0.182961 0.0468942 0.01
-0.179033 0.0461799 0.01
-0.175108 0.0454463 0.01
-0.171183 0.0447127 0.01
-0.167262 0.0439627 0.01
[...]
CELL_DATA 7657
SCALARS rho float
LOOKUP_TABLE default
0.58403
0.583476
0.500001
0.595029
0.544621
0.598447
0.586842
0.5
0.583546
0.50719
0.507458
0.5
0.584593
0.5
0.566728
0.584069
0.570964
0.5
0.5
0.5
0.577423
0.5
0.583503
0.5
0.5
0.5
0.593278
0.584299
0.507904
0.598055
0.588252
0.5
0.583549
0.584076
0.584057
0.58806
0.597869
0.583556
0.58408
0.590653
0.500002
0.583618
0.596973
0.598362
0.500002
0.5
0.586382
0.598562
0.5
0.584041
0.598252
0.595128
0.50757
0.507492
0.586963
0.596765
0.57507
0.583508
0.584276
0.588401
0.5
0.500005
0.5
0.5
0.507435
0.507603
0.584561
0.589742
0.507526
0.584244
0.5
0.58451
0.596447
0.507619
0.584088
0.598636
0.5
0.598649
0.584117
0.584225
0.583438
0.5
0.5
0.500001
0.5
0.584315
0.500001
0.58427
0.5
0.59313
0.507954
0.506706
0.584299
0.507529
0.590245
0.584281
0.584302
0.583558
0.500004
0.590248
0.5
0.5
0.583523
0.579749
0.586243
0.583689
0.589468
0.580337
0.584168
0.58116
0.588213
0.585198
0.59781
0.5
0.5
0.584073
0.574923
0.590766
0.584084
0.598205
0.506948
0.507922
0.589497
0.583134
0.5
0.5
0.5
0.596933
0.593769
0.597069
0.594608
0.5
0.596121
0.596329
0.5
0.589212
0.584047
0.583574
0.5
0.5
0.589408
0.592971
0.590954
0.590392
0.5
0.577994
0.583606
0.583429
0.500006
0.58945
0.591102
0.50781
0.583404
0.59706
0.576044
0.5834
0.589344
0.5
0.5
0.589098
0.5
0.583682
0.5
0.584069
0.500037
0.583461
0.584094
0.597726
0.5
0.584084
0.500002
0.583635
0.5
0.591008
0.587784
0.587909
0.595959
0.584343
0.5
0.591073
0.590424
0.584377
0.5
0.5
0.584651
0.584269
0.58397
0.596087
0.5
0.584273
0.507772
0.507256
0.5
0.584317
0.5
0.594942
0.5
0.583797
0.587923
0.5
0.5
0.5
0.584253
0.584206
0.593432
0.507169
0.584015
0.586062
0.584217
0.584333
0.50124
0.500006
0.500048
0.5
0.500003
0.596137
0.587442
0.584333
0.583807
0.5
0.58339
0.58325
0.507483
0.586847
0.583966
0.58336
0.584189
0.59195
0.598315
0.507521
0.500152
0.500124
0.584446
0.579541
0.58408
0.5
0.584234
0.5
0.5
0.583871
0.501682
0.591573
0.58432
0.583494
0.584135
0.58423
0.58398
0.584248
0.583644
0.598268
0.588052
0.59576
0.577765
0.584192
0.58757
0.596005
0.583506
0.549341
0.507769
0.585874
0.583264
0.507181
0.584083
0.5
0.58727
0.500001
0.584188
0.591701
0.5
0.591271
0.584945
0.592944
0.592949
0.5
0.584138
0.5
0.597558
0.585662
0.588321
0.5
0.583541
0.5
0.592199
0.589924
0.595664
0.588202
0.589904
0.594479
0.583423
0.5
0.5
0.596255
0.592337
0.50794
0.579237
0.593414
0.584056
0.5
0.584105
0.5
0.584306
0.50832
0.591386
0.583844
0.59341
0.584299
0.58714
0.596381
0.5
0.581615
0.5
0.584157
0.583975
0.583694
0.5
0.583993
0.507265
0.552079
0.58357
0.5
0.59746
0.583564
0.507057
0.584245
0.584085
0.519538
0.583774
0.583373
0.583381
0.5
0.583624
0.515944
0.584081
0.583252
0.5
0.583558
0.579493
0.591963
0.5
0.5075
0.5
0.587737
0.583475
0.584058
0.5
0.587612
0.507774
0.583435
0.5
0.582961
0.598197
0.5
0.5
0.5
0.587125
0.5
0.5
0.585922
0.5
0.586197
0.544161
0.5
0.5
0.584131
0.570773
0.587882
0.5
0.590498
0.584321
0.584328
0.597928
0.583965
0.5
0.5
0.584338
0.584535
0.5
0.583585
0.5
0.58408
0.500026
0.5
0.59279
0.5
0.507365
0.508097
0.584054
0.5
0.5
0.583605
0.53925
0.57829
0.582348
0.5
0.5
0.584293
0.587471
0.583288
0.583754
0.598237
0.5
0.5
0.5
0.507995
0.590448
0.583944
0.584003
0.585035
0.583235
0.564696
0.5
0.59738
0.5
0.594799
0.58426
0.5
0.500003
0.5
0.594883
0.583517
0.583469
0.5
0.585794
0.583396
0.583378
0.5
0.584367
0.5
0.596831
0.5
0.584076
0.587143
0.58328
0.5
0.5
0.584073
0.508852
0.5
0.584049
0.5
0.598255
0.584061
0.588633
0.507677
0.5
0.500023
0.501602
0.585929
0.566903
0.584037
0.5
0.5
0.530871
0.586389
0.584004
0.584268
0.586685
0.584051
0.584045
0.584337
0.584146
0.590883
0.5
0.584234
0.583367
0.5
0.583681
0.583632
0.586965
0.58726
0.50734
0.524946
0.583892
0.583989
0.581312
0.5
0.5
0.598298
0.589647
0.507715
0.584075
0.507873
0.5
0.5
0.500017
0.587247
0.591884
0.5887
0.507195
0.5
0.583843
0.5
0.5
0.58421
0.5
0.585399
0.594921
0.598601
0.58407
0.58403
0.5
0.5
0.584038
0.5
0.584273
0.5843
0.583344
0.596543
0.584082
0.58406
0.592023
0.5
0.5
0.583929
0.5
0.5
0.584055
0.5
0.584036
0.583317
0.584023
0.5
0.5
0.59429
0.5
0.5
0.507103
0.500001
0.507238
0.5
0.560002
0.58406
0.5
0.583856
0.500004
0.5
0.500002
0.5
0.58725
0.5
0.500026
0.5
0.583956
0.5
0.5
0.5
0.5
0.596675
0.597471
0.5
0.584053
0.594759
0.583753
0.5
0.584034
0.584067
0.590302
0.5
0.58336
0.584157
0.584077
0.598413
0.5
0.585166
0.5
0.584062
0.507311
0.5
0.588104
0.584243
0.584244
0.59854
0.5
0.583316
0.584238
0.585654
0.5
0.5
0.5
0.5
0.5839
0.583451
0.584223
0.588451
0.5
0.58374
0.5
0.584096
0.507987
0.585258
0.5
0.5
0.586098
0.583924
0.584216
0.588828
0.58774
0.583766
0.500016
0.5
0.584233
0.582148
0.584336
0.5
0.5
0.5
0.5
0.584207
0.574431
0.580085
0.5
0.5
0.5
0.584059
0.500011
0.584062
0.5
0.58401
0.58379
0.5
0.588679
0.508091
0.507511
0.5
0.5
0.5
0.58353
0.584027
0.584115
0.58368
0.5
0.591583
0.507967
0.5
0.59712
0.5
0.583828
0.5
0.508168
0.5
0.508218
0.5
0.5
0.585397
0.594154
0.5
0.5
0.5
0.583456
0.5
0.58406
0.5
0.5
0.5
0.5
0.5
0.592618
0.5
0.5
0.5
0.589718
0.5
0.584042
0.583842
0.5
0.5
0.583859
0.5
0.5
0.583346
0.5
0.584244
0.583623
0.584075
0.595364
0.583434
0.583292
0.583243
0.5
0.5
0.500018
0.5
0.583386
0.5
0.5
0.5
0.558176
0.594856
0.583602
0.588817
0.584218
0.5
0.5
0.5
0.5
0.5
0.5
0.584043
0.56152
0.570195
0.585832
0.5
0.583848
0.583607
0.585777
0.597535
0.5
0.583684
0.5
0.5
0.5
0.595472
0.5
0.508141
0.5
0.585269
0.584035
0.507464
0.584245
0.583696
0.597409
0.583436
0.5
0.5
0.508586
0.5
0.5
0.508143
0.588367
0.584263
0.5
0.510416
0.59725
0.583575
0.5
0.583891
0.583341
0.583788
0.5
0.5
0.5
0.58335
0.512239
0.584213
0.587267
0.5
0.583402
0.583443
0.589576
0.5
0.507546
0.585172
0.5
0.584054
0.508154
0.555896
0.508635
0.590553
0.508311
0.507073
0.583391
0.508378
0.5
0.5
0.5
0.5
0.572847
0.583489
0.5
0.5
0.5
0.5
0.584074
0.583715
0.508715
0.5
0.58407
0.540553
0.509247
0.500876
0.597383
0.5
0.590703
0.5
0.586112
0.5
0.509418
0.596592
0.584291
0.5
0.583936
0.585951
0.5
0.5
0.500004
0.584053
0.5
0.584185
0.583424
0.583613
0.518577
0.589113
0.585064
0.5
0.583478
0.584245
0.584199
0.598
0.51453
0.5
0.584296
0.584064
0.584935
0.597756
0.585668
0.527539
0.5
0.597656
0.5
0.576404
0.5
0.583362
0.5
0.5
0.586246
0.584305
0.5
0.590541
0.584006
0.585309
0.5
0.5
0.590708
0.5
0.5
0.587593
0.584062
0.5
0.542768
0.5
0.5
0.5
0.5
0.507597
0.50816
0.550229
0.5
0.584173
0.584331
0.597147
0.53668
0.508127
0.589088
0.58348
0.590364
0.5
0.583873
0.508295
0.583899
0.580119
0.55051
0.5
0.581334
0.544686
0.597281
0.5
0.5
0.58942
0.562716
0.585955
0.583573
0.508155
0.584779
0.5
0.556927
0.590535
0.589604
0.515265
0.544137
0.5
0.523284
0.5
0.584181
0.5
0.58373
0.583713
0.583474
0.5
0.5
0.52208
0.584258
0.5
0.597891
0.551398
0.532965
0.557685
0.534556
0.5
0.568167
0.584299
0.572862
0.563811
0.584072
0.5
0.584056
0.591809
0.5
0.59212
0.584314
0.587127
0.598103
0.59102
0.589273
0.584048
0.584075
0.509014
0.5
0.569321
0.5
0.583234
0.584281
0.5
0.5
0.508353
0.5
0.584134
0.590199
0.573669
0.584106
0.584083
0.584474
0.58407
0.5
0.5
0.592274
0.584222
0.584178
0.5
0.597635
0.597879
0.5849
0.590324
0.508195
0.5
0.5
0.5
0.590089
0.590868
0.5
0.5
0.500005
0.591962
0.584169
0.584225
0.58418
0.5
0.588924
0.583222
0.5
0.588213
0.5
0.5832
0.5
0.5
0.587642
0.59819
0.5
0.591017
0.584257
0.5
0.5
0.584129
0.584083
0.5
0.5
0.584254
0.592897
0.5
0.5
0.598324
0.588036
0.5
0.578743
0.5
0.5
0.5
0.5
0.5
0.5
0.5
0.592431
0.590189
0.578263
0.587579
0.5
0.584287
0.50826
0.508174
0.583652
0.583558
0.5
0.5
0.5
0.583663
0.582292
0.5
0.5
0.5
0.590314
0.5
0.550353
0.5
0.5
0.584659
0.508161
0.5
0.5
0.584418
0.584357
0.583481
0.5
0.583493
0.5
0.500016
0.5
0.588188
0.591825
0.5
0.5
0.5828
0.587276
0.5
0.586394
0.58878
0.5
0.508143
0.5
0.508579
0.5
0.5
0.500028
0.509159
0.5
0.5
0.5
0.5
0.584611
0.500015
0.584097
0.583371
0.508426
0.592821
0.598269
0.542098
0.508253
0.5
0.582079
0.547204
0.583547
0.5
0.586525
0.5929
0.5
0.508667
0.583788
0.5
0.59269
0.584088
0.5
0.597777
0.5
0.5
0.5
0.5
0.5
0.551867
0.5
0.5
0.5
0.508146
0.5
0.584109
0.598352
0.5
0.587376
0.5
0.584276
0.592739
0.518103
0.584174
0.584237
0.5
0.598344
0.5
0.58623
0.589932
0.586355
0.5
0.5
0.583875
0.583971
0.59028
0.583726
0.5
0.5
0.588045
0.590442
0.5
0.584054
0.50817
0.5
0.5
0.592278
0.5
0.592702
0.592589
0.5
0.5
0.501119
0.5
0.59117
0.5
0.510243
0.584158
0.5
0.584134
0.5
0.584067
0.5
0.508882
0.583893
0.592893
0.500008
0.500005
0.583869
0.575545
0.5
0.583414
0.5
0.583947
0.5
0.588301
0.584076
0.5
0.5
0.590224
0.588361
0.5
0.587586
0.598194
0.589782
0.584088
0.584031
0.598265
0.598098
0.5
0.588621
0.508163
0.5
0.508258
0.5
0.587112
0.5
0.5
0.5
0.589624
0.5
0.521757
0.5
0.5
0.584191
0.5
0.587988
0.587441
0.584067
0.584091
0.5
0.517288
0.588005
0.5
0.508216
0.5
0.5
0.5
0.5
0.508163
0.584332
0.595513
0.586679
0.5
0.588313
0.5
0.586513
0.553377
0.5
0.5
0.5
0.5
0.5
0.5
0.585124
0.508188
0.592742
0.508187
0.5
0.5
0.578913
0.5
0.583959
0.5
0.585689
0.587198
0.578936
0.598288
0.577931
0.5
0.5
0.592271
0.508475
0.582683
0.58383
0.5
0.58692
0.590235
0.5
0.580501
0.586815
0.590511
0.584733
0.588918
0.584113
0.5
0.584085
0.584148
0.5
0.5
0.5
0.593059
0.5
0.5
0.5
0.589072
0.5
0.5
0.583459
0.587413
0.5
0.5
0.5
0.5
0.5
0.5
0.5
0.50922
0.5
0.501135
0.5
0.5
0.5
0.5
0.587739
0.5
0.5
0.5
0.583919
0.5
0.5
0.508097
0.5
0.5
0.5
0.5
0.583987
0.596719
0.5
0.596753
0.583768
0.5
0.587094
0.584054
0.500009
0.50001
0.5
0.5
0.587677
0.5
0.5
0.508178
0.511748
0.511406
0.584784
0.5
0.5
0.5
0.597642
0.5
0.5
0.5
0.5
0.5
0.584157
0.584221
0.594362
0.5
0.5
0.5
0.597759
0.597601
0.597528
0.5
0.5
0.5
0.5
0.5
0.5
0.593975
0.5
0.5
0.5
0.585101
0.5
0.590565
0.5
0.501664
0.501613
0.5
0.581137
0.5
0.588511
0.509679
0.5
0.590455
0.500001
0.508192
0.582491
0.5
0.587067
0.584603
0.584388
0.500001
0.5
0.5
0.5
0.5
0.5
0.5
0.5
0.5
0.5
0.5
0.5
0.5
0.5
0.591805
0.5
0.57353
0.581694
0.5
0.5
0.5
0.5
0.5
0.5
0.592427
0.5
0.5
0.5
0.5
0.5
0.5
0.5
0.58511
0.50636
0.506133
0.5
0.5
0.5
0.580586
0.586506
0.5
0.5
0.5
0.5
0.595817
0.581526
0.5
0.589317
0.584044
0.5
0.585747
0.5
0.597015
0.5
0.588452
0.588516
0.596992
0.597042
0.5
0.5
0.508129
0.508115
0.596739
0.5
0.5
0.597642
0.583238
0.5
0.587731
0.5
0.5
0.584104
0.590141
0.592745
0.598167
0.5
0.5
0.5
0.5
0.50812
0.5
0.5
0.5
0.5
0.5
0.5
0.5
0.50161
0.57688
0.584319
0.508882
0.5
0.5
0.5
0.5
0.500044
0.5
0.5
0.5
0.5
0.5
0.5
0.508155
0.5
0.583669
0.583852
0.583477
0.583623
0.508412
0.5
0.5
0.581914
0.590012
0.5
0.58401
0.5
0.50817
0.5
0.5
0.586807
0.508154
0.584026
0.583937
0.532607
0.532714
0.5
0.586647
0.508176
0.5
0.507806
0.583529
0.5
0.5
0.592113
0.590549
0.583995
0.500275
0.591794
0.508005
0.591488
0.508149
0.508138
0.50781
0.591315
0.5
0.508001
0.5
0.508184
0.553317
0.5
0.5
0.584168
0.592915
0.586778
0.508051
0.598344
0.5
0.586479
0.593229
0.593215
0.5
0.584251
0.591334
0.594627
0.584027
0.50816
0.5
0.584316
0.5
0.596139
0.508174
0.508173
0.582376
0.5
0.581681
0.5
0.593695
0.5
0.5
0.5
0.508154
0.5
0.508167
0.508184
0.5
0.591482
0.5
0.5
0.589541
0.587719
0.587823
0.596514
0.5
0.58253
0.584259
0.5
0.5
0.5
0.5
0.5
0.508041
0.5
0.508143
0.590857
0.584305
0.5
0.596566
0.59658
0.583054
0.5
0.562422
0.5
0.5
0.5
0.5
0.5
0.5
0.5
0.5
0.508186
0.597621
0.5
0.5
0.5
0.597653
0.597737
0.5
0.5
0.5
0.5
0.5
0.513267
0.5
0.597952
0.508241
0.598169
0.597998
0.5
0.5
0.5
0.5
0.51566
0.515381
0.587818
0.501174
0.501141
0.587893
0.5
0.508236
0.597961
0.5
0.5
0.584066
0.5
0.500014
0.500014
0.5
0.5
0.5
0.5
0.500001
0.5
0.5
0.508205
0.5
0.5
0.58406
0.5
0.500394
0.500402
0.5
0.5
0.5
0.5
0.5
0.5
0.5
0.5
0.5
0.5
0.590158
0.5
0.584126
0.508188
0.5
0.583551
0.5
0.508481
0.508525
0.508132
0.5
0.516096
0.574821
0.5
0.508086
0.58346
0.584018
0.557634
0.507802
0.5
0.5
0.5
0.583436
0.5
0.5
0.5083
0.589474
0.589308
0.5
0.5
0.5
0.584024
0.5
0.5
0.583333
0.582694
0.5
0.510633
0.508288
0.5
0.583863
0.587268
0.586971
0.555508
0.5
0.597947
0.584301
0.591162
0.5084
0.508137
0.5
0.509051
0.50773
0.584028
0.5
0.589851
0.5
0.509462
0.584346
0.584087
0.508484
0.5
0.507737
0.588166
0.5
0.589226
0.5
0.5
0.508156
0.589616
0.589532
0.5
0.500064
0.583604
0.509977
0.584024
0.5
0.590848
0.5
0.567882
0.5
0.507442
0.511746
0.517256
0.5
0.500396
0.5
0.5092
0.5
0.507958
0.5
0.584072
0.571413
0.5
0.584029
0.504604
0.504467
0.526375
0.566874
0.508335
0.513578
0.584031
0.508166
0.508137
0.584213
0.5
0.5
0.508262
0.508078
0.5
0.5
0.5
0.5
0.5
0.579807
0.539945
0.539793
0.508151
0.508159
0.585565
0.508015
0.530304
0.5
0.5
0.5
0.556249
0.52111
0.5
0.511598
0.508158
0.584025
0.584263
0.549537
0.507949
0.582982
0.508538
0.594596
0.5
0.584082
0.5
0.508185
0.508191
0.584119
0.5
0.5
0.5
0.513996
0.584064
0.508126
0.592742
0.598346
0.5
0.508252
0.576045
0.594361
0.5
0.562914
0.509824
0.508428
0.597126
0.597178
0.5
0.5
0.508803
0.594467
0.5
0.526355
0.584245
0.5
0.595978
0.50882
0.5
0.593853
0.52127
0.5
0.583067
0.5
0.5
0.508156
0.508052
0.5
0.5
0.5
0.563264
0.508112
0.5
0.508262
0.580793
0.595598
0.556596
0.5
0.5
0.538354
0.595619
0.5
0.520023
0.5
0.508131
0.508093
0.584116
0.5
0.5
0.5
0.5
0.5
0.5
0.50819
0.5
0.548222
0.508272
0.524526
0.571943
0.509158
0.5
0.508169
0.584428
0.515805
0.584689
0.508371
0.577685
0.583132
0.508228
0.581022
0.5
0.598275
0.5981
0.5
0.5
0.508134
0.591965
0.591651
0.5
0.5
0.536273
0.508243
0.53198
0.5
0.583787
0.508406
0.5
0.597493
0.524639
0.520223
0.5
0.5081
0.588475
0.586663
0.507808
0.519456
0.520477
0.596513
0.577467
0.508627
0.5554
0.584288
0.584279
0.50812
0.579237
0.50868
0.59687
0.500274
0.50028
0.5
0.597175
0.567823
0.561708
0.582744
0.583374
0.562245
0.58417
0.508513
0.5
0.592584
0.566981
0.545276
0.508061
0.5
0.574472
0.511144
0.5
0.5
0.5
0.584303
0.580322
0.508167
0.561908
0.5
0.5
0.566698
0.583613
0.508802
0.584018
0.57921
0.5
0.583537
0.5
0.5
0.580748
0.508163
0.5
0.5
0.5
0.583882
0.571272
0.584029
0.583146
0.542337
0.544463
0.577196
0.559367
0.567346
0.5
0.581591
0.509484
0.582398
0.5
0.508164
0.511852
0.58404
0.52252
0.567018
0.516935
0.58353
0.508133
0.561364
0.580898
0.580291
0.521308
0.5
0.511098
0.5
0.5
0.532546
0.539663
0.547405
0.582683
0.508714
0.576382
0.508159
0.570955
0.5
0.554814
0.5
0.5
0.5
0.5
0.51021
0.583515
0.526521
0.5
0.575056
0.579219
0.579545
0.583959
0.567193
0.577377
0.5
0.582006
0.584031
0.567528
0.583893
0.5
0.508109
0.5
0.508149
0.551213
0.508474
0.584159
0.583208
0.589395
0.589703
0.5
0.584035
0.583493
0.579816
0.5
0.5
0.508072
0.581817
0.509972
0.583965
0.583686
0.516897
0.566176
0.56631
0.549166
0.575309
0.583172
0.580957
0.5
0.508979
0.500002
0.587901
0.5
0.5
0.5
0.5
0.5
0.57489
0.500002
0.581814
0.58408
0.58406
0.58368
0.581927
0.580843
0.5
0.584091
0.508088
0.546406
0.58301
0.584103
0.583732
0.584227
0.5
0.508567
0.580694
0.5
0.508246
0.583514
0.5
0.512368
0.584044
0.509255
0.583475
0.583438
0.5
0.508164
0.584263
0.583828
0.570977
0.583784
0.571744
0.583439
0.508439
0.583982
0.586975
0.544683
0.5
0.5
0.5
0.584081
0.583919
0.508183
0.583431
0.582127
0.583148
0.508375
0.583724
0.584312
0.584005
0.583829
0.588194
0.584288
0.583802
0.520646
0.5
0.583863
0.584024
0.584036
0.5
0.583263
0.5
0.584049
0.5
0.583831
0.571602
0.584001
0.5372
0.577974
0.584126
0.508163
0.5
0.582792
0.5
0.50817
0.5
0.510143
0.583711
0.509932
0.508073
0.583904
0.583973
0.530944
0.5
0.582603
0.5
0.5
0.5
0.583972
0.5
0.510943
0.584089
0.58405
0.572385
0.5
0.583826
0.583913
0.508142
0.527701
0.583494
0.5
0.5
0.5
0.583901
0.578266
0.578882
0.5
0.583464
0.583119
0.5
0.583855
0.584352
0.584827
0.583981
0.584194
0.5
0.592116
0.59165
0.5
0.583988
0.583923
0.581157
0.583956
0.584015
0.51159
0.583987
0.584025
0.584228
0.5
0.586796
0.584075
0.5
0.58402
0.581827
0.5
0.552716
0.584277
0.5
0.584253
0.584009
0.5
0.584308
0.597169
0.584259
0.584016
0.5
0.5
0.5
0.539912
0.584227
0.5
0.592433
0.5
0.582609
0.5
0.5
0.582628
0.5
0.583377
0.51076
0.5
0.5
0.5
0.583657
0.584079
0.584028
0.5
0.582022
0.535313
0.584283
0.5
0.583563
0.5
0.5
0.584046
0.583934
0.5
0.584005
0.508152
0.583808
0.5
0.5
0.5
0.508098
0.584016
0.5
0.564477
0.5
0.583996
0.5
0.5
0.584159
0.584032
0.589726
0.589236
0.584336
0.584351
0.584005
0.584066
0.5
0.5
0.583215
0.583232
0.584353
0.512971
0.587737
0.57471
0.582885
0.583999
0.571383
0.566131
0.584363
0.5
0.5
0.583863
0.5
0.584041
0.577087
0.5
0.584035
0.5
0.5
0.58406
0.584162
0.584028
0.583586
0.5
0.584035
0.5
0.5
0.5
0.583897
0.586836
0.583941
0.5
0.584044
0.5
0.582582
0.5
0.584014
0.5
0.583492
0.587431
0.5
0.588042
0.588354
0.589992
0.5
0.5
0.5
0.5
0.508203
0.584058
0.584096
0.584051
0.584031
0.5
0.5
0.567425
0.511844
0.5
0.5
0.584028
0.583995
0.58404
0.584061
0.5
0.584038
0.508097
0.5
0.58436
0.545253
0.584063
0.584362
0.5
0.5
0.583967
0.5
0.584024
0.5
0.584037
0.5
0.5
0.5
0.583801
0.5
0.5
0.5
0.584232
0.583955
0.584056
0.591496
0.583452
0.584042
0.5
0.5
0.583244
0.583262
0.584325
0.584033
0.584042
0.583713
0.583647
0.584076
0.5
0.584318
0.5
0.583924
0.596501
0.597634
0.5
0.59245
0.584362
0.5
0.583313
0.584319
0.584043
0.584363
0.584032
0.542863
0.583368
0.583355
0.5
0.583339
0.591336
0.583979
0.508452
0.572341
0.584368
0.5
0.584165
0.584343
0.584071
0.584052
0.58435
0.584364
0.5
0.5
0.57864
0.584329
0.5
0.5
0.583089
0.584046
0.575124
0.5
0.5
0.5
0.5
0.584046
0.589887
0.5
0.584058
0.584049
0.596456
0.584051
0.584306
0.584275
0.58395
0.5
0.584361
0.583931
0.584052
0.583596
0.5
0.5
0.584053
0.584042
0.584046
0.5
0.5
0.5
0.5
0.584057
0.584077
0.584365
0.586686
0.584041
0.583194
0.5
0.5
0.588367
0.58353
0.584038
0.584042
0.583698
0.584069
0.584017
0.5
0.5
0.583699
0.5
0.5
0.583668
0.5
0.5
0.583735
0.584034
0.5
0.584038
0.5
0.5
0.58409
0.584054
0.5
0.584094
0.5
0.583485
0.584245
0.584193
0.584082
0.5
0.584226
0.5
0.583955
0.584058
0.560285
0.584065
0.5
0.58429
0.5
0.584228
0.583885
0.591335
0.583927
0.5
0.583522
0.5
0.584137
0.584301
0.584236
0.584165
0.5
0.5
0.583982
0.5
0.583992
0.5
0.582707
0.584074
0.583272
0.58346
0.584066
0.584175
0.584091
0.5
0.584189
0.584225
0.583508
0.59559
0.597581
0.584108
0.58355
0.5
0.584216
0.584323
0.5
0.58404
0.5
0.58426
0.5
0.5
0.583785
0.584285
0.583509
0.584074
0.583591
0.579447
0.5
0.584188
0.584076
0.5
0.58346
0.5
0.5
0.584066
0.584309
0.583517
0.5
0.584334
0.584161
0.58424
0.585497
0.584197
0.5
0.584069
0.5899
0.59003
0.5
0.584077
0.584274
0.584079
0.583546
0.58435
0.583875
0.584047
0.584326
0.5
0.5
0.5
0.585629
0.584013
0.584064
0.584276
0.58436
0.586554
0.584044
0.5
0.584214
0.584194
0.584094
0.5
0.584081
0.584268
0.583997
0.585226
0.5
0.585645
0.583547
0.5
0.583604
0.583808
0.583509
0.584098
0.584485
0.588524
0.5
0.58408
0.5
0.5
0.585779
0.584093
0.583714
0.58427
0.584365
0.584307
0.5
0.583891
0.584362
0.584081
0.584057
0.5
0.584187
0.5
0.5842
0.584317
0.5
0.5
0.583618
0.584286
0.5
0.584263
0.584341
0.584182
0.58407
0.583861
0.584163
0.58395
0.584319
0.584264
0.584193
0.584348
0.5
0.58539
0.584357
0.584075
0.584365
0.585924
0.59118
0.5
0.584083
0.584255
0.584271
0.585745
0.584328
0.584277
0.5
0.584361
0.584327
0.584088
0.5
0.5
0.584088
0.583595
0.584368
0.5
0.584086
0.58415
0.5
0.584072
0.584155
0.584292
0.594346
0.583984
0.585539
0.5
0.597886
0.5
0.5
0.5
0.583577
0.584257
0.5
0.584094
0.584255
0.584077
0.5
0.5842
0.584066
0.58443
0.584339
0.584356
0.584199
0.586615
0.58385
0.585789
0.584263
0.5
0.5
0.583529
0.5
0.5
0.5
0.584231
0.5
0.584078
0.584097
0.58609
0.58431
0.584361
0.584351
0.5
0.584087
0.583525
0.584081
0.58416
0.589747
0.586404
0.5
0.584239
0.5
0.584042
0.584228
0.58429
0.584265
0.583667
0.590063
0.584354
0.584309
0.584207
0.584297
0.586054
0.5
0.584067
0.584181
0.584282
0.584028
0.5
0.584067
0.584085
0.584311
0.58432
0.584352
0.583521
0.587561
0.584052
0.584287
0.584266
0.58404
0.584081
0.584143
0.5
0.588531
0.584271
0.584063
0.5
0.586271
0.584209
0.58416
0.5
0.584201
0.584237
0.5
0.584263
0.5
0.584031
0.58612
0.5
0.5
0.584249
0.5
0.587405
0.584153
0.584194
0.5
0.588675
0.587528
0.595741
0.583845
0.584171
0.584258
0.584366
0.5
0.5
0.589763
0.585665
0.595587
0.5
0.583953
0.595448
0.584205
0.585527
0.592408
0.584094
0.584154
0.586014
0.587226
0.592115
0.584244
0.584207
0.58406
0.5
0.5
0.584071
0.5
0.592567
0.591185
0.592719
0.588135
0.5
0.583724
0.5
0.584183
0.5
0.589679
0.589165
0.594333
0.585803
0.588537
0.588368
0.585935
0.5
0.584174
0.584175
0.5
0.598121
0.5