# vtk DataFile Version 1.0
unstructured grid
ascii
DATASET UNSTRUCTURED_GRID
points 8094 float
-0.25 0.0574735 0
0.5 0.0546937 0
0.5 -0.0546937 0
-0.25 -0.0574735 0
-0.25 0.0574735 0.01
0.5 0.0546937 0.01
0.5 -0.0546937 0.01
-0.25 -0.0574735 0.01
-0.246045 0.0569295 0
-0.242089 0.0563854 0
-0.238136 0.0558289 0
-0.234184 0.0552582 0
-0.230232 0.0546875 0
-0.226284 0.0540912 0
-0.222337 0.0534933 0
-0.218391 0.0528841 0
-0.214448 0.0522585 0
-0.210504 0.0516328 0
-0.206565 0.0509829 0
-0.202626 0.0503294 0
-0.198689 0.0496667 0
-0.194755 0.0489856 0
-0.190821 0.0483046 0
-0.18689 0.0476022 0
-0.182961 0.0468942 0
-0.179033 0.0461799 0
-0.175108 0.0454463 0
-0.171183 0.0447127 0
-0.167262 0.0439627 0
-0.163342 0.0432056 0
-0.159422 0.0424455 0
-0.155506 0.041668 0
-0.15159 0.0408904 0
-0.147675 0.0401031 0
-0.143762 0.0393092 0
-0.13985 0.0385149 0
-0.135939 0.0377103 0
-0.132028 0.0369056 0
-0.128117 0.0361005 0
-0.124207 0.0352949 0
-0.120296 0.0344893 0
-0.116386 0.0336836 0
-0.112475 0.032878 0
-0.108563 0.0320794 0
-0.104649 0.0312931 0
-0.100735 0.0305068 0
-0.0968152 0.029745 0
-0.0928949 0.0289889 0
-0.0889722 0.0282446 0
-0.0850433 0.0275341 0
-0.0811144 0.0268235 0
-0.0771778 0.0261578 0
-0.0732381 0.0255098 0
-0.0692962 0.0248759 0
-0.0653442 0.0243073 0
-0.0613923 0.0237386 0
-0.0574324 0.0232306 0
-0.0534681 0.0227556 0
-0.0495024 0.0222934 0
-0.0455272 0.0219207 0
-0.041552 0.0215481 0
-0.0375717 0.0212385 0
-0.0335881 0.0209694 0
-0.029604 0.0207098 0
-0.0256151 0.0205369 0
-0.0216262 0.0203639 0
-0.0176357 0.0202396 0
-0.0136441 0.0201487 0
-0.00965243 0.0200635 0
-0.00565987 0.0200372 0
-0.00166732 0.020011 0
0.00232526 0.0200121 0
0.00631785 0.0200329 0
0.0103104 0.0200563 0
0.0143027 0.0201109 0
0.018295 0.0201654 0
0.022287 0.0202345 0
0.0262788 0.0203144 0
0.0302706 0.0203957 0
0.034262 0.0204956 0
0.0382534 0.0205955 0
0.0422446 0.0207045 0
0.0462355 0.0208207 0
0.0502265 0.0209377 0
0.054217 0.0210676 0
0.0582075 0.0211975 0
0.0621978 0.0213339 0
0.0661879 0.0214757 0
0.0701781 0.021618 0
0.0741678 0.0217703 0
0.0781575 0.0219227 0
0.0821471 0.0220801 0
0.0861364 0.022242 0
0.0901258 0.0224041 0
0.0941148 0.0225747 0
0.0981038 0.0227453 0
0.102093 0.0229202 0
0.106081 0.023099 0
0.11007 0.0232779 0
0.114058 0.0234644 0
0.118046 0.0236509 0
0.122035 0.0238411 0
0.126022 0.024035 0
0.13001 0.0242288 0
0.133998 0.0244298 0
0.137986 0.0246308 0
0.141973 0.0248352 0
0.14596 0.025043 0
0.149947 0.0252509 0
0.153934 0.0254654 0
0.157921 0.02568 0
0.161908 0.0258978 0
0.165894 0.026119 0
0.169881 0.0263402 0
0.173867 0.0265678 0
0.177853 0.0267956 0
0.181839 0.0270264 0
0.185825 0.0272607 0
0.189811 0.0274951 0
0.193796 0.0277356 0
0.197781 0.0279764 0
0.201767 0.02822 0
0.205752 0.0284673 0
0.209737 0.0287146 0
0.213721 0.0289679 0
0.217706 0.0292217 0
0.22169 0.0294782 0
0.225674 0.0297385 0
0.229658 0.0299988 0
0.233642 0.0302651 0
0.237626 0.0305319 0
0.241609 0.0308014 0
0.245593 0.0310748 0
0.249576 0.0313482 0
0.253559 0.0316276 0
0.257542 0.0319077 0
0.261524 0.0321904 0
0.265507 0.0324772 0
0.269489 0.032764 0
0.273471 0.0330568 0
0.277453 0.0333504 0
0.281434 0.0336466 0
0.285416 0.0339471 0
0.289397 0.0342476 0
0.293378 0.034554 0
0.297359 0.0348615 0
0.301339 0.0351714 0
0.305319 0.0354859 0
0.3093 0.0358005 0
0.313279 0.036121 0
0.317259 0.0364427 0
0.321239 0.0367667 0
0.325218 0.0370957 0
0.329197 0.0374248 0
0.333175 0.0377597 0
0.337154 0.0380961 0
0.341132 0.0384347 0
0.34511 0.0387786 0
0.349088 0.0391226 0
0.353065 0.0394724 0
0.357042 0.0398239 0
0.361019 0.0401775 0
0.364995 0.0405368 0
0.368972 0.0408961 0
0.372948 0.0412613 0
0.376924 0.0416285 0
0.380899 0.0419975 0
0.384874 0.0423727 0
0.388849 0.0427479 0
0.392823 0.0431289 0
0.396798 0.0435123 0
0.400772 0.0438973 0
0.404745 0.044289 0
0.408718 0.0446807 0
0.412691 0.0450781 0
0.416664 0.0454782 0
0.420636 0.0458797 0
0.424608 0.0462883 0
0.42858 0.046697 0
0.432551 0.0471114 0
0.436521 0.0475289 0
0.440492 0.0479474 0
0.444462 0.0483738 0
0.448432 0.0488001 0
0.452401 0.0492319 0
0.45637 0.0496673 0
0.460338 0.0501035 0
0.464306 0.0505482 0
0.468274 0.0509928 0
0.472241 0.0514427 0
0.476208 0.0518968 0
0.480175 0.0523512 0
0.48414 0.0528148 0
0.488106 0.0532784 0
0.492071 0.0537471 0
0.496036 0.0542204 0
0.5 0.050787 0
0.5 0.0468803 0
0.5 0.0429736 0
0.5 0.0390669 0
0.5 0.0351602 0
0.5 0.0312535 0
0.5 0.0273468 0
0.5 0.0234402 0
0.5 0.0195335 0
0.5 0.0156268 0
0.5 0.0117201 0
0.5 0.00781339 0
0.5 0.00390669 0
0.5 1.43781e-13 0
0.5 -0.00390669 0
0.5 -0.00781339 0
0.5 -0.0117201 0
0.5 -0.0156268 0
0.5 -0.0195335 0
0.5 -0.0234402 0
0.5 -0.0273468 0
0.5 -0.0312535 0
0.5 -0.0351602 0
0.5 -0.0390669 0
0.5 -0.0429736 0
0.5 -0.0468803 0
0.5 -0.050787 0
0.496036 -0.0542204 0
0.492071 -0.0537471 0
0.488106 -0.0532784 0
0.48414 -0.0528148 0
0.480175 -0.0523512 0
0.476208 -0.0518968 0
0.472241 -0.0514427 0
0.468274 -0.0509928 0
0.464306 -0.0505482 0
0.460338 -0.0501035 0
0.45637 -0.0496673 0
0.452401 -0.0492319 0
0.448432 -0.0488001 0
0.444462 -0.0483738 0
0.440492 -0.0479474 0
0.436521 -0.0475289 0
0.432551 -0.0471114 0
0.42858 -0.046697 0
0.424608 -0.0462883 0
0.420636 -0.0458797 0
0.416664 -0.0454782 0
0.412691 -0.0450781 0
0.408718 -0.0446807 0
0.404745 -0.044289 0
0.400772 -0.0438973 0
0.396798 -0.0435123 0
0.392823 -0.0431289 0
0.388849 -0.0427479 0
0.384874 -0.0423727 0
0.380899 -0.0419975 0
0.376924 -0.0416285 0
0.372948 -0.0412613 0
0.368972 -0.0408961 0
0.364995 -0.0405368 0
0.361019 -0.0401775 0
0.357042 -0.0398239 0
0.353065 -0.0394724 0
0.349088 -0.0391226 0
0.34511 -0.0387786 0
0.341132 -0.0384347 0
0.337154 -0.0380961 0
0.333175 -0.0377597 0
0.329197 -0.0374248 0
0.325218 -0.0370957 0
0.321239 -0.0367667 0
0.317259 -0.0364427 0
0.313279 -0.036121 0
0.3093 -0.0358005 0
0.305319 -0.0354859 0
0.301339 -0.0351714 0
0.297359 -0.0348615 0
0.293378 -0.034554 0
0.289397 -0.0342476 0
0.285416 -0.0339471 0
0.281434 -0.0336466 0
0.277453 -0.0333504 0
0.273471 -0.0330568 0
0.269489 -0.032764 0
0.265507 -0.0324772 0
0.261524 -0.0321904 0
0.257542 -0.0319077 0
0.253559 -0.0316276 0
0.249576 -0.0313482 0
0.245593 -0.0310748 0
0.241609 -0.0308014 0
0.237626 -0.0305319 0
0.233642 -0.0302651 0
0.229658 -0.0299988 0
0.225674 -0.0297385 0
0.22169 -0.0294782 0
0.217706 -0.0292217 0
0.213721 -0.0289679 0
0.209737 -0.0287146 0
0.205752 -0.0284673 0
0.201767 -0.02822 0
0.197781 -0.0279764 0
0.193796 -0.0277356 0
0.189811 -0.0274951 0
0.185825 -0.0272607 0
0.181839 -0.0270264 0
0.177853 -0.0267956 0
0.173867 -0.0265678 0
0.169881 -0.0263402 0
0.165894 -0.026119 0
0.161908 -0.0258978 0
0.157921 -0.02568 0
0.153934 -0.0254654 0
0.149947 -0.0252509 0
0.14596 -0.025043 0
0.141973 -0.0248352 0
0.137986 -0.0246308 0
0.133998 -0.0244298 0
0.13001 -0.0242288 0
0.126022 -0.024035 0
0.122035 -0.0238411 0
0.118046 -0.0236509 0
0.114058 -0.0234644 0
0.11007 -0.0232779 0
0.106081 -0.023099 0
0.102093 -0.0229202 0
0.0981038 -0.0227453 0
0.0941148 -0.0225747 0
0.0901258 -0.0224041 0
0.0861364 -0.022242 0
0.0821471 -0.0220801 0
0.0781575 -0.0219227 0
0.0741678 -0.0217703 0
0.0701781 -0.021618 0
0.0661879 -0.0214757 0
0.0621978 -0.0213339 0
0.0582075 -0.0211975 0
0.054217 -0.0210676 0
0.0502265 -0.0209377 0
0.0462355 -0.0208207 0
0.0422446 -0.0207045 0
0.0382534 -0.0205955 0
0.034262 -0.0204956 0
0.0302706 -0.0203957 0
0.0262788 -0.0203144 0
0.022287 -0.0202345 0
0.018295 -0.0201654 0
0.0143027 -0.0201109 0
0.0103104 -0.0200563 0
0.00631785 -0.0200329 0
0.00232526 -0.0200121 0
-0.00166732 -0.020011 0
-0.00565987 -0.0200372 0
-0.00965243 -0.0200635 0
-0.0136441 -0.0201487 0
-0.0176357 -0.0202396 0
-0.0216262 -0.0203639 0
-0.0256151 -0.0205369 0
-0.029604 -0.0207098 0
-0.0335881 -0.0209694 0
-0.0375717 -0.0212385 0
-0.041552 -0.0215481 0
-0.0455272 -0.0219207 0
-0.0495024 -0.0222934 0
-0.0534681 -0.0227556 0
-0.0574324 -0.0232306 0
-0.0613923 -0.0237386 0
-0.0653442 -0.0243073 0
-0.0692962 -0.0248759 0
-0.0732381 -0.0255098 0
-0.0771778 -0.0261578 0
-0.0811144 -0.0268235 0
-0.0850433 -0.0275341 0
-0.0889722 -0.0282446 0
-0.0928949 -0.0289889 0
-0.0968152 -0.029745 0
-0.100735 -0.0305068 0
-0.104649 -0.0312931 0
-0.108563 -0.0320794 0
-0.112475 -0.032878 0
-0.116386 -0.0336836 0
-0.120296 -0.0344893 0
-0.124207 -0.0352949 0
-0.128117 -0.0361005 0
-0.132028 -0.0369056 0
-0.135939 -0.0377103 0
-0.13985 -0.0385149 0
-0.143762 -0.0393092 0
-0.147675 -0.0401031 0
-0.15159 -0.0408904 0
-0.155506 -0.041668 0
-0.159422 -0.0424455 0
-0.163342 -0.0432056 0
-0.167262 -0.0439627 0
-0.171183 -0.0447127 0
-0.175108 -0.0454463 0
-0.179033 -0.0461799 0
-0.182961 -0.0468942 0
-0.18689 -0.0476022 0
-0.190821 -0.0483046 0
-0.194755 -0.0489856 0
-0.198689 -0.0496667 0
-0.202626 -0.0503294 0
-0.206565 -0.0509829 0
-0.210504 -0.0516328 0
-0.214448 -0.0522585 0
-0.218391 -0.0528841 0
-0.222337 -0.0534933 0
-0.226284 -0.0540912 0
-0.230232 -0.0546875 0
-0.234184 -0.0552582 0
-0.238136 -0.0558289 0
-0.242089 -0.0563854 0
-0.246045 -0.0569295 0
-0.25 -0.0535098 0
-0.25 -0.0495461 0
-0.25 -0.0455824 0
-0.25 -0.0416187 0
-0.25 -0.0376551 0
-0.25 -0.0336914 0
-0.25 -0.0297277 0
-0.25 -0.025764 0
-0.25 -0.0218003 0
-0.25 -0.0178366 0
-0.25 -0.0138729 0
-0.25 -0.00990922 0
-0.25 -0.00594553 0
-0.25 -0.00198184 0
-0.25 0.00198184 0
-0.25 0.00594553 0
-0.25 0.00990922 0
-0.25 0.0138729 0
-0.25 0.0178366 0
-0.25 0.0218003 0
-0.25 0.025764 0
-0.25 0.0297277 0
-0.25 0.0336914 0
-0.25 0.0376551 0
-0.25 0.0416187 0
-0.25 0.0455824 0
-0.25 0.0495461 0
-0.25 0.0535098 0
-0.246045 0.0569295 0.01
-0.242089 0.0563854 0.01
-0.238136 0.0558289 0.01
-0.234184 0.0552582 0.01
-0.230232 0.0546875 0.01
-0.226284 0.0540912 0.01
-0.222337 0.0534933 0.01
-0.218391 0.0528841 0.01
-0.214448 0.0522585 0.01
-0.210504 0.0516328 0.01
-0.206565 0.0509829 0.01
-0.202626 0.0503294 0.01
-0.198689 0.0496667 0.01
-0.194755 0.0489856 0.01
-0.190821 0.0483046 0.01
-0.18689 0.0476022 0.01
-0.182961 0.0468942 0.01
-0.179033 0.0461799 0.01
-0.175108 0.0454463 0.01
-0.171183 0.0447127 0.01
-0.167262 0.0439627 0.01
[...]
CELL_DATA 7657
SCALARS rho float
LOOKUP_TABLE default
0.4784
0.39814
0.390059
0.38143
0.495709
0.384824
0.372572
0.492458
0.381988
0.500424
0.500484
0.491301
0.374186
0.491822
0.494817
0.48906
0.494712
0.400627
0.400462
0.497847
0.493904
0.403266
0.393306
0.400056
0.440681
0.484269
0.38013
0.375874
0.497512
0.385174
0.374118
0.441444
0.391674
0.476576
0.476993
0.373817
0.385034
0.393024
0.481334
0.377559
0.389611
0.381614
0.382981
0.384231
0.389455
0.390577
0.371881
0.384799
0.443929
0.478036
0.383983
0.381472
0.497503
0.498261
0.372554
0.385493
0.494223
0.492087
0.45671
0.374481
0.44604
0.389049
0.450003
0.451725
0.501077
0.501088
0.374066
0.385932
0.499657
0.453305
0.390713
0.374707
0.382404
0.497563
0.475438
0.38457
0.402758
0.384489
0.474951
0.374486
0.390932
0.493398
0.497676
0.389881
0.390466
0.460811
0.390393
0.452462
0.485122
0.380069
0.500998
0.501033
0.458108
0.499056
0.376941
0.463029
0.461961
0.395415
0.38913
0.376894
0.401561
0.424118
0.397423
0.493439
0.37166
0.386315
0.37574
0.386069
0.375138
0.493381
0.374074
0.386129
0.383516
0.497643
0.393292
0.443734
0.386273
0.377533
0.488381
0.384957
0.501736
0.501723
0.375843
0.394776
0.496014
0.491748
0.490768
0.383006
0.385749
0.383103
0.381212
0.409403
0.385531
0.382422
0.497732
0.375393
0.489406
0.391793
0.410598
0.411976
0.375816
0.379986
0.377915
0.377092
0.398854
0.493816
0.390154
0.398956
0.388985
0.375733
0.377899
0.499759
0.410485
0.383145
0.493927
0.397583
0.38596
0.40512
0.49778
0.375396
0.406319
0.491838
0.483422
0.44259
0.38821
0.39719
0.481375
0.38354
0.392853
0.488814
0.389578
0.387239
0.408209
0.377923
0.373597
0.373627
0.382249
0.463042
0.495774
0.37795
0.377132
0.375351
0.416783
0.418404
0.373433
0.455233
0.378709
0.382322
0.488051
0.463
0.49746
0.4993
0.497726
0.467227
0.487723
0.385722
0.498079
0.491476
0.373761
0.391825
0.399727
0.422117
0.464245
0.450518
0.380312
0.498421
0.375658
0.371409
0.474617
0.466765
0.387493
0.388949
0.388187
0.497723
0.389405
0.382237
0.373134
0.459652
0.385913
0.391628
0.398458
0.398708
0.500085
0.385987
0.376495
0.391844
0.376743
0.378833
0.384689
0.500123
0.387937
0.387857
0.375276
0.493754
0.487489
0.497837
0.452099
0.424198
0.425933
0.491188
0.387458
0.3787
0.46439
0.391359
0.473777
0.469205
0.378858
0.468414
0.379275
0.384446
0.373797
0.382063
0.386189
0.475619
0.373271
0.38221
0.399767
0.495626
0.498145
0.385981
0.394522
0.498217
0.487966
0.392881
0.372952
0.390358
0.448717
0.378704
0.399678
0.378326
0.373045
0.379894
0.379983
0.497937
0.473207
0.393277
0.383306
0.386127
0.386083
0.489533
0.395748
0.471779
0.379316
0.376478
0.382242
0.374047
0.376401
0.381161
0.413661
0.395809
0.39385
0.382461
0.379377
0.498203
0.385982
0.380432
0.481675
0.493857
0.443559
0.394284
0.462003
0.498279
0.37831
0.377461
0.380288
0.459461
0.372811
0.382555
0.397961
0.386116
0.490041
0.447143
0.490928
0.379297
0.441692
0.490728
0.498097
0.495658
0.385983
0.472996
0.383261
0.393112
0.498054
0.453745
0.488799
0.496579
0.377967
0.40845
0.492545
0.39525
0.386299
0.496868
0.487935
0.40085
0.492954
0.422611
0.385925
0.378848
0.43966
0.497491
0.486935
0.373488
0.402357
0.48801
0.498193
0.373338
0.497437
0.400793
0.391164
0.492618
0.384987
0.405542
0.497739
0.406684
0.372855
0.435141
0.410521
0.371298
0.436992
0.371491
0.386637
0.402183
0.391312
0.445241
0.49439
0.37364
0.486483
0.377284
0.458215
0.460895
0.38523
0.435601
0.497204
0.49661
0.375927
0.374762
0.40757
0.422107
0.396119
0.487106
0.388435
0.398628
0.379766
0.454052
0.49781
0.499619
0.477673
0.490682
0.485491
0.492101
0.386588
0.386134
0.386148
0.496929
0.482418
0.453957
0.373184
0.386747
0.491984
0.385
0.497834
0.49782
0.397959
0.498953
0.377332
0.435379
0.489602
0.372681
0.492335
0.494797
0.409071
0.385293
0.455533
0.381285
0.464418
0.496457
0.389182
0.493448
0.381428
0.395669
0.393093
0.493142
0.371553
0.406871
0.398409
0.393831
0.46224
0.495279
0.382856
0.425722
0.44166
0.37266
0.40344
0.498054
0.474266
0.486705
0.49819
0.412081
0.488168
0.399567
0.385042
0.485516
0.374722
0.497703
0.489429
0.388478
0.387407
0.371407
0.494672
0.442375
0.442148
0.437463
0.386621
0.371724
0.377161
0.462972
0.372328
0.489688
0.488301
0.46507
0.477359
0.385771
0.395698
0.461375
0.408261
0.496664
0.385095
0.388451
0.372592
0.372944
0.497688
0.386645
0.432996
0.479058
0.493503
0.420256
0.475021
0.384848
0.376356
0.49745
0.445824
0.49755
0.406278
0.408951
0.388627
0.38593
0.378986
0.374625
0.499683
0.45942
0.491555
0.447652
0.491287
0.466224
0.490184
0.371947
0.381473
0.384326
0.476995
0.478315
0.49453
0.494133
0.439653
0.495019
0.452354
0.455381
0.403912
0.382652
0.444792
0.486919
0.379043
0.471666
0.4188
0.491436
0.40105
0.495728
0.484485
0.405095
0.4825
0.394197
0.48947
0.49718
0.49393
0.380999
0.48894
0.495011
0.49872
0.389952
0.499026
0.45166
0.386327
0.487423
0.493629
0.43267
0.389028
0.420705
0.389372
0.492849
0.372586
0.397228
0.388508
0.420888
0.438634
0.490459
0.476066
0.496974
0.417032
0.382749
0.385285
0.415329
0.487692
0.381421
0.431308
0.482182
0.483029
0.48625
0.376972
0.489015
0.387242
0.477131
0.487124
0.38399
0.496216
0.372548
0.413664
0.485289
0.499335
0.497029
0.374011
0.474065
0.462815
0.384286
0.406319
0.394769
0.458888
0.371471
0.493217
0.498009
0.490463
0.49129
0.377734
0.417943
0.460016
0.385867
0.413485
0.42961
0.46099
0.443512
0.49951
0.372266
0.48723
0.492004
0.371642
0.438312
0.457327
0.385906
0.373397
0.378219
0.388644
0.491978
0.465263
0.493209
0.385983
0.486675
0.493422
0.492466
0.483311
0.467507
0.385978
0.493789
0.484009
0.491403
0.490669
0.485414
0.388837
0.487511
0.497918
0.437883
0.435271
0.492414
0.374672
0.497898
0.498097
0.496177
0.493334
0.455732
0.39705
0.442577
0.445081
0.381038
0.40096
0.385929
0.497938
0.457511
0.383066
0.49535
0.433959
0.449818
0.497349
0.400568
0.497266
0.420462
0.434808
0.37221
0.380927
0.496668
0.442879
0.459632
0.41727
0.492378
0.485628
0.461445
0.390404
0.495882
0.497909
0.488462
0.379578
0.418833
0.451574
0.44947
0.37631
0.463562
0.488182
0.437401
0.449105
0.408806
0.435855
0.492837
0.465152
0.412381
0.496329
0.460242
0.42826
0.488286
0.381873
0.411385
0.407634
0.408814
0.498171
0.467033
0.388676
0.453666
0.414719
0.490985
0.493737
0.468639
0.386507
0.381541
0.381912
0.374872
0.470547
0.492767
0.489819
0.455736
0.415161
0.489698
0.49702
0.377408
0.495168
0.494721
0.371579
0.411921
0.377328
0.38826
0.370804
0.383343
0.470445
0.378988
0.471854
0.495525
0.495839
0.382001
0.492448
0.497678
0.403835
0.371932
0.488059
0.498563
0.46544
0.430845
0.383264
0.413147
0.495385
0.495392
0.496732
0.457782
0.481474
0.497558
0.374238
0.457356
0.446278
0.495954
0.38321
0.422254
0.48916
0.439534
0.387481
0.430026
0.495694
0.448145
0.453449
0.406064
0.495806
0.456007
0.372666
0.495232
0.38794
0.384443
0.375903
0.481399
0.49863
0.371727
0.459246
0.484155
0.499402
0.494617
0.496474
0.377212
0.497043
0.497816
0.402391
0.496676
0.496837
0.445145
0.449626
0.493991
0.386013
0.384747
0.448419
0.490887
0.405999
0.404765
0.486636
0.383434
0.496412
0.489851
0.486225
0.494501
0.496209
0.387645
0.383305
0.447405
0.377317
0.495191
0.371682
0.497493
0.496157
0.382643
0.458969
0.418583
0.436939
0.371339
0.488078
0.45974
0.389174
0.487587
0.494718
0.454313
0.417024
0.426537
0.495327
0.375252
0.372154
0.489363
0.421407
0.457176
0.457168
0.383787
0.495589
0.492467
0.466792
0.375818
0.372243
0.38367
0.371262
0.495033
0.497449
0.383488
0.495058
0.492762
0.497413
0.393133
0.497468
0.496505
0.371707
0.462864
0.488865
0.377042
0.440921
0.371814
0.495893
0.48719
0.377354
0.483424
0.496208
0.37323
0.485752
0.497456
0.494389
0.448445
0.496558
0.47715
0.444131
0.499126
0.49752
0.494126
0.391184
0.452877
0.463
0.383023
0.494626
0.497837
0.375204
0.383868
0.376607
0.465319
0.440678
0.497294
0.440875
0.492349
0.494445
0.496525
0.492036
0.494718
0.383105
0.462487
0.49608
0.375674
0.493761
0.371401
0.383777
0.49763
0.372268
0.485876
0.4941
0.376989
0.376037
0.495546
0.494367
0.493804
0.495157
0.489647
0.450015
0.488128
0.381441
0.379195
0.382753
0.493212
0.491935
0.495201
0.374557
0.463501
0.383711
0.494374
0.494791
0.494037
0.494745
0.475978
0.493426
0.465291
0.493093
0.493705
0.489142
0.495901
0.48952
0.378751
0.467049
0.379086
0.465473
0.372664
0.383945
0.377789
0.375516
0.447281
0.447374
0.496709
0.490525
0.493376
0.490026
0.388047
0.461942
0.497062
0.488832
0.496954
0.486017
0.450985
0.376798
0.493049
0.447685
0.447586
0.37352
0.488601
0.488516
0.487032
0.379204
0.455624
0.455608
0.495344
0.383527
0.383756
0.372019
0.376922
0.497379
0.498026
0.494301
0.407673
0.376525
0.377647
0.496625
0.488991
0.389139
0.378872
0.374366
0.374389
0.375455
0.487113
0.374867
0.408747
0.491006
0.373862
0.447331
0.491445
0.488314
0.493408
0.38579
0.38414
0.496246
0.37774
0.467128
0.486184
0.458958
0.477834
0.479918
0.45936
0.497174
0.47096
0.379786
0.464338
0.493756
0.384253
0.373466
0.496904
0.492532
0.487525
0.487979
0.460649
0.461665
0.496602
0.479425
0.426472
0.379298
0.376809
0.492577
0.373038
0.497339
0.461387
0.497021
0.497791
0.425105
0.420423
0.496674
0.489116
0.497791
0.430879
0.491798
0.48523
0.451815
0.49661
0.376917
0.497025
0.494906
0.484477
0.45061
0.372429
0.496977
0.490438
0.489222
0.373145
0.373115
0.386863
0.4882
0.491095
0.497479
0.388761
0.392094
0.373592
0.378781
0.399698
0.484329
0.491616
0.372758
0.470324
0.371884
0.374747
0.495441
0.497159
0.470119
0.496944
0.3918
0.391837
0.388538
0.496623
0.399095
0.497859
0.486613
0.399313
0.372446
0.38871
0.477646
0.399543
0.49688
0.379939
0.384168
0.494464
0.497408
0.494993
0.491853
0.494323
0.49103
0.493965
0.371842
0.379774
0.403594
0.496648
0.377136
0.491436
0.385582
0.479187
0.493013
0.383572
0.428516
0.496663
0.420474
0.497071
0.487308
0.494111
0.492853
0.487724
0.449893
0.49712
0.468736
0.477763
0.384402
0.447752
0.372576
0.479785
0.466222
0.379531
0.495432
0.469556
0.471861
0.487419
0.384484
0.496853
0.371557
0.376234
0.371401
0.497012
0.485172
0.434382
0.43724
0.376611
0.490674
0.489037
0.478893
0.373552
0.377025
0.493277
0.487105
0.496803
0.483538
0.492232
0.379171
0.486804
0.385529
0.379493
0.495037
0.473332
0.387463
0.497677
0.377867
0.494515
0.497195
0.475403
0.484753
0.476186
0.497066
0.489
0.496241
0.496782
0.490197
0.379633
0.388937
0.389113
0.490251
0.493104
0.478547
0.393465
0.492359
0.489827
0.49268
0.373896
0.488262
0.496428
0.486081
0.376559
0.373951
0.486328
0.373108
0.384033
0.376053
0.374445
0.374387
0.384216
0.383991
0.471878
0.374444
0.496953
0.469794
0.49771
0.496562
0.372428
0.489378
0.495242
0.4897
0.375768
0.496559
0.495327
0.491792
0.490152
0.469692
0.496894
0.373393
0.373001
0.44885
0.44889
0.495944
0.495484
0.373487
0.490331
0.496636
0.49673
0.49726
0.416789
0.401569
0.497599
0.464558
0.381961
0.372112
0.495397
0.373968
0.488437
0.371711
0.386357
0.496231
0.467886
0.492311
0.493583
0.428782
0.428269
0.371712
0.497298
0.379581
0.497656
0.488027
0.496269
0.492434
0.497265
0.489779
0.403914
0.371474
0.372064
0.492574
0.384627
0.492844
0.494187
0.494525
0.379068
0.496936
0.491679
0.378901
0.494875
0.372092
0.376671
0.474119
0.492295
0.372139
0.385711
0.372291
0.374803
0.476896
0.46437
0.47839
0.475302
0.468222
0.427148
0.426412
0.379853
0.464733
0.496994
0.496395
0.375052
0.422414
0.490166
0.381128
0.372704
0.492782
0.460983
0.491929
0.49639
0.494924
0.496928
0.456744
0.497377
0.456556
0.387402
0.399788
0.481044
0.477674
0.469391
0.373325
0.491734
0.396433
0.396747
0.49004
0.494393
0.482369
0.498616
0.493506
0.413528
0.489911
0.478997
0.489402
0.382642
0.48212
0.382732
0.490614
0.39795
0.372261
0.481019
0.388753
0.388656
0.49671
0.496012
0.385734
0.497037
0.494829
0.496789
0.386735
0.386951
0.373191
0.496799
0.467783
0.495505
0.384891
0.497368
0.494672
0.473875
0.479983
0.49602
0.47053
0.471706
0.385395
0.494518
0.489773
0.496371
0.383494
0.383276
0.383301
0.422647
0.490087
0.493802
0.495789
0.497516
0.426682
0.380715
0.426235
0.418624
0.496498
0.372277
0.491996
0.385555
0.495563
0.387133
0.387301
0.483147
0.492297
0.493243
0.374457
0.496551
0.497179
0.377091
0.389979
0.497471
0.49173
0.401995
0.372201
0.373241
0.37427
0.389862
0.481347
0.494009
0.434893
0.415867
0.396013
0.496886
0.435433
0.393495
0.396497
0.402953
0.49585
0.41833
0.493362
0.378616
0.398033
0.493383
0.492023
0.47835
0.491274
0.407644
0.490593
0.495732
0.491663
0.379236
0.396573
0.495079
0.494937
0.493923
0.496054
0.495197
0.492234
0.371543
0.386869
0.387066
0.494347
0.490571
0.49504
0.492191
0.371766
0.491181
0.4569
0.496272
0.462324
0.382035
0.492307
0.48418
0.375368
0.487779
0.493653
0.371847
0.49307
0.382915
0.394002
0.374101
0.37414
0.382854
0.382894
0.446728
0.489337
0.497263
0.497325
0.382691
0.494646
0.496685
0.384936
0.403101
0.47095
0.373185
0.490659
0.489959
0.478494
0.376543
0.379715
0.384714
0.495752
0.495682
0.495168
0.495394
0.498633
0.479898
0.482185
0.484215
0.494466
0.477334
0.494722
0.491143
0.387324
0.492726
0.463356
0.497332
0.492607
0.490344
0.495707
0.489412
0.388048
0.487763
0.482067
0.415142
0.491759
0.488123
0.481374
0.498186
0.48611
0.426951
0.490415
0.417408
0.420967
0.497436
0.48761
0.496707
0.49208
0.376495
0.494102
0.488976
0.487676
0.496858
0.485546
0.488356
0.372051
0.497148
0.48855
0.489978
0.386684
0.386446
0.47959
0.37171
0.498271
0.490864
0.49917
0.387212
0.492834
0.487619
0.378889
0.385603
0.48936
0.387773
0.378521
0.499075
0.378254
0.499779
0.499749
0.499024
0.37793
0.46954
0.498727
0.489617
0.497232
0.494088
0.492054
0.496748
0.474462
0.37982
0.371988
0.498471
0.384437
0.484983
0.371639
0.38004
0.379979
0.486975
0.470998
0.378117
0.381203
0.487913
0.498591
0.494873
0.46464
0.483161
0.382246
0.4994
0.499372
0.492031
0.491492
0.491884
0.4925
0.380417
0.454672
0.454434
0.478084
0.497246
0.493414
0.497609
0.498117
0.493972
0.378203
0.497248
0.496994
0.375757
0.373074
0.373046
0.385182
0.485365
0.491631
0.471064
0.486441
0.484153
0.487173
0.475502
0.486666
0.498921
0.422314
0.498314
0.377493
0.465692
0.478624
0.382442
0.382456
0.491308
0.448115
0.494169
0.489047
0.486292
0.482226
0.428458
0.429175
0.489242
0.488379
0.49434
0.496795
0.383325
0.486753
0.477358
0.487932
0.383401
0.383382
0.494405
0.491859
0.481044
0.495081
0.487442
0.495804
0.494554
0.3847
0.49665
0.383823
0.383743
0.488517
0.46247
0.492497
0.476338
0.386604
0.386837
0.385643
0.387195
0.387363
0.373451
0.467111
0.49783
0.385069
0.47592
0.486971
0.480473
0.474478
0.388534
0.38843
0.395702
0.395971
0.435215
0.489948
0.390266
0.420467
0.419396
0.49667
0.473387
0.403111
0.486809
0.483197
0.387621
0.387422
0.434511
0.480862
0.437069
0.39128
0.391289
0.487941
0.475225
0.414151
0.497015
0.437606
0.376652
0.490044
0.449575
0.497905
0.485107
0.416399
0.47498
0.498503
0.49847
0.498437
0.496089
0.495617
0.493097
0.398764
0.498296
0.395477
0.488941
0.493866
0.498387
0.485274
0.493101
0.494155
0.391459
0.496533
0.496559
0.49723
0.375616
0.375278
0.476992
0.495552
0.393404
0.48825
0.467445
0.481122
0.491177
0.491859
0.496294
0.496282
0.496505
0.495594
0.49097
0.37266
0.372393
0.494085
0.391292
0.385088
0.466909
0.377796
0.497859
0.498193
0.494694
0.496838
0.497767
0.487626
0.486959
0.376212
0.448919
0.496504
0.462013
0.482585
0.497051
0.480187
0.497671
0.373798
0.483362
0.375272
0.415079
0.47383
0.497934
0.375686
0.375675
0.493645
0.387883
0.490857
0.496389
0.487961
0.484417
0.377414
0.471779
0.493567
0.495217
0.497867
0.496035
0.495636
0.485316
0.387652
0.488626
0.496413
0.480173
0.4976
0.485867
0.481976
0.493692
0.491578
0.488212
0.386909
0.387093
0.495218
0.493875
0.496488
0.496021
0.48735
0.496981
0.497267
0.473809
0.491947
0.442944
0.496668
0.49741
0.492923
0.474874
0.486142
0.409002
0.485316
0.492569
0.386329
0.38654
0.497841
0.498186
0.371657
0.49833
0.494985
0.496344
0.476077
0.466537
0.494343
0.495388
0.496133
0.496266
0.497109
0.487683
0.469964
0.494185
0.497584
0.491734
0.497081
0.385516
0.475313
0.481991
0.481726
0.496846
0.496697
0.476962
0.474101
0.483881
0.470142
0.495855
0.485566
0.497232
0.379599
0.384273
0.476888
0.498171
0.492875
0.385336
0.480556
0.493916
0.496182
0.496517
0.382916
0.382942
0.496475
0.406317
0.496662
0.381011
0.446448
0.495086
0.472064
0.485384
0.382114
0.496333
0.448858
0.380559
0.495443
0.437654
0.491446
0.469224
0.494677
0.497084
0.498188
0.477823
0.478147
0.441799
0.493638
0.497212
0.496059
0.497164
0.492481
0.385317
0.49391
0.483044
0.494142
0.494781
0.381755
0.482333
0.495405
0.474767
0.497181
0.49753
0.477513
0.424656
0.433145
0.486504
0.496868
0.424256
0.496877
0.496786
0.475603
0.494216
0.496569
0.495865
0.493143
0.496429
0.491449
0.497013
0.374443
0.49628
0.372539
0.496475
0.492625
0.491273
0.497548
0.492083
0.4862
0.383918
0.383855
0.482806
0.489483
0.497325
0.378833
0.378488
0.398895
0.397267
0.494772
0.496631
0.495013
0.490867
0.490562
0.49648
0.44841
0.38519
0.495205
0.496144
0.487
0.497223
0.374289
0.37204
0.49824
0.496986
0.496958
0.385127
0.492834
0.496621
0.493934
0.467905
0.469028
0.499058
0.492403
0.496311
0.382807
0.387697
0.387505
0.462829
0.385091
0.49338
0.494245
0.491513
0.491445
0.493985
0.475294
0.496362
0.445863
0.37952
0.493938
0.49433
0.497357
0.468397
0.493387
0.49601
0.480686
0.39166
0.391682
0.468174
0.49223
0.496898
0.493656
0.48687
0.416839
0.494153
0.419248
0.497441
0.488655
0.49288
0.471328
0.490917
0.493845
0.479382
0.49261
0.497245
0.47678
0.490424
0.478006
0.490612
0.493505
0.487417
0.491516
0.496013
0.495982
0.493151
0.493857
0.493629
0.42318
0.491989
0.496166
0.491672
0.409556
0.496957
0.496924
0.487006
0.495854
0.493431
0.495886
0.389536
0.497298
0.493721
0.492292
0.492593
0.495555
0.435252
0.497255
0.492676
0.488646
0.494919
0.494612
0.494311
0.491725
0.496319
0.493132
0.497059
0.493771
0.485562
0.494015
0.480069
0.44399
0.451045
0.472921
0.496308
0.491131
0.495232
0.466825
0.492872
0.492896
0.49234
0.489916
0.494071
0.493197
0.439848
0.491782
0.487484
0.493802
0.490224
0.448667
0.497212
0.406779
0.497069
0.494325
0.497316
0.47611
0.491198
0.375616
0.376041
0.496185
0.487443
0.491284
0.492918
0.444252
0.435509
0.497518
0.492659
0.496595
0.48977
0.490924
0.4957
0.495041
0.495019
0.494319
0.492926
0.491427
0.492408
0.395198
0.496949
0.38961
0.373545
0.462906
0.468554
0.439585
0.46789
0.395079
0.493313
0.389616
0.49235
0.482563
0.486287
0.490842
0.492009
0.492681
0.483136
0.479561
0.497239
0.494934
0.49142
0.479581
0.490584
0.472884
0.469629
0.49632
0.492107
0.495437
0.496609
0.395689
0.496877
0.496109
0.486632
0.496352
0.491459
0.389848
0.489571
0.497057
0.468819
0.490517
0.493164
0.491358
0.493435
0.491043
0.496391
0.489539
0.372464
0.494563
0.475594
0.471303
0.484473
0.480182
0.490029
0.496837
0.491138
0.492367
0.491716
0.497402
0.490818
0.467003
0.489263
0.490483
0.373889
0.469107
0.490994
0.495828
0.413402
0.49029
0.48794
0.487086
0.472605
0.491428
0.49128
0.439447
0.485644
0.490322
0.493276
0.489167
0.495348
0.493201
0.443225
0.497071
0.488439
0.491725
0.482427
0.497809
0.451549
0.496249
0.49085
0.496673
0.497622
0.490069
0.434842
0.495719
0.461124
0.492047
0.47256
0.486626
0.476753
0.489596
0.429225
0.496382
0.441085
0.486168
0.493368
0.466059
0.490682
0.490227
0.497337
0.495656
0.415939
0.464185
0.424373
0.471071
0.490303
0.494062
0.494016
0.463021
0.490946
0.491769
0.423256
0.431221
0.375263
0.372599
0.489632
0.446259
0.480233
0.378935
0.37853
0.39881
0.489375
0.433103
0.492663
0.489841
0.488887
0.496076
0.489573
0.487867
0.448241
0.494041
0.372034
0.488163
0.45356
0.488458
0.492344
0.466618
0.494717
0.467825
0.485795
0.469895
0.437191
0.461052
0.453456
0.385138
0.45026
0.489237
0.489631
0.425051
0.487619
0.495191
0.448319
0.464918
0.379421
0.446216
0.491934
0.43104
0.493597
0.492144
0.48168
0.491086
0.49591
0.456091
0.416254
0.460239
0.419654
0.487806
0.489181
0.488537
0.492012
0.494656
0.451646
0.458184
0.389816
0.465063
0.442983
0.486303
0.433091
0.444814
0.489098
0.49805
0.490831
0.431287
0.445193
0.426991
0.498583
0.437151
0.430153
0.493608
0.427227
0.48956
0.453426
0.433056
0.47526
0.488522
0.376091
0.375365
0.455955
0.457573
0.489092
0.485094
0.462235
0.430988
0.404835
0.404716
0.457665
0.496606
0.373379
0.493589
0.491469
0.489149
0.49398
0.493457
0.459228
0.461019
0.421335
0.490509
0.427024
0.486676
0.492648
0.444518
0.486889
0.445877
0.458985
0.485976