# vtk DataFile Version 1.0
unstructured grid
ascii
DATASET UNSTRUCTURED_GRID
points 8094 float
-0.25 0.0574735 0
0.5 0.0546937 0
0.5 -0.0546937 0
-0.25 -0.0574735 0
-0.25 0.0574735 0.01
0.5 0.0546937 0.01
0.5 -0.0546937 0.01
-0.25 -0.0574735 0.01
-0.246045 0.0569295 0
-0.242089 0.0563854 0
-0.238136 0.0558289 0
-0.234184 0.0552582 0
-0.230232 0.0546875 0
-0.226284 0.0540912 0
-0.222337 0.0534933 0
-0.218391 0.0528841 0
-0.214448 0.0522585 0
-0.210504 0.0516328 0
-0.206565 0.0509829 0
-0.202626 0.0503294 0
-0.198689 0.0496667 0
-0.194755 0.0489856 0
-0.190821 0.0483046 0
-0.18689 0.0476022 0
-0.182961 0.0468942 0
-0.179033 0.0461799 0
-0.175108 0.0454463 0
-0.171183 0.0447127 0
-0.167262 0.0439627 0
-0.163342 0.0432056 0
-0.159422 0.0424455 0
-0.155506 0.041668 0
-0.15159 0.0408904 0
-0.147675 0.0401031 0
-0.143762 0.0393092 0
-0.13985 0.0385149 0
-0.135939 0.0377103 0
-0.132028 0.0369056 0
-0.128117 0.0361005 0
-0.124207 0.0352949 0
-0.120296 0.0344893 0
-0.116386 0.0336836 0
-0.112475 0.032878 0
-0.108563 0.0320794 0
-0.104649 0.0312931 0
-0.100735 0.0305068 0
-0.0968152 0.029745 0
-0.0928949 0.0289889 0
-0.0889722 0.0282446 0
-0.0850433 0.0275341 0
-0.0811144 0.0268235 0
-0.0771778 0.0261578 0
-0.0732381 0.0255098 0
-0.0692962 0.0248759 0
-0.0653442 0.0243073 0
-0.0613923 0.0237386 0
-0.0574324 0.0232306 0
-0.0534681 0.0227556 0
-0.0495024 0.0222934 0
-0.0455272 0.0219207 0
-0.041552 0.0215481 0
-0.0375717 0.0212385 0
-0.0335881 0.0209694 0
-0.029604 0.0207098 0
-0.0256151 0.0205369 0
-0.0216262 0.0203639 0
-0.0176357 0.0202396 0
-0.0136441 0.0201487 0
-0.00965243 0.0200635 0
-0.00565987 0.0200372 0
-0.00166732 0.020011 0
0.00232526 0.0200121 0
0.00631785 0.0200329 0
0.0103104 0.0200563 0
0.0143027 0.0201109 0
0.018295 0.0201654 0
0.022287 0.0202345 0
0.0262788 0.0203144 0
0.0302706 0.0203957 0
0.034262 0.0204956 0
0.0382534 0.0205955 0
0.0422446 0.0207045 0
0.0462355 0.0208207 0
0.0502265 0.0209377 0
0.054217 0.0210676 0
0.0582075 0.0211975 0
0.0621978 0.0213339 0
0.0661879 0.0214757 0
0.0701781 0.021618 0
0.0741678 0.0217703 0
0.0781575 0.0219227 0
0.0821471 0.0220801 0
0.0861364 0.022242 0
0.0901258 0.0224041 0
0.0941148 0.0225747 0
0.0981038 0.0227453 0
0.102093 0.0229202 0
0.106081 0.023099 0
0.11007 0.0232779 0
0.114058 0.0234644 0
0.118046 0.0236509 0
0.122035 0.0238411 0
0.126022 0.024035 0
0.13001 0.0242288 0
0.133998 0.0244298 0
0.137986 0.0246308 0
0.141973 0.0248352 0
0.14596 0.025043 0
0.149947 0.0252509 0
0.153934 0.0254654 0
0.157921 0.02568 0
0.161908 0.0258978 0
0.165894 0.026119 0
0.169881 0.0263402 0
0.173867 0.0265678 0
0.177853 0.0267956 0
0.181839 0.0270264 0
0.185825 0.0272607 0
0.189811 0.0274951 0
0.193796 0.0277356 0
0.197781 0.0279764 0
0.201767 0.02822 0
0.205752 0.0284673 0
0.209737 0.0287146 0
0.213721 0.0289679 0
0.217706 0.0292217 0
0.22169 0.0294782 0
0.225674 0.0297385 0
0.229658 0.0299988 0
0.233642 0.0302651 0
0.237626 0.0305319 0
0.241609 0.0308014 0
0.245593 0.0310748 0
0.249576 0.0313482 0
0.253559 0.0316276 0
0.257542 0.0319077 0
0.261524 0.0321904 0
0.265507 0.0324772 0
0.269489 0.032764 0
0.273471 0.0330568 0
0.277453 0.0333504 0
0.281434 0.0336466 0
0.285416 0.0339471 0
0.289397 0.0342476 0
0.293378 0.034554 0
0.297359 0.0348615 0
0.301339 0.0351714 0
0.305319 0.0354859 0
0.3093 0.0358005 0
0.313279 0.036121 0
0.317259 0.0364427 0
0.321239 0.0367667 0
0.325218 0.0370957 0
0.329197 0.0374248 0
0.333175 0.0377597 0
0.337154 0.0380961 0
0.341132 0.0384347 0
0.34511 0.0387786 0
0.349088 0.0391226 0
0.353065 0.0394724 0
0.357042 0.0398239 0
0.361019 0.0401775 0
0.364995 0.0405368 0
0.368972 0.0408961 0
0.372948 0.0412613 0
0.376924 0.0416285 0
0.380899 0.0419975 0
0.384874 0.0423727 0
0.388849 0.0427479 0
0.392823 0.0431289 0
0.396798 0.0435123 0
0.400772 0.0438973 0
0.404745 0.044289 0
0.408718 0.0446807 0
0.412691 0.0450781 0
0.416664 0.0454782 0
0.420636 0.0458797 0
0.424608 0.0462883 0
0.42858 0.046697 0
0.432551 0.0471114 0
0.436521 0.0475289 0
0.440492 0.0479474 0
0.444462 0.0483738 0
0.448432 0.0488001 0
0.452401 0.0492319 0
0.45637 0.0496673 0
0.460338 0.0501035 0
0.464306 0.0505482 0
0.468274 0.0509928 0
0.472241 0.0514427 0
0.476208 0.0518968 0
0.480175 0.0523512 0
0.48414 0.0528148 0
0.488106 0.0532784 0
0.492071 0.0537471 0
0.496036 0.0542204 0
0.5 0.050787 0
0.5 0.0468803 0
0.5 0.0429736 0
0.5 0.0390669 0
0.5 0.0351602 0
0.5 0.0312535 0
0.5 0.0273468 0
0.5 0.0234402 0
0.5 0.0195335 0
0.5 0.0156268 0
0.5 0.0117201 0
0.5 0.00781339 0
0.5 0.00390669 0
0.5 1.43781e-13 0
0.5 -0.00390669 0
0.5 -0.00781339 0
0.5 -0.0117201 0
0.5 -0.0156268 0
0.5 -0.0195335 0
0.5 -0.0234402 0
0.5 -0.0273468 0
0.5 -0.0312535 0
0.5 -0.0351602 0
0.5 -0.0390669 0
0.5 -0.0429736 0
0.5 -0.0468803 0
0.5 -0.050787 0
0.496036 -0.0542204 0
0.492071 -0.0537471 0
0.488106 -0.0532784 0
0.48414 -0.0528148 0
0.480175 -0.0523512 0
0.476208 -0.0518968 0
0.472241 -0.0514427 0
0.468274 -0.0509928 0
0.464306 -0.0505482 0
0.460338 -0.0501035 0
0.45637 -0.0496673 0
0.452401 -0.0492319 0
0.448432 -0.0488001 0
0.444462 -0.0483738 0
0.440492 -0.0479474 0
0.436521 -0.0475289 0
0.432551 -0.0471114 0
0.42858 -0.046697 0
0.424608 -0.0462883 0
0.420636 -0.0458797 0
0.416664 -0.0454782 0
0.412691 -0.0450781 0
0.408718 -0.0446807 0
0.404745 -0.044289 0
0.400772 -0.0438973 0
0.396798 -0.0435123 0
0.392823 -0.0431289 0
0.388849 -0.0427479 0
0.384874 -0.0423727 0
0.380899 -0.0419975 0
0.376924 -0.0416285 0
0.372948 -0.0412613 0
0.368972 -0.0408961 0
0.364995 -0.0405368 0
0.361019 -0.0401775 0
0.357042 -0.0398239 0
0.353065 -0.0394724 0
0.349088 -0.0391226 0
0.34511 -0.0387786 0
0.341132 -0.0384347 0
0.337154 -0.0380961 0
0.333175 -0.0377597 0
0.329197 -0.0374248 0
0.325218 -0.0370957 0
0.321239 -0.0367667 0
0.317259 -0.0364427 0
0.313279 -0.036121 0
0.3093 -0.0358005 0
0.305319 -0.0354859 0
0.301339 -0.0351714 0
0.297359 -0.0348615 0
0.293378 -0.034554 0
0.289397 -0.0342476 0
0.285416 -0.0339471 0
0.281434 -0.0336466 0
0.277453 -0.0333504 0
0.273471 -0.0330568 0
0.269489 -0.032764 0
0.265507 -0.0324772 0
0.261524 -0.0321904 0
0.257542 -0.0319077 0
0.253559 -0.0316276 0
0.249576 -0.0313482 0
0.245593 -0.0310748 0
0.241609 -0.0308014 0
0.237626 -0.0305319 0
0.233642 -0.0302651 0
0.229658 -0.0299988 0
0.225674 -0.0297385 0
0.22169 -0.0294782 0
0.217706 -0.0292217 0
0.213721 -0.0289679 0
0.209737 -0.0287146 0
0.205752 -0.0284673 0
0.201767 -0.02822 0
0.197781 -0.0279764 0
0.193796 -0.0277356 0
0.189811 -0.0274951 0
0.185825 -0.0272607 0
0.181839 -0.0270264 0
0.177853 -0.0267956 0
0.173867 -0.0265678 0
0.169881 -0.0263402 0
0.165894 -0.026119 0
0.161908 -0.0258978 0
0.157921 -0.02568 0
0.153934 -0.0254654 0
0.149947 -0.0252509 0
0.14596 -0.025043 0
0.141973 -0.0248352 0
0.137986 -0.0246308 0
0.133998 -0.0244298 0
0.13001 -0.0242288 0
0.126022 -0.024035 0
0.122035 -0.0238411 0
0.118046 -0.0236509 0
0.114058 -0.0234644 0
0.11007 -0.0232779 0
0.106081 -0.023099 0
0.102093 -0.0229202 0
0.0981038 -0.0227453 0
0.0941148 -0.0225747 0
0.0901258 -0.0224041 0
0.0861364 -0.022242 0
0.0821471 -0.0220801 0
0.0781575 -0.0219227 0
0.0741678 -0.0217703 0
0.0701781 -0.021618 0
0.0661879 -0.0214757 0
0.0621978 -0.0213339 0
0.0582075 -0.0211975 0
0.054217 -0.0210676 0
0.0502265 -0.0209377 0
0.0462355 -0.0208207 0
0.0422446 -0.0207045 0
0.0382534 -0.0205955 0
0.034262 -0.0204956 0
0.0302706 -0.0203957 0
0.0262788 -0.0203144 0
0.022287 -0.0202345 0
0.018295 -0.0201654 0
0.0143027 -0.0201109 0
0.0103104 -0.0200563 0
0.00631785 -0.0200329 0
0.00232526 -0.0200121 0
-0.00166732 -0.020011 0
-0.00565987 -0.0200372 0
-0.00965243 -0.0200635 0
-0.0136441 -0.0201487 0
-0.0176357 -0.0202396 0
-0.0216262 -0.0203639 0
-0.0256151 -0.0205369 0
-0.029604 -0.0207098 0
-0.0335881 -0.0209694 0
-0.0375717 -0.0212385 0
-0.041552 -0.0215481 0
-0.0455272 -0.0219207 0
-0.0495024 -0.0222934 0
-0.0534681 -0.0227556 0
-0.0574324 -0.0232306 0
-0.0613923 -0.0237386 0
-0.0653442 -0.0243073 0
-0.0692962 -0.0248759 0
-0.0732381 -0.0255098 0
-0.0771778 -0.0261578 0
-0.0811144 -0.0268235 0
-0.0850433 -0.0275341 0
-0.0889722 -0.0282446 0
-0.0928949 -0.0289889 0
-0.0968152 -0.029745 0
-0.100735 -0.0305068 0
-0.104649 -0.0312931 0
-0.108563 -0.0320794 0
-0.112475 -0.032878 0
-0.116386 -0.0336836 0
-0.120296 -0.0344893 0
-0.124207 -0.0352949 0
-0.128117 -0.0361005 0
-0.132028 -0.0369056 0
-0.135939 -0.0377103 0
-0.13985 -0.0385149 0
-0.143762 -0.0393092 0
-0.147675 -0.0401031 0
-0.15159 -0.0408904 0
-0.155506 -0.041668 0
-0.159422 -0.0424455 0
-0.163342 -0.0432056 0
-0.167262 -0.0439627 0
-0.171183 -0.0447127 0
-0.175108 -0.0454463 0
-0.179033 -0.0461799 0
-0.182961 -0.0468942 0
-0.18689 -0.0476022 0
-0.190821 -0.0483046 0
-0.194755 -0.0489856 0
-0.198689 -0.0496667 0
-0.202626 -0.0503294 0
-0.206565 -0.0509829 0
-0.210504 -0.0516328 0
-0.214448 -0.0522585 0
-0.218391 -0.0528841 0
-0.222337 -0.0534933 0
-0.226284 -0.0540912 0
-0.230232 -0.0546875 0
-0.234184 -0.0552582 0
-0.238136 -0.0558289 0
-0.242089 -0.0563854 0
-0.246045 -0.0569295 0
-0.25 -0.0535098 0
-0.25 -0.0495461 0
-0.25 -0.0455824 0
-0.25 -0.0416187 0
-0.25 -0.0376551 0
-0.25 -0.0336914 0
-0.25 -0.0297277 0
-0.25 -0.025764 0
-0.25 -0.0218003 0
-0.25 -0.0178366 0
-0.25 -0.0138729 0
-0.25 -0.00990922 0
-0.25 -0.00594553 0
-0.25 -0.00198184 0
-0.25 0.00198184 0
-0.25 0.00594553 0
-0.25 0.00990922 0
-0.25 0.0138729 0
-0.25 0.0178366 0
-0.25 0.0218003 0
-0.25 0.025764 0
-0.25 0.0297277 0
-0.25 0.0336914 0
-0.25 0.0376551 0
-0.25 0.0416187 0
-0.25 0.0455824 0
-0.25 0.0495461 0
-0.25 0.0535098 0
-0.246045 0.0569295 0.01
-0.242089 0.0563854 0.01
-0.238136 0.0558289 0.01
-0.234184 0.0552582 0.01
-0.230232 0.0546875 0.01
-0.226284 0.0540912 0.01
-0.222337 0.0534933 0.01
-0.218391 0.0528841 0.01
-0.214448 0.0522585 0.01
-0.210504 0.0516328 0.01
-0.206565 0.0509829 0.01
-0.202626 0.0503294 0.01
-0.198689 0.0496667 0.01
-0.194755 0.0489856 0.01
-0.190821 0.0483046 0.01
-0.18689 0.0476022 0.01
-0.182961 0.0468942 0.01
-0.179033 0.0461799 0.01
-0.175108 0.0454463 0.01
-0.171183 0.0447127 0.01
-0.167262 0.0439627 0.01
[...]
CELL_DATA 7657
SCALARS rho float
LOOKUP_TABLE default
0.478275
0.369939
0.396183
0.174303
0.49531
0.361922
0.258923
0.4306
0.336418
0.499168
0.499237
0.430185
0.30506
0.430342
0.4946
0.489443
0.494538
0.405273
0.405154
0.432883
0.493845
0.406544
0.360638
0.405113
0.418006
0.427809
0.187299
0.312299
0.496001
0.362693
0.239917
0.418086
0.357327
0.476268
0.476716
0.241782
0.363088
0.359693
0.481505
0.213119
0.395868
0.335275
0.338879
0.353384
0.395488
0.397435
0.265414
0.36115
0.418874
0.477896
0.351643
0.173261
0.495916
0.496839
0.257062
0.36574
0.494122
0.49227
0.452921
0.238241
0.41945
0.394555
0.42052
0.420987
0.499927
0.499942
0.304708
0.370199
0.498442
0.448694
0.397293
0.306792
0.163444
0.495982
0.474969
0.359484
0.406387
0.35838
0.474443
0.310492
0.356717
0.430885
0.432801
0.395842
0.397628
0.4579
0.396803
0.447698
0.428086
0.188739
0.49978
0.499824
0.454624
0.497751
0.216957
0.46055
0.459269
0.36444
0.3949
0.216802
0.40578
0.413707
0.367947
0.493436
0.267218
0.346084
0.225539
0.372039
0.312146
0.493415
0.240163
0.371462
0.345408
0.432774
0.400304
0.436612
0.373255
0.211395
0.488799
0.361349
0.500646
0.500628
0.224436
0.365118
0.431988
0.430334
0.430017
0.337533
0.368317
0.340802
0.176756
0.408927
0.366442
0.164598
0.43284
0.227951
0.489773
0.357491
0.409317
0.40975
0.225888
0.190953
0.209902
0.214956
0.404442
0.493768
0.3541
0.371035
0.393778
0.225572
0.206514
0.498566
0.39044
0.341328
0.493849
0.369059
0.370242
0.407337
0.432867
0.229888
0.407796
0.49205
0.427586
0.435221
0.391234
0.367718
0.481548
0.344928
0.400315
0.489226
0.395232
0.348101
0.408559
0.20817
0.246104
0.243725
0.16767
0.460536
0.431878
0.208259
0.214876
0.310897
0.411383
0.411659
0.30199
0.451112
0.324997
0.166792
0.428917
0.460487
0.495921
0.497957
0.432845
0.465496
0.42884
0.367652
0.432992
0.49172
0.244052
0.399218
0.404868
0.413053
0.462021
0.445268
0.187018
0.496941
0.315977
0.269081
0.474044
0.464988
0.385794
0.393764
0.390927
0.432844
0.394819
0.1656
0.250717
0.456503
0.372123
0.399103
0.370135
0.371945
0.498875
0.371035
0.318292
0.358565
0.318245
0.198136
0.357841
0.498915
0.389318
0.389455
0.309082
0.493742
0.487905
0.432875
0.447244
0.413544
0.41386
0.491456
0.385272
0.203795
0.462189
0.357273
0.473098
0.467834
0.325102
0.466924
0.327643
0.356295
0.242214
0.168979
0.372969
0.475202
0.248961
0.166624
0.372447
0.495264
0.496719
0.370972
0.364081
0.496611
0.488384
0.399903
0.252844
0.396709
0.442996
0.202317
0.404793
0.206811
0.294755
0.190033
0.191281
0.432907
0.472458
0.400685
0.342727
0.371408
0.370707
0.42946
0.365033
0.424976
0.197932
0.220185
0.170391
0.240525
0.220203
0.177882
0.395616
0.40244
0.401193
0.165595
0.196452
0.496537
0.372978
0.186702
0.481848
0.431082
0.436441
0.401552
0.45933
0.49737
0.20515
0.322705
0.187285
0.456269
0.254346
0.16471
0.403914
0.372008
0.429649
0.441016
0.491221
0.32763
0.418336
0.491041
0.496483
0.495298
0.371919
0.425218
0.342212
0.360104
0.496433
0.449278
0.489206
0.496002
0.323161
0.387452
0.49269
0.402028
0.346031
0.496239
0.488353
0.375564
0.430711
0.408372
0.372748
0.198164
0.417803
0.495889
0.428578
0.246376
0.377012
0.488428
0.433027
0.248145
0.495884
0.3745
0.398018
0.492737
0.3633
0.407537
0.432844
0.407943
0.255239
0.416402
0.409244
0.271267
0.41688
0.267232
0.377052
0.406087
0.398193
0.438582
0.494247
0.24461
0.42846
0.214423
0.454746
0.457998
0.364522
0.426018
0.432551
0.432267
0.312747
0.30701
0.408177
0.407786
0.402864
0.487528
0.39191
0.40424
0.191424
0.421214
0.496252
0.49853
0.477481
0.429868
0.428116
0.492279
0.377412
0.373034
0.372184
0.432405
0.427332
0.449531
0.249773
0.348967
0.492192
0.363198
0.43288
0.432862
0.40394
0.497403
0.215068
0.425766
0.489962
0.292154
0.49248
0.494586
0.408725
0.364551
0.421538
0.174921
0.462222
0.432187
0.393892
0.430936
0.175514
0.364889
0.360285
0.430828
0.275988
0.384973
0.37032
0.4009
0.459615
0.431669
0.316298
0.413963
0.433986
0.253928
0.379753
0.432981
0.425529
0.487124
0.49734
0.409796
0.488578
0.404783
0.361168
0.485903
0.235081
0.496185
0.429412
0.392088
0.385231
0.271561
0.494483
0.434919
0.418418
0.417255
0.378914
0.265114
0.321428
0.460463
0.261171
0.490062
0.488704
0.462969
0.477125
0.369388
0.402733
0.458559
0.387146
0.432368
0.342957
0.350692
0.257168
0.252959
0.496163
0.379549
0.422564
0.479008
0.493521
0.412502
0.425702
0.359955
0.223748
0.495887
0.439409
0.49604
0.40768
0.408699
0.392601
0.371064
0.200814
0.233709
0.49839
0.422475
0.491787
0.419664
0.430096
0.464322
0.429712
0.284173
0.17493
0.356659
0.476731
0.478189
0.431459
0.431301
0.431359
0.431561
0.447534
0.451277
0.380206
0.163556
0.438041
0.487331
0.199301
0.424998
0.411995
0.491705
0.405571
0.431967
0.484832
0.407208
0.482718
0.363107
0.489862
0.432563
0.431234
0.179252
0.429254
0.431661
0.497188
0.39675
0.497548
0.420624
0.375773
0.487845
0.431096
0.422189
0.393392
0.412569
0.394218
0.430652
0.252373
0.403478
0.392014
0.412622
0.430072
0.429841
0.42597
0.432503
0.411433
0.211116
0.364464
0.410886
0.488098
0.176036
0.420386
0.427408
0.483297
0.486661
0.215894
0.429496
0.349634
0.476902
0.487545
0.35352
0.43217
0.289594
0.410355
0.485675
0.498002
0.432524
0.242067
0.473446
0.460295
0.355645
0.407698
0.364342
0.45556
0.277946
0.430963
0.43289
0.429955
0.430152
0.323556
0.401675
0.456927
0.370177
0.410285
0.418118
0.422853
0.43639
0.498396
0.288162
0.428822
0.430346
0.26961
0.429702
0.453658
0.370209
0.245716
0.325812
0.392622
0.430495
0.463205
0.493262
0.371196
0.428657
0.431032
0.43052
0.427776
0.465845
0.373554
0.493768
0.427881
0.430285
0.429922
0.485797
0.393243
0.487922
0.432859
0.429071
0.425773
0.430492
0.234691
0.496638
0.496586
0.43216
0.430853
0.421882
0.367382
0.435177
0.438367
0.333589
0.405425
0.369524
0.496593
0.422269
0.340776
0.431809
0.42396
0.42028
0.496225
0.405366
0.496217
0.412495
0.416582
0.283985
0.180428
0.432372
0.418577
0.42278
0.400884
0.430648
0.486012
0.423146
0.39698
0.43204
0.432873
0.429136
0.192708
0.411998
0.420505
0.420002
0.222874
0.42363
0.488594
0.42856
0.420184
0.408696
0.426469
0.430815
0.423956
0.393805
0.432231
0.457199
0.416357
0.488691
0.172146
0.392024
0.386428
0.388335
0.433029
0.424389
0.392638
0.42101
0.397265
0.430126
0.431168
0.424689
0.37552
0.175726
0.336555
0.233118
0.469408
0.430796
0.429734
0.421506
0.41087
0.42972
0.432474
0.32172
0.494896
0.494546
0.275344
0.409762
0.323133
0.350423
0.271904
0.346042
0.425093
0.327819
0.42537
0.43187
0.432025
0.171694
0.430662
0.496487
0.406832
0.285877
0.488447
0.497124
0.463406
0.419843
0.34419
0.394707
0.431833
0.431818
0.495816
0.422008
0.42711
0.496365
0.238449
0.453694
0.419115
0.495188
0.34322
0.407916
0.429574
0.431314
0.350448
0.418594
0.431967
0.419837
0.421298
0.38366
0.495103
0.452056
0.252353
0.431773
0.350906
0.343457
0.223387
0.427366
0.497258
0.286762
0.422435
0.484499
0.49836
0.494373
0.495562
0.213589
0.496059
0.496229
0.377694
0.495696
0.432423
0.418889
0.420707
0.43125
0.373021
0.34371
0.420804
0.430112
0.407624
0.407163
0.487048
0.338932
0.495507
0.429798
0.486635
0.494153
0.495371
0.38664
0.344616
0.420648
0.21147
0.431757
0.268719
0.432648
0.495325
0.17464
0.455662
0.411949
0.427876
0.270587
0.429084
0.422447
0.394292
0.487999
0.431561
0.449965
0.400524
0.414015
0.494756
0.228275
0.290393
0.429636
0.406889
0.453483
0.453474
0.352741
0.494949
0.430533
0.465003
0.316764
0.292976
0.348781
0.276954
0.494568
0.432659
0.348041
0.43167
0.492747
0.432635
0.360987
0.432722
0.432275
0.267315
0.460348
0.429472
0.212907
0.433063
0.28482
0.432026
0.428991
0.211514
0.427995
0.432136
0.24813
0.486149
0.432625
0.494059
0.419655
0.432289
0.426506
0.418576
0.497808
0.496408
0.493857
0.398444
0.448204
0.460496
0.339532
0.49424
0.496588
0.228144
0.342122
0.214304
0.423711
0.432756
0.496318
0.433005
0.492405
0.494171
0.43232
0.492128
0.494395
0.341776
0.422936
0.432129
0.2252
0.493595
0.270666
0.340982
0.496435
0.295214
0.428547
0.493881
0.212771
0.223566
0.494912
0.494044
0.431195
0.494642
0.429564
0.444616
0.429083
0.33405
0.327932
0.339711
0.430937
0.430313
0.49468
0.310343
0.423295
0.351368
0.494106
0.494381
0.493825
0.494342
0.426267
0.493312
0.463226
0.493029
0.493546
0.489533
0.431994
0.489895
0.200993
0.424078
0.198205
0.463434
0.253855
0.354125
0.208431
0.226998
0.441229
0.441344
0.495859
0.429886
0.493268
0.429719
0.351932
0.459251
0.432482
0.42932
0.495973
0.42871
0.445837
0.216572
0.492992
0.441701
0.441583
0.304663
0.488995
0.42939
0.42897
0.196578
0.451588
0.45157
0.431819
0.347431
0.350042
0.292839
0.215109
0.496331
0.432933
0.431394
0.408216
0.218218
0.21014
0.432285
0.429335
0.394226
0.199483
0.310104
0.310259
0.313919
0.428748
0.22964
0.388085
0.429972
0.239795
0.419454
0.491627
0.429328
0.430937
0.371204
0.3539
0.432143
0.208364
0.465404
0.428732
0.42228
0.477661
0.479959
0.422339
0.43251
0.46987
0.19111
0.423366
0.431177
0.357617
0.241583
0.432483
0.492556
0.428907
0.429224
0.422538
0.422894
0.432341
0.426843
0.414316
0.195043
0.216691
0.492595
0.247486
0.432672
0.458573
0.496002
0.496757
0.411928
0.405318
0.432274
0.429285
0.432796
0.419928
0.491925
0.428224
0.421219
0.432277
0.21513
0.432525
0.494615
0.428033
0.421285
0.296971
0.495727
0.429755
0.429305
0.304279
0.303278
0.348234
0.429308
0.491304
0.432723
0.392802
0.399544
0.239337
0.200909
0.405521
0.4282
0.491772
0.252055
0.424787
0.265017
0.231979
0.431795
0.495824
0.424636
0.496031
0.399179
0.399205
0.392007
0.495777
0.405143
0.432814
0.428737
0.405173
0.296935
0.392807
0.477447
0.372874
0.495938
0.192521
0.356526
0.494122
0.496433
0.431673
0.491974
0.494022
0.491246
0.431153
0.262156
0.191227
0.406665
0.495735
0.322119
0.430127
0.369399
0.479152
0.430779
0.349744
0.414867
0.432263
0.412173
0.432547
0.429057
0.493849
0.430786
0.428925
0.420954
0.495792
0.424455
0.477582
0.35877
0.42047
0.249258
0.426838
0.464306
0.192287
0.494851
0.468226
0.470901
0.429078
0.359796
0.432398
0.267312
0.219762
0.26425
0.432454
0.428098
0.424451
0.428217
0.21431
0.490914
0.429337
0.426538
0.241646
0.212938
0.430946
0.487509
0.495642
0.427768
0.430564
0.196527
0.428906
0.368923
0.193858
0.431688
0.425431
0.385897
0.4328
0.206608
0.431477
0.496433
0.474935
0.428035
0.475817
0.432443
0.489387
0.432126
0.49593
0.490472
0.190775
0.393639
0.394194
0.49052
0.493063
0.426557
0.361498
0.430654
0.490122
0.430728
0.236859
0.488671
0.43221
0.428478
0.216504
0.237592
0.4285
0.24764
0.355313
0.221664
0.312514
0.311883
0.355153
0.352571
0.425131
0.233521
0.495711
0.424572
0.496747
0.432335
0.253918
0.429491
0.431728
0.429561
0.223318
0.432317
0.494799
0.430446
0.429732
0.468386
0.432455
0.240997
0.250207
0.443188
0.443233
0.432005
0.494897
0.241094
0.429956
0.495564
0.432352
0.432617
0.411368
0.405709
0.496507
0.462387
0.170853
0.26038
0.431834
0.236968
0.429336
0.26212
0.376446
0.432185
0.42419
0.430575
0.430995
0.414938
0.414391
0.287493
0.496241
0.192374
0.49662
0.429249
0.432083
0.492465
0.43262
0.490078
0.406717
0.277006
0.251143
0.492596
0.360869
0.492847
0.431345
0.431475
0.19617
0.496009
0.491828
0.326385
0.431575
0.256342
0.21656
0.425505
0.492357
0.257505
0.370336
0.295876
0.229445
0.476611
0.423457
0.478273
0.474821
0.424236
0.414014
0.414308
0.189639
0.423516
0.432522
0.432204
0.227773
0.413133
0.429898
0.335442
0.249105
0.430806
0.422727
0.4305
0.432258
0.431583
0.432473
0.421635
0.496552
0.421785
0.385757
0.404738
0.427048
0.426815
0.424465
0.245514
0.430428
0.402715
0.402899
0.490329
0.431372
0.427732
0.497428
0.431011
0.410058
0.429569
0.427102
0.489719
0.238601
0.427473
0.244842
0.490861
0.403664
0.25389
0.481145
0.393194
0.392287
0.432395
0.432097
0.370883
0.432492
0.431608
0.495638
0.381162
0.380885
0.298454
0.432419
0.424123
0.431884
0.364068
0.432686
0.431542
0.42544
0.426783
0.432073
0.469359
0.47072
0.367877
0.431368
0.42952
0.432225
0.346515
0.345913
0.34599
0.413148
0.429879
0.431046
0.431996
0.432737
0.414332
0.181527
0.413801
0.411607
0.432301
0.290627
0.430517
0.369963
0.431874
0.385124
0.384938
0.427744
0.492375
0.430976
0.236704
0.49575
0.432598
0.21312
0.396077
0.496457
0.491862
0.405615
0.254467
0.301586
0.307526
0.396009
0.427516
0.431217
0.416621
0.410689
0.403029
0.432465
0.416259
0.401042
0.402809
0.406988
0.432015
0.412515
0.431028
0.200731
0.403763
0.49331
0.492119
0.427
0.430271
0.408095
0.43004
0.43198
0.43035
0.194958
0.403133
0.431707
0.431641
0.431246
0.43211
0.431721
0.430601
0.287439
0.38253
0.382273
0.431411
0.429965
0.431689
0.49226
0.262359
0.430185
0.421852
0.432206
0.423668
0.167612
0.49239
0.427776
0.22678
0.488182
0.431018
0.277298
0.430786
0.339271
0.400886
0.235004
0.235761
0.339863
0.336007
0.420118
0.429641
0.49595
0.49597
0.234898
0.43153
0.432337
0.363813
0.379138
0.424804
0.245553
0.430059
0.429596
0.478391
0.216546
0.192686
0.361832
0.431936
0.431953
0.431741
0.431785
0.497497
0.427307
0.427799
0.428264
0.43146
0.426785
0.43152
0.430218
0.385108
0.492717
0.460947
0.496492
0.430717
0.429723
0.431928
0.42966
0.390415
0.429157
0.427319
0.410539
0.430265
0.429241
0.427606
0.497096
0.428468
0.414481
0.490683
0.400937
0.405955
0.496529
0.428883
0.432382
0.492191
0.218116
0.431314
0.489313
0.428863
0.495681
0.42825
0.429091
0.25742
0.495917
0.488903
0.490272
0.377791
0.378228
0.427237
0.259114
0.497256
0.429903
0.49799
0.348606
0.430825
0.42914
0.19759
0.369866
0.489682
0.388289
0.200682
0.497893
0.203546
0.498721
0.498683
0.497818
0.204741
0.424527
0.497562
0.429527
0.496156
0.49384
0.430506
0.432413
0.473869
0.189862
0.258044
0.497247
0.359526
0.428295
0.262279
0.187441
0.188393
0.428929
0.469927
0.205249
0.17759
0.488287
0.497529
0.431623
0.462484
0.427836
0.166247
0.498364
0.498333
0.492152
0.430146
0.491989
0.430666
0.184597
0.421127
0.421314
0.426933
0.49597
0.431045
0.496496
0.497099
0.431261
0.203425
0.432636
0.432515
0.223195
0.245502
0.242783
0.365855
0.428535
0.491769
0.469998
0.428799
0.428098
0.428826
0.425797
0.428884
0.497732
0.41268
0.497169
0.20972
0.463721
0.427028
0.162958
0.162202
0.491478
0.419934
0.493985
0.429554
0.428463
0.427629
0.414876
0.414568
0.429558
0.429312
0.431364
0.49568
0.345084
0.428662
0.42631
0.429068
0.347503
0.347426
0.431412
0.430412
0.427535
0.431643
0.429057
0.495127
0.431431
0.362899
0.495614
0.35137
0.351559
0.429089
0.423039
0.430635
0.426565
0.380367
0.380082
0.370842
0.385725
0.38558
0.24385
0.424835
0.496866
0.363536
0.426487
0.428648
0.480564
0.426223
0.39263
0.391757
0.402204
0.402312
0.41666
0.429825
0.396548
0.41253
0.411765
0.495578
0.425986
0.406125
0.487225
0.428013
0.387541
0.387423
0.416047
0.427067
0.417178
0.398015
0.397955
0.429229
0.42573
0.410125
0.43249
0.41686
0.216542
0.429796
0.444096
0.49688
0.428468
0.399319
0.426279
0.497594
0.497554
0.497291
0.432061
0.495006
0.493051
0.40413
0.497039
0.36492
0.489282
0.493656
0.497075
0.428453
0.430854
0.43133
0.357223
0.432311
0.432259
0.496267
0.225227
0.226693
0.426712
0.4319
0.400316
0.488612
0.424873
0.427354
0.491364
0.492006
0.432139
0.495521
0.49549
0.431854
0.49124
0.252032
0.255769
0.493845
0.39808
0.364008
0.465165
0.206485
0.49696
0.497023
0.431544
0.496
0.496325
0.488005
0.428873
0.219788
0.420842
0.49569
0.459334
0.482825
0.496137
0.427334
0.496258
0.239292
0.427579
0.226296
0.410873
0.426117
0.496811
0.223207
0.223048
0.431127
0.389905
0.491073
0.495604
0.48833
0.428287
0.209634
0.425655
0.493446
0.431756
0.496385
0.495315
0.495036
0.428491
0.387656
0.429419
0.495568
0.427239
0.496234
0.428284
0.482179
0.493598
0.43034
0.488578
0.383178
0.382905
0.494731
0.493736
0.495482
0.49536
0.487735
0.495814
0.495917
0.473149
0.430453
0.418308
0.495646
0.496148
0.430795
0.426257
0.428684
0.408569
0.428478
0.492608
0.377415
0.376932
0.496696
0.497116
0.278889
0.497099
0.494539
0.432224
0.426024
0.423903
0.494112
0.494853
0.432134
0.495546
0.49584
0.488058
0.468726
0.493903
0.49626
0.491885
0.496192
0.367479
0.426386
0.482193
0.427542
0.49576
0.495597
0.476686
0.426148
0.427793
0.425357
0.495203
0.485935
0.495903
0.191076
0.358189
0.426309
0.497223
0.492853
0.368085
0.427166
0.493745
0.495381
0.495572
0.340338
0.337706
0.432273
0.407605
0.495775
0.178599
0.420502
0.494614
0.471156
0.428375
0.167235
0.495446
0.420606
0.183356
0.494906
0.418348
0.491609
0.425232
0.431515
0.49582
0.496907
0.426563
0.426589
0.419357
0.493472
0.495837
0.432078
0.496184
0.492551
0.366905
0.493687
0.427594
0.431326
0.494402
0.168665
0.427346
0.494846
0.425755
0.495966
0.496257
0.477309
0.413754
0.417125
0.428644
0.432464
0.413242
0.432475
0.495673
0.426456
0.493928
0.495538
0.495364
0.493067
0.495582
0.430281
0.495819
0.307673
0.495669
0.297093
0.495491
0.492631
0.491448
0.496552
0.492164
0.42867
0.352351
0.352871
0.427811
0.429653
0.496048
0.199463
0.202207
0.404267
0.403312
0.494384
0.49557
0.494585
0.430074
0.490805
0.495507
0.420945
0.364567
0.494708
0.49559
0.428858
0.495817
0.235404
0.260756
0.496918
0.496369
0.496335
0.366139
0.492825
0.49572
0.493705
0.466326
0.467644
0.497959
0.492441
0.49539
0.312782
0.388154
0.387965
0.423918
0.364874
0.493262
0.494054
0.491663
0.491629
0.493807
0.474825
0.495413
0.419374
0.193886
0.493793
0.494021
0.496078
0.424998
0.493335
0.495279
0.427325
0.39849
0.39845
0.466649
0.492292
0.495714
0.493483
0.428677
0.411064
0.494001
0.403508
0.496597
0.489008
0.492907
0.425616
0.491127
0.43116
0.427212
0.492665
0.496045
0.426073
0.429975
0.426332
0.490889
0.493416
0.487798
0.491692
0.495591
0.495557
0.493128
0.493654
0.493502
0.412889
0.492088
0.495352
0.491803
0.408618
0.495776
0.496209
0.487386
0.495322
0.493301
0.495286
0.353494
0.496121
0.493537
0.492359
0.492643
0.495017
0.417709
0.496503
0.430629
0.42941
0.494502
0.494256
0.494013
0.491862
0.495421
0.493104
0.495926
0.493669
0.428557
0.493775
0.427134
0.41991
0.421138
0.425904
0.495527
0.49133
0.494754
0.423956
0.49284
0.492916
0.492386
0.490206
0.493926
0.493186
0.418885
0.4919
0.487861
0.49367
0.490492
0.420994
0.495826
0.407594
0.495791
0.494048
0.49641
0.475746
0.491379
0.225068
0.221557
0.432173
0.487823
0.491493
0.492943
0.419964
0.41777
0.496155
0.492747
0.495811
0.490083
0.491157
0.495103
0.494808
0.494777
0.494034
0.492897
0.491598
0.492485
0.402483
0.496103
0.395444
0.243974
0.423148
0.424328
0.418827
0.424954
0.402458
0.493268
0.39542
0.492451
0.482804
0.486688
0.491064
0.492115
0.492748
0.427518
0.479567
0.495829
0.494607
0.491585
0.479587
0.490822
0.472088
0.42527
0.495389
0.492183
0.431853
0.495572
0.365453
0.432402
0.495416
0.487015
0.495509
0.491647
0.354541
0.429717
0.495794
0.467394
0.490766
0.49308
0.491608
0.493353
0.491243
0.495434
0.489856
0.255824
0.49424
0.426049
0.424869
0.428119
0.480243
0.490311
0.495719
0.491332
0.492464
0.49189
0.496479
0.491047
0.465267
0.489587
0.490745
0.239411
0.467729
0.49125
0.495281
0.410292
0.490553
0.488316
0.487476
0.425173
0.491604
0.430196
0.431121
0.428314
0.490579
0.493199
0.489509
0.494958
0.49319
0.436012
0.495872
0.429163
0.491872
0.427823
0.496765
0.420775
0.495474
0.49109
0.495904
0.496348
0.490346
0.424979
0.495272
0.423655
0.492172
0.42587
0.428819
0.426684
0.489907
0.416081
0.495651
0.433201
0.486544
0.49329
0.42458
0.490945
0.490516
0.496138
0.495182
0.398811
0.424232
0.413683
0.424853
0.490586
0.494001
0.493953
0.423917
0.49115
0.491929
0.413078
0.420158
0.310561
0.294973
0.489939
0.439852
0.427336
0.197754
0.202265
0.40431
0.489703
0.422663
0.492728
0.490147
0.489249
0.495357
0.489903
0.488249
0.442402
0.431278
0.258025
0.488562
0.421224
0.488827
0.492438
0.42467
0.494444
0.466237
0.428647
0.46865
0.428106
0.423541
0.448927
0.365395
0.444946
0.489565
0.429637
0.414845
0.429078
0.49482
0.442466
0.423618
0.195391
0.420417
0.492074
0.416572
0.431113
0.492281
0.427446
0.49128
0.495152
0.422579
0.410975
0.423441
0.403963
0.488216
0.489513
0.429329
0.49213
0.494263
0.446644
0.422999
0.353883
0.423603
0.418941
0.486684
0.422692
0.419586
0.489434
0.496957
0.491072
0.416634
0.419518
0.415432
0.497492
0.428097
0.416242
0.493455
0.415493
0.48987
0.422049
0.417056
0.474788
0.488879
0.221564
0.226378
0.451977
0.45398
0.48944
0.485453
0.423825
0.416467
0.382157
0.381891
0.454071
0.495927
0.245897
0.493531
0.491628
0.48948
0.493872
0.493321
0.455995
0.423579
0.413532
0.490762
0.415243
0.487055
0.492648
0.419559
0.48727
0.4198
0.423187
0.486383
0.437981