# vtk DataFile Version 1.0
unstructured grid
ascii
DATASET UNSTRUCTURED_GRID
points 8094 float
-0.25 0.0574735 0
0.5 0.0546937 0
0.5 -0.0546937 0
-0.25 -0.0574735 0
-0.25 0.0574735 0.01
0.5 0.0546937 0.01
0.5 -0.0546937 0.01
-0.25 -0.0574735 0.01
-0.246045 0.0569295 0
-0.242089 0.0563854 0
-0.238136 0.0558289 0
-0.234184 0.0552582 0
-0.230232 0.0546875 0
-0.226284 0.0540912 0
-0.222337 0.0534933 0
-0.218391 0.0528841 0
-0.214448 0.0522585 0
-0.210504 0.0516328 0
-0.206565 0.0509829 0
-0.202626 0.0503294 0
-0.198689 0.0496667 0
-0.194755 0.0489856 0
-0.190821 0.0483046 0
-0.18689 0.0476022 0
-0.182961 0.0468942 0
-0.179033 0.0461799 0
-0.175108 0.0454463 0
-0.171183 0.0447127 0
-0.167262 0.0439627 0
-0.163342 0.0432056 0
-0.159422 0.0424455 0
-0.155506 0.041668 0
-0.15159 0.0408904 0
-0.147675 0.0401031 0
-0.143762 0.0393092 0
-0.13985 0.0385149 0
-0.135939 0.0377103 0
-0.132028 0.0369056 0
-0.128117 0.0361005 0
-0.124207 0.0352949 0
-0.120296 0.0344893 0
-0.116386 0.0336836 0
-0.112475 0.032878 0
-0.108563 0.0320794 0
-0.104649 0.0312931 0
-0.100735 0.0305068 0
-0.0968152 0.029745 0
-0.0928949 0.0289889 0
-0.0889722 0.0282446 0
-0.0850433 0.0275341 0
-0.0811144 0.0268235 0
-0.0771778 0.0261578 0
-0.0732381 0.0255098 0
-0.0692962 0.0248759 0
-0.0653442 0.0243073 0
-0.0613923 0.0237386 0
-0.0574324 0.0232306 0
-0.0534681 0.0227556 0
-0.0495024 0.0222934 0
-0.0455272 0.0219207 0
-0.041552 0.0215481 0
-0.0375717 0.0212385 0
-0.0335881 0.0209694 0
-0.029604 0.0207098 0
-0.0256151 0.0205369 0
-0.0216262 0.0203639 0
-0.0176357 0.0202396 0
-0.0136441 0.0201487 0
-0.00965243 0.0200635 0
-0.00565987 0.0200372 0
-0.00166732 0.020011 0
0.00232526 0.0200121 0
0.00631785 0.0200329 0
0.0103104 0.0200563 0
0.0143027 0.0201109 0
0.018295 0.0201654 0
0.022287 0.0202345 0
0.0262788 0.0203144 0
0.0302706 0.0203957 0
0.034262 0.0204956 0
0.0382534 0.0205955 0
0.0422446 0.0207045 0
0.0462355 0.0208207 0
0.0502265 0.0209377 0
0.054217 0.0210676 0
0.0582075 0.0211975 0
0.0621978 0.0213339 0
0.0661879 0.0214757 0
0.0701781 0.021618 0
0.0741678 0.0217703 0
0.0781575 0.0219227 0
0.0821471 0.0220801 0
0.0861364 0.022242 0
0.0901258 0.0224041 0
0.0941148 0.0225747 0
0.0981038 0.0227453 0
0.102093 0.0229202 0
0.106081 0.023099 0
0.11007 0.0232779 0
0.114058 0.0234644 0
0.118046 0.0236509 0
0.122035 0.0238411 0
0.126022 0.024035 0
0.13001 0.0242288 0
0.133998 0.0244298 0
0.137986 0.0246308 0
0.141973 0.0248352 0
0.14596 0.025043 0
0.149947 0.0252509 0
0.153934 0.0254654 0
0.157921 0.02568 0
0.161908 0.0258978 0
0.165894 0.026119 0
0.169881 0.0263402 0
0.173867 0.0265678 0
0.177853 0.0267956 0
0.181839 0.0270264 0
0.185825 0.0272607 0
0.189811 0.0274951 0
0.193796 0.0277356 0
0.197781 0.0279764 0
0.201767 0.02822 0
0.205752 0.0284673 0
0.209737 0.0287146 0
0.213721 0.0289679 0
0.217706 0.0292217 0
0.22169 0.0294782 0
0.225674 0.0297385 0
0.229658 0.0299988 0
0.233642 0.0302651 0
0.237626 0.0305319 0
0.241609 0.0308014 0
0.245593 0.0310748 0
0.249576 0.0313482 0
0.253559 0.0316276 0
0.257542 0.0319077 0
0.261524 0.0321904 0
0.265507 0.0324772 0
0.269489 0.032764 0
0.273471 0.0330568 0
0.277453 0.0333504 0
0.281434 0.0336466 0
0.285416 0.0339471 0
0.289397 0.0342476 0
0.293378 0.034554 0
0.297359 0.0348615 0
0.301339 0.0351714 0
0.305319 0.0354859 0
0.3093 0.0358005 0
0.313279 0.036121 0
0.317259 0.0364427 0
0.321239 0.0367667 0
0.325218 0.0370957 0
0.329197 0.0374248 0
0.333175 0.0377597 0
0.337154 0.0380961 0
0.341132 0.0384347 0
0.34511 0.0387786 0
0.349088 0.0391226 0
0.353065 0.0394724 0
0.357042 0.0398239 0
0.361019 0.0401775 0
0.364995 0.0405368 0
0.368972 0.0408961 0
0.372948 0.0412613 0
0.376924 0.0416285 0
0.380899 0.0419975 0
0.384874 0.0423727 0
0.388849 0.0427479 0
0.392823 0.0431289 0
0.396798 0.0435123 0
0.400772 0.0438973 0
0.404745 0.044289 0
0.408718 0.0446807 0
0.412691 0.0450781 0
0.416664 0.0454782 0
0.420636 0.0458797 0
0.424608 0.0462883 0
0.42858 0.046697 0
0.432551 0.0471114 0
0.436521 0.0475289 0
0.440492 0.0479474 0
0.444462 0.0483738 0
0.448432 0.0488001 0
0.452401 0.0492319 0
0.45637 0.0496673 0
0.460338 0.0501035 0
0.464306 0.0505482 0
0.468274 0.0509928 0
0.472241 0.0514427 0
0.476208 0.0518968 0
0.480175 0.0523512 0
0.48414 0.0528148 0
0.488106 0.0532784 0
0.492071 0.0537471 0
0.496036 0.0542204 0
0.5 0.050787 0
0.5 0.0468803 0
0.5 0.0429736 0
0.5 0.0390669 0
0.5 0.0351602 0
0.5 0.0312535 0
0.5 0.0273468 0
0.5 0.0234402 0
0.5 0.0195335 0
0.5 0.0156268 0
0.5 0.0117201 0
0.5 0.00781339 0
0.5 0.00390669 0
0.5 1.43781e-13 0
0.5 -0.00390669 0
0.5 -0.00781339 0
0.5 -0.0117201 0
0.5 -0.0156268 0
0.5 -0.0195335 0
0.5 -0.0234402 0
0.5 -0.0273468 0
0.5 -0.0312535 0
0.5 -0.0351602 0
0.5 -0.0390669 0
0.5 -0.0429736 0
0.5 -0.0468803 0
0.5 -0.050787 0
0.496036 -0.0542204 0
0.492071 -0.0537471 0
0.488106 -0.0532784 0
0.48414 -0.0528148 0
0.480175 -0.0523512 0
0.476208 -0.0518968 0
0.472241 -0.0514427 0
0.468274 -0.0509928 0
0.464306 -0.0505482 0
0.460338 -0.0501035 0
0.45637 -0.0496673 0
0.452401 -0.0492319 0
0.448432 -0.0488001 0
0.444462 -0.0483738 0
0.440492 -0.0479474 0
0.436521 -0.0475289 0
0.432551 -0.0471114 0
0.42858 -0.046697 0
0.424608 -0.0462883 0
0.420636 -0.0458797 0
0.416664 -0.0454782 0
0.412691 -0.0450781 0
0.408718 -0.0446807 0
0.404745 -0.044289 0
0.400772 -0.0438973 0
0.396798 -0.0435123 0
0.392823 -0.0431289 0
0.388849 -0.0427479 0
0.384874 -0.0423727 0
0.380899 -0.0419975 0
0.376924 -0.0416285 0
0.372948 -0.0412613 0
0.368972 -0.0408961 0
0.364995 -0.0405368 0
0.361019 -0.0401775 0
0.357042 -0.0398239 0
0.353065 -0.0394724 0
0.349088 -0.0391226 0
0.34511 -0.0387786 0
0.341132 -0.0384347 0
0.337154 -0.0380961 0
0.333175 -0.0377597 0
0.329197 -0.0374248 0
0.325218 -0.0370957 0
0.321239 -0.0367667 0
0.317259 -0.0364427 0
0.313279 -0.036121 0
0.3093 -0.0358005 0
0.305319 -0.0354859 0
0.301339 -0.0351714 0
0.297359 -0.0348615 0
0.293378 -0.034554 0
0.289397 -0.0342476 0
0.285416 -0.0339471 0
0.281434 -0.0336466 0
0.277453 -0.0333504 0
0.273471 -0.0330568 0
0.269489 -0.032764 0
0.265507 -0.0324772 0
0.261524 -0.0321904 0
0.257542 -0.0319077 0
0.253559 -0.0316276 0
0.249576 -0.0313482 0
0.245593 -0.0310748 0
0.241609 -0.0308014 0
0.237626 -0.0305319 0
0.233642 -0.0302651 0
0.229658 -0.0299988 0
0.225674 -0.0297385 0
0.22169 -0.0294782 0
0.217706 -0.0292217 0
0.213721 -0.0289679 0
0.209737 -0.0287146 0
0.205752 -0.0284673 0
0.201767 -0.02822 0
0.197781 -0.0279764 0
0.193796 -0.0277356 0
0.189811 -0.0274951 0
0.185825 -0.0272607 0
0.181839 -0.0270264 0
0.177853 -0.0267956 0
0.173867 -0.0265678 0
0.169881 -0.0263402 0
0.165894 -0.026119 0
0.161908 -0.0258978 0
0.157921 -0.02568 0
0.153934 -0.0254654 0
0.149947 -0.0252509 0
0.14596 -0.025043 0
0.141973 -0.0248352 0
0.137986 -0.0246308 0
0.133998 -0.0244298 0
0.13001 -0.0242288 0
0.126022 -0.024035 0
0.122035 -0.0238411 0
0.118046 -0.0236509 0
0.114058 -0.0234644 0
0.11007 -0.0232779 0
0.106081 -0.023099 0
0.102093 -0.0229202 0
0.0981038 -0.0227453 0
0.0941148 -0.0225747 0
0.0901258 -0.0224041 0
0.0861364 -0.022242 0
0.0821471 -0.0220801 0
0.0781575 -0.0219227 0
0.0741678 -0.0217703 0
0.0701781 -0.021618 0
0.0661879 -0.0214757 0
0.0621978 -0.0213339 0
0.0582075 -0.0211975 0
0.054217 -0.0210676 0
0.0502265 -0.0209377 0
0.0462355 -0.0208207 0
0.0422446 -0.0207045 0
0.0382534 -0.0205955 0
0.034262 -0.0204956 0
0.0302706 -0.0203957 0
0.0262788 -0.0203144 0
0.022287 -0.0202345 0
0.018295 -0.0201654 0
0.0143027 -0.0201109 0
0.0103104 -0.0200563 0
0.00631785 -0.0200329 0
0.00232526 -0.0200121 0
-0.00166732 -0.020011 0
-0.00565987 -0.0200372 0
-0.00965243 -0.0200635 0
-0.0136441 -0.0201487 0
-0.0176357 -0.0202396 0
-0.0216262 -0.0203639 0
-0.0256151 -0.0205369 0
-0.029604 -0.0207098 0
-0.0335881 -0.0209694 0
-0.0375717 -0.0212385 0
-0.041552 -0.0215481 0
-0.0455272 -0.0219207 0
-0.0495024 -0.0222934 0
-0.0534681 -0.0227556 0
-0.0574324 -0.0232306 0
-0.0613923 -0.0237386 0
-0.0653442 -0.0243073 0
-0.0692962 -0.0248759 0
-0.0732381 -0.0255098 0
-0.0771778 -0.0261578 0
-0.0811144 -0.0268235 0
-0.0850433 -0.0275341 0
-0.0889722 -0.0282446 0
-0.0928949 -0.0289889 0
-0.0968152 -0.029745 0
-0.100735 -0.0305068 0
-0.104649 -0.0312931 0
-0.108563 -0.0320794 0
-0.112475 -0.032878 0
-0.116386 -0.0336836 0
-0.120296 -0.0344893 0
-0.124207 -0.0352949 0
-0.128117 -0.0361005 0
-0.132028 -0.0369056 0
-0.135939 -0.0377103 0
-0.13985 -0.0385149 0
-0.143762 -0.0393092 0
-0.147675 -0.0401031 0
-0.15159 -0.0408904 0
-0.155506 -0.041668 0
-0.159422 -0.0424455 0
-0.163342 -0.0432056 0
-0.167262 -0.0439627 0
-0.171183 -0.0447127 0
-0.175108 -0.0454463 0
-0.179033 -0.0461799 0
-0.182961 -0.0468942 0
-0.18689 -0.0476022 0
-0.190821 -0.0483046 0
-0.194755 -0.0489856 0
-0.198689 -0.0496667 0
-0.202626 -0.0503294 0
-0.206565 -0.0509829 0
-0.210504 -0.0516328 0
-0.214448 -0.0522585 0
-0.218391 -0.0528841 0
-0.222337 -0.0534933 0
-0.226284 -0.0540912 0
-0.230232 -0.0546875 0
-0.234184 -0.0552582 0
-0.238136 -0.0558289 0
-0.242089 -0.0563854 0
-0.246045 -0.0569295 0
-0.25 -0.0535098 0
-0.25 -0.0495461 0
-0.25 -0.0455824 0
-0.25 -0.0416187 0
-0.25 -0.0376551 0
-0.25 -0.0336914 0
-0.25 -0.0297277 0
-0.25 -0.025764 0
-0.25 -0.0218003 0
-0.25 -0.0178366 0
-0.25 -0.0138729 0
-0.25 -0.00990922 0
-0.25 -0.00594553 0
-0.25 -0.00198184 0
-0.25 0.00198184 0
-0.25 0.00594553 0
-0.25 0.00990922 0
-0.25 0.0138729 0
-0.25 0.0178366 0
-0.25 0.0218003 0
-0.25 0.025764 0
-0.25 0.0297277 0
-0.25 0.0336914 0
-0.25 0.0376551 0
-0.25 0.0416187 0
-0.25 0.0455824 0
-0.25 0.0495461 0
-0.25 0.0535098 0
-0.246045 0.0569295 0.01
-0.242089 0.0563854 0.01
-0.238136 0.0558289 0.01
-0.234184 0.0552582 0.01
-0.230232 0.0546875 0.01
-0.226284 0.0540912 0.01
-0.222337 0.0534933 0.01
-0.218391 0.0528841 0.01
-0.214448 0.0522585 0.01
-0.210504 0.0516328 0.01
-0.206565 0.0509829 0.01
-0.202626 0.0503294 0.01
-0.198689 0.0496667 0.01
-0.194755 0.0489856 0.01
-0.190821 0.0483046 0.01
-0.18689 0.0476022 0.01
-0.182961 0.0468942 0.01
-0.179033 0.0461799 0.01
-0.175108 0.0454463 0.01
-0.171183 0.0447127 0.01
-0.167262 0.0439627 0.01
[...]
CELL_DATA 7657
SCALARS rho float
LOOKUP_TABLE default
0.481168
0.38579
0.403116
0.338874
0.496892
0.358641
0.326078
0.453425
0.360241
0.500294
0.500355
0.449079
0.341331
0.451914
0.496251
0.491511
0.496191
0.417862
0.417444
0.469696
0.495567
0.419956
0.378483
0.417425
0.432205
0.439029
0.334214
0.345657
0.497527
0.359785
0.324392
0.432199
0.375896
0.479302
0.479725
0.324376
0.360013
0.377838
0.484149
0.327289
0.402044
0.359417
0.345268
0.352927
0.401624
0.404518
0.326852
0.35801
0.432414
0.480804
0.351598
0.339044
0.497453
0.49826
0.325741
0.362821
0.495817
0.494123
0.457869
0.324598
0.43275
0.400212
0.433372
0.433581
0.500957
0.50097
0.341167
0.367834
0.499661
0.454061
0.404777
0.342529
0.34299
0.49751
0.478112
0.356609
0.419952
0.355824
0.477616
0.343733
0.375228
0.45835
0.472917
0.402582
0.404392
0.462408
0.404018
0.45313
0.439539
0.333936
0.500831
0.500869
0.45942
0.499058
0.326273
0.464838
0.46367
0.381494
0.400598
0.326192
0.418716
0.429199
0.384396
0.495191
0.327262
0.367192
0.324935
0.370376
0.344998
0.495167
0.324408
0.369345
0.348837
0.473549
0.409549
0.44316
0.371908
0.327154
0.490911
0.358444
0.501583
0.501568
0.324949
0.381752
0.470527
0.450606
0.447763
0.345278
0.365655
0.345828
0.337913
0.423672
0.363546
0.342787
0.467997
0.324652
0.491813
0.376032
0.424615
0.425202
0.32505
0.333288
0.32792
0.326451
0.416396
0.495493
0.37341
0.386813
0.399527
0.324926
0.328113
0.499771
0.402746
0.345865
0.495569
0.385096
0.367889
0.421584
0.46792
0.324852
0.422328
0.493919
0.438395
0.441872
0.395916
0.384203
0.48419
0.348632
0.408902
0.491305
0.401686
0.368782
0.42317
0.32819
0.324716
0.324421
0.341696
0.464849
0.468804
0.327954
0.326496
0.344656
0.427286
0.427425
0.339536
0.45622
0.35305
0.342055
0.443512
0.464801
0.497457
0.499236
0.468126
0.469393
0.442617
0.364952
0.46926
0.493615
0.324606
0.407223
0.417157
0.428547
0.466177
0.450921
0.334498
0.498348
0.346968
0.327625
0.477256
0.468905
0.388244
0.399487
0.395505
0.467583
0.401056
0.342037
0.324914
0.461129
0.36963
0.4069
0.386052
0.387165
0.50004
0.368778
0.348561
0.376712
0.348293
0.330341
0.355577
0.500075
0.393212
0.393419
0.343871
0.495469
0.490085
0.469983
0.452706
0.429357
0.429469
0.493373
0.387535
0.329627
0.466335
0.375726
0.476382
0.471527
0.353208
0.470684
0.354908
0.354222
0.324332
0.341082
0.371114
0.478311
0.32481
0.341767
0.387873
0.496849
0.498155
0.369026
0.380992
0.498059
0.490528
0.408932
0.325243
0.403934
0.448869
0.329675
0.417056
0.328786
0.336843
0.333399
0.333331
0.475043
0.475782
0.409532
0.347444
0.369324
0.368477
0.445731
0.382007
0.435114
0.331222
0.325666
0.341276
0.324368
0.325595
0.337673
0.406989
0.413048
0.410383
0.34263
0.331435
0.497994
0.370711
0.335027
0.484475
0.459603
0.442965
0.410998
0.463717
0.498725
0.32875
0.351184
0.334503
0.460919
0.325367
0.343062
0.415267
0.370302
0.446552
0.44708
0.493151
0.354757
0.432157
0.492981
0.497948
0.496878
0.369681
0.435265
0.347065
0.37805
0.497904
0.454556
0.491289
0.497516
0.351899
0.400176
0.494501
0.412372
0.367274
0.497725
0.490498
0.390132
0.456584
0.418139
0.37064
0.330345
0.431805
0.497429
0.441745
0.324566
0.391588
0.490569
0.471265
0.32475
0.497424
0.389475
0.405838
0.494547
0.359889
0.42161
0.468066
0.422221
0.325561
0.431309
0.42397
0.327882
0.431565
0.327101
0.376458
0.419167
0.406122
0.444891
0.495934
0.324552
0.441046
0.326776
0.459534
0.462498
0.361251
0.433661
0.473657
0.472906
0.345768
0.34261
0.422483
0.41754
0.413441
0.489733
0.396878
0.415884
0.332942
0.433438
0.497747
0.499739
0.480434
0.4496
0.440228
0.494127
0.376927
0.371056
0.37019
0.47412
0.437829
0.454784
0.324949
0.369117
0.494043
0.359865
0.469718
0.47282
0.415534
0.498752
0.326978
0.433421
0.491994
0.335764
0.494315
0.49624
0.423251
0.361501
0.433572
0.338369
0.466373
0.471893
0.400846
0.458526
0.33863
0.381901
0.378219
0.456969
0.329226
0.398049
0.386184
0.41053
0.463986
0.466945
0.344661
0.429197
0.440758
0.325182
0.393619
0.469965
0.435454
0.489359
0.498698
0.424697
0.49071
0.416807
0.35839
0.48823
0.324513
0.497688
0.445571
0.39709
0.387553
0.327976
0.496146
0.441624
0.432129
0.431492
0.378413
0.326645
0.350209
0.464783
0.326339
0.49208
0.490829
0.467067
0.480101
0.367218
0.413117
0.463043
0.399929
0.464269
0.365072
0.37073
0.325789
0.325237
0.497668
0.37927
0.430597
0.481834
0.495267
0.428036
0.435589
0.357195
0.325763
0.497426
0.445607
0.497561
0.421759
0.423231
0.397836
0.368707
0.330351
0.324215
0.499617
0.434011
0.493674
0.432708
0.451303
0.468324
0.448228
0.332192
0.338964
0.354712
0.479738
0.481087
0.455511
0.453811
0.438422
0.464927
0.452979
0.456377
0.394098
0.343594
0.444404
0.489557
0.330542
0.435115
0.427384
0.493592
0.418247
0.459762
0.48724
0.420989
0.485285
0.380288
0.491894
0.471415
0.452233
0.337094
0.444608
0.45714
0.498564
0.403092
0.498879
0.43316
0.374318
0.490029
0.452302
0.430245
0.400206
0.427838
0.401519
0.455471
0.324637
0.414741
0.396851
0.428008
0.437277
0.447803
0.435769
0.465184
0.426652
0.344069
0.361451
0.426039
0.490269
0.338605
0.428674
0.438059
0.485814
0.488931
0.326182
0.441635
0.3697
0.47988
0.48975
0.352758
0.462518
0.334549
0.425404
0.488017
0.499277
0.466219
0.32454
0.47669
0.464622
0.354105
0.421758
0.38124
0.460294
0.329789
0.449842
0.48052
0.443866
0.45018
0.351675
0.412332
0.461549
0.368192
0.425319
0.42664
0.43417
0.442915
0.499623
0.333691
0.442082
0.45292
0.327816
0.43693
0.458566
0.368158
0.324433
0.353142
0.397744
0.446715
0.467288
0.495031
0.369463
0.441406
0.450798
0.454602
0.438544
0.469711
0.371645
0.495493
0.439161
0.445571
0.448568
0.488134
0.398611
0.490106
0.477475
0.436356
0.433419
0.453768
0.324386
0.498084
0.498038
0.461503
0.457159
0.433855
0.383901
0.44185
0.444713
0.358313
0.418164
0.367099
0.498046
0.433979
0.345864
0.457938
0.431815
0.433062
0.497722
0.41806
0.497713
0.427854
0.431152
0.33262
0.336836
0.463104
0.432476
0.434174
0.411567
0.447503
0.488335
0.434298
0.404226
0.459534
0.476803
0.44441
0.332422
0.427266
0.433201
0.433005
0.325548
0.434479
0.490725
0.435908
0.433179
0.423274
0.434056
0.448877
0.434608
0.405446
0.461279
0.461791
0.425096
0.490813
0.340034
0.403991
0.399245
0.40088
0.471151
0.434787
0.39772
0.433407
0.408419
0.444963
0.451233
0.434935
0.374586
0.338813
0.360205
0.324475
0.472967
0.448407
0.442922
0.433599
0.426018
0.442462
0.472065
0.350486
0.496517
0.496201
0.329064
0.424656
0.351223
0.370501
0.327711
0.34784
0.435126
0.354664
0.435298
0.45996
0.459045
0.340561
0.448025
0.497953
0.420716
0.332726
0.490596
0.498509
0.467473
0.428172
0.347204
0.40629
0.457388
0.45893
0.49736
0.433806
0.437347
0.497845
0.324283
0.458599
0.43247
0.496801
0.34659
0.417717
0.441697
0.438383
0.370228
0.427088
0.458614
0.433024
0.433614
0.396953
0.496724
0.457099
0.32474
0.456956
0.370704
0.365017
0.325087
0.437465
0.498626
0.332997
0.433995
0.486927
0.499591
0.496053
0.497136
0.326785
0.497575
0.497725
0.391982
0.497255
0.467832
0.432493
0.433488
0.453019
0.371747
0.365313
0.4336
0.444421
0.421669
0.42097
0.489291
0.362197
0.497086
0.442535
0.488906
0.495862
0.496965
0.389428
0.347247
0.433656
0.326897
0.456873
0.327736
0.477655
0.496924
0.343853
0.460386
0.427329
0.435293
0.327884
0.443009
0.433965
0.400289
0.490174
0.455264
0.455207
0.411288
0.423007
0.496411
0.324544
0.334553
0.441866
0.416777
0.458408
0.458399
0.35091
0.496586
0.455343
0.468933
0.347299
0.335505
0.349483
0.329446
0.496238
0.475431
0.348634
0.458254
0.494576
0.475656
0.378616
0.467905
0.466188
0.327275
0.464673
0.441272
0.3264
0.439936
0.33237
0.461806
0.439653
0.326908
0.437433
0.465956
0.324639
0.488457
0.476241
0.495777
0.432726
0.467745
0.436175
0.432215
0.499109
0.497881
0.495592
0.406
0.453599
0.464814
0.345817
0.495942
0.49804
0.324513
0.36386
0.325695
0.434479
0.439716
0.497801
0.439939
0.494259
0.495875
0.462202
0.494006
0.496077
0.346419
0.434099
0.46047
0.324889
0.495352
0.327917
0.363394
0.497906
0.336442
0.438869
0.495611
0.326353
0.325267
0.496552
0.495762
0.452076
0.496307
0.444544
0.450357
0.441848
0.358773
0.354839
0.362195
0.450757
0.452053
0.496341
0.343788
0.434297
0.350166
0.495816
0.496069
0.49556
0.496034
0.435916
0.495093
0.467313
0.494834
0.495306
0.491592
0.465655
0.491924
0.329925
0.434641
0.330788
0.467504
0.325185
0.351843
0.327765
0.324789
0.447289
0.447393
0.497396
0.445832
0.495053
0.444703
0.371381
0.463661
0.474384
0.442716
0.497498
0.438804
0.451467
0.326058
0.4948
0.447726
0.447616
0.340691
0.491095
0.440861
0.439482
0.331146
0.456683
0.456665
0.45703
0.348669
0.350209
0.335264
0.326235
0.497815
0.477674
0.453567
0.422513
0.325722
0.327455
0.472677
0.443537
0.400021
0.330255
0.343584
0.343644
0.34584
0.440916
0.324126
0.400738
0.44976
0.324039
0.432756
0.49354
0.440774
0.45645
0.368453
0.352827
0.467508
0.327715
0.469296
0.438915
0.433862
0.480595
0.482718
0.433875
0.475911
0.473403
0.332925
0.434295
0.452131
0.354503
0.323814
0.464143
0.494399
0.441037
0.440295
0.433942
0.434145
0.46494
0.436805
0.429522
0.331543
0.326112
0.494435
0.32432
0.465938
0.463055
0.497524
0.498188
0.421194
0.41544
0.47391
0.445007
0.477391
0.428227
0.493817
0.439035
0.433677
0.47207
0.326236
0.466633
0.496271
0.438488
0.433754
0.33726
0.497286
0.448325
0.445716
0.340269
0.340045
0.368721
0.440682
0.493245
0.467948
0.397994
0.408115
0.323623
0.329927
0.418502
0.437866
0.493675
0.324817
0.435009
0.326886
0.324267
0.463862
0.497372
0.434919
0.497548
0.407512
0.407554
0.396821
0.497323
0.417854
0.478049
0.439476
0.417918
0.337424
0.398041
0.4804
0.38806
0.497466
0.333057
0.353627
0.495834
0.497903
0.455601
0.493863
0.495741
0.493189
0.459579
0.326128
0.332943
0.420145
0.497288
0.350766
0.45048
0.366219
0.481973
0.454753
0.349332
0.42994
0.472631
0.427756
0.466309
0.439975
0.495584
0.450232
0.441722
0.43373
0.497343
0.434831
0.480521
0.355544
0.433574
0.324061
0.436991
0.468316
0.33233
0.496495
0.471902
0.474357
0.440003
0.356467
0.472128
0.327118
0.325307
0.326121
0.47389
0.439623
0.432274
0.435616
0.325694
0.492885
0.445678
0.436723
0.323896
0.326407
0.45174
0.489724
0.49721
0.437996
0.447993
0.331127
0.43941
0.366174
0.33207
0.457269
0.435432
0.388478
0.471964
0.327962
0.45403
0.497898
0.478077
0.439973
0.47889
0.474506
0.491457
0.470175
0.497457
0.492475
0.332686
0.399187
0.400032
0.492521
0.494861
0.436574
0.379022
0.447779
0.492152
0.449381
0.32384
0.490793
0.470457
0.439638
0.325774
0.323894
0.440195
0.324376
0.352677
0.325127
0.344596
0.344436
0.353675
0.351882
0.435222
0.324072
0.497272
0.434871
0.498179
0.462451
0.324905
0.443682
0.46086
0.446627
0.324787
0.465568
0.496447
0.446577
0.445662
0.472047
0.468353
0.32374
0.324732
0.449071
0.449114
0.467155
0.496537
0.323835
0.443325
0.49714
0.470731
0.470957
0.426675
0.418434
0.497968
0.466525
0.340441
0.325993
0.459472
0.323898
0.442214
0.325997
0.375168
0.463066
0.434672
0.448883
0.457815
0.42992
0.429766
0.333078
0.497734
0.332394
0.498067
0.440715
0.470725
0.494317
0.470153
0.492111
0.420234
0.329681
0.323686
0.494434
0.357547
0.494662
0.453755
0.456028
0.330996
0.497529
0.493728
0.353879
0.459066
0.325064
0.325912
0.435451
0.494214
0.32549
0.367376
0.336676
0.324077
0.479628
0.434341
0.481163
0.477974
0.4347
0.429239
0.429403
0.333279
0.434373
0.464147
0.468941
0.324374
0.42837
0.443289
0.359255
0.324163
0.449226
0.434047
0.446523
0.461908
0.460576
0.46745
0.433572
0.498004
0.433645
0.388388
0.416978
0.437576
0.435991
0.434837
0.324355
0.446628
0.413689
0.413784
0.492343
0.457378
0.437069
0.498776
0.454088
0.425279
0.446926
0.436217
0.49178
0.344013
0.437218
0.344208
0.492834
0.415298
0.324718
0.483823
0.398729
0.398741
0.464418
0.460003
0.368399
0.471236
0.455196
0.497206
0.381989
0.381989
0.338118
0.466418
0.434656
0.457711
0.360579
0.46602
0.455315
0.435501
0.437121
0.463012
0.472944
0.474194
0.365012
0.46297
0.446242
0.464856
0.348634
0.347726
0.347797
0.428396
0.443249
0.45901
0.461317
0.467826
0.429432
0.336181
0.429277
0.427149
0.462475
0.334707
0.446677
0.367168
0.46125
0.387542
0.387477
0.437616
0.494228
0.450702
0.324361
0.497297
0.466005
0.326452
0.403029
0.497923
0.493758
0.418428
0.324656
0.339293
0.34252
0.402605
0.436731
0.455676
0.431087
0.425881
0.414046
0.464673
0.430902
0.410591
0.413707
0.421106
0.460648
0.428611
0.450524
0.329701
0.415332
0.495085
0.493995
0.436154
0.445352
0.422444
0.444351
0.458849
0.44677
0.331467
0.4138
0.457066
0.457787
0.452009
0.460745
0.459428
0.447939
0.332899
0.383896
0.383868
0.453642
0.44448
0.456073
0.494126
0.326007
0.445547
0.433689
0.462657
0.434584
0.341107
0.494241
0.438921
0.324571
0.490345
0.458803
0.330118
0.456165
0.345234
0.41065
0.323909
0.323936
0.34516
0.345235
0.433407
0.442395
0.497482
0.4975
0.344069
0.454339
0.469237
0.360623
0.393127
0.43504
0.324211
0.444305
0.446912
0.481268
0.325745
0.332635
0.358518
0.464168
0.458889
0.456497
0.46233
0.498838
0.436431
0.437042
0.43782
0.453697
0.435954
0.457734
0.445496
0.387497
0.494547
0.465195
0.497952
0.448579
0.447572
0.462621
0.442357
0.395734
0.441066
0.438102
0.425897
0.452858
0.440538
0.436767
0.498486
0.440986
0.423449
0.492669
0.411693
0.416036
0.497987
0.442947
0.46542
0.494061
0.325687
0.45238
0.491403
0.44341
0.497244
0.440729
0.444501
0.32542
0.497452
0.491023
0.492289
0.377976
0.377972
0.436412
0.325391
0.498627
0.448963
0.499267
0.369098
0.449172
0.440028
0.330468
0.367218
0.491744
0.391841
0.329582
0.499183
0.328826
0.499907
0.499873
0.499116
0.328184
0.43484
0.498893
0.446912
0.49766
0.495575
0.447328
0.464201
0.477097
0.333321
0.325354
0.498617
0.35642
0.438352
0.325875
0.334123
0.333718
0.44034
0.47344
0.328492
0.33773
0.490449
0.498864
0.455409
0.466597
0.437452
0.342028
0.499595
0.499566
0.494021
0.451282
0.493878
0.451145
0.335066
0.433347
0.433455
0.43615
0.497499
0.450587
0.497959
0.498487
0.4522
0.328775
0.46602
0.464374
0.324814
0.324091
0.323575
0.362827
0.438362
0.493674
0.473509
0.439022
0.437866
0.440413
0.435664
0.439335
0.499041
0.428261
0.498549
0.327249
0.467737
0.436182
0.343306
0.343377
0.493407
0.432911
0.495702
0.441526
0.441549
0.437069
0.429854
0.429684
0.441986
0.440799
0.456003
0.497242
0.347776
0.440308
0.436248
0.441146
0.348508
0.348456
0.457589
0.447535
0.436726
0.462023
0.43982
0.496743
0.458799
0.359379
0.497183
0.350956
0.350865
0.443823
0.434153
0.449849
0.435786
0.380916
0.380956
0.368245
0.388408
0.388341
0.324202
0.43497
0.498284
0.360736
0.435755
0.442441
0.483279
0.435577
0.397931
0.397933
0.41286
0.412891
0.431116
0.443374
0.403754
0.427793
0.427104
0.497153
0.435444
0.419273
0.489455
0.437421
0.390965
0.390955
0.430917
0.437433
0.431429
0.40603
0.406015
0.440747
0.435759
0.425196
0.469714
0.431275
0.325867
0.443427
0.449875
0.498295
0.438303
0.410308
0.43575
0.498921
0.498885
0.498655
0.468603
0.496634
0.49485
0.416096
0.498436
0.381825
0.491373
0.495408
0.498468
0.438324
0.452506
0.452824
0.375801
0.463345
0.471607
0.497756
0.32476
0.324472
0.435933
0.458302
0.409725
0.490753
0.434982
0.436739
0.4933
0.493888
0.470807
0.497094
0.497074
0.465275
0.493177
0.324698
0.325368
0.495579
0.406048
0.360736
0.469057
0.327882
0.498366
0.498421
0.454897
0.497518
0.497811
0.490188
0.44098
0.325297
0.433723
0.497244
0.463739
0.485376
0.497643
0.436482
0.497752
0.323979
0.438366
0.324529
0.426144
0.435544
0.498235
0.324698
0.32473
0.452443
0.394914
0.493031
0.49717
0.490492
0.437907
0.327156
0.435292
0.495214
0.457214
0.497863
0.496911
0.496659
0.439041
0.390991
0.441567
0.497138
0.436445
0.497732
0.440339
0.484775
0.495348
0.446066
0.49072
0.384794
0.384728
0.496384
0.495477
0.497066
0.49695
0.489937
0.497361
0.497453
0.476411
0.449723
0.432213
0.497211
0.497655
0.451319
0.435604
0.439892
0.42317
0.439224
0.494443
0.376877
0.376901
0.498134
0.498502
0.330682
0.498488
0.49621
0.463544
0.435946
0.434549
0.495819
0.496496
0.463841
0.497116
0.497385
0.490239
0.472336
0.495634
0.497752
0.493776
0.497688
0.365013
0.435722
0.484788
0.436884
0.497313
0.49717
0.479694
0.435555
0.439284
0.435161
0.496809
0.488265
0.49744
0.332694
0.355338
0.436113
0.498595
0.494671
0.364948
0.436627
0.495485
0.496971
0.497144
0.34568
0.345732
0.4666
0.421671
0.497322
0.337168
0.433573
0.49628
0.474571
0.438683
0.34153
0.497032
0.433574
0.335567
0.496541
0.432676
0.493525
0.435117
0.456492
0.497367
0.498319
0.436309
0.43642
0.433079
0.49524
0.497383
0.464471
0.497683
0.494391
0.363973
0.495437
0.438684
0.453951
0.496085
0.340389
0.437727
0.496489
0.43569
0.497495
0.49775
0.48026
0.428947
0.431999
0.439723
0.464023
0.428792
0.464095
0.497237
0.435733
0.495657
0.497116
0.496948
0.494868
0.497152
0.448333
0.497366
0.342687
0.497222
0.337348
0.497073
0.494468
0.493378
0.498007
0.494038
0.440222
0.351793
0.351719
0.437227
0.442175
0.497568
0.330218
0.329359
0.416176
0.414563
0.496069
0.497144
0.496251
0.447068
0.492783
0.497087
0.433708
0.361781
0.496364
0.49715
0.441218
0.497365
0.324109
0.325921
0.498329
0.497839
0.497808
0.362767
0.494644
0.497273
0.495453
0.470129
0.471337
0.49924
0.494293
0.496983
0.344602
0.391783
0.391776
0.434678
0.361782
0.495048
0.495765
0.493576
0.493539
0.495543
0.477963
0.497004
0.432636
0.332091
0.495524
0.495741
0.497593
0.435026
0.495109
0.496879
0.436569
0.406783
0.406759
0.47042
0.494157
0.497274
0.49525
0.441953
0.426537
0.495714
0.413886
0.498045
0.491119
0.494717
0.435272
0.493081
0.454407
0.436399
0.494492
0.497565
0.43592
0.443532
0.43618
0.492856
0.495185
0.489997
0.493601
0.497144
0.497112
0.494917
0.495405
0.495266
0.428236
0.493968
0.496947
0.493707
0.423141
0.497327
0.497699
0.489615
0.496909
0.495084
0.496882
0.372779
0.497631
0.4953
0.494216
0.494472
0.496641
0.432333
0.49796
0.454492
0.441073
0.496177
0.495954
0.495734
0.493757
0.49701
0.494896
0.497459
0.495413
0.4385
0.495517
0.43644
0.433322
0.433781
0.435414
0.497101
0.493267
0.496404
0.434582
0.49466
0.494721
0.494243
0.492229
0.495646
0.494971
0.432901
0.493795
0.490056
0.495416
0.492494
0.433733
0.497373
0.421638
0.497342
0.495763
0.497881
0.478812
0.493315
0.324821
0.325143
0.460549
0.490019
0.493415
0.494745
0.433351
0.43237
0.497662
0.494567
0.497352
0.492113
0.493107
0.49672
0.496438
0.496409
0.49575
0.494713
0.493514
0.49433
0.413086
0.49761
0.401765
0.324311
0.434227
0.434764
0.432868
0.435012
0.413036
0.495047
0.401741
0.494298
0.485355
0.488961
0.493021
0.49399
0.494568
0.438228
0.482352
0.497376
0.496264
0.493504
0.482371
0.4928
0.475436
0.435131
0.496983
0.494056
0.459072
0.497147
0.382147
0.473338
0.496999
0.489268
0.497086
0.493555
0.373522
0.442315
0.497345
0.471112
0.492746
0.494881
0.493513
0.495127
0.493189
0.497024
0.491904
0.325425
0.495937
0.435849
0.435032
0.438182
0.482979
0.492327
0.497278
0.493269
0.494306
0.49378
0.497941
0.493005
0.469156
0.491657
0.492728
0.324073
0.471419
0.493187
0.496875
0.425429
0.49255
0.490478
0.489696
0.435216
0.493518
0.446337
0.438182
0.439525
0.492576
0.494989
0.491583
0.496582
0.49497
0.442567
0.497413
0.442581
0.493765
0.437108
0.498194
0.433356
0.497053
0.493044
0.497432
0.497831
0.49236
0.432737
0.496863
0.434576
0.494039
0.435397
0.439221
0.435922
0.491953
0.431438
0.497208
0.440069
0.488832
0.495068
0.434881
0.492908
0.492513
0.497647
0.496783
0.409815
0.434774
0.428979
0.435021
0.492579
0.495705
0.495658
0.434631
0.493104
0.493814
0.428824
0.428462
0.34453
0.336628
0.491982
0.446039
0.436789
0.330515
0.329398
0.416205
0.491763
0.430682
0.494546
0.492174
0.491339
0.49695
0.491946
0.490413
0.448318
0.454437
0.325375
0.490695
0.433535
0.49095
0.494282
0.434914
0.496115
0.470044
0.438781
0.472265
0.435518
0.434511
0.454224
0.361824
0.450617
0.491635
0.443097
0.430539
0.440109
0.496456
0.448396
0.434446
0.331731
0.4335
0.493952
0.431708
0.450944
0.494138
0.436949
0.493224
0.496768
0.434282
0.426588
0.434536
0.414325
0.490373
0.491587
0.441194
0.494004
0.495963
0.452172
0.434397
0.373114
0.434431
0.432749
0.488961
0.43068
0.43309
0.491514
0.498363
0.493025
0.431748
0.433031
0.430982
0.498831
0.435484
0.431586
0.495223
0.431026
0.491918
0.434112
0.431956
0.477928
0.490999
0.325187
0.324629
0.457012
0.458822
0.491518
0.487817
0.434644
0.431593
0.395604
0.395431
0.458918
0.49745
0.324425
0.495285
0.493545
0.491558
0.495594
0.495103
0.460659
0.434531
0.429455
0.492742
0.430805
0.489308
0.494484
0.433164
0.489508
0.433226