# vtk DataFile Version 1.0
unstructured grid
ascii
DATASET UNSTRUCTURED_GRID
points 8094 float
-0.25 0.0574735 0
0.5 0.0546937 0
0.5 -0.0546937 0
-0.25 -0.0574735 0
-0.25 0.0574735 0.01
0.5 0.0546937 0.01
0.5 -0.0546937 0.01
-0.25 -0.0574735 0.01
-0.246045 0.0569295 0
-0.242089 0.0563854 0
-0.238136 0.0558289 0
-0.234184 0.0552582 0
-0.230232 0.0546875 0
-0.226284 0.0540912 0
-0.222337 0.0534933 0
-0.218391 0.0528841 0
-0.214448 0.0522585 0
-0.210504 0.0516328 0
-0.206565 0.0509829 0
-0.202626 0.0503294 0
-0.198689 0.0496667 0
-0.194755 0.0489856 0
-0.190821 0.0483046 0
-0.18689 0.0476022 0
-0.182961 0.0468942 0
-0.179033 0.0461799 0
-0.175108 0.0454463 0
-0.171183 0.0447127 0
-0.167262 0.0439627 0
-0.163342 0.0432056 0
-0.159422 0.0424455 0
-0.155506 0.041668 0
-0.15159 0.0408904 0
-0.147675 0.0401031 0
-0.143762 0.0393092 0
-0.13985 0.0385149 0
-0.135939 0.0377103 0
-0.132028 0.0369056 0
-0.128117 0.0361005 0
-0.124207 0.0352949 0
-0.120296 0.0344893 0
-0.116386 0.0336836 0
-0.112475 0.032878 0
-0.108563 0.0320794 0
-0.104649 0.0312931 0
-0.100735 0.0305068 0
-0.0968152 0.029745 0
-0.0928949 0.0289889 0
-0.0889722 0.0282446 0
-0.0850433 0.0275341 0
-0.0811144 0.0268235 0
-0.0771778 0.0261578 0
-0.0732381 0.0255098 0
-0.0692962 0.0248759 0
-0.0653442 0.0243073 0
-0.0613923 0.0237386 0
-0.0574324 0.0232306 0
-0.0534681 0.0227556 0
-0.0495024 0.0222934 0
-0.0455272 0.0219207 0
-0.041552 0.0215481 0
-0.0375717 0.0212385 0
-0.0335881 0.0209694 0
-0.029604 0.0207098 0
-0.0256151 0.0205369 0
-0.0216262 0.0203639 0
-0.0176357 0.0202396 0
-0.0136441 0.0201487 0
-0.00965243 0.0200635 0
-0.00565987 0.0200372 0
-0.00166732 0.020011 0
0.00232526 0.0200121 0
0.00631785 0.0200329 0
0.0103104 0.0200563 0
0.0143027 0.0201109 0
0.018295 0.0201654 0
0.022287 0.0202345 0
0.0262788 0.0203144 0
0.0302706 0.0203957 0
0.034262 0.0204956 0
0.0382534 0.0205955 0
0.0422446 0.0207045 0
0.0462355 0.0208207 0
0.0502265 0.0209377 0
0.054217 0.0210676 0
0.0582075 0.0211975 0
0.0621978 0.0213339 0
0.0661879 0.0214757 0
0.0701781 0.021618 0
0.0741678 0.0217703 0
0.0781575 0.0219227 0
0.0821471 0.0220801 0
0.0861364 0.022242 0
0.0901258 0.0224041 0
0.0941148 0.0225747 0
0.0981038 0.0227453 0
0.102093 0.0229202 0
0.106081 0.023099 0
0.11007 0.0232779 0
0.114058 0.0234644 0
0.118046 0.0236509 0
0.122035 0.0238411 0
0.126022 0.024035 0
0.13001 0.0242288 0
0.133998 0.0244298 0
0.137986 0.0246308 0
0.141973 0.0248352 0
0.14596 0.025043 0
0.149947 0.0252509 0
0.153934 0.0254654 0
0.157921 0.02568 0
0.161908 0.0258978 0
0.165894 0.026119 0
0.169881 0.0263402 0
0.173867 0.0265678 0
0.177853 0.0267956 0
0.181839 0.0270264 0
0.185825 0.0272607 0
0.189811 0.0274951 0
0.193796 0.0277356 0
0.197781 0.0279764 0
0.201767 0.02822 0
0.205752 0.0284673 0
0.209737 0.0287146 0
0.213721 0.0289679 0
0.217706 0.0292217 0
0.22169 0.0294782 0
0.225674 0.0297385 0
0.229658 0.0299988 0
0.233642 0.0302651 0
0.237626 0.0305319 0
0.241609 0.0308014 0
0.245593 0.0310748 0
0.249576 0.0313482 0
0.253559 0.0316276 0
0.257542 0.0319077 0
0.261524 0.0321904 0
0.265507 0.0324772 0
0.269489 0.032764 0
0.273471 0.0330568 0
0.277453 0.0333504 0
0.281434 0.0336466 0
0.285416 0.0339471 0
0.289397 0.0342476 0
0.293378 0.034554 0
0.297359 0.0348615 0
0.301339 0.0351714 0
0.305319 0.0354859 0
0.3093 0.0358005 0
0.313279 0.036121 0
0.317259 0.0364427 0
0.321239 0.0367667 0
0.325218 0.0370957 0
0.329197 0.0374248 0
0.333175 0.0377597 0
0.337154 0.0380961 0
0.341132 0.0384347 0
0.34511 0.0387786 0
0.349088 0.0391226 0
0.353065 0.0394724 0
0.357042 0.0398239 0
0.361019 0.0401775 0
0.364995 0.0405368 0
0.368972 0.0408961 0
0.372948 0.0412613 0
0.376924 0.0416285 0
0.380899 0.0419975 0
0.384874 0.0423727 0
0.388849 0.0427479 0
0.392823 0.0431289 0
0.396798 0.0435123 0
0.400772 0.0438973 0
0.404745 0.044289 0
0.408718 0.0446807 0
0.412691 0.0450781 0
0.416664 0.0454782 0
0.420636 0.0458797 0
0.424608 0.0462883 0
0.42858 0.046697 0
0.432551 0.0471114 0
0.436521 0.0475289 0
0.440492 0.0479474 0
0.444462 0.0483738 0
0.448432 0.0488001 0
0.452401 0.0492319 0
0.45637 0.0496673 0
0.460338 0.0501035 0
0.464306 0.0505482 0
0.468274 0.0509928 0
0.472241 0.0514427 0
0.476208 0.0518968 0
0.480175 0.0523512 0
0.48414 0.0528148 0
0.488106 0.0532784 0
0.492071 0.0537471 0
0.496036 0.0542204 0
0.5 0.050787 0
0.5 0.0468803 0
0.5 0.0429736 0
0.5 0.0390669 0
0.5 0.0351602 0
0.5 0.0312535 0
0.5 0.0273468 0
0.5 0.0234402 0
0.5 0.0195335 0
0.5 0.0156268 0
0.5 0.0117201 0
0.5 0.00781339 0
0.5 0.00390669 0
0.5 1.43781e-13 0
0.5 -0.00390669 0
0.5 -0.00781339 0
0.5 -0.0117201 0
0.5 -0.0156268 0
0.5 -0.0195335 0
0.5 -0.0234402 0
0.5 -0.0273468 0
0.5 -0.0312535 0
0.5 -0.0351602 0
0.5 -0.0390669 0
0.5 -0.0429736 0
0.5 -0.0468803 0
0.5 -0.050787 0
0.496036 -0.0542204 0
0.492071 -0.0537471 0
0.488106 -0.0532784 0
0.48414 -0.0528148 0
0.480175 -0.0523512 0
0.476208 -0.0518968 0
0.472241 -0.0514427 0
0.468274 -0.0509928 0
0.464306 -0.0505482 0
0.460338 -0.0501035 0
0.45637 -0.0496673 0
0.452401 -0.0492319 0
0.448432 -0.0488001 0
0.444462 -0.0483738 0
0.440492 -0.0479474 0
0.436521 -0.0475289 0
0.432551 -0.0471114 0
0.42858 -0.046697 0
0.424608 -0.0462883 0
0.420636 -0.0458797 0
0.416664 -0.0454782 0
0.412691 -0.0450781 0
0.408718 -0.0446807 0
0.404745 -0.044289 0
0.400772 -0.0438973 0
0.396798 -0.0435123 0
0.392823 -0.0431289 0
0.388849 -0.0427479 0
0.384874 -0.0423727 0
0.380899 -0.0419975 0
0.376924 -0.0416285 0
0.372948 -0.0412613 0
0.368972 -0.0408961 0
0.364995 -0.0405368 0
0.361019 -0.0401775 0
0.357042 -0.0398239 0
0.353065 -0.0394724 0
0.349088 -0.0391226 0
0.34511 -0.0387786 0
0.341132 -0.0384347 0
0.337154 -0.0380961 0
0.333175 -0.0377597 0
0.329197 -0.0374248 0
0.325218 -0.0370957 0
0.321239 -0.0367667 0
0.317259 -0.0364427 0
0.313279 -0.036121 0
0.3093 -0.0358005 0
0.305319 -0.0354859 0
0.301339 -0.0351714 0
0.297359 -0.0348615 0
0.293378 -0.034554 0
0.289397 -0.0342476 0
0.285416 -0.0339471 0
0.281434 -0.0336466 0
0.277453 -0.0333504 0
0.273471 -0.0330568 0
0.269489 -0.032764 0
0.265507 -0.0324772 0
0.261524 -0.0321904 0
0.257542 -0.0319077 0
0.253559 -0.0316276 0
0.249576 -0.0313482 0
0.245593 -0.0310748 0
0.241609 -0.0308014 0
0.237626 -0.0305319 0
0.233642 -0.0302651 0
0.229658 -0.0299988 0
0.225674 -0.0297385 0
0.22169 -0.0294782 0
0.217706 -0.0292217 0
0.213721 -0.0289679 0
0.209737 -0.0287146 0
0.205752 -0.0284673 0
0.201767 -0.02822 0
0.197781 -0.0279764 0
0.193796 -0.0277356 0
0.189811 -0.0274951 0
0.185825 -0.0272607 0
0.181839 -0.0270264 0
0.177853 -0.0267956 0
0.173867 -0.0265678 0
0.169881 -0.0263402 0
0.165894 -0.026119 0
0.161908 -0.0258978 0
0.157921 -0.02568 0
0.153934 -0.0254654 0
0.149947 -0.0252509 0
0.14596 -0.025043 0
0.141973 -0.0248352 0
0.137986 -0.0246308 0
0.133998 -0.0244298 0
0.13001 -0.0242288 0
0.126022 -0.024035 0
0.122035 -0.0238411 0
0.118046 -0.0236509 0
0.114058 -0.0234644 0
0.11007 -0.0232779 0
0.106081 -0.023099 0
0.102093 -0.0229202 0
0.0981038 -0.0227453 0
0.0941148 -0.0225747 0
0.0901258 -0.0224041 0
0.0861364 -0.022242 0
0.0821471 -0.0220801 0
0.0781575 -0.0219227 0
0.0741678 -0.0217703 0
0.0701781 -0.021618 0
0.0661879 -0.0214757 0
0.0621978 -0.0213339 0
0.0582075 -0.0211975 0
0.054217 -0.0210676 0
0.0502265 -0.0209377 0
0.0462355 -0.0208207 0
0.0422446 -0.0207045 0
0.0382534 -0.0205955 0
0.034262 -0.0204956 0
0.0302706 -0.0203957 0
0.0262788 -0.0203144 0
0.022287 -0.0202345 0
0.018295 -0.0201654 0
0.0143027 -0.0201109 0
0.0103104 -0.0200563 0
0.00631785 -0.0200329 0
0.00232526 -0.0200121 0
-0.00166732 -0.020011 0
-0.00565987 -0.0200372 0
-0.00965243 -0.0200635 0
-0.0136441 -0.0201487 0
-0.0176357 -0.0202396 0
-0.0216262 -0.0203639 0
-0.0256151 -0.0205369 0
-0.029604 -0.0207098 0
-0.0335881 -0.0209694 0
-0.0375717 -0.0212385 0
-0.041552 -0.0215481 0
-0.0455272 -0.0219207 0
-0.0495024 -0.0222934 0
-0.0534681 -0.0227556 0
-0.0574324 -0.0232306 0
-0.0613923 -0.0237386 0
-0.0653442 -0.0243073 0
-0.0692962 -0.0248759 0
-0.0732381 -0.0255098 0
-0.0771778 -0.0261578 0
-0.0811144 -0.0268235 0
-0.0850433 -0.0275341 0
-0.0889722 -0.0282446 0
-0.0928949 -0.0289889 0
-0.0968152 -0.029745 0
-0.100735 -0.0305068 0
-0.104649 -0.0312931 0
-0.108563 -0.0320794 0
-0.112475 -0.032878 0
-0.116386 -0.0336836 0
-0.120296 -0.0344893 0
-0.124207 -0.0352949 0
-0.128117 -0.0361005 0
-0.132028 -0.0369056 0
-0.135939 -0.0377103 0
-0.13985 -0.0385149 0
-0.143762 -0.0393092 0
-0.147675 -0.0401031 0
-0.15159 -0.0408904 0
-0.155506 -0.041668 0
-0.159422 -0.0424455 0
-0.163342 -0.0432056 0
-0.167262 -0.0439627 0
-0.171183 -0.0447127 0
-0.175108 -0.0454463 0
-0.179033 -0.0461799 0
-0.182961 -0.0468942 0
-0.18689 -0.0476022 0
-0.190821 -0.0483046 0
-0.194755 -0.0489856 0
-0.198689 -0.0496667 0
-0.202626 -0.0503294 0
-0.206565 -0.0509829 0
-0.210504 -0.0516328 0
-0.214448 -0.0522585 0
-0.218391 -0.0528841 0
-0.222337 -0.0534933 0
-0.226284 -0.0540912 0
-0.230232 -0.0546875 0
-0.234184 -0.0552582 0
-0.238136 -0.0558289 0
-0.242089 -0.0563854 0
-0.246045 -0.0569295 0
-0.25 -0.0535098 0
-0.25 -0.0495461 0
-0.25 -0.0455824 0
-0.25 -0.0416187 0
-0.25 -0.0376551 0
-0.25 -0.0336914 0
-0.25 -0.0297277 0
-0.25 -0.025764 0
-0.25 -0.0218003 0
-0.25 -0.0178366 0
-0.25 -0.0138729 0
-0.25 -0.00990922 0
-0.25 -0.00594553 0
-0.25 -0.00198184 0
-0.25 0.00198184 0
-0.25 0.00594553 0
-0.25 0.00990922 0
-0.25 0.0138729 0
-0.25 0.0178366 0
-0.25 0.0218003 0
-0.25 0.025764 0
-0.25 0.0297277 0
-0.25 0.0336914 0
-0.25 0.0376551 0
-0.25 0.0416187 0
-0.25 0.0455824 0
-0.25 0.0495461 0
-0.25 0.0535098 0
-0.246045 0.0569295 0.01
-0.242089 0.0563854 0.01
-0.238136 0.0558289 0.01
-0.234184 0.0552582 0.01
-0.230232 0.0546875 0.01
-0.226284 0.0540912 0.01
-0.222337 0.0534933 0.01
-0.218391 0.0528841 0.01
-0.214448 0.0522585 0.01
-0.210504 0.0516328 0.01
-0.206565 0.0509829 0.01
-0.202626 0.0503294 0.01
-0.198689 0.0496667 0.01
-0.194755 0.0489856 0.01
-0.190821 0.0483046 0.01
-0.18689 0.0476022 0.01
-0.182961 0.0468942 0.01
-0.179033 0.0461799 0.01
-0.175108 0.0454463 0.01
-0.171183 0.0447127 0.01
-0.167262 0.0439627 0.01
[...]
CELL_DATA 7657
SCALARS rho float
LOOKUP_TABLE default
0.481997
0.388996
0.399266
0.347823
0.497076
0.360908
0.335703
0.464944
0.364856
0.500276
0.500337
0.459608
0.347935
0.463143
0.496483
0.492014
0.496433
0.410406
0.410001
0.48156
0.495841
0.411865
0.382047
0.410005
0.426025
0.444144
0.34361
0.351778
0.497527
0.361785
0.334768
0.426054
0.3796
0.480177
0.480589
0.334685
0.361856
0.38146
0.484901
0.337601
0.39833
0.364104
0.352559
0.357311
0.397971
0.400427
0.336106
0.360511
0.426378
0.481643
0.356431
0.347975
0.497443
0.498258
0.335427
0.363877
0.496075
0.494487
0.459166
0.335009
0.42709
0.396709
0.428784
0.429337
0.50094
0.500954
0.347783
0.367567
0.49966
0.455424
0.400694
0.349015
0.350988
0.4975
0.479013
0.359557
0.411882
0.359062
0.478529
0.349915
0.378914
0.470804
0.483677
0.398814
0.400355
0.463623
0.400044
0.454512
0.445158
0.343351
0.500809
0.500848
0.460689
0.499056
0.336729
0.466005
0.46486
0.38493
0.397044
0.336656
0.411049
0.420929
0.387707
0.495493
0.336355
0.371395
0.335496
0.369513
0.351081
0.495476
0.334771
0.368738
0.35472
0.484164
0.404419
0.444734
0.370773
0.337484
0.491443
0.360844
0.501564
0.501548
0.335535
0.385035
0.482163
0.461546
0.457865
0.35257
0.36592
0.352918
0.346996
0.415006
0.364375
0.350884
0.480135
0.335217
0.492301
0.379734
0.415767
0.416327
0.335613
0.342781
0.338137
0.336884
0.409367
0.495777
0.377258
0.389993
0.396073
0.335488
0.338248
0.499771
0.405309
0.352956
0.495846
0.388319
0.367606
0.413151
0.479919
0.335377
0.41376
0.494296
0.442877
0.44347
0.392694
0.387506
0.484941
0.354638
0.403908
0.49182
0.398019
0.372886
0.414573
0.338311
0.334905
0.334681
0.350121
0.466013
0.480707
0.338163
0.336928
0.350853
0.418513
0.418688
0.346339
0.457549
0.35833
0.350385
0.451997
0.465967
0.497454
0.499225
0.479971
0.470471
0.450578
0.365418
0.481066
0.494008
0.334859
0.402623
0.409902
0.420089
0.467316
0.452347
0.343877
0.498336
0.352766
0.336583
0.478174
0.469995
0.385373
0.396034
0.392311
0.479741
0.397461
0.350335
0.334945
0.462368
0.368938
0.402404
0.389268
0.390243
0.500033
0.368285
0.354234
0.380313
0.354048
0.340164
0.359033
0.500067
0.390127
0.390314
0.350216
0.495754
0.490648
0.481419
0.4541
0.421123
0.421321
0.493778
0.384704
0.339579
0.467469
0.379404
0.477321
0.472567
0.35849
0.471741
0.359972
0.358116
0.334643
0.34964
0.370135
0.479206
0.334894
0.350157
0.391019
0.49704
0.498154
0.368454
0.384357
0.498036
0.491076
0.403963
0.335146
0.399973
0.450336
0.339614
0.409821
0.338865
0.344136
0.342865
0.342812
0.485832
0.476735
0.40437
0.35387
0.368732
0.368073
0.455338
0.385418
0.434417
0.340953
0.336182
0.349843
0.33473
0.336108
0.34678
0.409405
0.406965
0.404992
0.350798
0.341139
0.497964
0.36979
0.344347
0.485216
0.472117
0.444547
0.405437
0.464906
0.498783
0.338829
0.356553
0.343873
0.46216
0.335209
0.351103
0.408468
0.369471
0.456532
0.448581
0.493577
0.359844
0.42583
0.493417
0.497926
0.497069
0.368981
0.434947
0.353657
0.381651
0.497882
0.455915
0.491805
0.497649
0.35725
0.40281
0.494854
0.406489
0.371465
0.497845
0.491045
0.393095
0.468909
0.420256
0.369728
0.340171
0.425171
0.497418
0.449113
0.334767
0.394574
0.491107
0.482481
0.334867
0.49742
0.392535
0.401559
0.494894
0.361748
0.413272
0.479979
0.413767
0.335372
0.424283
0.41527
0.336767
0.424777
0.336191
0.374599
0.411271
0.401769
0.446436
0.496182
0.334786
0.447906
0.337158
0.460803
0.463711
0.362736
0.435438
0.484254
0.484104
0.351869
0.349088
0.413966
0.419673
0.407189
0.490311
0.393617
0.408896
0.342458
0.428988
0.497736
0.499754
0.481284
0.460326
0.446452
0.494498
0.374989
0.370087
0.369408
0.485044
0.441651
0.456142
0.33498
0.373077
0.494422
0.36175
0.481637
0.484148
0.408753
0.498724
0.337322
0.4352
0.492468
0.343196
0.494666
0.496468
0.41463
0.362917
0.429355
0.347389
0.467507
0.483276
0.397259
0.470588
0.347622
0.385316
0.381791
0.46894
0.337837
0.400759
0.389372
0.405171
0.465168
0.4791
0.352157
0.420969
0.442386
0.335023
0.396461
0.481527
0.435527
0.489952
0.498764
0.41594
0.49124
0.409553
0.360856
0.488852
0.334993
0.497683
0.455123
0.393814
0.384715
0.336869
0.496379
0.443224
0.425825
0.424568
0.376311
0.335898
0.355693
0.465947
0.335816
0.492561
0.491355
0.468189
0.480954
0.367048
0.406996
0.464235
0.40257
0.476842
0.369421
0.374722
0.335476
0.335142
0.497663
0.377067
0.432436
0.482646
0.495565
0.419466
0.435928
0.360028
0.336248
0.497421
0.447128
0.49756
0.41337
0.414609
0.394521
0.368228
0.340197
0.334733
0.499607
0.430558
0.494071
0.427177
0.46244
0.469417
0.458527
0.340233
0.347902
0.358339
0.480605
0.48192
0.467891
0.46595
0.440097
0.477279
0.454371
0.457705
0.396943
0.351457
0.445953
0.490134
0.340359
0.434366
0.418713
0.493999
0.410599
0.472422
0.487899
0.412762
0.486001
0.383711
0.492378
0.482464
0.464023
0.346258
0.453684
0.469688
0.498541
0.399255
0.498858
0.42826
0.372773
0.490589
0.464154
0.432087
0.39669
0.419253
0.397852
0.467671
0.334582
0.408192
0.393599
0.41944
0.438966
0.457939
0.43645
0.477665
0.417911
0.351778
0.362897
0.417263
0.490816
0.347601
0.43054
0.442127
0.486515
0.48954
0.336662
0.449018
0.37365
0.480741
0.490328
0.357064
0.475182
0.342218
0.416624
0.488649
0.499268
0.478618
0.334863
0.477623
0.465787
0.357981
0.413374
0.384606
0.461541
0.338246
0.460956
0.489573
0.452661
0.461016
0.357006
0.414603
0.462769
0.367797
0.416535
0.428554
0.431047
0.444498
0.499636
0.34147
0.449493
0.46474
0.336801
0.438622
0.459843
0.367782
0.33464
0.358307
0.394435
0.456836
0.468403
0.495342
0.36879
0.448374
0.462249
0.4667
0.443134
0.470779
0.370531
0.495777
0.444331
0.455194
0.458952
0.488762
0.395249
0.490662
0.487106
0.438075
0.435172
0.465727
0.334872
0.498107
0.498028
0.474172
0.469524
0.43026
0.387228
0.443447
0.446259
0.363087
0.410607
0.367019
0.498058
0.430667
0.352922
0.470523
0.433615
0.427946
0.497772
0.410572
0.497774
0.419268
0.423932
0.340634
0.346018
0.475619
0.426622
0.431287
0.413851
0.457895
0.488954
0.43172
0.400188
0.47208
0.48709
0.453118
0.341988
0.418589
0.428569
0.428018
0.336073
0.432354
0.491257
0.437611
0.428389
0.414658
0.435806
0.45974
0.432802
0.407892
0.473845
0.463009
0.42703
0.491347
0.348833
0.406505
0.401889
0.403459
0.482811
0.433415
0.394421
0.429142
0.41078
0.454322
0.462716
0.433914
0.372999
0.347791
0.364808
0.334979
0.473979
0.459081
0.451165
0.429711
0.417241
0.450404
0.483002
0.355967
0.496731
0.496435
0.337721
0.415898
0.356556
0.374498
0.336483
0.354116
0.434569
0.359709
0.435107
0.47266
0.471529
0.349259
0.458637
0.497988
0.412469
0.340647
0.491126
0.498499
0.468586
0.43004
0.353742
0.40873
0.469771
0.471586
0.497449
0.430302
0.440579
0.497882
0.334708
0.459873
0.426794
0.496928
0.353389
0.419843
0.449039
0.440037
0.374133
0.428999
0.470965
0.427991
0.429579
0.399702
0.496862
0.458404
0.334682
0.469189
0.374611
0.369255
0.33563
0.440869
0.498624
0.340804
0.430501
0.487598
0.499614
0.496281
0.497231
0.337132
0.497648
0.497711
0.39491
0.497336
0.480054
0.426785
0.42896
0.464992
0.370574
0.369555
0.429069
0.45349
0.413312
0.412756
0.489884
0.366738
0.497184
0.450431
0.489514
0.496083
0.497076
0.386512
0.353784
0.428997
0.33723
0.469039
0.336744
0.487583
0.497037
0.351604
0.461628
0.418656
0.437025
0.336769
0.451005
0.430839
0.396769
0.490725
0.467253
0.456545
0.413574
0.424994
0.496579
0.335103
0.342119
0.44936
0.418911
0.459683
0.459676
0.355984
0.496738
0.467152
0.470016
0.353062
0.342886
0.355165
0.337923
0.496428
0.485621
0.354619
0.470889
0.494893
0.485786
0.382128
0.480102
0.478604
0.336382
0.465834
0.448383
0.336803
0.441573
0.340342
0.474502
0.445427
0.33725
0.440865
0.478385
0.334754
0.489081
0.486524
0.496004
0.4274
0.479968
0.437646
0.426202
0.499104
0.49793
0.495835
0.401665
0.454968
0.465975
0.352876
0.496155
0.498066
0.335066
0.36818
0.336169
0.432538
0.441339
0.49787
0.441558
0.494599
0.496105
0.474593
0.49436
0.496292
0.353233
0.431427
0.472871
0.335434
0.495617
0.336809
0.367789
0.497943
0.343635
0.443954
0.495859
0.336752
0.335803
0.496706
0.495991
0.463527
0.496487
0.453653
0.451788
0.449363
0.363543
0.359893
0.366606
0.462252
0.463694
0.496519
0.349979
0.431953
0.35555
0.496049
0.496274
0.495811
0.49624
0.436968
0.495376
0.468424
0.495135
0.495575
0.492095
0.478098
0.49241
0.339812
0.43311
0.34056
0.468614
0.335028
0.356581
0.337975
0.335341
0.448771
0.448872
0.497493
0.455595
0.495338
0.453927
0.375195
0.464848
0.485267
0.450811
0.497574
0.443731
0.452875
0.336524
0.495103
0.449203
0.449096
0.347273
0.491615
0.447605
0.445083
0.340871
0.457989
0.457974
0.469334
0.354654
0.355593
0.342643
0.336675
0.497873
0.487716
0.465308
0.414001
0.336214
0.337725
0.483949
0.452089
0.396546
0.340093
0.349778
0.349829
0.351819
0.447709
0.334704
0.403329
0.460831
0.334429
0.427407
0.493925
0.447414
0.468869
0.368009
0.357221
0.479746
0.337923
0.470378
0.443974
0.430282
0.481438
0.483507
0.430331
0.486336
0.474399
0.342442
0.432029
0.463537
0.358217
0.33416
0.476445
0.494729
0.447963
0.446623
0.430874
0.431409
0.47693
0.439332
0.421396
0.341203
0.336568
0.494763
0.334467
0.4781
0.464244
0.497595
0.49824
0.423237
0.417628
0.484833
0.454294
0.487053
0.430091
0.494184
0.444207
0.429535
0.483012
0.336673
0.478472
0.496484
0.443095
0.429552
0.344325
0.497328
0.458949
0.45532
0.346852
0.346686
0.372769
0.447221
0.493645
0.479693
0.394685
0.403418
0.33404
0.339822
0.410927
0.441835
0.494051
0.33477
0.434328
0.33613
0.334786
0.476443
0.4974
0.433766
0.497632
0.402947
0.402968
0.393577
0.497422
0.410458
0.487815
0.445144
0.410494
0.344456
0.394714
0.481245
0.391136
0.49755
0.342573
0.357684
0.496057
0.497969
0.467814
0.494227
0.495975
0.493593
0.47218
0.335544
0.342453
0.412117
0.497379
0.356151
0.46175
0.366301
0.482781
0.466963
0.355029
0.422006
0.483794
0.419077
0.47824
0.445912
0.495829
0.461599
0.449109
0.429259
0.497372
0.43372
0.481364
0.358895
0.428799
0.334154
0.439764
0.469406
0.341895
0.496659
0.472929
0.475334
0.445994
0.359473
0.483558
0.336222
0.335846
0.335418
0.484442
0.445324
0.43407
0.437346
0.336179
0.493304
0.455005
0.439143
0.334247
0.336815
0.463481
0.490292
0.497267
0.442041
0.458646
0.340846
0.444912
0.366259
0.341671
0.469339
0.43565
0.385593
0.482913
0.338129
0.466019
0.497998
0.478976
0.44585
0.47977
0.485233
0.491961
0.481468
0.497554
0.492915
0.342215
0.395777
0.396544
0.492959
0.495166
0.43877
0.382525
0.458032
0.492609
0.460486
0.33428
0.491326
0.482209
0.445391
0.336233
0.33433
0.446396
0.334529
0.357082
0.335683
0.350598
0.350463
0.35773
0.356619
0.434982
0.334568
0.497315
0.43367
0.49824
0.47489
0.334744
0.452353
0.473564
0.456311
0.335366
0.477453
0.49662
0.45637
0.455316
0.473072
0.479899
0.334089
0.334768
0.450518
0.450559
0.479418
0.496699
0.334187
0.451654
0.497212
0.482452
0.482101
0.417934
0.410717
0.498018
0.467654
0.349156
0.335512
0.471598
0.334343
0.449654
0.335409
0.373486
0.47517
0.433038
0.459843
0.47033
0.421987
0.421753
0.340863
0.497794
0.34196
0.498121
0.447238
0.482265
0.494651
0.481428
0.49257
0.412172
0.338161
0.333723
0.494764
0.36019
0.494982
0.46546
0.467922
0.340714
0.497613
0.494101
0.359047
0.471736
0.334774
0.33637
0.435537
0.494559
0.335131
0.367186
0.343814
0.334649
0.48049
0.431912
0.48199
0.478873
0.4331
0.421016
0.421266
0.342752
0.431971
0.47651
0.48096
0.334913
0.419907
0.451549
0.363879
0.334267
0.459895
0.430871
0.456353
0.474504
0.473264
0.479137
0.429727
0.498092
0.429704
0.385504
0.409751
0.441101
0.437106
0.433839
0.334561
0.456395
0.407396
0.407423
0.49279
0.46995
0.44
0.498795
0.466271
0.416391
0.457037
0.437761
0.492254
0.351683
0.440312
0.351846
0.493256
0.408539
0.334555
0.484581
0.395335
0.395349
0.476513
0.472605
0.367959
0.482872
0.467244
0.497265
0.379522
0.37952
0.345172
0.478815
0.433225
0.470171
0.362201
0.478232
0.467251
0.435878
0.440092
0.475672
0.473949
0.475172
0.365383
0.475036
0.456091
0.477399
0.354607
0.354009
0.354073
0.419934
0.451446
0.471478
0.47346
0.479646
0.421297
0.345416
0.421054
0.41837
0.475093
0.342265
0.456615
0.366993
0.473957
0.384708
0.384638
0.44124
0.494575
0.461774
0.334814
0.497406
0.478035
0.336868
0.399181
0.497985
0.49413
0.410691
0.334488
0.346108
0.348906
0.39886
0.439164
0.468082
0.423875
0.416997
0.407735
0.477162
0.423637
0.405267
0.407417
0.412885
0.473343
0.420097
0.461615
0.339604
0.408572
0.495378
0.494353
0.43756
0.454624
0.413826
0.453094
0.471266
0.456954
0.341126
0.407445
0.46918
0.469829
0.463512
0.473388
0.472118
0.458189
0.340679
0.381282
0.381251
0.465453
0.453614
0.468384
0.494473
0.335433
0.455207
0.429745
0.474837
0.432137
0.349647
0.494588
0.444011
0.335125
0.490888
0.471352
0.338599
0.468532
0.352501
0.405236
0.334367
0.334392
0.352428
0.352494
0.428392
0.45004
0.497511
0.497522
0.351739
0.466429
0.481227
0.362243
0.395989
0.434487
0.334401
0.453068
0.45703
0.482093
0.336214
0.342181
0.36082
0.476747
0.471494
0.468899
0.474996
0.498862
0.438336
0.439887
0.441674
0.465582
0.436986
0.47034
0.454779
0.384657
0.494867
0.466358
0.498037
0.459415
0.457941
0.475291
0.450014
0.392528
0.447754
0.442211
0.417015
0.464311
0.447084
0.439224
0.498523
0.447669
0.425434
0.493101
0.413979
0.41822
0.498062
0.450894
0.477912
0.494416
0.336181
0.464072
0.491895
0.451643
0.497298
0.447213
0.453298
0.335054
0.497493
0.491533
0.492739
0.375917
0.375907
0.43827
0.334946
0.498672
0.459809
0.499278
0.373145
0.459878
0.446076
0.340263
0.36704
0.49222
0.38881
0.339485
0.499194
0.33886
0.499922
0.499888
0.499126
0.338296
0.43362
0.498914
0.456743
0.497719
0.495823
0.457714
0.476372
0.478015
0.342786
0.334983
0.498634
0.359427
0.442882
0.335298
0.343514
0.343147
0.446481
0.474441
0.338583
0.346838
0.490983
0.498898
0.467539
0.467733
0.440901
0.350329
0.499618
0.499591
0.494383
0.462756
0.49424
0.46217
0.344394
0.429121
0.429153
0.437538
0.497532
0.461748
0.498004
0.498534
0.463796
0.338806
0.478111
0.476772
0.335383
0.334279
0.333875
0.363799
0.442855
0.494049
0.474509
0.444215
0.441842
0.446872
0.436226
0.444743
0.499055
0.419703
0.498579
0.337521
0.468851
0.437649
0.351169
0.351222
0.493796
0.427572
0.495951
0.448719
0.448627
0.440001
0.421915
0.421666
0.449637
0.447575
0.468456
0.497305
0.354057
0.446646
0.437919
0.448188
0.354502
0.354448
0.469549
0.45803
0.439103
0.474678
0.445773
0.496886
0.47144
0.361345
0.497259
0.356006
0.355939
0.452513
0.431337
0.461105
0.436481
0.378536
0.378573
0.367819
0.385531
0.385458
0.334458
0.433618
0.498343
0.362338
0.436376
0.450112
0.484053
0.435796
0.394587
0.394593
0.406799
0.406773
0.423907
0.451592
0.399803
0.419207
0.418323
0.497221
0.435346
0.411314
0.490035
0.440776
0.387967
0.387962
0.423644
0.440786
0.424493
0.401699
0.401665
0.447262
0.436623
0.416304
0.481635
0.424305
0.336338
0.45199
0.451314
0.498347
0.442703
0.412649
0.436355
0.498975
0.49894
0.498682
0.480653
0.49679
0.495155
0.409099
0.498453
0.385219
0.491867
0.495667
0.498476
0.442826
0.464401
0.464648
0.379485
0.475953
0.483122
0.49783
0.33532
0.335024
0.436917
0.470838
0.40453
0.491274
0.433658
0.439176
0.493697
0.494254
0.482448
0.497215
0.497156
0.47773
0.49359
0.334653
0.3351
0.495827
0.40172
0.362337
0.470146
0.338047
0.498432
0.49845
0.467107
0.497616
0.497814
0.490733
0.447588
0.335833
0.429197
0.497353
0.464921
0.48609
0.497724
0.438482
0.497761
0.334372
0.442839
0.335066
0.417373
0.435683
0.498275
0.335275
0.335296
0.463849
0.391745
0.493444
0.497283
0.491023
0.441881
0.337427
0.434812
0.495491
0.469714
0.49786
0.497043
0.496817
0.444064
0.387994
0.448668
0.497244
0.43841
0.497747
0.446663
0.485508
0.495623
0.45594
0.491243
0.382117
0.382048
0.496568
0.49574
0.49715
0.497088
0.490492
0.497414
0.497477
0.47735
0.46039
0.426176
0.497288
0.497687
0.462961
0.435897
0.445651
0.414442
0.444404
0.494775
0.374939
0.374962
0.498173
0.498543
0.338988
0.498506
0.496406
0.476175
0.437118
0.432545
0.496057
0.496666
0.475847
0.49724
0.497422
0.490782
0.473361
0.495874
0.497774
0.494151
0.497774
0.365385
0.436265
0.485521
0.439548
0.497378
0.497237
0.480555
0.435724
0.444577
0.434317
0.496954
0.488885
0.497467
0.342223
0.358706
0.437566
0.49865
0.494984
0.365321
0.438871
0.495744
0.497089
0.497235
0.352733
0.352774
0.478356
0.413185
0.497417
0.346328
0.428807
0.496468
0.47555
0.443564
0.349953
0.497135
0.428859
0.344847
0.496713
0.426611
0.493911
0.434156
0.468994
0.497405
0.498335
0.438097
0.438365
0.42759
0.495511
0.497405
0.47704
0.497756
0.494727
0.364633
0.495692
0.443381
0.46563
0.496295
0.349053
0.441474
0.496658
0.436378
0.497538
0.497778
0.481112
0.420637
0.425259
0.445591
0.476524
0.420388
0.476341
0.4973
0.4363
0.495895
0.497195
0.497109
0.495167
0.497256
0.458584
0.497414
0.349076
0.497359
0.344418
0.49716
0.494794
0.49377
0.49807
0.494391
0.446251
0.356515
0.356465
0.440387
0.449901
0.497599
0.340054
0.339317
0.409177
0.408031
0.496279
0.497218
0.496448
0.45688
0.493208
0.497176
0.429236
0.363067
0.496546
0.497297
0.448017
0.497383
0.334575
0.335438
0.498339
0.497959
0.497932
0.363742
0.494962
0.497368
0.495707
0.471197
0.472381
0.499262
0.49463
0.497082
0.3521
0.38875
0.388748
0.43243
0.363067
0.495334
0.496011
0.493957
0.493929
0.495799
0.478868
0.497098
0.426954
0.341695
0.49579
0.495973
0.497624
0.433814
0.495399
0.49701
0.438745
0.402302
0.402256
0.471483
0.494502
0.497325
0.49552
0.449276
0.417691
0.495967
0.41613
0.498127
0.491624
0.495033
0.434727
0.49349
0.46665
0.438223
0.494826
0.497607
0.436956
0.452013
0.437734
0.493282
0.495468
0.490549
0.493982
0.497312
0.497286
0.495223
0.495665
0.49554
0.419678
0.494325
0.497064
0.494079
0.41441
0.497379
0.497811
0.490183
0.49707
0.495366
0.49703
0.376623
0.497676
0.495566
0.494561
0.494806
0.496806
0.425912
0.49806
0.466645
0.448001
0.496376
0.49617
0.495967
0.494131
0.497112
0.495203
0.497514
0.495685
0.443156
0.495766
0.438398
0.428182
0.429426
0.435244
0.497216
0.493668
0.496586
0.432606
0.494973
0.495042
0.494583
0.492683
0.495903
0.495272
0.427132
0.494163
0.490606
0.495683
0.492935
0.429283
0.497394
0.413149
0.497379
0.495999
0.497958
0.479698
0.49371
0.335365
0.335692
0.473015
0.490572
0.493808
0.495065
0.428234
0.425974
0.497679
0.494898
0.497459
0.492572
0.493516
0.496874
0.496657
0.496634
0.495986
0.495023
0.493902
0.494669
0.407062
0.497702
0.398125
0.334567
0.431435
0.433202
0.427074
0.433742
0.407038
0.495341
0.398112
0.494641
0.486071
0.489559
0.493435
0.49435
0.494896
0.442482
0.483152
0.497393
0.496477
0.493889
0.48317
0.493224
0.476396
0.434215
0.49708
0.494408
0.471244
0.497223
0.385523
0.48449
0.497133
0.48985
0.497193
0.493945
0.377297
0.449994
0.497383
0.47216
0.493175
0.495178
0.49391
0.495413
0.493591
0.497116
0.492373
0.335162
0.496161
0.43682
0.434247
0.442509
0.483762
0.492775
0.497339
0.49367
0.494654
0.494154
0.498017
0.493421
0.470243
0.492137
0.493156
0.334469
0.472462
0.493596
0.497031
0.416649
0.492987
0.491011
0.490261
0.434848
0.493907
0.45635
0.439864
0.445134
0.493011
0.495281
0.492067
0.49677
0.495277
0.44416
0.497459
0.450552
0.494139
0.440061
0.498245
0.428564
0.497173
0.493456
0.497543
0.497857
0.492806
0.434539
0.497034
0.432148
0.494401
0.435178
0.444621
0.436875
0.492419
0.4242
0.49733
0.441715
0.48943
0.49536
0.433252
0.493329
0.492953
0.497687
0.496957
0.412158
0.432806
0.420671
0.434209
0.493016
0.495975
0.495937
0.432533
0.493511
0.49419
0.420423
0.430352
0.350739
0.343864
0.492447
0.447567
0.439196
0.340312
0.339359
0.409207
0.492239
0.432528
0.494881
0.492631
0.491836
0.497079
0.492414
0.490949
0.4498
0.466129
0.335011
0.49123
0.429051
0.491463
0.49463
0.433357
0.496341
0.471113
0.443654
0.47329
0.437258
0.432063
0.455594
0.363105
0.452054
0.492118
0.451468
0.422742
0.446322
0.496656
0.449877
0.432045
0.341383
0.428674
0.494314
0.424699
0.462304
0.494493
0.439691
0.493624
0.496897
0.430958
0.417746
0.431887
0.416566
0.490922
0.492072
0.448277
0.494361
0.496174
0.453581
0.431394
0.376951
0.432055
0.426923
0.489554
0.432525
0.427845
0.492001
0.498403
0.493443
0.424763
0.427561
0.423442
0.498863
0.437224
0.424449
0.495498
0.423508
0.492387
0.430399
0.425194
0.478834
0.49151
0.335738
0.335168
0.458331
0.460107
0.492005
0.488451
0.432321
0.424528
0.398362
0.398196
0.460201
0.497574
0.334627
0.495567
0.493927
0.492043
0.495858
0.495383
0.461909
0.432078
0.421187
0.493171
0.423193
0.489887
0.494808
0.427791
0.490079
0.427979
0.431622