# vtk DataFile Version 1.0
unstructured grid
ascii
DATASET UNSTRUCTURED_GRID
points 8094 float
-0.25 0.0574735 0
0.5 0.0546937 0
0.5 -0.0546937 0
-0.25 -0.0574735 0
-0.25 0.0574735 0.01
0.5 0.0546937 0.01
0.5 -0.0546937 0.01
-0.25 -0.0574735 0.01
-0.246045 0.0569295 0
-0.242089 0.0563854 0
-0.238136 0.0558289 0
-0.234184 0.0552582 0
-0.230232 0.0546875 0
-0.226284 0.0540912 0
-0.222337 0.0534933 0
-0.218391 0.0528841 0
-0.214448 0.0522585 0
-0.210504 0.0516328 0
-0.206565 0.0509829 0
-0.202626 0.0503294 0
-0.198689 0.0496667 0
-0.194755 0.0489856 0
-0.190821 0.0483046 0
-0.18689 0.0476022 0
-0.182961 0.0468942 0
-0.179033 0.0461799 0
-0.175108 0.0454463 0
-0.171183 0.0447127 0
-0.167262 0.0439627 0
-0.163342 0.0432056 0
-0.159422 0.0424455 0
-0.155506 0.041668 0
-0.15159 0.0408904 0
-0.147675 0.0401031 0
-0.143762 0.0393092 0
-0.13985 0.0385149 0
-0.135939 0.0377103 0
-0.132028 0.0369056 0
-0.128117 0.0361005 0
-0.124207 0.0352949 0
-0.120296 0.0344893 0
-0.116386 0.0336836 0
-0.112475 0.032878 0
-0.108563 0.0320794 0
-0.104649 0.0312931 0
-0.100735 0.0305068 0
-0.0968152 0.029745 0
-0.0928949 0.0289889 0
-0.0889722 0.0282446 0
-0.0850433 0.0275341 0
-0.0811144 0.0268235 0
-0.0771778 0.0261578 0
-0.0732381 0.0255098 0
-0.0692962 0.0248759 0
-0.0653442 0.0243073 0
-0.0613923 0.0237386 0
-0.0574324 0.0232306 0
-0.0534681 0.0227556 0
-0.0495024 0.0222934 0
-0.0455272 0.0219207 0
-0.041552 0.0215481 0
-0.0375717 0.0212385 0
-0.0335881 0.0209694 0
-0.029604 0.0207098 0
-0.0256151 0.0205369 0
-0.0216262 0.0203639 0
-0.0176357 0.0202396 0
-0.0136441 0.0201487 0
-0.00965243 0.0200635 0
-0.00565987 0.0200372 0
-0.00166732 0.020011 0
0.00232526 0.0200121 0
0.00631785 0.0200329 0
0.0103104 0.0200563 0
0.0143027 0.0201109 0
0.018295 0.0201654 0
0.022287 0.0202345 0
0.0262788 0.0203144 0
0.0302706 0.0203957 0
0.034262 0.0204956 0
0.0382534 0.0205955 0
0.0422446 0.0207045 0
0.0462355 0.0208207 0
0.0502265 0.0209377 0
0.054217 0.0210676 0
0.0582075 0.0211975 0
0.0621978 0.0213339 0
0.0661879 0.0214757 0
0.0701781 0.021618 0
0.0741678 0.0217703 0
0.0781575 0.0219227 0
0.0821471 0.0220801 0
0.0861364 0.022242 0
0.0901258 0.0224041 0
0.0941148 0.0225747 0
0.0981038 0.0227453 0
0.102093 0.0229202 0
0.106081 0.023099 0
0.11007 0.0232779 0
0.114058 0.0234644 0
0.118046 0.0236509 0
0.122035 0.0238411 0
0.126022 0.024035 0
0.13001 0.0242288 0
0.133998 0.0244298 0
0.137986 0.0246308 0
0.141973 0.0248352 0
0.14596 0.025043 0
0.149947 0.0252509 0
0.153934 0.0254654 0
0.157921 0.02568 0
0.161908 0.0258978 0
0.165894 0.026119 0
0.169881 0.0263402 0
0.173867 0.0265678 0
0.177853 0.0267956 0
0.181839 0.0270264 0
0.185825 0.0272607 0
0.189811 0.0274951 0
0.193796 0.0277356 0
0.197781 0.0279764 0
0.201767 0.02822 0
0.205752 0.0284673 0
0.209737 0.0287146 0
0.213721 0.0289679 0
0.217706 0.0292217 0
0.22169 0.0294782 0
0.225674 0.0297385 0
0.229658 0.0299988 0
0.233642 0.0302651 0
0.237626 0.0305319 0
0.241609 0.0308014 0
0.245593 0.0310748 0
0.249576 0.0313482 0
0.253559 0.0316276 0
0.257542 0.0319077 0
0.261524 0.0321904 0
0.265507 0.0324772 0
0.269489 0.032764 0
0.273471 0.0330568 0
0.277453 0.0333504 0
0.281434 0.0336466 0
0.285416 0.0339471 0
0.289397 0.0342476 0
0.293378 0.034554 0
0.297359 0.0348615 0
0.301339 0.0351714 0
0.305319 0.0354859 0
0.3093 0.0358005 0
0.313279 0.036121 0
0.317259 0.0364427 0
0.321239 0.0367667 0
0.325218 0.0370957 0
0.329197 0.0374248 0
0.333175 0.0377597 0
0.337154 0.0380961 0
0.341132 0.0384347 0
0.34511 0.0387786 0
0.349088 0.0391226 0
0.353065 0.0394724 0
0.357042 0.0398239 0
0.361019 0.0401775 0
0.364995 0.0405368 0
0.368972 0.0408961 0
0.372948 0.0412613 0
0.376924 0.0416285 0
0.380899 0.0419975 0
0.384874 0.0423727 0
0.388849 0.0427479 0
0.392823 0.0431289 0
0.396798 0.0435123 0
0.400772 0.0438973 0
0.404745 0.044289 0
0.408718 0.0446807 0
0.412691 0.0450781 0
0.416664 0.0454782 0
0.420636 0.0458797 0
0.424608 0.0462883 0
0.42858 0.046697 0
0.432551 0.0471114 0
0.436521 0.0475289 0
0.440492 0.0479474 0
0.444462 0.0483738 0
0.448432 0.0488001 0
0.452401 0.0492319 0
0.45637 0.0496673 0
0.460338 0.0501035 0
0.464306 0.0505482 0
0.468274 0.0509928 0
0.472241 0.0514427 0
0.476208 0.0518968 0
0.480175 0.0523512 0
0.48414 0.0528148 0
0.488106 0.0532784 0
0.492071 0.0537471 0
0.496036 0.0542204 0
0.5 0.050787 0
0.5 0.0468803 0
0.5 0.0429736 0
0.5 0.0390669 0
0.5 0.0351602 0
0.5 0.0312535 0
0.5 0.0273468 0
0.5 0.0234402 0
0.5 0.0195335 0
0.5 0.0156268 0
0.5 0.0117201 0
0.5 0.00781339 0
0.5 0.00390669 0
0.5 1.43781e-13 0
0.5 -0.00390669 0
0.5 -0.00781339 0
0.5 -0.0117201 0
0.5 -0.0156268 0
0.5 -0.0195335 0
0.5 -0.0234402 0
0.5 -0.0273468 0
0.5 -0.0312535 0
0.5 -0.0351602 0
0.5 -0.0390669 0
0.5 -0.0429736 0
0.5 -0.0468803 0
0.5 -0.050787 0
0.496036 -0.0542204 0
0.492071 -0.0537471 0
0.488106 -0.0532784 0
0.48414 -0.0528148 0
0.480175 -0.0523512 0
0.476208 -0.0518968 0
0.472241 -0.0514427 0
0.468274 -0.0509928 0
0.464306 -0.0505482 0
0.460338 -0.0501035 0
0.45637 -0.0496673 0
0.452401 -0.0492319 0
0.448432 -0.0488001 0
0.444462 -0.0483738 0
0.440492 -0.0479474 0
0.436521 -0.0475289 0
0.432551 -0.0471114 0
0.42858 -0.046697 0
0.424608 -0.0462883 0
0.420636 -0.0458797 0
0.416664 -0.0454782 0
0.412691 -0.0450781 0
0.408718 -0.0446807 0
0.404745 -0.044289 0
0.400772 -0.0438973 0
0.396798 -0.0435123 0
0.392823 -0.0431289 0
0.388849 -0.0427479 0
0.384874 -0.0423727 0
0.380899 -0.0419975 0
0.376924 -0.0416285 0
0.372948 -0.0412613 0
0.368972 -0.0408961 0
0.364995 -0.0405368 0
0.361019 -0.0401775 0
0.357042 -0.0398239 0
0.353065 -0.0394724 0
0.349088 -0.0391226 0
0.34511 -0.0387786 0
0.341132 -0.0384347 0
0.337154 -0.0380961 0
0.333175 -0.0377597 0
0.329197 -0.0374248 0
0.325218 -0.0370957 0
0.321239 -0.0367667 0
0.317259 -0.0364427 0
0.313279 -0.036121 0
0.3093 -0.0358005 0
0.305319 -0.0354859 0
0.301339 -0.0351714 0
0.297359 -0.0348615 0
0.293378 -0.034554 0
0.289397 -0.0342476 0
0.285416 -0.0339471 0
0.281434 -0.0336466 0
0.277453 -0.0333504 0
0.273471 -0.0330568 0
0.269489 -0.032764 0
0.265507 -0.0324772 0
0.261524 -0.0321904 0
0.257542 -0.0319077 0
0.253559 -0.0316276 0
0.249576 -0.0313482 0
0.245593 -0.0310748 0
0.241609 -0.0308014 0
0.237626 -0.0305319 0
0.233642 -0.0302651 0
0.229658 -0.0299988 0
0.225674 -0.0297385 0
0.22169 -0.0294782 0
0.217706 -0.0292217 0
0.213721 -0.0289679 0
0.209737 -0.0287146 0
0.205752 -0.0284673 0
0.201767 -0.02822 0
0.197781 -0.0279764 0
0.193796 -0.0277356 0
0.189811 -0.0274951 0
0.185825 -0.0272607 0
0.181839 -0.0270264 0
0.177853 -0.0267956 0
0.173867 -0.0265678 0
0.169881 -0.0263402 0
0.165894 -0.026119 0
0.161908 -0.0258978 0
0.157921 -0.02568 0
0.153934 -0.0254654 0
0.149947 -0.0252509 0
0.14596 -0.025043 0
0.141973 -0.0248352 0
0.137986 -0.0246308 0
0.133998 -0.0244298 0
0.13001 -0.0242288 0
0.126022 -0.024035 0
0.122035 -0.0238411 0
0.118046 -0.0236509 0
0.114058 -0.0234644 0
0.11007 -0.0232779 0
0.106081 -0.023099 0
0.102093 -0.0229202 0
0.0981038 -0.0227453 0
0.0941148 -0.0225747 0
0.0901258 -0.0224041 0
0.0861364 -0.022242 0
0.0821471 -0.0220801 0
0.0781575 -0.0219227 0
0.0741678 -0.0217703 0
0.0701781 -0.021618 0
0.0661879 -0.0214757 0
0.0621978 -0.0213339 0
0.0582075 -0.0211975 0
0.054217 -0.0210676 0
0.0502265 -0.0209377 0
0.0462355 -0.0208207 0
0.0422446 -0.0207045 0
0.0382534 -0.0205955 0
0.034262 -0.0204956 0
0.0302706 -0.0203957 0
0.0262788 -0.0203144 0
0.022287 -0.0202345 0
0.018295 -0.0201654 0
0.0143027 -0.0201109 0
0.0103104 -0.0200563 0
0.00631785 -0.0200329 0
0.00232526 -0.0200121 0
-0.00166732 -0.020011 0
-0.00565987 -0.0200372 0
-0.00965243 -0.0200635 0
-0.0136441 -0.0201487 0
-0.0176357 -0.0202396 0
-0.0216262 -0.0203639 0
-0.0256151 -0.0205369 0
-0.029604 -0.0207098 0
-0.0335881 -0.0209694 0
-0.0375717 -0.0212385 0
-0.041552 -0.0215481 0
-0.0455272 -0.0219207 0
-0.0495024 -0.0222934 0
-0.0534681 -0.0227556 0
-0.0574324 -0.0232306 0
-0.0613923 -0.0237386 0
-0.0653442 -0.0243073 0
-0.0692962 -0.0248759 0
-0.0732381 -0.0255098 0
-0.0771778 -0.0261578 0
-0.0811144 -0.0268235 0
-0.0850433 -0.0275341 0
-0.0889722 -0.0282446 0
-0.0928949 -0.0289889 0
-0.0968152 -0.029745 0
-0.100735 -0.0305068 0
-0.104649 -0.0312931 0
-0.108563 -0.0320794 0
-0.112475 -0.032878 0
-0.116386 -0.0336836 0
-0.120296 -0.0344893 0
-0.124207 -0.0352949 0
-0.128117 -0.0361005 0
-0.132028 -0.0369056 0
-0.135939 -0.0377103 0
-0.13985 -0.0385149 0
-0.143762 -0.0393092 0
-0.147675 -0.0401031 0
-0.15159 -0.0408904 0
-0.155506 -0.041668 0
-0.159422 -0.0424455 0
-0.163342 -0.0432056 0
-0.167262 -0.0439627 0
-0.171183 -0.0447127 0
-0.175108 -0.0454463 0
-0.179033 -0.0461799 0
-0.182961 -0.0468942 0
-0.18689 -0.0476022 0
-0.190821 -0.0483046 0
-0.194755 -0.0489856 0
-0.198689 -0.0496667 0
-0.202626 -0.0503294 0
-0.206565 -0.0509829 0
-0.210504 -0.0516328 0
-0.214448 -0.0522585 0
-0.218391 -0.0528841 0
-0.222337 -0.0534933 0
-0.226284 -0.0540912 0
-0.230232 -0.0546875 0
-0.234184 -0.0552582 0
-0.238136 -0.0558289 0
-0.242089 -0.0563854 0
-0.246045 -0.0569295 0
-0.25 -0.0535098 0
-0.25 -0.0495461 0
-0.25 -0.0455824 0
-0.25 -0.0416187 0
-0.25 -0.0376551 0
-0.25 -0.0336914 0
-0.25 -0.0297277 0
-0.25 -0.025764 0
-0.25 -0.0218003 0
-0.25 -0.0178366 0
-0.25 -0.0138729 0
-0.25 -0.00990922 0
-0.25 -0.00594553 0
-0.25 -0.00198184 0
-0.25 0.00198184 0
-0.25 0.00594553 0
-0.25 0.00990922 0
-0.25 0.0138729 0
-0.25 0.0178366 0
-0.25 0.0218003 0
-0.25 0.025764 0
-0.25 0.0297277 0
-0.25 0.0336914 0
-0.25 0.0376551 0
-0.25 0.0416187 0
-0.25 0.0455824 0
-0.25 0.0495461 0
-0.25 0.0535098 0
-0.246045 0.0569295 0.01
-0.242089 0.0563854 0.01
-0.238136 0.0558289 0.01
-0.234184 0.0552582 0.01
-0.230232 0.0546875 0.01
-0.226284 0.0540912 0.01
-0.222337 0.0534933 0.01
-0.218391 0.0528841 0.01
-0.214448 0.0522585 0.01
-0.210504 0.0516328 0.01
-0.206565 0.0509829 0.01
-0.202626 0.0503294 0.01
-0.198689 0.0496667 0.01
-0.194755 0.0489856 0.01
-0.190821 0.0483046 0.01
-0.18689 0.0476022 0.01
-0.182961 0.0468942 0.01
-0.179033 0.0461799 0.01
-0.175108 0.0454463 0.01
-0.171183 0.0447127 0.01
-0.167262 0.0439627 0.01
[...]
CELL_DATA 7657
SCALARS rho float
LOOKUP_TABLE default
0.477948
0.398121
0.392106
0.382561
0.49563
0.385815
0.373449
0.492838
0.382264
0.500505
0.500564
0.49179
0.374749
0.492243
0.494701
0.488755
0.494588
0.40379
0.40362
0.497925
0.493745
0.406653
0.393366
0.403117
0.445642
0.485473
0.381265
0.376367
0.497596
0.386152
0.375084
0.446395
0.391764
0.476109
0.476531
0.374773
0.386018
0.393094
0.480901
0.378623
0.391636
0.381902
0.384037
0.385228
0.391447
0.392721
0.372726
0.385787
0.448973
0.477579
0.384991
0.382603
0.497596
0.498342
0.37344
0.386487
0.494076
0.491862
0.456225
0.375453
0.451016
0.39099
0.454673
0.456323
0.501151
0.501161
0.374629
0.386973
0.499726
0.452834
0.392803
0.37525
0.383499
0.497657
0.474967
0.385561
0.406028
0.385481
0.474476
0.375002
0.391024
0.493687
0.497764
0.391897
0.392557
0.460317
0.392461
0.451991
0.486241
0.381201
0.501078
0.501113
0.457619
0.49913
0.377993
0.462534
0.461467
0.395444
0.391095
0.377947
0.40481
0.429074
0.397422
0.49327
0.372492
0.386508
0.376763
0.387163
0.375635
0.493206
0.375038
0.387197
0.384546
0.49773
0.395669
0.443303
0.387385
0.378606
0.488058
0.385936
0.501808
0.501795
0.376869
0.394795
0.496165
0.492188
0.491309
0.384065
0.386769
0.384155
0.382351
0.41343
0.386533
0.383519
0.49782
0.376406
0.489111
0.391882
0.414577
0.416069
0.376836
0.381116
0.37899
0.378151
0.401797
0.49366
0.390274
0.39893
0.390897
0.376757
0.378984
0.499827
0.410311
0.384199
0.493777
0.397571
0.387005
0.40862
0.497868
0.376402
0.40993
0.491604
0.484742
0.442162
0.390006
0.397191
0.480943
0.38457
0.395196
0.4885
0.391569
0.387413
0.412112
0.379002
0.374536
0.374575
0.383353
0.46255
0.495937
0.379032
0.378192
0.375858
0.421182
0.422945
0.374022
0.454751
0.379088
0.383421
0.488785
0.462507
0.497547
0.499381
0.497816
0.466735
0.488515
0.386732
0.498149
0.49123
0.374708
0.394052
0.402775
0.426996
0.46375
0.450053
0.381448
0.498511
0.376123
0.372226
0.47414
0.466269
0.389038
0.390858
0.389965
0.497814
0.391371
0.383343
0.374054
0.45916
0.386976
0.393812
0.398439
0.398671
0.500157
0.387043
0.376937
0.391919
0.377197
0.379945
0.385666
0.500195
0.389634
0.389573
0.375798
0.493586
0.48715
0.497918
0.451627
0.428978
0.430801
0.490934
0.388979
0.379794
0.463896
0.391447
0.473298
0.468712
0.379236
0.467919
0.379622
0.385431
0.374755
0.383175
0.387283
0.475145
0.374199
0.383319
0.399729
0.495541
0.498225
0.387053
0.39455
0.49832
0.487635
0.395207
0.373861
0.392425
0.448258
0.379803
0.402734
0.379411
0.373685
0.381024
0.38111
0.498007
0.472725
0.395667
0.384349
0.387189
0.387136
0.490136
0.395771
0.474645
0.380427
0.37752
0.38335
0.375012
0.377443
0.3823
0.413449
0.398441
0.396298
0.383552
0.380493
0.498312
0.387064
0.381567
0.481248
0.494126
0.443124
0.396776
0.461508
0.498298
0.379401
0.377862
0.381422
0.458969
0.373712
0.38364
0.400839
0.387205
0.490605
0.446691
0.490671
0.379648
0.446794
0.490464
0.498199
0.495573
0.387051
0.475709
0.384308
0.393178
0.498157
0.453268
0.488486
0.496534
0.378359
0.408296
0.492337
0.397818
0.386491
0.496834
0.487604
0.400784
0.493271
0.422322
0.387004
0.379961
0.444794
0.497586
0.487805
0.374428
0.402282
0.487676
0.498257
0.374269
0.497526
0.400739
0.393297
0.492416
0.385981
0.409191
0.497827
0.410456
0.373752
0.440155
0.414677
0.372106
0.442003
0.372324
0.387844
0.405461
0.393479
0.444797
0.494252
0.374586
0.487419
0.378346
0.457726
0.460401
0.386224
0.435211
0.497305
0.496738
0.37642
0.375305
0.411457
0.421818
0.398771
0.486759
0.390246
0.401582
0.380893
0.458596
0.497903
0.499673
0.477214
0.491183
0.486521
0.491881
0.387813
0.387223
0.387224
0.497043
0.483875
0.453478
0.374106
0.386906
0.491758
0.385992
0.497916
0.497901
0.400802
0.499055
0.378389
0.43499
0.489305
0.37334
0.49212
0.494675
0.413101
0.386283
0.459979
0.382423
0.463924
0.496592
0.391181
0.493743
0.38256
0.395694
0.393156
0.493462
0.372337
0.406735
0.398388
0.396231
0.461746
0.495465
0.38392
0.430767
0.441234
0.373563
0.403342
0.498126
0.476838
0.48635
0.498201
0.416362
0.487839
0.402613
0.386019
0.48514
0.375707
0.49779
0.490039
0.390299
0.388932
0.372214
0.494546
0.44195
0.447228
0.442627
0.387869
0.372572
0.377579
0.462479
0.373196
0.489395
0.487974
0.464576
0.476897
0.386818
0.398275
0.460885
0.40811
0.496806
0.385315
0.388602
0.373478
0.373851
0.497776
0.387919
0.432624
0.478612
0.493326
0.42504
0.477492
0.385829
0.377383
0.49754
0.44538
0.497635
0.41004
0.412962
0.390461
0.386981
0.38009
0.375618
0.499761
0.463604
0.491318
0.452539
0.491736
0.465733
0.490737
0.372672
0.382606
0.38532
0.476531
0.477861
0.49479
0.49442
0.439239
0.495222
0.451881
0.454898
0.403812
0.38373
0.444351
0.486565
0.380151
0.474568
0.423525
0.491192
0.404216
0.49592
0.484091
0.408748
0.482083
0.394233
0.489166
0.497289
0.494238
0.38214
0.489602
0.495244
0.498818
0.391993
0.49912
0.456347
0.387475
0.487078
0.493949
0.4323
0.390999
0.425539
0.391399
0.493175
0.373501
0.399993
0.390307
0.425725
0.438228
0.491005
0.478424
0.4971
0.421662
0.383821
0.38627
0.419847
0.487354
0.382556
0.43095
0.483697
0.482618
0.485887
0.378029
0.489791
0.387396
0.476665
0.486777
0.384993
0.496379
0.373231
0.418063
0.484908
0.499416
0.497151
0.374969
0.473584
0.462323
0.385281
0.410091
0.394795
0.458401
0.372242
0.493583
0.498068
0.491071
0.491758
0.378129
0.417695
0.459528
0.386926
0.417865
0.429263
0.465053
0.443077
0.499566
0.372964
0.488129
0.492389
0.372458
0.437908
0.456844
0.386964
0.374337
0.378588
0.390475
0.492445
0.46477
0.493022
0.38706
0.48764
0.493765
0.492817
0.484712
0.467015
0.387076
0.493622
0.48529
0.49192
0.491193
0.485035
0.390688
0.487167
0.497982
0.437478
0.434886
0.492773
0.375661
0.497956
0.498187
0.496346
0.493632
0.46009
0.397054
0.442149
0.44464
0.38134
0.404157
0.386961
0.498007
0.461747
0.384114
0.495565
0.433582
0.454613
0.497384
0.403684
0.49729
0.425276
0.439988
0.372929
0.382068
0.49681
0.447796
0.463718
0.417024
0.492814
0.485254
0.465379
0.392526
0.496068
0.497982
0.489192
0.380702
0.423568
0.456146
0.454152
0.377342
0.467317
0.487851
0.437004
0.45381
0.412792
0.435466
0.493231
0.468758
0.412182
0.496492
0.459753
0.427924
0.487963
0.382993
0.411198
0.407487
0.408656
0.498236
0.470464
0.390496
0.458118
0.414497
0.491535
0.494065
0.471894
0.387671
0.382671
0.382188
0.375867
0.470056
0.493172
0.490493
0.460052
0.419657
0.490401
0.497134
0.377824
0.495065
0.494592
0.372368
0.416181
0.377725
0.388413
0.371608
0.384365
0.473513
0.379336
0.474758
0.495725
0.496031
0.383115
0.49287
0.497725
0.407212
0.372645
0.487733
0.498649
0.464946
0.430491
0.384293
0.412943
0.495602
0.4956
0.496733
0.461957
0.483065
0.497604
0.375212
0.456875
0.451098
0.495926
0.384249
0.421966
0.48994
0.439124
0.387627
0.429676
0.495895
0.452888
0.45794
0.405938
0.495768
0.455526
0.37358
0.49546
0.388083
0.384653
0.376932
0.483076
0.498708
0.372431
0.463438
0.483755
0.499448
0.494499
0.496471
0.378276
0.497056
0.497912
0.40231
0.496685
0.496964
0.450003
0.454334
0.49429
0.387135
0.384956
0.453229
0.49146
0.409725
0.408359
0.48628
0.38369
0.496409
0.490555
0.485861
0.494399
0.496194
0.389214
0.384335
0.452347
0.378389
0.495422
0.372501
0.497577
0.496141
0.383726
0.458483
0.423291
0.436541
0.372148
0.488888
0.46376
0.391109
0.487247
0.494977
0.453838
0.416781
0.426213
0.495266
0.376262
0.372831
0.490119
0.421125
0.456696
0.456686
0.38478
0.49554
0.492821
0.466301
0.376277
0.372901
0.384677
0.372038
0.494954
0.497539
0.384501
0.495283
0.492587
0.497503
0.393188
0.49757
0.496649
0.372539
0.462373
0.489674
0.37811
0.440501
0.372532
0.496072
0.488214
0.378425
0.484951
0.496365
0.374161
0.485381
0.497543
0.494283
0.453172
0.496696
0.479419
0.449031
0.499202
0.497556
0.494008
0.393343
0.452405
0.46251
0.384069
0.494531
0.497894
0.376214
0.384096
0.377674
0.468844
0.440266
0.497309
0.440463
0.492156
0.49433
0.496679
0.491833
0.494613
0.384143
0.466241
0.496258
0.376697
0.493622
0.37221
0.384012
0.497678
0.372905
0.487028
0.493973
0.378057
0.377065
0.495495
0.494259
0.494128
0.495086
0.490272
0.449555
0.488929
0.38174
0.379543
0.382998
0.493564
0.492332
0.495131
0.375072
0.467195
0.384709
0.494257
0.4947
0.493908
0.494654
0.4784
0.493275
0.4648
0.49293
0.493564
0.488837
0.49607
0.489224
0.379853
0.470397
0.380196
0.464981
0.373566
0.384931
0.378869
0.376532
0.446833
0.446926
0.496702
0.491074
0.493223
0.490628
0.388179
0.461449
0.497171
0.48956
0.496967
0.487218
0.450521
0.377852
0.492885
0.447236
0.447136
0.374086
0.488287
0.489382
0.488091
0.380318
0.455148
0.45513
0.495565
0.384542
0.384757
0.372678
0.377981
0.497405
0.49809
0.494591
0.411576
0.377575
0.378722
0.496753
0.489679
0.391033
0.379978
0.374882
0.374903
0.375939
0.488021
0.375873
0.408591
0.491471
0.374832
0.452107
0.491216
0.489203
0.493708
0.386836
0.385122
0.496397
0.37882
0.466633
0.48735
0.463128
0.477374
0.479474
0.463502
0.497274
0.470473
0.380914
0.467924
0.494085
0.385225
0.374431
0.497037
0.492348
0.488403
0.488907
0.464569
0.465526
0.496748
0.481335
0.431525
0.380415
0.37786
0.492394
0.373973
0.497449
0.460899
0.49704
0.497819
0.424792
0.42015
0.496793
0.489756
0.497864
0.430525
0.491586
0.486388
0.456421
0.496738
0.377975
0.49715
0.494799
0.485742
0.455328
0.373049
0.497023
0.490947
0.489834
0.373714
0.373687
0.387031
0.489111
0.490856
0.49758
0.39058
0.394205
0.374567
0.379884
0.402494
0.485721
0.491396
0.373673
0.473318
0.372729
0.375744
0.495632
0.497217
0.473184
0.496948
0.393893
0.393947
0.390329
0.496615
0.401845
0.497929
0.487661
0.402116
0.373064
0.390552
0.477187
0.3995
0.496888
0.381064
0.385144
0.49436
0.497425
0.495236
0.491642
0.494212
0.49079
0.494227
0.372703
0.3809
0.407072
0.496648
0.377541
0.491873
0.386599
0.478737
0.49334
0.384578
0.433622
0.496785
0.425188
0.497193
0.488333
0.493992
0.493227
0.488553
0.45476
0.497178
0.471909
0.477303
0.385371
0.452707
0.373504
0.481611
0.465734
0.380657
0.495373
0.469068
0.471377
0.488425
0.385451
0.496973
0.37239
0.37728
0.372254
0.497121
0.486286
0.434003
0.436841
0.377675
0.490424
0.489706
0.480798
0.374515
0.378089
0.493616
0.486757
0.496836
0.484919
0.492663
0.380285
0.48789
0.386543
0.380614
0.495276
0.475977
0.389018
0.497765
0.378953
0.494787
0.497184
0.47493
0.485913
0.475718
0.497169
0.488695
0.496387
0.496778
0.489935
0.380764
0.39081
0.391023
0.48999
0.492938
0.480534
0.393517
0.492806
0.489556
0.493071
0.374872
0.487939
0.496567
0.487137
0.377617
0.37493
0.487324
0.374043
0.385014
0.377091
0.374941
0.374885
0.385194
0.384979
0.474699
0.375435
0.496998
0.472893
0.497729
0.496713
0.373334
0.490042
0.49545
0.490307
0.376802
0.496706
0.49526
0.492288
0.490723
0.469203
0.497021
0.374356
0.373923
0.448396
0.448438
0.496108
0.495426
0.37445
0.490983
0.496656
0.496857
0.497369
0.421393
0.404831
0.497634
0.464065
0.38308
0.372982
0.495612
0.374945
0.48928
0.372573
0.387527
0.496398
0.47119
0.492724
0.493868
0.433897
0.433247
0.372414
0.497325
0.380706
0.497684
0.488953
0.496409
0.492248
0.497374
0.489506
0.407444
0.372248
0.372989
0.492391
0.385594
0.492668
0.494482
0.494794
0.380184
0.496942
0.49146
0.379264
0.495104
0.372987
0.377727
0.476697
0.492102
0.373022
0.386741
0.372926
0.375809
0.476432
0.468038
0.477935
0.47483
0.471495
0.432138
0.431454
0.380984
0.468376
0.497123
0.496538
0.376063
0.427313
0.490833
0.381412
0.373633
0.493189
0.464981
0.492416
0.496548
0.495145
0.497055
0.460973
0.497377
0.460895
0.388957
0.402884
0.482671
0.480027
0.472451
0.374267
0.492237
0.399152
0.399533
0.489772
0.494648
0.484036
0.498673
0.493816
0.417838
0.49047
0.481178
0.48912
0.383711
0.483725
0.38381
0.490363
0.400838
0.373169
0.480586
0.390639
0.390575
0.496852
0.496193
0.386777
0.49715
0.495084
0.496821
0.38809
0.388307
0.373805
0.496931
0.471021
0.495716
0.385864
0.497476
0.494936
0.476416
0.481743
0.496191
0.470044
0.471222
0.386398
0.494747
0.490353
0.496522
0.384524
0.384315
0.384322
0.427569
0.490767
0.494072
0.49598
0.497614
0.431745
0.381856
0.431164
0.423247
0.496651
0.372953
0.492472
0.386582
0.495756
0.388668
0.388828
0.48462
0.492101
0.493609
0.375438
0.496536
0.497296
0.378155
0.392023
0.497495
0.491517
0.405359
0.373108
0.373832
0.374807
0.391824
0.483166
0.494289
0.440053
0.420383
0.398521
0.497016
0.440497
0.395737
0.39923
0.40612
0.496035
0.422829
0.493723
0.379719
0.400936
0.493226
0.491821
0.480621
0.491825
0.41149
0.491214
0.495929
0.49214
0.380356
0.399301
0.495315
0.495178
0.494241
0.49623
0.495412
0.492687
0.372246
0.388284
0.388479
0.494632
0.491153
0.495277
0.491996
0.372627
0.491708
0.461234
0.496437
0.466382
0.383152
0.49211
0.485397
0.376388
0.487445
0.493931
0.372618
0.493384
0.383969
0.396445
0.375085
0.375126
0.383907
0.38396
0.451719
0.490102
0.49732
0.497389
0.383761
0.49491
0.496817
0.38591
0.403009
0.473836
0.374129
0.491271
0.490514
0.47804
0.377597
0.380839
0.385682
0.49593
0.49588
0.495397
0.495592
0.498684
0.481958
0.483924
0.485667
0.494744
0.479743
0.494963
0.491701
0.388851
0.49255
0.46286
0.497331
0.493014
0.490872
0.495891
0.490166
0.389864
0.488705
0.483566
0.419562
0.492168
0.489018
0.483224
0.498226
0.487127
0.426624
0.490156
0.417164
0.42069
0.497444
0.488442
0.496844
0.491873
0.377542
0.494405
0.488683
0.488482
0.496894
0.486605
0.48909
0.372935
0.497194
0.488247
0.489708
0.387929
0.387686
0.481684
0.372587
0.498302
0.491343
0.499231
0.387378
0.493236
0.488604
0.380002
0.386631
0.489076
0.389434
0.379626
0.499136
0.379349
0.499831
0.499802
0.499086
0.379023
0.472659
0.498782
0.490225
0.49726
0.493966
0.492504
0.496888
0.473986
0.38095
0.372871
0.49853
0.385404
0.486248
0.372502
0.381175
0.381114
0.488013
0.470507
0.379206
0.38234
0.487593
0.498632
0.495122
0.464142
0.484677
0.383342
0.499445
0.499417
0.491824
0.491915
0.491679
0.492907
0.381556
0.459041
0.458921
0.480377
0.497298
0.493768
0.497646
0.498147
0.494283
0.379299
0.497363
0.497121
0.376789
0.374019
0.374003
0.386167
0.486652
0.491416
0.470574
0.487573
0.48554
0.48811
0.477903
0.487779
0.49898
0.42711
0.498362
0.37857
0.465195
0.480851
0.383521
0.383544
0.491083
0.45297
0.494036
0.48985
0.487259
0.48388
0.43355
0.434205
0.489987
0.489239
0.494605
0.496822
0.384364
0.487718
0.479504
0.488782
0.384413
0.384413
0.494673
0.492314
0.482936
0.495293
0.488431
0.495764
0.494797
0.385671
0.496666
0.384834
0.384734
0.489222
0.466314
0.49289
0.478876
0.38793
0.388164
0.386685
0.388761
0.388918
0.374403
0.470711
0.49785
0.386063
0.478507
0.487852
0.480034
0.477257
0.390395
0.390324
0.398341
0.398683
0.44039
0.490636
0.392338
0.425276
0.424107
0.496693
0.4763
0.406584
0.486453
0.484785
0.389257
0.389075
0.439553
0.482539
0.442219
0.393445
0.393503
0.488879
0.477599
0.418558
0.497132
0.442652
0.377706
0.490686
0.449115
0.497934
0.486426
0.416164
0.47763
0.498523
0.498492
0.498487
0.496245
0.495566
0.492932
0.401743
0.498358
0.395501
0.488646
0.493736
0.498456
0.486543
0.493442
0.494451
0.391548
0.496681
0.49669
0.497245
0.376641
0.3763
0.479437
0.495757
0.395801
0.487939
0.471017
0.482922
0.490948
0.491642
0.496438
0.496259
0.496516
0.495776
0.490713
0.373576
0.373286
0.493962
0.393452
0.386083
0.466412
0.378884
0.497871
0.498243
0.494951
0.496832
0.497845
0.487298
0.487958
0.377255
0.453826
0.496491
0.461521
0.482173
0.497056
0.482195
0.497745
0.374766
0.484695
0.376289
0.41956
0.476678
0.497976
0.376722
0.376706
0.493977
0.389674
0.490617
0.496369
0.487642
0.485828
0.378492
0.474878
0.493418
0.495441
0.497952
0.496003
0.495584
0.486574
0.389287
0.489472
0.496403
0.482148
0.497667
0.486885
0.481556
0.493539
0.492075
0.4879
0.388354
0.388534
0.495145
0.493731
0.496498
0.49598
0.487015
0.497017
0.497329
0.473327
0.492397
0.44787
0.496683
0.497463
0.493281
0.477593
0.487272
0.412965
0.48656
0.492384
0.387542
0.387762
0.497884
0.498224
0.372411
0.498389
0.494904
0.4965
0.478384
0.469997
0.49422
0.495322
0.496302
0.496236
0.497159
0.487357
0.469471
0.494069
0.497647
0.491518
0.497085
0.386539
0.477968
0.481571
0.483464
0.49687
0.496721
0.476498
0.476916
0.485144
0.473437
0.495813
0.485198
0.497291
0.380727
0.385242
0.479134
0.498193
0.492702
0.386339
0.482407
0.493779
0.496163
0.49652
0.383962
0.384002
0.496624
0.410046
0.49666
0.382151
0.451387
0.495008
0.471576
0.486581
0.383217
0.496326
0.453768
0.381699
0.49538
0.442714
0.491225
0.472615
0.494926
0.497133
0.498251
0.479974
0.480235
0.446815
0.493499
0.497276
0.496224
0.49718
0.492285
0.38631
0.493782
0.484422
0.494441
0.494688
0.382878
0.48382
0.495344
0.477242
0.497226
0.497585
0.477052
0.429655
0.438148
0.487531
0.497001
0.429124
0.497013
0.496812
0.478236
0.494101
0.496583
0.495801
0.492984
0.496417
0.491947
0.497052
0.374979
0.496236
0.37316
0.496482
0.492446
0.491047
0.497571
0.491884
0.487299
0.384924
0.38484
0.484402
0.490211
0.497379
0.37994
0.379586
0.401891
0.400081
0.494679
0.49665
0.494929
0.491419
0.490313
0.496486
0.453266
0.386188
0.495133
0.496091
0.487976
0.497292
0.375272
0.37291
0.498309
0.496951
0.496925
0.386111
0.49266
0.496621
0.493808
0.46741
0.468533
0.499108
0.492216
0.496308
0.38387
0.38936
0.389187
0.466856
0.386069
0.493231
0.494114
0.491295
0.491218
0.49385
0.47482
0.496363
0.450809
0.380641
0.4938
0.49422
0.497412
0.471876
0.493224
0.49598
0.482578
0.393863
0.393936
0.467677
0.492035
0.496935
0.493518
0.487791
0.421363
0.494015
0.418985
0.497442
0.488353
0.492696
0.474488
0.490679
0.494139
0.481507
0.492422
0.497288
0.479014
0.491058
0.480073
0.49035
0.493349
0.487083
0.491289
0.495939
0.49591
0.492982
0.493726
0.493481
0.428052
0.491785
0.496148
0.491458
0.413619
0.496994
0.496904
0.486667
0.495796
0.493283
0.495835
0.389659
0.497339
0.493585
0.492098
0.492406
0.495492
0.440281
0.497243
0.493018
0.489484
0.494831
0.494512
0.494199
0.491511
0.496313
0.492965
0.497092
0.493619
0.486806
0.49389
0.482023
0.44897
0.455861
0.475884
0.496287
0.490898
0.495156
0.470261
0.492703
0.492717
0.492151
0.489648
0.493931
0.493024
0.444902
0.491573
0.487156
0.493657
0.489966
0.453532
0.497278
0.410602
0.497119
0.494211
0.497323
0.47564
0.490969
0.376639
0.377078
0.496357
0.487113
0.491048
0.492739
0.449245
0.440559
0.497585
0.49246
0.496578
0.489492
0.490677
0.495647
0.494925
0.494908
0.494206
0.492755
0.491204
0.492211
0.397605
0.496944
0.391539
0.374496
0.466732
0.471804
0.444622
0.471428
0.397451
0.493148
0.391535
0.492147
0.48215
0.485923
0.490601
0.491805
0.492488
0.484496
0.479116
0.497308
0.494835
0.491197
0.479136
0.490336
0.472399
0.472974
0.496319
0.49191
0.49565
0.496625
0.395709
0.496994
0.496075
0.486284
0.49634
0.491231
0.389961
0.490312
0.497105
0.468325
0.490266
0.493005
0.491111
0.493278
0.490808
0.496394
0.489258
0.373356
0.494459
0.47801
0.47422
0.485785
0.479743
0.489765
0.496865
0.490906
0.492167
0.491491
0.497413
0.490575
0.466507
0.488978
0.490225
0.374857
0.468613
0.490742
0.495769
0.417767
0.490034
0.487617
0.486745
0.475367
0.491204
0.491782
0.439033
0.486734
0.490066
0.493117
0.488872
0.495262
0.493031
0.44279
0.497112
0.489193
0.49151
0.484119
0.49784
0.456286
0.496227
0.490602
0.496656
0.497678
0.489805
0.434457
0.495646
0.465247
0.491839
0.47557
0.487716
0.47923
0.489316
0.434153
0.496357
0.440663
0.485812
0.493212
0.469777
0.490426
0.48996
0.497381
0.495587
0.415707
0.468087
0.429356
0.474016
0.490038
0.493906
0.493863
0.466929
0.490709
0.49155
0.42804
0.430861
0.375771
0.373237
0.489357
0.44581
0.482194
0.380046
0.379628
0.401778
0.489088
0.43273
0.492473
0.489564
0.488584
0.496044
0.489288
0.487543
0.447783
0.494342
0.372918
0.487841
0.458177
0.488146
0.492146
0.470289
0.494608
0.467329
0.48702
0.469403
0.436792
0.465129
0.452978
0.386119
0.449793
0.48895
0.490305
0.429817
0.488568
0.495102
0.447861
0.468577
0.380537
0.45114
0.491719
0.436
0.493935
0.491931
0.483384
0.490853
0.495881
0.460619
0.420696
0.464475
0.419389
0.487475
0.488893
0.489359
0.491804
0.494562
0.451175
0.462568
0.389936
0.468688
0.448078
0.485948
0.432716
0.449694
0.488806
0.498089
0.490585
0.436271
0.450231
0.43183
0.498628
0.43675
0.435142
0.493467
0.432092
0.489282
0.458097
0.438042
0.474785
0.488217
0.377128
0.376382
0.455471
0.457083
0.488796
0.484717
0.466303
0.435935
0.404719
0.404603
0.457177
0.496578
0.37432
0.493428
0.491247
0.488859
0.493832
0.493311
0.458735
0.465121
0.425911
0.490257
0.431846
0.48633
0.49247
0.449572
0.486546
0.450896
0.463247
0.485605