# vtk DataFile Version 1.0
unstructured grid
ascii
DATASET UNSTRUCTURED_GRID
points 8094 float
-0.25 0.0574735 0
0.5 0.0546937 0
0.5 -0.0546937 0
-0.25 -0.0574735 0
-0.25 0.0574735 0.01
0.5 0.0546937 0.01
0.5 -0.0546937 0.01
-0.25 -0.0574735 0.01
-0.246045 0.0569295 0
-0.242089 0.0563854 0
-0.238136 0.0558289 0
-0.234184 0.0552582 0
-0.230232 0.0546875 0
-0.226284 0.0540912 0
-0.222337 0.0534933 0
-0.218391 0.0528841 0
-0.214448 0.0522585 0
-0.210504 0.0516328 0
-0.206565 0.0509829 0
-0.202626 0.0503294 0
-0.198689 0.0496667 0
-0.194755 0.0489856 0
-0.190821 0.0483046 0
-0.18689 0.0476022 0
-0.182961 0.0468942 0
-0.179033 0.0461799 0
-0.175108 0.0454463 0
-0.171183 0.0447127 0
-0.167262 0.0439627 0
-0.163342 0.0432056 0
-0.159422 0.0424455 0
-0.155506 0.041668 0
-0.15159 0.0408904 0
-0.147675 0.0401031 0
-0.143762 0.0393092 0
-0.13985 0.0385149 0
-0.135939 0.0377103 0
-0.132028 0.0369056 0
-0.128117 0.0361005 0
-0.124207 0.0352949 0
-0.120296 0.0344893 0
-0.116386 0.0336836 0
-0.112475 0.032878 0
-0.108563 0.0320794 0
-0.104649 0.0312931 0
-0.100735 0.0305068 0
-0.0968152 0.029745 0
-0.0928949 0.0289889 0
-0.0889722 0.0282446 0
-0.0850433 0.0275341 0
-0.0811144 0.0268235 0
-0.0771778 0.0261578 0
-0.0732381 0.0255098 0
-0.0692962 0.0248759 0
-0.0653442 0.0243073 0
-0.0613923 0.0237386 0
-0.0574324 0.0232306 0
-0.0534681 0.0227556 0
-0.0495024 0.0222934 0
-0.0455272 0.0219207 0
-0.041552 0.0215481 0
-0.0375717 0.0212385 0
-0.0335881 0.0209694 0
-0.029604 0.0207098 0
-0.0256151 0.0205369 0
-0.0216262 0.0203639 0
-0.0176357 0.0202396 0
-0.0136441 0.0201487 0
-0.00965243 0.0200635 0
-0.00565987 0.0200372 0
-0.00166732 0.020011 0
0.00232526 0.0200121 0
0.00631785 0.0200329 0
0.0103104 0.0200563 0
0.0143027 0.0201109 0
0.018295 0.0201654 0
0.022287 0.0202345 0
0.0262788 0.0203144 0
0.0302706 0.0203957 0
0.034262 0.0204956 0
0.0382534 0.0205955 0
0.0422446 0.0207045 0
0.0462355 0.0208207 0
0.0502265 0.0209377 0
0.054217 0.0210676 0
0.0582075 0.0211975 0
0.0621978 0.0213339 0
0.0661879 0.0214757 0
0.0701781 0.021618 0
0.0741678 0.0217703 0
0.0781575 0.0219227 0
0.0821471 0.0220801 0
0.0861364 0.022242 0
0.0901258 0.0224041 0
0.0941148 0.0225747 0
0.0981038 0.0227453 0
0.102093 0.0229202 0
0.106081 0.023099 0
0.11007 0.0232779 0
0.114058 0.0234644 0
0.118046 0.0236509 0
0.122035 0.0238411 0
0.126022 0.024035 0
0.13001 0.0242288 0
0.133998 0.0244298 0
0.137986 0.0246308 0
0.141973 0.0248352 0
0.14596 0.025043 0
0.149947 0.0252509 0
0.153934 0.0254654 0
0.157921 0.02568 0
0.161908 0.0258978 0
0.165894 0.026119 0
0.169881 0.0263402 0
0.173867 0.0265678 0
0.177853 0.0267956 0
0.181839 0.0270264 0
0.185825 0.0272607 0
0.189811 0.0274951 0
0.193796 0.0277356 0
0.197781 0.0279764 0
0.201767 0.02822 0
0.205752 0.0284673 0
0.209737 0.0287146 0
0.213721 0.0289679 0
0.217706 0.0292217 0
0.22169 0.0294782 0
0.225674 0.0297385 0
0.229658 0.0299988 0
0.233642 0.0302651 0
0.237626 0.0305319 0
0.241609 0.0308014 0
0.245593 0.0310748 0
0.249576 0.0313482 0
0.253559 0.0316276 0
0.257542 0.0319077 0
0.261524 0.0321904 0
0.265507 0.0324772 0
0.269489 0.032764 0
0.273471 0.0330568 0
0.277453 0.0333504 0
0.281434 0.0336466 0
0.285416 0.0339471 0
0.289397 0.0342476 0
0.293378 0.034554 0
0.297359 0.0348615 0
0.301339 0.0351714 0
0.305319 0.0354859 0
0.3093 0.0358005 0
0.313279 0.036121 0
0.317259 0.0364427 0
0.321239 0.0367667 0
0.325218 0.0370957 0
0.329197 0.0374248 0
0.333175 0.0377597 0
0.337154 0.0380961 0
0.341132 0.0384347 0
0.34511 0.0387786 0
0.349088 0.0391226 0
0.353065 0.0394724 0
0.357042 0.0398239 0
0.361019 0.0401775 0
0.364995 0.0405368 0
0.368972 0.0408961 0
0.372948 0.0412613 0
0.376924 0.0416285 0
0.380899 0.0419975 0
0.384874 0.0423727 0
0.388849 0.0427479 0
0.392823 0.0431289 0
0.396798 0.0435123 0
0.400772 0.0438973 0
0.404745 0.044289 0
0.408718 0.0446807 0
0.412691 0.0450781 0
0.416664 0.0454782 0
0.420636 0.0458797 0
0.424608 0.0462883 0
0.42858 0.046697 0
0.432551 0.0471114 0
0.436521 0.0475289 0
0.440492 0.0479474 0
0.444462 0.0483738 0
0.448432 0.0488001 0
0.452401 0.0492319 0
0.45637 0.0496673 0
0.460338 0.0501035 0
0.464306 0.0505482 0
0.468274 0.0509928 0
0.472241 0.0514427 0
0.476208 0.0518968 0
0.480175 0.0523512 0
0.48414 0.0528148 0
0.488106 0.0532784 0
0.492071 0.0537471 0
0.496036 0.0542204 0
0.5 0.050787 0
0.5 0.0468803 0
0.5 0.0429736 0
0.5 0.0390669 0
0.5 0.0351602 0
0.5 0.0312535 0
0.5 0.0273468 0
0.5 0.0234402 0
0.5 0.0195335 0
0.5 0.0156268 0
0.5 0.0117201 0
0.5 0.00781339 0
0.5 0.00390669 0
0.5 1.43781e-13 0
0.5 -0.00390669 0
0.5 -0.00781339 0
0.5 -0.0117201 0
0.5 -0.0156268 0
0.5 -0.0195335 0
0.5 -0.0234402 0
0.5 -0.0273468 0
0.5 -0.0312535 0
0.5 -0.0351602 0
0.5 -0.0390669 0
0.5 -0.0429736 0
0.5 -0.0468803 0
0.5 -0.050787 0
0.496036 -0.0542204 0
0.492071 -0.0537471 0
0.488106 -0.0532784 0
0.48414 -0.0528148 0
0.480175 -0.0523512 0
0.476208 -0.0518968 0
0.472241 -0.0514427 0
0.468274 -0.0509928 0
0.464306 -0.0505482 0
0.460338 -0.0501035 0
0.45637 -0.0496673 0
0.452401 -0.0492319 0
0.448432 -0.0488001 0
0.444462 -0.0483738 0
0.440492 -0.0479474 0
0.436521 -0.0475289 0
0.432551 -0.0471114 0
0.42858 -0.046697 0
0.424608 -0.0462883 0
0.420636 -0.0458797 0
0.416664 -0.0454782 0
0.412691 -0.0450781 0
0.408718 -0.0446807 0
0.404745 -0.044289 0
0.400772 -0.0438973 0
0.396798 -0.0435123 0
0.392823 -0.0431289 0
0.388849 -0.0427479 0
0.384874 -0.0423727 0
0.380899 -0.0419975 0
0.376924 -0.0416285 0
0.372948 -0.0412613 0
0.368972 -0.0408961 0
0.364995 -0.0405368 0
0.361019 -0.0401775 0
0.357042 -0.0398239 0
0.353065 -0.0394724 0
0.349088 -0.0391226 0
0.34511 -0.0387786 0
0.341132 -0.0384347 0
0.337154 -0.0380961 0
0.333175 -0.0377597 0
0.329197 -0.0374248 0
0.325218 -0.0370957 0
0.321239 -0.0367667 0
0.317259 -0.0364427 0
0.313279 -0.036121 0
0.3093 -0.0358005 0
0.305319 -0.0354859 0
0.301339 -0.0351714 0
0.297359 -0.0348615 0
0.293378 -0.034554 0
0.289397 -0.0342476 0
0.285416 -0.0339471 0
0.281434 -0.0336466 0
0.277453 -0.0333504 0
0.273471 -0.0330568 0
0.269489 -0.032764 0
0.265507 -0.0324772 0
0.261524 -0.0321904 0
0.257542 -0.0319077 0
0.253559 -0.0316276 0
0.249576 -0.0313482 0
0.245593 -0.0310748 0
0.241609 -0.0308014 0
0.237626 -0.0305319 0
0.233642 -0.0302651 0
0.229658 -0.0299988 0
0.225674 -0.0297385 0
0.22169 -0.0294782 0
0.217706 -0.0292217 0
0.213721 -0.0289679 0
0.209737 -0.0287146 0
0.205752 -0.0284673 0
0.201767 -0.02822 0
0.197781 -0.0279764 0
0.193796 -0.0277356 0
0.189811 -0.0274951 0
0.185825 -0.0272607 0
0.181839 -0.0270264 0
0.177853 -0.0267956 0
0.173867 -0.0265678 0
0.169881 -0.0263402 0
0.165894 -0.026119 0
0.161908 -0.0258978 0
0.157921 -0.02568 0
0.153934 -0.0254654 0
0.149947 -0.0252509 0
0.14596 -0.025043 0
0.141973 -0.0248352 0
0.137986 -0.0246308 0
0.133998 -0.0244298 0
0.13001 -0.0242288 0
0.126022 -0.024035 0
0.122035 -0.0238411 0
0.118046 -0.0236509 0
0.114058 -0.0234644 0
0.11007 -0.0232779 0
0.106081 -0.023099 0
0.102093 -0.0229202 0
0.0981038 -0.0227453 0
0.0941148 -0.0225747 0
0.0901258 -0.0224041 0
0.0861364 -0.022242 0
0.0821471 -0.0220801 0
0.0781575 -0.0219227 0
0.0741678 -0.0217703 0
0.0701781 -0.021618 0
0.0661879 -0.0214757 0
0.0621978 -0.0213339 0
0.0582075 -0.0211975 0
0.054217 -0.0210676 0
0.0502265 -0.0209377 0
0.0462355 -0.0208207 0
0.0422446 -0.0207045 0
0.0382534 -0.0205955 0
0.034262 -0.0204956 0
0.0302706 -0.0203957 0
0.0262788 -0.0203144 0
0.022287 -0.0202345 0
0.018295 -0.0201654 0
0.0143027 -0.0201109 0
0.0103104 -0.0200563 0
0.00631785 -0.0200329 0
0.00232526 -0.0200121 0
-0.00166732 -0.020011 0
-0.00565987 -0.0200372 0
-0.00965243 -0.0200635 0
-0.0136441 -0.0201487 0
-0.0176357 -0.0202396 0
-0.0216262 -0.0203639 0
-0.0256151 -0.0205369 0
-0.029604 -0.0207098 0
-0.0335881 -0.0209694 0
-0.0375717 -0.0212385 0
-0.041552 -0.0215481 0
-0.0455272 -0.0219207 0
-0.0495024 -0.0222934 0
-0.0534681 -0.0227556 0
-0.0574324 -0.0232306 0
-0.0613923 -0.0237386 0
-0.0653442 -0.0243073 0
-0.0692962 -0.0248759 0
-0.0732381 -0.0255098 0
-0.0771778 -0.0261578 0
-0.0811144 -0.0268235 0
-0.0850433 -0.0275341 0
-0.0889722 -0.0282446 0
-0.0928949 -0.0289889 0
-0.0968152 -0.029745 0
-0.100735 -0.0305068 0
-0.104649 -0.0312931 0
-0.108563 -0.0320794 0
-0.112475 -0.032878 0
-0.116386 -0.0336836 0
-0.120296 -0.0344893 0
-0.124207 -0.0352949 0
-0.128117 -0.0361005 0
-0.132028 -0.0369056 0
-0.135939 -0.0377103 0
-0.13985 -0.0385149 0
-0.143762 -0.0393092 0
-0.147675 -0.0401031 0
-0.15159 -0.0408904 0
-0.155506 -0.041668 0
-0.159422 -0.0424455 0
-0.163342 -0.0432056 0
-0.167262 -0.0439627 0
-0.171183 -0.0447127 0
-0.175108 -0.0454463 0
-0.179033 -0.0461799 0
-0.182961 -0.0468942 0
-0.18689 -0.0476022 0
-0.190821 -0.0483046 0
-0.194755 -0.0489856 0
-0.198689 -0.0496667 0
-0.202626 -0.0503294 0
-0.206565 -0.0509829 0
-0.210504 -0.0516328 0
-0.214448 -0.0522585 0
-0.218391 -0.0528841 0
-0.222337 -0.0534933 0
-0.226284 -0.0540912 0
-0.230232 -0.0546875 0
-0.234184 -0.0552582 0
-0.238136 -0.0558289 0
-0.242089 -0.0563854 0
-0.246045 -0.0569295 0
-0.25 -0.0535098 0
-0.25 -0.0495461 0
-0.25 -0.0455824 0
-0.25 -0.0416187 0
-0.25 -0.0376551 0
-0.25 -0.0336914 0
-0.25 -0.0297277 0
-0.25 -0.025764 0
-0.25 -0.0218003 0
-0.25 -0.0178366 0
-0.25 -0.0138729 0
-0.25 -0.00990922 0
-0.25 -0.00594553 0
-0.25 -0.00198184 0
-0.25 0.00198184 0
-0.25 0.00594553 0
-0.25 0.00990922 0
-0.25 0.0138729 0
-0.25 0.0178366 0
-0.25 0.0218003 0
-0.25 0.025764 0
-0.25 0.0297277 0
-0.25 0.0336914 0
-0.25 0.0376551 0
-0.25 0.0416187 0
-0.25 0.0455824 0
-0.25 0.0495461 0
-0.25 0.0535098 0
-0.246045 0.0569295 0.01
-0.242089 0.0563854 0.01
-0.238136 0.0558289 0.01
-0.234184 0.0552582 0.01
-0.230232 0.0546875 0.01
-0.226284 0.0540912 0.01
-0.222337 0.0534933 0.01
-0.218391 0.0528841 0.01
-0.214448 0.0522585 0.01
-0.210504 0.0516328 0.01
-0.206565 0.0509829 0.01
-0.202626 0.0503294 0.01
-0.198689 0.0496667 0.01
-0.194755 0.0489856 0.01
-0.190821 0.0483046 0.01
-0.18689 0.0476022 0.01
-0.182961 0.0468942 0.01
-0.179033 0.0461799 0.01
-0.175108 0.0454463 0.01
-0.171183 0.0447127 0.01
-0.167262 0.0439627 0.01
[...]
CELL_DATA 7657
SCALARS rho float
LOOKUP_TABLE default
0.57052
0.562223
0.585403
0.573536
0.528393
0.578321
0.564763
0.5
0.561888
0.506561
0.506929
0.5
0.56254
0.5
0.550322
0.575111
0.555672
0.578241
0.578756
0.5
0.564397
0.569671
0.562089
0.578998
0.500421
0.5
0.571647
0.562312
0.506485
0.578394
0.566233
0.500409
0.56207
0.569968
0.570105
0.56604
0.578499
0.562119
0.571471
0.568788
0.585192
0.561924
0.575701
0.577276
0.585079
0.585647
0.564296
0.57819
0.500358
0.570377
0.577134
0.573646
0.506382
0.506251
0.564889
0.578881
0.560846
0.575593
0.566329
0.566388
0.500248
0.584792
0.500083
0.50006
0.506805
0.507073
0.562502
0.579611
0.506389
0.565963
0.585656
0.562474
0.575047
0.506429
0.569692
0.578007
0.56999
0.577873
0.569543
0.562289
0.561986
0.5
0.5
0.585296
0.58558
0.56688
0.585549
0.565845
0.5
0.571486
0.50777
0.505843
0.56651
0.50634
0.568372
0.567219
0.567059
0.56218
0.584891
0.56837
0.575968
0.505889
0.562227
0.568212
0.564155
0.56204
0.567489
0.580035
0.562249
0.570874
0.566198
0.579839
0.576584
0.5
0.586053
0.564975
0.580201
0.568911
0.574655
0.578247
0.506245
0.507735
0.567555
0.561954
0.5
0.5
0.5
0.57568
0.579313
0.575849
0.573111
0.544147
0.579005
0.574918
0.5
0.567246
0.575323
0.562089
0.535971
0.530742
0.567459
0.571281
0.569111
0.568545
0.581625
0.565367
0.562065
0.562233
0.584738
0.567481
0.569343
0.50664
0.562678
0.575842
0.562376
0.562171
0.579644
0.560441
0.5
0.567126
0.555278
0.575936
0.5
0.564857
0.584039
0.562191
0.571494
0.576477
0.586024
0.574913
0.585146
0.562031
0.548785
0.569239
0.565744
0.56588
0.574536
0.567259
0.5
0.569237
0.568572
0.562366
0.515061
0.51326
0.562576
0.566143
0.562078
0.574676
0.5
0.567238
0.506382
0.506399
0.5
0.567956
0.5
0.579183
0.5
0.576061
0.565889
0.585973
0.579973
0.508153
0.567407
0.565606
0.571781
0.506266
0.562138
0.563982
0.569512
0.567836
0.582718
0.584734
0.583955
0.5
0.585033
0.574714
0.565379
0.566715
0.579858
0.585933
0.562185
0.562119
0.506635
0.579759
0.562107
0.561979
0.562229
0.570271
0.577713
0.506646
0.583519
0.583583
0.562433
0.567995
0.574194
0.5
0.565775
0.505051
0.504345
0.576093
0.582599
0.569767
0.567445
0.562029
0.569271
0.56828
0.562092
0.568121
0.561915
0.57758
0.565997
0.574332
0.580088
0.569744
0.565509
0.574578
0.562282
0.532428
0.506429
0.579826
0.561998
0.506316
0.574431
0.586071
0.565203
0.585519
0.565417
0.5699
0.58022
0.569448
0.562847
0.571288
0.571252
0.5
0.569121
0.585996
0.576279
0.579829
0.579693
0.5
0.56218
0.500002
0.570432
0.568003
0.574225
0.566151
0.567982
0.572969
0.562802
0.585239
0.585886
0.574855
0.570578
0.507533
0.58001
0.571795
0.57163
0.5
0.564916
0.585782
0.567057
0.506544
0.569569
0.562028
0.571753
0.566691
0.565069
0.575
0.583069
0.57999
0.5
0.565257
0.576083
0.56194
0.50049
0.576014
0.506546
0.534971
0.579868
0.500002
0.576158
0.562116
0.506195
0.565968
0.574907
0.51069
0.561983
0.562571
0.575437
0.585559
0.561984
0.508959
0.574427
0.562194
0.5
0.56335
0.579996
0.570274
0.500702
0.506339
0.5
0.565679
0.562369
0.574468
0.5
0.565568
0.506387
0.562289
0.585817
0.574411
0.5785
0.560795
0.5
0.556272
0.565052
0.501069
0.541364
0.563839
0.500816
0.56412
0.580875
0.573103
0.585865
0.565073
0.554735
0.565826
0.5
0.56862
0.566528
0.566894
0.578642
0.564249
0.5
0.5
0.562348
0.562501
0.55356
0.563298
0.584839
0.573969
0.584186
0.58218
0.571125
0.500073
0.506327
0.506771
0.570273
0.5
0.5
0.575782
0.580962
0.580048
0.579945
0.5
0.5
0.565992
0.565421
0.561809
0.576108
0.578468
0.5
0.5
0.583038
0.507697
0.568565
0.56422
0.575397
0.562929
0.575054
0.547318
0.54755
0.578711
0.500059
0.573311
0.567449
0.5
0.584926
0.5
0.573371
0.562165
0.562068
0.5
0.563696
0.562483
0.562195
0.586005
0.567109
0.5
0.575521
0.505433
0.564743
0.565085
0.562295
0.5
0.500001
0.573744
0.506617
0.535072
0.574597
0.58047
0.578172
0.573277
0.566627
0.50636
0.5
0.584249
0.582622
0.563836
0.549933
0.564852
0.500482
0.500977
0.581044
0.564305
0.562083
0.567243
0.5646
0.575429
0.574655
0.567566
0.57024
0.579558
0.58514
0.567007
0.56254
0.5
0.561993
0.562038
0.564887
0.565191
0.506122
0.581169
0.564046
0.570717
0.571362
0.510605
0.500001
0.578043
0.567715
0.506339
0.565127
0.506496
0.559216
0.547572
0.584355
0.579717
0.570095
0.566702
0.506427
0.500026
0.576124
0.50022
0.5
0.567787
0.5
0.563298
0.573444
0.577677
0.570072
0.570471
0.5
0.5
0.564577
0.5
0.565813
0.566169
0.562357
0.57518
0.565025
0.573908
0.57024
0.500002
0.514311
0.576254
0.576615
0.5
0.572731
0.564536
0.571956
0.562012
0.575272
0.5
0.5
0.572765
0.5
0.5
0.506312
0.585343
0.506423
0.500115
0.580483
0.574159
0.5
0.564006
0.584798
0.511435
0.585063
0.5
0.565201
0.583969
0.584213
0.510585
0.564485
0.5
0.500001
0.5
0.519071
0.57534
0.578674
0.523751
0.574348
0.573276
0.563905
0.5
0.572143
0.573515
0.568406
0.5
0.561867
0.570123
0.573968
0.577352
0.5
0.563052
0.529318
0.573125
0.506429
0.5
0.566075
0.569342
0.567209
0.577545
0.559386
0.562039
0.566638
0.563558
0.5
0.5
0.5
0.5
0.562014
0.563055
0.566809
0.5797
0.529165
0.563774
0.500019
0.564905
0.506609
0.56314
0.5
0.5
0.564003
0.564447
0.566439
0.579684
0.565707
0.561925
0.58438
0.5
0.567603
0.573002
0.579886
0.5
0.5
0.5
0.5
0.567996
0.580136
0.569081
0.5
0.5
0.5
0.573175
0.584531
0.574208
0.5
0.564419
0.564193
0.5
0.56664
0.506457
0.506446
0.5
0.5
0.500031
0.562216
0.56483
0.565065
0.561911
0.577089
0.579501
0.506407
0.500024
0.57588
0.5
0.564097
0.500146
0.506398
0.578091
0.506363
0.511322
0.501382
0.563276
0.572615
0.5
0.500301
0.500016
0.563005
0.5
0.57332
0.500012
0.585558
0.5
0.5
0.5
0.570948
0.514858
0.500094
0.500134
0.567786
0.500008
0.574544
0.564371
0.500104
0.54769
0.564253
0.5
0.500006
0.562694
0.5
0.56683
0.563671
0.574649
0.573895
0.562687
0.562469
0.562514
0.5
0.500004
0.584362
0.500066
0.562821
0.5
0.5
0.500003
0.580595
0.573341
0.561878
0.566787
0.568527
0.5
0.5
0.500046
0.523777
0.5
0.5
0.562115
0.544439
0.554232
0.563712
0.535099
0.561972
0.562016
0.563657
0.576393
0.500002
0.561883
0.500001
0.5
0.5
0.574011
0.5
0.50646
0.565923
0.563177
0.574663
0.506446
0.567632
0.563855
0.576227
0.562777
0.5
0.5
0.50616
0.500032
0.5
0.50644
0.566319
0.566462
0.500269
0.506335
0.576054
0.563293
0.5
0.564553
0.56184
0.563821
0.5
0.500136
0.500048
0.562455
0.50694
0.566259
0.565216
0.5
0.561892
0.561827
0.56766
0.5
0.506345
0.563057
0.500028
0.572564
0.506816
0.537538
0.506102
0.568672
0.506258
0.506191
0.562314
0.506192
0.5
0.50027
0.500074
0.5
0.580212
0.561865
0.50007
0.5
0.560069
0.564909
0.573738
0.561983
0.506103
0.5
0.573515
0.523408
0.506109
0.582853
0.576222
0.500075
0.568831
0.5
0.564
0.5
0.506139
0.575201
0.566666
0.514601
0.564334
0.563827
0.5
0.500023
0.584877
0.574306
0.5
0.566061
0.562953
0.563545
0.509601
0.56716
0.562953
0.5
0.563206
0.566439
0.56642
0.577046
0.507799
0.5
0.567881
0.562116
0.562833
0.576717
0.563542
0.514627
0.5
0.576563
0.5
0.561378
0.5
0.562015
0.5
0.5
0.564139
0.567236
0.5
0.568657
0.564671
0.563189
0.5
0.5
0.568839
0.5
0.5
0.565552
0.57329
0.5
0.525166
0.50019
0.5
0.5
0.500378
0.506457
0.506477
0.531462
0.585829
0.565881
0.567269
0.575881
0.520619
0.506507
0.567148
0.561866
0.56847
0.500008
0.564677
0.506314
0.56473
0.567681
0.532086
0.5
0.569976
0.527138
0.576053
0.500016
0.5
0.567492
0.544002
0.56384
0.561893
0.506531
0.562695
0.5
0.538062
0.568651
0.567676
0.508107
0.526335
0.5
0.512084
0.5
0.565592
0.5
0.561954
0.561906
0.56181
0.5
0.5
0.511449
0.562258
0.500011
0.57689
0.532853
0.518064
0.538757
0.5191
0.5
0.550157
0.567635
0.556183
0.545079
0.575116
0.5
0.575352
0.570014
0.500005
0.57035
0.567669
0.565064
0.577209
0.569173
0.56733
0.565282
0.565317
0.506195
0.5
0.551525
0.5
0.561806
0.567066
0.5
0.5
0.506245
0.5
0.56568
0.568336
0.557343
0.565357
0.565315
0.56243
0.574873
0.5
0.5
0.570517
0.566244
0.566224
0.5
0.576552
0.576878
0.562804
0.568485
0.506378
0.5
0.5
0.553744
0.568162
0.569012
0.5
0.5
0.584804
0.570178
0.562247
0.562233
0.562203
0.5
0.566975
0.562543
0.5
0.56616
0.50019
0.57415
0.5
0.5
0.579689
0.577358
0.5
0.569165
0.5679
0.5
0.500031
0.570362
0.571006
0.50003
0.5
0.568676
0.571198
0.500011
0.5
0.57767
0.565984
0.5
0.565223
0.5
0.5
0.500023
0.500016
0.5
0.5
0.504756
0.570682
0.568332
0.564388
0.565514
0.5
0.567025
0.506282
0.506431
0.563469
0.563176
0.5
0.5
0.5
0.563882
0.571993
0.5
0.500051
0.5
0.56847
0.5
0.532375
0.5
0.50005
0.562591
0.506485
0.5
0.5
0.562387
0.562391
0.561907
0.5
0.57479
0.5
0.584421
0.58605
0.566141
0.570026
0.576911
0.5
0.573164
0.565214
0.500002
0.564292
0.566818
0.5
0.506501
0.500003
0.506219
0.585994
0.585995
0.584194
0.506217
0.578815
0.5
0.5
0.578485
0.562599
0.58442
0.570319
0.562222
0.506184
0.571116
0.577519
0.524629
0.506307
0.5
0.57156
0.528762
0.574893
0.5
0.56443
0.571197
0.569549
0.506164
0.561987
0.5
0.579375
0.570778
0.5
0.576725
0.503519
0.5
0.511621
0.5
0.5
0.532927
0.5
0.5
0.500062
0.5065
0.500004
0.570342
0.577827
0.500086
0.565337
0.5
0.567818
0.571018
0.509445
0.568386
0.568875
0.5
0.577977
0.5
0.564116
0.567991
0.564249
0.5
0.5
0.564146
0.564374
0.568445
0.575267
0.5
0.5
0.56599
0.568618
0.5
0.574061
0.5064
0.5
0.5
0.570515
0.5
0.57937
0.570856
0.5
0.500001
0.58276
0.5
0.569328
0.5
0.506658
0.569705
0.5
0.569914
0.5
0.57509
0.5
0.506161
0.575588
0.571187
0.584655
0.584815
0.575531
0.560414
0.5
0.562051
0.5
0.575599
0.5
0.566302
0.574648
0.5
0.5
0.568314
0.566315
0.5
0.565527
0.577362
0.567826
0.562128
0.562143
0.57751
0.577196
0.500002
0.566649
0.506489
0.500003
0.506398
0.5
0.565037
0.5
0.5
0.5
0.567653
0.5
0.511394
0.5
0.5
0.568407
0.5
0.565973
0.565395
0.565455
0.565483
0.5
0.509085
0.565992
0.5
0.506266
0.5
0.5
0.51889
0.575772
0.506478
0.567494
0.574064
0.564588
0.5
0.566319
0.5
0.564411
0.580608
0.5
0.500005
0.5
0.5
0.50354
0.503666
0.563052
0.506394
0.571024
0.506394
0.5
0.5
0.565495
0.5
0.575613
0.568867
0.563568
0.565158
0.565581
0.578134
0.564123
0.5
0.5
0.570505
0.506196
0.572947
0.561979
0.5
0.564867
0.568324
0.500001
0.568375
0.564731
0.579535
0.562704
0.566962
0.570109
0.50001
0.570534
0.569689
0.500005
0.50498
0.504836
0.571367
0.50001
0.5
0.5
0.567128
0.508684
0.5
0.561812
0.565346
0.5
0.500021
0.5
0.5
0.5
0.5
0.500047
0.506421
0.500044
0.582746
0.580269
0.5
0.5
0.500004
0.565703
0.5
0.584742
0.584529
0.575592
0.5
0.5
0.506583
0.5
0.529382
0.5
0.5
0.575525
0.575375
0.5
0.575373
0.575369
0.583134
0.56502
0.57139
0.584554
0.584529
0.5
0.5
0.579682
0.5
0.5
0.506393
0.581564
0.581724
0.562692
0.5
0.500005
0.5
0.578585
0.5
0.5
0.500001
0.5
0.5
0.568585
0.568853
0.579211
0.5
0.5
0.5
0.576517
0.576344
0.576382
0.508657
0.5
0.5
0.5
0.5
0.504819
0.572417
0.504966
0.515074
0.5
0.562983
0.5
0.579512
0.5
0.582484
0.582583
0.5
0.569779
0.5
0.566468
0.506286
0.5
0.568628
0.585387
0.506381
0.572379
0.575548
0.565019
0.562539
0.562362
0.585291
0.5
0.5
0.501367
0.524039
0.584636
0.5
0.501436
0.585993
0.584742
0.564863
0.5
0.5087
0.5
0.570002
0.583115
0.55751
0.570719
0.5
0.5
0.553501
0.5
0.5
0.5
0.570676
0.58456
0.5
0.5
0.5
0.5
0.5
0.5
0.563043
0.581862
0.582018
0.5
0.5
0.5
0.568539
0.564431
0.5
0.500045
0.5
0.500007
0.574384
0.570588
0.5
0.567318
0.574467
0.5
0.563628
0.5
0.575707
0.585944
0.566463
0.566475
0.575709
0.575697
0.500112
0.5
0.506447
0.506516
0.575366
0.5
0.5
0.578592
0.56229
0.500003
0.565669
0.5
0.5
0.570568
0.568289
0.571033
0.578285
0.5
0.5
0.5
0.5
0.506562
0.5
0.5
0.5
0.5
0.5
0.5
0.5
0.582605
0.562171
0.567264
0.506329
0.5
0.5
0.5
0.5
0.583977
0.5
0.5
0.524
0.5
0.5
0.5
0.506559
0.5
0.563595
0.575545
0.563003
0.563234
0.506297
0.5
0.5
0.571412
0.568143
0.5
0.575365
0.5
0.506436
0.5
0.5
0.564718
0.506449
0.575157
0.575625
0.581109
0.580989
0.5
0.564553
0.506568
0.5
0.506343
0.561947
0.5
0.5
0.570334
0.579519
0.575518
0.583306
0.569991
0.506512
0.569664
0.506913
0.506885
0.506329
0.569483
0.500003
0.506391
0.5
0.506372
0.53416
0.5
0.5
0.569479
0.571277
0.564719
0.506486
0.577966
0.5
0.564412
0.571608
0.571537
0.5
0.568647
0.5695
0.573077
0.574801
0.50663
0.5
0.567463
0.5
0.574711
0.506891
0.506867
0.572316
0.5
0.570657
0.5
0.572054
0.500067
0.500063
0.5
0.50654
0.5
0.506459
0.506548
0.5
0.569658
0.5
0.5
0.567639
0.56566
0.565802
0.578903
0.5
0.572482
0.568669
0.5
0.5
0.5
0.500001
0.5
0.506535
0.508867
0.506603
0.568995
0.567647
0.5
0.575196
0.575188
0.573637
0.500181
0.544121
0.5
0.5
0.5
0.503566
0.503682
0.5
0.5
0.5
0.506347
0.576349
0.5
0.5
0.5
0.576545
0.576502
0.5
0.5
0.5
0.5
0.5
0.507301
0.5
0.57842
0.506219
0.577018
0.577029
0.5
0.500015
0.5
0.5
0.581408
0.581563
0.579663
0.582641
0.582724
0.565834
0.500002
0.506441
0.57861
0.5
0.5
0.571189
0.5
0.584403
0.58438
0.585234
0.58504
0.501364
0.5
0.585513
0.511438
0.515106
0.506303
0.500001
0.572279
0.573866
0.5
0.583156
0.583108
0.501431
0.5
0.500985
0.585845
0.585839
0.5
0.500001
0.529461
0.5
0.501036
0.568303
0.5
0.565513
0.506506
0.5
0.562974
0.5
0.506672
0.506663
0.506569
0.5
0.508459
0.559182
0.581899
0.506556
0.562137
0.575353
0.538404
0.506301
0.5
0.5
0.5
0.562012
0.5
0.5
0.506283
0.567488
0.56731
0.5
0.5
0.586018
0.574997
0.500002
0.5
0.574269
0.573106
0.5
0.506507
0.50617
0.5
0.575901
0.565198
0.56489
0.53632
0.585842
0.578622
0.567852
0.56932
0.506421
0.506573
0.5
0.506211
0.506265
0.574621
0.5
0.567971
0.500065
0.506216
0.567098
0.572066
0.506218
0.5
0.506132
0.566161
0.5
0.567295
0.523367
0.500001
0.506567
0.567645
0.567626
0.5
0.58383
0.57489
0.506342
0.574827
0.5
0.568986
0.500001
0.550039
0.5
0.506164
0.506793
0.509051
0.5
0.583159
0.5
0.506136
0.5
0.506297
0.5
0.571786
0.554962
0.5
0.574974
0.58201
0.582153
0.513928
0.549178
0.506163
0.507564
0.574437
0.506415
0.50656
0.569287
0.5
0.500383
0.506206
0.506248
0.5
0.5
0.5
0.547574
0.5
0.567332
0.580839
0.580941
0.50652
0.506577
0.563443
0.50639
0.516276
0.5
0.500001
0.500007
0.537635
0.511063
0.5
0.506859
0.506529
0.574648
0.568439
0.530826
0.506162
0.57364
0.506198
0.579237
0.5
0.571808
0.5
0.506309
0.506316
0.570123
0.5
0.5
0.500001
0.507614
0.573445
0.506457
0.571098
0.577806
0.5
0.506527
0.560865
0.579203
0.5
0.544388
0.506216
0.506092
0.575874
0.575854
0.5
0.559062
0.506154
0.572901
0.500086
0.513979
0.56888
0.5
0.574541
0.506063
0.500081
0.572226
0.511041
0.500339
0.573687
0.500001
0.5
0.506488
0.506464
0.5
0.5
0.500184
0.544375
0.506497
0.5
0.506279
0.569323
0.579061
0.537443
0.5
0.5
0.521914
0.574178
0.5
0.51035
0.500001
0.506286
0.506372
0.570266
0.506477
0.500714
0.5
0.5
0.506646
0.5
0.506363
0.5
0.529613
0.50621
0.513252
0.554967
0.506157
0.5
0.506491
0.562392
0.508649
0.562613
0.506132
0.563438
0.573822
0.506399
0.569337
0.5
0.577167
0.577187
0.5
0.5
0.506452
0.570175
0.569837
0.581869
0.584031
0.520285
0.506254
0.517438
0.5
0.575335
0.506125
0.500064
0.578767
0.512827
0.510895
0.5
0.50648
0.56649
0.564592
0.506256
0.510881
0.511479
0.578895
0.563263
0.506094
0.536197
0.56804
0.568247
0.506621
0.566089
0.50608
0.57553
0.583298
0.583258
0.500006
0.578751
0.549651
0.543419
0.572912
0.574514
0.543714
0.569661
0.50609
0.500256
0.570856
0.549088
0.5272
0.506205
0.500002
0.55915
0.506552
0.5
0.585932
0.585922
0.568083
0.568014
0.50645
0.542899
0.5
0.519154
0.549252
0.563128
0.506345
0.575213
0.566604
0.500001
0.574755
0.5
0.5
0.56917
0.506461
0.500001
0.5
0.5
0.575742
0.554559
0.574464
0.57407
0.526109
0.52803
0.563063
0.54013
0.549464
0.508885
0.570509
0.506115
0.572175
0.547586
0.506429
0.50718
0.574284
0.512049
0.548749
0.50908
0.562
0.506282
0.542294
0.569249
0.568227
0.511242
0.500503
0.507044
0.5
0.5
0.517953
0.522875
0.52895
0.572888
0.50605
0.561691
0.506279
0.554442
0.5
0.535619
0.5
0.500128
0.500056
0.500001
0.506404
0.574774
0.514177
0.500007
0.559333
0.566406
0.566572
0.575615
0.549761
0.563617
0.500246
0.57129
0.57456
0.549859
0.575517
0.500061
0.506488
0.55909
0.50647
0.532442
0.506276
0.569877
0.57395
0.567478
0.56781
0.5
0.574532
0.574903
0.567627
0.500123
0.500484
0.506447
0.571727
0.506406
0.575598
0.575288
0.508977
0.549353
0.549661
0.530463
0.55981
0.573967
0.569564
0.58526
0.506248
0.585133
0.565842
0.500015
0.500005
0.500255
0.500002
0.585318
0.559656
0.585121
0.57144
0.572041
0.573616
0.575121
0.57127
0.569603
0.5
0.570911
0.506448
0.528743
0.573578
0.57093
0.575186
0.569073
0.500001
0.506064
0.568711
0.5
0.506225
0.562164
0.5
0.507067
0.574066
0.506167
0.57482
0.561971
0.5
0.506528
0.568213
0.575423
0.553691
0.575882
0.555111
0.57457
0.506089
0.57557
0.564908
0.526811
0.500001
0.500002
0.5
0.571121
0.575581
0.506374
0.574516
0.572018
0.574215
0.506299
0.575229
0.567876
0.575473
0.57551
0.566182
0.568269
0.575698
0.510999
0.529122
0.575485
0.574732
0.574252
0.500002
0.57423
0.5
0.564562
0.5
0.575412
0.554747
0.575366
0.521622
0.564493
0.56489
0.506481
0.5
0.573165
0.5
0.506495
0.5001
0.506308
0.575316
0.506362
0.506372
0.575559
0.564202
0.517345
0.500007
0.572889
0.500001
0.5
0.5
0.57556
0.50128
0.506609
0.564712
0.573814
0.555891
0.500003
0.575595
0.575645
0.506376
0.515093
0.562923
0.500004
0.506439
0.500002
0.575647
0.565938
0.567106
0.500006
0.574575
0.574014
0.506539
0.563936
0.562338
0.562734
0.575582
0.56518
0.5
0.570339
0.569843
0.581838
0.575476
0.564074
0.570094
0.575597
0.57521
0.506789
0.575533
0.574707
0.565364
0.5
0.564732
0.574668
0.500073
0.574991
0.571267
0.500003
0.534316
0.56802
0.5
0.568419
0.564389
0.500008
0.565928
0.578752
0.565575
0.575478
0.5
0.502602
0.5
0.523529
0.565386
0.50001
0.570691
0.500092
0.572979
0.500976
0.5
0.573187
0.5
0.574414
0.506439
0.500018
0.518806
0.500009
0.563177
0.574437
0.575439
0.5
0.571576
0.51959
0.565736
0.500013
0.562028
0.50001
0.50027
0.573878
0.564061
0.500155
0.57542
0.506488
0.575461
0.500941
0.500187
0.501865
0.506443
0.564372
0.501134
0.545646
0.501799
0.575559
0.500028
0.500739
0.569643
0.57514
0.567826
0.567309
0.566235
0.566429
0.57535
0.573223
0.500006
0.501044
0.562355
0.562333
0.566453
0.507493
0.565678
0.559699
0.573277
0.57543
0.555232
0.547624
0.566649
0.500008
0.505254
0.575533
0.502057
0.574096
0.562484
0.500162
0.574188
0.500145
0.500011
0.573427
0.565045
0.575306
0.563696
0.500057
0.575295
0.500106
0.500556
0.500307
0.575731
0.564764
0.575773
0.501993
0.573908
0.500105
0.572551
0.500223
0.575234
0.500022
0.561966
0.565372
0.500114
0.566022
0.56635
0.568125
0.500004
0.534811
0.500151
0.5
0.506246
0.573439
0.570691
0.57369
0.574556
0.500027
0.500222
0.550378
0.506875
0.50424
0.500227
0.574797
0.575475
0.574002
0.573408
0.500287
0.574714
0.50646
0.5
0.567393
0.527437
0.573256
0.566967
0.508537
0.500041
0.564243
0.503049
0.575058
0.500008
0.574916
0.500001
0.5
0.50021
0.56379
0.500447
0.503491
0.500082
0.562245
0.575669
0.573595
0.569679
0.57485
0.574069
0.500164
0.500125
0.561934
0.56194
0.566092
0.57474
0.573972
0.56333
0.563076
0.574423
0.5
0.568163
0.504805
0.575611
0.578912
0.578599
0.500834
0.570699
0.566676
0.500326
0.562528
0.568193
0.574254
0.56719
0.574375
0.525246
0.563057
0.562994
0.5
0.561786
0.569606
0.575618
0.5064
0.555616
0.566876
0.50087
0.565025
0.567775
0.573043
0.573973
0.567567
0.566795
0.500218
0.500002
0.56534
0.567953
0.5
0.50021
0.57414
0.57382
0.559741
0.500414
0.50269
0.500321
0.500637
0.574653
0.567999
0.501561
0.573443
0.574004
0.57892
0.574192
0.568407
0.568805
0.562108
0.501883
0.567165
0.564592
0.573784
0.562934
0.500145
0.503836
0.573609
0.57447
0.574441
0.500347
0.5
0.500604
0.500008
0.573723
0.57398
0.566819
0.564609
0.574102
0.562176
0.501879
0.508186
0.566361
0.561992
0.574351
0.575084
0.5753
0.573158
0.562145
0.501175
0.503371
0.561934
0.500436
0.541135
0.563108
0.500003
0.504454
0.563363
0.564638
0.501231
0.574159
0.500095
0.501667
0.564947
0.573626
0.504007
0.562189
0.509375
0.562722
0.566616
0.566595
0.572762
0.500011
0.569365
0.500589
0.564897
0.57336
0.541077
0.564776
0.501375
0.568588
0.509324
0.569395
0.56208
0.569508
0.564295
0.506913
0.561812
0.501599
0.565107
0.567429
0.567401
0.565287
0.500429
0.500014
0.564447
0.5
0.56479
0.500033
0.573621
0.572869
0.561898
0.562608
0.573225
0.562243
0.572516
0.515751
0.565248
0.565438
0.562672
0.579064
0.578611
0.570483
0.562461
0.512059
0.56546
0.566068
0.502238
0.56458
0.506128
0.565665
0.502426
0.500851
0.563517
0.565822
0.561769
0.572974
0.562845
0.566928
0.500705
0.570033
0.564754
0.501798
0.562544
0.507979
0.500093
0.572588
0.566018
0.562829
0.502178
0.566408
0.562239
0.569147
0.563383
0.565229
0.501647
0.572906
0.568004
0.56816