# vtk DataFile Version 1.0
unstructured grid
ascii
DATASET UNSTRUCTURED_GRID
points 13672 float
0.0796578 -0.059106 0
0.00128732 0.00159165 0
0.00227961 -0.00102548 0
0.0791586 -0.0598787 0
-0.0546216 0.01 0
0.000495206 0.025 0
0.0800549 -0.035 0
0.135172 -0.08 0
-0.0546216 -0.0451168 0
0.000495206 -0.0301168 0
0.0800549 -0.0901168 0
0.135172 -0.135117 0
-0.0546216 -0.0451168 -0.00551168
0.000495206 -0.0301168 -0.00551168
0.0800549 -0.0901168 -0.00551168
0.135172 -0.135117 -0.00551168
0.135172 -0.08 -0.00551168
0.0800549 -0.035 -0.00551168
0.000495206 0.025 -0.00551168
-0.0546216 0.01 -0.00551168
0.00128732 0.00159165 -0.00551168
0.00227961 -0.00102548 -0.00551168
0.0791586 -0.0598787 -0.00551168
0.0796578 -0.059106 -0.00551168
0.00165953 -0.000990923 0
0.00119576 -0.000874076 0
0.000866021 -0.000641801 0
0.000645147 -0.000349912 0
0.00052235 -1.7281e-05 0
0.00049972 0.000348016 0
0.000601632 0.000737716 0
0.000861774 0.0011403 0
0.00157235 0.00183217 0
0.00188647 0.00206725 0
0.00222612 0.00230203 0
0.00258713 0.00254351 0
0.00296826 0.00279524 0
0.00337118 0.00305664 0
0.00379785 0.00332658 0
0.00425045 0.00360349 0
0.00473139 0.00388521 0
0.0052432 0.00416895 0
0.0057881 0.00445204 0
0.00636753 0.00473281 0
0.00698281 0.00500961 0
0.00763526 0.00528058 0
0.00832616 0.00554366 0
0.00905691 0.00579603 0
0.00982918 0.00603333 0
0.0106445 0.00625033 0
0.0115038 0.00644128 0
0.0124073 0.00660297 0
0.0133543 0.00673414 0
0.0143444 0.00683382 0
0.0153769 0.00690031 0
0.0164512 0.00693173 0
0.0175666 0.00692547 0
0.0187219 0.00687822 0
0.0199156 0.00678477 0
0.0211454 0.00663864 0
0.0224084 0.00643275 0
0.0237018 0.00616676 0
0.0250249 0.00584739 0
0.026375 0.00547298 0
0.0277479 0.00503752 0
0.0291386 0.00453545 0
0.0305433 0.0039653 0
0.0319572 0.0033256 0
0.0333681 0.00260019 0
0.034775 0.00179799 0
0.0361793 0.000930615 0
0.0375798 3.12222e-06 0
0.0389689 -0.000988429 0
0.0403357 -0.00205109 0
0.041675 -0.00318283 0
0.0429849 -0.00437751 0
0.0442643 -0.00562904 0
0.0455126 -0.00693089 0
0.0467314 -0.00827518 0
0.0479204 -0.00965638 0
0.0490661 -0.0110799 0
0.0501515 -0.0125519 0
0.0511696 -0.0140695 0
0.0521492 -0.0156071 0
0.0531202 -0.0171411 0
0.0540851 -0.0186663 0
0.0550431 -0.0201798 0
0.0559923 -0.0216793 0
0.0569311 -0.0231626 0
0.0578582 -0.0246273 0
0.0587723 -0.0260715 0
0.0596721 -0.027493 0
0.0605563 -0.02889 0
0.0614241 -0.0302609 0
0.0622742 -0.0316042 0
0.063106 -0.0329183 0
0.0639186 -0.034202 0
0.0647113 -0.0354543 0
0.0654835 -0.0366743 0
0.0662345 -0.0378613 0
0.0669642 -0.0390145 0
0.0676726 -0.0401333 0
0.0683597 -0.0412172 0
0.0690246 -0.0422665 0
0.0696662 -0.0432819 0
0.0702841 -0.0442636 0
0.0708793 -0.0452111 0
0.0714538 -0.0461237 0
0.072009 -0.047001 0
0.0725452 -0.0478434 0
0.0730611 -0.0486524 0
0.073556 -0.0494294 0
0.0740291 -0.0501756 0
0.0744812 -0.0508916 0
0.0749138 -0.0515773 0
0.0753285 -0.0522331 0
0.0757266 -0.0528592 0
0.076109 -0.0534564 0
0.0764753 -0.0540264 0
0.0768243 -0.054571 0
0.0771553 -0.0550919 0
0.0774679 -0.0555901 0
0.0777617 -0.0560669 0
0.0780369 -0.056523 0
0.0782958 -0.0569578 0
0.0785421 -0.0573703 0
0.0787786 -0.0577603 0
0.0790073 -0.0581279 0
0.0792295 -0.058474 0
0.0794462 -0.0587995 0
0.0798803 -0.0594162 0
0.0800272 -0.0596588 0
0.0800357 -0.0598891 0
0.0799275 -0.0600784 0
0.0797205 -0.0601773 0
0.0794593 -0.0601051 0
0.0789155 -0.0596491 0
0.0786707 -0.0593963 0
0.0784111 -0.0591319 0
0.0781372 -0.0588542 0
0.0778566 -0.0585548 0
0.0775715 -0.0582308 0
0.0772803 -0.0578828 0
0.0769832 -0.0575099 0
0.0766822 -0.0571097 0
0.0763801 -0.0566796 0
0.0760759 -0.0562196 0
0.0757623 -0.0557337 0
0.0754359 -0.0552232 0
0.0750951 -0.0546879 0
0.0747379 -0.054128 0
0.0743626 -0.0535435 0
0.0739688 -0.0529338 0
0.0735559 -0.0522981 0
0.0731238 -0.0516357 0
0.0726718 -0.050946 0
0.0721991 -0.0502288 0
0.0717046 -0.049484 0
0.0711872 -0.0487117 0
0.0706461 -0.047912 0
0.0700804 -0.0470849 0
0.0694892 -0.0462308 0
0.0688718 -0.0453499 0
0.0682271 -0.0444431 0
0.0675544 -0.043511 0
0.0668527 -0.0425546 0
0.0661215 -0.0415748 0
0.06536 -0.040573 0
0.0645676 -0.0395504 0
0.0637439 -0.0385087 0
0.0628887 -0.0374493 0
0.062002 -0.0363741 0
0.0610838 -0.0352847 0
0.0601345 -0.0341831 0
0.0591547 -0.033071 0
0.0581456 -0.0319502 0
0.0571083 -0.0308224 0
0.0560444 -0.0296893 0
0.0549562 -0.028552 0
0.053845 -0.0274126 0
0.0527113 -0.0262746 0
0.051554 -0.0251427 0
0.0503724 -0.0240222 0
0.0491675 -0.0229164 0
0.047941 -0.0218282 0
0.0466955 -0.0207597 0
0.0454337 -0.0197126 0
0.0441592 -0.0186878 0
0.0428751 -0.0176863 0
0.0415841 -0.0167097 0
0.0402878 -0.0157609 0
0.0389879 -0.0148428 0
0.0376864 -0.0139575 0
0.0363853 -0.013107 0
0.0350871 -0.0122931 0
0.0337942 -0.0115164 0
0.0325095 -0.0107772 0
0.0312357 -0.0100756 0
0.0299758 -0.00941024 0
0.0287337 -0.00877784 0
0.0275126 -0.00817571 0
0.0263139 -0.00760375 0
0.0251376 -0.00706528 0
0.0239829 -0.0065649 0
0.0228537 -0.00609619 0
0.0217522 -0.00565563 0
0.0206795 -0.00524226 0
0.0196364 -0.00485507 0
0.0186233 -0.00449318 0
0.0176408 -0.00415577 0
0.016689 -0.00384204 0
0.0157682 -0.00355115 0
0.0148783 -0.00328218 0
0.0140192 -0.00303468 0
0.0131906 -0.00280795 0
0.0123925 -0.00260016 0
0.0116246 -0.00241012 0
0.0108864 -0.00223769 0
0.0101774 -0.00208212 0
0.00949701 -0.00194206 0
0.00884483 -0.0018163 0
0.0082202 -0.0017039 0
0.00762247 -0.00160391 0
0.00705097 -0.00151528 0
0.006505 -0.00143697 0
0.0059838 -0.00136806 0
0.00548662 -0.00130772 0
0.00501265 -0.00125519 0
0.00456114 -0.00120954 0
0.00413136 -0.00116914 0
0.00372257 -0.00113251 0
0.00333398 -0.00109853 0
0.00296466 -0.00106798 0
0.00261363 -0.0010431 0
-0.052721 -0.0445996 0
-0.0508204 -0.0440823 0
-0.0489199 -0.0435651 0
-0.0470193 -0.0430478 0
-0.0451187 -0.0425306 0
-0.0432181 -0.0420134 0
-0.0413175 -0.0414961 0
-0.039417 -0.0409789 0
-0.0375164 -0.0404616 0
-0.0356158 -0.0399444 0
-0.0337152 -0.0394271 0
-0.0318146 -0.0389099 0
-0.0299141 -0.0383927 0
-0.0280135 -0.0378754 0
-0.0261129 -0.0373582 0
-0.0242123 -0.0368409 0
-0.0223117 -0.0363237 0
-0.0204112 -0.0358065 0
-0.0185106 -0.0352892 0
-0.01661 -0.034772 0
-0.0147094 -0.0342547 0
-0.0128088 -0.0337375 0
-0.0109083 -0.0332202 0
-0.00900769 -0.032703 0
-0.00710711 -0.0321858 0
-0.00520653 -0.0316685 0
-0.00330595 -0.0311513 0
-0.00140537 -0.030634 0
0.00190689 -0.0299614 0
0.00332271 -0.0298498 0
0.00474133 -0.0297825 0
0.00616136 -0.0297597 0
0.0075814 -0.0297814 0
0.00900007 -0.0298477 0
0.010416 -0.0299583 0
0.0118278 -0.0301127 0
0.0132342 -0.0303103 0
0.0146339 -0.0305504 0
0.0160259 -0.0308322 0
0.0174091 -0.0311546 0
0.0187824 -0.0315166 0
0.020145 -0.031917 0
0.0214961 -0.0323546 0
0.0228351 -0.032828 0
0.0241613 -0.0333361 0
0.0254744 -0.0338774 0
0.0267738 -0.0344507 0
0.0280592 -0.0350545 0
0.0293306 -0.0356877 0
0.0305875 -0.0363488 0
0.0318301 -0.0370367 0
0.0330581 -0.0377501 0
0.0342717 -0.0384879 0
0.0354708 -0.0392489 0
0.0366556 -0.0400321 0
0.0378262 -0.0408363 0
0.0389828 -0.0416607 0
0.0401254 -0.0425042 0
0.0412543 -0.0433659 0
0.0423698 -0.0442451 0
0.043472 -0.0451408 0
0.0445612 -0.0460523 0
0.0456375 -0.0469789 0
0.0467013 -0.0479199 0
0.0477529 -0.0488746 0
0.0487923 -0.0498424 0
0.04982 -0.0508227 0
0.0508362 -0.051815 0
0.051841 -0.0528187 0
0.0528348 -0.0538333 0
0.0538178 -0.0548584 0
0.0547903 -0.0558935 0
0.0557524 -0.0569382 0
0.0567045 -0.0579922 0
0.0576467 -0.0590549 0
0.0585792 -0.0601261 0
0.0595024 -0.0612055 0
0.0604163 -0.0622926 0
0.0613212 -0.0633873 0
0.0622174 -0.0644891 0
0.0631049 -0.0655979 0
0.0639841 -0.0667134 0
0.064855 -0.0678353 0
0.0657179 -0.0689633 0
0.0665729 -0.0700974 0
0.0674202 -0.0712372 0
0.06826 -0.0723826 0
0.0690925 -0.0735333 0
0.0699178 -0.0746892 0
0.070736 -0.0758501 0
0.0715473 -0.0770159 0
0.0723518 -0.0781863 0
0.0731498 -0.0793612 0
0.0739412 -0.0805405 0
0.0747264 -0.081724 0
0.0755053 -0.0829116 0
0.0762781 -0.0841033 0
0.0770449 -0.0852987 0
0.0778059 -0.0864979 0
0.0785611 -0.0877007 0
0.0793108 -0.088907 0
0.0814681 -0.0912706 0
0.0828814 -0.0924245 0
0.0842946 -0.0935783 0
0.0857079 -0.0947322 0
0.0871211 -0.095886 0
0.0885344 -0.0970399 0
0.0899476 -0.0981937 0
0.0913609 -0.0993476 0
0.0927741 -0.100501 0
0.0941874 -0.101655 0
0.0956006 -0.102809 0
0.0970139 -0.103963 0
0.0984272 -0.105117 0
0.0998404 -0.106271 0
0.101254 -0.107424 0
0.102667 -0.108578 0
0.10408 -0.109732 0
0.105493 -0.110886 0
0.106907 -0.11204 0
0.10832 -0.113194 0
0.109733 -0.114348 0
0.111146 -0.115501 0
0.11256 -0.116655 0
0.113973 -0.117809 0
0.115386 -0.118963 0
0.116799 -0.120117 0
0.118213 -0.121271 0
0.119626 -0.122424 0
0.121039 -0.123578 0
0.122452 -0.124732 0
0.123866 -0.125886 0
0.125279 -0.12704 0
0.126692 -0.128194 0
0.128105 -0.129348 0
0.129519 -0.130501 0
0.130932 -0.131655 0
0.132345 -0.132809 0
0.133758 -0.133963 0
0.135172 -0.133216 0
0.135172 -0.131316 0
0.135172 -0.129415 0
0.135172 -0.127514 0
0.135172 -0.125614 0
0.135172 -0.123713 0
0.135172 -0.121813 0
0.135172 -0.119912 0
0.135172 -0.118012 0
0.135172 -0.116111 0
0.135172 -0.11421 0
0.135172 -0.11231 0
0.135172 -0.110409 0
0.135172 -0.108509 0
0.135172 -0.106608 0
0.135172 -0.104708 0
0.135172 -0.102807 0
0.135172 -0.100906 0
0.135172 -0.0990058 0
0.135172 -0.0971052 0
0.135172 -0.0952046 0
0.135172 -0.0933041 0
0.135172 -0.0914035 0
0.135172 -0.0895029 0
0.135172 -0.0876023 0
0.135172 -0.0857017 0
0.135172 -0.0838012 0
0.135172 -0.0819006 0
0.133758 -0.0788462 0
0.132345 -0.0776923 0
0.130932 -0.0765385 0
0.129519 -0.0753846 0
0.128105 -0.0742308 0
0.126692 -0.0730769 0
0.125279 -0.0719231 0
0.123866 -0.0707692 0
0.122452 -0.0696154 0
0.121039 -0.0684615 0
0.119626 -0.0673077 0
0.118213 -0.0661538 0
0.116799 -0.065 0
0.115386 -0.0638462 0
0.113973 -0.0626923 0
0.11256 -0.0615385 0
0.111146 -0.0603846 0
0.109733 -0.0592308 0
0.10832 -0.0580769 0
0.106907 -0.0569231 0
0.105493 -0.0557692 0
0.10408 -0.0546154 0
0.102667 -0.0534615 0
0.101254 -0.0523077 0
0.0998404 -0.0511538 0
0.0984272 -0.05 0
0.0970139 -0.0488462 0
0.0956006 -0.0476923 0
[...]
CELL_DATA 13116
SCALARS rho float
LOOKUP_TABLE default
0.597198
0.689798
0.400895
0.689547
0.692794
0.684887
0.364952
0.691135
0.59296
0.69416
0.366893
0.40924
0.692681
0.382161
0.404187
0.686067
0.608153
0.70002
0.692905
0.367041
0.597702
0.436204
0.396284
0.698806
0.5977
0.688078
0.694412
0.408708
0.597703
0.66874
0.802261
0.410644
0.596446
0.559389
0.365317
0.597644
0.70532
0.691674
0.680655
0.688967
0.681432
0.690745
0.591478
0.389915
0.689908
0.69311
0.682681
0.687966
0.427362
0.583114
0.690527
0.581641
0.366515
0.595731
0.597052
0.597702
0.388557
0.697927
0.58518
0.414552
0.38328
0.692402
0.68472
0.680693
0.72063
0.370199
0.687869
0.699996
0.687679
0.66574
0.404046
0.597319
0.434962
0.381195
1.11292
0.384416
0.684542
0.690924
0.365635
0.703232
0.705326
0.686776
0.698359
0.696526
0.687608
0.515995
0.362567
0.694445
0.688081
0.367838
0.402425
0.690389
0.698445
0.689006
0.689095
0.597702
0.5977
0.985553
1.04758
0.597703
0.735931
0.676945
0.689359
0.546803
0.682072
0.41451
0.488289
0.594952
0.402192
0.5977
0.597678
0.685113
0.5977
0.700316
0.70286
0.688616
0.366536
0.505075
0.689933
0.68883
0.700734
0.438486
0.687862
0.399882
0.689396
0.537136
0.363056
0.569594
0.396786
0.581422
0.689942
0.704873
0.549062
0.430975
0.538726
0.676334
1.12696
0.688943
0.742574
0.688786
0.68119
0.683017
0.571546
0.681262
0.683921
0.392039
0.3656
0.686367
0.693911
0.689928
0.576541
0.696981
0.686954
0.369091
0.695074
0.68771
0.40054
0.724636
0.985237
0.692671
0.698765
0.366623
0.696662
0.399741
0.435689
0.691859
0.689144
0.700519
0.365156
0.527771
0.512169
1.12683
0.401278
0.567241
0.688351
0.397187
0.415787
0.436296
0.684747
0.680856
0.367895
0.525378
0.597706
0.703332
0.680849
0.586856
0.36681
0.689149
0.681373
0.551823
0.685873
0.686054
0.660972
0.4062
0.684833
0.680389
0.695513
0.689358
0.688136
0.503459
0.549528
0.5977
0.567091
0.384738
0.692912
0.69516
0.584037
0.597704
0.405531
0.367881
0.381556
0.686557
0.403313
0.36756
0.367991
0.370288
0.498285
0.680734
0.689427
0.510719
0.386024
0.687756
0.59753
0.367876
0.575858
0.693183
0.683247
0.409903
0.688278
0.498547
0.690706
0.409218
0.662756
0.593729
1.09737
0.688567
0.67061
0.430619
0.535238
0.68457
1.12354
0.680566
1.127
0.67677
0.691316
0.419411
0.690153
0.694213
1.02805
0.366719
0.430404
0.696322
0.689857
0.662225
0.690363
0.597051
0.706478
0.367005
0.441199
0.513374
0.403586
0.679807
0.695617
0.683987
0.363767
0.688771
0.364782
0.512603
0.68224
0.367696
0.687466
0.690766
1.12561
0.697727
0.428893
1.12629
0.69679
1.01479
0.688824
0.365904
0.362762
0.405952
0.671448
0.435133
0.44267
0.478568
0.46719
0.690623
0.370535
0.687901
0.69225
0.36445
0.367795
0.363724
0.534742
0.40967
0.689828
0.675299
0.682912
0.367791
0.686106
0.59196
0.440404
0.414184
0.680299
0.689741
0.689386
0.366956
0.680883
0.547509
0.704216
0.690616
0.68973
0.690705
0.406245
0.688013
0.387702
0.688216
0.692727
0.614169
0.367994
0.476604
0.693589
0.363396
0.68468
0.692191
0.482148
0.709557
0.698257
0.362743
0.688862
0.69835
0.38414
0.689611
0.513717
0.585556
0.691705
0.516604
0.72033
0.36372
0.700617
0.479905
0.680344
0.676684
0.695556
0.408502
0.490204
0.687736
0.368415
0.69155
0.681947
0.522347
1.12692
0.368587
0.421808
0.689246
0.579102
0.699163
0.362527
0.40083
0.68998
0.692323
0.365789
0.69043
0.371905
0.418426
0.688665
0.691951
0.597717
0.367837
0.689024
0.751921
0.68565
0.688658
0.696033
0.578589
0.442048
0.398168
0.36798
0.683998
0.367998
0.597705
0.488255
0.40518
0.48698
0.597713
0.304475
0.367936
0.687711
0.395457
0.696527
0.597703
0.692376
0.677021
0.690425
0.422271
0.363181
0.51118
0.460058
0.690338
0.597699
0.687026
0.597703
0.685197
0.592779
0.686249
0.685123
0.662884
0.694702
0.703941
0.681316
0.517171
0.577365
0.597355
0.429731
0.674447
0.597701
0.365555
0.688403
1.12648
0.407171
0.367466
0.36783
0.367424
0.5977
0.379075
0.406161
0.687286
0.369722
0.594713
0.367948
0.686541
0.708663
0.413961
0.431164
0.689986
0.532269
0.367802
0.366645
0.367711
0.402892
0.363218
0.367608
0.445987
0.514997
0.367715
0.676493
0.433176
0.687366
0.4792
0.394237
0.543263
0.395574
0.367889
0.396563
0.688862
0.520291
0.5977
0.597674
0.367852
0.597705
0.687898
0.514391
0.710712
0.609362
0.650363
0.363683
1.06907
0.505933
0.696551
0.906789
0.405908
0.370457
0.681012
0.461976
0.515679
0.677306
0.487572
0.728301
0.684134
0.367871
0.412513
0.392467
0.565651
0.411266
0.376513
0.401281
0.385854
0.691045
0.690859
0.537916
0.597702
0.541217
0.684264
0.490357
0.37652
0.593889
0.406209
0.70119
0.453949
0.495691
0.546665
0.689982
0.688979
0.583157
0.478258
0.368417
0.58121
0.690979
0.668801
0.57966
0.681635
0.679389
0.367736
0.708257
0.592315
0.678924
0.474949
0.410523
0.699783
0.69601
0.673335
0.693224
0.686872
0.688766
0.699741
0.658045
0.691462
0.367515
0.689151
0.482552
0.410873
0.367776
0.689714
0.695155
0.472338
0.687332
0.5977
0.368006
0.679958
0.689262
0.694377
0.40815
0.374133
0.691341
0.367728
0.367819
0.404172
0.367756
0.699834
0.380747
0.688731
0.431748
0.690136
0.690353
0.687517
0.692474
0.367769
0.367915
0.697558
0.690529
0.693113
0.691186
0.694563
0.536479
0.362963
0.406865
0.685464
0.589324
0.367908
0.531679
0.404815
0.690709
0.688732
0.473868
0.439509
0.686977
0.519208
0.687757
0.597701
0.395279
0.497785
0.689062
1.12163
0.400265
0.688636
0.689095
0.69655
0.37784
1.1267
0.38492
1.09776
0.676974
0.367829
0.496275
0.443876
1.07732
0.402415
0.364427
0.507575
0.681008
0.699254
0.364796
0.437754
0.3678
0.679491
0.436696
0.680601
0.390187
0.597624
0.693236
0.483568
0.398647
0.397058
0.537609
0.406998
0.688469
0.368912
0.384213
0.681558
0.380416
0.686736
0.684431
1.04432
0.367773
0.700981
0.696753
0.695528
0.686181
0.691004
0.688645
0.403391
0.661393
0.512437
0.695829
0.365602
0.691106
0.584296
0.365183
0.757719
0.69422
0.368865
0.688594
0.403791
0.401437
0.687009
0.688698
0.40318
0.396316
0.36532
0.40443
0.690931
0.698715
0.375439
0.367759
0.691831
0.68874
0.597694
0.696685
0.688617
0.366866
0.695483
0.515431
0.690447
0.510841
0.597699
0.534088
0.687934
0.699926
0.592305
0.486688
0.407135
0.689074
0.597703
0.595632
0.696847
0.399045
0.702763
0.695173
0.500006
0.578618
0.696137
0.484819
0.682199
0.688663
0.474532
0.689347
0.686958
0.411569
0.700766
0.40579
0.687273
0.386738
0.686485
0.683822
0.408413
0.680615
0.696772
0.692008
0.5977
0.70536
0.59264
0.464075
0.543357
0.389714
0.380561
1.12678
0.577771
0.688504
0.693775
0.367832
0.451642
0.707019
0.693179
0.689514
0.690948
0.367404
0.70449
0.693892
0.367246
0.394389
0.690056
0.696029
0.686984
0.409832
0.594263
0.415231
0.701949
0.684831
0.663298
0.691892
0.367809
0.698075
0.687601
0.698494
0.68862
0.680359
0.511716
0.695513
0.367812
0.680196
0.69397
0.527778
0.685952
0.673809
0.690266
0.558061
0.524628
0.59394
0.598734
0.36779
0.367826
0.367715
0.367831
0.691292
0.706152
0.675353
0.469742
0.367532
0.687692
0.718163
0.381836
0.455285
0.532198
0.700405
0.689305
0.688349
0.700494
0.367979
0.367856
1.12684
0.401122
0.36762
0.371765
0.686093
0.414229
0.367989
0.597703
0.69687
0.684196
0.680355
0.689086
0.366951
0.389736
0.367848
0.597711
0.520588
0.407971
0.697689
0.701705
0.686355
0.685893
0.410694
0.367708
0.693365
0.36796
0.680508
0.683549
0.888616
0.403142
0.367756
0.686397
0.775762
0.647711
0.38203
0.687901
0.680854
0.597704
0.689905
0.691018
1.12694
0.681289
0.367596
0.68892
0.691288
0.679413
0.699227
1.12685
0.68532
1.12672
0.688567
0.382657
0.399683
0.367691
0.760182
0.586716
0.367936
0.706404
0.692507
0.409863
0.691758
0.416559
0.687202
0.597691
0.43052
0.693024
0.70011
0.367878
0.572392
0.748005
0.389847
0.689002
0.374503
0.413246
0.595181
0.5977
0.543091
0.689751
0.367703
0.696478
0.409813
0.413776
0.686618
0.367895
0.597702
0.405484
0.689558
0.5977
1.12675
0.688996
0.39833
0.387161
0.678056
0.595125
0.690252
0.564522
0.5977
0.685336
0.698575
0.59598
0.597701
0.684634
0.695336
0.688126
0.482882
0.367858
0.570108
0.684787
0.695483
0.502545
0.689864
0.64324
0.509515
0.404171
0.641211
0.70342
1.12698
1.0964
0.676793
0.696961
0.680444
0.709178
0.407267
0.637502
0.531053
0.689505
0.695528
0.466906
0.691677
0.692813
0.406206
0.42333
0.363247
1.12687
0.366573
0.597366
0.694393
0.613375
0.453886
0.690041
0.38539
0.594743
0.680553
0.667844
0.695721
0.680173
0.5977
0.708087
0.594163
0.694919
0.386539
0.680263
0.68728
0.590163
1.1256
0.704816
0.40642
0.399973
0.390907
0.689816
0.367838
1.12576
0.367823
0.691191
0.372026
0.534425
0.401023
0.696663
0.690794
0.596424
0.450442
0.5977
0.680721
0.367819
0.5977
0.690943
0.409686
0.597701
0.925445
0.693252
0.680711
0.406604
0.59562
0.690215
0.694907
0.68063
0.367718
0.520902
0.688017
1.12695
1.12191
1.12695
0.597702
0.705032
0.597704
0.689299
0.367772
0.386243
1.12691
0.692938
0.680933
0.372797
0.680371
0.597702
0.596453
0.393049
0.507063
0.690656
0.688813
0.590004
0.452048
0.685367
1.12293
0.365232
0.5977
0.700233
0.3653
0.392455
0.389748
0.681903
0.442874
0.36757
0.688805
0.566927
0.695355
0.693219
0.364951
0.363063
0.69149
0.401492
0.379636
0.774815
0.42294
0.493257
0.5977
0.691043
0.702172
0.367685
0.422581
0.366823
0.684289
0.415993
0.701441
0.379921
0.705859
0.689663
0.688688
0.68247
0.698367
0.684438
0.689215
0.692511
0.69167
0.37833
0.3678
0.693866
0.680426
0.544448
0.682481
0.59427
0.680632
0.67838
0.412545
0.688774
0.691854
0.693594
0.366693
0.69899
0.416727
0.697578
0.53748
0.701748
0.686135
0.43199
0.691418
0.36775
0.557047
0.685277
0.373884
0.716684
1.12679
0.691445
0.367662
0.687401
0.367948
0.402677
0.405142
0.367923
0.677038
0.403817
0.682652
0.676328
0.455381
0.406186
0.534837
0.593689
0.596353
0.68084
0.367739
0.364788
0.365847
0.399661
0.447073
0.646064
0.685631
0.40957
0.680467
0.693451
0.387518
0.692176
0.721882
0.679577
0.367366
1.11487
0.704241
0.694863
0.689383
0.411197
0.701684
0.694023
0.699924
0.586033
0.680685
0.444724
0.405566
0.69546
0.566813
0.3678
0.686682
0.403381
0.5865
0.691403
0.687075
0.687124
0.405046
0.682156
0.510259
0.366848
0.707911
0.692125
0.694371
0.690088
0.697709
0.402571
0.69262
0.412311
0.543351
0.691962
1.05464
0.689678
0.366839
0.436163
0.69386
0.450826
0.691367
0.597701
0.520761
0.460878
0.688742
0.406293
0.686132
0.69134
0.690763
0.405867
0.402617
0.564277
0.593231
0.58866
0.554368
0.682698
0.681062
0.687878
1.12682
0.706295
0.364328
0.4577
0.690957
0.680751
0.680191
0.525835
0.381925
0.706592
0.397892
0.688723
0.5977
0.437652
0.692241
0.367134
0.689908
0.403162
0.694149
0.425936
0.699283
0.680846
0.401885
0.689371
0.606266
0.376285
0.673841
0.69016
0.595309
0.393276
0.498572
0.55493
0.696426
0.677934
0.447891
0.592878
0.702271
0.681423
0.455277
0.682238
0.691062
0.517828
0.681713
0.687978
0.465121
0.688714
0.955485
0.398692
0.597704
0.367685
0.685185
0.367956
0.414654
0.696416
0.367806
0.367841
0.395273
0.687739
0.686134
0.523502
0.686041
0.4962
0.69445
0.367958
0.689054
0.492261
0.686778
0.692874
0.685724
0.675537
0.573977
0.680883
0.679523
0.405807
0.5977
0.688957
0.5977
0.706188
0.537938
0.537783
0.69262
0.367751
0.594718
0.41819
0.687612
0.376677
0.406055
0.700235
0.688912
0.36788
0.689353
0.702519
1.12683
0.690996
1.09701
0.367783
0.692437
0.367597
0.401732
0.688592
0.699558
0.690752
0.687285
0.408257
0.368373
0.366544
0.690069
0.674799
0.496646
0.691412
0.369963
0.368417
0.387111
0.687681
0.509428
0.692621
0.691307
0.5977
0.688615
0.694515
0.597701
0.683082
0.51359
0.376389
0.367885
1.1011
1.12298
0.375086
0.668722
0.680763
0.683961
0.405977
0.561815
0.681556
0.433464
0.680334
0.676406
0.367526
0.680849
0.692091
0.36791
0.701791
0.376736
0.688314
0.695918
0.698274
0.400195
0.525378
0.716563
0.469362
0.516162
0.68859
0.47409
0.680871
0.687995
0.686979
0.70289
0.446487
0.795196
0.707853
0.693892
0.490268
0.690202
0.419368
0.389099
0.687257
0.6891
0.676364
0.394287
0.686128
0.5977
1.11376
0.366393
0.371487
0.367806
0.689625
0.365554
0.380461
0.408843
0.675751
0.379289
0.465892
0.51589
0.700795
0.367858
0.664717
0.680893
0.689017
0.367776
0.687606
0.676948
0.680014
0.508684
0.592893
0.365807
0.367756
0.687343
0.367851
0.692351
0.704172
1.12688
0.367694
0.477139
0.368024
0.580402
1.12705
0.395084
0.692519
0.687622
0.701871
0.368135
0.409707
0.48186
0.679396
0.367831
1.12687
0.597703
0.680922
0.688204
0.366176
0.691152
0.404008
0.674983
0.597703
0.693202
0.67272
0.597699
0.675171
0.68058
0.690963
0.367819
0.477994
0.3729
0.702066
0.590339
1.0514
0.367691
0.510254
0.696546
0.688317
0.670822
0.367855
0.689039
0.579355
0.582618
0.678402
0.405264
0.367778
0.466518
0.689005
0.677212
0.589443
0.683656
0.481512
0.691579
0.591834
0.678651
0.677177
0.691132
0.692199
0.680854
0.698169
0.694773
0.406803
0.688586
0.690374
0.68146
0.689015
0.689215
0.673635
0.367861
0.41822
0.679418
0.367763
0.449063
0.688989
0.39399
0.5977
0.687593
0.688529
0.694084
0.407436
0.689018
0.405708
0.380991
0.682462
0.703943
0.685894
0.368074
0.6907
0.689411
0.67905
0.689272
0.428874
0.680499
0.693783
0.693278
0.50625
0.699814
0.367281
0.688319
0.378687
0.367848
0.609661
0.528595
0.693038
0.697137
0.680649
0.40935
0.680585
0.526388
0.397286
0.686891
0.534388
0.367765
0.683798
0.427762
0.548667
0.699746
0.682296
0.686879
0.536276
0.597415
0.679405
0.680949
0.674951
0.694325
0.567906
0.688685
0.683307
0.674254
0.408715
0.365909
0.526479
0.68994
0.406224
0.685771
0.68948
0.5977
0.682181
0.597702
0.714656
0.709135
0.367212
0.68918
0.681671
0.597698
0.681963
0.692998
0.688541
0.680651
0.368115
0.389264
0.697323
0.592404
0.597701
0.688675
0.698542
0.685187
0.695969
0.695643
0.595688
0.680782
0.693229
0.38882
0.418618
0.379166
0.428862
1.12597
0.542445
0.597704
0.694382
0.701538
0.40335
0.69468
0.688549
0.368294
0.498381
1.12342
0.688877
0.407118
0.41099
0.40442
1.12683
0.688365
0.508802
0.364449
0.367525
0.422414
0.478452
0.367815
0.691077
0.690437
0.707112
0.367768
0.688897
0.588184
0.597702
0.468595
0.367018
0.686567
1.12665
0.367998
0.685519
0.367925
0.699562
0.406393
0.688936
0.367138
0.686408
0.690927
0.368105
0.583719
0.454534
0.692172
0.420611
0.624964
0.401868
0.577359
0.366006
0.617347
0.367751
0.668963
0.664307
0.597702
0.697466
0.471641
0.688929
0.680822
0.690378
0.590977
0.69622
0.367277
0.56064
0.37335
0.69793
0.457151
0.692906
0.58005
0.700235
0.69317
0.59758
0.695054
0.398609
0.378864
0.388301
0.573795
0.641556
0.698495
0.367891
0.438376
0.686759
0.500813
0.406729
0.667555
0.497812
0.367985
0.417189
0.690499
0.597703
0.655719
0.391026
0.687431
0.688856
0.407556
0.478085
0.687679
0.688907
0.674516
0.552226
0.508966
0.490419
0.368368
0.690895
0.678652
0.591313
0.708575
0.409795
0.597704
0.366891
0.702752
0.692503
0.367585
0.448335
0.679815
0.664185
0.69235
0.694505
0.695636
0.689417
0.692067
0.372671
0.43324
0.374893
0.366068
0.596316
0.863727
0.597586
0.367055
0.367824
0.564649
0.398388
0.685505
0.682071
0.367959
0.472723
0.687575
0.399764
0.67872
0.696249
0.684311
0.68044
0.597641
0.367858
0.365187
0.680026
0.367595
0.549219
0.519527
0.680855
0.688838
0.458408
0.367543
1.12682
0.36785
0.688311
0.698016
0.367751
0.408096
0.369766
0.687335
0.367917
1.12685
0.69531
0.597704
0.411103
0.564863
0.691176
0.689827
0.365062
0.690798
0.6801
0.397963
0.689897
0.687909
0.366776
0.367806
0.685995
0.367863
0.365952
0.6907
0.486022
0.696432
0.714626
0.698655
0.681771
0.693031
0.687754
0.680956
0.366218
0.506522
0.681139
0.700284
0.524228
0.692658
0.480719
0.68849
0.686989
0.597603
0.676711
0.559788
0.533173
0.695337
0.69275
0.682684
0.690578
0.686607
1.1267
0.690815
1.12677
0.69071
0.687606
0.690748
1.12667
0.68091
0.395667
0.687043
0.404192
0.688718
0.688619
0.697191
0.683933
0.703516
0.402751
0.368423
0.472578
0.365426
0.68411
0.36679
0.367353
0.702339
0.410249
0.698258
0.368003
0.690263
0.700692
0.367793
0.499928
0.440705
0.689578
0.387665
0.698087
0.692453
0.369561
0.686167
0.585331
0.456136
0.407355
0.404509
0.708784
0.367835
0.689177
0.597703
0.460026
0.68973
0.682165
0.695863
0.367944
0.597702
0.403693
0.689433
0.680407
0.688649
0.367896
0.699639
0.688739
0.683346
0.516888
0.689557
0.367917
0.367778
0.688601
0.539577
0.694835
0.548889
0.367939
0.518172
0.684159
0.403148
0.389113
0.389386
0.596309
1.07927
0.694514
0.38338
0.592374
0.686845
0.57916
0.575529
0.433045
0.586384
0.367888
0.3674
0.694687
0.367837
0.367725
0.689978
0.690542
0.370535
0.701362
0.373916
1.12573
0.409927
0.687858
0.666424
0.702543
0.680874
0.416455
0.367357
0.406412
0.682266
0.687
0.596954
0.585993
0.495214
0.466925
0.680723
0.366515
0.695574
0.495879
0.653826
0.701275
0.365438
0.393168
0.367754
0.367561
0.397855
0.679722
0.684553
0.367535
0.687669
0.66587
0.465049
0.3986
0.690753
0.367833
0.699348
0.512029
0.702519
0.678701
0.687347
1.03455
0.392878
0.695633
0.688795
0.690545
0.367775
0.678534
0.597703
0.446509
0.689912
0.684232
0.689873
0.686606
0.692127
0.688721
0.690642
0.68374
0.690677
0.367618
0.697305
0.367767
0.569771
0.688614
0.406411
0.68665
0.680002
0.434107
0.683062
0.367793
0.401999
0.688511
0.678552
0.690795
0.367814
0.68568
0.5977
0.409546
0.367815
0.689186
0.688848
0.498502
0.400304
0.695253
0.690619
0.367967
0.674283
0.692027
0.597703
0.364786
0.367931
0.407656
0.678107
0.427675
0.691748
0.702577
0.680704
0.665504
0.697717
0.367892
0.687116
0.5977
0.690878
0.67193
0.406646
0.365771
0.411997
0.69831
0.689898
0.510272
0.67819
0.424719
0.68571
0.688819
0.40144
0.680024
0.692197
0.591927
0.367813
0.363104
0.430533
0.691108
0.694729
0.5977
0.552409
0.691238
0.367955
0.593109
1.122
0.700005
0.36784
0.5977
0.437928
0.681756
0.417293
0.696904
0.688725
0.389009
0.690307
0.588765
1.12657
0.694139
1.12685
0.68961
0.53723
0.680849
0.682722
0.688714
0.697676
0.530297
1.12512
0.375317
0.68489
0.409524
0.368075
0.420427
0.396274
0.367876
0.367803
0.691838
0.492782
0.383799
0.696485
0.690797
0.684925
0.51505
0.704333
0.710027
0.680568
0.408552
0.673458
0.68809
0.442915
0.400879
0.367357
0.591039
0.546648
0.367718
0.677032
0.411294
1.06038
0.543403
0.364183
0.532157
0.67426
0.435891
0.688566
0.404307
0.597701
0.496426
0.690817
0.503143
0.695787
1.125
0.6795
0.577967
0.367983
0.690956
0.691373
0.405355
0.402232
0.684246
0.367666
0.700501
0.367772
0.584785
0.410157
0.687744
0.433217
0.691306
0.368033
0.688705
0.690883
0.69288
1.12573
0.374703
0.401468
0.510882
0.689067
0.70621
0.683664
0.65396
0.435009
0.694718
0.434749
0.686269
0.676181
0.540288
0.460197
0.6962
0.69593
0.401486
0.705807
0.691268
0.695204
0.698637
0.406948
0.59202
0.367776
0.694451
0.428997
0.680136
0.685835
0.691058
0.691412
0.46345
0.690051
0.367833
0.367166
0.688319
1.12426
0.594537
0.697415
1.12658
0.367868
0.700892
0.690169
0.690931
0.403272
0.524022
0.706539
0.366289
0.688682
0.689319
0.687209
0.690552
0.450364
0.556407
0.610181
0.392191
0.686987
0.691118
0.565773
0.688424
0.454084
0.680143
0.700599
0.722194
0.689134
0.363052
0.40643
0.69879
0.689416
0.427453
0.478568
0.426743
0.397321
0.382824
0.374793
0.410353
0.367773
0.699207
0.408463
0.36537
0.694269
0.595348
1.12692
0.507768
0.36762
0.687128
0.556331
0.597712
0.695194
0.49967
0.630795
0.666486
0.5977
0.690102
0.386216
0.692319
0.680645
0.374299
0.367721
0.54115
0.679623
0.5977
0.692434
0.687226
0.701127
0.691448
0.476578
0.688894
0.680835
0.689924
0.367957
0.687775
0.675267
0.471253
0.522019
0.368633
0.401809
0.383222
0.5977
0.703266
0.695093
0.367592
0.503966
0.691487
0.406399
0.692523
0.684184
0.687747
0.722721
0.690013
0.439451
0.402659
0.405738
0.5977
0.425915
0.68603
0.40714
0.687529
0.68334
0.688306
0.424748
0.550592
0.531701
0.693772
0.395738
0.367172
0.689038
0.689882
0.684039
0.685996
0.689306
0.700608
0.367885
0.5977
0.69387
0.562512
0.69849
0.693155
0.697599
0.519456
0.509589
0.690767
0.541921
0.684714
0.367913
0.682693
0.687587
0.507225
0.428487
0.68898
0.567656
0.692939
0.692405
0.367795
0.367572
0.932017
0.579257
0.524047
0.687896
0.689238
0.440753
0.688397
0.929842
0.684003
0.36779
0.5977
0.367897
0.688109
0.692196
0.700013
0.6943
0.834017
0.468071
0.493428
0.70215
0.367722
0.597701
0.454231
0.687415
0.389644
0.686236
0.694188
0.968432
0.36788
1.12688
1.11219
0.366609
0.682729
0.41089
0.690676
0.367978
0.365737
0.398381
0.705221
0.688754
0.476214
0.470995
0.686655
0.692161
0.536049
0.70466
0.367783
0.597397
0.367773
0.698436
0.367113
0.701142
0.688911
0.408423
0.576321
0.366352
0.674739
0.380872