# vtk DataFile Version 1.0
unstructured grid
ascii
DATASET UNSTRUCTURED_GRID
points 13672 float
0.0796578 -0.059106 0
0.00128732 0.00159165 0
0.00227961 -0.00102548 0
0.0791586 -0.0598787 0
-0.0546216 0.01 0
0.000495206 0.025 0
0.0800549 -0.035 0
0.135172 -0.08 0
-0.0546216 -0.0451168 0
0.000495206 -0.0301168 0
0.0800549 -0.0901168 0
0.135172 -0.135117 0
-0.0546216 -0.0451168 -0.00551168
0.000495206 -0.0301168 -0.00551168
0.0800549 -0.0901168 -0.00551168
0.135172 -0.135117 -0.00551168
0.135172 -0.08 -0.00551168
0.0800549 -0.035 -0.00551168
0.000495206 0.025 -0.00551168
-0.0546216 0.01 -0.00551168
0.00128732 0.00159165 -0.00551168
0.00227961 -0.00102548 -0.00551168
0.0791586 -0.0598787 -0.00551168
0.0796578 -0.059106 -0.00551168
0.00165953 -0.000990923 0
0.00119576 -0.000874076 0
0.000866021 -0.000641801 0
0.000645147 -0.000349912 0
0.00052235 -1.7281e-05 0
0.00049972 0.000348016 0
0.000601632 0.000737716 0
0.000861774 0.0011403 0
0.00157235 0.00183217 0
0.00188647 0.00206725 0
0.00222612 0.00230203 0
0.00258713 0.00254351 0
0.00296826 0.00279524 0
0.00337118 0.00305664 0
0.00379785 0.00332658 0
0.00425045 0.00360349 0
0.00473139 0.00388521 0
0.0052432 0.00416895 0
0.0057881 0.00445204 0
0.00636753 0.00473281 0
0.00698281 0.00500961 0
0.00763526 0.00528058 0
0.00832616 0.00554366 0
0.00905691 0.00579603 0
0.00982918 0.00603333 0
0.0106445 0.00625033 0
0.0115038 0.00644128 0
0.0124073 0.00660297 0
0.0133543 0.00673414 0
0.0143444 0.00683382 0
0.0153769 0.00690031 0
0.0164512 0.00693173 0
0.0175666 0.00692547 0
0.0187219 0.00687822 0
0.0199156 0.00678477 0
0.0211454 0.00663864 0
0.0224084 0.00643275 0
0.0237018 0.00616676 0
0.0250249 0.00584739 0
0.026375 0.00547298 0
0.0277479 0.00503752 0
0.0291386 0.00453545 0
0.0305433 0.0039653 0
0.0319572 0.0033256 0
0.0333681 0.00260019 0
0.034775 0.00179799 0
0.0361793 0.000930615 0
0.0375798 3.12222e-06 0
0.0389689 -0.000988429 0
0.0403357 -0.00205109 0
0.041675 -0.00318283 0
0.0429849 -0.00437751 0
0.0442643 -0.00562904 0
0.0455126 -0.00693089 0
0.0467314 -0.00827518 0
0.0479204 -0.00965638 0
0.0490661 -0.0110799 0
0.0501515 -0.0125519 0
0.0511696 -0.0140695 0
0.0521492 -0.0156071 0
0.0531202 -0.0171411 0
0.0540851 -0.0186663 0
0.0550431 -0.0201798 0
0.0559923 -0.0216793 0
0.0569311 -0.0231626 0
0.0578582 -0.0246273 0
0.0587723 -0.0260715 0
0.0596721 -0.027493 0
0.0605563 -0.02889 0
0.0614241 -0.0302609 0
0.0622742 -0.0316042 0
0.063106 -0.0329183 0
0.0639186 -0.034202 0
0.0647113 -0.0354543 0
0.0654835 -0.0366743 0
0.0662345 -0.0378613 0
0.0669642 -0.0390145 0
0.0676726 -0.0401333 0
0.0683597 -0.0412172 0
0.0690246 -0.0422665 0
0.0696662 -0.0432819 0
0.0702841 -0.0442636 0
0.0708793 -0.0452111 0
0.0714538 -0.0461237 0
0.072009 -0.047001 0
0.0725452 -0.0478434 0
0.0730611 -0.0486524 0
0.073556 -0.0494294 0
0.0740291 -0.0501756 0
0.0744812 -0.0508916 0
0.0749138 -0.0515773 0
0.0753285 -0.0522331 0
0.0757266 -0.0528592 0
0.076109 -0.0534564 0
0.0764753 -0.0540264 0
0.0768243 -0.054571 0
0.0771553 -0.0550919 0
0.0774679 -0.0555901 0
0.0777617 -0.0560669 0
0.0780369 -0.056523 0
0.0782958 -0.0569578 0
0.0785421 -0.0573703 0
0.0787786 -0.0577603 0
0.0790073 -0.0581279 0
0.0792295 -0.058474 0
0.0794462 -0.0587995 0
0.0798803 -0.0594162 0
0.0800272 -0.0596588 0
0.0800357 -0.0598891 0
0.0799275 -0.0600784 0
0.0797205 -0.0601773 0
0.0794593 -0.0601051 0
0.0789155 -0.0596491 0
0.0786707 -0.0593963 0
0.0784111 -0.0591319 0
0.0781372 -0.0588542 0
0.0778566 -0.0585548 0
0.0775715 -0.0582308 0
0.0772803 -0.0578828 0
0.0769832 -0.0575099 0
0.0766822 -0.0571097 0
0.0763801 -0.0566796 0
0.0760759 -0.0562196 0
0.0757623 -0.0557337 0
0.0754359 -0.0552232 0
0.0750951 -0.0546879 0
0.0747379 -0.054128 0
0.0743626 -0.0535435 0
0.0739688 -0.0529338 0
0.0735559 -0.0522981 0
0.0731238 -0.0516357 0
0.0726718 -0.050946 0
0.0721991 -0.0502288 0
0.0717046 -0.049484 0
0.0711872 -0.0487117 0
0.0706461 -0.047912 0
0.0700804 -0.0470849 0
0.0694892 -0.0462308 0
0.0688718 -0.0453499 0
0.0682271 -0.0444431 0
0.0675544 -0.043511 0
0.0668527 -0.0425546 0
0.0661215 -0.0415748 0
0.06536 -0.040573 0
0.0645676 -0.0395504 0
0.0637439 -0.0385087 0
0.0628887 -0.0374493 0
0.062002 -0.0363741 0
0.0610838 -0.0352847 0
0.0601345 -0.0341831 0
0.0591547 -0.033071 0
0.0581456 -0.0319502 0
0.0571083 -0.0308224 0
0.0560444 -0.0296893 0
0.0549562 -0.028552 0
0.053845 -0.0274126 0
0.0527113 -0.0262746 0
0.051554 -0.0251427 0
0.0503724 -0.0240222 0
0.0491675 -0.0229164 0
0.047941 -0.0218282 0
0.0466955 -0.0207597 0
0.0454337 -0.0197126 0
0.0441592 -0.0186878 0
0.0428751 -0.0176863 0
0.0415841 -0.0167097 0
0.0402878 -0.0157609 0
0.0389879 -0.0148428 0
0.0376864 -0.0139575 0
0.0363853 -0.013107 0
0.0350871 -0.0122931 0
0.0337942 -0.0115164 0
0.0325095 -0.0107772 0
0.0312357 -0.0100756 0
0.0299758 -0.00941024 0
0.0287337 -0.00877784 0
0.0275126 -0.00817571 0
0.0263139 -0.00760375 0
0.0251376 -0.00706528 0
0.0239829 -0.0065649 0
0.0228537 -0.00609619 0
0.0217522 -0.00565563 0
0.0206795 -0.00524226 0
0.0196364 -0.00485507 0
0.0186233 -0.00449318 0
0.0176408 -0.00415577 0
0.016689 -0.00384204 0
0.0157682 -0.00355115 0
0.0148783 -0.00328218 0
0.0140192 -0.00303468 0
0.0131906 -0.00280795 0
0.0123925 -0.00260016 0
0.0116246 -0.00241012 0
0.0108864 -0.00223769 0
0.0101774 -0.00208212 0
0.00949701 -0.00194206 0
0.00884483 -0.0018163 0
0.0082202 -0.0017039 0
0.00762247 -0.00160391 0
0.00705097 -0.00151528 0
0.006505 -0.00143697 0
0.0059838 -0.00136806 0
0.00548662 -0.00130772 0
0.00501265 -0.00125519 0
0.00456114 -0.00120954 0
0.00413136 -0.00116914 0
0.00372257 -0.00113251 0
0.00333398 -0.00109853 0
0.00296466 -0.00106798 0
0.00261363 -0.0010431 0
-0.052721 -0.0445996 0
-0.0508204 -0.0440823 0
-0.0489199 -0.0435651 0
-0.0470193 -0.0430478 0
-0.0451187 -0.0425306 0
-0.0432181 -0.0420134 0
-0.0413175 -0.0414961 0
-0.039417 -0.0409789 0
-0.0375164 -0.0404616 0
-0.0356158 -0.0399444 0
-0.0337152 -0.0394271 0
-0.0318146 -0.0389099 0
-0.0299141 -0.0383927 0
-0.0280135 -0.0378754 0
-0.0261129 -0.0373582 0
-0.0242123 -0.0368409 0
-0.0223117 -0.0363237 0
-0.0204112 -0.0358065 0
-0.0185106 -0.0352892 0
-0.01661 -0.034772 0
-0.0147094 -0.0342547 0
-0.0128088 -0.0337375 0
-0.0109083 -0.0332202 0
-0.00900769 -0.032703 0
-0.00710711 -0.0321858 0
-0.00520653 -0.0316685 0
-0.00330595 -0.0311513 0
-0.00140537 -0.030634 0
0.00190689 -0.0299614 0
0.00332271 -0.0298498 0
0.00474133 -0.0297825 0
0.00616136 -0.0297597 0
0.0075814 -0.0297814 0
0.00900007 -0.0298477 0
0.010416 -0.0299583 0
0.0118278 -0.0301127 0
0.0132342 -0.0303103 0
0.0146339 -0.0305504 0
0.0160259 -0.0308322 0
0.0174091 -0.0311546 0
0.0187824 -0.0315166 0
0.020145 -0.031917 0
0.0214961 -0.0323546 0
0.0228351 -0.032828 0
0.0241613 -0.0333361 0
0.0254744 -0.0338774 0
0.0267738 -0.0344507 0
0.0280592 -0.0350545 0
0.0293306 -0.0356877 0
0.0305875 -0.0363488 0
0.0318301 -0.0370367 0
0.0330581 -0.0377501 0
0.0342717 -0.0384879 0
0.0354708 -0.0392489 0
0.0366556 -0.0400321 0
0.0378262 -0.0408363 0
0.0389828 -0.0416607 0
0.0401254 -0.0425042 0
0.0412543 -0.0433659 0
0.0423698 -0.0442451 0
0.043472 -0.0451408 0
0.0445612 -0.0460523 0
0.0456375 -0.0469789 0
0.0467013 -0.0479199 0
0.0477529 -0.0488746 0
0.0487923 -0.0498424 0
0.04982 -0.0508227 0
0.0508362 -0.051815 0
0.051841 -0.0528187 0
0.0528348 -0.0538333 0
0.0538178 -0.0548584 0
0.0547903 -0.0558935 0
0.0557524 -0.0569382 0
0.0567045 -0.0579922 0
0.0576467 -0.0590549 0
0.0585792 -0.0601261 0
0.0595024 -0.0612055 0
0.0604163 -0.0622926 0
0.0613212 -0.0633873 0
0.0622174 -0.0644891 0
0.0631049 -0.0655979 0
0.0639841 -0.0667134 0
0.064855 -0.0678353 0
0.0657179 -0.0689633 0
0.0665729 -0.0700974 0
0.0674202 -0.0712372 0
0.06826 -0.0723826 0
0.0690925 -0.0735333 0
0.0699178 -0.0746892 0
0.070736 -0.0758501 0
0.0715473 -0.0770159 0
0.0723518 -0.0781863 0
0.0731498 -0.0793612 0
0.0739412 -0.0805405 0
0.0747264 -0.081724 0
0.0755053 -0.0829116 0
0.0762781 -0.0841033 0
0.0770449 -0.0852987 0
0.0778059 -0.0864979 0
0.0785611 -0.0877007 0
0.0793108 -0.088907 0
0.0814681 -0.0912706 0
0.0828814 -0.0924245 0
0.0842946 -0.0935783 0
0.0857079 -0.0947322 0
0.0871211 -0.095886 0
0.0885344 -0.0970399 0
0.0899476 -0.0981937 0
0.0913609 -0.0993476 0
0.0927741 -0.100501 0
0.0941874 -0.101655 0
0.0956006 -0.102809 0
0.0970139 -0.103963 0
0.0984272 -0.105117 0
0.0998404 -0.106271 0
0.101254 -0.107424 0
0.102667 -0.108578 0
0.10408 -0.109732 0
0.105493 -0.110886 0
0.106907 -0.11204 0
0.10832 -0.113194 0
0.109733 -0.114348 0
0.111146 -0.115501 0
0.11256 -0.116655 0
0.113973 -0.117809 0
0.115386 -0.118963 0
0.116799 -0.120117 0
0.118213 -0.121271 0
0.119626 -0.122424 0
0.121039 -0.123578 0
0.122452 -0.124732 0
0.123866 -0.125886 0
0.125279 -0.12704 0
0.126692 -0.128194 0
0.128105 -0.129348 0
0.129519 -0.130501 0
0.130932 -0.131655 0
0.132345 -0.132809 0
0.133758 -0.133963 0
0.135172 -0.133216 0
0.135172 -0.131316 0
0.135172 -0.129415 0
0.135172 -0.127514 0
0.135172 -0.125614 0
0.135172 -0.123713 0
0.135172 -0.121813 0
0.135172 -0.119912 0
0.135172 -0.118012 0
0.135172 -0.116111 0
0.135172 -0.11421 0
0.135172 -0.11231 0
0.135172 -0.110409 0
0.135172 -0.108509 0
0.135172 -0.106608 0
0.135172 -0.104708 0
0.135172 -0.102807 0
0.135172 -0.100906 0
0.135172 -0.0990058 0
0.135172 -0.0971052 0
0.135172 -0.0952046 0
0.135172 -0.0933041 0
0.135172 -0.0914035 0
0.135172 -0.0895029 0
0.135172 -0.0876023 0
0.135172 -0.0857017 0
0.135172 -0.0838012 0
0.135172 -0.0819006 0
0.133758 -0.0788462 0
0.132345 -0.0776923 0
0.130932 -0.0765385 0
0.129519 -0.0753846 0
0.128105 -0.0742308 0
0.126692 -0.0730769 0
0.125279 -0.0719231 0
0.123866 -0.0707692 0
0.122452 -0.0696154 0
0.121039 -0.0684615 0
0.119626 -0.0673077 0
0.118213 -0.0661538 0
0.116799 -0.065 0
0.115386 -0.0638462 0
0.113973 -0.0626923 0
0.11256 -0.0615385 0
0.111146 -0.0603846 0
0.109733 -0.0592308 0
0.10832 -0.0580769 0
0.106907 -0.0569231 0
0.105493 -0.0557692 0
0.10408 -0.0546154 0
0.102667 -0.0534615 0
0.101254 -0.0523077 0
0.0998404 -0.0511538 0
0.0984272 -0.05 0
0.0970139 -0.0488462 0
0.0956006 -0.0476923 0
[...]
CELL_DATA 13116
SCALARS rho float
LOOKUP_TABLE default
0.630954
0.698737
0.329528
0.701353
0.701831
0.697302
0.332477
0.701952
0.571062
0.701628
0.338136
0.294867
0.701854
0.321382
0.313307
0.697194
0.625338
0.704108
0.692135
0.352387
0.632239
0.326109
0.320138
0.70371
0.665356
0.700376
0.701622
0.327944
0.65797
0.698108
1.13539
0.29694
0.637844
0.460055
0.330663
0.629678
0.711054
0.694095
0.669993
0.699378
0.692266
0.702055
0.481203
0.332907
0.692262
0.69223
0.699433
0.692727
0.316915
0.525785
0.700892
0.478034
0.328923
0.617186
0.634827
0.654159
0.333815
0.704399
0.611212
0.308095
0.322146
0.701659
0.698341
0.678969
1.11486
0.340687
0.695869
0.708877
0.69532
1.06911
0.314708
0.647546
0.327909
0.336908
1.14537
0.333192
0.701977
0.701671
0.340164
0.706103
0.709119
0.700709
0.70345
0.693773
0.701616
0.417198
0.34195
0.707492
0.700867
0.355051
0.299826
0.698266
0.702993
0.70127
0.705125
0.66928
0.667467
1.14021
1.14494
0.655561
0.707667
0.697769
0.691916
0.428103
0.699626
0.278319
0.360441
0.516626
0.326423
0.665427
0.549445
0.700202
0.667142
0.708139
0.70562
0.697723
0.33665
0.394608
0.70212
0.698573
0.708545
0.330701
0.696166
0.299321
0.70158
0.442487
0.340303
0.506918
0.329098
0.524672
0.701904
0.706116
0.476903
0.321467
0.458244
0.667293
1.13171
0.698775
0.707659
0.698698
0.698305
0.699343
0.507555
0.699965
0.700347
0.292036
0.331266
0.70043
0.702036
0.700627
0.649865
0.693554
0.69273
0.336434
0.702096
0.701466
0.317714
0.70676
1.14335
0.707073
0.703894
0.338732
0.703444
0.321876
0.331968
0.701866
0.701185
0.704381
0.331215
0.438418
0.409612
1.13266
0.311709
0.493642
0.697059
0.317643
0.319837
0.327537
0.700087
0.692504
0.348014
0.428839
0.589472
0.710781
0.692554
0.598887
0.341912
0.694343
0.699306
0.46199
0.707193
0.700246
1.01545
0.310722
0.699637
0.693034
0.702992
0.692613
0.700826
0.383986
0.42983
0.668667
0.501878
0.332159
0.703797
0.693624
0.48481
0.674778
0.299171
0.342222
0.334415
0.693774
0.3175
0.353651
0.349325
0.336109
0.381061
0.672724
0.701525
0.397985
0.335163
0.695818
0.542102
0.347768
0.641483
0.701571
0.700826
0.328248
0.696584
0.381158
0.702991
0.298231
1.01744
0.643103
1.13785
0.700052
0.901247
0.307683
0.437514
0.706067
1.14656
0.692855
1.13274
0.84639
0.701761
0.320462
0.699831
0.70162
1.14337
0.335146
0.318533
0.693399
0.701237
1.09573
0.696316
0.623346
0.70668
0.33919
0.31086
0.389366
0.298097
0.699166
0.702988
0.701426
0.344371
0.700509
0.344761
0.412185
0.699734
0.338217
0.700734
0.701394
1.14587
0.704401
0.307718
1.14565
0.707965
1.143
0.698782
0.344442
0.348013
0.313972
0.664513
0.329842
0.326585
0.338031
0.335579
0.695397
0.323483
0.700738
0.701907
0.346184
0.35064
0.345709
0.445155
0.330025
0.707386
0.688647
0.700217
0.338792
0.692114
0.644546
0.308149
0.309211
0.682069
0.700831
0.691763
0.341624
0.692979
0.438424
0.702371
0.701849
0.700052
0.701807
0.31239
0.696007
0.310087
0.697159
0.70073
0.70402
0.356114
0.333916
0.701523
0.346166
0.70032
0.701687
0.350426
0.70696
0.703554
0.347684
0.699434
0.703036
0.302268
0.70111
0.408717
0.640392
0.702827
0.410261
0.706804
0.345885
0.70436
0.336523
0.743989
0.696471
0.702783
0.327036
0.366528
0.701412
0.335913
0.703993
0.699381
0.423016
1.13355
0.340018
0.325797
0.704238
0.645081
0.709544
0.346915
0.319493
0.699769
0.701902
0.332706
0.7012
0.333092
0.284741
0.698805
0.702422
0.531201
0.363157
0.699338
1.13306
0.696321
0.701879
0.704044
0.653385
0.340207
0.30345
0.34867
0.695602
0.348654
0.588398
0.354095
0.305776
0.358453
0.539135
0.116139
0.336856
0.700047
0.30015
0.703174
0.658023
0.69229
0.703638
0.700107
0.326139
0.349122
0.391698
0.342753
0.705491
0.665334
0.692063
0.658421
0.700531
0.684454
0.700608
0.697687
0.697141
0.704593
0.706468
0.695765
0.393775
0.48529
0.627126
0.32471
0.686254
0.655292
0.330935
0.696923
1.14568
0.314
0.354382
0.355962
0.342524
0.671936
0.323296
0.311233
0.695573
0.342588
0.643442
0.360279
0.692703
0.711935
0.331385
0.322244
0.704644
0.442411
0.36349
0.343387
0.354689
0.325847
0.349239
0.354553
0.330126
0.416351
0.345833
0.697174
0.335156
0.701087
0.354992
0.298644
0.49226
0.268528
0.353302
0.276934
0.700578
0.424079
0.681624
0.530949
0.343483
0.677262
0.700966
0.41508
0.707187
0.691003
0.693296
0.348797
1.14455
0.396682
0.703736
1.14181
0.321551
0.322974
0.699231
0.343807
0.410974
0.697586
0.359452
0.706837
0.699582
0.349542
0.319811
0.314896
0.489049
0.309502
0.317226
0.312993
0.310634
0.701635
0.701552
0.450646
0.656996
0.462525
0.699701
0.364151
0.328002
0.593245
0.322121
0.694033
0.302487
0.378529
0.473683
0.692267
0.700967
0.642434
0.348954
0.324863
0.64372
0.701808
0.9417
0.643902
0.699151
0.699058
0.348874
0.712071
0.642468
0.70541
0.340189
0.330202
0.708289
0.703113
0.702371
0.701569
0.700977
0.700544
0.704231
0.703797
0.692159
0.348752
0.692122
0.33604
0.299104
0.354934
0.701361
0.693412
0.333352
0.701622
0.66752
0.356486
0.759885
0.700525
0.706476
0.327712
0.329169
0.702713
0.364371
0.36222
0.270898
0.350342
0.695079
0.311135
0.700974
0.334361
0.699011
0.700681
0.694651
0.701939
0.364938
0.350408
0.693896
0.703483
0.715407
0.701655
0.701732
0.485249
0.347916
0.323186
0.692537
0.573269
0.357106
0.4425
0.304759
0.701798
0.699428
0.338923
0.327493
0.701341
0.416541
0.698105
0.694184
0.329858
0.380938
0.713747
1.14513
0.323127
0.700838
0.701265
0.693819
0.332376
1.13409
0.335572
1.13643
0.704465
0.36478
0.376523
0.327597
1.13678
0.326817
0.338256
0.398424
0.683271
0.708791
0.338526
0.308795
0.352769
0.73571
0.32902
0.692883
0.299949
0.648646
0.70157
0.358989
0.321874
0.320826
0.495372
0.3241
0.700962
0.340263
0.325085
0.690309
0.318071
0.694864
0.700062
1.13633
0.352764
0.694004
0.702993
0.70294
0.692407
0.702057
0.698745
0.29195
1.03983
0.404409
0.694808
0.346622
0.701652
0.517795
0.329464
1.13638
0.703036
0.332391
0.699843
0.300394
0.316076
0.694992
0.700969
0.304363
0.28753
0.339245
0.288065
0.701989
0.703549
0.332467
0.348108
0.704049
0.69854
0.649449
0.702993
0.698664
0.339262
0.702707
0.415709
0.70076
0.400939
0.661529
0.451205
0.696176
0.709283
0.644128
0.35608
0.326446
0.696389
0.658591
0.613617
0.703064
0.300814
0.709242
0.702329
0.357159
0.482693
0.702965
0.350441
1.11222
0.706578
0.329773
0.699301
0.703946
0.328215
0.709599
0.313131
0.701018
0.334146
0.693354
0.698374
0.326238
0.675946
0.703291
0.702904
0.668793
0.710071
0.644986
0.337059
0.434366
0.298898
0.335867
1.13105
0.643779
0.698107
0.702159
0.349559
0.335983
0.711447
0.701561
0.704957
0.701492
0.353741
0.706241
0.701589
0.352783
0.295636
0.70248
0.693151
0.701416
0.285546
0.648809
0.331769
0.710076
0.700673
0.979008
0.697284
0.35497
0.695504
0.700835
0.703145
0.700678
0.692431
0.398307
0.704295
0.342146
0.700195
0.701537
0.438058
0.699836
0.881428
0.700591
0.439868
0.413505
0.646494
0.696722
0.363682
0.364889
0.338443
0.345765
0.699301
0.709574
0.874705
0.337424
0.3435
0.694639
0.707029
0.307049
0.336817
0.445015
0.714757
0.694172
0.701887
0.705842
0.343107
0.363733
1.14347
0.29893
0.353182
0.338761
0.691896
0.331224
0.364387
0.650986
0.694137
0.700032
0.690118
0.691975
0.337523
0.315526
0.339646
0.54264
0.425077
0.29926
0.709362
0.706326
0.700574
0.69235
0.291958
0.355774
0.701554
0.358382
0.692437
0.698227
1.14161
0.304406
0.355378
0.701048
1.1357
0.650532
0.309074
0.701017
0.693598
0.649312
0.700526
0.70147
1.14507
0.699253
0.354584
0.692292
1.11042
0.696939
0.709644
1.13107
0.700439
1.13462
0.698612
0.324897
0.322728
0.356727
1.13417
0.522108
0.359277
0.710963
0.703942
0.29444
0.705411
0.332471
0.709356
0.523895
0.312669
0.701647
0.703751
0.357708
0.633689
1.13176
0.332715
0.701412
0.33642
0.274269
0.682643
0.663376
0.478284
0.691919
0.338119
0.703464
0.320878
0.291305
0.694291
0.356442
0.671053
0.304377
0.705786
0.661331
1.13544
0.700921
0.307073
0.324408
0.699778
0.487577
0.705389
0.471162
0.664645
0.696367
0.70322
0.495305
0.663655
0.69993
0.702895
0.69689
0.342799
0.366241
0.627157
0.699778
0.702997
0.37566
0.69184
0.652012
0.389905
0.30419
0.705054
0.71377
1.1332
1.1368
0.698003
0.708141
0.673024
0.709874
0.302571
0.700338
0.442851
0.699759
0.693
0.332611
0.701534
0.701865
0.324535
0.305795
0.346441
1.13075
0.339392
0.680392
0.705728
0.700303
0.317469
0.694615
0.329033
0.648744
0.712429
0.958529
0.709438
0.738798
0.672818
0.709418
0.56554
0.694776
0.334345
0.691968
0.694219
0.47359
1.13555
0.709891
0.315115
0.303846
0.332359
0.700181
0.366183
1.13694
0.340294
0.701814
0.322136
0.450187
0.300981
0.703901
0.701315
0.620293
0.308278
0.674749
0.674378
0.343458
0.649734
0.701559
0.298287
0.655296
1.142
0.701561
0.692437
0.320231
0.513384
0.70462
0.69228
0.700564
0.360782
0.409371
0.69758
1.13723
1.14525
1.13291
0.623564
0.707728
0.61923
0.699218
0.361233
0.329322
1.13296
0.701841
0.668643
0.339513
0.691988
0.635512
0.678588
0.331534
0.401629
0.701328
0.701411
0.641345
0.341944
0.692124
1.13595
0.33288
0.665334
0.706212
0.332567
0.298392
0.310404
0.698619
0.329538
0.349307
0.700842
0.476234
0.702761
0.709342
0.330806
0.348592
0.701687
0.324505
0.323713
1.13649
0.293237
0.369616
0.658072
0.702143
0.694958
0.343466
0.334803
0.337024
0.699731
0.276668
0.696121
0.3205
0.710498
0.700491
0.691997
0.699781
0.696107
0.70057
0.695052
0.701899
0.701254
0.315369
0.340216
0.69865
0.677986
0.519783
0.699647
0.642422
0.680567
0.696496
0.330745
0.698451
0.701628
0.694831
0.334506
0.694813
0.330513
0.693854
0.49883
0.705427
0.692401
0.31422
0.705919
0.353885
0.454182
0.698501
0.337743
0.707107
1.1304
0.701891
0.341561
0.695735
0.344835
0.303261
0.306046
0.349411
0.696572
0.310087
0.698797
0.791442
0.34289
0.310938
0.448821
0.645151
0.691777
0.699576
0.352248
0.344377
0.333502
0.302259
0.306864
0.695125
0.700502
0.32849
0.729113
0.706097
0.31191
0.70134
0.706856
0.738377
0.337466
1.13923
0.709963
0.704026
0.699965
0.310829
0.701462
0.703057
0.693964
0.704334
0.691155
0.326322
0.307661
0.693215
0.605452
0.358739
0.694199
0.31057
0.639893
0.698857
0.701072
0.701133
0.301701
0.699562
0.385808
0.334696
0.706897
0.703083
0.702796
0.699749
0.714316
0.303699
0.701854
0.306795
0.515709
0.701858
1.14549
0.704859
0.335359
0.306167
0.701514
0.31876
0.702927
0.68982
0.422919
0.335739
0.699141
0.304608
0.692498
0.703418
0.71409
0.305096
0.322749
0.499433
0.551197
0.687654
0.471391
0.690631
0.699536
0.700978
1.12871
0.711294
0.330675
0.334503
0.701877
0.690877
0.700969
0.4352
0.334295
0.712102
0.310817
0.698896
0.666286
0.338673
0.706008
0.345694
0.701683
0.329276
0.701984
0.307242
0.694001
0.692323
0.295284
0.701593
0.696569
0.29826
0.879227
0.692134
0.64194
0.269009
0.367741
0.46692
0.702965
0.699383
0.336981
0.646923
0.709698
0.690292
0.319099
0.686767
0.695783
0.424213
0.690883
0.697978
0.328445
0.69722
1.14087
0.329962
0.669704
0.343601
0.70644
0.339191
0.283237
0.703135
0.349687
0.352477
0.308748
0.695928
0.697456
0.400467
0.692086
0.36745
0.704229
0.346035
0.697353
0.358338
0.696858
0.693204
0.709606
0.904191
0.637409
0.692365
0.740687
0.328428
0.682975
0.714428
0.569312
0.711048
0.473696
0.419728
0.701844
0.345848
0.64229
0.333318
0.692024
0.317109
0.310441
0.703964
0.695749
0.350239
0.699359
0.706476
1.13175
0.701367
1.13685
0.354959
0.701309
0.352674
0.31932
0.701179
0.705331
0.701912
0.701213
0.29848
0.338253
0.336171
0.698129
0.81249
0.365554
0.702319
0.339455
0.339634
0.33266
0.70089
0.40006
0.701793
0.702643
0.680883
0.701084
0.699036
0.651618
0.701054
0.41469
0.298355
0.350541
1.13683
1.13669
0.337416
0.696619
0.697664
0.702002
0.320451
0.44429
0.699415
0.280184
0.699711
0.689477
0.353616
0.675128
0.698968
0.359733
0.694022
0.323649
0.697845
0.702155
0.695889
0.308834
0.428926
0.707198
0.330539
0.416377
0.702112
0.33695
0.683298
0.696172
0.70063
0.706467
0.342339
1.13536
0.706893
0.692174
0.362201
0.700364
0.321502
0.280395
0.697748
0.696373
0.792046
0.237714
0.692122
0.680161
1.14583
0.34318
0.332317
0.364607
0.69918
0.333954
0.318941
0.328144
0.687785
0.321293
0.332551
0.418281
0.694733
0.355546
0.929284
0.676987
0.699521
0.341217
0.693253
0.701919
0.750106
0.404786
0.702702
0.330689
0.345427
0.69575
0.350605
0.700308
0.710514
1.13505
0.35405
0.334581
0.333285
0.642053
1.1321
0.242029
0.693889
0.6959
0.705749
0.344201
0.30632
0.341604
0.698832
0.359091
1.12913
0.660947
0.677449
0.695243
0.344114
0.701937
0.294875
0.689234
0.691125
0.70147
0.676701
0.576372
0.70522
0.70095
0.701589
0.343803
0.353058
0.341349
0.705898
0.606138
1.14523
0.354171
0.404666
0.704101
0.693015
1.04867
0.350843
0.699278
0.642748
0.64074
0.69925
0.324462
0.351493
0.330211
0.698235
0.814271
0.702406
0.699593
0.343581
0.701907
0.700097
0.797888
0.818749
0.701676
0.701624
0.693319
0.705893
0.702994
0.321326
0.697463
0.699936
0.691477
0.700222
0.695654
0.663412
0.35581
0.282518
0.699806
0.357264
0.342199
0.699567
0.318961
0.680742
0.694455
0.698364
0.694306
0.31746
0.699848
0.306703
0.331779
0.693423
0.700941
0.692341
0.340566
0.700974
0.692
0.700373
0.691877
0.323894
0.691628
0.70151
0.69909
0.384764
0.704489
0.338859
0.700826
0.335997
0.355805
0.628081
0.438755
0.701613
0.703924
0.692468
0.327605
0.691503
0.4034
0.315916
0.700717
0.486752
0.35749
0.6922
0.294903
0.533353
0.708248
0.699245
0.701108
0.465661
0.656431
0.705303
0.692469
0.664371
0.702651
0.612262
0.701704
0.699241
0.700266
0.2881
0.339895
0.434998
0.699738
0.315968
0.706265
0.699595
0.670072
0.692401
0.603808
0.707364
0.709774
0.337005
0.699164
0.699371
0.586028
0.699716
0.701606
0.701021
0.680136
0.344276
0.323148
0.695088
0.615463
0.621725
0.698457
0.693864
0.69224
0.70315
0.70261
0.683948
0.699583
0.701218
0.314596
0.294465
0.315554
0.335407
1.14251
0.455973
0.611381
0.706123
0.70892
0.320628
0.694105
0.701352
0.340864
0.384019
1.13855
0.69935
0.324427
0.287087
0.273192
1.12757
0.700778
0.389557
0.330374
0.3533
0.290138
0.346414
0.360799
0.702811
0.692918
0.711438
0.342342
0.698237
0.683242
0.664048
0.34012
0.353837
0.700686
1.1319
0.362246
0.693164
0.359125
0.703926
0.321591
0.699634
0.346146
0.700333
0.701474
0.341068
0.639658
0.330424
0.701207
0.290951
0.688496
0.31057
0.5119
0.331357
0.681923
0.344037
1.00626
0.984169
0.663024
0.69687
0.341378
0.696925
0.676296
0.70115
0.680321
0.707259
0.353992
0.440626
0.340123
0.703091
0.305512
0.701891
0.647147
0.705538
0.701595
0.51662
0.704275
0.316413
0.332247
0.317755
0.509923
0.634306
0.69387
0.339595
0.324614
0.694742
0.363584
0.303587
0.657492
0.382039
0.363703
0.283621
0.70199
0.695051
0.691709
0.327605
0.697747
0.699607
0.294967
0.330277
0.700975
0.691488
0.687885
0.540662
0.388949
0.362053
0.337474
0.702066
0.699612
0.559178
0.706797
0.301433
0.648835
0.343937
1.11853
0.701693
0.354154
0.317851
0.701374
0.653296
0.701858
0.702937
0.702932
0.699904
0.701922
0.336055
0.325751
0.340308
0.346065
0.627667
1.14391
0.696349
0.350974
0.352708
0.468004
0.297753
0.692269
0.699236
0.349548
0.338974
0.694626
0.324671
0.705323
0.703392
0.699856
0.691164
0.634588
0.361908
0.346327
0.699561
0.354241
0.443281
0.396032
0.670669
0.70132
0.321138
0.354114
1.13629
0.343627
0.698471
0.703051
0.355895
0.324935
0.323819
0.692985
0.334191
1.1303
0.708866
0.673366
0.289904
0.589254
0.702277
0.694365
0.335413
0.695376
0.699623
0.301065
0.702827
0.701742
0.335749
0.352206
0.700979
0.34097
0.346871
0.696157
0.343059
0.693053
0.707397
0.703178
0.697796
0.701866
0.695516
0.688022
0.335566
0.398526
0.702207
0.694626
0.428897
0.701527
0.345773
0.698344
0.701249
0.645484
0.701222
0.439791
0.445497
0.693973
0.702376
0.699091
0.701408
0.692505
1.13696
0.701358
1.13426
0.70216
0.700705
0.701675
1.13264
0.691889
0.299968
0.70078
0.32812
0.699204
0.697787
0.704663
0.700263
0.706632
0.325097
0.335266
0.334394
0.336784
0.699347
0.348743
0.336943
0.708858
0.289853
0.706422
0.337467
0.695497
0.700987
0.349602
0.365338
0.339673
0.69931
0.33386
0.693816
0.706261
0.332415
0.700798
0.642101
0.345073
0.327029
0.294373
0.706073
0.353422
0.699177
0.600106
0.33418
0.691479
0.692175
0.702949
0.359429
0.653339
0.306476
0.698119
0.688623
0.698095
0.3663
0.694843
0.698571
0.700166
0.412675
0.699304
0.361893
0.34808
0.699984
0.450935
0.701688
0.427834
0.365544
0.422603
0.700704
0.326904
0.301425
0.333186
0.523316
1.14339
0.705849
0.301775
0.677868
0.692393
0.642974
0.467345
0.337539
0.641722
0.365683
0.348745
0.692776
0.348884
0.360562
0.700433
0.701647
0.339438
0.704841
0.335146
1.13893
0.328553
0.700726
1.0565
0.706498
0.676995
0.32215
0.345928
0.30556
0.696394
0.700831
0.654542
0.647301
0.359292
0.318718
0.692212
0.336282
0.693035
0.374507
1.01322
0.708697
0.344449
0.331496
0.352153
0.35443
0.329335
0.70106
0.698236
0.346027
0.695201
0.697239
0.337345
0.311298
0.701537
0.354846
0.695564
0.409915
0.706341
0.704277
0.692969
1.14192
0.320358
0.702506
0.699941
0.702033
0.350721
0.699633
0.657836
0.341122
0.699655
0.704176
0.702723
0.697034
0.701893
0.700002
0.701705
0.691417
0.692108
0.349736
0.703057
0.353347
0.478517
0.701992
0.306145
0.699076
0.698858
0.321916
0.700392
0.35088
0.300225
0.701056
0.698464
0.701619
0.341182
0.697214
0.6749
0.328807
0.343652
0.701286
0.699323
0.384286
0.329494
0.706032
0.701605
0.35898
0.699917
0.701764
0.69574
0.344042
0.361198
0.301697
0.704336
0.308771
0.695675
0.706182
0.692309
0.685702
0.698035
0.341473
0.7011
0.669075
0.701425
0.6765
0.309886
0.334909
0.291607
0.70369
0.705237
0.40488
0.703113
0.335564
0.708814
0.698498
0.298077
0.698035
0.695739
0.686656
0.342526
0.348025
0.336166
0.703655
0.701645
0.672939
0.54109
0.693353
0.361686
0.690257
1.1459
0.694236
0.341664
0.673438
0.323635
0.699299
0.284324
0.69398
0.701268
0.329046
0.703066
0.480951
1.13206
0.707783
1.12863
0.699927
0.431033
0.692224
0.692161
0.700213
0.693991
0.476789
1.14566
0.318899
0.692118
0.295601
0.34995
0.301339
0.330108
0.36488
0.343643
0.701765
0.366288
0.318809
0.709746
0.702924
0.697974
0.394162
0.707089
0.706899
0.68987
0.302314
0.67696
0.696151
0.333369
0.329475
0.344808
0.689607
0.526552
0.354818
0.67032
0.292699
1.1367
0.514702
0.335881
0.447696
0.700807
0.337315
0.699683
0.304815
0.559267
0.380466
0.701884
0.392211
0.714562
1.14558
0.697886
0.466289
0.355496
0.702135
0.701633
0.328332
0.303154
0.695255
0.352492
0.704703
0.341751
0.64166
0.288487
0.695658
0.32635
0.701691
0.349781
0.698673
0.698059
0.702204
1.13614
0.319374
0.31574
0.390198
0.701054
0.709142
0.700671
0.639681
0.323986
0.704851
0.337733
0.700887
0.697642
0.420192
0.334978
0.703223
0.693798
0.309051
1.13338
0.702126
0.703105
0.703133
0.304182
0.691448
0.354416
0.702996
0.305641
0.71071
0.700739
0.701852
0.70168
0.336297
0.701738
0.348922
0.335957
0.698748
1.13851
0.640007
0.694819
1.14473
0.355755
0.704084
0.701742
0.701697
0.303885
0.427966
0.707097
0.348322
0.698818
0.699836
0.697308
0.70162
0.29501
0.461901
0.698151
0.325415
0.701281
0.701089
0.484083
0.70117
0.31277
0.699658
0.703979
0.707014
0.701298
0.346957
0.312087
0.693937
0.695353
0.320213
0.34457
0.324691
0.323789
0.317982
0.29768
0.329892
0.357801
0.69424
0.298505
0.3433
0.706928
0.636524
1.13546
0.401384
0.353984
0.692825
0.471393
0.53952
0.702076
0.385821
0.701826
0.906207
0.664971
0.697677
0.334919
0.705507
0.682585
0.329724
0.346859
0.423134
0.698811
0.66524
0.701821
0.697163
0.693628
0.697383
0.352688
0.703272
0.667556
0.701748
0.356711
0.695553
0.692174
0.349591
0.426289
0.326234
0.302708
0.315231
0.659368
0.708131
0.698159
0.34931
0.371707
0.701592
0.293691
0.706764
0.692076
0.695837
0.70697
0.693066
0.332271
0.304906
0.283512
0.649844
0.306108
0.692659
0.280086
0.696324
0.690759
0.695722
0.333923
0.457268
0.427082
0.697254
0.330489
0.343493
0.699873
0.697395
0.69765
0.69744
0.701325
0.704825
0.36521
0.674044
0.701895
0.577263
0.694304
0.705202
0.704139
0.426213
0.40465
0.701753
0.50393
0.693084
0.350712
0.69889
0.700388
0.386606
0.310058
0.698539
0.50357
0.702149
0.706891
0.354761
0.352572
1.14082
0.460146
0.402576
0.701417
0.701118
0.324216
0.693841
1.14242
0.700003
0.365901
0.65941
0.363403
0.701236
0.701624
0.704754
0.69869
1.13277
0.335381
0.359129
0.699218
0.345433
0.664199
0.330707
0.694081
0.284808
0.705022
0.702134
1.13582
0.365993
1.13005
1.14329
0.343659
0.698991
0.293217
0.702108
0.363949
0.345765
0.259387
0.712068
0.691771
0.328932
0.334292
0.700401
0.701935
0.450574
0.706382
0.364865
0.528598
0.352478
0.696129
0.346303
0.710905
0.700249
0.326912