# vtk DataFile Version 1.0
unstructured grid
ascii
DATASET UNSTRUCTURED_GRID
points 13672 float
0.0796578 -0.059106 0
0.00128732 0.00159165 0
0.00227961 -0.00102548 0
0.0791586 -0.0598787 0
-0.0546216 0.01 0
0.000495206 0.025 0
0.0800549 -0.035 0
0.135172 -0.08 0
-0.0546216 -0.0451168 0
0.000495206 -0.0301168 0
0.0800549 -0.0901168 0
0.135172 -0.135117 0
-0.0546216 -0.0451168 -0.00551168
0.000495206 -0.0301168 -0.00551168
0.0800549 -0.0901168 -0.00551168
0.135172 -0.135117 -0.00551168
0.135172 -0.08 -0.00551168
0.0800549 -0.035 -0.00551168
0.000495206 0.025 -0.00551168
-0.0546216 0.01 -0.00551168
0.00128732 0.00159165 -0.00551168
0.00227961 -0.00102548 -0.00551168
0.0791586 -0.0598787 -0.00551168
0.0796578 -0.059106 -0.00551168
0.00165953 -0.000990923 0
0.00119576 -0.000874076 0
0.000866021 -0.000641801 0
0.000645147 -0.000349912 0
0.00052235 -1.7281e-05 0
0.00049972 0.000348016 0
0.000601632 0.000737716 0
0.000861774 0.0011403 0
0.00157235 0.00183217 0
0.00188647 0.00206725 0
0.00222612 0.00230203 0
0.00258713 0.00254351 0
0.00296826 0.00279524 0
0.00337118 0.00305664 0
0.00379785 0.00332658 0
0.00425045 0.00360349 0
0.00473139 0.00388521 0
0.0052432 0.00416895 0
0.0057881 0.00445204 0
0.00636753 0.00473281 0
0.00698281 0.00500961 0
0.00763526 0.00528058 0
0.00832616 0.00554366 0
0.00905691 0.00579603 0
0.00982918 0.00603333 0
0.0106445 0.00625033 0
0.0115038 0.00644128 0
0.0124073 0.00660297 0
0.0133543 0.00673414 0
0.0143444 0.00683382 0
0.0153769 0.00690031 0
0.0164512 0.00693173 0
0.0175666 0.00692547 0
0.0187219 0.00687822 0
0.0199156 0.00678477 0
0.0211454 0.00663864 0
0.0224084 0.00643275 0
0.0237018 0.00616676 0
0.0250249 0.00584739 0
0.026375 0.00547298 0
0.0277479 0.00503752 0
0.0291386 0.00453545 0
0.0305433 0.0039653 0
0.0319572 0.0033256 0
0.0333681 0.00260019 0
0.034775 0.00179799 0
0.0361793 0.000930615 0
0.0375798 3.12222e-06 0
0.0389689 -0.000988429 0
0.0403357 -0.00205109 0
0.041675 -0.00318283 0
0.0429849 -0.00437751 0
0.0442643 -0.00562904 0
0.0455126 -0.00693089 0
0.0467314 -0.00827518 0
0.0479204 -0.00965638 0
0.0490661 -0.0110799 0
0.0501515 -0.0125519 0
0.0511696 -0.0140695 0
0.0521492 -0.0156071 0
0.0531202 -0.0171411 0
0.0540851 -0.0186663 0
0.0550431 -0.0201798 0
0.0559923 -0.0216793 0
0.0569311 -0.0231626 0
0.0578582 -0.0246273 0
0.0587723 -0.0260715 0
0.0596721 -0.027493 0
0.0605563 -0.02889 0
0.0614241 -0.0302609 0
0.0622742 -0.0316042 0
0.063106 -0.0329183 0
0.0639186 -0.034202 0
0.0647113 -0.0354543 0
0.0654835 -0.0366743 0
0.0662345 -0.0378613 0
0.0669642 -0.0390145 0
0.0676726 -0.0401333 0
0.0683597 -0.0412172 0
0.0690246 -0.0422665 0
0.0696662 -0.0432819 0
0.0702841 -0.0442636 0
0.0708793 -0.0452111 0
0.0714538 -0.0461237 0
0.072009 -0.047001 0
0.0725452 -0.0478434 0
0.0730611 -0.0486524 0
0.073556 -0.0494294 0
0.0740291 -0.0501756 0
0.0744812 -0.0508916 0
0.0749138 -0.0515773 0
0.0753285 -0.0522331 0
0.0757266 -0.0528592 0
0.076109 -0.0534564 0
0.0764753 -0.0540264 0
0.0768243 -0.054571 0
0.0771553 -0.0550919 0
0.0774679 -0.0555901 0
0.0777617 -0.0560669 0
0.0780369 -0.056523 0
0.0782958 -0.0569578 0
0.0785421 -0.0573703 0
0.0787786 -0.0577603 0
0.0790073 -0.0581279 0
0.0792295 -0.058474 0
0.0794462 -0.0587995 0
0.0798803 -0.0594162 0
0.0800272 -0.0596588 0
0.0800357 -0.0598891 0
0.0799275 -0.0600784 0
0.0797205 -0.0601773 0
0.0794593 -0.0601051 0
0.0789155 -0.0596491 0
0.0786707 -0.0593963 0
0.0784111 -0.0591319 0
0.0781372 -0.0588542 0
0.0778566 -0.0585548 0
0.0775715 -0.0582308 0
0.0772803 -0.0578828 0
0.0769832 -0.0575099 0
0.0766822 -0.0571097 0
0.0763801 -0.0566796 0
0.0760759 -0.0562196 0
0.0757623 -0.0557337 0
0.0754359 -0.0552232 0
0.0750951 -0.0546879 0
0.0747379 -0.054128 0
0.0743626 -0.0535435 0
0.0739688 -0.0529338 0
0.0735559 -0.0522981 0
0.0731238 -0.0516357 0
0.0726718 -0.050946 0
0.0721991 -0.0502288 0
0.0717046 -0.049484 0
0.0711872 -0.0487117 0
0.0706461 -0.047912 0
0.0700804 -0.0470849 0
0.0694892 -0.0462308 0
0.0688718 -0.0453499 0
0.0682271 -0.0444431 0
0.0675544 -0.043511 0
0.0668527 -0.0425546 0
0.0661215 -0.0415748 0
0.06536 -0.040573 0
0.0645676 -0.0395504 0
0.0637439 -0.0385087 0
0.0628887 -0.0374493 0
0.062002 -0.0363741 0
0.0610838 -0.0352847 0
0.0601345 -0.0341831 0
0.0591547 -0.033071 0
0.0581456 -0.0319502 0
0.0571083 -0.0308224 0
0.0560444 -0.0296893 0
0.0549562 -0.028552 0
0.053845 -0.0274126 0
0.0527113 -0.0262746 0
0.051554 -0.0251427 0
0.0503724 -0.0240222 0
0.0491675 -0.0229164 0
0.047941 -0.0218282 0
0.0466955 -0.0207597 0
0.0454337 -0.0197126 0
0.0441592 -0.0186878 0
0.0428751 -0.0176863 0
0.0415841 -0.0167097 0
0.0402878 -0.0157609 0
0.0389879 -0.0148428 0
0.0376864 -0.0139575 0
0.0363853 -0.013107 0
0.0350871 -0.0122931 0
0.0337942 -0.0115164 0
0.0325095 -0.0107772 0
0.0312357 -0.0100756 0
0.0299758 -0.00941024 0
0.0287337 -0.00877784 0
0.0275126 -0.00817571 0
0.0263139 -0.00760375 0
0.0251376 -0.00706528 0
0.0239829 -0.0065649 0
0.0228537 -0.00609619 0
0.0217522 -0.00565563 0
0.0206795 -0.00524226 0
0.0196364 -0.00485507 0
0.0186233 -0.00449318 0
0.0176408 -0.00415577 0
0.016689 -0.00384204 0
0.0157682 -0.00355115 0
0.0148783 -0.00328218 0
0.0140192 -0.00303468 0
0.0131906 -0.00280795 0
0.0123925 -0.00260016 0
0.0116246 -0.00241012 0
0.0108864 -0.00223769 0
0.0101774 -0.00208212 0
0.00949701 -0.00194206 0
0.00884483 -0.0018163 0
0.0082202 -0.0017039 0
0.00762247 -0.00160391 0
0.00705097 -0.00151528 0
0.006505 -0.00143697 0
0.0059838 -0.00136806 0
0.00548662 -0.00130772 0
0.00501265 -0.00125519 0
0.00456114 -0.00120954 0
0.00413136 -0.00116914 0
0.00372257 -0.00113251 0
0.00333398 -0.00109853 0
0.00296466 -0.00106798 0
0.00261363 -0.0010431 0
-0.052721 -0.0445996 0
-0.0508204 -0.0440823 0
-0.0489199 -0.0435651 0
-0.0470193 -0.0430478 0
-0.0451187 -0.0425306 0
-0.0432181 -0.0420134 0
-0.0413175 -0.0414961 0
-0.039417 -0.0409789 0
-0.0375164 -0.0404616 0
-0.0356158 -0.0399444 0
-0.0337152 -0.0394271 0
-0.0318146 -0.0389099 0
-0.0299141 -0.0383927 0
-0.0280135 -0.0378754 0
-0.0261129 -0.0373582 0
-0.0242123 -0.0368409 0
-0.0223117 -0.0363237 0
-0.0204112 -0.0358065 0
-0.0185106 -0.0352892 0
-0.01661 -0.034772 0
-0.0147094 -0.0342547 0
-0.0128088 -0.0337375 0
-0.0109083 -0.0332202 0
-0.00900769 -0.032703 0
-0.00710711 -0.0321858 0
-0.00520653 -0.0316685 0
-0.00330595 -0.0311513 0
-0.00140537 -0.030634 0
0.00190689 -0.0299614 0
0.00332271 -0.0298498 0
0.00474133 -0.0297825 0
0.00616136 -0.0297597 0
0.0075814 -0.0297814 0
0.00900007 -0.0298477 0
0.010416 -0.0299583 0
0.0118278 -0.0301127 0
0.0132342 -0.0303103 0
0.0146339 -0.0305504 0
0.0160259 -0.0308322 0
0.0174091 -0.0311546 0
0.0187824 -0.0315166 0
0.020145 -0.031917 0
0.0214961 -0.0323546 0
0.0228351 -0.032828 0
0.0241613 -0.0333361 0
0.0254744 -0.0338774 0
0.0267738 -0.0344507 0
0.0280592 -0.0350545 0
0.0293306 -0.0356877 0
0.0305875 -0.0363488 0
0.0318301 -0.0370367 0
0.0330581 -0.0377501 0
0.0342717 -0.0384879 0
0.0354708 -0.0392489 0
0.0366556 -0.0400321 0
0.0378262 -0.0408363 0
0.0389828 -0.0416607 0
0.0401254 -0.0425042 0
0.0412543 -0.0433659 0
0.0423698 -0.0442451 0
0.043472 -0.0451408 0
0.0445612 -0.0460523 0
0.0456375 -0.0469789 0
0.0467013 -0.0479199 0
0.0477529 -0.0488746 0
0.0487923 -0.0498424 0
0.04982 -0.0508227 0
0.0508362 -0.051815 0
0.051841 -0.0528187 0
0.0528348 -0.0538333 0
0.0538178 -0.0548584 0
0.0547903 -0.0558935 0
0.0557524 -0.0569382 0
0.0567045 -0.0579922 0
0.0576467 -0.0590549 0
0.0585792 -0.0601261 0
0.0595024 -0.0612055 0
0.0604163 -0.0622926 0
0.0613212 -0.0633873 0
0.0622174 -0.0644891 0
0.0631049 -0.0655979 0
0.0639841 -0.0667134 0
0.064855 -0.0678353 0
0.0657179 -0.0689633 0
0.0665729 -0.0700974 0
0.0674202 -0.0712372 0
0.06826 -0.0723826 0
0.0690925 -0.0735333 0
0.0699178 -0.0746892 0
0.070736 -0.0758501 0
0.0715473 -0.0770159 0
0.0723518 -0.0781863 0
0.0731498 -0.0793612 0
0.0739412 -0.0805405 0
0.0747264 -0.081724 0
0.0755053 -0.0829116 0
0.0762781 -0.0841033 0
0.0770449 -0.0852987 0
0.0778059 -0.0864979 0
0.0785611 -0.0877007 0
0.0793108 -0.088907 0
0.0814681 -0.0912706 0
0.0828814 -0.0924245 0
0.0842946 -0.0935783 0
0.0857079 -0.0947322 0
0.0871211 -0.095886 0
0.0885344 -0.0970399 0
0.0899476 -0.0981937 0
0.0913609 -0.0993476 0
0.0927741 -0.100501 0
0.0941874 -0.101655 0
0.0956006 -0.102809 0
0.0970139 -0.103963 0
0.0984272 -0.105117 0
0.0998404 -0.106271 0
0.101254 -0.107424 0
0.102667 -0.108578 0
0.10408 -0.109732 0
0.105493 -0.110886 0
0.106907 -0.11204 0
0.10832 -0.113194 0
0.109733 -0.114348 0
0.111146 -0.115501 0
0.11256 -0.116655 0
0.113973 -0.117809 0
0.115386 -0.118963 0
0.116799 -0.120117 0
0.118213 -0.121271 0
0.119626 -0.122424 0
0.121039 -0.123578 0
0.122452 -0.124732 0
0.123866 -0.125886 0
0.125279 -0.12704 0
0.126692 -0.128194 0
0.128105 -0.129348 0
0.129519 -0.130501 0
0.130932 -0.131655 0
0.132345 -0.132809 0
0.133758 -0.133963 0
0.135172 -0.133216 0
0.135172 -0.131316 0
0.135172 -0.129415 0
0.135172 -0.127514 0
0.135172 -0.125614 0
0.135172 -0.123713 0
0.135172 -0.121813 0
0.135172 -0.119912 0
0.135172 -0.118012 0
0.135172 -0.116111 0
0.135172 -0.11421 0
0.135172 -0.11231 0
0.135172 -0.110409 0
0.135172 -0.108509 0
0.135172 -0.106608 0
0.135172 -0.104708 0
0.135172 -0.102807 0
0.135172 -0.100906 0
0.135172 -0.0990058 0
0.135172 -0.0971052 0
0.135172 -0.0952046 0
0.135172 -0.0933041 0
0.135172 -0.0914035 0
0.135172 -0.0895029 0
0.135172 -0.0876023 0
0.135172 -0.0857017 0
0.135172 -0.0838012 0
0.135172 -0.0819006 0
0.133758 -0.0788462 0
0.132345 -0.0776923 0
0.130932 -0.0765385 0
0.129519 -0.0753846 0
0.128105 -0.0742308 0
0.126692 -0.0730769 0
0.125279 -0.0719231 0
0.123866 -0.0707692 0
0.122452 -0.0696154 0
0.121039 -0.0684615 0
0.119626 -0.0673077 0
0.118213 -0.0661538 0
0.116799 -0.065 0
0.115386 -0.0638462 0
0.113973 -0.0626923 0
0.11256 -0.0615385 0
0.111146 -0.0603846 0
0.109733 -0.0592308 0
0.10832 -0.0580769 0
0.106907 -0.0569231 0
0.105493 -0.0557692 0
0.10408 -0.0546154 0
0.102667 -0.0534615 0
0.101254 -0.0523077 0
0.0998404 -0.0511538 0
0.0984272 -0.05 0
0.0970139 -0.0488462 0
0.0956006 -0.0476923 0
[...]
CELL_DATA 13116
SCALARS rho float
LOOKUP_TABLE default
0.5977
0.5977
0.597716
0.597703
0.5977
0.680712
0.441281
0.592061
0.5977
0.5977
0.402386
0.597712
0.5977
0.552221
0.577015
0.680729
0.5977
0.5977
0.6807
0.391443
0.5977
0.597712
0.597136
0.5977
0.5977
0.597701
0.5977
0.5977
0.5977
0.5977
0.680577
0.597717
0.5977
0.5977
0.452009
0.5977
0.5977
0.657815
0.680593
0.68045
0.681
0.594997
0.5977
0.590636
0.680768
0.680464
0.5977
0.680217
0.597715
0.5977
0.609985
0.5977
0.489644
0.5977
0.5977
0.5977
0.588414
0.5977
0.5977
0.593917
0.557414
0.5977
0.5977
0.680724
0.680598
0.519185
0.681176
0.5977
0.680498
0.680599
0.576017
0.5977
0.597708
0.562549
0.668421
0.527915
0.5977
0.596056
0.411038
0.5977
0.5977
0.597701
0.5977
0.67951
0.624889
0.5977
0.46301
0.5977
0.591841
0.367658
0.597703
0.5977
0.5977
0.590909
0.5977
0.5977
0.5977
0.67533
0.668341
0.5977
0.5977
0.5977
0.680941
0.5977
0.5977
0.597705
0.5977
0.5977
0.597701
0.5977
0.5977
0.5977
0.5977
0.5977
0.5977
0.680422
0.497757
0.5977
0.611724
0.681015
0.5977
0.597698
0.680794
0.597704
0.595097
0.5977
0.472881
0.5977
0.597717
0.5977
0.617855
0.5977
0.5977
0.597713
0.5977
0.5977
1.12576
0.680991
0.5977
0.681019
0.5977
0.5977
0.5977
0.5977
0.5977
0.576971
0.447703
0.5977
0.5977
0.666528
0.5977
0.680704
0.680813
0.469443
0.5977
0.659372
0.597716
0.5977
0.675645
0.5977
0.5977
0.403142
0.5977
0.597716
0.597699
0.597703
0.596348
0.5977
0.447922
0.5977
0.5977
1.12518
0.572714
0.5977
0.680783
0.59719
0.593331
0.597709
0.5977
0.680709
0.374528
0.5977
0.5977
0.5977
0.680652
0.5977
0.468481
0.681028
0.5977
0.5977
0.5977
0.5977
0.680874
0.597698
0.5977
0.680856
0.5977
0.680672
0.593424
0.5977
0.5977
0.5977
0.5977
0.572452
0.5977
0.660439
0.5977
0.5977
0.585808
0.378251
0.522968
0.680742
0.59771
0.368051
0.367219
0.477405
0.5977
0.680965
0.596557
0.5977
0.580059
0.681122
0.5977
0.372957
0.5977
0.5977
0.5977
0.5977
0.680736
0.5977
0.59738
0.597717
0.680916
0.5977
0.661977
0.677396
0.680899
0.597714
0.5977
0.5977
0.700154
0.681012
1.12145
0.680571
0.590581
0.596085
0.677671
0.5977
0.672739
0.425357
0.597715
0.679506
0.656992
0.680726
0.638412
0.5977
0.5977
0.397222
0.597704
0.5977
0.583301
0.5977
0.5977
0.5977
0.434961
0.681537
0.489987
0.5977
0.5977
0.423874
0.597701
0.59161
0.837771
0.5977
0.597714
0.904492
0.5977
0.67617
0.681105
0.399747
0.449597
0.597698
0.5977
0.5977
0.597706
0.5977
0.5977
0.59643
0.503779
0.630392
0.597703
0.450598
0.386613
0.481788
0.5977
0.597699
0.5977
0.5977
0.5977
0.417723
0.680717
0.5977
0.597699
0.593123
0.680383
0.670325
0.680597
0.476347
0.68068
0.5977
0.5977
0.595388
0.678134
0.594331
0.5977
0.680966
0.548585
0.680777
0.5977
0.5977
0.367767
0.5977
0.5977
0.482506
0.5977
0.597701
0.5977
0.5977
0.5977
0.464495
0.680535
0.5977
0.546398
0.62763
0.5977
0.5977
0.593845
0.5977
0.5977
0.434375
0.5977
0.5977
0.680824
0.5977
0.5977
0.5977
0.5977
0.653184
0.463837
0.597701
0.5977
0.5977
1.12512
0.463924
0.597702
0.596652
0.5977
0.5977
0.458751
0.597716
0.679083
0.597703
0.438751
0.593599
0.520956
0.597717
0.680972
0.590554
0.5977
0.367906
0.681078
0.680734
0.680572
0.680237
0.5977
0.5977
0.5977
0.571876
0.374921
0.680482
0.372403
0.5977
0.5977
0.597698
0.5977
0.5977
0.597698
0.455775
0.656379
0.597703
0.5977
0.5977
0.681589
0.5977
0.67019
0.597713
0.444919
0.5977
0.5977
0.597702
0.5977
0.680894
0.5977
0.5977
0.5977
0.597701
0.5977
0.5977
0.5977
0.5977
0.680756
0.5977
0.5977
0.5977
0.597714
0.5977
0.5977
0.485983
0.680444
0.802322
0.5977
0.376341
0.36754
0.453894
0.5977
0.517286
0.597698
0.680715
0.517805
0.5977
0.367623
0.680998
0.5977
0.5977
0.597712
0.597486
0.5977
0.367814
0.45293
0.367867
0.597699
0.445852
0.373181
0.597699
0.5977
0.372588
0.5977
0.5977
0.620172
0.5977
0.597708
0.5977
0.581954
0.367667
0.585208
0.680761
0.5977
0.5977
0.5977
0.509236
0.5977
0.591122
0.5977
0.5977
0.5977
0.5977
0.443241
0.666104
0.5977
0.5977
0.67979
0.597699
0.499405
0.5977
0.5977
0.5977
0.5977
0.5977
0.5977
0.5977
0.386808
0.588681
0.554148
0.5977
0.589665
0.524888
0.572081
0.544507
0.597703
0.597702
0.5977
0.5977
0.5977
0.5977
0.5977
0.506245
0.5977
0.5977
0.59255
0.597699
0.5977
0.5977
0.681
0.597614
0.5977
0.5977
0.491435
0.5977
0.591908
0.680887
0.5977
0.5977
0.5977
0.369046
0.5977
0.5977
0.5977
0.5977
0.597699
0.5977
0.5977
0.5977
0.5977
0.597635
0.597702
0.5977
0.5977
0.681333
0.36795
0.680835
0.5977
0.592544
0.368245
0.597702
0.674946
0.5977
0.604896
0.5977
0.367423
0.680587
0.675026
0.5977
0.5977
0.498722
0.597574
0.368162
0.368019
0.591989
0.368013
0.597672
0.536293
0.597703
0.5977
0.5977
0.643428
0.680442
0.597702
0.36819
0.375293
0.659577
0.597625
0.5977
0.597703
0.5977
0.5977
0.456986
0.5977
0.680689
0.5977
0.367226
0.5977
0.597698
0.590811
0.681199
0.5977
0.597708
0.591968
0.5977
0.665275
0.5977
0.597718
0.5977
0.5977
0.74843
0.597715
0.597682
0.596843
0.668412
0.507477
1.1161
0.577447
0.658428
0.5977
0.367833
0.5977
0.597704
0.665811
0.5977
0.431863
0.5977
0.680444
0.5977
0.426089
0.597707
0.368073
0.680729
0.597704
0.681038
0.572628
0.5977
0.5977
0.5977
0.597716
0.597656
0.5977
0.5977
0.597701
0.491806
0.528487
0.680693
0.526484
0.680748
0.5977
0.669693
0.367583
0.590672
0.5977
0.5977
0.680883
0.596397
0.680976
0.596365
0.680966
0.5977
0.596998
0.402684
0.59077
0.5977
0.460207
0.68081
0.5977
0.473729
0.5977
0.597705
0.570565
0.680709
0.68072
0.597697
0.586256
0.417476
0.596631
0.590773
0.5977
0.500303
0.39942
0.597701
0.680891
0.5977
0.5977
0.680887
0.398695
0.5977
0.5977
0.623067
0.5977
0.5977
0.5977
0.680886
0.5977
0.5977
0.5977
0.5977
0.680367
0.5977
0.5977
0.5977
0.574531
0.5977
0.5977
0.5977
0.5977
0.5977
0.5977
0.680801
0.5977
0.5977
0.681487
0.5977
0.597713
0.5977
0.597698
0.595766
0.561836
0.680848
0.5977
0.5977
0.681225
0.5977
0.597702
0.5977
0.5977
0.5977
0.5977
0.5977
0.597702
0.559274
1.12692
0.5977
0.681191
0.5977
0.367688
0.5977
0.5977
0.5977
0.597694
0.59117
0.375428
0.5977
0.5977
0.386234
0.597697
0.596287
0.67932
0.590837
0.597629
0.5977
0.5977
0.5977
0.5977
0.680808
0.5977
0.367648
0.5977
0.622793
0.5977
0.680808
0.680774
0.5977
0.5977
0.380011
0.5977
0.5977
0.5977
0.5977
0.680709
0.658761
0.5977
0.5977
0.5977
0.5977
0.367874
0.367928
0.431447
0.371214
0.5977
0.5977
0.680705
0.5977
0.378745
0.680269
0.5977
0.541476
0.5977
0.5977
0.5977
0.680771
0.679683
0.5977
0.374234
0.367657
1.1057
0.597707
0.368062
0.499626
0.680908
0.5977
0.367663
0.5977
0.592958
0.5977
0.680932
0.680428
0.501455
0.548109
0.422596
0.5977
0.5977
0.597715
0.5977
0.5977
0.597644
0.680462
0.597717
0.367751
0.5977
0.368153
0.680924
0.5977
0.679606
0.597698
0.367848
0.597702
0.681026
0.5977
0.540809
0.66241
0.680676
0.5977
0.670786
0.589958
1.04705
0.5977
0.373044
0.680417
0.681021
0.5977
0.5977
1.12674
0.5977
1.01582
0.681049
0.524739
0.56418
0.367986
0.681034
0.5977
0.368051
0.5977
0.5977
0.597714
0.5977
0.5977
0.5977
0.5977
0.597713
0.5977
0.5977
0.367191
0.5977
0.680831
0.592549
0.590994
0.534187
0.597537
0.5977
0.5977
0.5977
0.680854
0.44055
0.5977
0.584268
0.597717
0.680854
0.367409
0.5977
0.597699
0.5977
0.5977
1.04083
0.597172
0.570288
0.535663
0.5977
0.5977
0.597702
0.5977
0.5977
0.680462
0.5977
0.5977
0.5977
0.5977
0.5977
0.681277
0.5977
0.367792
0.5977
0.5977
0.5977
0.5977
0.680796
0.5977
0.5977
0.597698
0.5977
0.5977
1.1136
0.66401
0.5977
0.5977
0.680364
0.5977
0.597714
0.5977
0.5977
0.680897
0.679146
0.5977
0.597691
0.597702
0.576709
0.597699
0.477835
1.12649
0.401461
0.5977
0.5977
0.5977
0.597698
0.602128
0.571261
0.5977
0.681253
0.680796
0.5977
0.680776
0.5977
0.5977
0.5977
0.597046
0.566499
0.680812
0.680475
0.5977
0.870917
0.5977
0.597699
0.574513
0.595162
0.67735
0.367716
0.88856
0.422743
0.590884
0.504314
0.5977
0.596597
0.5977
0.59067
0.5977
0.597698
0.5977
0.680928
0.382879
0.5977
0.597702
0.597716
0.5977
0.679647
0.5977
0.680743
0.5977
0.5977
0.597702
0.681161
0.5977
0.367616
0.5977
0.673873
1.12005
0.747629
1.12269
0.5977
0.5977
0.5977
0.68143
0.367643
0.57585
1.12139
0.5977
0.680425
0.529239
0.680929
0.5977
0.5977
0.560932
0.5977
0.595948
0.597694
0.5977
0.5977
0.680909
0.746332
0.437105
0.5977
0.5977
0.439701
0.59771
0.552289
0.5977
0.597701
0.367993
0.679673
0.5977
0.5977
0.5977
0.451858
0.45161
0.597702
0.567328
0.518257
0.680922
0.597713
0.5977
0.5977
0.59721
0.596822
0.377507
0.5977
0.408898
0.5977
0.597717
0.594845
0.522344
0.5977
0.597703
0.681174
0.5977
0.5977
0.5977
0.681264
0.597702
0.590331
0.529373
0.399424
0.5977
0.680754
0.5977
0.5977
0.5977
0.680529
0.5977
0.5977
0.680699
0.597701
0.593308
0.433073
0.5977
0.597699
0.677141
0.5977
0.5977
0.681014
0.597713
0.597701
0.367696
0.5977
0.5977
0.507893
0.5977
1.12669
0.590204
0.460934
0.680556
0.371124
0.597697
0.597698
0.36718
0.5977
0.578055
0.5977
0.680936
0.5977
0.597699
0.5977
0.5977
0.5977
0.5977
0.36757
0.493584
0.432536
0.595304
0.597698
0.5977
0.5977
0.5977
0.680883
0.5977
0.54721
0.5977
0.5977
0.680955
0.413221
0.672687
0.5977
0.5977
0.679479
0.589176
0.597689
0.5977
0.5977
0.5977
0.680908
0.597703
0.597699
0.681509
0.5977
0.367835
0.680799
0.597716
0.5977
0.5977
0.597151
0.593177
0.597703
0.5977
0.5977
0.433582
0.5977
0.597702
0.5977
0.675677
0.5977
0.597697
0.5977
0.592081
0.5977
0.597703
0.667546
0.597702
0.425552
0.5977
0.5977
0.597699
0.597152
0.5977
0.5977
0.5977
0.680479
0.597702
0.680911
0.597576
0.5977
0.597699
0.570277
0.5977
0.5977
0.5977
0.5977
0.680783
0.5977
0.66167
1.12674
0.5977
0.466739
0.597699
0.596754
0.680838
0.5977
0.5977
0.56379
0.5977
0.567136
0.681178
0.5977
0.5977
0.597702
0.381345
0.597698
0.597715
0.5977
0.597712
0.631407
0.680747
0.597714
0.593132
0.5977
0.597706
0.68068
0.680743
0.5977
0.576793
0.5977
0.5977
0.5977
0.5977
0.5977
0.5977
0.5977
0.680714
0.597698
0.5977
0.5977
0.5977
0.680846
0.680671
0.597699
0.653193
0.678645
0.597716
0.5977
0.438475
0.5977
0.450914
0.597594
0.5977
0.367956
0.368138
0.563866
0.680867
0.5977
0.5977
0.680858
0.5977
0.5977
0.36895
0.5977
0.5977
0.680561
0.681087
0.5977
0.680969
0.5977
0.680801
0.680912
0.597699
0.5977
0.5977
0.5977
0.5977
0.5977
0.5977
0.5977
0.383754
0.5977
0.5977
0.680951
0.527064
0.597698
0.5977
0.680923
0.382147
0.681395
0.5977
1.12681
0.590055
0.669741
0.370458
0.5977
0.369326
0.597713
0.592166
0.5977
0.593807
0.624824
0.597717
0.459483
0.414458
0.5977
0.680881
0.5977
0.59585
0.517132
0.460011
0.537049
0.594892
0.5977
0.5977
0.593391
0.5977
0.68065
0.590665
0.5977
0.5977
0.5977
0.597706
0.378504
0.674467
0.67197
0.537737
0.5977
0.5977
0.5977
0.597699
0.5977
0.5977
0.597699
0.5977
0.5977
0.368076
0.680757
0.5977
0.367708
0.59579
0.511018
0.681477
0.5977
0.5977
0.572388
0.5977
0.5977
0.5977
0.5977
0.681307
0.5977
0.680652
0.681243
0.597701
0.5977
0.5977
0.680614
0.5977
0.680859
0.5977
0.657763
0.596106
0.565756
0.614075
0.681106
0.680713
0.597698
0.680826
0.5977
0.670931
0.501867
0.517767
0.368064
0.679948
0.430292
0.525854
0.597696
0.5977
0.519756
0.5977
0.5977
0.591357
0.368271
0.680698
0.680768
0.680705
0.469151
0.679538
0.5977
0.680707
0.5977
0.5977
0.454022
0.383182
0.68045
0.3825
0.5977
0.5977
1.08373
0.368051
0.5977
0.466808
0.5977
1.12499
0.597698
0.658211
0.680805
0.5977
0.370232
0.588954
0.5977
0.5977
0.367326
1.12664
0.5977
0.680713
0.676685
0.396362
0.5977
0.597327
0.5977
0.5977
0.5977
0.5977
0.5977
0.5977
0.5977
0.597167
0.419722
0.5977
0.530237
0.5977
0.5977
0.662594
0.368094
0.5977
0.5977
0.678686
0.680827
0.378703
0.680727
0.5977
0.5977
0.5977
0.597699
0.375811
0.597699
0.681091
0.680997
0.5977
0.5977
0.5977
0.58975
0.5977
0.681098
0.680909
0.597581
0.5977
0.680616
0.5977
0.5977
0.5977
0.680925
0.674768
0.680683
0.675406
0.680605
0.5977
0.367862
0.597716
0.5977
0.367962
0.5977
0.680268
0.554067
0.5977
0.680245
0.5977
0.591925
0.5977
0.680488
0.597699
0.556607
0.680558
0.597701
0.680428
0.483552
0.588943
0.680854
0.5977
0.680496
0.59771
0.680761
0.5977
0.5977
0.5977
0.5977
0.396681
0.597703
0.521303
0.368041
0.5977
0.5977
0.5977
0.5977
0.680971
0.597457
0.680763
0.5977
0.562634
0.597702
0.5977
0.367594
0.681196
0.597711
0.5977
0.5977
0.5977
0.595977
0.5977
0.5977
0.5977
0.680908
0.5977
0.5977
0.5977
0.597682
0.5977
0.5977
0.597639
0.408185
0.5977
0.675687
0.597698
0.5977
0.68111
0.5977
0.680973
0.5977
0.5977
0.5977
0.414789
0.681293
0.5977
0.5977
0.5977
0.5977
0.597701
0.680607
0.370286
0.541343
0.597603
0.5977
0.5977
0.681039
0.673363
0.680888
0.5977
0.5977
0.5977
0.5977
0.5977
0.547465
0.597704
0.534664
0.5977
0.879805
0.5977
0.5977
0.597702
0.5977
0.597703
0.591545
0.597703
0.493231
0.5977
0.75979
0.680737
0.5977
0.597711
0.593407
1.12689
0.597701
0.5977
0.465143
0.368575
0.597716
0.5977
0.367964
0.59698
0.680634
0.5977
0.424216
0.5977
0.5977
0.5977
0.5977
0.384233
0.597702
1.12333
0.367631
0.680908
0.36773
0.5977
0.5977
0.680592
0.427989
0.597341
0.596845
0.45904
0.5977
0.597699
0.5977
0.597712
0.5977
0.597715
0.5977
0.450783
0.5977
0.378638
0.680833
0.680761
0.5977
0.5977
0.5977
0.5977
0.680901
0.591889
0.5977
0.5977
0.380435
0.5977
0.532433
0.5977
0.597699
0.597702
0.5977
0.5977
0.5977
0.5977
0.5977
0.564876
0.547961
0.545339
0.5977
0.5977
0.664423
0.413183
0.597711
0.680518
0.5977
0.597708
0.5977
0.5977
0.367612
0.597717
0.595728
0.5977
0.5977
0.591301
0.5977
0.680998
0.597717
0.5977
0.637558
0.680571
0.5977
0.5977
0.5977
0.5977
0.461622
0.590209
0.5977
0.5977
0.5977
0.590706
0.5977
0.387165
0.680663
0.597703
0.372874
0.5977
0.5977
0.5977
0.597703
0.5977
0.5977
0.680134
0.597702
0.488431
0.597714
0.538358
0.396239
0.5977
0.679623
0.5977
0.380236
0.367918
0.5977
0.597712
0.680871
0.5977
0.367822
0.5977
0.68027
0.597716
0.5977
0.5977
0.5977
0.680847
0.5977
0.368054
0.44279
0.5977
0.370467
0.5977
0.5977
0.680561
0.681036
0.597698
0.368085
1.12565
0.384639
0.681019
0.5977
0.368197
0.580374
0.498886
0.680775
0.503778
1.12684
0.5977
0.5977
0.597717
0.5977
0.597647
0.623618
0.42946
0.594749
0.5977
0.597697
0.589595
0.597687
0.420053
0.367953
0.597702
0.3956
0.396883
0.597701
0.5977
0.680844
0.5977
0.5977
0.5977
0.5977
0.681121
0.680863
0.419185
0.5977
0.5977
0.597703
0.5977
0.5977
0.5977
0.680944
0.593965
0.5977
0.5977
0.5977
0.5977
0.591825
0.597701
0.5977
0.595838
0.680928
1.0433
0.590671
1.12719
0.595847
0.597701
0.608662
1.11993
0.680905
0.5977
0.597701
0.597699
0.680441
0.680603
0.5977
0.5977
0.5977
0.569672
0.46528
0.5977
0.421662
0.5977
0.41444
0.419936
0.5977
0.59771
0.5977
0.455274
0.597701
0.597411
0.36799
0.5977
0.5977
0.67988
0.586923
0.666753
0.5977
0.477834
0.597701
0.5977
0.5977
0.5977
0.597716
0.5977
0.367891
0.681459
0.5977
0.597699
0.680915
0.680769
0.5977
0.367777
0.5977
0.597716
0.5977
0.680587
0.68045
0.367638
0.597704
0.681286
0.5977
0.5977
0.67939
0.367828
0.369034
0.679906
0.5977
0.5977
0.5977
0.367617
0.5977
0.5977
0.597699
0.5977
0.566945
0.5977
0.66384
0.597703
0.548872
0.5977
0.680909
0.5977
0.5977
0.5977
0.5977
0.367639
0.375764
0.679799
0.368035
0.367711
0.67409
0.597703
0.499439
0.5977
0.493668
0.883017
0.5977
0.597701
0.680621
0.5977
0.680773
0.593694
0.377644
0.597703
0.680552
0.5977
0.5977
0.5977
0.5977
0.597699
0.680896
0.41396
0.681148
0.5977
0.680989
0.5977
0.455665
0.597263
0.367751
0.368125
0.597716
0.5977
0.5977
0.423843
0.679983
0.5977
0.5977
0.567822
0.597702
0.367632
0.590482
0.5977
0.5977
0.5977
0.68069
0.671888
0.550909
0.5977
0.680582
0.597038
0.367876
0.5977
0.5977
0.5977
0.677393
0.5977
0.597612
0.5977
0.597701
0.675168
0.594501
0.680838
0.680771
0.367863
0.5977
0.367764
0.5977
0.681178
0.597709
0.592298
0.5977
0.597714
0.5977
0.367957
0.597701
0.600035
0.5977
0.597703
0.382249
0.5977
0.5977
0.5977
0.425373
0.597684
0.681214
0.5977
0.583388
0.5977
0.597702
0.367763
0.5977
0.597704
0.5977
0.484677
0.367696
0.597715
0.5977
0.597713
0.59491
0.5977
0.680914
0.5977
0.591085
0.380502
0.591321
0.5977
0.596789
0.5977
0.5977
0.424235
0.59543
0.5977
0.597702
0.5977
0.5977
0.5977
0.5977
0.68086
0.579547
0.5977
0.59327
0.5977
0.434374
0.445055
0.5977
0.597118
0.5977
0.5977
0.5977
0.669296
0.367529
0.5977
0.767358
0.597703
0.441072
0.5977
0.597711
0.5977
0.597716
0.607882
0.592748
0.586348
0.590436
0.5977
1.12092
0.5977
1.12654
0.67964
0.5977
0.681033
0.680466
0.68102
0.625114
0.5977
0.807003
0.519357
0.68095
0.592191
0.369518
0.597652
0.597716
0.367575
0.431895
0.597703
0.5977
0.533978
0.5977
0.591632
0.5977
0.5977
0.5977
0.5977
0.680848
0.597698
0.5977
0.681004
0.597699
0.594234
0.378746
0.5977
0.5977
0.368189
0.5977
0.597717
0.673198
0.5977
0.482439
0.5977
0.5977
0.5977
0.681266
0.581484
0.5977
0.5977
0.597508
0.5977
0.5977
0.732798
0.5977
0.5977
0.368022
0.592177
0.597701
0.596584
0.597697
0.680697
0.368843
0.5977
0.423397
0.5977
0.594308
0.681195
0.597713
0.597702
0.371224
0.680988
0.608731
0.597701
0.92361
0.516304
0.597716
0.5977
0.597701
0.5977
0.5977
0.5977
0.597713
0.5977
0.5977
0.597702
0.5977
0.5977
0.597699
0.5977
0.657876
0.597709
0.680713
0.593128
0.5977
0.5977
0.585868
0.5977
0.367881
0.5977
0.597714
0.680774
0.597701
0.597439
0.597703
0.5977
0.597703
0.367799
0.426823
0.680774
0.829043
0.5977
0.594792
0.847574
0.367659
0.5977
0.59448
0.591873
0.597697
0.5977
0.5977
0.422305
0.680803
0.680588
0.598475
0.62331
0.597699
0.5977
0.5977
0.593042
0.592536
0.597701
0.5977
0.591358
0.597698
0.5977
0.5977
0.5977
0.592536
0.44556
0.5977
0.658277
0.596713
0.597707
0.5977
0.597713
0.59771
0.531955
0.597709
0.5977
0.36792
0.610448
0.590272
0.485494
0.5977
0.5977
1.12371
0.5977
0.368073
0.680858
0.5977
0.5977
0.5977
0.5977
0.5977
0.680952
0.5977
0.5977
0.582359
0.597703
0.680934
0.498788
0.370938
0.5977
0.5977
0.5977
0.597701
0.680867
0.597703
0.5977
0.5977
0.59173
0.68096
0.597694
0.367614
0.681044
0.5977
0.5977
0.5977
0.497092
0.597311
0.535607
0.5977
0.5977
0.5977
0.372692
0.5977
0.597529
0.597715
0.5977
0.680759
0.594643
0.5977
0.67886
0.597699
0.597672
0.596565
0.5977
0.597714
0.68143
0.596616
0.680711
0.680832
0.681108
0.5977
0.5977
0.5977
0.595634
0.563578
0.384069
0.679738
0.5977
0.5977
0.680632
0.597702
0.5977
0.367908
0.5977
0.5977
0.5977
0.593458
0.5977
0.5977
0.5977
0.5977
0.593078
0.5977
0.5977
0.367755
0.5977
0.629403
0.5977
0.597713
0.5977
0.5977
0.5977
0.5977
0.367852
0.38007
0.678367
0.5977
0.5977
0.672428
0.597665
0.597708
0.677278
0.679405
0.5977
0.367905
0.5977
0.367974
0.679598
0.597703
0.5977
0.5977
0.680229
0.5977
0.5977
0.5977
0.369586
0.5977
0.597699
0.679058
0.568741
0.5977
0.5977
0.677566
0.367737
1.12648
0.660744
0.391321
0.5977
0.597717
0.596576
0.367793
0.442956
0.582369
0.5977
0.681434
0.5977
0.5977
0.5977
0.597702
0.5977
0.5977
0.367953
0.5977
0.368111
0.5977
0.382118
0.5977
0.662143
0.5977
0.5977
0.435755
0.680678
0.515827
0.384668
0.5977
0.597699
0.5977
0.5977
0.580333
0.5977
0.680887
0.597381
0.5977
0.597699
0.5977
0.597698
0.376226
0.596638
0.680539
0.5977
0.367829
0.5977
0.5977
0.5977
0.5977
0.5977
0.5977
0.5977
0.5977
0.5977
0.5977
0.5977
0.597669
0.5977
0.5977
0.367647
0.597713
0.597717
0.373492
0.5977
0.596304
0.5977
0.5977
0.597701
0.5977
0.5977
0.597698
0.591486
0.392462
0.597399
0.369018
0.597701
0.643178
0.38949
0.571558
0.680381
0.597699
0.5977
0.5977
0.5977
0.5977
0.5977
0.5977
0.5977
0.680732
0.669712
0.597701
0.597701
0.5977
0.5977
0.680871
0.597704
0.558536
0.5977
0.5977
0.597699
0.5977
0.368036
0.5977
0.5977
0.5977
0.5977
0.597702
0.5977
0.5977
0.5977
0.402479
0.5977
0.367747
0.5977
0.5977
0.680566
0.5977
0.605335
0.597713
0.597597
1.12416
0.597238
0.5977
0.597314
0.552055
0.504044
0.5977
0.597105
0.5977
0.680881
0.718353
0.5977
0.5977
0.680664
0.5977
1.12419
0.5977
0.5977
0.597703
0.5977
0.5977
1.12354
0.597698
0.5977
0.5977
0.5977
0.5977
0.652355
0.764321
0.5977
0.717047
0.597703
0.391382
0.802225
0.672075
0.5977
0.397176
0.367754
0.504217
0.5977
0.367893
0.53935
0.638231
0.5977
0.424694
0.597705
0.680739
0.5977
0.680635
0.5977
1.11586
0.5977
0.597701
0.597704
0.681721
0.679569
0.5977
0.54286
0.597693
0.5977
0.36771
0.5977
0.596768
0.5977
0.368181
0.678286
0.5977
0.5977
0.442603
0.5977
0.5977
0.368243
0.597716
0.5977
0.5907
0.597714
0.59132
0.597702
0.597702
0.590759
1.08572
0.597707
0.368231
0.5977
0.5977
0.5977
0.5977
0.680573
0.5977
0.368612
0.5977
0.680456
0.5977
0.5977
0.5977
0.5977
0.5977
0.597698
0.575383
0.5977
0.5977
0.367764
0.488493
0.5977
0.597709
0.663836
0.5977
0.597696
0.597578
0.597699