# vtk DataFile Version 1.0
unstructured grid
ascii
DATASET UNSTRUCTURED_GRID
points 13672 float
0.0796578 -0.059106 0
0.00128732 0.00159165 0
0.00227961 -0.00102548 0
0.0791586 -0.0598787 0
-0.0546216 0.01 0
0.000495206 0.025 0
0.0800549 -0.035 0
0.135172 -0.08 0
-0.0546216 -0.0451168 0
0.000495206 -0.0301168 0
0.0800549 -0.0901168 0
0.135172 -0.135117 0
-0.0546216 -0.0451168 -0.00551168
0.000495206 -0.0301168 -0.00551168
0.0800549 -0.0901168 -0.00551168
0.135172 -0.135117 -0.00551168
0.135172 -0.08 -0.00551168
0.0800549 -0.035 -0.00551168
0.000495206 0.025 -0.00551168
-0.0546216 0.01 -0.00551168
0.00128732 0.00159165 -0.00551168
0.00227961 -0.00102548 -0.00551168
0.0791586 -0.0598787 -0.00551168
0.0796578 -0.059106 -0.00551168
0.00165953 -0.000990923 0
0.00119576 -0.000874076 0
0.000866021 -0.000641801 0
0.000645147 -0.000349912 0
0.00052235 -1.7281e-05 0
0.00049972 0.000348016 0
0.000601632 0.000737716 0
0.000861774 0.0011403 0
0.00157235 0.00183217 0
0.00188647 0.00206725 0
0.00222612 0.00230203 0
0.00258713 0.00254351 0
0.00296826 0.00279524 0
0.00337118 0.00305664 0
0.00379785 0.00332658 0
0.00425045 0.00360349 0
0.00473139 0.00388521 0
0.0052432 0.00416895 0
0.0057881 0.00445204 0
0.00636753 0.00473281 0
0.00698281 0.00500961 0
0.00763526 0.00528058 0
0.00832616 0.00554366 0
0.00905691 0.00579603 0
0.00982918 0.00603333 0
0.0106445 0.00625033 0
0.0115038 0.00644128 0
0.0124073 0.00660297 0
0.0133543 0.00673414 0
0.0143444 0.00683382 0
0.0153769 0.00690031 0
0.0164512 0.00693173 0
0.0175666 0.00692547 0
0.0187219 0.00687822 0
0.0199156 0.00678477 0
0.0211454 0.00663864 0
0.0224084 0.00643275 0
0.0237018 0.00616676 0
0.0250249 0.00584739 0
0.026375 0.00547298 0
0.0277479 0.00503752 0
0.0291386 0.00453545 0
0.0305433 0.0039653 0
0.0319572 0.0033256 0
0.0333681 0.00260019 0
0.034775 0.00179799 0
0.0361793 0.000930615 0
0.0375798 3.12222e-06 0
0.0389689 -0.000988429 0
0.0403357 -0.00205109 0
0.041675 -0.00318283 0
0.0429849 -0.00437751 0
0.0442643 -0.00562904 0
0.0455126 -0.00693089 0
0.0467314 -0.00827518 0
0.0479204 -0.00965638 0
0.0490661 -0.0110799 0
0.0501515 -0.0125519 0
0.0511696 -0.0140695 0
0.0521492 -0.0156071 0
0.0531202 -0.0171411 0
0.0540851 -0.0186663 0
0.0550431 -0.0201798 0
0.0559923 -0.0216793 0
0.0569311 -0.0231626 0
0.0578582 -0.0246273 0
0.0587723 -0.0260715 0
0.0596721 -0.027493 0
0.0605563 -0.02889 0
0.0614241 -0.0302609 0
0.0622742 -0.0316042 0
0.063106 -0.0329183 0
0.0639186 -0.034202 0
0.0647113 -0.0354543 0
0.0654835 -0.0366743 0
0.0662345 -0.0378613 0
0.0669642 -0.0390145 0
0.0676726 -0.0401333 0
0.0683597 -0.0412172 0
0.0690246 -0.0422665 0
0.0696662 -0.0432819 0
0.0702841 -0.0442636 0
0.0708793 -0.0452111 0
0.0714538 -0.0461237 0
0.072009 -0.047001 0
0.0725452 -0.0478434 0
0.0730611 -0.0486524 0
0.073556 -0.0494294 0
0.0740291 -0.0501756 0
0.0744812 -0.0508916 0
0.0749138 -0.0515773 0
0.0753285 -0.0522331 0
0.0757266 -0.0528592 0
0.076109 -0.0534564 0
0.0764753 -0.0540264 0
0.0768243 -0.054571 0
0.0771553 -0.0550919 0
0.0774679 -0.0555901 0
0.0777617 -0.0560669 0
0.0780369 -0.056523 0
0.0782958 -0.0569578 0
0.0785421 -0.0573703 0
0.0787786 -0.0577603 0
0.0790073 -0.0581279 0
0.0792295 -0.058474 0
0.0794462 -0.0587995 0
0.0798803 -0.0594162 0
0.0800272 -0.0596588 0
0.0800357 -0.0598891 0
0.0799275 -0.0600784 0
0.0797205 -0.0601773 0
0.0794593 -0.0601051 0
0.0789155 -0.0596491 0
0.0786707 -0.0593963 0
0.0784111 -0.0591319 0
0.0781372 -0.0588542 0
0.0778566 -0.0585548 0
0.0775715 -0.0582308 0
0.0772803 -0.0578828 0
0.0769832 -0.0575099 0
0.0766822 -0.0571097 0
0.0763801 -0.0566796 0
0.0760759 -0.0562196 0
0.0757623 -0.0557337 0
0.0754359 -0.0552232 0
0.0750951 -0.0546879 0
0.0747379 -0.054128 0
0.0743626 -0.0535435 0
0.0739688 -0.0529338 0
0.0735559 -0.0522981 0
0.0731238 -0.0516357 0
0.0726718 -0.050946 0
0.0721991 -0.0502288 0
0.0717046 -0.049484 0
0.0711872 -0.0487117 0
0.0706461 -0.047912 0
0.0700804 -0.0470849 0
0.0694892 -0.0462308 0
0.0688718 -0.0453499 0
0.0682271 -0.0444431 0
0.0675544 -0.043511 0
0.0668527 -0.0425546 0
0.0661215 -0.0415748 0
0.06536 -0.040573 0
0.0645676 -0.0395504 0
0.0637439 -0.0385087 0
0.0628887 -0.0374493 0
0.062002 -0.0363741 0
0.0610838 -0.0352847 0
0.0601345 -0.0341831 0
0.0591547 -0.033071 0
0.0581456 -0.0319502 0
0.0571083 -0.0308224 0
0.0560444 -0.0296893 0
0.0549562 -0.028552 0
0.053845 -0.0274126 0
0.0527113 -0.0262746 0
0.051554 -0.0251427 0
0.0503724 -0.0240222 0
0.0491675 -0.0229164 0
0.047941 -0.0218282 0
0.0466955 -0.0207597 0
0.0454337 -0.0197126 0
0.0441592 -0.0186878 0
0.0428751 -0.0176863 0
0.0415841 -0.0167097 0
0.0402878 -0.0157609 0
0.0389879 -0.0148428 0
0.0376864 -0.0139575 0
0.0363853 -0.013107 0
0.0350871 -0.0122931 0
0.0337942 -0.0115164 0
0.0325095 -0.0107772 0
0.0312357 -0.0100756 0
0.0299758 -0.00941024 0
0.0287337 -0.00877784 0
0.0275126 -0.00817571 0
0.0263139 -0.00760375 0
0.0251376 -0.00706528 0
0.0239829 -0.0065649 0
0.0228537 -0.00609619 0
0.0217522 -0.00565563 0
0.0206795 -0.00524226 0
0.0196364 -0.00485507 0
0.0186233 -0.00449318 0
0.0176408 -0.00415577 0
0.016689 -0.00384204 0
0.0157682 -0.00355115 0
0.0148783 -0.00328218 0
0.0140192 -0.00303468 0
0.0131906 -0.00280795 0
0.0123925 -0.00260016 0
0.0116246 -0.00241012 0
0.0108864 -0.00223769 0
0.0101774 -0.00208212 0
0.00949701 -0.00194206 0
0.00884483 -0.0018163 0
0.0082202 -0.0017039 0
0.00762247 -0.00160391 0
0.00705097 -0.00151528 0
0.006505 -0.00143697 0
0.0059838 -0.00136806 0
0.00548662 -0.00130772 0
0.00501265 -0.00125519 0
0.00456114 -0.00120954 0
0.00413136 -0.00116914 0
0.00372257 -0.00113251 0
0.00333398 -0.00109853 0
0.00296466 -0.00106798 0
0.00261363 -0.0010431 0
-0.052721 -0.0445996 0
-0.0508204 -0.0440823 0
-0.0489199 -0.0435651 0
-0.0470193 -0.0430478 0
-0.0451187 -0.0425306 0
-0.0432181 -0.0420134 0
-0.0413175 -0.0414961 0
-0.039417 -0.0409789 0
-0.0375164 -0.0404616 0
-0.0356158 -0.0399444 0
-0.0337152 -0.0394271 0
-0.0318146 -0.0389099 0
-0.0299141 -0.0383927 0
-0.0280135 -0.0378754 0
-0.0261129 -0.0373582 0
-0.0242123 -0.0368409 0
-0.0223117 -0.0363237 0
-0.0204112 -0.0358065 0
-0.0185106 -0.0352892 0
-0.01661 -0.034772 0
-0.0147094 -0.0342547 0
-0.0128088 -0.0337375 0
-0.0109083 -0.0332202 0
-0.00900769 -0.032703 0
-0.00710711 -0.0321858 0
-0.00520653 -0.0316685 0
-0.00330595 -0.0311513 0
-0.00140537 -0.030634 0
0.00190689 -0.0299614 0
0.00332271 -0.0298498 0
0.00474133 -0.0297825 0
0.00616136 -0.0297597 0
0.0075814 -0.0297814 0
0.00900007 -0.0298477 0
0.010416 -0.0299583 0
0.0118278 -0.0301127 0
0.0132342 -0.0303103 0
0.0146339 -0.0305504 0
0.0160259 -0.0308322 0
0.0174091 -0.0311546 0
0.0187824 -0.0315166 0
0.020145 -0.031917 0
0.0214961 -0.0323546 0
0.0228351 -0.032828 0
0.0241613 -0.0333361 0
0.0254744 -0.0338774 0
0.0267738 -0.0344507 0
0.0280592 -0.0350545 0
0.0293306 -0.0356877 0
0.0305875 -0.0363488 0
0.0318301 -0.0370367 0
0.0330581 -0.0377501 0
0.0342717 -0.0384879 0
0.0354708 -0.0392489 0
0.0366556 -0.0400321 0
0.0378262 -0.0408363 0
0.0389828 -0.0416607 0
0.0401254 -0.0425042 0
0.0412543 -0.0433659 0
0.0423698 -0.0442451 0
0.043472 -0.0451408 0
0.0445612 -0.0460523 0
0.0456375 -0.0469789 0
0.0467013 -0.0479199 0
0.0477529 -0.0488746 0
0.0487923 -0.0498424 0
0.04982 -0.0508227 0
0.0508362 -0.051815 0
0.051841 -0.0528187 0
0.0528348 -0.0538333 0
0.0538178 -0.0548584 0
0.0547903 -0.0558935 0
0.0557524 -0.0569382 0
0.0567045 -0.0579922 0
0.0576467 -0.0590549 0
0.0585792 -0.0601261 0
0.0595024 -0.0612055 0
0.0604163 -0.0622926 0
0.0613212 -0.0633873 0
0.0622174 -0.0644891 0
0.0631049 -0.0655979 0
0.0639841 -0.0667134 0
0.064855 -0.0678353 0
0.0657179 -0.0689633 0
0.0665729 -0.0700974 0
0.0674202 -0.0712372 0
0.06826 -0.0723826 0
0.0690925 -0.0735333 0
0.0699178 -0.0746892 0
0.070736 -0.0758501 0
0.0715473 -0.0770159 0
0.0723518 -0.0781863 0
0.0731498 -0.0793612 0
0.0739412 -0.0805405 0
0.0747264 -0.081724 0
0.0755053 -0.0829116 0
0.0762781 -0.0841033 0
0.0770449 -0.0852987 0
0.0778059 -0.0864979 0
0.0785611 -0.0877007 0
0.0793108 -0.088907 0
0.0814681 -0.0912706 0
0.0828814 -0.0924245 0
0.0842946 -0.0935783 0
0.0857079 -0.0947322 0
0.0871211 -0.095886 0
0.0885344 -0.0970399 0
0.0899476 -0.0981937 0
0.0913609 -0.0993476 0
0.0927741 -0.100501 0
0.0941874 -0.101655 0
0.0956006 -0.102809 0
0.0970139 -0.103963 0
0.0984272 -0.105117 0
0.0998404 -0.106271 0
0.101254 -0.107424 0
0.102667 -0.108578 0
0.10408 -0.109732 0
0.105493 -0.110886 0
0.106907 -0.11204 0
0.10832 -0.113194 0
0.109733 -0.114348 0
0.111146 -0.115501 0
0.11256 -0.116655 0
0.113973 -0.117809 0
0.115386 -0.118963 0
0.116799 -0.120117 0
0.118213 -0.121271 0
0.119626 -0.122424 0
0.121039 -0.123578 0
0.122452 -0.124732 0
0.123866 -0.125886 0
0.125279 -0.12704 0
0.126692 -0.128194 0
0.128105 -0.129348 0
0.129519 -0.130501 0
0.130932 -0.131655 0
0.132345 -0.132809 0
0.133758 -0.133963 0
0.135172 -0.133216 0
0.135172 -0.131316 0
0.135172 -0.129415 0
0.135172 -0.127514 0
0.135172 -0.125614 0
0.135172 -0.123713 0
0.135172 -0.121813 0
0.135172 -0.119912 0
0.135172 -0.118012 0
0.135172 -0.116111 0
0.135172 -0.11421 0
0.135172 -0.11231 0
0.135172 -0.110409 0
0.135172 -0.108509 0
0.135172 -0.106608 0
0.135172 -0.104708 0
0.135172 -0.102807 0
0.135172 -0.100906 0
0.135172 -0.0990058 0
0.135172 -0.0971052 0
0.135172 -0.0952046 0
0.135172 -0.0933041 0
0.135172 -0.0914035 0
0.135172 -0.0895029 0
0.135172 -0.0876023 0
0.135172 -0.0857017 0
0.135172 -0.0838012 0
0.135172 -0.0819006 0
0.133758 -0.0788462 0
0.132345 -0.0776923 0
0.130932 -0.0765385 0
0.129519 -0.0753846 0
0.128105 -0.0742308 0
0.126692 -0.0730769 0
0.125279 -0.0719231 0
0.123866 -0.0707692 0
0.122452 -0.0696154 0
0.121039 -0.0684615 0
0.119626 -0.0673077 0
0.118213 -0.0661538 0
0.116799 -0.065 0
0.115386 -0.0638462 0
0.113973 -0.0626923 0
0.11256 -0.0615385 0
0.111146 -0.0603846 0
0.109733 -0.0592308 0
0.10832 -0.0580769 0
0.106907 -0.0569231 0
0.105493 -0.0557692 0
0.10408 -0.0546154 0
0.102667 -0.0534615 0
0.101254 -0.0523077 0
0.0998404 -0.0511538 0
0.0984272 -0.05 0
0.0970139 -0.0488462 0
0.0956006 -0.0476923 0
[...]
CELL_DATA 13116
SCALARS rho float
LOOKUP_TABLE default
0.56231
0.681833
0.382797
0.705686
0.707403
0.681309
0.325035
0.709244
0.510377
0.705419
0.349371
0.328706
0.7078
0.33087
0.321764
0.687397
0.562106
0.686196
0.707116
0.322821
0.555777
0.36318
0.33907
0.691246
0.586619
0.709518
0.705049
0.416589
0.564052
0.627155
1.14795
0.33115
0.532765
0.435802
0.331587
0.559788
0.657068
0.703465
0.996185
0.711195
0.702403
0.708651
0.434818
0.391667
0.708271
0.707519
0.682851
0.707449
0.337252
0.497616
0.707681
0.441317
0.278585
0.553999
0.53275
0.565811
0.39091
0.691344
0.507653
0.308971
0.33234
0.706801
0.685264
1.0489
1.13909
0.342894
0.70389
0.658367
0.707062
1.13927
0.330219
0.552798
0.370852
0.340909
1.14484
0.368536
0.660225
0.70739
0.336924
0.68219
0.67214
0.705196
0.694481
0.707751
0.702597
0.400699
0.32236
0.648059
0.706686
0.355357
0.332223
0.68213
0.696497
0.714406
0.638046
0.58639
0.588653
1.13862
1.14603
0.56859
0.65294
0.644483
0.704288
0.411157
0.68033
0.318706
0.352165
0.47798
0.364624
0.575241
0.505074
0.69622
0.58292
0.673473
0.682967
0.702138
0.328689
0.383572
0.707917
0.703814
0.65697
0.376791
0.707332
0.331249
0.717153
0.422741
0.321654
0.48007
0.377964
0.497456
0.708017
0.695983
0.462235
0.351231
0.441606
0.601426
1.13366
0.709043
0.651126
0.70319
0.64487
0.684888
0.480804
0.647426
0.673896
0.325641
0.337423
0.702668
0.704325
0.704205
0.506556
0.707754
0.707244
0.368956
0.705131
0.704204
0.338122
0.658626
1.13977
0.646678
0.691268
0.345217
0.695776
0.339339
0.383733
0.708424
0.714571
0.685765
0.329377
0.42399
0.395312
1.13497
0.295867
0.468268
0.699904
0.338167
0.35645
0.368319
0.694502
0.677476
0.323626
0.411909
0.528103
0.6555
0.68539
0.508064
0.348197
0.703656
0.682017
0.43959
0.645673
0.701129
1.13974
0.33544
0.694874
0.67514
0.701214
0.705132
0.706403
0.390357
0.411794
0.582089
0.475536
0.341555
0.700948
0.704621
0.448141
0.595724
0.297156
0.351715
0.371393
0.704264
0.33842
0.329788
0.349415
0.36934
0.374657
0.964737
0.71639
0.383523
0.384052
0.703623
0.500366
0.324837
0.508708
0.706739
0.671685
0.429178
0.700097
0.363694
0.713117
0.331951
1.14857
0.540769
1.137
0.709612
1.13208
0.311826
0.41878
0.643781
1.13756
0.67851
1.13359
1.13796
0.712183
0.35723
0.709012
0.706598
1.14406
0.35309
0.339401
0.706746
0.708128
1.14926
0.706855
0.557146
0.671451
0.348617
0.327398
0.388074
0.292519
0.674296
0.701056
0.659243
0.328447
0.709445
0.340453
0.397268
0.681919
0.362099
0.705971
0.706584
1.13769
0.691133
0.315554
1.13769
0.678249
1.14392
0.708958
0.336098
0.323151
0.336342
0.598499
0.375636
0.353045
0.335746
0.337033
0.696692
0.250308
0.704127
0.708994
0.335401
0.319588
0.339706
0.425555
0.386422
0.647307
0.62721
0.690053
0.360455
0.703581
0.538721
0.332935
0.314915
0.828666
0.708185
0.704391
0.350001
0.680855
0.419188
0.696378
0.70755
0.703988
0.70676
0.335759
0.700402
0.2823
0.697003
0.704781
0.638953
0.332351
0.331903
0.707229
0.343284
0.695197
0.707009
0.378699
0.670228
0.694096
0.339721
0.708908
0.696609
0.291622
0.708148
0.385272
0.52563
0.719643
0.399123
0.660822
0.327919
0.689017
0.325044
1.10736
0.656053
0.701631
0.381933
0.358996
0.703725
0.365849
0.702654
0.68513
0.407069
1.13455
0.361217
0.370331
0.705021
0.51401
0.659204
0.32509
0.338965
0.708979
0.708857
0.342319
0.709203
0.33527
0.31538
0.701494
0.718719
0.483183
0.365345
0.708526
1.14234
0.68663
0.708108
0.696504
0.509037
0.396352
0.285246
0.322315
0.680215
0.323641
0.528445
0.377899
0.334313
0.353245
0.490918
0.115535
0.367593
0.703779
0.337363
0.697501
0.56707
0.706274
0.638469
0.70906
0.370786
0.323151
0.392751
0.380363
0.702229
0.579553
0.704237
0.566734
0.67478
0.609803
0.703568
0.631958
0.625994
0.696431
0.680933
0.700269
0.390595
0.453132
0.559583
0.365228
0.624156
0.565494
0.292393
0.701298
1.1368
0.33625
0.327394
0.340531
0.346324
0.586902
0.334232
0.335678
0.703787
0.34312
0.542951
0.35357
0.69088
0.678441
0.419641
0.354483
0.704297
0.423833
0.357916
0.345064
0.357169
0.346556
0.326344
0.326015
0.366454
0.401857
0.346246
0.64329
0.399736
0.702904
0.385547
0.330125
0.455719
0.323103
0.352689
0.324744
0.711583
0.408538
0.603855
0.488355
0.343636
0.599536
0.705494
0.397945
0.669556
0.61466
0.61606
0.329706
1.13871
0.384819
0.695431
1.14762
0.339753
0.265216
0.680002
0.381063
0.397965
0.659374
0.352354
0.657276
0.678053
0.318626
0.355548
0.284135
0.463664
0.313764
0.273355
0.311931
0.282341
0.706335
0.705609
0.430577
0.571479
0.444421
0.692965
0.363592
0.35617
0.51557
0.339883
0.702737
0.324018
0.368544
0.457902
0.708459
0.71273
0.520331
0.379358
0.266289
0.518854
0.707995
1.13719
0.516625
0.677951
0.672536
0.345309
0.677057
0.537087
0.642258
0.339247
0.385934
0.672179
0.69997
0.636032
0.706008
0.703716
0.713578
0.690074
0.639271
0.705733
0.336698
0.708347
0.320973
0.296537
0.336641
0.705032
0.705598
0.319692
0.70176
0.578125
0.333812
1.11363
0.708132
0.690557
0.406861
0.35736
0.706421
0.360413
0.358013
0.318589
0.345677
0.699716
0.282037
0.704871
0.398414
0.680506
0.708425
0.706472
0.708602
0.361234
0.323222
0.705229
0.713069
0.65669
0.706668
0.706185
0.443708
0.337408
0.339352
0.701472
0.507584
0.339914
0.424494
0.334334
0.717913
0.701998
0.335424
0.363735
0.701193
0.406104
0.704198
0.622582
0.367556
0.363914
0.657447
1.13726
0.338807
0.711465
0.71527
0.705317
0.364509
1.13571
0.366089
1.13628
0.640612
0.365981
0.372029
0.3567
1.13581
0.38893
0.32729
0.386619
1.03913
0.692431
0.329962
0.324157
0.34696
1.08505
0.372503
0.681402
0.326712
0.555061
0.70652
0.385679
0.339071
0.338759
0.445607
0.337164
0.710162
0.360388
0.353937
0.674855
0.271727
0.70134
0.692535
1.13712
0.33759
0.70357
0.698562
0.701535
0.702153
0.720033
0.701067
0.327752
1.13981
0.389142
0.698853
0.332908
0.710433
0.486536
0.312249
1.14292
0.701518
0.359998
0.630535
0.332972
0.333297
0.704205
0.711602
0.334971
0.326188
0.334644
0.326803
0.719638
0.691004
0.36362
0.322468
0.701907
0.708644
0.557835
0.698467
0.699804
0.346728
0.702494
0.401308
0.708349
0.389558
0.57752
0.438662
0.699802
0.660692
0.537343
0.358319
0.376597
0.706508
0.562213
0.551401
0.697791
0.287465
0.679593
0.704528
0.339726
0.449062
0.699842
0.376046
1.1439
0.644988
0.331016
0.70384
0.636121
0.37331
0.689381
0.33622
0.702599
0.379298
0.703758
0.684379
0.324167
0.990861
0.696577
0.705194
0.580822
0.683142
0.538144
0.352658
0.416673
0.333587
0.341357
1.13337
0.511914
0.70822
0.703848
0.332613
0.377696
0.688352
0.705658
0.703987
0.706114
0.333074
0.680495
0.706902
0.323379
0.316776
0.707758
0.707079
0.700459
0.325388
0.543634
0.432752
0.68715
0.693758
1.13489
0.689316
0.340746
0.693163
0.703418
0.696075
0.711217
0.700875
0.384946
0.696352
0.351147
0.660652
0.706703
0.422827
0.678126
1.12693
0.708274
0.417321
0.400661
0.541185
0.625968
0.359703
0.366512
0.363775
0.34854
0.678687
0.678353
1.13528
0.33824
0.346158
0.706878
0.66015
0.294314
0.375176
0.428867
0.660041
0.705208
0.707414
0.684876
0.353063
0.360089
1.13539
0.3311
0.329203
0.377041
0.701351
0.436697
0.361251
0.559043
0.702515
0.693211
0.744378
0.702733
0.333772
0.272871
0.356184
0.495881
0.409723
0.332701
0.658229
0.68229
0.696707
0.704029
0.327535
0.343981
0.706126
0.348543
0.700395
0.685098
1.14036
0.334746
0.356695
0.703327
1.14524
0.583406
0.287737
0.704253
0.698562
0.555789
0.704556
0.705793
1.13654
0.676497
0.331651
0.701642
1.14524
0.639736
0.686467
1.13295
0.696977
1.13439
0.708591
0.351744
0.359629
0.346286
1.1409
0.489774
0.350576
0.6891
0.701246
0.327519
0.636778
0.425812
0.646023
0.480041
0.318957
0.705927
0.689667
0.34261
0.504773
1.1415
0.343917
0.712795
0.340691
0.316865
0.606516
0.581752
0.455586
0.705126
0.366198
0.696033
0.359308
0.326217
0.701825
0.339068
0.589496
0.334271
0.63825
0.578872
1.13568
0.713259
0.281057
0.354462
0.651046
0.439953
0.703257
0.44467
0.578681
0.683285
0.695367
0.450416
0.572587
0.694073
0.701869
0.705561
0.330295
0.365121
0.499672
0.694502
0.701118
0.378979
0.704463
0.584634
0.392247
0.334523
0.641197
0.660168
1.13388
1.136
0.656405
0.676564
0.956639
0.66565
0.333708
0.632652
0.425999
0.70341
0.707113
0.32307
0.719773
0.707608
0.365479
0.301459
0.340872
1.13326
0.344095
0.604408
0.692773
0.632668
0.326825
0.70122
0.341017
0.544913
1.08502
1.1416
0.656442
1.08464
0.593517
0.671049
0.510464
0.698286
0.382661
0.699992
0.706212
0.423751
1.13456
0.681755
0.3363
0.286079
0.357059
0.704847
0.366404
1.13732
0.351404
0.709688
0.272694
0.439062
0.330298
0.694364
0.707296
0.555459
0.260663
0.596311
0.890206
0.347678
0.559118
0.705282
0.331978
0.568704
1.1448
0.706917
0.700789
0.339473
0.472336
0.703815
0.707084
0.661533
0.363106
0.397275
0.705215
1.1352
1.13718
1.13509
0.545891
0.696446
0.541691
0.703244
0.362722
0.342043
1.13482
0.706784
0.997416
0.343217
0.700515
0.560204
0.599071
0.370329
0.384597
0.709235
0.708338
0.526983
0.388132
0.704513
1.13506
0.331566
0.583283
0.68401
0.335475
0.330062
0.275085
0.687268
0.367995
0.337969
0.708216
0.448877
0.702353
0.642927
0.319221
0.334488
0.707068
0.364673
0.339862
1.14569
0.322241
0.36837
0.572575
0.71987
0.702153
0.347774
0.414365
0.352279
0.692844
0.318374
0.703018
0.306096
0.691401
0.71764
0.708565
0.683992
0.689913
0.692217
0.704744
0.708429
0.705519
0.27324
0.350958
0.682348
0.895328
0.45776
0.687985
0.531805
1.02648
0.638662
0.416079
0.702851
0.705469
0.699392
0.354268
0.692975
0.38493
0.707494
0.445725
0.684469
0.702201
0.32162
0.700718
0.344403
0.430931
0.684294
0.380396
0.661535
1.13348
0.716655
0.349185
0.702418
0.351824
0.334424
0.334196
0.348828
0.639837
0.294707
0.64702
1.11748
0.386054
0.33538
0.4401
0.540369
0.6202
0.668374
0.337316
0.342765
0.342195
0.330072
0.260365
0.623611
0.700617
0.430884
1.10901
0.692315
0.278226
0.705085
0.657934
1.09439
0.359677
1.13863
0.681827
0.698228
0.703925
0.320961
0.701848
0.701381
0.693857
0.639108
0.682915
0.346298
0.3343
0.707804
0.494308
0.36075
0.700683
0.335728
0.526781
0.624852
0.702696
0.701516
0.333669
0.686433
0.38656
0.355636
0.673877
0.704615
0.702344
0.708933
0.652032
0.335202
0.708383
0.302324
0.456134
0.708633
1.14647
0.703722
0.355451
0.331308
0.706947
0.329297
0.706459
0.616057
0.40727
0.356849
0.702226
0.334214
0.701646
0.706059
0.657973
0.334244
0.361352
0.473516
0.506074
0.612166
0.448086
0.681145
0.669992
0.704731
1.13222
0.690898
0.278704
0.359439
0.707168
0.693794
0.657023
0.421077
0.342102
0.674558
0.268215
0.701192
0.57651
0.40009
0.701506
0.339868
0.717942
0.38059
0.704822
0.311265
0.705105
0.688397
0.328143
0.71678
0.625389
0.332829
1.13717
0.706971
0.532403
0.322145
0.375564
0.443914
0.699238
0.658824
0.384399
0.541013
0.69263
0.682645
0.329273
0.610691
0.692002
0.400288
0.681932
0.696957
0.296457
0.70725
1.14358
0.383201
0.586889
0.344686
0.647687
0.364936
0.315133
0.699456
0.344988
0.347683
0.276738
0.702693
0.690674
0.394536
0.705003
0.373622
0.667768
0.353349
0.68826
0.378165
0.691559
0.707829
0.6564
1.14299
0.507381
0.688595
1.09778
0.392189
0.605088
0.655636
0.515654
0.690449
0.445913
0.406546
0.708217
0.33702
0.542076
0.424196
0.704193
0.282464
0.335372
0.689293
0.702311
0.320601
0.703155
0.68131
1.13218
0.70585
1.13531
0.331554
0.70504
0.326234
0.339201
0.711542
0.687064
0.708684
0.702881
0.331559
0.369937
0.34898
0.683717
1.12083
0.374286
0.720158
0.34117
0.363857
0.368784
0.704123
0.388553
0.70832
0.705067
0.602333
0.711495
0.705276
0.56115
0.654997
0.398161
0.329797
0.322039
1.1352
1.13495
0.342349
0.624093
0.684853
0.654673
0.339606
0.419711
0.672038
0.314613
0.66587
0.627983
0.328708
0.850556
0.680076
0.352669
0.702033
0.331217
0.70788
0.702209
0.691048
0.272724
0.421119
0.661208
0.310835
0.390046
0.711017
0.324778
0.763885
0.705656
0.704774
0.681318
0.395634
1.13949
0.673201
0.706986
0.34811
0.708972
0.361015
0.320633
0.701964
0.705231
1.11535
0.246868
0.703535
0.601514
1.1449
0.342187
0.332792
0.360314
0.708717
0.336944
0.279401
0.373364
0.625894
0.316839
0.33012
0.401807
0.7037
0.339471
1.14522
1.02491
0.710271
0.352598
0.707935
0.634602
1.10717
0.388004
0.637368
0.339771
0.340839
0.701008
0.320755
0.627095
0.689448
1.1357
0.334124
0.334889
0.3602
0.516739
1.13366
0.253356
0.703668
0.703134
0.684454
0.355129
0.291966
0.332053
0.66369
0.348244
1.13291
0.567748
0.901792
0.705903
0.337918
0.631313
0.32871
0.627086
0.618373
0.705621
0.612154
0.519864
0.641674
0.659765
0.707403
0.343273
0.384697
0.343862
0.683389
0.512167
1.14635
0.33375
0.391133
0.695072
0.707935
1.14482
0.32227
0.709924
0.514964
0.519657
0.660784
0.331204
0.323399
0.301604
0.705
1.11961
0.636163
0.691526
0.341141
0.717381
0.632156
1.11971
1.12365
0.715092
0.70558
0.664898
0.687538
0.701025
0.340301
0.707496
0.709014
0.695128
0.708002
0.705745
0.597508
0.33198
0.319866
0.644672
0.361532
0.390991
0.712395
0.337366
0.602505
0.706673
0.684655
0.700751
0.337335
0.711255
0.333836
0.340882
0.674944
0.697449
0.704277
0.356704
0.709192
0.705034
0.651383
0.703603
0.362883
0.688023
0.706981
0.677349
0.389537
0.690006
0.354115
0.706344
0.377608
0.334563
0.565091
0.422015
0.706185
0.693668
0.700327
0.371336
0.679096
0.396439
0.325514
0.706772
0.439213
0.359418
0.702655
0.306094
0.465446
0.653774
0.678225
0.698986
0.442946
0.554432
0.640463
0.69967
0.598931
0.702895
0.495982
0.713297
0.690751
0.630667
0.326185
0.339341
0.418889
0.7088
0.336685
0.644527
0.703197
0.589438
0.70009
0.541329
0.664446
0.667261
0.358359
0.702956
0.683391
0.528111
0.683451
0.707779
0.710875
0.790703
0.355231
0.351514
0.69851
0.51656
0.547672
0.708791
0.70698
0.705378
0.699798
0.702362
0.610758
0.669437
0.705179
0.255143
0.33646
0.293542
0.407371
1.13714
0.43506
0.538363
0.701505
0.67172
0.339292
0.700917
0.705582
0.353843
0.373066
1.13876
0.708286
0.336773
0.324779
0.320494
1.13207
0.708721
0.391918
0.281361
0.327028
0.311789
0.373119
0.363891
0.714111
0.707705
0.684685
0.344358
0.684978
0.60342
0.571641
0.358402
0.328476
0.70655
1.13349
0.357256
0.685325
0.351161
0.690355
0.340205
0.711729
0.335816
0.696226
0.709147
0.352766
0.521561
0.342905
0.704827
0.324198
0.609625
0.335941
0.484622
0.343459
0.602621
0.348604
1.14716
1.14058
0.571095
0.689218
0.36062
0.689042
0.880787
0.709207
0.60009
0.668047
0.326958
0.416201
0.342748
0.697464
0.30505
0.707263
0.514176
0.685915
0.707189
0.4736
0.697073
0.329144
0.338698
0.270796
0.484552
0.569222
0.70615
0.355028
0.352657
0.698963
0.350696
0.334032
0.591691
0.373437
0.359443
0.320445
0.709458
0.624015
0.613598
0.339796
0.689288
0.704885
0.32823
0.310867
0.703717
0.70084
0.62515
0.471072
0.371464
0.347088
0.370661
0.719059
0.645786
0.50698
0.671541
0.294118
0.554532
0.340527
1.14104
0.707997
0.324739
0.325997
0.65101
0.587148
0.708736
0.701642
0.700963
0.703616
0.708586
0.371287
0.365279
0.345657
0.334976
0.560671
1.14045
0.625975
0.334937
0.332732
0.441504
0.330025
0.705781
0.676152
0.349968
0.339037
0.706656
0.336294
0.640205
0.697294
0.694066
0.68675
0.562675
0.357302
0.334568
0.66649
0.325051
0.423099
0.392034
0.887415
0.710016
0.310606
0.33012
1.13845
0.346805
0.698347
0.697319
0.34323
0.367043
0.24635
0.706456
0.328603
1.13361
0.685933
0.592985
0.325282
0.491164
0.706645
0.70219
0.328731
0.697949
0.644525
0.330699
0.707399
0.711516
0.353613
0.351338
0.703649
0.348154
0.33365
0.690772
0.329897
0.7078
0.66328
0.694741
0.644836
0.706363
0.706021
0.750431
0.343951
0.379015
0.661022
0.698996
0.418854
0.705273
0.352622
0.708342
0.699171
0.548743
0.632621
0.416407
0.427755
0.701844
0.704514
0.689286
0.709011
0.705049
1.1391
0.705345
1.13558
0.719966
0.708042
0.715406
1.1338
0.697257
0.331986
0.706516
0.394144
0.702158
0.707522
0.691029
0.690477
0.679266
0.364952
0.363854
0.320246
0.333839
0.691649
0.31902
0.360218
0.67488
0.325736
0.686466
0.368945
0.691975
0.702681
0.343649
0.352336
0.397119
0.708846
0.341812
0.705992
0.699753
0.360968
0.705173
0.524136
0.38925
0.398094
0.327724
0.67218
0.35277
0.703859
0.539291
0.348003
0.706648
0.702954
0.700442
0.351598
0.562118
0.334189
0.684565
0.776802
0.701902
0.364788
0.69792
0.709032
0.691229
0.398482
0.708821
0.357199
0.346961
0.71067
0.430504
0.705495
0.408827
0.363079
0.407356
0.693571
0.396963
0.333211
0.376038
0.484775
1.1435
0.702027
0.312181
0.596604
0.705599
0.515477
0.433592
0.403869
0.525987
0.364156
0.338387
0.707461
0.348851
0.351796
0.705787
0.705842
0.369475
0.685009
0.369398
1.14017
0.439789
0.708924
1.13877
0.681512
0.927485
0.363197
0.340518
0.334235
0.687954
0.70532
0.552155
0.515795
0.347352
0.317598
0.697956
0.346624
0.707796
0.357447
1.13774
0.660323
0.342349
0.392481
0.344172
0.330151
0.395273
0.652611
0.690828
0.336738
0.707867
0.62648
0.350425
0.287935
0.705283
0.357558
0.704433
0.39121
0.682545
0.638796
0.707905
1.14188
0.343689
0.702847
0.707808
0.709556
0.350179
0.659009
0.561221
0.392452
0.70891
0.656565
0.714058
0.690666
0.708476
0.70943
0.706323
0.698901
0.706738
0.336959
0.698044
0.342793
0.449835
0.7106
0.334218
0.698535
0.671556
0.348705
0.69032
0.349723
0.332364
0.707902
0.661083
0.705999
0.353392
0.69184
0.591894
0.419523
0.344184
0.714738
0.703656
0.371239
0.370089
0.691036
0.705637
0.355006
0.629558
0.70914
0.625491
0.342003
0.355769
0.333533
0.63937
0.312057
0.698013
0.682392
0.699186
0.607705
0.704572
0.35303
0.701741
0.581529
0.70923
0.61166
0.334547
0.338642
0.306231
0.692386
0.70213
0.387295
0.63636
0.416762
0.658498
0.703696
0.291341
0.642124
0.698908
0.614378
0.345093
0.322975
0.406806
0.70608
0.705805
0.590014
0.471336
0.707396
0.355511
0.615962
1.14105
0.697046
0.347746
0.589994
0.348939
0.678644
0.315868
0.703474
0.710716
0.340586
0.707176
0.438622
1.13378
0.641295
1.13261
0.704045
0.41453
0.69445
0.702801
0.706083
0.704259
0.431088
1.14101
0.260985
0.703822
0.300408
0.326571
0.290663
0.395508
0.362435
0.343606
0.708273
0.349838
0.285229
0.650181
0.707199
0.69138
0.393355
0.675838
0.670159
0.716978
0.345476
0.612725
0.70285
0.381834
0.373275
0.341903
0.617293
0.461502
0.339699
0.605336
0.328201
1.136
0.456285
0.317552
0.434831
0.632445
0.401077
0.700895
0.288427
0.506437
0.369044
0.716607
0.380739
0.650835
1.14254
0.678753
0.430158
0.335317
0.719964
0.70603
0.371694
0.334333
0.679169
0.326804
0.688877
0.345386
0.523094
0.306489
0.705392
0.367508
0.707162
0.32507
0.702594
0.706396
0.70565
1.13579
0.257648
0.337471
0.392176
0.711553
0.673453
0.692005
0.574057
0.354857
0.695376
0.402458
0.704495
0.651251
0.406646
0.353812
0.697833
0.704582
0.335367
1.14697
0.71973
0.70023
0.695248
0.286722
0.617103
0.345297
0.701617
0.309588
1.07975
0.703852
0.719726
0.706836
0.348775
0.7071
0.342836
0.358909
0.698152
1.13658
0.528154
0.700585
1.13691
0.355089
0.687708
0.716619
0.706497
0.33468
0.411456
0.669559
0.323388
0.708482
0.704471
0.7008
0.714577
0.29982
0.438708
0.628234
0.340087
0.70048
0.704701
0.457955
0.709862
0.265051
0.667111
0.688056
0.65745
0.715315
0.323272
0.335785
0.705891
0.696153
0.350094
0.362985
0.366829
0.33872
0.269588
0.329219
0.402741
0.360897
0.704371
0.301521
0.34478
0.689554
0.528225
1.1394
0.387708
0.331835
0.706121
0.447745
0.494938
0.70511
0.37553
0.635818
1.13636
0.575728
0.687103
0.348976
0.702819
1.03272
0.358673
0.3458
0.408721
0.669396
0.577025
0.708354
0.694446
0.6976
0.688108
0.386799
0.706044
0.944594
0.717605
0.337138
0.706357
0.632689
0.385633
0.410505
0.255873
0.33118
0.268381
0.5756
0.655247
0.683286
0.339647
0.356429
0.709093
0.327015
0.697382
0.703534
0.700027
0.65689
0.707937
0.381661
0.333026
0.324878
0.560735
0.316372
0.707028
0.323423
0.698666
0.676342
0.707457
0.407272
0.435262
0.411094
0.70583
0.369376
0.342681
0.712913
0.687995
0.634237
0.687442
0.714421
0.68839
0.36337
0.590569
0.705335
0.488243
0.705068
0.697467
0.692597
0.405223
0.388299
0.707037
0.453315
0.615989
0.349202
0.680406
0.702809
0.390753
0.313525
0.683304
0.482967
0.704438
0.696389
0.354926
0.322206
1.14332
0.419258
0.397305
0.705178
0.714477
0.345918
0.705621
1.14016
0.690109
0.364422
0.576466
0.360148
0.707907
0.707932
0.689051
0.679104
1.13791
0.334322
0.371621
0.689654
0.349724
0.572491
0.344889
0.707904
0.323133
0.637882
0.704279
1.13678
0.364958
1.13346
1.14307
0.340013
0.679118
0.326891
0.709118
0.361622
0.337514
0.315533
0.678575
0.708918
0.308332
0.316443
0.703498
0.708772
0.432511
0.679054
0.36205
0.488519
0.328779
0.687875
0.339211
0.652289
0.707937
0.369963
0.419182
0.336395
1.1275
0.36672
0.31905
0.704921