# vtk DataFile Version 1.0
unstructured grid
ascii
DATASET UNSTRUCTURED_GRID
points 13672 float
0.0796578 -0.059106 0
0.00128732 0.00159165 0
0.00227961 -0.00102548 0
0.0791586 -0.0598787 0
-0.0546216 0.01 0
0.000495206 0.025 0
0.0800549 -0.035 0
0.135172 -0.08 0
-0.0546216 -0.0451168 0
0.000495206 -0.0301168 0
0.0800549 -0.0901168 0
0.135172 -0.135117 0
-0.0546216 -0.0451168 -0.00551168
0.000495206 -0.0301168 -0.00551168
0.0800549 -0.0901168 -0.00551168
0.135172 -0.135117 -0.00551168
0.135172 -0.08 -0.00551168
0.0800549 -0.035 -0.00551168
0.000495206 0.025 -0.00551168
-0.0546216 0.01 -0.00551168
0.00128732 0.00159165 -0.00551168
0.00227961 -0.00102548 -0.00551168
0.0791586 -0.0598787 -0.00551168
0.0796578 -0.059106 -0.00551168
0.00165953 -0.000990923 0
0.00119576 -0.000874076 0
0.000866021 -0.000641801 0
0.000645147 -0.000349912 0
0.00052235 -1.7281e-05 0
0.00049972 0.000348016 0
0.000601632 0.000737716 0
0.000861774 0.0011403 0
0.00157235 0.00183217 0
0.00188647 0.00206725 0
0.00222612 0.00230203 0
0.00258713 0.00254351 0
0.00296826 0.00279524 0
0.00337118 0.00305664 0
0.00379785 0.00332658 0
0.00425045 0.00360349 0
0.00473139 0.00388521 0
0.0052432 0.00416895 0
0.0057881 0.00445204 0
0.00636753 0.00473281 0
0.00698281 0.00500961 0
0.00763526 0.00528058 0
0.00832616 0.00554366 0
0.00905691 0.00579603 0
0.00982918 0.00603333 0
0.0106445 0.00625033 0
0.0115038 0.00644128 0
0.0124073 0.00660297 0
0.0133543 0.00673414 0
0.0143444 0.00683382 0
0.0153769 0.00690031 0
0.0164512 0.00693173 0
0.0175666 0.00692547 0
0.0187219 0.00687822 0
0.0199156 0.00678477 0
0.0211454 0.00663864 0
0.0224084 0.00643275 0
0.0237018 0.00616676 0
0.0250249 0.00584739 0
0.026375 0.00547298 0
0.0277479 0.00503752 0
0.0291386 0.00453545 0
0.0305433 0.0039653 0
0.0319572 0.0033256 0
0.0333681 0.00260019 0
0.034775 0.00179799 0
0.0361793 0.000930615 0
0.0375798 3.12222e-06 0
0.0389689 -0.000988429 0
0.0403357 -0.00205109 0
0.041675 -0.00318283 0
0.0429849 -0.00437751 0
0.0442643 -0.00562904 0
0.0455126 -0.00693089 0
0.0467314 -0.00827518 0
0.0479204 -0.00965638 0
0.0490661 -0.0110799 0
0.0501515 -0.0125519 0
0.0511696 -0.0140695 0
0.0521492 -0.0156071 0
0.0531202 -0.0171411 0
0.0540851 -0.0186663 0
0.0550431 -0.0201798 0
0.0559923 -0.0216793 0
0.0569311 -0.0231626 0
0.0578582 -0.0246273 0
0.0587723 -0.0260715 0
0.0596721 -0.027493 0
0.0605563 -0.02889 0
0.0614241 -0.0302609 0
0.0622742 -0.0316042 0
0.063106 -0.0329183 0
0.0639186 -0.034202 0
0.0647113 -0.0354543 0
0.0654835 -0.0366743 0
0.0662345 -0.0378613 0
0.0669642 -0.0390145 0
0.0676726 -0.0401333 0
0.0683597 -0.0412172 0
0.0690246 -0.0422665 0
0.0696662 -0.0432819 0
0.0702841 -0.0442636 0
0.0708793 -0.0452111 0
0.0714538 -0.0461237 0
0.072009 -0.047001 0
0.0725452 -0.0478434 0
0.0730611 -0.0486524 0
0.073556 -0.0494294 0
0.0740291 -0.0501756 0
0.0744812 -0.0508916 0
0.0749138 -0.0515773 0
0.0753285 -0.0522331 0
0.0757266 -0.0528592 0
0.076109 -0.0534564 0
0.0764753 -0.0540264 0
0.0768243 -0.054571 0
0.0771553 -0.0550919 0
0.0774679 -0.0555901 0
0.0777617 -0.0560669 0
0.0780369 -0.056523 0
0.0782958 -0.0569578 0
0.0785421 -0.0573703 0
0.0787786 -0.0577603 0
0.0790073 -0.0581279 0
0.0792295 -0.058474 0
0.0794462 -0.0587995 0
0.0798803 -0.0594162 0
0.0800272 -0.0596588 0
0.0800357 -0.0598891 0
0.0799275 -0.0600784 0
0.0797205 -0.0601773 0
0.0794593 -0.0601051 0
0.0789155 -0.0596491 0
0.0786707 -0.0593963 0
0.0784111 -0.0591319 0
0.0781372 -0.0588542 0
0.0778566 -0.0585548 0
0.0775715 -0.0582308 0
0.0772803 -0.0578828 0
0.0769832 -0.0575099 0
0.0766822 -0.0571097 0
0.0763801 -0.0566796 0
0.0760759 -0.0562196 0
0.0757623 -0.0557337 0
0.0754359 -0.0552232 0
0.0750951 -0.0546879 0
0.0747379 -0.054128 0
0.0743626 -0.0535435 0
0.0739688 -0.0529338 0
0.0735559 -0.0522981 0
0.0731238 -0.0516357 0
0.0726718 -0.050946 0
0.0721991 -0.0502288 0
0.0717046 -0.049484 0
0.0711872 -0.0487117 0
0.0706461 -0.047912 0
0.0700804 -0.0470849 0
0.0694892 -0.0462308 0
0.0688718 -0.0453499 0
0.0682271 -0.0444431 0
0.0675544 -0.043511 0
0.0668527 -0.0425546 0
0.0661215 -0.0415748 0
0.06536 -0.040573 0
0.0645676 -0.0395504 0
0.0637439 -0.0385087 0
0.0628887 -0.0374493 0
0.062002 -0.0363741 0
0.0610838 -0.0352847 0
0.0601345 -0.0341831 0
0.0591547 -0.033071 0
0.0581456 -0.0319502 0
0.0571083 -0.0308224 0
0.0560444 -0.0296893 0
0.0549562 -0.028552 0
0.053845 -0.0274126 0
0.0527113 -0.0262746 0
0.051554 -0.0251427 0
0.0503724 -0.0240222 0
0.0491675 -0.0229164 0
0.047941 -0.0218282 0
0.0466955 -0.0207597 0
0.0454337 -0.0197126 0
0.0441592 -0.0186878 0
0.0428751 -0.0176863 0
0.0415841 -0.0167097 0
0.0402878 -0.0157609 0
0.0389879 -0.0148428 0
0.0376864 -0.0139575 0
0.0363853 -0.013107 0
0.0350871 -0.0122931 0
0.0337942 -0.0115164 0
0.0325095 -0.0107772 0
0.0312357 -0.0100756 0
0.0299758 -0.00941024 0
0.0287337 -0.00877784 0
0.0275126 -0.00817571 0
0.0263139 -0.00760375 0
0.0251376 -0.00706528 0
0.0239829 -0.0065649 0
0.0228537 -0.00609619 0
0.0217522 -0.00565563 0
0.0206795 -0.00524226 0
0.0196364 -0.00485507 0
0.0186233 -0.00449318 0
0.0176408 -0.00415577 0
0.016689 -0.00384204 0
0.0157682 -0.00355115 0
0.0148783 -0.00328218 0
0.0140192 -0.00303468 0
0.0131906 -0.00280795 0
0.0123925 -0.00260016 0
0.0116246 -0.00241012 0
0.0108864 -0.00223769 0
0.0101774 -0.00208212 0
0.00949701 -0.00194206 0
0.00884483 -0.0018163 0
0.0082202 -0.0017039 0
0.00762247 -0.00160391 0
0.00705097 -0.00151528 0
0.006505 -0.00143697 0
0.0059838 -0.00136806 0
0.00548662 -0.00130772 0
0.00501265 -0.00125519 0
0.00456114 -0.00120954 0
0.00413136 -0.00116914 0
0.00372257 -0.00113251 0
0.00333398 -0.00109853 0
0.00296466 -0.00106798 0
0.00261363 -0.0010431 0
-0.052721 -0.0445996 0
-0.0508204 -0.0440823 0
-0.0489199 -0.0435651 0
-0.0470193 -0.0430478 0
-0.0451187 -0.0425306 0
-0.0432181 -0.0420134 0
-0.0413175 -0.0414961 0
-0.039417 -0.0409789 0
-0.0375164 -0.0404616 0
-0.0356158 -0.0399444 0
-0.0337152 -0.0394271 0
-0.0318146 -0.0389099 0
-0.0299141 -0.0383927 0
-0.0280135 -0.0378754 0
-0.0261129 -0.0373582 0
-0.0242123 -0.0368409 0
-0.0223117 -0.0363237 0
-0.0204112 -0.0358065 0
-0.0185106 -0.0352892 0
-0.01661 -0.034772 0
-0.0147094 -0.0342547 0
-0.0128088 -0.0337375 0
-0.0109083 -0.0332202 0
-0.00900769 -0.032703 0
-0.00710711 -0.0321858 0
-0.00520653 -0.0316685 0
-0.00330595 -0.0311513 0
-0.00140537 -0.030634 0
0.00190689 -0.0299614 0
0.00332271 -0.0298498 0
0.00474133 -0.0297825 0
0.00616136 -0.0297597 0
0.0075814 -0.0297814 0
0.00900007 -0.0298477 0
0.010416 -0.0299583 0
0.0118278 -0.0301127 0
0.0132342 -0.0303103 0
0.0146339 -0.0305504 0
0.0160259 -0.0308322 0
0.0174091 -0.0311546 0
0.0187824 -0.0315166 0
0.020145 -0.031917 0
0.0214961 -0.0323546 0
0.0228351 -0.032828 0
0.0241613 -0.0333361 0
0.0254744 -0.0338774 0
0.0267738 -0.0344507 0
0.0280592 -0.0350545 0
0.0293306 -0.0356877 0
0.0305875 -0.0363488 0
0.0318301 -0.0370367 0
0.0330581 -0.0377501 0
0.0342717 -0.0384879 0
0.0354708 -0.0392489 0
0.0366556 -0.0400321 0
0.0378262 -0.0408363 0
0.0389828 -0.0416607 0
0.0401254 -0.0425042 0
0.0412543 -0.0433659 0
0.0423698 -0.0442451 0
0.043472 -0.0451408 0
0.0445612 -0.0460523 0
0.0456375 -0.0469789 0
0.0467013 -0.0479199 0
0.0477529 -0.0488746 0
0.0487923 -0.0498424 0
0.04982 -0.0508227 0
0.0508362 -0.051815 0
0.051841 -0.0528187 0
0.0528348 -0.0538333 0
0.0538178 -0.0548584 0
0.0547903 -0.0558935 0
0.0557524 -0.0569382 0
0.0567045 -0.0579922 0
0.0576467 -0.0590549 0
0.0585792 -0.0601261 0
0.0595024 -0.0612055 0
0.0604163 -0.0622926 0
0.0613212 -0.0633873 0
0.0622174 -0.0644891 0
0.0631049 -0.0655979 0
0.0639841 -0.0667134 0
0.064855 -0.0678353 0
0.0657179 -0.0689633 0
0.0665729 -0.0700974 0
0.0674202 -0.0712372 0
0.06826 -0.0723826 0
0.0690925 -0.0735333 0
0.0699178 -0.0746892 0
0.070736 -0.0758501 0
0.0715473 -0.0770159 0
0.0723518 -0.0781863 0
0.0731498 -0.0793612 0
0.0739412 -0.0805405 0
0.0747264 -0.081724 0
0.0755053 -0.0829116 0
0.0762781 -0.0841033 0
0.0770449 -0.0852987 0
0.0778059 -0.0864979 0
0.0785611 -0.0877007 0
0.0793108 -0.088907 0
0.0814681 -0.0912706 0
0.0828814 -0.0924245 0
0.0842946 -0.0935783 0
0.0857079 -0.0947322 0
0.0871211 -0.095886 0
0.0885344 -0.0970399 0
0.0899476 -0.0981937 0
0.0913609 -0.0993476 0
0.0927741 -0.100501 0
0.0941874 -0.101655 0
0.0956006 -0.102809 0
0.0970139 -0.103963 0
0.0984272 -0.105117 0
0.0998404 -0.106271 0
0.101254 -0.107424 0
0.102667 -0.108578 0
0.10408 -0.109732 0
0.105493 -0.110886 0
0.106907 -0.11204 0
0.10832 -0.113194 0
0.109733 -0.114348 0
0.111146 -0.115501 0
0.11256 -0.116655 0
0.113973 -0.117809 0
0.115386 -0.118963 0
0.116799 -0.120117 0
0.118213 -0.121271 0
0.119626 -0.122424 0
0.121039 -0.123578 0
0.122452 -0.124732 0
0.123866 -0.125886 0
0.125279 -0.12704 0
0.126692 -0.128194 0
0.128105 -0.129348 0
0.129519 -0.130501 0
0.130932 -0.131655 0
0.132345 -0.132809 0
0.133758 -0.133963 0
0.135172 -0.133216 0
0.135172 -0.131316 0
0.135172 -0.129415 0
0.135172 -0.127514 0
0.135172 -0.125614 0
0.135172 -0.123713 0
0.135172 -0.121813 0
0.135172 -0.119912 0
0.135172 -0.118012 0
0.135172 -0.116111 0
0.135172 -0.11421 0
0.135172 -0.11231 0
0.135172 -0.110409 0
0.135172 -0.108509 0
0.135172 -0.106608 0
0.135172 -0.104708 0
0.135172 -0.102807 0
0.135172 -0.100906 0
0.135172 -0.0990058 0
0.135172 -0.0971052 0
0.135172 -0.0952046 0
0.135172 -0.0933041 0
0.135172 -0.0914035 0
0.135172 -0.0895029 0
0.135172 -0.0876023 0
0.135172 -0.0857017 0
0.135172 -0.0838012 0
0.135172 -0.0819006 0
0.133758 -0.0788462 0
0.132345 -0.0776923 0
0.130932 -0.0765385 0
0.129519 -0.0753846 0
0.128105 -0.0742308 0
0.126692 -0.0730769 0
0.125279 -0.0719231 0
0.123866 -0.0707692 0
0.122452 -0.0696154 0
0.121039 -0.0684615 0
0.119626 -0.0673077 0
0.118213 -0.0661538 0
0.116799 -0.065 0
0.115386 -0.0638462 0
0.113973 -0.0626923 0
0.11256 -0.0615385 0
0.111146 -0.0603846 0
0.109733 -0.0592308 0
0.10832 -0.0580769 0
0.106907 -0.0569231 0
0.105493 -0.0557692 0
0.10408 -0.0546154 0
0.102667 -0.0534615 0
0.101254 -0.0523077 0
0.0998404 -0.0511538 0
0.0984272 -0.05 0
0.0970139 -0.0488462 0
0.0956006 -0.0476923 0
[...]
CELL_DATA 13116
SCALARS rho float
LOOKUP_TABLE default
0.5977
0.596935
0.555699
0.689815
0.677866
0.680731
0.404865
0.696638
0.5977
0.666354
0.378107
0.567533
0.678471
0.490625
0.511347
0.68079
0.5977
0.5977
0.68065
0.37256
0.5977
0.562751
0.538983
0.5977
0.5977
0.713678
0.643999
0.597713
0.5977
0.5977
0.678132
0.557362
0.5977
0.5977
0.412789
0.5977
0.5977
0.681211
0.680708
0.681059
0.680777
0.694662
0.5977
0.525582
0.681281
0.680978
0.59755
0.680399
0.548469
0.5977
0.688462
0.5977
0.441102
0.5977
0.5977
0.5977
0.522675
0.5977
0.5977
0.531033
0.494874
0.691975
0.597507
0.680618
0.679991
0.464113
0.680747
0.5977
0.680545
0.680529
0.510578
0.5977
0.568642
0.498576
0.736946
0.470896
0.5977
0.680629
0.383272
0.5977
0.5977
0.719952
0.5977
0.680791
0.681289
0.597707
0.420858
0.5977
0.679601
0.367587
0.575075
0.594766
0.597701
0.705271
0.5977
0.5977
0.5977
0.65787
0.671522
0.5977
0.5977
0.5977
0.680763
0.5977
0.597567
0.545021
0.597714
0.5977
0.58113
0.5977
0.5977
0.667779
0.5977
0.5977
0.5977
0.680559
0.447537
0.5977
0.681107
0.680594
0.5977
0.583397
0.680575
0.574236
0.707579
0.5977
0.428459
0.5977
0.55584
0.5977
0.680849
0.669331
0.5977
0.553637
0.5977
0.5977
1.12666
0.681129
0.5977
0.680701
0.5977
0.596583
0.5977
0.5977
0.5977
0.511602
0.409545
0.723034
0.667703
0.689763
0.5977
0.680843
0.680387
0.425826
0.593146
0.68107
0.558609
0.5977
0.665364
0.5977
0.5977
0.378535
0.597702
0.559138
0.589441
0.691184
0.706844
0.5977
0.409823
0.597699
0.597702
1.12657
0.507363
0.5977
0.680696
0.539465
0.528881
0.567047
0.6587
0.680394
0.36808
0.5977
0.5977
0.5977
0.680357
0.5977
0.42524
0.680768
0.596978
0.5977
0.5977
0.724741
0.680907
0.59078
0.665113
0.681175
0.597684
0.680946
0.680535
0.5977
0.5977
0.5977
0.5977
0.507027
0.673999
0.681712
0.5977
0.5977
0.520399
0.368211
0.466995
0.68086
0.571082
0.367965
0.368019
0.431814
0.597704
0.680622
0.708445
0.597709
0.513717
0.680732
0.5977
0.367984
0.5977
0.688498
0.5977
0.597709
0.680747
0.597712
0.696003
0.559921
0.680751
0.5977
0.674087
0.681064
0.68077
0.559241
0.5977
0.5977
0.836709
0.681237
1.12592
0.680556
0.698997
0.534917
0.681125
0.666663
0.664044
0.393003
0.553032
0.680866
0.680744
0.680852
0.680256
0.5977
0.5977
0.375283
0.575227
0.5977
0.51774
0.597703
0.597696
0.5977
0.399778
0.680644
0.441645
0.597707
0.597086
0.392176
0.719553
0.695192
1.00154
0.5977
0.556086
1.04712
0.5977
0.659961
0.680983
0.376331
0.410811
0.588574
0.5977
0.579148
0.571664
0.597573
0.59604
0.680736
0.452081
0.681045
0.679566
0.411896
0.370961
0.435323
0.5977
0.59183
0.5977
0.5977
0.598066
0.387869
0.680793
0.5977
0.581562
0.529683
0.680657
0.680683
0.680884
0.431206
0.681115
0.5977
0.674859
0.694186
0.678506
0.694195
0.597371
0.680824
0.487097
0.680703
0.693835
0.5977
0.367823
0.597174
0.674259
0.435904
0.655969
0.691881
0.597699
0.5977
0.5977
0.422176
0.680911
0.597701
0.48574
0.680656
0.597708
0.5977
0.701902
0.597707
0.5977
0.399445
0.5977
0.597246
0.680541
0.5977
0.59742
0.597714
0.597714
0.68128
0.421566
0.679872
0.592637
0.597699
1.12657
0.421781
0.545295
0.680743
0.5977
0.5977
0.417762
0.56185
0.680819
0.678772
0.402835
0.679497
0.465532
0.550183
0.680976
0.700739
0.5977
0.36774
0.680746
0.677847
0.680723
0.680728
0.597592
0.5977
0.597699
0.506729
0.368186
0.680639
0.367919
0.5977
0.597699
0.589181
0.597714
0.5977
0.585798
0.415484
0.68094
0.57475
0.597703
0.5977
0.680831
0.5977
0.681255
0.549908
0.407477
0.5977
0.597705
0.680467
0.5977
0.680679
0.5977
0.5977
0.5977
0.720754
0.5977
0.5977
0.595691
0.5977
0.680754
0.5977
0.5977
0.5977
0.55226
0.5977
0.5977
0.438351
0.680719
0.994447
0.597635
0.368157
0.36809
0.414292
0.5977
0.462703
0.589197
0.680985
0.462991
0.5977
0.367874
0.681281
0.5977
0.597714
0.554025
0.680939
0.5977
0.367816
0.413543
0.367909
0.584084
0.408195
0.367992
0.580364
0.597704
0.36788
0.5977
0.59771
0.680475
0.5977
0.571287
0.5977
0.51647
0.367699
0.519727
0.680596
0.597698
0.5977
0.5977
0.456301
0.5977
0.680369
0.597708
0.5977
0.5977
0.5977
0.406288
0.683937
0.5977
0.597703
0.66972
0.596036
0.44879
0.597617
0.5977
0.597708
0.5977
0.597714
0.5977
0.5977
0.371011
0.523303
0.491719
0.5977
0.524659
0.468576
0.506835
0.483875
0.691534
0.691611
0.5977
0.5977
0.5977
0.639764
0.597711
0.454214
0.5977
0.597045
0.681146
0.593281
0.597713
0.5977
0.681241
0.708445
0.5977
0.597699
0.442598
0.5977
0.69601
0.68054
0.5977
0.597703
0.597703
0.36774
0.5977
0.5977
0.5977
0.597683
0.590168
0.5977
0.597705
0.5977
0.688536
0.679684
0.710175
0.5977
0.5977
0.680765
0.367667
0.680919
0.597157
0.528889
0.367612
0.690456
0.681548
0.596672
0.681279
0.5977
0.367905
0.680931
0.680822
0.597703
0.597713
0.448248
0.680339
0.367773
0.367773
0.527936
0.367709
0.680451
0.477631
0.689758
0.597684
0.597582
0.679398
0.68079
0.679372
0.367741
0.368264
0.680808
0.695781
0.5977
0.691752
0.652163
0.597699
0.416553
0.597724
0.681095
0.5977
0.368179
0.5977
0.587559
0.702785
0.680943
0.597666
0.568721
0.680562
0.597706
0.680825
0.5977
0.549004
0.597712
0.5977
0.899936
0.563182
0.704952
0.709143
0.681086
0.454962
1.12452
0.511558
0.703535
0.5977
0.36773
0.597705
0.573711
0.678639
0.581764
0.397504
0.597698
0.680944
0.591897
0.393416
0.572146
0.36718
0.680746
0.574236
0.681142
0.50782
0.5977
0.687558
0.5977
0.553695
0.543835
0.597699
0.597723
0.716163
0.44297
0.47154
0.680895
0.469631
0.680842
0.600708
0.660166
0.36812
0.681276
0.597703
0.597647
0.680955
0.704123
0.680896
0.536424
0.680637
0.597709
0.680277
0.377909
0.698214
0.5977
0.419077
0.679103
0.590054
0.428998
0.5977
0.57424
0.505683
0.680906
0.680776
0.587296
0.520744
0.387531
0.537324
0.702373
0.5977
0.449314
0.376745
0.678071
0.680876
0.5977
0.597703
0.681001
0.376071
0.59567
0.597699
0.681461
0.597698
0.5977
0.597699
0.680802
0.5977
0.5977
0.597713
0.597707
0.680685
0.5977
0.5977
0.597703
0.509124
0.5977
0.583626
0.597711
0.5977
0.597705
0.597699
0.680595
0.5977
0.596591
0.681094
0.5977
0.556982
0.597603
0.585187
0.680069
0.497788
0.680874
0.597664
0.597721
0.680732
0.597702
0.68068
0.5977
0.597708
0.5977
0.596141
0.5977
0.574426
0.496008
1.12671
0.5977
0.680763
0.668488
0.367972
0.597361
0.596753
0.690279
0.680687
0.695443
0.367655
0.5977
0.671136
0.370453
0.577799
0.681348
0.680698
0.680601
0.543342
0.5977
0.5977
0.597703
0.621535
0.680777
0.652576
0.36792
0.669977
0.680881
0.5977
0.681032
0.681026
0.597709
0.59741
0.368616
0.5977
0.672429
0.597699
0.5977
0.680588
0.67866
0.5977
0.5977
0.5977
0.5977
0.367993
0.367827
0.397562
0.367774
0.597675
0.5977
0.680735
0.597205
0.368553
0.680481
0.5977
0.481832
0.597613
0.5977
0.5977
0.680867
0.680699
0.5977
0.367658
0.368038
1.12349
0.572046
0.368
0.449025
0.680785
0.597699
0.367739
0.5977
0.680935
0.649444
0.681091
0.680548
0.450284
0.486751
0.391271
0.5977
0.597698
0.564871
0.5977
0.5977
0.680298
0.680665
0.549515
0.367948
0.688703
0.367887
0.681021
0.597538
0.665475
0.58779
0.367863
0.679631
0.678084
0.5977
0.48126
0.681106
0.680957
0.5977
0.682507
0.696003
1.11347
0.597703
0.367604
0.680507
0.680621
0.5977
0.597703
1.12684
0.671524
1.09946
0.680754
0.468631
0.500471
0.367874
0.677101
0.5977
0.367965
0.594015
0.676915
0.564954
0.5977
0.597704
0.5977
0.5977
0.555186
0.691606
0.5977
0.368264
0.5977
0.678522
0.527877
0.694932
0.475993
0.54142
0.5977
0.5977
0.5977
0.680726
0.404205
0.597703
0.518574
0.555008
0.680827
0.368145
0.5977
0.582094
0.5977
0.5977
1.10328
0.705298
0.505326
0.477275
0.5977
0.5977
0.680679
0.5977
0.5977
0.680618
0.5977
0.5977
0.5977
0.654272
0.597417
0.680806
0.597597
0.367798
0.5977
0.654925
0.597683
0.597699
0.680937
0.5977
0.5977
0.584926
0.5977
0.5977
1.12453
0.68562
0.5977
0.5977
0.680791
0.5977
0.566908
0.5977
0.5977
0.681301
0.680764
0.595091
0.70294
0.681707
0.511275
0.547709
0.432399
1.12681
0.377657
0.5977
0.597685
0.5977
0.586207
0.681007
0.506318
0.5977
0.680624
0.680817
0.5977
0.68078
0.5977
0.5977
0.5977
0.680398
0.501594
0.680811
0.68066
0.5977
1.03192
0.5977
0.593807
0.509098
0.532736
0.678527
0.367952
1.05341
0.391365
0.69701
0.452495
0.597699
0.536905
0.597702
0.695509
0.5977
0.588397
0.5977
0.680619
0.369456
0.5977
0.691475
0.562349
0.5977
0.668301
0.688984
0.680963
0.597729
0.5977
0.679994
0.680919
0.5977
0.367687
0.5977
0.680684
1.12579
0.905265
1.12551
0.5977
0.670095
0.5977
0.68088
0.367603
0.510329
1.12558
0.679855
0.68098
0.472046
0.680904
0.5977
0.5977
0.497214
0.59771
0.679956
0.69131
0.5977
0.597699
0.68071
0.923765
0.401813
0.5977
0.5977
0.40366
0.569902
0.489966
0.587051
0.577557
0.367705
0.680906
0.5977
0.596338
0.5977
0.412793
0.412522
0.692218
0.503129
0.46342
0.677719
0.564984
0.597708
0.5977
0.705032
0.681474
0.368317
0.597698
0.381889
0.608351
0.548668
0.681418
0.46646
0.589341
0.705787
0.680947
0.596011
0.606943
0.598018
0.680833
0.679926
0.68073
0.472094
0.376393
0.595688
0.68083
0.5977
0.587405
0.5977
0.680798
0.5977
0.597714
0.680602
0.691074
0.680065
0.398588
0.66414
0.587883
0.680706
0.597699
0.5977
0.680865
0.556904
0.679683
0.367533
0.5977
0.597679
0.45542
0.5977
1.12684
0.701284
0.419566
0.680997
0.367481
0.584657
0.591081
0.368084
0.5977
0.512287
0.5977
0.680872
0.597699
0.594622
0.597699
0.5977
0.5977
0.5977
0.368088
0.444319
0.398309
0.533609
0.587381
0.5977
0.673586
0.597712
0.680622
0.597646
0.48597
0.690469
0.5977
0.680846
0.384684
0.763158
0.597704
0.592527
0.680661
0.524093
0.680773
0.605346
0.669492
0.5977
0.68087
0.574225
0.592357
0.68075
0.5977
0.367797
0.680848
0.559417
0.5977
0.5977
0.68001
0.680179
0.576009
0.589471
0.5977
0.398917
0.5977
0.680413
0.585905
0.681376
0.5977
0.585617
0.678757
0.527934
0.5977
0.69186
0.685884
0.679988
0.393101
0.579027
0.671917
0.58262
0.680481
0.5977
0.597699
0.594993
0.680909
0.577829
0.680842
0.681028
0.5977
0.580624
0.505706
0.5977
0.5977
0.5977
0.5977
0.680989
0.5977
0.680554
1.12672
0.591212
0.423608
0.592703
0.680252
0.68084
0.5977
0.597699
0.499512
0.5977
0.50245
0.681033
0.5977
0.597699
0.681005
0.369163
0.707538
0.557838
0.660439
0.55118
0.680635
0.6804
0.56518
0.70745
0.5977
0.571776
0.680666
0.680393
0.5977
0.511553
0.597698
0.5977
0.597704
0.5977
0.597699
0.5977
0.589914
0.680788
0.587229
0.5977
0.678548
0.597707
0.680834
0.680431
0.593416
0.680533
0.664788
0.547864
0.5977
0.402828
0.5977
0.411806
0.542182
0.597704
0.367757
0.3671
0.499701
0.680881
0.621282
0.5977
0.680825
0.597701
0.5977
0.367521
0.638555
0.597699
0.680627
0.680534
0.5977
0.680852
0.5977
0.680438
0.680838
0.59133
0.5977
0.5977
0.5977
0.591115
0.597699
0.5977
0.678677
0.369836
0.5977
0.597701
0.680684
0.470283
0.586721
0.5977
0.68079
0.369531
0.681137
0.5977
1.12683
0.696033
0.723952
0.367499
0.691248
0.368082
0.567608
0.684779
0.5977
0.695205
0.680331
0.554778
0.418293
0.385598
0.592466
0.680803
0.5977
0.703481
0.462482
0.418777
0.478252
0.680922
0.597698
0.689536
0.680985
0.5977
0.680958
0.68068
0.5977
0.5977
0.597708
0.571763
0.36876
0.727911
0.780263
0.478692
0.5977
0.591587
0.5977
0.595734
0.5977
0.5977
0.592128
0.5977
0.5977
0.368014
0.680966
0.597388
0.367552
0.681225
0.457796
0.680777
0.594173
0.635317
0.50716
0.597702
0.5977
0.595608
0.597707
0.68077
0.59736
0.68097
0.680841
0.72073
0.5977
0.5977
0.677849
0.5977
0.68078
0.597713
0.681091
0.534718
0.501972
0.680606
0.680873
0.680772
0.588839
0.680834
0.5977
0.752444
0.45068
0.463183
0.367743
0.680485
0.396739
0.469168
0.549759
0.5977
0.464562
0.594604
0.597707
0.681343
0.367563
0.680885
0.68066
0.680965
0.42582
0.680681
0.5977
0.680679
0.59771
0.5977
0.414246
0.369577
0.680997
0.36961
0.5977
0.597295
1.11681
0.36782
0.597268
0.423717
0.5977
1.12642
0.589865
0.681394
0.680965
0.5977
0.367362
0.523792
0.597606
0.5977
0.368271
1.12677
0.5977
0.680584
0.680636
0.374679
0.5977
0.540293
0.5977
0.5977
0.688868
0.5977
0.5977
0.5977
0.5977
0.680908
0.389276
0.5977
0.472688
0.5977
0.5977
0.699394
0.36779
0.597699
0.597702
0.680653
0.680858
0.368808
0.681052
0.5977
0.5977
0.5977
0.594557
0.368387
0.594332
0.680943
0.680473
0.5977
0.612702
0.5977
0.700351
0.5977
0.680472
0.68068
0.701618
0.691038
0.680724
0.5977
0.592955
0.597733
0.680834
0.681348
0.680792
0.680967
0.680861
0.5977
0.367811
0.557946
0.5977
0.367825
0.597699
0.680898
0.491865
0.5977
0.680485
0.595831
0.680673
0.597735
0.680969
0.593647
0.49388
0.680581
0.678858
0.680742
0.436714
0.679538
0.680726
0.5977
0.680664
0.550264
0.68075
0.673823
0.597705
0.5977
0.5977
0.374927
0.68933
0.46568
0.367722
0.5977
0.597699
0.690648
0.597701
0.680926
0.541071
0.680736
0.5977
0.498899
0.677162
0.597699
0.36772
0.680779
0.568225
0.5977
0.5977
0.597702
0.681199
0.597699
0.5977
0.5977
0.680807
0.5977
0.587233
0.5977
0.694778
0.591551
0.5977
0.543285
0.381563
0.597699
0.681442
0.592952
0.5977
0.681301
0.5977
0.68091
0.5977
0.5977
0.5977
0.3857
0.680849
0.59531
0.5977
0.595306
0.677777
0.715232
0.68085
0.367408
0.481708
0.679778
0.5977
0.5977
0.680902
0.680474
0.681092
0.597705
0.595471
0.5977
0.5977
0.691468
0.486139
0.574544
0.476347
0.597711
1.04166
0.5977
0.5977
0.68077
0.5977
0.57872
0.680754
0.689674
0.443959
0.597711
0.928441
0.680561
0.597725
0.546183
0.530011
1.12685
0.715282
0.5977
0.422451
0.368076
0.556881
0.597703
0.367757
0.696659
0.680436
0.597707
0.392284
0.593433
0.5977
0.5977
0.597659
0.369785
0.6757
1.12594
0.367789
0.681007
0.367642
0.5977
0.597529
0.680945
0.395294
0.681232
0.688612
0.418157
0.5977
0.586603
0.69097
0.566929
0.5977
0.550879
0.5977
0.411763
0.5977
0.368505
0.680923
0.680941
0.5977
0.597945
0.597709
0.656276
0.680885
0.679996
0.5977
0.5977
0.368873
0.5977
0.474486
0.597702
0.592047
0.681682
0.5977
0.5977
0.689269
0.5977
0.596062
0.500841
0.487057
0.484498
0.5977
0.5977
0.680275
0.384865
0.565192
0.680867
0.597711
0.572824
0.5977
0.597707
0.367739
0.555295
0.694376
0.5977
0.5977
0.526783
0.602378
0.68092
0.559462
0.596627
0.68068
0.680578
0.5977
0.5977
0.597709
0.597713
0.419863
0.703001
0.5977
0.5977
0.5977
0.526218
0.5977
0.370948
0.680603
0.68127
0.368062
0.579814
0.5977
0.5977
0.679111
0.587687
0.597664
0.681083
0.690973
0.440334
0.55855
0.479039
0.374515
0.5977
0.671449
0.5977
0.368433
0.367972
0.5977
0.567627
0.681193
0.597701
0.367844
0.597578
0.680673
0.562871
0.5977
0.597705
0.635588
0.680599
0.5977
0.367709
0.406097
0.5977
0.368053
0.5977
0.5977
0.680878
0.680789
0.589108
0.36789
1.12665
0.369953
0.680522
0.597702
0.367582
0.514588
0.448307
0.680897
0.452198
1.12678
0.597701
0.5977
0.553621
0.5977
0.680139
0.681169
0.396117
0.680825
0.5977
0.580223
0.681813
0.69293
0.389345
0.367778
0.679538
0.374361
0.374725
0.676217
0.597513
0.680972
0.5977
0.5977
0.5977
0.679537
0.680743
0.681149
0.388798
0.59771
0.5977
0.679961
0.597703
0.691123
0.597714
0.680706
0.681082
0.5977
0.5977
0.5977
0.5977
0.680879
0.679982
0.583693
0.691315
0.680662
1.11521
0.696902
1.12691
0.704408
0.677646
0.703384
1.12596
0.681094
0.576192
0.718462
0.586237
0.680973
0.680624
0.597701
0.590554
0.5977
0.505064
0.422611
0.596873
0.390532
0.59373
0.385826
0.389309
0.5977
0.546683
0.5977
0.415051
0.678764
0.681158
0.367629
0.597711
0.597699
0.680929
0.520766
0.680456
0.677227
0.432068
0.675537
0.5977
0.5977
0.597709
0.560132
0.5977
0.367789
0.680706
0.5977
0.592767
0.681055
0.680563
0.597702
0.367808
0.5977
0.55272
0.592275
0.680662
0.680551
0.367781
0.678992
0.680993
0.615711
0.597699
0.680944
0.367531
0.367775
0.680739
0.5977
0.608899
0.5977
0.367746
0.597703
0.641663
0.585588
0.576459
0.501924
0.5977
0.670061
0.68048
0.487954
0.5977
0.680852
0.5977
0.5977
0.597699
0.5977
0.367809
0.367983
0.680735
0.367767
0.367815
0.677818
0.69098
0.448781
0.5977
0.444284
1.03904
0.597711
0.678956
0.680506
0.5977
0.680808
0.529564
0.368309
0.576654
0.680659
0.680124
0.5977
0.5977
0.597708
0.594465
0.680877
0.38528
0.680809
0.597713
0.681076
0.5977
0.41564
0.538759
0.367693
0.367845
0.557412
0.5977
0.591732
0.392349
0.681127
0.5977
0.596368
0.503117
0.691025
0.368019
0.681114
0.597709
0.5977
0.5977
0.680567
0.672963
0.489365
0.594165
0.680634
0.693669
0.3679
0.5977
0.5977
0.597699
0.681191
0.5977
0.697082
0.650725
0.690531
0.681015
0.694206
0.680796
0.68039
0.367842
0.597702
0.367697
0.5977
0.680619
0.571896
0.680855
0.597702
0.558585
0.598611
0.367856
0.576896
0.678744
0.5977
0.691095
0.369117
0.660467
0.5977
0.597714
0.393357
0.710984
0.680951
0.597713
0.516955
0.597703
0.69111
0.36793
0.5977
0.688961
0.5977
0.437556
0.367608
0.564035
0.5977
0.553203
0.680836
0.5977
0.680909
0.5977
0.680962
0.368637
0.680406
0.5977
0.682552
0.5977
0.596459
0.392449
0.534078
0.5977
0.679822
0.597709
0.5977
0.597699
0.5977
0.680599
0.513888
0.5977
0.68062
0.5977
0.399753
0.407489
0.597708
0.681018
0.631797
0.5977
0.5977
0.680627
0.367913
0.5977
0.918471
0.678675
0.404637
0.5977
0.564356
0.597684
0.546294
0.681212
0.683401
0.520463
0.681588
0.5977
1.1255
0.5977
1.12675
0.679518
0.5977
0.680966
0.680291
0.681104
0.680954
0.597701
0.956964
0.464289
0.6804
0.528427
0.367837
0.544994
0.55132
0.36796
0.398036
0.691317
0.597713
0.475373
0.5977
0.681178
0.607234
0.5977
0.5977
0.5977
0.680699
0.58363
0.5977
0.680841
0.593945
0.530326
0.368477
0.5977
0.5977
0.367721
0.5977
0.55243
0.678183
0.5977
0.435756
0.597699
0.5977
0.597708
0.680932
0.51578
0.5977
0.597713
0.703263
0.597704
0.5977
0.89819
0.597697
0.5977
0.36774
0.7027
0.691908
0.535358
0.584907
0.680674
0.368048
0.5977
0.39173
0.5977
0.531834
0.680624
0.560525
0.69158
0.367889
0.680659
0.680149
0.680055
1.05719
0.461808
0.559659
0.5977
0.713629
0.5977
0.617224
0.5977
0.560009
0.597238
0.5977
0.679705
0.5977
0.5977
0.593994
0.597704
0.681467
0.546878
0.680729
0.701579
0.595845
0.5977
0.520339
0.5977
0.36737
0.586558
0.557685
0.680694
0.6782
0.704235
0.692111
0.595436
0.690797
0.36783
0.394094
0.680382
0.992402
0.5977
0.680512
1.01942
0.36727
0.5977
0.704656
0.695309
0.585242
0.597699
0.5977
0.391166
0.680753
0.6812
0.680628
0.703961
0.591347
0.5977
0.5977
0.52932
0.680287
0.690172
0.5977
0.679057
0.588994
0.5977
0.5977
0.5977
0.706135
0.407794
0.596837
0.680229
0.680689
0.548172
0.597713
0.547776
0.549261
0.473911
0.569901
0.597468
0.367804
0.680603
0.525713
0.438163
0.597703
0.5977
1.12637
0.597702
0.367848
0.680784
0.5977
0.5977
0.588511
0.597707
0.5977
0.680943
0.5977
0.625914
0.516195
0.680756
0.680873
0.448198
0.36781
0.5977
0.597701
0.5977
0.69012
0.680793
0.68031
0.642328
0.5977
0.680985
0.680998
0.708012
0.36789
0.680792
0.5977
0.5977
0.597698
0.446875
0.540502
0.476672
0.5977
0.5977
0.595587
0.367691
0.59771
0.691438
0.563638
0.650242
0.680234
0.68083
0.5977
0.680505
0.590393
0.545753
0.536425
0.5977
0.552407
0.68057
0.536738
0.681019
0.681104
0.681058
0.597713
0.5977
0.5977
0.68043
0.499493
0.369843
0.68054
0.64588
0.5977
0.680648
0.711892
0.5977
0.367714
0.5977
0.669307
0.5977
0.681026
0.59395
0.5977
0.597706
0.59771
0.694932
0.5977
0.5977
0.367305
0.597702
0.680826
0.5977
0.553464
0.5969
0.5977
0.67828
0.612006
0.367846
0.368973
0.66975
0.5977
0.5977
0.680854
0.71113
0.568593
0.680427
0.664048
0.590361
0.367877
0.5977
0.367645
0.68094
0.681316
0.5977
0.597704
0.675243
0.596321
0.597702
0.590097
0.367747
0.5977
0.586385
0.681036
0.504499
0.5977
0.655101
0.668299
0.367866
1.12666
0.748033
0.372442
0.597701
0.558338
0.69398
0.367813
0.406252
0.516908
0.5977
0.680876
0.59635
0.596613
0.721425
0.690931
0.5977
0.5977
0.367917
0.5977
0.367961
0.589898
0.369314
0.5977
0.68036
0.597714
0.5977
0.400961
0.680954
0.461357
0.370319
0.584191
0.595322
0.5977
0.5977
0.514922
0.6759
0.674607
0.708709
0.5977
0.585005
0.5977
0.577277
0.367865
0.681088
0.680455
0.597704
0.367878
0.597704
0.5977
0.662223
0.5977
0.594975
0.5977
0.597702
0.597714
0.688309
0.690429
0.5977
0.692404
0.575733
0.597701
0.367775
0.562294
0.552715
0.367525
0.691066
0.681604
0.691885
0.591984
0.674933
0.597689
0.5977
0.587721
0.527439
0.373133
0.540863
0.36775
0.679514
0.680628
0.371383
0.506336
0.681005
0.592393
0.5977
0.597703
0.5977
0.5977
0.5977
0.597691
0.5977
0.680668
0.680843
0.67647
0.690653
0.5977
0.591033
0.680905
0.574501
0.495686
0.597705
0.597707
0.579171
0.596518
0.367342
0.5977
0.596367
0.5977
0.5977
0.546777
0.597713
0.5977
0.597702
0.377971
0.5977
0.367876
0.5977
0.5977
0.68095
0.707595
0.68055
0.565321
0.542963
1.12647
0.680814
0.5977
0.679985
0.489878
0.45224
0.5977
0.538591
0.595321
0.680676
0.872793
0.5977
0.597703
0.68076
0.596396