# vtk DataFile Version 1.0
unstructured grid
ascii
DATASET UNSTRUCTURED_GRID
points 13672 float
0.0796578 -0.059106 0
0.00128732 0.00159165 0
0.00227961 -0.00102548 0
0.0791586 -0.0598787 0
-0.0546216 0.01 0
0.000495206 0.025 0
0.0800549 -0.035 0
0.135172 -0.08 0
-0.0546216 -0.0451168 0
0.000495206 -0.0301168 0
0.0800549 -0.0901168 0
0.135172 -0.135117 0
-0.0546216 -0.0451168 -0.00551168
0.000495206 -0.0301168 -0.00551168
0.0800549 -0.0901168 -0.00551168
0.135172 -0.135117 -0.00551168
0.135172 -0.08 -0.00551168
0.0800549 -0.035 -0.00551168
0.000495206 0.025 -0.00551168
-0.0546216 0.01 -0.00551168
0.00128732 0.00159165 -0.00551168
0.00227961 -0.00102548 -0.00551168
0.0791586 -0.0598787 -0.00551168
0.0796578 -0.059106 -0.00551168
0.00165953 -0.000990923 0
0.00119576 -0.000874076 0
0.000866021 -0.000641801 0
0.000645147 -0.000349912 0
0.00052235 -1.7281e-05 0
0.00049972 0.000348016 0
0.000601632 0.000737716 0
0.000861774 0.0011403 0
0.00157235 0.00183217 0
0.00188647 0.00206725 0
0.00222612 0.00230203 0
0.00258713 0.00254351 0
0.00296826 0.00279524 0
0.00337118 0.00305664 0
0.00379785 0.00332658 0
0.00425045 0.00360349 0
0.00473139 0.00388521 0
0.0052432 0.00416895 0
0.0057881 0.00445204 0
0.00636753 0.00473281 0
0.00698281 0.00500961 0
0.00763526 0.00528058 0
0.00832616 0.00554366 0
0.00905691 0.00579603 0
0.00982918 0.00603333 0
0.0106445 0.00625033 0
0.0115038 0.00644128 0
0.0124073 0.00660297 0
0.0133543 0.00673414 0
0.0143444 0.00683382 0
0.0153769 0.00690031 0
0.0164512 0.00693173 0
0.0175666 0.00692547 0
0.0187219 0.00687822 0
0.0199156 0.00678477 0
0.0211454 0.00663864 0
0.0224084 0.00643275 0
0.0237018 0.00616676 0
0.0250249 0.00584739 0
0.026375 0.00547298 0
0.0277479 0.00503752 0
0.0291386 0.00453545 0
0.0305433 0.0039653 0
0.0319572 0.0033256 0
0.0333681 0.00260019 0
0.034775 0.00179799 0
0.0361793 0.000930615 0
0.0375798 3.12222e-06 0
0.0389689 -0.000988429 0
0.0403357 -0.00205109 0
0.041675 -0.00318283 0
0.0429849 -0.00437751 0
0.0442643 -0.00562904 0
0.0455126 -0.00693089 0
0.0467314 -0.00827518 0
0.0479204 -0.00965638 0
0.0490661 -0.0110799 0
0.0501515 -0.0125519 0
0.0511696 -0.0140695 0
0.0521492 -0.0156071 0
0.0531202 -0.0171411 0
0.0540851 -0.0186663 0
0.0550431 -0.0201798 0
0.0559923 -0.0216793 0
0.0569311 -0.0231626 0
0.0578582 -0.0246273 0
0.0587723 -0.0260715 0
0.0596721 -0.027493 0
0.0605563 -0.02889 0
0.0614241 -0.0302609 0
0.0622742 -0.0316042 0
0.063106 -0.0329183 0
0.0639186 -0.034202 0
0.0647113 -0.0354543 0
0.0654835 -0.0366743 0
0.0662345 -0.0378613 0
0.0669642 -0.0390145 0
0.0676726 -0.0401333 0
0.0683597 -0.0412172 0
0.0690246 -0.0422665 0
0.0696662 -0.0432819 0
0.0702841 -0.0442636 0
0.0708793 -0.0452111 0
0.0714538 -0.0461237 0
0.072009 -0.047001 0
0.0725452 -0.0478434 0
0.0730611 -0.0486524 0
0.073556 -0.0494294 0
0.0740291 -0.0501756 0
0.0744812 -0.0508916 0
0.0749138 -0.0515773 0
0.0753285 -0.0522331 0
0.0757266 -0.0528592 0
0.076109 -0.0534564 0
0.0764753 -0.0540264 0
0.0768243 -0.054571 0
0.0771553 -0.0550919 0
0.0774679 -0.0555901 0
0.0777617 -0.0560669 0
0.0780369 -0.056523 0
0.0782958 -0.0569578 0
0.0785421 -0.0573703 0
0.0787786 -0.0577603 0
0.0790073 -0.0581279 0
0.0792295 -0.058474 0
0.0794462 -0.0587995 0
0.0798803 -0.0594162 0
0.0800272 -0.0596588 0
0.0800357 -0.0598891 0
0.0799275 -0.0600784 0
0.0797205 -0.0601773 0
0.0794593 -0.0601051 0
0.0789155 -0.0596491 0
0.0786707 -0.0593963 0
0.0784111 -0.0591319 0
0.0781372 -0.0588542 0
0.0778566 -0.0585548 0
0.0775715 -0.0582308 0
0.0772803 -0.0578828 0
0.0769832 -0.0575099 0
0.0766822 -0.0571097 0
0.0763801 -0.0566796 0
0.0760759 -0.0562196 0
0.0757623 -0.0557337 0
0.0754359 -0.0552232 0
0.0750951 -0.0546879 0
0.0747379 -0.054128 0
0.0743626 -0.0535435 0
0.0739688 -0.0529338 0
0.0735559 -0.0522981 0
0.0731238 -0.0516357 0
0.0726718 -0.050946 0
0.0721991 -0.0502288 0
0.0717046 -0.049484 0
0.0711872 -0.0487117 0
0.0706461 -0.047912 0
0.0700804 -0.0470849 0
0.0694892 -0.0462308 0
0.0688718 -0.0453499 0
0.0682271 -0.0444431 0
0.0675544 -0.043511 0
0.0668527 -0.0425546 0
0.0661215 -0.0415748 0
0.06536 -0.040573 0
0.0645676 -0.0395504 0
0.0637439 -0.0385087 0
0.0628887 -0.0374493 0
0.062002 -0.0363741 0
0.0610838 -0.0352847 0
0.0601345 -0.0341831 0
0.0591547 -0.033071 0
0.0581456 -0.0319502 0
0.0571083 -0.0308224 0
0.0560444 -0.0296893 0
0.0549562 -0.028552 0
0.053845 -0.0274126 0
0.0527113 -0.0262746 0
0.051554 -0.0251427 0
0.0503724 -0.0240222 0
0.0491675 -0.0229164 0
0.047941 -0.0218282 0
0.0466955 -0.0207597 0
0.0454337 -0.0197126 0
0.0441592 -0.0186878 0
0.0428751 -0.0176863 0
0.0415841 -0.0167097 0
0.0402878 -0.0157609 0
0.0389879 -0.0148428 0
0.0376864 -0.0139575 0
0.0363853 -0.013107 0
0.0350871 -0.0122931 0
0.0337942 -0.0115164 0
0.0325095 -0.0107772 0
0.0312357 -0.0100756 0
0.0299758 -0.00941024 0
0.0287337 -0.00877784 0
0.0275126 -0.00817571 0
0.0263139 -0.00760375 0
0.0251376 -0.00706528 0
0.0239829 -0.0065649 0
0.0228537 -0.00609619 0
0.0217522 -0.00565563 0
0.0206795 -0.00524226 0
0.0196364 -0.00485507 0
0.0186233 -0.00449318 0
0.0176408 -0.00415577 0
0.016689 -0.00384204 0
0.0157682 -0.00355115 0
0.0148783 -0.00328218 0
0.0140192 -0.00303468 0
0.0131906 -0.00280795 0
0.0123925 -0.00260016 0
0.0116246 -0.00241012 0
0.0108864 -0.00223769 0
0.0101774 -0.00208212 0
0.00949701 -0.00194206 0
0.00884483 -0.0018163 0
0.0082202 -0.0017039 0
0.00762247 -0.00160391 0
0.00705097 -0.00151528 0
0.006505 -0.00143697 0
0.0059838 -0.00136806 0
0.00548662 -0.00130772 0
0.00501265 -0.00125519 0
0.00456114 -0.00120954 0
0.00413136 -0.00116914 0
0.00372257 -0.00113251 0
0.00333398 -0.00109853 0
0.00296466 -0.00106798 0
0.00261363 -0.0010431 0
-0.052721 -0.0445996 0
-0.0508204 -0.0440823 0
-0.0489199 -0.0435651 0
-0.0470193 -0.0430478 0
-0.0451187 -0.0425306 0
-0.0432181 -0.0420134 0
-0.0413175 -0.0414961 0
-0.039417 -0.0409789 0
-0.0375164 -0.0404616 0
-0.0356158 -0.0399444 0
-0.0337152 -0.0394271 0
-0.0318146 -0.0389099 0
-0.0299141 -0.0383927 0
-0.0280135 -0.0378754 0
-0.0261129 -0.0373582 0
-0.0242123 -0.0368409 0
-0.0223117 -0.0363237 0
-0.0204112 -0.0358065 0
-0.0185106 -0.0352892 0
-0.01661 -0.034772 0
-0.0147094 -0.0342547 0
-0.0128088 -0.0337375 0
-0.0109083 -0.0332202 0
-0.00900769 -0.032703 0
-0.00710711 -0.0321858 0
-0.00520653 -0.0316685 0
-0.00330595 -0.0311513 0
-0.00140537 -0.030634 0
0.00190689 -0.0299614 0
0.00332271 -0.0298498 0
0.00474133 -0.0297825 0
0.00616136 -0.0297597 0
0.0075814 -0.0297814 0
0.00900007 -0.0298477 0
0.010416 -0.0299583 0
0.0118278 -0.0301127 0
0.0132342 -0.0303103 0
0.0146339 -0.0305504 0
0.0160259 -0.0308322 0
0.0174091 -0.0311546 0
0.0187824 -0.0315166 0
0.020145 -0.031917 0
0.0214961 -0.0323546 0
0.0228351 -0.032828 0
0.0241613 -0.0333361 0
0.0254744 -0.0338774 0
0.0267738 -0.0344507 0
0.0280592 -0.0350545 0
0.0293306 -0.0356877 0
0.0305875 -0.0363488 0
0.0318301 -0.0370367 0
0.0330581 -0.0377501 0
0.0342717 -0.0384879 0
0.0354708 -0.0392489 0
0.0366556 -0.0400321 0
0.0378262 -0.0408363 0
0.0389828 -0.0416607 0
0.0401254 -0.0425042 0
0.0412543 -0.0433659 0
0.0423698 -0.0442451 0
0.043472 -0.0451408 0
0.0445612 -0.0460523 0
0.0456375 -0.0469789 0
0.0467013 -0.0479199 0
0.0477529 -0.0488746 0
0.0487923 -0.0498424 0
0.04982 -0.0508227 0
0.0508362 -0.051815 0
0.051841 -0.0528187 0
0.0528348 -0.0538333 0
0.0538178 -0.0548584 0
0.0547903 -0.0558935 0
0.0557524 -0.0569382 0
0.0567045 -0.0579922 0
0.0576467 -0.0590549 0
0.0585792 -0.0601261 0
0.0595024 -0.0612055 0
0.0604163 -0.0622926 0
0.0613212 -0.0633873 0
0.0622174 -0.0644891 0
0.0631049 -0.0655979 0
0.0639841 -0.0667134 0
0.064855 -0.0678353 0
0.0657179 -0.0689633 0
0.0665729 -0.0700974 0
0.0674202 -0.0712372 0
0.06826 -0.0723826 0
0.0690925 -0.0735333 0
0.0699178 -0.0746892 0
0.070736 -0.0758501 0
0.0715473 -0.0770159 0
0.0723518 -0.0781863 0
0.0731498 -0.0793612 0
0.0739412 -0.0805405 0
0.0747264 -0.081724 0
0.0755053 -0.0829116 0
0.0762781 -0.0841033 0
0.0770449 -0.0852987 0
0.0778059 -0.0864979 0
0.0785611 -0.0877007 0
0.0793108 -0.088907 0
0.0814681 -0.0912706 0
0.0828814 -0.0924245 0
0.0842946 -0.0935783 0
0.0857079 -0.0947322 0
0.0871211 -0.095886 0
0.0885344 -0.0970399 0
0.0899476 -0.0981937 0
0.0913609 -0.0993476 0
0.0927741 -0.100501 0
0.0941874 -0.101655 0
0.0956006 -0.102809 0
0.0970139 -0.103963 0
0.0984272 -0.105117 0
0.0998404 -0.106271 0
0.101254 -0.107424 0
0.102667 -0.108578 0
0.10408 -0.109732 0
0.105493 -0.110886 0
0.106907 -0.11204 0
0.10832 -0.113194 0
0.109733 -0.114348 0
0.111146 -0.115501 0
0.11256 -0.116655 0
0.113973 -0.117809 0
0.115386 -0.118963 0
0.116799 -0.120117 0
0.118213 -0.121271 0
0.119626 -0.122424 0
0.121039 -0.123578 0
0.122452 -0.124732 0
0.123866 -0.125886 0
0.125279 -0.12704 0
0.126692 -0.128194 0
0.128105 -0.129348 0
0.129519 -0.130501 0
0.130932 -0.131655 0
0.132345 -0.132809 0
0.133758 -0.133963 0
0.135172 -0.133216 0
0.135172 -0.131316 0
0.135172 -0.129415 0
0.135172 -0.127514 0
0.135172 -0.125614 0
0.135172 -0.123713 0
0.135172 -0.121813 0
0.135172 -0.119912 0
0.135172 -0.118012 0
0.135172 -0.116111 0
0.135172 -0.11421 0
0.135172 -0.11231 0
0.135172 -0.110409 0
0.135172 -0.108509 0
0.135172 -0.106608 0
0.135172 -0.104708 0
0.135172 -0.102807 0
0.135172 -0.100906 0
0.135172 -0.0990058 0
0.135172 -0.0971052 0
0.135172 -0.0952046 0
0.135172 -0.0933041 0
0.135172 -0.0914035 0
0.135172 -0.0895029 0
0.135172 -0.0876023 0
0.135172 -0.0857017 0
0.135172 -0.0838012 0
0.135172 -0.0819006 0
0.133758 -0.0788462 0
0.132345 -0.0776923 0
0.130932 -0.0765385 0
0.129519 -0.0753846 0
0.128105 -0.0742308 0
0.126692 -0.0730769 0
0.125279 -0.0719231 0
0.123866 -0.0707692 0
0.122452 -0.0696154 0
0.121039 -0.0684615 0
0.119626 -0.0673077 0
0.118213 -0.0661538 0
0.116799 -0.065 0
0.115386 -0.0638462 0
0.113973 -0.0626923 0
0.11256 -0.0615385 0
0.111146 -0.0603846 0
0.109733 -0.0592308 0
0.10832 -0.0580769 0
0.106907 -0.0569231 0
0.105493 -0.0557692 0
0.10408 -0.0546154 0
0.102667 -0.0534615 0
0.101254 -0.0523077 0
0.0998404 -0.0511538 0
0.0984272 -0.05 0
0.0970139 -0.0488462 0
0.0956006 -0.0476923 0
[...]
CELL_DATA 13116
SCALARS rho float
LOOKUP_TABLE default
0.6144
0.708596
0.339181
0.701033
0.700164
0.695767
0.316701
0.702743
0.55515
0.700633
0.322833
0.297395
0.700154
0.299127
0.338837
0.697198
0.621244
0.697815
0.70446
0.324698
0.604029
0.341162
0.306957
0.698643
0.614755
0.704358
0.700611
0.331868
0.586625
0.657028
1.13392
0.302317
0.569631
0.47693
0.317784
0.61044
0.683899
0.711316
0.775076
0.701143
0.701503
0.7027
0.524422
0.32449
0.701847
0.704864
0.713468
0.703124
0.339849
0.530115
0.701505
0.517461
0.299213
0.613814
0.572765
0.599591
0.323345
0.699936
0.535855
0.337516
0.302282
0.700592
0.711029
0.851077
1.14463
0.315721
0.699507
0.684022
0.700256
1.13809
0.342133
0.573492
0.344033
0.316831
1.13279
0.3322
0.686738
0.700845
0.318464
0.697857
0.696088
0.70454
0.699093
0.707124
0.702534
0.417339
0.313445
0.675247
0.703591
0.346501
0.303215
0.709466
0.699589
0.703312
0.665878
0.621417
0.616604
1.14447
1.13362
0.591616
0.678414
0.691119
0.701192
0.458612
0.699617
0.281756
0.376442
0.552372
0.315891
0.599512
0.571524
0.704234
0.618375
0.695749
0.697887
0.699901
0.310172
0.413164
0.701683
0.700356
0.682672
0.34504
0.700237
0.302823
0.704147
0.449632
0.312874
0.503492
0.317595
0.527101
0.701427
0.705264
0.473783
0.352009
0.456875
0.640836
1.13616
0.700346
0.677265
0.700412
0.677628
0.714555
0.506778
0.68016
0.700585
0.297897
0.319779
0.704255
0.700525
0.701828
0.519441
0.707944
0.70262
0.334141
0.699932
0.703028
0.307677
0.682445
1.14149
0.67419
0.698656
0.321187
0.699954
0.309875
0.346178
0.700852
0.704324
0.697852
0.317416
0.440124
0.416319
1.13203
0.331221
0.497067
0.699651
0.305716
0.351376
0.341551
0.703934
0.690122
0.34024
0.435387
0.586832
0.682232
0.693563
0.539487
0.330753
0.698921
0.700051
0.469711
0.672223
0.703992
1.13054
0.307554
0.703504
0.6872
0.699686
0.699242
0.703845
0.382159
0.463391
0.607756
0.498692
0.312206
0.701497
0.710102
0.523488
0.627562
0.309923
0.331957
0.33328
0.698219
0.308175
0.339151
0.339797
0.334185
0.408213
0.769996
0.704458
0.402353
0.323308
0.699366
0.567765
0.340945
0.520599
0.700516
0.699166
0.331139
0.699608
0.385382
0.703512
0.302614
1.12079
0.558367
1.14374
0.702212
1.08121
0.321515
0.446756
0.67202
1.13215
0.686441
1.13876
1.06566
0.702846
0.352264
0.701139
0.700161
1.13471
0.325091
0.341319
0.709655
0.701405
1.13216
0.702342
0.614194
0.693049
0.322802
0.318002
0.445374
0.303211
0.696069
0.699625
0.68657
0.316112
0.701671
0.321952
0.414736
0.700709
0.332395
0.704616
0.701836
1.13182
0.700064
0.32587
1.13175
0.698999
1.13543
0.700249
0.319945
0.3176
0.307973
0.639367
0.345718
0.357642
0.359027
0.384868
0.715662
0.286494
0.703298
0.700493
0.325682
0.329255
0.32188
0.447414
0.346549
0.674599
0.671448
0.702653
0.33277
0.697712
0.554363
0.328429
0.336949
0.693775
0.701148
0.698991
0.33019
0.693097
0.458672
0.706008
0.702402
0.701635
0.702324
0.307862
0.699419
0.289112
0.698493
0.699973
0.668865
0.330931
0.354316
0.700243
0.319495
0.716981
0.700597
0.358965
0.690941
0.699106
0.321019
0.701843
0.699546
0.249296
0.700592
0.402393
0.539864
0.703879
0.415896
0.683893
0.316785
0.698729
0.357271
0.968859
0.689946
0.699952
0.326885
0.387619
0.702539
0.332833
0.701678
0.701238
0.431623
1.13178
0.334062
0.347557
0.701698
0.52515
0.684958
0.317107
0.308648
0.70111
0.700388
0.321255
0.700888
0.308225
0.258118
0.700326
0.703552
0.559995
0.364272
0.700477
1.13619
0.696931
0.702217
0.700892
0.523357
0.354785
0.295495
0.338592
0.694849
0.339988
0.588923
0.348783
0.305054
0.382342
0.566024
0.137083
0.333526
0.701957
0.299129
0.699792
0.591093
0.707515
0.667179
0.701074
0.347616
0.318701
0.383091
0.350803
0.701608
0.616149
0.703532
0.59054
0.700603
0.638773
0.704396
0.662768
0.655431
0.701194
0.697435
0.683039
0.446521
0.511985
0.613588
0.341478
0.672008
0.601481
0.303441
0.699744
1.13202
0.308133
0.325873
0.33357
0.332215
0.614265
0.338512
0.307675
0.69865
0.319083
0.56168
0.343465
0.698317
0.701374
0.346797
0.353555
0.701637
0.444391
0.350371
0.330889
0.356245
0.315011
0.319825
0.327276
0.337322
0.419424
0.326821
0.692304
0.348714
0.703794
0.367214
0.302076
0.467278
0.298541
0.343327
0.299203
0.701249
0.428654
0.633591
0.563405
0.318642
0.63061
0.703517
0.414393
0.690634
0.643414
0.644999
0.321801
1.13965
0.413053
0.700401
1.13395
0.311188
0.304814
0.698958
0.352207
0.415281
0.690786
0.376422
0.681476
0.703928
0.3318
0.350687
0.331816
0.493518
0.332885
0.259847
0.335973
0.285729
0.701194
0.700823
0.451816
0.594992
0.459953
0.703437
0.403147
0.324495
0.5587
0.311577
0.707299
0.34338
0.395957
0.469981
0.702849
0.704601
0.533546
0.358372
0.308986
0.53185
0.702543
1.1056
0.528721
0.70685
0.695507
0.328083
0.701153
0.55412
0.670852
0.392671
0.347763
0.695
0.699733
0.665308
0.700619
0.70465
0.704559
0.698769
0.668774
0.706714
0.34422
0.70204
0.347953
0.31789
0.343261
0.700901
0.710016
0.356558
0.703154
0.602601
0.332629
0.989166
0.701181
0.701234
0.330593
0.323586
0.701532
0.354636
0.36284
0.297366
0.329368
0.707982
0.249426
0.700583
0.348227
0.707727
0.70133
0.699628
0.700269
0.35585
0.333974
0.709292
0.703828
0.685479
0.701118
0.700116
0.456957
0.321653
0.312651
0.696961
0.545476
0.33463
0.443948
0.304645
0.702821
0.699306
0.387649
0.33966
0.704091
0.422127
0.702514
0.654476
0.317473
0.385551
0.684081
1.13273
0.311069
0.704494
0.704312
0.709449
0.330587
1.13231
0.321438
1.1448
0.669499
0.365747
0.407748
0.356155
1.14734
0.317117
0.31538
0.416172
0.848804
0.701801
0.316268
0.31501
0.335373
0.93586
0.344501
0.691092
0.297836
0.576062
0.700546
0.368575
0.309492
0.307931
0.458996
0.313681
0.704934
0.330001
0.341496
0.689098
0.318564
0.698166
0.716866
1.14544
0.355204
0.706881
0.699394
0.699613
0.697282
0.703874
0.700132
0.300555
1.12955
0.407548
0.708819
0.319732
0.702685
0.530468
0.313447
1.14844
0.700889
0.328829
0.659474
0.303446
0.342939
0.698506
0.701292
0.303682
0.299986
0.317616
0.29972
0.703128
0.698574
0.330677
0.332201
0.701674
0.700273
0.579343
0.699442
0.69883
0.322058
0.700099
0.421859
0.701351
0.421456
0.610652
0.451007
0.699178
0.686277
0.554223
0.400861
0.322601
0.699879
0.583412
0.611785
0.699521
0.296447
0.700141
0.699847
0.366112
0.51378
0.699408
0.349405
1.14596
0.672863
0.35111
0.700613
0.663609
0.349022
0.701884
0.307763
0.704309
0.329884
0.698009
0.711403
0.319247
0.780559
0.699818
0.701277
0.605432
0.705488
0.555756
0.367976
0.453689
0.299057
0.314749
1.13168
0.524184
0.700058
0.700659
0.346267
0.344857
0.704191
0.700566
0.701577
0.702031
0.32491
0.697042
0.700166
0.325233
0.291368
0.701779
0.709709
0.703927
0.300067
0.560564
0.346098
0.701807
0.712322
1.1034
0.711834
0.332343
0.708728
0.70344
0.69936
0.701604
0.696461
0.403589
0.701028
0.332519
0.696897
0.700378
0.44
0.703386
1.07051
0.701286
0.474243
0.435034
0.559024
0.656596
0.353884
0.365548
0.333836
0.327765
0.707111
0.699773
1.0847
0.390731
0.325124
0.700198
0.683831
0.254418
0.344456
0.446226
0.689612
0.699376
0.702427
0.699941
0.332755
0.354736
1.13183
0.302708
0.339674
0.331451
0.700294
0.34498
0.355921
0.596007
0.709464
0.703699
0.678948
0.698783
0.31147
0.32903
0.334959
0.56974
0.428873
0.303205
0.683982
0.699257
0.70533
0.697742
0.301239
0.358388
0.700604
0.346079
0.69612
0.713024
1.13997
0.303737
0.357519
0.704712
1.13668
0.632767
0.247754
0.702079
0.68254
0.594064
0.701698
0.70222
1.13179
0.70801
0.326098
0.698745
1.13604
0.675344
0.701551
1.13189
0.704579
1.13952
0.70004
0.34144
0.347153
0.358641
1.13955
0.536287
0.346427
0.704829
0.70161
0.295843
0.662258
0.3475
0.671713
0.558441
0.347835
0.700604
0.698272
0.336195
0.515228
1.13654
0.316921
0.703541
0.311949
0.28045
0.636607
0.607687
0.46685
0.701284
0.33418
0.70011
0.350704
0.299974
0.697967
0.333326
0.623137
0.304311
0.664558
0.610346
1.13325
0.704308
0.310623
0.343949
0.690956
0.528048
0.701592
0.486283
0.616655
0.696661
0.699263
0.537017
0.596459
0.703774
0.699759
0.69991
0.360366
0.366253
0.509558
0.703642
0.699927
0.432517
0.70056
0.631237
0.379319
0.30393
0.670513
0.688813
1.14362
1.14689
0.695531
0.698264
0.749804
0.691355
0.303073
0.662853
0.444137
0.701053
0.710041
0.36796
0.703286
0.70027
0.345446
0.326689
0.32109
1.13205
0.320958
0.634522
0.701246
0.663072
0.320906
0.712486
0.308748
0.561816
0.910264
1.10617
0.682353
0.943067
0.622767
0.695459
0.558093
0.709057
0.329293
0.699264
0.699415
0.514106
1.14372
0.700894
0.308267
0.306867
0.318203
0.701565
0.364996
1.13433
0.335956
0.702674
0.306213
0.451432
0.302428
0.700403
0.70174
0.614406
0.285995
0.625526
0.70802
0.336427
0.581049
0.700781
0.303064
0.600689
1.13529
0.700482
0.695547
0.310464
0.551044
0.701679
0.707189
0.696456
0.359262
0.431861
0.701825
1.13185
1.13243
1.13241
0.596401
0.704391
0.592731
0.700629
0.358675
0.310342
1.13259
0.700258
0.787985
0.315167
0.700052
0.607787
0.635874
0.332055
0.403265
0.700874
0.701417
0.548172
0.353682
0.701023
1.14389
0.317939
0.61005
0.699888
0.318825
0.301852
0.295217
0.701764
0.338224
0.346104
0.702141
0.491463
0.699966
0.667102
0.315567
0.321116
0.701368
0.345206
0.340122
1.13583
0.275721
0.406736
0.60471
0.704121
0.706193
0.326048
0.350249
0.323751
0.718154
0.277142
0.705568
0.331975
0.704763
0.70369
0.701144
0.705888
0.708628
0.711142
0.699232
0.700237
0.702149
0.253564
0.3329
0.708343
0.715115
0.470101
0.702208
0.560782
0.814695
0.675188
0.34598
0.700259
0.700686
0.710765
0.325584
0.708483
0.349731
0.70728
0.459329
0.698557
0.697385
0.353059
0.701698
0.33418
0.472199
0.709526
0.331739
0.684546
1.13265
0.702967
0.33247
0.698634
0.328795
0.303191
0.30509
0.341086
0.679035
0.328552
0.677146
1.00511
0.353699
0.30781
0.453405
0.558047
0.647053
0.70321
0.354465
0.317325
0.320815
0.302611
0.275042
0.649628
0.704649
0.335641
0.95974
0.701377
0.29625
0.700428
0.682188
0.945525
0.328755
1.13935
0.705253
0.701124
0.701571
0.333702
0.704486
0.700993
0.708212
0.669557
0.68781
0.350787
0.305545
0.707441
0.504502
0.360925
0.697745
0.306969
0.541491
0.6526
0.704394
0.704213
0.303563
0.701581
0.437726
0.326403
0.69375
0.70136
0.700224
0.701147
0.680841
0.303249
0.700209
0.332807
0.46849
0.700859
1.13314
0.701621
0.325989
0.318208
0.700273
0.331843
0.70172
0.647432
0.429503
0.360236
0.700557
0.304191
0.697322
0.701829
0.685655
0.304473
0.346745
0.494492
0.55502
0.640977
0.474348
0.697331
0.705207
0.703303
1.13175
0.703338
0.306927
0.355703
0.70102
0.685852
0.692965
0.437168
0.313279
0.700537
0.324982
0.699066
0.600821
0.353039
0.701723
0.323299
0.704393
0.344213
0.700273
0.327981
0.708568
0.682284
0.298126
0.703909
0.656121
0.299004
1.07431
0.700544
0.564298
0.296226
0.432487
0.475007
0.69938
0.700491
0.346698
0.556713
0.701971
0.686036
0.32218
0.644345
0.715458
0.416156
0.696371
0.698407
0.348139
0.70199
1.13785
0.334657
0.62271
0.333008
0.674388
0.335523
0.266403
0.69969
0.346479
0.336405
0.306931
0.6992
0.717253
0.44909
0.703617
0.423702
0.697949
0.33013
0.714994
0.34586
0.698007
0.705932
0.682114
1.08744
0.518209
0.681311
0.949399
0.335704
0.635867
0.682293
0.584705
0.704317
0.459006
0.448643
0.700174
0.339675
0.561894
0.348548
0.702471
0.260195
0.307281
0.698287
0.698786
0.331791
0.700674
0.69885
1.13195
0.701994
1.14698
0.327212
0.700386
0.334241
0.308894
0.703826
0.700167
0.702628
0.703874
0.301478
0.335123
0.32265
0.710517
1.01633
0.429435
0.703957
0.313868
0.334767
0.331216
0.703489
0.419141
0.700335
0.701953
0.632699
0.701417
0.702836
0.603074
0.684033
0.414454
0.29986
0.33224
1.1471
1.14596
0.313918
0.650113
0.700507
0.682145
0.310552
0.480442
0.706
0.311763
0.701907
0.668134
0.336839
0.702754
0.707857
0.352855
0.70698
0.335855
0.700133
0.699979
0.708648
0.321578
0.436424
0.684649
0.350255
0.407256
0.701233
0.370412
0.676689
0.699796
0.704521
0.698687
0.358049
1.14839
0.693468
0.705729
0.372884
0.700893
0.34963
0.290689
0.706115
0.699452
0.997375
0.254915
0.697561
0.631382
1.13256
0.316611
0.305104
0.354324
0.700985
0.319099
0.324507
0.349346
0.668037
0.334094
0.370358
0.417864
0.705851
0.344173
1.09713
0.798163
0.700842
0.331945
0.702049
0.664039
0.979858
0.406508
0.667941
0.320045
0.339538
0.698503
0.330752
0.65356
0.702212
1.13269
0.344935
0.355871
0.329346
0.529609
1.14104
0.263377
0.711631
0.699013
0.699503
0.331829
0.331409
0.360528
0.701032
0.339425
1.13239
0.590461
0.7138
0.702046
0.320495
0.658761
0.300873
0.687746
0.649781
0.700536
0.665304
0.587091
0.670368
0.694614
0.700726
0.335985
0.364575
0.320421
0.698412
0.548149
1.13284
0.343263
0.416773
0.700675
0.702373
1.12666
0.331216
0.700921
0.527737
0.533332
0.70202
0.313632
0.331156
0.353131
0.699565
1.03015
0.667795
0.703151
0.363907
0.703033
0.662834
1.01779
1.03583
0.702819
0.70064
0.689838
0.700491
0.700193
0.31116
0.700736
0.701122
0.699357
0.701482
0.699634
0.639447
0.333956
0.288913
0.681073
0.358308
0.355761
0.70138
0.343295
0.632203
0.700043
0.709909
0.710506
0.309292
0.701528
0.305014
0.31
0.695116
0.705989
0.698048
0.330586
0.700975
0.702313
0.68937
0.698837
0.343772
0.698958
0.700325
0.706009
0.371992
0.699233
0.325576
0.700683
0.332743
0.336146
0.62339
0.440555
0.700592
0.699974
0.694736
0.348658
0.696053
0.450456
0.339731
0.704802
0.453291
0.352658
0.701641
0.28364
0.476861
0.679971
0.710279
0.702765
0.456196
0.573368
0.669009
0.695294
0.641989
0.70033
0.505884
0.702501
0.7028
0.660697
0.2997
0.319091
0.437501
0.701078
0.308551
0.672483
0.700833
0.622
0.695947
0.602526
0.687109
0.692594
0.327728
0.700566
0.700419
0.593506
0.700226
0.700203
0.704915
0.684848
0.332614
0.34532
0.708515
0.554523
0.598675
0.700147
0.708048
0.70047
0.699795
0.700101
0.639011
0.706025
0.700342
0.322976
0.287263
0.25922
0.350209
1.13256
0.457629
0.59095
0.701918
0.695558
0.310193
0.709829
0.701014
0.329205
0.399824
1.13494
0.700459
0.314265
0.300406
0.297078
1.13193
0.704712
0.384285
0.307952
0.334485
0.266712
0.348373
0.362182
0.703512
0.704758
0.704553
0.336529
0.710806
0.637095
0.5946
0.362923
0.323997
0.704805
1.13572
0.34881
0.697374
0.35077
0.698503
0.31123
0.701112
0.330067
0.706315
0.701055
0.333547
0.535534
0.373876
0.700313
0.279002
0.641404
0.306024
0.517394
0.321744
0.638082
0.336707
1.11169
1.12375
0.594355
0.708841
0.363444
0.71584
0.716645
0.701
0.634028
0.698344
0.32514
0.492485
0.317027
0.699536
0.325686
0.700313
0.526354
0.700009
0.700469
0.553532
0.701102
0.341667
0.309058
0.328468
0.511169
0.628528
0.708848
0.333796
0.355255
0.697739
0.374459
0.303612
0.644629
0.404755
0.352659
0.289812
0.702625
0.655722
0.644079
0.311217
0.715673
0.699676
0.301073
0.345678
0.703557
0.698899
0.686686
0.482213
0.392018
0.372129
0.334755
0.703148
0.683772
0.550117
0.692573
0.320212
0.594329
0.322296
1.14687
0.700297
0.327984
0.332427
0.68768
0.641187
0.700346
0.700339
0.699433
0.701365
0.700622
0.334238
0.340266
0.321106
0.320564
0.616019
1.13579
0.657489
0.323353
0.349186
0.485865
0.302002
0.702647
0.708502
0.337424
0.393413
0.699905
0.312465
0.66897
0.700376
0.718316
0.690872
0.610761
0.361384
0.326635
0.705513
0.329413
0.460824
0.448284
0.717354
0.700507
0.327413
0.337445
1.13173
0.33709
0.699223
0.699585
0.352525
0.346034
0.299022
0.69994
0.307188
1.13268
0.701264
0.626062
0.299115
0.501399
0.701209
0.711152
0.316624
0.715315
0.679762
0.302056
0.70201
0.702185
0.324956
0.353281
0.705008
0.33382
0.320402
0.715147
0.354705
0.708487
0.686125
0.699308
0.676428
0.700339
0.699645
0.676573
0.32113
0.398212
0.693153
0.707866
0.434338
0.700501
0.40497
0.69999
0.703104
0.578262
0.662401
0.485956
0.446328
0.709825
0.700839
0.702461
0.701194
0.699
1.13258
0.702123
1.13171
0.703912
0.704566
0.702787
1.13591
0.679822
0.29909
0.704649
0.332374
0.700537
0.700485
0.700444
0.712838
0.697588
0.345481
0.331842
0.359923
0.317775
0.71805
0.326688
0.328949
0.697825
0.301184
0.70051
0.33444
0.716399
0.704067
0.346652
0.375246
0.353858
0.701085
0.317034
0.709083
0.701753
0.32937
0.704991
0.537603
0.360285
0.326165
0.300338
0.691924
0.355608
0.700599
0.602
0.377616
0.700044
0.702247
0.699415
0.349795
0.599713
0.304579
0.710959
0.682246
0.699974
0.362196
0.708089
0.700191
0.703145
0.425946
0.701008
0.356798
0.328469
0.701934
0.453471
0.700435
0.481468
0.359182
0.423928
0.703031
0.318915
0.298958
0.329735
0.557702
1.13494
0.702016
0.269393
0.632209
0.699539
0.527627
0.504513
0.35257
0.539872
0.361611
0.324405
0.710023
0.330152
0.344006
0.701534
0.701138
0.33028
0.698105
0.333934
1.13313
0.335823
0.704567
1.13194
0.698276
0.745211
0.346596
0.324223
0.304444
0.687927
0.704876
0.570232
0.538293
0.370017
0.336856
0.695965
0.321983
0.70781
0.3803
1.11676
0.685763
0.328468
0.322985
0.330793
0.336259
0.323588
0.689444
0.71736
0.331176
0.70169
0.654785
0.37778
0.328806
0.700829
0.34916
0.704977
0.408802
0.698992
0.667555
0.701951
1.14036
0.345227
0.700206
0.700621
0.702569
0.348299
0.700097
0.582348
0.354479
0.701155
0.683042
0.703041
0.717537
0.700526
0.702255
0.702227
0.699441
0.70158
0.347456
0.699388
0.331216
0.496095
0.701232
0.304539
0.70843
0.701943
0.35016
0.702467
0.349475
0.303216
0.70345
0.699614
0.701174
0.328313
0.718342
0.622244
0.337619
0.335271
0.704894
0.699479
0.395186
0.342484
0.701127
0.700909
0.361592
0.658846
0.700868
0.657051
0.32437
0.354592
0.302885
0.66799
0.332338
0.714791
0.698036
0.695932
0.641731
0.703753
0.329357
0.704139
0.606423
0.700928
0.667941
0.307298
0.319402
0.303111
0.698758
0.701619
0.405701
0.665537
0.351156
0.684497
0.700341
0.295476
0.677126
0.71415
0.641908
0.335438
0.317652
0.350902
0.701951
0.700392
0.619657
0.482367
0.70297
0.346188
0.646468
1.13189
0.708062
0.335205
0.61782
0.351918
0.700389
0.261214
0.709554
0.703484
0.311308
0.702012
0.525412
1.13367
0.665516
1.13217
0.701562
0.448005
0.694712
0.700435
0.70011
0.709376
0.445561
1.13197
0.267792
0.700404
0.311241
0.340379
0.313202
0.322293
0.358373
0.334307
0.70107
0.374048
0.328722
0.677662
0.701902
0.717843
0.391485
0.696384
0.691634
0.684345
0.279264
0.656492
0.699572
0.344924
0.34355
0.324203
0.645013
0.473406
0.351507
0.644409
0.301245
1.14729
0.468353
0.309234
0.447429
0.662309
0.350975
0.69936
0.322976
0.57746
0.393464
0.702941
0.408934
0.67921
1.13207
0.698377
0.508354
0.329826
0.703391
0.700737
0.34731
0.303094
0.69501
0.336056
0.69936
0.336748
0.536774
0.299732
0.699517
0.341834
0.700987
0.338566
0.700412
0.702324
0.700693
1.13499
0.271872
0.307301
0.378585
0.70484
0.697051
0.702674
0.632972
0.355342
0.701194
0.352451
0.705085
0.694902
0.453854
0.362165
0.700035
0.709692
0.305127
1.13479
0.703275
0.700278
0.699324
0.324833
0.648275
0.335615
0.700527
0.314693
0.901817
0.705176
0.704072
0.701339
0.382729
0.701686
0.343838
0.32796
0.699113
1.13509
0.561299
0.70879
1.13205
0.345984
0.698036
0.702834
0.70235
0.303534
0.43366
0.692049
0.326351
0.700196
0.701196
0.708371
0.702718
0.312349
0.474613
0.658788
0.309561
0.704089
0.700342
0.492988
0.703645
0.29407
0.705211
0.698025
0.681877
0.703699
0.316691
0.307949
0.708594
0.716178
0.350997
0.384911
0.342644
0.310527
0.323812
0.299954
0.344462
0.359592
0.708796
0.312805
0.325711
0.701245
0.564541
1.13185
0.411792
0.341008
0.699761
0.476891
0.568524
0.699997
0.405277
0.666087
1.09112
0.600764
0.713459
0.318556
0.701764
0.840352
0.324841
0.32723
0.452198
0.700404
0.60279
0.700394
0.697924
0.707709
0.712255
0.367209
0.701887
0.747579
0.704629
0.335851
0.699862
0.687446
0.363492
0.431369
0.294372
0.302611
0.306163
0.606545
0.681099
0.708337
0.325497
0.378734
0.701054
0.297544
0.701572
0.701631
0.711867
0.681458
0.703198
0.345356
0.303515
0.297772
0.60396
0.322162
0.70125
0.298493
0.698671
0.69615
0.70083
0.349711
0.467004
0.442044
0.702994
0.335318
0.323301
0.701661
0.714283
0.665592
0.696953
0.705034
0.699642
0.364467
0.6182
0.70029
0.498728
0.705129
0.701409
0.699901
0.420787
0.405588
0.702412
0.46569
0.646517
0.335716
0.708287
0.702506
0.374662
0.337483
0.708942
0.501377
0.7007
0.701512
0.357089
0.327231
1.14065
0.510327
0.434223
0.702841
0.70477
0.348197
0.703458
1.14275
0.71513
0.366814
0.605082
0.361892
0.702423
0.700339
0.699794
0.706812
1.1467
0.381489
0.426419
0.707448
0.336675
0.595744
0.363434
0.70183
0.292819
0.666736
0.70038
1.14706
0.362543
1.13228
1.13396
0.321467
0.706463
0.2998
0.702662
0.356449
0.328001
0.294457
0.703041
0.700924
0.350258
0.364255
0.704225
0.700589
0.450818
0.696196
0.357386
0.561782
0.340989
0.708525
0.323153
0.679858
0.702631
0.326038
0.507789
0.328683