# vtk DataFile Version 1.0
unstructured grid
ascii
DATASET UNSTRUCTURED_GRID
points 13672 float
0.0796578 -0.059106 0
0.00128732 0.00159165 0
0.00227961 -0.00102548 0
0.0791586 -0.0598787 0
-0.0546216 0.01 0
0.000495206 0.025 0
0.0800549 -0.035 0
0.135172 -0.08 0
-0.0546216 -0.0451168 0
0.000495206 -0.0301168 0
0.0800549 -0.0901168 0
0.135172 -0.135117 0
-0.0546216 -0.0451168 -0.00551168
0.000495206 -0.0301168 -0.00551168
0.0800549 -0.0901168 -0.00551168
0.135172 -0.135117 -0.00551168
0.135172 -0.08 -0.00551168
0.0800549 -0.035 -0.00551168
0.000495206 0.025 -0.00551168
-0.0546216 0.01 -0.00551168
0.00128732 0.00159165 -0.00551168
0.00227961 -0.00102548 -0.00551168
0.0791586 -0.0598787 -0.00551168
0.0796578 -0.059106 -0.00551168
0.00165953 -0.000990923 0
0.00119576 -0.000874076 0
0.000866021 -0.000641801 0
0.000645147 -0.000349912 0
0.00052235 -1.7281e-05 0
0.00049972 0.000348016 0
0.000601632 0.000737716 0
0.000861774 0.0011403 0
0.00157235 0.00183217 0
0.00188647 0.00206725 0
0.00222612 0.00230203 0
0.00258713 0.00254351 0
0.00296826 0.00279524 0
0.00337118 0.00305664 0
0.00379785 0.00332658 0
0.00425045 0.00360349 0
0.00473139 0.00388521 0
0.0052432 0.00416895 0
0.0057881 0.00445204 0
0.00636753 0.00473281 0
0.00698281 0.00500961 0
0.00763526 0.00528058 0
0.00832616 0.00554366 0
0.00905691 0.00579603 0
0.00982918 0.00603333 0
0.0106445 0.00625033 0
0.0115038 0.00644128 0
0.0124073 0.00660297 0
0.0133543 0.00673414 0
0.0143444 0.00683382 0
0.0153769 0.00690031 0
0.0164512 0.00693173 0
0.0175666 0.00692547 0
0.0187219 0.00687822 0
0.0199156 0.00678477 0
0.0211454 0.00663864 0
0.0224084 0.00643275 0
0.0237018 0.00616676 0
0.0250249 0.00584739 0
0.026375 0.00547298 0
0.0277479 0.00503752 0
0.0291386 0.00453545 0
0.0305433 0.0039653 0
0.0319572 0.0033256 0
0.0333681 0.00260019 0
0.034775 0.00179799 0
0.0361793 0.000930615 0
0.0375798 3.12222e-06 0
0.0389689 -0.000988429 0
0.0403357 -0.00205109 0
0.041675 -0.00318283 0
0.0429849 -0.00437751 0
0.0442643 -0.00562904 0
0.0455126 -0.00693089 0
0.0467314 -0.00827518 0
0.0479204 -0.00965638 0
0.0490661 -0.0110799 0
0.0501515 -0.0125519 0
0.0511696 -0.0140695 0
0.0521492 -0.0156071 0
0.0531202 -0.0171411 0
0.0540851 -0.0186663 0
0.0550431 -0.0201798 0
0.0559923 -0.0216793 0
0.0569311 -0.0231626 0
0.0578582 -0.0246273 0
0.0587723 -0.0260715 0
0.0596721 -0.027493 0
0.0605563 -0.02889 0
0.0614241 -0.0302609 0
0.0622742 -0.0316042 0
0.063106 -0.0329183 0
0.0639186 -0.034202 0
0.0647113 -0.0354543 0
0.0654835 -0.0366743 0
0.0662345 -0.0378613 0
0.0669642 -0.0390145 0
0.0676726 -0.0401333 0
0.0683597 -0.0412172 0
0.0690246 -0.0422665 0
0.0696662 -0.0432819 0
0.0702841 -0.0442636 0
0.0708793 -0.0452111 0
0.0714538 -0.0461237 0
0.072009 -0.047001 0
0.0725452 -0.0478434 0
0.0730611 -0.0486524 0
0.073556 -0.0494294 0
0.0740291 -0.0501756 0
0.0744812 -0.0508916 0
0.0749138 -0.0515773 0
0.0753285 -0.0522331 0
0.0757266 -0.0528592 0
0.076109 -0.0534564 0
0.0764753 -0.0540264 0
0.0768243 -0.054571 0
0.0771553 -0.0550919 0
0.0774679 -0.0555901 0
0.0777617 -0.0560669 0
0.0780369 -0.056523 0
0.0782958 -0.0569578 0
0.0785421 -0.0573703 0
0.0787786 -0.0577603 0
0.0790073 -0.0581279 0
0.0792295 -0.058474 0
0.0794462 -0.0587995 0
0.0798803 -0.0594162 0
0.0800272 -0.0596588 0
0.0800357 -0.0598891 0
0.0799275 -0.0600784 0
0.0797205 -0.0601773 0
0.0794593 -0.0601051 0
0.0789155 -0.0596491 0
0.0786707 -0.0593963 0
0.0784111 -0.0591319 0
0.0781372 -0.0588542 0
0.0778566 -0.0585548 0
0.0775715 -0.0582308 0
0.0772803 -0.0578828 0
0.0769832 -0.0575099 0
0.0766822 -0.0571097 0
0.0763801 -0.0566796 0
0.0760759 -0.0562196 0
0.0757623 -0.0557337 0
0.0754359 -0.0552232 0
0.0750951 -0.0546879 0
0.0747379 -0.054128 0
0.0743626 -0.0535435 0
0.0739688 -0.0529338 0
0.0735559 -0.0522981 0
0.0731238 -0.0516357 0
0.0726718 -0.050946 0
0.0721991 -0.0502288 0
0.0717046 -0.049484 0
0.0711872 -0.0487117 0
0.0706461 -0.047912 0
0.0700804 -0.0470849 0
0.0694892 -0.0462308 0
0.0688718 -0.0453499 0
0.0682271 -0.0444431 0
0.0675544 -0.043511 0
0.0668527 -0.0425546 0
0.0661215 -0.0415748 0
0.06536 -0.040573 0
0.0645676 -0.0395504 0
0.0637439 -0.0385087 0
0.0628887 -0.0374493 0
0.062002 -0.0363741 0
0.0610838 -0.0352847 0
0.0601345 -0.0341831 0
0.0591547 -0.033071 0
0.0581456 -0.0319502 0
0.0571083 -0.0308224 0
0.0560444 -0.0296893 0
0.0549562 -0.028552 0
0.053845 -0.0274126 0
0.0527113 -0.0262746 0
0.051554 -0.0251427 0
0.0503724 -0.0240222 0
0.0491675 -0.0229164 0
0.047941 -0.0218282 0
0.0466955 -0.0207597 0
0.0454337 -0.0197126 0
0.0441592 -0.0186878 0
0.0428751 -0.0176863 0
0.0415841 -0.0167097 0
0.0402878 -0.0157609 0
0.0389879 -0.0148428 0
0.0376864 -0.0139575 0
0.0363853 -0.013107 0
0.0350871 -0.0122931 0
0.0337942 -0.0115164 0
0.0325095 -0.0107772 0
0.0312357 -0.0100756 0
0.0299758 -0.00941024 0
0.0287337 -0.00877784 0
0.0275126 -0.00817571 0
0.0263139 -0.00760375 0
0.0251376 -0.00706528 0
0.0239829 -0.0065649 0
0.0228537 -0.00609619 0
0.0217522 -0.00565563 0
0.0206795 -0.00524226 0
0.0196364 -0.00485507 0
0.0186233 -0.00449318 0
0.0176408 -0.00415577 0
0.016689 -0.00384204 0
0.0157682 -0.00355115 0
0.0148783 -0.00328218 0
0.0140192 -0.00303468 0
0.0131906 -0.00280795 0
0.0123925 -0.00260016 0
0.0116246 -0.00241012 0
0.0108864 -0.00223769 0
0.0101774 -0.00208212 0
0.00949701 -0.00194206 0
0.00884483 -0.0018163 0
0.0082202 -0.0017039 0
0.00762247 -0.00160391 0
0.00705097 -0.00151528 0
0.006505 -0.00143697 0
0.0059838 -0.00136806 0
0.00548662 -0.00130772 0
0.00501265 -0.00125519 0
0.00456114 -0.00120954 0
0.00413136 -0.00116914 0
0.00372257 -0.00113251 0
0.00333398 -0.00109853 0
0.00296466 -0.00106798 0
0.00261363 -0.0010431 0
-0.052721 -0.0445996 0
-0.0508204 -0.0440823 0
-0.0489199 -0.0435651 0
-0.0470193 -0.0430478 0
-0.0451187 -0.0425306 0
-0.0432181 -0.0420134 0
-0.0413175 -0.0414961 0
-0.039417 -0.0409789 0
-0.0375164 -0.0404616 0
-0.0356158 -0.0399444 0
-0.0337152 -0.0394271 0
-0.0318146 -0.0389099 0
-0.0299141 -0.0383927 0
-0.0280135 -0.0378754 0
-0.0261129 -0.0373582 0
-0.0242123 -0.0368409 0
-0.0223117 -0.0363237 0
-0.0204112 -0.0358065 0
-0.0185106 -0.0352892 0
-0.01661 -0.034772 0
-0.0147094 -0.0342547 0
-0.0128088 -0.0337375 0
-0.0109083 -0.0332202 0
-0.00900769 -0.032703 0
-0.00710711 -0.0321858 0
-0.00520653 -0.0316685 0
-0.00330595 -0.0311513 0
-0.00140537 -0.030634 0
0.00190689 -0.0299614 0
0.00332271 -0.0298498 0
0.00474133 -0.0297825 0
0.00616136 -0.0297597 0
0.0075814 -0.0297814 0
0.00900007 -0.0298477 0
0.010416 -0.0299583 0
0.0118278 -0.0301127 0
0.0132342 -0.0303103 0
0.0146339 -0.0305504 0
0.0160259 -0.0308322 0
0.0174091 -0.0311546 0
0.0187824 -0.0315166 0
0.020145 -0.031917 0
0.0214961 -0.0323546 0
0.0228351 -0.032828 0
0.0241613 -0.0333361 0
0.0254744 -0.0338774 0
0.0267738 -0.0344507 0
0.0280592 -0.0350545 0
0.0293306 -0.0356877 0
0.0305875 -0.0363488 0
0.0318301 -0.0370367 0
0.0330581 -0.0377501 0
0.0342717 -0.0384879 0
0.0354708 -0.0392489 0
0.0366556 -0.0400321 0
0.0378262 -0.0408363 0
0.0389828 -0.0416607 0
0.0401254 -0.0425042 0
0.0412543 -0.0433659 0
0.0423698 -0.0442451 0
0.043472 -0.0451408 0
0.0445612 -0.0460523 0
0.0456375 -0.0469789 0
0.0467013 -0.0479199 0
0.0477529 -0.0488746 0
0.0487923 -0.0498424 0
0.04982 -0.0508227 0
0.0508362 -0.051815 0
0.051841 -0.0528187 0
0.0528348 -0.0538333 0
0.0538178 -0.0548584 0
0.0547903 -0.0558935 0
0.0557524 -0.0569382 0
0.0567045 -0.0579922 0
0.0576467 -0.0590549 0
0.0585792 -0.0601261 0
0.0595024 -0.0612055 0
0.0604163 -0.0622926 0
0.0613212 -0.0633873 0
0.0622174 -0.0644891 0
0.0631049 -0.0655979 0
0.0639841 -0.0667134 0
0.064855 -0.0678353 0
0.0657179 -0.0689633 0
0.0665729 -0.0700974 0
0.0674202 -0.0712372 0
0.06826 -0.0723826 0
0.0690925 -0.0735333 0
0.0699178 -0.0746892 0
0.070736 -0.0758501 0
0.0715473 -0.0770159 0
0.0723518 -0.0781863 0
0.0731498 -0.0793612 0
0.0739412 -0.0805405 0
0.0747264 -0.081724 0
0.0755053 -0.0829116 0
0.0762781 -0.0841033 0
0.0770449 -0.0852987 0
0.0778059 -0.0864979 0
0.0785611 -0.0877007 0
0.0793108 -0.088907 0
0.0814681 -0.0912706 0
0.0828814 -0.0924245 0
0.0842946 -0.0935783 0
0.0857079 -0.0947322 0
0.0871211 -0.095886 0
0.0885344 -0.0970399 0
0.0899476 -0.0981937 0
0.0913609 -0.0993476 0
0.0927741 -0.100501 0
0.0941874 -0.101655 0
0.0956006 -0.102809 0
0.0970139 -0.103963 0
0.0984272 -0.105117 0
0.0998404 -0.106271 0
0.101254 -0.107424 0
0.102667 -0.108578 0
0.10408 -0.109732 0
0.105493 -0.110886 0
0.106907 -0.11204 0
0.10832 -0.113194 0
0.109733 -0.114348 0
0.111146 -0.115501 0
0.11256 -0.116655 0
0.113973 -0.117809 0
0.115386 -0.118963 0
0.116799 -0.120117 0
0.118213 -0.121271 0
0.119626 -0.122424 0
0.121039 -0.123578 0
0.122452 -0.124732 0
0.123866 -0.125886 0
0.125279 -0.12704 0
0.126692 -0.128194 0
0.128105 -0.129348 0
0.129519 -0.130501 0
0.130932 -0.131655 0
0.132345 -0.132809 0
0.133758 -0.133963 0
0.135172 -0.133216 0
0.135172 -0.131316 0
0.135172 -0.129415 0
0.135172 -0.127514 0
0.135172 -0.125614 0
0.135172 -0.123713 0
0.135172 -0.121813 0
0.135172 -0.119912 0
0.135172 -0.118012 0
0.135172 -0.116111 0
0.135172 -0.11421 0
0.135172 -0.11231 0
0.135172 -0.110409 0
0.135172 -0.108509 0
0.135172 -0.106608 0
0.135172 -0.104708 0
0.135172 -0.102807 0
0.135172 -0.100906 0
0.135172 -0.0990058 0
0.135172 -0.0971052 0
0.135172 -0.0952046 0
0.135172 -0.0933041 0
0.135172 -0.0914035 0
0.135172 -0.0895029 0
0.135172 -0.0876023 0
0.135172 -0.0857017 0
0.135172 -0.0838012 0
0.135172 -0.0819006 0
0.133758 -0.0788462 0
0.132345 -0.0776923 0
0.130932 -0.0765385 0
0.129519 -0.0753846 0
0.128105 -0.0742308 0
0.126692 -0.0730769 0
0.125279 -0.0719231 0
0.123866 -0.0707692 0
0.122452 -0.0696154 0
0.121039 -0.0684615 0
0.119626 -0.0673077 0
0.118213 -0.0661538 0
0.116799 -0.065 0
0.115386 -0.0638462 0
0.113973 -0.0626923 0
0.11256 -0.0615385 0
0.111146 -0.0603846 0
0.109733 -0.0592308 0
0.10832 -0.0580769 0
0.106907 -0.0569231 0
0.105493 -0.0557692 0
0.10408 -0.0546154 0
0.102667 -0.0534615 0
0.101254 -0.0523077 0
0.0998404 -0.0511538 0
0.0984272 -0.05 0
0.0970139 -0.0488462 0
0.0956006 -0.0476923 0
[...]
CELL_DATA 13116
SCALARS rho float
LOOKUP_TABLE default
0.5977
0.5977
0.597698
0.5977
0.5977
0.680611
0.467738
0.597701
0.5977
0.5977
0.421151
0.5977
0.5977
0.589266
0.597694
0.680733
0.5977
0.5977
0.680779
0.407863
0.5977
0.597699
0.597708
0.5977
0.5977
0.5977
0.5977
0.5977
0.5977
0.5977
0.680486
0.597698
0.5977
0.5977
0.479901
0.5977
0.5977
0.595572
0.680914
0.627862
0.68079
0.5977
0.5977
0.597714
0.677043
0.68064
0.5977
0.677621
0.597699
0.5977
0.597703
0.5977
0.523099
0.5977
0.5977
0.5977
0.597714
0.5977
0.5977
0.597711
0.592695
0.5977
0.5977
0.680872
0.680958
0.556669
0.680773
0.5977
0.680999
0.680889
0.597663
0.5977
0.5977
0.595256
0.666907
0.566122
0.5977
0.5977
0.431921
0.5977
0.5977
0.5977
0.5977
0.596896
0.597687
0.5977
0.492814
0.5977
0.597701
0.368123
0.5977
0.5977
0.5977
0.597701
0.5977
0.5977
0.5977
0.680091
0.675276
0.5977
0.5977
0.5977
0.680575
0.5977
0.5977
0.5977
0.5977
0.5977
0.5977
0.5977
0.5977
0.5977
0.5977
0.5977
0.5977
0.681
0.532366
0.5977
0.597702
0.679706
0.5977
0.5977
0.679982
0.5977
0.5977
0.5977
0.504051
0.5977
0.597698
0.5977
0.597702
0.5977
0.5977
0.597699
0.5977
0.5977
1.12621
0.659389
0.5977
0.679451
0.5977
0.5977
0.5977
0.5977
0.5977
0.597705
0.474768
0.5977
0.5977
0.597198
0.5977
0.616351
0.679801
0.500112
0.5977
0.596766
0.597698
0.5977
0.679938
0.5977
0.5977
0.422481
0.5977
0.597698
0.5977
0.5977
0.5977
0.5977
0.475309
0.5977
0.5977
1.1231
0.597541
0.5977
0.681093
0.597708
0.597712
0.5977
0.5977
0.680795
0.384277
0.5977
0.5977
0.5977
0.680762
0.5977
0.499144
0.68117
0.5977
0.5977
0.5977
0.5977
0.680443
0.5977
0.5977
0.680807
0.5977
0.680857
0.597701
0.5977
0.5977
0.5977
0.5977
0.597578
0.5977
0.59616
0.5977
0.5977
0.597715
0.390273
0.56088
0.68071
0.5977
0.368729
0.367642
0.509247
0.5977
0.680572
0.5977
0.5977
0.59769
0.680986
0.5977
0.381687
0.5977
0.5977
0.5977
0.5977
0.680757
0.5977
0.5977
0.597698
0.680683
0.5977
0.673376
0.592838
0.680418
0.597699
0.5977
0.5977
0.672015
0.680863
1.11567
0.681219
0.597701
0.597707
0.59222
0.5977
0.678649
0.448661
0.597699
0.590227
0.597398
0.680604
0.597641
0.5977
0.5977
0.414953
0.5977
0.5977
0.597715
0.5977
0.5977
0.5977
0.459921
0.672569
0.524105
0.5977
0.5977
0.447055
0.5977
0.597701
0.758948
0.5977
0.597698
0.817086
0.5977
0.680064
0.663648
0.418165
0.477008
0.5977
0.5977
0.5977
0.5977
0.5977
0.5977
0.5977
0.539331
0.597678
0.5977
0.478227
0.401465
0.51478
0.5977
0.5977
0.5977
0.5977
0.5977
0.439809
0.680569
0.5977
0.5977
0.597711
0.681081
0.596284
0.68076
0.508233
0.680798
0.5977
0.5977
0.5977
0.593468
0.5977
0.5977
0.680636
0.585436
0.680801
0.5977
0.5977
0.370027
0.5977
0.5977
0.515408
0.5977
0.5977
0.5977
0.5977
0.5977
0.494669
0.661438
0.5977
0.583875
0.597698
0.5977
0.5977
0.5977
0.5977
0.5977
0.459378
0.5977
0.5977
0.681023
0.5977
0.5977
0.5977
0.5977
0.597289
0.49363
0.5977
0.5977
0.5977
1.12236
0.493986
0.597699
0.5977
0.5977
0.5977
0.487449
0.597698
0.591246
0.5977
0.464245
0.5977
0.558261
0.597698
0.681144
0.597701
0.5977
0.36776
0.624479
0.680554
0.681084
0.623146
0.5977
0.5977
0.5977
0.597373
0.384822
0.680933
0.380685
0.5977
0.5977
0.5977
0.5977
0.5977
0.5977
0.484338
0.596645
0.5977
0.5977
0.5977
0.680168
0.5977
0.596902
0.597698
0.471469
0.5977
0.5977
0.5977
0.5977
0.680579
0.5977
0.5977
0.5977
0.5977
0.5977
0.5977
0.5977
0.5977
0.680729
0.5977
0.5977
0.5977
0.597698
0.5977
0.5977
0.518904
0.680859
0.724631
0.5977
0.38744
0.36811
0.482204
0.5977
0.554626
0.5977
0.681067
0.555131
0.5977
0.367931
0.680654
0.5977
0.5977
0.597699
0.5977
0.5977
0.367486
0.480998
0.367621
0.5977
0.472626
0.382242
0.5977
0.5977
0.381143
0.5977
0.5977
0.597681
0.5977
0.5977
0.5977
0.597716
0.367901
0.597717
0.674262
0.5977
0.5977
0.5977
0.545595
0.5977
0.597701
0.5977
0.5977
0.5977
0.5977
0.469777
0.67393
0.5977
0.5977
0.680318
0.5977
0.534547
0.5977
0.5977
0.5977
0.5977
0.5977
0.5977
0.5977
0.401665
0.597714
0.590035
0.5977
0.597713
0.562582
0.597543
0.581926
0.5977
0.5977
0.5977
0.5977
0.5977
0.5977
0.5977
0.542082
0.5977
0.5977
0.597701
0.5977
0.5977
0.5977
0.672775
0.5977
0.5977
0.5977
0.525601
0.5977
0.597701
0.680251
0.5977
0.5977
0.5977
0.373939
0.5977
0.5977
0.5977
0.5977
0.5977
0.5977
0.5977
0.5977
0.5977
0.5977
0.5977
0.5977
0.5977
0.680441
0.36789
0.666304
0.5977
0.597713
0.36814
0.5977
0.592824
0.5977
0.597702
0.5977
0.368697
0.680451
0.59399
0.5977
0.5977
0.533566
0.5977
0.367359
0.368166
0.597715
0.370807
0.5977
0.574429
0.5977
0.5977
0.5977
0.597702
0.680471
0.5977
0.367457
0.385161
0.596889
0.5977
0.5977
0.5977
0.5977
0.5977
0.485898
0.5977
0.680926
0.5977
0.368108
0.5977
0.5977
0.597701
0.680294
0.5977
0.5977
0.597702
0.5977
0.59454
0.5977
0.597699
0.5977
0.5977
0.698775
0.597699
0.5977
0.5977
0.595583
0.543184
1.10234
0.597683
0.665409
0.5977
0.367772
0.5977
0.5977
0.673653
0.5977
0.456277
0.5977
0.680661
0.5977
0.449469
0.5977
0.367657
0.680575
0.5977
0.680863
0.597519
0.5977
0.5977
0.5977
0.597698
0.597703
0.5977
0.5977
0.5977
0.526076
0.566535
0.680764
0.564384
0.681017
0.5977
0.677022
0.367873
0.597702
0.5977
0.5977
0.680915
0.5977
0.681412
0.597709
0.680298
0.5977
0.5977
0.421615
0.597702
0.5977
0.489606
0.68074
0.5977
0.50491
0.5977
0.5977
0.59739
0.681023
0.674253
0.5977
0.597718
0.439449
0.597708
0.597701
0.5977
0.535184
0.417519
0.5977
0.668071
0.5977
0.5977
0.680761
0.416927
0.5977
0.5977
0.597703
0.5977
0.5977
0.5977
0.680908
0.5977
0.5977
0.5977
0.5977
0.681075
0.5977
0.5977
0.5977
0.597621
0.5977
0.5977
0.5977
0.5977
0.5977
0.5977
0.680552
0.5977
0.5977
0.660754
0.5977
0.597699
0.5977
0.5977
0.5977
0.594895
0.68044
0.5977
0.5977
0.680276
0.5977
0.5977
0.5977
0.5977
0.5977
0.5977
0.5977
0.5977
0.593449
1.12643
0.5977
0.678844
0.5977
0.368616
0.5977
0.5977
0.5977
0.5977
0.597701
0.386265
0.5977
0.5977
0.401056
0.5977
0.597702
0.606924
0.597702
0.597702
0.5977
0.5977
0.5977
0.5977
0.680659
0.5977
0.368371
0.5977
0.597682
0.5977
0.647239
0.681113
0.5977
0.5977
0.39281
0.5977
0.5977
0.5977
0.5977
0.680673
0.597656
0.5977
0.5977
0.5977
0.5977
0.367706
0.367764
0.455979
0.378367
0.5977
0.5977
0.680474
0.5977
0.390946
0.681121
0.5977
0.579514
0.5977
0.5977
0.5977
0.680745
0.59904
0.5977
0.384187
0.367977
1.07619
0.5977
0.368915
0.535134
0.680543
0.5977
0.367859
0.5977
0.597702
0.5977
0.680487
0.681011
0.536626
0.585393
0.445544
0.5977
0.5977
0.597699
0.5977
0.5977
0.5977
0.681652
0.597698
0.367948
0.5977
0.368389
0.68112
0.5977
0.680814
0.5977
0.367783
0.5977
0.680929
0.5977
0.578755
0.595894
0.680568
0.5977
0.596733
0.597701
0.973219
0.5977
0.382326
0.681003
0.680905
0.5977
0.5977
1.12639
0.5977
0.937076
0.672162
0.562576
0.596443
0.368009
0.680973
0.5977
0.36822
0.5977
0.5977
0.597699
0.5977
0.5977
0.5977
0.5977
0.597699
0.5977
0.5977
0.367839
0.5977
0.680588
0.597715
0.597701
0.572438
0.597704
0.5977
0.5977
0.5977
0.680392
0.466584
0.5977
0.597714
0.597698
0.680694
0.368282
0.5977
0.5977
0.5977
0.5977
0.978984
0.5977
0.597022
0.574031
0.5977
0.5977
0.5977
0.5977
0.5977
0.680964
0.5977
0.5977
0.5977
0.5977
0.5977
0.680865
0.5977
0.367909
0.5977
0.5977
0.5977
0.5977
0.680822
0.5977
0.5977
0.5977
0.5977
0.5977
1.09237
0.672338
0.5977
0.5977
0.68071
0.5977
0.597699
0.5977
0.5977
0.617397
0.609849
0.5977
0.5977
0.5977
0.597713
0.597699
0.510113
1.12603
0.420414
0.5977
0.5977
0.5977
0.5977
0.597644
0.597257
0.5977
0.680258
0.681213
0.5977
0.680506
0.5977
0.5977
0.5977
0.5977
0.596229
0.681094
0.680558
0.5977
0.772153
0.5977
0.5977
0.597568
0.597711
0.59411
0.367736
0.792389
0.445483
0.597701
0.540109
0.5977
0.597709
0.5977
0.597701
0.5977
0.5977
0.5977
0.680586
0.396684
0.5977
0.5977
0.597699
0.5977
0.680761
0.5977
0.680991
0.5977
0.5977
0.5977
0.68022
0.5977
0.368011
0.5977
0.591181
1.10896
0.693247
1.11734
0.5977
0.5977
0.5977
0.666346
0.367988
0.597619
1.11347
0.5977
0.680876
0.567442
0.681032
0.5977
0.5977
0.594614
0.5977
0.5977
0.5977
0.5977
0.5977
0.680542
0.684456
0.462704
0.5977
0.5977
0.465715
0.5977
0.588315
0.5977
0.5977
0.367812
0.63307
0.5977
0.5977
0.5977
0.480073
0.479469
0.5977
0.597042
0.555668
0.681094
0.597699
0.5977
0.5977
0.5977
0.5977
0.388786
0.5977
0.428979
0.5977
0.597699
0.5977
0.560182
0.5977
0.5977
0.66976
0.5977
0.5977
0.5977
0.680931
0.5977
0.597702
0.5674
0.417716
0.5977
0.681161
0.5977
0.5977
0.5977
0.681077
0.5977
0.5977
0.680913
0.5977
0.597701
0.45782
0.5977
0.5977
0.591151
0.5977
0.5977
0.68071
0.597699
0.5977
0.367447
0.5977
0.5977
0.544533
0.5977
1.12621
0.597701
0.490538
0.681186
0.378169
0.5977
0.5977
0.367544
0.5977
0.59769
0.5977
0.680888
0.5977
0.5977
0.5977
0.5977
0.5977
0.5977
0.367832
0.5279
0.457002
0.597713
0.5977
0.5977
0.5977
0.5977
0.680414
0.5977
0.58417
0.5977
0.5977
0.680859
0.434333
0.666145
0.5977
0.5977
0.591765
0.597713
0.5977
0.5977
0.5977
0.5977
0.680981
0.5977
0.5977
0.651425
0.5977
0.367752
0.680787
0.597698
0.5977
0.5977
0.5977
0.597701
0.5977
0.5977
0.5977
0.458473
0.5977
0.5977
0.5977
0.592533
0.5977
0.5977
0.5977
0.597712
0.5977
0.5977
0.673445
0.5977
0.449041
0.5977
0.5977
0.5977
0.5977
0.5977
0.5977
0.5977
0.679101
0.5977
0.680517
0.5977
0.5977
0.5977
0.597469
0.5977
0.5977
0.5977
0.5977
0.681057
0.5977
0.59702
1.1266
0.5977
0.496739
0.5977
0.5977
0.681127
0.5977
0.5977
0.596008
0.5977
0.596487
0.680465
0.5977
0.5977
0.5977
0.394721
0.5977
0.597699
0.5977
0.597699
0.597664
0.6808
0.597699
0.597701
0.5977
0.5977
0.681227
0.680533
0.5977
0.597693
0.5977
0.5977
0.5977
0.5977
0.5977
0.5977
0.5977
0.680793
0.5977
0.5977
0.5977
0.5977
0.681014
0.68107
0.5977
0.597431
0.680445
0.597699
0.5977
0.46417
0.5977
0.478561
0.597703
0.5977
0.367514
0.367698
0.595369
0.681041
0.5977
0.5977
0.680154
0.5977
0.5977
0.373482
0.5977
0.5977
0.681025
0.657363
0.5977
0.680573
0.5977
0.680786
0.681032
0.5977
0.5977
0.5977
0.5977
0.5977
0.5977
0.5977
0.5977
0.397653
0.5977
0.5977
0.680434
0.564869
0.5977
0.5977
0.681094
0.395433
0.659868
0.5977
1.12669
0.597701
0.670138
0.377688
0.5977
0.373603
0.597699
0.597701
0.5977
0.5977
0.597661
0.597698
0.488511
0.435518
0.5977
0.680996
0.5977
0.5977
0.554254
0.489313
0.575759
0.597701
0.5977
0.5977
0.597701
0.5977
0.670584
0.597702
0.5977
0.5977
0.5977
0.5977
0.390186
0.673402
0.664211
0.576136
0.5977
0.5977
0.5977
0.5977
0.5977
0.5977
0.5977
0.5977
0.5977
0.369228
0.680649
0.5977
0.368055
0.5977
0.547746
0.679656
0.5977
0.5977
0.597321
0.5977
0.5977
0.5977
0.5977
0.676162
0.5977
0.680697
0.680526
0.5977
0.5977
0.5977
0.680764
0.5977
0.680581
0.5977
0.597652
0.597707
0.596295
0.597642
0.680547
0.68086
0.5977
0.68063
0.5977
0.664636
0.537252
0.55467
0.367541
0.606619
0.454643
0.563823
0.597699
0.5977
0.557386
0.5977
0.5977
0.597701
0.368168
0.680923
0.680451
0.667265
0.500006
0.594538
0.5977
0.680451
0.5977
0.5977
0.482161
0.39701
0.681305
0.395904
0.5977
0.5977
1.04309
0.368155
0.5977
0.496979
0.5977
1.12294
0.5977
0.595055
0.681054
0.5977
0.376894
0.597713
0.5977
0.5977
0.367631
1.12656
0.5977
0.680661
0.59388
0.414035
0.5977
0.597705
0.5977
0.5977
0.5977
0.5977
0.5977
0.5977
0.5977
0.5977
0.44214
0.5977
0.56876
0.5977
0.5977
0.666229
0.368184
0.5977
0.5977
0.591595
0.681193
0.390496
0.650375
0.5977
0.5977
0.5977
0.5977
0.386201
0.5977
0.680127
0.680334
0.5977
0.5977
0.5977
0.597701
0.5977
0.680257
0.680474
0.597702
0.5977
0.680434
0.5977
0.5977
0.5977
0.639689
0.595155
0.680548
0.593788
0.680573
0.5977
0.368409
0.597698
0.5977
0.367408
0.5977
0.613814
0.590253
0.5977
0.680765
0.5977
0.597702
0.5977
0.594512
0.5977
0.59187
0.680483
0.5977
0.68159
0.516697
0.597702
0.680367
0.5977
0.680743
0.597698
0.680705
0.5977
0.5977
0.5977
0.5977
0.414121
0.5977
0.559267
0.367771
0.5977
0.5977
0.5977
0.5977
0.680764
0.597702
0.680681
0.5977
0.595023
0.5977
0.5977
0.368028
0.680617
0.5977
0.5977
0.5977
0.5977
0.5977
0.5977
0.5977
0.5977
0.680569
0.5977
0.5977
0.5977
0.5977
0.5977
0.5977
0.597702
0.42859
0.5977
0.593003
0.5977
0.5977
0.640624
0.5977
0.680514
0.5977
0.5977
0.5977
0.436245
0.67013
0.5977
0.5977
0.5977
0.5977
0.5977
0.6809
0.376824
0.579658
0.5977
0.5977
0.5977
0.672917
0.592434
0.680576
0.5977
0.5977
0.5977
0.5977
0.5977
0.584554
0.5977
0.572794
0.5977
0.787411
0.5977
0.5977
0.5977
0.5977
0.5977
0.597701
0.5977
0.527646
0.5977
0.701478
0.623638
0.5977
0.5977
0.597715
1.12706
0.5977
0.5977
0.49503
0.371619
0.597698
0.5977
0.367653
0.5977
0.670877
0.5977
0.447179
0.5977
0.5977
0.5977
0.5977
0.398573
0.5977
1.11957
0.36798
0.68057
0.368238
0.5977
0.5977
0.656376
0.451692
0.5977
0.5977
0.488315
0.5977
0.5977
0.5977
0.5977
0.5977
0.597698
0.5977
0.478361
0.5977
0.390887
0.680725
0.680537
0.5977
0.5977
0.5977
0.5977
0.680584
0.597701
0.5977
0.5977
0.393305
0.5977
0.57083
0.5977
0.5977
0.5977
0.5977
0.5977
0.5977
0.5977
0.5977
0.595987
0.585735
0.582939
0.5977
0.5977
0.595145
0.434392
0.5977
0.680926
0.5977
0.5977
0.5977
0.5977
0.367892
0.597698
0.5977
0.5977
0.5977
0.597717
0.5977
0.680391
0.597698
0.5977
0.597596
0.680784
0.5977
0.5977
0.5977
0.5977
0.491081
0.597701
0.5977
0.5977
0.5977
0.597713
0.5977
0.402454
0.68069
0.5977
0.38161
0.5977
0.5977
0.5977
0.5977
0.5977
0.5977
0.596048
0.5977
0.521901
0.597699
0.577163
0.413792
0.5977
0.680493
0.5977
0.39313
0.367747
0.5977
0.5977
0.680554
0.5977
0.367882
0.5977
0.680515
0.597699
0.5977
0.5977
0.5977
0.680577
0.5977
0.36806
0.469165
0.5977
0.377047
0.5977
0.5977
0.681007
0.68115
0.5977
0.368757
1.12223
0.398972
0.68042
0.5977
0.367817
0.597716
0.533794
0.681734
0.539161
1.12681
0.5977
0.5977
0.597698
0.5977
0.5977
0.597391
0.453712
0.597701
0.5977
0.5977
0.597702
0.5977
0.442339
0.367926
0.5977
0.413001
0.414593
0.5977
0.5977
0.667008
0.5977
0.5977
0.5977
0.5977
0.680526
0.680845
0.44129
0.5977
0.5977
0.5977
0.5977
0.5977
0.5977
0.674884
0.5977
0.5977
0.5977
0.5977
0.5977
0.597701
0.5977
0.5977
0.5977
0.681218
0.959197
0.597702
1.12607
0.5977
0.5977
0.597702
1.10941
0.680788
0.5977
0.5977
0.5977
0.679753
0.653508
0.5977
0.5977
0.5977
0.597537
0.495347
0.5977
0.444569
0.5977
0.435603
0.442265
0.5977
0.597699
0.5977
0.483727
0.5977
0.5977
0.367601
0.5977
0.5977
0.594379
0.597717
0.594669
0.5977
0.509639
0.5977
0.5977
0.5977
0.5977
0.597699
0.5977
0.367954
0.671479
0.5977
0.5977
0.680706
0.680791
0.5977
0.368345
0.5977
0.597698
0.5977
0.681077
0.68094
0.367864
0.5977
0.66858
0.5977
0.5977
0.593678
0.367842
0.373919
0.591864
0.5977
0.5977
0.5977
0.367845
0.5977
0.5977
0.5977
0.5977
0.597008
0.5977
0.674785
0.5977
0.586089
0.5977
0.681103
0.5977
0.5977
0.5977
0.5977
0.367937
0.386621
0.623308
0.37072
0.367169
0.596139
0.5977
0.534821
0.5977
0.527829
0.792271
0.5977
0.5977
0.680872
0.5977
0.680631
0.597712
0.389565
0.5977
0.680751
0.5977
0.5977
0.5977
0.5977
0.5977
0.680969
0.43495
0.6683
0.5977
0.68084
0.5977
0.483963
0.597705
0.369012
0.368711
0.597698
0.5977
0.5977
0.44684
0.593168
0.5977
0.5977
0.596741
0.5977
0.367804
0.597702
0.5977
0.5977
0.5977
0.612605
0.677314
0.587782
0.5977
0.679153
0.5977
0.367531
0.5977
0.5977
0.5977
0.590801
0.5977
0.5977
0.5977
0.5977
0.594438
0.5977
0.680783
0.680673
0.367868
0.5977
0.368767
0.5977
0.676258
0.5977
0.597702
0.5977
0.597699
0.5977
0.367701
0.5977
0.597701
0.5977
0.5977
0.395764
0.5977
0.5977
0.5977
0.448841
0.5977
0.680057
0.5977
0.597714
0.5977
0.5977
0.367884
0.5977
0.5977
0.5977
0.51789
0.368013
0.597699
0.5977
0.597699
0.597701
0.5977
0.681082
0.5977
0.597701
0.393433
0.597701
0.5977
0.5977
0.5977
0.5977
0.447615
0.59771
0.5977
0.5977
0.5977
0.5977
0.5977
0.5977
0.680664
0.597713
0.5977
0.597701
0.5977
0.459257
0.471671
0.5977
0.5977
0.5977
0.5977
0.5977
0.595603
0.367884
0.5977
0.711322
0.5977
0.467117
0.5977
0.5977
0.5977
0.5977
0.5977
0.597701
0.597719
0.597701
0.5977
1.11446
0.5977
1.1265
0.591785
0.5977
0.680828
0.681225
0.681228
0.597656
0.5977
0.739922
0.556601
0.681107
0.597713
0.374442
0.5977
0.597699
0.368042
0.456506
0.5977
0.5977
0.572103
0.5977
0.597701
0.5977
0.5977
0.5977
0.5977
0.680532
0.5977
0.5977
0.680508
0.5977
0.597711
0.391248
0.5977
0.5977
0.367877
0.5977
0.597698
0.678071
0.5977
0.515041
0.5977
0.5977
0.5977
0.680795
0.597702
0.5977
0.5977
0.597701
0.5977
0.5977
0.684451
0.5977
0.5977
0.370936
0.597701
0.5977
0.597706
0.5977
0.680947
0.372125
0.5977
0.446143
0.5977
0.597712
0.680582
0.597699
0.5977
0.378055
0.67941
0.597701
0.5977
0.83478
0.553338
0.597698
0.5977
0.5977
0.5977
0.5977
0.5977
0.597699
0.5977
0.5977
0.5977
0.5977
0.5977
0.5977
0.5977
0.597023
0.5977
0.680552
0.5977
0.5977
0.5977
0.597711
0.5977
0.367407
0.5977
0.597699
0.681011
0.5977
0.5977
0.5977
0.5977
0.5977
0.367481
0.450441
0.680542
0.74967
0.5977
0.597701
0.758116
0.36814
0.5977
0.597701
0.597701
0.5977
0.5977
0.5977
0.444934
0.666438
0.604402
0.59769
0.597701
0.5977
0.5977
0.5977
0.597716
0.597701
0.5977
0.5977
0.597701
0.5977
0.5977
0.5977
0.5977
0.597701
0.472371
0.5977
0.596933
0.5977
0.597698
0.5977
0.597699
0.597699
0.569969
0.5977
0.5977
0.367615
0.597703
0.597714
0.518751
0.5977
0.5977
1.11776
0.5977
0.36823
0.681547
0.5977
0.5977
0.5977
0.5977
0.5977
0.680823
0.5977
0.5977
0.597708
0.5977
0.680872
0.533458
0.37821
0.5977
0.5977
0.5977
0.5977
0.68062
0.5977
0.5977
0.5977
0.597701
0.680843
0.5977
0.367708
0.680419
0.5977
0.5977
0.5977
0.531635
0.597705
0.573461
0.5977
0.5977
0.5977
0.381683
0.5977
0.5977
0.597699
0.5977
0.681102
0.597698
0.5977
0.591959
0.5977
0.5977
0.597709
0.5977
0.597698
0.680036
0.597709
0.68109
0.680944
0.650557
0.5977
0.5977
0.5977
0.597702
0.595999
0.398534
0.596764
0.5977
0.5977
0.680562
0.5977
0.5977
0.367875
0.5977
0.5977
0.5977
0.597702
0.5977
0.5977
0.5977
0.5977
0.5977
0.5977
0.5977
0.367347
0.5977
0.597603
0.5977
0.597699
0.5977
0.5977
0.5977
0.5977
0.367848
0.392718
0.680295
0.5977
0.5977
0.594373
0.5977
0.5977
0.592783
0.680978
0.5977
0.367683
0.5977
0.36787
0.591609
0.5977
0.5977
0.5977
0.681237
0.5977
0.5977
0.5977
0.375137
0.5977
0.5977
0.591328
0.59703
0.5977
0.5977
0.680598
0.367801
1.12656
0.662028
0.407833
0.5977
0.597698
0.5977
0.367845
0.469356
0.597717
0.5977
0.674478
0.5977
0.5977
0.5977
0.5977
0.5977
0.5977
0.36766
0.5977
0.369036
0.5977
0.39558
0.5977
0.597219
0.5977
0.5977
0.46086
0.680471
0.552712
0.398821
0.5977
0.5977
0.5977
0.5977
0.597715
0.5977
0.68085
0.5977
0.5977
0.5977
0.5977
0.5977
0.387045
0.5977
0.680965
0.5977
0.367773
0.5977
0.5977
0.5977
0.5977
0.5977
0.5977
0.5977
0.5977
0.5977
0.5977
0.5977
0.5977
0.5977
0.5977
0.369969
0.597699
0.597698
0.382599
0.5977
0.597702
0.5977
0.5977
0.5977
0.5977
0.5977
0.5977
0.597715
0.409166
0.597705
0.373446
0.5977
0.597673
0.405396
0.597413
0.681054
0.5977
0.5977
0.5977
0.5977
0.5977
0.5977
0.5977
0.5977
0.681146
0.596107
0.5977
0.5977
0.5977
0.5977
0.680598
0.5977
0.592916
0.5977
0.5977
0.5977
0.5977
0.367755
0.5977
0.5977
0.5977
0.5977
0.5977
0.5977
0.5977
0.5977
0.421272
0.5977
0.367738
0.5977
0.5977
0.680935
0.5977
0.5977
0.597699
0.597702
1.11983
0.5977
0.5977
0.5977
0.589633
0.539599
0.5977
0.597706
0.5977
0.681272
0.680226
0.5977
0.5977
0.680948
0.5977
1.11946
0.5977
0.5977
0.5977
0.5977
0.5977
1.11757
0.5977
0.5977
0.5977
0.5977
0.5977
0.597684
0.69903
0.5977
0.669014
0.5977
0.40771
0.720777
0.595172
0.5977
0.414832
0.36788
0.539897
0.5977
0.367193
0.577608
0.597675
0.5977
0.447857
0.5977
0.679339
0.5977
0.680789
0.5977
1.10169
0.5977
0.5977
0.5977
0.675925
0.589341
0.5977
0.580431
0.5977
0.5977
0.367745
0.5977
0.597703
0.5977
0.371566
0.680284
0.5977
0.5977
0.468702
0.5977
0.5977
0.367795
0.597698
0.5977
0.597716
0.597699
0.597701
0.5977
0.5977
0.597703
1.04175
0.5977
0.3679
0.5977
0.5977
0.5977
0.5977
0.612008
0.5977
0.372754
0.5977
0.680516
0.5977
0.5977
0.5977
0.5977
0.5977
0.5977
0.59768
0.5977
0.5977
0.369018
0.522043
0.5977
0.597698
0.596663
0.5977
0.5977
0.5977
0.5977
0.5977
0.5977
0.5977
0.369732
0.36784
0.5977
0.59383
1.127
0.5977
0.597699
0.5977
0.5977
0.597701
0.5977
0.5977
0.368815
0.5977
0.593421
0.5977
0.5977
0.367943
0.616598
0.587434
0.5977
0.5977
0.5977
0.5977
0.367771
0.396295
0.5977
0.5977
0.680826
0.5977
0.368152
0.5977
0.367887
0.5977
0.680038
0.597698
0.405767
0.5977
0.680327
0.5977
0.5977
0.5977
0.591947
0.680639
0.5977
0.5977
0.597703
0.410585
0.5977
0.5977
1.12682
0.467681
0.5977
0.591758
0.5977
0.5977
0.5977
0.680623
0.69884
0.5977
0.5977
0.600824
0.597699
0.68105
0.543699
0.367923
0.5977
0.5977
0.597699
0.367643