# vtk DataFile Version 1.0
unstructured grid
ascii
DATASET UNSTRUCTURED_GRID
points 13672 float
0.0796578 -0.059106 0
0.00128732 0.00159165 0
0.00227961 -0.00102548 0
0.0791586 -0.0598787 0
-0.0546216 0.01 0
0.000495206 0.025 0
0.0800549 -0.035 0
0.135172 -0.08 0
-0.0546216 -0.0451168 0
0.000495206 -0.0301168 0
0.0800549 -0.0901168 0
0.135172 -0.135117 0
-0.0546216 -0.0451168 -0.00551168
0.000495206 -0.0301168 -0.00551168
0.0800549 -0.0901168 -0.00551168
0.135172 -0.135117 -0.00551168
0.135172 -0.08 -0.00551168
0.0800549 -0.035 -0.00551168
0.000495206 0.025 -0.00551168
-0.0546216 0.01 -0.00551168
0.00128732 0.00159165 -0.00551168
0.00227961 -0.00102548 -0.00551168
0.0791586 -0.0598787 -0.00551168
0.0796578 -0.059106 -0.00551168
0.00165953 -0.000990923 0
0.00119576 -0.000874076 0
0.000866021 -0.000641801 0
0.000645147 -0.000349912 0
0.00052235 -1.7281e-05 0
0.00049972 0.000348016 0
0.000601632 0.000737716 0
0.000861774 0.0011403 0
0.00157235 0.00183217 0
0.00188647 0.00206725 0
0.00222612 0.00230203 0
0.00258713 0.00254351 0
0.00296826 0.00279524 0
0.00337118 0.00305664 0
0.00379785 0.00332658 0
0.00425045 0.00360349 0
0.00473139 0.00388521 0
0.0052432 0.00416895 0
0.0057881 0.00445204 0
0.00636753 0.00473281 0
0.00698281 0.00500961 0
0.00763526 0.00528058 0
0.00832616 0.00554366 0
0.00905691 0.00579603 0
0.00982918 0.00603333 0
0.0106445 0.00625033 0
0.0115038 0.00644128 0
0.0124073 0.00660297 0
0.0133543 0.00673414 0
0.0143444 0.00683382 0
0.0153769 0.00690031 0
0.0164512 0.00693173 0
0.0175666 0.00692547 0
0.0187219 0.00687822 0
0.0199156 0.00678477 0
0.0211454 0.00663864 0
0.0224084 0.00643275 0
0.0237018 0.00616676 0
0.0250249 0.00584739 0
0.026375 0.00547298 0
0.0277479 0.00503752 0
0.0291386 0.00453545 0
0.0305433 0.0039653 0
0.0319572 0.0033256 0
0.0333681 0.00260019 0
0.034775 0.00179799 0
0.0361793 0.000930615 0
0.0375798 3.12222e-06 0
0.0389689 -0.000988429 0
0.0403357 -0.00205109 0
0.041675 -0.00318283 0
0.0429849 -0.00437751 0
0.0442643 -0.00562904 0
0.0455126 -0.00693089 0
0.0467314 -0.00827518 0
0.0479204 -0.00965638 0
0.0490661 -0.0110799 0
0.0501515 -0.0125519 0
0.0511696 -0.0140695 0
0.0521492 -0.0156071 0
0.0531202 -0.0171411 0
0.0540851 -0.0186663 0
0.0550431 -0.0201798 0
0.0559923 -0.0216793 0
0.0569311 -0.0231626 0
0.0578582 -0.0246273 0
0.0587723 -0.0260715 0
0.0596721 -0.027493 0
0.0605563 -0.02889 0
0.0614241 -0.0302609 0
0.0622742 -0.0316042 0
0.063106 -0.0329183 0
0.0639186 -0.034202 0
0.0647113 -0.0354543 0
0.0654835 -0.0366743 0
0.0662345 -0.0378613 0
0.0669642 -0.0390145 0
0.0676726 -0.0401333 0
0.0683597 -0.0412172 0
0.0690246 -0.0422665 0
0.0696662 -0.0432819 0
0.0702841 -0.0442636 0
0.0708793 -0.0452111 0
0.0714538 -0.0461237 0
0.072009 -0.047001 0
0.0725452 -0.0478434 0
0.0730611 -0.0486524 0
0.073556 -0.0494294 0
0.0740291 -0.0501756 0
0.0744812 -0.0508916 0
0.0749138 -0.0515773 0
0.0753285 -0.0522331 0
0.0757266 -0.0528592 0
0.076109 -0.0534564 0
0.0764753 -0.0540264 0
0.0768243 -0.054571 0
0.0771553 -0.0550919 0
0.0774679 -0.0555901 0
0.0777617 -0.0560669 0
0.0780369 -0.056523 0
0.0782958 -0.0569578 0
0.0785421 -0.0573703 0
0.0787786 -0.0577603 0
0.0790073 -0.0581279 0
0.0792295 -0.058474 0
0.0794462 -0.0587995 0
0.0798803 -0.0594162 0
0.0800272 -0.0596588 0
0.0800357 -0.0598891 0
0.0799275 -0.0600784 0
0.0797205 -0.0601773 0
0.0794593 -0.0601051 0
0.0789155 -0.0596491 0
0.0786707 -0.0593963 0
0.0784111 -0.0591319 0
0.0781372 -0.0588542 0
0.0778566 -0.0585548 0
0.0775715 -0.0582308 0
0.0772803 -0.0578828 0
0.0769832 -0.0575099 0
0.0766822 -0.0571097 0
0.0763801 -0.0566796 0
0.0760759 -0.0562196 0
0.0757623 -0.0557337 0
0.0754359 -0.0552232 0
0.0750951 -0.0546879 0
0.0747379 -0.054128 0
0.0743626 -0.0535435 0
0.0739688 -0.0529338 0
0.0735559 -0.0522981 0
0.0731238 -0.0516357 0
0.0726718 -0.050946 0
0.0721991 -0.0502288 0
0.0717046 -0.049484 0
0.0711872 -0.0487117 0
0.0706461 -0.047912 0
0.0700804 -0.0470849 0
0.0694892 -0.0462308 0
0.0688718 -0.0453499 0
0.0682271 -0.0444431 0
0.0675544 -0.043511 0
0.0668527 -0.0425546 0
0.0661215 -0.0415748 0
0.06536 -0.040573 0
0.0645676 -0.0395504 0
0.0637439 -0.0385087 0
0.0628887 -0.0374493 0
0.062002 -0.0363741 0
0.0610838 -0.0352847 0
0.0601345 -0.0341831 0
0.0591547 -0.033071 0
0.0581456 -0.0319502 0
0.0571083 -0.0308224 0
0.0560444 -0.0296893 0
0.0549562 -0.028552 0
0.053845 -0.0274126 0
0.0527113 -0.0262746 0
0.051554 -0.0251427 0
0.0503724 -0.0240222 0
0.0491675 -0.0229164 0
0.047941 -0.0218282 0
0.0466955 -0.0207597 0
0.0454337 -0.0197126 0
0.0441592 -0.0186878 0
0.0428751 -0.0176863 0
0.0415841 -0.0167097 0
0.0402878 -0.0157609 0
0.0389879 -0.0148428 0
0.0376864 -0.0139575 0
0.0363853 -0.013107 0
0.0350871 -0.0122931 0
0.0337942 -0.0115164 0
0.0325095 -0.0107772 0
0.0312357 -0.0100756 0
0.0299758 -0.00941024 0
0.0287337 -0.00877784 0
0.0275126 -0.00817571 0
0.0263139 -0.00760375 0
0.0251376 -0.00706528 0
0.0239829 -0.0065649 0
0.0228537 -0.00609619 0
0.0217522 -0.00565563 0
0.0206795 -0.00524226 0
0.0196364 -0.00485507 0
0.0186233 -0.00449318 0
0.0176408 -0.00415577 0
0.016689 -0.00384204 0
0.0157682 -0.00355115 0
0.0148783 -0.00328218 0
0.0140192 -0.00303468 0
0.0131906 -0.00280795 0
0.0123925 -0.00260016 0
0.0116246 -0.00241012 0
0.0108864 -0.00223769 0
0.0101774 -0.00208212 0
0.00949701 -0.00194206 0
0.00884483 -0.0018163 0
0.0082202 -0.0017039 0
0.00762247 -0.00160391 0
0.00705097 -0.00151528 0
0.006505 -0.00143697 0
0.0059838 -0.00136806 0
0.00548662 -0.00130772 0
0.00501265 -0.00125519 0
0.00456114 -0.00120954 0
0.00413136 -0.00116914 0
0.00372257 -0.00113251 0
0.00333398 -0.00109853 0
0.00296466 -0.00106798 0
0.00261363 -0.0010431 0
-0.052721 -0.0445996 0
-0.0508204 -0.0440823 0
-0.0489199 -0.0435651 0
-0.0470193 -0.0430478 0
-0.0451187 -0.0425306 0
-0.0432181 -0.0420134 0
-0.0413175 -0.0414961 0
-0.039417 -0.0409789 0
-0.0375164 -0.0404616 0
-0.0356158 -0.0399444 0
-0.0337152 -0.0394271 0
-0.0318146 -0.0389099 0
-0.0299141 -0.0383927 0
-0.0280135 -0.0378754 0
-0.0261129 -0.0373582 0
-0.0242123 -0.0368409 0
-0.0223117 -0.0363237 0
-0.0204112 -0.0358065 0
-0.0185106 -0.0352892 0
-0.01661 -0.034772 0
-0.0147094 -0.0342547 0
-0.0128088 -0.0337375 0
-0.0109083 -0.0332202 0
-0.00900769 -0.032703 0
-0.00710711 -0.0321858 0
-0.00520653 -0.0316685 0
-0.00330595 -0.0311513 0
-0.00140537 -0.030634 0
0.00190689 -0.0299614 0
0.00332271 -0.0298498 0
0.00474133 -0.0297825 0
0.00616136 -0.0297597 0
0.0075814 -0.0297814 0
0.00900007 -0.0298477 0
0.010416 -0.0299583 0
0.0118278 -0.0301127 0
0.0132342 -0.0303103 0
0.0146339 -0.0305504 0
0.0160259 -0.0308322 0
0.0174091 -0.0311546 0
0.0187824 -0.0315166 0
0.020145 -0.031917 0
0.0214961 -0.0323546 0
0.0228351 -0.032828 0
0.0241613 -0.0333361 0
0.0254744 -0.0338774 0
0.0267738 -0.0344507 0
0.0280592 -0.0350545 0
0.0293306 -0.0356877 0
0.0305875 -0.0363488 0
0.0318301 -0.0370367 0
0.0330581 -0.0377501 0
0.0342717 -0.0384879 0
0.0354708 -0.0392489 0
0.0366556 -0.0400321 0
0.0378262 -0.0408363 0
0.0389828 -0.0416607 0
0.0401254 -0.0425042 0
0.0412543 -0.0433659 0
0.0423698 -0.0442451 0
0.043472 -0.0451408 0
0.0445612 -0.0460523 0
0.0456375 -0.0469789 0
0.0467013 -0.0479199 0
0.0477529 -0.0488746 0
0.0487923 -0.0498424 0
0.04982 -0.0508227 0
0.0508362 -0.051815 0
0.051841 -0.0528187 0
0.0528348 -0.0538333 0
0.0538178 -0.0548584 0
0.0547903 -0.0558935 0
0.0557524 -0.0569382 0
0.0567045 -0.0579922 0
0.0576467 -0.0590549 0
0.0585792 -0.0601261 0
0.0595024 -0.0612055 0
0.0604163 -0.0622926 0
0.0613212 -0.0633873 0
0.0622174 -0.0644891 0
0.0631049 -0.0655979 0
0.0639841 -0.0667134 0
0.064855 -0.0678353 0
0.0657179 -0.0689633 0
0.0665729 -0.0700974 0
0.0674202 -0.0712372 0
0.06826 -0.0723826 0
0.0690925 -0.0735333 0
0.0699178 -0.0746892 0
0.070736 -0.0758501 0
0.0715473 -0.0770159 0
0.0723518 -0.0781863 0
0.0731498 -0.0793612 0
0.0739412 -0.0805405 0
0.0747264 -0.081724 0
0.0755053 -0.0829116 0
0.0762781 -0.0841033 0
0.0770449 -0.0852987 0
0.0778059 -0.0864979 0
0.0785611 -0.0877007 0
0.0793108 -0.088907 0
0.0814681 -0.0912706 0
0.0828814 -0.0924245 0
0.0842946 -0.0935783 0
0.0857079 -0.0947322 0
0.0871211 -0.095886 0
0.0885344 -0.0970399 0
0.0899476 -0.0981937 0
0.0913609 -0.0993476 0
0.0927741 -0.100501 0
0.0941874 -0.101655 0
0.0956006 -0.102809 0
0.0970139 -0.103963 0
0.0984272 -0.105117 0
0.0998404 -0.106271 0
0.101254 -0.107424 0
0.102667 -0.108578 0
0.10408 -0.109732 0
0.105493 -0.110886 0
0.106907 -0.11204 0
0.10832 -0.113194 0
0.109733 -0.114348 0
0.111146 -0.115501 0
0.11256 -0.116655 0
0.113973 -0.117809 0
0.115386 -0.118963 0
0.116799 -0.120117 0
0.118213 -0.121271 0
0.119626 -0.122424 0
0.121039 -0.123578 0
0.122452 -0.124732 0
0.123866 -0.125886 0
0.125279 -0.12704 0
0.126692 -0.128194 0
0.128105 -0.129348 0
0.129519 -0.130501 0
0.130932 -0.131655 0
0.132345 -0.132809 0
0.133758 -0.133963 0
0.135172 -0.133216 0
0.135172 -0.131316 0
0.135172 -0.129415 0
0.135172 -0.127514 0
0.135172 -0.125614 0
0.135172 -0.123713 0
0.135172 -0.121813 0
0.135172 -0.119912 0
0.135172 -0.118012 0
0.135172 -0.116111 0
0.135172 -0.11421 0
0.135172 -0.11231 0
0.135172 -0.110409 0
0.135172 -0.108509 0
0.135172 -0.106608 0
0.135172 -0.104708 0
0.135172 -0.102807 0
0.135172 -0.100906 0
0.135172 -0.0990058 0
0.135172 -0.0971052 0
0.135172 -0.0952046 0
0.135172 -0.0933041 0
0.135172 -0.0914035 0
0.135172 -0.0895029 0
0.135172 -0.0876023 0
0.135172 -0.0857017 0
0.135172 -0.0838012 0
0.135172 -0.0819006 0
0.133758 -0.0788462 0
0.132345 -0.0776923 0
0.130932 -0.0765385 0
0.129519 -0.0753846 0
0.128105 -0.0742308 0
0.126692 -0.0730769 0
0.125279 -0.0719231 0
0.123866 -0.0707692 0
0.122452 -0.0696154 0
0.121039 -0.0684615 0
0.119626 -0.0673077 0
0.118213 -0.0661538 0
0.116799 -0.065 0
0.115386 -0.0638462 0
0.113973 -0.0626923 0
0.11256 -0.0615385 0
0.111146 -0.0603846 0
0.109733 -0.0592308 0
0.10832 -0.0580769 0
0.106907 -0.0569231 0
0.105493 -0.0557692 0
0.10408 -0.0546154 0
0.102667 -0.0534615 0
0.101254 -0.0523077 0
0.0998404 -0.0511538 0
0.0984272 -0.05 0
0.0970139 -0.0488462 0
0.0956006 -0.0476923 0
[...]
CELL_DATA 13116
SCALARS rho float
LOOKUP_TABLE default
0.656178
0.691579
0.358644
0.690593
0.705925
0.686902
0.362677
0.690298
0.559234
0.693852
0.363808
0.351605
0.705506
0.359358
0.376889
0.686958
0.659573
0.699489
0.69227
0.359866
0.650605
0.376147
0.363174
0.701141
0.674793
0.684986
0.694319
0.364851
0.583731
0.715503
0.994644
0.343991
0.570293
0.501199
0.363385
0.654469
0.705003
0.691493
0.685194
0.68791
0.692894
0.690651
0.521244
0.354152
0.691142
0.692069
0.685032
0.695725
0.388671
0.552922
0.689824
0.516356
0.358354
0.658255
0.582875
0.656479
0.354068
0.71121
0.556281
0.387
0.359371
0.690824
0.68861
0.683214
0.902832
0.35154
0.687654
0.712013
0.695301
0.761719
0.37516
0.5764
0.372111
0.353416
1.12566
0.347528
0.691024
0.70216
0.361829
0.713726
0.705042
0.685177
0.70867
0.695244
0.689054
0.488228
0.356848
0.721045
0.688809
0.366546
0.35339
0.691921
0.696823
0.687282
0.708911
0.669205
0.677768
1.103
1.1157
0.580606
0.727581
0.674165
0.692134
0.470107
0.681877
0.374616
0.458416
0.544621
0.362415
0.588922
0.59598
0.684537
0.66701
0.708896
0.710073
0.688216
0.355294
0.460559
0.700337
0.688331
0.713432
0.374287
0.695884
0.352668
0.68752
0.490159
0.356505
0.539341
0.36005
0.55155
0.700763
0.698038
0.521291
0.382957
0.510616
0.66685
1.12694
0.695709
0.729049
0.688222
0.683448
0.685471
0.540656
0.683916
0.688342
0.365805
0.363802
0.683778
0.706116
0.690126
0.548136
0.694823
0.695677
0.353095
0.705065
0.689211
0.36346
0.716657
1.08762
0.723553
0.708596
0.363217
0.710554
0.362958
0.373044
0.69506
0.687166
0.700822
0.363129
0.49968
0.480429
1.12688
0.376902
0.53208
0.687894
0.364711
0.372571
0.373653
0.683803
0.688438
0.362581
0.48455
0.628756
0.706794
0.689221
0.55809
0.351238
0.687108
0.680631
0.50596
0.690838
0.683344
0.70286
0.361842
0.682256
0.686058
0.697948
0.688739
0.68877
0.424103
0.47149
0.584617
0.536373
0.356565
0.701928
0.693574
0.522092
0.672394
0.378893
0.365677
0.347148
0.686673
0.364013
0.364186
0.366214
0.351822
0.449245
0.685955
0.687397
0.481881
0.352838
0.687644
0.583122
0.363263
0.54808
0.692052
0.688169
0.36564
0.687977
0.469883
0.691229
0.350979
0.695914
0.568602
1.12427
0.688612
0.673164
0.399318
0.485223
0.727874
1.12659
0.685664
1.12695
0.659999
0.690328
0.373066
0.693019
0.703669
1.10996
0.364974
0.389504
0.693781
0.700418
0.778681
0.697264
0.65398
0.715168
0.363716
0.408302
0.436004
0.376976
0.679361
0.69979
0.689761
0.358758
0.68996
0.350743
0.484664
0.682555
0.361432
0.684468
0.689798
1.12666
0.710407
0.398008
1.12682
0.706454
1.10721
0.697181
0.361683
0.35618
0.362739
0.66682
0.372122
0.38735
0.447989
0.422123
0.690675
0.35924
0.689298
0.702688
0.353887
0.359999
0.351648
0.496621
0.363711
0.719513
0.671666
0.683552
0.362187
0.691561
0.566371
0.403545
0.386003
0.686815
0.70042
0.688599
0.350422
0.686226
0.481352
0.697765
0.690569
0.689351
0.690271
0.361884
0.687941
0.367055
0.687212
0.693617
0.737318
0.363587
0.44556
0.701842
0.352379
0.68737
0.690881
0.405226
0.719329
0.710084
0.353732
0.68991
0.697611
0.363211
0.70177
0.48437
0.558472
0.690453
0.488351
0.717996
0.358344
0.712232
0.4479
0.67053
0.67435
0.695939
0.36465
0.455259
0.689146
0.354994
0.701057
0.681396
0.479574
1.12676
0.351904
0.364302
0.69892
0.55119
0.709721
0.355702
0.363479
0.691325
0.703317
0.363977
0.700017
0.354828
0.381822
0.687941
0.690619
0.583667
0.367816
0.699306
0.93786
0.686997
0.689678
0.705968
0.55022
0.377097
0.373828
0.362062
0.686866
0.36272
0.630031
0.411031
0.359634
0.452797
0.596349
0.201594
0.355749
0.689463
0.345318
0.710171
0.58325
0.6935
0.724179
0.69715
0.364451
0.356272
0.431547
0.388191
0.699656
0.665195
0.692827
0.58473
0.689246
0.674518
0.685097
0.681715
0.712593
0.704245
0.713884
0.686817
0.439648
0.522155
0.654581
0.371731
0.670496
0.656738
0.357978
0.688131
1.12677
0.362682
0.361653
0.364649
0.352868
0.590032
0.364089
0.362125
0.687175
0.35003
0.570236
0.366135
0.687217
0.700777
0.365979
0.380527
0.698946
0.495878
0.366819
0.352882
0.3676
0.3629
0.355857
0.362036
0.381164
0.486655
0.364285
0.672983
0.372828
0.689122
0.402134
0.350674
0.516322
0.368399
0.366368
0.368533
0.687229
0.48788
0.703782
0.573813
0.350719
0.672153
0.689006
0.486662
0.72064
0.676827
0.676434
0.355432
1.11551
0.463468
0.708348
1.06123
0.3635
0.360635
0.680265
0.389424
0.487489
0.675659
0.457004
0.720051
0.688587
0.360004
0.370558
0.371779
0.528237
0.383741
0.35995
0.376042
0.365622
0.690948
0.690902
0.500869
0.590566
0.512718
0.682432
0.441996
0.357378
0.561551
0.363645
0.696408
0.415828
0.459666
0.519013
0.691226
0.687016
0.555539
0.402174
0.360718
0.553644
0.69011
0.67344
0.552148
0.682166
0.679063
0.364242
0.700576
0.566445
0.729868
0.428238
0.36374
0.708877
0.696176
0.726575
0.692818
0.687903
0.686408
0.711853
0.73536
0.693313
0.367387
0.691105
0.449844
0.383109
0.365034
0.690835
0.693411
0.439143
0.688877
0.591306
0.363945
0.671671
0.699984
0.70388
0.364603
0.357284
0.701028
0.367164
0.367865
0.368995
0.364388
0.695377
0.36165
0.690023
0.372004
0.691833
0.690581
0.692249
0.703874
0.367211
0.361586
0.694657
0.691324
0.699179
0.690971
0.704158
0.5096
0.354165
0.364033
0.688298
0.559437
0.36471
0.497645
0.358828
0.689293
0.686967
0.429462
0.377802
0.688907
0.491328
0.689782
0.746591
0.35943
0.469175
0.696624
1.12606
0.362767
0.687064
0.686936
0.694359
0.350212
1.12679
0.353117
1.12183
0.729661
0.367844
0.445791
0.385338
1.12107
0.36244
0.360732
0.461643
0.682183
0.701575
0.361133
0.404468
0.365393
0.676865
0.373263
0.685478
0.364868
0.577716
0.692249
0.405894
0.362858
0.363052
0.510663
0.364203
0.685563
0.348645
0.35879
0.687298
0.364709
0.687041
0.686533
1.11158
0.367638
0.696584
0.70834
0.701715
0.689576
0.690025
0.688036
0.367434
0.716948
0.483967
0.694514
0.361015
0.690258
0.548026
0.362742
0.975644
0.704986
0.358011
0.682945
0.354313
0.373005
0.686876
0.687503
0.356758
0.368225
0.361581
0.36377
0.689567
0.698608
0.35105
0.358753
0.70117
0.689137
0.578844
0.709371
0.687106
0.363448
0.695575
0.483582
0.690501
0.458707
0.665224
0.506812
0.687858
0.709785
0.56674
0.438451
0.364309
0.688562
0.581983
0.65432
0.710024
0.373936
0.70399
0.70589
0.468318
0.519959
0.707683
0.408047
0.847746
0.728348
0.442794
0.689006
0.708874
0.360774
0.701388
0.362725
0.688434
0.349142
0.686675
0.68791
0.365194
0.685082
0.710654
0.702004
0.5921
0.699771
0.567306
0.402668
0.478182
0.355125
0.353853
1.12677
0.550065
0.692786
0.70567
0.366534
0.382947
0.700438
0.692829
0.699203
0.689728
0.362094
0.710123
0.704195
0.360416
0.355346
0.700266
0.693563
0.688806
0.343446
0.569764
0.366607
0.701362
0.686241
0.692717
0.692274
0.364474
0.696014
0.689249
0.703037
0.687938
0.693525
0.482819
0.705192
0.365874
0.681738
0.697324
0.499007
0.689528
0.663291
0.690107
0.480831
0.462977
0.569256
0.733031
0.367247
0.367829
0.359068
0.364551
0.69308
0.703554
0.672766
0.422528
0.364028
0.696202
0.72442
0.361586
0.385431
0.502448
0.702181
0.687983
0.689677
0.709918
0.365768
0.367394
1.12681
0.351339
0.364153
0.347872
0.690172
0.366213
0.367066
0.6509
0.694958
0.683575
0.686472
0.687051
0.354389
0.370233
0.359597
0.599309
0.489738
0.352759
0.710895
0.711899
0.688194
0.695455
0.325068
0.367738
0.692938
0.366052
0.693284
0.687556
1.04833
0.356954
0.367661
0.687701
0.980857
0.664895
0.36215
0.689337
0.686542
0.647047
0.689988
0.689774
1.12685
0.682113
0.362255
0.686881
0.848563
0.678984
0.701921
1.12679
0.685172
1.12692
0.698151
0.359827
0.362112
0.367671
0.963648
0.550404
0.366273
0.69994
0.701584
0.355004
0.6893
0.366981
0.692641
0.563278
0.398269
0.691746
0.699207
0.365054
0.544815
0.937018
0.357135
0.687609
0.353403
0.376943
0.671963
0.671271
0.516078
0.692227
0.357608
0.709774
0.367811
0.322689
0.686929
0.364504
0.670575
0.359132
0.688139
0.667437
1.1268
0.687131
0.375088
0.359409
0.678349
0.527017
0.699294
0.510803
0.664184
0.687076
0.703393
0.531196
0.588245
0.683181
0.697229
0.687573
0.451699
0.367851
0.542206
0.682613
0.696062
0.431781
0.691865
0.665295
0.429894
0.357273
0.735384
0.702617
1.12695
1.1229
0.675838
0.706373
0.686162
0.704818
0.360562
0.733264
0.500044
0.689355
0.693191
0.428839
0.690868
0.704719
0.359881
0.393539
0.35236
1.12679
0.363039
0.671666
0.703736
0.736772
0.421077
0.690845
0.358045
0.57059
0.680033
0.687792
0.711552
0.674996
0.679425
0.70471
0.561989
0.694213
0.349777
0.692559
0.693161
0.516282
1.12666
0.703036
0.36278
0.375717
0.357243
0.689568
0.367691
1.12662
0.35865
0.690156
0.36104
0.507246
0.367916
0.70857
0.690161
0.654138
0.414095
0.678511
0.686715
0.365155
0.577812
0.691311
0.349059
0.660294
1.07857
0.692564
0.693843
0.363309
0.542144
0.699994
0.692835
0.682748
0.36742
0.459614
0.689751
1.12673
1.1261
1.12679
0.642797
0.698409
0.639527
0.688707
0.367334
0.357893
1.12678
0.705676
0.685473
0.351774
0.692363
0.653862
0.669646
0.349821
0.479203
0.700424
0.689737
0.562856
0.382766
0.694444
1.12627
0.36294
0.673674
0.709268
0.36318
0.349294
0.36884
0.679869
0.378256
0.367425
0.68975
0.515227
0.695906
0.695058
0.362842
0.354909
0.691442
0.359045
0.363268
0.974127
0.378799
0.442561
0.664045
0.690022
0.697135
0.364315
0.368815
0.364256
0.686949
0.37603
0.697237
0.365565
0.699334
0.688174
0.690856
0.683643
0.696332
0.685863
0.687479
0.704395
0.697953
0.360769
0.364796
0.694567
0.686509
0.517496
0.682125
0.566716
0.684867
0.67749
0.36551
0.688241
0.691243
0.693342
0.365003
0.696482
0.365189
0.695478
0.510585
0.714427
0.692032
0.398492
0.699819
0.36503
0.495677
0.688878
0.347185
0.721817
1.12676
0.690213
0.352054
0.687426
0.364834
0.356021
0.359859
0.36639
0.676138
0.378947
0.686553
0.663305
0.385041
0.361755
0.5078
0.56881
0.688508
0.683051
0.36763
0.352215
0.363749
0.368381
0.409391
0.688004
0.685993
0.365033
0.674553
0.703089
0.367347
0.691459
0.724844
0.669271
0.365275
1.12539
0.699716
0.70453
0.688844
0.382962
0.698022
0.704367
0.696697
0.730139
0.687549
0.393136
0.360572
0.694847
0.539064
0.367777
0.686919
0.364702
0.559556
0.681742
0.688112
0.688741
0.355174
0.682012
0.432273
0.365006
0.720181
0.701952
0.707169
0.696166
0.702821
0.356043
0.703605
0.38558
0.516467
0.696375
1.11594
0.699676
0.365124
0.39865
0.700706
0.418279
0.700616
0.775936
0.483556
0.396446
0.687803
0.359704
0.693063
0.700354
0.697467
0.359778
0.362558
0.534234
0.557645
0.676068
0.514406
0.687388
0.682947
0.689414
1.1268
0.700491
0.360498
0.392857
0.701909
0.687787
0.681551
0.498092
0.354956
0.700292
0.375396
0.687018
0.590023
0.375169
0.699451
0.363077
0.688541
0.359109
0.706777
0.395871
0.695438
0.686844
0.343988
0.687531
0.728943
0.349269
0.66969
0.691515
0.565555
0.367218
0.428414
0.509706
0.707131
0.67821
0.380361
0.567616
0.701303
0.687217
0.422718
0.671705
0.690783
0.489396
0.687435
0.687235
0.431661
0.697529
1.08367
0.357417
0.668701
0.354516
0.690991
0.354419
0.379185
0.696543
0.367276
0.365596
0.372969
0.687725
0.688931
0.445453
0.694086
0.43148
0.696511
0.365017
0.690135
0.414989
0.687044
0.695239
0.693714
0.668102
0.546369
0.685742
0.669458
0.363138
0.70252
0.697085
0.626101
0.699942
0.510927
0.464121
0.704598
0.361984
0.57021
0.367472
0.692609
0.359482
0.36194
0.698582
0.686883
0.360568
0.688992
0.713069
1.12679
0.689554
1.1223
0.362623
0.69182
0.362973
0.363284
0.6879
0.70925
0.690355
0.688986
0.360195
0.353509
0.363994
0.691541
0.664525
0.429066
0.690374
0.352519
0.352662
0.348023
0.689143
0.460212
0.698396
0.69832
0.686926
0.68795
0.697557
0.65586
0.688037
0.485905
0.352511
0.361071
1.1232
1.12626
0.352685
0.685971
0.678703
0.689592
0.363417
0.485013
0.683662
0.391598
0.682404
0.672788
0.363817
0.685425
0.693542
0.366801
0.696637
0.364119
0.690812
0.696153
0.696286
0.37699
0.497977
0.725362
0.436527
0.487028
0.689478
0.437312
0.68865
0.687447
0.684261
0.714232
0.379405
1.00916
0.719595
0.692567
0.460853
0.699556
0.370813
0.364907
0.689854
0.687389
0.658588
0.347102
0.689382
0.683689
1.12609
0.352065
0.355515
0.367091
0.689473
0.363108
0.365064
0.359286
0.671725
0.365226
0.426766
0.488333
0.696974
0.365259
0.664953
0.682933
0.687839
0.351183
0.697392
0.72304
0.674326
0.480967
0.736643
0.364066
0.362597
0.687406
0.360511
0.684317
0.701244
1.12678
0.365151
0.446085
0.358661
0.552873
1.12702
0.348197
0.691582
0.687564
0.71352
0.365341
0.383656
0.450757
0.678069
0.365655
1.12683
0.585435
0.684683
0.69007
0.362022
0.684889
0.364977
0.668999
0.771464
0.693202
0.66718
0.632837
0.733372
0.682697
0.70258
0.35703
0.401322
0.349434
0.715489
0.560908
1.11182
0.364901
0.470316
0.707026
0.697255
0.752781
0.36107
0.688051
0.551754
0.555178
0.678725
0.363778
0.361503
0.432353
0.687108
0.6698
0.731794
0.682039
0.451213
0.690251
0.742795
0.671989
0.667462
0.690051
0.691239
0.686255
0.707344
0.707599
0.363576
0.698936
0.695833
0.687372
0.699521
0.687946
0.666734
0.36388
0.372245
0.679664
0.367634
0.380906
0.687704
0.367789
0.702185
0.695376
0.690456
0.693581
0.363577
0.688226
0.36047
0.35599
0.686473
0.697711
0.695689
0.349451
0.69838
0.692481
0.679418
0.687638
0.373101
0.687565
0.698694
0.694296
0.426555
0.712876
0.364639
0.68956
0.346775
0.36427
0.660163
0.496911
0.6916
0.710954
0.693785
0.358657
0.687465
0.447774
0.372377
0.687747
0.507393
0.367014
0.69256
0.388127
0.521726
0.715914
0.685268
0.688278
0.509243
0.576645
0.717752
0.691888
0.667014
0.706802
0.540056
0.689773
0.68118
0.718531
0.343084
0.362169
0.495053
0.697962
0.362987
0.725566
0.689153
0.670397
0.692142
0.644292
0.722844
0.704958
0.365337
0.688744
0.681256
0.637551
0.681872
0.702553
0.685792
0.687269
0.365512
0.361211
0.69463
0.561327
0.644874
0.690273
0.695234
0.694839
0.696083
0.695722
0.677101
0.682268
0.693993
0.369476
0.367854
0.36043
0.371177
1.12664
0.503365
0.637793
0.699239
0.705977
0.363497
0.69419
0.689845
0.348636
0.461945
1.12613
0.699573
0.364225
0.339661
0.369855
1.12682
0.68513
0.42944
0.360997
0.363274
0.385036
0.403249
0.367792
0.691224
0.695445
0.700264
0.356967
0.690549
0.671043
0.587299
0.402053
0.360915
0.68749
1.12684
0.366583
0.687193
0.366529
0.706917
0.363522
0.687553
0.355699
0.688516
0.698509
0.352391
0.55641
0.404159
0.691558
0.375594
0.672334
0.365435
0.544692
0.364367
0.67022
0.365705
0.704466
0.691018
0.587306
0.695992
0.403072
0.690145
0.687385
0.698788
0.670852
0.697452
0.361216
0.48084
0.351163
0.699685
0.420584
0.704693
0.551999
0.709705
0.692657
0.548959
0.704725
0.37184
0.355472
0.369481
0.543192
0.661463
0.69491
0.361978
0.385551
0.68696
0.470028
0.360007
0.664897
0.454824
0.366875
0.369389
0.690634
0.750989
0.674059
0.359574
0.689434
0.686994
0.325829
0.444628
0.689259
0.68699
0.668793
0.525186
0.479146
0.460831
0.353835
0.689481
0.67862
0.558311
0.718411
0.382796
0.64674
0.362927
0.889092
0.704101
0.362056
0.415806
0.680789
0.664171
0.703791
0.707018
0.707408
0.689013
0.696616
0.349939
0.37336
0.349337
0.361666
0.655954
1.03878
0.74786
0.362135
0.365927
0.507818
0.346956
0.694554
0.684842
0.365872
0.425218
0.693507
0.362409
0.716478
0.708127
0.687263
0.687366
0.655647
0.367735
0.3545
0.680617
0.362462
0.486261
0.441083
0.68702
0.687007
0.425963
0.36402
1.12677
0.36445
0.687219
0.697988
0.366477
0.359637
0.359987
0.697346
0.355436
1.12679
0.703824
0.671508
0.329047
0.537197
0.701732
0.690951
0.362025
0.69079
0.680758
0.354388
0.699588
0.689123
0.364857
0.367539
0.687538
0.364697
0.361409
0.690793
0.454148
0.694416
0.724223
0.697836
0.684824
0.705655
0.687511
0.685443
0.363526
0.478291
0.685389
0.695792
0.496895
0.691771
0.427566
0.69767
0.688546
0.574713
0.719906
0.480327
0.500812
0.694352
0.703689
0.680821
0.696761
0.694429
1.12686
0.689729
1.12675
0.689635
0.687811
0.689558
1.12679
0.685302
0.356927
0.685592
0.362432
0.687762
0.699204
0.707953
0.685669
0.715763
0.358088
0.355713
0.438491
0.362153
0.686968
0.357237
0.36492
0.704814
0.334548
0.707286
0.355006
0.690603
0.697965
0.367319
0.469408
0.376626
0.69394
0.356021
0.694689
0.699954
0.35659
0.687512
0.557887
0.385056
0.364346
0.331135
0.70738
0.367601
0.688533
0.644278
0.405555
0.690718
0.693134
0.706752
0.366514
0.654478
0.365302
0.690935
0.686817
0.688234
0.367476
0.695676
0.6936
0.683599
0.470209
0.695974
0.367356
0.364431
0.688162
0.499647
0.695197
0.468294
0.367308
0.490654
0.684815
0.362618
0.356687
0.349851
0.551969
1.12031
0.699158
0.361976
0.670071
0.696746
0.551624
0.506656
0.37296
0.559156
0.367725
0.363007
0.692285
0.364754
0.366221
0.689773
0.690963
0.3479
0.707893
0.349732
1.12677
0.365165
0.687667
0.756038
0.716528
0.683183
0.367924
0.363391
0.360481
0.686872
0.687855
0.575124
0.557671
0.464308
0.433244
0.692866
0.363725
0.694723
0.466832
0.705277
0.711707
0.352958
0.356417
0.364488
0.363901
0.359178
0.680486
0.688035
0.356131
0.697964
0.707512
0.406041
0.375453
0.691373
0.366904
0.69707
0.484211
0.71478
0.719984
0.697175
1.113
0.365693
0.69542
0.6876
0.690888
0.36726
0.679365
0.581454
0.37956
0.694321
0.691068
0.690293
0.689207
0.696292
0.688188
0.690227
0.687372
0.691914
0.367417
0.707451
0.364443
0.516793
0.689851
0.361336
0.689373
0.679819
0.386267
0.683981
0.367356
0.354331
0.68847
0.677271
0.691028
0.364998
0.688906
0.6842
0.365017
0.356226
0.686727
0.6869
0.466896
0.353433
0.704511
0.69099
0.367712
0.713562
0.70031
0.746222
0.350635
0.367127
0.359155
0.721681
0.397582
0.691138
0.715603
0.692974
0.670869
0.697461
0.365166
0.689031
0.590713
0.699952
0.666881
0.361555
0.363079
0.381511
0.706769
0.699947
0.481888
0.720727
0.369843
0.693661
0.688283
0.375327
0.680314
0.691588
0.680543
0.355498
0.356766
0.371983
0.699919
0.696427
0.682958
0.525347
0.697006
0.366396
0.703751
1.12644
0.696159
0.35473
0.586863
0.387845
0.681465
0.382361
0.694751
0.687854
0.35863
0.69976
0.520089
1.1267
0.700256
1.12682
0.689242
0.476883
0.692853
0.693921
0.686989
0.69485
0.503124
1.12677
0.360153
0.694365
0.381043
0.363213
0.390447
0.35848
0.367609
0.35542
0.694418
0.463316
0.366998
0.709324
0.700112
0.688246
0.434947
0.712451
0.718291
0.687459
0.355873
0.667901
0.687938
0.377101
0.355042
0.363565
0.687784
0.519596
0.366311
0.667449
0.320159
1.11763
0.516479
0.356702
0.504849
0.722558
0.374334
0.687064
0.379443
0.620661
0.463805
0.689299
0.462362
0.702228
1.12675
0.678308
0.505699
0.363614
0.689641
0.690815
0.356787
0.355912
0.687122
0.363249
0.713216
0.357457
0.557406
0.379528
0.687311
0.371999
0.691258
0.362613
0.687994
0.697408
0.70381
1.12672
0.360332
0.364066
0.430999
0.686027
0.704523
0.684587
0.662057
0.382309
0.704221
0.373694
0.687634
0.674827
0.463238
0.39883
0.709133
0.694125
0.366009
0.908665
0.689947
0.70776
0.699299
0.381309
0.713695
0.365265
0.706355
0.397274
0.667822
0.68745
0.689997
0.691163
0.407106
0.690872
0.36712
0.364856
0.687211
1.12655
0.564793
0.695012
1.12675
0.366462
0.700206
0.688558
0.689954
0.356529
0.485919
0.713092
0.356589
0.698927
0.688894
0.689833
0.689293
0.411058
0.503704
0.733592
0.360586
0.688694
0.691014
0.523136
0.688249
0.419406
0.681463
0.699053
0.725442
0.687342
0.357081
0.361935
0.695226
0.690362
0.38184
0.409575
0.369177
0.362361
0.366231
0.350639
0.364693
0.367739
0.695423
0.380837
0.350245
0.70394
0.564377
1.12684
0.471349
0.36456
0.696948
0.513861
0.592155
0.703587
0.458498
0.736413
0.663232
0.584847
0.690767
0.354786
0.699113
0.680278
0.355855
0.364267
0.466664
0.679131
0.582039
0.697114
0.68701
0.696662
0.691842
0.399575
0.698742
0.684701
0.688384
0.364455
0.687976
0.671091
0.395693
0.488273
0.359073
0.367568
0.365457
0.665836
0.715957
0.695292
0.363342
0.473456
0.698624
0.342909
0.701007
0.693992
0.69004
0.726066
0.696887
0.37515
0.366636
0.362662
0.655523
0.395262
0.695952
0.366167
0.687649
0.687265
0.698392
0.369278
0.500986
0.475165
0.697274
0.350757
0.363466
0.687734
0.690541
0.682315
0.686927
0.686892
0.713089
0.367823
0.607926
0.7066
0.535122
0.696827
0.702189
0.711388
0.491269
0.481504
0.690132
0.515141
0.674815
0.36564
0.687371
0.689427
0.427548
0.39804
0.690753
0.538511
0.704651
0.701424
0.367647
0.36099
1.07927
0.501968
0.443594
0.689373
0.686722
0.391416
0.690472
1.07348
0.685847
0.367898
0.665694
0.367758
0.689896
0.703873
0.712448
0.694667
1.03098
0.424728
0.425246
0.697708
0.366681
0.587965
0.401837
0.697669
0.364947
0.711176
0.706677
1.09523
0.367473
1.1268
1.12461
0.362597
0.687542
0.330248
0.690958
0.367086
0.354341
0.369491
0.700019
0.690372
0.442689
0.435174
0.683804
0.698277
0.504184
0.709196
0.367429
0.563574
0.364178
0.696545
0.362885