# vtk DataFile Version 1.0
unstructured grid
ascii
DATASET UNSTRUCTURED_GRID
points 13672 float
0.0796578 -0.059106 0
0.00128732 0.00159165 0
0.00227961 -0.00102548 0
0.0791586 -0.0598787 0
-0.0546216 0.01 0
0.000495206 0.025 0
0.0800549 -0.035 0
0.135172 -0.08 0
-0.0546216 -0.0451168 0
0.000495206 -0.0301168 0
0.0800549 -0.0901168 0
0.135172 -0.135117 0
-0.0546216 -0.0451168 -0.00551168
0.000495206 -0.0301168 -0.00551168
0.0800549 -0.0901168 -0.00551168
0.135172 -0.135117 -0.00551168
0.135172 -0.08 -0.00551168
0.0800549 -0.035 -0.00551168
0.000495206 0.025 -0.00551168
-0.0546216 0.01 -0.00551168
0.00128732 0.00159165 -0.00551168
0.00227961 -0.00102548 -0.00551168
0.0791586 -0.0598787 -0.00551168
0.0796578 -0.059106 -0.00551168
0.00165953 -0.000990923 0
0.00119576 -0.000874076 0
0.000866021 -0.000641801 0
0.000645147 -0.000349912 0
0.00052235 -1.7281e-05 0
0.00049972 0.000348016 0
0.000601632 0.000737716 0
0.000861774 0.0011403 0
0.00157235 0.00183217 0
0.00188647 0.00206725 0
0.00222612 0.00230203 0
0.00258713 0.00254351 0
0.00296826 0.00279524 0
0.00337118 0.00305664 0
0.00379785 0.00332658 0
0.00425045 0.00360349 0
0.00473139 0.00388521 0
0.0052432 0.00416895 0
0.0057881 0.00445204 0
0.00636753 0.00473281 0
0.00698281 0.00500961 0
0.00763526 0.00528058 0
0.00832616 0.00554366 0
0.00905691 0.00579603 0
0.00982918 0.00603333 0
0.0106445 0.00625033 0
0.0115038 0.00644128 0
0.0124073 0.00660297 0
0.0133543 0.00673414 0
0.0143444 0.00683382 0
0.0153769 0.00690031 0
0.0164512 0.00693173 0
0.0175666 0.00692547 0
0.0187219 0.00687822 0
0.0199156 0.00678477 0
0.0211454 0.00663864 0
0.0224084 0.00643275 0
0.0237018 0.00616676 0
0.0250249 0.00584739 0
0.026375 0.00547298 0
0.0277479 0.00503752 0
0.0291386 0.00453545 0
0.0305433 0.0039653 0
0.0319572 0.0033256 0
0.0333681 0.00260019 0
0.034775 0.00179799 0
0.0361793 0.000930615 0
0.0375798 3.12222e-06 0
0.0389689 -0.000988429 0
0.0403357 -0.00205109 0
0.041675 -0.00318283 0
0.0429849 -0.00437751 0
0.0442643 -0.00562904 0
0.0455126 -0.00693089 0
0.0467314 -0.00827518 0
0.0479204 -0.00965638 0
0.0490661 -0.0110799 0
0.0501515 -0.0125519 0
0.0511696 -0.0140695 0
0.0521492 -0.0156071 0
0.0531202 -0.0171411 0
0.0540851 -0.0186663 0
0.0550431 -0.0201798 0
0.0559923 -0.0216793 0
0.0569311 -0.0231626 0
0.0578582 -0.0246273 0
0.0587723 -0.0260715 0
0.0596721 -0.027493 0
0.0605563 -0.02889 0
0.0614241 -0.0302609 0
0.0622742 -0.0316042 0
0.063106 -0.0329183 0
0.0639186 -0.034202 0
0.0647113 -0.0354543 0
0.0654835 -0.0366743 0
0.0662345 -0.0378613 0
0.0669642 -0.0390145 0
0.0676726 -0.0401333 0
0.0683597 -0.0412172 0
0.0690246 -0.0422665 0
0.0696662 -0.0432819 0
0.0702841 -0.0442636 0
0.0708793 -0.0452111 0
0.0714538 -0.0461237 0
0.072009 -0.047001 0
0.0725452 -0.0478434 0
0.0730611 -0.0486524 0
0.073556 -0.0494294 0
0.0740291 -0.0501756 0
0.0744812 -0.0508916 0
0.0749138 -0.0515773 0
0.0753285 -0.0522331 0
0.0757266 -0.0528592 0
0.076109 -0.0534564 0
0.0764753 -0.0540264 0
0.0768243 -0.054571 0
0.0771553 -0.0550919 0
0.0774679 -0.0555901 0
0.0777617 -0.0560669 0
0.0780369 -0.056523 0
0.0782958 -0.0569578 0
0.0785421 -0.0573703 0
0.0787786 -0.0577603 0
0.0790073 -0.0581279 0
0.0792295 -0.058474 0
0.0794462 -0.0587995 0
0.0798803 -0.0594162 0
0.0800272 -0.0596588 0
0.0800357 -0.0598891 0
0.0799275 -0.0600784 0
0.0797205 -0.0601773 0
0.0794593 -0.0601051 0
0.0789155 -0.0596491 0
0.0786707 -0.0593963 0
0.0784111 -0.0591319 0
0.0781372 -0.0588542 0
0.0778566 -0.0585548 0
0.0775715 -0.0582308 0
0.0772803 -0.0578828 0
0.0769832 -0.0575099 0
0.0766822 -0.0571097 0
0.0763801 -0.0566796 0
0.0760759 -0.0562196 0
0.0757623 -0.0557337 0
0.0754359 -0.0552232 0
0.0750951 -0.0546879 0
0.0747379 -0.054128 0
0.0743626 -0.0535435 0
0.0739688 -0.0529338 0
0.0735559 -0.0522981 0
0.0731238 -0.0516357 0
0.0726718 -0.050946 0
0.0721991 -0.0502288 0
0.0717046 -0.049484 0
0.0711872 -0.0487117 0
0.0706461 -0.047912 0
0.0700804 -0.0470849 0
0.0694892 -0.0462308 0
0.0688718 -0.0453499 0
0.0682271 -0.0444431 0
0.0675544 -0.043511 0
0.0668527 -0.0425546 0
0.0661215 -0.0415748 0
0.06536 -0.040573 0
0.0645676 -0.0395504 0
0.0637439 -0.0385087 0
0.0628887 -0.0374493 0
0.062002 -0.0363741 0
0.0610838 -0.0352847 0
0.0601345 -0.0341831 0
0.0591547 -0.033071 0
0.0581456 -0.0319502 0
0.0571083 -0.0308224 0
0.0560444 -0.0296893 0
0.0549562 -0.028552 0
0.053845 -0.0274126 0
0.0527113 -0.0262746 0
0.051554 -0.0251427 0
0.0503724 -0.0240222 0
0.0491675 -0.0229164 0
0.047941 -0.0218282 0
0.0466955 -0.0207597 0
0.0454337 -0.0197126 0
0.0441592 -0.0186878 0
0.0428751 -0.0176863 0
0.0415841 -0.0167097 0
0.0402878 -0.0157609 0
0.0389879 -0.0148428 0
0.0376864 -0.0139575 0
0.0363853 -0.013107 0
0.0350871 -0.0122931 0
0.0337942 -0.0115164 0
0.0325095 -0.0107772 0
0.0312357 -0.0100756 0
0.0299758 -0.00941024 0
0.0287337 -0.00877784 0
0.0275126 -0.00817571 0
0.0263139 -0.00760375 0
0.0251376 -0.00706528 0
0.0239829 -0.0065649 0
0.0228537 -0.00609619 0
0.0217522 -0.00565563 0
0.0206795 -0.00524226 0
0.0196364 -0.00485507 0
0.0186233 -0.00449318 0
0.0176408 -0.00415577 0
0.016689 -0.00384204 0
0.0157682 -0.00355115 0
0.0148783 -0.00328218 0
0.0140192 -0.00303468 0
0.0131906 -0.00280795 0
0.0123925 -0.00260016 0
0.0116246 -0.00241012 0
0.0108864 -0.00223769 0
0.0101774 -0.00208212 0
0.00949701 -0.00194206 0
0.00884483 -0.0018163 0
0.0082202 -0.0017039 0
0.00762247 -0.00160391 0
0.00705097 -0.00151528 0
0.006505 -0.00143697 0
0.0059838 -0.00136806 0
0.00548662 -0.00130772 0
0.00501265 -0.00125519 0
0.00456114 -0.00120954 0
0.00413136 -0.00116914 0
0.00372257 -0.00113251 0
0.00333398 -0.00109853 0
0.00296466 -0.00106798 0
0.00261363 -0.0010431 0
-0.052721 -0.0445996 0
-0.0508204 -0.0440823 0
-0.0489199 -0.0435651 0
-0.0470193 -0.0430478 0
-0.0451187 -0.0425306 0
-0.0432181 -0.0420134 0
-0.0413175 -0.0414961 0
-0.039417 -0.0409789 0
-0.0375164 -0.0404616 0
-0.0356158 -0.0399444 0
-0.0337152 -0.0394271 0
-0.0318146 -0.0389099 0
-0.0299141 -0.0383927 0
-0.0280135 -0.0378754 0
-0.0261129 -0.0373582 0
-0.0242123 -0.0368409 0
-0.0223117 -0.0363237 0
-0.0204112 -0.0358065 0
-0.0185106 -0.0352892 0
-0.01661 -0.034772 0
-0.0147094 -0.0342547 0
-0.0128088 -0.0337375 0
-0.0109083 -0.0332202 0
-0.00900769 -0.032703 0
-0.00710711 -0.0321858 0
-0.00520653 -0.0316685 0
-0.00330595 -0.0311513 0
-0.00140537 -0.030634 0
0.00190689 -0.0299614 0
0.00332271 -0.0298498 0
0.00474133 -0.0297825 0
0.00616136 -0.0297597 0
0.0075814 -0.0297814 0
0.00900007 -0.0298477 0
0.010416 -0.0299583 0
0.0118278 -0.0301127 0
0.0132342 -0.0303103 0
0.0146339 -0.0305504 0
0.0160259 -0.0308322 0
0.0174091 -0.0311546 0
0.0187824 -0.0315166 0
0.020145 -0.031917 0
0.0214961 -0.0323546 0
0.0228351 -0.032828 0
0.0241613 -0.0333361 0
0.0254744 -0.0338774 0
0.0267738 -0.0344507 0
0.0280592 -0.0350545 0
0.0293306 -0.0356877 0
0.0305875 -0.0363488 0
0.0318301 -0.0370367 0
0.0330581 -0.0377501 0
0.0342717 -0.0384879 0
0.0354708 -0.0392489 0
0.0366556 -0.0400321 0
0.0378262 -0.0408363 0
0.0389828 -0.0416607 0
0.0401254 -0.0425042 0
0.0412543 -0.0433659 0
0.0423698 -0.0442451 0
0.043472 -0.0451408 0
0.0445612 -0.0460523 0
0.0456375 -0.0469789 0
0.0467013 -0.0479199 0
0.0477529 -0.0488746 0
0.0487923 -0.0498424 0
0.04982 -0.0508227 0
0.0508362 -0.051815 0
0.051841 -0.0528187 0
0.0528348 -0.0538333 0
0.0538178 -0.0548584 0
0.0547903 -0.0558935 0
0.0557524 -0.0569382 0
0.0567045 -0.0579922 0
0.0576467 -0.0590549 0
0.0585792 -0.0601261 0
0.0595024 -0.0612055 0
0.0604163 -0.0622926 0
0.0613212 -0.0633873 0
0.0622174 -0.0644891 0
0.0631049 -0.0655979 0
0.0639841 -0.0667134 0
0.064855 -0.0678353 0
0.0657179 -0.0689633 0
0.0665729 -0.0700974 0
0.0674202 -0.0712372 0
0.06826 -0.0723826 0
0.0690925 -0.0735333 0
0.0699178 -0.0746892 0
0.070736 -0.0758501 0
0.0715473 -0.0770159 0
0.0723518 -0.0781863 0
0.0731498 -0.0793612 0
0.0739412 -0.0805405 0
0.0747264 -0.081724 0
0.0755053 -0.0829116 0
0.0762781 -0.0841033 0
0.0770449 -0.0852987 0
0.0778059 -0.0864979 0
0.0785611 -0.0877007 0
0.0793108 -0.088907 0
0.0814681 -0.0912706 0
0.0828814 -0.0924245 0
0.0842946 -0.0935783 0
0.0857079 -0.0947322 0
0.0871211 -0.095886 0
0.0885344 -0.0970399 0
0.0899476 -0.0981937 0
0.0913609 -0.0993476 0
0.0927741 -0.100501 0
0.0941874 -0.101655 0
0.0956006 -0.102809 0
0.0970139 -0.103963 0
0.0984272 -0.105117 0
0.0998404 -0.106271 0
0.101254 -0.107424 0
0.102667 -0.108578 0
0.10408 -0.109732 0
0.105493 -0.110886 0
0.106907 -0.11204 0
0.10832 -0.113194 0
0.109733 -0.114348 0
0.111146 -0.115501 0
0.11256 -0.116655 0
0.113973 -0.117809 0
0.115386 -0.118963 0
0.116799 -0.120117 0
0.118213 -0.121271 0
0.119626 -0.122424 0
0.121039 -0.123578 0
0.122452 -0.124732 0
0.123866 -0.125886 0
0.125279 -0.12704 0
0.126692 -0.128194 0
0.128105 -0.129348 0
0.129519 -0.130501 0
0.130932 -0.131655 0
0.132345 -0.132809 0
0.133758 -0.133963 0
0.135172 -0.133216 0
0.135172 -0.131316 0
0.135172 -0.129415 0
0.135172 -0.127514 0
0.135172 -0.125614 0
0.135172 -0.123713 0
0.135172 -0.121813 0
0.135172 -0.119912 0
0.135172 -0.118012 0
0.135172 -0.116111 0
0.135172 -0.11421 0
0.135172 -0.11231 0
0.135172 -0.110409 0
0.135172 -0.108509 0
0.135172 -0.106608 0
0.135172 -0.104708 0
0.135172 -0.102807 0
0.135172 -0.100906 0
0.135172 -0.0990058 0
0.135172 -0.0971052 0
0.135172 -0.0952046 0
0.135172 -0.0933041 0
0.135172 -0.0914035 0
0.135172 -0.0895029 0
0.135172 -0.0876023 0
0.135172 -0.0857017 0
0.135172 -0.0838012 0
0.135172 -0.0819006 0
0.133758 -0.0788462 0
0.132345 -0.0776923 0
0.130932 -0.0765385 0
0.129519 -0.0753846 0
0.128105 -0.0742308 0
0.126692 -0.0730769 0
0.125279 -0.0719231 0
0.123866 -0.0707692 0
0.122452 -0.0696154 0
0.121039 -0.0684615 0
0.119626 -0.0673077 0
0.118213 -0.0661538 0
0.116799 -0.065 0
0.115386 -0.0638462 0
0.113973 -0.0626923 0
0.11256 -0.0615385 0
0.111146 -0.0603846 0
0.109733 -0.0592308 0
0.10832 -0.0580769 0
0.106907 -0.0569231 0
0.105493 -0.0557692 0
0.10408 -0.0546154 0
0.102667 -0.0534615 0
0.101254 -0.0523077 0
0.0998404 -0.0511538 0
0.0984272 -0.05 0
0.0970139 -0.0488462 0
0.0956006 -0.0476923 0
[...]
CELL_DATA 13116
SCALARS rho float
LOOKUP_TABLE default
0.548058
0.680066
0.382272
0.713757
0.700952
0.67575
0.30814
0.716694
0.499865
0.705243
0.342195
0.337645
0.701477
0.335757
0.324454
0.679499
0.544587
0.683635
0.704977
0.33244
0.542899
0.375102
0.381443
0.689353
0.576222
0.694731
0.705001
0.405272
0.56612
0.624706
1.15298
0.331691
0.523401
0.422849
0.313979
0.545927
0.653005
0.698393
1.04694
0.70956
0.701319
0.716271
0.41958
0.370653
0.704851
0.70531
0.671199
0.706357
0.34915
0.488488
0.716984
0.426957
0.28618
0.536242
0.523187
0.554456
0.373617
0.684914
0.499114
0.317795
0.335519
0.710535
0.675509
1.08419
1.13828
0.359355
0.705962
0.65156
0.70589
1.13829
0.330856
0.549621
0.379435
0.395605
1.14819
0.359765
0.649277
0.705219
0.332028
0.677579
0.666805
0.692122
0.690905
0.704623
0.69966
0.406716
0.342876
0.640707
0.703241
0.365249
0.333107
0.681734
0.695326
0.70422
0.634772
0.573821
0.579819
1.13933
1.14889
0.56273
0.64815
0.633815
0.702296
0.397888
0.669541
0.327399
0.35373
0.461541
0.408632
0.57387
0.489064
0.685309
0.570552
0.667872
0.678725
0.705392
0.339904
0.375206
0.705769
0.708109
0.649981
0.377708
0.706169
0.332788
0.701852
0.412367
0.341704
0.471937
0.381188
0.488733
0.706357
0.68877
0.458211
0.36127
0.436806
0.587663
1.13376
0.707406
0.646379
0.709744
0.635249
0.673159
0.47231
0.637737
0.662376
0.332618
0.323433
0.690581
0.698217
0.719539
0.502129
0.704995
0.706047
0.355967
0.699151
0.700074
0.391849
0.655249
1.14071
0.639633
0.688203
0.339062
0.689235
0.394471
0.377951
0.710396
0.699906
0.682602
0.312004
0.420042
0.390763
1.1338
0.311014
0.45847
0.703995
0.362737
0.362322
0.378422
0.683829
0.679158
0.349705
0.403916
0.514215
0.650885
0.681236
0.499256
0.369255
0.704517
0.671383
0.428998
0.633383
0.689507
1.13784
0.326491
0.684547
0.677967
0.698908
0.704864
0.70214
0.376276
0.398701
0.580462
0.467162
0.390439
0.695462
0.699629
0.433563
0.583094
0.313789
0.362736
0.360276
0.702705
0.392123
0.334453
0.364987
0.356915
0.365199
1.01312
0.700647
0.393314
0.374891
0.705687
0.484294
0.350031
0.514239
0.708074
0.660105
0.406406
0.704621
0.369279
0.714613
0.331824
1.15416
0.537541
1.13837
0.708208
1.13304
0.328116
0.407886
0.637185
1.14475
0.682785
1.13385
1.14527
0.716083
0.365421
0.706951
0.700905
1.14443
0.342201
0.351279
0.703011
0.70671
1.15479
0.703507
0.541903
0.664665
0.343485
0.344351
0.373326
0.314734
0.664252
0.698316
0.647809
0.327262
0.703932
0.381037
0.396996
0.670913
0.35271
0.692637
0.716475
1.14694
0.684576
0.331523
1.14707
0.672453
1.14292
0.707411
0.337762
0.348473
0.353844
0.58464
0.37917
0.362676
0.340033
0.339986
0.692457
0.270644
0.707146
0.705794
0.361507
0.338859
0.370966
0.417409
0.390451
0.639503
0.61604
0.67917
0.353332
0.700985
0.541686
0.34841
0.323604
0.875946
0.707122
0.704063
0.36947
0.67781
0.406063
0.689271
0.716222
0.71908
0.716545
0.309185
0.705232
0.30289
0.701007
0.708195
0.634705
0.349239
0.337147
0.702434
0.355691
0.685708
0.710685
0.361529
0.665312
0.690114
0.353509
0.703483
0.695063
0.313768
0.707654
0.396329
0.530515
0.710838
0.40934
0.657148
0.332818
0.684984
0.329016
1.1253
0.646012
0.700442
0.407629
0.356233
0.699212
0.353982
0.697362
0.674464
0.398671
1.13416
0.361355
0.378583
0.699615
0.514744
0.652346
0.348834
0.394743
0.707541
0.704822
0.329808
0.708648
0.340302
0.32711
0.709791
0.712039
0.465812
0.363659
0.707719
1.15245
0.680705
0.702245
0.689719
0.50418
0.375959
0.314476
0.347731
0.67915
0.347571
0.513679
0.361251
0.33514
0.351399
0.473258
0.121515
0.354197
0.697952
0.346345
0.691113
0.568169
0.703811
0.630799
0.706938
0.379781
0.347746
0.37878
0.362287
0.696068
0.567327
0.702076
0.568482
0.663863
0.597281
0.691133
0.619802
0.622731
0.689903
0.676354
0.719848
0.375864
0.439576
0.544926
0.377222
0.613307
0.554026
0.299822
0.705227
1.14158
0.309113
0.336271
0.358319
0.369045
0.58477
0.319175
0.329027
0.704299
0.386557
0.53805
0.35979
0.688649
0.672476
0.391189
0.364819
0.698651
0.416266
0.360682
0.371026
0.350959
0.411533
0.348298
0.336982
0.370472
0.39976
0.360698
0.632708
0.377446
0.704631
0.369403
0.332205
0.461277
0.331039
0.367316
0.331857
0.706581
0.402699
0.599655
0.471166
0.371937
0.586981
0.705207
0.40239
0.664072
0.601636
0.603075
0.352434
1.13952
0.377143
0.688676
1.15154
0.437821
0.262801
0.669437
0.362676
0.407477
0.649655
0.354152
0.653802
0.666794
0.343816
0.359847
0.280943
0.453496
0.322046
0.303963
0.313728
0.302596
0.713766
0.712965
0.4224
0.565967
0.438736
0.682595
0.355139
0.34758
0.505533
0.438255
0.697039
0.310074
0.364246
0.454014
0.704268
0.697775
0.522931
0.362123
0.25552
0.523807
0.716854
1.13929
0.522307
0.666904
0.662645
0.360165
0.670761
0.533673
0.635856
0.332712
0.388399
0.666619
0.698665
0.628662
0.708134
0.697185
0.697678
0.686012
0.633898
0.703221
0.353682
0.703846
0.329887
0.31204
0.34327
0.713385
0.701027
0.322918
0.700951
0.574765
0.350753
1.12307
0.707129
0.6842
0.405386
0.348423
0.702816
0.363111
0.360557
0.326092
0.359949
0.693076
0.307961
0.713163
0.377498
0.678968
0.715349
0.704563
0.703656
0.363709
0.33467
0.700599
0.714642
0.655423
0.713322
0.700314
0.453008
0.354124
0.432307
0.700195
0.498214
0.357151
0.41753
0.334803
0.709812
0.706248
0.330216
0.374347
0.703179
0.41644
0.698287
0.62043
0.379938
0.368565
0.651647
1.1389
0.391721
0.696955
0.69972
0.700682
0.356471
1.13372
0.38039
1.13765
0.633861
0.36486
0.362233
0.365038
1.13675
0.409549
0.317755
0.377591
1.07116
0.686215
0.322294
0.338105
0.365043
1.10147
0.378713
0.680218
0.33307
0.552343
0.707965
0.369803
0.394791
0.38867
0.455782
0.42631
0.695196
0.365976
0.348275
0.68428
0.26441
0.702928
0.681136
1.13819
0.340362
0.698406
0.693852
0.698155
0.700373
0.706439
0.708391
0.332017
1.14017
0.398389
0.692745
0.337157
0.71663
0.475161
0.296516
1.1384
0.695059
0.349316
0.617827
0.33309
0.331961
0.703745
0.705897
0.334073
0.332687
0.329118
0.33059
0.708582
0.689507
0.354823
0.347213
0.696485
0.706374
0.554702
0.69314
0.705
0.341738
0.700842
0.396653
0.71571
0.37889
0.565629
0.437911
0.705152
0.653972
0.54102
0.350386
0.412568
0.706312
0.562586
0.534368
0.692109
0.314467
0.674105
0.698463
0.347617
0.435135
0.695073
0.359133
1.13945
0.638629
0.336084
0.713599
0.632072
0.381677
0.683355
0.351388
0.700209
0.363869
0.702098
0.673707
0.415829
1.03714
0.690241
0.70124
0.577659
0.676386
0.542906
0.349468
0.403565
0.338773
0.392215
1.13511
0.517227
0.706416
0.697904
0.342625
0.364686
0.68188
0.709446
0.698169
0.716925
0.341976
0.676227
0.700986
0.330478
0.320948
0.705221
0.70353
0.702113
0.329436
0.545213
0.391546
0.681197
0.681711
1.14329
0.685965
0.35768
0.686597
0.706007
0.693485
0.70431
0.700643
0.395086
0.68964
0.362754
0.649171
0.70346
0.418175
0.667902
1.13784
0.715548
0.404441
0.388406
0.545745
0.620694
0.362629
0.366213
0.353662
0.362966
0.678695
0.673063
1.14163
0.338457
0.355701
0.705651
0.655493
0.315705
0.361377
0.423185
0.65986
0.705361
0.70122
0.678339
0.36467
0.362844
1.14359
0.332627
0.332384
0.362995
0.701129
0.393767
0.363092
0.547811
0.696699
0.682509
0.783388
0.70331
0.343686
0.275074
0.355374
0.478135
0.404491
0.332189
0.651173
0.675694
0.696715
0.701259
0.330534
0.349557
0.707339
0.353494
0.700517
0.674332
1.14344
0.33398
0.351344
0.695562
1.14615
0.569165
0.311719
0.698602
0.72023
0.54452
0.719416
0.71765
1.14564
0.665431
0.341461
0.703063
1.14664
0.629546
0.680481
1.13355
0.68582
1.13513
0.707114
0.346077
0.356335
0.351526
1.14634
0.477836
0.355123
0.682392
0.695804
0.337213
0.623589
0.390558
0.633723
0.46293
0.334155
0.71036
0.687919
0.358247
0.511594
1.15113
0.387593
0.705239
0.350097
0.325384
0.593905
0.574852
0.45991
0.702765
0.354173
0.689316
0.361811
0.331854
0.702532
0.356915
0.576887
0.334629
0.625273
0.567104
1.13523
0.698845
0.313651
0.349418
0.640001
0.42408
0.697245
0.43213
0.566292
0.677355
0.692825
0.434584
0.571911
0.683574
0.69954
0.706255
0.336266
0.365865
0.502679
0.684114
0.700014
0.364436
0.702535
0.570635
0.377687
0.333687
0.636901
0.658755
1.13437
1.13642
0.646246
0.670996
1.00429
0.659538
0.333517
0.625757
0.420028
0.715555
0.703211
0.326565
0.709172
0.702729
0.36446
0.306969
0.360784
1.13337
0.33896
0.591733
0.686483
0.626231
0.350867
0.694733
0.364788
0.546622
1.10661
1.14621
0.649048
1.10038
0.58764
0.665572
0.499353
0.692299
0.364267
0.700568
0.704046
0.408368
1.13577
0.676108
0.369255
0.314548
0.383522
0.718766
0.367015
1.13425
0.357312
0.716613
0.271884
0.439854
0.33353
0.687673
0.716318
0.539579
0.269186
0.589164
0.945817
0.363513
0.554148
0.713081
0.33215
0.557199
1.14669
0.707255
0.700525
0.450239
0.455612
0.698154
0.704723
0.649951
0.364063
0.385195
0.699649
1.13519
1.14032
1.13422
0.533888
0.689218
0.529971
0.71377
0.363963
0.383819
1.13431
0.700894
1.03959
0.368824
0.700747
0.547038
0.586302
0.362435
0.387022
0.708636
0.713607
0.519539
0.368267
0.701983
1.13637
0.31697
0.578377
0.677589
0.319311
0.332606
0.297778
0.676544
0.373759
0.350394
0.702679
0.436437
0.700378
0.63064
0.301392
0.352374
0.713635
0.362025
0.328365
1.14763
0.338803
0.358571
0.560885
0.70585
0.696141
0.358274
0.387818
0.342553
0.682395
0.328595
0.697479
0.272079
0.684385
0.702014
0.703959
0.672482
0.682584
0.679868
0.705208
0.7032
0.701027
0.30316
0.356583
0.679069
0.946345
0.468118
0.67737
0.52275
1.05942
0.627934
0.391815
0.706529
0.712219
0.693681
0.342541
0.686448
0.383294
0.703876
0.457235
0.6795
0.700525
0.336511
0.694421
0.362053
0.417781
0.674762
0.362454
0.657323
1.1337
0.713094
0.366083
0.70453
0.364799
0.333889
0.335069
0.364058
0.628659
0.30631
0.636651
1.13709
0.366426
0.322193
0.446123
0.544099
0.61055
0.656404
0.338252
0.353439
0.329945
0.333189
0.274113
0.612016
0.688942
0.401616
1.12781
0.686148
0.296352
0.711794
0.653501
1.12239
0.349013
1.13593
0.674716
0.691522
0.717981
0.327023
0.69574
0.695084
0.687343
0.635985
0.696555
0.355593
0.33495
0.705745
0.499154
0.357364
0.702248
0.334811
0.532063
0.611629
0.698624
0.701649
0.333058
0.675776
0.371808
0.343698
0.668396
0.700353
0.695607
0.706895
0.652228
0.334565
0.703263
0.308318
0.466125
0.710097
1.14965
0.697884
0.344215
0.34498
0.702472
0.3492
0.702572
0.611414
0.400324
0.352939
0.711538
0.33466
0.700471
0.701674
0.654419
0.334832
0.35914
0.465552
0.494505
0.599394
0.43836
0.679562
0.658093
0.704353
1.13371
0.684115
0.263487
0.356556
0.704713
0.711765
0.645817
0.418169
0.388772
0.66786
0.307173
0.70566
0.574317
0.377658
0.695146
0.348579
0.702134
0.38297
0.698217
0.322534
0.700629
0.705603
0.336902
0.702871
0.621318
0.3389
1.14436
0.704943
0.523219
0.330566
0.360971
0.433379
0.694826
0.648356
0.367306
0.542673
0.686127
0.695961
0.351997
0.597713
0.691203
0.411832
0.683981
0.700073
0.301835
0.704224
1.14078
0.375981
0.574324
0.369351
0.635759
0.358167
0.32401
0.697977
0.355414
0.366262
0.309933
0.705532
0.685875
0.380311
0.702459
0.359975
0.667584
0.366488
0.687491
0.361853
0.685956
0.706053
0.646318
1.14867
0.514035
0.705319
1.1231
0.400955
0.601716
0.649452
0.497334
0.683586
0.453331
0.392999
0.702477
0.351696
0.535822
0.388732
0.702087
0.311575
0.328357
0.687669
0.704385
0.338779
0.714359
0.674676
1.13397
0.717316
1.13689
0.343176
0.711289
0.327256
0.393399
0.702714
0.680525
0.716396
0.703558
0.331965
0.357455
0.338709
0.68287
1.13916
0.359793
0.707856
0.350712
0.359945
0.360361
0.705996
0.378626
0.706335
0.700112
0.599074
0.705167
0.700885
0.54914
0.644026
0.40106
0.33509
0.334847
1.13676
1.13601
0.364421
0.611579
0.673842
0.643147
0.439688
0.406685
0.659931
0.294781
0.65414
0.616426
0.333086
0.900768
0.679651
0.356924
0.695958
0.315236
0.706294
0.701541
0.684023
0.31004
0.428978
0.655614
0.314872
0.401205
0.705088
0.323725
0.803194
0.70618
0.691879
0.674613
0.375578
1.13733
0.667108
0.704722
0.353283
0.706956
0.369266
0.329273
0.696327
0.705729
1.12866
0.254337
0.700799
0.597641
1.14888
0.353761
0.33852
0.36289
0.706917
0.324608
0.251983
0.379764
0.614602
0.292075
0.335892
0.40536
0.698584
0.34596
1.15012
1.06661
0.708567
0.366225
0.706209
0.629015
1.12468
0.389496
0.63362
0.324682
0.354835
0.704206
0.337104
0.613791
0.68325
1.13487
0.340444
0.338664
0.349728
0.522613
1.13392
0.259781
0.698741
0.705172
0.67787
0.366307
0.303206
0.33541
0.653523
0.358796
1.13314
0.567631
0.955179
0.700915
0.340109
0.61829
0.332168
0.616685
0.613983
0.708824
0.601067
0.501417
0.636205
0.648421
0.705073
0.364363
0.368283
0.393177
0.678136
0.503011
1.14983
0.340015
0.384116
0.688339
0.705636
1.14759
0.332611
0.709655
0.52103
0.525185
0.650211
0.425397
0.32859
0.303197
0.706168
1.12877
0.63311
0.681103
0.344724
0.71285
0.627213
1.12845
1.13563
0.714076
0.711826
0.67403
0.680943
0.694248
0.447678
0.707527
0.70686
0.693765
0.706827
0.705908
0.583501
0.345603
0.333186
0.634521
0.357519
0.371744
0.708725
0.333929
0.598909
0.705176
0.680298
0.695161
0.453843
0.712648
0.334767
0.355809
0.672844
0.690395
0.701413
0.366547
0.709458
0.702609
0.64027
0.703698
0.374884
0.68484
0.703347
0.676894
0.374807
0.684926
0.3487
0.712936
0.361219
0.345393
0.548104
0.416467
0.709879
0.687175
0.70035
0.37651
0.679959
0.382427
0.322229
0.694471
0.450293
0.361835
0.701453
0.326096
0.475872
0.646371
0.666362
0.699304
0.450698
0.554285
0.634635
0.700005
0.584888
0.696244
0.499433
0.712472
0.680382
0.628404
0.329447
0.33485
0.413758
0.70729
0.395405
0.63755
0.714935
0.576814
0.700144
0.525509
0.658037
0.661219
0.347733
0.713849
0.672703
0.510044
0.67275
0.70297
0.695644
0.836465
0.36614
0.347093
0.692233
0.507442
0.535043
0.706602
0.70313
0.702655
0.698803
0.701168
0.599083
0.657759
0.708328
0.28342
0.341955
0.316684
0.380395
1.13672
0.42593
0.526324
0.695113
0.666326
0.397614
0.695209
0.713695
0.368229
0.368411
1.13496
0.707604
0.424229
0.329966
0.326951
1.13243
0.694557
0.378278
0.269214
0.330472
0.333602
0.356233
0.361578
0.714507
0.706406
0.678447
0.363271
0.681883
0.5906
0.56934
0.348397
0.334291
0.693589
1.13385
0.359993
0.681191
0.355804
0.687694
0.442277
0.707286
0.35478
0.697472
0.710701
0.363763
0.527443
0.346376
0.71169
0.339167
0.59685
0.33012
0.475098
0.331018
0.589808
0.363024
1.15175
1.13743
0.570008
0.681526
0.347708
0.688583
0.937584
0.709877
0.587291
0.66755
0.334125
0.403287
0.386059
0.695306
0.317249
0.702545
0.511671
0.679377
0.707459
0.456796
0.690399
0.328924
0.344546
0.269729
0.47609
0.552439
0.702005
0.35459
0.363164
0.702212
0.359388
0.33405
0.577632
0.366033
0.361586
0.332073
0.715806
0.620738
0.600613
0.39395
0.685066
0.706816
0.332167
0.320072
0.705335
0.702408
0.61468
0.480081
0.381386
0.353571
0.356561
0.708849
0.635005
0.496817
0.66483
0.308081
0.543198
0.345309
1.13801
0.703837
0.335625
0.345611
0.64045
0.572731
0.704276
0.694899
0.696055
0.716966
0.708902
0.358117
0.377509
0.39027
0.3394
0.54578
1.15057
0.622804
0.344702
0.335993
0.428621
0.332557
0.703209
0.664033
0.366912
0.335468
0.705053
0.388667
0.635923
0.690493
0.684428
0.700832
0.549142
0.360054
0.357645
0.655379
0.336376
0.410207
0.377702
0.940359
0.707019
0.343937
0.335935
1.13686
0.363128
0.704033
0.69563
0.349258
0.365633
0.253323
0.704817
0.338508
1.13369
0.679689
0.580153
0.331728
0.495965
0.703587
0.696099
0.315251
0.692345
0.634697
0.3335
0.703961
0.712527
0.342574
0.346234
0.694018
0.359348
0.339019
0.690443
0.338482
0.705719
0.657568
0.693354
0.635002
0.700614
0.705607
0.787054
0.335058
0.38445
0.650017
0.692281
0.425751
0.711533
0.342283
0.706827
0.700434
0.539302
0.62949
0.403466
0.421045
0.69613
0.70009
0.678776
0.711968
0.702475
1.13437
0.717911
1.13644
0.705786
0.695774
0.712683
1.13422
0.714565
0.336837
0.692878
0.401494
0.71083
0.707441
0.684433
0.678252
0.672645
0.362664
0.353395
0.322593
0.324165
0.681281
0.350325
0.348609
0.669699
0.330099
0.679875
0.355282
0.692053
0.696923
0.354263
0.361179
0.376014
0.70693
0.389706
0.701749
0.693351
0.350603
0.692369
0.522922
0.370554
0.409608
0.332632
0.668881
0.347269
0.712809
0.522868
0.347534
0.705228
0.701468
0.695952
0.356167
0.550623
0.330841
0.682809
0.818598
0.705387
0.365929
0.691311
0.707093
0.68045
0.389126
0.707434
0.360211
0.361977
0.706868
0.421692
0.702936
0.396576
0.364728
0.407465
0.681551
0.409941
0.339831
0.363527
0.468204
1.1405
0.69576
0.323917
0.583779
0.703386
0.52139
0.419996
0.379946
0.5262
0.365399
0.350771
0.703031
0.363405
0.355904
0.718731
0.713923
0.364622
0.681217
0.357801
1.13496
0.401487
0.695822
1.13919
0.675168
0.973209
0.36918
0.351768
0.334751
0.698332
0.696152
0.552716
0.508177
0.356196
0.329631
0.697777
0.338065
0.705988
0.363901
1.1486
0.653973
0.372917
0.371908
0.359065
0.337235
0.38402
0.641709
0.682427
0.355781
0.706768
0.621396
0.347678
0.301499
0.713256
0.364255
0.699758
0.396137
0.675891
0.632459
0.706521
1.13792
0.342153
0.701506
0.709226
0.715356
0.355879
0.648102
0.56278
0.372478
0.706807
0.64518
0.712294
0.687701
0.708488
0.709676
0.716442
0.699032
0.704632
0.344621
0.69389
0.35832
0.437215
0.704731
0.333351
0.697376
0.661178
0.358851
0.679219
0.352181
0.333353
0.706979
0.650932
0.713981
0.359055
0.688301
0.59093
0.399051
0.366224
0.698449
0.706527
0.369466
0.364368
0.684567
0.713346
0.356319
0.626748
0.709036
0.622921
0.385788
0.359249
0.332931
0.631906
0.327386
0.691509
0.677345
0.699388
0.594854
0.699846
0.360738
0.703226
0.578484
0.709385
0.600747
0.331394
0.327416
0.318938
0.689586
0.696079
0.394779
0.63131
0.391597
0.649147
0.706788
0.314796
0.63228
0.6922
0.60315
0.365745
0.347417
0.380183
0.701415
0.702682
0.588429
0.479594
0.704185
0.359421
0.61311
1.14857
0.690407
0.363763
0.588359
0.359266
0.667887
0.325539
0.698026
0.70572
0.39341
0.703456
0.423685
1.13411
0.631548
1.13303
0.718201
0.401775
0.692891
0.701272
0.708009
0.699177
0.443037
1.14797
0.288213
0.701586
0.31662
0.337552
0.298756
0.378271
0.364426
0.368005
0.711537
0.356556
0.255537
0.646814
0.703682
0.684378
0.379101
0.669557
0.663258
0.749551
0.363715
0.600954
0.70594
0.372749
0.368288
0.352263
0.608892
0.471875
0.3461
0.591716
0.330991
1.13696
0.465641
0.333714
0.433654
0.628208
0.377226
0.706421
0.31299
0.487811
0.366172
0.710388
0.374256
0.650124
1.14816
0.667922
0.416498
0.351073
0.707631
0.712329
0.372003
0.334155
0.676812
0.326953
0.683475
0.361705
0.525885
0.319326
0.705677
0.378805
0.712486
0.339188
0.710059
0.702724
0.701503
1.13589
0.27944
0.382471
0.377621
0.696256
0.668258
0.680311
0.558012
0.366183
0.688912
0.379077
0.694686
0.640821
0.393105
0.351267
0.691089
0.699619
0.328403
1.15422
0.709404
0.693436
0.693487
0.306234
0.615398
0.363454
0.694948
0.328869
1.10476
0.691544
0.706413
0.713751
0.347888
0.714333
0.357861
0.347088
0.703142
1.13656
0.519171
0.694284
1.13938
0.364716
0.685198
0.708367
0.717068
0.333827
0.404053
0.663297
0.35156
0.707296
0.71596
0.696071
0.712279
0.313913
0.426774
0.622141
0.390933
0.701533
0.712263
0.446927
0.704226
0.278592
0.655718
0.686198
0.651683
0.702848
0.345798
0.312808
0.701661
0.693527
0.360586
0.347681
0.377504
0.393801
0.255274
0.33447
0.393518
0.356525
0.699477
0.316186
0.383295
0.683188
0.519189
1.13554
0.382017
0.337618
0.704228
0.437652
0.477359
0.699687
0.369196
0.629986
1.14965
0.575668
0.686926
0.387085
0.696749
1.07393
0.349991
0.36092
0.395223
0.659249
0.577225
0.707276
0.689721
0.690804
0.686471
0.370728
0.701305
0.996442
0.701496
0.350405
0.705845
0.622338
0.368904
0.40398
0.271888
0.333222
0.283618
0.5637
0.648185
0.67814
0.353132
0.36583
0.710636
0.336938
0.691183
0.701582
0.695048
0.651855
0.705209
0.375818
0.33191
0.328847
0.548696
0.326247
0.705757
0.328208
0.704191
0.674316
0.707481
0.381232
0.424167
0.399085
0.701854
0.362166
0.348533
0.709976
0.687909
0.622528
0.680924
0.698262
0.682458
0.364568
0.587802
0.69881
0.495917
0.700785
0.691602
0.686247
0.416632
0.394878
0.716775
0.461508
0.602788
0.3666
0.668785
0.697841
0.375884
0.329415
0.67955
0.475833
0.699384
0.690259
0.349894
0.329805
1.1396
0.405425
0.383668
0.699747
0.698275
0.355932
0.70098
1.14049
0.678102
0.365325
0.565093
0.3622
0.701754
0.7042
0.682825
0.677348
1.13783
0.336417
0.356942
0.682758
0.359725
0.570387
0.348177
0.70636
0.330988
0.635873
0.697852
1.13733
0.365941
1.13335
1.13893
0.342661
0.667449
0.332645
0.715784
0.36334
0.362061
0.325144
0.671588
0.704421
0.318784
0.31531
0.691035
0.708255
0.425481
0.674939
0.364251
0.471464
0.329865
0.680222
0.348776
0.649793
0.710023
0.409306
0.40576
0.356694
1.13026
0.358255
0.34558