# vtk DataFile Version 1.0
unstructured grid
ascii
DATASET UNSTRUCTURED_GRID
points 13672 float
0.0796578 -0.059106 0
0.00128732 0.00159165 0
0.00227961 -0.00102548 0
0.0791586 -0.0598787 0
-0.0546216 0.01 0
0.000495206 0.025 0
0.0800549 -0.035 0
0.135172 -0.08 0
-0.0546216 -0.0451168 0
0.000495206 -0.0301168 0
0.0800549 -0.0901168 0
0.135172 -0.135117 0
-0.0546216 -0.0451168 -0.00551168
0.000495206 -0.0301168 -0.00551168
0.0800549 -0.0901168 -0.00551168
0.135172 -0.135117 -0.00551168
0.135172 -0.08 -0.00551168
0.0800549 -0.035 -0.00551168
0.000495206 0.025 -0.00551168
-0.0546216 0.01 -0.00551168
0.00128732 0.00159165 -0.00551168
0.00227961 -0.00102548 -0.00551168
0.0791586 -0.0598787 -0.00551168
0.0796578 -0.059106 -0.00551168
0.00165953 -0.000990923 0
0.00119576 -0.000874076 0
0.000866021 -0.000641801 0
0.000645147 -0.000349912 0
0.00052235 -1.7281e-05 0
0.00049972 0.000348016 0
0.000601632 0.000737716 0
0.000861774 0.0011403 0
0.00157235 0.00183217 0
0.00188647 0.00206725 0
0.00222612 0.00230203 0
0.00258713 0.00254351 0
0.00296826 0.00279524 0
0.00337118 0.00305664 0
0.00379785 0.00332658 0
0.00425045 0.00360349 0
0.00473139 0.00388521 0
0.0052432 0.00416895 0
0.0057881 0.00445204 0
0.00636753 0.00473281 0
0.00698281 0.00500961 0
0.00763526 0.00528058 0
0.00832616 0.00554366 0
0.00905691 0.00579603 0
0.00982918 0.00603333 0
0.0106445 0.00625033 0
0.0115038 0.00644128 0
0.0124073 0.00660297 0
0.0133543 0.00673414 0
0.0143444 0.00683382 0
0.0153769 0.00690031 0
0.0164512 0.00693173 0
0.0175666 0.00692547 0
0.0187219 0.00687822 0
0.0199156 0.00678477 0
0.0211454 0.00663864 0
0.0224084 0.00643275 0
0.0237018 0.00616676 0
0.0250249 0.00584739 0
0.026375 0.00547298 0
0.0277479 0.00503752 0
0.0291386 0.00453545 0
0.0305433 0.0039653 0
0.0319572 0.0033256 0
0.0333681 0.00260019 0
0.034775 0.00179799 0
0.0361793 0.000930615 0
0.0375798 3.12222e-06 0
0.0389689 -0.000988429 0
0.0403357 -0.00205109 0
0.041675 -0.00318283 0
0.0429849 -0.00437751 0
0.0442643 -0.00562904 0
0.0455126 -0.00693089 0
0.0467314 -0.00827518 0
0.0479204 -0.00965638 0
0.0490661 -0.0110799 0
0.0501515 -0.0125519 0
0.0511696 -0.0140695 0
0.0521492 -0.0156071 0
0.0531202 -0.0171411 0
0.0540851 -0.0186663 0
0.0550431 -0.0201798 0
0.0559923 -0.0216793 0
0.0569311 -0.0231626 0
0.0578582 -0.0246273 0
0.0587723 -0.0260715 0
0.0596721 -0.027493 0
0.0605563 -0.02889 0
0.0614241 -0.0302609 0
0.0622742 -0.0316042 0
0.063106 -0.0329183 0
0.0639186 -0.034202 0
0.0647113 -0.0354543 0
0.0654835 -0.0366743 0
0.0662345 -0.0378613 0
0.0669642 -0.0390145 0
0.0676726 -0.0401333 0
0.0683597 -0.0412172 0
0.0690246 -0.0422665 0
0.0696662 -0.0432819 0
0.0702841 -0.0442636 0
0.0708793 -0.0452111 0
0.0714538 -0.0461237 0
0.072009 -0.047001 0
0.0725452 -0.0478434 0
0.0730611 -0.0486524 0
0.073556 -0.0494294 0
0.0740291 -0.0501756 0
0.0744812 -0.0508916 0
0.0749138 -0.0515773 0
0.0753285 -0.0522331 0
0.0757266 -0.0528592 0
0.076109 -0.0534564 0
0.0764753 -0.0540264 0
0.0768243 -0.054571 0
0.0771553 -0.0550919 0
0.0774679 -0.0555901 0
0.0777617 -0.0560669 0
0.0780369 -0.056523 0
0.0782958 -0.0569578 0
0.0785421 -0.0573703 0
0.0787786 -0.0577603 0
0.0790073 -0.0581279 0
0.0792295 -0.058474 0
0.0794462 -0.0587995 0
0.0798803 -0.0594162 0
0.0800272 -0.0596588 0
0.0800357 -0.0598891 0
0.0799275 -0.0600784 0
0.0797205 -0.0601773 0
0.0794593 -0.0601051 0
0.0789155 -0.0596491 0
0.0786707 -0.0593963 0
0.0784111 -0.0591319 0
0.0781372 -0.0588542 0
0.0778566 -0.0585548 0
0.0775715 -0.0582308 0
0.0772803 -0.0578828 0
0.0769832 -0.0575099 0
0.0766822 -0.0571097 0
0.0763801 -0.0566796 0
0.0760759 -0.0562196 0
0.0757623 -0.0557337 0
0.0754359 -0.0552232 0
0.0750951 -0.0546879 0
0.0747379 -0.054128 0
0.0743626 -0.0535435 0
0.0739688 -0.0529338 0
0.0735559 -0.0522981 0
0.0731238 -0.0516357 0
0.0726718 -0.050946 0
0.0721991 -0.0502288 0
0.0717046 -0.049484 0
0.0711872 -0.0487117 0
0.0706461 -0.047912 0
0.0700804 -0.0470849 0
0.0694892 -0.0462308 0
0.0688718 -0.0453499 0
0.0682271 -0.0444431 0
0.0675544 -0.043511 0
0.0668527 -0.0425546 0
0.0661215 -0.0415748 0
0.06536 -0.040573 0
0.0645676 -0.0395504 0
0.0637439 -0.0385087 0
0.0628887 -0.0374493 0
0.062002 -0.0363741 0
0.0610838 -0.0352847 0
0.0601345 -0.0341831 0
0.0591547 -0.033071 0
0.0581456 -0.0319502 0
0.0571083 -0.0308224 0
0.0560444 -0.0296893 0
0.0549562 -0.028552 0
0.053845 -0.0274126 0
0.0527113 -0.0262746 0
0.051554 -0.0251427 0
0.0503724 -0.0240222 0
0.0491675 -0.0229164 0
0.047941 -0.0218282 0
0.0466955 -0.0207597 0
0.0454337 -0.0197126 0
0.0441592 -0.0186878 0
0.0428751 -0.0176863 0
0.0415841 -0.0167097 0
0.0402878 -0.0157609 0
0.0389879 -0.0148428 0
0.0376864 -0.0139575 0
0.0363853 -0.013107 0
0.0350871 -0.0122931 0
0.0337942 -0.0115164 0
0.0325095 -0.0107772 0
0.0312357 -0.0100756 0
0.0299758 -0.00941024 0
0.0287337 -0.00877784 0
0.0275126 -0.00817571 0
0.0263139 -0.00760375 0
0.0251376 -0.00706528 0
0.0239829 -0.0065649 0
0.0228537 -0.00609619 0
0.0217522 -0.00565563 0
0.0206795 -0.00524226 0
0.0196364 -0.00485507 0
0.0186233 -0.00449318 0
0.0176408 -0.00415577 0
0.016689 -0.00384204 0
0.0157682 -0.00355115 0
0.0148783 -0.00328218 0
0.0140192 -0.00303468 0
0.0131906 -0.00280795 0
0.0123925 -0.00260016 0
0.0116246 -0.00241012 0
0.0108864 -0.00223769 0
0.0101774 -0.00208212 0
0.00949701 -0.00194206 0
0.00884483 -0.0018163 0
0.0082202 -0.0017039 0
0.00762247 -0.00160391 0
0.00705097 -0.00151528 0
0.006505 -0.00143697 0
0.0059838 -0.00136806 0
0.00548662 -0.00130772 0
0.00501265 -0.00125519 0
0.00456114 -0.00120954 0
0.00413136 -0.00116914 0
0.00372257 -0.00113251 0
0.00333398 -0.00109853 0
0.00296466 -0.00106798 0
0.00261363 -0.0010431 0
-0.052721 -0.0445996 0
-0.0508204 -0.0440823 0
-0.0489199 -0.0435651 0
-0.0470193 -0.0430478 0
-0.0451187 -0.0425306 0
-0.0432181 -0.0420134 0
-0.0413175 -0.0414961 0
-0.039417 -0.0409789 0
-0.0375164 -0.0404616 0
-0.0356158 -0.0399444 0
-0.0337152 -0.0394271 0
-0.0318146 -0.0389099 0
-0.0299141 -0.0383927 0
-0.0280135 -0.0378754 0
-0.0261129 -0.0373582 0
-0.0242123 -0.0368409 0
-0.0223117 -0.0363237 0
-0.0204112 -0.0358065 0
-0.0185106 -0.0352892 0
-0.01661 -0.034772 0
-0.0147094 -0.0342547 0
-0.0128088 -0.0337375 0
-0.0109083 -0.0332202 0
-0.00900769 -0.032703 0
-0.00710711 -0.0321858 0
-0.00520653 -0.0316685 0
-0.00330595 -0.0311513 0
-0.00140537 -0.030634 0
0.00190689 -0.0299614 0
0.00332271 -0.0298498 0
0.00474133 -0.0297825 0
0.00616136 -0.0297597 0
0.0075814 -0.0297814 0
0.00900007 -0.0298477 0
0.010416 -0.0299583 0
0.0118278 -0.0301127 0
0.0132342 -0.0303103 0
0.0146339 -0.0305504 0
0.0160259 -0.0308322 0
0.0174091 -0.0311546 0
0.0187824 -0.0315166 0
0.020145 -0.031917 0
0.0214961 -0.0323546 0
0.0228351 -0.032828 0
0.0241613 -0.0333361 0
0.0254744 -0.0338774 0
0.0267738 -0.0344507 0
0.0280592 -0.0350545 0
0.0293306 -0.0356877 0
0.0305875 -0.0363488 0
0.0318301 -0.0370367 0
0.0330581 -0.0377501 0
0.0342717 -0.0384879 0
0.0354708 -0.0392489 0
0.0366556 -0.0400321 0
0.0378262 -0.0408363 0
0.0389828 -0.0416607 0
0.0401254 -0.0425042 0
0.0412543 -0.0433659 0
0.0423698 -0.0442451 0
0.043472 -0.0451408 0
0.0445612 -0.0460523 0
0.0456375 -0.0469789 0
0.0467013 -0.0479199 0
0.0477529 -0.0488746 0
0.0487923 -0.0498424 0
0.04982 -0.0508227 0
0.0508362 -0.051815 0
0.051841 -0.0528187 0
0.0528348 -0.0538333 0
0.0538178 -0.0548584 0
0.0547903 -0.0558935 0
0.0557524 -0.0569382 0
0.0567045 -0.0579922 0
0.0576467 -0.0590549 0
0.0585792 -0.0601261 0
0.0595024 -0.0612055 0
0.0604163 -0.0622926 0
0.0613212 -0.0633873 0
0.0622174 -0.0644891 0
0.0631049 -0.0655979 0
0.0639841 -0.0667134 0
0.064855 -0.0678353 0
0.0657179 -0.0689633 0
0.0665729 -0.0700974 0
0.0674202 -0.0712372 0
0.06826 -0.0723826 0
0.0690925 -0.0735333 0
0.0699178 -0.0746892 0
0.070736 -0.0758501 0
0.0715473 -0.0770159 0
0.0723518 -0.0781863 0
0.0731498 -0.0793612 0
0.0739412 -0.0805405 0
0.0747264 -0.081724 0
0.0755053 -0.0829116 0
0.0762781 -0.0841033 0
0.0770449 -0.0852987 0
0.0778059 -0.0864979 0
0.0785611 -0.0877007 0
0.0793108 -0.088907 0
0.0814681 -0.0912706 0
0.0828814 -0.0924245 0
0.0842946 -0.0935783 0
0.0857079 -0.0947322 0
0.0871211 -0.095886 0
0.0885344 -0.0970399 0
0.0899476 -0.0981937 0
0.0913609 -0.0993476 0
0.0927741 -0.100501 0
0.0941874 -0.101655 0
0.0956006 -0.102809 0
0.0970139 -0.103963 0
0.0984272 -0.105117 0
0.0998404 -0.106271 0
0.101254 -0.107424 0
0.102667 -0.108578 0
0.10408 -0.109732 0
0.105493 -0.110886 0
0.106907 -0.11204 0
0.10832 -0.113194 0
0.109733 -0.114348 0
0.111146 -0.115501 0
0.11256 -0.116655 0
0.113973 -0.117809 0
0.115386 -0.118963 0
0.116799 -0.120117 0
0.118213 -0.121271 0
0.119626 -0.122424 0
0.121039 -0.123578 0
0.122452 -0.124732 0
0.123866 -0.125886 0
0.125279 -0.12704 0
0.126692 -0.128194 0
0.128105 -0.129348 0
0.129519 -0.130501 0
0.130932 -0.131655 0
0.132345 -0.132809 0
0.133758 -0.133963 0
0.135172 -0.133216 0
0.135172 -0.131316 0
0.135172 -0.129415 0
0.135172 -0.127514 0
0.135172 -0.125614 0
0.135172 -0.123713 0
0.135172 -0.121813 0
0.135172 -0.119912 0
0.135172 -0.118012 0
0.135172 -0.116111 0
0.135172 -0.11421 0
0.135172 -0.11231 0
0.135172 -0.110409 0
0.135172 -0.108509 0
0.135172 -0.106608 0
0.135172 -0.104708 0
0.135172 -0.102807 0
0.135172 -0.100906 0
0.135172 -0.0990058 0
0.135172 -0.0971052 0
0.135172 -0.0952046 0
0.135172 -0.0933041 0
0.135172 -0.0914035 0
0.135172 -0.0895029 0
0.135172 -0.0876023 0
0.135172 -0.0857017 0
0.135172 -0.0838012 0
0.135172 -0.0819006 0
0.133758 -0.0788462 0
0.132345 -0.0776923 0
0.130932 -0.0765385 0
0.129519 -0.0753846 0
0.128105 -0.0742308 0
0.126692 -0.0730769 0
0.125279 -0.0719231 0
0.123866 -0.0707692 0
0.122452 -0.0696154 0
0.121039 -0.0684615 0
0.119626 -0.0673077 0
0.118213 -0.0661538 0
0.116799 -0.065 0
0.115386 -0.0638462 0
0.113973 -0.0626923 0
0.11256 -0.0615385 0
0.111146 -0.0603846 0
0.109733 -0.0592308 0
0.10832 -0.0580769 0
0.106907 -0.0569231 0
0.105493 -0.0557692 0
0.10408 -0.0546154 0
0.102667 -0.0534615 0
0.101254 -0.0523077 0
0.0998404 -0.0511538 0
0.0984272 -0.05 0
0.0970139 -0.0488462 0
0.0956006 -0.0476923 0
[...]
CELL_DATA 13116
SCALARS rho float
LOOKUP_TABLE default
0.5977
0.694543
0.448007
0.688886
0.691821
0.680674
0.368654
0.691705
0.597702
0.692832
0.367503
0.44976
0.691754
0.404546
0.424822
0.680696
0.5977
0.700783
0.680152
0.36784
0.5977
0.459613
0.424563
0.699983
0.5977
0.690047
0.692871
0.452864
0.5977
0.5977
0.703379
0.439678
0.5977
0.58793
0.370528
0.5977
0.682629
0.693039
0.680803
0.690317
0.680847
0.691335
0.597699
0.428169
0.690914
0.681199
0.687498
0.685909
0.449978
0.597688
0.690494
0.597711
0.380796
0.5977
0.597699
0.5977
0.424874
0.6976
0.597706
0.436833
0.406389
0.691071
0.690409
0.680824
0.672918
0.392659
0.687642
0.676263
0.687477
0.667209
0.424568
0.5977
0.463612
0.409297
1.06914
0.401148
0.697224
0.689872
0.367576
0.705955
0.68717
0.689837
0.698021
0.686269
0.690586
0.539485
0.372786
0.596284
0.689878
0.367815
0.443766
0.695
0.697148
0.691008
0.597007
0.5977
0.5977
0.849255
0.937548
0.5977
0.597709
0.68085
0.680783
0.580758
0.68495
0.44083
0.512938
0.5977
0.439489
0.5977
0.5977
0.686857
0.5977
0.690748
0.706217
0.688679
0.383753
0.530626
0.688721
0.689461
0.672477
0.47443
0.687725
0.44382
0.691121
0.563694
0.375563
0.591407
0.432749
0.597551
0.688807
0.687136
0.572075
0.453661
0.562581
0.5977
1.12681
0.688546
0.597707
0.689523
0.696707
0.687757
0.59295
0.697694
0.692085
0.4156
0.369804
0.689449
0.692628
0.691048
0.594548
0.686136
0.685465
0.376098
0.692808
0.690766
0.430976
0.59509
0.864747
0.597656
0.699405
0.3675
0.696158
0.43105
0.479624
0.691262
0.690637
0.703113
0.369711
0.551603
0.536496
1.1268
0.42178
0.590628
0.688393
0.424669
0.437035
0.462578
0.686463
0.680729
0.367587
0.550939
0.5977
0.678709
0.680726
0.597706
0.375792
0.68514
0.685382
0.578367
0.648917
0.689099
0.674391
0.441007
0.687105
0.68097
0.694734
0.68644
0.689715
0.578282
0.585483
0.5977
0.589582
0.411865
0.690958
0.68791
0.59771
0.5977
0.427965
0.367786
0.398814
0.682412
0.435044
0.36794
0.368123
0.37895
0.524121
0.680624
0.691008
0.534615
0.4208
0.687612
0.597699
0.367695
0.593652
0.692545
0.691666
0.453732
0.688128
0.522892
0.691437
0.44008
0.67531
0.597702
1.00736
0.690596
0.67965
0.455397
0.562179
0.597705
1.10967
0.680865
1.12679
0.680495
0.691693
0.441028
0.689127
0.69287
0.908016
0.367721
0.453209
0.681019
0.688435
0.664092
0.687002
0.5977
0.700352
0.36757
0.467843
0.548951
0.425996
0.684387
0.694962
0.699642
0.368409
0.691585
0.383775
0.536434
0.685487
0.367911
0.690056
0.69073
1.12121
0.697657
0.453396
1.12376
0.692557
0.881869
0.68829
0.367789
0.370331
0.43985
0.5977
0.471111
0.466243
0.50389
0.491918
0.692318
0.386418
0.690217
0.691553
0.370807
0.367862
0.380514
0.560152
0.461785
0.595521
0.685357
0.68713
0.367815
0.680475
0.597704
0.470563
0.436215
0.68083
0.688238
0.682925
0.378597
0.680956
0.577558
0.686865
0.690927
0.690769
0.690982
0.441461
0.687743
0.407407
0.680404
0.692877
0.5977
0.367599
0.502219
0.69304
0.380357
0.689141
0.691131
0.53344
0.722058
0.698249
0.374417
0.691743
0.696918
0.40434
0.688747
0.537799
0.597628
0.693188
0.540113
0.586543
0.368431
0.700389
0.506385
0.680567
0.680698
0.695111
0.451064
0.514903
0.690748
0.374309
0.689831
0.686439
0.548024
1.12664
0.37437
0.447854
0.688054
0.595601
0.680297
0.372348
0.431947
0.689275
0.691691
0.368474
0.690541
0.392194
0.445149
0.689242
0.692857
0.5977
0.367776
0.688264
0.681786
0.680723
0.691518
0.693682
0.595692
0.511279
0.419446
0.367554
0.680759
0.367543
0.5977
0.532705
0.442089
0.51164
0.5977
0.386154
0.37202
0.691162
0.445057
0.696073
0.5977
0.680793
0.597704
0.689792
0.450934
0.369793
0.582147
0.516679
0.688862
0.5977
0.680808
0.5977
0.693104
0.5977
0.689695
0.591045
0.5977
0.692604
0.706642
0.680645
0.552588
0.597687
0.5977
0.452453
0.682925
0.5977
0.379488
0.688389
1.12431
0.44228
0.36777
0.367902
0.371695
0.5977
0.395097
0.44055
0.687753
0.393541
0.597701
0.367709
0.680742
0.686157
0.467439
0.453858
0.688039
0.557394
0.367929
0.371335
0.367985
0.439829
0.370008
0.367767
0.472226
0.538868
0.368003
0.680822
0.496236
0.690455
0.553913
0.446081
0.56567
0.419073
0.36783
0.420398
0.690403
0.544723
0.5977
0.5977
0.389978
0.5977
0.689994
0.537941
0.718596
0.5977
0.5977
0.369508
0.98448
0.531277
0.695007
0.775729
0.441258
0.385421
0.684628
0.521628
0.539261
0.680721
0.512195
0.596877
0.691688
0.367778
0.433356
0.411824
0.589686
0.432964
0.394963
0.421689
0.405273
0.689951
0.690306
0.563163
0.5977
0.565164
0.686459
0.51594
0.390871
0.597701
0.44191
0.68628
0.486579
0.520428
0.569798
0.692128
0.690548
0.597224
0.533918
0.3822
0.596568
0.691442
0.678312
0.595763
0.686289
0.684453
0.36796
0.685695
0.597703
0.597702
0.500096
0.463955
0.688627
0.695487
0.597701
0.692834
0.689218
0.690408
0.699426
0.597699
0.680821
0.367814
0.692384
0.509563
0.433823
0.367616
0.689661
0.685366
0.49733
0.69063
0.5977
0.367631
0.681024
0.687918
0.693262
0.451909
0.387437
0.689918
0.367958
0.367846
0.428135
0.367961
0.684719
0.40009
0.688747
0.493312
0.69491
0.690475
0.687012
0.692007
0.367928
0.367736
0.684193
0.69104
0.680452
0.690191
0.692678
0.559068
0.37234
0.443762
0.680945
0.597705
0.367838
0.556509
0.442129
0.692147
0.689784
0.49883
0.46381
0.690765
0.542559
0.691623
0.5977
0.430047
0.522138
0.679221
1.10792
0.43243
0.690366
0.690605
0.683469
0.391642
1.12673
0.417989
1.03983
0.597701
0.367786
0.522211
0.467554
0.983018
0.440639
0.367848
0.533327
0.681034
0.690059
0.367642
0.464534
0.367798
0.680855
0.467556
0.680753
0.41349
0.5977
0.692709
0.557768
0.429247
0.426107
0.560146
0.444575
0.690327
0.38482
0.400911
0.680555
0.39787
0.681186
0.688732
0.925234
0.367991
0.686456
0.695665
0.694931
0.680916
0.692804
0.689142
0.428669
0.671871
0.536242
0.693043
0.367868
0.691408
0.597708
0.372358
0.671968
0.692887
0.377449
0.596363
0.44319
0.421536
0.686969
0.690367
0.442508
0.420389
0.367577
0.42982
0.692406
0.700441
0.388409
0.367771
0.689849
0.689006
0.5977
0.695763
0.688343
0.367577
0.694978
0.539744
0.690289
0.537314
0.5977
0.557445
0.687975
0.679701
0.597703
0.512225
0.448317
0.690219
0.5977
0.5977
0.695888
0.420581
0.689948
0.693223
0.525673
0.597702
0.695587
0.52782
0.658362
0.597705
0.500726
0.689609
0.597628
0.456003
0.689608
0.439321
0.689692
0.418107
0.68066
0.690078
0.448422
0.680767
0.696071
0.690409
0.5977
0.686166
0.597703
0.489225
0.573042
0.422693
0.407403
1.12677
0.594793
0.688042
0.692191
0.367747
0.491333
0.687719
0.692457
0.688253
0.690887
0.367598
0.707985
0.693094
0.367876
0.431984
0.688895
0.680863
0.690706
0.435565
0.597701
0.468594
0.689926
0.688421
0.676467
0.694901
0.367929
0.686985
0.690191
0.696628
0.690428
0.680955
0.535661
0.693442
0.367887
0.687173
0.692813
0.551762
0.692874
0.680324
0.690517
0.592605
0.552841
0.597702
0.5977
0.367969
0.367838
0.368293
0.367987
0.696811
0.688938
0.68022
0.494671
0.36793
0.687093
0.589455
0.401733
0.493312
0.556373
0.680021
0.68843
0.691457
0.699224
0.36774
0.367938
1.12683
0.444348
0.367958
0.388261
0.680976
0.466505
0.367692
0.5977
0.686606
0.686308
0.680703
0.680648
0.385062
0.408551
0.367954
0.5977
0.544902
0.441366
0.678557
0.700842
0.690025
0.680603
0.438207
0.367985
0.692929
0.367762
0.680857
0.689653
0.757745
0.442269
0.367905
0.689146
0.683807
0.5977
0.401815
0.691129
0.680729
0.5977
0.690979
0.691034
1.12667
0.686243
0.367598
0.680208
0.663711
0.694988
0.690609
1.12666
0.686865
1.12661
0.688024
0.39909
0.418889
0.367975
0.67238
0.597707
0.367878
0.687323
0.690312
0.449547
0.594743
0.471964
0.635015
0.5977
0.453992
0.691464
0.700071
0.367847
0.591217
0.675085
0.421804
0.691246
0.397539
0.438664
0.5977
0.5977
0.565619
0.68061
0.369217
0.695863
0.43031
0.442404
0.680461
0.367869
0.5977
0.441752
0.590599
0.5977
1.1262
0.69046
0.419307
0.404457
0.685207
0.597698
0.688349
0.591397
0.5977
0.680731
0.697199
0.597698
0.5977
0.68656
0.694538
0.687946
0.508846
0.367808
0.589696
0.686899
0.694946
0.531516
0.680665
0.5977
0.578533
0.442363
0.5977
0.679993
1.1268
1.02313
0.6817
0.691337
0.68091
0.681108
0.439332
0.5977
0.555499
0.690157
0.683254
0.491691
0.69384
0.691519
0.425934
0.447221
0.379086
1.1267
0.367521
0.5977
0.693097
0.5977
0.480081
0.692408
0.411182
0.597701
0.680806
0.676138
0.674341
0.680992
0.5977
0.685524
0.597701
0.69553
0.4206
0.680582
0.687211
0.597699
1.12281
0.690345
0.440779
0.421318
0.42427
0.690809
0.367728
1.12484
0.367999
0.6917
0.387535
0.557586
0.427053
0.695114
0.690614
0.5977
0.480161
0.5977
0.680615
0.36803
0.5977
0.690533
0.441536
0.5977
0.788064
0.692727
0.680956
0.44201
0.597699
0.689285
0.680375
0.687581
0.367889
0.548852
0.692047
1.12659
1.10925
1.12683
0.5977
0.687477
0.5977
0.689871
0.367863
0.412929
1.1269
0.691572
0.68101
0.396483
0.680638
0.5977
0.5977
0.417416
0.530971
0.69088
0.687999
0.597705
0.519941
0.680837
1.11315
0.368293
0.5977
0.698826
0.36843
0.444334
0.4095
0.686348
0.470046
0.367771
0.691692
0.593152
0.694685
0.590404
0.370369
0.371063
0.690024
0.420696
0.395656
0.687776
0.453395
0.519079
0.5977
0.692938
0.686711
0.367921
0.483303
0.367473
0.689084
0.443109
0.686801
0.3967
0.687345
0.69153
0.692197
0.686395
0.68734
0.688132
0.688109
0.691943
0.687529
0.397053
0.367888
0.698133
0.680799
0.566696
0.686899
0.597701
0.680848
0.694871
0.464875
0.688886
0.690721
0.694915
0.368199
0.684211
0.473469
0.68607
0.559936
0.704345
0.680769
0.455394
0.689058
0.36792
0.586263
0.69081
0.391936
0.590808
1.12684
0.692291
0.373489
0.687696
0.367905
0.442326
0.442126
0.368103
0.685771
0.424789
0.690617
0.680425
0.522338
0.441395
0.557612
0.597702
0.5977
0.68752
0.367923
0.383666
0.367892
0.425389
0.477803
0.5977
0.688738
0.455314
0.680896
0.692339
0.406961
0.690872
0.592142
0.680852
0.367746
1.07954
0.685872
0.692409
0.690245
0.432754
0.687249
0.692229
0.684129
0.5977
0.681065
0.468492
0.442059
0.686147
0.587019
0.367864
0.680384
0.433118
0.597685
0.597703
0.689576
0.69011
0.443014
0.68672
0.548771
0.368203
0.714926
0.690319
0.693539
0.688984
0.677406
0.442362
0.691776
0.43452
0.565589
0.691261
0.954228
0.688835
0.367717
0.467013
0.692951
0.47638
0.68978
0.5977
0.545785
0.48644
0.689568
0.441088
0.680705
0.689662
0.679698
0.441266
0.422203
0.587079
0.597701
0.5977
0.579967
0.680544
0.687321
0.690267
1.12681
0.688201
0.373513
0.48339
0.689891
0.680967
0.687333
0.549527
0.408539
0.684075
0.418224
0.689434
0.5977
0.505541
0.688645
0.367827
0.691765
0.451807
0.693498
0.449954
0.685654
0.680681
0.448393
0.691221
0.5977
0.445755
0.679777
0.681876
0.5977
0.416389
0.527333
0.581391
0.69559
0.683853
0.498088
0.597703
0.689696
0.680636
0.481341
0.5977
0.692619
0.541411
0.680578
0.680346
0.490211
0.687178
0.823252
0.444276
0.5977
0.368962
0.669091
0.370934
0.440012
0.69598
0.36768
0.367775
0.415751
0.687823
0.690178
0.559416
0.680814
0.523365
0.684422
0.367939
0.691662
0.533378
0.680796
0.686263
0.680146
0.679829
0.592344
0.680621
0.680785
0.451422
0.5977
0.678196
0.5977
0.687586
0.560566
0.569316
0.691751
0.367894
0.597701
0.47495
0.680786
0.395564
0.440401
0.700279
0.68468
0.367779
0.689869
0.701656
1.12666
0.690808
1.0375
0.367567
0.691094
0.367954
0.433578
0.690478
0.69813
0.691448
0.690492
0.436682
0.373111
0.367422
0.693743
0.680166
0.52446
0.693035
0.391503
0.373237
0.405601
0.690018
0.535531
0.691876
0.687753
0.5977
0.690443
0.687185
0.5977
0.699859
0.537232
0.438676
0.367777
1.04251
1.10425
0.399185
0.5977
0.685206
0.693516
0.441038
0.595132
0.68775
0.471354
0.687299
0.687533
0.367951
0.680868
0.698095
0.367626
0.686401
0.392162
0.688017
0.695914
0.687462
0.421053
0.548512
0.607422
0.494442
0.539928
0.690721
0.498884
0.680895
0.687797
0.689804
0.702163
0.516865
0.688463
0.715042
0.680278
0.515134
0.689853
0.440839
0.411447
0.691472
0.68938
0.680426
0.441867
0.68053
0.5977
1.06554
0.386451
0.391117
0.367943
0.689884
0.367754
0.397794
0.451275
0.68447
0.395739
0.490605
0.539379
0.686636
0.367545
0.677324
0.680661
0.69024
0.376117
0.686502
0.597702
0.680819
0.532528
0.5977
0.37109
0.367933
0.686895
0.36782
0.597703
0.689139
1.12667
0.367821
0.502906
0.375018
0.596149
1.12697
0.442918
0.693616
0.688012
0.701185
0.367717
0.431705
0.507802
0.683779
0.367861
1.12683
0.5977
0.68071
0.692279
0.36777
0.597316
0.430015
0.681133
0.5977
0.692794
0.638112
0.5977
0.5977
0.687766
0.690106
0.367883
0.550104
0.399281
0.70454
0.597705
0.967349
0.367781
0.535403
0.693995
0.686427
0.669061
0.367834
0.690107
0.59564
0.597061
0.684234
0.442087
0.367883
0.491405
0.689994
0.680452
0.5977
0.686513
0.506652
0.692397
0.5977
0.680641
0.680695
0.691943
0.69074
0.680792
0.696044
0.693651
0.442623
0.687392
0.689378
0.680995
0.687729
0.689822
0.5977
0.367674
0.44815
0.692449
0.367859
0.519082
0.690561
0.412916
0.5977
0.686956
0.692349
0.694067
0.442412
0.690768
0.442947
0.405639
0.680748
0.686928
0.680377
0.381376
0.690017
0.680719
0.687417
0.681372
0.451156
0.681146
0.692957
0.697831
0.56796
0.698888
0.367656
0.687141
0.398056
0.367694
0.5977
0.553193
0.691618
0.696535
0.680861
0.445374
0.681148
0.563356
0.416993
0.689259
0.557014
0.367876
0.680817
0.457556
0.57063
0.61446
0.688072
0.689949
0.558933
0.5977
0.597648
0.680638
0.597703
0.693623
0.587967
0.689185
0.686662
0.597702
0.434905
0.367561
0.550801
0.68895
0.440443
0.597707
0.690083
0.5977
0.680618
0.5977
0.672692
0.681944
0.367728
0.689677
0.685815
0.5977
0.685894
0.692568
0.690345
0.680674
0.367636
0.407048
0.68794
0.597703
0.5977
0.688661
0.685973
0.680419
0.695444
0.69549
0.5977
0.68675
0.693096
0.407878
0.454318
0.398649
0.493597
1.12342
0.56805
0.5977
0.688311
0.687128
0.436709
0.692853
0.687879
0.385242
0.523149
1.11585
0.688256
0.445075
0.438077
0.428715
1.12683
0.690458
0.582632
0.373202
0.367996
0.44996
0.518489
0.367785
0.692194
0.686087
0.686707
0.368027
0.692321
0.5977
0.5977
0.495109
0.367843
0.689442
1.12702
0.367675
0.680752
0.367602
0.699997
0.442032
0.690343
0.368028
0.690297
0.691293
0.373082
0.597368
0.478929
0.690815
0.453581
0.5977
0.430345
0.596748
0.370454
0.5977
0.368064
0.676439
0.676447
0.5977
0.691677
0.498971
0.691564
0.680651
0.690458
0.5977
0.680058
0.367843
0.597631
0.398141
0.696488
0.486895
0.691528
0.5962
0.698644
0.692537
0.597699
0.692818
0.418401
0.40255
0.407104
0.594389
0.5977
0.685559
0.367836
0.461632
0.680269
0.52601
0.440456
0.597702
0.523172
0.367721
0.446581
0.69114
0.5977
0.5977
0.419656
0.690762
0.690064
0.443791
0.505829
0.690274
0.680235
0.679091
0.573988
0.533396
0.515387
0.37359
0.692391
0.687913
0.597704
0.710044
0.432361
0.5977
0.367772
0.661208
0.690496
0.367825
0.473657
0.690003
0.597701
0.691497
0.693571
0.695496
0.690313
0.691803
0.383388
0.456733
0.402811
0.367836
0.5977
0.750648
0.5977
0.367682
0.367998
0.59211
0.444809
0.680433
0.688214
0.367976
0.497746
0.686998
0.432432
0.597204
0.694833
0.689217
0.68083
0.5977
0.367823
0.36934
0.685845
0.36782
0.578855
0.556945
0.680827
0.690413
0.484223
0.367871
1.12679
0.368031
0.688725
0.696758
0.367842
0.428081
0.384853
0.68665
0.385752
1.12683
0.691802
0.5977
0.442455
0.585415
0.690062
0.692256
0.367656
0.692398
0.695765
0.439423
0.68866
0.688153
0.367605
0.367761
0.688813
0.36794
0.367834
0.692533
0.512363
0.683378
0.644074
0.697983
0.693668
0.691546
0.687465
0.680822
0.367437
0.530441
0.691205
0.684909
0.547389
0.691193
0.506385
0.687885
0.690232
0.5977
0.597703
0.597109
0.557818
0.691041
0.691113
0.68674
0.691233
0.685695
1.1266
0.690913
1.12678
0.692544
0.689613
0.691817
1.12719
0.680711
0.422697
0.689798
0.448692
0.689685
0.687619
0.696033
0.687991
0.70408
0.422
0.374709
0.497429
0.36744
0.688956
0.367787
0.367778
0.689131
0.437616
0.696132
0.371897
0.691799
0.687266
0.367605
0.525033
0.509448
0.689217
0.418966
0.684972
0.689068
0.378907
0.68931
0.597674
0.528273
0.449607
0.444391
0.724629
0.367759
0.689805
0.5977
0.484777
0.688687
0.680863
0.69549
0.367655
0.5977
0.432396
0.692753
0.680756
0.688719
0.367702
0.684436
0.688417
0.686818
0.542917
0.688916
0.367705
0.368005
0.690681
0.565249
0.692653
0.597351
0.36773
0.541854
0.687754
0.442565
0.420758
0.420604
0.597699
0.992095
0.688108
0.404382
0.5977
0.686416
0.595505
0.597708
0.499468
0.597696
0.367838
0.367805
0.690205
0.367984
0.368061
0.690859
0.689806
0.388173
0.70459
0.385485
1.123
0.45574
0.689896
0.669064
0.704168
0.680828
0.437516
0.367881
0.440417
0.680634
0.688834
0.5977
0.597705
0.520689
0.494417
0.680624
0.367418
0.685051
0.520465
0.670046
0.678473
0.372005
0.432432
0.367959
0.367814
0.438975
0.688603
0.689216
0.367896
0.686996
0.5977
0.490198
0.418926
0.690496
0.367867
0.686768
0.535593
0.7024
0.597702
0.686362
0.916195
0.411519
0.695524
0.69037
0.690543
0.367933
0.684984
0.5977
0.515903
0.688921
0.689222
0.691081
0.690454
0.691869
0.69073
0.690742
0.680899
0.680257
0.367762
0.695863
0.367936
0.595338
0.690925
0.439071
0.690871
0.685038
0.457099
0.687504
0.367837
0.443198
0.69116
0.682967
0.689786
0.367677
0.690137
0.5977
0.45611
0.368038
0.69077
0.690026
0.522932
0.429892
0.694136
0.690185
0.367729
0.597702
0.691402
0.5977
0.381856
0.367668
0.439241
0.597705
0.451567
0.692876
0.705384
0.680709
0.5977
0.687038
0.367666
0.690292
0.5977
0.691191
0.653064
0.442574
0.367523
0.435944
0.699196
0.689255
0.534055
0.597703
0.486374
0.682379
0.68918
0.4235
0.695841
0.693492
0.5977
0.368603
0.369718
0.496047
0.689237
0.69246
0.5977
0.57419
0.686586
0.36772
0.5977
1.10824
0.68454
0.369305
0.5977
0.461192
0.684801
0.44293
0.685451
0.691218
0.417145
0.688884
0.597704
1.12693
0.594095
1.12682
0.690427
0.565846
0.680668
0.680937
0.690095
0.684744
0.553094
1.11774
0.392997
0.680912
0.432709
0.367531
0.444541
0.436155
0.367896
0.368323
0.690716
0.517592
0.401627
0.658955
0.689293
0.68951
0.575917
0.70042
0.704146
0.680738
0.449445
0.591801
0.687906
0.484707
0.438645
0.367914
0.5977
0.568674
0.367895
0.597703
0.439495
0.954143
0.565695
0.378357
0.555533
0.597702
0.502591
0.689579
0.425958
0.5977
0.520943
0.692147
0.528304
0.676049
1.12238
0.683791
0.597711
0.367686
0.692476
0.690607
0.441727
0.442256
0.680724
0.367955
0.699393
0.368002
0.597584
0.43406
0.687552
0.458033
0.69048
0.367544
0.689382
0.687115
0.691325
1.12312
0.391923
0.431649
0.576047
0.690854
0.688047
0.687822
0.5977
0.457941
0.693002
0.501839
0.688687
0.68119
0.57449
0.485316
0.695555
0.684973
0.429295
0.660802
0.692588
0.693971
0.697507
0.428937
0.5977
0.367867
0.693649
0.453804
0.680817
0.688925
0.692969
0.690014
0.488417
0.688942
0.367721
0.367879
0.689063
1.11779
0.597701
0.686774
1.12479
0.367836
0.700312
0.691744
0.691201
0.442397
0.549237
0.693936
0.367876
0.688189
0.690385
0.691416
0.691578
0.482518
0.583999
0.5977
0.420486
0.690338
0.690358
0.590603
0.690726
0.482461
0.68643
0.699903
0.591489
0.69099
0.369663
0.441639
0.685533
0.691777
0.449885
0.506093
0.449505
0.427823
0.400639
0.444508
0.460877
0.367899
0.685456
0.43134
0.382228
0.693138
0.5977
1.12675
0.532582
0.367844
0.68692
0.58221
0.5977
0.692938
0.524839
0.5977
0.678299
0.5977
0.692558
0.418073
0.688126
0.680882
0.387527
0.368
0.573402
0.684671
0.5977
0.691851
0.680724
0.685423
0.694254
0.551813
0.688121
0.680886
0.691752
0.367722
0.687513
0.679726
0.5451
0.546637
0.383692
0.428392
0.401618
0.5977
0.634442
0.697334
0.367865
0.528938
0.691459
0.447293
0.689781
0.680926
0.691459
0.593592
0.686194
0.48062
0.430018
0.430842
0.5977
0.450333
0.685744
0.432139
0.687776
0.680597
0.686943
0.487271
0.577778
0.559452
0.686977
0.418763
0.367845
0.690803
0.692234
0.590252
0.680693
0.690988
0.699183
0.367799
0.5977
0.693271
0.583285
0.686634
0.691698
0.697156
0.54291
0.533341
0.691199
0.564379
0.5977
0.367828
0.689421
0.69099
0.572318
0.452171
0.692981
0.589335
0.691073
0.690302
0.367845
0.367921
0.799307
0.597709
0.580521
0.691146
0.690748
0.464249
0.692296
0.789895
0.688147
0.367866
0.5977
0.367788
0.690846
0.690255
0.698289
0.697877
0.721536
0.492877
0.521394
0.68561
0.36789
0.5977
0.47855
0.686781
0.412406
0.596812
0.693461
0.829738
0.367686
1.1268
1.07883
0.367752
0.689765
0.444306
0.690839
0.367676
0.369408
0.421392
0.685585
0.691932
0.503848
0.495745
0.689573
0.691857
0.560653
0.709587
0.367932
0.597699
0.367944
0.685714
0.367805
0.674615
0.691019
0.450528
0.597712
0.368508
0.680447
0.395422
0.367704
0.693114
0.441386
0.699343
0.580847
0.419156
0.69285
0.718911
0.69104
0.672886
0.475612
0.5977
0.432809
0.367799
0.689994
0.670715
0.689418
0.367911
0.521467
0.5977
0.692553
0.593176
0.694992