# vtk DataFile Version 1.0
unstructured grid
ascii
DATASET UNSTRUCTURED_GRID
points 13672 float
0.0796578 -0.059106 0
0.00128732 0.00159165 0
0.00227961 -0.00102548 0
0.0791586 -0.0598787 0
-0.0546216 0.01 0
0.000495206 0.025 0
0.0800549 -0.035 0
0.135172 -0.08 0
-0.0546216 -0.0451168 0
0.000495206 -0.0301168 0
0.0800549 -0.0901168 0
0.135172 -0.135117 0
-0.0546216 -0.0451168 -0.00551168
0.000495206 -0.0301168 -0.00551168
0.0800549 -0.0901168 -0.00551168
0.135172 -0.135117 -0.00551168
0.135172 -0.08 -0.00551168
0.0800549 -0.035 -0.00551168
0.000495206 0.025 -0.00551168
-0.0546216 0.01 -0.00551168
0.00128732 0.00159165 -0.00551168
0.00227961 -0.00102548 -0.00551168
0.0791586 -0.0598787 -0.00551168
0.0796578 -0.059106 -0.00551168
0.00165953 -0.000990923 0
0.00119576 -0.000874076 0
0.000866021 -0.000641801 0
0.000645147 -0.000349912 0
0.00052235 -1.7281e-05 0
0.00049972 0.000348016 0
0.000601632 0.000737716 0
0.000861774 0.0011403 0
0.00157235 0.00183217 0
0.00188647 0.00206725 0
0.00222612 0.00230203 0
0.00258713 0.00254351 0
0.00296826 0.00279524 0
0.00337118 0.00305664 0
0.00379785 0.00332658 0
0.00425045 0.00360349 0
0.00473139 0.00388521 0
0.0052432 0.00416895 0
0.0057881 0.00445204 0
0.00636753 0.00473281 0
0.00698281 0.00500961 0
0.00763526 0.00528058 0
0.00832616 0.00554366 0
0.00905691 0.00579603 0
0.00982918 0.00603333 0
0.0106445 0.00625033 0
0.0115038 0.00644128 0
0.0124073 0.00660297 0
0.0133543 0.00673414 0
0.0143444 0.00683382 0
0.0153769 0.00690031 0
0.0164512 0.00693173 0
0.0175666 0.00692547 0
0.0187219 0.00687822 0
0.0199156 0.00678477 0
0.0211454 0.00663864 0
0.0224084 0.00643275 0
0.0237018 0.00616676 0
0.0250249 0.00584739 0
0.026375 0.00547298 0
0.0277479 0.00503752 0
0.0291386 0.00453545 0
0.0305433 0.0039653 0
0.0319572 0.0033256 0
0.0333681 0.00260019 0
0.034775 0.00179799 0
0.0361793 0.000930615 0
0.0375798 3.12222e-06 0
0.0389689 -0.000988429 0
0.0403357 -0.00205109 0
0.041675 -0.00318283 0
0.0429849 -0.00437751 0
0.0442643 -0.00562904 0
0.0455126 -0.00693089 0
0.0467314 -0.00827518 0
0.0479204 -0.00965638 0
0.0490661 -0.0110799 0
0.0501515 -0.0125519 0
0.0511696 -0.0140695 0
0.0521492 -0.0156071 0
0.0531202 -0.0171411 0
0.0540851 -0.0186663 0
0.0550431 -0.0201798 0
0.0559923 -0.0216793 0
0.0569311 -0.0231626 0
0.0578582 -0.0246273 0
0.0587723 -0.0260715 0
0.0596721 -0.027493 0
0.0605563 -0.02889 0
0.0614241 -0.0302609 0
0.0622742 -0.0316042 0
0.063106 -0.0329183 0
0.0639186 -0.034202 0
0.0647113 -0.0354543 0
0.0654835 -0.0366743 0
0.0662345 -0.0378613 0
0.0669642 -0.0390145 0
0.0676726 -0.0401333 0
0.0683597 -0.0412172 0
0.0690246 -0.0422665 0
0.0696662 -0.0432819 0
0.0702841 -0.0442636 0
0.0708793 -0.0452111 0
0.0714538 -0.0461237 0
0.072009 -0.047001 0
0.0725452 -0.0478434 0
0.0730611 -0.0486524 0
0.073556 -0.0494294 0
0.0740291 -0.0501756 0
0.0744812 -0.0508916 0
0.0749138 -0.0515773 0
0.0753285 -0.0522331 0
0.0757266 -0.0528592 0
0.076109 -0.0534564 0
0.0764753 -0.0540264 0
0.0768243 -0.054571 0
0.0771553 -0.0550919 0
0.0774679 -0.0555901 0
0.0777617 -0.0560669 0
0.0780369 -0.056523 0
0.0782958 -0.0569578 0
0.0785421 -0.0573703 0
0.0787786 -0.0577603 0
0.0790073 -0.0581279 0
0.0792295 -0.058474 0
0.0794462 -0.0587995 0
0.0798803 -0.0594162 0
0.0800272 -0.0596588 0
0.0800357 -0.0598891 0
0.0799275 -0.0600784 0
0.0797205 -0.0601773 0
0.0794593 -0.0601051 0
0.0789155 -0.0596491 0
0.0786707 -0.0593963 0
0.0784111 -0.0591319 0
0.0781372 -0.0588542 0
0.0778566 -0.0585548 0
0.0775715 -0.0582308 0
0.0772803 -0.0578828 0
0.0769832 -0.0575099 0
0.0766822 -0.0571097 0
0.0763801 -0.0566796 0
0.0760759 -0.0562196 0
0.0757623 -0.0557337 0
0.0754359 -0.0552232 0
0.0750951 -0.0546879 0
0.0747379 -0.054128 0
0.0743626 -0.0535435 0
0.0739688 -0.0529338 0
0.0735559 -0.0522981 0
0.0731238 -0.0516357 0
0.0726718 -0.050946 0
0.0721991 -0.0502288 0
0.0717046 -0.049484 0
0.0711872 -0.0487117 0
0.0706461 -0.047912 0
0.0700804 -0.0470849 0
0.0694892 -0.0462308 0
0.0688718 -0.0453499 0
0.0682271 -0.0444431 0
0.0675544 -0.043511 0
0.0668527 -0.0425546 0
0.0661215 -0.0415748 0
0.06536 -0.040573 0
0.0645676 -0.0395504 0
0.0637439 -0.0385087 0
0.0628887 -0.0374493 0
0.062002 -0.0363741 0
0.0610838 -0.0352847 0
0.0601345 -0.0341831 0
0.0591547 -0.033071 0
0.0581456 -0.0319502 0
0.0571083 -0.0308224 0
0.0560444 -0.0296893 0
0.0549562 -0.028552 0
0.053845 -0.0274126 0
0.0527113 -0.0262746 0
0.051554 -0.0251427 0
0.0503724 -0.0240222 0
0.0491675 -0.0229164 0
0.047941 -0.0218282 0
0.0466955 -0.0207597 0
0.0454337 -0.0197126 0
0.0441592 -0.0186878 0
0.0428751 -0.0176863 0
0.0415841 -0.0167097 0
0.0402878 -0.0157609 0
0.0389879 -0.0148428 0
0.0376864 -0.0139575 0
0.0363853 -0.013107 0
0.0350871 -0.0122931 0
0.0337942 -0.0115164 0
0.0325095 -0.0107772 0
0.0312357 -0.0100756 0
0.0299758 -0.00941024 0
0.0287337 -0.00877784 0
0.0275126 -0.00817571 0
0.0263139 -0.00760375 0
0.0251376 -0.00706528 0
0.0239829 -0.0065649 0
0.0228537 -0.00609619 0
0.0217522 -0.00565563 0
0.0206795 -0.00524226 0
0.0196364 -0.00485507 0
0.0186233 -0.00449318 0
0.0176408 -0.00415577 0
0.016689 -0.00384204 0
0.0157682 -0.00355115 0
0.0148783 -0.00328218 0
0.0140192 -0.00303468 0
0.0131906 -0.00280795 0
0.0123925 -0.00260016 0
0.0116246 -0.00241012 0
0.0108864 -0.00223769 0
0.0101774 -0.00208212 0
0.00949701 -0.00194206 0
0.00884483 -0.0018163 0
0.0082202 -0.0017039 0
0.00762247 -0.00160391 0
0.00705097 -0.00151528 0
0.006505 -0.00143697 0
0.0059838 -0.00136806 0
0.00548662 -0.00130772 0
0.00501265 -0.00125519 0
0.00456114 -0.00120954 0
0.00413136 -0.00116914 0
0.00372257 -0.00113251 0
0.00333398 -0.00109853 0
0.00296466 -0.00106798 0
0.00261363 -0.0010431 0
-0.052721 -0.0445996 0
-0.0508204 -0.0440823 0
-0.0489199 -0.0435651 0
-0.0470193 -0.0430478 0
-0.0451187 -0.0425306 0
-0.0432181 -0.0420134 0
-0.0413175 -0.0414961 0
-0.039417 -0.0409789 0
-0.0375164 -0.0404616 0
-0.0356158 -0.0399444 0
-0.0337152 -0.0394271 0
-0.0318146 -0.0389099 0
-0.0299141 -0.0383927 0
-0.0280135 -0.0378754 0
-0.0261129 -0.0373582 0
-0.0242123 -0.0368409 0
-0.0223117 -0.0363237 0
-0.0204112 -0.0358065 0
-0.0185106 -0.0352892 0
-0.01661 -0.034772 0
-0.0147094 -0.0342547 0
-0.0128088 -0.0337375 0
-0.0109083 -0.0332202 0
-0.00900769 -0.032703 0
-0.00710711 -0.0321858 0
-0.00520653 -0.0316685 0
-0.00330595 -0.0311513 0
-0.00140537 -0.030634 0
0.00190689 -0.0299614 0
0.00332271 -0.0298498 0
0.00474133 -0.0297825 0
0.00616136 -0.0297597 0
0.0075814 -0.0297814 0
0.00900007 -0.0298477 0
0.010416 -0.0299583 0
0.0118278 -0.0301127 0
0.0132342 -0.0303103 0
0.0146339 -0.0305504 0
0.0160259 -0.0308322 0
0.0174091 -0.0311546 0
0.0187824 -0.0315166 0
0.020145 -0.031917 0
0.0214961 -0.0323546 0
0.0228351 -0.032828 0
0.0241613 -0.0333361 0
0.0254744 -0.0338774 0
0.0267738 -0.0344507 0
0.0280592 -0.0350545 0
0.0293306 -0.0356877 0
0.0305875 -0.0363488 0
0.0318301 -0.0370367 0
0.0330581 -0.0377501 0
0.0342717 -0.0384879 0
0.0354708 -0.0392489 0
0.0366556 -0.0400321 0
0.0378262 -0.0408363 0
0.0389828 -0.0416607 0
0.0401254 -0.0425042 0
0.0412543 -0.0433659 0
0.0423698 -0.0442451 0
0.043472 -0.0451408 0
0.0445612 -0.0460523 0
0.0456375 -0.0469789 0
0.0467013 -0.0479199 0
0.0477529 -0.0488746 0
0.0487923 -0.0498424 0
0.04982 -0.0508227 0
0.0508362 -0.051815 0
0.051841 -0.0528187 0
0.0528348 -0.0538333 0
0.0538178 -0.0548584 0
0.0547903 -0.0558935 0
0.0557524 -0.0569382 0
0.0567045 -0.0579922 0
0.0576467 -0.0590549 0
0.0585792 -0.0601261 0
0.0595024 -0.0612055 0
0.0604163 -0.0622926 0
0.0613212 -0.0633873 0
0.0622174 -0.0644891 0
0.0631049 -0.0655979 0
0.0639841 -0.0667134 0
0.064855 -0.0678353 0
0.0657179 -0.0689633 0
0.0665729 -0.0700974 0
0.0674202 -0.0712372 0
0.06826 -0.0723826 0
0.0690925 -0.0735333 0
0.0699178 -0.0746892 0
0.070736 -0.0758501 0
0.0715473 -0.0770159 0
0.0723518 -0.0781863 0
0.0731498 -0.0793612 0
0.0739412 -0.0805405 0
0.0747264 -0.081724 0
0.0755053 -0.0829116 0
0.0762781 -0.0841033 0
0.0770449 -0.0852987 0
0.0778059 -0.0864979 0
0.0785611 -0.0877007 0
0.0793108 -0.088907 0
0.0814681 -0.0912706 0
0.0828814 -0.0924245 0
0.0842946 -0.0935783 0
0.0857079 -0.0947322 0
0.0871211 -0.095886 0
0.0885344 -0.0970399 0
0.0899476 -0.0981937 0
0.0913609 -0.0993476 0
0.0927741 -0.100501 0
0.0941874 -0.101655 0
0.0956006 -0.102809 0
0.0970139 -0.103963 0
0.0984272 -0.105117 0
0.0998404 -0.106271 0
0.101254 -0.107424 0
0.102667 -0.108578 0
0.10408 -0.109732 0
0.105493 -0.110886 0
0.106907 -0.11204 0
0.10832 -0.113194 0
0.109733 -0.114348 0
0.111146 -0.115501 0
0.11256 -0.116655 0
0.113973 -0.117809 0
0.115386 -0.118963 0
0.116799 -0.120117 0
0.118213 -0.121271 0
0.119626 -0.122424 0
0.121039 -0.123578 0
0.122452 -0.124732 0
0.123866 -0.125886 0
0.125279 -0.12704 0
0.126692 -0.128194 0
0.128105 -0.129348 0
0.129519 -0.130501 0
0.130932 -0.131655 0
0.132345 -0.132809 0
0.133758 -0.133963 0
0.135172 -0.133216 0
0.135172 -0.131316 0
0.135172 -0.129415 0
0.135172 -0.127514 0
0.135172 -0.125614 0
0.135172 -0.123713 0
0.135172 -0.121813 0
0.135172 -0.119912 0
0.135172 -0.118012 0
0.135172 -0.116111 0
0.135172 -0.11421 0
0.135172 -0.11231 0
0.135172 -0.110409 0
0.135172 -0.108509 0
0.135172 -0.106608 0
0.135172 -0.104708 0
0.135172 -0.102807 0
0.135172 -0.100906 0
0.135172 -0.0990058 0
0.135172 -0.0971052 0
0.135172 -0.0952046 0
0.135172 -0.0933041 0
0.135172 -0.0914035 0
0.135172 -0.0895029 0
0.135172 -0.0876023 0
0.135172 -0.0857017 0
0.135172 -0.0838012 0
0.135172 -0.0819006 0
0.133758 -0.0788462 0
0.132345 -0.0776923 0
0.130932 -0.0765385 0
0.129519 -0.0753846 0
0.128105 -0.0742308 0
0.126692 -0.0730769 0
0.125279 -0.0719231 0
0.123866 -0.0707692 0
0.122452 -0.0696154 0
0.121039 -0.0684615 0
0.119626 -0.0673077 0
0.118213 -0.0661538 0
0.116799 -0.065 0
0.115386 -0.0638462 0
0.113973 -0.0626923 0
0.11256 -0.0615385 0
0.111146 -0.0603846 0
0.109733 -0.0592308 0
0.10832 -0.0580769 0
0.106907 -0.0569231 0
0.105493 -0.0557692 0
0.10408 -0.0546154 0
0.102667 -0.0534615 0
0.101254 -0.0523077 0
0.0998404 -0.0511538 0
0.0984272 -0.05 0
0.0970139 -0.0488462 0
0.0956006 -0.0476923 0
[...]
CELL_DATA 13116
SCALARS rho float
LOOKUP_TABLE default
0.5977
0.5977
0.5977
0.5977
0.5977
0.680859
0.501699
0.5977
0.5977
0.5977
0.446561
0.5977
0.5977
0.597718
0.597699
0.680806
0.5977
0.5977
0.66158
0.430232
0.5977
0.5977
0.5977
0.5977
0.5977
0.5977
0.5977
0.5977
0.5977
0.5977
0.681058
0.5977
0.5977
0.5977
0.516301
0.5977
0.5977
0.597701
0.680441
0.597688
0.680587
0.5977
0.5977
0.597699
0.593002
0.630102
0.5977
0.590269
0.5977
0.5977
0.5977
0.5977
0.564624
0.5977
0.5977
0.5977
0.597699
0.5977
0.5977
0.5977
0.597717
0.5977
0.5977
0.680539
0.681115
0.594218
0.678763
0.5977
0.643587
0.681267
0.5977
0.5977
0.5977
0.597711
0.672846
0.597253
0.5977
0.5977
0.459102
0.5977
0.5977
0.5977
0.5977
0.597702
0.5977
0.5977
0.530611
0.5977
0.5977
0.367962
0.5977
0.5977
0.5977
0.5977
0.5977
0.5977
0.5977
0.680896
0.679465
0.5977
0.5977
0.5977
0.680835
0.5977
0.5977
0.5977
0.5977
0.5977
0.5977
0.5977
0.5977
0.5977
0.5977
0.5977
0.5977
0.676002
0.574545
0.5977
0.5977
0.595309
0.5977
0.5977
0.612771
0.5977
0.5977
0.5977
0.543387
0.5977
0.5977
0.5977
0.5977
0.5977
0.5977
0.5977
0.5977
0.5977
1.12406
0.597503
0.5977
0.594448
0.5977
0.5977
0.5977
0.5977
0.5977
0.597699
0.510309
0.5977
0.5977
0.5977
0.5977
0.597667
0.59715
0.539122
0.5977
0.5977
0.5977
0.5977
0.680733
0.5977
0.5977
0.448125
0.5977
0.5977
0.5977
0.5977
0.5977
0.5977
0.51067
0.5977
0.5977
1.11859
0.597702
0.5977
0.678549
0.5977
0.5977
0.5977
0.5977
0.680792
0.399883
0.5977
0.5977
0.5977
0.680979
0.5977
0.538401
0.680712
0.5977
0.5977
0.5977
0.5977
0.681518
0.5977
0.5977
0.680727
0.5977
0.68097
0.5977
0.5977
0.5977
0.5977
0.5977
0.597705
0.5977
0.5977
0.5977
0.5977
0.597698
0.407864
0.595934
0.681053
0.5977
0.371345
0.368518
0.549465
0.5977
0.681183
0.5977
0.5977
0.597699
0.680297
0.5977
0.396245
0.5977
0.5977
0.5977
0.5977
0.679863
0.5977
0.5977
0.5977
0.680832
0.5977
0.679492
0.597701
0.681547
0.5977
0.5977
0.5977
0.666005
0.680734
1.09646
0.680712
0.5977
0.5977
0.597701
0.5977
0.680814
0.478807
0.5977
0.597703
0.5977
0.680889
0.5977
0.5977
0.5977
0.439198
0.5977
0.5977
0.597698
0.5977
0.5977
0.5977
0.492265
0.593904
0.566175
0.5977
0.5977
0.477254
0.5977
0.5977
0.701825
0.5977
0.5977
0.740671
0.5977
0.681002
0.597263
0.442713
0.512891
0.5977
0.5977
0.5977
0.5977
0.5977
0.5977
0.5977
0.580715
0.5977
0.5977
0.514471
0.422198
0.555886
0.5977
0.5977
0.5977
0.5977
0.5977
0.468752
0.680827
0.5977
0.5977
0.597699
0.680751
0.5977
0.680554
0.548918
0.680699
0.5977
0.5977
0.5977
0.5977
0.5977
0.5977
0.681481
0.597716
0.68059
0.5977
0.5977
0.376368
0.5977
0.5977
0.556515
0.5977
0.5977
0.5977
0.5977
0.5977
0.53304
0.595586
0.5977
0.597717
0.5977
0.5977
0.5977
0.5977
0.5977
0.5977
0.491579
0.5977
0.5977
0.680934
0.5977
0.5977
0.5977
0.5977
0.5977
0.531433
0.5977
0.5977
0.5977
1.11677
0.532429
0.5977
0.5977
0.5977
0.5977
0.524789
0.5977
0.597701
0.5977
0.497985
0.5977
0.594562
0.5977
0.631408
0.5977
0.5977
0.367656
0.597696
0.680705
0.680575
0.597658
0.5977
0.5977
0.5977
0.597703
0.40073
0.680568
0.394816
0.5977
0.5977
0.5977
0.5977
0.5977
0.5977
0.520822
0.5977
0.5977
0.5977
0.5977
0.676542
0.5977
0.5977
0.5977
0.506243
0.5977
0.5977
0.5977
0.5977
0.680694
0.5977
0.5977
0.5977
0.5977
0.5977
0.5977
0.5977
0.5977
0.680523
0.5977
0.5977
0.5977
0.5977
0.5977
0.5977
0.5599
0.679579
0.678801
0.5977
0.404516
0.370104
0.518568
0.5977
0.592484
0.5977
0.680056
0.593168
0.5977
0.367596
0.680914
0.5977
0.5977
0.5977
0.5977
0.5977
0.367628
0.517446
0.367565
0.5977
0.507679
0.397359
0.5977
0.5977
0.395496
0.5977
0.5977
0.5977
0.5977
0.5977
0.5977
0.597698
0.367636
0.597698
0.594009
0.5977
0.5977
0.5977
0.586668
0.5977
0.5977
0.5977
0.5977
0.5977
0.5977
0.50427
0.678957
0.5977
0.5977
0.681113
0.5977
0.576118
0.5977
0.5977
0.5977
0.5977
0.5977
0.5977
0.5977
0.422727
0.597699
0.597713
0.5977
0.597699
0.59589
0.597702
0.597717
0.5977
0.5977
0.5977
0.5977
0.5977
0.5977
0.5977
0.584011
0.5977
0.5977
0.5977
0.5977
0.5977
0.5977
0.592234
0.5977
0.5977
0.5977
0.567112
0.5977
0.5977
0.680913
0.5977
0.5977
0.5977
0.384951
0.5977
0.5977
0.5977
0.5977
0.5977
0.5977
0.5977
0.5977
0.5977
0.5977
0.5977
0.5977
0.5977
0.680111
0.369925
0.593562
0.5977
0.597699
0.367626
0.5977
0.597702
0.5977
0.5977
0.5977
0.372634
0.680864
0.597701
0.5977
0.5977
0.57583
0.5977
0.367401
0.36734
0.597699
0.379368
0.5977
0.59766
0.5977
0.5977
0.5977
0.5977
0.679146
0.5977
0.367456
0.40146
0.5977
0.5977
0.5977
0.5977
0.5977
0.5977
0.522878
0.5977
0.680721
0.5977
0.369356
0.5977
0.5977
0.5977
0.681553
0.5977
0.5977
0.5977
0.5977
0.5977
0.5977
0.5977
0.5977
0.5977
0.672838
0.5977
0.5977
0.5977
0.5977
0.58574
1.07323
0.5977
0.674488
0.5977
0.367728
0.5977
0.5977
0.679004
0.5977
0.487844
0.5977
0.680814
0.5977
0.479832
0.5977
0.368109
0.681122
0.5977
0.68066
0.597703
0.5977
0.5977
0.5977
0.5977
0.5977
0.5977
0.5977
0.5977
0.568692
0.597338
0.680611
0.596723
0.680404
0.5977
0.679837
0.368136
0.5977
0.5977
0.5977
0.680657
0.5977
0.66267
0.5977
0.680844
0.5977
0.5977
0.446935
0.5977
0.5977
0.527219
0.680493
0.5977
0.544408
0.5977
0.5977
0.597703
0.680372
0.594139
0.5977
0.597698
0.468073
0.5977
0.5977
0.5977
0.577838
0.442126
0.5977
0.596165
0.5977
0.5977
0.681185
0.441413
0.5977
0.5977
0.5977
0.5977
0.5977
0.5977
0.681675
0.5977
0.5977
0.5977
0.5977
0.679462
0.5977
0.5977
0.5977
0.597701
0.5977
0.5977
0.5977
0.5977
0.5977
0.5977
0.680684
0.5977
0.5977
0.596684
0.5977
0.5977
0.5977
0.5977
0.5977
0.597709
0.681261
0.5977
0.5977
0.680932
0.5977
0.5977
0.5977
0.5977
0.5977
0.5977
0.5977
0.5977
0.597714
1.12665
0.5977
0.592675
0.5977
0.372191
0.5977
0.5977
0.5977
0.5977
0.5977
0.402492
0.5977
0.5977
0.421894
0.5977
0.5977
0.597697
0.5977
0.5977
0.5977
0.5977
0.5977
0.5977
0.680579
0.5977
0.371625
0.5977
0.5977
0.5977
0.597383
0.680884
0.5977
0.5977
0.411267
0.5977
0.5977
0.5977
0.5977
0.680768
0.5977
0.5977
0.5977
0.5977
0.5977
0.367406
0.367701
0.487735
0.391667
0.5977
0.5977
0.680783
0.5977
0.409052
0.651898
0.5977
0.59771
0.5977
0.5977
0.5977
0.681161
0.597701
0.5977
0.399889
0.367477
1.0206
0.5977
0.372301
0.57759
0.680731
0.5977
0.367825
0.5977
0.5977
0.5977
0.680927
0.681321
0.578794
0.597714
0.475515
0.5977
0.5977
0.5977
0.5977
0.5977
0.5977
0.680386
0.5977
0.367594
0.5977
0.367397
0.680814
0.5977
0.681047
0.5977
0.367625
0.5977
0.680859
0.5977
0.59771
0.5977
0.680802
0.5977
0.5977
0.5977
0.876807
0.5977
0.397058
0.681438
0.680604
0.5977
0.5977
1.12639
0.5977
0.842242
0.595331
0.596315
0.597706
0.367527
0.680942
0.5977
0.367446
0.5977
0.5977
0.5977
0.5977
0.5977
0.5977
0.5977
0.5977
0.5977
0.5977
0.368545
0.5977
0.680747
0.597699
0.5977
0.597647
0.5977
0.5977
0.5977
0.5977
0.680211
0.500147
0.5977
0.597699
0.5977
0.680628
0.370423
0.5977
0.5977
0.5977
0.5977
0.894641
0.5977
0.597703
0.597692
0.5977
0.5977
0.5977
0.5977
0.5977
0.681069
0.5977
0.5977
0.5977
0.5977
0.5977
0.670993
0.5977
0.367617
0.5977
0.5977
0.5977
0.5977
0.680761
0.5977
0.5977
0.5977
0.5977
0.5977
1.04426
0.678751
0.5977
0.5977
0.680721
0.5977
0.5977
0.5977
0.5977
0.597699
0.597674
0.5977
0.5977
0.5977
0.597699
0.5977
0.550647
1.1255
0.445439
0.5977
0.5977
0.5977
0.5977
0.5977
0.597705
0.5977
0.680702
0.680459
0.5977
0.681158
0.5977
0.5977
0.5977
0.5977
0.597706
0.680958
0.679099
0.5977
0.695058
0.5977
0.5977
0.597701
0.597699
0.5977
0.367724
0.715615
0.475422
0.5977
0.581324
0.5977
0.5977
0.5977
0.5977
0.5977
0.5977
0.5977
0.6812
0.416422
0.5977
0.5977
0.5977
0.5977
0.681111
0.5977
0.680953
0.5977
0.5977
0.5977
0.660888
0.5977
0.367706
0.5977
0.597702
1.08374
0.666941
1.10607
0.5977
0.5977
0.5977
0.596663
0.367588
0.597702
1.0944
0.5977
0.680929
0.597181
0.680733
0.5977
0.5977
0.59771
0.5977
0.5977
0.5977
0.5977
0.5977
0.679519
0.658218
0.495815
0.5977
0.5977
0.499551
0.5977
0.597715
0.5977
0.5977
0.368832
0.597305
0.5977
0.5977
0.5977
0.516248
0.51543
0.5977
0.597703
0.593129
0.681018
0.5977
0.5977
0.5977
0.5977
0.5977
0.406017
0.5977
0.455833
0.5977
0.5977
0.5977
0.595283
0.5977
0.5977
0.592906
0.5977
0.5977
0.5977
0.680804
0.5977
0.5977
0.597184
0.442443
0.5977
0.680431
0.5977
0.5977
0.5977
0.680669
0.5977
0.5977
0.632256
0.5977
0.5977
0.489748
0.5977
0.5977
0.597702
0.5977
0.5977
0.680633
0.5977
0.5977
0.368884
0.5977
0.5977
0.5861
0.5977
1.12512
0.5977
0.52834
0.680241
0.391361
0.5977
0.5977
0.368371
0.5977
0.597699
0.5977
0.680471
0.5977
0.5977
0.5977
0.5977
0.5977
0.5977
0.368266
0.569875
0.489337
0.5977
0.5977
0.5977
0.5977
0.5977
0.681038
0.5977
0.597713
0.5977
0.5977
0.680513
0.46201
0.672111
0.5977
0.5977
0.597701
0.597699
0.5977
0.5977
0.5977
0.5977
0.680165
0.5977
0.5977
0.597085
0.5977
0.367685
0.680848
0.5977
0.5977
0.5977
0.5977
0.5977
0.5977
0.5977
0.5977
0.490606
0.5977
0.5977
0.5977
0.597701
0.5977
0.5977
0.5977
0.597699
0.5977
0.5977
0.678723
0.5977
0.479322
0.5977
0.5977
0.5977
0.5977
0.5977
0.5977
0.5977
0.593385
0.5977
0.680897
0.5977
0.5977
0.5977
0.597701
0.5977
0.5977
0.5977
0.5977
0.680314
0.5977
0.5977
1.1264
0.5977
0.535433
0.5977
0.5977
0.680149
0.5977
0.5977
0.597713
0.5977
0.597706
0.68129
0.5977
0.5977
0.5977
0.413956
0.5977
0.5977
0.5977
0.5977
0.5977
0.680795
0.5977
0.5977
0.5977
0.5977
0.680613
0.669152
0.5977
0.5977
0.5977
0.5977
0.5977
0.5977
0.5977
0.5977
0.5977
0.680535
0.5977
0.5977
0.5977
0.5977
0.680486
0.680557
0.5977
0.5977
0.680938
0.5977
0.5977
0.497497
0.5977
0.514552
0.5977
0.5977
0.367421
0.367701
0.597709
0.680708
0.5977
0.5977
0.679612
0.5977
0.5977
0.383945
0.5977
0.5977
0.681197
0.596776
0.5977
0.680692
0.5977
0.680735
0.68057
0.5977
0.5977
0.5977
0.5977
0.5977
0.5977
0.5977
0.5977
0.41716
0.5977
0.5977
0.680226
0.596731
0.5977
0.5977
0.680607
0.414774
0.596846
0.5977
1.12688
0.5977
0.675229
0.390303
0.5977
0.38312
0.5977
0.5977
0.5977
0.5977
0.5977
0.5977
0.525972
0.463895
0.5977
0.68068
0.5977
0.5977
0.592908
0.527003
0.597677
0.5977
0.5977
0.5977
0.5977
0.5977
0.595765
0.5977
0.5977
0.5977
0.5977
0.5977
0.408123
0.677162
0.671348
0.59771
0.5977
0.5977
0.5977
0.5977
0.5977
0.5977
0.5977
0.5977
0.5977
0.373504
0.680638
0.5977
0.368538
0.5977
0.58793
0.605161
0.5977
0.5977
0.597702
0.5977
0.5977
0.5977
0.5977
0.593734
0.5977
0.680623
0.675259
0.5977
0.5977
0.5977
0.680845
0.5977
0.664579
0.5977
0.5977
0.5977
0.597709
0.5977
0.680165
0.680764
0.5977
0.680649
0.5977
0.670324
0.579344
0.592915
0.367453
0.597703
0.486421
0.596559
0.5977
0.5977
0.593942
0.5977
0.5977
0.5977
0.367393
0.680802
0.68089
0.596363
0.539273
0.597703
0.5977
0.681081
0.5977
0.5977
0.519027
0.416468
0.680565
0.415233
0.5977
0.5977
0.976878
0.368167
0.5977
0.535445
0.5977
1.11739
0.5977
0.597701
0.680168
0.5977
0.388671
0.597699
0.5977
0.5977
0.36802
1.12629
0.5977
0.680816
0.597704
0.437703
0.5977
0.5977
0.5977
0.5977
0.5977
0.5977
0.5977
0.5977
0.5977
0.5977
0.471488
0.5977
0.597312
0.5977
0.5977
0.674276
0.368071
0.5977
0.5977
0.597702
0.680547
0.408382
0.597591
0.5977
0.5977
0.5977
0.5977
0.40248
0.5977
0.680044
0.68094
0.5977
0.5977
0.5977
0.5977
0.5977
0.680824
0.680703
0.5977
0.5977
0.681033
0.5977
0.5977
0.5977
0.597544
0.5977
0.681336
0.597701
0.680604
0.5977
0.372674
0.5977
0.5977
0.367564
0.5977
0.59769
0.597713
0.5977
0.669327
0.5977
0.5977
0.5977
0.597701
0.5977
0.597717
0.681394
0.5977
0.681022
0.558345
0.5977
0.680266
0.5977
0.680816
0.5977
0.680561
0.5977
0.5977
0.5977
0.5977
0.437732
0.5977
0.595336
0.369999
0.5977
0.5977
0.5977
0.5977
0.680938
0.5977
0.680379
0.5977
0.597708
0.5977
0.5977
0.367883
0.680746
0.5977
0.5977
0.5977
0.5977
0.5977
0.5977
0.5977
0.5977
0.681162
0.5977
0.5977
0.5977
0.5977
0.5977
0.5977
0.5977
0.455143
0.5977
0.597701
0.5977
0.5977
0.597585
0.5977
0.681176
0.5977
0.5977
0.5977
0.464046
0.595748
0.5977
0.5977
0.5977
0.5977
0.5977
0.680598
0.388487
0.597714
0.5977
0.5977
0.5977
0.595275
0.597701
0.677572
0.5977
0.5977
0.5977
0.5977
0.5977
0.597714
0.5977
0.59761
0.5977
0.713176
0.5977
0.5977
0.5977
0.5977
0.5977
0.5977
0.5977
0.570254
0.5977
0.672503
0.59767
0.5977
0.5977
0.597699
1.12705
0.5977
0.5977
0.533344
0.379309
0.5977
0.5977
0.367607
0.5977
0.594189
0.5977
0.477537
0.5977
0.5977
0.5977
0.5977
0.418821
0.5977
1.11089
0.367609
0.680955
0.368313
0.5977
0.5977
0.597224
0.482972
0.5977
0.5977
0.525674
0.5977
0.5977
0.5977
0.5977
0.5977
0.5977
0.5977
0.514386
0.5977
0.40906
0.680753
0.681073
0.5977
0.5977
0.5977
0.5977
0.680809
0.5977
0.5977
0.5977
0.412165
0.5977
0.597415
0.5977
0.5977
0.5977
0.5977
0.5977
0.5977
0.5977
0.5977
0.597707
0.597719
0.59771
0.5977
0.5977
0.5977
0.46225
0.5977
0.680836
0.5977
0.5977
0.5977
0.5977
0.367627
0.5977
0.5977
0.5977
0.5977
0.597698
0.5977
0.681103
0.5977
0.5977
0.5977
0.681558
0.5977
0.5977
0.5977
0.5977
0.528867
0.5977
0.5977
0.5977
0.5977
0.597699
0.5977
0.423481
0.680915
0.5977
0.396485
0.5977
0.5977
0.5977
0.5977
0.5977
0.5977
0.597702
0.5977
0.563607
0.5977
0.597673
0.437422
0.5977
0.680607
0.5977
0.411631
0.368451
0.5977
0.5977
0.67675
0.5977
0.368567
0.5977
0.675816
0.5977
0.5977
0.5977
0.5977
0.681075
0.5977
0.367609
0.504005
0.5977
0.389563
0.5977
0.5977
0.680778
0.635224
0.5977
0.371799
1.1177
0.419161
0.68156
0.5977
0.368171
0.597698
0.575329
0.660137
0.581167
1.1263
0.5977
0.5977
0.5977
0.5977
0.5977
0.5977
0.48496
0.5977
0.5977
0.5977
0.5977
0.5977
0.471301
0.367285
0.5977
0.436719
0.438422
0.5977
0.5977
0.595555
0.5977
0.5977
0.5977
0.5977
0.678868
0.680352
0.470639
0.5977
0.5977
0.5977
0.5977
0.5977
0.5977
0.592433
0.5977
0.5977
0.5977
0.5977
0.5977
0.5977
0.5977
0.5977
0.5977
0.681277
0.854502
0.5977
1.12645
0.5977
0.5977
0.5977
1.08565
0.680541
0.5977
0.5977
0.5977
0.60036
0.59721
0.5977
0.5977
0.5977
0.597701
0.533259
0.5977
0.474322
0.5977
0.463801
0.471541
0.5977
0.5977
0.5977
0.520193
0.5977
0.5977
0.36744
0.5977
0.5977
0.597702
0.597698
0.597701
0.5977
0.549741
0.5977
0.5977
0.5977
0.5977
0.5977
0.5977
0.367513
0.596125
0.5977
0.5977
0.678509
0.680361
0.5977
0.368008
0.5977
0.5977
0.5977
0.680735
0.669663
0.367929
0.5977
0.596453
0.5977
0.5977
0.597702
0.368491
0.384881
0.597701
0.5977
0.5977
0.5977
0.367837
0.5977
0.5977
0.5977
0.5977
0.597705
0.5977
0.680226
0.5977
0.597718
0.5977
0.679435
0.5977
0.5977
0.5977
0.5977
0.368018
0.403366
0.597461
0.378742
0.368109
0.5977
0.5977
0.57735
0.5977
0.570008
0.718367
0.5977
0.5977
0.680726
0.5977
0.680988
0.5977
0.407401
0.5977
0.680811
0.5977
0.5977
0.5977
0.5977
0.5977
0.680959
0.463133
0.594986
0.5977
0.680421
0.5977
0.521115
0.5977
0.374839
0.372211
0.5977
0.5977
0.5977
0.477067
0.597702
0.5977
0.5977
0.597705
0.5977
0.367767
0.5977
0.5977
0.5977
0.5977
0.597704
0.680081
0.597714
0.5977
0.593845
0.5977
0.367485
0.5977
0.5977
0.5977
0.597701
0.5977
0.5977
0.5977
0.5977
0.5977
0.5977
0.681623
0.672276
0.368942
0.5977
0.373726
0.5977
0.592585
0.5977
0.5977
0.5977
0.5977
0.5977
0.367362
0.5977
0.5977
0.5977
0.5977
0.414802
0.5977
0.5977
0.5977
0.479301
0.5977
0.681374
0.5977
0.597699
0.5977
0.5977
0.367836
0.5977
0.5977
0.5977
0.559498
0.368536
0.5977
0.5977
0.5977
0.5977
0.5977
0.681007
0.5977
0.5977
0.41168
0.5977
0.5977
0.5977
0.5977
0.5977
0.47814
0.5977
0.5977
0.5977
0.5977
0.5977
0.5977
0.5977
0.607475
0.597699
0.5977
0.5977
0.5977
0.491798
0.506296
0.5977
0.5977
0.5977
0.5977
0.5977
0.5977
0.36756
0.5977
0.678717
0.5977
0.50104
0.5977
0.5977
0.5977
0.5977
0.5977
0.5977
0.597698
0.5977
0.5977
1.1002
0.5977
1.12616
0.597701
0.5977
0.680539
0.680956
0.668195
0.5977
0.5977
0.692798
0.593331
0.680165
0.597699
0.385035
0.5977
0.5977
0.367664
0.488419
0.5977
0.5977
0.597528
0.5977
0.5977
0.5977
0.5977
0.5977
0.5977
0.680943
0.5977
0.5977
0.678738
0.5977
0.5977
0.4095
0.5977
0.5977
0.368072
0.5977
0.5977
0.680263
0.5977
0.555518
0.5977
0.5977
0.5977
0.681539
0.597699
0.5977
0.5977
0.5977
0.5977
0.5977
0.665447
0.5977
0.5977
0.378198
0.5977
0.5977
0.5977
0.5977
0.680885
0.380458
0.5977
0.476294
0.5977
0.5977
0.678317
0.5977
0.5977
0.390964
0.599081
0.5977
0.5977
0.752489
0.591367
0.5977
0.5977
0.5977
0.5977
0.5977
0.5977
0.5977
0.5977
0.5977
0.5977
0.5977
0.5977
0.5977
0.5977
0.5977
0.5977
0.680847
0.5977
0.5977
0.5977
0.597699
0.5977
0.367846
0.5977
0.5977
0.680789
0.5977
0.5977
0.5977
0.5977
0.5977
0.368335
0.481211
0.681328
0.694329
0.5977
0.5977
0.691412
0.368059
0.5977
0.5977
0.5977
0.5977
0.5977
0.5977
0.474977
0.59686
0.597702
0.5977
0.5977
0.5977
0.5977
0.5977
0.597699
0.5977
0.5977
0.5977
0.5977
0.5977
0.5977
0.5977
0.5977
0.5977
0.506986
0.5977
0.5977
0.5977
0.5977
0.5977
0.5977
0.5977
0.597413
0.5977
0.5977
0.367606
0.5977
0.597699
0.560622
0.5977
0.5977
1.10627
0.5977
0.36901
0.673966
0.5977
0.5977
0.5977
0.5977
0.5977
0.680488
0.5977
0.5977
0.597699
0.5977
0.680575
0.575603
0.391486
0.5977
0.5977
0.5977
0.5977
0.680914
0.5977
0.5977
0.5977
0.5977
0.680515
0.5977
0.369469
0.676669
0.5977
0.5977
0.5977
0.573517
0.5977
0.59762
0.5977
0.5977
0.5977
0.396669
0.5977
0.5977
0.5977
0.5977
0.681069
0.5977
0.5977
0.597702
0.5977
0.5977
0.5977
0.5977
0.5977
0.61377
0.5977
0.680562
0.680705
0.597072
0.5977
0.5977
0.5977
0.5977
0.597708
0.418651
0.597701
0.5977
0.5977
0.681131
0.5977
0.5977
0.367712
0.5977
0.5977
0.5977
0.5977
0.5977
0.5977
0.5977
0.5977
0.5977
0.5977
0.5977
0.368059
0.5977
0.5977
0.5977
0.5977
0.5977
0.5977
0.5977
0.5977
0.367604
0.411217
0.680804
0.5977
0.5977
0.5977
0.5977
0.5977
0.597703
0.680721
0.5977
0.368062
0.5977
0.367854
0.597702
0.5977
0.5977
0.5977
0.680697
0.5977
0.5977
0.5977
0.386388
0.5977
0.5977
0.597702
0.597707
0.5977
0.5977
0.680611
0.367915
1.12625
0.673413
0.430193
0.5977
0.5977
0.5977
0.367916
0.504104
0.597698
0.5977
0.591729
0.5977
0.5977
0.5977
0.5977
0.5977
0.5977
0.367362
0.5977
0.373293
0.5977
0.414982
0.5977
0.5977
0.5977
0.5977
0.494003
0.680974
0.592872
0.419144
0.5977
0.5977
0.5977
0.5977
0.597698
0.5977
0.680877
0.5977
0.5977
0.5977
0.5977
0.5977
0.404014
0.5977
0.680729
0.5977
0.36802
0.5977
0.5977
0.5977
0.5977
0.5977
0.5977
0.5977
0.5977
0.5977
0.5977
0.5977
0.5977
0.5977
0.5977
0.375851
0.5977
0.5977
0.397759
0.5977
0.5977
0.5977
0.5977
0.5977
0.5977
0.5977
0.5977
0.597699
0.431782
0.5977
0.383859
0.5977
0.5977
0.426977
0.597702
0.680797
0.5977
0.5977
0.5977
0.5977
0.5977
0.5977
0.5977
0.5977
0.680954
0.5977
0.5977
0.5977
0.5977
0.5977
0.679085
0.5977
0.597715
0.5977
0.5977
0.5977
0.5977
0.368747
0.5977
0.5977
0.5977
0.5977
0.5977
0.5977
0.5977
0.5977
0.446738
0.5977
0.367486
0.5977
0.5977
0.662803
0.5977
0.5977
0.5977
0.5977
1.10683
0.5977
0.5977
0.5977
0.597715
0.580634
0.5977
0.5977
0.5977
0.639298
0.667678
0.5977
0.5977
0.680629
0.5977
1.1075
0.5977
0.5977
0.5977
0.5977
0.5977
1.10643
0.5977
0.5977
0.5977
0.5977
0.5977
0.5977
0.665824
0.5977
0.659256
0.5977
0.429832
0.670425
0.5977
0.5977
0.438599
0.367768
0.581635
0.5977
0.367865
0.597707
0.5977
0.5977
0.478088
0.5977
0.607472
0.5977
0.680874
0.5977
1.06891
0.5977
0.5977
0.5977
0.591014
0.597702
0.5977
0.597704
0.5977
0.5977
0.36826
0.5977
0.5977
0.5977
0.37953
0.680621
0.5977
0.5977
0.502845
0.5977
0.5977
0.368015
0.5977
0.5977
0.597699
0.5977
0.5977
0.5977
0.5977
0.5977
0.971086
0.5977
0.367745
0.5977
0.5977
0.5977
0.5977
0.597701
0.5977
0.382774
0.5977
0.680982
0.5977
0.5977
0.5977
0.5977
0.5977
0.5977
0.5977
0.5977
0.5977
0.37377
0.563271
0.5977
0.5977
0.5977
0.5977
0.5977
0.5977
0.5977
0.5977
0.5977
0.5977
0.3759
0.367841
0.5977
0.597701
1.12698
0.5977
0.5977
0.5977
0.5977
0.5977
0.5977
0.5977
0.373696
0.5977
0.597701
0.5977
0.5977
0.369388
0.597669
0.597714
0.5977
0.5977
0.5977
0.5977
0.36794
0.415841
0.5977
0.5977
0.680857
0.5977
0.371277
0.5977
0.368899
0.5977
0.597946
0.5977
0.427437
0.5977
0.681029
0.5977
0.5977
0.5977
0.597701
0.680897
0.5977
0.5977
0.5977
0.433637
0.5977
0.5977
1.12684
0.501561
0.5977
0.597702
0.5977
0.5977
0.5977
0.68094
0.672469
0.5977
0.5977
0.597702
0.5977
0.680791
0.585125
0.367674
0.5977
0.5977
0.5977
0.368086
0.680551
0.5977
0.5977
0.5977
0.597699
0.5977
0.5977
0.485265
0.681051
0.5977
0.460677
0.680101
0.5977
0.5977
0.5977
0.5977
0.5977
0.5977
0.430954
0.68039
0.5977
0.5977
0.367595
0.680707
0.5977
0.5977
0.5977
0.5977
0.593178
0.5977
0.5977
0.567176
0.5977
0.5977
0.597263
0.680662
0.5977
0.594061
0.597701
0.597221
0.5977
0.5977
0.5977
0.597715
0.429268
0.5977
0.5977
0.5977
0.68117
0.5977
0.5977
0.5977
0.5977
0.680612
0.5977
0.5977
0.5977
0.3674
1.08143