# vtk DataFile Version 1.0
unstructured grid
ascii
DATASET UNSTRUCTURED_GRID
points 13672 float
0.0796578 -0.059106 0
0.00128732 0.00159165 0
0.00227961 -0.00102548 0
0.0791586 -0.0598787 0
-0.0546216 0.01 0
0.000495206 0.025 0
0.0800549 -0.035 0
0.135172 -0.08 0
-0.0546216 -0.0451168 0
0.000495206 -0.0301168 0
0.0800549 -0.0901168 0
0.135172 -0.135117 0
-0.0546216 -0.0451168 -0.00551168
0.000495206 -0.0301168 -0.00551168
0.0800549 -0.0901168 -0.00551168
0.135172 -0.135117 -0.00551168
0.135172 -0.08 -0.00551168
0.0800549 -0.035 -0.00551168
0.000495206 0.025 -0.00551168
-0.0546216 0.01 -0.00551168
0.00128732 0.00159165 -0.00551168
0.00227961 -0.00102548 -0.00551168
0.0791586 -0.0598787 -0.00551168
0.0796578 -0.059106 -0.00551168
0.00165953 -0.000990923 0
0.00119576 -0.000874076 0
0.000866021 -0.000641801 0
0.000645147 -0.000349912 0
0.00052235 -1.7281e-05 0
0.00049972 0.000348016 0
0.000601632 0.000737716 0
0.000861774 0.0011403 0
0.00157235 0.00183217 0
0.00188647 0.00206725 0
0.00222612 0.00230203 0
0.00258713 0.00254351 0
0.00296826 0.00279524 0
0.00337118 0.00305664 0
0.00379785 0.00332658 0
0.00425045 0.00360349 0
0.00473139 0.00388521 0
0.0052432 0.00416895 0
0.0057881 0.00445204 0
0.00636753 0.00473281 0
0.00698281 0.00500961 0
0.00763526 0.00528058 0
0.00832616 0.00554366 0
0.00905691 0.00579603 0
0.00982918 0.00603333 0
0.0106445 0.00625033 0
0.0115038 0.00644128 0
0.0124073 0.00660297 0
0.0133543 0.00673414 0
0.0143444 0.00683382 0
0.0153769 0.00690031 0
0.0164512 0.00693173 0
0.0175666 0.00692547 0
0.0187219 0.00687822 0
0.0199156 0.00678477 0
0.0211454 0.00663864 0
0.0224084 0.00643275 0
0.0237018 0.00616676 0
0.0250249 0.00584739 0
0.026375 0.00547298 0
0.0277479 0.00503752 0
0.0291386 0.00453545 0
0.0305433 0.0039653 0
0.0319572 0.0033256 0
0.0333681 0.00260019 0
0.034775 0.00179799 0
0.0361793 0.000930615 0
0.0375798 3.12222e-06 0
0.0389689 -0.000988429 0
0.0403357 -0.00205109 0
0.041675 -0.00318283 0
0.0429849 -0.00437751 0
0.0442643 -0.00562904 0
0.0455126 -0.00693089 0
0.0467314 -0.00827518 0
0.0479204 -0.00965638 0
0.0490661 -0.0110799 0
0.0501515 -0.0125519 0
0.0511696 -0.0140695 0
0.0521492 -0.0156071 0
0.0531202 -0.0171411 0
0.0540851 -0.0186663 0
0.0550431 -0.0201798 0
0.0559923 -0.0216793 0
0.0569311 -0.0231626 0
0.0578582 -0.0246273 0
0.0587723 -0.0260715 0
0.0596721 -0.027493 0
0.0605563 -0.02889 0
0.0614241 -0.0302609 0
0.0622742 -0.0316042 0
0.063106 -0.0329183 0
0.0639186 -0.034202 0
0.0647113 -0.0354543 0
0.0654835 -0.0366743 0
0.0662345 -0.0378613 0
0.0669642 -0.0390145 0
0.0676726 -0.0401333 0
0.0683597 -0.0412172 0
0.0690246 -0.0422665 0
0.0696662 -0.0432819 0
0.0702841 -0.0442636 0
0.0708793 -0.0452111 0
0.0714538 -0.0461237 0
0.072009 -0.047001 0
0.0725452 -0.0478434 0
0.0730611 -0.0486524 0
0.073556 -0.0494294 0
0.0740291 -0.0501756 0
0.0744812 -0.0508916 0
0.0749138 -0.0515773 0
0.0753285 -0.0522331 0
0.0757266 -0.0528592 0
0.076109 -0.0534564 0
0.0764753 -0.0540264 0
0.0768243 -0.054571 0
0.0771553 -0.0550919 0
0.0774679 -0.0555901 0
0.0777617 -0.0560669 0
0.0780369 -0.056523 0
0.0782958 -0.0569578 0
0.0785421 -0.0573703 0
0.0787786 -0.0577603 0
0.0790073 -0.0581279 0
0.0792295 -0.058474 0
0.0794462 -0.0587995 0
0.0798803 -0.0594162 0
0.0800272 -0.0596588 0
0.0800357 -0.0598891 0
0.0799275 -0.0600784 0
0.0797205 -0.0601773 0
0.0794593 -0.0601051 0
0.0789155 -0.0596491 0
0.0786707 -0.0593963 0
0.0784111 -0.0591319 0
0.0781372 -0.0588542 0
0.0778566 -0.0585548 0
0.0775715 -0.0582308 0
0.0772803 -0.0578828 0
0.0769832 -0.0575099 0
0.0766822 -0.0571097 0
0.0763801 -0.0566796 0
0.0760759 -0.0562196 0
0.0757623 -0.0557337 0
0.0754359 -0.0552232 0
0.0750951 -0.0546879 0
0.0747379 -0.054128 0
0.0743626 -0.0535435 0
0.0739688 -0.0529338 0
0.0735559 -0.0522981 0
0.0731238 -0.0516357 0
0.0726718 -0.050946 0
0.0721991 -0.0502288 0
0.0717046 -0.049484 0
0.0711872 -0.0487117 0
0.0706461 -0.047912 0
0.0700804 -0.0470849 0
0.0694892 -0.0462308 0
0.0688718 -0.0453499 0
0.0682271 -0.0444431 0
0.0675544 -0.043511 0
0.0668527 -0.0425546 0
0.0661215 -0.0415748 0
0.06536 -0.040573 0
0.0645676 -0.0395504 0
0.0637439 -0.0385087 0
0.0628887 -0.0374493 0
0.062002 -0.0363741 0
0.0610838 -0.0352847 0
0.0601345 -0.0341831 0
0.0591547 -0.033071 0
0.0581456 -0.0319502 0
0.0571083 -0.0308224 0
0.0560444 -0.0296893 0
0.0549562 -0.028552 0
0.053845 -0.0274126 0
0.0527113 -0.0262746 0
0.051554 -0.0251427 0
0.0503724 -0.0240222 0
0.0491675 -0.0229164 0
0.047941 -0.0218282 0
0.0466955 -0.0207597 0
0.0454337 -0.0197126 0
0.0441592 -0.0186878 0
0.0428751 -0.0176863 0
0.0415841 -0.0167097 0
0.0402878 -0.0157609 0
0.0389879 -0.0148428 0
0.0376864 -0.0139575 0
0.0363853 -0.013107 0
0.0350871 -0.0122931 0
0.0337942 -0.0115164 0
0.0325095 -0.0107772 0
0.0312357 -0.0100756 0
0.0299758 -0.00941024 0
0.0287337 -0.00877784 0
0.0275126 -0.00817571 0
0.0263139 -0.00760375 0
0.0251376 -0.00706528 0
0.0239829 -0.0065649 0
0.0228537 -0.00609619 0
0.0217522 -0.00565563 0
0.0206795 -0.00524226 0
0.0196364 -0.00485507 0
0.0186233 -0.00449318 0
0.0176408 -0.00415577 0
0.016689 -0.00384204 0
0.0157682 -0.00355115 0
0.0148783 -0.00328218 0
0.0140192 -0.00303468 0
0.0131906 -0.00280795 0
0.0123925 -0.00260016 0
0.0116246 -0.00241012 0
0.0108864 -0.00223769 0
0.0101774 -0.00208212 0
0.00949701 -0.00194206 0
0.00884483 -0.0018163 0
0.0082202 -0.0017039 0
0.00762247 -0.00160391 0
0.00705097 -0.00151528 0
0.006505 -0.00143697 0
0.0059838 -0.00136806 0
0.00548662 -0.00130772 0
0.00501265 -0.00125519 0
0.00456114 -0.00120954 0
0.00413136 -0.00116914 0
0.00372257 -0.00113251 0
0.00333398 -0.00109853 0
0.00296466 -0.00106798 0
0.00261363 -0.0010431 0
-0.052721 -0.0445996 0
-0.0508204 -0.0440823 0
-0.0489199 -0.0435651 0
-0.0470193 -0.0430478 0
-0.0451187 -0.0425306 0
-0.0432181 -0.0420134 0
-0.0413175 -0.0414961 0
-0.039417 -0.0409789 0
-0.0375164 -0.0404616 0
-0.0356158 -0.0399444 0
-0.0337152 -0.0394271 0
-0.0318146 -0.0389099 0
-0.0299141 -0.0383927 0
-0.0280135 -0.0378754 0
-0.0261129 -0.0373582 0
-0.0242123 -0.0368409 0
-0.0223117 -0.0363237 0
-0.0204112 -0.0358065 0
-0.0185106 -0.0352892 0
-0.01661 -0.034772 0
-0.0147094 -0.0342547 0
-0.0128088 -0.0337375 0
-0.0109083 -0.0332202 0
-0.00900769 -0.032703 0
-0.00710711 -0.0321858 0
-0.00520653 -0.0316685 0
-0.00330595 -0.0311513 0
-0.00140537 -0.030634 0
0.00190689 -0.0299614 0
0.00332271 -0.0298498 0
0.00474133 -0.0297825 0
0.00616136 -0.0297597 0
0.0075814 -0.0297814 0
0.00900007 -0.0298477 0
0.010416 -0.0299583 0
0.0118278 -0.0301127 0
0.0132342 -0.0303103 0
0.0146339 -0.0305504 0
0.0160259 -0.0308322 0
0.0174091 -0.0311546 0
0.0187824 -0.0315166 0
0.020145 -0.031917 0
0.0214961 -0.0323546 0
0.0228351 -0.032828 0
0.0241613 -0.0333361 0
0.0254744 -0.0338774 0
0.0267738 -0.0344507 0
0.0280592 -0.0350545 0
0.0293306 -0.0356877 0
0.0305875 -0.0363488 0
0.0318301 -0.0370367 0
0.0330581 -0.0377501 0
0.0342717 -0.0384879 0
0.0354708 -0.0392489 0
0.0366556 -0.0400321 0
0.0378262 -0.0408363 0
0.0389828 -0.0416607 0
0.0401254 -0.0425042 0
0.0412543 -0.0433659 0
0.0423698 -0.0442451 0
0.043472 -0.0451408 0
0.0445612 -0.0460523 0
0.0456375 -0.0469789 0
0.0467013 -0.0479199 0
0.0477529 -0.0488746 0
0.0487923 -0.0498424 0
0.04982 -0.0508227 0
0.0508362 -0.051815 0
0.051841 -0.0528187 0
0.0528348 -0.0538333 0
0.0538178 -0.0548584 0
0.0547903 -0.0558935 0
0.0557524 -0.0569382 0
0.0567045 -0.0579922 0
0.0576467 -0.0590549 0
0.0585792 -0.0601261 0
0.0595024 -0.0612055 0
0.0604163 -0.0622926 0
0.0613212 -0.0633873 0
0.0622174 -0.0644891 0
0.0631049 -0.0655979 0
0.0639841 -0.0667134 0
0.064855 -0.0678353 0
0.0657179 -0.0689633 0
0.0665729 -0.0700974 0
0.0674202 -0.0712372 0
0.06826 -0.0723826 0
0.0690925 -0.0735333 0
0.0699178 -0.0746892 0
0.070736 -0.0758501 0
0.0715473 -0.0770159 0
0.0723518 -0.0781863 0
0.0731498 -0.0793612 0
0.0739412 -0.0805405 0
0.0747264 -0.081724 0
0.0755053 -0.0829116 0
0.0762781 -0.0841033 0
0.0770449 -0.0852987 0
0.0778059 -0.0864979 0
0.0785611 -0.0877007 0
0.0793108 -0.088907 0
0.0814681 -0.0912706 0
0.0828814 -0.0924245 0
0.0842946 -0.0935783 0
0.0857079 -0.0947322 0
0.0871211 -0.095886 0
0.0885344 -0.0970399 0
0.0899476 -0.0981937 0
0.0913609 -0.0993476 0
0.0927741 -0.100501 0
0.0941874 -0.101655 0
0.0956006 -0.102809 0
0.0970139 -0.103963 0
0.0984272 -0.105117 0
0.0998404 -0.106271 0
0.101254 -0.107424 0
0.102667 -0.108578 0
0.10408 -0.109732 0
0.105493 -0.110886 0
0.106907 -0.11204 0
0.10832 -0.113194 0
0.109733 -0.114348 0
0.111146 -0.115501 0
0.11256 -0.116655 0
0.113973 -0.117809 0
0.115386 -0.118963 0
0.116799 -0.120117 0
0.118213 -0.121271 0
0.119626 -0.122424 0
0.121039 -0.123578 0
0.122452 -0.124732 0
0.123866 -0.125886 0
0.125279 -0.12704 0
0.126692 -0.128194 0
0.128105 -0.129348 0
0.129519 -0.130501 0
0.130932 -0.131655 0
0.132345 -0.132809 0
0.133758 -0.133963 0
0.135172 -0.133216 0
0.135172 -0.131316 0
0.135172 -0.129415 0
0.135172 -0.127514 0
0.135172 -0.125614 0
0.135172 -0.123713 0
0.135172 -0.121813 0
0.135172 -0.119912 0
0.135172 -0.118012 0
0.135172 -0.116111 0
0.135172 -0.11421 0
0.135172 -0.11231 0
0.135172 -0.110409 0
0.135172 -0.108509 0
0.135172 -0.106608 0
0.135172 -0.104708 0
0.135172 -0.102807 0
0.135172 -0.100906 0
0.135172 -0.0990058 0
0.135172 -0.0971052 0
0.135172 -0.0952046 0
0.135172 -0.0933041 0
0.135172 -0.0914035 0
0.135172 -0.0895029 0
0.135172 -0.0876023 0
0.135172 -0.0857017 0
0.135172 -0.0838012 0
0.135172 -0.0819006 0
0.133758 -0.0788462 0
0.132345 -0.0776923 0
0.130932 -0.0765385 0
0.129519 -0.0753846 0
0.128105 -0.0742308 0
0.126692 -0.0730769 0
0.125279 -0.0719231 0
0.123866 -0.0707692 0
0.122452 -0.0696154 0
0.121039 -0.0684615 0
0.119626 -0.0673077 0
0.118213 -0.0661538 0
0.116799 -0.065 0
0.115386 -0.0638462 0
0.113973 -0.0626923 0
0.11256 -0.0615385 0
0.111146 -0.0603846 0
0.109733 -0.0592308 0
0.10832 -0.0580769 0
0.106907 -0.0569231 0
0.105493 -0.0557692 0
0.10408 -0.0546154 0
0.102667 -0.0534615 0
0.101254 -0.0523077 0
0.0998404 -0.0511538 0
0.0984272 -0.05 0
0.0970139 -0.0488462 0
0.0956006 -0.0476923 0
[...]
CELL_DATA 13116
SCALARS rho float
LOOKUP_TABLE default
0.5977
0.657476
0.526864
0.689407
0.689152
0.68083
0.392291
0.693993
0.5977
0.69197
0.371748
0.535415
0.689212
0.468134
0.486863
0.68076
0.5977
0.5977
0.680866
0.369072
0.5977
0.534007
0.511836
0.597704
0.5977
0.702117
0.69264
0.591048
0.5977
0.5977
0.673354
0.525588
0.5977
0.5977
0.399113
0.5977
0.5977
0.680962
0.6808
0.691831
0.680877
0.692957
0.5977
0.49962
0.680714
0.680649
0.658931
0.681193
0.52049
0.5977
0.690722
0.5977
0.42397
0.5977
0.5977
0.5977
0.497021
0.597566
0.5977
0.504484
0.472011
0.690743
0.649844
0.680754
0.67824
0.444501
0.680967
0.5977
0.680981
0.680902
0.486172
0.5977
0.539543
0.475262
0.808393
0.450492
0.5977
0.683428
0.375139
0.5977
0.5977
0.703965
0.597507
0.681034
0.681059
0.59626
0.406044
0.5977
0.702384
0.367638
0.536793
0.672031
0.587181
0.699264
0.5977
0.5977
0.5977
0.662062
0.697826
0.5977
0.5977
0.5977
0.680785
0.5977
0.669387
0.516506
0.58502
0.5977
0.551685
0.5977
0.5977
0.708537
0.5977
0.5977
0.5977
0.680791
0.429665
0.597713
0.680837
0.680773
0.5977
0.554115
0.6809
0.536554
0.700455
0.597698
0.412715
0.5977
0.527243
0.5977
0.680756
0.680276
0.597699
0.52544
0.597704
0.5977
1.12656
0.680678
0.5977
0.680633
0.5977
0.668426
0.5977
0.5977
0.597695
0.486976
0.396335
0.70245
0.687111
0.691912
0.5977
0.680941
0.68118
0.410584
0.692405
0.68091
0.529922
0.5977
0.674273
0.5977
0.597704
0.372035
0.59259
0.53041
0.560875
0.689793
0.700785
0.5977
0.396545
0.59771
0.597712
1.12653
0.483279
0.5977
0.680762
0.512239
0.502672
0.538085
0.710088
0.68089
0.367936
0.597708
0.5977
0.5977
0.681025
0.5977
0.410096
0.680954
0.721961
0.5977
0.5977
0.703017
0.681018
0.553505
0.70787
0.68069
0.692329
0.680911
0.703601
0.5977
0.5977
0.5977
0.5977
0.482955
0.681057
0.680368
0.5977
0.5977
0.494866
0.367577
0.447051
0.680953
0.54173
0.367668
0.368078
0.415835
0.597507
0.680887
0.700624
0.593542
0.488975
0.681007
0.5977
0.368007
0.5977
0.69141
0.597703
0.597471
0.680827
0.589185
0.694035
0.527506
0.680798
0.5977
0.719148
0.693157
0.681053
0.530099
0.597698
0.5977
0.921963
0.68069
1.12621
0.680908
0.695014
0.508192
0.691696
0.69121
0.681203
0.382612
0.524731
0.680892
0.680645
0.680658
0.680791
0.5977
0.5977
0.370178
0.545491
0.5977
0.492486
0.610899
0.692598
0.5977
0.387964
0.681063
0.424684
0.597433
0.669422
0.381809
0.702833
0.690992
1.05651
0.597464
0.527231
1.08554
0.597702
0.66626
0.680672
0.370774
0.397373
0.556197
0.5977
0.549669
0.54244
0.577802
0.571958
0.68101
0.433766
0.693144
0.68819
0.398513
0.368687
0.419104
0.5977
0.56447
0.5977
0.5977
0.717154
0.378447
0.681003
0.5977
0.552324
0.503297
0.680889
0.680734
0.680973
0.415373
0.680715
0.5977
0.680344
0.692035
0.692916
0.691654
0.559383
0.680808
0.465124
0.680809
0.690789
0.5977
0.368109
0.576301
0.691013
0.419501
0.681333
0.690364
0.597711
0.5977
0.597579
0.407455
0.68093
0.58663
0.463739
0.67952
0.594565
0.5977
0.697831
0.595616
0.5977
0.387644
0.597702
0.57892
0.680966
0.597704
0.697806
0.596888
0.589765
0.681093
0.406852
0.680909
0.71826
0.59771
1.12675
0.407005
0.51756
0.680824
0.5977
0.5977
0.403399
0.532959
0.692389
0.688266
0.390592
0.689182
0.4457
0.521165
0.680831
0.697187
0.5977
0.367785
0.680849
0.672982
0.680705
0.68103
0.674911
0.5977
0.597711
0.482662
0.367945
0.680744
0.368008
0.5977
0.597712
0.546001
0.586967
0.5977
0.553079
0.401532
0.681057
0.542455
0.639402
0.5977
0.680742
0.5977
0.691855
0.521742
0.394596
0.5977
0.597549
0.680815
0.5977
0.680869
0.5977
0.597683
0.5977
0.704192
0.5977
0.5977
0.67873
0.5977
0.680908
0.597698
0.5977
0.5977
0.524208
0.5977
0.5977
0.421473
0.680832
1.06418
0.562521
0.367827
0.36806
0.400575
0.5977
0.443245
0.553454
0.680954
0.443571
0.5977
0.367576
0.680567
0.597096
0.59112
0.525843
0.680849
0.597704
0.367601
0.399883
0.36779
0.554863
0.39524
0.367856
0.551171
0.597695
0.367428
0.5977
0.587359
0.679193
0.5977
0.535085
0.597705
0.491344
0.367585
0.494304
0.680692
0.597711
0.5977
0.5977
0.437588
0.5977
0.701703
0.596047
0.5977
0.5977
0.5977
0.393683
0.727003
0.597705
0.631624
0.664717
0.571911
0.430891
0.719494
0.597706
0.595491
0.597704
0.5849
0.5977
0.595426
0.368579
0.497596
0.469268
0.5977
0.498797
0.448412
0.482789
0.46222
0.690012
0.689797
0.597699
0.5977
0.597701
0.709665
0.594618
0.435544
0.5977
0.575258
0.680566
0.571067
0.594033
0.5977
0.680938
0.701697
0.5977
0.597711
0.425386
0.5977
0.693317
0.680839
0.5977
0.635763
0.584664
0.367425
0.597619
0.5977
0.5977
0.580929
0.562241
0.5977
0.695103
0.5977
0.690675
0.698412
0.700257
0.597703
0.5977
0.680695
0.367842
0.681078
0.58102
0.502456
0.367586
0.689667
0.680519
0.573859
0.680761
0.5977
0.36812
0.680632
0.680734
0.627343
0.587255
0.430236
0.680352
0.367778
0.367777
0.501662
0.367485
0.681006
0.456546
0.689026
0.582535
0.63136
0.690866
0.681054
0.688697
0.367737
0.367897
0.680797
0.693517
0.5977
0.689917
0.69142
0.597707
0.402556
0.584421
0.681002
0.5977
0.368125
0.597706
0.54438
0.696914
0.680622
0.579013
0.539717
0.678957
0.596346
0.681034
0.5977
0.520932
0.589276
0.5977
0.973063
0.534164
0.702209
0.70058
0.680722
0.436321
1.12549
0.487045
0.767017
0.5977
0.367829
0.597269
0.544463
0.718951
0.552342
0.386158
0.597715
0.680571
0.679224
0.382836
0.542272
0.367372
0.680978
0.544862
0.680803
0.483589
0.5977
0.691163
0.5977
0.525381
0.516269
0.597707
0.586601
0.702594
0.425877
0.450998
0.680859
0.449532
0.680782
0.680572
0.677967
0.367993
0.680632
0.643738
0.692432
0.681042
0.700117
0.680731
0.509296
0.680815
0.59442
0.681102
0.371741
0.694365
0.5977
0.404591
0.674302
0.680545
0.41323
0.5977
0.536289
0.481735
0.680919
0.680838
0.542949
0.495265
0.378248
0.509935
0.697513
0.597704
0.43134
0.371198
0.680789
0.680469
0.5977
0.650436
0.680844
0.370649
0.695004
0.597712
0.690709
0.597714
0.5977
0.597708
0.680747
0.5977
0.5977
0.592086
0.58476
0.681101
0.5977
0.5977
0.623233
0.484784
0.59768
0.692716
0.589586
0.5977
0.680099
0.597712
0.679717
0.5977
0.575142
0.681934
0.5977
0.52815
0.669217
0.553246
0.693129
0.474718
0.680988
0.636859
0.595144
0.680582
0.601939
0.679923
0.5977
0.609515
0.5977
0.571947
0.5977
0.540242
0.472968
1.12682
0.5977
0.680698
0.686027
0.367973
0.576158
0.674589
0.691416
0.680938
0.691431
0.367672
0.5977
0.691098
0.368393
0.543416
0.680863
0.680935
0.678821
0.514682
0.5977
0.597706
0.620302
0.680899
0.680807
0.680799
0.368015
0.681078
0.686751
0.593133
0.680316
0.680506
0.59393
0.677773
0.367655
0.597701
0.691916
0.59771
0.595635
0.680766
0.691171
0.5977
0.597699
0.5977
0.5977
0.367807
0.367714
0.386215
0.367472
0.624003
0.597703
0.68068
0.575375
0.36758
0.680913
0.5977
0.460216
0.578442
0.597708
0.5977
0.680991
0.680955
0.597702
0.367581
0.367768
1.12556
0.535224
0.367771
0.431224
0.680768
0.597724
0.367636
0.5977
0.680876
0.712174
0.680694
0.681173
0.432158
0.464688
0.381158
0.5977
0.597711
0.530731
0.5977
0.5977
0.680741
0.680718
0.519567
0.367776
0.69091
0.367913
0.680525
0.653259
0.657659
0.543244
0.367842
0.696489
0.672325
0.5977
0.459747
0.680999
0.680839
0.5977
0.691872
0.692233
1.12211
0.604404
0.367817
0.681124
0.679127
0.5977
0.593445
1.12686
0.708694
1.11488
0.680621
0.448409
0.476926
0.367722
0.668746
0.5977
0.367914
0.676574
0.680373
0.533092
0.5977
0.597619
0.5977
0.5977
0.526487
0.691149
0.597702
0.368033
0.5977
0.673113
0.501743
0.699351
0.455142
0.513393
0.5977
0.5977
0.597705
0.680893
0.391809
0.614571
0.493293
0.523965
0.680877
0.368148
0.5977
0.542121
0.5977
0.5977
1.11498
0.701186
0.481445
0.456168
0.5977
0.5977
0.680914
0.5977
0.5977
0.68111
0.596882
0.5977
0.5977
0.709483
0.694715
0.680848
0.580422
0.367863
0.5977
0.708288
0.697662
0.597713
0.68069
0.5977
0.5977
0.54214
0.5977
0.5977
1.12601
0.736087
0.597703
0.597701
0.68084
0.5977
0.533385
0.5977
0.597708
0.694026
0.680945
0.570158
0.700253
0.689387
0.486711
0.51953
0.416523
1.12685
0.3716
0.5977
0.667927
0.5977
0.557778
0.680983
0.48234
0.5977
0.680632
0.680897
0.5977
0.680832
0.5977
0.5977
0.5977
0.681002
0.478098
0.680946
0.681032
0.5977
1.07555
0.596344
0.561607
0.48477
0.506099
0.692724
0.367943
1.09299
0.38127
0.694155
0.434219
0.597708
0.509965
0.600771
0.690853
0.5977
0.561294
0.5977
0.680927
0.367979
0.5977
0.689705
0.529043
0.5977
0.6643
0.691459
0.680541
0.577182
0.5977
0.680932
0.680847
0.597701
0.367768
0.597702
0.680897
1.12634
0.977646
1.12672
0.5977
0.680029
0.5977
0.681532
0.367824
0.485931
1.12663
0.688475
0.680538
0.451593
0.680986
0.5977
0.5977
0.474126
0.594463
0.689169
0.689237
0.5977
0.597712
0.680654
0.998407
0.389744
0.5977
0.597702
0.391247
0.534288
0.46771
0.715032
0.548282
0.367838
0.680964
0.5977
0.694629
0.5977
0.399101
0.399016
0.689892
0.479349
0.443858
0.671939
0.534201
0.596563
0.5977
0.700622
0.680621
0.367541
0.597718
0.374121
0.680174
0.519691
0.680664
0.44667
0.680082
0.699201
0.680875
0.6743
0.679722
0.679784
0.680907
0.688875
0.680633
0.451593
0.370761
0.663245
0.680798
0.597704
0.713836
0.5977
0.680879
0.5977
0.586849
0.680784
0.689896
0.681375
0.38721
0.680744
0.558976
0.680976
0.597707
0.5977
0.681031
0.528101
0.681179
0.367587
0.5977
0.62964
0.436879
0.5977
1.12689
0.6964
0.405127
0.680823
0.367505
0.541684
0.546946
0.368066
0.5977
0.48774
0.5977
0.68099
0.597712
0.555969
0.597708
0.5977
0.5977
0.597702
0.367938
0.42693
0.386789
0.506981
0.56007
0.5977
0.706506
0.593347
0.680558
0.671209
0.464134
0.690431
0.5977
0.680921
0.376173
0.842139
0.590763
0.679085
0.693775
0.498298
0.680029
0.680868
0.680517
0.5977
0.680584
0.544891
0.548813
0.680897
0.5977
0.367844
0.680857
0.530643
0.5977
0.5977
0.690365
0.684268
0.537359
0.715894
0.5977
0.387448
0.5977
0.680499
0.68548
0.688283
0.5977
0.542147
0.688679
0.501705
0.597705
0.689385
0.721142
0.680853
0.382679
0.549263
0.691267
0.553478
0.680828
0.5977
0.597712
0.5689
0.680749
0.540495
0.680927
0.681099
0.5977
0.542122
0.481673
0.5977
0.5977
0.5977
0.5977
0.680793
0.597459
0.679454
1.12684
0.679439
0.408543
0.565322
0.680524
0.680585
0.5977
0.59771
0.476137
0.597707
0.478885
0.680776
0.5977
0.597711
0.681065
0.367736
0.700196
0.528842
0.688543
0.522756
0.680775
0.680906
0.532587
0.700082
0.5977
0.538482
0.680892
0.681077
0.5977
0.486836
0.597712
0.5977
0.671202
0.597702
0.584168
0.5977
0.680458
0.680907
0.558941
0.5977
0.680827
0.595755
0.680862
0.680977
0.567197
0.680925
0.664343
0.51967
0.5977
0.390757
0.5977
0.398366
0.514139
0.686148
0.367825
0.36735
0.476413
0.681017
0.680748
0.597699
0.68065
0.597666
0.597703
0.367524
0.680551
0.597712
0.680953
0.681111
0.5977
0.680638
0.5977
0.68089
0.681046
0.563594
0.5977
0.5977
0.5977
0.679448
0.597707
0.5977
0.688866
0.36824
0.5977
0.597703
0.680849
0.449889
0.551088
0.597701
0.680901
0.368188
0.683751
0.5977
1.12693
0.691676
0.785384
0.367875
0.690911
0.367865
0.538377
0.700327
0.597704
0.693238
0.679139
0.524213
0.403983
0.376767
0.676161
0.681036
0.597704
0.699666
0.443111
0.404395
0.457044
0.70073
0.597715
0.689985
0.680842
0.5977
0.68078
0.68047
0.5977
0.5977
0.596332
0.536954
0.367989
0.787254
0.87135
0.457519
0.5977
0.714817
0.5977
0.570818
0.5977
0.596402
0.567961
0.597703
0.5977
0.3677
0.680499
0.65094
0.367819
0.68065
0.438902
0.680862
0.694542
0.68056
0.483107
0.59765
0.5977
0.571055
0.595216
0.681054
0.576783
0.680387
0.680896
0.70264
0.5977
0.597697
0.670274
0.5977
0.680909
0.584755
0.691293
0.507997
0.478183
0.680699
0.680927
0.680644
0.560799
0.680993
0.5977
0.822059
0.43259
0.443562
0.367679
0.684785
0.385492
0.449075
0.521591
0.5977
0.444922
0.569253
0.596835
0.680687
0.367664
0.680679
0.680919
0.67948
0.41061
0.680573
0.5977
0.68055
0.595405
0.5977
0.400399
0.368125
0.680683
0.368202
0.5977
0.673029
1.12262
0.367538
0.576838
0.408611
0.5977
1.1265
0.562571
0.680826
0.681009
0.5977
0.367834
0.498019
0.579838
0.597673
0.367855
1.12682
0.5977
0.680849
0.681045
0.369933
0.5977
0.512728
0.5977
0.5977
0.690957
0.5977
0.5977
0.5977
0.597701
0.687141
0.37974
0.597699
0.452215
0.5977
0.5977
0.744493
0.367554
0.597714
0.651568
0.680836
0.680601
0.36801
0.686379
0.5977
0.5977
0.597703
0.568914
0.367924
0.568705
0.680856
0.680805
0.5977
0.711463
0.579798
0.696581
0.5977
0.680748
0.680756
0.695719
0.690239
0.681034
0.597533
0.679608
0.580324
0.680539
0.691605
0.6805
0.680544
0.681025
0.5977
0.367855
0.527586
0.5977
0.367699
0.597711
0.692475
0.469295
0.5977
0.680987
0.671492
0.681306
0.571733
0.696309
0.548865
0.471088
0.68105
0.680256
0.680706
0.420243
0.689304
0.680904
0.5977
0.681083
0.522364
0.68048
0.69134
0.59794
0.5977
0.597704
0.370058
0.687661
0.445935
0.367863
0.5977
0.597709
0.691146
0.591007
0.680641
0.5137
0.680549
0.597699
0.475659
0.705267
0.597708
0.367754
0.680904
0.537785
0.597702
0.5977
0.589292
0.679529
0.597708
0.5977
0.5977
0.681
0.5977
0.686652
0.5977
0.692396
0.710968
0.5977
0.51466
0.374003
0.59771
0.684785
0.562338
0.5977
0.690744
0.5977
0.680897
0.5977
0.5977
0.5977
0.376927
0.67906
0.71966
0.5977
0.720405
0.689692
0.702515
0.680864
0.367804
0.46013
0.681183
0.5977
0.5977
0.68082
0.68095
0.680539
0.695886
0.696047
0.5977
0.597106
0.690594
0.464291
0.543236
0.455267
0.595018
1.08254
0.597699
0.5977
0.681041
0.5977
0.549239
0.681147
0.689044
0.426739
0.595646
1.0032
0.680886
0.589189
0.517034
0.503443
1.12688
0.703044
0.5977
0.4075
0.36779
0.527221
0.597613
0.367731
0.694908
0.681244
0.625946
0.382028
0.675593
0.5977
0.5977
0.579607
0.368131
0.704541
1.1264
0.367555
0.680695
0.367787
0.597703
0.576865
0.680906
0.384458
0.680609
0.68898
0.403896
0.5977
0.557861
0.690681
0.535906
0.5977
0.522759
0.5977
0.398285
0.5977
0.367785
0.680546
0.680728
0.5977
0.679376
0.584042
0.680485
0.680431
0.689188
0.5977
0.597704
0.367962
0.5977
0.453726
0.580783
0.567568
0.689292
0.5977
0.597703
0.691431
0.5977
0.67987
0.477387
0.465007
0.462843
0.5977
0.5977
0.680846
0.376308
0.536243
0.680785
0.589524
0.537329
0.5977
0.596861
0.367498
0.525241
0.692967
0.5977
0.5977
0.500797
0.680137
0.680638
0.527072
0.579153
0.681073
0.681079
0.5977
0.5977
0.592871
0.584785
0.405355
0.697591
0.5977
0.5977
0.5977
0.500099
0.5977
0.368326
0.67868
0.68863
0.367843
0.550438
0.5977
0.5977
0.688417
0.681959
0.686326
0.694358
0.689851
0.423343
0.530086
0.457936
0.36985
0.5977
0.668307
0.5977
0.367711
0.367975
0.5977
0.53257
0.680687
0.591314
0.367823
0.578668
0.681073
0.533861
0.5977
0.670906
0.680787
0.680812
0.5977
0.367884
0.393508
0.597632
0.367821
0.5977
0.597699
0.680688
0.680995
0.561313
0.367624
1.12655
0.36817
0.680647
0.579979
0.367564
0.489667
0.43044
0.680789
0.433744
1.12695
0.58929
0.5977
0.523068
0.5977
0.67959
0.681137
0.385005
0.681086
0.5977
0.541402
0.680913
0.690538
0.379698
0.36795
0.703968
0.369744
0.369945
0.680829
0.582477
0.680661
0.5977
0.597658
0.5977
0.688117
0.6809
0.680628
0.379166
0.593012
0.5977
0.680911
0.597625
0.69088
0.588441
0.680646
0.679246
0.5977
0.5977
0.5977
0.597705
0.680979
0.680673
0.712144
0.689532
0.681112
1.12153
0.692009
1.12679
0.700284
0.704369
0.695841
1.12669
0.680729
0.542219
0.703854
0.557225
0.680791
0.680637
0.590981
0.680135
0.5977
0.481048
0.407748
0.574335
0.38051
0.679686
0.377166
0.379629
0.597701
0.517375
0.597697
0.401168
0.680392
0.680425
0.367871
0.58901
0.597712
0.679762
0.495239
0.680847
0.681369
0.415956
0.705647
0.5977
0.597698
0.58387
0.527698
0.5977
0.367968
0.679132
0.5977
0.565493
0.680494
0.680874
0.683457
0.367786
0.5977
0.524325
0.675911
0.680917
0.680746
0.367654
0.680619
0.680781
0.715219
0.597712
0.679221
0.367897
0.367348
0.689252
0.597698
0.692865
0.5977
0.367611
0.597691
0.706145
0.556479
0.543229
0.478412
0.5977
0.710972
0.681018
0.465576
0.5977
0.680928
0.5977
0.5977
0.597711
0.5977
0.367802
0.367636
0.680818
0.367234
0.367822
0.692074
0.689996
0.431062
0.5977
0.426797
1.0811
0.595618
0.703403
0.680676
0.5977
0.680428
0.503304
0.367534
0.540535
0.681025
0.705917
0.5977
0.5977
0.586925
0.571129
0.680847
0.376561
0.680744
0.587664
0.680821
0.5977
0.401754
0.511451
0.367654
0.36763
0.528488
0.5977
0.679616
0.382108
0.680525
0.5977
0.572593
0.479463
0.689715
0.367723
0.680533
0.595095
0.5977
0.5977
0.680511
0.694259
0.46702
0.694618
0.680566
0.69242
0.36778
0.597702
0.5977
0.597712
0.688148
0.5977
0.695053
0.680928
0.690166
0.696856
0.691272
0.680517
0.681065
0.367777
0.601039
0.367823
0.5977
0.681177
0.538154
0.680887
0.588249
0.530014
0.717711
0.367825
0.537802
0.699522
0.597702
0.690011
0.367745
0.681019
0.5977
0.588999
0.382953
0.700805
0.680614
0.593477
0.491864
0.618308
0.689787
0.368032
0.5977
0.688644
0.5977
0.42109
0.367823
0.531122
0.5977
0.524625
0.681313
0.5977
0.680706
0.5977
0.680698
0.367646
0.686978
0.5977
0.688938
0.5977
0.554718
0.382052
0.507122
0.597706
0.680709
0.593977
0.5977
0.597716
0.5977
0.680836
0.489048
0.5977
0.681292
0.5977
0.388209
0.394527
0.59685
0.681176
0.69169
0.5977
0.5977
0.681027
0.36752
0.5977
0.985935
0.680459
0.392309
0.5977
0.535457
0.659804
0.517785
0.68072
0.69943
0.495028
0.680973
0.5977
1.12602
0.5977
1.12679
0.693694
0.597699
0.680829
0.680897
0.680632
0.680802
0.597703
1.01884
0.444653
0.680751
0.502043
0.368016
0.517035
0.522907
0.367764
0.386767
0.689577
0.585899
0.454567
0.5977
0.680985
0.680486
0.5977
0.5977
0.5977
0.680748
0.553948
0.5977
0.680953
0.567687
0.504013
0.367567
0.5977
0.597703
0.367556
0.5977
0.521835
0.705184
0.597705
0.4191
0.597709
0.5977
0.596871
0.680576
0.490769
0.5977
0.592855
0.696904
0.597625
0.5977
0.981283
0.720841
0.5977
0.368169
0.698303
0.689749
0.508531
0.541827
0.681141
0.367882
0.597703
0.381582
0.5977
0.505092
0.680879
0.531908
0.689663
0.36792
0.680894
0.680529
0.686618
1.08857
0.442441
0.530898
0.5977
0.702032
0.597701
0.70997
0.5977
0.53141
0.678318
0.597707
0.706455
0.597701
0.5977
0.567133
0.667702
0.680486
0.519048
0.679614
0.697236
0.678014
0.597361
0.494886
0.5977
0.367575
0.68049
0.528577
0.680717
0.707131
0.700233
0.690031
0.570043
0.689699
0.367778
0.383431
0.680782
1.04572
0.5977
0.681267
1.0734
0.367615
0.5977
0.697773
0.692207
0.541983
0.59771
0.5977
0.381253
0.680674
0.695283
0.680658
0.695487
0.566716
0.5977
0.5977
0.50305
0.678999
0.689797
0.5977
0.700337
0.561816
0.597651
0.5977
0.5977
0.699802
0.394765
0.558707
0.680758
0.680719
0.520348
0.591077
0.520067
0.521285
0.453329
0.535279
0.5785
0.367783
0.680717
0.499619
0.421632
0.603481
0.5977
1.12628
0.597699
0.36758
0.680893
0.5977
0.5977
0.691838
0.597053
0.5977
0.680927
0.5977
0.680398
0.491167
0.680963
0.680924
0.430235
0.367375
0.5977
0.591229
0.5977
0.690229
0.680753
0.680752
0.681001
0.5977
0.680852
0.680921
0.70029
0.368044
0.680925
0.5977
0.597699
0.597711
0.429151
0.513231
0.45584
0.5977
0.5977
0.665188
0.367617
0.590917
0.688807
0.531574
0.681452
0.680811
0.680793
0.5977
0.680926
0.56229
0.517941
0.508986
0.5977
0.523811
0.68106
0.509193
0.680692
0.680723
0.680511
0.588271
0.5977
0.597698
0.680384
0.476074
0.368002
0.696435
0.680557
0.5977
0.680856
0.701719
0.597703
0.367906
0.5977
0.687752
0.5977
0.680426
0.679086
0.596038
0.596222
0.594174
0.692325
0.597705
0.5977
0.367236
0.589943
0.680988
0.5977
0.524845
0.664253
0.5977
0.683977
0.680821
0.367917
0.368106
0.669558
0.5977
0.5977
0.680762
0.700598
0.539407
0.680944
0.657181
0.680415
0.367801
0.5977
0.367929
0.68055
0.688521
0.597704
0.619068
0.670279
0.572679
0.597688
0.68016
0.367715
0.5977
0.557578
0.680708
0.480503
0.5977
0.687923
0.670566
0.367832
1.12685
0.832869
0.368886
0.591991
0.526552
0.692565
0.367853
0.393612
0.491749
0.595011
0.680595
0.577951
0.573559
0.702239
0.689113
0.597703
0.5977
0.36781
0.5977
0.367895
0.677126
0.367789
0.5977
0.69836
0.595604
0.5977
0.389124
0.680629
0.441942
0.368342
0.694101
0.558289
0.597702
0.5977
0.489904
0.689855
0.665482
0.700382
0.5977
0.555576
0.5977
0.541957
0.36745
0.68051
0.680746
0.596134
0.367677
0.59753
0.5977
0.691552
0.5977
0.691599
0.5977
0.599785
0.590208
0.691074
0.690328
0.5977
0.690745
0.53891
0.592334
0.368115
0.533406
0.523026
0.367539
0.691659
0.680886
0.690824
0.674572
0.680315
0.585136
0.5977
0.56026
0.50119
0.369426
0.513542
0.367411
0.680964
0.68072
0.36855
0.482208
0.680607
0.567839
0.597699
0.670282
0.5977
0.5977
0.5977
0.658591
0.597699
0.680794
0.681013
0.706423
0.689983
0.5977
0.687076
0.680764
0.544085
0.472613
0.676685
0.597173
0.548779
0.573332
0.367233
0.5977
0.667573
0.597362
0.5977
0.518724
0.588732
0.5977
0.588002