# vtk DataFile Version 1.0
unstructured grid
ascii
DATASET UNSTRUCTURED_GRID
points 13672 float
0.0796578 -0.059106 0
0.00128732 0.00159165 0
0.00227961 -0.00102548 0
0.0791586 -0.0598787 0
-0.0546216 0.01 0
0.000495206 0.025 0
0.0800549 -0.035 0
0.135172 -0.08 0
-0.0546216 -0.0451168 0
0.000495206 -0.0301168 0
0.0800549 -0.0901168 0
0.135172 -0.135117 0
-0.0546216 -0.0451168 -0.00551168
0.000495206 -0.0301168 -0.00551168
0.0800549 -0.0901168 -0.00551168
0.135172 -0.135117 -0.00551168
0.135172 -0.08 -0.00551168
0.0800549 -0.035 -0.00551168
0.000495206 0.025 -0.00551168
-0.0546216 0.01 -0.00551168
0.00128732 0.00159165 -0.00551168
0.00227961 -0.00102548 -0.00551168
0.0791586 -0.0598787 -0.00551168
0.0796578 -0.059106 -0.00551168
0.00165953 -0.000990923 0
0.00119576 -0.000874076 0
0.000866021 -0.000641801 0
0.000645147 -0.000349912 0
0.00052235 -1.7281e-05 0
0.00049972 0.000348016 0
0.000601632 0.000737716 0
0.000861774 0.0011403 0
0.00157235 0.00183217 0
0.00188647 0.00206725 0
0.00222612 0.00230203 0
0.00258713 0.00254351 0
0.00296826 0.00279524 0
0.00337118 0.00305664 0
0.00379785 0.00332658 0
0.00425045 0.00360349 0
0.00473139 0.00388521 0
0.0052432 0.00416895 0
0.0057881 0.00445204 0
0.00636753 0.00473281 0
0.00698281 0.00500961 0
0.00763526 0.00528058 0
0.00832616 0.00554366 0
0.00905691 0.00579603 0
0.00982918 0.00603333 0
0.0106445 0.00625033 0
0.0115038 0.00644128 0
0.0124073 0.00660297 0
0.0133543 0.00673414 0
0.0143444 0.00683382 0
0.0153769 0.00690031 0
0.0164512 0.00693173 0
0.0175666 0.00692547 0
0.0187219 0.00687822 0
0.0199156 0.00678477 0
0.0211454 0.00663864 0
0.0224084 0.00643275 0
0.0237018 0.00616676 0
0.0250249 0.00584739 0
0.026375 0.00547298 0
0.0277479 0.00503752 0
0.0291386 0.00453545 0
0.0305433 0.0039653 0
0.0319572 0.0033256 0
0.0333681 0.00260019 0
0.034775 0.00179799 0
0.0361793 0.000930615 0
0.0375798 3.12222e-06 0
0.0389689 -0.000988429 0
0.0403357 -0.00205109 0
0.041675 -0.00318283 0
0.0429849 -0.00437751 0
0.0442643 -0.00562904 0
0.0455126 -0.00693089 0
0.0467314 -0.00827518 0
0.0479204 -0.00965638 0
0.0490661 -0.0110799 0
0.0501515 -0.0125519 0
0.0511696 -0.0140695 0
0.0521492 -0.0156071 0
0.0531202 -0.0171411 0
0.0540851 -0.0186663 0
0.0550431 -0.0201798 0
0.0559923 -0.0216793 0
0.0569311 -0.0231626 0
0.0578582 -0.0246273 0
0.0587723 -0.0260715 0
0.0596721 -0.027493 0
0.0605563 -0.02889 0
0.0614241 -0.0302609 0
0.0622742 -0.0316042 0
0.063106 -0.0329183 0
0.0639186 -0.034202 0
0.0647113 -0.0354543 0
0.0654835 -0.0366743 0
0.0662345 -0.0378613 0
0.0669642 -0.0390145 0
0.0676726 -0.0401333 0
0.0683597 -0.0412172 0
0.0690246 -0.0422665 0
0.0696662 -0.0432819 0
0.0702841 -0.0442636 0
0.0708793 -0.0452111 0
0.0714538 -0.0461237 0
0.072009 -0.047001 0
0.0725452 -0.0478434 0
0.0730611 -0.0486524 0
0.073556 -0.0494294 0
0.0740291 -0.0501756 0
0.0744812 -0.0508916 0
0.0749138 -0.0515773 0
0.0753285 -0.0522331 0
0.0757266 -0.0528592 0
0.076109 -0.0534564 0
0.0764753 -0.0540264 0
0.0768243 -0.054571 0
0.0771553 -0.0550919 0
0.0774679 -0.0555901 0
0.0777617 -0.0560669 0
0.0780369 -0.056523 0
0.0782958 -0.0569578 0
0.0785421 -0.0573703 0
0.0787786 -0.0577603 0
0.0790073 -0.0581279 0
0.0792295 -0.058474 0
0.0794462 -0.0587995 0
0.0798803 -0.0594162 0
0.0800272 -0.0596588 0
0.0800357 -0.0598891 0
0.0799275 -0.0600784 0
0.0797205 -0.0601773 0
0.0794593 -0.0601051 0
0.0789155 -0.0596491 0
0.0786707 -0.0593963 0
0.0784111 -0.0591319 0
0.0781372 -0.0588542 0
0.0778566 -0.0585548 0
0.0775715 -0.0582308 0
0.0772803 -0.0578828 0
0.0769832 -0.0575099 0
0.0766822 -0.0571097 0
0.0763801 -0.0566796 0
0.0760759 -0.0562196 0
0.0757623 -0.0557337 0
0.0754359 -0.0552232 0
0.0750951 -0.0546879 0
0.0747379 -0.054128 0
0.0743626 -0.0535435 0
0.0739688 -0.0529338 0
0.0735559 -0.0522981 0
0.0731238 -0.0516357 0
0.0726718 -0.050946 0
0.0721991 -0.0502288 0
0.0717046 -0.049484 0
0.0711872 -0.0487117 0
0.0706461 -0.047912 0
0.0700804 -0.0470849 0
0.0694892 -0.0462308 0
0.0688718 -0.0453499 0
0.0682271 -0.0444431 0
0.0675544 -0.043511 0
0.0668527 -0.0425546 0
0.0661215 -0.0415748 0
0.06536 -0.040573 0
0.0645676 -0.0395504 0
0.0637439 -0.0385087 0
0.0628887 -0.0374493 0
0.062002 -0.0363741 0
0.0610838 -0.0352847 0
0.0601345 -0.0341831 0
0.0591547 -0.033071 0
0.0581456 -0.0319502 0
0.0571083 -0.0308224 0
0.0560444 -0.0296893 0
0.0549562 -0.028552 0
0.053845 -0.0274126 0
0.0527113 -0.0262746 0
0.051554 -0.0251427 0
0.0503724 -0.0240222 0
0.0491675 -0.0229164 0
0.047941 -0.0218282 0
0.0466955 -0.0207597 0
0.0454337 -0.0197126 0
0.0441592 -0.0186878 0
0.0428751 -0.0176863 0
0.0415841 -0.0167097 0
0.0402878 -0.0157609 0
0.0389879 -0.0148428 0
0.0376864 -0.0139575 0
0.0363853 -0.013107 0
0.0350871 -0.0122931 0
0.0337942 -0.0115164 0
0.0325095 -0.0107772 0
0.0312357 -0.0100756 0
0.0299758 -0.00941024 0
0.0287337 -0.00877784 0
0.0275126 -0.00817571 0
0.0263139 -0.00760375 0
0.0251376 -0.00706528 0
0.0239829 -0.0065649 0
0.0228537 -0.00609619 0
0.0217522 -0.00565563 0
0.0206795 -0.00524226 0
0.0196364 -0.00485507 0
0.0186233 -0.00449318 0
0.0176408 -0.00415577 0
0.016689 -0.00384204 0
0.0157682 -0.00355115 0
0.0148783 -0.00328218 0
0.0140192 -0.00303468 0
0.0131906 -0.00280795 0
0.0123925 -0.00260016 0
0.0116246 -0.00241012 0
0.0108864 -0.00223769 0
0.0101774 -0.00208212 0
0.00949701 -0.00194206 0
0.00884483 -0.0018163 0
0.0082202 -0.0017039 0
0.00762247 -0.00160391 0
0.00705097 -0.00151528 0
0.006505 -0.00143697 0
0.0059838 -0.00136806 0
0.00548662 -0.00130772 0
0.00501265 -0.00125519 0
0.00456114 -0.00120954 0
0.00413136 -0.00116914 0
0.00372257 -0.00113251 0
0.00333398 -0.00109853 0
0.00296466 -0.00106798 0
0.00261363 -0.0010431 0
-0.052721 -0.0445996 0
-0.0508204 -0.0440823 0
-0.0489199 -0.0435651 0
-0.0470193 -0.0430478 0
-0.0451187 -0.0425306 0
-0.0432181 -0.0420134 0
-0.0413175 -0.0414961 0
-0.039417 -0.0409789 0
-0.0375164 -0.0404616 0
-0.0356158 -0.0399444 0
-0.0337152 -0.0394271 0
-0.0318146 -0.0389099 0
-0.0299141 -0.0383927 0
-0.0280135 -0.0378754 0
-0.0261129 -0.0373582 0
-0.0242123 -0.0368409 0
-0.0223117 -0.0363237 0
-0.0204112 -0.0358065 0
-0.0185106 -0.0352892 0
-0.01661 -0.034772 0
-0.0147094 -0.0342547 0
-0.0128088 -0.0337375 0
-0.0109083 -0.0332202 0
-0.00900769 -0.032703 0
-0.00710711 -0.0321858 0
-0.00520653 -0.0316685 0
-0.00330595 -0.0311513 0
-0.00140537 -0.030634 0
0.00190689 -0.0299614 0
0.00332271 -0.0298498 0
0.00474133 -0.0297825 0
0.00616136 -0.0297597 0
0.0075814 -0.0297814 0
0.00900007 -0.0298477 0
0.010416 -0.0299583 0
0.0118278 -0.0301127 0
0.0132342 -0.0303103 0
0.0146339 -0.0305504 0
0.0160259 -0.0308322 0
0.0174091 -0.0311546 0
0.0187824 -0.0315166 0
0.020145 -0.031917 0
0.0214961 -0.0323546 0
0.0228351 -0.032828 0
0.0241613 -0.0333361 0
0.0254744 -0.0338774 0
0.0267738 -0.0344507 0
0.0280592 -0.0350545 0
0.0293306 -0.0356877 0
0.0305875 -0.0363488 0
0.0318301 -0.0370367 0
0.0330581 -0.0377501 0
0.0342717 -0.0384879 0
0.0354708 -0.0392489 0
0.0366556 -0.0400321 0
0.0378262 -0.0408363 0
0.0389828 -0.0416607 0
0.0401254 -0.0425042 0
0.0412543 -0.0433659 0
0.0423698 -0.0442451 0
0.043472 -0.0451408 0
0.0445612 -0.0460523 0
0.0456375 -0.0469789 0
0.0467013 -0.0479199 0
0.0477529 -0.0488746 0
0.0487923 -0.0498424 0
0.04982 -0.0508227 0
0.0508362 -0.051815 0
0.051841 -0.0528187 0
0.0528348 -0.0538333 0
0.0538178 -0.0548584 0
0.0547903 -0.0558935 0
0.0557524 -0.0569382 0
0.0567045 -0.0579922 0
0.0576467 -0.0590549 0
0.0585792 -0.0601261 0
0.0595024 -0.0612055 0
0.0604163 -0.0622926 0
0.0613212 -0.0633873 0
0.0622174 -0.0644891 0
0.0631049 -0.0655979 0
0.0639841 -0.0667134 0
0.064855 -0.0678353 0
0.0657179 -0.0689633 0
0.0665729 -0.0700974 0
0.0674202 -0.0712372 0
0.06826 -0.0723826 0
0.0690925 -0.0735333 0
0.0699178 -0.0746892 0
0.070736 -0.0758501 0
0.0715473 -0.0770159 0
0.0723518 -0.0781863 0
0.0731498 -0.0793612 0
0.0739412 -0.0805405 0
0.0747264 -0.081724 0
0.0755053 -0.0829116 0
0.0762781 -0.0841033 0
0.0770449 -0.0852987 0
0.0778059 -0.0864979 0
0.0785611 -0.0877007 0
0.0793108 -0.088907 0
0.0814681 -0.0912706 0
0.0828814 -0.0924245 0
0.0842946 -0.0935783 0
0.0857079 -0.0947322 0
0.0871211 -0.095886 0
0.0885344 -0.0970399 0
0.0899476 -0.0981937 0
0.0913609 -0.0993476 0
0.0927741 -0.100501 0
0.0941874 -0.101655 0
0.0956006 -0.102809 0
0.0970139 -0.103963 0
0.0984272 -0.105117 0
0.0998404 -0.106271 0
0.101254 -0.107424 0
0.102667 -0.108578 0
0.10408 -0.109732 0
0.105493 -0.110886 0
0.106907 -0.11204 0
0.10832 -0.113194 0
0.109733 -0.114348 0
0.111146 -0.115501 0
0.11256 -0.116655 0
0.113973 -0.117809 0
0.115386 -0.118963 0
0.116799 -0.120117 0
0.118213 -0.121271 0
0.119626 -0.122424 0
0.121039 -0.123578 0
0.122452 -0.124732 0
0.123866 -0.125886 0
0.125279 -0.12704 0
0.126692 -0.128194 0
0.128105 -0.129348 0
0.129519 -0.130501 0
0.130932 -0.131655 0
0.132345 -0.132809 0
0.133758 -0.133963 0
0.135172 -0.133216 0
0.135172 -0.131316 0
0.135172 -0.129415 0
0.135172 -0.127514 0
0.135172 -0.125614 0
0.135172 -0.123713 0
0.135172 -0.121813 0
0.135172 -0.119912 0
0.135172 -0.118012 0
0.135172 -0.116111 0
0.135172 -0.11421 0
0.135172 -0.11231 0
0.135172 -0.110409 0
0.135172 -0.108509 0
0.135172 -0.106608 0
0.135172 -0.104708 0
0.135172 -0.102807 0
0.135172 -0.100906 0
0.135172 -0.0990058 0
0.135172 -0.0971052 0
0.135172 -0.0952046 0
0.135172 -0.0933041 0
0.135172 -0.0914035 0
0.135172 -0.0895029 0
0.135172 -0.0876023 0
0.135172 -0.0857017 0
0.135172 -0.0838012 0
0.135172 -0.0819006 0
0.133758 -0.0788462 0
0.132345 -0.0776923 0
0.130932 -0.0765385 0
0.129519 -0.0753846 0
0.128105 -0.0742308 0
0.126692 -0.0730769 0
0.125279 -0.0719231 0
0.123866 -0.0707692 0
0.122452 -0.0696154 0
0.121039 -0.0684615 0
0.119626 -0.0673077 0
0.118213 -0.0661538 0
0.116799 -0.065 0
0.115386 -0.0638462 0
0.113973 -0.0626923 0
0.11256 -0.0615385 0
0.111146 -0.0603846 0
0.109733 -0.0592308 0
0.10832 -0.0580769 0
0.106907 -0.0569231 0
0.105493 -0.0557692 0
0.10408 -0.0546154 0
0.102667 -0.0534615 0
0.101254 -0.0523077 0
0.0998404 -0.0511538 0
0.0984272 -0.05 0
0.0970139 -0.0488462 0
0.0956006 -0.0476923 0
[...]
CELL_DATA 13116
SCALARS rho float
LOOKUP_TABLE default
0.5977
0.680689
0.484953
0.688462
0.69043
0.680936
0.376126
0.691815
0.5977
0.69299
0.367638
0.48689
0.690633
0.434137
0.451162
0.680963
0.5977
0.718554
0.680815
0.367732
0.5977
0.490678
0.464002
0.704243
0.5977
0.692515
0.693242
0.521886
0.5977
0.5977
0.668867
0.473841
0.5977
0.597706
0.380738
0.5977
0.597697
0.680017
0.680708
0.69218
0.680756
0.691872
0.5977
0.462201
0.680872
0.680728
0.698724
0.681075
0.47923
0.5977
0.690272
0.5977
0.399769
0.5977
0.5977
0.5977
0.460059
0.695433
0.5977
0.465467
0.437201
0.691333
0.698606
0.680704
0.669719
0.416472
0.680111
0.597702
0.68214
0.676966
0.450644
0.5977
0.495388
0.442034
0.96362
0.421467
0.592128
0.68817
0.368317
0.611402
0.66595
0.69376
0.699493
0.680937
0.696318
0.56747
0.385821
0.5977
0.694301
0.367884
0.482781
0.680719
0.698985
0.693739
0.5977
0.5977
0.5977
0.726796
0.802588
0.5977
0.5977
0.648836
0.680658
0.597712
0.692857
0.472149
0.543831
0.5977
0.495498
0.5977
0.5977
0.693239
0.5977
0.632052
0.638776
0.688417
0.404305
0.563795
0.687273
0.68926
0.5977
0.507979
0.685757
0.48332
0.694168
0.59439
0.390875
0.597703
0.48365
0.597699
0.687433
0.680317
0.594202
0.483442
0.588822
0.5977
1.12692
0.687879
0.5977
0.689593
0.597705
0.698912
0.597702
0.597701
0.680063
0.446529
0.378861
0.693283
0.690929
0.691112
0.597701
0.68084
0.681278
0.389358
0.69309
0.695786
0.473296
0.5977
0.744901
0.5977
0.703732
0.367625
0.694439
0.475612
0.513865
0.690343
0.694037
0.716343
0.378926
0.579772
0.566914
1.12682
0.448103
0.597704
0.683284
0.46324
0.464333
0.494155
0.692595
0.68064
0.367836
0.582736
0.5977
0.597705
0.680757
0.5977
0.389049
0.680873
0.691487
0.597711
0.5977
0.693231
0.680395
0.483342
0.692234
0.680735
0.695279
0.680959
0.69443
0.597709
0.597707
0.5977
0.597705
0.447757
0.687503
0.68098
0.5977
0.5977
0.456484
0.367901
0.418693
0.680708
0.478693
0.367874
0.367495
0.393414
0.558048
0.680684
0.694394
0.562975
0.453366
0.680169
0.5977
0.36785
0.597702
0.691509
0.679606
0.522967
0.681793
0.5527
0.691848
0.474851
0.68052
0.5977
0.863745
0.693791
0.680751
0.486525
0.594044
0.5977
1.05472
0.68069
1.12683
0.680618
0.692009
0.468934
0.689052
0.692118
0.774801
0.370872
0.482795
0.680713
0.687452
0.677598
0.68451
0.5977
0.597292
0.367438
0.50033
0.589381
0.454306
0.69211
0.695511
0.591526
0.373708
0.689503
0.400479
0.565744
0.693273
0.370694
0.693004
0.690504
1.1072
0.69477
0.484146
1.11595
0.678765
0.742686
0.687924
0.367696
0.379584
0.483391
0.5977
0.504114
0.497902
0.535389
0.524259
0.687124
0.407598
0.694124
0.689421
0.380441
0.367686
0.396019
0.589749
0.51667
0.5977
0.597701
0.692719
0.369387
0.680694
0.5977
0.505777
0.464576
0.680778
0.687527
0.680992
0.393158
0.680706
0.597713
0.680155
0.691533
0.690893
0.691504
0.485142
0.680055
0.432639
0.68065
0.691867
0.5977
0.367739
0.533849
0.691493
0.396306
0.699266
0.691145
0.574852
0.597701
0.699048
0.386916
0.688822
0.699551
0.43065
0.687549
0.565926
0.5977
0.694367
0.567771
0.5977
0.373514
0.704659
0.538571
0.68065
0.691681
0.695296
0.518033
0.54632
0.695989
0.386543
0.68692
0.691566
0.580472
1.12707
0.386756
0.476867
0.686815
0.5977
0.597707
0.383895
0.475717
0.688949
0.689439
0.375155
0.689075
0.417226
0.476809
0.690402
0.693886
0.5977
0.36789
0.687898
0.664327
0.681008
0.694693
0.689422
0.5977
0.57552
0.446576
0.367965
0.68107
0.36792
0.5977
0.574046
0.483059
0.543027
0.5977
0.470213
0.382616
0.696168
0.491574
0.694342
0.5977
0.680925
0.5977
0.689228
0.480428
0.377788
0.597708
0.55658
0.68657
0.5977
0.680694
0.5977
0.680423
0.5977
0.693856
0.5977
0.5977
0.687979
0.590501
0.680902
0.592412
0.5977
0.5977
0.482369
0.597701
0.5977
0.397836
0.684276
1.11654
0.486512
0.367961
0.367667
0.381998
0.5977
0.415374
0.482971
0.680941
0.415834
0.5977
0.367954
0.680792
0.681258
0.540205
0.483782
0.686651
0.58715
0.367792
0.381476
0.367752
0.495244
0.378214
0.36796
0.505381
0.568213
0.367539
0.655904
0.5384
0.695036
0.597682
0.483178
0.588867
0.449657
0.367942
0.451482
0.692045
0.574858
0.5977
0.5977
0.410932
0.5977
0.694146
0.566317
0.597701
0.5977
0.5977
0.377129
0.857652
0.563987
0.69241
0.688983
0.491974
0.405306
0.692004
0.56231
0.567079
0.692553
0.543141
0.5977
0.678131
0.367852
0.460069
0.436556
0.597705
0.460869
0.419088
0.447772
0.430256
0.689738
0.690028
0.592011
0.5977
0.590918
0.692151
0.549516
0.409155
0.5977
0.493721
0.680872
0.525319
0.551963
0.592886
0.680846
0.693828
0.5977
0.575338
0.400833
0.597699
0.691585
0.680769
0.5977
0.694675
0.691144
0.367723
0.680784
0.5977
0.5977
0.532935
0.514815
0.613418
0.695346
0.5977
0.691516
0.694922
0.694039
0.703173
0.5977
0.680825
0.368178
0.680616
0.542016
0.462881
0.368083
0.689201
0.680884
0.528863
0.696051
0.5977
0.367671
0.680632
0.687553
0.686177
0.520077
0.404848
0.687642
0.367721
0.367841
0.458499
0.367808
0.680779
0.425299
0.68827
0.533372
0.681657
0.690223
0.680296
0.690115
0.367778
0.367882
0.680613
0.691326
0.596568
0.689939
0.692485
0.58361
0.3833
0.49882
0.680721
0.5977
0.367607
0.585843
0.482989
0.693942
0.680708
0.531273
0.495547
0.6955
0.569901
0.693976
0.5977
0.478844
0.552189
0.597387
1.06689
0.478757
0.693572
0.69402
0.680767
0.409805
1.12657
0.451751
0.922949
0.5977
0.367888
0.556389
0.499627
0.847951
0.498344
0.37262
0.566764
0.680532
0.684937
0.370986
0.497089
0.368088
0.680774
0.499985
0.680676
0.444264
0.5977
0.691441
0.597607
0.472656
0.466961
0.584418
0.501386
0.693439
0.401482
0.421739
0.680903
0.420456
0.680818
0.698886
0.779729
0.367691
0.680559
0.695624
0.695402
0.68066
0.694726
0.690823
0.461334
0.679667
0.564529
0.680604
0.36788
0.691711
0.5977
0.384677
0.658457
0.690214
0.391389
0.5977
0.481721
0.447014
0.680832
0.692106
0.484512
0.451956
0.369237
0.462214
0.694225
0.706177
0.405767
0.368057
0.686641
0.688135
0.5977
0.69564
0.680788
0.367491
0.694288
0.570084
0.690088
0.572079
0.5977
0.583495
0.680638
0.597707
0.5977
0.545728
0.512462
0.680864
0.5977
0.5977
0.695367
0.448094
0.679913
0.693266
0.555895
0.5977
0.696181
0.568813
0.670132
0.5977
0.532859
0.69007
0.5977
0.486041
0.682982
0.482207
0.694994
0.441551
0.680681
0.703347
0.510602
0.680806
0.694846
0.687848
0.5977
0.680733
0.5977
0.523888
0.597714
0.487607
0.440092
1.12694
0.597701
0.688979
0.690256
0.367922
0.52761
0.680445
0.690938
0.686464
0.690641
0.368028
0.587537
0.691749
0.367748
0.485312
0.687176
0.680736
0.695914
0.467593
0.5977
0.54679
0.680497
0.697651
0.680536
0.68114
0.367687
0.680855
0.694418
0.700121
0.692432
0.680789
0.563992
0.68869
0.36791
0.689432
0.692278
0.58025
0.679555
0.680766
0.690197
0.5977
0.589512
0.5977
0.5977
0.367753
0.36793
0.372882
0.367586
0.681469
0.679802
0.680889
0.52741
0.367397
0.680508
0.5977
0.427917
0.529891
0.584523
0.589577
0.680953
0.694918
0.684925
0.367951
0.367783
1.12658
0.48266
0.367805
0.405804
0.680638
0.544389
0.367747
0.5977
0.681194
0.692053
0.680962
0.680834
0.406236
0.432814
0.370471
0.5977
0.574713
0.477191
0.597704
0.677645
0.69785
0.680913
0.470902
0.367792
0.691961
0.367838
0.680796
0.704731
0.6754
0.484346
0.367787
0.695345
0.661297
0.5977
0.427658
0.695835
0.681061
0.5977
0.690753
0.690832
1.12593
0.695054
0.36801
0.680738
0.670749
0.597705
0.680203
1.12707
0.693514
1.12482
0.688656
0.419658
0.443035
0.367799
0.652748
0.5977
0.367755
0.680716
0.686976
0.485037
0.5977
0.54981
0.5977
0.5977
0.484191
0.691064
0.707132
0.367665
0.597704
0.66017
0.463721
0.693872
0.425206
0.469749
0.5977
0.5977
0.588949
0.680783
0.376118
0.693265
0.456454
0.475705
0.68078
0.367627
0.5977
0.481613
0.5977
0.5977
1.12363
0.69395
0.446082
0.425987
0.634647
0.5977
0.686406
0.597702
0.5977
0.680913
0.700088
0.5977
0.5977
0.692366
0.694895
0.686764
0.540495
0.367841
0.597705
0.692316
0.695474
0.570688
0.680594
0.5977
0.59771
0.483193
0.5977
0.59056
1.12658
0.886018
0.694382
0.677267
0.680724
0.588218
0.476334
0.5977
0.584299
0.690612
0.680758
0.523444
0.695671
0.690355
0.451143
0.477494
0.394019
1.12699
0.367605
0.5977
0.687209
0.5977
0.512695
0.685243
0.445935
0.5977
0.680888
0.680096
0.597701
0.680675
0.5977
0.660257
0.5977
0.680646
0.444385
0.68096
0.680649
0.5977
1.11281
0.68031
0.485412
0.44853
0.467519
0.690829
0.36778
1.11988
0.370565
0.691605
0.407958
0.5833
0.46106
0.692492
0.69013
0.5977
0.515378
0.5977
0.680791
0.367792
0.5977
0.689888
0.476472
0.5977
0.69337
0.691652
0.680822
0.49199
0.5977
0.686771
0.680726
0.680699
0.367708
0.585778
0.691692
1.12714
1.06946
1.12649
0.5977
0.681322
0.5977
0.690407
0.367576
0.449179
1.12655
0.690022
0.680499
0.422342
0.680968
0.5977
0.5977
0.440906
0.560467
0.689296
0.687671
0.5977
0.566669
0.680915
1.08293
0.374605
0.5977
0.682891
0.37543
0.482859
0.434824
0.690777
0.502905
0.368163
0.693029
0.5977
0.694387
0.5977
0.380682
0.380742
0.689766
0.445027
0.415888
0.662483
0.487489
0.553193
0.5977
0.695113
0.680182
0.367448
0.56424
0.36798
0.699681
0.474875
0.680614
0.418216
0.680327
0.695009
0.680124
0.695247
0.680635
0.696911
0.680939
0.6901
0.686723
0.421513
0.367818
0.68089
0.680867
0.589305
0.692163
0.5977
0.680905
0.597705
0.535813
0.689926
0.69046
0.680981
0.373235
0.680991
0.512068
0.680921
0.584148
0.69146
0.680682
0.485582
0.6866
0.367933
0.597707
0.688184
0.410378
0.5977
1.12693
0.693077
0.385301
0.681024
0.367565
0.484161
0.48333
0.367472
0.597598
0.451722
0.597705
0.680743
0.566679
0.484259
0.582801
0.5977
0.5977
0.704206
0.367739
0.402191
0.37292
0.459276
0.513838
0.5977
0.694044
0.526468
0.680807
0.686775
0.431962
0.690296
0.5977
0.680738
0.368531
0.990831
0.680817
0.688489
0.69061
0.460496
0.682399
0.689417
0.681162
0.5977
0.680714
0.500028
0.48347
0.680742
0.597706
0.367784
0.680791
0.472047
0.5977
0.5977
0.695216
0.69552
0.481737
0.692146
0.589491
0.373308
0.597704
0.687967
0.691848
0.688982
0.597705
0.484695
0.690917
0.463021
0.588498
0.690224
0.831564
0.686516
0.370863
0.502291
0.69185
0.508332
0.687641
0.5977
0.577065
0.521133
0.689787
0.480116
0.680683
0.687509
0.595807
0.480843
0.44687
0.597707
0.5977
0.5977
0.59771
0.681046
0.705294
0.694666
1.12686
0.680285
0.387631
0.517864
0.687816
0.680643
0.654145
0.577766
0.442435
0.679249
0.444325
0.68078
0.5977
0.566489
0.68653
0.367536
0.695303
0.486593
0.691915
0.480379
0.680412
0.680634
0.484033
0.694113
0.5977
0.488877
0.680598
0.681075
0.5977
0.446566
0.566238
0.597711
0.696016
0.700108
0.535239
0.5977
0.684141
0.680823
0.513748
0.5977
0.684933
0.568881
0.681046
0.680646
0.521823
0.686127
0.713022
0.478917
0.5977
0.375428
0.597701
0.380405
0.470843
0.695052
0.368111
0.368153
0.441968
0.680577
0.702381
0.596491
0.680919
0.560713
0.678394
0.36758
0.69043
0.574679
0.68092
0.680704
0.597683
0.680777
0.597703
0.680595
0.680779
0.514781
0.5977
0.597696
0.5977
0.680405
0.584968
0.597707
0.690887
0.367882
0.5977
0.553669
0.680684
0.420179
0.482208
0.709468
0.680708
0.36786
0.690184
0.674723
1.1271
0.690388
0.927345
0.367934
0.690372
0.36771
0.47813
0.693813
0.689573
0.691875
0.69527
0.471389
0.38447
0.368692
0.679371
0.680764
0.562618
0.694589
0.415259
0.384802
0.426826
0.694193
0.569674
0.690449
0.686781
0.5977
0.692141
0.685114
0.5977
0.5957
0.565905
0.487102
0.367804
0.929674
1.02941
0.427161
0.5977
0.69028
0.597537
0.490544
0.597699
0.705857
0.516881
0.7038
0.5977
0.367852
0.68088
0.681192
0.367942
0.680575
0.411805
0.68933
0.693782
0.680605
0.44774
0.575187
0.5977
0.526017
0.567519
0.692554
0.530561
0.68076
0.683221
0.693155
0.669425
0.592045
0.656983
0.597706
0.680774
0.545753
0.688828
0.468739
0.440656
0.696435
0.680974
0.681033
0.499251
0.680616
0.5977
0.963289
0.406777
0.415505
0.367785
0.689108
0.372217
0.420124
0.480437
0.5977
0.416733
0.522381
0.567645
0.680336
0.368094
0.680752
0.680982
0.692041
0.389483
0.680507
0.5977
0.680818
0.561933
0.5977
0.38168
0.367838
0.681001
0.367737
0.5977
0.681747
1.12549
0.368029
0.534693
0.38782
0.5977
1.12668
0.500428
0.68028
0.680853
0.686785
0.367779
0.459921
0.539514
0.69519
0.36781
1.12683
0.5977
0.680936
0.686276
0.36762
0.5977
0.463461
0.597001
0.5977
0.691227
0.5977
0.5977
0.5977
0.669726
0.68822
0.36991
0.595066
0.42304
0.669819
0.5977
0.857912
0.368034
0.567649
0.690423
0.679893
0.676804
0.367744
0.69217
0.5977
0.597699
0.700968
0.4972
0.367713
0.523029
0.680865
0.680926
0.5977
0.69181
0.537876
0.693255
0.5977
0.680945
0.680849
0.692571
0.690693
0.680921
0.687857
0.692052
0.494046
0.687758
0.689221
0.680607
0.687661
0.680975
0.5977
0.36794
0.481235
0.597352
0.367936
0.575738
0.692478
0.436794
0.5977
0.680197
0.678693
0.681044
0.489451
0.691757
0.484413
0.437887
0.680921
0.679986
0.680853
0.396978
0.68905
0.680757
0.601834
0.68096
0.480815
0.680607
0.691931
0.681212
0.597701
0.700118
0.367525
0.686638
0.417806
0.367921
0.5977
0.582458
0.691151
0.695323
0.680798
0.473761
0.680733
0.597481
0.442025
0.693406
0.581893
0.367793
0.680771
0.491528
0.592027
0.5977
0.704971
0.696819
0.583683
0.5977
0.5977
0.680758
0.5977
0.691673
0.597706
0.689666
0.691781
0.5977
0.467128
0.368054
0.580163
0.688824
0.485597
0.5977
0.690415
0.5977
0.680719
0.5977
0.5977
0.591465
0.368726
0.690144
0.691417
0.5977
0.691979
0.691079
0.693303
0.68066
0.367773
0.429192
0.680558
0.5977
0.5977
0.687791
0.68076
0.680992
0.695618
0.694417
0.5977
0.70365
0.691807
0.432425
0.493614
0.424248
0.548844
1.11431
0.595612
0.5977
0.686363
0.650834
0.483925
0.680983
0.687804
0.402071
0.554728
1.08696
0.687866
0.502721
0.470158
0.459447
1.12681
0.692738
0.597706
0.386823
0.367763
0.482229
0.558453
0.367915
0.692786
0.680751
0.680274
0.370773
0.678501
0.5977
0.5977
0.531056
0.367937
0.693445
1.12667
0.367902
0.68078
0.367958
0.703821
0.493404
0.692332
0.371958
0.698022
0.689743
0.384467
0.5977
0.511258
0.690059
0.488626
0.5977
0.468223
0.597699
0.380206
0.5977
0.367829
0.680328
0.680376
0.5977
0.680958
0.535553
0.694467
0.68063
0.689128
0.5977
0.678176
0.367907
0.597699
0.424107
0.697587
0.522623
0.690414
0.5977
0.68796
0.691643
0.5977
0.688412
0.443451
0.433027
0.43133
0.5977
0.5977
0.680514
0.368826
0.492585
0.680856
0.555912
0.478565
0.5977
0.5559
0.367821
0.479158
0.691557
0.5977
0.5977
0.459811
0.699644
0.680448
0.477596
0.539124
0.694709
0.680747
0.597664
0.594036
0.562179
0.546121
0.385413
0.694297
0.593633
0.5977
0.597713
0.461097
0.5977
0.367473
0.666672
0.689102
0.36788
0.505406
0.588965
0.5977
0.689289
0.691672
0.695219
0.690645
0.690448
0.399397
0.487361
0.427731
0.367741
0.5977
0.685095
0.5977
0.367972
0.367584
0.597701
0.481225
0.681098
0.705878
0.367706
0.530591
0.680005
0.480181
0.5977
0.692932
0.699618
0.680891
0.5977
0.36782
0.377058
0.701754
0.367894
0.597713
0.595214
0.680552
0.691284
0.516369
0.367928
1.12711
0.367797
0.680283
0.697915
0.367961
0.453594
0.404944
0.680851
0.407576
1.12683
0.68039
0.5977
0.475386
0.597706
0.687654
0.6841
0.371947
0.684321
0.597702
0.487093
0.686971
0.688368
0.369619
0.367964
0.695055
0.36781
0.367755
0.683845
0.544148
0.680772
0.5977
0.697851
0.597705
0.69
0.679998
0.680795
0.369455
0.559548
0.658686
0.680906
0.574256
0.690688
0.540487
0.688925
0.69663
0.5977
0.5977
0.597699
0.586554
0.681066
0.68838
0.691723
0.690044
0.680709
1.12586
0.690923
1.12706
0.694649
0.693697
0.69277
1.12699
0.680697
0.482896
0.693625
0.50989
0.690042
0.688
0.690432
0.697109
0.61478
0.44648
0.387193
0.528898
0.369912
0.700608
0.369171
0.369664
0.677505
0.469913
0.686599
0.382397
0.692853
0.683441
0.368137
0.554922
0.570245
0.688364
0.458512
0.680508
0.686554
0.39347
0.693581
0.5977
0.596036
0.515427
0.478557
0.597702
0.367904
0.690687
0.5977
0.517987
0.680663
0.68068
0.695858
0.367921
0.5977
0.469136
0.678039
0.680823
0.689587
0.367645
0.680884
0.687933
0.692226
0.576495
0.68809
0.367868
0.367719
0.693634
0.593952
0.69309
0.597699
0.367698
0.570431
0.693928
0.502304
0.486078
0.444542
0.5977
0.850628
0.686285
0.431843
0.5977
0.680875
0.5977
0.5977
0.567007
0.5977
0.367816
0.367763
0.680708
0.367856
0.367522
0.69055
0.689499
0.405669
0.706243
0.402132
1.11386
0.527326
0.693639
0.677914
0.651388
0.680881
0.464856
0.367507
0.479416
0.680892
0.694423
0.5977
0.5977
0.551242
0.527776
0.6809
0.368717
0.680769
0.550609
0.679601
0.597705
0.382803
0.472047
0.367801
0.367924
0.486345
0.600303
0.702656
0.370884
0.684867
0.5977
0.524477
0.444947
0.689855
0.367918
0.681111
0.564056
0.67789
0.5977
0.679969
0.787443
0.434918
0.693955
0.691271
0.690591
0.367907
0.703212
0.5977
0.570902
0.688856
0.597121
0.69192
0.701537
0.690394
0.69384
0.691234
0.680595
0.681046
0.368054
0.69523
0.367756
0.597699
0.69207
0.477581
0.698172
0.693554
0.487264
0.693172
0.367992
0.48335
0.693926
0.695549
0.689513
0.36776
0.701904
0.5977
0.527556
0.371266
0.694524
0.68068
0.553756
0.45563
0.686561
0.689877
0.367863
0.5977
0.68958
0.5977
0.397617
0.367904
0.475528
0.5977
0.482078
0.679768
0.626667
0.68086
0.5977
0.683334
0.36782
0.695249
0.5977
0.689478
0.5977
0.484909
0.370632
0.465881
0.701946
0.686666
0.562591
0.5977
0.567643
0.597369
0.689433
0.451492
0.597706
0.67964
0.5977
0.373932
0.377723
0.553653
0.6873
0.693087
0.5977
0.594182
0.680464
0.367939
0.5977
1.0711
0.680878
0.37635
0.5977
0.491914
0.693119
0.474091
0.681095
0.693902
0.45608
0.686965
0.5977
1.12679
0.5977
1.12682
0.690822
0.597355
0.680856
0.680785
0.689749
0.680829
0.57864
1.09089
0.416208
0.680856
0.461951
0.367883
0.474922
0.481687
0.367812
0.373116
0.690031
0.547972
0.424592
0.5977
0.687055
0.702172
0.597712
0.602359
0.597706
0.680861
0.498204
0.5977
0.680959
0.519922
0.46568
0.367436
0.5977
0.59068
0.367938
0.5977
0.472551
0.814864
0.588623
0.395887
0.582004
0.5977
0.554062
0.680461
0.453677
0.5977
0.551953
0.693806
0.560687
0.597703
1.08482
0.690621
0.5977
0.367696
0.694311
0.69042
0.469421
0.484756
0.680831
0.367704
0.700504
0.370605
0.5977
0.463897
0.680034
0.488884
0.690059
0.367933
0.689553
0.68565
0.688691
1.11502
0.414516
0.473081
0.597711
0.6939
0.676193
0.69367
0.5977
0.488464
0.688162
0.565506
0.694586
0.69589
0.597714
0.519495
0.693543
0.680946
0.466168
0.668164
0.693912
0.692354
0.699554
0.457047
0.5977
0.367991
0.69139
0.485012
0.681005
0.693333
0.695004
0.689797
0.522142
0.688312
0.368098
0.371242
0.680833
1.09911
0.5977
0.680767
1.11749
0.367872
0.716636
0.69392
0.691326
0.483969
0.580471
0.597569
0.370494
0.688469
0.690769
0.69634
0.692694
0.520421
0.597709
0.5977
0.460134
0.695923
0.689554
0.597704
0.693932
0.516483
0.703273
0.713546
0.5977
0.693923
0.377876
0.485076
0.680421
0.693832
0.479115
0.543249
0.478905
0.471561
0.423539
0.485201
0.528487
0.367768
0.680723
0.46027
0.398068
0.685935
0.5977
1.12709
0.564144
0.367982
0.680932
0.59771
0.5977
0.693427
0.557236
0.5977
0.680571
0.5977
0.67928
0.455226
0.686328
0.680722
0.404816
0.367584
0.597713
0.69365
0.5977
0.690333
0.680933
0.680828
0.680505
0.597722
0.687124
0.68077
0.695383
0.367734
0.680938
0.596289
0.596908
0.577011
0.403916
0.46296
0.425406
0.5977
0.5977
0.680812
0.367739
0.558429
0.689806
0.483145
0.686692
0.680789
0.695257
0.5977
0.679975
0.515153
0.465587
0.462492
0.5977
0.481037
0.68134
0.463516
0.681049
0.680912
0.685929
0.539463
0.597712
0.593735
0.683994
0.442478
0.367384
0.692445
0.6831
0.5977
0.680891
0.694806
0.697675
0.367841
0.5977
0.691665
0.597609
0.680163
0.687062
0.696118
0.570145
0.562071
0.691576
0.587769
0.5977
0.368114
0.695928
0.696954
0.597711
0.482478
0.678964
0.597706
0.689035
0.686607
0.36784
0.367675
0.705198
0.5977
0.59771
0.6957
0.694256
0.495261
0.681624
0.687065
0.69804
0.367859
0.5977
0.367823
0.693531
0.688701
0.696018
0.680964
0.672463
0.525123
0.559542
0.680751
0.368011
0.5977
0.51103
0.682663
0.442278
0.5977
0.691741
0.717874
0.36771
1.12677
0.992569
0.367484
0.68467
0.477988
0.691145
0.367734
0.37717
0.450905
0.681465
0.680005
0.537238
0.527421
0.69314
0.690413
0.588777
0.594033
0.367794
0.5977
0.367684
0.681339
0.36762
0.597703
0.6939
0.516869
0.5977
0.374401
0.680646
0.414483
0.367922
0.693141
0.48478
0.679278
0.59771
0.449034
0.691251
0.662252
0.694741
0.597703
0.509201
0.5977
0.486601
0.367573
0.697279
0.678126
0.680155
0.36794
0.55764
0.5977
0.692673
0.597701
0.694261
0.5977
0.698101
0.542359
0.691569
0.689538
0.5977
0.688999
0.486875
0.681467
0.367551
0.490131
0.46991
0.367632
0.690828
0.687059
0.691053
0.681454
0.681034
0.548361
0.695283
0.514661
0.460163
0.367742
0.468789
0.367726
0.686581
0.687451
0.367882
0.447572
0.680487