# vtk DataFile Version 1.0
unstructured grid
ascii
DATASET UNSTRUCTURED_GRID
points 13672 float
0.0796578 -0.059106 0
0.00128732 0.00159165 0
0.00227961 -0.00102548 0
0.0791586 -0.0598787 0
-0.0546216 0.01 0
0.000495206 0.025 0
0.0800549 -0.035 0
0.135172 -0.08 0
-0.0546216 -0.0451168 0
0.000495206 -0.0301168 0
0.0800549 -0.0901168 0
0.135172 -0.135117 0
-0.0546216 -0.0451168 -0.00551168
0.000495206 -0.0301168 -0.00551168
0.0800549 -0.0901168 -0.00551168
0.135172 -0.135117 -0.00551168
0.135172 -0.08 -0.00551168
0.0800549 -0.035 -0.00551168
0.000495206 0.025 -0.00551168
-0.0546216 0.01 -0.00551168
0.00128732 0.00159165 -0.00551168
0.00227961 -0.00102548 -0.00551168
0.0791586 -0.0598787 -0.00551168
0.0796578 -0.059106 -0.00551168
0.00165953 -0.000990923 0
0.00119576 -0.000874076 0
0.000866021 -0.000641801 0
0.000645147 -0.000349912 0
0.00052235 -1.7281e-05 0
0.00049972 0.000348016 0
0.000601632 0.000737716 0
0.000861774 0.0011403 0
0.00157235 0.00183217 0
0.00188647 0.00206725 0
0.00222612 0.00230203 0
0.00258713 0.00254351 0
0.00296826 0.00279524 0
0.00337118 0.00305664 0
0.00379785 0.00332658 0
0.00425045 0.00360349 0
0.00473139 0.00388521 0
0.0052432 0.00416895 0
0.0057881 0.00445204 0
0.00636753 0.00473281 0
0.00698281 0.00500961 0
0.00763526 0.00528058 0
0.00832616 0.00554366 0
0.00905691 0.00579603 0
0.00982918 0.00603333 0
0.0106445 0.00625033 0
0.0115038 0.00644128 0
0.0124073 0.00660297 0
0.0133543 0.00673414 0
0.0143444 0.00683382 0
0.0153769 0.00690031 0
0.0164512 0.00693173 0
0.0175666 0.00692547 0
0.0187219 0.00687822 0
0.0199156 0.00678477 0
0.0211454 0.00663864 0
0.0224084 0.00643275 0
0.0237018 0.00616676 0
0.0250249 0.00584739 0
0.026375 0.00547298 0
0.0277479 0.00503752 0
0.0291386 0.00453545 0
0.0305433 0.0039653 0
0.0319572 0.0033256 0
0.0333681 0.00260019 0
0.034775 0.00179799 0
0.0361793 0.000930615 0
0.0375798 3.12222e-06 0
0.0389689 -0.000988429 0
0.0403357 -0.00205109 0
0.041675 -0.00318283 0
0.0429849 -0.00437751 0
0.0442643 -0.00562904 0
0.0455126 -0.00693089 0
0.0467314 -0.00827518 0
0.0479204 -0.00965638 0
0.0490661 -0.0110799 0
0.0501515 -0.0125519 0
0.0511696 -0.0140695 0
0.0521492 -0.0156071 0
0.0531202 -0.0171411 0
0.0540851 -0.0186663 0
0.0550431 -0.0201798 0
0.0559923 -0.0216793 0
0.0569311 -0.0231626 0
0.0578582 -0.0246273 0
0.0587723 -0.0260715 0
0.0596721 -0.027493 0
0.0605563 -0.02889 0
0.0614241 -0.0302609 0
0.0622742 -0.0316042 0
0.063106 -0.0329183 0
0.0639186 -0.034202 0
0.0647113 -0.0354543 0
0.0654835 -0.0366743 0
0.0662345 -0.0378613 0
0.0669642 -0.0390145 0
0.0676726 -0.0401333 0
0.0683597 -0.0412172 0
0.0690246 -0.0422665 0
0.0696662 -0.0432819 0
0.0702841 -0.0442636 0
0.0708793 -0.0452111 0
0.0714538 -0.0461237 0
0.072009 -0.047001 0
0.0725452 -0.0478434 0
0.0730611 -0.0486524 0
0.073556 -0.0494294 0
0.0740291 -0.0501756 0
0.0744812 -0.0508916 0
0.0749138 -0.0515773 0
0.0753285 -0.0522331 0
0.0757266 -0.0528592 0
0.076109 -0.0534564 0
0.0764753 -0.0540264 0
0.0768243 -0.054571 0
0.0771553 -0.0550919 0
0.0774679 -0.0555901 0
0.0777617 -0.0560669 0
0.0780369 -0.056523 0
0.0782958 -0.0569578 0
0.0785421 -0.0573703 0
0.0787786 -0.0577603 0
0.0790073 -0.0581279 0
0.0792295 -0.058474 0
0.0794462 -0.0587995 0
0.0798803 -0.0594162 0
0.0800272 -0.0596588 0
0.0800357 -0.0598891 0
0.0799275 -0.0600784 0
0.0797205 -0.0601773 0
0.0794593 -0.0601051 0
0.0789155 -0.0596491 0
0.0786707 -0.0593963 0
0.0784111 -0.0591319 0
0.0781372 -0.0588542 0
0.0778566 -0.0585548 0
0.0775715 -0.0582308 0
0.0772803 -0.0578828 0
0.0769832 -0.0575099 0
0.0766822 -0.0571097 0
0.0763801 -0.0566796 0
0.0760759 -0.0562196 0
0.0757623 -0.0557337 0
0.0754359 -0.0552232 0
0.0750951 -0.0546879 0
0.0747379 -0.054128 0
0.0743626 -0.0535435 0
0.0739688 -0.0529338 0
0.0735559 -0.0522981 0
0.0731238 -0.0516357 0
0.0726718 -0.050946 0
0.0721991 -0.0502288 0
0.0717046 -0.049484 0
0.0711872 -0.0487117 0
0.0706461 -0.047912 0
0.0700804 -0.0470849 0
0.0694892 -0.0462308 0
0.0688718 -0.0453499 0
0.0682271 -0.0444431 0
0.0675544 -0.043511 0
0.0668527 -0.0425546 0
0.0661215 -0.0415748 0
0.06536 -0.040573 0
0.0645676 -0.0395504 0
0.0637439 -0.0385087 0
0.0628887 -0.0374493 0
0.062002 -0.0363741 0
0.0610838 -0.0352847 0
0.0601345 -0.0341831 0
0.0591547 -0.033071 0
0.0581456 -0.0319502 0
0.0571083 -0.0308224 0
0.0560444 -0.0296893 0
0.0549562 -0.028552 0
0.053845 -0.0274126 0
0.0527113 -0.0262746 0
0.051554 -0.0251427 0
0.0503724 -0.0240222 0
0.0491675 -0.0229164 0
0.047941 -0.0218282 0
0.0466955 -0.0207597 0
0.0454337 -0.0197126 0
0.0441592 -0.0186878 0
0.0428751 -0.0176863 0
0.0415841 -0.0167097 0
0.0402878 -0.0157609 0
0.0389879 -0.0148428 0
0.0376864 -0.0139575 0
0.0363853 -0.013107 0
0.0350871 -0.0122931 0
0.0337942 -0.0115164 0
0.0325095 -0.0107772 0
0.0312357 -0.0100756 0
0.0299758 -0.00941024 0
0.0287337 -0.00877784 0
0.0275126 -0.00817571 0
0.0263139 -0.00760375 0
0.0251376 -0.00706528 0
0.0239829 -0.0065649 0
0.0228537 -0.00609619 0
0.0217522 -0.00565563 0
0.0206795 -0.00524226 0
0.0196364 -0.00485507 0
0.0186233 -0.00449318 0
0.0176408 -0.00415577 0
0.016689 -0.00384204 0
0.0157682 -0.00355115 0
0.0148783 -0.00328218 0
0.0140192 -0.00303468 0
0.0131906 -0.00280795 0
0.0123925 -0.00260016 0
0.0116246 -0.00241012 0
0.0108864 -0.00223769 0
0.0101774 -0.00208212 0
0.00949701 -0.00194206 0
0.00884483 -0.0018163 0
0.0082202 -0.0017039 0
0.00762247 -0.00160391 0
0.00705097 -0.00151528 0
0.006505 -0.00143697 0
0.0059838 -0.00136806 0
0.00548662 -0.00130772 0
0.00501265 -0.00125519 0
0.00456114 -0.00120954 0
0.00413136 -0.00116914 0
0.00372257 -0.00113251 0
0.00333398 -0.00109853 0
0.00296466 -0.00106798 0
0.00261363 -0.0010431 0
-0.052721 -0.0445996 0
-0.0508204 -0.0440823 0
-0.0489199 -0.0435651 0
-0.0470193 -0.0430478 0
-0.0451187 -0.0425306 0
-0.0432181 -0.0420134 0
-0.0413175 -0.0414961 0
-0.039417 -0.0409789 0
-0.0375164 -0.0404616 0
-0.0356158 -0.0399444 0
-0.0337152 -0.0394271 0
-0.0318146 -0.0389099 0
-0.0299141 -0.0383927 0
-0.0280135 -0.0378754 0
-0.0261129 -0.0373582 0
-0.0242123 -0.0368409 0
-0.0223117 -0.0363237 0
-0.0204112 -0.0358065 0
-0.0185106 -0.0352892 0
-0.01661 -0.034772 0
-0.0147094 -0.0342547 0
-0.0128088 -0.0337375 0
-0.0109083 -0.0332202 0
-0.00900769 -0.032703 0
-0.00710711 -0.0321858 0
-0.00520653 -0.0316685 0
-0.00330595 -0.0311513 0
-0.00140537 -0.030634 0
0.00190689 -0.0299614 0
0.00332271 -0.0298498 0
0.00474133 -0.0297825 0
0.00616136 -0.0297597 0
0.0075814 -0.0297814 0
0.00900007 -0.0298477 0
0.010416 -0.0299583 0
0.0118278 -0.0301127 0
0.0132342 -0.0303103 0
0.0146339 -0.0305504 0
0.0160259 -0.0308322 0
0.0174091 -0.0311546 0
0.0187824 -0.0315166 0
0.020145 -0.031917 0
0.0214961 -0.0323546 0
0.0228351 -0.032828 0
0.0241613 -0.0333361 0
0.0254744 -0.0338774 0
0.0267738 -0.0344507 0
0.0280592 -0.0350545 0
0.0293306 -0.0356877 0
0.0305875 -0.0363488 0
0.0318301 -0.0370367 0
0.0330581 -0.0377501 0
0.0342717 -0.0384879 0
0.0354708 -0.0392489 0
0.0366556 -0.0400321 0
0.0378262 -0.0408363 0
0.0389828 -0.0416607 0
0.0401254 -0.0425042 0
0.0412543 -0.0433659 0
0.0423698 -0.0442451 0
0.043472 -0.0451408 0
0.0445612 -0.0460523 0
0.0456375 -0.0469789 0
0.0467013 -0.0479199 0
0.0477529 -0.0488746 0
0.0487923 -0.0498424 0
0.04982 -0.0508227 0
0.0508362 -0.051815 0
0.051841 -0.0528187 0
0.0528348 -0.0538333 0
0.0538178 -0.0548584 0
0.0547903 -0.0558935 0
0.0557524 -0.0569382 0
0.0567045 -0.0579922 0
0.0576467 -0.0590549 0
0.0585792 -0.0601261 0
0.0595024 -0.0612055 0
0.0604163 -0.0622926 0
0.0613212 -0.0633873 0
0.0622174 -0.0644891 0
0.0631049 -0.0655979 0
0.0639841 -0.0667134 0
0.064855 -0.0678353 0
0.0657179 -0.0689633 0
0.0665729 -0.0700974 0
0.0674202 -0.0712372 0
0.06826 -0.0723826 0
0.0690925 -0.0735333 0
0.0699178 -0.0746892 0
0.070736 -0.0758501 0
0.0715473 -0.0770159 0
0.0723518 -0.0781863 0
0.0731498 -0.0793612 0
0.0739412 -0.0805405 0
0.0747264 -0.081724 0
0.0755053 -0.0829116 0
0.0762781 -0.0841033 0
0.0770449 -0.0852987 0
0.0778059 -0.0864979 0
0.0785611 -0.0877007 0
0.0793108 -0.088907 0
0.0814681 -0.0912706 0
0.0828814 -0.0924245 0
0.0842946 -0.0935783 0
0.0857079 -0.0947322 0
0.0871211 -0.095886 0
0.0885344 -0.0970399 0
0.0899476 -0.0981937 0
0.0913609 -0.0993476 0
0.0927741 -0.100501 0
0.0941874 -0.101655 0
0.0956006 -0.102809 0
0.0970139 -0.103963 0
0.0984272 -0.105117 0
0.0998404 -0.106271 0
0.101254 -0.107424 0
0.102667 -0.108578 0
0.10408 -0.109732 0
0.105493 -0.110886 0
0.106907 -0.11204 0
0.10832 -0.113194 0
0.109733 -0.114348 0
0.111146 -0.115501 0
0.11256 -0.116655 0
0.113973 -0.117809 0
0.115386 -0.118963 0
0.116799 -0.120117 0
0.118213 -0.121271 0
0.119626 -0.122424 0
0.121039 -0.123578 0
0.122452 -0.124732 0
0.123866 -0.125886 0
0.125279 -0.12704 0
0.126692 -0.128194 0
0.128105 -0.129348 0
0.129519 -0.130501 0
0.130932 -0.131655 0
0.132345 -0.132809 0
0.133758 -0.133963 0
0.135172 -0.133216 0
0.135172 -0.131316 0
0.135172 -0.129415 0
0.135172 -0.127514 0
0.135172 -0.125614 0
0.135172 -0.123713 0
0.135172 -0.121813 0
0.135172 -0.119912 0
0.135172 -0.118012 0
0.135172 -0.116111 0
0.135172 -0.11421 0
0.135172 -0.11231 0
0.135172 -0.110409 0
0.135172 -0.108509 0
0.135172 -0.106608 0
0.135172 -0.104708 0
0.135172 -0.102807 0
0.135172 -0.100906 0
0.135172 -0.0990058 0
0.135172 -0.0971052 0
0.135172 -0.0952046 0
0.135172 -0.0933041 0
0.135172 -0.0914035 0
0.135172 -0.0895029 0
0.135172 -0.0876023 0
0.135172 -0.0857017 0
0.135172 -0.0838012 0
0.135172 -0.0819006 0
0.133758 -0.0788462 0
0.132345 -0.0776923 0
0.130932 -0.0765385 0
0.129519 -0.0753846 0
0.128105 -0.0742308 0
0.126692 -0.0730769 0
0.125279 -0.0719231 0
0.123866 -0.0707692 0
0.122452 -0.0696154 0
0.121039 -0.0684615 0
0.119626 -0.0673077 0
0.118213 -0.0661538 0
0.116799 -0.065 0
0.115386 -0.0638462 0
0.113973 -0.0626923 0
0.11256 -0.0615385 0
0.111146 -0.0603846 0
0.109733 -0.0592308 0
0.10832 -0.0580769 0
0.106907 -0.0569231 0
0.105493 -0.0557692 0
0.10408 -0.0546154 0
0.102667 -0.0534615 0
0.101254 -0.0523077 0
0.0998404 -0.0511538 0
0.0984272 -0.05 0
0.0970139 -0.0488462 0
0.0956006 -0.0476923 0
[...]
CELL_DATA 13116
SCALARS rho float
LOOKUP_TABLE default
0.5977
0.699672
0.469208
0.688387
0.691062
0.680933
0.371546
0.691697
0.5977
0.693295
0.367358
0.467929
0.691025
0.418243
0.437175
0.680928
0.5977
0.706585
0.680803
0.367788
0.5977
0.47418
0.442415
0.70017
0.5977
0.691629
0.693206
0.483464
0.5977
0.5977
0.67876
0.455546
0.5977
0.597646
0.374852
0.5977
0.606321
0.694435
0.680786
0.691183
0.680993
0.691254
0.5977
0.448167
0.680445
0.680787
0.691581
0.680498
0.463605
0.597702
0.689818
0.597699
0.390222
0.5977
0.5977
0.5977
0.445636
0.69753
0.597701
0.450286
0.42058
0.691489
0.696618
0.680799
0.668233
0.405566
0.688593
0.591477
0.687974
0.672669
0.436806
0.5977
0.478562
0.426864
1.02442
0.410667
0.675423
0.68928
0.367597
0.711383
0.679589
0.690703
0.699521
0.681254
0.693064
0.552969
0.379051
0.5977
0.691864
0.367622
0.462888
0.698604
0.697746
0.691932
0.5977
0.5977
0.5977
0.782918
0.869202
0.5977
0.5977
0.688925
0.681043
0.596899
0.688571
0.455565
0.527429
0.5977
0.464487
0.5977
0.5977
0.689643
0.5977
0.679763
0.710184
0.688658
0.394493
0.545911
0.687846
0.689453
0.595457
0.490203
0.687534
0.463452
0.692447
0.579199
0.383317
0.597623
0.456665
0.597704
0.687984
0.685929
0.583914
0.467376
0.575729
0.5977
1.12665
0.688416
0.5977
0.689921
0.599445
0.691868
0.597697
0.633093
0.702079
0.429827
0.373483
0.69047
0.691529
0.691051
0.597706
0.680311
0.680471
0.381956
0.692693
0.692691
0.450009
0.597699
0.801095
0.597699
0.700996
0.367349
0.695944
0.451025
0.495676
0.690283
0.692094
0.707319
0.373497
0.56531
0.550885
1.12693
0.434131
0.597673
0.689205
0.442143
0.449798
0.47743
0.689307
0.680752
0.36774
0.566078
0.5977
0.589698
0.680741
0.5977
0.381692
0.680553
0.686641
0.592031
0.597139
0.690206
0.678508
0.460492
0.689285
0.680746
0.695034
0.680229
0.691973
0.59737
0.597617
0.5977
0.597339
0.429287
0.68982
0.680443
0.597699
0.5977
0.441305
0.367917
0.408119
0.680746
0.454599
0.368085
0.367935
0.385436
0.539683
0.68093
0.692491
0.548279
0.439842
0.687763
0.5977
0.36778
0.5977
0.692153
0.701891
0.484232
0.689395
0.537017
0.69162
0.456296
0.679297
0.5977
0.93962
0.69165
0.680419
0.470007
0.578087
0.5977
1.09036
0.680772
1.12663
0.68097
0.691827
0.454059
0.688818
0.6925
0.839108
0.368535
0.466952
0.680777
0.687832
0.671986
0.686559
0.5977
0.669143
0.367367
0.483119
0.568863
0.439233
0.687713
0.695093
0.674676
0.370249
0.692798
0.391521
0.550406
0.688568
0.368639
0.691263
0.69075
1.11674
0.697579
0.467827
1.12138
0.685714
0.807612
0.68807
0.367676
0.374074
0.459595
0.5977
0.486609
0.480793
0.518706
0.506947
0.697178
0.396692
0.692301
0.690319
0.37468
0.367758
0.387554
0.574805
0.494179
0.5977
0.590813
0.690198
0.368153
0.680801
0.5977
0.487312
0.449529
0.68076
0.687731
0.680593
0.3852
0.680723
0.594
0.685783
0.690891
0.690191
0.690901
0.461556
0.689024
0.419201
0.680747
0.692486
0.5977
0.367514
0.517106
0.692124
0.387864
0.692923
0.691447
0.553352
0.588975
0.699652
0.379803
0.692975
0.698196
0.416653
0.688104
0.55146
0.597702
0.69356
0.553507
0.597699
0.370132
0.701787
0.521698
0.680947
0.687254
0.694913
0.480514
0.529537
0.692878
0.379628
0.68873
0.68734
0.563293
1.12677
0.379731
0.461462
0.687283
0.597705
0.590816
0.377435
0.451564
0.688873
0.690403
0.370928
0.689962
0.404778
0.460068
0.689827
0.693199
0.5977
0.367841
0.687608
0.668068
0.680897
0.692676
0.692914
0.597706
0.548639
0.432159
0.36776
0.680934
0.367717
0.5977
0.552565
0.461592
0.526258
0.5977
0.427533
0.376463
0.693939
0.469115
0.695333
0.5977
0.68063
0.5977
0.689541
0.464782
0.372869
0.59749
0.535614
0.687746
0.5977
0.68106
0.5977
0.700835
0.5977
0.690509
0.597702
0.5977
0.690871
0.715266
0.680815
0.572585
0.597704
0.5977
0.466519
0.591386
0.5977
0.388724
0.689062
1.12179
0.462535
0.367878
0.367816
0.376004
0.5977
0.404809
0.459965
0.680146
0.405354
0.5977
0.367944
0.680731
0.680754
0.503438
0.467673
0.687142
0.57197
0.36791
0.375566
0.367899
0.464427
0.373162
0.367899
0.487752
0.552871
0.367942
0.687554
0.518648
0.692437
0.58591
0.464056
0.577548
0.433204
0.367718
0.434735
0.691724
0.559104
0.5977
0.5977
0.400939
0.5977
0.691707
0.551573
0.589696
0.5977
0.5977
0.37233
0.924373
0.54639
0.694088
0.724206
0.463789
0.395014
0.686776
0.541086
0.552716
0.686299
0.52669
0.597699
0.702424
0.367806
0.445891
0.423509
0.59763
0.446072
0.40637
0.433922
0.416958
0.689778
0.691027
0.577676
0.5977
0.578231
0.688969
0.531364
0.399443
0.5977
0.464905
0.685552
0.505196
0.535099
0.581892
0.681982
0.691962
0.597704
0.553807
0.391263
0.597705
0.691398
0.680031
0.597705
0.690568
0.687539
0.36799
0.680784
0.5977
0.5977
0.515312
0.494768
0.680091
0.694641
0.5977
0.692398
0.691904
0.69247
0.701189
0.5977
0.680652
0.36815
0.686164
0.525072
0.447441
0.368
0.689517
0.68063
0.512105
0.692674
0.5977
0.367486
0.680593
0.687352
0.690357
0.482107
0.395532
0.688644
0.367926
0.367876
0.442284
0.367987
0.682079
0.411953
0.688566
0.513906
0.698661
0.690057
0.686558
0.690693
0.367919
0.367726
0.680562
0.691276
0.655631
0.689988
0.692757
0.571343
0.376876
0.4681
0.680826
0.597699
0.367685
0.570872
0.461723
0.693461
0.682776
0.513901
0.478692
0.69225
0.555839
0.694583
0.5977
0.453131
0.536354
0.643802
1.0921
0.453141
0.691821
0.692061
0.680895
0.400057
1.12688
0.437607
0.988712
0.5977
0.367863
0.537904
0.482383
0.918261
0.466597
0.369425
0.548749
0.680722
0.686933
0.368566
0.479841
0.367962
0.680675
0.482819
0.680771
0.42766
0.5977
0.692253
0.585925
0.448765
0.444565
0.572326
0.469615
0.691741
0.392532
0.410812
0.680844
0.408593
0.680797
0.692672
0.851093
0.367872
0.68589
0.695544
0.695641
0.680802
0.693308
0.689476
0.443665
0.676892
0.549898
0.680628
0.367822
0.691551
0.5977
0.377932
0.658311
0.692033
0.383666
0.5977
0.46193
0.433498
0.680102
0.69199
0.463048
0.4349
0.367876
0.444746
0.693288
0.700342
0.396418
0.367846
0.68874
0.689003
0.5977
0.695193
0.68031
0.367361
0.694762
0.554146
0.68973
0.553329
0.5977
0.570355
0.686805
0.608184
0.5977
0.52767
0.476485
0.682427
0.5977
0.5977
0.695375
0.433442
0.684384
0.692451
0.540262
0.597702
0.695022
0.547403
0.662719
0.5977
0.515892
0.690011
0.5977
0.470061
0.687333
0.458759
0.691397
0.42903
0.680839
0.695718
0.475764
0.680696
0.695719
0.689032
0.5977
0.681242
0.5977
0.505031
0.59022
0.459495
0.424249
1.12678
0.597705
0.687705
0.691192
0.36778
0.508445
0.686307
0.691707
0.687378
0.690925
0.367824
0.718021
0.692038
0.36781
0.456392
0.687806
0.680712
0.691988
0.450493
0.5977
0.505238
0.687379
0.69153
0.679675
0.695804
0.367826
0.680431
0.692294
0.698132
0.692067
0.680786
0.549347
0.691977
0.36798
0.694929
0.692995
0.565622
0.702866
0.680789
0.69013
0.597712
0.5702
0.5977
0.5977
0.367931
0.367835
0.369777
0.367938
0.684352
0.682697
0.680479
0.50983
0.367698
0.688036
0.597702
0.413973
0.510591
0.57018
0.676661
0.680031
0.692705
0.696439
0.367892
0.367906
1.12677
0.46327
0.368009
0.396396
0.680806
0.502616
0.3677
0.5977
0.680264
0.689345
0.680802
0.680837
0.396256
0.42002
0.368611
0.5977
0.559188
0.45826
0.59029
0.698192
0.692884
0.680726
0.453522
0.36802
0.692762
0.36777
0.680823
0.6948
0.708016
0.462756
0.367821
0.692167
0.665384
0.5977
0.413935
0.693179
0.680893
0.5977
0.690798
0.691062
1.12659
0.690551
0.367806
0.680893
0.665215
0.591526
0.687271
1.12686
0.689873
1.12613
0.687437
0.408884
0.430375
0.367987
0.655447
0.597699
0.367778
0.686036
0.689363
0.466743
0.597701
0.509152
0.597577
0.5977
0.468125
0.691337
0.700652
0.367767
0.597207
0.661914
0.442499
0.692067
0.411737
0.453319
0.5977
0.5977
0.577558
0.680989
0.37177
0.695549
0.442635
0.458082
0.68088
0.367717
0.5977
0.460693
0.597703
0.5977
1.1252
0.691988
0.431889
0.414724
0.693607
0.5977
0.687364
0.597711
0.5977
0.680764
0.698505
0.5977
0.5977
0.689114
0.695347
0.688007
0.523846
0.367829
0.596544
0.689217
0.694678
0.54956
0.680989
0.5977
0.596289
0.462124
0.5977
0.674772
1.12679
0.960726
0.687908
0.683698
0.68074
0.679101
0.456501
0.5977
0.569569
0.690575
0.680546
0.506589
0.694397
0.690463
0.437789
0.461444
0.385831
1.12685
0.36739
0.5977
0.690737
0.5977
0.495401
0.69579
0.427662
0.5977
0.680716
0.678796
0.593116
0.680682
0.5977
0.679118
0.5977
0.680361
0.431658
0.680988
0.683751
0.5977
1.11947
0.685704
0.461034
0.434076
0.446078
0.690142
0.367762
1.12332
0.368689
0.691803
0.397325
0.570354
0.442633
0.694027
0.69063
0.5977
0.496907
0.5977
0.680926
0.367916
0.5977
0.690975
0.457903
0.5977
0.732514
0.69232
0.680768
0.464393
0.5977
0.688337
0.680821
0.697051
0.367767
0.566108
0.694132
1.12665
1.09441
1.12684
0.5977
0.686055
0.5977
0.690719
0.367691
0.430043
1.12678
0.691069
0.680697
0.410467
0.680872
0.5977
0.5977
0.428446
0.545015
0.689999
0.688364
0.597699
0.545278
0.68069
1.10196
0.370568
0.5977
0.6945
0.371031
0.463879
0.421359
0.687567
0.485497
0.368103
0.692777
0.597711
0.695037
0.597703
0.374788
0.37494
0.689651
0.432174
0.405333
0.668331
0.469586
0.534702
0.5977
0.693561
0.686143
0.367681
0.522201
0.367491
0.693164
0.458109
0.686112
0.407056
0.685924
0.693119
0.689365
0.69016
0.680219
0.691011
0.680218
0.690665
0.686624
0.408581
0.3678
0.678716
0.680721
0.578369
0.688644
0.5977
0.680681
0.59297
0.500236
0.689019
0.69131
0.680469
0.369797
0.680554
0.494241
0.682756
0.572113
0.705877
0.680831
0.46953
0.687525
0.367993
0.597574
0.697781
0.400512
0.597703
1.12681
0.692764
0.378586
0.68027
0.367696
0.46283
0.46175
0.36785
0.670454
0.437441
0.592057
0.680783
0.545311
0.461192
0.570148
0.5977
0.5977
0.693314
0.367803
0.39314
0.369556
0.44095
0.494995
0.5977
0.690439
0.487124
0.680675
0.690087
0.418677
0.690927
0.5977
0.680879
0.367743
1.04302
0.680563
0.691007
0.690675
0.445774
0.686203
0.691546
0.681702
0.5977
0.680603
0.482941
0.461646
0.680383
0.595009
0.367908
0.680951
0.450853
0.597701
0.5977
0.69163
0.691522
0.461725
0.688042
0.56899
0.369816
0.660726
0.689163
0.692411
0.68898
0.589729
0.463176
0.691094
0.447916
0.577345
0.69021
0.893255
0.688011
0.368508
0.483743
0.692506
0.491406
0.688345
0.5977
0.560566
0.502367
0.690269
0.459401
0.680852
0.688203
0.660893
0.459894
0.433903
0.596266
0.5977
0.5977
0.592653
0.680815
0.6929
0.692422
1.12684
0.686268
0.380374
0.499299
0.689031
0.680616
0.699432
0.563221
0.42546
0.680745
0.430524
0.680707
0.5977
0.541379
0.687292
0.367699
0.693384
0.470721
0.6922
0.464244
0.682541
0.680759
0.465774
0.692397
0.5977
0.469429
0.680748
0.68058
0.5977
0.430326
0.545181
0.594424
0.695171
0.687371
0.515547
0.5977
0.686789
0.680833
0.496592
0.5977
0.697578
0.554781
0.68081
0.680839
0.505047
0.686597
0.762028
0.463658
0.5977
0.371316
0.594488
0.374766
0.454518
0.695388
0.367854
0.36794
0.428063
0.686036
0.6954
0.579435
0.68066
0.540444
0.680873
0.367785
0.697916
0.553195
0.680816
0.680771
0.618904
0.680589
0.597538
0.680752
0.680824
0.482221
0.5977
0.609228
0.5977
0.686105
0.572822
0.588085
0.691
0.36789
0.5977
0.512663
0.681096
0.407155
0.45957
0.700905
0.680571
0.367797
0.690508
0.698838
1.12695
0.690833
0.988202
0.367694
0.690634
0.367975
0.453508
0.691996
0.696113
0.691299
0.692456
0.452646
0.377936
0.367617
0.699991
0.68073
0.541913
0.693371
0.404244
0.378156
0.415549
0.691949
0.551259
0.691641
0.686829
0.5977
0.692128
0.686335
0.5977
0.664724
0.550961
0.467022
0.367751
0.99228
1.07672
0.41394
0.5977
0.686152
0.63781
0.463128
0.597712
0.69378
0.493332
0.692517
0.594413
0.3681
0.680578
0.681417
0.367739
0.685886
0.401606
0.687737
0.694292
0.680409
0.433621
0.561553
0.597705
0.509246
0.553342
0.691857
0.513685
0.680675
0.688397
0.69087
0.701148
0.557574
0.664196
0.654181
0.680822
0.529615
0.689671
0.453935
0.424975
0.695168
0.68026
0.680625
0.469615
0.680758
0.5977
1.02057
0.397219
0.403309
0.367925
0.689321
0.369189
0.408441
0.464905
0.594242
0.405861
0.505521
0.552946
0.68612
0.367947
0.679807
0.680667
0.690789
0.382055
0.686859
0.5977
0.680648
0.546532
0.5977
0.375588
0.367867
0.680115
0.367771
0.5977
0.686996
1.12619
0.367973
0.517881
0.380627
0.597705
1.12676
0.470715
0.690997
0.683452
0.701927
0.3676
0.444979
0.522828
0.687547
0.367877
1.12684
0.5977
0.680708
0.694576
0.367653
0.5977
0.445285
0.681983
0.5977
0.692145
0.597705
0.5977
0.5977
0.699124
0.689482
0.36834
0.576765
0.411992
0.706957
0.597699
0.914278
0.368013
0.550381
0.693378
0.6869
0.672959
0.367752
0.691129
0.597705
0.597704
0.687518
0.46627
0.367771
0.50622
0.681724
0.68071
0.5977
0.68892
0.521344
0.692688
0.5977
0.680714
0.68063
0.692462
0.691317
0.68091
0.691861
0.692652
0.46557
0.686755
0.689163
0.680647
0.687044
0.680231
0.5977
0.367719
0.463793
0.658197
0.368063
0.552663
0.691244
0.424209
0.5977
0.687662
0.699684
0.67927
0.463605
0.691395
0.462716
0.421174
0.681005
0.685745
0.680722
0.388524
0.689564
0.680995
0.698158
0.680751
0.465075
0.68066
0.692672
0.678928
0.588021
0.700686
0.367547
0.687151
0.407288
0.367729
0.5977
0.567438
0.691483
0.696747
0.680802
0.458681
0.680597
0.583422
0.428774
0.691283
0.569408
0.367698
0.681062
0.473664
0.581899
0.59769
0.692516
0.691877
0.571311
0.5977
0.5977
0.680829
0.5977
0.692563
0.595616
0.689331
0.688934
0.5977
0.44996
0.367529
0.564986
0.689101
0.460839
0.5977
0.690612
0.5977
0.680855
0.5977
0.597323
0.679221
0.367769
0.690433
0.686846
0.5977
0.687243
0.691645
0.691752
0.680803
0.367584
0.417625
0.68026
0.5977
0.5977
0.688716
0.681663
0.680712
0.694482
0.694639
0.5977
0.691457
0.692582
0.419498
0.473348
0.410631
0.526579
1.12017
0.5824
0.5977
0.686941
0.680028
0.457631
0.679456
0.687484
0.393036
0.537837
1.10541
0.687431
0.470474
0.453097
0.443019
1.12691
0.691981
0.597704
0.379766
0.368074
0.465148
0.537458
0.367891
0.692283
0.680735
0.684284
0.368739
0.699674
0.5977
0.5977
0.511615
0.367892
0.691104
1.12679
0.367804
0.680743
0.367749
0.700485
0.464893
0.691071
0.369225
0.693121
0.690274
0.377931
0.597704
0.493778
0.690507
0.470387
0.5977
0.447671
0.597707
0.374468
0.5977
0.367958
0.679165
0.678945
0.5977
0.680404
0.515809
0.697308
0.680685
0.68987
0.5977
0.680985
0.367871
0.597706
0.412403
0.698159
0.503857
0.690496
0.597705
0.696694
0.692224
0.5977
0.69122
0.430188
0.417339
0.418572
0.597707
0.5977
0.680496
0.368014
0.475857
0.680978
0.540406
0.458235
0.5977
0.538265
0.367762
0.461904
0.691104
0.5977
0.5977
0.438097
0.696419
0.686086
0.459788
0.521759
0.692392
0.68085
0.667426
0.58484
0.547315
0.529945
0.378665
0.693561
0.692506
0.597699
0.642408
0.445833
0.5977
0.367645
0.66082
0.690168
0.367898
0.488571
0.699709
0.5977
0.69032
0.692653
0.695293
0.69081
0.690716
0.390705
0.471129
0.416294
0.367803
0.5977
0.711134
0.5977
0.367871
0.367734
0.597711
0.46247
0.680686
0.693374
0.367881
0.512951
0.687709
0.453752
0.5977
0.694248
0.693072
0.680618
0.5977
0.367831
0.372218
0.689814
0.367937
0.59451
0.57718
0.68079
0.690797
0.49935
0.368085
1.12662
0.367898
0.688434
0.698285
0.367868
0.440023
0.394609
0.685189
0.396995
1.12684
0.687142
0.5977
0.457926
0.593994
0.688808
0.695545
0.369042
0.69697
0.633983
0.463417
0.687521
0.688316
0.368013
0.367723
0.692102
0.367857
0.367829
0.697554
0.527519
0.68085
0.597707
0.698022
0.590337
0.690955
0.68842
0.680787
0.367866
0.544292
0.70129
0.683246
0.560482
0.691075
0.522071
0.687158
0.691813
0.5977
0.5977
0.59771
0.571948
0.679804
0.69022
0.688808
0.690384
0.680274
1.1265
0.690835
1.12669
0.693189
0.69184
0.693096
1.127
0.680782
0.446775
0.690769
0.478719
0.690272
0.686853
0.693591
0.691076
0.702531
0.433511
0.380173
0.51216
0.36805
0.693213
0.368007
0.368133
0.680572
0.452746
0.691541
0.376284
0.69679
0.686275
0.367931
0.53939
0.545267
0.688885
0.438957
0.680479
0.687447
0.38546
0.690833
0.597702
0.568754
0.478625
0.460695
0.591089
0.36771
0.69061
0.5977
0.499962
0.680067
0.681022
0.695138
0.367749
0.5977
0.449259
0.69994
0.680729
0.688688
0.36765
0.681911
0.688467
0.690103
0.558514
0.688635
0.367727
0.368053
0.691716
0.579869
0.693347
0.597708
0.367693
0.555576
0.690603
0.4693
0.450922
0.431766
0.5977
0.925877
0.686845
0.417107
0.5977
0.680458
0.597704
0.597703
0.537192
0.597701
0.367804
0.367708
0.680061
0.368086
0.367815
0.690214
0.689679
0.396302
0.706565
0.393141
1.11973
0.487682
0.69186
0.6744
0.704747
0.680508
0.450375
0.367745
0.458597
0.680793
0.691906
0.5977
0.597701
0.535299
0.510235
0.680911
0.367632
0.680702
0.53477
0.676607
0.591879
0.376552
0.455881
0.367928
0.368039
0.465523
0.69991
0.694325
0.368749
0.68671
0.5977
0.505795
0.431174
0.690865
0.36788
0.686149
0.549196
0.702279
0.5977
0.687035
0.850159
0.422631
0.694276
0.690819
0.690762
0.367717
0.689477
0.5977
0.548363
0.688823
0.639862
0.691295
0.695862
0.690986
0.691501
0.690638
0.680732
0.680754
0.367934
0.696439
0.367859
0.59771
0.691914
0.456865
0.694336
0.688167
0.47095
0.690487
0.367715
0.463046
0.692063
0.687536
0.689672
0.367745
0.694949
0.5977
0.488487
0.368944
0.692691
0.683433
0.537391
0.441995
0.690793
0.690642
0.367675
0.5977
0.690346
0.5977
0.389014
0.367721
0.456067
0.5977
0.465887
0.697434
0.709227
0.680893
0.5977
0.686184
0.367784
0.691803
0.5977
0.690056
0.597704
0.462326
0.368373
0.449985
0.700643
0.68808
0.547758
0.5977
0.525611
0.654215
0.689132
0.436598
0.600389
0.696304
0.5977
0.370361
0.372815
0.530104
0.687899
0.693373
0.5977
0.585031
0.686979
0.367866
0.5977
1.09412
0.682599
0.371905
0.5977
0.475287
0.689233
0.457626
0.680394
0.692081
0.435235
0.687678
0.597699
1.12653
0.597701
1.12685
0.69025
0.5829
0.680818
0.680797
0.69029
0.680321
0.565716
1.10841
0.40404
0.680721
0.446397
0.367536
0.458822
0.46191
0.36787
0.369876
0.689973
0.531986
0.412577
0.597027
0.687815
0.694351
0.594229
0.687294
0.616871
0.68066
0.473005
0.597701
0.688692
0.501266
0.451243
0.367752
0.5977
0.580142
0.36787
0.5977
0.454888
0.884973
0.577461
0.387403
0.568565
0.5977
0.532798
0.685596
0.438976
0.5977
0.535453
0.69365
0.543281
0.590876
1.10985
0.685354
0.5977
0.367542
0.693226
0.691278
0.454692
0.463258
0.680717
0.367921
0.70145
0.368672
0.597703
0.448058
0.688343
0.472543
0.690104
0.367599
0.690025
0.686469
0.69038
1.12025
0.402735
0.450367
0.594324
0.692618
0.679865
0.690549
0.5977
0.47201
0.690979
0.538522
0.691873
0.685581
0.593193
0.500926
0.694732
0.680759
0.446182
0.661556
0.692978
0.693149
0.698408
0.44213
0.5977
0.36802
0.692845
0.46843
0.680597
0.690949
0.693504
0.689691
0.503801
0.688981
0.367865
0.368763
0.68461
1.11109
0.5977
0.680087
1.1228
0.367642
0.703577
0.693176
0.691088
0.462735
0.564094
0.67311
0.368515
0.687472
0.690965
0.694953
0.693144
0.500713
0.596714
0.5977
0.438526
0.691578
0.690587
0.597687
0.692061
0.498565
0.690609
0.700868
0.5977
0.692127
0.372902
0.461652
0.681685
0.69632
0.463381
0.523135
0.46334
0.447537
0.411538
0.466226
0.494955
0.367934
0.681383
0.444878
0.389451
0.689894
0.5977
1.12679
0.547312
0.368062
0.682525
0.59459
0.5977
0.692906
0.539821
0.5977
0.680119
0.5977
0.699498
0.437914
0.686993
0.680846
0.395542
0.368002
0.591753
0.687504
0.5977
0.691478
0.680889
0.684219
0.698692
0.588041
0.6873
0.680803
0.693464
0.367537
0.688406
0.683505
0.580099
0.561129
0.3936
0.44424
0.412834
0.5977
0.597603
0.679853
0.367709
0.543174
0.690464
0.46477
0.687908
0.680787
0.694952
0.597699
0.686958
0.496842
0.446379
0.445489
0.5977
0.46475
0.680425
0.446726
0.680527
0.680804
0.68687
0.518492
0.592029
0.576253
0.686355
0.42991
0.367652
0.691338
0.698553
0.597705
0.680909
0.693042
0.700633
0.367807
0.5977
0.691855
0.592397
0.686357
0.689284
0.697258
0.556177
0.547089
0.691074
0.576305
0.5977
0.367937
0.696281
0.694313
0.591893
0.466375
0.700105
0.597114
0.690418
0.687986
0.367746
0.367831
0.745285
0.597699
0.59653
0.692752
0.692459
0.478488
0.694305
0.730262
0.691796
0.367874
0.5977
0.367796
0.692382
0.690132
0.69883
0.679296
0.689504
0.507907
0.538848
0.682339
0.36805
0.5977
0.493395
0.686691
0.426219
0.5977
0.692242
0.766889
0.367655
1.12688
1.04443
0.367638
0.69847
0.460238
0.690966
0.367691
0.372325
0.435171
0.68054
0.690362
0.519771
0.510569
0.690668
0.69061
0.574633
0.723698
0.367915
0.5977
0.367777
0.680034
0.367719
0.59212
0.691697
0.479715
0.597698
0.370507
0.680389
0.404301
0.367843
0.693242
0.461333
0.680422
0.596656
0.433026
0.691432
0.680873
0.692805
0.592324
0.491331
0.5977
0.45874
0.367564
0.692235
0.675121
0.686665
0.367987
0.53801
0.5977
0.693182
0.597706
0.694666
0.5977
0.690681
0.523521
0.692266
0.690133
0.5977
0.689772
0.464954
0.6876
0.367536
0.473811
0.451005
0.367601
0.691214
0.687619
0.691338
0.680036
0.682391