# vtk DataFile Version 1.0
unstructured grid
ascii
DATASET UNSTRUCTURED_GRID
points 13672 float
0.0796578 -0.059106 0
0.00128732 0.00159165 0
0.00227961 -0.00102548 0
0.0791586 -0.0598787 0
-0.0546216 0.01 0
0.000495206 0.025 0
0.0800549 -0.035 0
0.135172 -0.08 0
-0.0546216 -0.0451168 0
0.000495206 -0.0301168 0
0.0800549 -0.0901168 0
0.135172 -0.135117 0
-0.0546216 -0.0451168 -0.00551168
0.000495206 -0.0301168 -0.00551168
0.0800549 -0.0901168 -0.00551168
0.135172 -0.135117 -0.00551168
0.135172 -0.08 -0.00551168
0.0800549 -0.035 -0.00551168
0.000495206 0.025 -0.00551168
-0.0546216 0.01 -0.00551168
0.00128732 0.00159165 -0.00551168
0.00227961 -0.00102548 -0.00551168
0.0791586 -0.0598787 -0.00551168
0.0796578 -0.059106 -0.00551168
0.00165953 -0.000990923 0
0.00119576 -0.000874076 0
0.000866021 -0.000641801 0
0.000645147 -0.000349912 0
0.00052235 -1.7281e-05 0
0.00049972 0.000348016 0
0.000601632 0.000737716 0
0.000861774 0.0011403 0
0.00157235 0.00183217 0
0.00188647 0.00206725 0
0.00222612 0.00230203 0
0.00258713 0.00254351 0
0.00296826 0.00279524 0
0.00337118 0.00305664 0
0.00379785 0.00332658 0
0.00425045 0.00360349 0
0.00473139 0.00388521 0
0.0052432 0.00416895 0
0.0057881 0.00445204 0
0.00636753 0.00473281 0
0.00698281 0.00500961 0
0.00763526 0.00528058 0
0.00832616 0.00554366 0
0.00905691 0.00579603 0
0.00982918 0.00603333 0
0.0106445 0.00625033 0
0.0115038 0.00644128 0
0.0124073 0.00660297 0
0.0133543 0.00673414 0
0.0143444 0.00683382 0
0.0153769 0.00690031 0
0.0164512 0.00693173 0
0.0175666 0.00692547 0
0.0187219 0.00687822 0
0.0199156 0.00678477 0
0.0211454 0.00663864 0
0.0224084 0.00643275 0
0.0237018 0.00616676 0
0.0250249 0.00584739 0
0.026375 0.00547298 0
0.0277479 0.00503752 0
0.0291386 0.00453545 0
0.0305433 0.0039653 0
0.0319572 0.0033256 0
0.0333681 0.00260019 0
0.034775 0.00179799 0
0.0361793 0.000930615 0
0.0375798 3.12222e-06 0
0.0389689 -0.000988429 0
0.0403357 -0.00205109 0
0.041675 -0.00318283 0
0.0429849 -0.00437751 0
0.0442643 -0.00562904 0
0.0455126 -0.00693089 0
0.0467314 -0.00827518 0
0.0479204 -0.00965638 0
0.0490661 -0.0110799 0
0.0501515 -0.0125519 0
0.0511696 -0.0140695 0
0.0521492 -0.0156071 0
0.0531202 -0.0171411 0
0.0540851 -0.0186663 0
0.0550431 -0.0201798 0
0.0559923 -0.0216793 0
0.0569311 -0.0231626 0
0.0578582 -0.0246273 0
0.0587723 -0.0260715 0
0.0596721 -0.027493 0
0.0605563 -0.02889 0
0.0614241 -0.0302609 0
0.0622742 -0.0316042 0
0.063106 -0.0329183 0
0.0639186 -0.034202 0
0.0647113 -0.0354543 0
0.0654835 -0.0366743 0
0.0662345 -0.0378613 0
0.0669642 -0.0390145 0
0.0676726 -0.0401333 0
0.0683597 -0.0412172 0
0.0690246 -0.0422665 0
0.0696662 -0.0432819 0
0.0702841 -0.0442636 0
0.0708793 -0.0452111 0
0.0714538 -0.0461237 0
0.072009 -0.047001 0
0.0725452 -0.0478434 0
0.0730611 -0.0486524 0
0.073556 -0.0494294 0
0.0740291 -0.0501756 0
0.0744812 -0.0508916 0
0.0749138 -0.0515773 0
0.0753285 -0.0522331 0
0.0757266 -0.0528592 0
0.076109 -0.0534564 0
0.0764753 -0.0540264 0
0.0768243 -0.054571 0
0.0771553 -0.0550919 0
0.0774679 -0.0555901 0
0.0777617 -0.0560669 0
0.0780369 -0.056523 0
0.0782958 -0.0569578 0
0.0785421 -0.0573703 0
0.0787786 -0.0577603 0
0.0790073 -0.0581279 0
0.0792295 -0.058474 0
0.0794462 -0.0587995 0
0.0798803 -0.0594162 0
0.0800272 -0.0596588 0
0.0800357 -0.0598891 0
0.0799275 -0.0600784 0
0.0797205 -0.0601773 0
0.0794593 -0.0601051 0
0.0789155 -0.0596491 0
0.0786707 -0.0593963 0
0.0784111 -0.0591319 0
0.0781372 -0.0588542 0
0.0778566 -0.0585548 0
0.0775715 -0.0582308 0
0.0772803 -0.0578828 0
0.0769832 -0.0575099 0
0.0766822 -0.0571097 0
0.0763801 -0.0566796 0
0.0760759 -0.0562196 0
0.0757623 -0.0557337 0
0.0754359 -0.0552232 0
0.0750951 -0.0546879 0
0.0747379 -0.054128 0
0.0743626 -0.0535435 0
0.0739688 -0.0529338 0
0.0735559 -0.0522981 0
0.0731238 -0.0516357 0
0.0726718 -0.050946 0
0.0721991 -0.0502288 0
0.0717046 -0.049484 0
0.0711872 -0.0487117 0
0.0706461 -0.047912 0
0.0700804 -0.0470849 0
0.0694892 -0.0462308 0
0.0688718 -0.0453499 0
0.0682271 -0.0444431 0
0.0675544 -0.043511 0
0.0668527 -0.0425546 0
0.0661215 -0.0415748 0
0.06536 -0.040573 0
0.0645676 -0.0395504 0
0.0637439 -0.0385087 0
0.0628887 -0.0374493 0
0.062002 -0.0363741 0
0.0610838 -0.0352847 0
0.0601345 -0.0341831 0
0.0591547 -0.033071 0
0.0581456 -0.0319502 0
0.0571083 -0.0308224 0
0.0560444 -0.0296893 0
0.0549562 -0.028552 0
0.053845 -0.0274126 0
0.0527113 -0.0262746 0
0.051554 -0.0251427 0
0.0503724 -0.0240222 0
0.0491675 -0.0229164 0
0.047941 -0.0218282 0
0.0466955 -0.0207597 0
0.0454337 -0.0197126 0
0.0441592 -0.0186878 0
0.0428751 -0.0176863 0
0.0415841 -0.0167097 0
0.0402878 -0.0157609 0
0.0389879 -0.0148428 0
0.0376864 -0.0139575 0
0.0363853 -0.013107 0
0.0350871 -0.0122931 0
0.0337942 -0.0115164 0
0.0325095 -0.0107772 0
0.0312357 -0.0100756 0
0.0299758 -0.00941024 0
0.0287337 -0.00877784 0
0.0275126 -0.00817571 0
0.0263139 -0.00760375 0
0.0251376 -0.00706528 0
0.0239829 -0.0065649 0
0.0228537 -0.00609619 0
0.0217522 -0.00565563 0
0.0206795 -0.00524226 0
0.0196364 -0.00485507 0
0.0186233 -0.00449318 0
0.0176408 -0.00415577 0
0.016689 -0.00384204 0
0.0157682 -0.00355115 0
0.0148783 -0.00328218 0
0.0140192 -0.00303468 0
0.0131906 -0.00280795 0
0.0123925 -0.00260016 0
0.0116246 -0.00241012 0
0.0108864 -0.00223769 0
0.0101774 -0.00208212 0
0.00949701 -0.00194206 0
0.00884483 -0.0018163 0
0.0082202 -0.0017039 0
0.00762247 -0.00160391 0
0.00705097 -0.00151528 0
0.006505 -0.00143697 0
0.0059838 -0.00136806 0
0.00548662 -0.00130772 0
0.00501265 -0.00125519 0
0.00456114 -0.00120954 0
0.00413136 -0.00116914 0
0.00372257 -0.00113251 0
0.00333398 -0.00109853 0
0.00296466 -0.00106798 0
0.00261363 -0.0010431 0
-0.052721 -0.0445996 0
-0.0508204 -0.0440823 0
-0.0489199 -0.0435651 0
-0.0470193 -0.0430478 0
-0.0451187 -0.0425306 0
-0.0432181 -0.0420134 0
-0.0413175 -0.0414961 0
-0.039417 -0.0409789 0
-0.0375164 -0.0404616 0
-0.0356158 -0.0399444 0
-0.0337152 -0.0394271 0
-0.0318146 -0.0389099 0
-0.0299141 -0.0383927 0
-0.0280135 -0.0378754 0
-0.0261129 -0.0373582 0
-0.0242123 -0.0368409 0
-0.0223117 -0.0363237 0
-0.0204112 -0.0358065 0
-0.0185106 -0.0352892 0
-0.01661 -0.034772 0
-0.0147094 -0.0342547 0
-0.0128088 -0.0337375 0
-0.0109083 -0.0332202 0
-0.00900769 -0.032703 0
-0.00710711 -0.0321858 0
-0.00520653 -0.0316685 0
-0.00330595 -0.0311513 0
-0.00140537 -0.030634 0
0.00190689 -0.0299614 0
0.00332271 -0.0298498 0
0.00474133 -0.0297825 0
0.00616136 -0.0297597 0
0.0075814 -0.0297814 0
0.00900007 -0.0298477 0
0.010416 -0.0299583 0
0.0118278 -0.0301127 0
0.0132342 -0.0303103 0
0.0146339 -0.0305504 0
0.0160259 -0.0308322 0
0.0174091 -0.0311546 0
0.0187824 -0.0315166 0
0.020145 -0.031917 0
0.0214961 -0.0323546 0
0.0228351 -0.032828 0
0.0241613 -0.0333361 0
0.0254744 -0.0338774 0
0.0267738 -0.0344507 0
0.0280592 -0.0350545 0
0.0293306 -0.0356877 0
0.0305875 -0.0363488 0
0.0318301 -0.0370367 0
0.0330581 -0.0377501 0
0.0342717 -0.0384879 0
0.0354708 -0.0392489 0
0.0366556 -0.0400321 0
0.0378262 -0.0408363 0
0.0389828 -0.0416607 0
0.0401254 -0.0425042 0
0.0412543 -0.0433659 0
0.0423698 -0.0442451 0
0.043472 -0.0451408 0
0.0445612 -0.0460523 0
0.0456375 -0.0469789 0
0.0467013 -0.0479199 0
0.0477529 -0.0488746 0
0.0487923 -0.0498424 0
0.04982 -0.0508227 0
0.0508362 -0.051815 0
0.051841 -0.0528187 0
0.0528348 -0.0538333 0
0.0538178 -0.0548584 0
0.0547903 -0.0558935 0
0.0557524 -0.0569382 0
0.0567045 -0.0579922 0
0.0576467 -0.0590549 0
0.0585792 -0.0601261 0
0.0595024 -0.0612055 0
0.0604163 -0.0622926 0
0.0613212 -0.0633873 0
0.0622174 -0.0644891 0
0.0631049 -0.0655979 0
0.0639841 -0.0667134 0
0.064855 -0.0678353 0
0.0657179 -0.0689633 0
0.0665729 -0.0700974 0
0.0674202 -0.0712372 0
0.06826 -0.0723826 0
0.0690925 -0.0735333 0
0.0699178 -0.0746892 0
0.070736 -0.0758501 0
0.0715473 -0.0770159 0
0.0723518 -0.0781863 0
0.0731498 -0.0793612 0
0.0739412 -0.0805405 0
0.0747264 -0.081724 0
0.0755053 -0.0829116 0
0.0762781 -0.0841033 0
0.0770449 -0.0852987 0
0.0778059 -0.0864979 0
0.0785611 -0.0877007 0
0.0793108 -0.088907 0
0.0814681 -0.0912706 0
0.0828814 -0.0924245 0
0.0842946 -0.0935783 0
0.0857079 -0.0947322 0
0.0871211 -0.095886 0
0.0885344 -0.0970399 0
0.0899476 -0.0981937 0
0.0913609 -0.0993476 0
0.0927741 -0.100501 0
0.0941874 -0.101655 0
0.0956006 -0.102809 0
0.0970139 -0.103963 0
0.0984272 -0.105117 0
0.0998404 -0.106271 0
0.101254 -0.107424 0
0.102667 -0.108578 0
0.10408 -0.109732 0
0.105493 -0.110886 0
0.106907 -0.11204 0
0.10832 -0.113194 0
0.109733 -0.114348 0
0.111146 -0.115501 0
0.11256 -0.116655 0
0.113973 -0.117809 0
0.115386 -0.118963 0
0.116799 -0.120117 0
0.118213 -0.121271 0
0.119626 -0.122424 0
0.121039 -0.123578 0
0.122452 -0.124732 0
0.123866 -0.125886 0
0.125279 -0.12704 0
0.126692 -0.128194 0
0.128105 -0.129348 0
0.129519 -0.130501 0
0.130932 -0.131655 0
0.132345 -0.132809 0
0.133758 -0.133963 0
0.135172 -0.133216 0
0.135172 -0.131316 0
0.135172 -0.129415 0
0.135172 -0.127514 0
0.135172 -0.125614 0
0.135172 -0.123713 0
0.135172 -0.121813 0
0.135172 -0.119912 0
0.135172 -0.118012 0
0.135172 -0.116111 0
0.135172 -0.11421 0
0.135172 -0.11231 0
0.135172 -0.110409 0
0.135172 -0.108509 0
0.135172 -0.106608 0
0.135172 -0.104708 0
0.135172 -0.102807 0
0.135172 -0.100906 0
0.135172 -0.0990058 0
0.135172 -0.0971052 0
0.135172 -0.0952046 0
0.135172 -0.0933041 0
0.135172 -0.0914035 0
0.135172 -0.0895029 0
0.135172 -0.0876023 0
0.135172 -0.0857017 0
0.135172 -0.0838012 0
0.135172 -0.0819006 0
0.133758 -0.0788462 0
0.132345 -0.0776923 0
0.130932 -0.0765385 0
0.129519 -0.0753846 0
0.128105 -0.0742308 0
0.126692 -0.0730769 0
0.125279 -0.0719231 0
0.123866 -0.0707692 0
0.122452 -0.0696154 0
0.121039 -0.0684615 0
0.119626 -0.0673077 0
0.118213 -0.0661538 0
0.116799 -0.065 0
0.115386 -0.0638462 0
0.113973 -0.0626923 0
0.11256 -0.0615385 0
0.111146 -0.0603846 0
0.109733 -0.0592308 0
0.10832 -0.0580769 0
0.106907 -0.0569231 0
0.105493 -0.0557692 0
0.10408 -0.0546154 0
0.102667 -0.0534615 0
0.101254 -0.0523077 0
0.0998404 -0.0511538 0
0.0984272 -0.05 0
0.0970139 -0.0488462 0
0.0956006 -0.0476923 0
[...]
CELL_DATA 13116
SCALARS rho float
LOOKUP_TABLE default
0.631813
0.716707
0.331709
0.700794
0.700745
0.696266
0.321493
0.70155
0.578976
0.700875
0.328508
0.292735
0.700743
0.303023
0.30636
0.696229
0.628949
0.699579
0.695901
0.340027
0.621082
0.321505
0.309329
0.700157
0.63384
0.701392
0.700927
0.32399
0.615258
0.675311
1.14195
0.297459
0.593684
0.476943
0.321432
0.627826
0.699894
0.702128
0.698391
0.700754
0.692705
0.701644
0.487312
0.332268
0.702363
0.698244
0.705868
0.698778
0.321289
0.562975
0.70054
0.493692
0.310952
0.622725
0.594477
0.618716
0.330906
0.700245
0.568347
0.311595
0.306756
0.700582
0.706296
0.74669
1.14322
0.324066
0.698248
0.699246
0.698726
1.12789
0.308667
0.602464
0.321939
0.323989
1.14107
0.333749
0.703457
0.700524
0.325778
0.700271
0.703513
0.701931
0.700536
0.701388
0.701866
0.470443
0.32221
0.691424
0.701846
0.347062
0.298508
0.716405
0.700355
0.70167
0.684091
0.63742
0.636335
1.14337
1.14264
0.618439
0.694255
0.691047
0.693589
0.416663
0.703913
0.299533
0.387001
0.558692
0.32036
0.627629
0.583747
0.702209
0.634592
0.701885
0.70027
0.698629
0.318345
0.367527
0.700154
0.699695
0.698185
0.328735
0.698943
0.29934
0.702154
0.44778
0.321076
0.541588
0.323155
0.5605
0.70008
0.70383
0.515167
0.321714
0.506336
0.660838
1.12965
0.699509
0.693097
0.699749
0.696759
0.705853
0.544768
0.699547
0.716991
0.287166
0.322766
0.701544
0.700744
0.701042
0.552372
0.700763
0.698073
0.334808
0.700667
0.701621
0.308904
0.698503
1.14254
0.690195
0.700314
0.327706
0.700276
0.312486
0.329591
0.700829
0.702157
0.699857
0.321308
0.49469
0.436494
1.13308
0.303807
0.53905
0.698365
0.307323
0.313883
0.322046
0.702308
0.691623
0.345162
0.437518
0.601257
0.698521
0.692049
0.570595
0.340746
0.700103
0.703541
0.529677
0.689691
0.701295
1.10435
0.303724
0.701148
0.692393
0.700622
0.701024
0.701977
0.383753
0.418522
0.635033
0.538329
0.318128
0.700526
0.699183
0.513105
0.643754
0.296375
0.336228
0.335004
0.696205
0.309021
0.351246
0.34214
0.33485
0.366638
0.699327
0.702237
0.45628
0.330989
0.698009
0.579768
0.344698
0.553642
0.700537
0.715979
0.323909
0.698326
0.417757
0.702653
0.29722
1.09487
0.58844
1.14249
0.701209
1.02158
0.319862
0.404054
0.687855
1.14236
0.691007
1.12973
0.978062
0.701769
0.313589
0.700426
0.700626
1.14059
0.328059
0.32343
0.696586
0.700089
1.1295
0.700104
0.630186
0.700485
0.329047
0.326602
0.383103
0.287548
0.703518
0.700545
0.703849
0.325003
0.700427
0.333204
0.458625
0.703871
0.334303
0.701878
0.700743
1.13937
0.70022
0.320147
1.13826
0.702006
1.14029
0.699404
0.328316
0.328444
0.305905
0.659514
0.325365
0.331376
0.371219
0.340269
0.703083
0.304503
0.701618
0.700771
0.339248
0.345857
0.333448
0.504946
0.328292
0.69112
0.683422
0.703345
0.334814
0.69503
0.58537
0.320964
0.310384
0.680542
0.700166
0.700831
0.340371
0.694276
0.421541
0.704204
0.70138
0.700923
0.701277
0.304535
0.698222
0.291654
0.697781
0.699972
0.684072
0.341486
0.366995
0.700626
0.330203
0.704432
0.700617
0.366627
0.700444
0.700515
0.332841
0.700569
0.70039
0.251335
0.699892
0.458433
0.570998
0.702912
0.471207
0.699434
0.326128
0.700186
0.373661
0.857569
0.697276
0.700939
0.322398
0.392247
0.701595
0.333507
0.700427
0.703275
0.406041
1.13524
0.338928
0.324258
0.700537
0.55779
0.700165
0.327219
0.310604
0.700412
0.700752
0.324304
0.700561
0.315427
0.294181
0.699316
0.702582
0.557625
0.363662
0.699785
1.14115
0.695864
0.700741
0.700178
0.555922
0.350083
0.286221
0.346103
0.695443
0.345886
0.602508
0.36807
0.300164
0.386861
0.567405
0.14014
0.334373
0.701526
0.291707
0.700315
0.619403
0.692757
0.684399
0.700259
0.324568
0.330091
0.387983
0.355714
0.700953
0.632365
0.692737
0.618997
0.717977
0.655402
0.701794
0.680409
0.673699
0.700283
0.700252
0.691444
0.386343
0.533388
0.630731
0.317655
0.679824
0.619366
0.312667
0.698458
1.14102
0.305372
0.33937
0.341673
0.341223
0.641599
0.317879
0.304156
0.697414
0.328319
0.591193
0.349177
0.69859
0.704431
0.327263
0.32031
0.700649
0.504866
0.354965
0.341513
0.354054
0.319098
0.331683
0.341005
0.333693
0.464838
0.333706
0.691101
0.336807
0.701903
0.370702
0.300869
0.508474
0.279092
0.345038
0.284249
0.70049
0.471337
0.65618
0.567356
0.328043
0.6471
0.701864
0.46613
0.700643
0.660719
0.662991
0.334984
1.1431
0.37563
0.700309
1.14418
0.312349
0.30795
0.703492
0.357723
0.469799
0.699024
0.387497
0.697402
0.716986
0.346943
0.315063
0.308987
0.537746
0.306485
0.284544
0.306405
0.290292
0.700976
0.700761
0.513287
0.621393
0.508772
0.701846
0.359044
0.324425
0.581964
0.313057
0.704214
0.344306
0.400199
0.512834
0.702469
0.702296
0.565019
0.3654
0.310488
0.563619
0.70136
1.05359
0.560696
0.704898
0.703439
0.335106
0.704903
0.58465
0.686648
0.346021
0.328347
0.702216
0.700586
0.682741
0.700618
0.702252
0.701394
0.700225
0.684303
0.692762
0.343938
0.702279
0.384981
0.307119
0.35405
0.700757
0.697493
0.36728
0.702002
0.631681
0.343109
0.885677
0.700182
0.700674
0.323792
0.325661
0.700607
0.359329
0.363405
0.277262
0.336313
0.705722
0.267812
0.700435
0.333981
0.718184
0.700553
0.697943
0.700744
0.358932
0.348152
0.702564
0.70309
0.701774
0.700937
0.700641
0.503889
0.334231
0.314792
0.69441
0.573492
0.3435
0.502316
0.29966
0.702109
0.699456
0.342504
0.3258
0.702135
0.477485
0.701482
0.671639
0.322875
0.413062
0.70064
1.14225
0.313914
0.702232
0.702097
0.700752
0.331324
1.13463
0.328854
1.14179
0.685613
0.365318
0.3662
0.331974
1.13789
0.32176
0.322526
0.369552
0.759026
0.701967
0.323338
0.32272
0.341118
0.839526
0.324328
0.691916
0.291456
0.605068
0.700565
0.37283
0.312065
0.31035
0.504782
0.316106
0.702203
0.339627
0.321815
0.696813
0.308725
0.695901
0.705078
1.14343
0.352666
0.703438
0.700308
0.700583
0.694695
0.702308
0.699084
0.291308
1.10889
0.461203
0.708493
0.32873
0.70155
0.560616
0.319138
1.13843
0.700589
0.328936
0.676936
0.298953
0.311448
0.697217
0.700489
0.300152
0.287907
0.324704
0.288695
0.702226
0.699951
0.330986
0.345495
0.700445
0.699753
0.608199
0.700292
0.699241
0.328518
0.700996
0.451013
0.700486
0.380675
0.628346
0.500523
0.697963
0.701091
0.584795
0.356031
0.321494
0.700431
0.61248
0.623601
0.700293
0.28131
0.702981
0.700715
0.417106
0.520787
0.70035
0.365257
1.13294
0.688549
0.361749
0.700201
0.681947
0.329302
0.702356
0.305508
0.702183
0.335876
0.69557
0.705649
0.320026
0.709825
0.700295
0.700511
0.633969
0.705238
0.585813
0.343387
0.418838
0.295908
0.321541
1.13241
0.556694
0.699146
0.700694
0.345948
0.344587
0.703449
0.700574
0.700676
0.700868
0.336284
0.70007
0.700645
0.340426
0.290545
0.700299
0.695396
0.702266
0.292712
0.592015
0.327054
0.702804
0.704587
1.06096
0.712538
0.340252
0.70775
0.701712
0.700502
0.700753
0.692542
0.458215
0.700235
0.336541
0.700739
0.700666
0.495479
0.71861
1.00194
0.700605
0.428473
0.396744
0.589286
0.67477
0.361242
0.365093
0.335232
0.334219
0.717902
0.703326
1.00063
0.343611
0.332122
0.698492
0.699227
0.257054
0.346148
0.502695
0.704037
0.700695
0.700955
0.700183
0.337098
0.362548
1.13469
0.299798
0.351061
0.338836
0.696121
0.326797
0.355889
0.614143
0.705104
0.702619
0.683026
0.699828
0.319095
0.309035
0.336522
0.573716
0.475783
0.298792
0.699323
0.70017
0.702848
0.69399
0.29702
0.357384
0.700642
0.357588
0.692498
0.705012
1.14199
0.300079
0.355654
0.702493
1.14022
0.6508
0.256337
0.701482
0.689949
0.611709
0.700981
0.700952
1.13613
0.705057
0.337794
0.699484
1.13293
0.695532
0.702655
1.13285
0.702641
1.138
0.699321
0.321315
0.320644
0.358457
1.14028
0.563998
0.357859
0.703562
0.700517
0.296908
0.679836
0.327338
0.68893
0.556219
0.319706
0.700535
0.699683
0.34491
0.548753
1.13983
0.322723
0.701913
0.319511
0.296597
0.653228
0.630686
0.508295
0.693936
0.335237
0.700322
0.317752
0.299077
0.695568
0.341923
0.639239
0.299142
0.682198
0.628509
1.14113
0.702118
0.296848
0.321351
0.694815
0.497408
0.700883
0.528199
0.632521
0.697411
0.700511
0.512041
0.624572
0.701986
0.700693
0.698582
0.378136
0.366724
0.543561
0.701492
0.700903
0.37102
0.695179
0.650624
0.386983
0.299976
0.685558
0.70349
1.12909
1.13637
0.698384
0.702398
0.695975
0.70392
0.297381
0.680133
0.502416
0.7006
0.696319
0.343557
0.701672
0.700645
0.323777
0.31675
0.332475
1.13365
0.327813
0.651256
0.700456
0.679952
0.338769
0.70266
0.313806
0.592755
0.803429
1.05835
0.69808
0.847555
0.642243
0.703778
0.580052
0.709555
0.335923
0.691961
0.697794
0.472955
1.13693
0.702947
0.306592
0.292478
0.324155
0.700887
0.364435
1.13601
0.337384
0.701428
0.308122
0.500813
0.295925
0.700315
0.700651
0.628833
0.31203
0.644186
0.671847
0.339101
0.609426
0.700725
0.299084
0.620421
1.14139
0.700551
0.692489
0.310901
0.550063
0.700493
0.693157
0.703675
0.35795
0.392242
0.7013
1.13658
1.14206
1.1382
0.612884
0.703406
0.609456
0.700339
0.357335
0.315767
1.13892
0.700689
0.714032
0.323371
0.692035
0.625118
0.653268
0.3332
0.444406
0.700657
0.700767
0.579509
0.354759
0.693041
1.13945
0.322469
0.633083
0.70017
0.322724
0.300582
0.297372
0.702246
0.330036
0.344877
0.700739
0.536916
0.70086
0.684612
0.320409
0.333572
0.701078
0.323445
0.318845
1.1411
0.315833
0.363596
0.623406
0.702342
0.703353
0.332631
0.32935
0.328342
0.705171
0.298823
0.702721
0.313777
0.703462
0.701262
0.701994
0.704407
0.70762
0.704681
0.7004
0.700726
0.700498
0.279031
0.335765
0.714598
0.68221
0.510967
0.703033
0.588779
0.730091
0.695222
0.327262
0.699363
0.700633
0.703831
0.327951
0.706953
0.327823
0.701698
0.504764
0.700159
0.694588
0.319603
0.701151
0.340778
0.443821
0.708648
0.338144
0.69977
1.13365
0.702169
0.340479
0.697353
0.334756
0.299619
0.300378
0.342644
0.694339
0.301115
0.695274
0.904626
0.356457
0.303954
0.500362
0.588434
0.664605
0.70259
0.351637
0.326955
0.324514
0.29617
0.306264
0.667438
0.701941
0.324781
0.836859
0.700635
0.29853
0.700334
0.69788
0.840129
0.331643
1.13684
0.705744
0.700321
0.701004
0.306012
0.702486
0.700566
0.706334
0.684502
0.688711
0.33242
0.301217
0.699899
0.538923
0.359664
0.695425
0.303386
0.572865
0.670712
0.702337
0.702224
0.299594
0.703126
0.381307
0.328624
0.700369
0.700478
0.700667
0.70036
0.69817
0.29999
0.700726
0.310132
0.509779
0.700833
1.14339
0.700607
0.328735
0.320077
0.700629
0.3392
0.700645
0.666882
0.448905
0.342212
0.699683
0.299037
0.694238
0.700626
0.702001
0.299411
0.320877
0.5335
0.577299
0.65774
0.53227
0.69874
0.70322
0.701575
1.1319
0.702902
0.315898
0.341112
0.700562
0.686704
0.704292
0.491188
0.319897
0.706162
0.302683
0.699497
0.629207
0.345707
0.701275
0.331623
0.702109
0.331193
0.700747
0.31983
0.7035
0.688963
0.298195
0.702071
0.674462
0.294551
0.998828
0.700198
0.591015
0.274049
0.367712
0.533647
0.700307
0.699857
0.345926
0.588178
0.70216
0.695
0.34119
0.662738
0.702699
0.471736
0.698133
0.697404
0.358931
0.699974
1.13934
0.332495
0.638551
0.341737
0.691833
0.337356
0.29327
0.7005
0.344886
0.341646
0.297198
0.697863
0.704032
0.391978
0.692982
0.365306
0.710327
0.335829
0.70277
0.369345
0.697468
0.70011
0.698479
1.02381
0.551193
0.688355
0.842803
0.327171
0.656856
0.698869
0.592669
0.703276
0.503819
0.407402
0.700737
0.342569
0.591036
0.327779
0.69273
0.280986
0.303465
0.69974
0.699576
0.347225
0.700317
0.700168
1.13284
0.700765
1.13881
0.338566
0.700347
0.349169
0.310614
0.701971
0.700184
0.701481
0.701926
0.293794
0.336635
0.327186
0.713867
0.92475
0.365949
0.702584
0.321971
0.338329
0.333525
0.701819
0.376297
0.70063
0.700564
0.654515
0.700646
0.700714
0.619146
0.701892
0.466457
0.297284
0.347837
1.13752
1.13499
0.321427
0.668102
0.701673
0.699064
0.311185
0.433112
0.703847
0.312267
0.701586
0.686451
0.350226
0.675735
0.717248
0.361243
0.704064
0.317736
0.698994
0.700908
0.707761
0.299783
0.489177
0.699501
0.363646
0.463059
0.700294
0.363082
0.673963
0.698468
0.701791
0.700221
0.354509
1.14137
0.700506
0.694111
0.390194
0.700011
0.315217
0.266114
0.702128
0.700297
0.903417
0.25664
0.694897
0.654056
1.14158
0.325774
0.31308
0.357206
0.700212
0.323739
0.310917
0.329991
0.683631
0.314795
0.335489
0.470106
0.702611
0.354981
1.03857
0.713472
0.700526
0.340318
0.700173
0.6818
0.862441
0.447839
0.68276
0.322762
0.341875
0.69709
0.346871
0.671682
0.702613
1.1407
0.353401
0.366751
0.329655
0.561838
1.129
0.266452
0.702053
0.697695
0.700237
0.336848
0.306561
0.374301
0.701847
0.347801
1.13135
0.618768
0.677616
0.701318
0.328765
0.676339
0.292592
0.6809
0.668615
0.700558
0.671162
0.594399
0.685959
0.705453
0.700525
0.341334
0.369611
0.329783
0.700195
0.575741
1.14346
0.353162
0.401809
0.70025
0.700234
1.10763
0.347699
0.700678
0.559942
0.565676
0.700841
0.316644
0.34762
0.360185
0.70002
0.939829
0.6825
0.702119
0.375513
0.702113
0.67919
0.920455
0.938566
0.702005
0.7006
0.694345
0.700153
0.700567
0.31207
0.699825
0.700355
0.696153
0.700112
0.700639
0.659652
0.345927
0.301538
0.700514
0.356464
0.354691
0.700831
0.315384
0.655699
0.698279
0.711203
0.703166
0.308767
0.701
0.300691
0.316135
0.695132
0.704
0.694542
0.339899
0.70027
0.692927
0.700576
0.700321
0.316883
0.693218
0.700628
0.715379
0.384133
0.700219
0.330556
0.700256
0.336734
0.34816
0.632948
0.49801
0.700528
0.70027
0.692313
0.329646
0.692438
0.3948
0.311369
0.702033
0.501149
0.351343
0.692595
0.309901
0.516551
0.695929
0.70544
0.702707
0.502416
0.604255
0.686312
0.69215
0.662173
0.70071
0.540259
0.701553
0.701816
0.678914
0.290266
0.32631
0.492954
0.700292
0.307454
0.688535
0.700514
0.638355
0.692575
0.617525
0.700411
0.703933
0.330707
0.70018
0.703374
0.602869
0.703538
0.700631
0.702279
0.67875
0.337378
0.319924
0.707372
0.580034
0.615044
0.699557
0.702256
0.693857
0.700664
0.701067
0.655774
0.703482
0.700365
0.306561
0.259965
0.271277
0.333649
1.14162
0.521719
0.607702
0.701526
0.70323
0.311698
0.705495
0.700795
0.339373
0.403979
1.13655
0.69981
0.316586
0.298442
0.279314
1.13156
0.701821
0.386723
0.316425
0.349155
0.296791
0.36031
0.361237
0.702532
0.699587
0.704323
0.339656
0.709721
0.653851
0.623173
0.347023
0.337326
0.702054
1.13234
0.351766
0.698295
0.360362
0.700141
0.312389
0.700606
0.342962
0.702735
0.700784
0.339858
0.567852
0.336524
0.700249
0.307597
0.659051
0.302891
0.55321
0.323933
0.65563
0.339508
1.08286
1.08474
0.6225
0.708599
0.349207
0.702954
0.679478
0.700501
0.650671
0.710081
0.338961
0.428851
0.325343
0.700416
0.331745
0.70062
0.559272
0.700143
0.700546
0.547764
0.70025
0.312188
0.315476
0.311299
0.547864
0.635426
0.702979
0.335902
0.328141
0.695414
0.424745
0.298309
0.658987
0.360451
0.35398
0.303884
0.701612
0.672632
0.662119
0.315514
0.703496
0.699575
0.300405
0.377753
0.701778
0.699534
0.678665
0.519797
0.447077
0.393206
0.335724
0.70231
0.700294
0.575399
0.700671
0.306962
0.611194
0.330352
1.13837
0.700552
0.342366
0.337667
0.704895
0.655315
0.700727
0.700609
0.700446
0.700896
0.700733
0.335307
0.319288
0.330321
0.329355
0.632487
1.14432
0.674034
0.333648
0.351237
0.512661
0.300275
0.693707
0.705027
0.341178
0.345597
0.698177
0.315748
0.686339
0.700337
0.704769
0.693474
0.628369
0.363242
0.34055
0.703118
0.343894
0.420767
0.388897
0.681984
0.699677
0.346219
0.350605
1.13373
0.33949
0.698486
0.700382
0.357305
0.324421
0.307037
0.698163
0.315679
1.13387
0.702067
0.642174
0.299215
0.536114
0.700584
0.70233
0.322602
0.703047
0.699663
0.300682
0.700491
0.70141
0.328306
0.350772
0.702511
0.336731
0.329534
0.702452
0.39268
0.697197
0.700182
0.700416
0.695033
0.700681
0.698135
0.677605
0.325919
0.444999
0.71157
0.705482
0.487042
0.700438
0.352769
0.699333
0.702605
0.603173
0.68048
0.428324
0.504974
0.704664
0.700465
0.702127
0.700778
0.697098
1.13614
0.700876
1.13305
0.702385
0.70205
0.702106
1.135
0.685928
0.296054
0.70209
0.327244
0.69956
0.699728
0.700292
0.704909
0.700118
0.324367
0.332429
0.366975
0.324052
0.705401
0.342283
0.331481
0.703324
0.298068
0.700229
0.335273
0.703338
0.702071
0.345016
0.425062
0.34888
0.700261
0.32316
0.702506
0.701299
0.329449
0.702149
0.568564
0.359488
0.322706
0.300149
0.699694
0.353355
0.70032
0.616259
0.340069
0.702255
0.692835
0.700393
0.360183
0.617019
0.299968
0.710612
0.682228
0.698791
0.361719
0.705846
0.699456
0.70318
0.382782
0.700201
0.363361
0.335107
0.701037
0.515717
0.700792
0.416631
0.358787
0.47653
0.703943
0.322702
0.29706
0.335133
0.564332
1.13931
0.701482
0.262841
0.648743
0.697747
0.559754
0.466779
0.340377
0.570678
0.366011
0.333405
0.700586
0.336255
0.353593
0.700871
0.700976
0.339091
0.700142
0.33443
1.13669
0.324767
0.702169
1.11711
0.700192
0.692863
0.318049
0.332326
0.299619
0.694247
0.702059
0.601184
0.569914
0.416249
0.347959
0.692242
0.326857
0.698413
0.411748
1.0843
0.700408
0.340987
0.330729
0.337949
0.349804
0.329438
0.70413
0.704803
0.343324
0.700062
0.673059
0.343411
0.304021
0.700801
0.348092
0.701823
0.459658
0.700302
0.684888
0.700211
1.13847
0.317036
0.701079
0.700083
0.701674
0.346345
0.699113
0.611442
0.352604
0.700384
0.699564
0.702472
0.703981
0.700688
0.701336
0.701167
0.697549
0.69739
0.345827
0.700369
0.338714
0.537863
0.700283
0.299914
0.702533
0.704008
0.325606
0.703491
0.34723
0.29824
0.701802
0.700634
0.700954
0.33353
0.704308
0.644354
0.325483
0.341415
0.702301
0.699631
0.403844
0.331798
0.700462
0.700865
0.360549
0.677145
0.700859
0.673296
0.336208
0.362641
0.296857
0.685174
0.321996
0.702802
0.700223
0.692373
0.65995
0.701224
0.334312
0.702137
0.634539
0.700716
0.669065
0.30295
0.324476
0.299416
0.700407
0.700777
0.457416
0.683209
0.33062
0.700726
0.699534
0.281763
0.696978
0.702467
0.65867
0.340244
0.328144
0.336364
0.700661
0.700746
0.641886
0.519557
0.700159
0.35089
0.664312
1.14025
0.70575
0.339579
0.644538
0.328128
0.704131
0.29468
0.703896
0.701846
0.316207
0.700637
0.489135
1.13696
0.683406
1.13188
0.700853
0.411963
0.6922
0.692831
0.699505
0.703742
0.495543
1.13945
0.294468
0.692881
0.297267
0.347243
0.310438
0.329222
0.3643
0.341757
0.700939
0.400638
0.311985
0.694735
0.700646
0.704563
0.389713
0.699925
0.700763
0.687113
0.296917
0.676426
0.698379
0.337378
0.332142
0.331986
0.662465
0.513335
0.355717
0.664315
0.297551
1.13973
0.509228
0.317452
0.498297
0.68028
0.342534
0.699167
0.300142
0.581353
0.401814
0.702226
0.384485
0.696777
1.13969
0.702454
0.462017
0.339682
0.702331
0.700729
0.330737
0.299338
0.697329
0.349668
0.700216
0.339002
0.568273
0.291968
0.698085
0.319722
0.700881
0.347399
0.699667
0.700234
0.700492
1.14172
0.298209
0.307233
0.387119
0.702025
0.703599
0.703852
0.638514
0.324275
0.700289
0.34219
0.702247
0.696018
0.40904
0.341444
0.700388
0.700445
0.301608
1.14172
0.70224
0.70053
0.700428
0.303702
0.666314
0.342056
0.700607
0.317136
0.796945
0.702223
0.702285
0.701057
0.342148
0.701247
0.343467
0.330338
0.698547
1.14215
0.588168
0.706749
1.14121
0.347184
0.69967
0.702017
0.701165
0.300123
0.461953
0.700874
0.341318
0.69944
0.700883
0.702406
0.70207
0.320306
0.515925
0.676743
0.313482
0.702353
0.70021
0.540721
0.701865
0.326879
0.702922
0.699538
0.697186
0.701827
0.326789
0.304507
0.703089
0.703062
0.318743
0.353733
0.318861
0.313593
0.310294
0.298509
0.327339
0.358076
0.704295
0.301239
0.337523
0.700916
0.589659
1.13462
0.413169
0.352178
0.698094
0.535974
0.574008
0.700667
0.373672
0.682054
1.02178
0.628409
0.704075
0.3253
0.70113
0.745709
0.326944
0.334187
0.411203
0.703453
0.630087
0.700636
0.696109
0.705203
0.710441
0.369539
0.700551
0.686958
0.702244
0.346726
0.698378
0.683459
0.366214
0.473787
0.307732
0.296826
0.303083
0.625481
0.696866
0.712293
0.334182
0.430692
0.700863
0.299376
0.701288
0.692871
0.702568
0.696999
0.700468
0.332568
0.298343
0.28458
0.619999
0.317681
0.698017
0.28557
0.697347
0.698616
0.699791
0.329182
0.511671
0.403629
0.700526
0.332174
0.330913
0.700987
0.702669
0.683486
0.696579
0.702252
0.700184
0.365902
0.644826
0.700773
0.533916
0.701537
0.700634
0.700273
0.476139
0.456721
0.701245
0.507591
0.664898
0.340489
0.708424
0.701801
0.385087
0.3227
0.714374
0.53791
0.700544
0.7013
0.355147
0.343356
1.13913
0.452324
0.395731
0.70141
0.702179
0.330082
0.701398
1.14212
0.705244
0.366398
0.625227
0.364493
0.700869
0.700507
0.700194
0.714382
1.14705
0.33843
0.363629
0.705373
0.339999
0.624206
0.336791
0.70009
0.276397
0.684805
0.700773
1.1446
0.36198
1.13366
1.1385
0.329521
0.711143
0.300467
0.701718
0.35589
0.341461
0.267132
0.705533
0.701544
0.373918
0.361985
0.701532
0.700731
0.508088
0.6998
0.3624
0.568258
0.350315
0.70717
0.33184
0.696794
0.701491
0.322099
0.445989
0.342209