# vtk DataFile Version 1.0
unstructured grid
ascii
DATASET UNSTRUCTURED_GRID
points 13672 float
0.0796578 -0.059106 0
0.00128732 0.00159165 0
0.00227961 -0.00102548 0
0.0791586 -0.0598787 0
-0.0546216 0.01 0
0.000495206 0.025 0
0.0800549 -0.035 0
0.135172 -0.08 0
-0.0546216 -0.0451168 0
0.000495206 -0.0301168 0
0.0800549 -0.0901168 0
0.135172 -0.135117 0
-0.0546216 -0.0451168 -0.00551168
0.000495206 -0.0301168 -0.00551168
0.0800549 -0.0901168 -0.00551168
0.135172 -0.135117 -0.00551168
0.135172 -0.08 -0.00551168
0.0800549 -0.035 -0.00551168
0.000495206 0.025 -0.00551168
-0.0546216 0.01 -0.00551168
0.00128732 0.00159165 -0.00551168
0.00227961 -0.00102548 -0.00551168
0.0791586 -0.0598787 -0.00551168
0.0796578 -0.059106 -0.00551168
0.00165953 -0.000990923 0
0.00119576 -0.000874076 0
0.000866021 -0.000641801 0
0.000645147 -0.000349912 0
0.00052235 -1.7281e-05 0
0.00049972 0.000348016 0
0.000601632 0.000737716 0
0.000861774 0.0011403 0
0.00157235 0.00183217 0
0.00188647 0.00206725 0
0.00222612 0.00230203 0
0.00258713 0.00254351 0
0.00296826 0.00279524 0
0.00337118 0.00305664 0
0.00379785 0.00332658 0
0.00425045 0.00360349 0
0.00473139 0.00388521 0
0.0052432 0.00416895 0
0.0057881 0.00445204 0
0.00636753 0.00473281 0
0.00698281 0.00500961 0
0.00763526 0.00528058 0
0.00832616 0.00554366 0
0.00905691 0.00579603 0
0.00982918 0.00603333 0
0.0106445 0.00625033 0
0.0115038 0.00644128 0
0.0124073 0.00660297 0
0.0133543 0.00673414 0
0.0143444 0.00683382 0
0.0153769 0.00690031 0
0.0164512 0.00693173 0
0.0175666 0.00692547 0
0.0187219 0.00687822 0
0.0199156 0.00678477 0
0.0211454 0.00663864 0
0.0224084 0.00643275 0
0.0237018 0.00616676 0
0.0250249 0.00584739 0
0.026375 0.00547298 0
0.0277479 0.00503752 0
0.0291386 0.00453545 0
0.0305433 0.0039653 0
0.0319572 0.0033256 0
0.0333681 0.00260019 0
0.034775 0.00179799 0
0.0361793 0.000930615 0
0.0375798 3.12222e-06 0
0.0389689 -0.000988429 0
0.0403357 -0.00205109 0
0.041675 -0.00318283 0
0.0429849 -0.00437751 0
0.0442643 -0.00562904 0
0.0455126 -0.00693089 0
0.0467314 -0.00827518 0
0.0479204 -0.00965638 0
0.0490661 -0.0110799 0
0.0501515 -0.0125519 0
0.0511696 -0.0140695 0
0.0521492 -0.0156071 0
0.0531202 -0.0171411 0
0.0540851 -0.0186663 0
0.0550431 -0.0201798 0
0.0559923 -0.0216793 0
0.0569311 -0.0231626 0
0.0578582 -0.0246273 0
0.0587723 -0.0260715 0
0.0596721 -0.027493 0
0.0605563 -0.02889 0
0.0614241 -0.0302609 0
0.0622742 -0.0316042 0
0.063106 -0.0329183 0
0.0639186 -0.034202 0
0.0647113 -0.0354543 0
0.0654835 -0.0366743 0
0.0662345 -0.0378613 0
0.0669642 -0.0390145 0
0.0676726 -0.0401333 0
0.0683597 -0.0412172 0
0.0690246 -0.0422665 0
0.0696662 -0.0432819 0
0.0702841 -0.0442636 0
0.0708793 -0.0452111 0
0.0714538 -0.0461237 0
0.072009 -0.047001 0
0.0725452 -0.0478434 0
0.0730611 -0.0486524 0
0.073556 -0.0494294 0
0.0740291 -0.0501756 0
0.0744812 -0.0508916 0
0.0749138 -0.0515773 0
0.0753285 -0.0522331 0
0.0757266 -0.0528592 0
0.076109 -0.0534564 0
0.0764753 -0.0540264 0
0.0768243 -0.054571 0
0.0771553 -0.0550919 0
0.0774679 -0.0555901 0
0.0777617 -0.0560669 0
0.0780369 -0.056523 0
0.0782958 -0.0569578 0
0.0785421 -0.0573703 0
0.0787786 -0.0577603 0
0.0790073 -0.0581279 0
0.0792295 -0.058474 0
0.0794462 -0.0587995 0
0.0798803 -0.0594162 0
0.0800272 -0.0596588 0
0.0800357 -0.0598891 0
0.0799275 -0.0600784 0
0.0797205 -0.0601773 0
0.0794593 -0.0601051 0
0.0789155 -0.0596491 0
0.0786707 -0.0593963 0
0.0784111 -0.0591319 0
0.0781372 -0.0588542 0
0.0778566 -0.0585548 0
0.0775715 -0.0582308 0
0.0772803 -0.0578828 0
0.0769832 -0.0575099 0
0.0766822 -0.0571097 0
0.0763801 -0.0566796 0
0.0760759 -0.0562196 0
0.0757623 -0.0557337 0
0.0754359 -0.0552232 0
0.0750951 -0.0546879 0
0.0747379 -0.054128 0
0.0743626 -0.0535435 0
0.0739688 -0.0529338 0
0.0735559 -0.0522981 0
0.0731238 -0.0516357 0
0.0726718 -0.050946 0
0.0721991 -0.0502288 0
0.0717046 -0.049484 0
0.0711872 -0.0487117 0
0.0706461 -0.047912 0
0.0700804 -0.0470849 0
0.0694892 -0.0462308 0
0.0688718 -0.0453499 0
0.0682271 -0.0444431 0
0.0675544 -0.043511 0
0.0668527 -0.0425546 0
0.0661215 -0.0415748 0
0.06536 -0.040573 0
0.0645676 -0.0395504 0
0.0637439 -0.0385087 0
0.0628887 -0.0374493 0
0.062002 -0.0363741 0
0.0610838 -0.0352847 0
0.0601345 -0.0341831 0
0.0591547 -0.033071 0
0.0581456 -0.0319502 0
0.0571083 -0.0308224 0
0.0560444 -0.0296893 0
0.0549562 -0.028552 0
0.053845 -0.0274126 0
0.0527113 -0.0262746 0
0.051554 -0.0251427 0
0.0503724 -0.0240222 0
0.0491675 -0.0229164 0
0.047941 -0.0218282 0
0.0466955 -0.0207597 0
0.0454337 -0.0197126 0
0.0441592 -0.0186878 0
0.0428751 -0.0176863 0
0.0415841 -0.0167097 0
0.0402878 -0.0157609 0
0.0389879 -0.0148428 0
0.0376864 -0.0139575 0
0.0363853 -0.013107 0
0.0350871 -0.0122931 0
0.0337942 -0.0115164 0
0.0325095 -0.0107772 0
0.0312357 -0.0100756 0
0.0299758 -0.00941024 0
0.0287337 -0.00877784 0
0.0275126 -0.00817571 0
0.0263139 -0.00760375 0
0.0251376 -0.00706528 0
0.0239829 -0.0065649 0
0.0228537 -0.00609619 0
0.0217522 -0.00565563 0
0.0206795 -0.00524226 0
0.0196364 -0.00485507 0
0.0186233 -0.00449318 0
0.0176408 -0.00415577 0
0.016689 -0.00384204 0
0.0157682 -0.00355115 0
0.0148783 -0.00328218 0
0.0140192 -0.00303468 0
0.0131906 -0.00280795 0
0.0123925 -0.00260016 0
0.0116246 -0.00241012 0
0.0108864 -0.00223769 0
0.0101774 -0.00208212 0
0.00949701 -0.00194206 0
0.00884483 -0.0018163 0
0.0082202 -0.0017039 0
0.00762247 -0.00160391 0
0.00705097 -0.00151528 0
0.006505 -0.00143697 0
0.0059838 -0.00136806 0
0.00548662 -0.00130772 0
0.00501265 -0.00125519 0
0.00456114 -0.00120954 0
0.00413136 -0.00116914 0
0.00372257 -0.00113251 0
0.00333398 -0.00109853 0
0.00296466 -0.00106798 0
0.00261363 -0.0010431 0
-0.052721 -0.0445996 0
-0.0508204 -0.0440823 0
-0.0489199 -0.0435651 0
-0.0470193 -0.0430478 0
-0.0451187 -0.0425306 0
-0.0432181 -0.0420134 0
-0.0413175 -0.0414961 0
-0.039417 -0.0409789 0
-0.0375164 -0.0404616 0
-0.0356158 -0.0399444 0
-0.0337152 -0.0394271 0
-0.0318146 -0.0389099 0
-0.0299141 -0.0383927 0
-0.0280135 -0.0378754 0
-0.0261129 -0.0373582 0
-0.0242123 -0.0368409 0
-0.0223117 -0.0363237 0
-0.0204112 -0.0358065 0
-0.0185106 -0.0352892 0
-0.01661 -0.034772 0
-0.0147094 -0.0342547 0
-0.0128088 -0.0337375 0
-0.0109083 -0.0332202 0
-0.00900769 -0.032703 0
-0.00710711 -0.0321858 0
-0.00520653 -0.0316685 0
-0.00330595 -0.0311513 0
-0.00140537 -0.030634 0
0.00190689 -0.0299614 0
0.00332271 -0.0298498 0
0.00474133 -0.0297825 0
0.00616136 -0.0297597 0
0.0075814 -0.0297814 0
0.00900007 -0.0298477 0
0.010416 -0.0299583 0
0.0118278 -0.0301127 0
0.0132342 -0.0303103 0
0.0146339 -0.0305504 0
0.0160259 -0.0308322 0
0.0174091 -0.0311546 0
0.0187824 -0.0315166 0
0.020145 -0.031917 0
0.0214961 -0.0323546 0
0.0228351 -0.032828 0
0.0241613 -0.0333361 0
0.0254744 -0.0338774 0
0.0267738 -0.0344507 0
0.0280592 -0.0350545 0
0.0293306 -0.0356877 0
0.0305875 -0.0363488 0
0.0318301 -0.0370367 0
0.0330581 -0.0377501 0
0.0342717 -0.0384879 0
0.0354708 -0.0392489 0
0.0366556 -0.0400321 0
0.0378262 -0.0408363 0
0.0389828 -0.0416607 0
0.0401254 -0.0425042 0
0.0412543 -0.0433659 0
0.0423698 -0.0442451 0
0.043472 -0.0451408 0
0.0445612 -0.0460523 0
0.0456375 -0.0469789 0
0.0467013 -0.0479199 0
0.0477529 -0.0488746 0
0.0487923 -0.0498424 0
0.04982 -0.0508227 0
0.0508362 -0.051815 0
0.051841 -0.0528187 0
0.0528348 -0.0538333 0
0.0538178 -0.0548584 0
0.0547903 -0.0558935 0
0.0557524 -0.0569382 0
0.0567045 -0.0579922 0
0.0576467 -0.0590549 0
0.0585792 -0.0601261 0
0.0595024 -0.0612055 0
0.0604163 -0.0622926 0
0.0613212 -0.0633873 0
0.0622174 -0.0644891 0
0.0631049 -0.0655979 0
0.0639841 -0.0667134 0
0.064855 -0.0678353 0
0.0657179 -0.0689633 0
0.0665729 -0.0700974 0
0.0674202 -0.0712372 0
0.06826 -0.0723826 0
0.0690925 -0.0735333 0
0.0699178 -0.0746892 0
0.070736 -0.0758501 0
0.0715473 -0.0770159 0
0.0723518 -0.0781863 0
0.0731498 -0.0793612 0
0.0739412 -0.0805405 0
0.0747264 -0.081724 0
0.0755053 -0.0829116 0
0.0762781 -0.0841033 0
0.0770449 -0.0852987 0
0.0778059 -0.0864979 0
0.0785611 -0.0877007 0
0.0793108 -0.088907 0
0.0814681 -0.0912706 0
0.0828814 -0.0924245 0
0.0842946 -0.0935783 0
0.0857079 -0.0947322 0
0.0871211 -0.095886 0
0.0885344 -0.0970399 0
0.0899476 -0.0981937 0
0.0913609 -0.0993476 0
0.0927741 -0.100501 0
0.0941874 -0.101655 0
0.0956006 -0.102809 0
0.0970139 -0.103963 0
0.0984272 -0.105117 0
0.0998404 -0.106271 0
0.101254 -0.107424 0
0.102667 -0.108578 0
0.10408 -0.109732 0
0.105493 -0.110886 0
0.106907 -0.11204 0
0.10832 -0.113194 0
0.109733 -0.114348 0
0.111146 -0.115501 0
0.11256 -0.116655 0
0.113973 -0.117809 0
0.115386 -0.118963 0
0.116799 -0.120117 0
0.118213 -0.121271 0
0.119626 -0.122424 0
0.121039 -0.123578 0
0.122452 -0.124732 0
0.123866 -0.125886 0
0.125279 -0.12704 0
0.126692 -0.128194 0
0.128105 -0.129348 0
0.129519 -0.130501 0
0.130932 -0.131655 0
0.132345 -0.132809 0
0.133758 -0.133963 0
0.135172 -0.133216 0
0.135172 -0.131316 0
0.135172 -0.129415 0
0.135172 -0.127514 0
0.135172 -0.125614 0
0.135172 -0.123713 0
0.135172 -0.121813 0
0.135172 -0.119912 0
0.135172 -0.118012 0
0.135172 -0.116111 0
0.135172 -0.11421 0
0.135172 -0.11231 0
0.135172 -0.110409 0
0.135172 -0.108509 0
0.135172 -0.106608 0
0.135172 -0.104708 0
0.135172 -0.102807 0
0.135172 -0.100906 0
0.135172 -0.0990058 0
0.135172 -0.0971052 0
0.135172 -0.0952046 0
0.135172 -0.0933041 0
0.135172 -0.0914035 0
0.135172 -0.0895029 0
0.135172 -0.0876023 0
0.135172 -0.0857017 0
0.135172 -0.0838012 0
0.135172 -0.0819006 0
0.133758 -0.0788462 0
0.132345 -0.0776923 0
0.130932 -0.0765385 0
0.129519 -0.0753846 0
0.128105 -0.0742308 0
0.126692 -0.0730769 0
0.125279 -0.0719231 0
0.123866 -0.0707692 0
0.122452 -0.0696154 0
0.121039 -0.0684615 0
0.119626 -0.0673077 0
0.118213 -0.0661538 0
0.116799 -0.065 0
0.115386 -0.0638462 0
0.113973 -0.0626923 0
0.11256 -0.0615385 0
0.111146 -0.0603846 0
0.109733 -0.0592308 0
0.10832 -0.0580769 0
0.106907 -0.0569231 0
0.105493 -0.0557692 0
0.10408 -0.0546154 0
0.102667 -0.0534615 0
0.101254 -0.0523077 0
0.0998404 -0.0511538 0
0.0984272 -0.05 0
0.0970139 -0.0488462 0
0.0956006 -0.0476923 0
[...]
CELL_DATA 13116
SCALARS rho float
LOOKUP_TABLE default
0.5934
0.693652
0.344946
0.701401
0.701994
0.689107
0.331102
0.703451
0.538539
0.701789
0.328158
0.304512
0.702073
0.312732
0.337817
0.693551
0.588194
0.694227
0.707543
0.318567
0.587674
0.377477
0.32021
0.69882
0.595597
0.700618
0.701774
0.343348
0.570695
0.64259
1.13296
0.30433
0.553495
0.465305
0.337122
0.591266
0.670187
0.70997
0.889165
0.703397
0.705248
0.703279
0.476074
0.339809
0.708709
0.707737
0.692365
0.707713
0.341324
0.518742
0.7033
0.478367
0.290238
0.580887
0.556505
0.579932
0.337664
0.697234
0.522548
0.313983
0.313292
0.701875
0.692562
0.965718
1.14606
0.312288
0.700372
0.669958
0.701782
1.14424
0.343874
0.556948
0.394352
0.319149
1.1327
0.356208
0.668523
0.704333
0.322786
0.690556
0.685729
0.702629
0.700118
0.707639
0.714178
0.396603
0.316807
0.659762
0.710178
0.350084
0.305345
0.695371
0.701933
0.703163
0.651529
0.604532
0.597718
1.13857
1.13414
0.574399
0.665726
0.673244
0.705766
0.446182
0.705036
0.292615
0.351803
0.514134
0.337071
0.582641
0.538554
0.710869
0.600977
0.685807
0.691267
0.70093
0.317283
0.384126
0.706952
0.70169
0.668279
0.397397
0.701992
0.304934
0.703504
0.437392
0.317524
0.493294
0.335583
0.515745
0.706437
0.706242
0.458993
0.356358
0.440492
0.629912
1.13588
0.702225
0.663966
0.701816
0.661573
0.693297
0.497059
0.663579
0.68124
0.30774
0.338605
0.700233
0.701953
0.703002
0.506525
0.707607
0.707627
0.348279
0.70157
0.71457
0.326489
0.671636
1.13681
0.658586
0.698338
0.326091
0.699773
0.330255
0.406342
0.702496
0.702385
0.69362
0.334486
0.420706
0.392634
1.13745
0.326785
0.488773
0.700543
0.3169
0.366755
0.388321
0.711021
0.68535
0.328076
0.416714
0.560464
0.668369
0.694854
0.526843
0.318385
0.699437
0.713497
0.461287
0.654512
0.700457
1.14243
0.326534
0.709177
0.67629
0.701498
0.69976
0.712759
0.43594
0.447528
0.590879
0.489003
0.316397
0.706441
0.708817
0.485041
0.609934
0.249233
0.331658
0.350549
0.69913
0.329749
0.330961
0.343735
0.348783
0.375726
0.864255
0.703024
0.381487
0.336405
0.700098
0.534093
0.329664
0.5064
0.701896
0.679371
0.34403
0.700419
0.362677
0.703919
0.304825
1.12949
0.543182
1.13767
0.703121
1.11903
0.303346
0.434305
0.656184
1.13214
0.67608
1.13726
1.11543
0.703639
0.368275
0.702446
0.701803
1.14254
0.342759
0.34284
0.707904
0.706658
1.13349
0.707922
0.587538
0.681175
0.32465
0.309634
0.414551
0.249949
0.706774
0.701429
0.667677
0.316493
0.708785
0.315482
0.392559
0.703462
0.331517
0.699638
0.703413
1.13175
0.697209
0.304473
1.13182
0.691031
1.14384
0.702201
0.317071
0.314266
0.329384
0.626918
0.401837
0.356516
0.335753
0.338279
0.708339
0.259479
0.710719
0.702377
0.317562
0.32028
0.315978
0.432931
0.346795
0.659211
0.654073
0.709632
0.32804
0.700474
0.539694
0.317506
0.320859
0.742664
0.706336
0.699289
0.319139
0.686534
0.449025
0.70659
0.703121
0.702788
0.703149
0.329467
0.700174
0.292126
0.697465
0.701361
0.651791
0.326632
0.331636
0.70194
0.315187
0.702876
0.701915
0.397364
0.681127
0.69975
0.315993
0.71042
0.701762
0.279762
0.703858
0.38255
0.525545
0.705343
0.39582
0.673364
0.314977
0.696292
0.33543
1.05482
0.688482
0.701789
0.342933
0.358588
0.714292
0.35121
0.707014
0.713952
0.411414
1.13146
0.325245
0.40268
0.708005
0.511989
0.671322
0.314127
0.329088
0.702397
0.702295
0.339269
0.702757
0.318228
0.296623
0.701818
0.705007
0.524224
0.364867
0.703043
1.13643
0.693395
0.710682
0.702571
0.510078
0.361728
0.26258
0.326495
0.688388
0.32832
0.561024
0.39598
0.315846
0.353301
0.531058
0.125945
0.346553
0.712809
0.307237
0.700466
0.57433
0.707047
0.651346
0.702435
0.403433
0.31509
0.434691
0.395753
0.707764
0.599099
0.705878
0.574066
0.682193
0.624362
0.703617
0.64726
0.641173
0.704307
0.689548
0.680073
0.419683
0.486092
0.590306
0.383825
0.650787
0.582479
0.302157
0.700662
1.1317
0.330627
0.321067
0.330582
0.319347
0.59714
0.355516
0.327056
0.699659
0.313208
0.546098
0.346778
0.694814
0.69241
0.346525
0.36142
0.708
0.4288
0.353368
0.319023
0.357852
0.33688
0.315659
0.322298
0.377868
0.397069
0.325733
0.672089
0.404408
0.714695
0.441319
0.304422
0.451069
0.303431
0.347076
0.305134
0.702473
0.406609
0.615852
0.526413
0.313918
0.613809
0.709227
0.393706
0.680438
0.630095
0.631977
0.316092
1.13626
0.384897
0.700309
1.13236
0.336351
0.283336
0.711939
0.397955
0.394727
0.691905
0.351361
0.670328
0.685182
0.320979
0.367034
0.326202
0.48554
0.323105
0.255883
0.333134
0.293832
0.702057
0.701588
0.438555
0.577818
0.444619
0.711564
0.365252
0.362414
0.542906
0.336958
0.708241
0.329205
0.367223
0.454632
0.709112
0.703217
0.519694
0.397871
0.28774
0.517294
0.703317
1.12849
0.514774
0.698009
0.704931
0.326203
0.690901
0.539191
0.654844
0.346422
0.347752
0.684696
0.70192
0.649084
0.701874
0.714349
0.702914
0.697097
0.651984
0.706789
0.345549
0.709615
0.322671
0.265954
0.334221
0.701383
0.708463
0.322849
0.714524
0.585031
0.328004
1.0696
0.706591
0.701708
0.342838
0.358742
0.706307
0.357016
0.353894
0.294404
0.3272
0.708482
0.265828
0.700961
0.406816
0.692509
0.702965
0.700666
0.702232
0.358164
0.324242
0.708439
0.70407
0.669201
0.702127
0.701737
0.439545
0.315904
0.337992
0.698603
0.532096
0.331143
0.4278
0.313149
0.704689
0.700361
0.343128
0.377635
0.715115
0.402441
0.711971
0.635291
0.334308
0.362529
0.667517
1.13323
0.332353
0.704796
0.702282
0.708426
0.360788
1.13994
0.333598
1.13846
0.653092
0.366079
0.373716
0.362681
1.14488
0.337897
0.323576
0.388015
0.950894
0.704065
0.324629
0.307873
0.335756
1.02503
0.394656
0.683189
0.308723
0.559395
0.701881
0.437996
0.328597
0.323778
0.441742
0.338573
0.701209
0.326057
0.374223
0.676763
0.305975
0.69856
0.700081
1.13994
0.346081
0.708086
0.700991
0.701338
0.699459
0.705352
0.701681
0.304588
1.13668
0.386604
0.708331
0.315976
0.703469
0.515048
0.332071
1.14609
0.702976
0.356791
0.644166
0.30568
0.347108
0.69959
0.702116
0.309489
0.306902
0.324305
0.303163
0.704944
0.698812
0.359689
0.320417
0.706932
0.701945
0.562501
0.700857
0.699669
0.32392
0.701727
0.398852
0.703115
0.394054
0.590976
0.433221
0.69997
0.672812
0.539771
0.360564
0.341223
0.700407
0.56776
0.580314
0.700627
0.263064
0.693344
0.701518
0.342665
0.483407
0.701165
0.392095
1.14544
0.657267
0.329968
0.701863
0.649537
0.364579
0.702044
0.328376
0.714822
0.343727
0.698647
0.691604
0.341388
0.885448
0.700142
0.705859
0.588441
0.696889
0.540533
0.358135
0.444768
0.305448
0.314197
1.1318
0.510028
0.70153
0.702272
0.339807
0.389798
0.701398
0.701807
0.707998
0.703435
0.321279
0.689283
0.701887
0.31927
0.294925
0.70702
0.70801
0.71479
0.299515
0.545104
0.346127
0.700353
0.701673
1.1222
0.702273
0.329301
0.70506
0.713071
0.701195
0.702061
0.705656
0.382893
0.703252
0.332171
0.681343
0.701787
0.420776
0.68565
1.10678
0.702804
0.453431
0.418657
0.544128
0.63992
0.355782
0.365973
0.330174
0.32682
0.692186
0.6922
1.11952
0.343027
0.323603
0.702328
0.672435
0.277676
0.385838
0.428675
0.674554
0.699865
0.711429
0.692925
0.332714
0.356237
1.13204
0.304792
0.331204
0.336351
0.698648
0.345667
0.358166
0.577261
0.708969
0.710971
0.695745
0.698706
0.316473
0.325676
0.32691
0.534733
0.407132
0.305229
0.670091
0.690508
0.708829
0.707256
0.301484
0.346517
0.701858
0.340515
0.705021
0.692384
1.13657
0.30935
0.358998
0.713521
1.14501
0.611146
0.272782
0.713617
0.680996
0.576027
0.702893
0.703352
1.1319
0.696872
0.322175
0.698402
1.14343
0.66305
0.699692
1.13192
0.711101
1.13624
0.702329
0.370734
0.377165
0.346306
1.13644
0.519087
0.342734
0.701967
0.706665
0.3036
0.646982
0.34693
0.654504
0.520043
0.318914
0.701833
0.697532
0.333539
0.501672
1.13617
0.331099
0.703125
0.31126
0.290364
0.621814
0.589766
0.450635
0.706248
0.33503
0.699973
0.371638
0.301151
0.698272
0.329827
0.605493
0.312003
0.648398
0.590447
1.13432
0.702669
0.285925
0.375042
0.677673
0.481907
0.707978
0.474314
0.601372
0.690536
0.700957
0.492067
0.579783
0.711126
0.701493
0.70088
0.337706
0.36351
0.496151
0.710265
0.701899
0.389686
0.705703
0.613362
0.434651
0.309679
0.654192
0.67438
1.13574
1.14506
0.687588
0.689539
0.84422
0.678727
0.307749
0.645712
0.426879
0.702405
0.708288
0.3251
0.705048
0.702134
0.393341
0.297882
0.315747
1.13172
0.324273
0.619006
0.703128
0.645667
0.307218
0.710397
0.311642
0.546539
1.01598
1.13065
0.668218
1.02794
0.603815
0.68466
0.539719
0.708139
0.343187
0.701344
0.70073
0.46543
1.13702
0.695584
0.330882
0.270164
0.332787
0.702653
0.365684
1.14346
0.325894
0.703368
0.288528
0.433594
0.306999
0.699881
0.703497
0.585249
0.260364
0.606603
0.785902
0.331855
0.564033
0.701501
0.304834
0.581032
1.14283
0.701897
0.70621
0.335924
0.51095
0.707693
0.707438
0.679933
0.360839
0.41226
0.711828
1.13148
1.13262
1.13199
0.577797
0.706345
0.573419
0.702393
0.360406
0.314598
1.13269
0.702012
0.891649
0.311519
0.701855
0.592272
0.626178
0.360297
0.38156
0.702734
0.701682
0.532593
0.414521
0.706667
1.13741
0.333235
0.592058
0.692927
0.335536
0.304389
0.291808
0.715889
0.382993
0.346537
0.71103
0.478608
0.701626
0.651773
0.332482
0.315964
0.702504
0.390034
0.359988
1.14436
0.297923
0.37003
0.584938
0.705435
0.708132
0.324868
0.34862
0.333304
0.700246
0.294726
0.707975
0.337861
0.703531
0.704076
0.709955
0.698091
0.702526
0.700441
0.699832
0.702164
0.707883
0.259021
0.330421
0.695896
0.789642
0.45421
0.713156
0.544077
0.926557
0.66388
0.346051
0.70155
0.701643
0.708947
0.346143
0.704929
0.345538
0.707737
0.44215
0.692333
0.701615
0.322011
0.707387
0.332818
0.460937
0.691687
0.339956
0.67382
1.13291
0.704319
0.319442
0.699609
0.328121
0.307958
0.31677
0.345028
0.667184
0.320664
0.659209
1.07237
0.410983
0.327876
0.435511
0.543408
0.63349
0.68526
0.346555
0.313978
0.337357
0.307672
0.251535
0.636625
0.710777
0.34391
1.05328
0.70324
0.292883
0.701568
0.670589
1.03153
0.334195
1.14469
0.695537
0.704039
0.703255
0.329205
0.707981
0.703644
0.705504
0.652348
0.677216
0.34756
0.319705
0.707581
0.490982
0.361877
0.697739
0.318152
0.52725
0.638796
0.714257
0.714948
0.306285
0.712874
0.415056
0.347316
0.683765
0.706114
0.701549
0.702507
0.665578
0.308525
0.702244
0.309046
0.45248
0.70255
1.13224
0.70786
0.344005
0.312706
0.701851
0.321803
0.70671
0.629251
0.408349
0.362179
0.70192
0.312
0.703448
0.707041
0.669226
0.313249
0.380074
0.484022
0.535489
0.627183
0.466771
0.69026
0.686916
0.712825
1.13178
0.703098
0.311555
0.365216
0.704899
0.680011
0.677523
0.41706
0.313763
0.688316
0.314951
0.700047
0.583694
0.352816
0.707701
0.321188
0.704676
0.345192
0.701664
0.304729
0.708327
0.676555
0.303746
0.703538
0.639966
0.305662
1.11711
0.707633
0.54762
0.302822
0.384918
0.466912
0.701143
0.687696
0.399407
0.541795
0.704168
0.676811
0.304529
0.63404
0.705239
0.396737
0.688293
0.697523
0.305969
0.707944
1.14508
0.344576
0.607315
0.320714
0.656499
0.328312
0.290281
0.701917
0.349894
0.337848
0.292009
0.699909
0.700015
0.427211
0.706583
0.380518
0.682003
0.329569
0.700667
0.396041
0.694709
0.707667
0.664675
1.11449
0.504559
0.675081
1.0324
0.343112
0.617953
0.665468
0.550851
0.702869
0.441645
0.437733
0.702189
0.32703
0.546086
0.347592
0.705819
0.264033
0.325466
0.697254
0.699313
0.321848
0.702165
0.689476
1.13181
0.703396
1.14293
0.323287
0.701618
0.3269
0.330332
0.703178
0.694796
0.703267
0.714986
0.305025
0.335206
0.335034
0.696422
1.07462
0.382195
0.705515
0.311408
0.326864
0.358747
0.711012
0.391533
0.702257
0.707907
0.614794
0.701962
0.707849
0.587235
0.664958
0.393599
0.304545
0.322834
1.14341
1.14421
0.311221
0.637167
0.714912
0.663481
0.3356
0.45567
0.686012
0.296625
0.685166
0.654758
0.329388
0.765469
0.693863
0.345788
0.708264
0.354015
0.701302
0.701447
0.703464
0.307448
0.41643
0.672984
0.315365
0.387331
0.701708
0.332119
0.708483
0.700795
0.699797
0.689318
0.340901
1.14664
0.683138
0.707409
0.349698
0.70236
0.374138
0.302484
0.711545
0.700066
1.06782
0.242822
0.699208
0.613653
1.13206
0.313411
0.316566
0.356881
0.702298
0.334154
0.31592
0.362979
0.652507
0.344652
0.327328
0.397074
0.707943
0.335187
1.12253
0.907877
0.702719
0.320543
0.707975
0.648579
1.0597
0.384447
0.650272
0.340781
0.32825
0.699381
0.321425
0.639952
0.702126
1.13333
0.335096
0.334473
0.355807
0.515426
1.13501
0.250801
0.709691
0.699796
0.691811
0.332113
0.307657
0.339234
0.693888
0.339585
1.13202
0.574053
0.789844
0.711355
0.317625
0.643679
0.304763
0.655154
0.631474
0.701819
0.638418
0.553165
0.654162
0.677971
0.703823
0.322892
0.43086
0.315703
0.691332
0.534839
1.13179
0.333955
0.390952
0.70131
0.707904
1.13949
0.322381
0.703099
0.513624
0.519307
0.689035
0.33746
0.32317
0.312702
0.70032
1.09036
0.649578
0.712611
0.341145
0.704342
0.645032
1.08747
1.09221
0.704112
0.701689
0.676808
0.697362
0.701428
0.336826
0.706848
0.702453
0.695488
0.707165
0.700117
0.625207
0.328339
0.298735
0.667999
0.359717
0.408637
0.703638
0.35401
0.614553
0.701856
0.694528
0.709239
0.334137
0.703816
0.317896
0.311528
0.689273
0.707122
0.707302
0.323015
0.702807
0.706205
0.675789
0.698951
0.378626
0.693159
0.701855
0.691444
0.433309
0.696705
0.325168
0.700839
0.343963
0.329917
0.591084
0.422608
0.701844
0.698711
0.706178
0.368004
0.685708
0.431232
0.341673
0.713718
0.435626
0.355418
0.705147
0.290953
0.461925
0.665026
0.687607
0.712264
0.43863
0.558201
0.654028
0.703153
0.62576
0.701619
0.492491
0.703086
0.713439
0.645945
0.300562
0.323633
0.418019
0.702486
0.331561
0.656674
0.702389
0.603276
0.703362
0.573531
0.675472
0.680399
0.338085
0.702138
0.712919
0.560571
0.711325
0.702092
0.70153
0.720642
0.333141
0.371168
0.708173
0.540151
0.57945
0.701943
0.707897
0.707175
0.702075
0.701734
0.624244
0.688939
0.701661
0.31569
0.301354
0.275221
0.340622
1.13296
0.446394
0.570175
0.707762
0.685038
0.333416
0.70911
0.701343
0.322784
0.371607
1.14352
0.703707
0.338925
0.29878
0.296252
1.132
0.700377
0.435962
0.315967
0.327457
0.288271
0.386816
0.363009
0.70405
0.707713
0.698419
0.324209
0.695765
0.624573
0.577161
0.364961
0.319232
0.712717
1.13497
0.352199
0.692217
0.343837
0.697819
0.33672
0.703011
0.319351
0.709256
0.702897
0.321059
0.521492
0.341669
0.701565
0.30092
0.628774
0.31453
0.507208
0.342287
0.627864
0.33267
1.12488
1.13866
0.577622
0.701833
0.367612
0.701675
0.782191
0.702885
0.620852
0.682507
0.320114
0.452312
0.311869
0.70162
0.304515
0.702205
0.513297
0.693704
0.701962
0.513344
0.703886
0.346294
0.311958
0.323261
0.501303
0.5948
0.708236
0.327794
0.356376
0.697415
0.352097
0.309682
0.617011
0.373212
0.355493
0.297931
0.703129
0.636875
0.631305
0.323615
0.698994
0.700669
0.302971
0.315953
0.713536
0.697903
0.652993
0.467617
0.370735
0.348536
0.342363
0.705029
0.671288
0.534578
0.681532
0.274627
0.576775
0.319704
1.14628
0.702245
0.322671
0.317422
0.672984
0.612374
0.702232
0.701602
0.701236
0.703031
0.702434
0.347562
0.382687
0.320359
0.316963
0.590963
1.13633
0.638634
0.320395
0.338161
0.471919
0.304262
0.70703
0.686408
0.340646
0.345567
0.701117
0.33337
0.654093
0.700873
0.701623
0.681569
0.594583
0.352737
0.31789
0.691308
0.323943
0.452038
0.424951
0.788668
0.701582
0.29155
0.329941
1.1317
0.331004
0.700419
0.701802
0.340736
0.396199
0.272337
0.705815
0.316979
1.13242
0.698831
0.608895
0.300334
0.487642
0.70546
0.710428
0.328065
0.709009
0.665942
0.304828
0.707476
0.702563
0.341095
0.355551
0.713568
0.331457
0.316559
0.704273
0.330906
0.707628
0.674829
0.701242
0.659454
0.702066
0.70044
0.693407
0.334685
0.377045
0.67341
0.708254
0.414145
0.701725
0.356937
0.702276
0.713149
0.55957
0.647531
0.452271
0.430034
0.709162
0.704351
0.714607
0.703057
0.701892
1.13891
0.70331
1.13175
0.705246
0.7129
0.704401
1.13543
0.675668
0.305248
0.703527
0.342328
0.701895
0.705917
0.698761
0.69874
0.687673
0.392282
0.353274
0.324431
0.328189
0.69894
0.317991
0.339343
0.688519
0.299697
0.696858
0.341711
0.70533
0.707915
0.34978
0.353216
0.371838
0.702541
0.329616
0.708218
0.707115
0.357708
0.712963
0.523762
0.410077
0.341904
0.302765
0.682894
0.35748
0.702414
0.571391
0.348499
0.704857
0.705498
0.701227
0.344151
0.581103
0.310162
0.696322
0.710255
0.701106
0.363303
0.707914
0.702117
0.710217
0.402431
0.702491
0.351825
0.326886
0.703016
0.441081
0.701617
0.445319
0.360839
0.40223
0.705899
0.338889
0.306382
0.345528
0.520412
1.14352
0.707878
0.294744
0.620177
0.706005
0.513566
0.468964
0.341868
0.525868
0.362165
0.322601
0.708875
0.328546
0.344426
0.702717
0.701748
0.331586
0.692994
0.351622
1.14117
0.344077
0.710698
1.1404
0.689493
0.831419
0.380128
0.322502
0.313235
0.680651
0.714836
0.555047
0.523495
0.3479
0.31557
0.701954
0.333426
0.707602
0.357094
1.12632
0.672021
0.3185
0.339565
0.328264
0.329243
0.340492
0.674937
0.698291
0.319935
0.707949
0.640992
0.355238
0.32145
0.701519
0.352423
0.707857
0.387884
0.690232
0.65238
0.708036
1.14499
0.360017
0.701734
0.702249
0.702981
0.351386
0.68586
0.567004
0.409108
0.702501
0.664841
0.703297
0.701242
0.702357
0.703168
0.70324
0.696285
0.707331
0.345505
0.701036
0.328461
0.480608
0.702502
0.313132
0.710793
0.700012
0.35218
0.708073
0.35242
0.305491
0.703531
0.69184
0.701873
0.32674
0.701969
0.603939
0.344081
0.322485
0.702603
0.700499
0.369117
0.364313
0.701624
0.701597
0.362591
0.644584
0.702664
0.63814
0.316033
0.349695
0.306639
0.652417
0.307259
0.708854
0.690555
0.703368
0.63115
0.707816
0.328286
0.715187
0.58947
0.702787
0.637842
0.325966
0.33344
0.274799
0.699221
0.707591
0.384644
0.650407
0.349679
0.667096
0.701599
0.260167
0.663736
0.709206
0.627848
0.32255
0.314303
0.343081
0.707389
0.701633
0.601305
0.467867
0.707858
0.349615
0.631027
1.13184
0.707456
0.321736
0.60055
0.351763
0.703467
0.293179
0.708882
0.702755
0.321027
0.707405
0.478824
1.13467
0.651246
1.13195
0.702635
0.437742
0.700142
0.706033
0.701364
0.708685
0.427311
1.13191
0.253893
0.706472
0.26089
0.329891
0.280141
0.339791
0.359686
0.321763
0.702586
0.350226
0.326945
0.663339
0.707103
0.699477
0.435195
0.68551
0.680236
0.685598
0.315411
0.638797
0.700508
0.397682
0.356583
0.322403
0.631006
0.457986
0.33973
0.633396
0.302275
1.14475
0.452517
0.315548
0.429049
0.647032
0.381819
0.700487
0.286945
0.542877
0.367155
0.704876
0.380228
0.663617
1.13187
0.712722
0.467312
0.326189
0.70511
0.701682
0.364047
0.307899
0.686474
0.328127
0.695713
0.324993
0.522756
0.280382
0.700348
0.388643
0.70217
0.327834
0.701834
0.707929
0.703653
1.13542
0.258605
0.32495
0.434538
0.70182
0.687185
0.705885
0.598976
0.360897
0.704049
0.339136
0.71439
0.681755
0.441124
0.358251
0.700635
0.708701
0.311514
1.13469
0.704885
0.701405
0.701246
0.289174
0.632577
0.335466
0.701862
0.29986
1.00495
0.713677
0.705444
0.702397
0.35178
0.70195
0.34758
0.345779
0.7002
1.13538
0.545524
0.708751
1.13181
0.34973
0.695389
0.70472
0.7033
0.308705
0.414164
0.679973
0.317755
0.702725
0.703158
0.711144
0.704442
0.294869
0.465855
0.641831
0.32148
0.714622
0.701311
0.483697
0.703621
0.266323
0.689608
0.69605
0.66947
0.702856
0.313686
0.329309
0.708236
0.708235
0.356363
0.370384
0.390111
0.328925
0.318185
0.304316
0.345551
0.360722
0.708457
0.254482
0.316162
0.701068
0.548922
1.13188
0.386233
0.332387
0.705452
0.469514
0.532913
0.701548
0.374973
0.648726
1.11853
0.58392
0.700337
0.330758
0.707944
0.941713
0.358623
0.325861
0.441442
0.69934
0.585676
0.702281
0.695739
0.707652
0.701516
0.449217
0.707931
0.838099
0.704519
0.330388
0.700707
0.660629
0.439814
0.409961
0.271103
0.307131
0.298987
0.586673
0.66637
0.69664
0.323556
0.356648
0.70285
0.303235
0.706311
0.706141
0.710503
0.669409
0.707849
0.401234
0.308095
0.300396
0.588884
0.301487
0.707672
0.298201
0.699446
0.687326
0.707441
0.341091
0.459168
0.429577
0.707873
0.365028
0.320884
0.704003
0.701201
0.649637
0.692528
0.702969
0.695145
0.360963
0.601066
0.701717
0.484692
0.707879
0.705957
0.698067
0.401538
0.385201
0.703253
0.449368
0.633994
0.337267
0.687726
0.712881
0.434315
0.310544
0.693672
0.489345
0.703354
0.705955
0.358714
0.32081
1.14518
0.458398
0.436981
0.714012
0.702237
0.347683
0.710767
1.13756
0.69805
0.363997
0.585738
0.35619
0.707697
0.702356
0.695562
0.693096
1.146
0.336118
0.379709
0.70255
0.337663
0.578639
0.344183
0.707961
0.304765
0.652189
0.701682
1.14525
0.363635
1.13183
1.14221
0.318787
0.686419
0.302111
0.703158
0.358654
0.318582
0.293476
0.692262
0.709613
0.324267
0.325403
0.699388
0.702463
0.435421
0.688103
0.359202
0.524865
0.331827
0.700742
0.320873
0.665558
0.703162
0.34258
0.4576
0.318786