# vtk DataFile Version 1.0
unstructured grid
ascii
DATASET UNSTRUCTURED_GRID
points 13672 float
0.0796578 -0.059106 0
0.00128732 0.00159165 0
0.00227961 -0.00102548 0
0.0791586 -0.0598787 0
-0.0546216 0.01 0
0.000495206 0.025 0
0.0800549 -0.035 0
0.135172 -0.08 0
-0.0546216 -0.0451168 0
0.000495206 -0.0301168 0
0.0800549 -0.0901168 0
0.135172 -0.135117 0
-0.0546216 -0.0451168 -0.00551168
0.000495206 -0.0301168 -0.00551168
0.0800549 -0.0901168 -0.00551168
0.135172 -0.135117 -0.00551168
0.135172 -0.08 -0.00551168
0.0800549 -0.035 -0.00551168
0.000495206 0.025 -0.00551168
-0.0546216 0.01 -0.00551168
0.00128732 0.00159165 -0.00551168
0.00227961 -0.00102548 -0.00551168
0.0791586 -0.0598787 -0.00551168
0.0796578 -0.059106 -0.00551168
0.00165953 -0.000990923 0
0.00119576 -0.000874076 0
0.000866021 -0.000641801 0
0.000645147 -0.000349912 0
0.00052235 -1.7281e-05 0
0.00049972 0.000348016 0
0.000601632 0.000737716 0
0.000861774 0.0011403 0
0.00157235 0.00183217 0
0.00188647 0.00206725 0
0.00222612 0.00230203 0
0.00258713 0.00254351 0
0.00296826 0.00279524 0
0.00337118 0.00305664 0
0.00379785 0.00332658 0
0.00425045 0.00360349 0
0.00473139 0.00388521 0
0.0052432 0.00416895 0
0.0057881 0.00445204 0
0.00636753 0.00473281 0
0.00698281 0.00500961 0
0.00763526 0.00528058 0
0.00832616 0.00554366 0
0.00905691 0.00579603 0
0.00982918 0.00603333 0
0.0106445 0.00625033 0
0.0115038 0.00644128 0
0.0124073 0.00660297 0
0.0133543 0.00673414 0
0.0143444 0.00683382 0
0.0153769 0.00690031 0
0.0164512 0.00693173 0
0.0175666 0.00692547 0
0.0187219 0.00687822 0
0.0199156 0.00678477 0
0.0211454 0.00663864 0
0.0224084 0.00643275 0
0.0237018 0.00616676 0
0.0250249 0.00584739 0
0.026375 0.00547298 0
0.0277479 0.00503752 0
0.0291386 0.00453545 0
0.0305433 0.0039653 0
0.0319572 0.0033256 0
0.0333681 0.00260019 0
0.034775 0.00179799 0
0.0361793 0.000930615 0
0.0375798 3.12222e-06 0
0.0389689 -0.000988429 0
0.0403357 -0.00205109 0
0.041675 -0.00318283 0
0.0429849 -0.00437751 0
0.0442643 -0.00562904 0
0.0455126 -0.00693089 0
0.0467314 -0.00827518 0
0.0479204 -0.00965638 0
0.0490661 -0.0110799 0
0.0501515 -0.0125519 0
0.0511696 -0.0140695 0
0.0521492 -0.0156071 0
0.0531202 -0.0171411 0
0.0540851 -0.0186663 0
0.0550431 -0.0201798 0
0.0559923 -0.0216793 0
0.0569311 -0.0231626 0
0.0578582 -0.0246273 0
0.0587723 -0.0260715 0
0.0596721 -0.027493 0
0.0605563 -0.02889 0
0.0614241 -0.0302609 0
0.0622742 -0.0316042 0
0.063106 -0.0329183 0
0.0639186 -0.034202 0
0.0647113 -0.0354543 0
0.0654835 -0.0366743 0
0.0662345 -0.0378613 0
0.0669642 -0.0390145 0
0.0676726 -0.0401333 0
0.0683597 -0.0412172 0
0.0690246 -0.0422665 0
0.0696662 -0.0432819 0
0.0702841 -0.0442636 0
0.0708793 -0.0452111 0
0.0714538 -0.0461237 0
0.072009 -0.047001 0
0.0725452 -0.0478434 0
0.0730611 -0.0486524 0
0.073556 -0.0494294 0
0.0740291 -0.0501756 0
0.0744812 -0.0508916 0
0.0749138 -0.0515773 0
0.0753285 -0.0522331 0
0.0757266 -0.0528592 0
0.076109 -0.0534564 0
0.0764753 -0.0540264 0
0.0768243 -0.054571 0
0.0771553 -0.0550919 0
0.0774679 -0.0555901 0
0.0777617 -0.0560669 0
0.0780369 -0.056523 0
0.0782958 -0.0569578 0
0.0785421 -0.0573703 0
0.0787786 -0.0577603 0
0.0790073 -0.0581279 0
0.0792295 -0.058474 0
0.0794462 -0.0587995 0
0.0798803 -0.0594162 0
0.0800272 -0.0596588 0
0.0800357 -0.0598891 0
0.0799275 -0.0600784 0
0.0797205 -0.0601773 0
0.0794593 -0.0601051 0
0.0789155 -0.0596491 0
0.0786707 -0.0593963 0
0.0784111 -0.0591319 0
0.0781372 -0.0588542 0
0.0778566 -0.0585548 0
0.0775715 -0.0582308 0
0.0772803 -0.0578828 0
0.0769832 -0.0575099 0
0.0766822 -0.0571097 0
0.0763801 -0.0566796 0
0.0760759 -0.0562196 0
0.0757623 -0.0557337 0
0.0754359 -0.0552232 0
0.0750951 -0.0546879 0
0.0747379 -0.054128 0
0.0743626 -0.0535435 0
0.0739688 -0.0529338 0
0.0735559 -0.0522981 0
0.0731238 -0.0516357 0
0.0726718 -0.050946 0
0.0721991 -0.0502288 0
0.0717046 -0.049484 0
0.0711872 -0.0487117 0
0.0706461 -0.047912 0
0.0700804 -0.0470849 0
0.0694892 -0.0462308 0
0.0688718 -0.0453499 0
0.0682271 -0.0444431 0
0.0675544 -0.043511 0
0.0668527 -0.0425546 0
0.0661215 -0.0415748 0
0.06536 -0.040573 0
0.0645676 -0.0395504 0
0.0637439 -0.0385087 0
0.0628887 -0.0374493 0
0.062002 -0.0363741 0
0.0610838 -0.0352847 0
0.0601345 -0.0341831 0
0.0591547 -0.033071 0
0.0581456 -0.0319502 0
0.0571083 -0.0308224 0
0.0560444 -0.0296893 0
0.0549562 -0.028552 0
0.053845 -0.0274126 0
0.0527113 -0.0262746 0
0.051554 -0.0251427 0
0.0503724 -0.0240222 0
0.0491675 -0.0229164 0
0.047941 -0.0218282 0
0.0466955 -0.0207597 0
0.0454337 -0.0197126 0
0.0441592 -0.0186878 0
0.0428751 -0.0176863 0
0.0415841 -0.0167097 0
0.0402878 -0.0157609 0
0.0389879 -0.0148428 0
0.0376864 -0.0139575 0
0.0363853 -0.013107 0
0.0350871 -0.0122931 0
0.0337942 -0.0115164 0
0.0325095 -0.0107772 0
0.0312357 -0.0100756 0
0.0299758 -0.00941024 0
0.0287337 -0.00877784 0
0.0275126 -0.00817571 0
0.0263139 -0.00760375 0
0.0251376 -0.00706528 0
0.0239829 -0.0065649 0
0.0228537 -0.00609619 0
0.0217522 -0.00565563 0
0.0206795 -0.00524226 0
0.0196364 -0.00485507 0
0.0186233 -0.00449318 0
0.0176408 -0.00415577 0
0.016689 -0.00384204 0
0.0157682 -0.00355115 0
0.0148783 -0.00328218 0
0.0140192 -0.00303468 0
0.0131906 -0.00280795 0
0.0123925 -0.00260016 0
0.0116246 -0.00241012 0
0.0108864 -0.00223769 0
0.0101774 -0.00208212 0
0.00949701 -0.00194206 0
0.00884483 -0.0018163 0
0.0082202 -0.0017039 0
0.00762247 -0.00160391 0
0.00705097 -0.00151528 0
0.006505 -0.00143697 0
0.0059838 -0.00136806 0
0.00548662 -0.00130772 0
0.00501265 -0.00125519 0
0.00456114 -0.00120954 0
0.00413136 -0.00116914 0
0.00372257 -0.00113251 0
0.00333398 -0.00109853 0
0.00296466 -0.00106798 0
0.00261363 -0.0010431 0
-0.052721 -0.0445996 0
-0.0508204 -0.0440823 0
-0.0489199 -0.0435651 0
-0.0470193 -0.0430478 0
-0.0451187 -0.0425306 0
-0.0432181 -0.0420134 0
-0.0413175 -0.0414961 0
-0.039417 -0.0409789 0
-0.0375164 -0.0404616 0
-0.0356158 -0.0399444 0
-0.0337152 -0.0394271 0
-0.0318146 -0.0389099 0
-0.0299141 -0.0383927 0
-0.0280135 -0.0378754 0
-0.0261129 -0.0373582 0
-0.0242123 -0.0368409 0
-0.0223117 -0.0363237 0
-0.0204112 -0.0358065 0
-0.0185106 -0.0352892 0
-0.01661 -0.034772 0
-0.0147094 -0.0342547 0
-0.0128088 -0.0337375 0
-0.0109083 -0.0332202 0
-0.00900769 -0.032703 0
-0.00710711 -0.0321858 0
-0.00520653 -0.0316685 0
-0.00330595 -0.0311513 0
-0.00140537 -0.030634 0
0.00190689 -0.0299614 0
0.00332271 -0.0298498 0
0.00474133 -0.0297825 0
0.00616136 -0.0297597 0
0.0075814 -0.0297814 0
0.00900007 -0.0298477 0
0.010416 -0.0299583 0
0.0118278 -0.0301127 0
0.0132342 -0.0303103 0
0.0146339 -0.0305504 0
0.0160259 -0.0308322 0
0.0174091 -0.0311546 0
0.0187824 -0.0315166 0
0.020145 -0.031917 0
0.0214961 -0.0323546 0
0.0228351 -0.032828 0
0.0241613 -0.0333361 0
0.0254744 -0.0338774 0
0.0267738 -0.0344507 0
0.0280592 -0.0350545 0
0.0293306 -0.0356877 0
0.0305875 -0.0363488 0
0.0318301 -0.0370367 0
0.0330581 -0.0377501 0
0.0342717 -0.0384879 0
0.0354708 -0.0392489 0
0.0366556 -0.0400321 0
0.0378262 -0.0408363 0
0.0389828 -0.0416607 0
0.0401254 -0.0425042 0
0.0412543 -0.0433659 0
0.0423698 -0.0442451 0
0.043472 -0.0451408 0
0.0445612 -0.0460523 0
0.0456375 -0.0469789 0
0.0467013 -0.0479199 0
0.0477529 -0.0488746 0
0.0487923 -0.0498424 0
0.04982 -0.0508227 0
0.0508362 -0.051815 0
0.051841 -0.0528187 0
0.0528348 -0.0538333 0
0.0538178 -0.0548584 0
0.0547903 -0.0558935 0
0.0557524 -0.0569382 0
0.0567045 -0.0579922 0
0.0576467 -0.0590549 0
0.0585792 -0.0601261 0
0.0595024 -0.0612055 0
0.0604163 -0.0622926 0
0.0613212 -0.0633873 0
0.0622174 -0.0644891 0
0.0631049 -0.0655979 0
0.0639841 -0.0667134 0
0.064855 -0.0678353 0
0.0657179 -0.0689633 0
0.0665729 -0.0700974 0
0.0674202 -0.0712372 0
0.06826 -0.0723826 0
0.0690925 -0.0735333 0
0.0699178 -0.0746892 0
0.070736 -0.0758501 0
0.0715473 -0.0770159 0
0.0723518 -0.0781863 0
0.0731498 -0.0793612 0
0.0739412 -0.0805405 0
0.0747264 -0.081724 0
0.0755053 -0.0829116 0
0.0762781 -0.0841033 0
0.0770449 -0.0852987 0
0.0778059 -0.0864979 0
0.0785611 -0.0877007 0
0.0793108 -0.088907 0
0.0814681 -0.0912706 0
0.0828814 -0.0924245 0
0.0842946 -0.0935783 0
0.0857079 -0.0947322 0
0.0871211 -0.095886 0
0.0885344 -0.0970399 0
0.0899476 -0.0981937 0
0.0913609 -0.0993476 0
0.0927741 -0.100501 0
0.0941874 -0.101655 0
0.0956006 -0.102809 0
0.0970139 -0.103963 0
0.0984272 -0.105117 0
0.0998404 -0.106271 0
0.101254 -0.107424 0
0.102667 -0.108578 0
0.10408 -0.109732 0
0.105493 -0.110886 0
0.106907 -0.11204 0
0.10832 -0.113194 0
0.109733 -0.114348 0
0.111146 -0.115501 0
0.11256 -0.116655 0
0.113973 -0.117809 0
0.115386 -0.118963 0
0.116799 -0.120117 0
0.118213 -0.121271 0
0.119626 -0.122424 0
0.121039 -0.123578 0
0.122452 -0.124732 0
0.123866 -0.125886 0
0.125279 -0.12704 0
0.126692 -0.128194 0
0.128105 -0.129348 0
0.129519 -0.130501 0
0.130932 -0.131655 0
0.132345 -0.132809 0
0.133758 -0.133963 0
0.135172 -0.133216 0
0.135172 -0.131316 0
0.135172 -0.129415 0
0.135172 -0.127514 0
0.135172 -0.125614 0
0.135172 -0.123713 0
0.135172 -0.121813 0
0.135172 -0.119912 0
0.135172 -0.118012 0
0.135172 -0.116111 0
0.135172 -0.11421 0
0.135172 -0.11231 0
0.135172 -0.110409 0
0.135172 -0.108509 0
0.135172 -0.106608 0
0.135172 -0.104708 0
0.135172 -0.102807 0
0.135172 -0.100906 0
0.135172 -0.0990058 0
0.135172 -0.0971052 0
0.135172 -0.0952046 0
0.135172 -0.0933041 0
0.135172 -0.0914035 0
0.135172 -0.0895029 0
0.135172 -0.0876023 0
0.135172 -0.0857017 0
0.135172 -0.0838012 0
0.135172 -0.0819006 0
0.133758 -0.0788462 0
0.132345 -0.0776923 0
0.130932 -0.0765385 0
0.129519 -0.0753846 0
0.128105 -0.0742308 0
0.126692 -0.0730769 0
0.125279 -0.0719231 0
0.123866 -0.0707692 0
0.122452 -0.0696154 0
0.121039 -0.0684615 0
0.119626 -0.0673077 0
0.118213 -0.0661538 0
0.116799 -0.065 0
0.115386 -0.0638462 0
0.113973 -0.0626923 0
0.11256 -0.0615385 0
0.111146 -0.0603846 0
0.109733 -0.0592308 0
0.10832 -0.0580769 0
0.106907 -0.0569231 0
0.105493 -0.0557692 0
0.10408 -0.0546154 0
0.102667 -0.0534615 0
0.101254 -0.0523077 0
0.0998404 -0.0511538 0
0.0984272 -0.05 0
0.0970139 -0.0488462 0
0.0956006 -0.0476923 0
[...]
CELL_DATA 13116
SCALARS rho float
LOOKUP_TABLE default
0.5977
0.5977
0.5977
0.5977
0.5977
0.680969
0.545801
0.5977
0.5977
0.5977
0.480639
0.5977
0.5977
0.597698
0.5977
0.680877
0.5977
0.5977
0.59583
0.460521
0.5977
0.5977
0.5977
0.5977
0.5977
0.5977
0.5977
0.5977
0.5977
0.5977
0.680809
0.5977
0.5977
0.5977
0.562035
0.5977
0.5977
0.5977
0.680615
0.5977
0.678079
0.5977
0.5977
0.5977
0.597704
0.597491
0.5977
0.597702
0.5977
0.5977
0.5977
0.5977
0.597211
0.5977
0.5977
0.5977
0.5977
0.5977
0.5977
0.5977
0.597699
0.5977
0.5977
0.680471
0.680552
0.597714
0.597844
0.5977
0.5975
0.680309
0.5977
0.5977
0.5977
0.5977
0.678437
0.597702
0.5977
0.5977
0.495794
0.5977
0.5977
0.5977
0.5977
0.5977
0.5977
0.5977
0.577713
0.5977
0.5977
0.367335
0.5977
0.5977
0.5977
0.5977
0.5977
0.5977
0.5977
0.680273
0.680469
0.5977
0.5977
0.5977
0.665877
0.5977
0.5977
0.5977
0.5977
0.5977
0.5977
0.5977
0.5977
0.5977
0.5977
0.5977
0.5977
0.593428
0.597625
0.5977
0.5977
0.597701
0.5977
0.5977
0.597692
0.5977
0.5977
0.5977
0.588927
0.5977
0.5977
0.5977
0.5977
0.5977
0.5977
0.5977
0.5977
0.5977
1.11837
0.5977
0.5977
0.597701
0.5977
0.5977
0.5977
0.5977
0.5977
0.5977
0.555471
0.5977
0.5977
0.5977
0.5977
0.5977
0.5977
0.585921
0.5977
0.5977
0.5977
0.5977
0.68059
0.5977
0.5977
0.482595
0.5977
0.5977
0.5977
0.5977
0.5977
0.5977
0.55598
0.5977
0.5977
1.10689
0.5977
0.5977
0.598093
0.5977
0.5977
0.5977
0.5977
0.680768
0.422628
0.5977
0.5977
0.5977
0.680615
0.5977
0.584699
0.677283
0.5977
0.5977
0.5977
0.5977
0.680276
0.5977
0.5977
0.681109
0.5977
0.665595
0.5977
0.5977
0.5977
0.5977
0.5977
0.5977
0.5977
0.5977
0.5977
0.5977
0.5977
0.432678
0.597707
0.679874
0.5977
0.380285
0.371523
0.592809
0.5977
0.680404
0.5977
0.5977
0.5977
0.618368
0.5977
0.417811
0.5977
0.5977
0.5977
0.5977
0.602084
0.5977
0.5977
0.5977
0.680995
0.5977
0.680223
0.5977
0.680237
0.5977
0.5977
0.5977
0.672433
0.681709
1.05155
0.680615
0.5977
0.5977
0.5977
0.5977
0.680629
0.519755
0.5977
0.5977
0.5977
0.680899
0.5977
0.5977
0.5977
0.471927
0.5977
0.5977
0.5977
0.5977
0.5977
0.5977
0.534803
0.597701
0.597439
0.5977
0.5977
0.517138
0.5977
0.5977
0.672853
0.5977
0.5977
0.689609
0.5977
0.680761
0.5977
0.47572
0.558497
0.5977
0.5977
0.5977
0.5977
0.5977
0.5977
0.5977
0.597713
0.5977
0.5977
0.560563
0.451044
0.595484
0.5977
0.5977
0.5977
0.5977
0.5977
0.507131
0.679454
0.5977
0.5977
0.5977
0.68101
0.5977
0.675897
0.591821
0.6809
0.5977
0.5977
0.5977
0.5977
0.5977
0.5977
0.620818
0.597699
0.68207
0.5977
0.5977
0.389341
0.5977
0.5977
0.595221
0.5977
0.5977
0.5977
0.5977
0.5977
0.579931
0.5977
0.5977
0.597698
0.5977
0.5977
0.5977
0.5977
0.5977
0.5977
0.534012
0.5977
0.5977
0.680619
0.5977
0.5977
0.5977
0.5977
0.5977
0.578781
0.5977
0.5977
0.5977
1.10049
0.579445
0.5977
0.5977
0.5977
0.5977
0.571098
0.5977
0.5977
0.5977
0.541846
0.5977
0.597713
0.5977
0.597666
0.5977
0.5977
0.367782
0.5977
0.680504
0.68093
0.5977
0.5977
0.5977
0.5977
0.5977
0.423731
0.680708
0.416018
0.5977
0.5977
0.5977
0.5977
0.5977
0.5977
0.567635
0.5977
0.5977
0.5977
0.5977
0.592744
0.5977
0.5977
0.5977
0.551145
0.5977
0.5977
0.5977
0.5977
0.652865
0.5977
0.5977
0.5977
0.5977
0.5977
0.5977
0.5977
0.5977
0.681102
0.5977
0.5977
0.5977
0.5977
0.5977
0.5977
0.596241
0.593224
0.665256
0.5977
0.42829
0.376872
0.565496
0.5977
0.597711
0.5977
0.675867
0.597713
0.5977
0.367876
0.680983
0.5977
0.5977
0.5977
0.5977
0.5977
0.368159
0.564373
0.367651
0.5977
0.552795
0.41917
0.5977
0.5977
0.417395
0.5977
0.5977
0.5977
0.5977
0.5977
0.5977
0.5977
0.36753
0.5977
0.597701
0.5977
0.5977
0.5977
0.597712
0.5977
0.5977
0.5977
0.5977
0.5977
0.5977
0.549363
0.680401
0.5977
0.5977
0.680861
0.5977
0.597713
0.5977
0.5977
0.5977
0.5977
0.5977
0.5977
0.5977
0.451425
0.5977
0.597699
0.5977
0.5977
0.597709
0.5977
0.597698
0.5977
0.5977
0.5977
0.5977
0.5977
0.5977
0.5977
0.597716
0.5977
0.5977
0.5977
0.5977
0.5977
0.5977
0.597703
0.5977
0.5977
0.5977
0.597554
0.5977
0.5977
0.680688
0.5977
0.5977
0.5977
0.403398
0.5977
0.5977
0.5977
0.5977
0.5977
0.5977
0.5977
0.5977
0.5977
0.5977
0.5977
0.5977
0.5977
0.592443
0.377655
0.597701
0.5977
0.5977
0.369703
0.5977
0.5977
0.5977
0.5977
0.5977
0.382326
0.68071
0.5977
0.5977
0.5977
0.597711
0.5977
0.367722
0.36804
0.5977
0.39525
0.5977
0.5977
0.5977
0.5977
0.5977
0.5977
0.591882
0.5977
0.367849
0.424651
0.5977
0.5977
0.5977
0.5977
0.5977
0.5977
0.56976
0.5977
0.68183
0.5977
0.374479
0.5977
0.5977
0.5977
0.663477
0.5977
0.5977
0.5977
0.5977
0.5977
0.5977
0.5977
0.5977
0.5977
0.66773
0.5977
0.5977
0.5977
0.5977
0.597718
1.01331
0.5977
0.679625
0.5977
0.367799
0.5977
0.5977
0.680698
0.5977
0.529826
0.5977
0.681039
0.5977
0.520531
0.5977
0.372396
0.680322
0.5977
0.681445
0.5977
0.5977
0.5977
0.5977
0.5977
0.5977
0.5977
0.5977
0.5977
0.597548
0.597702
0.680846
0.597706
0.681072
0.5977
0.680939
0.368459
0.5977
0.5977
0.5977
0.681022
0.5977
0.597209
0.5977
0.680546
0.5977
0.5977
0.480859
0.5977
0.5977
0.573421
0.681276
0.5977
0.589918
0.5977
0.5977
0.5977
0.678121
0.597701
0.5977
0.5977
0.506426
0.5977
0.5977
0.5977
0.59772
0.475424
0.5977
0.5977
0.5977
0.5977
0.677852
0.474407
0.5977
0.5977
0.5977
0.5977
0.5977
0.5977
0.655267
0.5977
0.5977
0.5977
0.5977
0.615594
0.5977
0.5977
0.5977
0.5977
0.5977
0.5977
0.5977
0.5977
0.5977
0.5977
0.681382
0.5977
0.5977
0.5977
0.5977
0.5977
0.5977
0.5977
0.5977
0.5977
0.681289
0.5977
0.5977
0.681433
0.5977
0.5977
0.5977
0.5977
0.5977
0.5977
0.5977
0.5977
0.597699
1.12562
0.5977
0.597702
0.5977
0.381309
0.5977
0.5977
0.5977
0.5977
0.5977
0.426163
0.5977
0.5977
0.450214
0.5977
0.5977
0.5977
0.5977
0.5977
0.5977
0.5977
0.5977
0.5977
0.680973
0.5977
0.380653
0.5977
0.5977
0.5977
0.5977
0.680726
0.5977
0.5977
0.437055
0.5977
0.5977
0.5977
0.5977
0.680979
0.5977
0.5977
0.5977
0.5977
0.5977
0.367883
0.367679
0.529796
0.412459
0.5977
0.5977
0.681078
0.5977
0.434721
0.596999
0.5977
0.597698
0.5977
0.5977
0.5977
0.664165
0.5977
0.5977
0.422576
0.367933
0.936727
0.5977
0.382043
0.597717
0.680281
0.5977
0.367734
0.5977
0.5977
0.5977
0.680601
0.67844
0.597714
0.597699
0.515513
0.5977
0.5977
0.5977
0.5977
0.5977
0.5977
0.663287
0.5977
0.368176
0.5977
0.367785
0.680503
0.5977
0.680384
0.5977
0.367486
0.5977
0.680846
0.5977
0.597699
0.5977
0.680432
0.5977
0.5977
0.5977
0.779417
0.5977
0.419076
0.679947
0.681104
0.5977
0.5977
1.1241
0.5977
0.751231
0.5977
0.597705
0.5977
0.368261
0.680216
0.5977
0.367912
0.5977
0.5977
0.5977
0.5977
0.5977
0.5977
0.5977
0.5977
0.5977
0.5977
0.371347
0.5977
0.680384
0.5977
0.5977
0.5977
0.5977
0.5977
0.5977
0.5977
0.63865
0.544151
0.5977
0.5977
0.5977
0.681358
0.377684
0.5977
0.5977
0.5977
0.5977
0.803943
0.5977
0.5977
0.597699
0.5977
0.5977
0.5977
0.5977
0.5977
0.680002
0.5977
0.5977
0.5977
0.5977
0.5977
0.594208
0.5977
0.367896
0.5977
0.5977
0.5977
0.5977
0.663512
0.5977
0.5977
0.5977
0.5977
0.5977
0.951811
0.68107
0.5977
0.5977
0.681013
0.5977
0.5977
0.5977
0.5977
0.5977
0.5977
0.5977
0.5977
0.5977
0.5977
0.5977
0.592888
1.1224
0.479219
0.5977
0.5977
0.5977
0.5977
0.5977
0.5977
0.5977
0.681289
0.680641
0.5977
0.680402
0.5977
0.5977
0.5977
0.5977
0.5977
0.680571
0.595399
0.5977
0.659394
0.5977
0.5977
0.5977
0.5977
0.5977
0.367783
0.673504
0.51534
0.5977
0.597718
0.5977
0.5977
0.5977
0.5977
0.5977
0.5977
0.5977
0.680372
0.443753
0.5977
0.5977
0.5977
0.5977
0.680409
0.5977
0.681012
0.5977
0.5977
0.5977
0.595961
0.5977
0.367807
0.5977
0.5977
1.02901
0.664734
1.08195
0.5977
0.5977
0.5977
0.5977
0.36773
0.5977
1.05147
0.5977
0.681219
0.597704
0.68026
0.5977
0.5977
0.5977
0.5977
0.5977
0.5977
0.5977
0.5977
0.637488
0.660388
0.539017
0.5977
0.5977
0.543598
0.5977
0.597699
0.5977
0.5977
0.374334
0.5977
0.5977
0.5977
0.5977
0.561951
0.561668
0.5977
0.5977
0.597711
0.680661
0.5977
0.5977
0.5977
0.5977
0.5977
0.430859
0.5977
0.491841
0.5977
0.5977
0.5977
0.597708
0.5977
0.5977
0.597701
0.5977
0.5977
0.5977
0.670039
0.5977
0.5977
0.597704
0.475278
0.5977
0.681369
0.5977
0.5977
0.5977
0.681245
0.5977
0.5977
0.597462
0.5977
0.5977
0.532726
0.5977
0.5977
0.5977
0.5977
0.5977
0.680796
0.5977
0.5977
0.374753
0.5977
0.5977
0.597715
0.5977
1.12278
0.5977
0.575533
0.679008
0.411795
0.5977
0.5977
0.370896
0.5977
0.5977
0.5977
0.681023
0.5977
0.5977
0.5977
0.5977
0.5977
0.5977
0.368569
0.597671
0.531873
0.5977
0.5977
0.5977
0.5977
0.5977
0.681055
0.5977
0.597699
0.5977
0.5977
0.681148
0.499296
0.679101
0.5977
0.5977
0.5977
0.5977
0.5977
0.5977
0.5977
0.5977
0.68118
0.5977
0.5977
0.5977
0.5977
0.367696
0.681098
0.5977
0.5977
0.5977
0.5977
0.5977
0.5977
0.5977
0.5977
0.533565
0.5977
0.5977
0.5977
0.5977
0.5977
0.5977
0.5977
0.5977
0.5977
0.5977
0.680505
0.5977
0.520476
0.5977
0.5977
0.5977
0.5977
0.5977
0.5977
0.5977
0.597701
0.5977
0.68034
0.5977
0.5977
0.5977
0.5977
0.5977
0.5977
0.5977
0.5977
0.681137
0.5977
0.5977
1.12566
0.5977
0.581075
0.5977
0.5977
0.681299
0.5977
0.5977
0.5977
0.5977
0.5977
0.673743
0.5977
0.5977
0.5977
0.440631
0.5977
0.5977
0.5977
0.5977
0.5977
0.68055
0.5977
0.5977
0.5977
0.5977
0.680516
0.592693
0.5977
0.5977
0.5977
0.5977
0.5977
0.5977
0.5977
0.5977
0.5977
0.680721
0.5977
0.5977
0.5977
0.5977
0.680833
0.682066
0.5977
0.5977
0.680378
0.5977
0.5977
0.541952
0.5977
0.560327
0.5977
0.5977
0.369632
0.370863
0.5977
0.649541
0.5977
0.5977
0.608876
0.5977
0.5977
0.40154
0.5977
0.5977
0.679718
0.5977
0.5977
0.681037
0.5977
0.68067
0.680767
0.5977
0.5977
0.5977
0.5977
0.5977
0.5977
0.5977
0.5977
0.444804
0.5977
0.5977
0.65861
0.597706
0.5977
0.5977
0.677541
0.441743
0.5977
0.5977
1.12548
0.5977
0.678997
0.410298
0.5977
0.400456
0.5977
0.5977
0.5977
0.5977
0.5977
0.5977
0.572484
0.501659
0.5977
0.680781
0.5977
0.5977
0.597717
0.573619
0.597699
0.5977
0.5977
0.5977
0.5977
0.5977
0.5977
0.5977
0.5977
0.5977
0.5977
0.5977
0.433396
0.67955
0.678749
0.597699
0.5977
0.5977
0.5977
0.5977
0.5977
0.5977
0.5977
0.5977
0.5977
0.385082
0.680794
0.5977
0.367211
0.5977
0.597714
0.597702
0.5977
0.5977
0.5977
0.5977
0.5977
0.5977
0.5977
0.597701
0.5977
0.680889
0.591843
0.5977
0.5977
0.5977
0.680902
0.5977
0.59488
0.5977
0.5977
0.5977
0.5977
0.5977
0.65751
0.680985
0.5977
0.680531
0.5977
0.677652
0.59772
0.597717
0.367925
0.5977
0.528181
0.597706
0.5977
0.5977
0.59771
0.5977
0.5977
0.5977
0.368429
0.680854
0.680583
0.5977
0.585381
0.5977
0.5977
0.680921
0.5977
0.5977
0.56463
0.443942
0.68077
0.442438
0.5977
0.5977
0.885368
0.370426
0.5977
0.582629
0.5977
1.09622
0.5977
0.5977
0.663997
0.5977
0.40764
0.5977
0.5977
0.5977
0.368679
1.12609
0.5977
0.680503
0.5977
0.469675
0.5977
0.5977
0.5977
0.5977
0.5977
0.5977
0.5977
0.5977
0.5977
0.5977
0.511162
0.5977
0.597702
0.5977
0.5977
0.679364
0.37108
0.5977
0.5977
0.5977
0.680801
0.433857
0.5977
0.5977
0.5977
0.5977
0.5977
0.426381
0.5977
0.649433
0.680613
0.5977
0.5977
0.5977
0.5977
0.5977
0.680811
0.681197
0.5977
0.5977
0.68068
0.5977
0.5977
0.5977
0.5977
0.5977
0.680951
0.5977
0.646308
0.5977
0.382386
0.5977
0.5977
0.367972
0.5977
0.5977
0.597699
0.5977
0.594917
0.5977
0.5977
0.5977
0.5977
0.5977
0.597699
0.680874
0.5977
0.659201
0.596111
0.5977
0.634912
0.5977
0.678732
0.5977
0.681221
0.5977
0.5977
0.5977
0.5977
0.469896
0.5977
0.597708
0.376719
0.5977
0.5977
0.5977
0.5977
0.680575
0.5977
0.68122
0.5977
0.5977
0.5977
0.5977
0.367851
0.677357
0.5977
0.5977
0.5977
0.5977
0.5977
0.5977
0.5977
0.5977
0.680395
0.5977
0.5977
0.5977
0.5977
0.5977
0.5977
0.5977
0.491076
0.5977
0.5977
0.5977
0.5977
0.5977
0.5977
0.680349
0.5977
0.5977
0.5977
0.502137
0.5977
0.5977
0.5977
0.5977
0.5977
0.5977
0.680849
0.407389
0.597699
0.5977
0.5977
0.5977
0.5977
0.5977
0.600587
0.5977
0.5977
0.5977
0.5977
0.5977
0.597699
0.5977
0.597701
0.5977
0.671762
0.5977
0.5977
0.5977
0.5977
0.5977
0.5977
0.5977
0.597633
0.5977
0.667417
0.5977
0.5977
0.5977
0.5977
1.12691
0.5977
0.5977
0.578977
0.394903
0.5977
0.5977
0.36781
0.5977
0.597701
0.5977
0.518067
0.5977
0.5977
0.5977
0.5977
0.44619
0.5977
1.09123
0.367756
0.681094
0.367105
0.5977
0.5977
0.5977
0.524702
0.5977
0.5977
0.572691
0.5977
0.5977
0.5977
0.5977
0.5977
0.5977
0.5977
0.559791
0.5977
0.434728
0.68086
0.680409
0.5977
0.5977
0.5977
0.5977
0.68055
0.5977
0.5977
0.5977
0.437896
0.5977
0.597702
0.5977
0.5977
0.5977
0.5977
0.5977
0.5977
0.5977
0.5977
0.5977
0.597698
0.597699
0.5977
0.5977
0.5977
0.499479
0.5977
0.680996
0.5977
0.5977
0.5977
0.5977
0.367828
0.5977
0.5977
0.5977
0.5977
0.5977
0.5977
0.627467
0.5977
0.5977
0.5977
0.68132
0.5977
0.5977
0.5977
0.5977
0.575666
0.5977
0.5977
0.5977
0.5977
0.5977
0.5977
0.45238
0.68073
0.5977
0.418171
0.5977
0.5977
0.5977
0.5977
0.5977
0.5977
0.5977
0.5977
0.597169
0.5977
0.597699
0.469287
0.5977
0.680559
0.5977
0.437639
0.371508
0.5977
0.5977
0.590835
0.5977
0.37285
0.5977
0.593316
0.5977
0.5977
0.5977
0.5977
0.680994
0.5977
0.368133
0.548722
0.5977
0.409198
0.5977
0.5977
0.680981
0.597546
0.5977
0.381616
1.10346
0.447228
0.652334
0.5977
0.367812
0.5977
0.59772
0.595636
0.597722
1.12582
0.5977
0.5977
0.5977
0.5977
0.5977
0.5977
0.526478
0.5977
0.5977
0.5977
0.5977
0.5977
0.510774
0.367217
0.5977
0.468435
0.470605
0.5977
0.5977
0.5977
0.5977
0.5977
0.5977
0.5977
0.591423
0.681202
0.509601
0.5977
0.5977
0.5977
0.5977
0.5977
0.5977
0.597701
0.5977
0.5977
0.5977
0.5977
0.5977
0.5977
0.5977
0.5977
0.5977
0.650977
0.756406
0.5977
1.12449
0.5977
0.5977
0.5977
1.03646
0.681416
0.5977
0.5977
0.5977
0.597701
0.5977
0.5977
0.5977
0.5977
0.5977
0.580438
0.5977
0.514232
0.5977
0.501943
0.510374
0.5977
0.5977
0.5977
0.56657
0.5977
0.5977
0.37022
0.5977
0.5977
0.5977
0.5977
0.5977
0.5977
0.593486
0.5977
0.5977
0.5977
0.5977
0.5977
0.5977
0.367228
0.5977
0.5977
0.5977
0.593935
0.675268
0.5977
0.367289
0.5977
0.5977
0.5977
0.680971
0.594683
0.367785
0.5977
0.5977
0.5977
0.5977
0.5977
0.367566
0.403194
0.5977
0.5977
0.5977
0.5977
0.367797
0.5977
0.5977
0.5977
0.5977
0.5977
0.5977
0.680712
0.5977
0.597698
0.5977
0.596043
0.5977
0.5977
0.5977
0.5977
0.367739
0.42699
0.5977
0.393978
0.368061
0.5977
0.5977
0.597714
0.5977
0.59769
0.677321
0.5977
0.5977
0.68061
0.5977
0.680698
0.5977
0.43242
0.5977
0.680875
0.5977
0.5977
0.5977
0.5977
0.5977
0.680862
0.500581
0.5977
0.5977
0.680748
0.5977
0.567733
0.5977
0.387509
0.382508
0.5977
0.5977
0.5977
0.517732
0.5977
0.5977
0.5977
0.5977
0.5977
0.367719
0.5977
0.5977
0.5977
0.5977
0.5977
0.680463
0.597699
0.5977
0.597701
0.5977
0.368282
0.5977
0.5977
0.5977
0.5977
0.5977
0.5977
0.5977
0.5977
0.5977
0.5977
0.680504
0.591998
0.373835
0.5977
0.385194
0.5977
0.597701
0.5977
0.5977
0.5977
0.5977
0.5977
0.367897
0.5977
0.5977
0.5977
0.5977
0.441652
0.5977
0.5977
0.5977
0.520494
0.5977
0.654781
0.5977
0.5977
0.5977
0.5977
0.367683
0.5977
0.5977
0.5977
0.596327
0.367317
0.5977
0.5977
0.5977
0.5977
0.5977
0.680852
0.5977
0.5977
0.437644
0.5977
0.5977
0.5977
0.5977
0.5977
0.518372
0.5977
0.5977
0.5977
0.5977
0.5977
0.5977
0.5977
0.597694
0.5977
0.5977
0.5977
0.5977
0.534823
0.55091
0.5977
0.5977
0.5977
0.5977
0.5977
0.5977
0.367929
0.5977
0.667575
0.5977
0.545454
0.5977
0.5977
0.5977
0.5977
0.5977
0.5977
0.5977
0.5977
0.5977
1.06791
0.5977
1.12552
0.5977
0.5977
0.680637
0.67698
0.595262
0.5977
0.5977
0.670316
0.597713
0.66429
0.5977
0.402782
0.5977
0.5977
0.367961
0.531145
0.5977
0.5977
0.5977
0.5977
0.5977
0.5977
0.5977
0.5977
0.5977
0.681173
0.5977
0.5977
0.594867
0.5977
0.5977
0.435086
0.5977
0.5977
0.368031
0.5977
0.5977
0.680627
0.5977
0.595639
0.5977
0.5977
0.5977
0.653911
0.5977
0.5977
0.5977
0.5977
0.5977
0.5977
0.668386
0.5977
0.5977
0.392495
0.5977
0.5977
0.5977
0.5977
0.680328
0.396195
0.5977
0.516323
0.5977
0.5977
0.593948
0.5977
0.5977
0.410846
0.597701
0.5977
0.5977
0.695859
0.597715
0.5977
0.5977
0.5977
0.5977
0.5977
0.5977
0.5977
0.5977
0.5977
0.5977
0.5977
0.5977
0.5977
0.5977
0.5977
0.5977
0.680795
0.5977
0.5977
0.5977
0.5977
0.5977
0.371382
0.5977
0.5977
0.680894
0.5977
0.5977
0.5977
0.5977
0.5977
0.372696
0.522029
0.671825
0.670231
0.5977
0.5977
0.66055
0.367153
0.5977
0.5977
0.5977
0.5977
0.5977
0.5977
0.515102
0.5977
0.5977
0.5977
0.5977
0.5977
0.5977
0.5977
0.5977
0.5977
0.5977
0.5977
0.5977
0.5977
0.5977
0.5977
0.5977
0.5977
0.551715
0.5977
0.5977
0.5977
0.5977
0.5977
0.5977
0.5977
0.597702
0.5977
0.5977
0.36786
0.5977
0.5977
0.596751
0.5977
0.5977
1.07777
0.5977
0.374656
0.593014
0.5977
0.5977
0.5977
0.5977
0.5977
0.680958
0.5977
0.5977
0.5977
0.5977
0.681035
0.597715
0.412204
0.5977
0.5977
0.5977
0.5977
0.680816
0.5977
0.5977
0.5977
0.5977
0.68085
0.5977
0.374322
0.592833
0.5977
0.5977
0.5977
0.597678
0.5977
0.5977
0.5977
0.5977
0.5977
0.418603
0.5977
0.5977
0.5977
0.5977
0.668971
0.5977
0.5977
0.5977
0.5977
0.5977
0.5977
0.5977
0.5977
0.597672
0.5977
0.678667
0.680972
0.5977
0.5977
0.5977
0.5977
0.5977
0.5977
0.446487
0.5977
0.5977
0.5977
0.680625
0.5977
0.5977
0.367936
0.5977
0.5977
0.5977
0.5977
0.5977
0.5977
0.5977
0.5977
0.5977
0.5977
0.5977
0.373363
0.5977
0.5977
0.5977
0.5977
0.5977
0.5977
0.5977
0.5977
0.367275
0.437357
0.680287
0.5977
0.5977
0.5977
0.5977
0.5977
0.5977
0.680588
0.5977
0.367736
0.5977
0.367951
0.5977
0.5977
0.5977
0.5977
0.680605
0.5977
0.5977
0.5977
0.40492
0.5977
0.5977
0.5977
0.5977
0.5977
0.5977
0.680575
0.367774
1.12594
0.679956
0.460665
0.5977
0.5977
0.5977
0.367647
0.548801
0.5977
0.5977
0.597702
0.5977
0.5977
0.5977
0.5977
0.5977
0.5977
0.367904
0.5977
0.383807
0.5977
0.441576
0.5977
0.5977
0.5977
0.5977
0.537539
0.6804
0.597712
0.446878
0.5977
0.5977
0.5977
0.5977
0.5977
0.5977
0.680562
0.5977
0.5977
0.5977
0.5977
0.5977
0.428124
0.5977
0.680488
0.5977
0.367506
0.5977
0.5977
0.5977
0.5977
0.5977
0.5977
0.5977
0.5977
0.5977
0.5977
0.5977
0.5977
0.5977
0.5977
0.388166
0.5977
0.5977
0.419987
0.5977
0.5977
0.5977
0.5977
0.5977
0.5977
0.5977
0.5977
0.5977
0.462644
0.5977
0.401648
0.5977
0.5977
0.456646
0.5977
0.681132
0.5977
0.5977
0.5977
0.5977
0.5977
0.5977
0.5977
0.5977
0.681691
0.5977
0.5977
0.5977
0.5977
0.5977
0.598318
0.5977
0.597699
0.5977
0.5977
0.5977
0.5977
0.374541
0.5977
0.5977
0.5977
0.5977
0.5977
0.5977
0.5977
0.5977
0.481163
0.5977
0.367664
0.5977
0.5977
0.596326
0.5977
0.5977
0.5977
0.5977
1.07354
0.5977
0.5977
0.5977
0.597699
0.597719
0.5977
0.5977
0.5977
0.597383
0.671241
0.5977
0.5977
0.68109
0.5977
1.07689
0.5977
0.5977
0.5977
0.5977
0.5977
1.07892
0.5977
0.5977
0.5977
0.5977
0.5977
0.5977
0.660891
0.5977
0.670146
0.5977
0.460387
0.655295
0.5977
0.5977
0.471166
0.367886
0.597717
0.5977
0.367884
0.597698
0.5977
0.5977
0.518485
0.5977
0.597696
0.5977
0.677758
0.5977
1.00407
0.5977
0.5977
0.5977
0.597702
0.5977
0.5977
0.597699
0.5977
0.5977
0.371025
0.5977
0.5977
0.5977
0.394626
0.68076
0.5977
0.5977
0.54714
0.5977
0.5977
0.368097
0.5977
0.5977
0.5977
0.5977
0.5977
0.5977
0.5977
0.5977
0.874776
0.5977
0.368359
0.5977
0.5977
0.5977
0.5977
0.5977
0.5977
0.400136
0.5977
0.68089
0.5977
0.5977
0.5977
0.5977
0.5977
0.5977
0.5977
0.5977
0.5977
0.384676
0.596962
0.5977
0.5977
0.5977
0.5977
0.5977
0.5977
0.5977
0.5977
0.5977
0.5977
0.389339
0.368459
0.5977
0.5977
1.12714
0.5977
0.5977
0.5977
0.5977
0.5977
0.5977
0.5977
0.384314
0.5977
0.5977
0.5977
0.5977
0.374017
0.5977
0.597699
0.5977
0.5977
0.5977
0.5977
0.369567
0.442764
0.5977
0.5977
0.680796
0.5977
0.379288
0.5977
0.372421
0.5977
0.597701
0.5977
0.457225
0.5977
0.681461
0.5977
0.5977
0.5977
0.5977
0.6811
0.5977
0.5977
0.5977
0.464923
0.5977
0.5977
1.12647
0.545668
0.5977
0.5977
0.5977
0.5977
0.5977
0.680916
0.668171
0.5977
0.5977
0.5977
0.5977
0.68077
0.597716
0.368319
0.5977
0.5977
0.5977
0.369635
0.680825
0.5977
0.5977
0.5977
0.5977
0.5977
0.5977
0.526828
0.6809
0.5977
0.498219
0.657842
0.5977
0.5977
0.5977
0.5977
0.5977
0.5977
0.461548
0.681068
0.5977
0.5977
0.367443
0.680705
0.5977
0.5977
0.5977
0.5977
0.597701
0.5977
0.5977
0.597619
0.5977
0.5977
0.5977
0.680632
0.5977
0.597701
0.5977
0.5977
0.5977
0.5977
0.5977
0.597699
0.459738
0.5977
0.5977
0.5977
0.680333
0.5977
0.5977
0.5977
0.5977
0.682187
0.5977
0.5977
0.5977
0.367943
1.02785
0.393522
0.5977
0.5977
0.5977
0.5977
0.5977
0.5977
0.5977
0.5977
0.589209
0.5977
1.06417
0.557559
1.01029
0.5977
0.5977
0.597699
0.677732
0.5977
0.5977
0.5977
0.597699
0.5977
0.386577
0.5977
0.681116
0.5977
0.5977
0.5977
0.5977
0.5977
0.5977
0.5977
0.5977
0.5977
0.411935
0.5977
0.5977
0.677842
0.680551
0.5977
0.5977
0.5977