# vtk DataFile Version 1.0
unstructured grid
ascii
DATASET UNSTRUCTURED_GRID
points 13672 float
0.0796578 -0.059106 0
0.00128732 0.00159165 0
0.00227961 -0.00102548 0
0.0791586 -0.0598787 0
-0.0546216 0.01 0
0.000495206 0.025 0
0.0800549 -0.035 0
0.135172 -0.08 0
-0.0546216 -0.0451168 0
0.000495206 -0.0301168 0
0.0800549 -0.0901168 0
0.135172 -0.135117 0
-0.0546216 -0.0451168 -0.00551168
0.000495206 -0.0301168 -0.00551168
0.0800549 -0.0901168 -0.00551168
0.135172 -0.135117 -0.00551168
0.135172 -0.08 -0.00551168
0.0800549 -0.035 -0.00551168
0.000495206 0.025 -0.00551168
-0.0546216 0.01 -0.00551168
0.00128732 0.00159165 -0.00551168
0.00227961 -0.00102548 -0.00551168
0.0791586 -0.0598787 -0.00551168
0.0796578 -0.059106 -0.00551168
0.00165953 -0.000990923 0
0.00119576 -0.000874076 0
0.000866021 -0.000641801 0
0.000645147 -0.000349912 0
0.00052235 -1.7281e-05 0
0.00049972 0.000348016 0
0.000601632 0.000737716 0
0.000861774 0.0011403 0
0.00157235 0.00183217 0
0.00188647 0.00206725 0
0.00222612 0.00230203 0
0.00258713 0.00254351 0
0.00296826 0.00279524 0
0.00337118 0.00305664 0
0.00379785 0.00332658 0
0.00425045 0.00360349 0
0.00473139 0.00388521 0
0.0052432 0.00416895 0
0.0057881 0.00445204 0
0.00636753 0.00473281 0
0.00698281 0.00500961 0
0.00763526 0.00528058 0
0.00832616 0.00554366 0
0.00905691 0.00579603 0
0.00982918 0.00603333 0
0.0106445 0.00625033 0
0.0115038 0.00644128 0
0.0124073 0.00660297 0
0.0133543 0.00673414 0
0.0143444 0.00683382 0
0.0153769 0.00690031 0
0.0164512 0.00693173 0
0.0175666 0.00692547 0
0.0187219 0.00687822 0
0.0199156 0.00678477 0
0.0211454 0.00663864 0
0.0224084 0.00643275 0
0.0237018 0.00616676 0
0.0250249 0.00584739 0
0.026375 0.00547298 0
0.0277479 0.00503752 0
0.0291386 0.00453545 0
0.0305433 0.0039653 0
0.0319572 0.0033256 0
0.0333681 0.00260019 0
0.034775 0.00179799 0
0.0361793 0.000930615 0
0.0375798 3.12222e-06 0
0.0389689 -0.000988429 0
0.0403357 -0.00205109 0
0.041675 -0.00318283 0
0.0429849 -0.00437751 0
0.0442643 -0.00562904 0
0.0455126 -0.00693089 0
0.0467314 -0.00827518 0
0.0479204 -0.00965638 0
0.0490661 -0.0110799 0
0.0501515 -0.0125519 0
0.0511696 -0.0140695 0
0.0521492 -0.0156071 0
0.0531202 -0.0171411 0
0.0540851 -0.0186663 0
0.0550431 -0.0201798 0
0.0559923 -0.0216793 0
0.0569311 -0.0231626 0
0.0578582 -0.0246273 0
0.0587723 -0.0260715 0
0.0596721 -0.027493 0
0.0605563 -0.02889 0
0.0614241 -0.0302609 0
0.0622742 -0.0316042 0
0.063106 -0.0329183 0
0.0639186 -0.034202 0
0.0647113 -0.0354543 0
0.0654835 -0.0366743 0
0.0662345 -0.0378613 0
0.0669642 -0.0390145 0
0.0676726 -0.0401333 0
0.0683597 -0.0412172 0
0.0690246 -0.0422665 0
0.0696662 -0.0432819 0
0.0702841 -0.0442636 0
0.0708793 -0.0452111 0
0.0714538 -0.0461237 0
0.072009 -0.047001 0
0.0725452 -0.0478434 0
0.0730611 -0.0486524 0
0.073556 -0.0494294 0
0.0740291 -0.0501756 0
0.0744812 -0.0508916 0
0.0749138 -0.0515773 0
0.0753285 -0.0522331 0
0.0757266 -0.0528592 0
0.076109 -0.0534564 0
0.0764753 -0.0540264 0
0.0768243 -0.054571 0
0.0771553 -0.0550919 0
0.0774679 -0.0555901 0
0.0777617 -0.0560669 0
0.0780369 -0.056523 0
0.0782958 -0.0569578 0
0.0785421 -0.0573703 0
0.0787786 -0.0577603 0
0.0790073 -0.0581279 0
0.0792295 -0.058474 0
0.0794462 -0.0587995 0
0.0798803 -0.0594162 0
0.0800272 -0.0596588 0
0.0800357 -0.0598891 0
0.0799275 -0.0600784 0
0.0797205 -0.0601773 0
0.0794593 -0.0601051 0
0.0789155 -0.0596491 0
0.0786707 -0.0593963 0
0.0784111 -0.0591319 0
0.0781372 -0.0588542 0
0.0778566 -0.0585548 0
0.0775715 -0.0582308 0
0.0772803 -0.0578828 0
0.0769832 -0.0575099 0
0.0766822 -0.0571097 0
0.0763801 -0.0566796 0
0.0760759 -0.0562196 0
0.0757623 -0.0557337 0
0.0754359 -0.0552232 0
0.0750951 -0.0546879 0
0.0747379 -0.054128 0
0.0743626 -0.0535435 0
0.0739688 -0.0529338 0
0.0735559 -0.0522981 0
0.0731238 -0.0516357 0
0.0726718 -0.050946 0
0.0721991 -0.0502288 0
0.0717046 -0.049484 0
0.0711872 -0.0487117 0
0.0706461 -0.047912 0
0.0700804 -0.0470849 0
0.0694892 -0.0462308 0
0.0688718 -0.0453499 0
0.0682271 -0.0444431 0
0.0675544 -0.043511 0
0.0668527 -0.0425546 0
0.0661215 -0.0415748 0
0.06536 -0.040573 0
0.0645676 -0.0395504 0
0.0637439 -0.0385087 0
0.0628887 -0.0374493 0
0.062002 -0.0363741 0
0.0610838 -0.0352847 0
0.0601345 -0.0341831 0
0.0591547 -0.033071 0
0.0581456 -0.0319502 0
0.0571083 -0.0308224 0
0.0560444 -0.0296893 0
0.0549562 -0.028552 0
0.053845 -0.0274126 0
0.0527113 -0.0262746 0
0.051554 -0.0251427 0
0.0503724 -0.0240222 0
0.0491675 -0.0229164 0
0.047941 -0.0218282 0
0.0466955 -0.0207597 0
0.0454337 -0.0197126 0
0.0441592 -0.0186878 0
0.0428751 -0.0176863 0
0.0415841 -0.0167097 0
0.0402878 -0.0157609 0
0.0389879 -0.0148428 0
0.0376864 -0.0139575 0
0.0363853 -0.013107 0
0.0350871 -0.0122931 0
0.0337942 -0.0115164 0
0.0325095 -0.0107772 0
0.0312357 -0.0100756 0
0.0299758 -0.00941024 0
0.0287337 -0.00877784 0
0.0275126 -0.00817571 0
0.0263139 -0.00760375 0
0.0251376 -0.00706528 0
0.0239829 -0.0065649 0
0.0228537 -0.00609619 0
0.0217522 -0.00565563 0
0.0206795 -0.00524226 0
0.0196364 -0.00485507 0
0.0186233 -0.00449318 0
0.0176408 -0.00415577 0
0.016689 -0.00384204 0
0.0157682 -0.00355115 0
0.0148783 -0.00328218 0
0.0140192 -0.00303468 0
0.0131906 -0.00280795 0
0.0123925 -0.00260016 0
0.0116246 -0.00241012 0
0.0108864 -0.00223769 0
0.0101774 -0.00208212 0
0.00949701 -0.00194206 0
0.00884483 -0.0018163 0
0.0082202 -0.0017039 0
0.00762247 -0.00160391 0
0.00705097 -0.00151528 0
0.006505 -0.00143697 0
0.0059838 -0.00136806 0
0.00548662 -0.00130772 0
0.00501265 -0.00125519 0
0.00456114 -0.00120954 0
0.00413136 -0.00116914 0
0.00372257 -0.00113251 0
0.00333398 -0.00109853 0
0.00296466 -0.00106798 0
0.00261363 -0.0010431 0
-0.052721 -0.0445996 0
-0.0508204 -0.0440823 0
-0.0489199 -0.0435651 0
-0.0470193 -0.0430478 0
-0.0451187 -0.0425306 0
-0.0432181 -0.0420134 0
-0.0413175 -0.0414961 0
-0.039417 -0.0409789 0
-0.0375164 -0.0404616 0
-0.0356158 -0.0399444 0
-0.0337152 -0.0394271 0
-0.0318146 -0.0389099 0
-0.0299141 -0.0383927 0
-0.0280135 -0.0378754 0
-0.0261129 -0.0373582 0
-0.0242123 -0.0368409 0
-0.0223117 -0.0363237 0
-0.0204112 -0.0358065 0
-0.0185106 -0.0352892 0
-0.01661 -0.034772 0
-0.0147094 -0.0342547 0
-0.0128088 -0.0337375 0
-0.0109083 -0.0332202 0
-0.00900769 -0.032703 0
-0.00710711 -0.0321858 0
-0.00520653 -0.0316685 0
-0.00330595 -0.0311513 0
-0.00140537 -0.030634 0
0.00190689 -0.0299614 0
0.00332271 -0.0298498 0
0.00474133 -0.0297825 0
0.00616136 -0.0297597 0
0.0075814 -0.0297814 0
0.00900007 -0.0298477 0
0.010416 -0.0299583 0
0.0118278 -0.0301127 0
0.0132342 -0.0303103 0
0.0146339 -0.0305504 0
0.0160259 -0.0308322 0
0.0174091 -0.0311546 0
0.0187824 -0.0315166 0
0.020145 -0.031917 0
0.0214961 -0.0323546 0
0.0228351 -0.032828 0
0.0241613 -0.0333361 0
0.0254744 -0.0338774 0
0.0267738 -0.0344507 0
0.0280592 -0.0350545 0
0.0293306 -0.0356877 0
0.0305875 -0.0363488 0
0.0318301 -0.0370367 0
0.0330581 -0.0377501 0
0.0342717 -0.0384879 0
0.0354708 -0.0392489 0
0.0366556 -0.0400321 0
0.0378262 -0.0408363 0
0.0389828 -0.0416607 0
0.0401254 -0.0425042 0
0.0412543 -0.0433659 0
0.0423698 -0.0442451 0
0.043472 -0.0451408 0
0.0445612 -0.0460523 0
0.0456375 -0.0469789 0
0.0467013 -0.0479199 0
0.0477529 -0.0488746 0
0.0487923 -0.0498424 0
0.04982 -0.0508227 0
0.0508362 -0.051815 0
0.051841 -0.0528187 0
0.0528348 -0.0538333 0
0.0538178 -0.0548584 0
0.0547903 -0.0558935 0
0.0557524 -0.0569382 0
0.0567045 -0.0579922 0
0.0576467 -0.0590549 0
0.0585792 -0.0601261 0
0.0595024 -0.0612055 0
0.0604163 -0.0622926 0
0.0613212 -0.0633873 0
0.0622174 -0.0644891 0
0.0631049 -0.0655979 0
0.0639841 -0.0667134 0
0.064855 -0.0678353 0
0.0657179 -0.0689633 0
0.0665729 -0.0700974 0
0.0674202 -0.0712372 0
0.06826 -0.0723826 0
0.0690925 -0.0735333 0
0.0699178 -0.0746892 0
0.070736 -0.0758501 0
0.0715473 -0.0770159 0
0.0723518 -0.0781863 0
0.0731498 -0.0793612 0
0.0739412 -0.0805405 0
0.0747264 -0.081724 0
0.0755053 -0.0829116 0
0.0762781 -0.0841033 0
0.0770449 -0.0852987 0
0.0778059 -0.0864979 0
0.0785611 -0.0877007 0
0.0793108 -0.088907 0
0.0814681 -0.0912706 0
0.0828814 -0.0924245 0
0.0842946 -0.0935783 0
0.0857079 -0.0947322 0
0.0871211 -0.095886 0
0.0885344 -0.0970399 0
0.0899476 -0.0981937 0
0.0913609 -0.0993476 0
0.0927741 -0.100501 0
0.0941874 -0.101655 0
0.0956006 -0.102809 0
0.0970139 -0.103963 0
0.0984272 -0.105117 0
0.0998404 -0.106271 0
0.101254 -0.107424 0
0.102667 -0.108578 0
0.10408 -0.109732 0
0.105493 -0.110886 0
0.106907 -0.11204 0
0.10832 -0.113194 0
0.109733 -0.114348 0
0.111146 -0.115501 0
0.11256 -0.116655 0
0.113973 -0.117809 0
0.115386 -0.118963 0
0.116799 -0.120117 0
0.118213 -0.121271 0
0.119626 -0.122424 0
0.121039 -0.123578 0
0.122452 -0.124732 0
0.123866 -0.125886 0
0.125279 -0.12704 0
0.126692 -0.128194 0
0.128105 -0.129348 0
0.129519 -0.130501 0
0.130932 -0.131655 0
0.132345 -0.132809 0
0.133758 -0.133963 0
0.135172 -0.133216 0
0.135172 -0.131316 0
0.135172 -0.129415 0
0.135172 -0.127514 0
0.135172 -0.125614 0
0.135172 -0.123713 0
0.135172 -0.121813 0
0.135172 -0.119912 0
0.135172 -0.118012 0
0.135172 -0.116111 0
0.135172 -0.11421 0
0.135172 -0.11231 0
0.135172 -0.110409 0
0.135172 -0.108509 0
0.135172 -0.106608 0
0.135172 -0.104708 0
0.135172 -0.102807 0
0.135172 -0.100906 0
0.135172 -0.0990058 0
0.135172 -0.0971052 0
0.135172 -0.0952046 0
0.135172 -0.0933041 0
0.135172 -0.0914035 0
0.135172 -0.0895029 0
0.135172 -0.0876023 0
0.135172 -0.0857017 0
0.135172 -0.0838012 0
0.135172 -0.0819006 0
0.133758 -0.0788462 0
0.132345 -0.0776923 0
0.130932 -0.0765385 0
0.129519 -0.0753846 0
0.128105 -0.0742308 0
0.126692 -0.0730769 0
0.125279 -0.0719231 0
0.123866 -0.0707692 0
0.122452 -0.0696154 0
0.121039 -0.0684615 0
0.119626 -0.0673077 0
0.118213 -0.0661538 0
0.116799 -0.065 0
0.115386 -0.0638462 0
0.113973 -0.0626923 0
0.11256 -0.0615385 0
0.111146 -0.0603846 0
0.109733 -0.0592308 0
0.10832 -0.0580769 0
0.106907 -0.0569231 0
0.105493 -0.0557692 0
0.10408 -0.0546154 0
0.102667 -0.0534615 0
0.101254 -0.0523077 0
0.0998404 -0.0511538 0
0.0984272 -0.05 0
0.0970139 -0.0488462 0
0.0956006 -0.0476923 0
[...]
CELL_DATA 13116
SCALARS rho float
LOOKUP_TABLE default
0.633
0.693822
0.34129
0.708403
0.698752
0.686938
0.359852
0.706083
0.581528
0.715599
0.361516
0.315724
0.699076
0.351123
0.343498
0.686904
0.634733
0.717883
0.691925
0.356247
0.626922
0.348353
0.344151
0.718266
0.68258
0.691015
0.715873
0.344644
0.630348
0.713744
1.08198
0.327177
0.604939
0.461764
0.355646
0.630347
0.70521
0.691946
0.680523
0.690892
0.691845
0.706374
0.516537
0.339639
0.691691
0.691931
0.689619
0.693854
0.352382
0.563928
0.698851
0.50677
0.356768
0.629836
0.605009
0.634851
0.34007
0.711138
0.576533
0.350271
0.349884
0.710793
0.690808
0.671573
1.02504
0.347894
0.696341
0.708144
0.69599
0.892447
0.342484
0.625289
0.347011
0.343751
1.12669
0.337738
0.695429
0.697928
0.360031
0.719718
0.703463
0.690626
0.718369
0.694165
0.690771
0.459323
0.354583
0.716501
0.689547
0.364437
0.333032
0.693756
0.717289
0.690013
0.710083
0.665928
0.702728
1.13116
1.12683
0.634249
0.725974
0.682871
0.691447
0.434591
0.687863
0.337908
0.417493
0.552598
0.342927
0.779436
0.579213
0.689251
0.658617
0.704902
0.719033
0.695086
0.353159
0.418849
0.696849
0.696404
0.708339
0.34964
0.696166
0.332249
0.692007
0.450289
0.35442
0.50757
0.342549
0.562054
0.69699
0.697073
0.492597
0.350269
0.473883
0.672738
1.12637
0.696627
0.726423
0.69587
0.691845
0.689639
0.517234
0.69145
0.691939
0.348341
0.35477
0.689951
0.699713
0.699621
0.523574
0.693897
0.69378
0.34374
0.710847
0.690857
0.341768
0.722662
1.12187
0.721169
0.719041
0.361712
0.709189
0.342836
0.349671
0.706214
0.691272
0.717827
0.357237
0.461508
0.438679
1.12666
0.344103
0.495589
0.690076
0.343493
0.342938
0.347672
0.688937
0.69296
0.355416
0.443243
0.600501
0.706129
0.69304
0.577431
0.345829
0.689873
0.686846
0.466666
0.698504
0.689639
0.805861
0.33803
0.688481
0.69331
0.717053
0.690139
0.689785
0.392233
0.436175
0.776394
0.497811
0.344884
0.69923
0.692962
0.517559
0.691188
0.348105
0.358386
0.338646
0.695138
0.3413
0.359245
0.364758
0.342955
0.40816
0.685034
0.691856
0.457513
0.340084
0.696059
0.573972
0.355662
0.53304
0.713213
0.691741
0.345113
0.692419
0.435644
0.708002
0.329154
0.809611
0.614614
1.1345
0.690375
0.722923
0.360501
0.44567
0.726692
1.1272
0.693733
1.12625
0.691028
0.705344
0.34374
0.697678
0.71055
1.13039
0.353938
0.353463
0.693045
0.696745
0.934755
0.695394
0.628486
0.717079
0.361916
0.367962
0.400745
0.34795
0.686008
0.717068
0.694285
0.356519
0.690919
0.347351
0.446152
0.688258
0.34948
0.690636
0.701655
1.12653
0.707529
0.359366
1.12676
0.703311
1.13102
0.696416
0.359537
0.353248
0.339089
0.669323
0.348293
0.354733
0.407962
0.381358
0.691981
0.357104
0.69008
0.698719
0.349418
0.355083
0.348241
0.455499
0.34475
0.712616
0.681205
0.68861
0.350339
0.69478
0.544541
0.365159
0.349258
0.686015
0.69667
0.690097
0.345266
0.693237
0.444746
0.696534
0.70593
0.699611
0.705266
0.338428
0.693894
0.348398
0.687573
0.713656
0.730478
0.360733
0.406296
0.711113
0.349332
0.689194
0.710352
0.375039
0.722276
0.718453
0.350229
0.690996
0.717419
0.353192
0.697443
0.463491
0.542557
0.704474
0.465593
0.722707
0.35599
0.719362
0.414468
0.670141
0.68268
0.716869
0.344052
0.412475
0.690879
0.344371
0.698244
0.687214
0.438432
1.1269
0.345243
0.341735
0.696915
0.530323
0.707428
0.35296
0.342293
0.697809
0.698413
0.355673
0.698076
0.351095
0.345905
0.690921
0.70479
0.567681
0.366809
0.696242
1.05304
0.686683
0.690811
0.701642
0.532858
0.356179
0.346927
0.355496
0.686571
0.355966
0.601387
0.379248
0.335985
0.410133
0.573456
0.162851
0.345298
0.691156
0.318614
0.710215
0.62473
0.692532
0.716405
0.697686
0.34225
0.353186
0.398743
0.362064
0.697496
0.652026
0.691936
0.626121
0.692924
0.706086
0.690327
0.696439
0.714082
0.70058
0.720174
0.686961
0.404292
0.512194
0.630431
0.345266
0.680146
0.635443
0.35629
0.694688
1.12659
0.339059
0.358434
0.36198
0.347002
0.763971
0.342446
0.338374
0.695468
0.346091
0.616855
0.363415
0.686777
0.700731
0.346974
0.349099
0.696961
0.454594
0.363844
0.347467
0.365793
0.342986
0.352483
0.358626
0.352694
0.447399
0.362165
0.68208
0.351621
0.69044
0.374492
0.330715
0.497529
0.346128
0.364346
0.343571
0.690211
0.446141
0.745803
0.565836
0.347426
0.697921
0.689412
0.45622
0.723165
0.703037
0.701015
0.351602
1.13131
0.421515
0.70166
1.10978
0.341451
0.356579
0.686617
0.363322
0.463332
0.683719
0.415439
0.722773
0.691558
0.354396
0.341455
0.343651
0.488885
0.347854
0.355724
0.343247
0.349462
0.708046
0.709376
0.459915
0.63416
0.475536
0.688326
0.400721
0.34063
0.586573
0.341793
0.695472
0.383235
0.416962
0.489266
0.691752
0.691646
0.532833
0.372676
0.357378
0.538144
0.705604
0.733594
0.536642
0.688456
0.685748
0.361779
0.70057
0.608371
0.728094
0.387173
0.344787
0.705148
0.716999
0.718247
0.714161
0.689508
0.693102
0.719329
0.730216
0.692421
0.360011
0.691649
0.419939
0.34921
0.360722
0.70905
0.692713
0.396243
0.690527
0.798467
0.360933
0.668361
0.696448
0.701559
0.344458
0.341528
0.697895
0.364346
0.364229
0.326302
0.361823
0.695237
0.354292
0.708176
0.350898
0.693926
0.69839
0.695799
0.698588
0.36467
0.355876
0.693827
0.708322
0.700415
0.707982
0.710647
0.492302
0.350429
0.342445
0.694437
0.577401
0.361868
0.456325
0.335978
0.699052
0.689942
0.387985
0.349843
0.690265
0.469407
0.6914
0.734295
0.342495
0.433289
0.699632
1.12847
0.342847
0.691612
0.69131
0.693458
0.339453
1.12643
0.340822
1.13483
0.727108
0.367181
0.40484
0.353876
1.13525
0.343133
0.358811
0.420246
0.668898
0.698894
0.359278
0.364896
0.362822
0.672528
0.348227
0.693908
0.350414
0.627895
0.713661
0.377257
0.343148
0.343666
0.494396
0.342763
0.691415
0.343705
0.338718
0.686888
0.348008
0.69332
0.689175
1.13274
0.361372
0.695478
0.71646
0.716864
0.694575
0.700573
0.689735
0.325682
0.829277
0.458991
0.694145
0.358682
0.705217
0.553095
0.35689
1.08612
0.700672
0.343975
0.698594
0.333454
0.341418
0.695423
0.690132
0.335554
0.34462
0.359792
0.311138
0.700272
0.717916
0.340208
0.352753
0.698543
0.69747
0.629511
0.715356
0.689615
0.361833
0.71684
0.441741
0.698539
0.418494
0.647331
0.477277
0.693097
0.707052
0.594635
0.397187
0.343837
0.690066
0.653438
0.624301
0.714565
0.347592
0.701692
0.710315
0.443471
0.510057
0.71579
0.37662
0.984994
0.72762
0.405103
0.697606
0.710855
0.342053
0.699744
0.339101
0.689585
0.337249
0.69493
0.690113
0.344018
0.679074
0.711141
0.698431
0.789216
0.698551
0.553799
0.367485
0.441304
0.333635
0.344676
1.12688
0.534798
0.696888
0.700128
0.358737
0.356129
0.698398
0.713486
0.697058
0.702517
0.359565
0.719917
0.709288
0.356749
0.330354
0.696907
0.693074
0.690125
0.29797
0.542306
0.347617
0.700371
0.689268
0.782863
0.693374
0.36189
0.695275
0.69012
0.718056
0.69025
0.692313
0.459619
0.701452
0.35744
0.688029
0.713867
0.459698
0.692529
0.697097
0.698266
0.444812
0.424826
0.581005
0.7228
0.364052
0.367098
0.348201
0.36248
0.694699
0.70148
0.710599
0.382045
0.362246
0.695606
0.723983
0.354242
0.357785
0.462478
0.701578
0.690049
0.690707
0.705582
0.35918
0.364188
1.12691
0.331728
0.358978
0.342415
0.690435
0.347198
0.364848
0.6294
0.693866
0.688775
0.68675
0.689843
0.351767
0.343648
0.349265
0.575981
0.448447
0.331421
0.707924
0.709595
0.690402
0.693643
0.307903
0.362368
0.714519
0.362298
0.692104
0.689765
1.10544
0.335529
0.365921
0.689535
1.08241
0.654317
0.354446
0.691054
0.686692
0.626711
0.699204
0.703443
1.12691
0.688288
0.359581
0.689784
0.987132
0.688283
0.700721
1.12688
0.689688
1.12804
0.696317
0.339398
0.337431
0.362583
1.06607
0.557099
0.362504
0.698053
0.698982
0.318096
0.701141
0.348142
0.699427
0.560774
0.358647
0.712249
0.717857
0.362137
0.529513
1.04949
0.342536
0.690007
0.348169
0.341901
0.702005
0.672483
0.495858
0.691635
0.347069
0.705655
0.340257
0.322229
0.693761
0.361794
0.67463
0.335885
0.700059
0.648715
1.12683
0.691349
0.346118
0.338045
0.686268
0.52543
0.697129
0.472753
0.650564
0.686688
0.718218
0.532665
0.76762
0.688708
0.71697
0.697128
0.417608
0.36651
0.526905
0.688559
0.716953
0.394996
0.691315
0.655932
0.397249
0.335797
0.728697
0.702277
1.12652
1.13576
0.68429
0.703552
0.682307
0.704481
0.33399
0.724933
0.459427
0.699258
0.692843
0.38591
0.70347
0.699096
0.337376
0.355835
0.349074
1.12688
0.361566
0.702312
0.701365
0.728958
0.379434
0.691664
0.346533
0.538505
0.670582
0.76791
0.70819
0.66906
0.721768
0.703513
0.581928
0.693825
0.337685
0.691323
0.695732
0.507323
1.13091
0.701369
0.339132
0.346602
0.342141
0.699232
0.366989
1.12863
0.349101
0.705939
0.35557
0.479159
0.33985
0.701945
0.70048
0.626866
0.374701
0.719549
0.68979
0.354653
0.628638
0.709828
0.330113
0.636624
1.12325
0.71332
0.692645
0.34061
0.549892
0.697473
0.692273
0.688536
0.365651
0.421327
0.691369
1.12685
1.12768
1.12681
0.618493
0.697411
0.614566
0.695761
0.365512
0.345542
1.1267
0.699103
0.676914
0.347102
0.691255
0.63079
0.679657
0.336205
0.442824
0.698085
0.707036
0.599577
0.359282
0.692952
1.13321
0.359476
0.699118
0.703866
0.358551
0.330856
0.346928
0.686953
0.350998
0.360334
0.690913
0.481718
0.716869
0.70228
0.358098
0.351276
0.706617
0.3369
0.341686
1.08041
0.342942
0.40171
0.640295
0.700275
0.696037
0.362512
0.35028
0.359485
0.689272
0.337982
0.696094
0.344847
0.697875
0.696814
0.691489
0.689234
0.695501
0.689526
0.689979
0.698343
0.696295
0.35518
0.353055
0.694896
0.6847
0.50275
0.687713
0.603246
0.677719
0.686883
0.346434
0.695298
0.710515
0.693291
0.352022
0.695312
0.345757
0.694244
0.495684
0.719299
0.69436
0.358804
0.698003
0.362421
0.457381
0.691301
0.341332
0.723192
1.12685
0.703682
0.346077
0.694826
0.362988
0.335128
0.335931
0.364809
0.684812
0.345534
0.694581
0.674997
0.360763
0.338116
0.48596
0.606938
0.71414
0.688421
0.361265
0.349372
0.357543
0.342214
0.370886
0.712152
0.689982
0.34502
0.667658
0.700886
0.347648
0.710939
0.724034
0.66166
0.352898
1.13516
0.698634
0.700654
0.700014
0.347146
0.696372
0.700574
0.695411
0.728312
0.690655
0.358266
0.336254
0.693808
0.523812
0.366311
0.693175
0.340336
0.54191
0.701064
0.689518
0.689783
0.334356
0.687456
0.39747
0.351097
0.722738
0.698391
0.69984
0.697492
0.703783
0.33528
0.702452
0.349518
0.501386
0.704919
1.12517
0.697307
0.353034
0.360516
0.712288
0.37698
0.697656
0.740629
0.441698
0.363307
0.691857
0.335667
0.694045
0.697562
0.699744
0.335915
0.337753
0.494895
0.576809
0.705197
0.474293
0.688621
0.68857
0.690588
1.12687
0.698277
0.359165
0.360794
0.698005
0.690806
0.688683
0.460311
0.344924
0.700377
0.345177
0.689876
0.789717
0.354616
0.697439
0.361055
0.696899
0.341421
0.699183
0.357647
0.694381
0.693036
0.329026
0.691258
0.719917
0.32815
0.717765
0.691545
0.604211
0.348736
0.391764
0.469676
0.716537
0.685652
0.355523
0.545481
0.698629
0.686744
0.381183
0.691774
0.692203
0.469617
0.689349
0.687041
0.389081
0.695507
1.12401
0.340653
0.664682
0.348294
0.69827
0.345973
0.344853
0.717082
0.362938
0.363113
0.346176
0.695537
0.69082
0.410068
0.692761
0.393614
0.697511
0.36316
0.69171
0.382254
0.68653
0.694089
0.698672
0.72156
0.530986
0.693172
0.66668
0.344044
0.740527
0.700004
0.595907
0.698018
0.491888
0.4279
0.700733
0.353705
0.614625
0.348828
0.69172
0.355197
0.338004
0.717912
0.689786
0.355064
0.69746
0.712681
1.12687
0.702156
1.13545
0.359935
0.711601
0.357806
0.341655
0.690145
0.70471
0.706131
0.690551
0.329179
0.345005
0.35944
0.693452
0.685802
0.391824
0.702048
0.349007
0.345395
0.337041
0.689499
0.419476
0.70847
0.696615
0.742611
0.690149
0.696045
0.632287
0.693455
0.452278
0.33077
0.355487
1.13575
1.13525
0.347014
0.709643
0.685809
0.695797
0.340924
0.448442
0.688859
0.358373
0.688149
0.682358
0.358964
0.688791
0.694678
0.363014
0.695751
0.343762
0.69703
0.716594
0.695308
0.345995
0.474525
0.724919
0.394085
0.46665
0.69025
0.394462
0.691535
0.696949
0.690398
0.715956
0.358457
1.09828
0.722841
0.692094
0.424814
0.697814
0.342894
0.351489
0.691287
0.689958
0.680895
0.314635
0.694944
0.745885
1.12628
0.349326
0.352228
0.364363
0.697978
0.360074
0.346802
0.340943
0.681343
0.344001
0.384512
0.456243
0.695824
0.361148
0.742771
0.684564
0.690081
0.34545
0.694867
0.714196
0.672559
0.443838
0.730485
0.353096
0.353818
0.693664
0.355242
0.703028
0.69933
1.12655
0.360357
0.407746
0.344789
0.537593
1.12619
0.317765
0.691922
0.695537
0.715642
0.362487
0.348593
0.415566
0.68551
0.362707
1.12686
0.713443
0.690855
0.6915
0.359949
0.699959
0.32747
0.677348
0.739571
0.713912
0.676264
0.602281
0.729652
0.688808
0.698152
0.349626
0.373561
0.344312
0.719731
0.58288
1.12322
0.360239
0.428207
0.701839
0.694856
0.873728
0.355717
0.690811
0.536648
0.53768
0.685871
0.34288
0.35632
0.389386
0.689919
0.68212
0.729006
0.688047
0.411219
0.704679
0.733457
0.680513
0.687798
0.703156
0.71082
0.687198
0.702953
0.700227
0.341255
0.695426
0.697578
0.690359
0.696235
0.690025
0.667842
0.360361
0.334344
0.688083
0.365737
0.358751
0.690306
0.339561
0.747276
0.695523
0.692886
0.69344
0.340001
0.693362
0.336178
0.347378
0.687625
0.696232
0.693726
0.34428
0.698288
0.691773
0.687532
0.689942
0.345675
0.690438
0.71306
0.695729
0.393915
0.718717
0.359962
0.707276
0.339541
0.360603
0.636293
0.455946
0.712391
0.709895
0.692792
0.340068
0.690489
0.412519
0.341467
0.691075
0.491332
0.364871
0.691616
0.352361
0.507248
0.709346
0.689378
0.689809
0.48984
0.58608
0.711507
0.693457
0.668303
0.699555
0.524584
0.706402
0.687696
0.713454
0.293777
0.360491
0.454155
0.697388
0.339345
0.723065
0.698375
0.676956
0.693614
0.614044
0.72504
0.704554
0.35351
0.696263
0.687043
0.607235
0.687381
0.708566
0.691491
0.686384
0.362057
0.33802
0.694746
0.58801
0.619645
0.697296
0.694221
0.69321
0.7169
0.716734
0.710806
0.688322
0.714247
0.345078
0.338407
0.355154
0.351293
1.12718
0.462976
0.611061
0.697123
0.704432
0.341813
0.69367
0.708165
0.344085
0.419282
1.13078
0.69613
0.342787
0.307786
0.313103
1.12684
0.691271
0.396698
0.359526
0.358337
0.34814
0.372011
0.366327
0.707637
0.694005
0.698851
0.349025
0.692823
0.688938
0.786526
0.368214
0.357871
0.69107
1.12632
0.363927
0.686515
0.362759
0.718914
0.341372
0.690041
0.350127
0.690658
0.698588
0.346019
0.539587
0.366551
0.711089
0.339227
0.694581
0.341265
0.543815
0.352304
0.68482
0.355306
0.813949
0.776989
0.770051
0.695297
0.369394
0.691759
0.68749
0.698153
0.686379
0.698437
0.357966
0.444969
0.346061
0.717494
0.382651
0.699331
0.529146
0.705821
0.712765
0.55417
0.700895
0.340866
0.348402
0.344549
0.530223
0.642454
0.694155
0.350709
0.352988
0.691707
0.444991
0.33504
0.661757
0.412697
0.364319
0.332849
0.706654
0.735305
0.697696
0.344407
0.6912
0.689912
0.326689
0.414107
0.690455
0.689781
0.677565
0.510471
0.456608
0.425934
0.344677
0.698987
0.686875
0.577402
0.722164
0.349163
0.626132
0.360995
1.01901
0.699041
0.358333
0.374736
0.688409
0.657765
0.698279
0.699865
0.71494
0.699744
0.706369
0.342043
0.346681
0.343112
0.359416
0.63172
1.10681
0.734404
0.359796
0.36005
0.470009
0.330448
0.693099
0.689202
0.364258
0.384538
0.695674
0.343112
0.711326
0.701355
0.689235
0.690171
0.632768
0.364002
0.3498
0.687208
0.35857
0.449395
0.405957
0.684203
0.690267
0.384526
0.359427
1.12687
0.35419
0.687766
0.717366
0.361907
0.337569
0.357417
0.694866
0.353039
1.12688
0.70127
0.68208
0.319973
0.521846
0.698187
0.691754
0.36064
0.691936
0.689207
0.332321
0.696703
0.706626
0.355233
0.364869
0.689798
0.353381
0.359105
0.692259
0.424188
0.693502
0.724706
0.717706
0.693159
0.699369
0.696517
0.692931
0.36023
0.446198
0.690544
0.695446
0.471676
0.711487
0.387548
0.696348
0.689919
0.621229
0.713313
0.444345
0.459808
0.693723
0.699511
0.687456
0.698852
0.694908
1.12647
0.702621
1.12688
0.69938
0.691241
0.700442
1.12633
0.693502
0.332812
0.690921
0.343505
0.690725
0.695539
0.702111
0.68954
0.719508
0.336596
0.344327
0.395413
0.360817
0.689458
0.352596
0.351687
0.702524
0.304385
0.703156
0.345278
0.691904
0.696454
0.362364
0.443889
0.35567
0.697499
0.342431
0.693905
0.698287
0.343262
0.691093
0.556891
0.362206
0.344094
0.326496
0.720458
0.365374
0.693944
0.61283
0.368487
0.690704
0.692039
0.71589
0.362754
0.632417
0.338879
0.692962
0.68674
0.694385
0.366249
0.695444
0.69685
0.688745
0.429325
0.697252
0.363721
0.362045
0.6903
0.45911
0.715491
0.433522
0.36549
0.454703
0.689894
0.343269
0.331638
0.336871
0.558448
1.13308
0.696982
0.353794
0.679976
0.694592
0.536245
0.482939
0.353299
0.557304
0.365893
0.360864
0.692352
0.362255
0.362777
0.698772
0.708572
0.342808
0.718554
0.341338
1.12773
0.3451
0.691561
0.879845
0.719907
0.687998
0.341364
0.361353
0.33596
0.686955
0.690054
0.573398
0.585737
0.437008
0.39548
0.691761
0.360403
0.693621
0.433344
0.816218
0.707698
0.348046
0.340625
0.361901
0.359539
0.341865
0.688286
0.690178
0.350244
0.695186
0.713662
0.369686
0.343736
0.70961
0.364834
0.695784
0.453457
0.717266
0.71245
0.694778
1.13339
0.338787
0.716735
0.690032
0.707113
0.364581
0.686501
0.632133
0.357593
0.697553
0.696978
0.706738
0.691004
0.707256
0.690316
0.704778
0.690266
0.691729
0.360095
0.71721
0.361909
0.490345
0.690344
0.336224
0.691077
0.686446
0.352479
0.688891
0.364336
0.333399
0.689754
0.685162
0.708312
0.360747
0.690741
0.737659
0.345196
0.349081
0.692282
0.68998
0.424565
0.337169
0.70193
0.70915
0.366095
0.713011
0.699337
0.73275
0.346834
0.363422
0.333341
0.713715
0.358752
0.692183
0.720004
0.691897
0.690241
0.696093
0.36016
0.689884
0.787953
0.698183
0.675415
0.337694
0.360749
0.348719
0.71874
0.697744
0.453124
0.712859
0.351213
0.698303
0.696224
0.347593
0.689272
0.692309
0.712566
0.348241
0.354059
0.352066
0.697282
0.715003
0.738315
0.510376
0.694899
0.363629
0.718769
1.12637
0.695482
0.347416
0.75773
0.354048
0.687784
0.34657
0.693797
0.68978
0.344543
0.696853
0.51439
1.12648
0.705413
1.12685
0.699731
0.439066
0.691741
0.692669
0.690209
0.693935
0.486845
1.12648
0.35602
0.692914
0.348952
0.357021
0.353518
0.341618
0.365068
0.34874
0.705373
0.429221
0.344656
0.707658
0.697072
0.690332
0.401638
0.70977
0.72225
0.690091
0.329674
0.677197
0.696077
0.352191
0.338531
0.361576
0.714857
0.504931
0.361417
0.676118
0.313594
1.13466
0.500924
0.354665
0.473917
0.714163
0.353515
0.689836
0.347558
0.590036
0.421332
0.697547
0.419997
0.70344
1.12636
0.685135
0.483559
0.361016
0.699883
0.70981
0.339202
0.334968
0.68665
0.357932
0.718599
0.349057
0.534925
0.347922
0.696545
0.346252
0.707991
0.356517
0.695283
0.69566
0.69952
1.12835
0.35595
0.341331
0.398108
0.692247
0.70254
0.689585
0.647601
0.350843
0.700915
0.35359
0.69
0.683034
0.427615
0.364403
0.70439
0.69334
0.341097
1.04786
0.702965
0.700513
0.717877
0.348285
0.719327
0.362687
0.700125
0.359033
0.669004
0.69062
0.700711
0.707235
0.370054
0.70822
0.362498
0.351194
0.687581
1.12978
0.600062
0.694292
1.12661
0.364259
0.718009
0.694738
0.704704
0.335472
0.444298
0.709252
0.351983
0.696201
0.698878
0.691297
0.698562
0.373968
0.464049
0.722559
0.344709
0.689909
0.710152
0.485727
0.689825
0.378933
0.687805
0.717873
0.725489
0.690436
0.354505
0.338431
0.694306
0.691789
0.34901
0.374735
0.343764
0.343586
0.345862
0.329758
0.345561
0.366069
0.694379
0.348584
0.34623
0.701537
0.600262
1.12676
0.428876
0.359783
0.694876
0.473239
0.573249
0.712846
0.416145
0.730147
0.717971
0.762062
0.69225
0.341897
0.696979
0.668975
0.341062
0.362
0.430669
0.68591
0.758722
0.708378
0.686778
0.695577
0.693154
0.372596
0.696662
0.680964
0.695987
0.361141
0.696619
0.680066
0.369498
0.446516
0.357229
0.339047
0.34829
0.643086
0.710055
0.695395
0.361072
0.449277
0.699215
0.325166
0.698832
0.692707
0.691411
0.725012
0.694703
0.350713
0.339158
0.293903
0.63187
0.356968
0.693893
0.296811
0.690852
0.6871
0.695128
0.349665
0.46229
0.436476
0.69569
0.336041
0.361571
0.690414
0.692048
0.695488
0.686906
0.693208
0.717407
0.365648
0.758768
0.69901
0.520257
0.695429
0.699141
0.711872
0.471487
0.450663
0.705245
0.49849
0.69758
0.363328
0.690003
0.691057
0.394977
0.358821
0.693272
0.502916
0.700051
0.698863
0.365801
0.35683
1.12518
0.4794
0.409693
0.690788
0.691953
0.3565
0.691685
1.11721
0.68954
0.366519
0.643172
0.364565
0.690487
0.699023
0.715737
0.695745
1.10578
0.383315
0.388436
0.697087
0.358664
0.787668
0.365081
0.695063
0.350477
0.710771
0.699201
1.12869
0.36631
1.12688
1.13168
0.360642
0.690217
0.324519
0.706963
0.364987
0.349373
0.342416
0.699813
0.691199
0.411075
0.39232
0.690016
0.704787
0.46342
0.720163
0.364855
0.563383
0.358741
0.696162
0.360793
0.706398
0.690225
0.344216
0.469231