# vtk DataFile Version 1.0
unstructured grid
ascii
DATASET UNSTRUCTURED_GRID
points 13672 float
0.0796578 -0.059106 0
0.00128732 0.00159165 0
0.00227961 -0.00102548 0
0.0791586 -0.0598787 0
-0.0546216 0.01 0
0.000495206 0.025 0
0.0800549 -0.035 0
0.135172 -0.08 0
-0.0546216 -0.0451168 0
0.000495206 -0.0301168 0
0.0800549 -0.0901168 0
0.135172 -0.135117 0
-0.0546216 -0.0451168 -0.00551168
0.000495206 -0.0301168 -0.00551168
0.0800549 -0.0901168 -0.00551168
0.135172 -0.135117 -0.00551168
0.135172 -0.08 -0.00551168
0.0800549 -0.035 -0.00551168
0.000495206 0.025 -0.00551168
-0.0546216 0.01 -0.00551168
0.00128732 0.00159165 -0.00551168
0.00227961 -0.00102548 -0.00551168
0.0791586 -0.0598787 -0.00551168
0.0796578 -0.059106 -0.00551168
0.00165953 -0.000990923 0
0.00119576 -0.000874076 0
0.000866021 -0.000641801 0
0.000645147 -0.000349912 0
0.00052235 -1.7281e-05 0
0.00049972 0.000348016 0
0.000601632 0.000737716 0
0.000861774 0.0011403 0
0.00157235 0.00183217 0
0.00188647 0.00206725 0
0.00222612 0.00230203 0
0.00258713 0.00254351 0
0.00296826 0.00279524 0
0.00337118 0.00305664 0
0.00379785 0.00332658 0
0.00425045 0.00360349 0
0.00473139 0.00388521 0
0.0052432 0.00416895 0
0.0057881 0.00445204 0
0.00636753 0.00473281 0
0.00698281 0.00500961 0
0.00763526 0.00528058 0
0.00832616 0.00554366 0
0.00905691 0.00579603 0
0.00982918 0.00603333 0
0.0106445 0.00625033 0
0.0115038 0.00644128 0
0.0124073 0.00660297 0
0.0133543 0.00673414 0
0.0143444 0.00683382 0
0.0153769 0.00690031 0
0.0164512 0.00693173 0
0.0175666 0.00692547 0
0.0187219 0.00687822 0
0.0199156 0.00678477 0
0.0211454 0.00663864 0
0.0224084 0.00643275 0
0.0237018 0.00616676 0
0.0250249 0.00584739 0
0.026375 0.00547298 0
0.0277479 0.00503752 0
0.0291386 0.00453545 0
0.0305433 0.0039653 0
0.0319572 0.0033256 0
0.0333681 0.00260019 0
0.034775 0.00179799 0
0.0361793 0.000930615 0
0.0375798 3.12222e-06 0
0.0389689 -0.000988429 0
0.0403357 -0.00205109 0
0.041675 -0.00318283 0
0.0429849 -0.00437751 0
0.0442643 -0.00562904 0
0.0455126 -0.00693089 0
0.0467314 -0.00827518 0
0.0479204 -0.00965638 0
0.0490661 -0.0110799 0
0.0501515 -0.0125519 0
0.0511696 -0.0140695 0
0.0521492 -0.0156071 0
0.0531202 -0.0171411 0
0.0540851 -0.0186663 0
0.0550431 -0.0201798 0
0.0559923 -0.0216793 0
0.0569311 -0.0231626 0
0.0578582 -0.0246273 0
0.0587723 -0.0260715 0
0.0596721 -0.027493 0
0.0605563 -0.02889 0
0.0614241 -0.0302609 0
0.0622742 -0.0316042 0
0.063106 -0.0329183 0
0.0639186 -0.034202 0
0.0647113 -0.0354543 0
0.0654835 -0.0366743 0
0.0662345 -0.0378613 0
0.0669642 -0.0390145 0
0.0676726 -0.0401333 0
0.0683597 -0.0412172 0
0.0690246 -0.0422665 0
0.0696662 -0.0432819 0
0.0702841 -0.0442636 0
0.0708793 -0.0452111 0
0.0714538 -0.0461237 0
0.072009 -0.047001 0
0.0725452 -0.0478434 0
0.0730611 -0.0486524 0
0.073556 -0.0494294 0
0.0740291 -0.0501756 0
0.0744812 -0.0508916 0
0.0749138 -0.0515773 0
0.0753285 -0.0522331 0
0.0757266 -0.0528592 0
0.076109 -0.0534564 0
0.0764753 -0.0540264 0
0.0768243 -0.054571 0
0.0771553 -0.0550919 0
0.0774679 -0.0555901 0
0.0777617 -0.0560669 0
0.0780369 -0.056523 0
0.0782958 -0.0569578 0
0.0785421 -0.0573703 0
0.0787786 -0.0577603 0
0.0790073 -0.0581279 0
0.0792295 -0.058474 0
0.0794462 -0.0587995 0
0.0798803 -0.0594162 0
0.0800272 -0.0596588 0
0.0800357 -0.0598891 0
0.0799275 -0.0600784 0
0.0797205 -0.0601773 0
0.0794593 -0.0601051 0
0.0789155 -0.0596491 0
0.0786707 -0.0593963 0
0.0784111 -0.0591319 0
0.0781372 -0.0588542 0
0.0778566 -0.0585548 0
0.0775715 -0.0582308 0
0.0772803 -0.0578828 0
0.0769832 -0.0575099 0
0.0766822 -0.0571097 0
0.0763801 -0.0566796 0
0.0760759 -0.0562196 0
0.0757623 -0.0557337 0
0.0754359 -0.0552232 0
0.0750951 -0.0546879 0
0.0747379 -0.054128 0
0.0743626 -0.0535435 0
0.0739688 -0.0529338 0
0.0735559 -0.0522981 0
0.0731238 -0.0516357 0
0.0726718 -0.050946 0
0.0721991 -0.0502288 0
0.0717046 -0.049484 0
0.0711872 -0.0487117 0
0.0706461 -0.047912 0
0.0700804 -0.0470849 0
0.0694892 -0.0462308 0
0.0688718 -0.0453499 0
0.0682271 -0.0444431 0
0.0675544 -0.043511 0
0.0668527 -0.0425546 0
0.0661215 -0.0415748 0
0.06536 -0.040573 0
0.0645676 -0.0395504 0
0.0637439 -0.0385087 0
0.0628887 -0.0374493 0
0.062002 -0.0363741 0
0.0610838 -0.0352847 0
0.0601345 -0.0341831 0
0.0591547 -0.033071 0
0.0581456 -0.0319502 0
0.0571083 -0.0308224 0
0.0560444 -0.0296893 0
0.0549562 -0.028552 0
0.053845 -0.0274126 0
0.0527113 -0.0262746 0
0.051554 -0.0251427 0
0.0503724 -0.0240222 0
0.0491675 -0.0229164 0
0.047941 -0.0218282 0
0.0466955 -0.0207597 0
0.0454337 -0.0197126 0
0.0441592 -0.0186878 0
0.0428751 -0.0176863 0
0.0415841 -0.0167097 0
0.0402878 -0.0157609 0
0.0389879 -0.0148428 0
0.0376864 -0.0139575 0
0.0363853 -0.013107 0
0.0350871 -0.0122931 0
0.0337942 -0.0115164 0
0.0325095 -0.0107772 0
0.0312357 -0.0100756 0
0.0299758 -0.00941024 0
0.0287337 -0.00877784 0
0.0275126 -0.00817571 0
0.0263139 -0.00760375 0
0.0251376 -0.00706528 0
0.0239829 -0.0065649 0
0.0228537 -0.00609619 0
0.0217522 -0.00565563 0
0.0206795 -0.00524226 0
0.0196364 -0.00485507 0
0.0186233 -0.00449318 0
0.0176408 -0.00415577 0
0.016689 -0.00384204 0
0.0157682 -0.00355115 0
0.0148783 -0.00328218 0
0.0140192 -0.00303468 0
0.0131906 -0.00280795 0
0.0123925 -0.00260016 0
0.0116246 -0.00241012 0
0.0108864 -0.00223769 0
0.0101774 -0.00208212 0
0.00949701 -0.00194206 0
0.00884483 -0.0018163 0
0.0082202 -0.0017039 0
0.00762247 -0.00160391 0
0.00705097 -0.00151528 0
0.006505 -0.00143697 0
0.0059838 -0.00136806 0
0.00548662 -0.00130772 0
0.00501265 -0.00125519 0
0.00456114 -0.00120954 0
0.00413136 -0.00116914 0
0.00372257 -0.00113251 0
0.00333398 -0.00109853 0
0.00296466 -0.00106798 0
0.00261363 -0.0010431 0
-0.052721 -0.0445996 0
-0.0508204 -0.0440823 0
-0.0489199 -0.0435651 0
-0.0470193 -0.0430478 0
-0.0451187 -0.0425306 0
-0.0432181 -0.0420134 0
-0.0413175 -0.0414961 0
-0.039417 -0.0409789 0
-0.0375164 -0.0404616 0
-0.0356158 -0.0399444 0
-0.0337152 -0.0394271 0
-0.0318146 -0.0389099 0
-0.0299141 -0.0383927 0
-0.0280135 -0.0378754 0
-0.0261129 -0.0373582 0
-0.0242123 -0.0368409 0
-0.0223117 -0.0363237 0
-0.0204112 -0.0358065 0
-0.0185106 -0.0352892 0
-0.01661 -0.034772 0
-0.0147094 -0.0342547 0
-0.0128088 -0.0337375 0
-0.0109083 -0.0332202 0
-0.00900769 -0.032703 0
-0.00710711 -0.0321858 0
-0.00520653 -0.0316685 0
-0.00330595 -0.0311513 0
-0.00140537 -0.030634 0
0.00190689 -0.0299614 0
0.00332271 -0.0298498 0
0.00474133 -0.0297825 0
0.00616136 -0.0297597 0
0.0075814 -0.0297814 0
0.00900007 -0.0298477 0
0.010416 -0.0299583 0
0.0118278 -0.0301127 0
0.0132342 -0.0303103 0
0.0146339 -0.0305504 0
0.0160259 -0.0308322 0
0.0174091 -0.0311546 0
0.0187824 -0.0315166 0
0.020145 -0.031917 0
0.0214961 -0.0323546 0
0.0228351 -0.032828 0
0.0241613 -0.0333361 0
0.0254744 -0.0338774 0
0.0267738 -0.0344507 0
0.0280592 -0.0350545 0
0.0293306 -0.0356877 0
0.0305875 -0.0363488 0
0.0318301 -0.0370367 0
0.0330581 -0.0377501 0
0.0342717 -0.0384879 0
0.0354708 -0.0392489 0
0.0366556 -0.0400321 0
0.0378262 -0.0408363 0
0.0389828 -0.0416607 0
0.0401254 -0.0425042 0
0.0412543 -0.0433659 0
0.0423698 -0.0442451 0
0.043472 -0.0451408 0
0.0445612 -0.0460523 0
0.0456375 -0.0469789 0
0.0467013 -0.0479199 0
0.0477529 -0.0488746 0
0.0487923 -0.0498424 0
0.04982 -0.0508227 0
0.0508362 -0.051815 0
0.051841 -0.0528187 0
0.0528348 -0.0538333 0
0.0538178 -0.0548584 0
0.0547903 -0.0558935 0
0.0557524 -0.0569382 0
0.0567045 -0.0579922 0
0.0576467 -0.0590549 0
0.0585792 -0.0601261 0
0.0595024 -0.0612055 0
0.0604163 -0.0622926 0
0.0613212 -0.0633873 0
0.0622174 -0.0644891 0
0.0631049 -0.0655979 0
0.0639841 -0.0667134 0
0.064855 -0.0678353 0
0.0657179 -0.0689633 0
0.0665729 -0.0700974 0
0.0674202 -0.0712372 0
0.06826 -0.0723826 0
0.0690925 -0.0735333 0
0.0699178 -0.0746892 0
0.070736 -0.0758501 0
0.0715473 -0.0770159 0
0.0723518 -0.0781863 0
0.0731498 -0.0793612 0
0.0739412 -0.0805405 0
0.0747264 -0.081724 0
0.0755053 -0.0829116 0
0.0762781 -0.0841033 0
0.0770449 -0.0852987 0
0.0778059 -0.0864979 0
0.0785611 -0.0877007 0
0.0793108 -0.088907 0
0.0814681 -0.0912706 0
0.0828814 -0.0924245 0
0.0842946 -0.0935783 0
0.0857079 -0.0947322 0
0.0871211 -0.095886 0
0.0885344 -0.0970399 0
0.0899476 -0.0981937 0
0.0913609 -0.0993476 0
0.0927741 -0.100501 0
0.0941874 -0.101655 0
0.0956006 -0.102809 0
0.0970139 -0.103963 0
0.0984272 -0.105117 0
0.0998404 -0.106271 0
0.101254 -0.107424 0
0.102667 -0.108578 0
0.10408 -0.109732 0
0.105493 -0.110886 0
0.106907 -0.11204 0
0.10832 -0.113194 0
0.109733 -0.114348 0
0.111146 -0.115501 0
0.11256 -0.116655 0
0.113973 -0.117809 0
0.115386 -0.118963 0
0.116799 -0.120117 0
0.118213 -0.121271 0
0.119626 -0.122424 0
0.121039 -0.123578 0
0.122452 -0.124732 0
0.123866 -0.125886 0
0.125279 -0.12704 0
0.126692 -0.128194 0
0.128105 -0.129348 0
0.129519 -0.130501 0
0.130932 -0.131655 0
0.132345 -0.132809 0
0.133758 -0.133963 0
0.135172 -0.133216 0
0.135172 -0.131316 0
0.135172 -0.129415 0
0.135172 -0.127514 0
0.135172 -0.125614 0
0.135172 -0.123713 0
0.135172 -0.121813 0
0.135172 -0.119912 0
0.135172 -0.118012 0
0.135172 -0.116111 0
0.135172 -0.11421 0
0.135172 -0.11231 0
0.135172 -0.110409 0
0.135172 -0.108509 0
0.135172 -0.106608 0
0.135172 -0.104708 0
0.135172 -0.102807 0
0.135172 -0.100906 0
0.135172 -0.0990058 0
0.135172 -0.0971052 0
0.135172 -0.0952046 0
0.135172 -0.0933041 0
0.135172 -0.0914035 0
0.135172 -0.0895029 0
0.135172 -0.0876023 0
0.135172 -0.0857017 0
0.135172 -0.0838012 0
0.135172 -0.0819006 0
0.133758 -0.0788462 0
0.132345 -0.0776923 0
0.130932 -0.0765385 0
0.129519 -0.0753846 0
0.128105 -0.0742308 0
0.126692 -0.0730769 0
0.125279 -0.0719231 0
0.123866 -0.0707692 0
0.122452 -0.0696154 0
0.121039 -0.0684615 0
0.119626 -0.0673077 0
0.118213 -0.0661538 0
0.116799 -0.065 0
0.115386 -0.0638462 0
0.113973 -0.0626923 0
0.11256 -0.0615385 0
0.111146 -0.0603846 0
0.109733 -0.0592308 0
0.10832 -0.0580769 0
0.106907 -0.0569231 0
0.105493 -0.0557692 0
0.10408 -0.0546154 0
0.102667 -0.0534615 0
0.101254 -0.0523077 0
0.0998404 -0.0511538 0
0.0984272 -0.05 0
0.0970139 -0.0488462 0
0.0956006 -0.0476923 0
[...]
CELL_DATA 13116
SCALARS rho float
LOOKUP_TABLE default
0.5977
0.5977
0.587466
0.631897
0.595458
0.680751
0.421047
0.677839
0.5977
0.597703
0.388234
0.595401
0.59404
0.51859
0.54184
0.680647
0.5977
0.5977
0.68098
0.379781
0.5977
0.593092
0.571479
0.5977
0.5977
0.584823
0.597703
0.597698
0.5977
0.5977
0.680113
0.588674
0.5977
0.5977
0.430149
0.5977
0.5977
0.680264
0.681079
0.681331
0.680956
0.675785
0.5977
0.55758
0.680775
0.681288
0.5977
0.680996
0.580862
0.5977
0.680099
0.5977
0.462804
0.5977
0.5977
0.5977
0.554371
0.5977
0.5977
0.563325
0.523417
0.593018
0.5977
0.68111
0.680667
0.48867
0.680599
0.5977
0.681014
0.68088
0.540862
0.5977
0.596055
0.527445
0.688993
0.496374
0.5977
0.675472
0.395043
0.5977
0.5977
0.590074
0.5977
0.681065
0.680467
0.5977
0.439617
0.5977
0.679928
0.367478
0.597587
0.597701
0.5977
0.679463
0.5977
0.5977
0.5977
0.666044
0.663681
0.5977
0.5977
0.5977
0.680881
0.5977
0.5977
0.577282
0.597699
0.5977
0.597679
0.5977
0.5977
0.597544
0.5977
0.5977
0.5977
0.680899
0.469984
0.5977
0.680727
0.680991
0.5977
0.597715
0.681119
0.597522
0.678606
0.5977
0.448282
0.5977
0.587553
0.5977
0.680807
0.596545
0.5977
0.585579
0.5977
0.5977
1.12699
0.680719
0.5977
0.680924
0.5977
0.5977
0.5977
0.5977
0.5977
0.54185
0.42639
0.595203
0.597704
0.680712
0.5977
0.680893
0.681038
0.445235
0.597702
0.681387
0.589516
0.5977
0.669119
0.5977
0.5977
0.388928
0.5977
0.590079
0.597712
0.597994
0.674369
0.5977
0.426721
0.5977
0.5977
1.12634
0.537536
0.5977
0.680692
0.571941
0.56065
0.595325
0.597693
0.681156
0.369639
0.5977
0.5977
0.5977
0.6812
0.5977
0.444321
0.680697
0.5977
0.5977
0.5977
0.596518
0.680606
0.597714
0.597701
0.680444
0.5977
0.680549
0.67849
0.5977
0.5977
0.5977
0.5977
0.536832
0.597529
0.679564
0.5977
0.5977
0.551925
0.371187
0.492005
0.680837
0.596518
0.368105
0.36763
0.452134
0.5977
0.680829
0.675799
0.597699
0.544563
0.680398
0.5977
0.368965
0.5977
0.597446
0.5977
0.5977
0.680867
0.597699
0.707245
0.590672
0.680761
0.5977
0.657303
0.681381
0.680682
0.589747
0.5977
0.5977
0.757438
0.680279
1.12546
0.680785
0.678781
0.567065
0.681178
0.597704
0.664358
0.407206
0.58498
0.68086
0.68079
0.680751
0.680447
0.5977
0.5977
0.384206
0.597508
0.5977
0.548995
0.5977
0.5977
0.5977
0.415431
0.680796
0.463217
0.5977
0.5977
0.406004
0.590869
0.679466
0.924758
0.5977
0.58727
0.985906
0.5977
0.666816
0.68086
0.385879
0.427895
0.597715
0.5977
0.597711
0.596878
0.597705
0.597708
0.654419
0.475266
0.681359
0.620647
0.429044
0.37657
0.456064
0.5977
0.597714
0.5977
0.5977
0.597702
0.400833
0.680736
0.5977
0.597717
0.56187
0.680592
0.681014
0.68076
0.451104
0.68076
0.5977
0.594919
0.676133
0.680584
0.677237
0.597711
0.680825
0.514757
0.680627
0.597704
0.5977
0.367496
0.597707
0.597704
0.456646
0.597331
0.591862
0.5977
0.5977
0.5977
0.441041
0.681184
0.5977
0.513136
0.681096
0.597699
0.5977
0.67788
0.597699
0.5977
0.414924
0.5977
0.597707
0.68086
0.5977
0.5977
0.597699
0.597698
0.681135
0.440336
0.59049
0.5977
0.5977
1.12612
0.440536
0.577966
0.671709
0.5977
0.5977
0.435886
0.592011
0.681222
0.607888
0.418643
0.67837
0.490401
0.582113
0.681127
0.677161
0.5977
0.367887
0.681134
0.680065
0.680763
0.681424
0.5977
0.5977
0.5977
0.53688
0.369881
0.680793
0.36881
0.5977
0.5977
0.597722
0.597698
0.5977
0.597717
0.433347
0.680098
0.597663
0.5977
0.5977
0.680468
0.5977
0.681261
0.582602
0.423914
0.5977
0.5977
0.589845
0.5977
0.681004
0.5977
0.5977
0.5977
0.592094
0.5977
0.5977
0.5977
0.5977
0.680805
0.5977
0.5977
0.5977
0.584458
0.5977
0.5977
0.459683
0.680902
0.900348
0.597707
0.370257
0.367478
0.431759
0.5977
0.48704
0.597714
0.680584
0.48733
0.5977
0.367514
0.68032
0.5977
0.597699
0.585916
0.661977
0.5977
0.368195
0.430874
0.36802
0.597709
0.424773
0.368949
0.597714
0.5977
0.368947
0.5977
0.597699
0.679998
0.5977
0.596964
0.5977
0.547012
0.367513
0.550611
0.680825
0.5977
0.5977
0.5977
0.479825
0.5977
0.680882
0.5977
0.5977
0.5977
0.5977
0.422659
0.66566
0.5977
0.5977
0.676361
0.597712
0.471368
0.5977
0.5977
0.597699
0.5977
0.597698
0.5977
0.5977
0.37675
0.554589
0.519817
0.5977
0.556521
0.493944
0.53687
0.511115
0.626463
0.586555
0.5977
0.5977
0.5977
0.597702
0.597699
0.477487
0.5977
0.597708
0.673233
0.597712
0.597699
0.5977
0.680412
0.665873
0.5977
0.5977
0.464321
0.5977
0.678184
0.680906
0.5977
0.5977
0.5977
0.367917
0.5977
0.5977
0.5977
0.5977
0.597714
0.5977
0.5977
0.5977
0.597703
0.651273
0.584135
0.5977
0.5977
0.6805
0.367943
0.680352
0.597706
0.561022
0.368001
0.586637
0.68029
0.597707
0.679947
0.5977
0.36755
0.680793
0.681017
0.5977
0.597699
0.470741
0.66894
0.367996
0.367736
0.559637
0.36776
0.639362
0.504067
0.590202
0.5977
0.5977
0.680894
0.681132
0.587921
0.36803
0.370147
0.680824
0.710927
0.5977
0.614794
0.597703
0.5977
0.434607
0.597699
0.680562
0.5977
0.367522
0.5977
0.597724
0.679572
0.680142
0.597702
0.596095
0.679694
0.5977
0.680796
0.5977
0.581597
0.597698
0.5977
0.819382
0.592885
0.65994
0.673577
0.680657
0.478524
1.12223
0.542093
0.66678
0.5977
0.367871
0.5977
0.597364
0.663352
0.597711
0.412461
0.5977
0.680746
0.597701
0.407531
0.596988
0.367976
0.680828
0.597474
0.680499
0.53767
0.5977
0.597654
0.5977
0.585693
0.576516
0.5977
0.597698
0.595122
0.464648
0.497133
0.680649
0.494937
0.68084
0.597702
0.660612
0.367901
0.676839
0.5977
0.5977
0.680552
0.674643
0.681107
0.568472
0.680935
0.597699
0.653309
0.388275
0.67921
0.5977
0.437382
0.680713
0.597702
0.448848
0.5977
0.59744
0.535392
0.680652
0.680763
0.597731
0.551739
0.400362
0.569439
0.67782
0.5977
0.472126
0.386072
0.593883
0.680941
0.5977
0.5977
0.680382
0.385401
0.5977
0.5977
0.680472
0.5977
0.5977
0.5977
0.680606
0.5977
0.5977
0.597699
0.5977
0.680637
0.5977
0.5977
0.5977
0.539588
0.5977
0.597702
0.597699
0.5977
0.5977
0.5977
0.680972
0.5977
0.597709
0.681158
0.5977
0.588946
0.5977
0.597716
0.672687
0.526639
0.680864
0.5977
0.597699
0.680687
0.5977
0.598538
0.5977
0.5977
0.5977
0.597708
0.5977
0.597681
0.524457
1.12674
0.5977
0.68084
0.597704
0.367644
0.597705
0.5977
0.597616
0.646377
0.679334
0.369722
0.5977
0.597704
0.376074
0.597722
0.680691
0.680993
0.678679
0.575668
0.5977
0.5977
0.5977
0.597702
0.680983
0.596796
0.367454
0.595602
0.680715
0.5977
0.680804
0.68095
0.597699
0.5977
0.372183
0.5977
0.597704
0.5977
0.5977
0.68102
0.681075
0.5977
0.5977
0.5977
0.5977
0.367897
0.367843
0.41244
0.36846
0.5977
0.5977
0.68092
0.597705
0.371717
0.681093
0.5977
0.50869
0.597703
0.5977
0.5977
0.680564
0.681222
0.5977
0.369201
0.367912
1.11852
0.597119
0.368038
0.471517
0.680774
0.5977
0.367759
0.5977
0.678401
0.597702
0.680785
0.681211
0.473175
0.514335
0.404949
0.5977
0.5977
0.59396
0.5977
0.5977
0.631165
0.680697
0.5817
0.367757
0.597704
0.367546
0.680792
0.5977
0.674556
0.597731
0.367943
0.626491
0.680132
0.5977
0.508114
0.680514
0.680795
0.5977
0.680719
0.679958
1.0924
0.5977
0.36883
0.681218
0.68062
0.5977
0.5977
1.12687
0.597365
1.06885
0.680899
0.493827
0.529473
0.367701
0.680201
0.5977
0.36762
0.5977
0.596867
0.593923
0.5977
0.5977
0.5977
0.5977
0.586667
0.596112
0.5977
0.367653
0.5977
0.680285
0.559894
0.679438
0.50219
0.573747
0.5977
0.5977
0.5977
0.68086
0.420208
0.5977
0.549362
0.586529
0.680763
0.367458
0.5977
0.597718
0.5977
0.5977
1.08032
0.67176
0.535283
0.503563
0.5977
0.5977
0.622474
0.5977
0.5977
0.680741
0.5977
0.5977
0.5977
0.597702
0.5977
0.680611
0.597705
0.36777
0.5977
0.597702
0.5977
0.5977
0.680848
0.5977
0.5977
0.597726
0.5977
0.5977
1.12195
0.663792
0.5977
0.5977
0.680661
0.5977
0.594948
0.5977
0.5977
0.680743
0.68138
0.59771
0.71261
0.588673
0.541431
0.579894
0.452706
1.12677
0.387665
0.5977
0.5977
0.5977
0.597715
0.680147
0.536098
0.5977
0.680569
0.680693
0.5977
0.68077
0.5977
0.5977
0.5977
0.65292
0.530948
0.680695
0.681048
0.5977
0.96194
0.5977
0.597712
0.53955
0.565103
0.68081
0.367705
0.982851
0.405061
0.67831
0.475603
0.5977
0.56897
0.5977
0.679705
0.5977
0.597716
0.5977
0.680862
0.37412
0.5977
0.586615
0.592363
0.5977
0.674938
0.59762
0.680979
0.5977
0.5977
0.602146
0.680642
0.5977
0.367756
0.5977
0.680884
1.12399
0.823526
1.12507
0.5977
0.5966
0.5977
0.680394
0.367642
0.540468
1.12436
0.594589
0.68065
0.497606
0.680692
0.5977
0.5977
0.526002
0.597699
0.676448
0.692139
0.5977
0.5977
0.681195
0.832321
0.417459
0.5977
0.5977
0.419614
0.596532
0.51803
0.597701
0.597666
0.367896
0.68152
0.5977
0.5977
0.5977
0.43019
0.429915
0.658586
0.532477
0.487912
0.680017
0.593685
0.5977
0.5977
0.67708
0.660485
0.371028
0.5977
0.393294
0.597698
0.580739
0.669779
0.491339
0.597703
0.675762
0.68057
0.5977
0.597704
0.597702
0.680566
0.587668
0.678782
0.497881
0.385912
0.5977
0.680498
0.5977
0.597701
0.5977
0.6806
0.5977
0.597699
0.681126
0.590846
0.672819
0.413848
0.596695
0.597713
0.681168
0.5977
0.5977
0.680603
0.588069
0.591852
0.367669
0.5977
0.5977
0.478801
0.5977
1.12679
0.679003
0.437886
0.680658
0.368222
0.597729
0.597724
0.367713
0.5977
0.543027
0.5977
0.680754
0.5977
0.597713
0.5977
0.5977
0.5977
0.5977
0.367887
0.466165
0.413318
0.56554
0.597716
0.5977
0.594495
0.597699
0.68074
0.5977
0.513463
0.593289
0.5977
0.680764
0.396965
0.703467
0.5977
0.597701
0.680183
0.555898
0.639071
0.597703
0.595901
0.5977
0.680866
0.597373
0.597722
0.680862
0.5977
0.367981
0.680695
0.590179
0.5977
0.5977
0.663541
0.676251
0.597597
0.597701
0.5977
0.414239
0.5977
0.588706
0.597701
0.68096
0.5977
0.597731
0.592419
0.56003
0.5977
0.610527
0.668689
0.614058
0.407341
0.597715
0.597704
0.597706
0.672845
0.5977
0.5977
0.597711
0.680902
0.597682
0.680583
0.667223
0.5977
0.597714
0.535221
0.5977
0.5977
0.5977
0.5977
0.680632
0.5977
0.680641
1.12682
0.597701
0.442665
0.597713
0.674727
0.680731
0.5977
0.5977
0.528559
0.5977
0.532072
0.680204
0.5977
0.5977
0.589486
0.373161
0.662529
0.589201
0.597704
0.583096
0.68066
0.681147
0.594145
0.679494
0.5977
0.597246
0.68075
0.681364
0.5977
0.541685
0.5977
0.5977
0.5977
0.5977
0.597699
0.5977
0.597701
0.680614
0.597715
0.5977
0.593147
0.5977
0.680956
0.680771
0.597712
0.680354
0.672335
0.580843
0.5977
0.418519
0.5977
0.429117
0.574522
0.5977
0.36784
0.367959
0.528979
0.680432
0.597681
0.5977
0.680995
0.5977
0.5977
0.367678
0.597571
0.5977
0.680643
0.68079
0.5977
0.680843
0.5977
0.681113
0.680888
0.597715
0.5977
0.5977
0.5977
0.597701
0.5977
0.5977
0.592842
0.374505
0.5977
0.5977
0.680919
0.495844
0.597715
0.5977
0.680704
0.373704
0.680758
0.5977
1.12696
0.679779
0.684919
0.367954
0.595164
0.368269
0.595121
0.678641
0.5977
0.676607
0.680099
0.586468
0.436581
0.39794
0.597701
0.680932
0.5977
0.677612
0.486936
0.437108
0.504597
0.681604
0.5977
0.593193
0.676796
0.5977
0.680773
0.679321
0.5977
0.5977
0.5977
0.597297
0.371702
0.689991
0.70897
0.505192
0.5977
0.597701
0.5977
0.597712
0.5977
0.5977
0.597713
0.5977
0.5977
0.368144
0.680904
0.5977
0.36768
0.665074
0.481511
0.680546
0.5977
0.597687
0.537334
0.5977
0.5977
0.59771
0.597699
0.681035
0.597704
0.680687
0.680533
0.592533
0.5977
0.5977
0.680385
0.5977
0.680673
0.597699
0.680813
0.566829
0.531021
0.678741
0.680585
0.680949
0.597715
0.680792
0.5977
0.699338
0.473431
0.487616
0.368127
0.681238
0.411557
0.494416
0.582743
0.5977
0.489158
0.59771
0.5977
0.676073
0.367881
0.680881
0.681001
0.681452
0.445032
0.680624
0.5977
0.680872
0.597699
0.5977
0.43185
0.374064
0.680812
0.373883
0.5977
0.5977
1.10555
0.368084
0.597707
0.442813
0.5977
1.12651
0.597714
0.680237
0.680442
0.5977
0.367768
0.555626
0.597705
0.5977
0.367933
1.1268
0.5977
0.68094
0.680784
0.383289
0.5977
0.572515
0.5977
0.5977
0.597703
0.5977
0.5977
0.5977
0.5977
0.673458
0.402491
0.5977
0.498331
0.5977
0.5977
0.671246
0.368072
0.5977
0.5977
0.680734
0.680709
0.371809
0.681402
0.5977
0.5977
0.5977
0.597713
0.370404
0.597711
0.680583
0.680798
0.5977
0.597702
0.597703
0.677997
0.5977
0.680575
0.680686
0.679448
0.592233
0.681109
0.5977
0.5977
0.597698
0.681094
0.681241
0.681064
0.680779
0.680536
0.5977
0.367957
0.588737
0.5977
0.36802
0.5977
0.681117
0.519883
0.5977
0.681113
0.5977
0.676868
0.597699
0.68103
0.597726
0.522327
0.681129
0.591853
0.680725
0.457474
0.680265
0.680834
0.5977
0.680976
0.582627
0.680958
0.597704
0.5977
0.5977
0.5977
0.383649
0.676708
0.490529
0.367977
0.5977
0.5977
0.596426
0.5977
0.680889
0.574064
0.680904
0.5977
0.52783
0.613336
0.5977
0.367551
0.680822
0.595485
0.5977
0.5977
0.5977
0.668721
0.5977
0.5977
0.5977
0.680802
0.5977
0.597702
0.5977
0.713528
0.597702
0.5977
0.575608
0.392812
0.5977
0.680913
0.597713
0.5977
0.680603
0.5977
0.680715
0.5977
0.5977
0.5977
0.398273
0.680523
0.5977
0.5977
0.5977
0.597358
0.611636
0.680795
0.36784
0.508558
0.632449
0.5977
0.5977
0.680796
0.680874
0.68062
0.5977
0.5977
0.5977
0.5977
0.597704
0.513637
0.597632
0.502611
0.597699
0.97124
0.5977
0.5977
0.592166
0.5977
0.597636
0.675294
0.63346
0.46578
0.5977
0.840536
0.681096
0.597698
0.578437
0.561851
1.12689
0.586675
0.5977
0.44132
0.36813
0.587884
0.5977
0.367938
0.706187
0.680766
0.5977
0.406237
0.597701
0.5977
0.5977
0.597701
0.374812
0.59815
1.12608
0.367631
0.68054
0.367655
0.5977
0.597705
0.681364
0.409508
0.650436
0.674403
0.436311
0.5977
0.597714
0.594167
0.594907
0.5977
0.582924
0.5977
0.429075
0.5977
0.37159
0.680776
0.680645
0.5977
0.597704
0.597699
0.596882
0.680934
0.679038
0.5977
0.5977
0.372485
0.5977
0.500289
0.5977
0.597714
0.587378
0.5977
0.5977
0.597203
0.5977
0.5977
0.529972
0.514628
0.511799
0.5977
0.5977
0.68067
0.397111
0.594467
0.680725
0.597699
0.597105
0.5977
0.5977
0.367791
0.586598
0.675314
0.5977
0.5977
0.558547
0.5977
0.680635
0.590184
0.597707
0.680547
0.681212
0.5977
0.5977
0.597699
0.5977
0.438409
0.67875
0.5977
0.5977
0.5977
0.55819
0.5977
0.376913
0.680645
0.637778
0.368886
0.597682
0.5977
0.5977
0.613259
0.597701
0.5977
0.680339
0.588074
0.461764
0.589834
0.505572
0.383178
0.5977
0.676367
0.5977
0.372193
0.36794
0.5977
0.595533
0.680472
0.5977
0.367632
0.597702
0.681122
0.592779
0.5977
0.5977
0.597639
0.681132
0.5977
0.367703
0.42228
0.5977
0.368225
0.5977
0.5977
0.680795
0.680615
0.597715
0.368156
1.1258
0.375216
0.680958
0.5977
0.367961
0.545111
0.470919
0.68087
0.475236
1.12689
0.5977
0.5977
0.585281
0.5977
0.667407
0.680507
0.41078
0.669473
0.5977
0.597726
0.680882
0.711875
0.40268
0.367717
0.605686
0.382986
0.383677
0.593308
0.597704
0.680804
0.5977
0.5977
0.5977
0.595578
0.680425
0.680583
0.401986
0.597699
0.5977
0.615203
0.5977
0.594551
0.597698
0.680862
0.67411
0.5977
0.5977
0.5977
0.5977
0.677396
0.592584
0.597702
0.676416
0.680586
1.09506
0.680476
1.12661
0.673637
0.638984
0.68048
1.12507
0.680672
0.597718
0.588938
0.597714
0.681077
0.680994
0.5977
0.597702
0.5977
0.5347
0.44155
0.597707
0.404111
0.597702
0.398286
0.402625
0.5977
0.578937
0.5977
0.432869
0.59292
0.658622
0.367783
0.597699
0.5977
0.680874
0.552183
0.680833
0.594978
0.452401
0.590017
0.5977
0.5977
0.5977
0.590678
0.5977
0.367724
0.680551
0.5977
0.597713
0.68106
0.681077
0.5977
0.367608
0.5977
0.584629
0.597701
0.680737
0.680827
0.367833
0.59703
0.680609
0.597702
0.5977
0.680618
0.367644
0.368063
0.681329
0.5977
0.597703
0.5977
0.367889
0.5977
0.597703
0.597714
0.597718
0.531387
0.5977
0.656905
0.601784
0.515438
0.5977
0.680844
0.5977
0.5977
0.5977
0.5977
0.367997
0.370038
0.681495
0.368027
0.368263
0.680812
0.616081
0.471253
0.5977
0.466331
0.971073
0.597699
0.642033
0.680923
0.5977
0.681042
0.561274
0.371031
0.59761
0.680857
0.640698
0.5977
0.5977
0.5977
0.597713
0.680585
0.397572
0.68087
0.597699
0.6807
0.5977
0.433251
0.571595
0.36769
0.368141
0.588952
0.5977
0.597702
0.406019
0.680682
0.5977
0.597708
0.532768
0.585689
0.367854
0.678567
0.597699
0.5977
0.5977
0.680493
0.667909
0.517081
0.5977
0.68129
0.676649
0.367891
0.5977
0.5977
0.5977
0.680963
0.5977
0.716282
0.59737
0.588595
0.681365
0.677538
0.680979
0.681174
0.36782
0.5977
0.367547
0.5977
0.680651
0.596881
0.673656
0.5977
0.589843
0.597702
0.367818
0.597689
0.679668
0.5977
0.626319
0.37353
0.596815
0.5977
0.597698
0.407401
0.660976
0.680327
0.597699
0.548091
0.5977
0.585925
0.367693
0.5977
0.661321
0.5977
0.458522
0.367667
0.593441
0.5977
0.584839
0.666007
0.5977
0.680599
0.5977
0.678751
0.372455
0.678861
0.5977
0.67445
0.5977
0.597717
0.406463
0.566351
0.5977
0.589108
0.597699
0.5977
0.5977
0.5977
0.681088
0.544794
0.5977
0.673703
0.5977
0.415038
0.424028
0.5977
0.670641
0.597703
0.5977
0.5977
0.681269
0.36771
0.5977
0.841237
0.590033
0.42073
0.5977
0.593733
0.5977
0.578517
0.679655
0.679531
0.551676
0.680486
0.5977
1.12434
0.5977
1.1268
0.680461
0.5977
0.680604
0.681158
0.680525
0.680221
0.5977
0.883757
0.489064
0.681302
0.560501
0.368036
0.577277
0.583791
0.367964
0.412944
0.637713
0.597699
0.501533
0.5977
0.679962
0.597702
0.5977
0.5977
0.5977
0.681005
0.597717
0.5977
0.68091
0.597711
0.562872
0.371605
0.5977
0.5977
0.368003
0.5977
0.584375
0.670363
0.5977
0.456633
0.5977
0.5977
0.5977
0.680291
0.546949
0.5977
0.597699
0.680019
0.5977
0.5977
0.809003
0.5977
0.5977
0.367336
0.676653
0.5888
0.568151
0.59773
0.68081
0.368137
0.5977
0.40553
0.5977
0.563993
0.680288
0.591512
0.59985
0.368558
0.680937
0.680151
0.58828
1.00182
0.486262
0.590295
0.5977
0.584073
0.5977
0.597703
0.5977
0.590832
0.5977
0.5977
0.615991
0.5977
0.5977
0.597712
0.5977
0.679908
0.579134
0.680812
0.675887
0.5977
0.5977
0.551898
0.5977
0.367624
0.597701
0.588484
0.681026
0.590391
0.68604
0.650338
0.59771
0.666724
0.367877
0.408413
0.680887
0.916087
0.5977
0.668404
0.940619
0.367362
0.5977
0.679997
0.678789
0.597729
0.5977
0.5977
0.404835
0.68116
0.6802
0.678076
0.680762
0.597714
0.5977
0.5977
0.561309
0.676438
0.590983
0.5977
0.67905
0.597716
0.5977
0.5977
0.5977
0.679434
0.42441
0.597712
0.680691
0.652036
0.580623
0.597699
0.580154
0.581799
0.499752
0.596679
0.597704
0.368022
0.680458
0.55764
0.459154
0.5977
0.5977
1.12532
0.5977
0.368106
0.680891
0.5977
0.5977
0.597702
0.5977
0.5977
0.680698
0.5977
0.597617
0.547184
0.622179
0.680865
0.470735
0.36845
0.5977
0.5977
0.5977
0.591648
0.68059
0.590149
0.597366
0.5977
0.678853
0.680834
0.662758
0.36779
0.680442
0.5977
0.5977
0.5977
0.469337
0.572653
0.502891
0.5977
0.5977
0.5977
0.368706
0.597699
0.670629
0.59308
0.5977
0.681241
0.67868
0.5977
0.681071
0.597713
0.577955
0.568608
0.5977
0.584129
0.6811
0.568962
0.680777
0.680483
0.681094
0.597699
0.5977
0.5977
0.680577
0.52858
0.374831
0.680715
0.597362
0.5977
0.680721
0.638603
0.5977
0.367703
0.5977
0.597704
0.5977
0.68099
0.597702
0.5977
0.5977
0.597699
0.677932
0.5977
0.5977
0.367656
0.5977
0.67972
0.5977
0.585164
0.5977
0.5977
0.596928
0.597703
0.367842
0.372365
0.674268
0.5977
0.5977
0.681272
0.663226
0.596026
0.681271
0.6743
0.597702
0.367907
0.5977
0.367662
0.680474
0.654639
0.5977
0.5977
0.678955
0.597708
0.5977
0.597703
0.367966
0.5977
0.597714
0.680572
0.533875
0.5977
0.597703
0.672764
0.367771
1.12697
0.686665
0.379631
0.5977
0.589275
0.674883
0.367612
0.422367
0.547617
0.5977
0.680803
0.597708
0.597707
0.594354
0.589374
0.5977
0.5977
0.367878
0.5977
0.367925
0.597703
0.373578
0.5977
0.680696
0.597699
0.5977
0.416175
0.680642
0.48573
0.375381
0.597702
0.597711
0.5977
0.5977
0.545335
0.597641
0.679302
0.671568
0.5977
0.597712
0.5977
0.597723
0.370127
0.662781
0.680954
0.5977
0.368004
0.5977
0.5977
0.597703
0.5977
0.5977
0.5977
0.5977
0.597699
0.59722
0.592885
0.5977
0.682618
0.597709
0.5977
0.367296
0.592524
0.58464
0.368939
0.597397
0.680727
0.594928
0.597701
0.593104
0.597702
0.5977
0.597716
0.559305
0.380623
0.573556
0.368001
0.590903
0.680867
0.378246
0.536177
0.680602
0.597714
0.5977
0.5977
0.5977
0.5977
0.5977
0.5977
0.5977
0.680938
0.680673
0.590202
0.590143
0.5977
0.597701
0.680795
0.597514
0.524173
0.5977
0.5977
0.597717
0.597709
0.368001
0.5977
0.5977
0.5977
0.5977
0.579515
0.597699
0.5977
0.5977
0.388101
0.5977
0.367719
0.5977
0.5977
0.680386
0.642836
0.680334
0.593886
0.575263
1.12619
0.657982
0.5977
0.672309
0.517846
0.475418
0.5977
0.570932
0.597712
0.681131
0.78555
0.5977
0.5977
0.680794
0.597707
1.12594
0.5977
0.5977
0.598595
0.5977
0.5977
1.125
0.597723
0.5977
0.5977
0.5977
0.5977
0.680663
0.849497
0.594378
0.803461
0.684117
0.379619
0.895753
0.680643
0.594383
0.384034
0.367728
0.4757
0.5977
0.368214
0.506822
0.681003
0.597704
0.406488
0.597547
0.680896
0.5977
0.680485
0.5977
1.12245
0.5977
0.58531
0.655339
0.680678
0.680941
0.5977
0.509444
0.598506
0.5977