# vtk DataFile Version 1.0
unstructured grid
ascii
DATASET UNSTRUCTURED_GRID
points 13672 float
0.0796578 -0.059106 0
0.00128732 0.00159165 0
0.00227961 -0.00102548 0
0.0791586 -0.0598787 0
-0.0546216 0.01 0
0.000495206 0.025 0
0.0800549 -0.035 0
0.135172 -0.08 0
-0.0546216 -0.0451168 0
0.000495206 -0.0301168 0
0.0800549 -0.0901168 0
0.135172 -0.135117 0
-0.0546216 -0.0451168 -0.00551168
0.000495206 -0.0301168 -0.00551168
0.0800549 -0.0901168 -0.00551168
0.135172 -0.135117 -0.00551168
0.135172 -0.08 -0.00551168
0.0800549 -0.035 -0.00551168
0.000495206 0.025 -0.00551168
-0.0546216 0.01 -0.00551168
0.00128732 0.00159165 -0.00551168
0.00227961 -0.00102548 -0.00551168
0.0791586 -0.0598787 -0.00551168
0.0796578 -0.059106 -0.00551168
0.00165953 -0.000990923 0
0.00119576 -0.000874076 0
0.000866021 -0.000641801 0
0.000645147 -0.000349912 0
0.00052235 -1.7281e-05 0
0.00049972 0.000348016 0
0.000601632 0.000737716 0
0.000861774 0.0011403 0
0.00157235 0.00183217 0
0.00188647 0.00206725 0
0.00222612 0.00230203 0
0.00258713 0.00254351 0
0.00296826 0.00279524 0
0.00337118 0.00305664 0
0.00379785 0.00332658 0
0.00425045 0.00360349 0
0.00473139 0.00388521 0
0.0052432 0.00416895 0
0.0057881 0.00445204 0
0.00636753 0.00473281 0
0.00698281 0.00500961 0
0.00763526 0.00528058 0
0.00832616 0.00554366 0
0.00905691 0.00579603 0
0.00982918 0.00603333 0
0.0106445 0.00625033 0
0.0115038 0.00644128 0
0.0124073 0.00660297 0
0.0133543 0.00673414 0
0.0143444 0.00683382 0
0.0153769 0.00690031 0
0.0164512 0.00693173 0
0.0175666 0.00692547 0
0.0187219 0.00687822 0
0.0199156 0.00678477 0
0.0211454 0.00663864 0
0.0224084 0.00643275 0
0.0237018 0.00616676 0
0.0250249 0.00584739 0
0.026375 0.00547298 0
0.0277479 0.00503752 0
0.0291386 0.00453545 0
0.0305433 0.0039653 0
0.0319572 0.0033256 0
0.0333681 0.00260019 0
0.034775 0.00179799 0
0.0361793 0.000930615 0
0.0375798 3.12222e-06 0
0.0389689 -0.000988429 0
0.0403357 -0.00205109 0
0.041675 -0.00318283 0
0.0429849 -0.00437751 0
0.0442643 -0.00562904 0
0.0455126 -0.00693089 0
0.0467314 -0.00827518 0
0.0479204 -0.00965638 0
0.0490661 -0.0110799 0
0.0501515 -0.0125519 0
0.0511696 -0.0140695 0
0.0521492 -0.0156071 0
0.0531202 -0.0171411 0
0.0540851 -0.0186663 0
0.0550431 -0.0201798 0
0.0559923 -0.0216793 0
0.0569311 -0.0231626 0
0.0578582 -0.0246273 0
0.0587723 -0.0260715 0
0.0596721 -0.027493 0
0.0605563 -0.02889 0
0.0614241 -0.0302609 0
0.0622742 -0.0316042 0
0.063106 -0.0329183 0
0.0639186 -0.034202 0
0.0647113 -0.0354543 0
0.0654835 -0.0366743 0
0.0662345 -0.0378613 0
0.0669642 -0.0390145 0
0.0676726 -0.0401333 0
0.0683597 -0.0412172 0
0.0690246 -0.0422665 0
0.0696662 -0.0432819 0
0.0702841 -0.0442636 0
0.0708793 -0.0452111 0
0.0714538 -0.0461237 0
0.072009 -0.047001 0
0.0725452 -0.0478434 0
0.0730611 -0.0486524 0
0.073556 -0.0494294 0
0.0740291 -0.0501756 0
0.0744812 -0.0508916 0
0.0749138 -0.0515773 0
0.0753285 -0.0522331 0
0.0757266 -0.0528592 0
0.076109 -0.0534564 0
0.0764753 -0.0540264 0
0.0768243 -0.054571 0
0.0771553 -0.0550919 0
0.0774679 -0.0555901 0
0.0777617 -0.0560669 0
0.0780369 -0.056523 0
0.0782958 -0.0569578 0
0.0785421 -0.0573703 0
0.0787786 -0.0577603 0
0.0790073 -0.0581279 0
0.0792295 -0.058474 0
0.0794462 -0.0587995 0
0.0798803 -0.0594162 0
0.0800272 -0.0596588 0
0.0800357 -0.0598891 0
0.0799275 -0.0600784 0
0.0797205 -0.0601773 0
0.0794593 -0.0601051 0
0.0789155 -0.0596491 0
0.0786707 -0.0593963 0
0.0784111 -0.0591319 0
0.0781372 -0.0588542 0
0.0778566 -0.0585548 0
0.0775715 -0.0582308 0
0.0772803 -0.0578828 0
0.0769832 -0.0575099 0
0.0766822 -0.0571097 0
0.0763801 -0.0566796 0
0.0760759 -0.0562196 0
0.0757623 -0.0557337 0
0.0754359 -0.0552232 0
0.0750951 -0.0546879 0
0.0747379 -0.054128 0
0.0743626 -0.0535435 0
0.0739688 -0.0529338 0
0.0735559 -0.0522981 0
0.0731238 -0.0516357 0
0.0726718 -0.050946 0
0.0721991 -0.0502288 0
0.0717046 -0.049484 0
0.0711872 -0.0487117 0
0.0706461 -0.047912 0
0.0700804 -0.0470849 0
0.0694892 -0.0462308 0
0.0688718 -0.0453499 0
0.0682271 -0.0444431 0
0.0675544 -0.043511 0
0.0668527 -0.0425546 0
0.0661215 -0.0415748 0
0.06536 -0.040573 0
0.0645676 -0.0395504 0
0.0637439 -0.0385087 0
0.0628887 -0.0374493 0
0.062002 -0.0363741 0
0.0610838 -0.0352847 0
0.0601345 -0.0341831 0
0.0591547 -0.033071 0
0.0581456 -0.0319502 0
0.0571083 -0.0308224 0
0.0560444 -0.0296893 0
0.0549562 -0.028552 0
0.053845 -0.0274126 0
0.0527113 -0.0262746 0
0.051554 -0.0251427 0
0.0503724 -0.0240222 0
0.0491675 -0.0229164 0
0.047941 -0.0218282 0
0.0466955 -0.0207597 0
0.0454337 -0.0197126 0
0.0441592 -0.0186878 0
0.0428751 -0.0176863 0
0.0415841 -0.0167097 0
0.0402878 -0.0157609 0
0.0389879 -0.0148428 0
0.0376864 -0.0139575 0
0.0363853 -0.013107 0
0.0350871 -0.0122931 0
0.0337942 -0.0115164 0
0.0325095 -0.0107772 0
0.0312357 -0.0100756 0
0.0299758 -0.00941024 0
0.0287337 -0.00877784 0
0.0275126 -0.00817571 0
0.0263139 -0.00760375 0
0.0251376 -0.00706528 0
0.0239829 -0.0065649 0
0.0228537 -0.00609619 0
0.0217522 -0.00565563 0
0.0206795 -0.00524226 0
0.0196364 -0.00485507 0
0.0186233 -0.00449318 0
0.0176408 -0.00415577 0
0.016689 -0.00384204 0
0.0157682 -0.00355115 0
0.0148783 -0.00328218 0
0.0140192 -0.00303468 0
0.0131906 -0.00280795 0
0.0123925 -0.00260016 0
0.0116246 -0.00241012 0
0.0108864 -0.00223769 0
0.0101774 -0.00208212 0
0.00949701 -0.00194206 0
0.00884483 -0.0018163 0
0.0082202 -0.0017039 0
0.00762247 -0.00160391 0
0.00705097 -0.00151528 0
0.006505 -0.00143697 0
0.0059838 -0.00136806 0
0.00548662 -0.00130772 0
0.00501265 -0.00125519 0
0.00456114 -0.00120954 0
0.00413136 -0.00116914 0
0.00372257 -0.00113251 0
0.00333398 -0.00109853 0
0.00296466 -0.00106798 0
0.00261363 -0.0010431 0
-0.052721 -0.0445996 0
-0.0508204 -0.0440823 0
-0.0489199 -0.0435651 0
-0.0470193 -0.0430478 0
-0.0451187 -0.0425306 0
-0.0432181 -0.0420134 0
-0.0413175 -0.0414961 0
-0.039417 -0.0409789 0
-0.0375164 -0.0404616 0
-0.0356158 -0.0399444 0
-0.0337152 -0.0394271 0
-0.0318146 -0.0389099 0
-0.0299141 -0.0383927 0
-0.0280135 -0.0378754 0
-0.0261129 -0.0373582 0
-0.0242123 -0.0368409 0
-0.0223117 -0.0363237 0
-0.0204112 -0.0358065 0
-0.0185106 -0.0352892 0
-0.01661 -0.034772 0
-0.0147094 -0.0342547 0
-0.0128088 -0.0337375 0
-0.0109083 -0.0332202 0
-0.00900769 -0.032703 0
-0.00710711 -0.0321858 0
-0.00520653 -0.0316685 0
-0.00330595 -0.0311513 0
-0.00140537 -0.030634 0
0.00190689 -0.0299614 0
0.00332271 -0.0298498 0
0.00474133 -0.0297825 0
0.00616136 -0.0297597 0
0.0075814 -0.0297814 0
0.00900007 -0.0298477 0
0.010416 -0.0299583 0
0.0118278 -0.0301127 0
0.0132342 -0.0303103 0
0.0146339 -0.0305504 0
0.0160259 -0.0308322 0
0.0174091 -0.0311546 0
0.0187824 -0.0315166 0
0.020145 -0.031917 0
0.0214961 -0.0323546 0
0.0228351 -0.032828 0
0.0241613 -0.0333361 0
0.0254744 -0.0338774 0
0.0267738 -0.0344507 0
0.0280592 -0.0350545 0
0.0293306 -0.0356877 0
0.0305875 -0.0363488 0
0.0318301 -0.0370367 0
0.0330581 -0.0377501 0
0.0342717 -0.0384879 0
0.0354708 -0.0392489 0
0.0366556 -0.0400321 0
0.0378262 -0.0408363 0
0.0389828 -0.0416607 0
0.0401254 -0.0425042 0
0.0412543 -0.0433659 0
0.0423698 -0.0442451 0
0.043472 -0.0451408 0
0.0445612 -0.0460523 0
0.0456375 -0.0469789 0
0.0467013 -0.0479199 0
0.0477529 -0.0488746 0
0.0487923 -0.0498424 0
0.04982 -0.0508227 0
0.0508362 -0.051815 0
0.051841 -0.0528187 0
0.0528348 -0.0538333 0
0.0538178 -0.0548584 0
0.0547903 -0.0558935 0
0.0557524 -0.0569382 0
0.0567045 -0.0579922 0
0.0576467 -0.0590549 0
0.0585792 -0.0601261 0
0.0595024 -0.0612055 0
0.0604163 -0.0622926 0
0.0613212 -0.0633873 0
0.0622174 -0.0644891 0
0.0631049 -0.0655979 0
0.0639841 -0.0667134 0
0.064855 -0.0678353 0
0.0657179 -0.0689633 0
0.0665729 -0.0700974 0
0.0674202 -0.0712372 0
0.06826 -0.0723826 0
0.0690925 -0.0735333 0
0.0699178 -0.0746892 0
0.070736 -0.0758501 0
0.0715473 -0.0770159 0
0.0723518 -0.0781863 0
0.0731498 -0.0793612 0
0.0739412 -0.0805405 0
0.0747264 -0.081724 0
0.0755053 -0.0829116 0
0.0762781 -0.0841033 0
0.0770449 -0.0852987 0
0.0778059 -0.0864979 0
0.0785611 -0.0877007 0
0.0793108 -0.088907 0
0.0814681 -0.0912706 0
0.0828814 -0.0924245 0
0.0842946 -0.0935783 0
0.0857079 -0.0947322 0
0.0871211 -0.095886 0
0.0885344 -0.0970399 0
0.0899476 -0.0981937 0
0.0913609 -0.0993476 0
0.0927741 -0.100501 0
0.0941874 -0.101655 0
0.0956006 -0.102809 0
0.0970139 -0.103963 0
0.0984272 -0.105117 0
0.0998404 -0.106271 0
0.101254 -0.107424 0
0.102667 -0.108578 0
0.10408 -0.109732 0
0.105493 -0.110886 0
0.106907 -0.11204 0
0.10832 -0.113194 0
0.109733 -0.114348 0
0.111146 -0.115501 0
0.11256 -0.116655 0
0.113973 -0.117809 0
0.115386 -0.118963 0
0.116799 -0.120117 0
0.118213 -0.121271 0
0.119626 -0.122424 0
0.121039 -0.123578 0
0.122452 -0.124732 0
0.123866 -0.125886 0
0.125279 -0.12704 0
0.126692 -0.128194 0
0.128105 -0.129348 0
0.129519 -0.130501 0
0.130932 -0.131655 0
0.132345 -0.132809 0
0.133758 -0.133963 0
0.135172 -0.133216 0
0.135172 -0.131316 0
0.135172 -0.129415 0
0.135172 -0.127514 0
0.135172 -0.125614 0
0.135172 -0.123713 0
0.135172 -0.121813 0
0.135172 -0.119912 0
0.135172 -0.118012 0
0.135172 -0.116111 0
0.135172 -0.11421 0
0.135172 -0.11231 0
0.135172 -0.110409 0
0.135172 -0.108509 0
0.135172 -0.106608 0
0.135172 -0.104708 0
0.135172 -0.102807 0
0.135172 -0.100906 0
0.135172 -0.0990058 0
0.135172 -0.0971052 0
0.135172 -0.0952046 0
0.135172 -0.0933041 0
0.135172 -0.0914035 0
0.135172 -0.0895029 0
0.135172 -0.0876023 0
0.135172 -0.0857017 0
0.135172 -0.0838012 0
0.135172 -0.0819006 0
0.133758 -0.0788462 0
0.132345 -0.0776923 0
0.130932 -0.0765385 0
0.129519 -0.0753846 0
0.128105 -0.0742308 0
0.126692 -0.0730769 0
0.125279 -0.0719231 0
0.123866 -0.0707692 0
0.122452 -0.0696154 0
0.121039 -0.0684615 0
0.119626 -0.0673077 0
0.118213 -0.0661538 0
0.116799 -0.065 0
0.115386 -0.0638462 0
0.113973 -0.0626923 0
0.11256 -0.0615385 0
0.111146 -0.0603846 0
0.109733 -0.0592308 0
0.10832 -0.0580769 0
0.106907 -0.0569231 0
0.105493 -0.0557692 0
0.10408 -0.0546154 0
0.102667 -0.0534615 0
0.101254 -0.0523077 0
0.0998404 -0.0511538 0
0.0984272 -0.05 0
0.0970139 -0.0488462 0
0.0956006 -0.0476923 0
[...]
CELL_DATA 13116
SCALARS rho float
LOOKUP_TABLE default
0.5977
0.689194
0.422312
0.689634
0.69224
0.680441
0.366342
0.691311
0.597691
0.69344
0.367604
0.430163
0.69187
0.392396
0.41377
0.680329
0.597692
0.699052
0.689147
0.367923
0.5977
0.447068
0.409422
0.699533
0.5977
0.688578
0.693558
0.428391
0.5977
0.595736
0.745507
0.424872
0.597705
0.573044
0.367247
0.5977
0.681205
0.69037
0.680787
0.689601
0.680609
0.690837
0.597717
0.40718
0.691493
0.690853
0.684766
0.685865
0.437844
0.592621
0.690361
0.594489
0.372761
0.597701
0.597704
0.5977
0.404946
0.698947
0.593839
0.424923
0.393845
0.691895
0.686621
0.680814
0.689191
0.380437
0.687922
0.686258
0.687488
0.663392
0.413561
0.597703
0.450605
0.393835
1.09766
0.39275
0.690007
0.690714
0.367019
0.705184
0.694171
0.687608
0.697666
0.68545
0.688902
0.527029
0.366657
0.666605
0.689019
0.367917
0.423517
0.689674
0.696536
0.689708
0.659163
0.5977
0.5977
0.920089
0.999046
0.5977
0.639656
0.677529
0.681453
0.563228
0.683687
0.427174
0.499864
0.597709
0.418969
0.5977
0.597703
0.686717
0.5977
0.699017
0.70396
0.688489
0.374241
0.516984
0.689293
0.688978
0.684432
0.460158
0.687813
0.422596
0.690425
0.54958
0.368231
0.580731
0.413045
0.591161
0.689496
0.688315
0.560114
0.441484
0.550003
0.591513
1.12685
0.688854
0.607667
0.68905
0.687404
0.685027
0.582624
0.686866
0.686441
0.403026
0.367164
0.687129
0.69362
0.690752
0.586268
0.685463
0.685931
0.371796
0.694417
0.689234
0.414829
0.749172
0.928804
0.645659
0.699146
0.367491
0.696742
0.414228
0.462048
0.691722
0.689742
0.699823
0.366824
0.538978
0.523602
1.12675
0.410804
0.579044
0.688502
0.410026
0.42564
0.449712
0.686037
0.680794
0.367669
0.537376
0.597699
0.68095
0.680793
0.59507
0.371574
0.689569
0.683457
0.564413
0.695575
0.686899
0.667532
0.423039
0.686036
0.680895
0.695256
0.690126
0.6889
0.540471
0.567658
0.5977
0.578419
0.397031
0.692012
0.69816
0.595941
0.5977
0.416035
0.367705
0.390711
0.687249
0.418138
0.367609
0.368118
0.373831
0.510279
0.680913
0.690385
0.521994
0.401646
0.687785
0.597705
0.367715
0.585372
0.693322
0.685829
0.429432
0.688271
0.509995
0.690434
0.424632
0.669254
0.59767
1.06124
0.689442
0.676403
0.442242
0.547838
0.594378
1.11932
0.680903
1.12693
0.679757
0.691356
0.429451
0.689602
0.693709
0.973963
0.367431
0.440967
0.696476
0.689178
0.658873
0.687629
0.5977
0.705846
0.367732
0.453751
0.532069
0.414154
0.681448
0.695518
0.688828
0.366062
0.689799
0.373981
0.523806
0.684126
0.367831
0.687864
0.691052
1.12405
0.698601
0.44045
1.12514
0.697737
0.954782
0.688719
0.367435
0.366242
0.422116
0.591861
0.457022
0.453492
0.490504
0.478623
0.688775
0.377647
0.689293
0.691615
0.36846
0.367861
0.371905
0.546702
0.432878
0.668747
0.678813
0.684469
0.36788
0.685973
0.597295
0.455066
0.424441
0.681006
0.689112
0.689587
0.373536
0.680832
0.561431
0.690286
0.690679
0.690251
0.69085
0.423217
0.688005
0.396751
0.687157
0.693
0.5977
0.367909
0.488723
0.693416
0.371108
0.686574
0.691558
0.512241
0.713157
0.698124
0.368393
0.68978
0.696577
0.393522
0.689803
0.525145
0.59337
0.692375
0.527714
0.742536
0.36615
0.700284
0.492498
0.680791
0.678301
0.695184
0.427548
0.501722
0.68917
0.370654
0.690818
0.684112
0.534409
1.1269
0.370648
0.435757
0.689418
0.588267
0.684731
0.366733
0.415308
0.689568
0.691509
0.366887
0.690822
0.381116
0.431349
0.689136
0.692125
0.597698
0.367757
0.688768
0.709385
0.680281
0.689249
0.695247
0.588088
0.474365
0.408025
0.367744
0.680412
0.367756
0.597699
0.51447
0.423452
0.498464
0.597698
0.345953
0.369329
0.689348
0.418641
0.696552
0.5977
0.680731
0.588957
0.690137
0.438634
0.366468
0.548029
0.491179
0.690931
0.5977
0.68031
0.5977
0.687014
0.597701
0.687446
0.691149
0.59706
0.694155
0.705877
0.680837
0.535551
0.590091
0.5977
0.440273
0.678524
0.5977
0.371588
0.688286
1.12575
0.424025
0.367685
0.367851
0.369183
0.5977
0.386311
0.422742
0.68716
0.380608
0.597701
0.367769
0.680296
0.68922
0.437629
0.441664
0.68951
0.544087
0.367852
0.368946
0.367759
0.419572
0.366766
0.367668
0.458968
0.526214
0.367964
0.67729
0.464003
0.689119
0.514858
0.421576
0.554037
0.406581
0.367956
0.407698
0.689507
0.531763
0.5977
0.597703
0.377949
0.5977
0.689064
0.52543
0.713652
0.597707
0.5976
0.367257
1.03391
0.517772
0.695775
0.839281
0.422328
0.377062
0.682799
0.493772
0.526788
0.679051
0.499119
0.745321
0.686806
0.367771
0.422177
0.401448
0.577672
0.421371
0.384981
0.410756
0.394765
0.690804
0.690556
0.549821
0.5977
0.55255
0.685456
0.502235
0.383088
0.597702
0.422728
0.689775
0.469429
0.50725
0.557722
0.691393
0.689125
0.59159
0.509905
0.374389
0.589972
0.691181
0.674521
0.58864
0.683726
0.681355
0.36786
0.690643
0.597463
0.591582
0.486609
0.434414
0.697837
0.695985
0.592543
0.693306
0.687844
0.689885
0.699657
0.597365
0.679984
0.367445
0.691165
0.49539
0.421681
0.367537
0.690063
0.697737
0.483986
0.688742
0.5977
0.367955
0.680551
0.688744
0.694581
0.427686
0.380151
0.690225
0.36784
0.367729
0.415424
0.367818
0.699333
0.389683
0.689127
0.462148
0.689896
0.690454
0.68723
0.691253
0.367819
0.367819
0.696698
0.690126
0.696486
0.691004
0.693893
0.547264
0.367896
0.423721
0.680513
0.59669
0.367968
0.543356
0.423232
0.691145
0.68932
0.485432
0.451014
0.688903
0.530237
0.689618
0.5977
0.411061
0.509217
0.6973
1.11695
0.41508
0.688538
0.689858
0.69768
0.384119
1.12674
0.399698
1.07547
0.592323
0.367737
0.508313
0.454714
1.03782
0.419543
0.366082
0.519583
0.680693
0.69239
0.366341
0.45047
0.367699
0.680612
0.45424
0.680858
0.40102
0.597703
0.693343
0.519282
0.412838
0.41057
0.548367
0.424041
0.688753
0.37835
0.391942
0.680676
0.388416
0.687339
0.686304
0.992441
0.368052
0.687279
0.696682
0.695423
0.681362
0.692191
0.689178
0.415165
0.665564
0.523626
0.699138
0.367408
0.691218
0.594186
0.367884
0.705252
0.694083
0.372456
0.670242
0.423841
0.410735
0.687107
0.689529
0.422048
0.407612
0.36674
0.416206
0.691588
0.699758
0.381316
0.367733
0.691044
0.688613
0.597701
0.696803
0.688968
0.367675
0.695056
0.526857
0.690225
0.523153
0.5977
0.545126
0.687911
0.687126
0.597435
0.498541
0.425581
0.689993
0.5977
0.5977
0.696863
0.40902
0.694277
0.694654
0.512199
0.59159
0.696541
0.510155
0.663008
0.597271
0.486966
0.689512
0.632692
0.436567
0.692774
0.421789
0.688545
0.404787
0.686956
0.686246
0.426287
0.680704
0.696718
0.690941
0.5977
0.697659
0.597532
0.475637
0.557033
0.397634
0.392653
1.12687
0.58706
0.688699
0.693476
0.367807
0.475525
0.689288
0.693409
0.689789
0.6911
0.367613
0.705336
0.693589
0.367918
0.411988
0.6894
0.696653
0.688746
0.421965
0.597652
0.438753
0.692794
0.685841
0.670208
0.693083
0.367824
0.701335
0.68917
0.696591
0.68955
0.680701
0.523021
0.694973
0.367741
0.683127
0.693503
0.539052
0.687525
0.678397
0.690479
0.575678
0.537675
0.597671
0.597705
0.367868
0.367848
0.367885
0.367946
0.692137
0.693345
0.678663
0.481258
0.36803
0.687357
0.737046
0.391074
0.478053
0.54359
0.690606
0.689957
0.689246
0.699451
0.36773
0.367879
1.1266
0.424258
0.367723
0.381341
0.680411
0.43725
0.367837
0.5977
0.69885
0.685373
0.680652
0.688464
0.375113
0.398458
0.367885
0.597699
0.532008
0.424837
0.683987
0.700822
0.68761
0.684189
0.424067
0.367917
0.693301
0.367836
0.680722
0.68598
0.820952
0.421976
0.367782
0.68768
0.720839
0.597457
0.391203
0.689423
0.680638
0.5977
0.690674
0.691084
1.12651
0.683369
0.367618
0.688046
0.670588
0.684581
0.693101
1.12686
0.686988
1.12674
0.688402
0.390224
0.408644
0.36782
0.707314
0.595882
0.367888
0.689377
0.691534
0.431246
0.674309
0.441
0.694622
0.597702
0.441403
0.693033
0.700494
0.367967
0.582202
0.703652
0.404281
0.689758
0.385114
0.425401
0.5977
0.5977
0.553925
0.683147
0.368127
0.696276
0.419342
0.427356
0.68706
0.367926
0.5977
0.423442
0.686919
0.5977
1.1265
0.689367
0.408085
0.39519
0.680542
0.597716
0.690033
0.577785
0.5977
0.680272
0.69677
0.597714
0.5977
0.685918
0.694954
0.688215
0.49522
0.367775
0.580153
0.686046
0.695149
0.516085
0.683465
0.597643
0.545575
0.422868
0.597661
0.684907
1.1268
1.06842
0.679013
0.697597
0.68101
0.688791
0.422895
0.597636
0.542561
0.689567
0.696048
0.478366
0.693164
0.691712
0.415306
0.434544
0.37069
1.12685
0.367527
0.5977
0.694395
0.597702
0.466231
0.689851
0.397154
0.597689
0.680678
0.671912
0.680842
0.680946
0.5977
0.692755
0.597702
0.698496
0.404644
0.681079
0.687078
0.597711
1.12486
0.694045
0.422762
0.409903
0.40603
0.690223
0.367794
1.12537
0.367871
0.691368
0.378923
0.545383
0.413328
0.696031
0.690989
0.5977
0.464573
0.5977
0.680883
0.368027
0.597701
0.690679
0.42593
0.5977
0.855475
0.693342
0.680713
0.423153
0.597708
0.690576
0.684791
0.683398
0.367784
0.53384
0.689649
1.12694
1.11761
1.12686
0.5977
0.687896
0.597699
0.689513
0.367817
0.398397
1.1269
0.691997
0.680721
0.383608
0.681005
0.5977
0.597706
0.407697
0.518292
0.690826
0.687848
0.596582
0.485101
0.681424
1.1196
0.366441
0.5977
0.699376
0.366495
0.420141
0.398851
0.683658
0.456829
0.367441
0.689408
0.580081
0.694869
0.681402
0.366913
0.367347
0.691123
0.410443
0.386878
0.723547
0.438002
0.505238
0.5977
0.692408
0.687238
0.368017
0.449608
0.367547
0.686677
0.4291
0.68641
0.387641
0.689019
0.691455
0.690999
0.684404
0.701483
0.685433
0.689754
0.691359
0.688753
0.386937
0.367946
0.696125
0.680929
0.555134
0.684355
0.597701
0.680923
0.682807
0.435649
0.688559
0.691168
0.69662
0.367433
0.701976
0.443439
0.685857
0.548165
0.702276
0.682363
0.442825
0.691211
0.367694
0.570908
0.687031
0.384527
0.733943
1.127
0.691522
0.370118
0.687121
0.367969
0.421795
0.423385
0.368085
0.680912
0.413579
0.689949
0.679249
0.48837
0.42322
0.545669
0.597661
0.597705
0.683082
0.367971
0.373327
0.366784
0.411823
0.461734
0.597465
0.687848
0.429901
0.680785
0.6937
0.396442
0.691913
0.738213
0.680596
0.367797
1.1018
0.70046
0.694295
0.689969
0.42123
0.687132
0.69373
0.701977
0.597702
0.68058
0.455701
0.423514
0.684852
0.577026
0.367729
0.685777
0.417576
0.594065
0.592653
0.688201
0.688786
0.424014
0.684245
0.531571
0.367507
0.711053
0.691025
0.69408
0.689581
0.680359
0.421668
0.691645
0.422667
0.554028
0.691839
1.00951
0.69043
0.367455
0.451151
0.6935
0.462822
0.690059
0.5977
0.532517
0.472703
0.689289
0.423455
0.681109
0.690041
0.69744
0.423383
0.411742
0.575628
0.597679
0.597703
0.566637
0.680751
0.683046
0.689379
1.12685
0.689443
0.367993
0.469743
0.690565
0.680578
0.682965
0.536969
0.393987
0.695168
0.407339
0.689201
0.5977
0.469323
0.690764
0.367933
0.691492
0.42568
0.693964
0.437208
0.690833
0.68083
0.427893
0.690301
0.597704
0.409775
0.677703
0.690812
0.597705
0.40409
0.512037
0.567581
0.696607
0.681251
0.476751
0.597555
0.691668
0.680633
0.467559
0.596535
0.687918
0.529003
0.680848
0.687675
0.476837
0.68793
0.891175
0.419549
0.5977
0.368015
0.695468
0.368794
0.426836
0.696409
0.367772
0.367767
0.404772
0.687654
0.687845
0.542012
0.681205
0.508639
0.696495
0.367951
0.688116
0.516125
0.68027
0.685204
0.696628
0.678685
0.583647
0.680868
0.680513
0.426031
0.5977
0.697554
0.5977
0.688569
0.548747
0.552407
0.691662
0.367792
0.597702
0.443269
0.680495
0.385348
0.422672
0.700518
0.68923
0.367799
0.689569
0.701649
1.12685
0.690988
1.07356
0.367693
0.692468
0.367715
0.416552
0.689315
0.698593
0.690937
0.689036
0.421847
0.369946
0.367318
0.688563
0.678432
0.509453
0.692453
0.379724
0.369987
0.396827
0.689107
0.521577
0.692245
0.689109
0.5977
0.689607
0.688047
0.5977
0.687924
0.524681
0.403425
0.367812
1.07856
1.11742
0.386131
0.596971
0.682643
0.69117
0.422342
0.579365
0.683727
0.451145
0.682786
0.678926
0.367585
0.68075
0.693749
0.36784
0.689472
0.383681
0.688656
0.695721
0.70146
0.4099
0.536297
0.728994
0.481074
0.527452
0.689717
0.485564
0.680743
0.688117
0.687502
0.702424
0.479305
0.733564
0.710516
0.686683
0.501973
0.690395
0.429337
0.39953
0.689432
0.689667
0.67931
0.416536
0.68542
0.5977
1.09821
0.375488
0.380384
0.36784
0.689619
0.366564
0.388438
0.432898
0.678616
0.386811
0.477313
0.526915
0.686421
0.367559
0.672365
0.680791
0.68948
0.371791
0.686967
0.591439
0.680658
0.519874
0.597703
0.367756
0.367871
0.687092
0.367831
0.592037
0.692291
1.12669
0.367673
0.489342
0.370835
0.589286
1.12671
0.417467
0.69052
0.687469
0.700621
0.368026
0.419969
0.494177
0.681281
0.367912
1.12686
0.5977
0.68084
0.689889
0.36755
0.653561
0.416251
0.67683
0.5977
0.693414
0.674333
0.5977
0.5953
0.683233
0.690705
0.367771
0.513159
0.384944
0.703466
0.597153
1.01365
0.367607
0.522038
0.695431
0.686866
0.666929
0.367847
0.689476
0.588423
0.591128
0.681288
0.422058
0.367844
0.478092
0.689603
0.679443
0.5977
0.684904
0.493363
0.69163
0.597703
0.68006
0.679667
0.69129
0.691566
0.680773
0.696526
0.694159
0.423409
0.687809
0.689829
0.680647
0.68856
0.689934
0.591367
0.367776
0.433141
0.683666
0.36777
0.482093
0.689741
0.402722
0.5977
0.68728
0.687669
0.697103
0.424007
0.689986
0.424094
0.392252
0.680639
0.689767
0.685623
0.375653
0.69037
0.681411
0.68214
0.689056
0.439109
0.680644
0.69344
0.694984
0.540271
0.699733
0.36778
0.68766
0.390007
0.367767
0.597702
0.540162
0.693057
0.697646
0.680744
0.431357
0.680616
0.545713
0.406412
0.687491
0.545151
0.367859
0.680426
0.442154
0.559243
0.680817
0.684813
0.688002
0.547081
0.597703
0.638898
0.680908
0.591588
0.6941
0.578088
0.688356
0.684584
0.591976
0.421122
0.367185
0.537898
0.689527
0.42242
0.613535
0.689566
0.5977
0.680847
0.5977
0.720982
0.690628
0.36772
0.689425
0.683883
0.5977
0.684119
0.69307
0.688749
0.680708
0.367935
0.397498
0.70012
0.597618
0.5977
0.68847
0.687075
0.684829
0.695947
0.695394
0.5977
0.682403
0.693372
0.397652
0.436132
0.38817
0.458771
1.12509
0.554526
0.597699
0.690151
0.695115
0.418812
0.698039
0.688636
0.378356
0.509966
1.1206
0.688625
0.424276
0.42438
0.415827
1.1268
0.688748
0.546112
0.367917
0.367647
0.435749
0.501947
0.36777
0.691074
0.685515
0.690105
0.367797
0.687542
0.597703
0.5977
0.480993
0.36777
0.68761
1.12688
0.367817
0.680227
0.36782
0.699827
0.422932
0.689443
0.367765
0.687891
0.690842
0.369929
0.591991
0.465823
0.691982
0.437254
0.597699
0.415495
0.588111
0.367653
0.597708
0.368004
0.672875
0.670805
0.5977
0.700474
0.484628
0.687952
0.680832
0.690793
0.5977
0.699411
0.367772
0.586416
0.384642
0.696733
0.471408
0.691854
0.589165
0.69913
0.693291
0.597705
0.694533
0.407766
0.389702
0.397031
0.584667
0.596884
0.69105
0.367929
0.449099
0.685472
0.512753
0.423315
0.598503
0.509613
0.367833
0.431862
0.690484
0.5977
0.597589
0.404122
0.688015
0.689493
0.427982
0.491261
0.689252
0.685799
0.675597
0.562811
0.520546
0.502181
0.370188
0.691489
0.68246
0.597579
0.710093
0.42036
0.5977
0.367897
0.673673
0.691226
0.367688
0.460214
0.683764
0.594116
0.691492
0.694075
0.695963
0.689815
0.691556
0.377313
0.444308
0.387658
0.367565
0.5977
0.803051
0.5977
0.367668
0.368033
0.578209
0.424205
0.684826
0.684581
0.368012
0.484299
0.687284
0.414733
0.651812
0.695561
0.686714
0.680792
0.5977
0.367749
0.368034
0.681664
0.367642
0.563001
0.539508
0.680688
0.689482
0.470567
0.367526
1.12689
0.36804
0.688714
0.696687
0.367711
0.417264
0.376444
0.686873
0.375959
1.12692
0.694146
0.5977
0.427692
0.575174
0.69045
0.690005
0.366301
0.688965
0.685009
0.417032
0.689166
0.687369
0.367458
0.367838
0.687466
0.367993
0.367544
0.687887
0.498524
0.685783
0.725482
0.696814
0.688548
0.692118
0.68781
0.680883
0.367022
0.517738
0.685069
0.699399
0.53514
0.692585
0.492598
0.688355
0.688255
0.597702
0.590764
0.582473
0.544773
0.698345
0.692198
0.684179
0.690874
0.686518
1.12666
0.690895
1.12689
0.691918
0.687641
0.691089
1.12707
0.68089
0.40938
0.687676
0.42398
0.689301
0.687859
0.696624
0.685327
0.704753
0.411643
0.370877
0.484122
0.366564
0.686602
0.367857
0.367772
0.695007
0.423752
0.696474
0.369249
0.687859
0.687448
0.367634
0.5118
0.472845
0.689478
0.401701
0.693994
0.691125
0.373551
0.687851
0.593304
0.490089
0.426242
0.42746
0.712133
0.367849
0.689409
0.5977
0.471445
0.690604
0.68056
0.69625
0.36784
0.5977
0.417416
0.687736
0.680985
0.688542
0.367797
0.700571
0.688594
0.684652
0.529069
0.689348
0.367883
0.367881
0.689474
0.551669
0.693925
0.58104
0.367815
0.529321
0.685156
0.420815
0.401191
0.407955
0.597708
1.04403
0.689788
0.393156
0.5977
0.686294
0.588223
0.589897
0.46357
0.594041
0.367901
0.36789
0.692152
0.367841
0.367953
0.690448
0.690419
0.381059
0.701453
0.379005
1.12475
0.430247
0.687749
0.664949
0.704531
0.680784
0.42621
0.367969
0.423129
0.680735
0.687547
0.597703
0.594164
0.507275
0.479988
0.680854
0.367281
0.684917
0.507433
0.660835
0.690112
0.369312
0.410734
0.367803
0.367516
0.416232
0.683174
0.687159
0.367772
0.687536
0.596849
0.476617
0.408047
0.690761
0.367942
0.686602
0.523077
0.702231
0.605783
0.686869
0.980541
0.40147
0.695354
0.68926
0.690059
0.367939
0.681804
0.5977
0.479327
0.689502
0.692679
0.690013
0.687762
0.691471
0.689411
0.690808
0.680547
0.689767
0.367576
0.696855
0.367803
0.58292
0.689758
0.422384
0.68882
0.682087
0.444742
0.684661
0.367901
0.422317
0.689635
0.680406
0.690559
0.367832
0.687572
0.5977
0.430233
0.36778
0.690038
0.689451
0.50997
0.41861
0.695124
0.690569
0.367975
0.59184
0.69156
0.5977
0.373771
0.367883
0.423167
0.596423
0.43885
0.688977
0.704954
0.680804
0.597647
0.68751
0.367776
0.688944
0.5977
0.690832
0.674002
0.424113
0.366692
0.423336
0.698439
0.691163
0.521437
0.591564
0.452154
0.695217
0.688703
0.411735
0.685587
0.689782
0.597701
0.367919
0.366239
0.460831
0.68983
0.693887
0.5977
0.563
0.686945
0.367815
0.597701
1.11706
0.70082
0.368128
0.5977
0.448684
0.683212
0.429613
0.698774
0.689633
0.401744
0.689407
0.597672
1.12705
0.670433
1.12681
0.6899
0.550462
0.680771
0.680537
0.689378
0.697575
0.541142
1.12268
0.383363
0.680599
0.420458
0.367911
0.431768
0.414071
0.367884
0.367857
0.691753
0.504472
0.392064
0.680803
0.68965
0.68749
0.549178
0.702915
0.710981
0.680791
0.427964
0.677017
0.688053
0.468257
0.42279
0.368014
0.597702
0.557278
0.367754
0.592141
0.425067
1.01488
0.554115
0.370247
0.5432
0.592309
0.467503
0.689231
0.414418
0.5977
0.507915
0.691132
0.514896
0.682055
1.12469
0.681225
0.592751
0.36792
0.691756
0.690665
0.427328
0.42148
0.680354
0.367762
0.699919
0.367816
0.592861
0.42143
0.687875
0.445431
0.691176
0.367863
0.688992
0.687911
0.692247
1.12474
0.382504
0.415777
0.546071
0.689757
0.69391
0.68498
0.594571
0.445579
0.694329
0.465817
0.687383
0.679177
0.556933
0.47172
0.696057
0.698692
0.414787
0.673635
0.691894
0.694415
0.696722
0.417229
0.597702
0.367655
0.694177
0.440612
0.680679
0.687773
0.692444
0.691116
0.474952
0.689496
0.367819
0.367661
0.688671
1.12196
0.597705
0.69953
1.12601
0.367916
0.699876
0.690615
0.69112
0.422129
0.535871
0.704249
0.367825
0.688479
0.689673
0.689395
0.690892
0.465683
0.569536
0.597707
0.405125
0.688655
0.690668
0.578229
0.689373
0.467536
0.681887
0.700187
0.712201
0.689883
0.366051
0.42342
0.690258
0.688817
0.437834
0.491532
0.437458
0.411402
0.391086
0.411396
0.432665
0.367719
0.693532
0.419237
0.374612
0.694522
0.597705
1.12682
0.519411
0.367569
0.686713
0.568785
0.5977
0.694445
0.511404
0.597685
0.673804
0.5977
0.688392
0.400493
0.68975
0.680854
0.380302
0.36794
0.556253
0.681801
0.5977
0.691916
0.680677
0.699101
0.691448
0.512225
0.68913
0.680854
0.691451
0.367981
0.687836
0.677056
0.506427
0.533575
0.37529
0.414449
0.391649
0.5977
0.682308
0.697285
0.367907
0.515803
0.69102
0.429108
0.690808
0.680487
0.689507
0.716675
0.686468
0.464508
0.4157
0.417458
0.5977
0.437501
0.686001
0.418822
0.687392
0.680546
0.687487
0.45342
0.563407
0.544595
0.687578
0.40896
0.368009
0.689985
0.688236
0.693911
0.680408
0.690442
0.699762
0.367795
0.5977
0.693713
0.572858
0.686443
0.692392
0.698507
0.530575
0.52071
0.690994
0.552677
0.596055
0.367867
0.685842
0.689154
0.542106
0.439526
0.688239
0.578627
0.692191
0.691137
0.367838
0.367891
0.864846
0.597424
0.557066
0.689468
0.689924
0.451619
0.690258
0.860088
0.685618
0.367833
0.5977
0.367805
0.68967
0.690849
0.69955
0.696338
0.770991
0.479549
0.506402
0.702014
0.36776
0.5977
0.465475
0.687294
0.400261
0.659522
0.694019
0.9006
0.367812
1.12685
1.09999
0.367773
0.685994
0.428652
0.690404
0.36786
0.368121
0.40918
0.697407
0.690943
0.489363
0.482451
0.687244
0.691581
0.547641
0.705245
0.367837
0.597706
0.367884
0.70153
0.367895
0.679945
0.68953
0.427215
0.597199
0.367881
0.678517
0.38755
0.367727
0.694054
0.423227
0.690145
0.554208
0.406888
0.693179
0.777054
0.690595
0.680041
0.458062