# vtk DataFile Version 1.0
unstructured grid
ascii
DATASET UNSTRUCTURED_GRID
points 13672 float
0.0796578 -0.059106 0
0.00128732 0.00159165 0
0.00227961 -0.00102548 0
0.0791586 -0.0598787 0
-0.0546216 0.01 0
0.000495206 0.025 0
0.0800549 -0.035 0
0.135172 -0.08 0
-0.0546216 -0.0451168 0
0.000495206 -0.0301168 0
0.0800549 -0.0901168 0
0.135172 -0.135117 0
-0.0546216 -0.0451168 -0.00551168
0.000495206 -0.0301168 -0.00551168
0.0800549 -0.0901168 -0.00551168
0.135172 -0.135117 -0.00551168
0.135172 -0.08 -0.00551168
0.0800549 -0.035 -0.00551168
0.000495206 0.025 -0.00551168
-0.0546216 0.01 -0.00551168
0.00128732 0.00159165 -0.00551168
0.00227961 -0.00102548 -0.00551168
0.0791586 -0.0598787 -0.00551168
0.0796578 -0.059106 -0.00551168
0.00165953 -0.000990923 0
0.00119576 -0.000874076 0
0.000866021 -0.000641801 0
0.000645147 -0.000349912 0
0.00052235 -1.7281e-05 0
0.00049972 0.000348016 0
0.000601632 0.000737716 0
0.000861774 0.0011403 0
0.00157235 0.00183217 0
0.00188647 0.00206725 0
0.00222612 0.00230203 0
0.00258713 0.00254351 0
0.00296826 0.00279524 0
0.00337118 0.00305664 0
0.00379785 0.00332658 0
0.00425045 0.00360349 0
0.00473139 0.00388521 0
0.0052432 0.00416895 0
0.0057881 0.00445204 0
0.00636753 0.00473281 0
0.00698281 0.00500961 0
0.00763526 0.00528058 0
0.00832616 0.00554366 0
0.00905691 0.00579603 0
0.00982918 0.00603333 0
0.0106445 0.00625033 0
0.0115038 0.00644128 0
0.0124073 0.00660297 0
0.0133543 0.00673414 0
0.0143444 0.00683382 0
0.0153769 0.00690031 0
0.0164512 0.00693173 0
0.0175666 0.00692547 0
0.0187219 0.00687822 0
0.0199156 0.00678477 0
0.0211454 0.00663864 0
0.0224084 0.00643275 0
0.0237018 0.00616676 0
0.0250249 0.00584739 0
0.026375 0.00547298 0
0.0277479 0.00503752 0
0.0291386 0.00453545 0
0.0305433 0.0039653 0
0.0319572 0.0033256 0
0.0333681 0.00260019 0
0.034775 0.00179799 0
0.0361793 0.000930615 0
0.0375798 3.12222e-06 0
0.0389689 -0.000988429 0
0.0403357 -0.00205109 0
0.041675 -0.00318283 0
0.0429849 -0.00437751 0
0.0442643 -0.00562904 0
0.0455126 -0.00693089 0
0.0467314 -0.00827518 0
0.0479204 -0.00965638 0
0.0490661 -0.0110799 0
0.0501515 -0.0125519 0
0.0511696 -0.0140695 0
0.0521492 -0.0156071 0
0.0531202 -0.0171411 0
0.0540851 -0.0186663 0
0.0550431 -0.0201798 0
0.0559923 -0.0216793 0
0.0569311 -0.0231626 0
0.0578582 -0.0246273 0
0.0587723 -0.0260715 0
0.0596721 -0.027493 0
0.0605563 -0.02889 0
0.0614241 -0.0302609 0
0.0622742 -0.0316042 0
0.063106 -0.0329183 0
0.0639186 -0.034202 0
0.0647113 -0.0354543 0
0.0654835 -0.0366743 0
0.0662345 -0.0378613 0
0.0669642 -0.0390145 0
0.0676726 -0.0401333 0
0.0683597 -0.0412172 0
0.0690246 -0.0422665 0
0.0696662 -0.0432819 0
0.0702841 -0.0442636 0
0.0708793 -0.0452111 0
0.0714538 -0.0461237 0
0.072009 -0.047001 0
0.0725452 -0.0478434 0
0.0730611 -0.0486524 0
0.073556 -0.0494294 0
0.0740291 -0.0501756 0
0.0744812 -0.0508916 0
0.0749138 -0.0515773 0
0.0753285 -0.0522331 0
0.0757266 -0.0528592 0
0.076109 -0.0534564 0
0.0764753 -0.0540264 0
0.0768243 -0.054571 0
0.0771553 -0.0550919 0
0.0774679 -0.0555901 0
0.0777617 -0.0560669 0
0.0780369 -0.056523 0
0.0782958 -0.0569578 0
0.0785421 -0.0573703 0
0.0787786 -0.0577603 0
0.0790073 -0.0581279 0
0.0792295 -0.058474 0
0.0794462 -0.0587995 0
0.0798803 -0.0594162 0
0.0800272 -0.0596588 0
0.0800357 -0.0598891 0
0.0799275 -0.0600784 0
0.0797205 -0.0601773 0
0.0794593 -0.0601051 0
0.0789155 -0.0596491 0
0.0786707 -0.0593963 0
0.0784111 -0.0591319 0
0.0781372 -0.0588542 0
0.0778566 -0.0585548 0
0.0775715 -0.0582308 0
0.0772803 -0.0578828 0
0.0769832 -0.0575099 0
0.0766822 -0.0571097 0
0.0763801 -0.0566796 0
0.0760759 -0.0562196 0
0.0757623 -0.0557337 0
0.0754359 -0.0552232 0
0.0750951 -0.0546879 0
0.0747379 -0.054128 0
0.0743626 -0.0535435 0
0.0739688 -0.0529338 0
0.0735559 -0.0522981 0
0.0731238 -0.0516357 0
0.0726718 -0.050946 0
0.0721991 -0.0502288 0
0.0717046 -0.049484 0
0.0711872 -0.0487117 0
0.0706461 -0.047912 0
0.0700804 -0.0470849 0
0.0694892 -0.0462308 0
0.0688718 -0.0453499 0
0.0682271 -0.0444431 0
0.0675544 -0.043511 0
0.0668527 -0.0425546 0
0.0661215 -0.0415748 0
0.06536 -0.040573 0
0.0645676 -0.0395504 0
0.0637439 -0.0385087 0
0.0628887 -0.0374493 0
0.062002 -0.0363741 0
0.0610838 -0.0352847 0
0.0601345 -0.0341831 0
0.0591547 -0.033071 0
0.0581456 -0.0319502 0
0.0571083 -0.0308224 0
0.0560444 -0.0296893 0
0.0549562 -0.028552 0
0.053845 -0.0274126 0
0.0527113 -0.0262746 0
0.051554 -0.0251427 0
0.0503724 -0.0240222 0
0.0491675 -0.0229164 0
0.047941 -0.0218282 0
0.0466955 -0.0207597 0
0.0454337 -0.0197126 0
0.0441592 -0.0186878 0
0.0428751 -0.0176863 0
0.0415841 -0.0167097 0
0.0402878 -0.0157609 0
0.0389879 -0.0148428 0
0.0376864 -0.0139575 0
0.0363853 -0.013107 0
0.0350871 -0.0122931 0
0.0337942 -0.0115164 0
0.0325095 -0.0107772 0
0.0312357 -0.0100756 0
0.0299758 -0.00941024 0
0.0287337 -0.00877784 0
0.0275126 -0.00817571 0
0.0263139 -0.00760375 0
0.0251376 -0.00706528 0
0.0239829 -0.0065649 0
0.0228537 -0.00609619 0
0.0217522 -0.00565563 0
0.0206795 -0.00524226 0
0.0196364 -0.00485507 0
0.0186233 -0.00449318 0
0.0176408 -0.00415577 0
0.016689 -0.00384204 0
0.0157682 -0.00355115 0
0.0148783 -0.00328218 0
0.0140192 -0.00303468 0
0.0131906 -0.00280795 0
0.0123925 -0.00260016 0
0.0116246 -0.00241012 0
0.0108864 -0.00223769 0
0.0101774 -0.00208212 0
0.00949701 -0.00194206 0
0.00884483 -0.0018163 0
0.0082202 -0.0017039 0
0.00762247 -0.00160391 0
0.00705097 -0.00151528 0
0.006505 -0.00143697 0
0.0059838 -0.00136806 0
0.00548662 -0.00130772 0
0.00501265 -0.00125519 0
0.00456114 -0.00120954 0
0.00413136 -0.00116914 0
0.00372257 -0.00113251 0
0.00333398 -0.00109853 0
0.00296466 -0.00106798 0
0.00261363 -0.0010431 0
-0.052721 -0.0445996 0
-0.0508204 -0.0440823 0
-0.0489199 -0.0435651 0
-0.0470193 -0.0430478 0
-0.0451187 -0.0425306 0
-0.0432181 -0.0420134 0
-0.0413175 -0.0414961 0
-0.039417 -0.0409789 0
-0.0375164 -0.0404616 0
-0.0356158 -0.0399444 0
-0.0337152 -0.0394271 0
-0.0318146 -0.0389099 0
-0.0299141 -0.0383927 0
-0.0280135 -0.0378754 0
-0.0261129 -0.0373582 0
-0.0242123 -0.0368409 0
-0.0223117 -0.0363237 0
-0.0204112 -0.0358065 0
-0.0185106 -0.0352892 0
-0.01661 -0.034772 0
-0.0147094 -0.0342547 0
-0.0128088 -0.0337375 0
-0.0109083 -0.0332202 0
-0.00900769 -0.032703 0
-0.00710711 -0.0321858 0
-0.00520653 -0.0316685 0
-0.00330595 -0.0311513 0
-0.00140537 -0.030634 0
0.00190689 -0.0299614 0
0.00332271 -0.0298498 0
0.00474133 -0.0297825 0
0.00616136 -0.0297597 0
0.0075814 -0.0297814 0
0.00900007 -0.0298477 0
0.010416 -0.0299583 0
0.0118278 -0.0301127 0
0.0132342 -0.0303103 0
0.0146339 -0.0305504 0
0.0160259 -0.0308322 0
0.0174091 -0.0311546 0
0.0187824 -0.0315166 0
0.020145 -0.031917 0
0.0214961 -0.0323546 0
0.0228351 -0.032828 0
0.0241613 -0.0333361 0
0.0254744 -0.0338774 0
0.0267738 -0.0344507 0
0.0280592 -0.0350545 0
0.0293306 -0.0356877 0
0.0305875 -0.0363488 0
0.0318301 -0.0370367 0
0.0330581 -0.0377501 0
0.0342717 -0.0384879 0
0.0354708 -0.0392489 0
0.0366556 -0.0400321 0
0.0378262 -0.0408363 0
0.0389828 -0.0416607 0
0.0401254 -0.0425042 0
0.0412543 -0.0433659 0
0.0423698 -0.0442451 0
0.043472 -0.0451408 0
0.0445612 -0.0460523 0
0.0456375 -0.0469789 0
0.0467013 -0.0479199 0
0.0477529 -0.0488746 0
0.0487923 -0.0498424 0
0.04982 -0.0508227 0
0.0508362 -0.051815 0
0.051841 -0.0528187 0
0.0528348 -0.0538333 0
0.0538178 -0.0548584 0
0.0547903 -0.0558935 0
0.0557524 -0.0569382 0
0.0567045 -0.0579922 0
0.0576467 -0.0590549 0
0.0585792 -0.0601261 0
0.0595024 -0.0612055 0
0.0604163 -0.0622926 0
0.0613212 -0.0633873 0
0.0622174 -0.0644891 0
0.0631049 -0.0655979 0
0.0639841 -0.0667134 0
0.064855 -0.0678353 0
0.0657179 -0.0689633 0
0.0665729 -0.0700974 0
0.0674202 -0.0712372 0
0.06826 -0.0723826 0
0.0690925 -0.0735333 0
0.0699178 -0.0746892 0
0.070736 -0.0758501 0
0.0715473 -0.0770159 0
0.0723518 -0.0781863 0
0.0731498 -0.0793612 0
0.0739412 -0.0805405 0
0.0747264 -0.081724 0
0.0755053 -0.0829116 0
0.0762781 -0.0841033 0
0.0770449 -0.0852987 0
0.0778059 -0.0864979 0
0.0785611 -0.0877007 0
0.0793108 -0.088907 0
0.0814681 -0.0912706 0
0.0828814 -0.0924245 0
0.0842946 -0.0935783 0
0.0857079 -0.0947322 0
0.0871211 -0.095886 0
0.0885344 -0.0970399 0
0.0899476 -0.0981937 0
0.0913609 -0.0993476 0
0.0927741 -0.100501 0
0.0941874 -0.101655 0
0.0956006 -0.102809 0
0.0970139 -0.103963 0
0.0984272 -0.105117 0
0.0998404 -0.106271 0
0.101254 -0.107424 0
0.102667 -0.108578 0
0.10408 -0.109732 0
0.105493 -0.110886 0
0.106907 -0.11204 0
0.10832 -0.113194 0
0.109733 -0.114348 0
0.111146 -0.115501 0
0.11256 -0.116655 0
0.113973 -0.117809 0
0.115386 -0.118963 0
0.116799 -0.120117 0
0.118213 -0.121271 0
0.119626 -0.122424 0
0.121039 -0.123578 0
0.122452 -0.124732 0
0.123866 -0.125886 0
0.125279 -0.12704 0
0.126692 -0.128194 0
0.128105 -0.129348 0
0.129519 -0.130501 0
0.130932 -0.131655 0
0.132345 -0.132809 0
0.133758 -0.133963 0
0.135172 -0.133216 0
0.135172 -0.131316 0
0.135172 -0.129415 0
0.135172 -0.127514 0
0.135172 -0.125614 0
0.135172 -0.123713 0
0.135172 -0.121813 0
0.135172 -0.119912 0
0.135172 -0.118012 0
0.135172 -0.116111 0
0.135172 -0.11421 0
0.135172 -0.11231 0
0.135172 -0.110409 0
0.135172 -0.108509 0
0.135172 -0.106608 0
0.135172 -0.104708 0
0.135172 -0.102807 0
0.135172 -0.100906 0
0.135172 -0.0990058 0
0.135172 -0.0971052 0
0.135172 -0.0952046 0
0.135172 -0.0933041 0
0.135172 -0.0914035 0
0.135172 -0.0895029 0
0.135172 -0.0876023 0
0.135172 -0.0857017 0
0.135172 -0.0838012 0
0.135172 -0.0819006 0
0.133758 -0.0788462 0
0.132345 -0.0776923 0
0.130932 -0.0765385 0
0.129519 -0.0753846 0
0.128105 -0.0742308 0
0.126692 -0.0730769 0
0.125279 -0.0719231 0
0.123866 -0.0707692 0
0.122452 -0.0696154 0
0.121039 -0.0684615 0
0.119626 -0.0673077 0
0.118213 -0.0661538 0
0.116799 -0.065 0
0.115386 -0.0638462 0
0.113973 -0.0626923 0
0.11256 -0.0615385 0
0.111146 -0.0603846 0
0.109733 -0.0592308 0
0.10832 -0.0580769 0
0.106907 -0.0569231 0
0.105493 -0.0557692 0
0.10408 -0.0546154 0
0.102667 -0.0534615 0
0.101254 -0.0523077 0
0.0998404 -0.0511538 0
0.0984272 -0.05 0
0.0970139 -0.0488462 0
0.0956006 -0.0476923 0
[...]
CELL_DATA 13116
SCALARS rho float
LOOKUP_TABLE default
0.577531
0.687459
0.37897
0.703918
0.705481
0.685591
0.33761
0.704999
0.523442
0.703844
0.339708
0.310425
0.705158
0.312926
0.329791
0.6917
0.575779
0.689761
0.707628
0.318622
0.571122
0.363642
0.334343
0.694345
0.589232
0.719377
0.703915
0.34201
0.56649
0.635306
1.1395
0.320969
0.545213
0.45044
0.343487
0.575013
0.663125
0.708379
0.943796
0.702724
0.704868
0.704889
0.454177
0.338895
0.708712
0.707997
0.692695
0.707094
0.337336
0.509693
0.70352
0.458981
0.285112
0.568692
0.545817
0.576849
0.337222
0.696132
0.517939
0.30875
0.318546
0.703507
0.685229
1.0106
1.14332
0.325779
0.700402
0.664531
0.707164
1.14388
0.337078
0.55185
0.372881
0.335365
1.13843
0.376904
0.662193
0.707893
0.330155
0.685578
0.678307
0.717861
0.696674
0.707615
0.707984
0.395704
0.321971
0.65493
0.71173
0.352486
0.325641
0.689322
0.699431
0.711676
0.644643
0.599843
0.590986
1.13794
1.1411
0.568318
0.658763
0.657833
0.706084
0.428213
0.695747
0.298756
0.348978
0.495957
0.340094
0.578105
0.521467
0.71102
0.596476
0.679429
0.686287
0.701053
0.316691
0.384276
0.707888
0.702654
0.663362
0.37634
0.707283
0.324831
0.711185
0.434218
0.321454
0.490252
0.339176
0.508821
0.707904
0.702425
0.459612
0.350857
0.441127
0.616558
1.13396
0.705482
0.656753
0.702708
0.65798
0.692937
0.491975
0.66043
0.676644
0.306719
0.347073
0.720245
0.705721
0.704708
0.505347
0.707621
0.707135
0.35342
0.703631
0.709672
0.335511
0.665307
1.13735
0.653542
0.693975
0.336607
0.699738
0.336734
0.384181
0.703489
0.71215
0.689039
0.340923
0.420603
0.39205
1.13824
0.312399
0.480342
0.700615
0.333073
0.358927
0.36898
0.710327
0.681311
0.32542
0.417893
0.543189
0.661481
0.691608
0.519603
0.336464
0.699141
0.69765
0.4525
0.651322
0.719863
1.14426
0.334306
0.713872
0.672003
0.702415
0.703125
0.710427
0.408237
0.428953
0.585727
0.486084
0.333943
0.705653
0.708261
0.465849
0.605598
0.279312
0.336666
0.363851
0.698211
0.336663
0.329338
0.347259
0.354137
0.375054
0.913141
0.71158
0.37953
0.336751
0.699979
0.516943
0.326721
0.506142
0.70356
0.676369
0.341864
0.700519
0.359773
0.704954
0.32265
1.13708
0.539268
1.1373
0.712647
1.13011
0.304754
0.430493
0.650475
1.1349
0.675017
1.13424
1.1287
0.70496
0.358697
0.704699
0.703614
1.1444
0.350135
0.338682
0.708372
0.707909
1.13927
0.707861
0.572376
0.677573
0.338413
0.314715
0.407088
0.281023
0.689912
0.702156
0.663177
0.323277
0.71127
0.324245
0.391442
0.696811
0.350579
0.720669
0.703865
1.1321
0.696322
0.30714
1.1319
0.684356
1.14455
0.706255
0.329338
0.319254
0.336247
0.613533
0.37883
0.35036
0.332561
0.330234
0.702806
0.25209
0.712726
0.704844
0.314239
0.319304
0.318641
0.434037
0.39137
0.654253
0.639448
0.704894
0.349841
0.705432
0.538048
0.318575
0.31487
0.781013
0.70793
0.702191
0.337134
0.681241
0.435051
0.702673
0.704679
0.704484
0.704558
0.335349
0.70009
0.281156
0.696825
0.703631
0.644417
0.327441
0.328554
0.703473
0.313172
0.694208
0.70347
0.400969
0.675028
0.696409
0.312529
0.710968
0.699238
0.284827
0.707879
0.380799
0.524509
0.702745
0.394344
0.666949
0.32357
0.691998
0.329171
1.08438
0.670544
0.703341
0.340674
0.35511
0.708847
0.35387
0.706629
0.701103
0.412846
1.1322
0.344842
0.379787
0.707604
0.510246
0.664722
0.320286
0.336342
0.704224
0.70506
0.348942
0.705133
0.314908
0.301957
0.702125
0.703236
0.504637
0.365232
0.707577
1.13701
0.691556
0.711889
0.700983
0.50915
0.424078
0.261047
0.324242
0.685126
0.325841
0.543772
0.399425
0.330973
0.349314
0.512221
0.124038
0.3526
0.708529
0.317672
0.700853
0.569422
0.707073
0.645338
0.705785
0.381899
0.317471
0.410325
0.396335
0.706603
0.593793
0.706313
0.569335
0.675714
0.616911
0.7178
0.64516
0.633394
0.701529
0.68454
0.686467
0.409358
0.469476
0.574749
0.367572
0.636987
0.578225
0.299373
0.70077
1.13443
0.336673
0.321768
0.333883
0.333749
0.591409
0.344353
0.334709
0.698545
0.329101
0.541694
0.349778
0.693461
0.685666
0.351637
0.354571
0.707405
0.430399
0.355267
0.329448
0.358829
0.340075
0.315797
0.322933
0.361333
0.396426
0.330253
0.656776
0.393383
0.710592
0.40788
0.322617
0.45033
0.301975
0.34992
0.304959
0.705072
0.407717
0.608847
0.507334
0.323896
0.609124
0.712495
0.392746
0.674246
0.624073
0.626839
0.314717
1.13712
0.384913
0.700059
1.1387
0.338988
0.272306
0.695462
0.401503
0.393333
0.674002
0.348687
0.663763
0.678664
0.319437
0.357958
0.312289
0.476099
0.316575
0.263387
0.322674
0.285753
0.703885
0.703865
0.439562
0.571483
0.445937
0.710679
0.361937
0.367015
0.528257
0.339401
0.707299
0.33192
0.364658
0.454959
0.708761
0.711713
0.517874
0.402459
0.276908
0.517147
0.704837
1.13315
0.514632
0.692272
0.688191
0.326907
0.684108
0.535391
0.64881
0.337754
0.406458
0.678033
0.702202
0.642799
0.70386
0.704516
0.713549
0.693017
0.645154
0.706926
0.341357
0.70888
0.318501
0.282298
0.333093
0.703924
0.708436
0.317325
0.707839
0.581112
0.329138
1.09594
0.707944
0.696931
0.341879
0.369693
0.707703
0.358292
0.355233
0.296026
0.32851
0.704782
0.273233
0.703607
0.394054
0.686338
0.703551
0.706241
0.705013
0.359335
0.322964
0.708161
0.705155
0.661616
0.703793
0.703664
0.438549
0.312862
0.34005
0.703852
0.520134
0.334294
0.429586
0.330235
0.702697
0.698997
0.333993
0.36271
0.708492
0.401106
0.708957
0.627877
0.338545
0.359609
0.659086
1.13601
0.337077
0.711257
0.711788
0.708276
0.380421
1.14026
0.336928
1.13674
0.647192
0.36631
0.373009
0.353578
1.13851
0.340298
0.326422
0.389136
0.997404
0.699746
0.327829
0.313769
0.340292
1.06021
0.373569
0.682584
0.308585
0.554405
0.703662
0.407321
0.336426
0.335261
0.440619
0.340337
0.71629
0.340186
0.362104
0.673922
0.294903
0.696928
0.693429
1.13754
0.340737
0.707809
0.700462
0.702256
0.704356
0.703115
0.701757
0.315352
1.13757
0.384917
0.704487
0.326634
0.705005
0.499976
0.332556
1.14443
0.704653
0.372168
0.642724
0.325994
0.340172
0.698455
0.707028
0.329274
0.309016
0.329465
0.311602
0.70278
0.694388
0.377568
0.317856
0.706304
0.703206
0.557403
0.700695
0.698138
0.337144
0.703478
0.398617
0.703482
0.39601
0.587967
0.432865
0.699423
0.666173
0.537139
0.356066
0.340315
0.703998
0.56427
0.567182
0.700456
0.27395
0.686237
0.70369
0.338162
0.466176
0.701483
0.39605
1.14452
0.651464
0.32762
0.703579
0.642341
0.396659
0.696761
0.33569
0.706511
0.358762
0.697857
0.685618
0.340626
0.938895
0.700074
0.707489
0.584059
0.690412
0.538259
0.346382
0.432408
0.319518
0.334119
1.13169
0.509623
0.705469
0.705806
0.335329
0.371871
0.695706
0.703978
0.707259
0.704145
0.321713
0.684266
0.703756
0.319599
0.30799
0.707878
0.708328
0.707359
0.304425
0.543319
0.338858
0.694442
0.695672
1.12899
0.695986
0.33222
0.699859
0.711784
0.698273
0.710506
0.702872
0.380863
0.701054
0.336684
0.673594
0.70333
0.420942
0.677875
1.11782
0.703548
0.434349
0.4148
0.541567
0.633299
0.357257
0.366027
0.349891
0.329976
0.686517
0.685131
1.12805
0.333578
0.334849
0.707603
0.665961
0.285077
0.369443
0.429676
0.667587
0.702038
0.711961
0.690772
0.333915
0.357714
1.13184
0.323916
0.329381
0.347484
0.700629
0.342353
0.359272
0.571628
0.707026
0.708675
0.71555
0.698597
0.319079
0.309691
0.346828
0.516186
0.407937
0.324016
0.663985
0.688219
0.702463
0.706246
0.31073
0.342672
0.7038
0.343392
0.701929
0.687157
1.13722
0.329117
0.359595
0.703307
1.14459
0.598228
0.27936
0.709109
0.686995
0.568619
0.704488
0.704562
1.13178
0.690659
0.32274
0.697557
1.14352
0.652579
0.693579
1.13197
0.709897
1.1352
0.707116
0.359688
0.365048
0.343617
1.13735
0.503489
0.345826
0.696364
0.705918
0.309096
0.642935
0.341498
0.649631
0.500015
0.316852
0.703903
0.693112
0.337257
0.501665
1.13701
0.337672
0.712657
0.328128
0.29635
0.615805
0.582809
0.449893
0.706611
0.350698
0.700203
0.361756
0.308664
0.69686
0.332712
0.601638
0.330188
0.645545
0.587088
1.13606
0.711879
0.247958
0.361851
0.663846
0.459854
0.707015
0.45874
0.5938
0.68748
0.697642
0.470197
0.575333
0.711142
0.702754
0.701603
0.331485
0.364225
0.495675
0.712831
0.703112
0.392616
0.706083
0.599935
0.410129
0.329246
0.646725
0.667268
1.13364
1.13986
0.670144
0.682696
0.89955
0.671053
0.328229
0.639147
0.428309
0.703814
0.70836
0.317546
0.701568
0.706625
0.372716
0.297098
0.314461
1.13189
0.335372
0.612933
0.698895
0.638945
0.312625
0.706444
0.33281
0.544808
1.05485
1.13588
0.662146
1.06086
0.597314
0.677181
0.524048
0.704273
0.35474
0.700736
0.706709
0.443402
1.13495
0.688655
0.33715
0.252449
0.338108
0.704337
0.365814
1.14295
0.343891
0.704916
0.278371
0.4331
0.32378
0.699265
0.703718
0.570615
0.256778
0.600025
0.834118
0.326209
0.558568
0.703977
0.322566
0.57806
1.14451
0.703462
0.702966
0.339011
0.491644
0.707136
0.707398
0.674237
0.361444
0.410554
0.709593
1.13252
1.13573
1.13449
0.561374
0.702898
0.55713
0.703344
0.361042
0.333578
1.135
0.706224
0.945334
0.329633
0.701581
0.575444
0.616149
0.391445
0.3793
0.705076
0.703632
0.530952
0.40971
0.706462
1.13565
0.340628
0.585483
0.690064
0.343607
0.321637
0.264301
0.704573
0.364526
0.34178
0.711243
0.462987
0.703216
0.644769
0.336897
0.3142
0.703735
0.371478
0.348801
1.14475
0.304115
0.368028
0.581799
0.703462
0.706842
0.335027
0.377233
0.343123
0.692479
0.300479
0.707399
0.323995
0.698485
0.70412
0.709154
0.696848
0.696616
0.696599
0.700548
0.705442
0.70799
0.263694
0.345518
0.689627
0.839481
0.453198
0.704145
0.541406
0.980527
0.650917
0.344921
0.701809
0.703901
0.705305
0.354665
0.699692
0.403602
0.707738
0.440824
0.687701
0.705251
0.320256
0.705881
0.33698
0.446147
0.683937
0.35103
0.667359
1.13383
0.703293
0.338484
0.698204
0.331356
0.328741
0.331075
0.348333
0.651405
0.303643
0.657896
1.09551
0.407943
0.33443
0.434444
0.540611
0.623507
0.680669
0.341058
0.315714
0.346086
0.323387
0.248941
0.626876
0.712716
0.342769
1.08476
0.698787
0.276554
0.704002
0.66399
1.0639
0.348879
1.1437
0.688936
0.702587
0.704171
0.323213
0.70651
0.704833
0.70046
0.644591
0.676322
0.343258
0.331884
0.707386
0.490805
0.362625
0.696663
0.332074
0.525866
0.63563
0.705173
0.707235
0.326905
0.702464
0.406684
0.354613
0.678458
0.707318
0.704462
0.705688
0.659159
0.329362
0.704269
0.304019
0.451475
0.703568
1.13758
0.707133
0.350877
0.314111
0.703366
0.321869
0.70769
0.620821
0.409973
0.350001
0.702803
0.330421
0.705238
0.707606
0.660999
0.330699
0.366384
0.482992
0.519903
0.62007
0.4603
0.686146
0.682298
0.71206
1.13177
0.698165
0.298082
0.351925
0.707888
0.682714
0.670006
0.416697
0.334216
0.681365
0.291311
0.698542
0.579421
0.417883
0.706277
0.33037
0.706689
0.39891
0.705306
0.304627
0.708045
0.67999
0.311991
0.71145
0.633347
0.31737
1.12829
0.707773
0.543395
0.300698
0.387643
0.456897
0.700896
0.672383
0.379507
0.540353
0.699921
0.677251
0.314978
0.626749
0.699144
0.395331
0.684608
0.696939
0.296946
0.707748
1.14449
0.37016
0.601359
0.325799
0.653195
0.348577
0.297514
0.701728
0.349237
0.342348
0.248596
0.699436
0.692839
0.41299
0.706681
0.380793
0.675183
0.331319
0.694341
0.399028
0.693718
0.707274
0.657038
1.12987
0.504366
0.679725
1.06502
0.338232
0.610664
0.657309
0.535369
0.697656
0.440549
0.423548
0.704594
0.323043
0.541822
0.347507
0.706203
0.276199
0.334092
0.692898
0.698187
0.320636
0.703541
0.687167
1.13167
0.704164
1.13671
0.323916
0.704081
0.32594
0.336779
0.713023
0.692854
0.704841
0.710021
0.323427
0.351065
0.342772
0.690383
1.09706
0.383498
0.702594
0.323684
0.346729
0.383851
0.712215
0.39333
0.70343
0.70781
0.607762
0.709211
0.708061
0.575759
0.662906
0.392535
0.320309
0.321763
1.13698
1.13842
0.331857
0.628309
0.701929
0.65951
0.338625
0.436508
0.683781
0.296871
0.67851
0.639632
0.328124
0.804625
0.688073
0.348457
0.706766
0.34201
0.704751
0.703567
0.697808
0.279552
0.415678
0.666739
0.309153
0.385561
0.710121
0.323982
0.732117
0.701554
0.720524
0.686821
0.431651
1.14362
0.678013
0.707444
0.345874
0.706556
0.362961
0.300052
0.706836
0.700719
1.09523
0.243073
0.704383
0.606685
1.13616
0.319446
0.312885
0.358223
0.703791
0.341668
0.305704
0.398355
0.638028
0.331336
0.3224
0.396182
0.70783
0.334877
1.1358
0.968891
0.702863
0.339589
0.707295
0.642247
1.08606
0.382434
0.642721
0.349606
0.323601
0.697756
0.320393
0.635359
0.696875
1.13574
0.332825
0.331702
0.369208
0.515182
1.13338
0.25073
0.708321
0.699077
0.689446
0.334772
0.295999
0.334019
0.677942
0.343421
1.13242
0.570172
0.843887
0.709731
0.330478
0.641503
0.31891
0.642398
0.623241
0.703938
0.625501
0.53896
0.647556
0.672588
0.70784
0.32161
0.407919
0.333514
0.686748
0.524558
1.13605
0.332059
0.391429
0.699889
0.707331
1.14124
0.321497
0.702912
0.513307
0.518288
0.674304
0.340402
0.32249
0.302904
0.700017
1.10716
0.641697
0.709032
0.338023
0.703351
0.637887
1.10653
1.10954
0.703731
0.703884
0.669261
0.693367
0.703834
0.339323
0.707914
0.705465
0.695072
0.707882
0.70233
0.612304
0.328387
0.302714
0.657783
0.360538
0.418295
0.702703
0.344146
0.608002
0.707388
0.687618
0.706192
0.339202
0.702824
0.330986
0.332194
0.683159
0.703471
0.706486
0.339948
0.704903
0.706614
0.664137
0.700306
0.364703
0.690585
0.703318
0.685584
0.408648
0.693456
0.343195
0.703126
0.354021
0.330108
0.578652
0.42401
0.703796
0.69808
0.702479
0.39543
0.681042
0.415034
0.333481
0.707602
0.43426
0.356905
0.704956
0.293677
0.461317
0.660345
0.687957
0.704685
0.437591
0.555603
0.648202
0.702999
0.612905
0.704752
0.492083
0.703362
0.708849
0.639353
0.306938
0.331947
0.419246
0.706348
0.337627
0.65142
0.703657
0.599741
0.703645
0.557285
0.669653
0.672772
0.348391
0.703363
0.699065
0.546617
0.699056
0.703634
0.714868
0.751016
0.335247
0.358684
0.70399
0.528978
0.563088
0.703498
0.707895
0.706726
0.70241
0.703599
0.615511
0.682162
0.70391
0.298889
0.308144
0.286788
0.401541
1.13587
0.44543
0.553767
0.706255
0.677633
0.337698
0.706242
0.703896
0.337958
0.369381
1.144
0.707837
0.340368
0.303183
0.297291
1.132
0.720756
0.409465
0.302829
0.326564
0.295763
0.388156
0.363469
0.704744
0.70714
0.692115
0.333387
0.689195
0.619043
0.574098
0.354923
0.319568
0.708924
1.1339
0.354314
0.689518
0.346549
0.693282
0.339237
0.703027
0.314629
0.703084
0.704308
0.34115
0.520532
0.337333
0.704055
0.305881
0.624297
0.331022
0.496738
0.353543
0.619485
0.327285
1.13696
1.14195
0.573645
0.695744
0.358367
0.695334
0.82599
0.704786
0.615339
0.675828
0.32067
0.43221
0.330976
0.699666
0.301531
0.70684
0.511074
0.69174
0.703389
0.493297
0.701751
0.33811
0.328625
0.30485
0.495878
0.581645
0.708069
0.347367
0.351087
0.696695
0.348437
0.329523
0.604531
0.371623
0.357059
0.302482
0.704794
0.629307
0.627065
0.334924
0.69209
0.700063
0.314925
0.308402
0.711564
0.697078
0.640046
0.467208
0.368032
0.344603
0.352662
0.703348
0.658148
0.52004
0.676847
0.273135
0.567489
0.33242
1.14473
0.706897
0.32317
0.317835
0.664051
0.600199
0.705464
0.704208
0.7022
0.70398
0.703497
0.354458
0.36672
0.335204
0.328612
0.575735
1.13712
0.631214
0.322636
0.334542
0.455998
0.320986
0.706914
0.686216
0.344556
0.336402
0.706676
0.337422
0.64826
0.701446
0.693126
0.680888
0.577749
0.354339
0.313718
0.67975
0.324181
0.438401
0.411155
0.834653
0.703031
0.298159
0.328774
1.13258
0.324828
0.699647
0.699794
0.339386
0.37465
0.257656
0.708015
0.31489
1.13358
0.692565
0.604944
0.306081
0.487481
0.707807
0.707385
0.332906
0.703709
0.657939
0.326858
0.707852
0.703392
0.347929
0.355142
0.702799
0.341171
0.327165
0.698068
0.327676
0.707428
0.668569
0.697644
0.657467
0.706382
0.70192
0.71674
0.341432
0.374853
0.672443
0.704293
0.413513
0.704115
0.351369
0.707225
0.705552
0.55749
0.641125
0.432586
0.431597
0.706799
0.707063
0.706988
0.704074
0.706924
1.14324
0.704488
1.13167
0.704085
0.708128
0.702743
1.13436
0.683997
0.318656
0.71629
0.33862
0.70269
0.707992
0.696606
0.696098
0.684462
0.37299
0.357138
0.318138
0.333238
0.691471
0.316169
0.349965
0.681257
0.305199
0.692299
0.352021
0.699341
0.707004
0.348053
0.349894
0.420851
0.704983
0.337341
0.708155
0.705345
0.373435
0.709193
0.520997
0.418061
0.34093
0.313524
0.67796
0.357048
0.703288
0.555668
0.339509
0.707621
0.705524
0.701753
0.347047
0.575365
0.329124
0.690114
0.738311
0.701191
0.363771
0.703508
0.70472
0.706184
0.404452
0.705568
0.354108
0.328166
0.711287
0.440638
0.703471
0.425109
0.361575
0.401394
0.703312
0.340489
0.318492
0.368598
0.502333
1.14452
0.706514
0.298582
0.612879
0.707661
0.513444
0.450354
0.422406
0.523229
0.362952
0.325202
0.708379
0.330487
0.347495
0.704146
0.704018
0.342622
0.688184
0.357913
1.14414
0.342845
0.709339
1.14044
0.685872
0.879331
0.365872
0.330033
0.330936
0.681781
0.704906
0.552937
0.522795
0.344852
0.313391
0.698989
0.340681
0.707331
0.354149
1.13145
0.666538
0.323846
0.33852
0.330657
0.328362
0.33786
0.665519
0.690394
0.315269
0.70742
0.632546
0.344281
0.302639
0.70408
0.354525
0.708058
0.386495
0.687552
0.646388
0.707221
1.14442
0.349666
0.70369
0.702661
0.704755
0.352531
0.672287
0.56338
0.416729
0.705145
0.658955
0.702963
0.694448
0.703419
0.712279
0.704489
0.696771
0.707491
0.340275
0.699914
0.331004
0.464537
0.710856
0.330971
0.704608
0.686525
0.347239
0.704337
0.352841
0.326323
0.713727
0.675441
0.703986
0.341845
0.694983
0.597675
0.342878
0.323329
0.712032
0.699321
0.366606
0.395499
0.69713
0.703932
0.359902
0.637396
0.70432
0.630878
0.329407
0.352322
0.326992
0.646534
0.306612
0.70372
0.685732
0.70029
0.624109
0.707978
0.341208
0.708579
0.584792
0.704727
0.624995
0.33322
0.340593
0.295298
0.694957
0.706536
0.383085
0.644273
0.395714
0.659001
0.702247
0.278831
0.655361
0.704535
0.618125
0.333819
0.320835
0.402099
0.70762
0.703384
0.595172
0.467358
0.707625
0.352169
0.623065
1.13255
0.702907
0.338607
0.595101
0.347085
0.693929
0.299787
0.7076
0.71326
0.334331
0.707821
0.457211
1.13474
0.643098
1.13199
0.70434
0.429198
0.696352
0.705517
0.701439
0.7079
0.425978
1.13277
0.25057
0.706141
0.291407
0.327569
0.283288
0.337974
0.360702
0.324778
0.703531
0.346912
0.313822
0.656917
0.707798
0.691725
0.411131
0.682242
0.67558
0.695349
0.326673
0.625768
0.70048
0.37693
0.398368
0.332062
0.621113
0.457182
0.337241
0.619799
0.313492
1.13831
0.451568
0.317104
0.428944
0.64056
0.401138
0.699323
0.256854
0.526941
0.364457
0.702905
0.379414
0.656987
1.13364
0.69457
0.447666
0.327313
0.703329
0.703711
0.397679
0.328937
0.682653
0.326848
0.692541
0.337349
0.520827
0.292833
0.70096
0.369765
0.703589
0.32582
0.702475
0.708001
0.70731
1.13639
0.251361
0.334937
0.410349
0.717726
0.679855
0.703668
0.585891
0.354468
0.700758
0.418396
0.703804
0.66477
0.423926
0.346242
0.70159
0.708156
0.329769
1.13828
0.702119
0.703396
0.69786
0.268066
0.625109
0.339884
0.704353
0.30086
1.04618
0.707174
0.702484
0.70383
0.341193
0.704279
0.347779
0.351005
0.698997
1.13659
0.53973
0.705508
1.13487
0.352213
0.69096
0.704712
0.70464
0.329014
0.415798
0.675763
0.315684
0.707467
0.703731
0.705862
0.702597
0.29376
0.452642
0.635299
0.334646
0.706764
0.703881
0.4711
0.713258
0.262365
0.680101
0.6917
0.663229
0.712262
0.321711
0.335309
0.708051
0.702634
0.350491
0.363555
0.370519
0.336348
0.304399
0.319374
0.339073
0.361616
0.707934
0.289492
0.33258
0.695999
0.540575
1.13673
0.385574
0.330648
0.707911
0.46049
0.514184
0.703431
0.373534
0.641844
1.1269
0.578992
0.694163
0.3375
0.706839
0.98651
0.373046
0.328556
0.425699
0.684315
0.58073
0.703376
0.695722
0.703373
0.695195
0.410306
0.707848
0.886825
0.708077
0.331865
0.702776
0.64687
0.410182
0.411103
0.261015
0.325311
0.287824
0.583058
0.661894
0.69017
0.324404
0.353471
0.704163
0.309724
0.703705
0.706049
0.705307
0.662808
0.707386
0.379586
0.327622
0.304062
0.575246
0.305296
0.70719
0.300357
0.69817
0.682284
0.707712
0.404885
0.448595
0.424405
0.708091
0.39399
0.33424
0.702758
0.694945
0.647438
0.690609
0.71271
0.692539
0.361935
0.595177
0.705505
0.485077
0.708147
0.703236
0.69702
0.400187
0.383576
0.704679
0.448414
0.630114
0.341713
0.68371
0.707672
0.409419
0.30907
0.686839
0.489831
0.706704
0.702923
0.358854
0.320955
1.14433
0.436931
0.414359
0.710409
0.712029
0.343301
0.709371
1.13782
0.694877
0.363361
0.580941
0.357814
0.713401
0.707131
0.69352
0.687042
1.14112
0.327812
0.380299
0.696619
0.336751
0.575047
0.338936
0.707338
0.302144
0.645753
0.705352
1.1392
0.36399
1.13237
1.14445
0.332142
0.68181
0.310775
0.704881
0.359663
0.315368
0.294583
0.685499
0.709366
0.312444
0.316421
0.720651
0.703651
0.437262
0.683229
0.360233
0.506412
0.329673
0.694483
0.329595
0.659025
0.713011
0.34044
0.436226
0.314154
1.1199
0.376729
0.320264