# vtk DataFile Version 1.0
unstructured grid
ascii
DATASET UNSTRUCTURED_GRID
points 13672 float
0.0796578 -0.059106 0
0.00128732 0.00159165 0
0.00227961 -0.00102548 0
0.0791586 -0.0598787 0
-0.0546216 0.01 0
0.000495206 0.025 0
0.0800549 -0.035 0
0.135172 -0.08 0
-0.0546216 -0.0451168 0
0.000495206 -0.0301168 0
0.0800549 -0.0901168 0
0.135172 -0.135117 0
-0.0546216 -0.0451168 -0.00551168
0.000495206 -0.0301168 -0.00551168
0.0800549 -0.0901168 -0.00551168
0.135172 -0.135117 -0.00551168
0.135172 -0.08 -0.00551168
0.0800549 -0.035 -0.00551168
0.000495206 0.025 -0.00551168
-0.0546216 0.01 -0.00551168
0.00128732 0.00159165 -0.00551168
0.00227961 -0.00102548 -0.00551168
0.0791586 -0.0598787 -0.00551168
0.0796578 -0.059106 -0.00551168
0.00165953 -0.000990923 0
0.00119576 -0.000874076 0
0.000866021 -0.000641801 0
0.000645147 -0.000349912 0
0.00052235 -1.7281e-05 0
0.00049972 0.000348016 0
0.000601632 0.000737716 0
0.000861774 0.0011403 0
0.00157235 0.00183217 0
0.00188647 0.00206725 0
0.00222612 0.00230203 0
0.00258713 0.00254351 0
0.00296826 0.00279524 0
0.00337118 0.00305664 0
0.00379785 0.00332658 0
0.00425045 0.00360349 0
0.00473139 0.00388521 0
0.0052432 0.00416895 0
0.0057881 0.00445204 0
0.00636753 0.00473281 0
0.00698281 0.00500961 0
0.00763526 0.00528058 0
0.00832616 0.00554366 0
0.00905691 0.00579603 0
0.00982918 0.00603333 0
0.0106445 0.00625033 0
0.0115038 0.00644128 0
0.0124073 0.00660297 0
0.0133543 0.00673414 0
0.0143444 0.00683382 0
0.0153769 0.00690031 0
0.0164512 0.00693173 0
0.0175666 0.00692547 0
0.0187219 0.00687822 0
0.0199156 0.00678477 0
0.0211454 0.00663864 0
0.0224084 0.00643275 0
0.0237018 0.00616676 0
0.0250249 0.00584739 0
0.026375 0.00547298 0
0.0277479 0.00503752 0
0.0291386 0.00453545 0
0.0305433 0.0039653 0
0.0319572 0.0033256 0
0.0333681 0.00260019 0
0.034775 0.00179799 0
0.0361793 0.000930615 0
0.0375798 3.12222e-06 0
0.0389689 -0.000988429 0
0.0403357 -0.00205109 0
0.041675 -0.00318283 0
0.0429849 -0.00437751 0
0.0442643 -0.00562904 0
0.0455126 -0.00693089 0
0.0467314 -0.00827518 0
0.0479204 -0.00965638 0
0.0490661 -0.0110799 0
0.0501515 -0.0125519 0
0.0511696 -0.0140695 0
0.0521492 -0.0156071 0
0.0531202 -0.0171411 0
0.0540851 -0.0186663 0
0.0550431 -0.0201798 0
0.0559923 -0.0216793 0
0.0569311 -0.0231626 0
0.0578582 -0.0246273 0
0.0587723 -0.0260715 0
0.0596721 -0.027493 0
0.0605563 -0.02889 0
0.0614241 -0.0302609 0
0.0622742 -0.0316042 0
0.063106 -0.0329183 0
0.0639186 -0.034202 0
0.0647113 -0.0354543 0
0.0654835 -0.0366743 0
0.0662345 -0.0378613 0
0.0669642 -0.0390145 0
0.0676726 -0.0401333 0
0.0683597 -0.0412172 0
0.0690246 -0.0422665 0
0.0696662 -0.0432819 0
0.0702841 -0.0442636 0
0.0708793 -0.0452111 0
0.0714538 -0.0461237 0
0.072009 -0.047001 0
0.0725452 -0.0478434 0
0.0730611 -0.0486524 0
0.073556 -0.0494294 0
0.0740291 -0.0501756 0
0.0744812 -0.0508916 0
0.0749138 -0.0515773 0
0.0753285 -0.0522331 0
0.0757266 -0.0528592 0
0.076109 -0.0534564 0
0.0764753 -0.0540264 0
0.0768243 -0.054571 0
0.0771553 -0.0550919 0
0.0774679 -0.0555901 0
0.0777617 -0.0560669 0
0.0780369 -0.056523 0
0.0782958 -0.0569578 0
0.0785421 -0.0573703 0
0.0787786 -0.0577603 0
0.0790073 -0.0581279 0
0.0792295 -0.058474 0
0.0794462 -0.0587995 0
0.0798803 -0.0594162 0
0.0800272 -0.0596588 0
0.0800357 -0.0598891 0
0.0799275 -0.0600784 0
0.0797205 -0.0601773 0
0.0794593 -0.0601051 0
0.0789155 -0.0596491 0
0.0786707 -0.0593963 0
0.0784111 -0.0591319 0
0.0781372 -0.0588542 0
0.0778566 -0.0585548 0
0.0775715 -0.0582308 0
0.0772803 -0.0578828 0
0.0769832 -0.0575099 0
0.0766822 -0.0571097 0
0.0763801 -0.0566796 0
0.0760759 -0.0562196 0
0.0757623 -0.0557337 0
0.0754359 -0.0552232 0
0.0750951 -0.0546879 0
0.0747379 -0.054128 0
0.0743626 -0.0535435 0
0.0739688 -0.0529338 0
0.0735559 -0.0522981 0
0.0731238 -0.0516357 0
0.0726718 -0.050946 0
0.0721991 -0.0502288 0
0.0717046 -0.049484 0
0.0711872 -0.0487117 0
0.0706461 -0.047912 0
0.0700804 -0.0470849 0
0.0694892 -0.0462308 0
0.0688718 -0.0453499 0
0.0682271 -0.0444431 0
0.0675544 -0.043511 0
0.0668527 -0.0425546 0
0.0661215 -0.0415748 0
0.06536 -0.040573 0
0.0645676 -0.0395504 0
0.0637439 -0.0385087 0
0.0628887 -0.0374493 0
0.062002 -0.0363741 0
0.0610838 -0.0352847 0
0.0601345 -0.0341831 0
0.0591547 -0.033071 0
0.0581456 -0.0319502 0
0.0571083 -0.0308224 0
0.0560444 -0.0296893 0
0.0549562 -0.028552 0
0.053845 -0.0274126 0
0.0527113 -0.0262746 0
0.051554 -0.0251427 0
0.0503724 -0.0240222 0
0.0491675 -0.0229164 0
0.047941 -0.0218282 0
0.0466955 -0.0207597 0
0.0454337 -0.0197126 0
0.0441592 -0.0186878 0
0.0428751 -0.0176863 0
0.0415841 -0.0167097 0
0.0402878 -0.0157609 0
0.0389879 -0.0148428 0
0.0376864 -0.0139575 0
0.0363853 -0.013107 0
0.0350871 -0.0122931 0
0.0337942 -0.0115164 0
0.0325095 -0.0107772 0
0.0312357 -0.0100756 0
0.0299758 -0.00941024 0
0.0287337 -0.00877784 0
0.0275126 -0.00817571 0
0.0263139 -0.00760375 0
0.0251376 -0.00706528 0
0.0239829 -0.0065649 0
0.0228537 -0.00609619 0
0.0217522 -0.00565563 0
0.0206795 -0.00524226 0
0.0196364 -0.00485507 0
0.0186233 -0.00449318 0
0.0176408 -0.00415577 0
0.016689 -0.00384204 0
0.0157682 -0.00355115 0
0.0148783 -0.00328218 0
0.0140192 -0.00303468 0
0.0131906 -0.00280795 0
0.0123925 -0.00260016 0
0.0116246 -0.00241012 0
0.0108864 -0.00223769 0
0.0101774 -0.00208212 0
0.00949701 -0.00194206 0
0.00884483 -0.0018163 0
0.0082202 -0.0017039 0
0.00762247 -0.00160391 0
0.00705097 -0.00151528 0
0.006505 -0.00143697 0
0.0059838 -0.00136806 0
0.00548662 -0.00130772 0
0.00501265 -0.00125519 0
0.00456114 -0.00120954 0
0.00413136 -0.00116914 0
0.00372257 -0.00113251 0
0.00333398 -0.00109853 0
0.00296466 -0.00106798 0
0.00261363 -0.0010431 0
-0.052721 -0.0445996 0
-0.0508204 -0.0440823 0
-0.0489199 -0.0435651 0
-0.0470193 -0.0430478 0
-0.0451187 -0.0425306 0
-0.0432181 -0.0420134 0
-0.0413175 -0.0414961 0
-0.039417 -0.0409789 0
-0.0375164 -0.0404616 0
-0.0356158 -0.0399444 0
-0.0337152 -0.0394271 0
-0.0318146 -0.0389099 0
-0.0299141 -0.0383927 0
-0.0280135 -0.0378754 0
-0.0261129 -0.0373582 0
-0.0242123 -0.0368409 0
-0.0223117 -0.0363237 0
-0.0204112 -0.0358065 0
-0.0185106 -0.0352892 0
-0.01661 -0.034772 0
-0.0147094 -0.0342547 0
-0.0128088 -0.0337375 0
-0.0109083 -0.0332202 0
-0.00900769 -0.032703 0
-0.00710711 -0.0321858 0
-0.00520653 -0.0316685 0
-0.00330595 -0.0311513 0
-0.00140537 -0.030634 0
0.00190689 -0.0299614 0
0.00332271 -0.0298498 0
0.00474133 -0.0297825 0
0.00616136 -0.0297597 0
0.0075814 -0.0297814 0
0.00900007 -0.0298477 0
0.010416 -0.0299583 0
0.0118278 -0.0301127 0
0.0132342 -0.0303103 0
0.0146339 -0.0305504 0
0.0160259 -0.0308322 0
0.0174091 -0.0311546 0
0.0187824 -0.0315166 0
0.020145 -0.031917 0
0.0214961 -0.0323546 0
0.0228351 -0.032828 0
0.0241613 -0.0333361 0
0.0254744 -0.0338774 0
0.0267738 -0.0344507 0
0.0280592 -0.0350545 0
0.0293306 -0.0356877 0
0.0305875 -0.0363488 0
0.0318301 -0.0370367 0
0.0330581 -0.0377501 0
0.0342717 -0.0384879 0
0.0354708 -0.0392489 0
0.0366556 -0.0400321 0
0.0378262 -0.0408363 0
0.0389828 -0.0416607 0
0.0401254 -0.0425042 0
0.0412543 -0.0433659 0
0.0423698 -0.0442451 0
0.043472 -0.0451408 0
0.0445612 -0.0460523 0
0.0456375 -0.0469789 0
0.0467013 -0.0479199 0
0.0477529 -0.0488746 0
0.0487923 -0.0498424 0
0.04982 -0.0508227 0
0.0508362 -0.051815 0
0.051841 -0.0528187 0
0.0528348 -0.0538333 0
0.0538178 -0.0548584 0
0.0547903 -0.0558935 0
0.0557524 -0.0569382 0
0.0567045 -0.0579922 0
0.0576467 -0.0590549 0
0.0585792 -0.0601261 0
0.0595024 -0.0612055 0
0.0604163 -0.0622926 0
0.0613212 -0.0633873 0
0.0622174 -0.0644891 0
0.0631049 -0.0655979 0
0.0639841 -0.0667134 0
0.064855 -0.0678353 0
0.0657179 -0.0689633 0
0.0665729 -0.0700974 0
0.0674202 -0.0712372 0
0.06826 -0.0723826 0
0.0690925 -0.0735333 0
0.0699178 -0.0746892 0
0.070736 -0.0758501 0
0.0715473 -0.0770159 0
0.0723518 -0.0781863 0
0.0731498 -0.0793612 0
0.0739412 -0.0805405 0
0.0747264 -0.081724 0
0.0755053 -0.0829116 0
0.0762781 -0.0841033 0
0.0770449 -0.0852987 0
0.0778059 -0.0864979 0
0.0785611 -0.0877007 0
0.0793108 -0.088907 0
0.0814681 -0.0912706 0
0.0828814 -0.0924245 0
0.0842946 -0.0935783 0
0.0857079 -0.0947322 0
0.0871211 -0.095886 0
0.0885344 -0.0970399 0
0.0899476 -0.0981937 0
0.0913609 -0.0993476 0
0.0927741 -0.100501 0
0.0941874 -0.101655 0
0.0956006 -0.102809 0
0.0970139 -0.103963 0
0.0984272 -0.105117 0
0.0998404 -0.106271 0
0.101254 -0.107424 0
0.102667 -0.108578 0
0.10408 -0.109732 0
0.105493 -0.110886 0
0.106907 -0.11204 0
0.10832 -0.113194 0
0.109733 -0.114348 0
0.111146 -0.115501 0
0.11256 -0.116655 0
0.113973 -0.117809 0
0.115386 -0.118963 0
0.116799 -0.120117 0
0.118213 -0.121271 0
0.119626 -0.122424 0
0.121039 -0.123578 0
0.122452 -0.124732 0
0.123866 -0.125886 0
0.125279 -0.12704 0
0.126692 -0.128194 0
0.128105 -0.129348 0
0.129519 -0.130501 0
0.130932 -0.131655 0
0.132345 -0.132809 0
0.133758 -0.133963 0
0.135172 -0.133216 0
0.135172 -0.131316 0
0.135172 -0.129415 0
0.135172 -0.127514 0
0.135172 -0.125614 0
0.135172 -0.123713 0
0.135172 -0.121813 0
0.135172 -0.119912 0
0.135172 -0.118012 0
0.135172 -0.116111 0
0.135172 -0.11421 0
0.135172 -0.11231 0
0.135172 -0.110409 0
0.135172 -0.108509 0
0.135172 -0.106608 0
0.135172 -0.104708 0
0.135172 -0.102807 0
0.135172 -0.100906 0
0.135172 -0.0990058 0
0.135172 -0.0971052 0
0.135172 -0.0952046 0
0.135172 -0.0933041 0
0.135172 -0.0914035 0
0.135172 -0.0895029 0
0.135172 -0.0876023 0
0.135172 -0.0857017 0
0.135172 -0.0838012 0
0.135172 -0.0819006 0
0.133758 -0.0788462 0
0.132345 -0.0776923 0
0.130932 -0.0765385 0
0.129519 -0.0753846 0
0.128105 -0.0742308 0
0.126692 -0.0730769 0
0.125279 -0.0719231 0
0.123866 -0.0707692 0
0.122452 -0.0696154 0
0.121039 -0.0684615 0
0.119626 -0.0673077 0
0.118213 -0.0661538 0
0.116799 -0.065 0
0.115386 -0.0638462 0
0.113973 -0.0626923 0
0.11256 -0.0615385 0
0.111146 -0.0603846 0
0.109733 -0.0592308 0
0.10832 -0.0580769 0
0.106907 -0.0569231 0
0.105493 -0.0557692 0
0.10408 -0.0546154 0
0.102667 -0.0534615 0
0.101254 -0.0523077 0
0.0998404 -0.0511538 0
0.0984272 -0.05 0
0.0970139 -0.0488462 0
0.0956006 -0.0476923 0
[...]
CELL_DATA 13116
SCALARS rho float
LOOKUP_TABLE default
0.5977
0.680532
0.503709
0.687598
0.689803
0.680865
0.382906
0.691922
0.5977
0.693057
0.368708
0.508823
0.689967
0.450201
0.467298
0.680859
0.5977
0.597563
0.680816
0.367897
0.5977
0.510235
0.489311
0.661749
0.5977
0.695545
0.693173
0.563783
0.5977
0.5977
0.668708
0.496432
0.5977
0.597699
0.388674
0.5977
0.5977
0.68081
0.68088
0.691908
0.680893
0.691164
0.5977
0.479018
0.680836
0.681048
0.69467
0.680461
0.497931
0.5977
0.689946
0.5977
0.410424
0.5977
0.5977
0.5977
0.476643
0.679041
0.5977
0.483254
0.453754
0.69084
0.680068
0.680856
0.674095
0.429012
0.680766
0.5977
0.681083
0.679573
0.466634
0.5977
0.515316
0.456871
0.8887
0.434455
0.597702
0.687278
0.370398
0.597703
0.596903
0.6977
0.698887
0.680782
0.69028
0.582965
0.394623
0.5977
0.698092
0.368019
0.506437
0.681339
0.701104
0.696085
0.5977
0.5977
0.5977
0.685099
0.743273
0.5977
0.5977
0.597703
0.680851
0.597698
0.703569
0.492057
0.563032
0.5977
0.526723
0.5977
0.5977
0.697733
0.5977
0.597693
0.597705
0.680523
0.415524
0.584845
0.687794
0.690095
0.5977
0.528881
0.681082
0.506743
0.696224
0.597711
0.400442
0.5977
0.504058
0.5977
0.688368
0.680529
0.597708
0.502433
0.597686
0.5977
1.12693
0.689447
0.5977
0.690557
0.5977
0.6906
0.5977
0.5977
0.624313
0.466398
0.38635
0.697221
0.688645
0.690939
0.5977
0.680791
0.680489
0.398702
0.691717
0.692993
0.502605
0.5977
0.700809
0.5977
0.658308
0.368763
0.689901
0.505373
0.535183
0.69034
0.69632
0.59769
0.386476
0.593761
0.584883
1.12647
0.464119
0.5977
0.680832
0.48891
0.481564
0.513979
0.697327
0.680978
0.367945
0.59734
0.5977
0.5977
0.680789
0.5977
0.398298
0.680699
0.699458
0.5977
0.5977
0.697259
0.680798
0.51288
0.696128
0.68074
0.694921
0.680489
0.698204
0.597699
0.597699
0.5977
0.597699
0.463728
0.686869
0.680918
0.5977
0.5977
0.474208
0.367753
0.431374
0.680935
0.509817
0.367592
0.367639
0.403352
0.580284
0.680663
0.696254
0.578728
0.469322
0.680758
0.5977
0.368001
0.5977
0.69138
0.600545
0.568257
0.680821
0.570353
0.692489
0.497783
0.68074
0.5977
0.786422
0.695004
0.680909
0.505965
0.597713
0.5977
0.998118
0.680754
1.12682
0.680622
0.693559
0.486594
0.689345
0.691627
0.719722
0.375379
0.501785
0.680844
0.687375
0.680174
0.681045
0.5977
0.5977
0.368036
0.520593
0.597712
0.471996
0.702234
0.694579
0.597702
0.379497
0.680657
0.411301
0.582687
0.703912
0.374817
0.696572
0.690235
1.08947
0.679017
0.503376
1.10604
0.589204
0.693999
0.687474
0.368363
0.387152
0.514547
0.5977
0.524733
0.518138
0.554903
0.545808
0.680986
0.419213
0.697049
0.689685
0.388297
0.367928
0.406328
0.597711
0.538255
0.5977
0.5977
0.698947
0.372489
0.680835
0.5977
0.527059
0.482245
0.680788
0.687287
0.680581
0.402966
0.680713
0.597699
0.680678
0.690631
0.691155
0.690532
0.516106
0.680686
0.447699
0.681023
0.692416
0.5977
0.368079
0.553383
0.69106
0.406641
0.700685
0.691035
0.594777
0.5977
0.696389
0.396017
0.680824
0.701102
0.446245
0.687715
0.581079
0.5977
0.696431
0.582728
0.5977
0.379217
0.587263
0.557597
0.680532
0.662427
0.694911
0.563371
0.56657
0.687629
0.395361
0.686475
0.699679
0.596675
1.12671
0.395653
0.495138
0.679469
0.5977
0.5977
0.392317
0.506032
0.689133
0.689809
0.381596
0.689461
0.429906
0.496769
0.68226
0.695304
0.5977
0.367787
0.686024
0.667344
0.680745
0.679697
0.686729
0.5977
0.594993
0.463407
0.368042
0.680755
0.368081
0.5977
0.594443
0.509776
0.563268
0.5977
0.512987
0.390752
0.679784
0.515397
0.691968
0.5977
0.680873
0.5977
0.68924
0.499
0.384861
0.597699
0.580055
0.67956
0.5977
0.680917
0.5977
0.626306
0.5977
0.698142
0.5977
0.5977
0.685312
0.597701
0.680869
0.597713
0.5977
0.5977
0.501155
0.5977
0.5977
0.408269
0.680801
1.10263
0.518189
0.367913
0.367687
0.390053
0.5977
0.427827
0.512779
0.680819
0.428293
0.5977
0.367655
0.6808
0.663793
0.566662
0.502796
0.679519
0.597695
0.36775
0.389451
0.367855
0.529443
0.385436
0.367882
0.526163
0.58498
0.367308
0.597704
0.561579
0.698548
0.597704
0.506017
0.59705
0.469627
0.367946
0.471895
0.691914
0.591475
0.5977
0.5977
0.422889
0.5977
0.69767
0.582136
0.5977
0.5977
0.5977
0.384178
0.788376
0.584528
0.687576
0.669508
0.529822
0.416798
0.699138
0.585451
0.582229
0.694454
0.562537
0.5977
0.6683
0.367927
0.476924
0.45136
0.597699
0.478177
0.432389
0.463619
0.445071
0.68912
0.69037
0.597711
0.5977
0.597709
0.696347
0.571924
0.420929
0.5977
0.532483
0.680823
0.547372
0.572189
0.597709
0.680776
0.696776
0.5977
0.595105
0.411846
0.5977
0.691475
0.680839
0.5977
0.711338
0.703813
0.367442
0.652903
0.5977
0.5977
0.554918
0.536192
0.597704
0.696843
0.5977
0.692694
0.699339
0.696237
0.616391
0.5977
0.680838
0.368069
0.680753
0.560736
0.480986
0.367815
0.688696
0.681083
0.549077
0.696215
0.5977
0.368048
0.680981
0.684266
0.680331
0.560391
0.416157
0.687611
0.367562
0.367849
0.478104
0.367567
0.681088
0.439778
0.687615
0.556216
0.680596
0.689945
0.68081
0.689944
0.367704
0.367974
0.681007
0.692287
0.5977
0.689566
0.691831
0.59435
0.391777
0.540107
0.680639
0.5977
0.367708
0.597603
0.50917
0.694884
0.680978
0.552924
0.515527
0.699103
0.584443
0.680145
0.5977
0.498262
0.570073
0.5977
1.02864
0.509343
0.696887
0.696269
0.681055
0.421604
1.12596
0.467538
0.845338
0.5977
0.367855
0.578994
0.519979
0.778567
0.527299
0.378012
0.587668
0.681004
0.68065
0.375508
0.517386
0.367947
0.681016
0.520251
0.680737
0.463707
0.5977
0.691892
0.597705
0.50144
0.493337
0.594817
0.54383
0.696789
0.412311
0.434818
0.680502
0.433566
0.68079
0.700197
0.719577
0.367661
0.681049
0.696692
0.693912
0.68071
0.696871
0.679584
0.483211
0.680573
0.58011
0.681122
0.368856
0.693106
0.5977
0.393367
0.665809
0.688045
0.401025
0.5977
0.505572
0.462585
0.680895
0.690108
0.509896
0.472821
0.372321
0.483774
0.695708
0.659102
0.417098
0.368747
0.686479
0.691014
0.5977
0.695663
0.680983
0.368216
0.693918
0.587619
0.689911
0.592677
0.5977
0.595122
0.680735
0.5977
0.5977
0.568175
0.55487
0.680461
0.5977
0.5977
0.694732
0.465217
0.643124
0.691799
0.572737
0.5977
0.695187
0.590875
0.676236
0.5977
0.552406
0.690535
0.5977
0.504979
0.680574
0.512714
0.699253
0.456343
0.680863
0.679917
0.555574
0.680869
0.691082
0.687534
0.5977
0.679848
0.5977
0.545969
0.5977
0.512147
0.454786
1.1267
0.5977
0.679927
0.688503
0.367889
0.549971
0.680232
0.691796
0.679552
0.690453
0.368043
0.5977
0.691325
0.367803
0.513826
0.687851
0.680769
0.69969
0.488495
0.5977
0.585294
0.681135
0.707458
0.68098
0.680849
0.36773
0.680695
0.697497
0.699573
0.694692
0.681025
0.579553
0.686426
0.367704
0.591804
0.691196
0.594333
0.668729
0.680956
0.689865
0.5977
0.597714
0.5977
0.5977
0.367588
0.367814
0.378154
0.367389
0.680381
0.629689
0.68069
0.549254
0.367355
0.680969
0.5977
0.443059
0.552378
0.596854
0.597704
0.680386
0.681615
0.595673
0.367882
0.367704
1.12636
0.505653
0.367653
0.417088
0.680823
0.585429
0.367725
0.5977
0.680528
0.697651
0.680951
0.680665
0.417721
0.447206
0.374411
0.5977
0.591022
0.50043
0.5977
0.595063
0.700098
0.680998
0.492329
0.367599
0.692747
0.367835
0.680981
0.680125
0.65935
0.509925
0.367978
0.700009
0.665321
0.5977
0.442654
0.681678
0.680897
0.5977
0.690756
0.691132
1.12501
0.710866
0.36812
0.680713
0.675729
0.5977
0.68057
1.12664
0.6982
1.12171
0.681328
0.432508
0.45822
0.367669
0.659184
0.5977
0.367794
0.680658
0.686488
0.506612
0.5977
0.582427
0.5977
0.5977
0.503133
0.690776
0.58118
0.367647
0.597699
0.665645
0.480803
0.696193
0.438581
0.489416
0.5977
0.5977
0.597173
0.680776
0.382621
0.6898
0.472987
0.496975
0.680785
0.367731
0.5977
0.507461
0.5977
0.5977
1.12078
0.696393
0.462444
0.439477
0.597699
0.5977
0.679505
0.5977
0.5977
0.680771
0.702333
0.5977
0.5977
0.696711
0.69457
0.680668
0.559354
0.367838
0.597699
0.696255
0.696277
0.592195
0.680912
0.5977
0.597698
0.508643
0.5977
0.597703
1.12678
0.80724
0.595144
0.592594
0.681006
0.597705
0.500901
0.5977
0.596986
0.690452
0.680839
0.544216
0.697284
0.689042
0.467012
0.496423
0.404062
1.12677
0.368621
0.5977
0.680652
0.5977
0.532993
0.680938
0.463165
0.5977
0.680844
0.680628
0.5977
0.68107
0.5977
0.59754
0.5977
0.681132
0.459467
0.680243
0.680793
0.5977
1.09948
0.67594
0.517689
0.465374
0.484761
0.690799
0.367774
1.1115
0.374542
0.692327
0.419762
0.594805
0.484002
0.685822
0.690057
0.5977
0.536585
0.5977
0.680626
0.367703
0.5977
0.690705
0.499353
0.5977
0.671056
0.691167
0.681052
0.52944
0.5977
0.684192
0.680889
0.592116
0.367902
0.597699
0.680424
1.12659
1.03201
1.12677
0.5977
0.680488
0.5977
0.691711
0.367832
0.466442
1.12656
0.688947
0.681012
0.435448
0.680219
0.5977
0.5977
0.455733
0.577706
0.689462
0.688961
0.5977
0.589329
0.681009
1.05
0.380867
0.5977
0.593876
0.382058
0.505498
0.450031
0.69769
0.523458
0.368085
0.680275
0.5977
0.693955
0.5977
0.388628
0.388681
0.689993
0.46035
0.428385
0.665452
0.508556
0.575861
0.5977
0.696897
0.680613
0.367387
0.595397
0.369867
0.689358
0.494977
0.680851
0.430974
0.680838
0.695575
0.680788
0.708382
0.680333
0.707139
0.680542
0.690121
0.680701
0.435278
0.368364
0.680924
0.680925
0.597072
0.698571
0.5977
0.680883
0.5977
0.561141
0.681712
0.69153
0.680662
0.378906
0.680531
0.533212
0.680652
0.594595
0.597689
0.680758
0.504664
0.679629
0.367755
0.597699
0.679396
0.422168
0.5977
1.12683
0.694119
0.393967
0.680748
0.367532
0.509349
0.510293
0.367674
0.5977
0.468187
0.5977
0.68075
0.589322
0.514255
0.594091
0.5977
0.5977
0.642584
0.367722
0.413215
0.378541
0.48203
0.535246
0.5977
0.698162
0.568013
0.680725
0.680641
0.446807
0.691015
0.5977
0.680776
0.371004
0.92248
0.680159
0.687079
0.691752
0.477712
0.680818
0.688056
0.680605
0.5977
0.680934
0.520407
0.511034
0.680797
0.5977
0.367899
0.680772
0.498959
0.5977
0.5977
0.69952
0.69957
0.505925
0.699284
0.597708
0.379053
0.5977
0.687269
0.689625
0.689211
0.5977
0.509831
0.689917
0.480688
0.596757
0.690255
0.772045
0.681275
0.375391
0.52374
0.691192
0.528417
0.687662
0.5977
0.594021
0.543052
0.691555
0.505942
0.68076
0.687628
0.597701
0.506988
0.462466
0.597699
0.5977
0.5977
0.5977
0.68047
0.662392
0.69768
1.12676
0.680925
0.396831
0.539592
0.687135
0.680848
0.597518
0.592279
0.457546
0.619573
0.460151
0.68101
0.5977
0.589115
0.680062
0.367462
0.695882
0.505513
0.689845
0.499383
0.681048
0.681025
0.505673
0.696449
0.5977
0.511169
0.680675
0.680452
0.5977
0.466008
0.588752
0.597699
0.696011
0.585123
0.55806
0.5977
0.680256
0.680552
0.534031
0.5977
0.681015
0.583492
0.680503
0.681032
0.542066
0.681039
0.679862
0.497159
0.5977
0.381778
0.5977
0.388154
0.490385
0.6964
0.368022
0.368071
0.457913
0.680699
0.68063
0.597711
0.681009
0.583796
0.591937
0.367486
0.680801
0.594889
0.680827
0.680793
0.5977
0.680874
0.5977
0.680855
0.680672
0.537524
0.5977
0.5977
0.5977
0.680996
0.595258
0.597702
0.689921
0.367945
0.5977
0.586155
0.680868
0.43374
0.511366
0.583906
0.680804
0.367895
0.690858
0.597435
1.1266
0.690554
0.857329
0.368126
0.690258
0.367662
0.50944
0.69666
0.653624
0.691282
0.698796
0.494532
0.392996
0.371438
0.681615
0.680642
0.58552
0.696921
0.427693
0.393363
0.440329
0.697605
0.590552
0.690528
0.680298
0.5977
0.691192
0.680897
0.5977
0.5977
0.582088
0.509207
0.367899
0.858471
0.958992
0.440719
0.5977
0.69675
0.5977
0.527334
0.5977
0.669448
0.541869
0.613196
0.5977
0.367563
0.681187
0.681196
0.367974
0.680608
0.423894
0.680013
0.694602
0.680364
0.463997
0.58879
0.5977
0.546216
0.582355
0.679931
0.551239
0.681291
0.680824
0.696792
0.597673
0.597724
0.661055
0.5977
0.680795
0.564194
0.68852
0.486361
0.458917
0.679825
0.680544
0.68096
0.530158
0.680826
0.5977
0.895523
0.418284
0.42802
0.367756
0.689298
0.377489
0.433163
0.498919
0.5977
0.429347
0.543233
0.583417
0.681015
0.367863
0.680955
0.680867
0.692737
0.398774
0.680694
0.5977
0.680767
0.579116
0.5977
0.389793
0.367904
0.680816
0.367861
0.5977
0.680589
1.12457
0.367764
0.554181
0.396943
0.5977
1.12713
0.531578
0.680798
0.68069
0.594308
0.368007
0.477394
0.558471
0.702394
0.36762
1.12689
0.5977
0.680868
0.680876
0.368031
0.5977
0.485769
0.5977
0.5977
0.692445
0.5977
0.5977
0.5977
0.595842
0.687273
0.373416
0.597712
0.436133
0.597707
0.5977
0.799512
0.367749
0.587217
0.685686
0.680706
0.679349
0.367902
0.691766
0.5977
0.5977
0.602815
0.53691
0.367871
0.54335
0.680696
0.680838
0.5977
0.696739
0.557225
0.694476
0.5977
0.680817
0.68069
0.693887
0.691412
0.680694
0.674897
0.689385
0.5328
0.680603
0.689362
0.680998
0.681111
0.680409
0.5977
0.368043
0.502029
0.5977
0.367563
0.595357
0.692232
0.451298
0.5977
0.680874
0.68098
0.680378
0.52426
0.692502
0.51166
0.452952
0.680711
0.680787
0.680959
0.407278
0.689125
0.680761
0.597705
0.680593
0.499475
0.680985
0.691014
0.679998
0.597703
0.632331
0.36805
0.687302
0.430351
0.368042
0.5977
0.59636
0.691033
0.688053
0.681044
0.49172
0.680924
0.597708
0.45711
0.698292
0.593222
0.367973
0.680834
0.512477
0.597688
0.5977
0.678876
0.700987
0.594519
0.5977
0.5977
0.680676
0.5977
0.689573
0.5977
0.690587
0.696914
0.5977
0.488196
0.369799
0.59495
0.688737
0.518464
0.5977
0.690505
0.5977
0.680715
0.5977
0.5977
0.597708
0.371455
0.691655
0.700272
0.5977
0.700875
0.690393
0.696922
0.680591
0.367959
0.44301
0.681364
0.5977
0.5977
0.690523
0.68065
0.680867
0.697961
0.69447
0.5977
0.663161
0.692549
0.44691
0.516464
0.438608
0.572642
1.10366
0.59771
0.5977
0.680576
0.597602
0.517887
0.680255
0.68715
0.413039
0.574882
1.05487
0.682634
0.54577
0.490904
0.479373
1.12678
0.696137
0.597699
0.395949
0.367568
0.502477
0.581759
0.367717
0.693219
0.680671
0.67887
0.375011
0.681326
0.5977
0.5977
0.553591
0.367915
0.697967
1.127
0.367691
0.680727
0.367941
0.61159
0.531871
0.692548
0.376839
0.695219
0.689782
0.392938
0.5977
0.532473
0.690746
0.510039
0.5977
0.49425
0.5977
0.387983
0.5977
0.367696
0.680784
0.680771
0.5977
0.680836
0.5583
0.680752
0.680785
0.689604
0.5977
0.591247
0.367869
0.5977
0.437405
0.699426
0.54377
0.688986
0.5977
0.613028
0.690775
0.5977
0.686525
0.458645
0.447476
0.445629
0.5977
0.5977
0.680848
0.371206
0.512359
0.680784
0.572664
0.503821
0.5977
0.577183
0.367719
0.49978
0.69111
0.5977
0.5977
0.479953
0.681446
0.680807
0.499278
0.558282
0.697739
0.680689
0.5977
0.597706
0.577964
0.564482
0.394136
0.695519
0.597701
0.5977
0.5977
0.47898
0.5977
0.367519
0.673576
0.688571
0.367743
0.525406
0.597703
0.5977
0.68983
0.689168
0.694077
0.6913
0.690282
0.410052
0.5066
0.441291
0.368086
0.5977
0.671537
0.5977
0.367873
0.36774
0.5977
0.503764
0.680809
0.676893
0.367571
0.552601
0.680866
0.509963
0.5977
0.688826
0.690903
0.680644
0.5977
0.367912
0.384063
0.658041
0.367693
0.597698
0.597712
0.680747
0.679701
0.536541
0.367621
1.12672
0.367781
0.680827
0.700036
0.367935
0.469674
0.416335
0.680959
0.4192
1.12689
0.680508
0.5977
0.496445
0.597701
0.68729
0.681019
0.377103
0.68085
0.5977
0.512093
0.685565
0.68942
0.373299
0.368051
0.700175
0.368049
0.368139
0.680786
0.562574
0.680873
0.5977
0.706934
0.5977
0.688525
0.680783
0.680809
0.372952
0.576355
0.597376
0.681358
0.588189
0.690726
0.563298
0.68007
0.700597
0.5977
0.5977
0.5977
0.597602
0.680169
0.687388
0.697919
0.690024
0.680669
1.12428
0.690906
1.12672
0.696847
0.698085
0.693935
1.12713
0.68076
0.51348
0.697549
0.531564
0.689355
0.680334
0.680067
0.707526
0.597705
0.461891
0.3961
0.549246
0.373786
0.68026
0.371862
0.373254
0.591734
0.490891
0.6721
0.390512
0.681062
0.680812
0.368049
0.571839
0.592109
0.689514
0.474885
0.680897
0.679675
0.403385
0.697982
0.5977
0.597716
0.556068
0.500166
0.5977
0.368037
0.691947
0.5977
0.539692
0.680918
0.680971
0.694451
0.367891
0.5977
0.494136
0.681433
0.680735
0.67996
0.367665
0.681439
0.689382
0.698503
0.595096
0.689351
0.367978
0.367347
0.694561
0.597711
0.691851
0.5977
0.367732
0.58629
0.701545
0.531122
0.514287
0.459619
0.5977
0.774993
0.680622
0.447896
0.5977
0.680738
0.5977
0.5977
0.589475
0.5977
0.367942
0.36776
0.680736
0.367429
0.367636
0.690531
0.68858
0.416951
0.597705
0.413122
1.10266
0.570173
0.697772
0.680047
0.597708
0.681107
0.482069
0.367405
0.505589
0.680763
0.698596
0.5977
0.5977
0.568712
0.547855
0.680616
0.371329
0.680814
0.568443
0.680806
0.5977
0.391079
0.489698
0.367662
0.367674
0.505196
0.597705
0.679086
0.375094
0.680838
0.5977
0.546592
0.46068
0.690179
0.367833
0.681021
0.580218
0.597603
0.5977
0.680767
0.733932
0.449242
0.694203
0.689368
0.69094
0.367958
0.590683
0.5977
0.592603
0.689268
0.5977
0.692896
0.680683
0.690583
0.695025
0.690427
0.680968
0.680558
0.368007
0.697604
0.367708
0.5977
0.679887
0.503632
0.679669
0.708757
0.506607
0.699851
0.368011
0.507295
0.696323
0.66824
0.688682
0.36765
0.67927
0.5977
0.563828
0.375699
0.696812
0.680938
0.572971
0.471855
0.680815
0.689449
0.367916
0.5977
0.689661
0.5977
0.408079
0.367959
0.49957
0.5977
0.501125
0.6806
0.597705
0.680724
0.5977
0.680967
0.367702
0.699016
0.5977
0.689511
0.5977
0.514101
0.374978
0.484677
0.690688
0.680157
0.578661
0.5977
0.596857
0.5977
0.685903
0.468942
0.5977
0.680449
0.5977
0.379723
0.384772
0.577494
0.68718
0.691877
0.5977
0.597706
0.680923
0.367706
0.5977
1.03647
0.681227
0.383037
0.5977
0.511643
0.705028
0.493792
0.680728
0.696285
0.474666
0.686662
0.5977
1.1265
0.5977
1.12687
0.690899
0.597709
0.680663
0.681007
0.680306
0.681012
0.590983
1.06273
0.42905
0.681027
0.480321
0.368122
0.49394
0.500133
0.367833
0.378578
0.690504
0.566085
0.438083
0.5977
0.687618
0.678996
0.597699
0.597704
0.5977
0.680666
0.52525
0.5977
0.680821
0.541721
0.482835
0.36734
0.5977
0.597509
0.367836
0.5977
0.494178
0.752289
0.596832
0.406143
0.594296
0.5977
0.577819
0.680951
0.470808
0.5977
0.571526
0.694795
0.581181
0.5977
1.04354
0.696253
0.5977
0.368084
0.696334
0.691118
0.486963
0.509761
0.680696
0.367696
0.600246
0.374716
0.5977
0.482682
0.680785
0.508258
0.690011
0.368083
0.689836
0.680953
0.688002
1.10607
0.427113
0.501841
0.597699
0.696537
0.593616
0.701506
0.5977
0.5079
0.683892
0.588275
0.699251
0.591118
0.597698
0.541318
0.690611
0.680874
0.491396
0.675381
0.695987
0.689524
0.704428
0.474463
0.5977
0.367816
0.688627
0.504518
0.680845
0.698152
0.696719
0.689824
0.54407
0.688922
0.367983
0.375959
0.680838
1.07938
0.5977
0.680723
1.10395
0.36805
0.595702
0.695374
0.690932
0.509222
0.596236
0.5977
0.374557
0.681613
0.691388
0.679829
0.693935
0.542327
0.597699
0.5977
0.48206
0.700029
0.691466
0.5977
0.696914
0.537282
0.651184
0.592368
0.5977
0.696366
0.384979
0.515779
0.680849
0.681068
0.497733
0.566346
0.497364
0.498458
0.43697
0.507441
0.552098
0.367759
0.681147
0.478339
0.408576
0.680227
0.5977
1.12679
0.583475
0.367669
0.680859
0.597699
0.5977
0.691675
0.578038
0.5977
0.680795
0.5977
0.680483
0.471248
0.680121
0.68073
0.416127
0.367283
0.597699
0.708651
0.5977
0.69067
0.680844
0.681131
0.680944
0.597699
0.679614
0.680783
0.695962
0.368066
0.680815
0.5977
0.597709
0.593303
0.415058
0.486388
0.439258
0.5977
0.5977
0.680658
0.367755
0.574806
0.689823
0.504814
0.680006
0.681022
0.680505
0.5977
0.680713
0.536592
0.489771
0.48337
0.5977
0.500225
0.680578
0.48399
0.680989
0.680558
0.681034
0.562804
0.5977
0.597714
0.68091
0.457505
0.367403
0.692757
0.680481
0.5977
0.680823
0.696836
0.603125
0.367869
0.5977
0.689385
0.597703
0.680948
0.682713
0.684528
0.584518
0.578389
0.690836
0.596538
0.5977
0.367857
0.680044
0.680753
0.5977
0.501422
0.680189
0.597699
0.687108
0.680326
0.368016
0.36775
0.680404
0.5977
0.597699
0.688897
0.696903
0.515282
0.680675
0.66272
0.706066
0.36779
0.5977
0.367914
0.695161
0.688199
0.634942
0.680103
0.667777
0.546521
0.582714
0.680485
0.367871
0.5977
0.53225
0.680775
0.460954
0.5977
0.689759
0.685917
0.367742
1.12696
0.920136
0.367642
0.677375
0.499387
0.690962
0.367723
0.384157
0.469916
0.673728
0.680968
0.556652
0.547993
0.696928
0.689881
0.597708
0.5977
0.367624
0.5977
0.367759
0.680892
0.367519
0.5977
0.695629
0.56197
0.5977
0.380466
0.680984
0.426783
0.367924
0.692349
0.515509
0.591175
0.597699
0.468411
0.690497
0.659039
0.696002
0.5977
0.530196
0.5977
0.513357
0.367505
0.701053
0.679991
0.680554
0.367689
0.580829
0.5977
0.691581
0.5977
0.692943
0.5977
0.689413
0.565389
0.69074
0.69104
0.5977
0.690173
0.51039
0.680829
0.367897
0.509723
0.493317
0.367641
0.691004
0.686696
0.690786
0.680935
0.680767
0.566233
0.597708
0.53563
0.478904
0.368081
0.491559
0.367406
0.679885
0.688466
0.367881
0.463068
0.680998
0.54408
0.597712
0.687217
0.597688
0.5977
0.5977
0.679617
0.597708
0.680947
0.681033
0.698059