# vtk DataFile Version 1.0
unstructured grid
ascii
DATASET UNSTRUCTURED_GRID
points 13672 float
0.0796578 -0.059106 0
0.00128732 0.00159165 0
0.00227961 -0.00102548 0
0.0791586 -0.0598787 0
-0.0546216 0.01 0
0.000495206 0.025 0
0.0800549 -0.035 0
0.135172 -0.08 0
-0.0546216 -0.0451168 0
0.000495206 -0.0301168 0
0.0800549 -0.0901168 0
0.135172 -0.135117 0
-0.0546216 -0.0451168 -0.00551168
0.000495206 -0.0301168 -0.00551168
0.0800549 -0.0901168 -0.00551168
0.135172 -0.135117 -0.00551168
0.135172 -0.08 -0.00551168
0.0800549 -0.035 -0.00551168
0.000495206 0.025 -0.00551168
-0.0546216 0.01 -0.00551168
0.00128732 0.00159165 -0.00551168
0.00227961 -0.00102548 -0.00551168
0.0791586 -0.0598787 -0.00551168
0.0796578 -0.059106 -0.00551168
0.00165953 -0.000990923 0
0.00119576 -0.000874076 0
0.000866021 -0.000641801 0
0.000645147 -0.000349912 0
0.00052235 -1.7281e-05 0
0.00049972 0.000348016 0
0.000601632 0.000737716 0
0.000861774 0.0011403 0
0.00157235 0.00183217 0
0.00188647 0.00206725 0
0.00222612 0.00230203 0
0.00258713 0.00254351 0
0.00296826 0.00279524 0
0.00337118 0.00305664 0
0.00379785 0.00332658 0
0.00425045 0.00360349 0
0.00473139 0.00388521 0
0.0052432 0.00416895 0
0.0057881 0.00445204 0
0.00636753 0.00473281 0
0.00698281 0.00500961 0
0.00763526 0.00528058 0
0.00832616 0.00554366 0
0.00905691 0.00579603 0
0.00982918 0.00603333 0
0.0106445 0.00625033 0
0.0115038 0.00644128 0
0.0124073 0.00660297 0
0.0133543 0.00673414 0
0.0143444 0.00683382 0
0.0153769 0.00690031 0
0.0164512 0.00693173 0
0.0175666 0.00692547 0
0.0187219 0.00687822 0
0.0199156 0.00678477 0
0.0211454 0.00663864 0
0.0224084 0.00643275 0
0.0237018 0.00616676 0
0.0250249 0.00584739 0
0.026375 0.00547298 0
0.0277479 0.00503752 0
0.0291386 0.00453545 0
0.0305433 0.0039653 0
0.0319572 0.0033256 0
0.0333681 0.00260019 0
0.034775 0.00179799 0
0.0361793 0.000930615 0
0.0375798 3.12222e-06 0
0.0389689 -0.000988429 0
0.0403357 -0.00205109 0
0.041675 -0.00318283 0
0.0429849 -0.00437751 0
0.0442643 -0.00562904 0
0.0455126 -0.00693089 0
0.0467314 -0.00827518 0
0.0479204 -0.00965638 0
0.0490661 -0.0110799 0
0.0501515 -0.0125519 0
0.0511696 -0.0140695 0
0.0521492 -0.0156071 0
0.0531202 -0.0171411 0
0.0540851 -0.0186663 0
0.0550431 -0.0201798 0
0.0559923 -0.0216793 0
0.0569311 -0.0231626 0
0.0578582 -0.0246273 0
0.0587723 -0.0260715 0
0.0596721 -0.027493 0
0.0605563 -0.02889 0
0.0614241 -0.0302609 0
0.0622742 -0.0316042 0
0.063106 -0.0329183 0
0.0639186 -0.034202 0
0.0647113 -0.0354543 0
0.0654835 -0.0366743 0
0.0662345 -0.0378613 0
0.0669642 -0.0390145 0
0.0676726 -0.0401333 0
0.0683597 -0.0412172 0
0.0690246 -0.0422665 0
0.0696662 -0.0432819 0
0.0702841 -0.0442636 0
0.0708793 -0.0452111 0
0.0714538 -0.0461237 0
0.072009 -0.047001 0
0.0725452 -0.0478434 0
0.0730611 -0.0486524 0
0.073556 -0.0494294 0
0.0740291 -0.0501756 0
0.0744812 -0.0508916 0
0.0749138 -0.0515773 0
0.0753285 -0.0522331 0
0.0757266 -0.0528592 0
0.076109 -0.0534564 0
0.0764753 -0.0540264 0
0.0768243 -0.054571 0
0.0771553 -0.0550919 0
0.0774679 -0.0555901 0
0.0777617 -0.0560669 0
0.0780369 -0.056523 0
0.0782958 -0.0569578 0
0.0785421 -0.0573703 0
0.0787786 -0.0577603 0
0.0790073 -0.0581279 0
0.0792295 -0.058474 0
0.0794462 -0.0587995 0
0.0798803 -0.0594162 0
0.0800272 -0.0596588 0
0.0800357 -0.0598891 0
0.0799275 -0.0600784 0
0.0797205 -0.0601773 0
0.0794593 -0.0601051 0
0.0789155 -0.0596491 0
0.0786707 -0.0593963 0
0.0784111 -0.0591319 0
0.0781372 -0.0588542 0
0.0778566 -0.0585548 0
0.0775715 -0.0582308 0
0.0772803 -0.0578828 0
0.0769832 -0.0575099 0
0.0766822 -0.0571097 0
0.0763801 -0.0566796 0
0.0760759 -0.0562196 0
0.0757623 -0.0557337 0
0.0754359 -0.0552232 0
0.0750951 -0.0546879 0
0.0747379 -0.054128 0
0.0743626 -0.0535435 0
0.0739688 -0.0529338 0
0.0735559 -0.0522981 0
0.0731238 -0.0516357 0
0.0726718 -0.050946 0
0.0721991 -0.0502288 0
0.0717046 -0.049484 0
0.0711872 -0.0487117 0
0.0706461 -0.047912 0
0.0700804 -0.0470849 0
0.0694892 -0.0462308 0
0.0688718 -0.0453499 0
0.0682271 -0.0444431 0
0.0675544 -0.043511 0
0.0668527 -0.0425546 0
0.0661215 -0.0415748 0
0.06536 -0.040573 0
0.0645676 -0.0395504 0
0.0637439 -0.0385087 0
0.0628887 -0.0374493 0
0.062002 -0.0363741 0
0.0610838 -0.0352847 0
0.0601345 -0.0341831 0
0.0591547 -0.033071 0
0.0581456 -0.0319502 0
0.0571083 -0.0308224 0
0.0560444 -0.0296893 0
0.0549562 -0.028552 0
0.053845 -0.0274126 0
0.0527113 -0.0262746 0
0.051554 -0.0251427 0
0.0503724 -0.0240222 0
0.0491675 -0.0229164 0
0.047941 -0.0218282 0
0.0466955 -0.0207597 0
0.0454337 -0.0197126 0
0.0441592 -0.0186878 0
0.0428751 -0.0176863 0
0.0415841 -0.0167097 0
0.0402878 -0.0157609 0
0.0389879 -0.0148428 0
0.0376864 -0.0139575 0
0.0363853 -0.013107 0
0.0350871 -0.0122931 0
0.0337942 -0.0115164 0
0.0325095 -0.0107772 0
0.0312357 -0.0100756 0
0.0299758 -0.00941024 0
0.0287337 -0.00877784 0
0.0275126 -0.00817571 0
0.0263139 -0.00760375 0
0.0251376 -0.00706528 0
0.0239829 -0.0065649 0
0.0228537 -0.00609619 0
0.0217522 -0.00565563 0
0.0206795 -0.00524226 0
0.0196364 -0.00485507 0
0.0186233 -0.00449318 0
0.0176408 -0.00415577 0
0.016689 -0.00384204 0
0.0157682 -0.00355115 0
0.0148783 -0.00328218 0
0.0140192 -0.00303468 0
0.0131906 -0.00280795 0
0.0123925 -0.00260016 0
0.0116246 -0.00241012 0
0.0108864 -0.00223769 0
0.0101774 -0.00208212 0
0.00949701 -0.00194206 0
0.00884483 -0.0018163 0
0.0082202 -0.0017039 0
0.00762247 -0.00160391 0
0.00705097 -0.00151528 0
0.006505 -0.00143697 0
0.0059838 -0.00136806 0
0.00548662 -0.00130772 0
0.00501265 -0.00125519 0
0.00456114 -0.00120954 0
0.00413136 -0.00116914 0
0.00372257 -0.00113251 0
0.00333398 -0.00109853 0
0.00296466 -0.00106798 0
0.00261363 -0.0010431 0
-0.052721 -0.0445996 0
-0.0508204 -0.0440823 0
-0.0489199 -0.0435651 0
-0.0470193 -0.0430478 0
-0.0451187 -0.0425306 0
-0.0432181 -0.0420134 0
-0.0413175 -0.0414961 0
-0.039417 -0.0409789 0
-0.0375164 -0.0404616 0
-0.0356158 -0.0399444 0
-0.0337152 -0.0394271 0
-0.0318146 -0.0389099 0
-0.0299141 -0.0383927 0
-0.0280135 -0.0378754 0
-0.0261129 -0.0373582 0
-0.0242123 -0.0368409 0
-0.0223117 -0.0363237 0
-0.0204112 -0.0358065 0
-0.0185106 -0.0352892 0
-0.01661 -0.034772 0
-0.0147094 -0.0342547 0
-0.0128088 -0.0337375 0
-0.0109083 -0.0332202 0
-0.00900769 -0.032703 0
-0.00710711 -0.0321858 0
-0.00520653 -0.0316685 0
-0.00330595 -0.0311513 0
-0.00140537 -0.030634 0
0.00190689 -0.0299614 0
0.00332271 -0.0298498 0
0.00474133 -0.0297825 0
0.00616136 -0.0297597 0
0.0075814 -0.0297814 0
0.00900007 -0.0298477 0
0.010416 -0.0299583 0
0.0118278 -0.0301127 0
0.0132342 -0.0303103 0
0.0146339 -0.0305504 0
0.0160259 -0.0308322 0
0.0174091 -0.0311546 0
0.0187824 -0.0315166 0
0.020145 -0.031917 0
0.0214961 -0.0323546 0
0.0228351 -0.032828 0
0.0241613 -0.0333361 0
0.0254744 -0.0338774 0
0.0267738 -0.0344507 0
0.0280592 -0.0350545 0
0.0293306 -0.0356877 0
0.0305875 -0.0363488 0
0.0318301 -0.0370367 0
0.0330581 -0.0377501 0
0.0342717 -0.0384879 0
0.0354708 -0.0392489 0
0.0366556 -0.0400321 0
0.0378262 -0.0408363 0
0.0389828 -0.0416607 0
0.0401254 -0.0425042 0
0.0412543 -0.0433659 0
0.0423698 -0.0442451 0
0.043472 -0.0451408 0
0.0445612 -0.0460523 0
0.0456375 -0.0469789 0
0.0467013 -0.0479199 0
0.0477529 -0.0488746 0
0.0487923 -0.0498424 0
0.04982 -0.0508227 0
0.0508362 -0.051815 0
0.051841 -0.0528187 0
0.0528348 -0.0538333 0
0.0538178 -0.0548584 0
0.0547903 -0.0558935 0
0.0557524 -0.0569382 0
0.0567045 -0.0579922 0
0.0576467 -0.0590549 0
0.0585792 -0.0601261 0
0.0595024 -0.0612055 0
0.0604163 -0.0622926 0
0.0613212 -0.0633873 0
0.0622174 -0.0644891 0
0.0631049 -0.0655979 0
0.0639841 -0.0667134 0
0.064855 -0.0678353 0
0.0657179 -0.0689633 0
0.0665729 -0.0700974 0
0.0674202 -0.0712372 0
0.06826 -0.0723826 0
0.0690925 -0.0735333 0
0.0699178 -0.0746892 0
0.070736 -0.0758501 0
0.0715473 -0.0770159 0
0.0723518 -0.0781863 0
0.0731498 -0.0793612 0
0.0739412 -0.0805405 0
0.0747264 -0.081724 0
0.0755053 -0.0829116 0
0.0762781 -0.0841033 0
0.0770449 -0.0852987 0
0.0778059 -0.0864979 0
0.0785611 -0.0877007 0
0.0793108 -0.088907 0
0.0814681 -0.0912706 0
0.0828814 -0.0924245 0
0.0842946 -0.0935783 0
0.0857079 -0.0947322 0
0.0871211 -0.095886 0
0.0885344 -0.0970399 0
0.0899476 -0.0981937 0
0.0913609 -0.0993476 0
0.0927741 -0.100501 0
0.0941874 -0.101655 0
0.0956006 -0.102809 0
0.0970139 -0.103963 0
0.0984272 -0.105117 0
0.0998404 -0.106271 0
0.101254 -0.107424 0
0.102667 -0.108578 0
0.10408 -0.109732 0
0.105493 -0.110886 0
0.106907 -0.11204 0
0.10832 -0.113194 0
0.109733 -0.114348 0
0.111146 -0.115501 0
0.11256 -0.116655 0
0.113973 -0.117809 0
0.115386 -0.118963 0
0.116799 -0.120117 0
0.118213 -0.121271 0
0.119626 -0.122424 0
0.121039 -0.123578 0
0.122452 -0.124732 0
0.123866 -0.125886 0
0.125279 -0.12704 0
0.126692 -0.128194 0
0.128105 -0.129348 0
0.129519 -0.130501 0
0.130932 -0.131655 0
0.132345 -0.132809 0
0.133758 -0.133963 0
0.135172 -0.133216 0
0.135172 -0.131316 0
0.135172 -0.129415 0
0.135172 -0.127514 0
0.135172 -0.125614 0
0.135172 -0.123713 0
0.135172 -0.121813 0
0.135172 -0.119912 0
0.135172 -0.118012 0
0.135172 -0.116111 0
0.135172 -0.11421 0
0.135172 -0.11231 0
0.135172 -0.110409 0
0.135172 -0.108509 0
0.135172 -0.106608 0
0.135172 -0.104708 0
0.135172 -0.102807 0
0.135172 -0.100906 0
0.135172 -0.0990058 0
0.135172 -0.0971052 0
0.135172 -0.0952046 0
0.135172 -0.0933041 0
0.135172 -0.0914035 0
0.135172 -0.0895029 0
0.135172 -0.0876023 0
0.135172 -0.0857017 0
0.135172 -0.0838012 0
0.135172 -0.0819006 0
0.133758 -0.0788462 0
0.132345 -0.0776923 0
0.130932 -0.0765385 0
0.129519 -0.0753846 0
0.128105 -0.0742308 0
0.126692 -0.0730769 0
0.125279 -0.0719231 0
0.123866 -0.0707692 0
0.122452 -0.0696154 0
0.121039 -0.0684615 0
0.119626 -0.0673077 0
0.118213 -0.0661538 0
0.116799 -0.065 0
0.115386 -0.0638462 0
0.113973 -0.0626923 0
0.11256 -0.0615385 0
0.111146 -0.0603846 0
0.109733 -0.0592308 0
0.10832 -0.0580769 0
0.106907 -0.0569231 0
0.105493 -0.0557692 0
0.10408 -0.0546154 0
0.102667 -0.0534615 0
0.101254 -0.0523077 0
0.0998404 -0.0511538 0
0.0984272 -0.05 0
0.0970139 -0.0488462 0
0.0956006 -0.0476923 0
[...]
CELL_DATA 13116
SCALARS rho float
LOOKUP_TABLE default
0.627018
0.697134
0.331152
0.702106
0.70429
0.692789
0.340518
0.702363
0.552694
0.704239
0.345191
0.299001
0.704048
0.336267
0.320685
0.693872
0.622034
0.70882
0.691886
0.353081
0.625227
0.330983
0.329335
0.708379
0.693079
0.699265
0.70432
0.331985
0.686806
0.713607
1.12811
0.302968
0.58643
0.469821
0.337317
0.625017
0.715482
0.692541
0.673678
0.701183
0.691619
0.702452
0.494034
0.333047
0.691995
0.692075
0.695571
0.693101
0.326572
0.53767
0.701348
0.489733
0.341817
0.613956
0.586301
0.675592
0.333803
0.709379
0.548204
0.319069
0.335414
0.702939
0.69582
0.669233
1.09658
0.345906
0.695573
0.714514
0.693552
1.0228
0.321269
0.693102
0.332235
0.339641
1.14433
0.33401
0.700971
0.703514
0.350544
0.709556
0.714907
0.699584
0.707523
0.69371
0.693596
0.408232
0.351692
0.713368
0.700695
0.360569
0.308916
0.696614
0.705964
0.700305
0.716479
0.682572
0.694259
1.13496
1.14459
0.687461
0.711898
0.693974
0.691567
0.433406
0.694146
0.289794
0.372006
0.525838
0.32957
0.686753
0.550845
0.69842
0.680938
0.712782
0.709487
0.697094
0.348623
0.386025
0.697119
0.697775
0.71374
0.335283
0.693736
0.30796
0.700544
0.447943
0.350787
0.517084
0.330738
0.537256
0.69828
0.696882
0.497583
0.328968
0.470577
0.674484
1.13451
0.696949
0.711756
0.698203
0.699824
0.695487
0.518425
0.699521
0.697824
0.309719
0.33738
0.698863
0.705851
0.700857
0.546318
0.693649
0.69296
0.338472
0.704527
0.693864
0.326187
0.710137
1.13316
0.713195
0.708358
0.346804
0.707898
0.328475
0.336162
0.702565
0.700407
0.709018
0.338302
0.435739
0.399432
1.13451
0.319699
0.505353
0.697858
0.326968
0.324822
0.332042
0.698138
0.692742
0.350114
0.427094
0.576315
0.716256
0.692694
0.548721
0.342702
0.690608
0.694991
0.471694
0.701813
0.698521
0.948467
0.319687
0.697743
0.693506
0.704721
0.691043
0.70057
0.371958
0.435525
0.688749
0.512146
0.338716
0.709358
0.693492
0.496474
0.693131
0.312688
0.346841
0.335303
0.693538
0.325607
0.3554
0.354608
0.33802
0.378166
0.673973
0.700538
0.400875
0.3351
0.69515
0.545826
0.35001
0.596285
0.703548
0.697908
0.332263
0.697347
0.384582
0.703504
0.30454
0.955307
0.706424
1.13629
0.702208
0.831661
0.321179
0.441855
0.713353
1.14121
0.69325
1.13631
0.779896
0.702074
0.325514
0.700618
0.704
1.14185
0.339873
0.328108
0.693375
0.695965
1.05966
0.694889
0.61664
0.71108
0.346611
0.325578
0.375777
0.311113
0.692872
0.704705
0.700566
0.354073
0.691041
0.345418
0.402495
0.69439
0.341276
0.699388
0.701719
1.14081
0.709605
0.320997
1.13971
0.713697
1.14096
0.69578
0.355082
0.351663
0.322663
0.670852
0.334182
0.334031
0.358873
0.351016
0.694138
0.336036
0.701535
0.703264
0.34703
0.351703
0.346324
0.451699
0.333372
0.713731
0.69159
0.697159
0.341984
0.692816
0.70921
0.322432
0.319553
0.681615
0.695454
0.691113
0.342445
0.693539
0.445113
0.696823
0.702245
0.699981
0.702188
0.321472
0.696688
0.321509
0.690237
0.703285
0.713383
0.357611
0.355795
0.703697
0.347572
0.694529
0.702835
0.357278
0.710328
0.707734
0.348477
0.691316
0.705999
0.322432
0.701114
0.404063
0.687683
0.702611
0.409875
0.709985
0.3541
0.708703
0.358357
0.702705
0.691033
0.704684
0.331017
0.374406
0.69327
0.338139
0.706613
0.695904
0.416623
1.12959
0.341298
0.328663
0.694256
0.559271
0.71653
0.351469
0.327215
0.700453
0.703419
0.338667
0.70236
0.344682
0.301514
0.697767
0.70228
0.538321
0.364171
0.695078
1.12073
0.694024
0.691172
0.70921
0.549156
0.344285
0.314912
0.350623
0.69402
0.350714
0.577058
0.359971
0.315932
0.370652
0.544942
0.130544
0.339185
0.693052
0.302791
0.706838
0.687846
0.692177
0.714187
0.701054
0.329157
0.351402
0.379116
0.347573
0.696267
0.677116
0.691728
0.687074
0.698076
0.700027
0.699374
0.697062
0.712995
0.710893
0.709586
0.689367
0.379248
0.496461
0.621562
0.328919
0.689634
0.671622
0.343672
0.697088
1.1377
0.32255
0.355239
0.359559
0.343371
0.689034
0.328322
0.320516
0.694085
0.344223
0.705014
0.36178
0.690004
0.701948
0.335129
0.328998
0.694298
0.448503
0.363101
0.344152
0.358118
0.329273
0.350566
0.355323
0.335426
0.404748
0.35382
0.693441
0.339504
0.699795
0.358757
0.305758
0.467396
0.280885
0.359226
0.283087
0.700869
0.413384
0.698114
0.537368
0.345681
0.696098
0.701082
0.406051
0.71042
0.695918
0.694034
0.349508
1.13567
0.387961
0.708664
1.13887
0.32697
0.333522
0.694272
0.348763
0.408577
0.691915
0.371221
0.710316
0.697719
0.350822
0.324154
0.321972
0.500465
0.319223
0.331982
0.320311
0.322695
0.702401
0.702512
0.457751
0.687996
0.475212
0.69767
0.371132
0.331059
0.558011
0.32723
0.694844
0.326384
0.38057
0.491786
0.69214
0.700346
0.621867
0.355697
0.334957
0.650842
0.70223
0.865529
0.638449
0.694791
0.692666
0.357355
0.700588
0.701702
0.713556
0.357118
0.333427
0.713074
0.704745
0.71377
0.703902
0.699269
0.699824
0.708629
0.713303
0.692114
0.352074
0.692146
0.361063
0.313015
0.356707
0.702361
0.693468
0.354329
0.694332
0.686749
0.357752
0.713068
0.69437
0.712677
0.331691
0.332268
0.703324
0.364162
0.361867
0.274716
0.358449
0.694831
0.326834
0.701816
0.33868
0.697272
0.701172
0.692965
0.703606
0.364637
0.351932
0.693624
0.703988
0.700153
0.702414
0.704158
0.43793
0.348587
0.327853
0.692798
0.548938
0.359118
0.448885
0.314433
0.700955
0.692435
0.356517
0.332479
0.697888
0.413915
0.69267
0.707071
0.331254
0.383927
0.700615
1.13669
0.328519
0.70032
0.700363
0.693507
0.333992
1.13662
0.33573
1.13655
0.713667
0.365327
0.375507
0.334125
1.13682
0.329915
0.349388
0.387305
0.668571
0.702274
0.349503
0.322751
0.360065
0.697686
0.333457
0.693144
0.318531
0.690448
0.703678
0.360706
0.328972
0.32936
0.440019
0.328504
0.700053
0.341155
0.328175
0.6904
0.326818
0.693824
0.694596
1.13573
0.354982
0.694845
0.705748
0.704707
0.692713
0.701547
0.698052
0.296115
0.974942
0.403791
0.694777
0.356047
0.702061
0.527549
0.337067
1.12679
0.70729
0.33547
0.696776
0.30881
0.321851
0.693747
0.700197
0.311099
0.297005
0.349843
0.290607
0.701286
0.708303
0.334293
0.349247
0.707241
0.698175
0.688362
0.705933
0.691616
0.347061
0.704735
0.403789
0.701244
0.386918
0.682373
0.451583
0.696618
0.716177
0.710508
0.367485
0.330484
0.69074
0.687174
0.60827
0.706413
0.313279
0.712914
0.704759
0.381187
0.493956
0.705206
0.357576
1.08369
0.713204
0.352337
0.699612
0.716077
0.330624
0.705834
0.322372
0.699211
0.333789
0.693491
0.695705
0.330336
0.674054
0.707348
0.705915
0.687814
0.697969
0.708146
0.345126
0.440419
0.306785
0.340585
1.12683
0.605108
0.695066
0.706175
0.352101
0.340911
0.696763
0.70378
0.694709
0.701822
0.356984
0.709328
0.703917
0.353495
0.304778
0.697719
0.693093
0.696814
0.287333
0.706126
0.33565
0.707838
0.694327
0.919054
0.694546
0.359506
0.695705
0.701017
0.706589
0.701388
0.691762
0.402337
0.709965
0.346428
0.696544
0.703899
0.436942
0.697925
0.810467
0.700985
0.447647
0.406018
0.705996
0.71027
0.363625
0.366106
0.34114
0.353383
0.697112
0.712432
0.808441
0.352689
0.351253
0.693298
0.710511
0.326498
0.341988
0.452128
0.702273
0.690818
0.692199
0.710213
0.347674
0.363707
1.13143
0.307177
0.354918
0.339717
0.69118
0.335333
0.364786
0.664957
0.694148
0.697872
0.69149
0.690908
0.348469
0.322565
0.34231
0.547442
0.414319
0.30615
0.71578
0.710248
0.694102
0.692276
0.29615
0.356876
0.703933
0.359027
0.691755
0.69543
1.1314
0.311167
0.358302
0.698868
1.1283
0.651224
0.326451
0.693002
0.693377
0.657593
0.700632
0.701906
1.13555
0.69496
0.356684
0.69074
1.08462
0.697955
0.710349
1.12735
0.698655
1.13653
0.694332
0.328238
0.325154
0.357477
1.12129
0.531231
0.359665
0.696426
0.708789
0.299079
0.699556
0.336111
0.701204
0.531918
0.32546
0.703438
0.708675
0.359413
0.610039
1.11819
0.334325
0.700716
0.344712
0.292001
0.697015
0.691399
0.472202
0.691692
0.34059
0.70789
0.324352
0.296719
0.693684
0.359212
0.687217
0.313761
0.699211
0.68579
1.13524
0.700319
0.317227
0.327314
0.696232
0.500174
0.694704
0.481733
0.672065
0.689906
0.706948
0.507018
0.686101
0.69798
0.704694
0.695944
0.362638
0.366025
0.538307
0.697887
0.70476
0.370489
0.69154
0.654158
0.37654
0.311081
0.712915
0.705477
1.13654
1.13711
0.693174
0.714097
0.672175
0.71457
0.311283
0.712697
0.448562
0.69977
0.692897
0.350287
0.701378
0.704468
0.326102
0.31864
0.347257
1.12801
0.347885
0.697974
0.712501
0.712594
0.334473
0.692665
0.338127
0.699945
0.685261
0.892161
0.715934
0.698856
0.694831
0.714804
0.553164
0.694675
0.333963
0.691767
0.692781
0.486799
1.13663
0.711226
0.323044
0.315177
0.333151
0.700099
0.367081
1.13739
0.342713
0.702229
0.33233
0.448737
0.309857
0.709179
0.701638
0.613451
0.326039
0.695912
0.68155
0.346307
0.688345
0.702678
0.304953
0.680456
1.14031
0.703587
0.691955
0.326463
0.52311
0.700536
0.692007
0.697056
0.36478
0.39726
0.692353
1.1309
1.13752
1.13286
0.609217
0.696645
0.60107
0.699996
0.365011
0.33753
1.13375
0.704756
0.666909
0.344772
0.691665
0.630636
0.679013
0.331485
0.396427
0.702546
0.702049
0.553235
0.346352
0.69235
1.13668
0.340468
0.691774
0.710566
0.339709
0.30525
0.320776
0.696079
0.334563
0.352586
0.691224
0.487073
0.704693
0.702842
0.338404
0.349423
0.702301
0.326215
0.32832
1.12896
0.302018
0.372784
0.682367
0.701666
0.694988
0.350786
0.338263
0.343148
0.694723
0.289488
0.694908
0.327225
0.696356
0.699857
0.692047
0.694583
0.696088
0.694416
0.690607
0.703795
0.694971
0.329838
0.343733
0.696099
0.675851
0.4482
0.696691
0.581707
0.668182
0.697187
0.334643
0.696684
0.702939
0.693506
0.338807
0.695971
0.33406
0.693711
0.442579
0.709336
0.692548
0.326863
0.697004
0.360113
0.463173
0.696298
0.338657
0.710302
1.13073
0.701648
0.342493
0.694623
0.351801
0.311024
0.316329
0.354367
0.696825
0.318782
0.701736
0.742117
0.347465
0.320208
0.437454
0.708144
0.70871
0.695079
0.354652
0.347707
0.339908
0.312595
0.323789
0.707112
0.699195
0.332736
0.693358
0.712302
0.322243
0.702975
0.71083
0.700838
0.341623
1.13716
0.698182
0.70947
0.70022
0.320098
0.695539
0.707613
0.696094
0.712824
0.691038
0.335322
0.316953
0.693505
0.533572
0.360605
0.693756
0.320262
0.691457
0.696967
0.698864
0.699027
0.308927
0.696217
0.373466
0.33875
0.709977
0.706369
0.706096
0.700727
0.708595
0.311137
0.703487
0.317764
0.447249
0.702547
1.1455
0.697478
0.339764
0.319422
0.703796
0.335
0.702272
0.7049
0.414893
0.342677
0.698878
0.314143
0.692498
0.702064
0.700292
0.314719
0.325132
0.509328
0.548352
0.699048
0.481223
0.690542
0.694701
0.700191
1.12668
0.695865
0.341096
0.340936
0.703539
0.691072
0.697385
0.427383
0.340257
0.699055
0.319361
0.691551
0.686454
0.342717
0.695007
0.35522
0.701059
0.330997
0.705435
0.320345
0.6942
0.692769
0.301077
0.700527
0.710613
0.305205
0.815219
0.691762
0.585889
0.289996
0.367707
0.47695
0.70531
0.694346
0.341462
0.708598
0.698674
0.690163
0.336727
0.687007
0.694846
0.411768
0.690603
0.691398
0.347466
0.694839
1.13664
0.331133
0.678709
0.344694
0.702469
0.341118
0.298092
0.704808
0.353663
0.359733
0.318876
0.695291
0.695137
0.388473
0.69234
0.368355
0.699087
0.353018
0.695498
0.362031
0.690649
0.693527
0.701713
0.833136
0.617208
0.692828
0.704082
0.332318
0.698982
0.700625
0.569444
0.696002
0.4425
0.422325
0.703684
0.348012
0.69856
0.336871
0.691633
0.332014
0.319422
0.708833
0.690392
0.351509
0.699766
0.71016
1.12673
0.701729
1.13681
0.356988
0.703164
0.354178
0.326781
0.700679
0.710077
0.702309
0.698261
0.305519
0.3402
0.342507
0.696223
0.760037
0.367168
0.701893
0.346713
0.341167
0.333237
0.701173
0.387133
0.703058
0.694697
0.697768
0.700082
0.694989
0.650932
0.700494
0.404611
0.304907
0.351856
1.13687
1.13737
0.344075
0.704117
0.69489
0.701748
0.326531
0.452816
0.694813
0.302777
0.69528
0.692046
0.355281
0.680501
0.696738
0.359828
0.694899
0.328999
0.695232
0.704502
0.69601
0.318311
0.421359
0.710748
0.351158
0.407329
0.694145
0.356876
0.687812
0.695463
0.699228
0.709958
0.346382
1.12766
0.71026
0.691884
0.373299
0.701398
0.325788
0.308821
0.69328
0.690472
0.741788
0.259721
0.692872
0.697416
1.14524
0.3477
0.34469
0.364211
0.699947
0.341452
0.32689
0.329997
0.690611
0.327552
0.349629
0.407522
0.694847
0.357158
0.862009
0.675514
0.701333
0.342102
0.69382
0.714121
0.709417
0.39824
0.712723
0.336408
0.347644
0.694734
0.351788
0.699333
0.70198
1.13485
0.355947
0.356253
0.336292
0.643645
1.13568
0.263526
0.692841
0.694874
0.709623
0.349741
0.317177
0.36147
0.693698
0.360221
1.12754
0.685678
0.683213
0.6923
0.354569
0.697483
0.300557
0.690403
0.706012
0.70385
0.680299
0.57588
0.713397
0.697346
0.703943
0.345378
0.357854
0.342403
0.709516
0.553778
1.14511
0.356045
0.393323
0.709426
0.693835
0.999121
0.352137
0.701159
0.630038
0.653465
0.694192
0.328526
0.352778
0.34922
0.690475
0.754798
0.712268
0.697403
0.362712
0.701821
0.712276
0.743205
0.761709
0.701491
0.703055
0.694195
0.711247
0.706328
0.326873
0.693739
0.700859
0.690877
0.693948
0.690676
0.668568
0.357021
0.285796
0.697978
0.360667
0.346398
0.701512
0.323824
0.697775
0.69318
0.696322
0.693415
0.324741
0.700948
0.316846
0.341075
0.694185
0.696593
0.692314
0.341476
0.701809
0.69169
0.697299
0.691023
0.328461
0.691053
0.703783
0.696839
0.372542
0.708849
0.344838
0.701674
0.336727
0.357262
0.624803
0.441671
0.703412
0.708982
0.692047
0.329084
0.691046
0.394631
0.321751
0.700196
0.43728
0.362314
0.691571
0.307092
0.450219
0.713708
0.695284
0.695009
0.4383
0.689778
0.715756
0.692342
0.668474
0.706096
0.535166
0.702085
0.697042
0.714708
0.290058
0.349811
0.433669
0.700771
0.323569
0.713213
0.699822
0.689649
0.692389
0.595174
0.710757
0.714719
0.341372
0.699889
0.695321
0.582981
0.695371
0.703481
0.700166
0.685382
0.349531
0.32628
0.694792
0.558897
0.609648
0.69741
0.693716
0.692491
0.704759
0.704728
0.703505
0.694529
0.703793
0.322892
0.307369
0.330966
0.339383
1.13485
0.463729
0.593289
0.694844
0.714966
0.326937
0.693748
0.70206
0.341725
0.383407
1.13725
0.69426
0.328696
0.291223
0.275162
1.12673
0.6996
0.376648
0.340326
0.354826
0.303356
0.353539
0.362756
0.703235
0.693354
0.697532
0.344098
0.696005
0.684214
0.685745
0.34729
0.354858
0.700077
1.13487
0.363053
0.68994
0.359395
0.708527
0.326999
0.70179
0.347077
0.694161
0.702398
0.342196
0.670219
0.341189
0.702961
0.301375
0.688176
0.320194
0.524065
0.336592
0.681848
0.346941
0.94669
0.913979
0.685212
0.695888
0.348581
0.69552
0.681025
0.702109
0.68327
0.698994
0.354776
0.448391
0.343696
0.705683
0.327724
0.704693
0.549381
0.709989
0.703458
0.525886
0.710026
0.322026
0.342718
0.324422
0.522871
0.631815
0.693683
0.342671
0.332147
0.694
0.384226
0.312785
0.658563
0.380614
0.363945
0.285947
0.702406
0.708453
0.69089
0.334005
0.695286
0.691831
0.300837
0.355602
0.700586
0.690742
0.690113
0.48217
0.39692
0.37337
0.339553
0.701235
0.697636
0.548856
0.710658
0.314474
0.650806
0.353514
1.09503
0.704325
0.355008
0.333513
0.697816
0.65358
0.7036
0.706367
0.704977
0.700102
0.702715
0.337731
0.330188
0.341169
0.35604
0.62219
1.13923
0.709256
0.357532
0.354767
0.478508
0.304999
0.692499
0.695049
0.355841
0.355135
0.693198
0.329007
0.716578
0.707545
0.69461
0.690728
0.631175
0.361621
0.347236
0.694394
0.355237
0.450433
0.382487
0.677077
0.697877
0.339776
0.355844
1.13026
0.346293
0.698274
0.705615
0.357077
0.326394
0.335369
0.693006
0.346563
1.12983
0.712674
0.688693
0.295827
0.530674
0.704047
0.692381
0.344875
0.69366
0.698309
0.307287
0.69598
0.702268
0.340746
0.355992
0.699064
0.34431
0.356276
0.695113
0.365947
0.693207
0.710583
0.707064
0.700949
0.705047
0.694153
0.691368
0.342487
0.395526
0.697741
0.695001
0.419317
0.703276
0.360178
0.69412
0.695419
0.674882
0.714838
0.447691
0.452958
0.693717
0.706503
0.696701
0.702178
0.692807
1.13715
0.701863
1.12782
0.70148
0.700326
0.701047
1.13571
0.692867
0.307862
0.699876
0.331751
0.698587
0.693516
0.710303
0.694521
0.709928
0.326446
0.337544
0.355022
0.34623
0.694919
0.349577
0.340809
0.714609
0.292642
0.711648
0.339693
0.69491
0.695233
0.353458
0.383882
0.343733
0.700277
0.33549
0.693561
0.697472
0.335327
0.70012
0.595809
0.349494
0.330952
0.300392
0.70915
0.356793
0.700234
0.592879
0.34418
0.691431
0.691733
0.704968
0.359673
0.665555
0.31516
0.695964
0.684831
0.697043
0.366388
0.695104
0.69678
0.697488
0.399786
0.700035
0.361722
0.356428
0.702382
0.458139
0.704208
0.433819
0.365602
0.409534
0.69685
0.330149
0.308915
0.332771
0.531399
1.13988
0.69495
0.326598
0.679072
0.692752
0.635831
0.47826
0.341508
0.652821
0.36562
0.357585
0.69256
0.357023
0.360527
0.700441
0.702416
0.340303
0.709213
0.336805
1.13732
0.332841
0.700361
1.00514
0.709693
0.679713
0.325606
0.355155
0.314839
0.68946
0.699848
0.691867
0.555759
0.378016
0.341608
0.691933
0.343041
0.693289
0.380866
0.957353
0.714189
0.345228
0.332184
0.359265
0.356102
0.331422
0.697604
0.695038
0.347043
0.694
0.712463
0.346335
0.319391
0.702618
0.35976
0.694872
0.402731
0.709819
0.715083
0.693818
1.13726
0.324499
0.704719
0.699969
0.702532
0.354924
0.69481
0.68765
0.345306
0.700561
0.702111
0.703044
0.695152
0.702757
0.701757
0.702061
0.690893
0.691785
0.35274
0.705906
0.359437
0.489372
0.692394
0.314516
0.694303
0.693812
0.330148
0.697036
0.354962
0.309483
0.701166
0.693396
0.702401
0.346993
0.694986
0.694443
0.333063
0.345066
0.700393
0.691639
0.384662
0.329558
0.712582
0.702529
0.359506
0.714853
0.702736
0.708449
0.344731
0.361112
0.309705
0.714575
0.321765
0.693267
0.709584
0.691891
0.685414
0.694922
0.34702
0.69966
0.688237
0.702523
0.679936
0.318555
0.342622
0.30741
0.708128
0.69882
0.400878
0.715142
0.339194
0.701824
0.696913
0.31131
0.698319
0.692926
0.705593
0.343961
0.35253
0.340155
0.700018
0.704145
0.693706
0.492482
0.694279
0.362331
0.708166
1.14356
0.695439
0.343108
0.689507
0.331938
0.693892
0.303208
0.693811
0.700839
0.335655
0.697142
0.493207
1.1351
0.709229
1.12715
0.699863
0.435744
0.691971
0.692053
0.699141
0.693849
0.432484
1.14209
0.332391
0.692269
0.310247
0.35185
0.315054
0.331564
0.364867
0.344904
0.70241
0.376236
0.32566
0.716867
0.699077
0.694988
0.381824
0.710947
0.710902
0.690404
0.311498
0.680731
0.696307
0.337939
0.329791
0.35367
0.708255
0.450882
0.356482
0.677625
0.297757
1.13648
0.449902
0.348271
0.444132
0.713923
0.341473
0.694662
0.3161
0.561986
0.382122
0.701007
0.386355
0.707316
1.14317
0.693176
0.47722
0.35821
0.701406
0.702658
0.329225
0.311183
0.689676
0.354069
0.709007
0.343691
0.651952
0.305534
0.694554
0.330609
0.702426
0.351654
0.697855
0.695029
0.705929
1.13584
0.332053
0.324422
0.377136
0.700078
0.714636
0.69688
0.638412
0.330825
0.711458
0.341741
0.699539
0.693166
0.423344
0.342697
0.706863
0.693474
0.318575
1.1214
0.701774
0.706533
0.706843
0.315828
0.708607
0.360439
0.706641
0.318877
0.684359
0.6997
0.701256
0.702343
0.346076
0.702463
0.352937
0.339799
0.698058
1.13536
0.573263
0.694708
1.13624
0.361339
0.708788
0.700702
0.702116
0.310749
0.424548
0.711681
0.349172
0.694205
0.700158
0.693563
0.700816
0.317896
0.471624
0.711342
0.333082
0.69763
0.70251
0.495087
0.700846
0.330766
0.69454
0.708685
0.711656
0.700387
0.352982
0.321255
0.693897
0.694549
0.327629
0.353045
0.328376
0.330009
0.32574
0.304141
0.3339
0.360346
0.694397
0.312106
0.34405
0.71281
0.574609
1.13336
0.392473
0.355849
0.692867
0.481423
0.544322
0.704461
0.383017
0.713193
0.839206
0.687884
0.695484
0.335794
0.694725
0.670651
0.33252
0.355163
0.427384
0.693541
0.688293
0.702934
0.694827
0.695629
0.694918
0.357496
0.694191
0.671852
0.701037
0.357886
0.694467
0.692799
0.354944
0.418698
0.338737
0.311821
0.325076
0.685899
0.713422
0.696008
0.357696
0.388558
0.702469
0.299377
0.703048
0.692159
0.693578
0.71134
0.693806
0.336707
0.313754
0.280793
0.646234
0.31912
0.692986
0.280469
0.696507
0.690382
0.693808
0.337802
0.466427
0.429111
0.694994
0.330468
0.352301
0.701392
0.69551
0.698199
0.692802
0.70053
0.709125
0.364955
0.691165
0.705263
0.530497
0.694858
0.710916
0.709154
0.414406
0.399704
0.702144
0.451036
0.691452
0.358045
0.696394
0.693413
0.37391
0.32298
0.696861
0.519604
0.706273
0.704804
0.357699
0.35349
1.13646
0.47093
0.395807
0.69339
0.700281
0.333237
0.692257
1.13106
0.694736
0.365567
0.688004
0.363114
0.699272
0.704337
0.709207
0.696519
1.12907
0.351826
0.364524
0.696864
0.34905
0.685378
0.340716
0.693932
0.309625
0.717377
0.705744
1.13478
0.366446
1.12835
1.13913
0.353646
0.696821
0.299411
0.702574
0.364968
0.346621
0.269276
0.697819
0.691838
0.353602
0.3539
0.698885
0.702759
0.459873
0.709215
0.364806
0.535402
0.354244
0.696246
0.356103
0.716063
0.701292