# vtk DataFile Version 1.0
unstructured grid
ascii
DATASET UNSTRUCTURED_GRID
points 13672 float
0.0796578 -0.059106 0
0.00128732 0.00159165 0
0.00227961 -0.00102548 0
0.0791586 -0.0598787 0
-0.0546216 0.01 0
0.000495206 0.025 0
0.0800549 -0.035 0
0.135172 -0.08 0
-0.0546216 -0.0451168 0
0.000495206 -0.0301168 0
0.0800549 -0.0901168 0
0.135172 -0.135117 0
-0.0546216 -0.0451168 -0.00551168
0.000495206 -0.0301168 -0.00551168
0.0800549 -0.0901168 -0.00551168
0.135172 -0.135117 -0.00551168
0.135172 -0.08 -0.00551168
0.0800549 -0.035 -0.00551168
0.000495206 0.025 -0.00551168
-0.0546216 0.01 -0.00551168
0.00128732 0.00159165 -0.00551168
0.00227961 -0.00102548 -0.00551168
0.0791586 -0.0598787 -0.00551168
0.0796578 -0.059106 -0.00551168
0.00165953 -0.000990923 0
0.00119576 -0.000874076 0
0.000866021 -0.000641801 0
0.000645147 -0.000349912 0
0.00052235 -1.7281e-05 0
0.00049972 0.000348016 0
0.000601632 0.000737716 0
0.000861774 0.0011403 0
0.00157235 0.00183217 0
0.00188647 0.00206725 0
0.00222612 0.00230203 0
0.00258713 0.00254351 0
0.00296826 0.00279524 0
0.00337118 0.00305664 0
0.00379785 0.00332658 0
0.00425045 0.00360349 0
0.00473139 0.00388521 0
0.0052432 0.00416895 0
0.0057881 0.00445204 0
0.00636753 0.00473281 0
0.00698281 0.00500961 0
0.00763526 0.00528058 0
0.00832616 0.00554366 0
0.00905691 0.00579603 0
0.00982918 0.00603333 0
0.0106445 0.00625033 0
0.0115038 0.00644128 0
0.0124073 0.00660297 0
0.0133543 0.00673414 0
0.0143444 0.00683382 0
0.0153769 0.00690031 0
0.0164512 0.00693173 0
0.0175666 0.00692547 0
0.0187219 0.00687822 0
0.0199156 0.00678477 0
0.0211454 0.00663864 0
0.0224084 0.00643275 0
0.0237018 0.00616676 0
0.0250249 0.00584739 0
0.026375 0.00547298 0
0.0277479 0.00503752 0
0.0291386 0.00453545 0
0.0305433 0.0039653 0
0.0319572 0.0033256 0
0.0333681 0.00260019 0
0.034775 0.00179799 0
0.0361793 0.000930615 0
0.0375798 3.12222e-06 0
0.0389689 -0.000988429 0
0.0403357 -0.00205109 0
0.041675 -0.00318283 0
0.0429849 -0.00437751 0
0.0442643 -0.00562904 0
0.0455126 -0.00693089 0
0.0467314 -0.00827518 0
0.0479204 -0.00965638 0
0.0490661 -0.0110799 0
0.0501515 -0.0125519 0
0.0511696 -0.0140695 0
0.0521492 -0.0156071 0
0.0531202 -0.0171411 0
0.0540851 -0.0186663 0
0.0550431 -0.0201798 0
0.0559923 -0.0216793 0
0.0569311 -0.0231626 0
0.0578582 -0.0246273 0
0.0587723 -0.0260715 0
0.0596721 -0.027493 0
0.0605563 -0.02889 0
0.0614241 -0.0302609 0
0.0622742 -0.0316042 0
0.063106 -0.0329183 0
0.0639186 -0.034202 0
0.0647113 -0.0354543 0
0.0654835 -0.0366743 0
0.0662345 -0.0378613 0
0.0669642 -0.0390145 0
0.0676726 -0.0401333 0
0.0683597 -0.0412172 0
0.0690246 -0.0422665 0
0.0696662 -0.0432819 0
0.0702841 -0.0442636 0
0.0708793 -0.0452111 0
0.0714538 -0.0461237 0
0.072009 -0.047001 0
0.0725452 -0.0478434 0
0.0730611 -0.0486524 0
0.073556 -0.0494294 0
0.0740291 -0.0501756 0
0.0744812 -0.0508916 0
0.0749138 -0.0515773 0
0.0753285 -0.0522331 0
0.0757266 -0.0528592 0
0.076109 -0.0534564 0
0.0764753 -0.0540264 0
0.0768243 -0.054571 0
0.0771553 -0.0550919 0
0.0774679 -0.0555901 0
0.0777617 -0.0560669 0
0.0780369 -0.056523 0
0.0782958 -0.0569578 0
0.0785421 -0.0573703 0
0.0787786 -0.0577603 0
0.0790073 -0.0581279 0
0.0792295 -0.058474 0
0.0794462 -0.0587995 0
0.0798803 -0.0594162 0
0.0800272 -0.0596588 0
0.0800357 -0.0598891 0
0.0799275 -0.0600784 0
0.0797205 -0.0601773 0
0.0794593 -0.0601051 0
0.0789155 -0.0596491 0
0.0786707 -0.0593963 0
0.0784111 -0.0591319 0
0.0781372 -0.0588542 0
0.0778566 -0.0585548 0
0.0775715 -0.0582308 0
0.0772803 -0.0578828 0
0.0769832 -0.0575099 0
0.0766822 -0.0571097 0
0.0763801 -0.0566796 0
0.0760759 -0.0562196 0
0.0757623 -0.0557337 0
0.0754359 -0.0552232 0
0.0750951 -0.0546879 0
0.0747379 -0.054128 0
0.0743626 -0.0535435 0
0.0739688 -0.0529338 0
0.0735559 -0.0522981 0
0.0731238 -0.0516357 0
0.0726718 -0.050946 0
0.0721991 -0.0502288 0
0.0717046 -0.049484 0
0.0711872 -0.0487117 0
0.0706461 -0.047912 0
0.0700804 -0.0470849 0
0.0694892 -0.0462308 0
0.0688718 -0.0453499 0
0.0682271 -0.0444431 0
0.0675544 -0.043511 0
0.0668527 -0.0425546 0
0.0661215 -0.0415748 0
0.06536 -0.040573 0
0.0645676 -0.0395504 0
0.0637439 -0.0385087 0
0.0628887 -0.0374493 0
0.062002 -0.0363741 0
0.0610838 -0.0352847 0
0.0601345 -0.0341831 0
0.0591547 -0.033071 0
0.0581456 -0.0319502 0
0.0571083 -0.0308224 0
0.0560444 -0.0296893 0
0.0549562 -0.028552 0
0.053845 -0.0274126 0
0.0527113 -0.0262746 0
0.051554 -0.0251427 0
0.0503724 -0.0240222 0
0.0491675 -0.0229164 0
0.047941 -0.0218282 0
0.0466955 -0.0207597 0
0.0454337 -0.0197126 0
0.0441592 -0.0186878 0
0.0428751 -0.0176863 0
0.0415841 -0.0167097 0
0.0402878 -0.0157609 0
0.0389879 -0.0148428 0
0.0376864 -0.0139575 0
0.0363853 -0.013107 0
0.0350871 -0.0122931 0
0.0337942 -0.0115164 0
0.0325095 -0.0107772 0
0.0312357 -0.0100756 0
0.0299758 -0.00941024 0
0.0287337 -0.00877784 0
0.0275126 -0.00817571 0
0.0263139 -0.00760375 0
0.0251376 -0.00706528 0
0.0239829 -0.0065649 0
0.0228537 -0.00609619 0
0.0217522 -0.00565563 0
0.0206795 -0.00524226 0
0.0196364 -0.00485507 0
0.0186233 -0.00449318 0
0.0176408 -0.00415577 0
0.016689 -0.00384204 0
0.0157682 -0.00355115 0
0.0148783 -0.00328218 0
0.0140192 -0.00303468 0
0.0131906 -0.00280795 0
0.0123925 -0.00260016 0
0.0116246 -0.00241012 0
0.0108864 -0.00223769 0
0.0101774 -0.00208212 0
0.00949701 -0.00194206 0
0.00884483 -0.0018163 0
0.0082202 -0.0017039 0
0.00762247 -0.00160391 0
0.00705097 -0.00151528 0
0.006505 -0.00143697 0
0.0059838 -0.00136806 0
0.00548662 -0.00130772 0
0.00501265 -0.00125519 0
0.00456114 -0.00120954 0
0.00413136 -0.00116914 0
0.00372257 -0.00113251 0
0.00333398 -0.00109853 0
0.00296466 -0.00106798 0
0.00261363 -0.0010431 0
-0.052721 -0.0445996 0
-0.0508204 -0.0440823 0
-0.0489199 -0.0435651 0
-0.0470193 -0.0430478 0
-0.0451187 -0.0425306 0
-0.0432181 -0.0420134 0
-0.0413175 -0.0414961 0
-0.039417 -0.0409789 0
-0.0375164 -0.0404616 0
-0.0356158 -0.0399444 0
-0.0337152 -0.0394271 0
-0.0318146 -0.0389099 0
-0.0299141 -0.0383927 0
-0.0280135 -0.0378754 0
-0.0261129 -0.0373582 0
-0.0242123 -0.0368409 0
-0.0223117 -0.0363237 0
-0.0204112 -0.0358065 0
-0.0185106 -0.0352892 0
-0.01661 -0.034772 0
-0.0147094 -0.0342547 0
-0.0128088 -0.0337375 0
-0.0109083 -0.0332202 0
-0.00900769 -0.032703 0
-0.00710711 -0.0321858 0
-0.00520653 -0.0316685 0
-0.00330595 -0.0311513 0
-0.00140537 -0.030634 0
0.00190689 -0.0299614 0
0.00332271 -0.0298498 0
0.00474133 -0.0297825 0
0.00616136 -0.0297597 0
0.0075814 -0.0297814 0
0.00900007 -0.0298477 0
0.010416 -0.0299583 0
0.0118278 -0.0301127 0
0.0132342 -0.0303103 0
0.0146339 -0.0305504 0
0.0160259 -0.0308322 0
0.0174091 -0.0311546 0
0.0187824 -0.0315166 0
0.020145 -0.031917 0
0.0214961 -0.0323546 0
0.0228351 -0.032828 0
0.0241613 -0.0333361 0
0.0254744 -0.0338774 0
0.0267738 -0.0344507 0
0.0280592 -0.0350545 0
0.0293306 -0.0356877 0
0.0305875 -0.0363488 0
0.0318301 -0.0370367 0
0.0330581 -0.0377501 0
0.0342717 -0.0384879 0
0.0354708 -0.0392489 0
0.0366556 -0.0400321 0
0.0378262 -0.0408363 0
0.0389828 -0.0416607 0
0.0401254 -0.0425042 0
0.0412543 -0.0433659 0
0.0423698 -0.0442451 0
0.043472 -0.0451408 0
0.0445612 -0.0460523 0
0.0456375 -0.0469789 0
0.0467013 -0.0479199 0
0.0477529 -0.0488746 0
0.0487923 -0.0498424 0
0.04982 -0.0508227 0
0.0508362 -0.051815 0
0.051841 -0.0528187 0
0.0528348 -0.0538333 0
0.0538178 -0.0548584 0
0.0547903 -0.0558935 0
0.0557524 -0.0569382 0
0.0567045 -0.0579922 0
0.0576467 -0.0590549 0
0.0585792 -0.0601261 0
0.0595024 -0.0612055 0
0.0604163 -0.0622926 0
0.0613212 -0.0633873 0
0.0622174 -0.0644891 0
0.0631049 -0.0655979 0
0.0639841 -0.0667134 0
0.064855 -0.0678353 0
0.0657179 -0.0689633 0
0.0665729 -0.0700974 0
0.0674202 -0.0712372 0
0.06826 -0.0723826 0
0.0690925 -0.0735333 0
0.0699178 -0.0746892 0
0.070736 -0.0758501 0
0.0715473 -0.0770159 0
0.0723518 -0.0781863 0
0.0731498 -0.0793612 0
0.0739412 -0.0805405 0
0.0747264 -0.081724 0
0.0755053 -0.0829116 0
0.0762781 -0.0841033 0
0.0770449 -0.0852987 0
0.0778059 -0.0864979 0
0.0785611 -0.0877007 0
0.0793108 -0.088907 0
0.0814681 -0.0912706 0
0.0828814 -0.0924245 0
0.0842946 -0.0935783 0
0.0857079 -0.0947322 0
0.0871211 -0.095886 0
0.0885344 -0.0970399 0
0.0899476 -0.0981937 0
0.0913609 -0.0993476 0
0.0927741 -0.100501 0
0.0941874 -0.101655 0
0.0956006 -0.102809 0
0.0970139 -0.103963 0
0.0984272 -0.105117 0
0.0998404 -0.106271 0
0.101254 -0.107424 0
0.102667 -0.108578 0
0.10408 -0.109732 0
0.105493 -0.110886 0
0.106907 -0.11204 0
0.10832 -0.113194 0
0.109733 -0.114348 0
0.111146 -0.115501 0
0.11256 -0.116655 0
0.113973 -0.117809 0
0.115386 -0.118963 0
0.116799 -0.120117 0
0.118213 -0.121271 0
0.119626 -0.122424 0
0.121039 -0.123578 0
0.122452 -0.124732 0
0.123866 -0.125886 0
0.125279 -0.12704 0
0.126692 -0.128194 0
0.128105 -0.129348 0
0.129519 -0.130501 0
0.130932 -0.131655 0
0.132345 -0.132809 0
0.133758 -0.133963 0
0.135172 -0.133216 0
0.135172 -0.131316 0
0.135172 -0.129415 0
0.135172 -0.127514 0
0.135172 -0.125614 0
0.135172 -0.123713 0
0.135172 -0.121813 0
0.135172 -0.119912 0
0.135172 -0.118012 0
0.135172 -0.116111 0
0.135172 -0.11421 0
0.135172 -0.11231 0
0.135172 -0.110409 0
0.135172 -0.108509 0
0.135172 -0.106608 0
0.135172 -0.104708 0
0.135172 -0.102807 0
0.135172 -0.100906 0
0.135172 -0.0990058 0
0.135172 -0.0971052 0
0.135172 -0.0952046 0
0.135172 -0.0933041 0
0.135172 -0.0914035 0
0.135172 -0.0895029 0
0.135172 -0.0876023 0
0.135172 -0.0857017 0
0.135172 -0.0838012 0
0.135172 -0.0819006 0
0.133758 -0.0788462 0
0.132345 -0.0776923 0
0.130932 -0.0765385 0
0.129519 -0.0753846 0
0.128105 -0.0742308 0
0.126692 -0.0730769 0
0.125279 -0.0719231 0
0.123866 -0.0707692 0
0.122452 -0.0696154 0
0.121039 -0.0684615 0
0.119626 -0.0673077 0
0.118213 -0.0661538 0
0.116799 -0.065 0
0.115386 -0.0638462 0
0.113973 -0.0626923 0
0.11256 -0.0615385 0
0.111146 -0.0603846 0
0.109733 -0.0592308 0
0.10832 -0.0580769 0
0.106907 -0.0569231 0
0.105493 -0.0557692 0
0.10408 -0.0546154 0
0.102667 -0.0534615 0
0.101254 -0.0523077 0
0.0998404 -0.0511538 0
0.0984272 -0.05 0
0.0970139 -0.0488462 0
0.0956006 -0.0476923 0
[...]
CELL_DATA 13116
SCALARS rho float
LOOKUP_TABLE default
0.608802
0.701245
0.345729
0.701005
0.701515
0.692877
0.321812
0.702853
0.546551
0.700278
0.321816
0.300924
0.701477
0.30511
0.352572
0.695557
0.602946
0.697811
0.707178
0.32049
0.60108
0.375791
0.309799
0.699246
0.603932
0.703899
0.700224
0.341321
0.576847
0.649742
1.13181
0.303252
0.559125
0.473151
0.330925
0.606481
0.677412
0.711911
0.829354
0.701951
0.705282
0.702521
0.499639
0.333082
0.708551
0.707912
0.704201
0.708109
0.35585
0.521949
0.701539
0.500259
0.302493
0.596354
0.561713
0.58954
0.327187
0.700005
0.527341
0.327139
0.305915
0.700736
0.700556
0.909599
1.14569
0.314269
0.700115
0.676061
0.700103
1.14159
0.359279
0.563261
0.364597
0.314686
1.1322
0.346215
0.676768
0.701998
0.316817
0.694767
0.691557
0.704302
0.699972
0.708557
0.711408
0.403594
0.311841
0.666247
0.704722
0.348241
0.303737
0.702677
0.699266
0.704471
0.6584
0.613124
0.605957
1.14192
1.13225
0.58221
0.67215
0.688058
0.703135
0.453858
0.707329
0.286727
0.360681
0.535484
0.331108
0.589512
0.558152
0.70107
0.609797
0.690259
0.695479
0.700266
0.30803
0.394141
0.702062
0.701048
0.674479
0.360369
0.700394
0.303313
0.70504
0.438651
0.311157
0.495872
0.327484
0.518661
0.702036
0.707585
0.463705
0.380379
0.445172
0.637927
1.13919
0.700892
0.67063
0.70103
0.668845
0.704733
0.499296
0.670924
0.690245
0.302345
0.329831
0.703938
0.701532
0.702185
0.510815
0.708607
0.708091
0.330063
0.700903
0.706516
0.31001
0.67776
1.13873
0.665301
0.699434
0.319905
0.700663
0.31099
0.346641
0.701055
0.7053
0.69754
0.3278
0.427371
0.40056
1.13208
0.34062
0.490341
0.700348
0.309313
0.376647
0.366632
0.700744
0.687055
0.33333
0.422344
0.577973
0.675417
0.693269
0.530894
0.324771
0.699572
0.699836
0.461149
0.664326
0.703537
1.13749
0.308461
0.700818
0.682526
0.700213
0.699725
0.704288
0.45304
0.46041
0.598469
0.491211
0.311222
0.701927
0.709174
0.506492
0.619301
0.290519
0.330745
0.339243
0.699068
0.310735
0.334165
0.341228
0.32951
0.387378
0.816516
0.705174
0.388502
0.321952
0.700083
0.553931
0.334944
0.511276
0.700501
0.689159
0.341556
0.700235
0.371269
0.703907
0.303788
1.12471
0.549174
1.1407
0.703276
1.10217
0.305144
0.435183
0.663349
1.13108
0.681797
1.14158
1.09635
0.703674
0.376994
0.701097
0.700821
1.13536
0.323426
0.357885
0.708761
0.702176
1.13082
0.707557
0.60228
0.687067
0.321733
0.3112
0.415452
0.283023
0.704582
0.700308
0.67647
0.314304
0.701262
0.31865
0.400286
0.708719
0.332415
0.704374
0.701302
1.13164
0.700084
0.307944
1.13176
0.694576
1.13795
0.700967
0.317945
0.31502
0.309672
0.63747
0.359247
0.383988
0.345081
0.354801
0.711752
0.274214
0.70351
0.701544
0.320958
0.323451
0.318566
0.436905
0.347883
0.665445
0.668717
0.705232
0.332472
0.698684
0.545342
0.322137
0.333411
0.713491
0.702176
0.699636
0.324371
0.691201
0.452727
0.70769
0.702056
0.702058
0.701884
0.308937
0.700112
0.294672
0.698397
0.699782
0.660298
0.327958
0.34066
0.700753
0.316753
0.711786
0.700754
0.423162
0.685675
0.700051
0.317897
0.702021
0.699445
0.259402
0.702127
0.389958
0.530683
0.705427
0.402318
0.679152
0.314862
0.698891
0.344421
1.01803
0.703077
0.700026
0.339714
0.368399
0.70943
0.330105
0.702555
0.699805
0.41799
1.13172
0.328278
0.363107
0.705677
0.516313
0.677461
0.314821
0.310525
0.701101
0.701596
0.32473
0.70144
0.305988
0.280021
0.700472
0.705236
0.541718
0.364635
0.701555
1.13502
0.695384
0.702092
0.701068
0.514642
0.3516
0.300489
0.331286
0.69201
0.333125
0.578627
0.416214
0.307586
0.363444
0.547649
0.130107
0.331463
0.712672
0.303543
0.700747
0.581004
0.707226
0.657807
0.701391
0.359175
0.315983
0.461074
0.358762
0.705327
0.607508
0.705901
0.580436
0.690447
0.631669
0.703987
0.655066
0.648339
0.701168
0.693872
0.679875
0.418123
0.504307
0.605694
0.363676
0.667261
0.591291
0.308188
0.700261
1.13115
0.309759
0.322193
0.330943
0.325948
0.60438
0.343067
0.308657
0.699498
0.316538
0.55211
0.344507
0.696633
0.699115
0.348487
0.385169
0.706028
0.433546
0.351839
0.324696
0.35708
0.330144
0.316914
0.323495
0.389381
0.404952
0.32571
0.688492
0.348721
0.702793
0.363416
0.302437
0.456734
0.301789
0.344969
0.302293
0.701591
0.414293
0.624154
0.545761
0.316232
0.622833
0.704727
0.400817
0.684894
0.637029
0.639064
0.318239
1.13747
0.394567
0.700902
1.13218
0.322016
0.292085
0.701347
0.354766
0.401332
0.704971
0.36048
0.676595
0.693078
0.325236
0.369765
0.340337
0.486986
0.336811
0.248639
0.347401
0.295423
0.700935
0.700852
0.442144
0.585445
0.449046
0.699862
0.378761
0.351852
0.549265
0.324303
0.708187
0.333179
0.376874
0.459408
0.709112
0.705333
0.524194
0.422856
0.303099
0.522694
0.702473
1.12063
0.519745
0.705302
0.705086
0.326492
0.698046
0.545079
0.662187
0.361765
0.348838
0.689283
0.699888
0.655904
0.700397
0.707401
0.704214
0.699218
0.66013
0.707002
0.346168
0.7094
0.332207
0.291107
0.337939
0.700919
0.709137
0.335876
0.710273
0.592478
0.329528
1.03265
0.702259
0.701269
0.340783
0.351822
0.701858
0.355798
0.357246
0.295648
0.327534
0.708443
0.248726
0.700623
0.3489
0.700151
0.701514
0.699784
0.701576
0.357077
0.327793
0.708398
0.704135
0.677032
0.700927
0.700853
0.44557
0.318227
0.329542
0.697656
0.536451
0.331767
0.432886
0.307499
0.70469
0.699852
0.35812
0.381008
0.706051
0.408835
0.712912
0.644939
0.323366
0.37147
0.675098
1.13133
0.3124
0.705179
0.705119
0.708681
0.347466
1.13297
0.317721
1.1422
0.660412
0.365973
0.386137
0.389073
1.14765
0.33371
0.313174
0.397611
0.898405
0.705178
0.313904
0.307815
0.333948
0.982022
0.364419
0.688193
0.304245
0.565984
0.700457
0.382804
0.310515
0.309961
0.447769
0.331838
0.704905
0.324241
0.353945
0.682861
0.315431
0.698795
0.709608
1.14377
0.352309
0.708168
0.7005
0.700471
0.698092
0.705224
0.700473
0.304925
1.13521
0.393503
0.709306
0.317494
0.703309
0.524257
0.328598
1.1485
0.701452
0.339235
0.653064
0.304051
0.361696
0.699384
0.701551
0.306415
0.30253
0.315654
0.304014
0.705014
0.699077
0.34495
0.325552
0.702612
0.701155
0.569458
0.700618
0.699658
0.320858
0.700226
0.406431
0.701468
0.402726
0.600937
0.439634
0.699947
0.67883
0.545082
0.37479
0.338116
0.699938
0.573958
0.594857
0.700629
0.299577
0.698113
0.700981
0.351672
0.502886
0.700655
0.415714
1.14719
0.6645
0.338153
0.701616
0.656372
0.352788
0.704324
0.309227
0.706302
0.340635
0.698796
0.69998
0.337023
0.829841
0.700678
0.701761
0.595726
0.702499
0.54596
0.381935
0.445747
0.302637
0.313302
1.13169
0.514606
0.700694
0.701563
0.344789
0.382657
0.705001
0.700479
0.705581
0.701561
0.322065
0.693683
0.70088
0.321037
0.294223
0.702058
0.708565
0.709189
0.298789
0.551314
0.348454
0.703475
0.712349
1.11596
0.707484
0.329804
0.708133
0.702808
0.699828
0.702105
0.704882
0.389966
0.701077
0.331419
0.685846
0.700517
0.427255
0.693035
1.09261
0.701507
0.469226
0.419671
0.549518
0.648702
0.354423
0.365865
0.332748
0.326667
0.699932
0.69774
1.10713
0.358893
0.323991
0.699963
0.678294
0.258663
0.40096
0.433961
0.682481
0.699731
0.702387
0.697653
0.331513
0.35492
1.13193
0.303056
0.334513
0.324877
0.698608
0.347703
0.357209
0.585154
0.708561
0.701234
0.683635
0.699289
0.309992
0.337352
0.333051
0.551538
0.414795
0.30387
0.676113
0.695773
0.71734
0.70386
0.300098
0.353157
0.700365
0.341767
0.704073
0.70107
1.1381
0.306403
0.358282
0.709877
1.14182
0.626016
0.252949
0.710489
0.679974
0.583022
0.702106
0.702037
1.13188
0.703619
0.323044
0.699076
1.14221
0.665889
0.702724
1.13197
0.701831
1.13738
0.701007
0.352762
0.357669
0.352688
1.13812
0.530021
0.342765
0.705489
0.702272
0.298921
0.65613
0.349425
0.663642
0.539536
0.325836
0.700663
0.698933
0.333466
0.506359
1.1356
0.314446
0.704779
0.311168
0.284862
0.629635
0.597257
0.456241
0.704238
0.332543
0.700776
0.359688
0.298292
0.698549
0.330592
0.614795
0.307435
0.65797
0.600298
1.13185
0.705252
0.314025
0.354698
0.68348
0.505001
0.705813
0.482993
0.608024
0.69389
0.699727
0.514853
0.5863
0.700359
0.700235
0.700015
0.34682
0.363904
0.500873
0.700522
0.700038
0.401317
0.701819
0.62736
0.453085
0.306595
0.662385
0.682168
1.14151
1.14764
0.700966
0.693722
0.792835
0.685319
0.306685
0.653648
0.432317
0.701809
0.708654
0.340638
0.704698
0.701915
0.363878
0.305713
0.317941
1.13195
0.319715
0.62722
0.701343
0.654015
0.306411
0.71317
0.309231
0.55252
0.965037
1.12304
0.674284
0.987141
0.612493
0.690847
0.550481
0.709464
0.338449
0.701357
0.699739
0.489912
1.14068
0.700089
0.310601
0.309854
0.317642
0.702034
0.36531
1.13815
0.332845
0.70294
0.290999
0.43999
0.305831
0.700843
0.701305
0.599717
0.269556
0.615552
0.743287
0.335214
0.571203
0.700861
0.30334
0.590925
1.13609
0.700481
0.704464
0.320807
0.53244
0.703855
0.707145
0.685597
0.360224
0.415135
0.711487
1.13181
1.13105
1.13141
0.592139
0.70751
0.587921
0.701725
0.359672
0.310015
1.13133
0.701701
0.836522
0.313775
0.701238
0.605271
0.628604
0.350462
0.389616
0.701423
0.701451
0.53916
0.351037
0.707307
1.14086
0.32071
0.599661
0.697298
0.32376
0.302179
0.29841
0.69611
0.379049
0.347943
0.702734
0.487736
0.700234
0.659742
0.327746
0.317883
0.70096
0.362851
0.345724
1.13952
0.288903
0.383342
0.59493
0.705253
0.708111
0.325027
0.351477
0.322761
0.708763
0.285012
0.708103
0.336127
0.706518
0.704043
0.70827
0.709862
0.70672
0.712019
0.699693
0.701669
0.707059
0.245074
0.332373
0.702556
0.747688
0.460229
0.700536
0.55177
0.868967
0.666246
0.34762
0.700582
0.700844
0.709837
0.323244
0.707842
0.351858
0.708567
0.448137
0.696334
0.69811
0.3298
0.705433
0.331953
0.468855
0.699403
0.324393
0.679341
1.13183
0.704573
0.32638
0.6995
0.327692
0.305666
0.307394
0.342729
0.673022
0.335646
0.66906
1.04375
0.348233
0.308516
0.441623
0.548958
0.63975
0.691489
0.352531
0.315085
0.320527
0.305462
0.258955
0.642659
0.702257
0.342534
1.01208
0.701831
0.296609
0.700703
0.676783
0.992073
0.329171
1.1441
0.701672
0.701177
0.701977
0.342475
0.707754
0.70143
0.707844
0.6608
0.682113
0.37264
0.30736
0.708519
0.49553
0.361494
0.698215
0.307554
0.532286
0.646898
0.70883
0.706602
0.304624
0.701364
0.415461
0.324587
0.688357
0.701751
0.701366
0.701194
0.673741
0.306008
0.701284
0.32394
0.458391
0.701107
1.13226
0.704589
0.324859
0.316584
0.700664
0.322716
0.702004
0.637957
0.415249
0.388049
0.700875
0.307551
0.697854
0.702309
0.676782
0.307646
0.358954
0.486414
0.548173
0.634178
0.467242
0.694671
0.693142
0.70235
1.13175
0.705898
0.315387
0.392266
0.701919
0.682014
0.681719
0.424171
0.312221
0.695888
0.331205
0.699731
0.590822
0.35041
0.705951
0.321625
0.70478
0.347729
0.701415
0.30932
0.708114
0.67695
0.299848
0.704937
0.648475
0.302332
1.1016
0.705956
0.554883
0.299976
0.398355
0.467089
0.700513
0.694518
0.339153
0.547782
0.705694
0.680634
0.299279
0.637549
0.71055
0.403611
0.69318
0.698505
0.32417
0.706972
1.14328
0.344587
0.61467
0.326378
0.666385
0.330971
0.276003
0.699859
0.34801
0.335626
0.312711
0.699965
0.707322
0.423454
0.70747
0.395064
0.689713
0.328916
0.707322
0.411334
0.696447
0.708388
0.672919
1.10115
0.50918
0.67569
0.994748
0.342726
0.626128
0.673511
0.56593
0.70599
0.447762
0.437387
0.701367
0.333571
0.552276
0.350289
0.705039
0.257154
0.308393
0.698828
0.699479
0.325602
0.701718
0.694913
1.13181
0.701631
1.14692
0.32421
0.700609
0.329484
0.311181
0.705202
0.698865
0.702532
0.703666
0.305184
0.330835
0.320995
0.703598
1.04967
0.396535
0.705429
0.312826
0.329228
0.348473
0.704218
0.400765
0.700956
0.70676
0.622932
0.701745
0.707609
0.592766
0.674366
0.400838
0.301908
0.326216
1.14725
1.14718
0.312962
0.643488
0.694606
0.672942
0.319393
0.474062
0.694155
0.302132
0.690062
0.666113
0.332176
0.731284
0.701248
0.347427
0.708215
0.341992
0.700505
0.699805
0.707358
0.325779
0.423132
0.67868
0.328834
0.394773
0.701618
0.345908
0.690354
0.700009
0.704294
0.694631
0.354623
1.14804
0.687764
0.707062
0.358615
0.701641
0.367194
0.299902
0.71428
0.699689
1.03198
0.246818
0.698676
0.621758
1.13213
0.314843
0.303299
0.355721
0.701178
0.318261
0.326518
0.352895
0.666468
0.33734
0.342631
0.404239
0.708137
0.338842
1.10777
0.852208
0.701704
0.326046
0.706942
0.655044
1.02502
0.392527
0.659135
0.334153
0.33456
0.699383
0.324788
0.64798
0.704771
1.13133
0.33917
0.342932
0.333216
0.520224
1.13966
0.255065
0.711017
0.699811
0.696726
0.330622
0.32312
0.347729
0.700039
0.337845
1.13218
0.580465
0.747017
0.711208
0.318553
0.652864
0.305345
0.673644
0.640531
0.700359
0.655113
0.568576
0.662065
0.683652
0.702074
0.329127
0.374615
0.317682
0.695478
0.538894
1.13217
0.337784
0.399581
0.700967
0.707614
1.1358
0.325375
0.701884
0.518119
0.52373
0.693946
0.329503
0.325822
0.329716
0.69982
1.06477
0.658586
0.699414
0.350065
0.704628
0.654239
1.05711
1.07017
0.704295
0.700806
0.684153
0.699357
0.701245
0.32335
0.702088
0.701243
0.698152
0.702469
0.699779
0.637469
0.330267
0.292248
0.670738
0.359033
0.353152
0.702136
0.35519
0.622773
0.699757
0.702101
0.709465
0.315399
0.702072
0.306979
0.309538
0.693182
0.70768
0.702306
0.324835
0.701414
0.705174
0.678667
0.699501
0.36916
0.697121
0.700583
0.69898
0.43356
0.699335
0.324972
0.700618
0.329322
0.332251
0.605828
0.428576
0.700622
0.700442
0.702749
0.352484
0.691791
0.427347
0.355139
0.703254
0.441734
0.354194
0.704264
0.285519
0.468058
0.67124
0.698176
0.715734
0.444703
0.563839
0.659921
0.697086
0.638986
0.701415
0.497009
0.703148
0.698627
0.652695
0.300265
0.317594
0.42478
0.701318
0.311588
0.663627
0.701792
0.612969
0.697072
0.588801
0.680725
0.686766
0.328063
0.701649
0.701116
0.575529
0.703761
0.700915
0.705007
0.698298
0.331513
0.353306
0.709088
0.544527
0.594973
0.701095
0.708517
0.707111
0.699818
0.700076
0.631546
0.693752
0.70014
0.328521
0.294669
0.26247
0.349738
1.13131
0.448793
0.586277
0.706425
0.690394
0.314383
0.709175
0.70106
0.323626
0.381087
1.13901
0.701724
0.332683
0.296734
0.297547
1.13199
0.704315
0.463224
0.318364
0.329943
0.269177
0.414385
0.362671
0.704084
0.708277
0.703319
0.330612
0.703291
0.630657
0.584515
0.390325
0.320441
0.703491
1.13468
0.350522
0.695087
0.34557
0.699187
0.32343
0.701869
0.323945
0.71701
0.701199
0.327535
0.526134
0.363533
0.700638
0.29289
0.635294
0.307493
0.509926
0.332624
0.631077
0.335629
1.11619
1.13309
0.58426
0.706363
0.392636
0.708255
0.744383
0.701327
0.627331
0.690265
0.321388
0.47862
0.315066
0.699787
0.312317
0.701943
0.517851
0.698212
0.700576
0.53421
0.701136
0.359141
0.308441
0.338272
0.503738
0.608978
0.708403
0.333019
0.382329
0.698039
0.360536
0.30715
0.632447
0.384139
0.354245
0.291779
0.702576
0.64691
0.638188
0.310111
0.70631
0.700057
0.300146
0.329506
0.702564
0.698724
0.670168
0.472941
0.378689
0.357541
0.331154
0.705058
0.673825
0.541568
0.68647
0.300237
0.583126
0.320639
1.14725
0.701979
0.324037
0.320183
0.676078
0.627972
0.701681
0.701352
0.700761
0.701918
0.70108
0.328642
0.366979
0.318185
0.31834
0.605894
1.13413
0.648656
0.320837
0.342973
0.482807
0.30194
0.707553
0.696422
0.337908
0.361365
0.699732
0.314845
0.659982
0.700998
0.709999
0.685894
0.608208
0.35525
0.321484
0.693638
0.32546
0.455635
0.421294
0.748254
0.701009
0.2969
0.332807
1.13183
0.335451
0.700069
0.699605
0.345814
0.36492
0.284529
0.700141
0.305484
1.13206
0.701226
0.618054
0.297067
0.492092
0.701849
0.713298
0.314487
0.711794
0.669849
0.303568
0.702743
0.702624
0.323818
0.35429
0.70834
0.333205
0.318054
0.709884
0.339194
0.708469
0.680063
0.699178
0.668104
0.701718
0.700014
0.681406
0.318503
0.384586
0.682495
0.70823
0.420849
0.700741
0.37369
0.700951
0.714219
0.568679
0.653996
0.476598
0.43504
0.70895
0.701686
0.697879
0.7011
0.699313
1.1326
0.702023
1.1317
0.705205
0.703834
0.704401
1.13454
0.6761
0.30278
0.704512
0.341581
0.700733
0.701761
0.700485
0.710729
0.692793
0.362923
0.329404
0.338182
0.315105
0.707204
0.32147
0.329429
0.694105
0.298202
0.698873
0.331795
0.711035
0.707743
0.348162
0.361376
0.350829
0.700955
0.313921
0.708471
0.705606
0.340549
0.703039
0.528653
0.357486
0.339352
0.29984
0.687887
0.356427
0.701691
0.58617
0.370029
0.699701
0.705889
0.700645
0.345165
0.588986
0.307263
0.703668
0.691932
0.700333
0.362788
0.708276
0.700946
0.703679
0.410145
0.700989
0.352134
0.327057
0.702974
0.443861
0.700393
0.474589
0.360108
0.409737
0.711764
0.335891
0.303229
0.345412
0.541308
1.1374
0.706571
0.285429
0.62521
0.699653
0.518418
0.490648
0.35071
0.530588
0.361512
0.322592
0.709244
0.328552
0.342675
0.701991
0.700995
0.324239
0.696951
0.331446
1.13432
0.342786
0.704511
1.1373
0.694182
0.78518
0.360415
0.322707
0.30779
0.683516
0.70404
0.560797
0.529805
0.35597
0.323231
0.701725
0.320189
0.708519
0.365703
1.12376
0.677979
0.322876
0.335086
0.328621
0.331833
0.338476
0.678065
0.706016
0.324863
0.705278
0.647731
0.377869
0.337142
0.700951
0.350871
0.708062
0.395099
0.69528
0.658436
0.706795
1.14498
0.352277
0.70016
0.701149
0.702529
0.349779
0.690051
0.573007
0.351852
0.701063
0.673632
0.70349
0.708444
0.701023
0.703334
0.701709
0.698316
0.70617
0.348694
0.700368
0.328927
0.492355
0.701579
0.307846
0.71538
0.702497
0.374495
0.707522
0.350805
0.303905
0.704779
0.700062
0.700977
0.327373
0.709342
0.611828
0.343344
0.328475
0.705092
0.69988
0.378625
0.352055
0.700952
0.700886
0.362066
0.651484
0.701336
0.647898
0.320233
0.350018
0.306036
0.658806
0.313199
0.711317
0.694757
0.702542
0.635042
0.70785
0.328309
0.704352
0.596945
0.701333
0.654134
0.307818
0.316925
0.248892
0.699553
0.704657
0.39173
0.65656
0.352373
0.675035
0.700832
0.290814
0.667667
0.711112
0.634518
0.32915
0.315253
0.349959
0.702793
0.700457
0.609252
0.472939
0.708077
0.347628
0.639191
1.13191
0.708064
0.329093
0.607878
0.376143
0.706549
0.272302
0.708404
0.704763
0.310332
0.702629
0.502457
1.13219
0.658502
1.13208
0.702012
0.436576
0.700425
0.706795
0.700836
0.70823
0.433622
1.13201
0.255299
0.707217
0.266218
0.334053
0.290714
0.336598
0.358786
0.327456
0.701024
0.359075
0.335831
0.670039
0.702162
0.706991
0.446004
0.691249
0.685348
0.68236
0.301266
0.653366
0.700164
0.351233
0.350953
0.322798
0.637697
0.464058
0.344879
0.640984
0.300504
1.1475
0.458279
0.308774
0.435823
0.653697
0.349007
0.699977
0.313201
0.557653
0.37646
0.704749
0.390031
0.671784
1.13208
0.696869
0.489036
0.327231
0.705129
0.700793
0.352153
0.305659
0.691041
0.331026
0.698907
0.331526
0.527279
0.252358
0.700065
0.364502
0.700887
0.331893
0.700836
0.707401
0.701877
1.13392
0.261368
0.309424
0.447689
0.704472
0.693221
0.710849
0.613779
0.386032
0.701175
0.350288
0.705506
0.697338
0.44392
0.382523
0.700889
0.708786
0.307337
1.13239
0.704933
0.701215
0.699398
0.313314
0.640966
0.333781
0.701405
0.299329
0.953423
0.702377
0.705237
0.700987
0.373165
0.701589
0.345417
0.327901
0.69991
1.13397
0.551735
0.708942
1.13111
0.347767
0.698483
0.70466
0.702047
0.306059
0.42038
0.686155
0.32117
0.701175
0.701852
0.714512
0.704272
0.300691
0.468428
0.650431
0.30983
0.709328
0.70061
0.486254
0.705064
0.276633
0.692659
0.698515
0.675698
0.704797
0.314538
0.308893
0.708287
0.712342
0.37794
0.393084
0.363228
0.310439
0.327313
0.301612
0.346634
0.360219
0.708043
0.282662
0.3211
0.701328
0.554374
1.1319
0.3946
0.335869
0.699802
0.469264
0.550795
0.700802
0.385411
0.657107
1.10918
0.590792
0.706647
0.315171
0.706405
0.891405
0.352537
0.325939
0.442883
0.702442
0.592915
0.700959
0.696747
0.707931
0.707011
0.359661
0.705407
0.789934
0.704896
0.332316
0.699943
0.677901
0.35587
0.417258
0.285142
0.306253
0.305082
0.59653
0.672718
0.702882
0.323751
0.364865
0.701189
0.299267
0.705157
0.707115
0.713998
0.675637
0.708129
0.350673
0.30693
0.30128
0.594234
0.304752
0.707528
0.298288
0.699536
0.692487
0.702536
0.350446
0.458784
0.429287
0.707749
0.351516
0.321833
0.702328
0.707445
0.657375
0.694907
0.704833
0.698756
0.361065
0.608438
0.701443
0.489335
0.708123
0.702484
0.700238
0.408169
0.392136
0.70211
0.45522
0.640625
0.335053
0.696505
0.713599
0.440399
0.316889
0.701215
0.493095
0.701656
0.70493
0.357861
0.322742
1.14523
0.48401
0.452435
0.704963
0.705085
0.370221
0.711866
1.13992
0.709337
0.366261
0.594884
0.356874
0.702376
0.702032
0.699113
0.700281
1.14695
0.352373
0.395434
0.706321
0.336474
0.585644
0.367509
0.706323
0.301451
0.658885
0.701472
1.14713
0.36313
1.13202
1.13509
0.319733
0.694874
0.299074
0.702532
0.3577
0.322467
0.300466
0.699314
0.704661
0.336313
0.34062
0.703951
0.701165
0.439885
0.692554
0.358252
0.545118
0.335323
0.705349
0.321244
0.672835
0.703759
0.339372
0.483782
0.32288
1.08349