# vtk DataFile Version 1.0
unstructured grid
ascii
DATASET UNSTRUCTURED_GRID
points 13672 float
0.0796578 -0.059106 0
0.00128732 0.00159165 0
0.00227961 -0.00102548 0
0.0791586 -0.0598787 0
-0.0546216 0.01 0
0.000495206 0.025 0
0.0800549 -0.035 0
0.135172 -0.08 0
-0.0546216 -0.0451168 0
0.000495206 -0.0301168 0
0.0800549 -0.0901168 0
0.135172 -0.135117 0
-0.0546216 -0.0451168 -0.00551168
0.000495206 -0.0301168 -0.00551168
0.0800549 -0.0901168 -0.00551168
0.135172 -0.135117 -0.00551168
0.135172 -0.08 -0.00551168
0.0800549 -0.035 -0.00551168
0.000495206 0.025 -0.00551168
-0.0546216 0.01 -0.00551168
0.00128732 0.00159165 -0.00551168
0.00227961 -0.00102548 -0.00551168
0.0791586 -0.0598787 -0.00551168
0.0796578 -0.059106 -0.00551168
0.00165953 -0.000990923 0
0.00119576 -0.000874076 0
0.000866021 -0.000641801 0
0.000645147 -0.000349912 0
0.00052235 -1.7281e-05 0
0.00049972 0.000348016 0
0.000601632 0.000737716 0
0.000861774 0.0011403 0
0.00157235 0.00183217 0
0.00188647 0.00206725 0
0.00222612 0.00230203 0
0.00258713 0.00254351 0
0.00296826 0.00279524 0
0.00337118 0.00305664 0
0.00379785 0.00332658 0
0.00425045 0.00360349 0
0.00473139 0.00388521 0
0.0052432 0.00416895 0
0.0057881 0.00445204 0
0.00636753 0.00473281 0
0.00698281 0.00500961 0
0.00763526 0.00528058 0
0.00832616 0.00554366 0
0.00905691 0.00579603 0
0.00982918 0.00603333 0
0.0106445 0.00625033 0
0.0115038 0.00644128 0
0.0124073 0.00660297 0
0.0133543 0.00673414 0
0.0143444 0.00683382 0
0.0153769 0.00690031 0
0.0164512 0.00693173 0
0.0175666 0.00692547 0
0.0187219 0.00687822 0
0.0199156 0.00678477 0
0.0211454 0.00663864 0
0.0224084 0.00643275 0
0.0237018 0.00616676 0
0.0250249 0.00584739 0
0.026375 0.00547298 0
0.0277479 0.00503752 0
0.0291386 0.00453545 0
0.0305433 0.0039653 0
0.0319572 0.0033256 0
0.0333681 0.00260019 0
0.034775 0.00179799 0
0.0361793 0.000930615 0
0.0375798 3.12222e-06 0
0.0389689 -0.000988429 0
0.0403357 -0.00205109 0
0.041675 -0.00318283 0
0.0429849 -0.00437751 0
0.0442643 -0.00562904 0
0.0455126 -0.00693089 0
0.0467314 -0.00827518 0
0.0479204 -0.00965638 0
0.0490661 -0.0110799 0
0.0501515 -0.0125519 0
0.0511696 -0.0140695 0
0.0521492 -0.0156071 0
0.0531202 -0.0171411 0
0.0540851 -0.0186663 0
0.0550431 -0.0201798 0
0.0559923 -0.0216793 0
0.0569311 -0.0231626 0
0.0578582 -0.0246273 0
0.0587723 -0.0260715 0
0.0596721 -0.027493 0
0.0605563 -0.02889 0
0.0614241 -0.0302609 0
0.0622742 -0.0316042 0
0.063106 -0.0329183 0
0.0639186 -0.034202 0
0.0647113 -0.0354543 0
0.0654835 -0.0366743 0
0.0662345 -0.0378613 0
0.0669642 -0.0390145 0
0.0676726 -0.0401333 0
0.0683597 -0.0412172 0
0.0690246 -0.0422665 0
0.0696662 -0.0432819 0
0.0702841 -0.0442636 0
0.0708793 -0.0452111 0
0.0714538 -0.0461237 0
0.072009 -0.047001 0
0.0725452 -0.0478434 0
0.0730611 -0.0486524 0
0.073556 -0.0494294 0
0.0740291 -0.0501756 0
0.0744812 -0.0508916 0
0.0749138 -0.0515773 0
0.0753285 -0.0522331 0
0.0757266 -0.0528592 0
0.076109 -0.0534564 0
0.0764753 -0.0540264 0
0.0768243 -0.054571 0
0.0771553 -0.0550919 0
0.0774679 -0.0555901 0
0.0777617 -0.0560669 0
0.0780369 -0.056523 0
0.0782958 -0.0569578 0
0.0785421 -0.0573703 0
0.0787786 -0.0577603 0
0.0790073 -0.0581279 0
0.0792295 -0.058474 0
0.0794462 -0.0587995 0
0.0798803 -0.0594162 0
0.0800272 -0.0596588 0
0.0800357 -0.0598891 0
0.0799275 -0.0600784 0
0.0797205 -0.0601773 0
0.0794593 -0.0601051 0
0.0789155 -0.0596491 0
0.0786707 -0.0593963 0
0.0784111 -0.0591319 0
0.0781372 -0.0588542 0
0.0778566 -0.0585548 0
0.0775715 -0.0582308 0
0.0772803 -0.0578828 0
0.0769832 -0.0575099 0
0.0766822 -0.0571097 0
0.0763801 -0.0566796 0
0.0760759 -0.0562196 0
0.0757623 -0.0557337 0
0.0754359 -0.0552232 0
0.0750951 -0.0546879 0
0.0747379 -0.054128 0
0.0743626 -0.0535435 0
0.0739688 -0.0529338 0
0.0735559 -0.0522981 0
0.0731238 -0.0516357 0
0.0726718 -0.050946 0
0.0721991 -0.0502288 0
0.0717046 -0.049484 0
0.0711872 -0.0487117 0
0.0706461 -0.047912 0
0.0700804 -0.0470849 0
0.0694892 -0.0462308 0
0.0688718 -0.0453499 0
0.0682271 -0.0444431 0
0.0675544 -0.043511 0
0.0668527 -0.0425546 0
0.0661215 -0.0415748 0
0.06536 -0.040573 0
0.0645676 -0.0395504 0
0.0637439 -0.0385087 0
0.0628887 -0.0374493 0
0.062002 -0.0363741 0
0.0610838 -0.0352847 0
0.0601345 -0.0341831 0
0.0591547 -0.033071 0
0.0581456 -0.0319502 0
0.0571083 -0.0308224 0
0.0560444 -0.0296893 0
0.0549562 -0.028552 0
0.053845 -0.0274126 0
0.0527113 -0.0262746 0
0.051554 -0.0251427 0
0.0503724 -0.0240222 0
0.0491675 -0.0229164 0
0.047941 -0.0218282 0
0.0466955 -0.0207597 0
0.0454337 -0.0197126 0
0.0441592 -0.0186878 0
0.0428751 -0.0176863 0
0.0415841 -0.0167097 0
0.0402878 -0.0157609 0
0.0389879 -0.0148428 0
0.0376864 -0.0139575 0
0.0363853 -0.013107 0
0.0350871 -0.0122931 0
0.0337942 -0.0115164 0
0.0325095 -0.0107772 0
0.0312357 -0.0100756 0
0.0299758 -0.00941024 0
0.0287337 -0.00877784 0
0.0275126 -0.00817571 0
0.0263139 -0.00760375 0
0.0251376 -0.00706528 0
0.0239829 -0.0065649 0
0.0228537 -0.00609619 0
0.0217522 -0.00565563 0
0.0206795 -0.00524226 0
0.0196364 -0.00485507 0
0.0186233 -0.00449318 0
0.0176408 -0.00415577 0
0.016689 -0.00384204 0
0.0157682 -0.00355115 0
0.0148783 -0.00328218 0
0.0140192 -0.00303468 0
0.0131906 -0.00280795 0
0.0123925 -0.00260016 0
0.0116246 -0.00241012 0
0.0108864 -0.00223769 0
0.0101774 -0.00208212 0
0.00949701 -0.00194206 0
0.00884483 -0.0018163 0
0.0082202 -0.0017039 0
0.00762247 -0.00160391 0
0.00705097 -0.00151528 0
0.006505 -0.00143697 0
0.0059838 -0.00136806 0
0.00548662 -0.00130772 0
0.00501265 -0.00125519 0
0.00456114 -0.00120954 0
0.00413136 -0.00116914 0
0.00372257 -0.00113251 0
0.00333398 -0.00109853 0
0.00296466 -0.00106798 0
0.00261363 -0.0010431 0
-0.052721 -0.0445996 0
-0.0508204 -0.0440823 0
-0.0489199 -0.0435651 0
-0.0470193 -0.0430478 0
-0.0451187 -0.0425306 0
-0.0432181 -0.0420134 0
-0.0413175 -0.0414961 0
-0.039417 -0.0409789 0
-0.0375164 -0.0404616 0
-0.0356158 -0.0399444 0
-0.0337152 -0.0394271 0
-0.0318146 -0.0389099 0
-0.0299141 -0.0383927 0
-0.0280135 -0.0378754 0
-0.0261129 -0.0373582 0
-0.0242123 -0.0368409 0
-0.0223117 -0.0363237 0
-0.0204112 -0.0358065 0
-0.0185106 -0.0352892 0
-0.01661 -0.034772 0
-0.0147094 -0.0342547 0
-0.0128088 -0.0337375 0
-0.0109083 -0.0332202 0
-0.00900769 -0.032703 0
-0.00710711 -0.0321858 0
-0.00520653 -0.0316685 0
-0.00330595 -0.0311513 0
-0.00140537 -0.030634 0
0.00190689 -0.0299614 0
0.00332271 -0.0298498 0
0.00474133 -0.0297825 0
0.00616136 -0.0297597 0
0.0075814 -0.0297814 0
0.00900007 -0.0298477 0
0.010416 -0.0299583 0
0.0118278 -0.0301127 0
0.0132342 -0.0303103 0
0.0146339 -0.0305504 0
0.0160259 -0.0308322 0
0.0174091 -0.0311546 0
0.0187824 -0.0315166 0
0.020145 -0.031917 0
0.0214961 -0.0323546 0
0.0228351 -0.032828 0
0.0241613 -0.0333361 0
0.0254744 -0.0338774 0
0.0267738 -0.0344507 0
0.0280592 -0.0350545 0
0.0293306 -0.0356877 0
0.0305875 -0.0363488 0
0.0318301 -0.0370367 0
0.0330581 -0.0377501 0
0.0342717 -0.0384879 0
0.0354708 -0.0392489 0
0.0366556 -0.0400321 0
0.0378262 -0.0408363 0
0.0389828 -0.0416607 0
0.0401254 -0.0425042 0
0.0412543 -0.0433659 0
0.0423698 -0.0442451 0
0.043472 -0.0451408 0
0.0445612 -0.0460523 0
0.0456375 -0.0469789 0
0.0467013 -0.0479199 0
0.0477529 -0.0488746 0
0.0487923 -0.0498424 0
0.04982 -0.0508227 0
0.0508362 -0.051815 0
0.051841 -0.0528187 0
0.0528348 -0.0538333 0
0.0538178 -0.0548584 0
0.0547903 -0.0558935 0
0.0557524 -0.0569382 0
0.0567045 -0.0579922 0
0.0576467 -0.0590549 0
0.0585792 -0.0601261 0
0.0595024 -0.0612055 0
0.0604163 -0.0622926 0
0.0613212 -0.0633873 0
0.0622174 -0.0644891 0
0.0631049 -0.0655979 0
0.0639841 -0.0667134 0
0.064855 -0.0678353 0
0.0657179 -0.0689633 0
0.0665729 -0.0700974 0
0.0674202 -0.0712372 0
0.06826 -0.0723826 0
0.0690925 -0.0735333 0
0.0699178 -0.0746892 0
0.070736 -0.0758501 0
0.0715473 -0.0770159 0
0.0723518 -0.0781863 0
0.0731498 -0.0793612 0
0.0739412 -0.0805405 0
0.0747264 -0.081724 0
0.0755053 -0.0829116 0
0.0762781 -0.0841033 0
0.0770449 -0.0852987 0
0.0778059 -0.0864979 0
0.0785611 -0.0877007 0
0.0793108 -0.088907 0
0.0814681 -0.0912706 0
0.0828814 -0.0924245 0
0.0842946 -0.0935783 0
0.0857079 -0.0947322 0
0.0871211 -0.095886 0
0.0885344 -0.0970399 0
0.0899476 -0.0981937 0
0.0913609 -0.0993476 0
0.0927741 -0.100501 0
0.0941874 -0.101655 0
0.0956006 -0.102809 0
0.0970139 -0.103963 0
0.0984272 -0.105117 0
0.0998404 -0.106271 0
0.101254 -0.107424 0
0.102667 -0.108578 0
0.10408 -0.109732 0
0.105493 -0.110886 0
0.106907 -0.11204 0
0.10832 -0.113194 0
0.109733 -0.114348 0
0.111146 -0.115501 0
0.11256 -0.116655 0
0.113973 -0.117809 0
0.115386 -0.118963 0
0.116799 -0.120117 0
0.118213 -0.121271 0
0.119626 -0.122424 0
0.121039 -0.123578 0
0.122452 -0.124732 0
0.123866 -0.125886 0
0.125279 -0.12704 0
0.126692 -0.128194 0
0.128105 -0.129348 0
0.129519 -0.130501 0
0.130932 -0.131655 0
0.132345 -0.132809 0
0.133758 -0.133963 0
0.135172 -0.133216 0
0.135172 -0.131316 0
0.135172 -0.129415 0
0.135172 -0.127514 0
0.135172 -0.125614 0
0.135172 -0.123713 0
0.135172 -0.121813 0
0.135172 -0.119912 0
0.135172 -0.118012 0
0.135172 -0.116111 0
0.135172 -0.11421 0
0.135172 -0.11231 0
0.135172 -0.110409 0
0.135172 -0.108509 0
0.135172 -0.106608 0
0.135172 -0.104708 0
0.135172 -0.102807 0
0.135172 -0.100906 0
0.135172 -0.0990058 0
0.135172 -0.0971052 0
0.135172 -0.0952046 0
0.135172 -0.0933041 0
0.135172 -0.0914035 0
0.135172 -0.0895029 0
0.135172 -0.0876023 0
0.135172 -0.0857017 0
0.135172 -0.0838012 0
0.135172 -0.0819006 0
0.133758 -0.0788462 0
0.132345 -0.0776923 0
0.130932 -0.0765385 0
0.129519 -0.0753846 0
0.128105 -0.0742308 0
0.126692 -0.0730769 0
0.125279 -0.0719231 0
0.123866 -0.0707692 0
0.122452 -0.0696154 0
0.121039 -0.0684615 0
0.119626 -0.0673077 0
0.118213 -0.0661538 0
0.116799 -0.065 0
0.115386 -0.0638462 0
0.113973 -0.0626923 0
0.11256 -0.0615385 0
0.111146 -0.0603846 0
0.109733 -0.0592308 0
0.10832 -0.0580769 0
0.106907 -0.0569231 0
0.105493 -0.0557692 0
0.10408 -0.0546154 0
0.102667 -0.0534615 0
0.101254 -0.0523077 0
0.0998404 -0.0511538 0
0.0984272 -0.05 0
0.0970139 -0.0488462 0
0.0956006 -0.0476923 0
[...]
CELL_DATA 13116
SCALARS rho float
LOOKUP_TABLE default
0.639948
0.689887
0.383637
0.689281
0.693392
0.686971
0.364159
0.69073
0.583964
0.693887
0.365836
0.385385
0.693322
0.373274
0.3959
0.686932
0.654299
0.701062
0.693599
0.364456
0.593194
0.417664
0.384399
0.699963
0.597704
0.6872
0.694068
0.392422
0.596774
0.691993
0.868052
0.393265
0.589824
0.546608
0.364392
0.619027
0.706769
0.69109
0.680776
0.688835
0.692733
0.691
0.568333
0.375673
0.692252
0.693313
0.681953
0.697025
0.418419
0.572868
0.69101
0.563274
0.362185
0.651193
0.590876
0.597666
0.375079
0.698805
0.575408
0.405366
0.374034
0.692931
0.686503
0.680357
0.76793
0.3621
0.687849
0.721663
0.688158
0.679242
0.395849
0.592335
0.411292
0.370487
1.12069
0.37026
0.685448
0.690519
0.3642
0.703689
0.712329
0.686149
0.699087
0.698142
0.687068
0.505973
0.35997
0.718158
0.686307
0.367818
0.382608
0.690582
0.697721
0.688557
0.692527
0.588767
0.597705
1.04174
1.08208
0.597341
0.721875
0.674428
0.691423
0.520709
0.680597
0.401842
0.477978
0.584315
0.387758
0.597703
0.591697
0.683795
0.591853
0.715613
0.703002
0.687988
0.360957
0.494776
0.690383
0.688749
0.722892
0.413373
0.688337
0.380848
0.68866
0.526195
0.359771
0.558905
0.383094
0.57111
0.689636
0.701627
0.53902
0.421469
0.528592
0.672005
1.12684
0.689237
0.723534
0.688714
0.677651
0.682816
0.560807
0.677668
0.684983
0.382515
0.364768
0.685542
0.694554
0.690265
0.566659
0.697551
0.696497
0.366762
0.694875
0.686674
0.387373
0.716132
1.03047
0.719942
0.699854
0.365424
0.697958
0.386631
0.410328
0.692031
0.687791
0.700947
0.364305
0.517683
0.502025
1.12666
0.392945
0.556182
0.687909
0.385592
0.407323
0.413857
0.683563
0.680755
0.367994
0.514833
0.596436
0.707956
0.680886
0.577173
0.360442
0.688193
0.680078
0.540561
0.681453
0.685141
0.660044
0.390391
0.683538
0.685154
0.69665
0.688462
0.686107
0.471889
0.521879
0.597702
0.556354
0.374076
0.700446
0.694064
0.567925
0.595388
0.396094
0.36757
0.367888
0.687004
0.389534
0.367805
0.367824
0.366433
0.488
0.680775
0.688438
0.500449
0.372925
0.687726
0.590084
0.367933
0.566245
0.693352
0.684708
0.393537
0.687899
0.488145
0.691185
0.391316
0.661022
0.586239
1.1139
0.687621
0.664378
0.420008
0.524267
0.725742
1.12546
0.683477
1.12678
0.670862
0.690731
0.41018
0.689561
0.694102
1.06788
0.365954
0.421473
0.695063
0.689943
0.681053
0.701342
0.641552
0.704581
0.365858
0.42981
0.486271
0.394154
0.679198
0.696555
0.684298
0.361802
0.68733
0.357996
0.502531
0.680712
0.367101
0.686712
0.690734
1.12617
0.69862
0.418448
1.12648
0.715302
1.05946
0.689128
0.364347
0.360077
0.390544
0.670314
0.410251
0.429849
0.467928
0.457445
0.690287
0.364986
0.687662
0.692547
0.360315
0.365849
0.357929
0.524104
0.391005
0.719232
0.672865
0.682291
0.367147
0.686418
0.584067
0.427635
0.405129
0.68509
0.689532
0.688489
0.359768
0.686013
0.530866
0.700749
0.690957
0.69022
0.690816
0.390374
0.687811
0.379781
0.688119
0.692931
0.756075
0.367126
0.465693
0.693695
0.358032
0.686103
0.692789
0.453163
0.708556
0.699106
0.358722
0.68726
0.69777
0.376214
0.68992
0.503294
0.576599
0.691658
0.506532
0.714546
0.36164
0.700942
0.468417
0.678771
0.674839
0.696901
0.392361
0.480044
0.686932
0.367244
0.701643
0.680731
0.511806
1.1269
0.36324
0.400041
0.702913
0.569537
0.717256
0.359571
0.387595
0.689581
0.692777
0.365057
0.691233
0.364484
0.406385
0.68849
0.691635
0.594902
0.367829
0.689059
0.807258
0.686927
0.687196
0.69424
0.568788
0.415033
0.38932
0.368029
0.686857
0.368028
0.597073
0.459669
0.388361
0.476836
0.596371
0.259145
0.367195
0.688619
0.380677
0.697165
0.597398
0.695106
0.701612
0.689674
0.400013
0.360409
0.479742
0.431869
0.704937
0.593728
0.694625
0.597383
0.685795
0.686851
0.685535
0.678464
0.691918
0.698754
0.704281
0.686725
0.489962
0.564652
0.637623
0.411696
0.672199
0.597698
0.361593
0.687932
1.12664
0.391232
0.365649
0.367539
0.362377
0.5977
0.373184
0.390558
0.687331
0.361051
0.58761
0.367991
0.687708
0.705096
0.394853
0.420612
0.703541
0.521742
0.367853
0.361648
0.367879
0.388479
0.360277
0.366068
0.423959
0.50494
0.366642
0.673782
0.408431
0.687283
0.448389
0.375049
0.533546
0.385849
0.367803
0.38663
0.688088
0.510089
0.597705
0.591369
0.360003
0.622121
0.686762
0.504337
0.709095
0.687397
0.686854
0.360498
1.09217
0.495644
0.696953
0.969794
0.390954
0.365593
0.679791
0.43342
0.505613
0.675381
0.477306
0.71821
0.685251
0.366579
0.404241
0.384788
0.554532
0.402372
0.36949
0.393062
0.378088
0.69077
0.691065
0.527266
0.597625
0.531009
0.683172
0.48023
0.371582
0.585319
0.391241
0.698501
0.439699
0.485541
0.536646
0.692101
0.687451
0.573872
0.449274
0.364345
0.571881
0.690576
0.662875
0.570303
0.679932
0.678671
0.366746
0.704266
0.584367
0.731642
0.465083
0.391368
0.716458
0.696726
0.693396
0.693395
0.685619
0.68805
0.700127
0.74002
0.694852
0.367933
0.691904
0.47081
0.40115
0.368013
0.689678
0.694074
0.462098
0.686439
0.597703
0.367342
0.676965
0.68934
0.709043
0.391979
0.369875
0.691578
0.367831
0.367813
0.393502
0.36694
0.69693
0.373153
0.688627
0.407253
0.690164
0.690802
0.687614
0.693198
0.367865
0.36748
0.696236
0.69101
0.69454
0.691022
0.694352
0.526778
0.359293
0.391676
0.68591
0.579766
0.367593
0.521241
0.387816
0.690129
0.68816
0.464026
0.419726
0.68622
0.509259
0.689718
0.588339
0.381881
0.487411
0.690052
1.12411
0.386893
0.687109
0.687906
0.695488
0.371139
1.12674
0.37261
1.11098
0.725114
0.367844
0.485861
0.428574
1.10135
0.387805
0.36295
0.497206
0.680221
0.707097
0.363358
0.426219
0.367821
0.677863
0.412515
0.683281
0.380871
0.593326
0.693379
0.452685
0.385838
0.384843
0.5279
0.391715
0.687556
0.359772
0.377879
0.68727
0.373779
0.686997
0.684729
1.0789
0.367441
0.699211
0.696706
0.696533
0.686032
0.691241
0.688296
0.39257
0.664164
0.502271
0.695052
0.36394
0.690555
0.573399
0.363832
0.825534
0.693883
0.366969
0.679143
0.384975
0.393436
0.687216
0.687994
0.385846
0.386304
0.363893
0.393462
0.690742
0.699706
0.37022
0.365944
0.702537
0.689211
0.594406
0.696792
0.688094
0.365656
0.696569
0.505283
0.691003
0.500063
0.597706
0.524195
0.687745
0.717402
0.584478
0.476588
0.391506
0.688181
0.59606
0.641587
0.697069
0.390067
0.710476
0.695139
0.488854
0.564685
0.696422
0.456455
0.719805
0.726396
0.463176
0.688895
0.691781
0.390765
0.708134
0.390522
0.685699
0.371203
0.686855
0.686004
0.392755
0.681146
0.697685
0.69156
0.597703
0.701827
0.584945
0.448125
0.527482
0.380292
0.370236
1.12685
0.568247
0.688733
0.694379
0.367726
0.425185
0.703316
0.693349
0.703816
0.690677
0.365762
0.704229
0.693914
0.36485
0.380874
0.691131
0.694646
0.685757
0.397067
0.587105
0.396245
0.708002
0.68336
0.660259
0.691689
0.367394
0.696518
0.6875
0.698445
0.688022
0.686662
0.50143
0.694777
0.367539
0.677966
0.693837
0.517625
0.685971
0.666919
0.690419
0.530868
0.510884
0.586676
0.678626
0.367815
0.367819
0.367292
0.366878
0.691281
0.709439
0.67037
0.459942
0.366307
0.688
0.715886
0.373946
0.428819
0.521923
0.700953
0.68838
0.687042
0.698482
0.367695
0.367838
1.12691
0.379638
0.367786
0.361196
0.688941
0.395579
0.367899
0.597404
0.695636
0.683236
0.685275
0.688341
0.360818
0.382307
0.367431
0.596091
0.510396
0.389208
0.720209
0.699592
0.687196
0.686366
0.394899
0.367549
0.693496
0.367912
0.684034
0.685625
0.95242
0.385911
0.367901
0.685327
0.843495
0.66447
0.374284
0.687676
0.686211
0.59699
0.690146
0.690558
1.12681
0.679313
0.366034
0.688347
0.728393
0.676708
0.708785
1.1269
0.68401
1.12682
0.688888
0.376442
0.392197
0.367658
0.825929
0.576011
0.367879
0.702494
0.701733
0.385401
0.680925
0.396942
0.682217
0.590746
0.420862
0.693215
0.700876
0.367713
0.562762
0.805342
0.377629
0.688622
0.365879
0.401491
0.685531
0.597703
0.533332
0.692713
0.367296
0.697661
0.401485
0.390035
0.686887
0.367486
0.590303
0.388423
0.680294
0.597707
1.12671
0.687365
0.389735
0.380541
0.676255
0.5744
0.704382
0.552456
0.592074
0.687347
0.698819
0.577884
0.597694
0.68344
0.696663
0.688005
0.471713
0.367853
0.560231
0.683521
0.696899
0.481324
0.690168
0.666383
0.478063
0.386557
0.749724
0.703063
1.12667
1.1113
0.675959
0.715374
0.682773
0.710714
0.391619
0.684189
0.520725
0.689152
0.69406
0.456895
0.692007
0.692902
0.394544
0.413188
0.35807
1.12689
0.365314
0.672995
0.706463
0.688605
0.442243
0.690859
0.375024
0.587798
0.679883
0.666045
0.720019
0.678381
0.597698
0.711002
0.585381
0.694378
0.371455
0.685745
0.687434
0.564603
1.12633
0.709137
0.390814
0.39116
0.378405
0.690235
0.367869
1.12667
0.367536
0.690593
0.366742
0.524602
0.389951
0.697086
0.690812
0.641408
0.437029
0.597387
0.68075
0.367385
0.594833
0.691245
0.389911
0.597698
0.989754
0.693385
0.685667
0.391286
0.584472
0.703417
0.694291
0.678417
0.36774
0.507293
0.689581
1.12691
1.1243
1.12687
0.59695
0.702411
0.597258
0.688883
0.36781
0.375586
1.12686
0.69341
0.681058
0.364093
0.687574
0.598243
0.676325
0.375623
0.496899
0.691312
0.688976
0.58131
0.423935
0.692483
1.12504
0.364479
0.597703
0.69848
0.36456
0.366745
0.381771
0.680998
0.42011
0.367995
0.687149
0.555034
0.69662
0.683017
0.363977
0.359764
0.691151
0.392333
0.373704
0.838063
0.407492
0.482878
0.597704
0.691248
0.700179
0.366564
0.400883
0.365938
0.685963
0.402811
0.700703
0.373707
0.702407
0.689625
0.691126
0.680882
0.697492
0.682714
0.688213
0.693167
0.702143
0.371115
0.367142
0.693435
0.683609
0.534643
0.681643
0.586595
0.681493
0.676247
0.393821
0.688455
0.692297
0.692817
0.365984
0.697155
0.395302
0.698376
0.527815
0.70224
0.686076
0.422431
0.705308
0.367693
0.542975
0.686752
0.36221
0.713884
1.12686
0.690908
0.362041
0.687354
0.367119
0.385123
0.388385
0.367746
0.675657
0.395274
0.679602
0.670979
0.426971
0.390338
0.525116
0.586308
0.692407
0.679381
0.367524
0.358637
0.365104
0.388832
0.433275
0.690551
0.684389
0.392861
0.678822
0.708692
0.379726
0.692486
0.717184
0.676787
0.366608
1.12131
0.701478
0.694348
0.689589
0.402399
0.702066
0.693112
0.697486
0.765605
0.681894
0.43417
0.388993
0.697541
0.556921
0.367891
0.686768
0.390114
0.577655
0.68253
0.685547
0.685738
0.386192
0.681098
0.48233
0.366145
0.706712
0.693205
0.695335
0.689631
0.698336
0.385236
0.69327
0.403115
0.533601
0.691996
1.0859
0.704097
0.3661
0.423419
0.693832
0.439906
0.69319
0.592435
0.510367
0.442239
0.68859
0.389491
0.685821
0.695772
0.692085
0.389085
0.394793
0.553604
0.584025
0.687742
0.543325
0.687878
0.679476
0.687571
1.12683
0.703658
0.362272
0.438101
0.690139
0.681007
0.677896
0.515815
0.3716
0.702865
0.389649
0.688101
0.597703
0.411726
0.704918
0.365666
0.689728
0.385051
0.694576
0.415731
0.697942
0.680764
0.366801
0.688725
0.680442
0.363881
0.66881
0.692385
0.588007
0.383852
0.477581
0.543558
0.696471
0.677127
0.421113
0.585209
0.705901
0.687108
0.44385
0.67755
0.689978
0.507709
0.687884
0.688132
0.454811
0.700888
1.01111
0.381878
0.595939
0.364049
0.682062
0.366446
0.403008
0.696617
0.367816
0.367887
0.386917
0.68765
0.688272
0.495903
0.693951
0.479447
0.694973
0.367305
0.689217
0.464126
0.687509
0.697976
0.686106
0.670733
0.564386
0.680751
0.676553
0.389342
0.597459
0.689727
0.596541
0.702736
0.528196
0.514905
0.693289
0.367846
0.587583
0.397988
0.693819
0.369494
0.390404
0.701185
0.688141
0.366719
0.688892
0.700733
1.12693
0.690635
1.111
0.366377
0.692612
0.367459
0.388144
0.687267
0.698189
0.690734
0.686975
0.394345
0.366118
0.365655
0.690101
0.669166
0.477505
0.691683
0.362302
0.364421
0.37207
0.687022
0.498949
0.693148
0.702501
0.597702
0.687968
0.701889
0.597709
0.681984
0.503493
0.368146
0.367015
1.11369
1.12492
0.366088
0.68855
0.679754
0.683194
0.390923
0.53477
0.680361
0.41741
0.67877
0.673242
0.367745
0.680947
0.692011
0.367913
0.698908
0.37125
0.688495
0.696581
0.697201
0.39173
0.515558
0.715738
0.459035
0.505822
0.68791
0.464014
0.681001
0.688062
0.686253
0.701941
0.418539
0.867511
0.706324
0.694008
0.479685
0.689875
0.408919
0.380162
0.690003
0.68815
0.670982
0.373449
0.686344
0.597704
1.12151
0.359574
0.364382
0.367866
0.689298
0.364808
0.373896
0.388571
0.672828
0.373258
0.455952
0.505885
0.700226
0.368034
0.657644
0.680703
0.688399
0.361211
0.698472
0.695153
0.67789
0.498575
0.750396
0.364827
0.367748
0.687301
0.36643
0.683652
0.706849
1.12675
0.3679
0.46613
0.366657
0.571069
1.12674
0.374683
0.691228
0.687569
0.70076
0.367642
0.400604
0.470724
0.677255
0.367829
1.12687
0.597393
0.68072
0.69028
0.364637
0.680458
0.392376
0.671526
0.593413
0.693398
0.670442
0.595812
0.741978
0.678436
0.6909
0.366659
0.44776
0.363097
0.702916
0.581084
1.08001
0.367931
0.499933
0.6953
0.699462
0.684148
0.366758
0.688828
0.569935
0.573392
0.677642
0.390575
0.366792
0.456377
0.688117
0.673176
0.769855
0.682785
0.470938
0.691106
0.691467
0.675312
0.672241
0.690513
0.692636
0.686208
0.700469
0.695723
0.391558
0.688585
0.689593
0.687788
0.690129
0.688333
0.669793
0.36755
0.40272
0.676754
0.367751
0.421011
0.688792
0.386515
0.597702
0.687856
0.688401
0.693366
0.391852
0.68903
0.388882
0.371324
0.68655
0.700593
0.685801
0.359831
0.691177
0.693866
0.676927
0.688379
0.413243
0.685507
0.693767
0.693227
0.475197
0.699707
0.366422
0.688308
0.365173
0.367756
0.655335
0.518226
0.693242
0.698629
0.684705
0.388595
0.683724
0.498241
0.389456
0.686045
0.524706
0.367751
0.691956
0.414007
0.538849
0.721821
0.682405
0.685549
0.526545
0.592683
0.707669
0.685539
0.669949
0.695109
0.557991
0.689479
0.682437
0.692582
0.394864
0.364525
0.516235
0.689656
0.390815
0.721576
0.689041
0.592577
0.685731
0.594718
0.713119
0.711464
0.366439
0.688752
0.680311
0.599082
0.680548
0.693345
0.687565
0.684407
0.367708
0.382353
0.695821
0.583642
0.595511
0.68917
0.698052
0.692386
0.696845
0.696634
0.683094
0.678954
0.693471
0.381278
0.400799
0.371619
0.404994
1.12627
0.531653
0.597137
0.704498
0.714813
0.389346
0.694119
0.688365
0.359351
0.488219
1.12544
0.688863
0.391725
0.395583
0.393527
1.12684
0.68749
0.47735
0.362555
0.367515
0.410023
0.450773
0.367804
0.691498
0.697785
0.703141
0.367218
0.6887
0.684946
0.597671
0.44883
0.364872
0.685837
1.12684
0.367957
0.687683
0.367918
0.700551
0.391267
0.6884
0.363364
0.687885
0.69128
0.363
0.574597
0.444485
0.69238
0.403951
0.68298
0.38945
0.566554
0.365106
0.67791
0.367397
0.669339
0.661102
0.597645
0.696999
0.450212
0.689297
0.680556
0.691171
0.682843
0.696512
0.365263
0.529899
0.364231
0.697251
0.443618
0.692868
0.570445
0.698495
0.693373
0.587579
0.695758
0.390767
0.36967
0.380934
0.563112
0.658569
0.697337
0.36726
0.426994
0.686789
0.489883
0.390318
0.666155
0.487652
0.367919
0.401618
0.690875
0.60997
0.684086
0.379434
0.688329
0.688192
0.371181
0.466041
0.687594
0.688392
0.671693
0.542399
0.498391
0.479756
0.366679
0.690536
0.676537
0.581898
0.706204
0.400258
0.597103
0.365413
0.750565
0.692203
0.366172
0.437498
0.677046
0.664307
0.692716
0.695398
0.696364
0.68935
0.692549
0.365496
0.413855
0.364428
0.36449
0.648772
0.927019
0.616956
0.365421
0.367624
0.552098
0.368773
0.694249
0.682064
0.367842
0.462859
0.687848
0.386345
0.705568
0.696485
0.686379
0.685134
0.616472
0.367864
0.361177
0.67847
0.366601
0.534767
0.491347
0.682439
0.688021
0.447187
0.367835
1.12686
0.367452
0.688024
0.697279
0.367955
0.394355
0.364779
0.687144
0.361919
1.12686
0.710192
0.59937
0.392528
0.55496
0.690073
0.69078
0.364045
0.690648
0.676883
0.38195
0.694676
0.68858
0.365983
0.367847
0.685247
0.367241
0.364352
0.689949
0.474589
0.696576
0.714492
0.698878
0.678399
0.693507
0.687943
0.680669
0.365341
0.496309
0.680806
0.69719
0.514412
0.69287
0.469943
0.68881
0.685602
0.593331
0.694083
0.529739
0.522786
0.694577
0.69184
0.6819
0.691209
0.687059
1.12709
0.690591
1.12689
0.690868
0.6863
0.689891
1.12691
0.680992
0.383175
0.686408
0.388115
0.688601
0.688422
0.696555
0.682538
0.704131
0.391905
0.367198
0.462442
0.36431
0.68602
0.363537
0.366607
0.712253
0.395144
0.703376
0.367059
0.689688
0.702161
0.36788
0.489072
0.414088
0.689353
0.375801
0.696788
0.705327
0.367343
0.68557
0.576209
0.426679
0.391534
0.368547
0.707443
0.367871
0.688769
0.59844
0.448473
0.688286
0.693915
0.696385
0.367899
0.597651
0.390822
0.689253
0.685596
0.68801
0.367842
0.696831
0.689164
0.682719
0.506386
0.689336
0.367874
0.366872
0.687691
0.528807
0.694345
0.5173
0.367852
0.508111
0.682999
0.388224
0.379981
0.37313
0.586579
1.10122
0.704258
0.375139
0.678387
0.68666
0.569772
0.554982
0.408086
0.57741
0.367838
0.36588
0.69281
0.367147
0.367711
0.690054
0.69023
0.360439
0.70164
0.366734
1.12666
0.393173
0.686518
0.678477
0.70341
0.680946
0.405299
0.365931
0.389873
0.686871
0.685924
0.591485
0.57659
0.48417
0.454683
0.680705
0.36557
0.697096
0.485362
0.654752
0.720691
0.360547
0.378725
0.367168
0.367782
0.3827
0.67727
0.68699
0.364122
0.695995
0.69277
0.450934
0.390346
0.690927
0.367685
0.700828
0.501963
0.701955
0.704165
0.697756
1.07371
0.38553
0.696388
0.688312
0.690864
0.36775
0.677665
0.595721
0.418973
0.689556
0.684584
0.690468
0.688776
0.692729
0.687871
0.690792
0.688639
0.69315
0.36794
0.69702
0.367246
0.557654
0.687831
0.390537
0.689787
0.678198
0.424683
0.682422
0.36778
0.383524
0.688004
0.67702
0.690486
0.367083
0.688722
0.597703
0.392643
0.365992
0.688211
0.688157
0.488351
0.381394
0.706771
0.690646
0.367887
0.692826
0.691745
0.584197
0.35809
0.367868
0.391445
0.704856
0.417541
0.69076
0.703617
0.681156
0.677908
0.701675
0.367265
0.686101
0.597703
0.691306
0.669957
0.390422
0.364939
0.401456
0.699433
0.704968
0.500065
0.699824
0.402535
0.686728
0.688678
0.392145
0.676981
0.691098
0.685299
0.366088
0.360566
0.406306
0.697889
0.69426
0.597702
0.542605
0.70069
0.367957
0.681616
1.12458
0.697107
0.365627
0.5977
0.42781
0.680367
0.405725
0.695612
0.68831
0.377721
0.694947
0.567161
1.12691
0.685646
1.12687
0.690074
0.524132
0.680242
0.692251
0.688165
0.696239
0.52056
1.1261
0.368721
0.691918
0.399525
0.367976
0.410064
0.381521
0.367854
0.365195
0.691585
0.482151
0.376913
0.707244
0.693269
0.687591
0.483757
0.70193
0.706635
0.682871
0.392232
0.671958
0.687956
0.416911
0.382186
0.365977
0.691826
0.5368
0.367881
0.672408
0.392026
1.0901
0.533637
0.360336
0.522228
0.69259
0.410559
0.688234
0.395334
0.597379
0.486264
0.689943
0.492912
0.696526
1.12601
0.678545
0.554036
0.366984
0.690943
0.691838
0.38549
0.384938
0.687391
0.367664
0.700143
0.367477
0.57567
0.399623
0.687813
0.411879
0.691367
0.367984
0.688662
0.70163
0.692139
1.12606
0.368388
0.388271
0.479538
0.688134
0.711067
0.682805
0.660594
0.423325
0.700751
0.409382
0.685579
0.674428
0.51398
0.444
0.696824
0.694825
0.389432
0.759071
0.69125
0.695919
0.698698
0.397787
0.680696
0.367859
0.695104
0.418285
0.678229
0.685134
0.691334
0.691103
0.450935
0.689847
0.367785
0.366439
0.688004
1.12519
0.586823
0.695921
1.12665
0.367919
0.701748
0.689487
0.690522
0.38565
0.513553
0.706563
0.36287
0.688951
0.689233
0.690288
0.689547
0.435683
0.544687
0.67849
0.380623
0.685559
0.691572
0.554352
0.687309
0.441359
0.678656
0.701615
0.717764
0.688396
0.360645
0.39054
0.697801
0.689989
0.418509
0.457116
0.40814
0.384682
0.375939
0.360108
0.392191
0.367856
0.69744
0.398752
0.35825
0.709635
0.58794
1.12685
0.497543
0.36791
0.687036
0.545105
0.594213
0.694966
0.489491
0.714383
0.6586
0.597703
0.689712
0.374337
0.704187
0.679833
0.370104
0.366671
0.517495
0.677634
0.597703
0.693021
0.686984
0.697893
0.691146
0.445561
0.701313
0.68046
0.689638
0.367659
0.688117
0.672875
0.440847
0.511739
0.363652
0.390407
0.376071
0.597706
0.720068
0.694506
0.366182
0.493144
0.691429
0.378574
0.70625
0.693004
0.690525
0.717897
0.699674
0.413884
0.390764
0.39426
0.59757
0.415431
0.695267
0.395403
0.687525
0.687675
0.689196
0.401759
0.539212
0.519961
0.701572
0.377996
0.365802
0.688788
0.689549
0.67845
0.687068
0.688521
0.700026
0.367869
0.5977
0.694376
0.552685
0.700627
0.705711
0.698811
0.509406
0.499444
0.690634
0.532181
0.680866
0.367769
0.685371
0.688687
0.47596
0.418503
0.688881
0.557204
0.692965
0.70688
0.367893
0.365569
0.993525
0.550344
0.492648
0.686663
0.688139
0.430936
0.691185
0.990949
0.683247
0.367869
0.597704
0.367881
0.687302
0.691934
0.699455
0.693709
0.903049
0.458222
0.473778
0.699586
0.36767
0.597686
0.443595
0.697951
0.380541
0.695487
0.694716
1.02469
0.367843
1.12689
1.11869
0.365109
0.685177
0.376222
0.691085
0.367897
0.361509
0.388563
0.702416
0.689407
0.464116
0.46096
0.685875
0.692594
0.525668
0.704153
0.367855
0.588806
0.367775
0.697541
0.365649
0.705102