# vtk DataFile Version 1.0
unstructured grid
ascii
DATASET UNSTRUCTURED_GRID
points 13672 float
0.0796578 -0.059106 0
0.00128732 0.00159165 0
0.00227961 -0.00102548 0
0.0791586 -0.0598787 0
-0.0546216 0.01 0
0.000495206 0.025 0
0.0800549 -0.035 0
0.135172 -0.08 0
-0.0546216 -0.0451168 0
0.000495206 -0.0301168 0
0.0800549 -0.0901168 0
0.135172 -0.135117 0
-0.0546216 -0.0451168 -0.00551168
0.000495206 -0.0301168 -0.00551168
0.0800549 -0.0901168 -0.00551168
0.135172 -0.135117 -0.00551168
0.135172 -0.08 -0.00551168
0.0800549 -0.035 -0.00551168
0.000495206 0.025 -0.00551168
-0.0546216 0.01 -0.00551168
0.00128732 0.00159165 -0.00551168
0.00227961 -0.00102548 -0.00551168
0.0791586 -0.0598787 -0.00551168
0.0796578 -0.059106 -0.00551168
0.00165953 -0.000990923 0
0.00119576 -0.000874076 0
0.000866021 -0.000641801 0
0.000645147 -0.000349912 0
0.00052235 -1.7281e-05 0
0.00049972 0.000348016 0
0.000601632 0.000737716 0
0.000861774 0.0011403 0
0.00157235 0.00183217 0
0.00188647 0.00206725 0
0.00222612 0.00230203 0
0.00258713 0.00254351 0
0.00296826 0.00279524 0
0.00337118 0.00305664 0
0.00379785 0.00332658 0
0.00425045 0.00360349 0
0.00473139 0.00388521 0
0.0052432 0.00416895 0
0.0057881 0.00445204 0
0.00636753 0.00473281 0
0.00698281 0.00500961 0
0.00763526 0.00528058 0
0.00832616 0.00554366 0
0.00905691 0.00579603 0
0.00982918 0.00603333 0
0.0106445 0.00625033 0
0.0115038 0.00644128 0
0.0124073 0.00660297 0
0.0133543 0.00673414 0
0.0143444 0.00683382 0
0.0153769 0.00690031 0
0.0164512 0.00693173 0
0.0175666 0.00692547 0
0.0187219 0.00687822 0
0.0199156 0.00678477 0
0.0211454 0.00663864 0
0.0224084 0.00643275 0
0.0237018 0.00616676 0
0.0250249 0.00584739 0
0.026375 0.00547298 0
0.0277479 0.00503752 0
0.0291386 0.00453545 0
0.0305433 0.0039653 0
0.0319572 0.0033256 0
0.0333681 0.00260019 0
0.034775 0.00179799 0
0.0361793 0.000930615 0
0.0375798 3.12222e-06 0
0.0389689 -0.000988429 0
0.0403357 -0.00205109 0
0.041675 -0.00318283 0
0.0429849 -0.00437751 0
0.0442643 -0.00562904 0
0.0455126 -0.00693089 0
0.0467314 -0.00827518 0
0.0479204 -0.00965638 0
0.0490661 -0.0110799 0
0.0501515 -0.0125519 0
0.0511696 -0.0140695 0
0.0521492 -0.0156071 0
0.0531202 -0.0171411 0
0.0540851 -0.0186663 0
0.0550431 -0.0201798 0
0.0559923 -0.0216793 0
0.0569311 -0.0231626 0
0.0578582 -0.0246273 0
0.0587723 -0.0260715 0
0.0596721 -0.027493 0
0.0605563 -0.02889 0
0.0614241 -0.0302609 0
0.0622742 -0.0316042 0
0.063106 -0.0329183 0
0.0639186 -0.034202 0
0.0647113 -0.0354543 0
0.0654835 -0.0366743 0
0.0662345 -0.0378613 0
0.0669642 -0.0390145 0
0.0676726 -0.0401333 0
0.0683597 -0.0412172 0
0.0690246 -0.0422665 0
0.0696662 -0.0432819 0
0.0702841 -0.0442636 0
0.0708793 -0.0452111 0
0.0714538 -0.0461237 0
0.072009 -0.047001 0
0.0725452 -0.0478434 0
0.0730611 -0.0486524 0
0.073556 -0.0494294 0
0.0740291 -0.0501756 0
0.0744812 -0.0508916 0
0.0749138 -0.0515773 0
0.0753285 -0.0522331 0
0.0757266 -0.0528592 0
0.076109 -0.0534564 0
0.0764753 -0.0540264 0
0.0768243 -0.054571 0
0.0771553 -0.0550919 0
0.0774679 -0.0555901 0
0.0777617 -0.0560669 0
0.0780369 -0.056523 0
0.0782958 -0.0569578 0
0.0785421 -0.0573703 0
0.0787786 -0.0577603 0
0.0790073 -0.0581279 0
0.0792295 -0.058474 0
0.0794462 -0.0587995 0
0.0798803 -0.0594162 0
0.0800272 -0.0596588 0
0.0800357 -0.0598891 0
0.0799275 -0.0600784 0
0.0797205 -0.0601773 0
0.0794593 -0.0601051 0
0.0789155 -0.0596491 0
0.0786707 -0.0593963 0
0.0784111 -0.0591319 0
0.0781372 -0.0588542 0
0.0778566 -0.0585548 0
0.0775715 -0.0582308 0
0.0772803 -0.0578828 0
0.0769832 -0.0575099 0
0.0766822 -0.0571097 0
0.0763801 -0.0566796 0
0.0760759 -0.0562196 0
0.0757623 -0.0557337 0
0.0754359 -0.0552232 0
0.0750951 -0.0546879 0
0.0747379 -0.054128 0
0.0743626 -0.0535435 0
0.0739688 -0.0529338 0
0.0735559 -0.0522981 0
0.0731238 -0.0516357 0
0.0726718 -0.050946 0
0.0721991 -0.0502288 0
0.0717046 -0.049484 0
0.0711872 -0.0487117 0
0.0706461 -0.047912 0
0.0700804 -0.0470849 0
0.0694892 -0.0462308 0
0.0688718 -0.0453499 0
0.0682271 -0.0444431 0
0.0675544 -0.043511 0
0.0668527 -0.0425546 0
0.0661215 -0.0415748 0
0.06536 -0.040573 0
0.0645676 -0.0395504 0
0.0637439 -0.0385087 0
0.0628887 -0.0374493 0
0.062002 -0.0363741 0
0.0610838 -0.0352847 0
0.0601345 -0.0341831 0
0.0591547 -0.033071 0
0.0581456 -0.0319502 0
0.0571083 -0.0308224 0
0.0560444 -0.0296893 0
0.0549562 -0.028552 0
0.053845 -0.0274126 0
0.0527113 -0.0262746 0
0.051554 -0.0251427 0
0.0503724 -0.0240222 0
0.0491675 -0.0229164 0
0.047941 -0.0218282 0
0.0466955 -0.0207597 0
0.0454337 -0.0197126 0
0.0441592 -0.0186878 0
0.0428751 -0.0176863 0
0.0415841 -0.0167097 0
0.0402878 -0.0157609 0
0.0389879 -0.0148428 0
0.0376864 -0.0139575 0
0.0363853 -0.013107 0
0.0350871 -0.0122931 0
0.0337942 -0.0115164 0
0.0325095 -0.0107772 0
0.0312357 -0.0100756 0
0.0299758 -0.00941024 0
0.0287337 -0.00877784 0
0.0275126 -0.00817571 0
0.0263139 -0.00760375 0
0.0251376 -0.00706528 0
0.0239829 -0.0065649 0
0.0228537 -0.00609619 0
0.0217522 -0.00565563 0
0.0206795 -0.00524226 0
0.0196364 -0.00485507 0
0.0186233 -0.00449318 0
0.0176408 -0.00415577 0
0.016689 -0.00384204 0
0.0157682 -0.00355115 0
0.0148783 -0.00328218 0
0.0140192 -0.00303468 0
0.0131906 -0.00280795 0
0.0123925 -0.00260016 0
0.0116246 -0.00241012 0
0.0108864 -0.00223769 0
0.0101774 -0.00208212 0
0.00949701 -0.00194206 0
0.00884483 -0.0018163 0
0.0082202 -0.0017039 0
0.00762247 -0.00160391 0
0.00705097 -0.00151528 0
0.006505 -0.00143697 0
0.0059838 -0.00136806 0
0.00548662 -0.00130772 0
0.00501265 -0.00125519 0
0.00456114 -0.00120954 0
0.00413136 -0.00116914 0
0.00372257 -0.00113251 0
0.00333398 -0.00109853 0
0.00296466 -0.00106798 0
0.00261363 -0.0010431 0
-0.052721 -0.0445996 0
-0.0508204 -0.0440823 0
-0.0489199 -0.0435651 0
-0.0470193 -0.0430478 0
-0.0451187 -0.0425306 0
-0.0432181 -0.0420134 0
-0.0413175 -0.0414961 0
-0.039417 -0.0409789 0
-0.0375164 -0.0404616 0
-0.0356158 -0.0399444 0
-0.0337152 -0.0394271 0
-0.0318146 -0.0389099 0
-0.0299141 -0.0383927 0
-0.0280135 -0.0378754 0
-0.0261129 -0.0373582 0
-0.0242123 -0.0368409 0
-0.0223117 -0.0363237 0
-0.0204112 -0.0358065 0
-0.0185106 -0.0352892 0
-0.01661 -0.034772 0
-0.0147094 -0.0342547 0
-0.0128088 -0.0337375 0
-0.0109083 -0.0332202 0
-0.00900769 -0.032703 0
-0.00710711 -0.0321858 0
-0.00520653 -0.0316685 0
-0.00330595 -0.0311513 0
-0.00140537 -0.030634 0
0.00190689 -0.0299614 0
0.00332271 -0.0298498 0
0.00474133 -0.0297825 0
0.00616136 -0.0297597 0
0.0075814 -0.0297814 0
0.00900007 -0.0298477 0
0.010416 -0.0299583 0
0.0118278 -0.0301127 0
0.0132342 -0.0303103 0
0.0146339 -0.0305504 0
0.0160259 -0.0308322 0
0.0174091 -0.0311546 0
0.0187824 -0.0315166 0
0.020145 -0.031917 0
0.0214961 -0.0323546 0
0.0228351 -0.032828 0
0.0241613 -0.0333361 0
0.0254744 -0.0338774 0
0.0267738 -0.0344507 0
0.0280592 -0.0350545 0
0.0293306 -0.0356877 0
0.0305875 -0.0363488 0
0.0318301 -0.0370367 0
0.0330581 -0.0377501 0
0.0342717 -0.0384879 0
0.0354708 -0.0392489 0
0.0366556 -0.0400321 0
0.0378262 -0.0408363 0
0.0389828 -0.0416607 0
0.0401254 -0.0425042 0
0.0412543 -0.0433659 0
0.0423698 -0.0442451 0
0.043472 -0.0451408 0
0.0445612 -0.0460523 0
0.0456375 -0.0469789 0
0.0467013 -0.0479199 0
0.0477529 -0.0488746 0
0.0487923 -0.0498424 0
0.04982 -0.0508227 0
0.0508362 -0.051815 0
0.051841 -0.0528187 0
0.0528348 -0.0538333 0
0.0538178 -0.0548584 0
0.0547903 -0.0558935 0
0.0557524 -0.0569382 0
0.0567045 -0.0579922 0
0.0576467 -0.0590549 0
0.0585792 -0.0601261 0
0.0595024 -0.0612055 0
0.0604163 -0.0622926 0
0.0613212 -0.0633873 0
0.0622174 -0.0644891 0
0.0631049 -0.0655979 0
0.0639841 -0.0667134 0
0.064855 -0.0678353 0
0.0657179 -0.0689633 0
0.0665729 -0.0700974 0
0.0674202 -0.0712372 0
0.06826 -0.0723826 0
0.0690925 -0.0735333 0
0.0699178 -0.0746892 0
0.070736 -0.0758501 0
0.0715473 -0.0770159 0
0.0723518 -0.0781863 0
0.0731498 -0.0793612 0
0.0739412 -0.0805405 0
0.0747264 -0.081724 0
0.0755053 -0.0829116 0
0.0762781 -0.0841033 0
0.0770449 -0.0852987 0
0.0778059 -0.0864979 0
0.0785611 -0.0877007 0
0.0793108 -0.088907 0
0.0814681 -0.0912706 0
0.0828814 -0.0924245 0
0.0842946 -0.0935783 0
0.0857079 -0.0947322 0
0.0871211 -0.095886 0
0.0885344 -0.0970399 0
0.0899476 -0.0981937 0
0.0913609 -0.0993476 0
0.0927741 -0.100501 0
0.0941874 -0.101655 0
0.0956006 -0.102809 0
0.0970139 -0.103963 0
0.0984272 -0.105117 0
0.0998404 -0.106271 0
0.101254 -0.107424 0
0.102667 -0.108578 0
0.10408 -0.109732 0
0.105493 -0.110886 0
0.106907 -0.11204 0
0.10832 -0.113194 0
0.109733 -0.114348 0
0.111146 -0.115501 0
0.11256 -0.116655 0
0.113973 -0.117809 0
0.115386 -0.118963 0
0.116799 -0.120117 0
0.118213 -0.121271 0
0.119626 -0.122424 0
0.121039 -0.123578 0
0.122452 -0.124732 0
0.123866 -0.125886 0
0.125279 -0.12704 0
0.126692 -0.128194 0
0.128105 -0.129348 0
0.129519 -0.130501 0
0.130932 -0.131655 0
0.132345 -0.132809 0
0.133758 -0.133963 0
0.135172 -0.133216 0
0.135172 -0.131316 0
0.135172 -0.129415 0
0.135172 -0.127514 0
0.135172 -0.125614 0
0.135172 -0.123713 0
0.135172 -0.121813 0
0.135172 -0.119912 0
0.135172 -0.118012 0
0.135172 -0.116111 0
0.135172 -0.11421 0
0.135172 -0.11231 0
0.135172 -0.110409 0
0.135172 -0.108509 0
0.135172 -0.106608 0
0.135172 -0.104708 0
0.135172 -0.102807 0
0.135172 -0.100906 0
0.135172 -0.0990058 0
0.135172 -0.0971052 0
0.135172 -0.0952046 0
0.135172 -0.0933041 0
0.135172 -0.0914035 0
0.135172 -0.0895029 0
0.135172 -0.0876023 0
0.135172 -0.0857017 0
0.135172 -0.0838012 0
0.135172 -0.0819006 0
0.133758 -0.0788462 0
0.132345 -0.0776923 0
0.130932 -0.0765385 0
0.129519 -0.0753846 0
0.128105 -0.0742308 0
0.126692 -0.0730769 0
0.125279 -0.0719231 0
0.123866 -0.0707692 0
0.122452 -0.0696154 0
0.121039 -0.0684615 0
0.119626 -0.0673077 0
0.118213 -0.0661538 0
0.116799 -0.065 0
0.115386 -0.0638462 0
0.113973 -0.0626923 0
0.11256 -0.0615385 0
0.111146 -0.0603846 0
0.109733 -0.0592308 0
0.10832 -0.0580769 0
0.106907 -0.0569231 0
0.105493 -0.0557692 0
0.10408 -0.0546154 0
0.102667 -0.0534615 0
0.101254 -0.0523077 0
0.0998404 -0.0511538 0
0.0984272 -0.05 0
0.0970139 -0.0488462 0
0.0956006 -0.0476923 0
[...]
CELL_DATA 13116
SCALARS rho float
LOOKUP_TABLE default
0.620771
0.718045
0.331728
0.700668
0.700337
0.695999
0.318803
0.702291
0.565767
0.70045
0.324881
0.301456
0.700406
0.300047
0.3332
0.696423
0.636077
0.698861
0.701824
0.331348
0.61232
0.337788
0.307544
0.699547
0.62444
0.701476
0.700386
0.321263
0.59979
0.665425
1.13951
0.298845
0.580838
0.496995
0.319641
0.617904
0.693331
0.701776
0.730987
0.701324
0.693529
0.702066
0.528824
0.328931
0.701314
0.701814
0.705289
0.700379
0.336564
0.542961
0.701419
0.52287
0.305346
0.630032
0.583234
0.609337
0.327035
0.699237
0.54888
0.325728
0.303497
0.700867
0.719047
0.795892
1.14408
0.318961
0.698657
0.691927
0.699535
1.13394
0.332922
0.585627
0.34012
0.319549
1.13537
0.333711
0.695415
0.700443
0.321331
0.698677
0.700554
0.70296
0.699536
0.701648
0.70267
0.439456
0.316813
0.684085
0.702677
0.345857
0.299959
0.71736
0.699995
0.70222
0.674518
0.629003
0.62676
1.14344
1.13714
0.604398
0.68621
0.691392
0.700559
0.449196
0.703827
0.300611
0.408464
0.55752
0.318391
0.612092
0.574879
0.703941
0.625983
0.700234
0.698742
0.699037
0.31347
0.443828
0.700056
0.699981
0.690817
0.341783
0.699648
0.299228
0.702733
0.471833
0.316048
0.517773
0.320443
0.539955
0.700225
0.702377
0.488841
0.331628
0.474538
0.650642
1.13071
0.700214
0.685169
0.700084
0.687702
0.705814
0.520552
0.690173
0.711312
0.288071
0.320783
0.703143
0.699869
0.701325
0.533048
0.702044
0.700208
0.334549
0.699974
0.702364
0.307501
0.689607
1.14052
0.683104
0.6995
0.323657
0.699603
0.31046
0.343765
0.700727
0.702481
0.698866
0.319147
0.460483
0.441478
1.13368
0.32962
0.511537
0.698837
0.305884
0.334831
0.339239
0.704012
0.690571
0.344289
0.460138
0.591832
0.691913
0.69211
0.55242
0.336815
0.699406
0.702732
0.487895
0.679159
0.703283
1.12081
0.304244
0.703805
0.691338
0.700291
0.699717
0.70301
0.381825
0.443012
0.620983
0.513484
0.314434
0.700694
0.71124
0.52875
0.635008
0.300898
0.333899
0.335137
0.697478
0.307887
0.345966
0.340185
0.33467
0.427816
0.728149
0.702685
0.424047
0.326862
0.698513
0.571183
0.343597
0.533866
0.700696
0.709955
0.320831
0.698721
0.411822
0.703121
0.299234
1.11333
0.571976
1.14248
0.701974
1.05532
0.315896
0.47145
0.680865
1.13586
0.69019
1.13201
1.0279
0.702621
0.335353
0.700148
0.700148
1.13774
0.325792
0.336037
0.709101
0.700242
1.13423
0.701824
0.619084
0.697926
0.325121
0.336205
0.377556
0.293858
0.701258
0.700282
0.695421
0.319402
0.701111
0.326776
0.439857
0.704368
0.333257
0.702586
0.701386
1.13356
0.699255
0.317616
1.13307
0.700971
1.13788
0.700194
0.323343
0.322058
0.305597
0.64951
0.34203
0.334732
0.389945
0.366257
0.706064
0.294606
0.702245
0.70063
0.332007
0.337235
0.3268
0.467692
0.329642
0.683586
0.683939
0.704465
0.333706
0.697158
0.567582
0.338642
0.328023
0.684145
0.700255
0.700055
0.33617
0.694312
0.487491
0.702472
0.701697
0.700826
0.701683
0.304769
0.69852
0.291488
0.698474
0.700048
0.676543
0.335576
0.384222
0.700295
0.323691
0.704148
0.700852
0.362536
0.69649
0.699516
0.325999
0.701173
0.699991
0.238254
0.700678
0.421788
0.552983
0.703995
0.437061
0.690637
0.32028
0.69932
0.381262
0.914456
0.69331
0.700288
0.319405
0.417579
0.70248
0.333044
0.700856
0.703387
0.458785
1.13278
0.338351
0.33615
0.701428
0.539127
0.693061
0.32119
0.308997
0.700067
0.700612
0.321994
0.700905
0.310658
0.298662
0.699807
0.703612
0.575068
0.36391
0.699979
1.13975
0.6961
0.701318
0.699946
0.536751
0.355024
0.298288
0.344566
0.695239
0.344777
0.593439
0.363021
0.303215
0.412655
0.582195
0.149609
0.333883
0.702678
0.302287
0.699818
0.603732
0.696947
0.675777
0.700472
0.33696
0.323448
0.386043
0.354484
0.701576
0.623719
0.695735
0.60327
0.711263
0.646229
0.703189
0.67039
0.663606
0.700584
0.698677
0.687686
0.379809
0.523337
0.618969
0.338323
0.681842
0.610291
0.307583
0.698848
1.13486
0.30558
0.331634
0.337071
0.3381
0.626409
0.317201
0.304395
0.698101
0.322581
0.575009
0.345084
0.697886
0.70339
0.332288
0.334109
0.701629
0.465522
0.351238
0.337128
0.355142
0.317186
0.324822
0.333131
0.339637
0.443369
0.329722
0.688202
0.348227
0.702358
0.369755
0.297744
0.48378
0.284273
0.343232
0.287371
0.700771
0.452055
0.645735
0.571925
0.322213
0.638145
0.702594
0.437575
0.696018
0.651464
0.653413
0.327475
1.14048
0.443457
0.699612
1.13961
0.311469
0.301584
0.702348
0.356432
0.436694
0.69562
0.409165
0.688684
0.714295
0.340056
0.334598
0.325123
0.508351
0.328558
0.265594
0.332277
0.285429
0.700822
0.700849
0.472104
0.607822
0.477356
0.703871
0.400842
0.324552
0.569364
0.31206
0.702697
0.361783
0.426789
0.485437
0.701087
0.702582
0.54739
0.362208
0.305539
0.544932
0.702057
1.08489
0.541823
0.70279
0.700855
0.331113
0.703459
0.567919
0.679556
0.370382
0.331089
0.699914
0.700378
0.673656
0.700713
0.703633
0.701729
0.69934
0.677017
0.695737
0.343421
0.701096
0.373058
0.308629
0.349454
0.700771
0.710561
0.387477
0.702594
0.614565
0.337244
0.940846
0.700138
0.701181
0.321213
0.325474
0.700174
0.355489
0.364099
0.296063
0.332432
0.70615
0.248293
0.700406
0.347269
0.716552
0.701227
0.699053
0.700565
0.355963
0.342342
0.707933
0.703469
0.692927
0.700828
0.700095
0.474196
0.327047
0.31344
0.695
0.55772
0.338469
0.465471
0.30346
0.702798
0.698675
0.367542
0.338046
0.702631
0.443051
0.702703
0.66306
0.319944
0.413285
0.691481
1.13719
0.311771
0.702674
0.7024
0.709536
0.330918
1.13449
0.324524
1.14366
0.678012
0.365503
0.414553
0.336721
1.14461
0.319819
0.318138
0.44849
0.802618
0.702046
0.319014
0.330683
0.33794
0.888329
0.340853
0.692501
0.292641
0.588243
0.700695
0.371289
0.310026
0.308392
0.475963
0.314474
0.702355
0.335878
0.321655
0.694301
0.306947
0.697512
0.704358
1.14513
0.353818
0.702287
0.699952
0.700271
0.695623
0.703477
0.699624
0.297475
1.12212
0.429636
0.710682
0.323383
0.702428
0.543144
0.316849
1.14314
0.699761
0.328363
0.667984
0.300076
0.331741
0.697903
0.700649
0.301615
0.288338
0.320387
0.297605
0.703179
0.69946
0.330563
0.339773
0.700907
0.70023
0.591578
0.699932
0.698615
0.324462
0.700266
0.44638
0.7013
0.456023
0.6192
0.46892
0.698366
0.693803
0.567558
0.386883
0.319043
0.699304
0.596368
0.623461
0.699849
0.293158
0.701917
0.699971
0.386045
0.523911
0.700115
0.360321
1.14084
0.68183
0.377844
0.700507
0.672409
0.330573
0.701857
0.305115
0.703345
0.335062
0.697259
0.717949
0.317326
0.740551
0.699715
0.700239
0.617355
0.703741
0.568771
0.339811
0.486292
0.301019
0.317264
1.13172
0.53735
0.700015
0.699815
0.345312
0.345734
0.702784
0.700801
0.701518
0.701572
0.329746
0.6986
0.700207
0.33182
0.291893
0.699999
0.708876
0.70279
0.298051
0.573587
0.33243
0.701909
0.704645
1.08622
0.715913
0.335793
0.708004
0.702249
0.69978
0.701078
0.692427
0.424607
0.700222
0.334331
0.706969
0.700361
0.460648
0.713873
1.04205
0.701117
0.476161
0.466138
0.572651
0.665211
0.356253
0.365289
0.334387
0.33052
0.714215
0.702085
1.04733
0.369027
0.328021
0.699532
0.690552
0.244521
0.346053
0.466564
0.696988
0.699368
0.701506
0.699366
0.334713
0.357647
1.13226
0.298744
0.346635
0.336716
0.699667
0.330267
0.355121
0.604984
0.709777
0.70404
0.679846
0.699846
0.314428
0.321564
0.335596
0.582707
0.451667
0.299375
0.692163
0.699301
0.704364
0.697136
0.298326
0.358624
0.700634
0.352034
0.692206
0.716621
1.13976
0.30171
0.35662
0.703695
1.13809
0.639297
0.242687
0.702565
0.686532
0.602898
0.701153
0.701823
1.1326
0.701943
0.331052
0.699652
1.13364
0.685837
0.70181
1.13208
0.703997
1.14086
0.70017
0.321207
0.321306
0.359657
1.13861
0.548764
0.352115
0.702945
0.700807
0.299285
0.670669
0.336026
0.678579
0.569851
0.330538
0.700896
0.699264
0.339948
0.528984
1.13858
0.319117
0.70257
0.315039
0.298532
0.644112
0.619396
0.483388
0.701063
0.334582
0.699633
0.332956
0.297835
0.697265
0.337052
0.630613
0.303337
0.672483
0.619323
1.13821
0.702405
0.312059
0.320386
0.70127
0.53262
0.701657
0.504626
0.624186
0.696851
0.699682
0.54649
0.609029
0.703979
0.700253
0.699206
0.385566
0.366992
0.523222
0.703908
0.70042
0.363663
0.70138
0.639473
0.384565
0.302201
0.678227
0.696691
1.13519
1.14121
0.692674
0.700944
0.718148
0.697743
0.302433
0.670911
0.465179
0.700735
0.707961
0.3578
0.702925
0.700499
0.324061
0.317039
0.325794
1.13262
0.323618
0.64206
0.701046
0.671133
0.354418
0.701398
0.31082
0.575004
0.855882
1.08569
0.691119
0.89661
0.63245
0.700343
0.568084
0.711637
0.334451
0.693995
0.698874
0.513173
1.14167
0.702189
0.306353
0.306223
0.320558
0.7008
0.364635
1.13568
0.336618
0.702276
0.301656
0.469405
0.296968
0.699613
0.701391
0.619884
0.308468
0.634439
0.682738
0.337546
0.593017
0.700835
0.298764
0.610806
1.13857
0.700639
0.69288
0.310237
0.5572
0.701093
0.700961
0.707445
0.358464
0.460817
0.702453
1.13306
1.13638
1.13453
0.603902
0.702289
0.600243
0.700644
0.357804
0.312478
1.13566
0.700248
0.747304
0.318298
0.695264
0.616458
0.643518
0.333498
0.430567
0.700864
0.700817
0.560754
0.356013
0.695464
1.1424
0.319777
0.621798
0.699755
0.320278
0.297589
0.303707
0.702882
0.339746
0.344886
0.70132
0.508532
0.700244
0.674818
0.318124
0.326426
0.700899
0.321771
0.318385
1.13857
0.269217
0.4023
0.614218
0.703506
0.702389
0.328838
0.345046
0.325295
0.704603
0.296056
0.702273
0.310548
0.702936
0.702184
0.701063
0.704746
0.708019
0.704802
0.699252
0.700563
0.701972
0.258314
0.334195
0.712145
0.694385
0.486405
0.703889
0.573276
0.768444
0.686438
0.329907
0.699626
0.700917
0.713229
0.325968
0.706783
0.339116
0.702119
0.4762
0.698675
0.695982
0.332553
0.701605
0.33712
0.496278
0.719207
0.336606
0.691178
1.13405
0.702928
0.338097
0.698047
0.331456
0.300932
0.302908
0.34103
0.692075
0.327954
0.686525
0.957969
0.356811
0.304255
0.47101
0.571552
0.654737
0.709908
0.352761
0.321
0.321895
0.295839
0.298082
0.657322
0.703765
0.322191
0.89795
0.701189
0.302227
0.700755
0.689226
0.89446
0.329816
1.13606
0.704183
0.700238
0.700996
0.33136
0.702255
0.699833
0.705598
0.676351
0.69028
0.330572
0.302921
0.701473
0.518234
0.360284
0.696919
0.302287
0.554414
0.66106
0.70354
0.70309
0.300373
0.703772
0.37549
0.326804
0.697891
0.700305
0.699746
0.700157
0.689671
0.301231
0.700487
0.323733
0.484573
0.700701
1.13698
0.701288
0.326646
0.324208
0.700283
0.34994
0.700189
0.657331
0.454412
0.340857
0.700072
0.303032
0.695431
0.700329
0.693213
0.303113
0.323808
0.509329
0.565137
0.64865
0.490728
0.698689
0.709444
0.702122
1.13181
0.702693
0.311481
0.340793
0.700322
0.68681
0.703677
0.457773
0.315849
0.703311
0.324361
0.698647
0.613215
0.352892
0.701751
0.326742
0.70287
0.331352
0.699902
0.318587
0.703711
0.685503
0.297503
0.702645
0.664815
0.301559
1.04137
0.70223
0.576418
0.279493
0.361316
0.491739
0.700054
0.695816
0.347928
0.569891
0.702236
0.691598
0.356484
0.652785
0.714221
0.435829
0.698314
0.698455
0.372623
0.701386
1.1373
0.332194
0.630443
0.338927
0.681662
0.337177
0.299764
0.700368
0.345164
0.338659
0.312974
0.698396
0.713862
0.38462
0.695127
0.35278
0.704845
0.332593
0.718189
0.36386
0.697088
0.700794
0.689542
1.06306
0.531746
0.684637
0.897236
0.325222
0.646605
0.689429
0.599933
0.702884
0.476286
0.436119
0.700463
0.341618
0.575113
0.339057
0.697807
0.265908
0.304075
0.699316
0.699206
0.340102
0.700614
0.699234
1.1321
0.701594
1.14541
0.332058
0.700771
0.34191
0.309169
0.702525
0.699505
0.702033
0.702394
0.300799
0.336486
0.324106
0.718708
0.97335
0.357048
0.703786
0.317161
0.338062
0.333491
0.702516
0.452081
0.700562
0.701859
0.644182
0.700741
0.702188
0.609929
0.693233
0.438174
0.29943
0.340881
1.14489
1.13937
0.316957
0.657975
0.701824
0.690827
0.310498
0.483808
0.711066
0.327649
0.708862
0.681969
0.343533
0.685541
0.713699
0.359081
0.702731
0.317417
0.699837
0.699917
0.707984
0.321694
0.455199
0.691167
0.381641
0.425448
0.700601
0.385026
0.673021
0.699047
0.702806
0.69896
0.357674
1.14669
0.697734
0.701381
0.400626
0.700633
0.336454
0.274282
0.702601
0.699066
0.953392
0.270841
0.696869
0.643495
1.13524
0.320136
0.308018
0.354372
0.70015
0.320882
0.307621
0.32966
0.681662
0.312274
0.356544
0.440733
0.702207
0.35033
1.07518
0.749592
0.70095
0.337625
0.700358
0.67275
0.92339
0.433398
0.675082
0.321089
0.340772
0.697938
0.339007
0.661891
0.702136
1.13683
0.351179
0.383989
0.328988
0.542849
1.1323
0.278726
0.702831
0.698312
0.698707
0.334141
0.322079
0.385836
0.695901
0.342933
1.13225
0.603244
0.689749
0.702183
0.323901
0.667464
0.298479
0.67609
0.659535
0.700708
0.67174
0.603617
0.679011
0.705592
0.700542
0.340361
0.368362
0.324113
0.698555
0.560502
1.1369
0.34971
0.445849
0.699824
0.700728
1.11905
0.339809
0.701195
0.540881
0.547023
0.696876
0.315007
0.339318
0.37298
0.698876
0.989221
0.674341
0.703853
0.395261
0.703037
0.6711
0.972475
0.988939
0.702647
0.700918
0.693302
0.70053
0.69974
0.311206
0.699972
0.700303
0.699115
0.700084
0.699215
0.649467
0.339187
0.273474
0.691517
0.357359
0.35715
0.701446
0.32191
0.64444
0.699423
0.720226
0.712799
0.308455
0.701416
0.302451
0.312475
0.695225
0.702387
0.697574
0.336423
0.70099
0.69984
0.700359
0.700022
0.337544
0.697978
0.700345
0.711965
0.380541
0.699251
0.327612
0.70018
0.336319
0.341458
0.635021
0.462169
0.700857
0.699394
0.693139
0.328297
0.69674
0.385273
0.329539
0.703542
0.470946
0.351456
0.695412
0.297544
0.493488
0.688529
0.712402
0.703523
0.47356
0.586154
0.678251
0.694214
0.651242
0.699768
0.519529
0.702178
0.703599
0.669456
0.298425
0.321962
0.459306
0.700191
0.307035
0.681371
0.700727
0.629354
0.694455
0.607418
0.693073
0.698478
0.328706
0.700515
0.70321
0.610598
0.703685
0.700372
0.702404
0.679657
0.334806
0.317882
0.709324
0.566267
0.606349
0.70022
0.702915
0.697372
0.700425
0.700215
0.646567
0.706497
0.700451
0.320634
0.287349
0.256889
0.348245
1.13665
0.47712
0.598259
0.701888
0.700155
0.310521
0.712311
0.700752
0.33504
0.430456
1.136
0.699964
0.314809
0.298514
0.297094
1.13183
0.702018
0.384913
0.312245
0.341591
0.294243
0.35587
0.361694
0.703155
0.700597
0.703088
0.339234
0.720306
0.644989
0.606949
0.344478
0.329732
0.703481
1.13748
0.348944
0.697524
0.357175
0.699466
0.311494
0.701182
0.33712
0.704082
0.700874
0.338498
0.548924
0.341491
0.700688
0.274376
0.649823
0.301925
0.530425
0.322096
0.646051
0.337936
1.10271
1.10984
0.606897
0.709063
0.346165
0.717058
0.695854
0.700958
0.641776
0.703902
0.331068
0.443927
0.320112
0.700066
0.34771
0.700452
0.540693
0.699322
0.700665
0.563114
0.700309
0.32934
0.311358
0.324154
0.524671
0.641293
0.70471
0.334719
0.333326
0.696903
0.395085
0.302858
0.649026
0.43274
0.352128
0.286089
0.701991
0.664861
0.652559
0.312451
0.717864
0.698938
0.298019
0.370317
0.702274
0.699414
0.676907
0.497886
0.41161
0.399176
0.335489
0.703125
0.694965
0.561368
0.697288
0.312021
0.602885
0.325554
1.14435
0.700576
0.334173
0.34096
0.69766
0.645816
0.700616
0.699717
0.700154
0.700943
0.700655
0.335359
0.338337
0.324847
0.324233
0.620941
1.14109
0.666212
0.327767
0.352127
0.50419
0.297761
0.697284
0.712897
0.338715
0.371161
0.699264
0.313431
0.678176
0.699674
0.704151
0.694528
0.619328
0.363878
0.333179
0.700841
0.335653
0.488954
0.383213
0.695964
0.700256
0.359874
0.343727
1.13191
0.338065
0.698616
0.700104
0.357443
0.324768
0.299511
0.699565
0.310418
1.13372
0.701646
0.633654
0.296247
0.514834
0.700232
0.701401
0.319166
0.705216
0.690087
0.300464
0.700094
0.701843
0.325923
0.352011
0.703653
0.335105
0.324234
0.71607
0.379811
0.703182
0.692274
0.699715
0.686095
0.700176
0.698836
0.67557
0.32273
0.423302
0.703288
0.705482
0.453194
0.700855
0.372928
0.700184
0.703251
0.590039
0.671258
0.452377
0.467546
0.711716
0.69999
0.703435
0.700929
0.698023
1.13469
0.701792
1.13176
0.70346
0.703428
0.702572
1.13903
0.683038
0.300458
0.702926
0.325329
0.69998
0.700021
0.699985
0.70458
0.698854
0.322804
0.331952
0.388143
0.320391
0.706189
0.333879
0.329824
0.701187
0.298772
0.700665
0.334905
0.710879
0.702256
0.345351
0.396821
0.354347
0.700052
0.319423
0.706287
0.701621
0.328945
0.703625
0.551224
0.361094
0.320251
0.296934
0.697573
0.354524
0.700621
0.608383
0.335777
0.700276
0.693213
0.700163
0.356107
0.608082
0.300932
0.719713
0.680504
0.699148
0.361758
0.706332
0.700259
0.704328
0.458266
0.699996
0.362319
0.33129
0.701741
0.47331
0.700252
0.418521
0.358578
0.446294
0.70472
0.320785
0.300148
0.334918
0.56223
1.13722
0.701958
0.260041
0.639844
0.698525
0.540733
0.512689
0.351313
0.553572
0.363787
0.328213
0.703049
0.332813
0.348099
0.700953
0.700794
0.335956
0.698883
0.334283
1.13555
0.322134
0.703266
1.12548
0.698547
0.714266
0.335451
0.327602
0.302842
0.691674
0.703646
0.583245
0.551056
0.392198
0.362023
0.691979
0.323623
0.701865
0.406276
1.10288
0.693065
0.334859
0.327628
0.333952
0.342291
0.326888
0.699954
0.712119
0.338217
0.700086
0.662758
0.337207
0.326894
0.700859
0.347826
0.702186
0.432652
0.698753
0.676587
0.700173
1.13687
0.318769
0.700188
0.700222
0.701901
0.346921
0.701856
0.595608
0.355781
0.700064
0.691241
0.703063
0.712561
0.700645
0.702021
0.701581
0.699238
0.70209
0.34603
0.699933
0.334511
0.512235
0.700714
0.302661
0.703026
0.700224
0.330474
0.704659
0.348071
0.300202
0.702561
0.694578
0.700785
0.330736
0.708674
0.633336
0.323286
0.34015
0.702503
0.698752
0.424639
0.331829
0.70107
0.700835
0.361174
0.66741
0.70075
0.665034
0.329815
0.360697
0.30209
0.676872
0.321568
0.708685
0.698574
0.691976
0.650177
0.702242
0.331659
0.702893
0.618891
0.700846
0.672115
0.303663
0.321348
0.296178
0.699519
0.701391
0.429129
0.674501
0.346402
0.692237
0.699811
0.290709
0.68757
0.709164
0.649444
0.339474
0.321881
0.349258
0.700459
0.700253
0.631032
0.49765
0.701722
0.347159
0.65465
1.13389
0.705644
0.339065
0.629876
0.330596
0.703385
0.303348
0.709725
0.702528
0.312939
0.700146
0.529049
1.13787
0.673804
1.13222
0.700745
0.482295
0.691705
0.693087
0.699748
0.708011
0.463884
1.13384
0.276694
0.694554
0.296405
0.345719
0.311689
0.326419
0.360325
0.339966
0.700787
0.400899
0.314104
0.687455
0.700034
0.711329
0.386856
0.699732
0.696716
0.687551
0.260936
0.665891
0.698722
0.343906
0.332384
0.327377
0.652837
0.489763
0.356086
0.654118
0.297974
1.14576
0.484459
0.312211
0.465961
0.67099
0.35104
0.698738
0.316766
0.591585
0.423497
0.702746
0.438943
0.687681
1.13392
0.700804
0.510557
0.334156
0.703335
0.700875
0.329541
0.301092
0.696319
0.343725
0.699174
0.338583
0.550664
0.291149
0.698692
0.338986
0.700806
0.345065
0.700012
0.701948
0.700186
1.14005
0.283696
0.306009
0.384449
0.702037
0.701099
0.704881
0.645061
0.335085
0.700701
0.351547
0.703649
0.689216
0.417648
0.339054
0.699761
0.710849
0.301162
1.14063
0.703359
0.699762
0.699734
0.316605
0.656636
0.33848
0.699689
0.31306
0.848479
0.703567
0.703524
0.700898
0.334779
0.701139
0.343006
0.328663
0.69844
1.13984
0.573565
0.709211
1.13512
0.345617
0.699114
0.702597
0.701822
0.301207
0.458063
0.697635
0.333235
0.700126
0.700989
0.702497
0.702388
0.33364
0.493115
0.66721
0.310744
0.70302
0.700566
0.508334
0.702503
0.322856
0.704453
0.69913
0.689018
0.702376
0.320685
0.304765
0.703943
0.703622
0.331519
0.349828
0.338352
0.311122
0.31163
0.29841
0.32752
0.358813
0.704427
0.302049
0.331365
0.701279
0.576217
1.13239
0.44067
0.34749
0.699245
0.493205
0.578058
0.700012
0.434872
0.674031
1.06118
0.613345
0.719107
0.321236
0.701856
0.791065
0.326683
0.330144
0.447233
0.699334
0.615399
0.700605
0.696671
0.704411
0.717078
0.369127
0.701225
0.713168
0.702917
0.340653
0.699068
0.684638
0.366145
0.454692
0.301812
0.298236
0.305982
0.616145
0.689418
0.71115
0.329207
0.398723
0.700832
0.295902
0.701571
0.693575
0.70181
0.688622
0.701037
0.343277
0.299774
0.298169
0.610515
0.315508
0.699954
0.298109
0.698098
0.697871
0.69996
0.346061
0.486563
0.477383
0.702188
0.33226
0.326379
0.701529
0.718674
0.672772
0.696513
0.702439
0.699045
0.366158
0.630882
0.699982
0.513109
0.702175
0.701075
0.699317
0.440919
0.429653
0.701831
0.482236
0.655043
0.337738
0.716633
0.702802
0.382175
0.324882
0.719484
0.515712
0.69989
0.701613
0.356174
0.33433
1.13714
0.490117
0.393699
0.702123
0.702333
0.330495
0.702043
1.14081
0.704332
0.366559
0.615497
0.364813
0.701667
0.700615
0.699096
0.711786
1.14701
0.364611
0.356527
0.704252
0.338074
0.6082
0.334215
0.700306
0.281704
0.675463
0.699876
1.14693
0.362062
1.13268
1.1365
0.324737
0.715849
0.296098
0.701975
0.355541
0.334628
0.290185
0.703978
0.700862
0.373261
0.378783
0.702829
0.700618
0.470876
0.698364
0.358456
0.56652
0.347609
0.707849
0.326809
0.689711
0.702219