# vtk DataFile Version 1.0
unstructured grid
ascii
DATASET UNSTRUCTURED_GRID
points 13672 float
0.0796578 -0.059106 0
0.00128732 0.00159165 0
0.00227961 -0.00102548 0
0.0791586 -0.0598787 0
-0.0546216 0.01 0
0.000495206 0.025 0
0.0800549 -0.035 0
0.135172 -0.08 0
-0.0546216 -0.0451168 0
0.000495206 -0.0301168 0
0.0800549 -0.0901168 0
0.135172 -0.135117 0
-0.0546216 -0.0451168 -0.00551168
0.000495206 -0.0301168 -0.00551168
0.0800549 -0.0901168 -0.00551168
0.135172 -0.135117 -0.00551168
0.135172 -0.08 -0.00551168
0.0800549 -0.035 -0.00551168
0.000495206 0.025 -0.00551168
-0.0546216 0.01 -0.00551168
0.00128732 0.00159165 -0.00551168
0.00227961 -0.00102548 -0.00551168
0.0791586 -0.0598787 -0.00551168
0.0796578 -0.059106 -0.00551168
0.00165953 -0.000990923 0
0.00119576 -0.000874076 0
0.000866021 -0.000641801 0
0.000645147 -0.000349912 0
0.00052235 -1.7281e-05 0
0.00049972 0.000348016 0
0.000601632 0.000737716 0
0.000861774 0.0011403 0
0.00157235 0.00183217 0
0.00188647 0.00206725 0
0.00222612 0.00230203 0
0.00258713 0.00254351 0
0.00296826 0.00279524 0
0.00337118 0.00305664 0
0.00379785 0.00332658 0
0.00425045 0.00360349 0
0.00473139 0.00388521 0
0.0052432 0.00416895 0
0.0057881 0.00445204 0
0.00636753 0.00473281 0
0.00698281 0.00500961 0
0.00763526 0.00528058 0
0.00832616 0.00554366 0
0.00905691 0.00579603 0
0.00982918 0.00603333 0
0.0106445 0.00625033 0
0.0115038 0.00644128 0
0.0124073 0.00660297 0
0.0133543 0.00673414 0
0.0143444 0.00683382 0
0.0153769 0.00690031 0
0.0164512 0.00693173 0
0.0175666 0.00692547 0
0.0187219 0.00687822 0
0.0199156 0.00678477 0
0.0211454 0.00663864 0
0.0224084 0.00643275 0
0.0237018 0.00616676 0
0.0250249 0.00584739 0
0.026375 0.00547298 0
0.0277479 0.00503752 0
0.0291386 0.00453545 0
0.0305433 0.0039653 0
0.0319572 0.0033256 0
0.0333681 0.00260019 0
0.034775 0.00179799 0
0.0361793 0.000930615 0
0.0375798 3.12222e-06 0
0.0389689 -0.000988429 0
0.0403357 -0.00205109 0
0.041675 -0.00318283 0
0.0429849 -0.00437751 0
0.0442643 -0.00562904 0
0.0455126 -0.00693089 0
0.0467314 -0.00827518 0
0.0479204 -0.00965638 0
0.0490661 -0.0110799 0
0.0501515 -0.0125519 0
0.0511696 -0.0140695 0
0.0521492 -0.0156071 0
0.0531202 -0.0171411 0
0.0540851 -0.0186663 0
0.0550431 -0.0201798 0
0.0559923 -0.0216793 0
0.0569311 -0.0231626 0
0.0578582 -0.0246273 0
0.0587723 -0.0260715 0
0.0596721 -0.027493 0
0.0605563 -0.02889 0
0.0614241 -0.0302609 0
0.0622742 -0.0316042 0
0.063106 -0.0329183 0
0.0639186 -0.034202 0
0.0647113 -0.0354543 0
0.0654835 -0.0366743 0
0.0662345 -0.0378613 0
0.0669642 -0.0390145 0
0.0676726 -0.0401333 0
0.0683597 -0.0412172 0
0.0690246 -0.0422665 0
0.0696662 -0.0432819 0
0.0702841 -0.0442636 0
0.0708793 -0.0452111 0
0.0714538 -0.0461237 0
0.072009 -0.047001 0
0.0725452 -0.0478434 0
0.0730611 -0.0486524 0
0.073556 -0.0494294 0
0.0740291 -0.0501756 0
0.0744812 -0.0508916 0
0.0749138 -0.0515773 0
0.0753285 -0.0522331 0
0.0757266 -0.0528592 0
0.076109 -0.0534564 0
0.0764753 -0.0540264 0
0.0768243 -0.054571 0
0.0771553 -0.0550919 0
0.0774679 -0.0555901 0
0.0777617 -0.0560669 0
0.0780369 -0.056523 0
0.0782958 -0.0569578 0
0.0785421 -0.0573703 0
0.0787786 -0.0577603 0
0.0790073 -0.0581279 0
0.0792295 -0.058474 0
0.0794462 -0.0587995 0
0.0798803 -0.0594162 0
0.0800272 -0.0596588 0
0.0800357 -0.0598891 0
0.0799275 -0.0600784 0
0.0797205 -0.0601773 0
0.0794593 -0.0601051 0
0.0789155 -0.0596491 0
0.0786707 -0.0593963 0
0.0784111 -0.0591319 0
0.0781372 -0.0588542 0
0.0778566 -0.0585548 0
0.0775715 -0.0582308 0
0.0772803 -0.0578828 0
0.0769832 -0.0575099 0
0.0766822 -0.0571097 0
0.0763801 -0.0566796 0
0.0760759 -0.0562196 0
0.0757623 -0.0557337 0
0.0754359 -0.0552232 0
0.0750951 -0.0546879 0
0.0747379 -0.054128 0
0.0743626 -0.0535435 0
0.0739688 -0.0529338 0
0.0735559 -0.0522981 0
0.0731238 -0.0516357 0
0.0726718 -0.050946 0
0.0721991 -0.0502288 0
0.0717046 -0.049484 0
0.0711872 -0.0487117 0
0.0706461 -0.047912 0
0.0700804 -0.0470849 0
0.0694892 -0.0462308 0
0.0688718 -0.0453499 0
0.0682271 -0.0444431 0
0.0675544 -0.043511 0
0.0668527 -0.0425546 0
0.0661215 -0.0415748 0
0.06536 -0.040573 0
0.0645676 -0.0395504 0
0.0637439 -0.0385087 0
0.0628887 -0.0374493 0
0.062002 -0.0363741 0
0.0610838 -0.0352847 0
0.0601345 -0.0341831 0
0.0591547 -0.033071 0
0.0581456 -0.0319502 0
0.0571083 -0.0308224 0
0.0560444 -0.0296893 0
0.0549562 -0.028552 0
0.053845 -0.0274126 0
0.0527113 -0.0262746 0
0.051554 -0.0251427 0
0.0503724 -0.0240222 0
0.0491675 -0.0229164 0
0.047941 -0.0218282 0
0.0466955 -0.0207597 0
0.0454337 -0.0197126 0
0.0441592 -0.0186878 0
0.0428751 -0.0176863 0
0.0415841 -0.0167097 0
0.0402878 -0.0157609 0
0.0389879 -0.0148428 0
0.0376864 -0.0139575 0
0.0363853 -0.013107 0
0.0350871 -0.0122931 0
0.0337942 -0.0115164 0
0.0325095 -0.0107772 0
0.0312357 -0.0100756 0
0.0299758 -0.00941024 0
0.0287337 -0.00877784 0
0.0275126 -0.00817571 0
0.0263139 -0.00760375 0
0.0251376 -0.00706528 0
0.0239829 -0.0065649 0
0.0228537 -0.00609619 0
0.0217522 -0.00565563 0
0.0206795 -0.00524226 0
0.0196364 -0.00485507 0
0.0186233 -0.00449318 0
0.0176408 -0.00415577 0
0.016689 -0.00384204 0
0.0157682 -0.00355115 0
0.0148783 -0.00328218 0
0.0140192 -0.00303468 0
0.0131906 -0.00280795 0
0.0123925 -0.00260016 0
0.0116246 -0.00241012 0
0.0108864 -0.00223769 0
0.0101774 -0.00208212 0
0.00949701 -0.00194206 0
0.00884483 -0.0018163 0
0.0082202 -0.0017039 0
0.00762247 -0.00160391 0
0.00705097 -0.00151528 0
0.006505 -0.00143697 0
0.0059838 -0.00136806 0
0.00548662 -0.00130772 0
0.00501265 -0.00125519 0
0.00456114 -0.00120954 0
0.00413136 -0.00116914 0
0.00372257 -0.00113251 0
0.00333398 -0.00109853 0
0.00296466 -0.00106798 0
0.00261363 -0.0010431 0
-0.052721 -0.0445996 0
-0.0508204 -0.0440823 0
-0.0489199 -0.0435651 0
-0.0470193 -0.0430478 0
-0.0451187 -0.0425306 0
-0.0432181 -0.0420134 0
-0.0413175 -0.0414961 0
-0.039417 -0.0409789 0
-0.0375164 -0.0404616 0
-0.0356158 -0.0399444 0
-0.0337152 -0.0394271 0
-0.0318146 -0.0389099 0
-0.0299141 -0.0383927 0
-0.0280135 -0.0378754 0
-0.0261129 -0.0373582 0
-0.0242123 -0.0368409 0
-0.0223117 -0.0363237 0
-0.0204112 -0.0358065 0
-0.0185106 -0.0352892 0
-0.01661 -0.034772 0
-0.0147094 -0.0342547 0
-0.0128088 -0.0337375 0
-0.0109083 -0.0332202 0
-0.00900769 -0.032703 0
-0.00710711 -0.0321858 0
-0.00520653 -0.0316685 0
-0.00330595 -0.0311513 0
-0.00140537 -0.030634 0
0.00190689 -0.0299614 0
0.00332271 -0.0298498 0
0.00474133 -0.0297825 0
0.00616136 -0.0297597 0
0.0075814 -0.0297814 0
0.00900007 -0.0298477 0
0.010416 -0.0299583 0
0.0118278 -0.0301127 0
0.0132342 -0.0303103 0
0.0146339 -0.0305504 0
0.0160259 -0.0308322 0
0.0174091 -0.0311546 0
0.0187824 -0.0315166 0
0.020145 -0.031917 0
0.0214961 -0.0323546 0
0.0228351 -0.032828 0
0.0241613 -0.0333361 0
0.0254744 -0.0338774 0
0.0267738 -0.0344507 0
0.0280592 -0.0350545 0
0.0293306 -0.0356877 0
0.0305875 -0.0363488 0
0.0318301 -0.0370367 0
0.0330581 -0.0377501 0
0.0342717 -0.0384879 0
0.0354708 -0.0392489 0
0.0366556 -0.0400321 0
0.0378262 -0.0408363 0
0.0389828 -0.0416607 0
0.0401254 -0.0425042 0
0.0412543 -0.0433659 0
0.0423698 -0.0442451 0
0.043472 -0.0451408 0
0.0445612 -0.0460523 0
0.0456375 -0.0469789 0
0.0467013 -0.0479199 0
0.0477529 -0.0488746 0
0.0487923 -0.0498424 0
0.04982 -0.0508227 0
0.0508362 -0.051815 0
0.051841 -0.0528187 0
0.0528348 -0.0538333 0
0.0538178 -0.0548584 0
0.0547903 -0.0558935 0
0.0557524 -0.0569382 0
0.0567045 -0.0579922 0
0.0576467 -0.0590549 0
0.0585792 -0.0601261 0
0.0595024 -0.0612055 0
0.0604163 -0.0622926 0
0.0613212 -0.0633873 0
0.0622174 -0.0644891 0
0.0631049 -0.0655979 0
0.0639841 -0.0667134 0
0.064855 -0.0678353 0
0.0657179 -0.0689633 0
0.0665729 -0.0700974 0
0.0674202 -0.0712372 0
0.06826 -0.0723826 0
0.0690925 -0.0735333 0
0.0699178 -0.0746892 0
0.070736 -0.0758501 0
0.0715473 -0.0770159 0
0.0723518 -0.0781863 0
0.0731498 -0.0793612 0
0.0739412 -0.0805405 0
0.0747264 -0.081724 0
0.0755053 -0.0829116 0
0.0762781 -0.0841033 0
0.0770449 -0.0852987 0
0.0778059 -0.0864979 0
0.0785611 -0.0877007 0
0.0793108 -0.088907 0
0.0814681 -0.0912706 0
0.0828814 -0.0924245 0
0.0842946 -0.0935783 0
0.0857079 -0.0947322 0
0.0871211 -0.095886 0
0.0885344 -0.0970399 0
0.0899476 -0.0981937 0
0.0913609 -0.0993476 0
0.0927741 -0.100501 0
0.0941874 -0.101655 0
0.0956006 -0.102809 0
0.0970139 -0.103963 0
0.0984272 -0.105117 0
0.0998404 -0.106271 0
0.101254 -0.107424 0
0.102667 -0.108578 0
0.10408 -0.109732 0
0.105493 -0.110886 0
0.106907 -0.11204 0
0.10832 -0.113194 0
0.109733 -0.114348 0
0.111146 -0.115501 0
0.11256 -0.116655 0
0.113973 -0.117809 0
0.115386 -0.118963 0
0.116799 -0.120117 0
0.118213 -0.121271 0
0.119626 -0.122424 0
0.121039 -0.123578 0
0.122452 -0.124732 0
0.123866 -0.125886 0
0.125279 -0.12704 0
0.126692 -0.128194 0
0.128105 -0.129348 0
0.129519 -0.130501 0
0.130932 -0.131655 0
0.132345 -0.132809 0
0.133758 -0.133963 0
0.135172 -0.133216 0
0.135172 -0.131316 0
0.135172 -0.129415 0
0.135172 -0.127514 0
0.135172 -0.125614 0
0.135172 -0.123713 0
0.135172 -0.121813 0
0.135172 -0.119912 0
0.135172 -0.118012 0
0.135172 -0.116111 0
0.135172 -0.11421 0
0.135172 -0.11231 0
0.135172 -0.110409 0
0.135172 -0.108509 0
0.135172 -0.106608 0
0.135172 -0.104708 0
0.135172 -0.102807 0
0.135172 -0.100906 0
0.135172 -0.0990058 0
0.135172 -0.0971052 0
0.135172 -0.0952046 0
0.135172 -0.0933041 0
0.135172 -0.0914035 0
0.135172 -0.0895029 0
0.135172 -0.0876023 0
0.135172 -0.0857017 0
0.135172 -0.0838012 0
0.135172 -0.0819006 0
0.133758 -0.0788462 0
0.132345 -0.0776923 0
0.130932 -0.0765385 0
0.129519 -0.0753846 0
0.128105 -0.0742308 0
0.126692 -0.0730769 0
0.125279 -0.0719231 0
0.123866 -0.0707692 0
0.122452 -0.0696154 0
0.121039 -0.0684615 0
0.119626 -0.0673077 0
0.118213 -0.0661538 0
0.116799 -0.065 0
0.115386 -0.0638462 0
0.113973 -0.0626923 0
0.11256 -0.0615385 0
0.111146 -0.0603846 0
0.109733 -0.0592308 0
0.10832 -0.0580769 0
0.106907 -0.0569231 0
0.105493 -0.0557692 0
0.10408 -0.0546154 0
0.102667 -0.0534615 0
0.101254 -0.0523077 0
0.0998404 -0.0511538 0
0.0984272 -0.05 0
0.0970139 -0.0488462 0
0.0956006 -0.0476923 0
[...]
CELL_DATA 13116
SCALARS rho float
LOOKUP_TABLE default
0.53514
0.669892
0.375862
0.703059
0.700419
0.678786
0.290815
0.706653
0.490354
0.699765
0.336576
0.345941
0.701148
0.385108
0.337615
0.67804
0.528002
0.67634
0.700282
0.363973
0.531935
0.367937
0.398622
0.681684
0.56822
0.690302
0.699577
0.378722
0.563405
0.615456
1.15513
0.38658
0.516115
0.413255
0.298875
0.533332
0.6503
0.694122
1.08114
0.710062
0.701677
0.706181
0.407411
0.385151
0.698602
0.699558
0.66203
0.701183
0.354207
0.481525
0.709918
0.416173
0.314367
0.519066
0.51527
0.546586
0.387115
0.680545
0.493502
0.324888
0.38741
0.702368
0.664617
1.10998
1.13996
0.387494
0.703866
0.647623
0.704161
1.14025
0.345721
0.542505
0.369059
0.372627
1.14672
0.359976
0.640328
0.700812
0.325562
0.671484
0.661356
0.685833
0.684112
0.698898
0.697456
0.407554
0.349354
0.637197
0.691793
0.375049
0.452572
0.672614
0.687801
0.698099
0.623978
0.56484
0.571656
1.13987
1.14807
0.55513
0.643626
0.625509
0.702226
0.388382
0.662512
0.340329
0.350036
0.449992
0.388317
0.575246
0.47633
0.67661
0.561863
0.660862
0.672361
0.711344
0.363923
0.368616
0.699512
0.714025
0.645714
0.367081
0.70435
0.452332
0.697416
0.404934
0.348045
0.465983
0.39167
0.482506
0.699676
0.683614
0.454924
0.36431
0.433655
0.576716
1.1347
0.707603
0.641943
0.714172
0.624675
0.663705
0.465799
0.627532
0.652072
0.379051
0.30735
0.683916
0.694501
0.709472
0.498081
0.698876
0.701306
0.350848
0.697285
0.699354
0.409377
0.649504
1.14487
0.635873
0.681247
0.333161
0.684721
0.405868
0.366281
0.704405
0.694655
0.675485
0.295336
0.417624
0.387781
1.13395
0.316959
0.450884
0.712673
0.39775
0.36936
0.368598
0.675226
0.688273
0.369973
0.39764
0.500871
0.648153
0.679532
0.492812
0.362187
0.703894
0.663814
0.420784
0.623574
0.682558
1.13958
0.411524
0.676289
0.686687
0.694141
0.703362
0.690495
0.364338
0.38913
0.580785
0.46105
0.373928
0.688179
0.693624
0.422707
0.573998
0.327983
0.357678
0.358837
0.700889
0.4083
0.352218
0.373794
0.352094
0.357572
1.05283
0.696355
0.394388
0.383434
0.703225
0.471827
0.370105
0.514538
0.701221
0.650111
0.383266
0.710851
0.369028
0.705673
0.398829
1.15559
0.531401
1.13906
0.70135
1.13657
0.343541
0.400128
0.63315
1.15074
0.694797
1.13522
1.15142
0.706417
0.370756
0.713917
0.699162
1.14168
0.330944
0.356503
0.696568
0.700578
1.15609
0.697584
0.527468
0.660471
0.338731
0.348374
0.363667
0.326376
0.656817
0.693524
0.63884
0.347521
0.698047
0.377509
0.395214
0.663745
0.346336
0.687157
0.707834
1.14871
0.680167
0.346372
1.14744
0.665995
1.14057
0.705437
0.335261
0.367875
0.407639
0.573542
0.368386
0.358476
0.336686
0.341119
0.691301
0.299802
0.695266
0.70473
0.3799
0.364897
0.380485
0.411754
0.370369
0.637326
0.607022
0.671051
0.347983
0.700594
0.548394
0.35237
0.330841
0.922728
0.701056
0.70336
0.363225
0.677957
0.396558
0.683766
0.706151
0.710678
0.706475
0.404944
0.707055
0.311101
0.701878
0.70047
0.629842
0.362194
0.334764
0.700157
0.390936
0.675986
0.70262
0.349842
0.659532
0.683632
0.392249
0.697548
0.687607
0.322606
0.704426
0.39804
0.536134
0.704086
0.411014
0.651158
0.35185
0.678708
0.330281
1.13857
0.637416
0.695703
0.383018
0.351836
0.698859
0.348847
0.690629
0.666727
0.392259
1.13702
0.355112
0.372381
0.694711
0.511495
0.650465
0.372226
0.407367
0.714183
0.704307
0.314359
0.708198
0.382637
0.344213
0.712602
0.704638
0.451417
0.365836
0.70361
1.15619
0.680137
0.700011
0.682853
0.500175
0.361191
0.321126
0.367365
0.684715
0.366176
0.499953
0.349993
0.419706
0.347188
0.458582
0.113728
0.348772
0.698461
0.347963
0.686482
0.561609
0.70145
0.630712
0.712614
0.37179
0.37206
0.367451
0.349664
0.690834
0.558585
0.701901
0.563192
0.653344
0.587437
0.684351
0.609283
0.612845
0.682593
0.670237
0.750154
0.366315
0.429261
0.531299
0.37099
0.604164
0.545882
0.322308
0.710202
1.14836
0.404448
0.352763
0.37101
0.36073
0.58641
0.306425
0.411116
0.701741
0.377922
0.531657
0.374931
0.685682
0.668526
0.370306
0.366619
0.693665
0.410987
0.371822
0.364582
0.368024
0.389019
0.38557
0.352279
0.362914
0.397598
0.359736
0.624367
0.362591
0.695657
0.356178
0.400855
0.462427
0.355797
0.375606
0.370223
0.706388
0.398931
0.601732
0.458303
0.382292
0.577634
0.69284
0.403096
0.658754
0.591698
0.593102
0.391715
1.14305
0.371036
0.683605
1.15412
0.394648
0.280434
0.662013
0.349942
0.408888
0.641255
0.350428
0.648192
0.656141
0.372179
0.367604
0.313478
0.44573
0.332679
0.319316
0.324496
0.3111
0.704098
0.702884
0.416667
0.558157
0.435423
0.674215
0.347499
0.34093
0.496343
0.393434
0.691253
0.310957
0.359435
0.451013
0.69779
0.692184
0.519491
0.350079
0.270155
0.5305
0.70675
1.14704
0.527938
0.659306
0.655111
0.364104
0.668428
0.527776
0.631849
0.323777
0.369728
0.659415
0.693085
0.628777
0.700865
0.68622
0.693624
0.679749
0.629377
0.701624
0.367067
0.696931
0.330688
0.329846
0.353832
0.70275
0.694954
0.320616
0.696185
0.579047
0.363316
1.13031
0.701712
0.677975
0.379332
0.341802
0.695472
0.367393
0.363159
0.328836
0.367018
0.686911
0.321013
0.702345
0.363246
0.668797
0.710952
0.702995
0.703271
0.368251
0.361628
0.694835
0.705783
0.644717
0.704123
0.698617
0.45525
0.391486
0.390464
0.700668
0.49
0.369251
0.412967
0.424309
0.702968
0.705089
0.322334
0.366288
0.693758
0.41836
0.697906
0.616215
0.393288
0.367871
0.641184
1.14631
0.403096
0.690757
0.695316
0.694835
0.353403
1.13433
0.383316
1.13884
0.630879
0.365361
0.354097
0.35982
1.13745
0.386183
0.306094
0.370947
1.09573
0.680615
0.308761
0.344399
0.376256
1.11511
0.368429
0.684899
0.381118
0.545152
0.701041
0.356979
0.406601
0.404507
0.458051
0.38867
0.690523
0.361792
0.346095
0.700863
0.302278
0.700784
0.671706
1.13915
0.36184
0.692353
0.688363
0.693764
0.700633
0.701187
0.713144
0.383645
1.14451
0.399493
0.686357
0.335061
0.706672
0.465455
0.283583
1.13827
0.688201
0.342803
0.607741
0.448415
0.344812
0.701515
0.70464
0.433772
0.379702
0.318661
0.378288
0.702426
0.681659
0.351085
0.381391
0.689772
0.713596
0.547485
0.687967
0.70475
0.336592
0.696439
0.393475
0.710458
0.371342
0.557498
0.436248
0.705158
0.651423
0.536499
0.342563
0.382439
0.703018
0.565869
0.517741
0.687022
0.323234
0.667671
0.696468
0.347764
0.424749
0.690231
0.347911
1.13952
0.634081
0.331587
0.714666
0.621325
0.371389
0.677511
0.40915
0.688643
0.372761
0.700585
0.662971
0.385704
1.0789
0.685552
0.693346
0.581655
0.672752
0.543669
0.342253
0.394131
0.336673
0.373129
1.13502
0.517287
0.704414
0.693073
0.359626
0.35763
0.67571
0.701231
0.693177
0.707789
0.349786
0.669772
0.699526
0.362884
0.279944
0.699003
0.696973
0.692709
0.329149
0.553158
0.369124
0.67526
0.672933
1.15187
0.682475
0.370399
0.681162
0.695072
0.686212
0.705696
0.701242
0.396285
0.68246
0.357577
0.640789
0.699859
0.415588
0.657112
1.14879
0.711283
0.394766
0.379744
0.545155
0.619936
0.365374
0.366214
0.347708
0.360961
0.66954
0.666708
1.14429
0.336336
0.352998
0.704079
0.650517
0.323726
0.354267
0.419904
0.654223
0.703551
0.701418
0.673552
0.360291
0.364445
1.14212
0.439405
0.355673
0.358872
0.701924
0.37144
0.373326
0.539847
0.690998
0.673941
0.832418
0.703395
0.380933
0.312838
0.34989
0.463788
0.401184
0.420639
0.648812
0.671214
0.686356
0.701525
0.34457
0.353176
0.700668
0.36303
0.701201
0.663713
1.14992
0.434909
0.367723
0.685001
1.14425
0.556748
0.32211
0.699244
0.752049
0.536569
0.710022
0.707721
1.14433
0.6577
0.351475
0.703284
1.14596
0.619189
0.67458
1.13592
0.676963
1.13716
0.704268
0.343381
0.364915
0.355228
1.15334
0.46774
0.364393
0.676293
0.688812
0.346057
0.613622
0.369331
0.624057
0.449755
0.341734
0.701657
0.680132
0.370119
0.515075
1.1559
0.393332
0.698002
0.388919
0.337913
0.584069
0.566544
0.460362
0.702104
0.348277
0.68479
0.36962
0.331278
0.700596
0.369499
0.567985
0.428109
0.615382
0.5594
1.13669
0.693155
0.320903
0.350645
0.63181
0.411293
0.69221
0.422579
0.557399
0.676256
0.685452
0.421963
0.572711
0.675148
0.695016
0.705388
0.337156
0.366554
0.500923
0.675792
0.695021
0.354339
0.702285
0.558728
0.366499
0.434135
0.632155
0.654677
1.13583
1.13694
0.637889
0.66432
1.0446
0.658245
0.428305
0.625727
0.416423
0.712819
0.696799
0.333654
0.702663
0.701548
0.369863
0.325519
0.385477
1.13512
0.333986
0.58211
0.679863
0.625117
0.352818
0.695543
0.376735
0.553152
1.12591
1.15032
0.647495
1.11356
0.578944
0.661109
0.489057
0.686552
0.374834
0.701223
0.702747
0.39565
1.13752
0.669795
0.404792
0.322056
0.393255
0.710994
0.368323
1.13537
0.351097
0.706587
0.288254
0.43891
0.383425
0.682612
0.70832
0.524494
0.268963
0.580152
0.995942
0.360662
0.547047
0.702673
0.402048
0.549541
1.1442
0.701071
0.701112
0.395452
0.44334
0.692552
0.700525
0.641461
0.372428
0.376506
0.697531
1.14022
1.14769
1.1348
0.522725
0.684332
0.518642
0.713429
0.373062
0.374457
1.1347
0.69932
1.07367
0.383005
0.701423
0.535975
0.576513
0.372237
0.385832
0.707646
0.703658
0.514596
0.355319
0.701625
1.13815
0.300311
0.56994
0.672516
0.299169
0.377097
0.312246
0.668405
0.365419
0.363399
0.698387
0.426872
0.695953
0.620545
0.284522
0.393187
0.705007
0.368042
0.316702
1.14602
0.346463
0.35019
0.553173
0.700847
0.69029
0.354527
0.368425
0.333917
0.672539
0.342251
0.691436
0.285967
0.678696
0.697012
0.697027
0.664678
0.679394
0.671292
0.703936
0.703031
0.695474
0.318304
0.351483
0.674883
0.992245
0.470569
0.669392
0.516791
1.08406
0.618094
0.370751
0.713398
0.702389
0.689571
0.331132
0.680253
0.3683
0.698095
0.459964
0.673807
0.700653
0.343955
0.689059
0.37424
0.408254
0.663794
0.358642
0.651785
1.13383
0.704884
0.358392
0.701825
0.361232
0.441137
0.417415
0.37326
0.620009
0.315679
0.626396
1.14481
0.353544
0.408941
0.44743
0.539624
0.600137
0.647876
0.3643
0.393146
0.314616
0.382696
0.271238
0.601828
0.680512
0.376847
1.13848
0.679762
0.310696
0.70193
0.648549
1.13507
0.341378
1.136
0.672573
0.684055
0.710392
0.340365
0.690149
0.687542
0.680472
0.631601
0.716799
0.353631
0.414288
0.699547
0.498964
0.36657
0.700505
0.415512
0.535859
0.601779
0.68741
0.690176
0.445779
0.668
0.361834
0.333337
0.662934
0.692439
0.691653
0.713409
0.642378
0.444186
0.702245
0.317109
0.46854
0.704649
1.15068
0.692629
0.333333
0.350262
0.699844
0.35287
0.695567
0.611415
0.395165
0.345209
0.712476
0.427178
0.70069
0.695125
0.643767
0.425599
0.366761
0.459961
0.483974
0.589462
0.430881
0.678801
0.649558
0.698055
1.13446
0.678473
0.266456
0.349068
0.699145
0.735712
0.637156
0.415938
0.37409
0.668117
0.317325
0.70488
0.577213
0.362849
0.69005
0.350419
0.697929
0.373884
0.696045
0.33323
0.694763
0.73278
0.342337
0.697871
0.618721
0.341083
1.15049
0.700555
0.516878
0.351767
0.350541
0.425129
0.689441
0.640129
0.358064
0.55069
0.680686
0.717232
0.354197
0.58771
0.685828
0.413951
0.687985
0.70194
0.310309
0.698587
1.13912
0.37763
0.565305
0.361099
0.625995
0.35194
0.338857
0.692111
0.366779
0.377036
0.316847
0.703146
0.675311
0.370742
0.701646
0.349502
0.660207
0.364996
0.67816
0.350791
0.681822
0.70027
0.636769
1.15159
0.517635
0.732674
1.13491
0.376341
0.601963
0.638878
0.480707
0.677773
0.454947
0.383478
0.701898
0.367429
0.529516
0.367522
0.702043
0.32202
0.412131
0.679931
0.70399
0.36518
0.714056
0.670313
1.13692
0.707979
1.1377
0.355034
0.701643
0.360925
0.406274
0.694776
0.675731
0.70632
0.696432
0.394014
0.351483
0.329002
0.673727
1.14616
0.349176
0.70219
0.391343
0.35405
0.363205
0.693111
0.37148
0.702481
0.694792
0.599573
0.704708
0.694882
0.540478
0.634746
0.40048
0.321405
0.362873
1.1375
1.13679
0.383315
0.601478
0.665741
0.634128
0.396357
0.396763
0.651232
0.293199
0.645674
0.606983
0.352556
0.950663
0.672002
0.360013
0.690189
0.298001
0.704447
0.697045
0.679975
0.319142
0.43053
0.65116
0.312701
0.403453
0.700428
0.318276
0.847074
0.703934
0.68595
0.670389
0.361398
1.13798
0.66216
0.700556
0.352881
0.71166
0.372845
0.342694
0.696866
0.703815
1.13836
0.246242
0.700507
0.59947
1.14837
0.391685
0.371497
0.369843
0.715308
0.307189
0.302905
0.372465
0.605155
0.285871
0.340941
0.405387
0.692381
0.356649
1.15311
1.0974
0.711353
0.359165
0.700851
0.626792
1.13481
0.387995
0.62899
0.308574
0.365828
0.701645
0.364105
0.603986
0.677469
1.1363
0.348632
0.333761
0.343058
0.52673
1.13508
0.250361
0.693085
0.702414
0.673544
0.362854
0.313326
0.335024
0.645466
0.37188
1.13325
0.569372
1.00539
0.696118
0.339127
0.608293
0.383339
0.607724
0.612922
0.700982
0.590484
0.484107
0.631471
0.639763
0.701454
0.358988
0.355071
0.373775
0.672617
0.495308
1.15184
0.349555
0.378453
0.682237
0.700204
1.14953
0.362219
0.711045
0.523611
0.525383
0.641995
0.390235
0.362768
0.308083
0.704041
1.14081
0.628848
0.672755
0.340394
0.704843
0.62375
1.13932
1.143
0.705343
0.702226
0.689355
0.675167
0.68955
0.394212
0.703704
0.713194
0.691311
0.701796
0.703476
0.572235
0.357264
0.34407
0.62479
0.369493
0.357722
0.709158
0.340206
0.600273
0.703667
0.66975
0.689642
0.4009
0.708828
0.411777
0.382409
0.670454
0.68493
0.701504
0.360981
0.709598
0.702041
0.631705
0.703472
0.371134
0.681742
0.70006
0.669441
0.363625
0.679446
0.341478
0.702668
0.359065
0.358566
0.531813
0.412771
0.701602
0.682782
0.701002
0.373117
0.684393
0.372785
0.327603
0.685491
0.453013
0.374045
0.701835
0.331116
0.478737
0.642523
0.656956
0.688983
0.452358
0.561086
0.632134
0.700489
0.573362
0.692462
0.498016
0.703966
0.672113
0.621083
0.340359
0.328674
0.410467
0.712881
0.40321
0.634198
0.713289
0.568236
0.700613
0.510799
0.653857
0.658899
0.338966
0.714129
0.665156
0.492752
0.66538
0.701042
0.691108
0.884006
0.363583
0.3504
0.685565
0.499557
0.52329
0.711684
0.697196
0.701697
0.693196
0.696656
0.589214
0.649323
0.700651
0.311046
0.344741
0.324383
0.364067
1.14304
0.419561
0.514233
0.690098
0.660182
0.400081
0.689202
0.702905
0.364645
0.363513
1.13554
0.703396
0.387714
0.330322
0.327256
1.13365
0.68991
0.366685
0.264092
0.356726
0.342375
0.344414
0.367342
0.705579
0.700751
0.672639
0.355852
0.671759
0.580965
0.5746
0.341782
0.355505
0.68519
1.1348
0.375572
0.679562
0.359761
0.680447
0.393963
0.710179
0.376022
0.687802
0.707294
0.356752
0.529327
0.345577
0.701779
0.34665
0.586979
0.408357
0.467168
0.315778
0.580049
0.362224
1.15388
1.13867
0.572517
0.679712
0.340323
0.679372
0.988105
0.708663
0.577708
0.661668
0.356116
0.393107
0.378112
0.688293
0.320518
0.700675
0.5076
0.67466
0.701384
0.444053
0.683027
0.338643
0.387525
0.312106
0.469612
0.536017
0.696024
0.349653
0.361147
0.700528
0.359692
0.429833
0.564527
0.359612
0.374353
0.343415
0.705756
0.617205
0.590718
0.388788
0.674655
0.704508
0.338938
0.321055
0.696298
0.702852
0.605888
0.482708
0.382531
0.353484
0.3509
0.702575
0.626031
0.487688
0.660583
0.327773
0.535194
0.34538
1.13852
0.702965
0.354598
0.349979
0.631219
0.559172
0.704168
0.690167
0.691971
0.711145
0.703858
0.354174
0.369436
0.372338
0.337743
0.53168
1.15495
0.618766
0.348105
0.357003
0.418825
0.370947
0.701674
0.654882
0.374902
0.329384
0.703384
0.400345
0.631518
0.68528
0.674486
0.720645
0.537437
0.362709
0.379805
0.647076
0.352371
0.400628
0.368031
0.989431
0.702778
0.350757
0.351358
1.13544
0.36087
0.710949
0.688494
0.353453
0.370775
0.28168
0.703415
0.357551
1.13368
0.67387
0.571043
0.335161
0.496187
0.696739
0.69572
0.297021
0.692656
0.624619
0.466298
0.698637
0.70377
0.331662
0.365203
0.683819
0.353953
0.336632
0.684144
0.339469
0.698964
0.653009
0.685513
0.624315
0.698454
0.702799
0.831136
0.321798
0.384498
0.640597
0.685916
0.426987
0.701867
0.332333
0.70427
0.690323
0.532285
0.623758
0.39345
0.416913
0.690084
0.692819
0.670592
0.707608
0.701563
1.13447
0.708079
1.13557
0.700815
0.686987
0.70458
1.1356
0.741761
0.333951
0.686767
0.377331
0.711655
0.704066
0.678951
0.669585
0.66838
0.368459
0.347996
0.319659
0.307866
0.671197
0.385177
0.340782
0.66328
0.327985
0.674076
0.349636
0.685521
0.691203
0.365806
0.361504
0.36149
0.714046
0.388579
0.695675
0.687974
0.344798
0.683852
0.51814
0.356224
0.380904
0.332535
0.662421
0.366846
0.7133
0.507252
0.342212
0.701809
0.701691
0.691371
0.360803
0.542377
0.406401
0.673102
0.863665
0.712773
0.369242
0.684487
0.708682
0.672133
0.382259
0.712698
0.362384
0.364588
0.703014
0.415239
0.698951
0.386581
0.370818
0.405895
0.67318
0.383736
0.33984
0.374346
0.456095
1.13887
0.690708
0.32844
0.574261
0.702443
0.526273
0.40956
0.364032
0.521368
0.365996
0.355513
0.696626
0.367851
0.369979
0.710942
0.703572
0.360523
0.67461
0.353931
1.13545
0.376542
0.68789
1.14046
0.670582
1.01437
0.373141
0.353718
0.424859
0.718515
0.685692
0.559177
0.503601
0.356341
0.328191
0.696881
0.328389
0.699489
0.363725
1.15458
0.648702
0.37107
0.386313
0.369438
0.351018
0.382434
0.63282
0.671779
0.374492
0.701569
0.610968
0.340791
0.310652
0.702751
0.372878
0.693447
0.396673
0.671585
0.630687
0.701264
1.13718
0.347193
0.697066
0.708764
0.705278
0.366698
0.639998
0.5636
0.358704
0.713899
0.636216
0.704137
0.677376
0.703471
0.700798
0.706789
0.69865
0.700858
0.360456
0.68784
0.370157
0.427364
0.699824
0.424094
0.693237
0.653709
0.361093
0.671125
0.365396
0.452341
0.696283
0.642718
0.703816
0.352702
0.677852
0.584437
0.376521
0.359638
0.694636
0.704721
0.36645
0.37497
0.678176
0.703137
0.36117
0.617112
0.705942
0.618684
0.374296
0.361537
0.424796
0.63128
0.336351
0.692636
0.671624
0.699377
0.58502
0.693684
0.354388
0.691348
0.581947
0.707331
0.590546
0.407886
0.310449
0.33445
0.68239
0.690579
0.395743
0.628054
0.372089
0.639582
0.713503
0.325637
0.621907
0.692923
0.593214
0.356297
0.36077
0.364157
0.695566
0.699033
0.581191
0.481988
0.698247
0.374937
0.603464
1.14898
0.683438
0.355321
0.589431
0.359266
0.660822
0.341845
0.692458
0.697223
0.381628
0.697918
0.412001
1.13486
0.620786
1.13322
0.711308
0.392888
0.690506
0.701448
0.706082
0.693598
0.445677
1.14759
0.311131
0.701544
0.331369
0.357434
0.328413
0.384338
0.364993
0.359162
0.704989
0.356647
0.302879
0.64187
0.697476
0.673686
0.368275
0.664748
0.659199
0.788078
0.362254
0.589276
0.705379
0.363349
0.375474
0.352556
0.59851
0.474522
0.350209
0.580512
0.353638
1.13776
0.467865
0.339516
0.431808
0.624367
0.3624
0.705954
0.323965
0.47138
0.362221
0.703239
0.368294
0.639167
1.14732
0.66009
0.405825
0.363926
0.701954
0.702873
0.373935
0.44345
0.681231
0.36127
0.678274
0.354683
0.522247
0.332712
0.702883
0.369601
0.704082
0.358598
0.713719
0.696851
0.69598
1.13756
0.305675
0.41135
0.366534
0.692124
0.662601
0.672095
0.541983
0.364702
0.681744
0.363692
0.684444
0.632388
0.383475
0.343981
0.686408
0.693833
0.399559
1.15591
0.702974
0.688385
0.685779
0.323239
0.606577
0.37552
0.689518
0.344224
1.12241
0.682422
0.701091
0.704722
0.34111
0.703889
0.369234
0.338231
0.709782
1.13878
0.512583
0.688143
1.14671
0.375763
0.677707
0.701895
0.707077
0.437171
0.398416
0.657536
0.386845
0.70407
0.710982
0.695692
0.704275
0.311753
0.41752
0.622251
0.389082
0.690913
0.701941
0.43838
0.694928
0.279048
0.647358
0.678544
0.647547
0.697115
0.356146
0.406012
0.695731
0.690692
0.365135
0.337106
0.371604
0.404873
0.304942
0.326598
0.371741
0.368134
0.693851
0.329593
0.37249
0.677147
0.512002
1.13404
0.377166
0.350748
0.703104
0.429902
0.463881
0.697454
0.36308
0.626812
1.15387
0.573716
0.678569
0.38604
0.691693
1.09881
0.344104
0.360931
0.385711
0.651645
0.573825
0.702807
0.689024
0.684198
0.681204
0.357408
0.696442
1.03541
0.697572
0.362903
0.703125
0.613775
0.355099
0.399751
0.301113
0.383819
0.306904
0.556415
0.643207
0.67582
0.35795
0.366544
0.706723
0.344493
0.685479
0.701531
0.695001
0.64736
0.699752
0.365407
0.390478
0.340183
0.540056
0.336953
0.701721
0.32656
0.703275
0.675426
0.703369
0.364649
0.415512
0.390774
0.69572
0.372356
0.348016
0.707787
0.679411
0.611778
0.679851
0.694456
0.677639
0.365653
0.589897
0.696814
0.499017
0.69438
0.684889
0.681784
0.41874
0.395732
0.706699
0.46361
0.592859
0.376243
0.658391
0.697753
0.364769
0.33683
0.668968
0.471103
0.693342
0.684467
0.367626
0.36284
1.13853
0.394151
0.373138
0.700487
0.694176
0.355862
0.695074
1.14355
0.669081
0.366453
0.557535
0.364087
0.702747
0.703131
0.678272
0.6716
1.13918
0.338638
0.346095
0.677
0.366003
0.57462
0.345703
0.700981
0.360982
0.625851
0.694894
1.13846
0.369769
1.1335
1.13807
0.341843
0.657013
0.332166
0.7057
0.374189
0.375562
0.324635
0.670587
0.697992
0.319723
0.311517
0.684812
0.704008
0.421219
0.668438
0.365453
0.459173
0.358348
0.678209
0.350382
0.644408
0.698916
0.38235
0.395035
0.376408
1.13417
0.356072
0.373795
0.69886