# vtk DataFile Version 1.0
unstructured grid
ascii
DATASET UNSTRUCTURED_GRID
points 13672 float
0.0796578 -0.059106 0
0.00128732 0.00159165 0
0.00227961 -0.00102548 0
0.0791586 -0.0598787 0
-0.0546216 0.01 0
0.000495206 0.025 0
0.0800549 -0.035 0
0.135172 -0.08 0
-0.0546216 -0.0451168 0
0.000495206 -0.0301168 0
0.0800549 -0.0901168 0
0.135172 -0.135117 0
-0.0546216 -0.0451168 -0.00551168
0.000495206 -0.0301168 -0.00551168
0.0800549 -0.0901168 -0.00551168
0.135172 -0.135117 -0.00551168
0.135172 -0.08 -0.00551168
0.0800549 -0.035 -0.00551168
0.000495206 0.025 -0.00551168
-0.0546216 0.01 -0.00551168
0.00128732 0.00159165 -0.00551168
0.00227961 -0.00102548 -0.00551168
0.0791586 -0.0598787 -0.00551168
0.0796578 -0.059106 -0.00551168
0.00165953 -0.000990923 0
0.00119576 -0.000874076 0
0.000866021 -0.000641801 0
0.000645147 -0.000349912 0
0.00052235 -1.7281e-05 0
0.00049972 0.000348016 0
0.000601632 0.000737716 0
0.000861774 0.0011403 0
0.00157235 0.00183217 0
0.00188647 0.00206725 0
0.00222612 0.00230203 0
0.00258713 0.00254351 0
0.00296826 0.00279524 0
0.00337118 0.00305664 0
0.00379785 0.00332658 0
0.00425045 0.00360349 0
0.00473139 0.00388521 0
0.0052432 0.00416895 0
0.0057881 0.00445204 0
0.00636753 0.00473281 0
0.00698281 0.00500961 0
0.00763526 0.00528058 0
0.00832616 0.00554366 0
0.00905691 0.00579603 0
0.00982918 0.00603333 0
0.0106445 0.00625033 0
0.0115038 0.00644128 0
0.0124073 0.00660297 0
0.0133543 0.00673414 0
0.0143444 0.00683382 0
0.0153769 0.00690031 0
0.0164512 0.00693173 0
0.0175666 0.00692547 0
0.0187219 0.00687822 0
0.0199156 0.00678477 0
0.0211454 0.00663864 0
0.0224084 0.00643275 0
0.0237018 0.00616676 0
0.0250249 0.00584739 0
0.026375 0.00547298 0
0.0277479 0.00503752 0
0.0291386 0.00453545 0
0.0305433 0.0039653 0
0.0319572 0.0033256 0
0.0333681 0.00260019 0
0.034775 0.00179799 0
0.0361793 0.000930615 0
0.0375798 3.12222e-06 0
0.0389689 -0.000988429 0
0.0403357 -0.00205109 0
0.041675 -0.00318283 0
0.0429849 -0.00437751 0
0.0442643 -0.00562904 0
0.0455126 -0.00693089 0
0.0467314 -0.00827518 0
0.0479204 -0.00965638 0
0.0490661 -0.0110799 0
0.0501515 -0.0125519 0
0.0511696 -0.0140695 0
0.0521492 -0.0156071 0
0.0531202 -0.0171411 0
0.0540851 -0.0186663 0
0.0550431 -0.0201798 0
0.0559923 -0.0216793 0
0.0569311 -0.0231626 0
0.0578582 -0.0246273 0
0.0587723 -0.0260715 0
0.0596721 -0.027493 0
0.0605563 -0.02889 0
0.0614241 -0.0302609 0
0.0622742 -0.0316042 0
0.063106 -0.0329183 0
0.0639186 -0.034202 0
0.0647113 -0.0354543 0
0.0654835 -0.0366743 0
0.0662345 -0.0378613 0
0.0669642 -0.0390145 0
0.0676726 -0.0401333 0
0.0683597 -0.0412172 0
0.0690246 -0.0422665 0
0.0696662 -0.0432819 0
0.0702841 -0.0442636 0
0.0708793 -0.0452111 0
0.0714538 -0.0461237 0
0.072009 -0.047001 0
0.0725452 -0.0478434 0
0.0730611 -0.0486524 0
0.073556 -0.0494294 0
0.0740291 -0.0501756 0
0.0744812 -0.0508916 0
0.0749138 -0.0515773 0
0.0753285 -0.0522331 0
0.0757266 -0.0528592 0
0.076109 -0.0534564 0
0.0764753 -0.0540264 0
0.0768243 -0.054571 0
0.0771553 -0.0550919 0
0.0774679 -0.0555901 0
0.0777617 -0.0560669 0
0.0780369 -0.056523 0
0.0782958 -0.0569578 0
0.0785421 -0.0573703 0
0.0787786 -0.0577603 0
0.0790073 -0.0581279 0
0.0792295 -0.058474 0
0.0794462 -0.0587995 0
0.0798803 -0.0594162 0
0.0800272 -0.0596588 0
0.0800357 -0.0598891 0
0.0799275 -0.0600784 0
0.0797205 -0.0601773 0
0.0794593 -0.0601051 0
0.0789155 -0.0596491 0
0.0786707 -0.0593963 0
0.0784111 -0.0591319 0
0.0781372 -0.0588542 0
0.0778566 -0.0585548 0
0.0775715 -0.0582308 0
0.0772803 -0.0578828 0
0.0769832 -0.0575099 0
0.0766822 -0.0571097 0
0.0763801 -0.0566796 0
0.0760759 -0.0562196 0
0.0757623 -0.0557337 0
0.0754359 -0.0552232 0
0.0750951 -0.0546879 0
0.0747379 -0.054128 0
0.0743626 -0.0535435 0
0.0739688 -0.0529338 0
0.0735559 -0.0522981 0
0.0731238 -0.0516357 0
0.0726718 -0.050946 0
0.0721991 -0.0502288 0
0.0717046 -0.049484 0
0.0711872 -0.0487117 0
0.0706461 -0.047912 0
0.0700804 -0.0470849 0
0.0694892 -0.0462308 0
0.0688718 -0.0453499 0
0.0682271 -0.0444431 0
0.0675544 -0.043511 0
0.0668527 -0.0425546 0
0.0661215 -0.0415748 0
0.06536 -0.040573 0
0.0645676 -0.0395504 0
0.0637439 -0.0385087 0
0.0628887 -0.0374493 0
0.062002 -0.0363741 0
0.0610838 -0.0352847 0
0.0601345 -0.0341831 0
0.0591547 -0.033071 0
0.0581456 -0.0319502 0
0.0571083 -0.0308224 0
0.0560444 -0.0296893 0
0.0549562 -0.028552 0
0.053845 -0.0274126 0
0.0527113 -0.0262746 0
0.051554 -0.0251427 0
0.0503724 -0.0240222 0
0.0491675 -0.0229164 0
0.047941 -0.0218282 0
0.0466955 -0.0207597 0
0.0454337 -0.0197126 0
0.0441592 -0.0186878 0
0.0428751 -0.0176863 0
0.0415841 -0.0167097 0
0.0402878 -0.0157609 0
0.0389879 -0.0148428 0
0.0376864 -0.0139575 0
0.0363853 -0.013107 0
0.0350871 -0.0122931 0
0.0337942 -0.0115164 0
0.0325095 -0.0107772 0
0.0312357 -0.0100756 0
0.0299758 -0.00941024 0
0.0287337 -0.00877784 0
0.0275126 -0.00817571 0
0.0263139 -0.00760375 0
0.0251376 -0.00706528 0
0.0239829 -0.0065649 0
0.0228537 -0.00609619 0
0.0217522 -0.00565563 0
0.0206795 -0.00524226 0
0.0196364 -0.00485507 0
0.0186233 -0.00449318 0
0.0176408 -0.00415577 0
0.016689 -0.00384204 0
0.0157682 -0.00355115 0
0.0148783 -0.00328218 0
0.0140192 -0.00303468 0
0.0131906 -0.00280795 0
0.0123925 -0.00260016 0
0.0116246 -0.00241012 0
0.0108864 -0.00223769 0
0.0101774 -0.00208212 0
0.00949701 -0.00194206 0
0.00884483 -0.0018163 0
0.0082202 -0.0017039 0
0.00762247 -0.00160391 0
0.00705097 -0.00151528 0
0.006505 -0.00143697 0
0.0059838 -0.00136806 0
0.00548662 -0.00130772 0
0.00501265 -0.00125519 0
0.00456114 -0.00120954 0
0.00413136 -0.00116914 0
0.00372257 -0.00113251 0
0.00333398 -0.00109853 0
0.00296466 -0.00106798 0
0.00261363 -0.0010431 0
-0.052721 -0.0445996 0
-0.0508204 -0.0440823 0
-0.0489199 -0.0435651 0
-0.0470193 -0.0430478 0
-0.0451187 -0.0425306 0
-0.0432181 -0.0420134 0
-0.0413175 -0.0414961 0
-0.039417 -0.0409789 0
-0.0375164 -0.0404616 0
-0.0356158 -0.0399444 0
-0.0337152 -0.0394271 0
-0.0318146 -0.0389099 0
-0.0299141 -0.0383927 0
-0.0280135 -0.0378754 0
-0.0261129 -0.0373582 0
-0.0242123 -0.0368409 0
-0.0223117 -0.0363237 0
-0.0204112 -0.0358065 0
-0.0185106 -0.0352892 0
-0.01661 -0.034772 0
-0.0147094 -0.0342547 0
-0.0128088 -0.0337375 0
-0.0109083 -0.0332202 0
-0.00900769 -0.032703 0
-0.00710711 -0.0321858 0
-0.00520653 -0.0316685 0
-0.00330595 -0.0311513 0
-0.00140537 -0.030634 0
0.00190689 -0.0299614 0
0.00332271 -0.0298498 0
0.00474133 -0.0297825 0
0.00616136 -0.0297597 0
0.0075814 -0.0297814 0
0.00900007 -0.0298477 0
0.010416 -0.0299583 0
0.0118278 -0.0301127 0
0.0132342 -0.0303103 0
0.0146339 -0.0305504 0
0.0160259 -0.0308322 0
0.0174091 -0.0311546 0
0.0187824 -0.0315166 0
0.020145 -0.031917 0
0.0214961 -0.0323546 0
0.0228351 -0.032828 0
0.0241613 -0.0333361 0
0.0254744 -0.0338774 0
0.0267738 -0.0344507 0
0.0280592 -0.0350545 0
0.0293306 -0.0356877 0
0.0305875 -0.0363488 0
0.0318301 -0.0370367 0
0.0330581 -0.0377501 0
0.0342717 -0.0384879 0
0.0354708 -0.0392489 0
0.0366556 -0.0400321 0
0.0378262 -0.0408363 0
0.0389828 -0.0416607 0
0.0401254 -0.0425042 0
0.0412543 -0.0433659 0
0.0423698 -0.0442451 0
0.043472 -0.0451408 0
0.0445612 -0.0460523 0
0.0456375 -0.0469789 0
0.0467013 -0.0479199 0
0.0477529 -0.0488746 0
0.0487923 -0.0498424 0
0.04982 -0.0508227 0
0.0508362 -0.051815 0
0.051841 -0.0528187 0
0.0528348 -0.0538333 0
0.0538178 -0.0548584 0
0.0547903 -0.0558935 0
0.0557524 -0.0569382 0
0.0567045 -0.0579922 0
0.0576467 -0.0590549 0
0.0585792 -0.0601261 0
0.0595024 -0.0612055 0
0.0604163 -0.0622926 0
0.0613212 -0.0633873 0
0.0622174 -0.0644891 0
0.0631049 -0.0655979 0
0.0639841 -0.0667134 0
0.064855 -0.0678353 0
0.0657179 -0.0689633 0
0.0665729 -0.0700974 0
0.0674202 -0.0712372 0
0.06826 -0.0723826 0
0.0690925 -0.0735333 0
0.0699178 -0.0746892 0
0.070736 -0.0758501 0
0.0715473 -0.0770159 0
0.0723518 -0.0781863 0
0.0731498 -0.0793612 0
0.0739412 -0.0805405 0
0.0747264 -0.081724 0
0.0755053 -0.0829116 0
0.0762781 -0.0841033 0
0.0770449 -0.0852987 0
0.0778059 -0.0864979 0
0.0785611 -0.0877007 0
0.0793108 -0.088907 0
0.0814681 -0.0912706 0
0.0828814 -0.0924245 0
0.0842946 -0.0935783 0
0.0857079 -0.0947322 0
0.0871211 -0.095886 0
0.0885344 -0.0970399 0
0.0899476 -0.0981937 0
0.0913609 -0.0993476 0
0.0927741 -0.100501 0
0.0941874 -0.101655 0
0.0956006 -0.102809 0
0.0970139 -0.103963 0
0.0984272 -0.105117 0
0.0998404 -0.106271 0
0.101254 -0.107424 0
0.102667 -0.108578 0
0.10408 -0.109732 0
0.105493 -0.110886 0
0.106907 -0.11204 0
0.10832 -0.113194 0
0.109733 -0.114348 0
0.111146 -0.115501 0
0.11256 -0.116655 0
0.113973 -0.117809 0
0.115386 -0.118963 0
0.116799 -0.120117 0
0.118213 -0.121271 0
0.119626 -0.122424 0
0.121039 -0.123578 0
0.122452 -0.124732 0
0.123866 -0.125886 0
0.125279 -0.12704 0
0.126692 -0.128194 0
0.128105 -0.129348 0
0.129519 -0.130501 0
0.130932 -0.131655 0
0.132345 -0.132809 0
0.133758 -0.133963 0
0.135172 -0.133216 0
0.135172 -0.131316 0
0.135172 -0.129415 0
0.135172 -0.127514 0
0.135172 -0.125614 0
0.135172 -0.123713 0
0.135172 -0.121813 0
0.135172 -0.119912 0
0.135172 -0.118012 0
0.135172 -0.116111 0
0.135172 -0.11421 0
0.135172 -0.11231 0
0.135172 -0.110409 0
0.135172 -0.108509 0
0.135172 -0.106608 0
0.135172 -0.104708 0
0.135172 -0.102807 0
0.135172 -0.100906 0
0.135172 -0.0990058 0
0.135172 -0.0971052 0
0.135172 -0.0952046 0
0.135172 -0.0933041 0
0.135172 -0.0914035 0
0.135172 -0.0895029 0
0.135172 -0.0876023 0
0.135172 -0.0857017 0
0.135172 -0.0838012 0
0.135172 -0.0819006 0
0.133758 -0.0788462 0
0.132345 -0.0776923 0
0.130932 -0.0765385 0
0.129519 -0.0753846 0
0.128105 -0.0742308 0
0.126692 -0.0730769 0
0.125279 -0.0719231 0
0.123866 -0.0707692 0
0.122452 -0.0696154 0
0.121039 -0.0684615 0
0.119626 -0.0673077 0
0.118213 -0.0661538 0
0.116799 -0.065 0
0.115386 -0.0638462 0
0.113973 -0.0626923 0
0.11256 -0.0615385 0
0.111146 -0.0603846 0
0.109733 -0.0592308 0
0.10832 -0.0580769 0
0.106907 -0.0569231 0
0.105493 -0.0557692 0
0.10408 -0.0546154 0
0.102667 -0.0534615 0
0.101254 -0.0523077 0
0.0998404 -0.0511538 0
0.0984272 -0.05 0
0.0970139 -0.0488462 0
0.0956006 -0.0476923 0
[...]
CELL_DATA 13116
SCALARS rho float
LOOKUP_TABLE default
0.647013
0.692253
0.349233
0.699098
0.70282
0.686676
0.362058
0.695278
0.592694
0.706253
0.363064
0.336806
0.702985
0.354564
0.359198
0.686659
0.649963
0.726598
0.69209
0.358071
0.641397
0.360838
0.353573
0.720606
0.659221
0.689592
0.707546
0.353657
0.589416
0.716604
1.0411
0.333249
0.619245
0.480936
0.362714
0.644967
0.705562
0.691394
0.684356
0.688686
0.692309
0.696432
0.506946
0.34618
0.691499
0.692075
0.68589
0.694521
0.369124
0.53351
0.701189
0.495578
0.357489
0.645831
0.62009
0.645155
0.346317
0.707093
0.541696
0.368664
0.354087
0.702748
0.689672
0.679176
0.969956
0.349052
0.690195
0.709953
0.697876
0.823144
0.357627
0.604983
0.35825
0.347405
1.12618
0.341264
0.694626
0.699577
0.360927
0.720982
0.70459
0.68808
0.709001
0.694684
0.689948
0.478303
0.35558
0.716788
0.689238
0.365388
0.342747
0.692526
0.719333
0.689988
0.709192
0.660195
0.662228
1.12319
1.12129
0.651567
0.730511
0.678138
0.691429
0.450951
0.684466
0.359567
0.439096
0.56189
0.351917
0.647293
0.593012
0.686976
0.657884
0.706416
0.72337
0.687622
0.354043
0.438308
0.697826
0.688854
0.710826
0.360525
0.697835
0.342413
0.690288
0.468671
0.3553
0.52305
0.350674
0.532878
0.697946
0.697997
0.511085
0.365383
0.494132
0.669526
1.12688
0.699266
0.730687
0.688154
0.687908
0.686463
0.523596
0.688399
0.69027
0.358164
0.362664
0.688774
0.702596
0.694355
0.540007
0.694473
0.694342
0.347802
0.705227
0.689972
0.35243
0.734568
1.10881
0.71754
0.71346
0.362412
0.705966
0.352483
0.35982
0.703462
0.689863
0.726777
0.362618
0.482042
0.459652
1.12659
0.360227
0.51223
0.687132
0.354559
0.356259
0.359346
0.686989
0.692934
0.358654
0.462424
0.615853
0.706173
0.693268
0.552121
0.348203
0.689495
0.684451
0.484787
0.695206
0.688767
0.746434
0.348829
0.687688
0.68698
0.708364
0.690162
0.689076
0.406325
0.452454
0.659507
0.519065
0.349803
0.700699
0.693549
0.501855
0.667524
0.366791
0.364106
0.341657
0.691225
0.352615
0.361534
0.365532
0.346803
0.427291
0.68677
0.69023
0.473706
0.345585
0.689774
0.587677
0.359192
0.54006
0.703686
0.689711
0.354312
0.687038
0.456359
0.691978
0.338393
0.74371
0.553651
1.12795
0.689989
0.690683
0.380986
0.463864
0.719138
1.12659
0.688595
1.12689
0.669231
0.690853
0.356913
0.700075
0.705149
1.11851
0.36214
0.370101
0.69343
0.697506
0.853811
0.696383
0.643705
0.710838
0.362864
0.389805
0.416555
0.366053
0.683088
0.707339
0.69335
0.357637
0.690195
0.348821
0.467346
0.684502
0.354943
0.689265
0.700922
1.12672
0.70664
0.379696
1.12686
0.704988
1.11852
0.698997
0.360548
0.354599
0.35045
0.66819
0.358897
0.369658
0.430172
0.400535
0.691315
0.358036
0.689269
0.702654
0.351351
0.357586
0.349742
0.474749
0.353439
0.716349
0.673493
0.685598
0.355839
0.695341
0.557856
0.388146
0.367196
0.686678
0.697432
0.690204
0.347517
0.686892
0.461539
0.697773
0.697471
0.692016
0.698251
0.349053
0.687119
0.361332
0.686422
0.708867
0.735269
0.36214
0.428492
0.705092
0.350723
0.688849
0.702817
0.38818
0.724358
0.708008
0.351847
0.690263
0.71689
0.358395
0.698646
0.476377
0.550182
0.689605
0.480493
0.734238
0.357194
0.71166
0.436278
0.668574
0.678242
0.713694
0.35321
0.433131
0.690074
0.348939
0.699848
0.685218
0.457455
1.12687
0.348115
0.351673
0.697702
0.542962
0.708088
0.354277
0.352641
0.699837
0.702575
0.363081
0.701561
0.352648
0.367424
0.687753
0.689868
0.581257
0.367273
0.698468
1.00361
0.686609
0.689939
0.703099
0.542186
0.365117
0.363736
0.358357
0.686529
0.359017
0.616625
0.393081
0.346838
0.430839
0.588151
0.183857
0.349786
0.690373
0.330878
0.705971
0.651383
0.693156
0.719288
0.700326
0.352122
0.354553
0.413363
0.373233
0.698603
0.655696
0.692315
0.643207
0.691153
0.691253
0.687994
0.689698
0.716076
0.70234
0.722113
0.686736
0.42023
0.500546
0.645083
0.35707
0.671945
0.644932
0.357071
0.687277
1.12686
0.350009
0.359964
0.36328
0.349594
0.789665
0.3529
0.349299
0.689386
0.347563
0.561669
0.364752
0.68667
0.700827
0.355396
0.363484
0.697689
0.474047
0.365264
0.349871
0.366754
0.352145
0.353927
0.360244
0.365297
0.468566
0.363251
0.677802
0.360601
0.68922
0.386463
0.340907
0.508853
0.358698
0.365275
0.358
0.690159
0.4666
0.769762
0.57869
0.348762
0.671839
0.689314
0.475829
0.720733
0.692167
0.690357
0.353278
1.12353
0.441139
0.704354
1.08692
0.351781
0.3598
0.68397
0.374444
0.4794
0.679635
0.436986
0.734835
0.690746
0.356984
0.354444
0.358144
0.50799
0.365265
0.357426
0.358867
0.360766
0.702151
0.701726
0.479065
0.65341
0.495657
0.687131
0.420113
0.347912
0.598483
0.351913
0.695631
0.406112
0.437544
0.508194
0.691416
0.68906
0.547198
0.385341
0.360001
0.545494
0.696292
0.694984
0.544039
0.683936
0.682835
0.362969
0.700555
0.551727
0.720368
0.406614
0.353443
0.706313
0.713708
0.720373
0.705222
0.688087
0.689862
0.710075
0.72564
0.693026
0.36468
0.691205
0.440612
0.368781
0.36269
0.700643
0.693455
0.418032
0.689601
0.600189
0.362433
0.66712
0.697226
0.702009
0.353428
0.348422
0.699191
0.365617
0.366463
0.353329
0.36304
0.695402
0.357919
0.699623
0.359868
0.692372
0.701183
0.696983
0.702669
0.365729
0.358502
0.694096
0.692249
0.699987
0.702653
0.705146
0.502081
0.352116
0.352039
0.694367
0.576114
0.363276
0.476099
0.346699
0.689964
0.687649
0.407552
0.362367
0.689162
0.483651
0.690526
0.755592
0.350345
0.45431
0.698472
1.12627
0.352248
0.688514
0.689801
0.693886
0.343713
1.12659
0.34604
1.12751
0.720604
0.367529
0.423915
0.36809
1.12945
0.352054
0.359812
0.439404
0.676409
0.700134
0.36022
0.386801
0.363973
0.673321
0.359404
0.690502
0.358021
0.613106
0.703955
0.389717
0.352554
0.353091
0.503093
0.352148
0.688988
0.345793
0.347211
0.686845
0.359763
0.687223
0.688105
1.12577
0.364987
0.695738
0.70631
0.70654
0.694715
0.69036
0.687616
0.34853
0.765973
0.475628
0.694525
0.359792
0.69191
0.534512
0.362371
1.04149
0.702672
0.350211
0.691873
0.343017
0.356013
0.690551
0.690255
0.345924
0.358525
0.360709
0.338603
0.690091
0.722699
0.344678
0.355392
0.700046
0.698318
0.632139
0.70627
0.686946
0.362608
0.710338
0.462546
0.701372
0.436933
0.654147
0.496408
0.686894
0.707993
0.558467
0.416606
0.352822
0.690167
0.566349
0.640619
0.706313
0.364333
0.702951
0.705329
0.459769
0.498802
0.706292
0.390286
0.920513
0.718751
0.427349
0.688894
0.709537
0.350336
0.70112
0.350443
0.688587
0.342011
0.690502
0.689096
0.353185
0.683359
0.706125
0.69959
0.639838
0.698803
0.55891
0.383287
0.458245
0.346011
0.348088
1.1269
0.542006
0.697827
0.702337
0.362662
0.367692
0.699251
0.705973
0.698013
0.700478
0.360691
0.725442
0.705036
0.358594
0.344903
0.698019
0.693128
0.689147
0.304932
0.561138
0.356051
0.701197
0.687455
0.730567
0.693019
0.363121
0.695252
0.689137
0.71162
0.690203
0.692891
0.474845
0.70276
0.36354
0.684246
0.704858
0.480171
0.691512
0.672376
0.700732
0.461647
0.442231
0.561036
0.726235
0.365532
0.36742
0.352919
0.363512
0.693557
0.702755
0.685993
0.401171
0.363077
0.697623
0.727813
0.357409
0.369759
0.482763
0.701683
0.690062
0.689866
0.707076
0.364541
0.365591
1.12697
0.34141
0.361412
0.344643
0.690802
0.355647
0.365751
0.639259
0.693886
0.686528
0.686591
0.689646
0.352983
0.357772
0.353784
0.590551
0.469077
0.340472
0.708849
0.708047
0.689366
0.69444
0.304906
0.365491
0.704977
0.364149
0.692663
0.688577
1.08401
0.346021
0.366852
0.688009
1.04002
0.660355
0.357992
0.690304
0.686522
0.637113
0.695209
0.698437
1.12693
0.683804
0.360824
0.68898
0.923275
0.683907
0.7013
1.12685
0.686799
1.12649
0.698405
0.348176
0.348117
0.365493
1.02401
0.549373
0.364406
0.69855
0.700404
0.34016
0.697827
0.356443
0.69712
0.572777
0.378241
0.70386
0.723622
0.363589
0.536913
1.00144
0.349039
0.690241
0.349954
0.362359
0.683706
0.659415
0.508583
0.691546
0.351574
0.705383
0.352386
0.325505
0.687614
0.363119
0.662175
0.346321
0.696305
0.654094
1.12686
0.689391
0.363165
0.347064
0.680836
0.521177
0.698077
0.490656
0.655082
0.686748
0.712682
0.534095
0.636691
0.687249
0.708146
0.693248
0.439437
0.367368
0.534284
0.687565
0.713954
0.411619
0.691238
0.660834
0.411735
0.346031
0.734758
0.702938
1.12659
1.12922
0.679677
0.705143
0.685086
0.704186
0.345419
0.723067
0.47957
0.689197
0.692938
0.406397
0.69007
0.701399
0.346967
0.376004
0.350565
1.12684
0.362213
0.680373
0.702265
0.724449
0.402004
0.691017
0.351624
0.562001
0.675214
0.721546
0.708959
0.670047
0.671525
0.704424
0.593909
0.694064
0.342586
0.691572
0.69674
0.496561
1.12593
0.701932
0.350544
0.364186
0.348953
0.694249
0.367198
1.1263
0.353234
0.694268
0.360175
0.497723
0.354293
0.704518
0.701288
0.642729
0.398348
0.676524
0.68998
0.359845
0.638033
0.702183
0.33847
0.647707
1.10327
0.703915
0.693226
0.351443
0.558022
0.698892
0.692463
0.685266
0.366361
0.438784
0.690574
1.12689
1.12634
1.12687
0.634159
0.698056
0.630586
0.687684
0.366251
0.350984
1.12689
0.701938
0.682542
0.348562
0.691513
0.644837
0.67097
0.341681
0.464007
0.701809
0.693685
0.54997
0.369229
0.693704
1.12623
0.362379
0.661253
0.706585
0.362713
0.340641
0.361415
0.685688
0.363128
0.364741
0.69014
0.495104
0.70904
0.701299
0.362415
0.352889
0.702667
0.346338
0.351686
1.03465
0.364104
0.420749
0.650915
0.69048
0.695978
0.363346
0.358402
0.363577
0.688659
0.360338
0.695997
0.356627
0.69805
0.689453
0.690996
0.684626
0.696029
0.686868
0.689782
0.702377
0.696802
0.357767
0.358972
0.694806
0.686126
0.509903
0.685758
0.60877
0.68239
0.682683
0.354945
0.688079
0.702686
0.692712
0.360368
0.69571
0.354453
0.694848
0.502978
0.714779
0.695164
0.378162
0.698873
0.363645
0.475605
0.690137
0.343571
0.730005
1.12688
0.689479
0.348698
0.687751
0.363789
0.345267
0.346896
0.365738
0.680192
0.362196
0.690433
0.663898
0.371072
0.348729
0.500115
0.560169
0.709024
0.684955
0.364964
0.350612
0.363161
0.355464
0.394499
0.706584
0.687015
0.353951
0.669157
0.702031
0.361121
0.70439
0.730222
0.662617
0.360251
1.12652
0.69879
0.702437
0.688149
0.364085
0.69659
0.702275
0.696056
0.74224
0.689241
0.374388
0.347212
0.694413
0.531205
0.367079
0.686844
0.352191
0.551208
0.694644
0.688401
0.688863
0.343799
0.685387
0.41302
0.359127
0.717429
0.699682
0.704027
0.700054
0.704129
0.345429
0.70357
0.368019
0.508852
0.703352
1.12135
0.698578
0.361176
0.383612
0.705103
0.398612
0.699002
0.747615
0.46148
0.378152
0.687691
0.346163
0.695036
0.698883
0.69867
0.346434
0.348436
0.517432
0.587705
0.692956
0.493192
0.686679
0.684831
0.689509
1.12684
0.698832
0.359704
0.375058
0.699496
0.690046
0.684656
0.480986
0.348884
0.699931
0.361394
0.687455
0.637982
0.363371
0.698394
0.361998
0.69036
0.349503
0.703367
0.377625
0.694864
0.692525
0.340665
0.690263
0.725359
0.341849
0.687373
0.691535
0.615715
0.358688
0.408284
0.488635
0.706286
0.681336
0.366145
0.559053
0.699493
0.686828
0.403658
0.679523
0.691431
0.481622
0.686838
0.686585
0.410917
0.696482
1.10666
0.348316
0.660512
0.351161
0.694563
0.349602
0.365308
0.713133
0.366273
0.364206
0.362409
0.688215
0.690217
0.426134
0.693582
0.410813
0.697682
0.363949
0.691147
0.396502
0.686681
0.694612
0.696762
0.686165
0.538422
0.69213
0.664362
0.352775
0.757343
0.699108
0.612307
0.698394
0.503419
0.44451
0.703347
0.357523
0.574569
0.357022
0.691938
0.356764
0.34891
0.725036
0.688538
0.357711
0.688229
0.708748
1.12685
0.700133
1.12871
0.361202
0.706168
0.360296
0.352234
0.689837
0.706644
0.695857
0.689296
0.342046
0.348679
0.363411
0.69236
0.669226
0.408692
0.690215
0.350179
0.348507
0.341071
0.689163
0.4382
0.704063
0.697007
0.766183
0.690234
0.696492
0.643438
0.691962
0.472821
0.343135
0.358172
1.12897
1.12824
0.348902
0.70411
0.68437
0.69349
0.351646
0.465792
0.685538
0.381545
0.684425
0.675861
0.361219
0.690374
0.693927
0.364929
0.695774
0.35414
0.697589
0.713505
0.695706
0.36273
0.490051
0.722921
0.416223
0.479008
0.689998
0.415084
0.692074
0.694027
0.688995
0.709083
0.367451
1.06544
0.713923
0.692251
0.446403
0.700222
0.355382
0.358561
0.690544
0.689757
0.666995
0.336643
0.694913
0.771698
1.12655
0.350395
0.353623
0.365562
0.69877
0.362566
0.358909
0.349038
0.67403
0.355414
0.40455
0.476399
0.695926
0.363041
0.695829
0.683422
0.688812
0.347959
0.695668
0.718549
0.670946
0.464886
0.737971
0.362032
0.357936
0.687137
0.357847
0.698014
0.700709
1.12692
0.362633
0.429908
0.350987
0.544735
1.12673
0.338666
0.691743
0.688562
0.708343
0.364613
0.36678
0.437644
0.682294
0.364176
1.12683
0.576404
0.687793
0.690725
0.360915
0.694556
0.345395
0.673258
0.746653
0.706505
0.669911
0.618789
0.723952
0.685463
0.69987
0.352923
0.385511
0.34613
0.714348
0.583121
1.11865
0.362385
0.448052
0.703595
0.695606
0.811495
0.35835
0.688433
0.543652
0.546925
0.681725
0.352254
0.358908
0.411064
0.689394
0.671368
0.74208
0.686774
0.433344
0.689422
0.730738
0.672171
0.672534
0.689255
0.702859
0.686471
0.704598
0.704316
0.351715
0.697027
0.70018
0.689373
0.69704
0.690023
0.667471
0.362056
0.356245
0.684773
0.366774
0.368231
0.689195
0.352366
0.778067
0.69739
0.691389
0.692767
0.351665
0.688645
0.34724
0.350827
0.68647
0.697548
0.69471
0.346526
0.701437
0.691843
0.682714
0.690054
0.357893
0.690294
0.704973
0.695056
0.408354
0.708106
0.363835
0.695424
0.342115
0.362386
0.651252
0.47602
0.703485
0.706478
0.69347
0.348229
0.689351
0.428586
0.355931
0.687198
0.499745
0.365878
0.691983
0.374572
0.514074
0.712887
0.686819
0.689063
0.501717
0.568664
0.715034
0.694194
0.667633
0.703671
0.532168
0.689639
0.686744
0.717091
0.305601
0.361288
0.474235
0.699914
0.350951
0.718632
0.688474
0.661479
0.69442
0.630405
0.716641
0.704153
0.361291
0.687662
0.684764
0.623186
0.684876
0.704723
0.688835
0.686957
0.364864
0.347987
0.694978
0.597965
0.635314
0.698573
0.694848
0.69421
0.71603
0.712845
0.69786
0.684159
0.708682
0.359313
0.354202
0.357091
0.359691
1.12673
0.481713
0.627315
0.69804
0.704895
0.352249
0.693091
0.698237
0.345973
0.439841
1.12594
0.698093
0.352109
0.317308
0.348976
1.12683
0.690063
0.411322
0.360191
0.360692
0.37046
0.385673
0.367068
0.691361
0.694645
0.699518
0.352521
0.69151
0.675811
0.565234
0.383223
0.359327
0.686911
1.12686
0.365192
0.686699
0.364599
0.716882
0.351725
0.689459
0.3527
0.689699
0.702128
0.348786
0.548141
0.384049
0.705001
0.361014
0.681635
0.353424
0.524019
0.361335
0.673675
0.360593
0.750761
0.726308
0.597991
0.695721
0.3843
0.691144
0.686528
0.701567
0.673038
0.698105
0.359528
0.461945
0.347716
0.711953
0.406638
0.701151
0.543783
0.706996
0.703851
0.564698
0.702546
0.355097
0.351164
0.358282
0.526539
0.656016
0.694618
0.355895
0.367981
0.686642
0.461681
0.34584
0.664113
0.432667
0.365465
0.352254
0.695288
0.743543
0.685751
0.351414
0.690525
0.688922
0.330506
0.43529
0.689297
0.688651
0.672765
0.517508
0.471083
0.447265
0.348642
0.69039
0.682907
0.585688
0.711919
0.36815
0.637094
0.361905
0.960557
0.701308
0.36012
0.396166
0.684619
0.662552
0.702344
0.703961
0.706233
0.688257
0.703578
0.345385
0.35863
0.345335
0.360444
0.646374
1.0794
0.74481
0.360787
0.363197
0.487754
0.339334
0.694078
0.68665
0.364941
0.403787
0.697343
0.352124
0.713664
0.704318
0.688905
0.68738
0.646603
0.366166
0.351845
0.683034
0.36043
0.466304
0.421868
0.686351
0.689545
0.406879
0.36153
1.12702
0.359159
0.687052
0.714716
0.364235
0.34703
0.359002
0.696242
0.353995
1.12684
0.701806
0.66509
0.325197
0.529375
0.699466
0.690974
0.361193
0.691431
0.685798
0.344003
0.697889
0.689697
0.362853
0.36664
0.687745
0.359007
0.360155
0.691561
0.444696
0.693858
0.721024
0.720239
0.688901
0.701784
0.695408
0.687464
0.363005
0.466271
0.687419
0.695577
0.488568
0.705037
0.406285
0.698105
0.689151
0.63208
0.717039
0.461337
0.47969
0.693271
0.700451
0.686344
0.701979
0.696105
1.12676
0.698467
1.12698
0.690436
0.687602
0.689412
1.1269
0.689628
0.345598
0.687782
0.352219
0.687706
0.697302
0.704432
0.68675
0.709398
0.345719
0.349252
0.416843
0.361358
0.688643
0.354739
0.358863
0.704423
0.308961
0.704691
0.349455
0.691018
0.696445
0.366206
0.460973
0.364608
0.699881
0.348342
0.694335
0.69891
0.349108
0.686887
0.549793
0.371915
0.35306
0.332356
0.731205
0.366779
0.68759
0.629219
0.385569
0.690462
0.692523
0.706293
0.364583
0.64208
0.351707
0.691854
0.686854
0.687363
0.366574
0.695488
0.699078
0.685952
0.448114
0.699871
0.365666
0.363263
0.690031
0.477889
0.704882
0.449616
0.366096
0.475543
0.685341
0.352201
0.340891
0.342254
0.570195
1.12372
0.697811
0.357353
0.669157
0.695947
0.543537
0.48695
0.36169
0.550988
0.366508
0.361802
0.692439
0.363501
0.364574
0.696913
0.700992
0.344889
0.723084
0.344848
1.12652
0.354079
0.687746
0.814427
0.709838
0.689101
0.353093
0.362336
0.346708
0.686778
0.687763
0.566935
0.543275
0.455462
0.418561
0.69227
0.36316
0.694157
0.453972
0.755395
0.709896
0.350126
0.347878
0.363083
0.361551
0.349828
0.684039
0.689398
0.35298
0.696195
0.713495
0.386127
0.359835
0.701933
0.365835
0.696065
0.473195
0.708906
0.716459
0.695564
1.12394
0.350756
0.711373
0.688222
0.695161
0.366374
0.681856
0.563986
0.366907
0.699994
0.694961
0.689556
0.690398
0.703643
0.689995
0.69927
0.689505
0.691721
0.364252
0.706606
0.363074
0.496691
0.689939
0.347344
0.690385
0.683367
0.368157
0.685387
0.366446
0.343438
0.689952
0.68144
0.701376
0.364166
0.690137
0.687009
0.354012
0.35228
0.689685
0.688368
0.445595
0.344227
0.702189
0.70157
0.367409
0.714025
0.702692
0.752408
0.348411
0.36533
0.344464
0.717923
0.378763
0.69184
0.717309
0.692392
0.677605
0.696285
0.364292
0.688994
0.647884
0.702045
0.669216
0.348308
0.36247
0.36846
0.713899
0.698973
0.472044
0.716557
0.359369
0.696779
0.688878
0.365022
0.685274
0.692053
0.704502
0.351454
0.355346
0.360459
0.698637
0.704821
0.671292
0.517662
0.695906
0.364974
0.723939
1.12668
0.695686
0.350641
0.81484
0.369731
0.684232
0.368023
0.69376
0.690122
0.350896
0.698151
0.502619
1.12699
0.705017
1.12682
0.691599
0.456406
0.69237
0.693089
0.688424
0.694051
0.495423
1.12686
0.35817
0.693478
0.368451
0.359935
0.374725
0.349403
0.365984
0.35184
0.70328
0.450273
0.35752
0.707014
0.698424
0.689702
0.41651
0.708653
0.712033
0.68723
0.34482
0.671226
0.68862
0.362901
0.345828
0.362549
0.711341
0.511961
0.363944
0.670924
0.30912
1.12856
0.508886
0.355534
0.493457
0.719022
0.362227
0.68716
0.365458
0.606978
0.442249
0.690139
0.440026
0.703863
1.12686
0.682599
0.485828
0.362275
0.690303
0.702062
0.346922
0.34522
0.686753
0.36046
0.708117
0.352697
0.549072
0.367174
0.693547
0.357828
0.703032
0.359262
0.687896
0.696524
0.700293
1.12653
0.358627
0.352795
0.412702
0.690301
0.704284
0.685212
0.658778
0.365251
0.702405
0.362176
0.687598
0.678516
0.44399
0.379922
0.70507
0.693643
0.353717
0.984452
0.689432
0.704334
0.717263
0.366364
0.726428
0.363884
0.703536
0.379922
0.67046
0.686767
0.689957
0.702628
0.387014
0.69753
0.366142
0.358603
0.686958
1.12628
0.612258
0.694788
1.12687
0.365246
0.726073
0.690297
0.698073
0.345649
0.463879
0.710743
0.354031
0.698387
0.68812
0.690597
0.689522
0.398208
0.483117
0.725032
0.35212
0.688977
0.703706
0.502862
0.68984
0.402508
0.683589
0.725774
0.72339
0.690117
0.355772
0.349001
0.694806
0.690867
0.364093
0.39025
0.355077
0.352501
0.358531
0.34171
0.354166
0.366959
0.694763
0.367826
0.347883
0.70189
0.614361
1.12696
0.449303
0.36197
0.696157
0.492766
0.587156
0.705323
0.436255
0.724574
0.682786
0.665576
0.691695
0.347425
0.697761
0.674676
0.347398
0.363195
0.447166
0.683106
0.667197
0.703896
0.686711
0.696089
0.692681
0.384252
0.697514
0.682213
0.690443
0.362803
0.696364
0.674535
0.380796
0.466653
0.357894
0.354331
0.36058
0.652647
0.712844
0.695512
0.362083
0.465207
0.702411
0.334722
0.699143
0.693214
0.690674
0.727721
0.695339
0.361334
0.353128
0.329011
0.643226
0.37731
0.69445
0.328171
0.686808
0.686719
0.696658
0.358083
0.480055
0.454187
0.696411
0.341982
0.362472
0.689456
0.691498
0.68952
0.686715
0.690072
0.707899
0.366893
0.795636
0.70316
0.52735
0.69602
0.70068
0.706847
0.483557
0.470393
0.697617
0.507645
0.686205
0.364342
0.689292
0.690314
0.409375
0.378571
0.69161
0.525764
0.701218
0.699438
0.366856
0.358969
1.1078
0.482177
0.42506
0.690001
0.689625
0.3727
0.690865
1.10126
0.687156
0.367778
0.652637
0.366411
0.689678
0.701109
0.707771
0.6953
1.07798
0.402741
0.405031
0.697561
0.364187
0.582368
0.382124
0.695991
0.358291
0.710181
0.703193
1.11849
0.366634
1.12683
1.12521
0.361557
0.689614
0.329137
0.696006
0.365861
0.351565
0.359134
0.699821
0.690778
0.432902
0.413285
0.68896
0.703426
0.483262
0.726124
0.365897
0.575583
0.36139
0.696627
0.361736