# vtk DataFile Version 1.0
unstructured grid
ascii
DATASET UNSTRUCTURED_GRID
points 13672 float
0.0796578 -0.059106 0
0.00128732 0.00159165 0
0.00227961 -0.00102548 0
0.0791586 -0.0598787 0
-0.0546216 0.01 0
0.000495206 0.025 0
0.0800549 -0.035 0
0.135172 -0.08 0
-0.0546216 -0.0451168 0
0.000495206 -0.0301168 0
0.0800549 -0.0901168 0
0.135172 -0.135117 0
-0.0546216 -0.0451168 -0.00551168
0.000495206 -0.0301168 -0.00551168
0.0800549 -0.0901168 -0.00551168
0.135172 -0.135117 -0.00551168
0.135172 -0.08 -0.00551168
0.0800549 -0.035 -0.00551168
0.000495206 0.025 -0.00551168
-0.0546216 0.01 -0.00551168
0.00128732 0.00159165 -0.00551168
0.00227961 -0.00102548 -0.00551168
0.0791586 -0.0598787 -0.00551168
0.0796578 -0.059106 -0.00551168
0.00165953 -0.000990923 0
0.00119576 -0.000874076 0
0.000866021 -0.000641801 0
0.000645147 -0.000349912 0
0.00052235 -1.7281e-05 0
0.00049972 0.000348016 0
0.000601632 0.000737716 0
0.000861774 0.0011403 0
0.00157235 0.00183217 0
0.00188647 0.00206725 0
0.00222612 0.00230203 0
0.00258713 0.00254351 0
0.00296826 0.00279524 0
0.00337118 0.00305664 0
0.00379785 0.00332658 0
0.00425045 0.00360349 0
0.00473139 0.00388521 0
0.0052432 0.00416895 0
0.0057881 0.00445204 0
0.00636753 0.00473281 0
0.00698281 0.00500961 0
0.00763526 0.00528058 0
0.00832616 0.00554366 0
0.00905691 0.00579603 0
0.00982918 0.00603333 0
0.0106445 0.00625033 0
0.0115038 0.00644128 0
0.0124073 0.00660297 0
0.0133543 0.00673414 0
0.0143444 0.00683382 0
0.0153769 0.00690031 0
0.0164512 0.00693173 0
0.0175666 0.00692547 0
0.0187219 0.00687822 0
0.0199156 0.00678477 0
0.0211454 0.00663864 0
0.0224084 0.00643275 0
0.0237018 0.00616676 0
0.0250249 0.00584739 0
0.026375 0.00547298 0
0.0277479 0.00503752 0
0.0291386 0.00453545 0
0.0305433 0.0039653 0
0.0319572 0.0033256 0
0.0333681 0.00260019 0
0.034775 0.00179799 0
0.0361793 0.000930615 0
0.0375798 3.12222e-06 0
0.0389689 -0.000988429 0
0.0403357 -0.00205109 0
0.041675 -0.00318283 0
0.0429849 -0.00437751 0
0.0442643 -0.00562904 0
0.0455126 -0.00693089 0
0.0467314 -0.00827518 0
0.0479204 -0.00965638 0
0.0490661 -0.0110799 0
0.0501515 -0.0125519 0
0.0511696 -0.0140695 0
0.0521492 -0.0156071 0
0.0531202 -0.0171411 0
0.0540851 -0.0186663 0
0.0550431 -0.0201798 0
0.0559923 -0.0216793 0
0.0569311 -0.0231626 0
0.0578582 -0.0246273 0
0.0587723 -0.0260715 0
0.0596721 -0.027493 0
0.0605563 -0.02889 0
0.0614241 -0.0302609 0
0.0622742 -0.0316042 0
0.063106 -0.0329183 0
0.0639186 -0.034202 0
0.0647113 -0.0354543 0
0.0654835 -0.0366743 0
0.0662345 -0.0378613 0
0.0669642 -0.0390145 0
0.0676726 -0.0401333 0
0.0683597 -0.0412172 0
0.0690246 -0.0422665 0
0.0696662 -0.0432819 0
0.0702841 -0.0442636 0
0.0708793 -0.0452111 0
0.0714538 -0.0461237 0
0.072009 -0.047001 0
0.0725452 -0.0478434 0
0.0730611 -0.0486524 0
0.073556 -0.0494294 0
0.0740291 -0.0501756 0
0.0744812 -0.0508916 0
0.0749138 -0.0515773 0
0.0753285 -0.0522331 0
0.0757266 -0.0528592 0
0.076109 -0.0534564 0
0.0764753 -0.0540264 0
0.0768243 -0.054571 0
0.0771553 -0.0550919 0
0.0774679 -0.0555901 0
0.0777617 -0.0560669 0
0.0780369 -0.056523 0
0.0782958 -0.0569578 0
0.0785421 -0.0573703 0
0.0787786 -0.0577603 0
0.0790073 -0.0581279 0
0.0792295 -0.058474 0
0.0794462 -0.0587995 0
0.0798803 -0.0594162 0
0.0800272 -0.0596588 0
0.0800357 -0.0598891 0
0.0799275 -0.0600784 0
0.0797205 -0.0601773 0
0.0794593 -0.0601051 0
0.0789155 -0.0596491 0
0.0786707 -0.0593963 0
0.0784111 -0.0591319 0
0.0781372 -0.0588542 0
0.0778566 -0.0585548 0
0.0775715 -0.0582308 0
0.0772803 -0.0578828 0
0.0769832 -0.0575099 0
0.0766822 -0.0571097 0
0.0763801 -0.0566796 0
0.0760759 -0.0562196 0
0.0757623 -0.0557337 0
0.0754359 -0.0552232 0
0.0750951 -0.0546879 0
0.0747379 -0.054128 0
0.0743626 -0.0535435 0
0.0739688 -0.0529338 0
0.0735559 -0.0522981 0
0.0731238 -0.0516357 0
0.0726718 -0.050946 0
0.0721991 -0.0502288 0
0.0717046 -0.049484 0
0.0711872 -0.0487117 0
0.0706461 -0.047912 0
0.0700804 -0.0470849 0
0.0694892 -0.0462308 0
0.0688718 -0.0453499 0
0.0682271 -0.0444431 0
0.0675544 -0.043511 0
0.0668527 -0.0425546 0
0.0661215 -0.0415748 0
0.06536 -0.040573 0
0.0645676 -0.0395504 0
0.0637439 -0.0385087 0
0.0628887 -0.0374493 0
0.062002 -0.0363741 0
0.0610838 -0.0352847 0
0.0601345 -0.0341831 0
0.0591547 -0.033071 0
0.0581456 -0.0319502 0
0.0571083 -0.0308224 0
0.0560444 -0.0296893 0
0.0549562 -0.028552 0
0.053845 -0.0274126 0
0.0527113 -0.0262746 0
0.051554 -0.0251427 0
0.0503724 -0.0240222 0
0.0491675 -0.0229164 0
0.047941 -0.0218282 0
0.0466955 -0.0207597 0
0.0454337 -0.0197126 0
0.0441592 -0.0186878 0
0.0428751 -0.0176863 0
0.0415841 -0.0167097 0
0.0402878 -0.0157609 0
0.0389879 -0.0148428 0
0.0376864 -0.0139575 0
0.0363853 -0.013107 0
0.0350871 -0.0122931 0
0.0337942 -0.0115164 0
0.0325095 -0.0107772 0
0.0312357 -0.0100756 0
0.0299758 -0.00941024 0
0.0287337 -0.00877784 0
0.0275126 -0.00817571 0
0.0263139 -0.00760375 0
0.0251376 -0.00706528 0
0.0239829 -0.0065649 0
0.0228537 -0.00609619 0
0.0217522 -0.00565563 0
0.0206795 -0.00524226 0
0.0196364 -0.00485507 0
0.0186233 -0.00449318 0
0.0176408 -0.00415577 0
0.016689 -0.00384204 0
0.0157682 -0.00355115 0
0.0148783 -0.00328218 0
0.0140192 -0.00303468 0
0.0131906 -0.00280795 0
0.0123925 -0.00260016 0
0.0116246 -0.00241012 0
0.0108864 -0.00223769 0
0.0101774 -0.00208212 0
0.00949701 -0.00194206 0
0.00884483 -0.0018163 0
0.0082202 -0.0017039 0
0.00762247 -0.00160391 0
0.00705097 -0.00151528 0
0.006505 -0.00143697 0
0.0059838 -0.00136806 0
0.00548662 -0.00130772 0
0.00501265 -0.00125519 0
0.00456114 -0.00120954 0
0.00413136 -0.00116914 0
0.00372257 -0.00113251 0
0.00333398 -0.00109853 0
0.00296466 -0.00106798 0
0.00261363 -0.0010431 0
-0.052721 -0.0445996 0
-0.0508204 -0.0440823 0
-0.0489199 -0.0435651 0
-0.0470193 -0.0430478 0
-0.0451187 -0.0425306 0
-0.0432181 -0.0420134 0
-0.0413175 -0.0414961 0
-0.039417 -0.0409789 0
-0.0375164 -0.0404616 0
-0.0356158 -0.0399444 0
-0.0337152 -0.0394271 0
-0.0318146 -0.0389099 0
-0.0299141 -0.0383927 0
-0.0280135 -0.0378754 0
-0.0261129 -0.0373582 0
-0.0242123 -0.0368409 0
-0.0223117 -0.0363237 0
-0.0204112 -0.0358065 0
-0.0185106 -0.0352892 0
-0.01661 -0.034772 0
-0.0147094 -0.0342547 0
-0.0128088 -0.0337375 0
-0.0109083 -0.0332202 0
-0.00900769 -0.032703 0
-0.00710711 -0.0321858 0
-0.00520653 -0.0316685 0
-0.00330595 -0.0311513 0
-0.00140537 -0.030634 0
0.00190689 -0.0299614 0
0.00332271 -0.0298498 0
0.00474133 -0.0297825 0
0.00616136 -0.0297597 0
0.0075814 -0.0297814 0
0.00900007 -0.0298477 0
0.010416 -0.0299583 0
0.0118278 -0.0301127 0
0.0132342 -0.0303103 0
0.0146339 -0.0305504 0
0.0160259 -0.0308322 0
0.0174091 -0.0311546 0
0.0187824 -0.0315166 0
0.020145 -0.031917 0
0.0214961 -0.0323546 0
0.0228351 -0.032828 0
0.0241613 -0.0333361 0
0.0254744 -0.0338774 0
0.0267738 -0.0344507 0
0.0280592 -0.0350545 0
0.0293306 -0.0356877 0
0.0305875 -0.0363488 0
0.0318301 -0.0370367 0
0.0330581 -0.0377501 0
0.0342717 -0.0384879 0
0.0354708 -0.0392489 0
0.0366556 -0.0400321 0
0.0378262 -0.0408363 0
0.0389828 -0.0416607 0
0.0401254 -0.0425042 0
0.0412543 -0.0433659 0
0.0423698 -0.0442451 0
0.043472 -0.0451408 0
0.0445612 -0.0460523 0
0.0456375 -0.0469789 0
0.0467013 -0.0479199 0
0.0477529 -0.0488746 0
0.0487923 -0.0498424 0
0.04982 -0.0508227 0
0.0508362 -0.051815 0
0.051841 -0.0528187 0
0.0528348 -0.0538333 0
0.0538178 -0.0548584 0
0.0547903 -0.0558935 0
0.0557524 -0.0569382 0
0.0567045 -0.0579922 0
0.0576467 -0.0590549 0
0.0585792 -0.0601261 0
0.0595024 -0.0612055 0
0.0604163 -0.0622926 0
0.0613212 -0.0633873 0
0.0622174 -0.0644891 0
0.0631049 -0.0655979 0
0.0639841 -0.0667134 0
0.064855 -0.0678353 0
0.0657179 -0.0689633 0
0.0665729 -0.0700974 0
0.0674202 -0.0712372 0
0.06826 -0.0723826 0
0.0690925 -0.0735333 0
0.0699178 -0.0746892 0
0.070736 -0.0758501 0
0.0715473 -0.0770159 0
0.0723518 -0.0781863 0
0.0731498 -0.0793612 0
0.0739412 -0.0805405 0
0.0747264 -0.081724 0
0.0755053 -0.0829116 0
0.0762781 -0.0841033 0
0.0770449 -0.0852987 0
0.0778059 -0.0864979 0
0.0785611 -0.0877007 0
0.0793108 -0.088907 0
0.0814681 -0.0912706 0
0.0828814 -0.0924245 0
0.0842946 -0.0935783 0
0.0857079 -0.0947322 0
0.0871211 -0.095886 0
0.0885344 -0.0970399 0
0.0899476 -0.0981937 0
0.0913609 -0.0993476 0
0.0927741 -0.100501 0
0.0941874 -0.101655 0
0.0956006 -0.102809 0
0.0970139 -0.103963 0
0.0984272 -0.105117 0
0.0998404 -0.106271 0
0.101254 -0.107424 0
0.102667 -0.108578 0
0.10408 -0.109732 0
0.105493 -0.110886 0
0.106907 -0.11204 0
0.10832 -0.113194 0
0.109733 -0.114348 0
0.111146 -0.115501 0
0.11256 -0.116655 0
0.113973 -0.117809 0
0.115386 -0.118963 0
0.116799 -0.120117 0
0.118213 -0.121271 0
0.119626 -0.122424 0
0.121039 -0.123578 0
0.122452 -0.124732 0
0.123866 -0.125886 0
0.125279 -0.12704 0
0.126692 -0.128194 0
0.128105 -0.129348 0
0.129519 -0.130501 0
0.130932 -0.131655 0
0.132345 -0.132809 0
0.133758 -0.133963 0
0.135172 -0.133216 0
0.135172 -0.131316 0
0.135172 -0.129415 0
0.135172 -0.127514 0
0.135172 -0.125614 0
0.135172 -0.123713 0
0.135172 -0.121813 0
0.135172 -0.119912 0
0.135172 -0.118012 0
0.135172 -0.116111 0
0.135172 -0.11421 0
0.135172 -0.11231 0
0.135172 -0.110409 0
0.135172 -0.108509 0
0.135172 -0.106608 0
0.135172 -0.104708 0
0.135172 -0.102807 0
0.135172 -0.100906 0
0.135172 -0.0990058 0
0.135172 -0.0971052 0
0.135172 -0.0952046 0
0.135172 -0.0933041 0
0.135172 -0.0914035 0
0.135172 -0.0895029 0
0.135172 -0.0876023 0
0.135172 -0.0857017 0
0.135172 -0.0838012 0
0.135172 -0.0819006 0
0.133758 -0.0788462 0
0.132345 -0.0776923 0
0.130932 -0.0765385 0
0.129519 -0.0753846 0
0.128105 -0.0742308 0
0.126692 -0.0730769 0
0.125279 -0.0719231 0
0.123866 -0.0707692 0
0.122452 -0.0696154 0
0.121039 -0.0684615 0
0.119626 -0.0673077 0
0.118213 -0.0661538 0
0.116799 -0.065 0
0.115386 -0.0638462 0
0.113973 -0.0626923 0
0.11256 -0.0615385 0
0.111146 -0.0603846 0
0.109733 -0.0592308 0
0.10832 -0.0580769 0
0.106907 -0.0569231 0
0.105493 -0.0557692 0
0.10408 -0.0546154 0
0.102667 -0.0534615 0
0.101254 -0.0523077 0
0.0998404 -0.0511538 0
0.0984272 -0.05 0
0.0970139 -0.0488462 0
0.0956006 -0.0476923 0
[...]
CELL_DATA 13116
SCALARS rho float
LOOKUP_TABLE default
0.623696
0.69342
0.334998
0.703798
0.708684
0.68654
0.350392
0.703026
0.566755
0.707169
0.353895
0.299328
0.708272
0.347783
0.330616
0.686912
0.625554
0.71251
0.692254
0.354445
0.616998
0.338248
0.336556
0.711468
0.709992
0.69736
0.707164
0.337905
0.741591
0.715923
1.11381
0.315316
0.589327
0.475255
0.345733
0.620862
0.703149
0.692534
0.677966
0.700013
0.69176
0.703135
0.506318
0.335139
0.691892
0.692245
0.692011
0.693283
0.338276
0.551059
0.703001
0.500293
0.353652
0.619447
0.589465
0.651901
0.335902
0.713742
0.562055
0.333647
0.346052
0.705884
0.69381
0.666461
1.06741
0.346831
0.695062
0.716157
0.694017
0.962344
0.33041
0.609248
0.338511
0.341478
1.13657
0.335596
0.69702
0.696098
0.358815
0.713152
0.70149
0.696364
0.711832
0.693695
0.69158
0.436493
0.353594
0.721721
0.69467
0.363653
0.318406
0.693569
0.711708
0.701418
0.706941
0.686684
0.713102
1.13398
1.13984
0.725374
0.717305
0.688328
0.691485
0.420476
0.690534
0.311645
0.395807
0.539825
0.335306
0.720527
0.563829
0.691705
0.683898
0.713841
0.712907
0.697138
0.35264
0.402153
0.695882
0.699202
0.718623
0.341446
0.694013
0.318241
0.700906
0.43155
0.353571
0.529141
0.335826
0.550478
0.695951
0.696408
0.47017
0.338128
0.454673
0.676705
1.12886
0.695003
0.71735
0.699649
0.695763
0.692313
0.530534
0.695581
0.693978
0.333163
0.345334
0.695693
0.711244
0.702449
0.560692
0.693401
0.693272
0.340786
0.709717
0.691387
0.333177
0.716058
1.12742
0.720947
0.711915
0.356385
0.713828
0.334295
0.342081
0.706069
0.699794
0.712647
0.34713
0.443553
0.420795
1.12788
0.330516
0.515426
0.697712
0.335509
0.332262
0.338535
0.691409
0.692609
0.352621
0.426733
0.585203
0.703446
0.692574
0.562432
0.344162
0.690105
0.689663
0.469276
0.699966
0.695089
0.87619
0.32917
0.692208
0.69431
0.710688
0.690357
0.693596
0.381134
0.424686
0.718521
0.523801
0.341353
0.696903
0.693209
0.508074
0.69563
0.329116
0.35219
0.336679
0.694673
0.332488
0.357259
0.360776
0.34014
0.392145
0.679315
0.700463
0.429406
0.336691
0.694961
0.559043
0.352662
0.552712
0.70662
0.693994
0.338425
0.696974
0.411098
0.703966
0.31709
0.884269
0.599818
1.13589
0.693905
0.770829
0.339841
0.427752
0.720925
1.13283
0.693916
1.13123
0.72673
0.702868
0.333003
0.696937
0.708804
1.13585
0.346218
0.339394
0.693171
0.695519
1.00721
0.695177
0.616847
0.71689
0.355488
0.345783
0.387689
0.328445
0.689632
0.710988
0.696631
0.355521
0.691217
0.346314
0.427131
0.690755
0.344963
0.696841
0.703414
1.12806
0.714175
0.339031
1.1272
0.707218
1.13524
0.694962
0.358827
0.352335
0.330296
0.672947
0.340301
0.343029
0.383575
0.364833
0.692201
0.348984
0.692062
0.705991
0.347931
0.353132
0.347097
0.436982
0.338171
0.722141
0.687936
0.691083
0.345743
0.69374
0.665007
0.340746
0.333341
0.684187
0.695321
0.690292
0.343779
0.694426
0.432795
0.696227
0.703091
0.70191
0.703109
0.329808
0.695742
0.33418
0.689893
0.705456
0.719404
0.359297
0.380779
0.708191
0.348293
0.693237
0.705855
0.364911
0.71468
0.711939
0.349174
0.691412
0.711735
0.339507
0.69588
0.43345
0.587236
0.703279
0.438734
0.715835
0.354952
0.712947
0.385128
0.678828
0.686612
0.709651
0.337273
0.393782
0.691489
0.340868
0.697098
0.689978
0.422052
1.12658
0.343052
0.333987
0.696376
0.574181
0.709257
0.352064
0.333638
0.697528
0.706107
0.346453
0.703554
0.350108
0.322203
0.6992
0.703232
0.553103
0.366498
0.695212
1.09332
0.688964
0.691516
0.710534
0.563409
0.349506
0.329615
0.352902
0.689755
0.353199
0.585914
0.36834
0.32597
0.390879
0.558961
0.14405
0.341888
0.691705
0.315483
0.713651
0.739482
0.69251
0.72417
0.697042
0.334574
0.352232
0.386899
0.353752
0.696913
0.677667
0.691838
0.737976
0.694279
0.701202
0.695766
0.698638
0.71435
0.701397
0.713179
0.686612
0.391081
0.507537
0.619891
0.335689
0.686842
0.648524
0.354283
0.6969
1.13107
0.3303
0.356771
0.360725
0.344942
0.717011
0.334571
0.329485
0.694885
0.34529
0.600202
0.36225
0.689761
0.700195
0.340181
0.337589
0.69649
0.436925
0.362995
0.345548
0.362523
0.334952
0.351441
0.356864
0.342658
0.428895
0.360636
0.687664
0.344831
0.692015
0.365464
0.317358
0.478718
0.313137
0.363411
0.311857
0.691478
0.428687
0.717651
0.551723
0.346509
0.69735
0.694569
0.433913
0.714723
0.70066
0.700048
0.350451
1.13403
0.40468
0.714336
1.13209
0.33311
0.34539
0.689512
0.354955
0.437312
0.687765
0.394192
0.716109
0.693939
0.352409
0.331116
0.331393
0.51003
0.332504
0.346274
0.330341
0.335391
0.704917
0.704727
0.440165
0.726403
0.455224
0.691266
0.38464
0.335027
0.57189
0.333338
0.694808
0.352263
0.398771
0.467977
0.691881
0.698748
0.586019
0.362994
0.34665
0.527985
0.702962
0.79
0.522973
0.691096
0.689633
0.360955
0.700296
0.597294
0.720961
0.370835
0.338262
0.713078
0.710965
0.724495
0.706548
0.692972
0.698527
0.712647
0.719855
0.69238
0.35577
0.691788
0.388771
0.330235
0.358784
0.704154
0.693217
0.375561
0.691667
0.717176
0.359425
0.681537
0.695169
0.699545
0.337657
0.336066
0.696636
0.363943
0.362459
0.289616
0.36103
0.694678
0.342411
0.703392
0.344027
0.693469
0.702394
0.694422
0.706781
0.364366
0.353734
0.693777
0.704362
0.701695
0.70511
0.709085
0.470982
0.349308
0.333897
0.693451
0.56279
0.360488
0.438795
0.325698
0.702473
0.689892
0.371078
0.339724
0.692555
0.443054
0.69172
0.721076
0.335908
0.409888
0.700487
1.13346
0.334073
0.697958
0.70003
0.693472
0.336285
1.13008
0.337586
1.13605
0.721655
0.366852
0.388965
0.342722
1.13654
0.335792
0.35774
0.403682
0.664167
0.698968
0.357997
0.342644
0.362136
0.678804
0.339745
0.693708
0.33819
0.656226
0.70662
0.367832
0.33483
0.335908
0.473167
0.334389
0.698047
0.342381
0.332496
0.68987
0.336672
0.695067
0.693089
1.1347
0.3579
0.694748
0.712473
0.710965
0.693478
0.702081
0.698685
0.306766
0.901155
0.432216
0.694044
0.357724
0.702838
0.541138
0.346338
1.11287
0.710428
0.339096
0.701349
0.319264
0.330217
0.694744
0.690539
0.323471
0.32034
0.358518
0.293415
0.702535
0.711358
0.336827
0.350765
0.697133
0.695689
0.690249
0.712731
0.68968
0.356353
0.709379
0.424145
0.702766
0.40243
0.683516
0.458745
0.695334
0.709557
0.595335
0.381016
0.336704
0.690578
0.745739
0.61227
0.713049
0.329476
0.700397
0.710233
0.410912
0.504863
0.712196
0.365846
1.03974
0.720228
0.377723
0.698946
0.708002
0.335335
0.699361
0.330183
0.693112
0.334691
0.694746
0.693758
0.336523
0.673344
0.713583
0.69591
0.715665
0.698225
0.626744
0.354913
0.425693
0.314875
0.342426
1.12677
0.56664
0.694485
0.710627
0.355224
0.347451
0.698634
0.706186
0.696715
0.703293
0.358287
0.712804
0.708801
0.354891
0.312479
0.696037
0.693035
0.692768
0.29402
0.691702
0.340664
0.699427
0.692775
0.848166
0.693648
0.360681
0.695538
0.691849
0.711878
0.690742
0.691725
0.431069
0.707193
0.351486
0.692151
0.707815
0.441855
0.693857
0.74331
0.702058
0.44603
0.409742
0.63847
0.72564
0.363577
0.367114
0.344371
0.360478
0.694258
0.700687
0.75347
0.365949
0.359428
0.694018
0.716523
0.342703
0.348748
0.444552
0.702256
0.690351
0.691536
0.715992
0.353028
0.363721
1.12622
0.31728
0.356851
0.340946
0.690584
0.34031
0.364573
0.626709
0.694072
0.691123
0.687409
0.690127
0.351028
0.332155
0.345528
0.561167
0.430773
0.318498
0.712379
0.71607
0.692528
0.692865
0.305218
0.35932
0.706727
0.360557
0.691686
0.693554
1.11705
0.323745
0.362524
0.69296
1.11036
0.651085
0.34225
0.691609
0.688883
0.618114
0.702327
0.703033
1.12613
0.691096
0.358206
0.690108
1.04324
0.694909
0.699253
1.12671
0.691671
1.13471
0.694876
0.332926
0.329788
0.359705
1.09507
0.544864
0.360865
0.698275
0.697134
0.299446
0.704355
0.341243
0.701356
0.546422
0.341033
0.705921
0.71167
0.360725
0.514347
1.08893
0.337292
0.701515
0.346894
0.31562
0.699246
0.715557
0.477178
0.691578
0.343537
0.714021
0.330607
0.30927
0.695066
0.360483
0.691222
0.325458
0.702941
0.690725
1.1321
0.699108
0.330556
0.331751
0.690543
0.513577
0.696761
0.490462
0.672225
0.687415
0.711767
0.520367
0.724101
0.691558
0.71026
0.69507
0.389213
0.366078
0.532862
0.691957
0.710156
0.381506
0.691357
0.65395
0.385542
0.324246
0.718694
0.702719
1.13323
1.13699
0.688239
0.706348
0.677312
0.702516
0.32306
0.723944
0.441797
0.699585
0.692904
0.367836
0.702044
0.706082
0.330121
0.336333
0.347994
1.12667
0.357452
0.6989
0.699724
0.722975
0.356056
0.692468
0.342772
0.708026
0.670466
0.827236
0.712368
0.676758
0.71644
0.701021
0.566702
0.694008
0.334938
0.691153
0.694333
0.498811
1.13607
0.700065
0.330421
0.329616
0.336691
0.701853
0.367019
1.13624
0.345661
0.702871
0.343994
0.46044
0.324673
0.714316
0.703493
0.614744
0.346979
0.714526
0.68699
0.350026
0.670677
0.704789
0.317149
0.664868
1.13338
0.706849
0.691827
0.332569
0.537158
0.697095
0.69244
0.692531
0.365519
0.406284
0.691641
1.1268
1.13282
1.12717
0.605262
0.696482
0.600312
0.6998
0.36536
0.341341
1.12806
0.708584
0.669952
0.345996
0.691128
0.622411
0.685854
0.333011
0.421831
0.704074
0.702878
0.583753
0.351934
0.692427
1.13633
0.349901
0.716453
0.716054
0.348624
0.316867
0.332885
0.689787
0.341364
0.356213
0.691533
0.496558
0.70967
0.704877
0.34774
0.350208
0.705079
0.329989
0.334259
1.11107
0.315281
0.385938
0.677463
0.701954
0.695458
0.358889
0.343544
0.350915
0.693397
0.31246
0.695252
0.334973
0.697791
0.699337
0.691697
0.691402
0.695941
0.692552
0.690253
0.706623
0.695419
0.344297
0.347978
0.695316
0.681354
0.484598
0.690419
0.587874
0.671926
0.693851
0.339646
0.698727
0.70523
0.693654
0.344735
0.695725
0.339025
0.693953
0.473693
0.713508
0.693368
0.341821
0.696971
0.361402
0.46647
0.693861
0.339865
0.715951
1.12666
0.702758
0.344083
0.695016
0.359265
0.32148
0.325994
0.360295
0.690987
0.330986
0.696492
0.704053
0.353182
0.32942
0.465751
0.596936
0.707923
0.693186
0.357672
0.348309
0.34809
0.327738
0.342413
0.705732
0.693117
0.338315
0.674902
0.698652
0.33426
0.705028
0.7168
0.676292
0.346755
1.13775
0.698189
0.704902
0.70183
0.33237
0.696048
0.707621
0.695804
0.718425
0.690765
0.345271
0.326509
0.693292
0.505711
0.364304
0.695045
0.330803
0.58912
0.702018
0.693221
0.693193
0.32096
0.690188
0.384789
0.344237
0.714664
0.696067
0.713049
0.695837
0.703942
0.32179
0.707674
0.332728
0.482591
0.70605
1.13966
0.696974
0.345784
0.338718
0.708136
0.354397
0.696775
0.720702
0.42478
0.35149
0.699882
0.325255
0.693173
0.696945
0.700748
0.325566
0.329763
0.519809
0.561945
0.701361
0.483109
0.6902
0.693007
0.691281
1.12684
0.698367
0.352989
0.349417
0.695955
0.690954
0.692054
0.442173
0.342302
0.700386
0.330907
0.689814
0.71907
0.348027
0.696733
0.360104
0.700637
0.335068
0.711474
0.337998
0.694415
0.692836
0.311752
0.701228
0.725103
0.316409
0.760121
0.691741
0.588648
0.32346
0.378329
0.480388
0.712231
0.689717
0.347519
0.676079
0.698661
0.689192
0.35744
0.693422
0.692327
0.440859
0.690205
0.689558
0.368511
0.695303
1.13013
0.334581
0.683967
0.34608
0.699188
0.343266
0.321869
0.711303
0.35815
0.362516
0.33132
0.694995
0.693235
0.396548
0.692436
0.379444
0.698323
0.360195
0.692653
0.370866
0.687622
0.693384
0.698922
0.770415
0.515051
0.693087
0.681385
0.337336
0.719898
0.700949
0.579628
0.698137
0.471883
0.412403
0.70788
0.350625
0.600121
0.342003
0.691669
0.346742
0.328969
0.711828
0.690016
0.353075
0.699332
0.715872
1.12679
0.703146
1.13661
0.358573
0.705115
0.355839
0.333064
0.699517
0.715374
0.702942
0.691843
0.316944
0.342291
0.350605
0.693302
0.718608
0.377898
0.702564
0.347945
0.343005
0.334739
0.693234
0.403162
0.707191
0.695749
0.718689
0.690505
0.69514
0.62866
0.696232
0.431374
0.316346
0.353508
1.13668
1.13736
0.34576
0.704304
0.688611
0.696801
0.33273
0.455594
0.69322
0.327902
0.692935
0.689421
0.357019
0.685272
0.694593
0.361001
0.69512
0.335563
0.694404
0.708503
0.695813
0.330861
0.451938
0.71673
0.37283
0.436843
0.690847
0.375853
0.690177
0.694855
0.696441
0.715369
0.351458
1.11757
0.714942
0.692338
0.39948
0.697095
0.332727
0.337706
0.691956
0.690339
0.704194
0.285261
0.693807
0.717733
1.13643
0.348294
0.351229
0.363928
0.696738
0.350687
0.335875
0.334338
0.688066
0.334772
0.366724
0.435069
0.694929
0.359242
0.797787
0.679934
0.698958
0.343667
0.694483
0.723413
0.685518
0.423537
0.719088
0.34389
0.350472
0.695022
0.353284
0.703241
0.699297
1.13049
0.358133
0.381488
0.33999
0.555689
1.13062
0.288747
0.692597
0.694921
0.714834
0.356242
0.332093
0.387782
0.689422
0.361256
1.12674
0.733464
0.688414
0.691664
0.359225
0.703009
0.311777
0.684566
0.721424
0.706256
0.681244
0.585496
0.719849
0.692356
0.696839
0.347107
0.36452
0.343433
0.713574
0.567873
1.13891
0.35816
0.411185
0.712858
0.694614
0.940087
0.353721
0.699833
0.563089
0.585034
0.689907
0.33422
0.354305
0.369505
0.690368
0.707066
0.718404
0.690865
0.387297
0.70283
0.721811
0.701451
0.718247
0.702562
0.705367
0.69339
0.712829
0.713428
0.333035
0.694817
0.696542
0.690312
0.69513
0.690446
0.670935
0.358645
0.311045
0.693643
0.364459
0.351745
0.699905
0.330385
0.717608
0.69414
0.693156
0.693566
0.331466
0.700913
0.326248
0.34497
0.693709
0.696138
0.69312
0.342819
0.702573
0.691708
0.691516
0.690183
0.335631
0.690574
0.70785
0.695777
0.3824
0.713059
0.35198
0.70292
0.33789
0.358878
0.627116
0.438673
0.706055
0.71377
0.691969
0.333321
0.690628
0.398889
0.33028
0.693743
0.468255
0.364252
0.691687
0.329688
0.492044
0.721199
0.692766
0.692846
0.469283
0.750801
0.720099
0.692765
0.670967
0.712799
0.515463
0.702472
0.690689
0.719138
0.29337
0.358695
0.436692
0.695314
0.330741
0.721309
0.699288
0.693272
0.692938
0.60006
0.71605
0.702361
0.346874
0.699726
0.689791
0.59128
0.690101
0.708028
0.698333
0.687025
0.355629
0.331163
0.694116
0.573071
0.607035
0.6953
0.693984
0.692738
0.710871
0.709114
0.702805
0.692411
0.706055
0.333087
0.318287
0.346069
0.344665
1.13291
0.443325
0.596288
0.696578
0.703603
0.333179
0.693873
0.703573
0.34281
0.401361
1.13697
0.695196
0.334544
0.30075
0.282337
1.12685
0.69756
0.385092
0.351891
0.356413
0.325235
0.361612
0.365752
0.703631
0.693313
0.69857
0.346209
0.692929
0.693463
0.725644
0.356297
0.35627
0.694289
1.12907
0.363085
0.689274
0.360774
0.712075
0.333089
0.6984
0.348269
0.692071
0.704748
0.343884
0.583948
0.352236
0.704859
0.312664
0.696781
0.331397
0.536321
0.343607
0.68983
0.350614
0.880942
0.841363
0.726425
0.695855
0.357439
0.692764
0.685727
0.703498
0.69174
0.69875
0.356246
0.449735
0.344888
0.711888
0.353408
0.705972
0.572401
0.715676
0.706851
0.540063
0.704752
0.330032
0.346626
0.333253
0.535322
0.634224
0.693957
0.346355
0.341156
0.69501
0.413236
0.32453
0.658967
0.395854
0.363777
0.314127
0.703029
0.722608
0.698308
0.338195
0.693053
0.69029
0.311115
0.383053
0.69171
0.690102
0.684714
0.496235
0.426031
0.399961
0.341791
0.702686
0.692054
0.562851
0.715476
0.330826
0.61581
0.359877
1.06393
0.704359
0.356479
0.352605
0.692725
0.653562
0.705877
0.713302
0.711809
0.701037
0.706444
0.339493
0.337034
0.342175
0.358595
0.620986
1.1245
0.722472
0.358675
0.357113
0.486806
0.315295
0.692692
0.693081
0.362018
0.36848
0.694289
0.334373
0.717088
0.714092
0.693356
0.69041
0.624639
0.362266
0.348238
0.691226
0.356679
0.441758
0.392739
0.681397
0.690217
0.360497
0.357554
1.12631
0.349851
0.692098
0.711788
0.359385
0.330384
0.347614
0.693864
0.352426
1.12662
0.698813
0.692573
0.305693
0.501052
0.696054
0.692432
0.355537
0.692356
0.694545
0.321012
0.69595
0.702668
0.347252
0.360474
0.692575
0.348429
0.358179
0.692543
0.393652
0.693106
0.716158
0.711491
0.696221
0.70877
0.694694
0.693206
0.351186
0.422173
0.693897
0.695116
0.449511
0.705381
0.372585
0.694753
0.692849
0.605032
0.720518
0.448268
0.44196
0.69383
0.69964
0.690364
0.704544
0.693655
1.13281
0.703086
1.12658
0.702056
0.694511
0.702481
1.13048
0.693613
0.313494
0.696735
0.336746
0.699417
0.694866
0.714116
0.692428
0.715114
0.330029
0.340556
0.375425
0.356788
0.69355
0.350923
0.345719
0.701259
0.300148
0.712232
0.342171
0.691952
0.695862
0.357734
0.412607
0.349009
0.695571
0.337936
0.693679
0.697095
0.338798
0.693908
0.585676
0.354788
0.337134
0.309786
0.714521
0.361167
0.700005
0.598597
0.354903
0.691004
0.691866
0.711886
0.360931
0.636138
0.328014
0.692873
0.685917
0.697913
0.366234
0.695175
0.69497
0.691119
0.412979
0.695284
0.362248
0.36117
0.693924
0.439125
0.707933
0.426216
0.365393
0.435611
0.691935
0.336095
0.314649
0.333843
0.545381
1.13648
0.696573
0.342828
0.68777
0.693619
0.532591
0.487606
0.34679
0.589861
0.365663
0.359936
0.692461
0.361467
0.361197
0.70208
0.704555
0.341446
0.712974
0.338668
1.13578
0.338431
0.695632
0.946443
0.71431
0.683999
0.331877
0.360295
0.325563
0.686662
0.692493
0.744172
0.571266
0.406294
0.366884
0.691622
0.351549
0.693215
0.407758
0.888976
0.716111
0.346368
0.335209
0.360884
0.357717
0.33556
0.692147
0.693674
0.348283
0.694694
0.711422
0.356697
0.330215
0.704657
0.363772
0.694873
0.430275
0.714961
0.721967
0.69427
1.13603
0.330415
0.708871
0.696252
0.703279
0.35975
0.690732
0.750715
0.350677
0.696048
0.697498
0.703321
0.692952
0.706578
0.696152
0.703216
0.690245
0.691932
0.356182
0.712423
0.360758
0.499266
0.690884
0.325917
0.691634
0.690291
0.339752
0.691291
0.359605
0.318717
0.699359
0.689005
0.704643
0.353604
0.693026
0.719038
0.338436
0.346635
0.699466
0.690155
0.405728
0.332067
0.701625
0.70475
0.362369
0.713874
0.705544
0.721358
0.345599
0.361794
0.321959
0.723558
0.33916
0.692538
0.713372
0.691666
0.693207
0.69512
0.353318
0.692947
0.716664
0.704509
0.680952
0.328877
0.352054
0.326776
0.711641
0.697062
0.428362
0.721838
0.34447
0.698695
0.6988
0.328728
0.694898
0.692643
0.704963
0.345689
0.353157
0.345459
0.696807
0.708026
0.718876
0.495634
0.694972
0.362553
0.716863
1.13042
0.695556
0.344892
0.716498
0.341488
0.690576
0.323703
0.693933
0.701035
0.339353
0.696161
0.504856
1.12847
0.705566
1.12678
0.701589
0.421892
0.691688
0.692023
0.690414
0.694028
0.461726
1.1293
0.345545
0.692259
0.328351
0.354263
0.333566
0.335511
0.364858
0.346316
0.705741
0.403122
0.33392
0.70491
0.696383
0.693528
0.389402
0.717421
0.715713
0.690482
0.326754
0.682212
0.69549
0.34413
0.332753
0.360212
0.708819
0.488076
0.358849
0.680199
0.306679
1.13605
0.482193
0.353902
0.455327
0.72293
0.346827
0.689655
0.33095
0.573954
0.402486
0.702754
0.402973
0.703987
1.13066
0.688101
0.486527
0.359707
0.702541
0.705134
0.332871
0.321218
0.687732
0.355871
0.71351
0.34608
0.589242
0.325428
0.694794
0.337087
0.705421
0.353913
0.699819
0.695177
0.701866
1.1345
0.344924
0.332335
0.38624
0.69836
0.700817
0.691763
0.640233
0.33943
0.701153
0.347037
0.692368
0.687583
0.412206
0.35213
0.713856
0.693402
0.330508
1.0958
0.702608
0.713615
0.711626
0.331076
0.719469
0.36171
0.712924
0.337667
0.67131
0.692471
0.701414
0.705045
0.356678
0.703898
0.357525
0.344893
0.690782
1.13499
0.584527
0.694083
1.13133
0.363525
0.712348
0.702517
0.703054
0.322773
0.427523
0.718595
0.350411
0.695027
0.700643
0.692011
0.702457
0.343872
0.475838
0.725486
0.338076
0.693158
0.704411
0.504696
0.699275
0.35348
0.69204
0.711989
0.717323
0.700928
0.353586
0.329824
0.694227
0.691944
0.336913
0.362354
0.33466
0.335315
0.334739
0.315964
0.338819
0.364234
0.694416
0.329338
0.344976
0.699222
0.584867
1.12656
0.411416
0.357805
0.693814
0.486129
0.558375
0.709472
0.399084
0.720998
0.775456
0.722675
0.692747
0.338
0.696595
0.669072
0.33605
0.360955
0.414893
0.689966
0.723475
0.706967
0.68749
0.695773
0.69349
0.363933
0.695901
0.678731
0.700583
0.359517
0.694574
0.686908
0.361083
0.429366
0.351265
0.326046
0.336004
0.688354
0.720906
0.695735
0.360014
0.417713
0.705124
0.311383
0.698224
0.692148
0.692133
0.717174
0.694473
0.342815
0.327308
0.279053
0.626373
0.33694
0.693319
0.284799
0.695047
0.689961
0.694654
0.343012
0.46178
0.420102
0.695027
0.332361
0.359855
0.700246
0.692719
0.697596
0.686392
0.699377
0.713869
0.365063
0.717196
0.71096
0.5091
0.694781
0.697991
0.713448
0.443463
0.427097
0.702972
0.479069
0.698315
0.362636
0.694057
0.691717
0.383395
0.339785
0.693235
0.531564
0.70519
0.698552
0.361912
0.354845
1.13119
0.481918
0.39653
0.691292
0.699408
0.343278
0.691721
1.12533
0.692624
0.365584
0.698307
0.363409
0.690909
0.703428
0.713914
0.695743
1.121
0.36652
0.374945
0.696953
0.353327
0.724811
0.351292
0.694676
0.336593
0.708027
0.711918
1.13262
0.366315
1.12663
1.13717
0.359691
0.69411
0.309049
0.703334
0.364756
0.347669
0.305817
0.69898
0.691475
0.380583
0.373323
0.695965
0.706471
0.444645
0.712935
0.364701
0.549589
0.35629
0.696304
0.359973
0.703547
0.698364