# vtk DataFile Version 1.0
unstructured grid
ascii
DATASET UNSTRUCTURED_GRID
points 13672 float
0.0796578 -0.059106 0
0.00128732 0.00159165 0
0.00227961 -0.00102548 0
0.0791586 -0.0598787 0
-0.0546216 0.01 0
0.000495206 0.025 0
0.0800549 -0.035 0
0.135172 -0.08 0
-0.0546216 -0.0451168 0
0.000495206 -0.0301168 0
0.0800549 -0.0901168 0
0.135172 -0.135117 0
-0.0546216 -0.0451168 -0.00551168
0.000495206 -0.0301168 -0.00551168
0.0800549 -0.0901168 -0.00551168
0.135172 -0.135117 -0.00551168
0.135172 -0.08 -0.00551168
0.0800549 -0.035 -0.00551168
0.000495206 0.025 -0.00551168
-0.0546216 0.01 -0.00551168
0.00128732 0.00159165 -0.00551168
0.00227961 -0.00102548 -0.00551168
0.0791586 -0.0598787 -0.00551168
0.0796578 -0.059106 -0.00551168
0.00165953 -0.000990923 0
0.00119576 -0.000874076 0
0.000866021 -0.000641801 0
0.000645147 -0.000349912 0
0.00052235 -1.7281e-05 0
0.00049972 0.000348016 0
0.000601632 0.000737716 0
0.000861774 0.0011403 0
0.00157235 0.00183217 0
0.00188647 0.00206725 0
0.00222612 0.00230203 0
0.00258713 0.00254351 0
0.00296826 0.00279524 0
0.00337118 0.00305664 0
0.00379785 0.00332658 0
0.00425045 0.00360349 0
0.00473139 0.00388521 0
0.0052432 0.00416895 0
0.0057881 0.00445204 0
0.00636753 0.00473281 0
0.00698281 0.00500961 0
0.00763526 0.00528058 0
0.00832616 0.00554366 0
0.00905691 0.00579603 0
0.00982918 0.00603333 0
0.0106445 0.00625033 0
0.0115038 0.00644128 0
0.0124073 0.00660297 0
0.0133543 0.00673414 0
0.0143444 0.00683382 0
0.0153769 0.00690031 0
0.0164512 0.00693173 0
0.0175666 0.00692547 0
0.0187219 0.00687822 0
0.0199156 0.00678477 0
0.0211454 0.00663864 0
0.0224084 0.00643275 0
0.0237018 0.00616676 0
0.0250249 0.00584739 0
0.026375 0.00547298 0
0.0277479 0.00503752 0
0.0291386 0.00453545 0
0.0305433 0.0039653 0
0.0319572 0.0033256 0
0.0333681 0.00260019 0
0.034775 0.00179799 0
0.0361793 0.000930615 0
0.0375798 3.12222e-06 0
0.0389689 -0.000988429 0
0.0403357 -0.00205109 0
0.041675 -0.00318283 0
0.0429849 -0.00437751 0
0.0442643 -0.00562904 0
0.0455126 -0.00693089 0
0.0467314 -0.00827518 0
0.0479204 -0.00965638 0
0.0490661 -0.0110799 0
0.0501515 -0.0125519 0
0.0511696 -0.0140695 0
0.0521492 -0.0156071 0
0.0531202 -0.0171411 0
0.0540851 -0.0186663 0
0.0550431 -0.0201798 0
0.0559923 -0.0216793 0
0.0569311 -0.0231626 0
0.0578582 -0.0246273 0
0.0587723 -0.0260715 0
0.0596721 -0.027493 0
0.0605563 -0.02889 0
0.0614241 -0.0302609 0
0.0622742 -0.0316042 0
0.063106 -0.0329183 0
0.0639186 -0.034202 0
0.0647113 -0.0354543 0
0.0654835 -0.0366743 0
0.0662345 -0.0378613 0
0.0669642 -0.0390145 0
0.0676726 -0.0401333 0
0.0683597 -0.0412172 0
0.0690246 -0.0422665 0
0.0696662 -0.0432819 0
0.0702841 -0.0442636 0
0.0708793 -0.0452111 0
0.0714538 -0.0461237 0
0.072009 -0.047001 0
0.0725452 -0.0478434 0
0.0730611 -0.0486524 0
0.073556 -0.0494294 0
0.0740291 -0.0501756 0
0.0744812 -0.0508916 0
0.0749138 -0.0515773 0
0.0753285 -0.0522331 0
0.0757266 -0.0528592 0
0.076109 -0.0534564 0
0.0764753 -0.0540264 0
0.0768243 -0.054571 0
0.0771553 -0.0550919 0
0.0774679 -0.0555901 0
0.0777617 -0.0560669 0
0.0780369 -0.056523 0
0.0782958 -0.0569578 0
0.0785421 -0.0573703 0
0.0787786 -0.0577603 0
0.0790073 -0.0581279 0
0.0792295 -0.058474 0
0.0794462 -0.0587995 0
0.0798803 -0.0594162 0
0.0800272 -0.0596588 0
0.0800357 -0.0598891 0
0.0799275 -0.0600784 0
0.0797205 -0.0601773 0
0.0794593 -0.0601051 0
0.0789155 -0.0596491 0
0.0786707 -0.0593963 0
0.0784111 -0.0591319 0
0.0781372 -0.0588542 0
0.0778566 -0.0585548 0
0.0775715 -0.0582308 0
0.0772803 -0.0578828 0
0.0769832 -0.0575099 0
0.0766822 -0.0571097 0
0.0763801 -0.0566796 0
0.0760759 -0.0562196 0
0.0757623 -0.0557337 0
0.0754359 -0.0552232 0
0.0750951 -0.0546879 0
0.0747379 -0.054128 0
0.0743626 -0.0535435 0
0.0739688 -0.0529338 0
0.0735559 -0.0522981 0
0.0731238 -0.0516357 0
0.0726718 -0.050946 0
0.0721991 -0.0502288 0
0.0717046 -0.049484 0
0.0711872 -0.0487117 0
0.0706461 -0.047912 0
0.0700804 -0.0470849 0
0.0694892 -0.0462308 0
0.0688718 -0.0453499 0
0.0682271 -0.0444431 0
0.0675544 -0.043511 0
0.0668527 -0.0425546 0
0.0661215 -0.0415748 0
0.06536 -0.040573 0
0.0645676 -0.0395504 0
0.0637439 -0.0385087 0
0.0628887 -0.0374493 0
0.062002 -0.0363741 0
0.0610838 -0.0352847 0
0.0601345 -0.0341831 0
0.0591547 -0.033071 0
0.0581456 -0.0319502 0
0.0571083 -0.0308224 0
0.0560444 -0.0296893 0
0.0549562 -0.028552 0
0.053845 -0.0274126 0
0.0527113 -0.0262746 0
0.051554 -0.0251427 0
0.0503724 -0.0240222 0
0.0491675 -0.0229164 0
0.047941 -0.0218282 0
0.0466955 -0.0207597 0
0.0454337 -0.0197126 0
0.0441592 -0.0186878 0
0.0428751 -0.0176863 0
0.0415841 -0.0167097 0
0.0402878 -0.0157609 0
0.0389879 -0.0148428 0
0.0376864 -0.0139575 0
0.0363853 -0.013107 0
0.0350871 -0.0122931 0
0.0337942 -0.0115164 0
0.0325095 -0.0107772 0
0.0312357 -0.0100756 0
0.0299758 -0.00941024 0
0.0287337 -0.00877784 0
0.0275126 -0.00817571 0
0.0263139 -0.00760375 0
0.0251376 -0.00706528 0
0.0239829 -0.0065649 0
0.0228537 -0.00609619 0
0.0217522 -0.00565563 0
0.0206795 -0.00524226 0
0.0196364 -0.00485507 0
0.0186233 -0.00449318 0
0.0176408 -0.00415577 0
0.016689 -0.00384204 0
0.0157682 -0.00355115 0
0.0148783 -0.00328218 0
0.0140192 -0.00303468 0
0.0131906 -0.00280795 0
0.0123925 -0.00260016 0
0.0116246 -0.00241012 0
0.0108864 -0.00223769 0
0.0101774 -0.00208212 0
0.00949701 -0.00194206 0
0.00884483 -0.0018163 0
0.0082202 -0.0017039 0
0.00762247 -0.00160391 0
0.00705097 -0.00151528 0
0.006505 -0.00143697 0
0.0059838 -0.00136806 0
0.00548662 -0.00130772 0
0.00501265 -0.00125519 0
0.00456114 -0.00120954 0
0.00413136 -0.00116914 0
0.00372257 -0.00113251 0
0.00333398 -0.00109853 0
0.00296466 -0.00106798 0
0.00261363 -0.0010431 0
-0.052721 -0.0445996 0
-0.0508204 -0.0440823 0
-0.0489199 -0.0435651 0
-0.0470193 -0.0430478 0
-0.0451187 -0.0425306 0
-0.0432181 -0.0420134 0
-0.0413175 -0.0414961 0
-0.039417 -0.0409789 0
-0.0375164 -0.0404616 0
-0.0356158 -0.0399444 0
-0.0337152 -0.0394271 0
-0.0318146 -0.0389099 0
-0.0299141 -0.0383927 0
-0.0280135 -0.0378754 0
-0.0261129 -0.0373582 0
-0.0242123 -0.0368409 0
-0.0223117 -0.0363237 0
-0.0204112 -0.0358065 0
-0.0185106 -0.0352892 0
-0.01661 -0.034772 0
-0.0147094 -0.0342547 0
-0.0128088 -0.0337375 0
-0.0109083 -0.0332202 0
-0.00900769 -0.032703 0
-0.00710711 -0.0321858 0
-0.00520653 -0.0316685 0
-0.00330595 -0.0311513 0
-0.00140537 -0.030634 0
0.00190689 -0.0299614 0
0.00332271 -0.0298498 0
0.00474133 -0.0297825 0
0.00616136 -0.0297597 0
0.0075814 -0.0297814 0
0.00900007 -0.0298477 0
0.010416 -0.0299583 0
0.0118278 -0.0301127 0
0.0132342 -0.0303103 0
0.0146339 -0.0305504 0
0.0160259 -0.0308322 0
0.0174091 -0.0311546 0
0.0187824 -0.0315166 0
0.020145 -0.031917 0
0.0214961 -0.0323546 0
0.0228351 -0.032828 0
0.0241613 -0.0333361 0
0.0254744 -0.0338774 0
0.0267738 -0.0344507 0
0.0280592 -0.0350545 0
0.0293306 -0.0356877 0
0.0305875 -0.0363488 0
0.0318301 -0.0370367 0
0.0330581 -0.0377501 0
0.0342717 -0.0384879 0
0.0354708 -0.0392489 0
0.0366556 -0.0400321 0
0.0378262 -0.0408363 0
0.0389828 -0.0416607 0
0.0401254 -0.0425042 0
0.0412543 -0.0433659 0
0.0423698 -0.0442451 0
0.043472 -0.0451408 0
0.0445612 -0.0460523 0
0.0456375 -0.0469789 0
0.0467013 -0.0479199 0
0.0477529 -0.0488746 0
0.0487923 -0.0498424 0
0.04982 -0.0508227 0
0.0508362 -0.051815 0
0.051841 -0.0528187 0
0.0528348 -0.0538333 0
0.0538178 -0.0548584 0
0.0547903 -0.0558935 0
0.0557524 -0.0569382 0
0.0567045 -0.0579922 0
0.0576467 -0.0590549 0
0.0585792 -0.0601261 0
0.0595024 -0.0612055 0
0.0604163 -0.0622926 0
0.0613212 -0.0633873 0
0.0622174 -0.0644891 0
0.0631049 -0.0655979 0
0.0639841 -0.0667134 0
0.064855 -0.0678353 0
0.0657179 -0.0689633 0
0.0665729 -0.0700974 0
0.0674202 -0.0712372 0
0.06826 -0.0723826 0
0.0690925 -0.0735333 0
0.0699178 -0.0746892 0
0.070736 -0.0758501 0
0.0715473 -0.0770159 0
0.0723518 -0.0781863 0
0.0731498 -0.0793612 0
0.0739412 -0.0805405 0
0.0747264 -0.081724 0
0.0755053 -0.0829116 0
0.0762781 -0.0841033 0
0.0770449 -0.0852987 0
0.0778059 -0.0864979 0
0.0785611 -0.0877007 0
0.0793108 -0.088907 0
0.0814681 -0.0912706 0
0.0828814 -0.0924245 0
0.0842946 -0.0935783 0
0.0857079 -0.0947322 0
0.0871211 -0.095886 0
0.0885344 -0.0970399 0
0.0899476 -0.0981937 0
0.0913609 -0.0993476 0
0.0927741 -0.100501 0
0.0941874 -0.101655 0
0.0956006 -0.102809 0
0.0970139 -0.103963 0
0.0984272 -0.105117 0
0.0998404 -0.106271 0
0.101254 -0.107424 0
0.102667 -0.108578 0
0.10408 -0.109732 0
0.105493 -0.110886 0
0.106907 -0.11204 0
0.10832 -0.113194 0
0.109733 -0.114348 0
0.111146 -0.115501 0
0.11256 -0.116655 0
0.113973 -0.117809 0
0.115386 -0.118963 0
0.116799 -0.120117 0
0.118213 -0.121271 0
0.119626 -0.122424 0
0.121039 -0.123578 0
0.122452 -0.124732 0
0.123866 -0.125886 0
0.125279 -0.12704 0
0.126692 -0.128194 0
0.128105 -0.129348 0
0.129519 -0.130501 0
0.130932 -0.131655 0
0.132345 -0.132809 0
0.133758 -0.133963 0
0.135172 -0.133216 0
0.135172 -0.131316 0
0.135172 -0.129415 0
0.135172 -0.127514 0
0.135172 -0.125614 0
0.135172 -0.123713 0
0.135172 -0.121813 0
0.135172 -0.119912 0
0.135172 -0.118012 0
0.135172 -0.116111 0
0.135172 -0.11421 0
0.135172 -0.11231 0
0.135172 -0.110409 0
0.135172 -0.108509 0
0.135172 -0.106608 0
0.135172 -0.104708 0
0.135172 -0.102807 0
0.135172 -0.100906 0
0.135172 -0.0990058 0
0.135172 -0.0971052 0
0.135172 -0.0952046 0
0.135172 -0.0933041 0
0.135172 -0.0914035 0
0.135172 -0.0895029 0
0.135172 -0.0876023 0
0.135172 -0.0857017 0
0.135172 -0.0838012 0
0.135172 -0.0819006 0
0.133758 -0.0788462 0
0.132345 -0.0776923 0
0.130932 -0.0765385 0
0.129519 -0.0753846 0
0.128105 -0.0742308 0
0.126692 -0.0730769 0
0.125279 -0.0719231 0
0.123866 -0.0707692 0
0.122452 -0.0696154 0
0.121039 -0.0684615 0
0.119626 -0.0673077 0
0.118213 -0.0661538 0
0.116799 -0.065 0
0.115386 -0.0638462 0
0.113973 -0.0626923 0
0.11256 -0.0615385 0
0.111146 -0.0603846 0
0.109733 -0.0592308 0
0.10832 -0.0580769 0
0.106907 -0.0569231 0
0.105493 -0.0557692 0
0.10408 -0.0546154 0
0.102667 -0.0534615 0
0.101254 -0.0523077 0
0.0998404 -0.0511538 0
0.0984272 -0.05 0
0.0970139 -0.0488462 0
0.0956006 -0.0476923 0
[...]
CELL_DATA 13116
SCALARS rho float
LOOKUP_TABLE default
0.636233
0.699414
0.329828
0.700487
0.701009
0.696581
0.326064
0.702069
0.598242
0.701522
0.332678
0.302981
0.701003
0.309622
0.309348
0.69641
0.628786
0.701698
0.692829
0.349096
0.63363
0.321685
0.313406
0.701178
0.646611
0.700592
0.701507
0.325616
0.635243
0.686088
1.13968
0.293808
0.608968
0.451424
0.325302
0.635069
0.706402
0.700415
0.677088
0.700061
0.692563
0.702022
0.47533
0.333765
0.69519
0.692591
0.70395
0.693177
0.309974
0.593298
0.700831
0.471395
0.318119
0.621878
0.610228
0.632475
0.33384
0.701486
0.593561
0.301183
0.311834
0.701016
0.703897
0.705915
1.13398
0.331406
0.697589
0.703903
0.697939
1.1101
0.311209
0.621101
0.32485
0.330137
1.14486
0.33344
0.71318
0.70049
0.331905
0.701787
0.705882
0.701276
0.701407
0.694565
0.701146
0.447556
0.330354
0.698504
0.701576
0.350274
0.296338
0.698912
0.701496
0.701206
0.693971
0.649691
0.649035
1.14648
1.14484
0.633199
0.702287
0.696014
0.692561
0.421364
0.703121
0.277466
0.356431
0.525943
0.323475
0.645533
0.573944
0.701496
0.646764
0.704307
0.701764
0.698294
0.3255
0.385235
0.700461
0.699069
0.703224
0.327632
0.69803
0.295702
0.701788
0.429827
0.328918
0.591288
0.326912
0.590805
0.700363
0.705149
0.555454
0.315535
0.468009
0.671454
1.12983
0.699286
0.701334
0.69915
0.703513
0.703772
0.591291
0.703979
0.702106
0.286017
0.326329
0.701069
0.701121
0.701009
0.584005
0.692838
0.692865
0.335164
0.701129
0.700813
0.312151
0.703861
1.14649
0.697762
0.701336
0.332408
0.701411
0.315868
0.329017
0.700484
0.701706
0.701829
0.325479
0.436533
0.394047
1.13046
0.307212
0.559017
0.698398
0.311323
0.31684
0.32395
0.70144
0.69227
0.346416
0.415024
0.606762
0.705553
0.692433
0.595077
0.341159
0.699934
0.700297
0.453803
0.701441
0.701022
1.07041
0.305615
0.701153
0.692185
0.701258
0.699659
0.701688
0.385284
0.4228
0.651196
0.589771
0.323766
0.701781
0.695149
0.479483
0.655601
0.292202
0.338687
0.334625
0.695312
0.311973
0.352363
0.345107
0.335155
0.376549
0.681184
0.70184
0.434949
0.334641
0.697272
0.566507
0.346023
0.582312
0.701389
0.702285
0.32578
0.698072
0.407289
0.702987
0.294749
1.06527
0.610925
1.14412
0.70089
0.972333
0.296555
0.425553
0.696186
1.14625
0.691781
1.12986
0.91789
0.702024
0.316927
0.699978
0.701156
1.14342
0.331111
0.311049
0.693482
0.700187
1.118
0.702434
0.627522
0.704182
0.333411
0.316368
0.388471
0.287969
0.701644
0.701298
0.712391
0.332991
0.701253
0.340377
0.407513
0.703376
0.335768
0.7011
0.701023
1.14549
0.701526
0.295272
1.14512
0.703486
1.14302
0.699131
0.334977
0.337123
0.307767
0.668931
0.327157
0.318489
0.349671
0.34437
0.7018
0.312707
0.701225
0.700412
0.344941
0.349883
0.340831
0.429989
0.327884
0.697995
0.682518
0.701312
0.336413
0.69385
0.609074
0.330281
0.302943
0.68128
0.700034
0.698894
0.341045
0.692879
0.430568
0.70583
0.701675
0.700604
0.70161
0.306578
0.697683
0.30136
0.698768
0.700822
0.693345
0.349387
0.35285
0.701248
0.338136
0.702947
0.700937
0.366656
0.704063
0.701383
0.341051
0.701462
0.701552
0.270923
0.700253
0.435981
0.596666
0.703137
0.447741
0.704018
0.334366
0.701625
0.375403
0.80049
0.701026
0.701139
0.324625
0.366982
0.700911
0.334188
0.701769
0.700543
0.409415
1.13825
0.339125
0.325045
0.701623
0.586217
0.705037
0.335731
0.313771
0.699908
0.700481
0.327879
0.700668
0.322388
0.277195
0.699123
0.702641
0.539919
0.363289
0.699413
1.13895
0.69611
0.700911
0.701772
0.5868
0.336007
0.296237
0.347181
0.695911
0.347099
0.6046
0.369842
0.301441
0.362927
0.55053
0.136268
0.335027
0.701428
0.314603
0.701421
0.636655
0.692956
0.692521
0.700188
0.325383
0.339076
0.39061
0.34398
0.702375
0.644477
0.692728
0.637263
0.7029
0.667999
0.701307
0.693634
0.684599
0.701899
0.701862
0.694212
0.392066
0.479688
0.632212
0.321513
0.680901
0.633069
0.320093
0.698039
1.14573
0.307477
0.348628
0.347881
0.341524
0.657428
0.319517
0.305961
0.695464
0.335603
0.61302
0.354454
0.698171
0.707864
0.328619
0.316817
0.70196
0.426068
0.360512
0.342487
0.353515
0.322198
0.340681
0.350183
0.324488
0.401921
0.338795
0.695144
0.332128
0.701076
0.369701
0.294412
0.538025
0.272467
0.34848
0.280868
0.699657
0.406575
0.66872
0.542689
0.335518
0.658794
0.701551
0.443125
0.704094
0.672697
0.674298
0.343687
1.1472
0.386381
0.701702
1.14374
0.315619
0.314005
0.700437
0.3481
0.447119
0.702194
0.356331
0.703539
0.702134
0.348374
0.316821
0.310485
0.503122
0.303713
0.303728
0.308911
0.301037
0.700429
0.700559
0.434804
0.635352
0.467965
0.701218
0.367706
0.325681
0.602253
0.316522
0.703448
0.344571
0.373868
0.541019
0.696857
0.701716
0.592182
0.364564
0.316178
0.589775
0.701869
1.00607
0.586882
0.704081
0.70195
0.340936
0.708707
0.607622
0.69523
0.351703
0.32805
0.704571
0.701387
0.690934
0.701519
0.701907
0.700793
0.701468
0.69328
0.692985
0.345872
0.699363
0.378009
0.292318
0.354383
0.700459
0.694591
0.345928
0.701066
0.649195
0.350778
0.821446
0.699993
0.702233
0.325455
0.326929
0.700642
0.363528
0.3629
0.274027
0.342225
0.705214
0.291107
0.700167
0.331493
0.699353
0.700701
0.697114
0.700725
0.363395
0.349194
0.693555
0.703413
0.708965
0.700406
0.701136
0.507588
0.342526
0.318462
0.692612
0.594801
0.350066
0.423063
0.300743
0.701637
0.699459
0.35049
0.322706
0.701158
0.452885
0.701741
0.681729
0.32688
0.403299
0.709304
1.14581
0.317277
0.701669
0.701665
0.693974
0.331707
1.1317
0.333615
1.14037
0.693935
0.365006
0.374283
0.320249
1.1361
0.324762
0.329042
0.387896
0.716178
0.703155
0.329707
0.313274
0.345662
0.789571
0.325926
0.692203
0.291726
0.623294
0.701439
0.372295
0.315608
0.314286
0.514494
0.31968
0.701391
0.33986
0.32291
0.695981
0.311785
0.695488
0.703236
1.14259
0.351958
0.703167
0.701511
0.70128
0.692893
0.702306
0.699013
0.290985
1.0824
0.439975
0.695143
0.336147
0.701882
0.578316
0.323199
1.13993
0.701403
0.330203
0.690709
0.296704
0.312974
0.695212
0.699622
0.299379
0.286374
0.330939
0.288162
0.702012
0.701016
0.331504
0.346869
0.701814
0.699347
0.625624
0.701458
0.699102
0.333122
0.701191
0.398841
0.700732
0.391142
0.640581
0.479361
0.697269
0.705166
0.608415
0.363855
0.324012
0.700918
0.632947
0.617765
0.701437
0.291372
0.704471
0.70113
0.402574
0.476641
0.701428
0.366547
1.12651
0.696975
0.360457
0.699728
0.692219
0.328209
0.703235
0.3073
0.701649
0.334687
0.695352
0.704222
0.323064
0.688343
0.701406
0.701158
0.651452
0.709171
0.609851
0.335993
0.42679
0.305033
0.327748
1.13335
0.584734
0.698498
0.701165
0.347569
0.330685
0.705648
0.701472
0.701967
0.701243
0.344218
0.701616
0.701153
0.349475
0.294986
0.70058
0.693437
0.701271
0.286233
0.61498
0.328831
0.703283
0.702879
1.02685
0.698433
0.346427
0.709295
0.701162
0.701553
0.699945
0.692318
0.436698
0.70189
0.338853
0.703429
0.701342
0.422749
0.701572
0.948548
0.700635
0.431888
0.405711
0.6127
0.684374
0.36388
0.364837
0.33628
0.339042
0.703097
0.7053
0.943941
0.346591
0.336924
0.697826
0.704203
0.278556
0.331404
0.423438
0.709622
0.700154
0.700926
0.702057
0.339524
0.364112
1.14144
0.295157
0.351795
0.338426
0.691844
0.328446
0.359466
0.628605
0.694364
0.701358
0.687356
0.698977
0.326372
0.310624
0.337663
0.555235
0.403547
0.295649
0.704371
0.702284
0.70209
0.692437
0.289889
0.356358
0.701503
0.358967
0.692352
0.704075
1.14459
0.299423
0.354937
0.702012
1.14004
0.652525
0.282489
0.70113
0.692911
0.626697
0.700893
0.701462
1.14328
0.70405
0.34613
0.698932
1.12612
0.695869
0.703082
1.13441
0.70167
1.13175
0.698691
0.322561
0.320998
0.357465
1.13983
0.579362
0.359843
0.706133
0.701822
0.29633
0.692751
0.329439
0.700471
0.53212
0.301928
0.701337
0.701188
0.351217
0.577985
1.13789
0.327748
0.701414
0.326449
0.267838
0.665467
0.643824
0.537274
0.692561
0.336092
0.701519
0.318393
0.288706
0.695407
0.348458
0.651474
0.300767
0.694854
0.64119
1.13924
0.701625
0.300968
0.322284
0.699327
0.48245
0.702315
0.462827
0.644889
0.697802
0.701465
0.492248
0.643045
0.701365
0.701176
0.697907
0.37986
0.366523
0.575374
0.701289
0.701269
0.377962
0.692384
0.655876
0.389208
0.299482
0.694696
0.708881
1.13041
1.13745
0.701717
0.703863
0.682453
0.707195
0.298989
0.688371
0.418432
0.700223
0.693657
0.342968
0.701846
0.700697
0.324048
0.293963
0.34017
1.13447
0.332745
0.663161
0.702166
0.688378
0.325351
0.701317
0.318952
0.615236
0.755225
1.01696
0.703989
0.795621
0.654291
0.706387
0.598254
0.695159
0.334918
0.692501
0.696385
0.466702
1.13168
0.703948
0.308626
0.296799
0.328846
0.700637
0.364615
1.13634
0.338467
0.70196
0.313645
0.483518
0.29724
0.701738
0.700962
0.624035
0.338759
0.656305
0.66976
0.341071
0.625927
0.700591
0.294771
0.633964
1.14317
0.70139
0.692347
0.313969
0.518673
0.701715
0.693038
0.70329
0.358116
0.4013
0.70167
1.14134
1.14576
1.13634
0.625748
0.704406
0.621743
0.699906
0.357933
0.320889
1.1357
0.700956
0.686483
0.330527
0.692495
0.63703
0.665187
0.332609
0.41576
0.700577
0.701028
0.601345
0.339976
0.692802
1.1343
0.326875
0.646133
0.702193
0.326839
0.293912
0.303291
0.700198
0.324832
0.346561
0.701256
0.467751
0.70115
0.696286
0.324616
0.34224
0.700454
0.323774
0.320356
1.14077
0.297854
0.370956
0.636766
0.702403
0.704133
0.337232
0.331948
0.332116
0.703248
0.276979
0.703639
0.315725
0.705749
0.700973
0.700984
0.70402
0.711753
0.703106
0.700029
0.700697
0.702177
0.299655
0.337698
0.707489
0.677809
0.54335
0.7009
0.606495
0.701502
0.692383
0.32819
0.698979
0.700905
0.696131
0.330729
0.710619
0.328895
0.696111
0.513961
0.701778
0.692777
0.303475
0.702448
0.345966
0.445576
0.703556
0.337532
0.704257
1.13009
0.702026
0.340597
0.695619
0.338941
0.298731
0.301486
0.345435
0.690137
0.305155
0.706316
0.849937
0.343065
0.305922
0.492493
0.611552
0.676398
0.705271
0.351112
0.334928
0.328344
0.297499
0.335702
0.678346
0.701642
0.326098
0.781241
0.702185
0.304422
0.700851
0.703827
0.78851
0.334194
1.13979
0.710019
0.701727
0.700464
0.305637
0.703849
0.701461
0.710197
0.69354
0.690346
0.316289
0.302382
0.692435
0.573472
0.358965
0.69531
0.305424
0.598179
0.682514
0.701825
0.701495
0.297523
0.700803
0.385969
0.331201
0.70358
0.701359
0.701208
0.69997
0.705648
0.299027
0.700988
0.300427
0.540378
0.700425
1.14553
0.701829
0.331553
0.326183
0.701269
0.325072
0.70064
0.676717
0.408909
0.329546
0.69947
0.300974
0.692414
0.700765
0.709807
0.301227
0.321192
0.588652
0.593931
0.670524
0.455477
0.695147
0.705247
0.701057
1.13133
0.704694
0.321746
0.326523
0.700521
0.689458
0.700619
0.438698
0.325781
0.709621
0.306032
0.699298
0.647003
0.334598
0.702643
0.337279
0.701999
0.32928
0.701061
0.29525
0.697804
0.69126
0.292967
0.701683
0.684257
0.305744
0.945116
0.692348
0.607515
0.267421
0.373854
0.458424
0.701478
0.70267
0.33202
0.611753
0.703449
0.695614
0.326355
0.674164
0.70205
0.447924
0.693443
0.698478
0.339467
0.701985
1.14184
0.330735
0.651007
0.342328
0.703916
0.337915
0.272474
0.701493
0.346435
0.345878
0.302529
0.696931
0.702948
0.397659
0.692888
0.371955
0.714723
0.340009
0.702415
0.371899
0.697747
0.693316
0.709773
0.972444
0.579777
0.69105
0.790999
0.326998
0.669067
0.707943
0.582318
0.705504
0.513793
0.414053
0.700985
0.343914
0.612376
0.330234
0.692672
0.299889
0.305305
0.701412
0.699834
0.349195
0.699893
0.702386
1.13466
0.701216
1.13368
0.346833
0.701022
0.351588
0.313666
0.701601
0.701918
0.701936
0.70099
0.295209
0.337045
0.331091
0.699769
0.871918
0.37216
0.70265
0.32935
0.338645
0.333132
0.701437
0.389924
0.701056
0.701995
0.667226
0.699721
0.702648
0.632014
0.710098
0.437852
0.297184
0.349435
1.13391
1.13487
0.328279
0.678836
0.699126
0.710791
0.31425
0.435973
0.705296
0.315434
0.705081
0.682348
0.352384
0.672521
0.703466
0.3603
0.704104
0.319596
0.69835
0.700979
0.711116
0.303872
0.464712
0.704326
0.342318
0.44067
0.700101
0.349992
0.677718
0.697797
0.701088
0.702323
0.339091
1.13944
0.703756
0.693027
0.391069
0.700312
0.318454
0.266074
0.7018
0.700123
0.850291
0.261226
0.693972
0.667014
1.14541
0.333527
0.320836
0.362254
0.699574
0.328098
0.313397
0.328726
0.680885
0.316744
0.342196
0.443524
0.703484
0.355361
0.991726
0.689508
0.699897
0.340416
0.700157
0.69079
0.805547
0.413765
0.691813
0.326018
0.343327
0.695505
0.34973
0.683289
0.703662
1.13912
0.353044
0.360204
0.331012
0.587949
1.13025
0.270852
0.698348
0.696389
0.70198
0.339874
0.300355
0.377748
0.70306
0.353658
1.12966
0.638591
0.674271
0.701896
0.335074
0.689763
0.292995
0.684147
0.678595
0.701459
0.67137
0.587231
0.695037
0.701912
0.700436
0.342298
0.368156
0.33643
0.701807
0.597622
1.14546
0.353154
0.392613
0.701833
0.700534
1.08534
0.349906
0.7
0.586385
0.591552
0.703067
0.319864
0.35065
0.341683
0.700187
0.880052
0.691481
0.701171
0.353672
0.702144
0.688398
0.861174
0.882505
0.701799
0.701011
0.694394
0.702148
0.701308
0.31553
0.699134
0.700066
0.691489
0.700145
0.700334
0.667031
0.353033
0.280154
0.695054
0.356046
0.33978
0.700208
0.316136
0.667965
0.697554
0.701494
0.695916
0.311345
0.700236
0.301722
0.322095
0.695045
0.705713
0.692501
0.340045
0.700732
0.692696
0.697723
0.698906
0.320429
0.691607
0.701317
0.71022
0.385696
0.701497
0.334125
0.700217
0.336105
0.354032
0.629284
0.415319
0.701337
0.701446
0.692416
0.328622
0.691349
0.400141
0.312547
0.701842
0.497264
0.353163
0.692627
0.303446
0.556295
0.701731
0.704833
0.701658
0.503959
0.62443
0.694925
0.692562
0.665668
0.701186
0.573709
0.701798
0.700948
0.689097
0.287523
0.332086
0.411936
0.699944
0.309718
0.696371
0.70013
0.650489
0.692451
0.612195
0.704241
0.706949
0.333455
0.699739
0.700549
0.596398
0.701208
0.701174
0.701498
0.678824
0.340184
0.320835
0.699475
0.600266
0.627356
0.699242
0.695634
0.692673
0.701413
0.701187
0.668351
0.704937
0.701244
0.30876
0.314645
0.292701
0.332655
1.1446
0.44218
0.618953
0.70287
0.705426
0.314631
0.6959
0.700506
0.340498
0.377244
1.13859
0.699324
0.320175
0.286763
0.277342
1.13048
0.701004
0.389083
0.321874
0.352202
0.282166
0.360223
0.360704
0.702893
0.693228
0.706944
0.340721
0.70154
0.666235
0.642049
0.342311
0.3466
0.701768
1.12947
0.356825
0.698036
0.359682
0.70136
0.315808
0.70002
0.345343
0.702049
0.700518
0.340041
0.593403
0.325053
0.700864
0.298673
0.670687
0.305211
0.590666
0.327041
0.667373
0.34154
1.05304
1.04129
0.64156
0.711099
0.346343
0.702524
0.674584
0.700705
0.663453
0.713617
0.348326
0.432131
0.332436
0.701649
0.339979
0.70075
0.587678
0.70193
0.701341
0.522323
0.701827
0.313355
0.321948
0.312829
0.591176
0.635096
0.694314
0.3374
0.317456
0.695376
0.408345
0.300164
0.653263
0.376295
0.358632
0.281623
0.701971
0.683139
0.673346
0.320309
0.702984
0.700288
0.291276
0.371809
0.701138
0.698356
0.68321
0.561799
0.427084
0.393056
0.336107
0.701933
0.69348
0.595079
0.70397
0.295022
0.626347
0.335889
1.13091
0.70036
0.351088
0.323084
0.696122
0.649453
0.700453
0.701276
0.701306
0.7004
0.700641
0.335476
0.322131
0.336419
0.336146
0.631697
1.14508
0.684285
0.34073
0.351212
0.459621
0.29347
0.692689
0.705093
0.344552
0.349723
0.697527
0.319102
0.695247
0.701602
0.703074
0.690535
0.638538
0.362595
0.345513
0.704209
0.351878
0.435147
0.393986
0.672264
0.699719
0.328784
0.352996
1.13653
0.341363
0.698695
0.701622
0.356127
0.324676
0.314428
0.696687
0.322961
1.13051
0.702837
0.654342
0.287452
0.572354
0.700602
0.701442
0.328061
0.701458
0.697794
0.29779
0.700798
0.701706
0.331526
0.35042
0.702031
0.338613
0.336605
0.702031
0.38458
0.692647
0.704321
0.701324
0.704799
0.700982
0.69764
0.682578
0.330066
0.424707
0.700572
0.706714
0.463187
0.701074
0.35769
0.698497
0.70157
0.618232
0.690292
0.431618
0.422771
0.695404
0.701306
0.70077
0.700599
0.694487
1.13665
0.70136
1.13558
0.702364
0.701799
0.701569
1.12982
0.689385
0.302398
0.701385
0.327127
0.699364
0.69886
0.701859
0.703421
0.702501
0.324647
0.333375
0.347248
0.329524
0.703377
0.347977
0.33387
0.705291
0.288031
0.702346
0.335825
0.702578
0.70345
0.346407
0.408409
0.335376
0.699825
0.328556
0.693181
0.702497
0.33046
0.701894
0.596037
0.348547
0.324801
0.290119
0.7034
0.352578
0.699876
0.608095
0.332615
0.698253
0.692606
0.701367
0.360038
0.63106
0.301745
0.700921
0.685992
0.698596
0.363081
0.707561
0.69918
0.701302
0.400094
0.699825
0.36242
0.340576
0.700826
0.437368
0.70128
0.420776
0.361469
0.437699
0.701613
0.325287
0.303152
0.333939
0.536694
1.14251
0.702956
0.275309
0.66162
0.694454
0.5865
0.459136
0.334149
0.597083
0.365959
0.339697
0.693936
0.341469
0.35924
0.700716
0.700537
0.339057
0.701885
0.334532
1.13833
0.326137
0.701758
1.09735
0.702061
0.680745
0.319889
0.337941
0.3014
0.695943
0.701933
0.621679
0.595766
0.400951
0.352362
0.692445
0.330931
0.692377
0.403388
1.05641
0.704093
0.343858
0.332237
0.343733
0.353301
0.329972
0.697419
0.703318
0.34502
0.700417
0.683949
0.338722
0.30684
0.700578
0.350563
0.703191
0.437245
0.702161
0.693546
0.699419
1.14186
0.317749
0.701187
0.69937
0.7019
0.347623
0.703144
0.632201
0.337386
0.699912
0.71154
0.702839
0.702754
0.700759
0.70087
0.701446
0.692059
0.692539
0.347303
0.701595
0.344689
0.470226
0.700223
0.301488
0.701901
0.703316
0.314953
0.701456
0.348052
0.296772
0.70132
0.70256
0.700472
0.336727
0.702845
0.656264
0.326496
0.342201
0.70176
0.699848
0.374894
0.331021
0.702207
0.70053
0.359813
0.687907
0.700358
0.683221
0.342174
0.361757
0.298024
0.693422
0.296961
0.700888
0.70182
0.692443
0.671178
0.702987
0.337277
0.701405
0.651963
0.700508
0.671639
0.304885
0.32893
0.285092
0.701263
0.702187
0.434787
0.692331
0.332835
0.711338
0.69904
0.286852
0.698151
0.699876
0.671348
0.341078
0.336743
0.333158
0.7008
0.701273
0.653964
0.561895
0.701868
0.356264
0.676379
1.1456
0.708557
0.340288
0.659086
0.315767
0.703422
0.274276
0.694227
0.701339
0.321279
0.70079
0.475189
1.13064
0.694424
1.13021
0.700484
0.422756
0.692361
0.692625
0.699559
0.69416
0.479503
1.14502
0.307697
0.692756
0.287358
0.348437
0.290696
0.330695
0.36525
0.342284
0.700379
0.396618
0.313785
0.702726
0.700695
0.703092
0.392483
0.703637
0.704046
0.68746
0.325701
0.671969
0.697689
0.329597
0.330829
0.33736
0.674847
0.550076
0.354641
0.674559
0.290168
1.13595
0.541002
0.324842
0.473931
0.689677
0.333633
0.69941
0.299067
0.571264
0.373666
0.701607
0.383043
0.704593
1.14502
0.698626
0.458096
0.347115
0.702195
0.700695
0.32967
0.29871
0.697772
0.351197
0.70164
0.340109
0.594186
0.28164
0.697525
0.323038
0.700429
0.348405
0.699161
0.702469
0.701039
1.13998
0.308197
0.310297
0.389385
0.701301
0.705974
0.701706
0.639455
0.318021
0.702006
0.334094
0.702007
0.699375
0.414495
0.329557
0.701501
0.694782
0.304008
1.13918
0.702349
0.701404
0.701398
0.298522
0.67798
0.346941
0.701305
0.29408
0.75117
0.701931
0.70233
0.700448
0.33755
0.701088
0.345514
0.332761
0.698107
1.14252
0.60528
0.696485
1.14537
0.350706
0.701726
0.701422
0.701624
0.29903
0.413886
0.704387
0.347444
0.698832
0.700328
0.701825
0.701396
0.328748
0.453874
0.685824
0.318051
0.701457
0.700443
0.467042
0.701513
0.339955
0.704719
0.701534
0.703719
0.701423
0.335273
0.306543
0.696306
0.702189
0.314897
0.355668
0.322181
0.317425
0.3126
0.294229
0.327703
0.357418
0.697836
0.291529
0.342299
0.702312
0.606094
1.13576
0.389864
0.352834
0.69587
0.459279
0.552979
0.701137
0.3786
0.69062
0.971258
0.645377
0.701661
0.330661
0.70268
0.709373
0.327951
0.339497
0.417134
0.703112
0.646033
0.700972
0.696341
0.708131
0.699351
0.368144
0.701447
0.672042
0.702059
0.353664
0.697791
0.688575
0.363343
0.410265
0.315638
0.298664
0.307864
0.638709
0.7024
0.710524
0.340518
0.413638
0.700434
0.291236
0.702567
0.692745
0.701736
0.703588
0.699893
0.329015
0.30042
0.284709
0.63252
0.293642
0.693127
0.282871
0.696069
0.697263
0.699044
0.331554
0.448804
0.417468
0.702832
0.331624
0.336163
0.700364
0.702021
0.695805
0.696898
0.701706
0.701637
0.365582
0.659487
0.701072
0.569791
0.703145
0.702038
0.701437
0.451889
0.432148
0.701666
0.534996
0.676058
0.344469
0.704391
0.701513
0.38686
0.298406
0.700441
0.582719
0.701224
0.702619
0.35435
0.351021
1.14168
0.451603
0.399462
0.700806
0.701609
0.314936
0.701766
1.14589
0.703469
0.366174
0.638963
0.363927
0.70064
0.700313
0.701594
0.710682
1.14005
0.345028
0.368883
0.710616
0.342247
0.642838
0.3234
0.700584
0.275978
0.694407
0.701115
1.13776
0.36281
1.13184
1.14175
0.335289
0.70383
0.289288
0.701982
0.358854
0.345105
0.25901
0.709589
0.701847
0.370782
0.346831
0.700937
0.700587
0.427791
0.701682
0.364903
0.542614
0.35093
0.713033
0.337672
0.704532
0.700834
0.324431
0.447034
0.345358