# vtk DataFile Version 1.0
unstructured grid
ascii
DATASET UNSTRUCTURED_GRID
points 13672 float
0.0796578 -0.059106 0
0.00128732 0.00159165 0
0.00227961 -0.00102548 0
0.0791586 -0.0598787 0
-0.0546216 0.01 0
0.000495206 0.025 0
0.0800549 -0.035 0
0.135172 -0.08 0
-0.0546216 -0.0451168 0
0.000495206 -0.0301168 0
0.0800549 -0.0901168 0
0.135172 -0.135117 0
-0.0546216 -0.0451168 -0.00551168
0.000495206 -0.0301168 -0.00551168
0.0800549 -0.0901168 -0.00551168
0.135172 -0.135117 -0.00551168
0.135172 -0.08 -0.00551168
0.0800549 -0.035 -0.00551168
0.000495206 0.025 -0.00551168
-0.0546216 0.01 -0.00551168
0.00128732 0.00159165 -0.00551168
0.00227961 -0.00102548 -0.00551168
0.0791586 -0.0598787 -0.00551168
0.0796578 -0.059106 -0.00551168
0.00165953 -0.000990923 0
0.00119576 -0.000874076 0
0.000866021 -0.000641801 0
0.000645147 -0.000349912 0
0.00052235 -1.7281e-05 0
0.00049972 0.000348016 0
0.000601632 0.000737716 0
0.000861774 0.0011403 0
0.00157235 0.00183217 0
0.00188647 0.00206725 0
0.00222612 0.00230203 0
0.00258713 0.00254351 0
0.00296826 0.00279524 0
0.00337118 0.00305664 0
0.00379785 0.00332658 0
0.00425045 0.00360349 0
0.00473139 0.00388521 0
0.0052432 0.00416895 0
0.0057881 0.00445204 0
0.00636753 0.00473281 0
0.00698281 0.00500961 0
0.00763526 0.00528058 0
0.00832616 0.00554366 0
0.00905691 0.00579603 0
0.00982918 0.00603333 0
0.0106445 0.00625033 0
0.0115038 0.00644128 0
0.0124073 0.00660297 0
0.0133543 0.00673414 0
0.0143444 0.00683382 0
0.0153769 0.00690031 0
0.0164512 0.00693173 0
0.0175666 0.00692547 0
0.0187219 0.00687822 0
0.0199156 0.00678477 0
0.0211454 0.00663864 0
0.0224084 0.00643275 0
0.0237018 0.00616676 0
0.0250249 0.00584739 0
0.026375 0.00547298 0
0.0277479 0.00503752 0
0.0291386 0.00453545 0
0.0305433 0.0039653 0
0.0319572 0.0033256 0
0.0333681 0.00260019 0
0.034775 0.00179799 0
0.0361793 0.000930615 0
0.0375798 3.12222e-06 0
0.0389689 -0.000988429 0
0.0403357 -0.00205109 0
0.041675 -0.00318283 0
0.0429849 -0.00437751 0
0.0442643 -0.00562904 0
0.0455126 -0.00693089 0
0.0467314 -0.00827518 0
0.0479204 -0.00965638 0
0.0490661 -0.0110799 0
0.0501515 -0.0125519 0
0.0511696 -0.0140695 0
0.0521492 -0.0156071 0
0.0531202 -0.0171411 0
0.0540851 -0.0186663 0
0.0550431 -0.0201798 0
0.0559923 -0.0216793 0
0.0569311 -0.0231626 0
0.0578582 -0.0246273 0
0.0587723 -0.0260715 0
0.0596721 -0.027493 0
0.0605563 -0.02889 0
0.0614241 -0.0302609 0
0.0622742 -0.0316042 0
0.063106 -0.0329183 0
0.0639186 -0.034202 0
0.0647113 -0.0354543 0
0.0654835 -0.0366743 0
0.0662345 -0.0378613 0
0.0669642 -0.0390145 0
0.0676726 -0.0401333 0
0.0683597 -0.0412172 0
0.0690246 -0.0422665 0
0.0696662 -0.0432819 0
0.0702841 -0.0442636 0
0.0708793 -0.0452111 0
0.0714538 -0.0461237 0
0.072009 -0.047001 0
0.0725452 -0.0478434 0
0.0730611 -0.0486524 0
0.073556 -0.0494294 0
0.0740291 -0.0501756 0
0.0744812 -0.0508916 0
0.0749138 -0.0515773 0
0.0753285 -0.0522331 0
0.0757266 -0.0528592 0
0.076109 -0.0534564 0
0.0764753 -0.0540264 0
0.0768243 -0.054571 0
0.0771553 -0.0550919 0
0.0774679 -0.0555901 0
0.0777617 -0.0560669 0
0.0780369 -0.056523 0
0.0782958 -0.0569578 0
0.0785421 -0.0573703 0
0.0787786 -0.0577603 0
0.0790073 -0.0581279 0
0.0792295 -0.058474 0
0.0794462 -0.0587995 0
0.0798803 -0.0594162 0
0.0800272 -0.0596588 0
0.0800357 -0.0598891 0
0.0799275 -0.0600784 0
0.0797205 -0.0601773 0
0.0794593 -0.0601051 0
0.0789155 -0.0596491 0
0.0786707 -0.0593963 0
0.0784111 -0.0591319 0
0.0781372 -0.0588542 0
0.0778566 -0.0585548 0
0.0775715 -0.0582308 0
0.0772803 -0.0578828 0
0.0769832 -0.0575099 0
0.0766822 -0.0571097 0
0.0763801 -0.0566796 0
0.0760759 -0.0562196 0
0.0757623 -0.0557337 0
0.0754359 -0.0552232 0
0.0750951 -0.0546879 0
0.0747379 -0.054128 0
0.0743626 -0.0535435 0
0.0739688 -0.0529338 0
0.0735559 -0.0522981 0
0.0731238 -0.0516357 0
0.0726718 -0.050946 0
0.0721991 -0.0502288 0
0.0717046 -0.049484 0
0.0711872 -0.0487117 0
0.0706461 -0.047912 0
0.0700804 -0.0470849 0
0.0694892 -0.0462308 0
0.0688718 -0.0453499 0
0.0682271 -0.0444431 0
0.0675544 -0.043511 0
0.0668527 -0.0425546 0
0.0661215 -0.0415748 0
0.06536 -0.040573 0
0.0645676 -0.0395504 0
0.0637439 -0.0385087 0
0.0628887 -0.0374493 0
0.062002 -0.0363741 0
0.0610838 -0.0352847 0
0.0601345 -0.0341831 0
0.0591547 -0.033071 0
0.0581456 -0.0319502 0
0.0571083 -0.0308224 0
0.0560444 -0.0296893 0
0.0549562 -0.028552 0
0.053845 -0.0274126 0
0.0527113 -0.0262746 0
0.051554 -0.0251427 0
0.0503724 -0.0240222 0
0.0491675 -0.0229164 0
0.047941 -0.0218282 0
0.0466955 -0.0207597 0
0.0454337 -0.0197126 0
0.0441592 -0.0186878 0
0.0428751 -0.0176863 0
0.0415841 -0.0167097 0
0.0402878 -0.0157609 0
0.0389879 -0.0148428 0
0.0376864 -0.0139575 0
0.0363853 -0.013107 0
0.0350871 -0.0122931 0
0.0337942 -0.0115164 0
0.0325095 -0.0107772 0
0.0312357 -0.0100756 0
0.0299758 -0.00941024 0
0.0287337 -0.00877784 0
0.0275126 -0.00817571 0
0.0263139 -0.00760375 0
0.0251376 -0.00706528 0
0.0239829 -0.0065649 0
0.0228537 -0.00609619 0
0.0217522 -0.00565563 0
0.0206795 -0.00524226 0
0.0196364 -0.00485507 0
0.0186233 -0.00449318 0
0.0176408 -0.00415577 0
0.016689 -0.00384204 0
0.0157682 -0.00355115 0
0.0148783 -0.00328218 0
0.0140192 -0.00303468 0
0.0131906 -0.00280795 0
0.0123925 -0.00260016 0
0.0116246 -0.00241012 0
0.0108864 -0.00223769 0
0.0101774 -0.00208212 0
0.00949701 -0.00194206 0
0.00884483 -0.0018163 0
0.0082202 -0.0017039 0
0.00762247 -0.00160391 0
0.00705097 -0.00151528 0
0.006505 -0.00143697 0
0.0059838 -0.00136806 0
0.00548662 -0.00130772 0
0.00501265 -0.00125519 0
0.00456114 -0.00120954 0
0.00413136 -0.00116914 0
0.00372257 -0.00113251 0
0.00333398 -0.00109853 0
0.00296466 -0.00106798 0
0.00261363 -0.0010431 0
-0.052721 -0.0445996 0
-0.0508204 -0.0440823 0
-0.0489199 -0.0435651 0
-0.0470193 -0.0430478 0
-0.0451187 -0.0425306 0
-0.0432181 -0.0420134 0
-0.0413175 -0.0414961 0
-0.039417 -0.0409789 0
-0.0375164 -0.0404616 0
-0.0356158 -0.0399444 0
-0.0337152 -0.0394271 0
-0.0318146 -0.0389099 0
-0.0299141 -0.0383927 0
-0.0280135 -0.0378754 0
-0.0261129 -0.0373582 0
-0.0242123 -0.0368409 0
-0.0223117 -0.0363237 0
-0.0204112 -0.0358065 0
-0.0185106 -0.0352892 0
-0.01661 -0.034772 0
-0.0147094 -0.0342547 0
-0.0128088 -0.0337375 0
-0.0109083 -0.0332202 0
-0.00900769 -0.032703 0
-0.00710711 -0.0321858 0
-0.00520653 -0.0316685 0
-0.00330595 -0.0311513 0
-0.00140537 -0.030634 0
0.00190689 -0.0299614 0
0.00332271 -0.0298498 0
0.00474133 -0.0297825 0
0.00616136 -0.0297597 0
0.0075814 -0.0297814 0
0.00900007 -0.0298477 0
0.010416 -0.0299583 0
0.0118278 -0.0301127 0
0.0132342 -0.0303103 0
0.0146339 -0.0305504 0
0.0160259 -0.0308322 0
0.0174091 -0.0311546 0
0.0187824 -0.0315166 0
0.020145 -0.031917 0
0.0214961 -0.0323546 0
0.0228351 -0.032828 0
0.0241613 -0.0333361 0
0.0254744 -0.0338774 0
0.0267738 -0.0344507 0
0.0280592 -0.0350545 0
0.0293306 -0.0356877 0
0.0305875 -0.0363488 0
0.0318301 -0.0370367 0
0.0330581 -0.0377501 0
0.0342717 -0.0384879 0
0.0354708 -0.0392489 0
0.0366556 -0.0400321 0
0.0378262 -0.0408363 0
0.0389828 -0.0416607 0
0.0401254 -0.0425042 0
0.0412543 -0.0433659 0
0.0423698 -0.0442451 0
0.043472 -0.0451408 0
0.0445612 -0.0460523 0
0.0456375 -0.0469789 0
0.0467013 -0.0479199 0
0.0477529 -0.0488746 0
0.0487923 -0.0498424 0
0.04982 -0.0508227 0
0.0508362 -0.051815 0
0.051841 -0.0528187 0
0.0528348 -0.0538333 0
0.0538178 -0.0548584 0
0.0547903 -0.0558935 0
0.0557524 -0.0569382 0
0.0567045 -0.0579922 0
0.0576467 -0.0590549 0
0.0585792 -0.0601261 0
0.0595024 -0.0612055 0
0.0604163 -0.0622926 0
0.0613212 -0.0633873 0
0.0622174 -0.0644891 0
0.0631049 -0.0655979 0
0.0639841 -0.0667134 0
0.064855 -0.0678353 0
0.0657179 -0.0689633 0
0.0665729 -0.0700974 0
0.0674202 -0.0712372 0
0.06826 -0.0723826 0
0.0690925 -0.0735333 0
0.0699178 -0.0746892 0
0.070736 -0.0758501 0
0.0715473 -0.0770159 0
0.0723518 -0.0781863 0
0.0731498 -0.0793612 0
0.0739412 -0.0805405 0
0.0747264 -0.081724 0
0.0755053 -0.0829116 0
0.0762781 -0.0841033 0
0.0770449 -0.0852987 0
0.0778059 -0.0864979 0
0.0785611 -0.0877007 0
0.0793108 -0.088907 0
0.0814681 -0.0912706 0
0.0828814 -0.0924245 0
0.0842946 -0.0935783 0
0.0857079 -0.0947322 0
0.0871211 -0.095886 0
0.0885344 -0.0970399 0
0.0899476 -0.0981937 0
0.0913609 -0.0993476 0
0.0927741 -0.100501 0
0.0941874 -0.101655 0
0.0956006 -0.102809 0
0.0970139 -0.103963 0
0.0984272 -0.105117 0
0.0998404 -0.106271 0
0.101254 -0.107424 0
0.102667 -0.108578 0
0.10408 -0.109732 0
0.105493 -0.110886 0
0.106907 -0.11204 0
0.10832 -0.113194 0
0.109733 -0.114348 0
0.111146 -0.115501 0
0.11256 -0.116655 0
0.113973 -0.117809 0
0.115386 -0.118963 0
0.116799 -0.120117 0
0.118213 -0.121271 0
0.119626 -0.122424 0
0.121039 -0.123578 0
0.122452 -0.124732 0
0.123866 -0.125886 0
0.125279 -0.12704 0
0.126692 -0.128194 0
0.128105 -0.129348 0
0.129519 -0.130501 0
0.130932 -0.131655 0
0.132345 -0.132809 0
0.133758 -0.133963 0
0.135172 -0.133216 0
0.135172 -0.131316 0
0.135172 -0.129415 0
0.135172 -0.127514 0
0.135172 -0.125614 0
0.135172 -0.123713 0
0.135172 -0.121813 0
0.135172 -0.119912 0
0.135172 -0.118012 0
0.135172 -0.116111 0
0.135172 -0.11421 0
0.135172 -0.11231 0
0.135172 -0.110409 0
0.135172 -0.108509 0
0.135172 -0.106608 0
0.135172 -0.104708 0
0.135172 -0.102807 0
0.135172 -0.100906 0
0.135172 -0.0990058 0
0.135172 -0.0971052 0
0.135172 -0.0952046 0
0.135172 -0.0933041 0
0.135172 -0.0914035 0
0.135172 -0.0895029 0
0.135172 -0.0876023 0
0.135172 -0.0857017 0
0.135172 -0.0838012 0
0.135172 -0.0819006 0
0.133758 -0.0788462 0
0.132345 -0.0776923 0
0.130932 -0.0765385 0
0.129519 -0.0753846 0
0.128105 -0.0742308 0
0.126692 -0.0730769 0
0.125279 -0.0719231 0
0.123866 -0.0707692 0
0.122452 -0.0696154 0
0.121039 -0.0684615 0
0.119626 -0.0673077 0
0.118213 -0.0661538 0
0.116799 -0.065 0
0.115386 -0.0638462 0
0.113973 -0.0626923 0
0.11256 -0.0615385 0
0.111146 -0.0603846 0
0.109733 -0.0592308 0
0.10832 -0.0580769 0
0.106907 -0.0569231 0
0.105493 -0.0557692 0
0.10408 -0.0546154 0
0.102667 -0.0534615 0
0.101254 -0.0523077 0
0.0998404 -0.0511538 0
0.0984272 -0.05 0
0.0970139 -0.0488462 0
0.0956006 -0.0476923 0
[...]
CELL_DATA 13116
SCALARS rho float
LOOKUP_TABLE default
0.65997
0.690889
0.369818
0.689685
0.692075
0.687132
0.363522
0.690931
0.574081
0.694696
0.364741
0.368879
0.692009
0.365737
0.38878
0.687056
0.659028
0.700927
0.692654
0.361983
0.658255
0.395584
0.373533
0.699669
0.599749
0.68562
0.694786
0.378026
0.591252
0.696474
0.934735
0.370144
0.581244
0.524925
0.363935
0.659621
0.707803
0.690908
0.685735
0.688235
0.693678
0.691445
0.543544
0.363971
0.691394
0.692459
0.684125
0.697051
0.4078
0.562783
0.690595
0.538936
0.359771
0.65765
0.582446
0.587451
0.363724
0.703745
0.565571
0.397158
0.366121
0.693003
0.687056
0.684776
0.829131
0.355734
0.687864
0.71517
0.6877
0.709279
0.388709
0.584728
0.389986
0.361158
1.12433
0.357092
0.68838
0.700727
0.362945
0.703212
0.707794
0.685177
0.699021
0.696976
0.689584
0.496766
0.358199
0.731527
0.686091
0.367576
0.367353
0.691233
0.698499
0.687974
0.699996
0.677701
0.603886
1.0804
1.10383
0.5925
0.718242
0.67259
0.692828
0.493543
0.679215
0.38884
0.468455
0.566796
0.374636
0.595795
0.579722
0.6821
0.677738
0.712007
0.70298
0.688117
0.357353
0.482285
0.701785
0.68846
0.718031
0.391876
0.687961
0.366653
0.688104
0.513007
0.357836
0.548977
0.371074
0.561082
0.701142
0.698989
0.529783
0.403785
0.519364
0.668973
1.12661
0.688522
0.71965
0.688536
0.679704
0.684445
0.550814
0.680412
0.686329
0.373651
0.364295
0.684449
0.699793
0.690452
0.557135
0.696559
0.696958
0.359909
0.69436
0.689503
0.37512
0.711687
1.06429
0.73373
0.699708
0.364184
0.698826
0.374437
0.389772
0.691926
0.68731
0.701143
0.363788
0.508554
0.493099
1.1271
0.385651
0.546102
0.68803
0.37512
0.391835
0.392075
0.681886
0.68366
0.366725
0.504467
0.594414
0.70899
0.684665
0.567314
0.355223
0.687738
0.678511
0.528016
0.683701
0.684061
0.671685
0.37535
0.682219
0.685873
0.697162
0.687334
0.685727
0.445887
0.494701
0.597536
0.546463
0.364761
0.705349
0.693436
0.544556
0.681963
0.387317
0.366585
0.355774
0.687173
0.376427
0.366748
0.367141
0.358632
0.472313
0.680887
0.68786
0.490905
0.362014
0.687684
0.577994
0.367173
0.556921
0.694263
0.68567
0.379112
0.687974
0.478534
0.69142
0.370768
0.669937
0.577573
1.12079
0.687244
0.664338
0.410082
0.50885
0.734641
1.12621
0.685784
1.12663
0.663229
0.690812
0.392573
0.690143
0.694332
1.09426
0.365303
0.409523
0.694177
0.700834
0.7197
0.699463
0.656596
0.719724
0.364682
0.418644
0.459579
0.385386
0.67718
0.697326
0.686499
0.360074
0.689074
0.353688
0.493509
0.680039
0.36632
0.685384
0.691088
1.12655
0.707361
0.408927
1.12675
0.7096
1.08927
0.688473
0.362986
0.358024
0.375975
0.667598
0.389403
0.408625
0.457961
0.443742
0.690489
0.361377
0.686525
0.69128
0.356865
0.362821
0.3543
0.514376
0.375928
0.72863
0.671345
0.681293
0.36641
0.686253
0.575327
0.414191
0.397144
0.687181
0.700151
0.687459
0.354318
0.685954
0.50548
0.69849
0.691453
0.689513
0.691341
0.37518
0.687666
0.372947
0.687596
0.694176
0.732942
0.365208
0.455555
0.694424
0.354779
0.686649
0.69279
0.427265
0.706726
0.698782
0.355996
0.68988
0.698557
0.369193
0.695684
0.493588
0.567484
0.691025
0.497183
0.711683
0.359793
0.700209
0.457648
0.674398
0.673023
0.69636
0.378082
0.471049
0.689781
0.362311
0.704277
0.679701
0.50062
1.12676
0.356991
0.380189
0.701471
0.560156
0.711658
0.357509
0.375204
0.69012
0.691224
0.364515
0.690723
0.35876
0.393728
0.688095
0.691134
0.575855
0.36779
0.6904
0.871233
0.686805
0.689372
0.709834
0.559257
0.39364
0.381341
0.366095
0.686596
0.366641
0.605102
0.433667
0.373356
0.467833
0.579627
0.225367
0.3628
0.690152
0.365145
0.69683
0.592698
0.694604
0.733198
0.690058
0.380099
0.358193
0.453481
0.408024
0.701957
0.673369
0.693484
0.592624
0.687295
0.678282
0.684721
0.677109
0.691977
0.70884
0.704021
0.687076
0.463167
0.544742
0.658544
0.390212
0.671078
0.588323
0.35937
0.688076
1.12675
0.376085
0.363618
0.366153
0.357256
0.597702
0.36892
0.37562
0.68753
0.354515
0.579076
0.367507
0.687645
0.702874
0.379121
0.401216
0.701145
0.512401
0.367894
0.356932
0.367873
0.375263
0.357893
0.364024
0.400824
0.495906
0.36538
0.672232
0.388704
0.687888
0.422766
0.363164
0.524646
0.37687
0.367424
0.377424
0.687512
0.501126
0.595733
0.574611
0.35439
0.680495
0.686403
0.495148
0.706647
0.67835
0.677864
0.357721
1.10692
0.484435
0.707414
1.02196
0.376875
0.362345
0.677776
0.409398
0.496282
0.673847
0.46787
0.713376
0.68732
0.363315
0.389456
0.378093
0.544351
0.394526
0.364005
0.38597
0.371355
0.691092
0.691109
0.51762
0.593741
0.521712
0.681752
0.464744
0.367387
0.575695
0.377061
0.697477
0.426879
0.476478
0.527431
0.691181
0.686704
0.564548
0.423717
0.361863
0.562607
0.690803
0.661964
0.561031
0.681624
0.677023
0.365468
0.702207
0.575505
0.734412
0.450482
0.376036
0.711573
0.697414
0.735848
0.694528
0.686667
0.686653
0.699566
0.734959
0.694453
0.368051
0.690801
0.45979
0.392043
0.367383
0.689938
0.693455
0.452696
0.689273
0.596754
0.365526
0.675755
0.700041
0.707725
0.377696
0.36639
0.703839
0.367916
0.367813
0.382414
0.365689
0.696945
0.366855
0.688978
0.387731
0.69133
0.690576
0.687429
0.69153
0.367927
0.364769
0.695005
0.691303
0.69685
0.691277
0.694297
0.517903
0.356507
0.377465
0.685941
0.569802
0.366181
0.512077
0.372953
0.689717
0.687627
0.4511
0.397317
0.688583
0.500021
0.690316
0.784094
0.370161
0.477827
0.694146
1.12532
0.374512
0.686291
0.687301
0.694441
0.359879
1.12719
0.362057
1.11843
0.736765
0.367803
0.468885
0.406189
1.11474
0.374647
0.361747
0.483918
0.684559
0.702688
0.362167
0.414846
0.366843
0.679786
0.391133
0.685695
0.372288
0.585992
0.694392
0.426966
0.373984
0.373704
0.519027
0.37755
0.686229
0.353146
0.371795
0.68738
0.368513
0.687156
0.68589
1.09997
0.367637
0.697756
0.697144
0.697228
0.686114
0.690514
0.687984
0.381841
0.679792
0.492858
0.694332
0.362428
0.690697
0.56279
0.363221
0.900094
0.706654
0.36542
0.677824
0.369111
0.386487
0.687465
0.687269
0.371305
0.376915
0.362662
0.381121
0.690097
0.699285
0.360331
0.36243
0.704281
0.688743
0.587465
0.696643
0.687679
0.364432
0.69588
0.496347
0.690625
0.482411
0.624451
0.515076
0.68747
0.711734
0.57571
0.461078
0.377483
0.687254
0.58995
0.655302
0.696476
0.381788
0.706332
0.694371
0.478259
0.542636
0.696985
0.430735
0.774644
0.732325
0.452747
0.688853
0.697398
0.373957
0.703547
0.37604
0.687131
0.358807
0.68705
0.686242
0.378631
0.685821
0.697176
0.704792
0.597317
0.700203
0.576255
0.425009
0.502427
0.367894
0.361276
1.12683
0.558933
0.688197
0.702582
0.367739
0.401928
0.701361
0.69439
0.701478
0.690955
0.363893
0.704391
0.694131
0.362505
0.366668
0.702157
0.693903
0.688651
0.379393
0.578636
0.380182
0.704261
0.685795
0.667089
0.692131
0.365993
0.696026
0.68686
0.698878
0.687215
0.693391
0.491872
0.7096
0.366635
0.679695
0.694667
0.508489
0.688219
0.661738
0.69041
0.503851
0.487305
0.578154
0.721101
0.367899
0.367866
0.365478
0.365645
0.692521
0.706163
0.666307
0.444762
0.365092
0.687801
0.710904
0.36721
0.405044
0.512736
0.701166
0.687469
0.68943
0.71433
0.366659
0.367898
1.12676
0.364423
0.366769
0.353226
0.688189
0.379752
0.367804
0.586397
0.694563
0.681601
0.686339
0.687829
0.356804
0.375859
0.365674
0.580937
0.501368
0.368858
0.712907
0.713944
0.688063
0.694208
0.36529
0.367761
0.694596
0.367627
0.693156
0.685866
1.00646
0.371424
0.367884
0.686892
0.914729
0.664746
0.367666
0.690127
0.686328
0.586647
0.690177
0.690466
1.12685
0.681725
0.364082
0.687834
0.781792
0.676913
0.705187
1.12681
0.682217
1.127
0.688685
0.371313
0.379225
0.367784
0.895916
0.565375
0.367696
0.700834
0.70482
0.366099
0.682232
0.38049
0.685539
0.571869
0.412341
0.693797
0.700143
0.366525
0.553456
0.870376
0.36683
0.688077
0.358732
0.389229
0.676951
0.594454
0.524392
0.692692
0.364346
0.701193
0.386052
0.346564
0.687084
0.365992
0.6786
0.373228
0.681716
0.60291
1.12667
0.686821
0.381992
0.373468
0.676333
0.549798
0.701386
0.533938
0.673286
0.68734
0.699072
0.554336
0.594835
0.681893
0.696801
0.688275
0.461181
0.367833
0.550965
0.682126
0.69685
0.455634
0.692622
0.66519
0.451827
0.371671
0.729293
0.702791
1.1268
1.1192
0.674042
0.709591
0.686681
0.708198
0.375898
0.742704
0.511547
0.688667
0.693487
0.447079
0.691441
0.693495
0.376248
0.403852
0.354819
1.12682
0.364033
0.677313
0.707609
0.744287
0.431631
0.689856
0.366062
0.579425
0.682613
0.670509
0.713447
0.679241
0.631834
0.707338
0.575563
0.693771
0.359266
0.690703
0.687283
0.538947
1.12676
0.705746
0.376044
0.383161
0.367288
0.689601
0.367815
1.12669
0.364813
0.690692
0.363093
0.515516
0.379183
0.708482
0.691009
0.655812
0.424274
0.67064
0.681136
0.366997
0.588057
0.691249
0.366653
0.588098
1.04151
0.694331
0.692994
0.377037
0.564762
0.702848
0.693341
0.680228
0.367818
0.48398
0.69028
1.12673
1.12541
1.12671
0.633105
0.699534
0.614285
0.68874
0.367813
0.366297
1.12672
0.693977
0.686022
0.35694
0.691338
0.661267
0.671923
0.361286
0.487753
0.690758
0.689313
0.572054
0.401175
0.695187
1.12609
0.363809
0.594498
0.714732
0.363963
0.358561
0.374799
0.680345
0.397346
0.36808
0.689879
0.538056
0.696209
0.687699
0.363484
0.357106
0.691437
0.375571
0.369507
0.907194
0.392464
0.46573
0.590263
0.690491
0.69814
0.365382
0.382935
0.365084
0.686345
0.389373
0.698321
0.368872
0.70047
0.688574
0.690692
0.682446
0.696102
0.685374
0.687578
0.691322
0.700367
0.365288
0.366479
0.694213
0.686917
0.525809
0.680757
0.577667
0.68594
0.675576
0.378493
0.688215
0.69217
0.693011
0.365341
0.696569
0.378655
0.696928
0.518984
0.701199
0.685977
0.413857
0.702155
0.366549
0.519531
0.687479
0.353262
0.710896
1.12687
0.690697
0.356537
0.687403
0.365967
0.37058
0.373346
0.367227
0.673392
0.387712
0.681287
0.664598
0.403857
0.375145
0.516134
0.577722
0.681662
0.681214
0.367658
0.354719
0.364434
0.378502
0.419776
0.679525
0.683241
0.378222
0.675462
0.706688
0.372976
0.692466
0.712152
0.673225
0.365943
1.12419
0.699954
0.709162
0.68899
0.394742
0.698751
0.707338
0.697066
0.731386
0.687484
0.415006
0.37383
0.69656
0.547706
0.36783
0.686987
0.377286
0.568572
0.676795
0.68721
0.687717
0.369864
0.680156
0.455722
0.365502
0.705652
0.704924
0.698785
0.690051
0.701871
0.370761
0.69263
0.394809
0.524796
0.691842
1.10514
0.702252
0.365448
0.409734
0.694569
0.430296
0.703762
0.670639
0.501016
0.418489
0.688262
0.37407
0.68606
0.703721
0.695338
0.373917
0.379833
0.54379
0.573945
0.678581
0.532956
0.687625
0.681293
0.687265
1.12685
0.701365
0.36115
0.414444
0.702078
0.687024
0.679837
0.50673
0.362631
0.701269
0.382341
0.687679
0.596203
0.39112
0.70157
0.364309
0.688826
0.370696
0.694614
0.406487
0.69655
0.683142
0.344213
0.688181
0.712544
0.35784
0.665164
0.692059
0.579184
0.375095
0.452166
0.531394
0.697261
0.67597
0.398645
0.576552
0.702144
0.687352
0.433735
0.673146
0.690157
0.498297
0.687759
0.687566
0.44544
0.699894
1.05445
0.368405
0.675721
0.358994
0.684376
0.36038
0.390817
0.697548
0.367843
0.367005
0.379428
0.687538
0.688201
0.46889
0.695179
0.455354
0.695554
0.366158
0.689298
0.437991
0.687364
0.6971
0.690406
0.666527
0.555058
0.683742
0.672281
0.375311
0.646807
0.693897
0.624345
0.700892
0.519268
0.487886
0.692351
0.366616
0.579004
0.381108
0.693117
0.363789
0.375477
0.700473
0.687804
0.363639
0.68884
0.713484
1.12681
0.690585
1.11863
0.36441
0.692914
0.365518
0.375401
0.687231
0.713128
0.69113
0.688381
0.378494
0.359584
0.364827
0.690677
0.663281
0.452782
0.690947
0.35636
0.358085
0.35831
0.686434
0.483433
0.693262
0.70055
0.61145
0.687043
0.699601
0.630431
0.684289
0.494324
0.363209
0.364114
1.12023
1.12581
0.358532
0.678995
0.679106
0.68579
0.37684
0.507909
0.682034
0.403355
0.680533
0.671515
0.366326
0.68017
0.693018
0.367849
0.697713
0.367447
0.688276
0.695358
0.695948
0.384099
0.506452
0.710989
0.449586
0.49619
0.686803
0.454497
0.68016
0.688251
0.685068
0.710978
0.39623
0.94046
0.7067
0.692998
0.469749
0.689814
0.389906
0.372065
0.689697
0.687524
0.664264
0.358519
0.686471
0.59403
1.12489
0.354913
0.359047
0.367912
0.68961
0.364021
0.368697
0.372233
0.67141
0.368645
0.44579
0.49674
0.698175
0.367484
0.655898
0.680458
0.687918
0.355528
0.699085
0.726563
0.674491
0.489525
0.734663
0.364391
0.366949
0.687311
0.363442
0.67796
0.702823
1.12666
0.367547
0.455881
0.365579
0.561796
1.12669
0.359166
0.69129
0.687538
0.707195
0.366555
0.392325
0.460223
0.676099
0.367109
1.12685
0.592703
0.681432
0.69018
0.363306
0.678947
0.380153
0.669892
0.687718
0.694556
0.66904
0.639005
0.730565
0.680313
0.699846
0.362011
0.421992
0.355291
0.701659
0.57129
1.09953
0.367368
0.489849
0.710052
0.698785
0.710429
0.363943
0.688205
0.56065
0.564144
0.676836
0.376759
0.364152
0.447067
0.687562
0.670771
0.737024
0.681552
0.461028
0.690741
0.747615
0.673694
0.666279
0.690534
0.69258
0.686245
0.711585
0.700599
0.377293
0.698591
0.690095
0.688236
0.700591
0.687382
0.667244
0.365799
0.387004
0.677985
0.367805
0.398585
0.68828
0.38026
0.590824
0.687476
0.689368
0.693208
0.377263
0.688683
0.373713
0.363001
0.686317
0.698383
0.693619
0.353673
0.690728
0.692933
0.678141
0.687675
0.392018
0.688329
0.694625
0.693886
0.448857
0.698868
0.365546
0.688713
0.354416
0.366221
0.659907
0.509083
0.693867
0.70144
0.691451
0.371974
0.688089
0.471108
0.382852
0.684718
0.51582
0.367763
0.693374
0.400634
0.530009
0.72205
0.683436
0.688277
0.517595
0.585169
0.72155
0.685487
0.667752
0.698988
0.548756
0.6899
0.681411
0.707763
0.378454
0.363263
0.507169
0.689944
0.376247
0.73539
0.688678
0.679264
0.685702
0.647081
0.712663
0.708269
0.365773
0.68886
0.678887
0.644757
0.678955
0.693929
0.686369
0.68737
0.366631
0.375529
0.695403
0.57402
0.644798
0.68872
0.696565
0.695907
0.697403
0.695699
0.680849
0.680828
0.694691
0.37482
0.386012
0.365364
0.386205
1.12648
0.521546
0.61087
0.701017
0.708965
0.376103
0.693603
0.688829
0.352922
0.479079
1.12585
0.692191
0.377569
0.376989
0.382378
1.12686
0.685919
0.451216
0.361586
0.365737
0.397217
0.425571
0.367804
0.691638
0.697105
0.701262
0.362482
0.689504
0.67433
0.594244
0.42429
0.362841
0.684663
1.12687
0.367719
0.687529
0.367831
0.700273
0.377058
0.687938
0.359369
0.68835
0.691178
0.357236
0.565395
0.426498
0.692421
0.38962
0.675251
0.377386
0.556369
0.364632
0.672505
0.367121
0.679449
0.667315
0.594106
0.695677
0.425423
0.689091
0.685646
0.690906
0.675008
0.696666
0.363201
0.503291
0.356709
0.69824
0.431232
0.695105
0.56101
0.713671
0.694184
0.567541
0.709327
0.384114
0.361867
0.374699
0.553101
0.661531
0.695975
0.366451
0.406804
0.686948
0.479622
0.37468
0.665492
0.475961
0.367794
0.38492
0.691263
0.766835
0.676286
0.369197
0.688728
0.687532
0.331743
0.454789
0.687333
0.687861
0.668984
0.533495
0.488514
0.469746
0.360324
0.689969
0.676794
0.571884
0.712815
0.391493
0.586823
0.364097
0.813192
0.693201
0.364111
0.427927
0.679517
0.664704
0.691036
0.701414
0.696771
0.688765
0.692274
0.356623
0.392105
0.355973
0.363049
0.658927
0.987533
0.765428
0.363776
0.367537
0.531206
0.35385
0.695938
0.683127
0.366968
0.447539
0.687412
0.374037
0.717689
0.705522
0.686574
0.687973
0.66089
0.367806
0.35762
0.679411
0.364577
0.510456
0.464425
0.68712
0.687386
0.437323
0.366473
1.12676
0.367053
0.687884
0.698263
0.367866
0.375734
0.361631
0.69217
0.357823
1.12683
0.706608
0.678625
0.361154
0.545781
0.703446
0.690025
0.36302
0.690507
0.678623
0.369368
0.702511
0.688968
0.36531
0.367918
0.686343
0.366586
0.36285
0.690026
0.463842
0.695541
0.710638
0.699052
0.680079
0.69572
0.688079
0.68479
0.364426
0.486939
0.682287
0.697422
0.505325
0.69306
0.450723
0.688443
0.688476
0.585811
0.714542
0.50292
0.513625
0.693771
0.704946
0.681092
0.691339
0.686783
1.12695
0.69041
1.1268
0.690149
0.685044
0.689955
1.12692
0.685093
0.368445
0.685421
0.374348
0.688199
0.696665
0.711313
0.684948
0.708832
0.374128
0.363283
0.453127
0.36318
0.686418
0.360198
0.365957
0.707426
0.372476
0.71106
0.3617
0.689582
0.698874
0.367894
0.478895
0.392986
0.689631
0.365235
0.695446
0.702249
0.364721
0.684511
0.566921
0.402916
0.377454
0.331768
0.706849
0.367913
0.688594
0.647704
0.428081
0.689645
0.693755
0.697108
0.36779
0.586309
0.378376
0.689949
0.68718
0.688061
0.367846
0.697268
0.688595
0.681465
0.492794
0.68943
0.367797
0.365605
0.687587
0.518597
0.694654
0.490764
0.367844
0.499029
0.683722
0.374914
0.366569
0.360123
0.570632
1.11388
0.700706
0.368028
0.673218
0.690836
0.560491
0.529482
0.388285
0.568184
0.367859
0.364407
0.692481
0.365953
0.367649
0.689865
0.690599
0.352955
0.701756
0.357097
1.12664
0.378475
0.685426
0.706326
0.703662
0.680421
0.38633
0.364599
0.374828
0.687248
0.685596
0.583724
0.567001
0.473829
0.44363
0.690588
0.364633
0.696101
0.475593
0.668874
0.714707
0.356425
0.366732
0.365907
0.366257
0.369965
0.679308
0.687479
0.360014
0.699791
0.688917
0.428595
0.383083
0.691002
0.367649
0.698504
0.492772
0.707316
0.725341
0.698994
1.09929
0.379137
0.695371
0.687969
0.691166
0.367813
0.677521
0.589472
0.396933
0.690062
0.687803
0.690604
0.688191
0.692488
0.687178
0.691381
0.688156
0.69235
0.368027
0.697612
0.365915
0.539551
0.686812
0.375782
0.689403
0.678387
0.407456
0.681681
0.367864
0.368677
0.687524
0.675349
0.69085
0.366097
0.687812
0.593811
0.377982
0.361033
0.687305
0.687595
0.479501
0.365824
0.708543
0.690858
0.367872
0.697327
0.691275
0.779849
0.353646
0.367814
0.374949
0.729555
0.408551
0.690831
0.702529
0.692038
0.673396
0.699047
0.366276
0.687657
0.597431
0.690941
0.668887
0.375022
0.364023
0.391583
0.699499
0.702509
0.490665
0.722871
0.384187
0.691163
0.688354
0.383537
0.678046
0.691112
0.681553
0.360661
0.35854
0.387149
0.703366
0.694674
0.590029
0.533683
0.698513
0.367653
0.68765
1.12596
0.697523
0.360021
0.597706
0.40925
0.679373
0.39405
0.69448
0.687879
0.367802
0.702841
0.542439
1.12688
0.691132
1.12685
0.689353
0.501354
0.688695
0.694358
0.687565
0.695022
0.511605
1.1267
0.363662
0.694898
0.390176
0.366646
0.400355
0.369129
0.367892
0.360078
0.691648
0.472202
0.371247
0.709297
0.703112
0.6877
0.457201
0.716794
0.715472
0.687659
0.374318
0.670134
0.687971
0.39485
0.367267
0.364695
0.683161
0.527923
0.367804
0.669291
0.359655
1.10798
0.524797
0.358022
0.513085
0.720796
0.390348
0.687692
0.387147
0.608125
0.477404
0.68966
0.482517
0.700157
1.12661
0.676977
0.52841
0.365165
0.690223
0.691758
0.369594
0.370573
0.687362
0.365912
0.699623
0.363271
0.566414
0.389738
0.687949
0.390263
0.691514
0.366179
0.688405
0.699882
0.703059
1.12634
0.363593
0.375862
0.453136
0.686584
0.70706
0.682965
0.662332
0.403107
0.708484
0.389292
0.685767
0.67304
0.486767
0.421022
0.699795
0.69393
0.377827
0.82985
0.690564
0.702029
0.699006
0.389436
0.689904
0.3668
0.703628
0.4078
0.674125
0.683893
0.690535
0.691395
0.429663
0.69018
0.367722
0.365803
0.687881
1.12593
0.577791
0.695171
1.12671
0.367611
0.701266
0.688955
0.690786
0.37104
0.503956
0.719487
0.359528
0.689443
0.688591
0.689532
0.689597
0.422149
0.527272
0.731609
0.370303
0.688259
0.691384
0.543021
0.687277
0.429555
0.680101
0.700963
0.712593
0.687956
0.358703
0.375279
0.696329
0.690094
0.402355
0.432519
0.386904
0.37321
0.370309
0.358322
0.377352
0.367811
0.696385
0.389606
0.353424
0.707635
0.578968
1.12677
0.488377
0.367089
0.690745
0.534085
0.578119
0.694703
0.478815
0.741388
0.654152
0.596038
0.690079
0.36378
0.700816
0.681523
0.365601
0.365388
0.490369
0.677415
0.596531
0.693001
0.687193
0.69789
0.691521
0.419912
0.701671
0.684048
0.688728
0.366146
0.688212
0.671184
0.415487
0.502706
0.360671
0.379241
0.370157
0.590196
0.722407
0.695119
0.364727
0.483002
0.691293
0.354106
0.703167
0.694614
0.689572
0.713063
0.698378
0.392523
0.379078
0.382259
0.64366
0.405676
0.697151
0.382762
0.687316
0.687481
0.698857
0.383815
0.524273
0.49947
0.699396
0.362826
0.364525
0.68846
0.689782
0.677366
0.687324
0.687362
0.700715
0.36781
0.597698
0.694351
0.543562
0.698367
0.705416
0.700889
0.500074
0.490154
0.691037
0.523414
0.675292
0.366886
0.68603
0.689867
0.449676
0.409757
0.689855
0.547478
0.704234
0.703361
0.367905
0.363195
1.04377
0.524483
0.46598
0.689622
0.687273
0.413061
0.690321
1.03913
0.685119
0.367941
0.590261
0.367789
0.687259
0.693945
0.702185
0.694327
0.970366
0.445802
0.44891
0.69829
0.36721
0.59463
0.424204
0.699432
0.372239
0.703642
0.696615
1.06648
0.367812
1.12681
1.12245
0.363804
0.686455
0.339036
0.69144
0.36778
0.357678
0.379183
0.700588
0.690751
0.452858
0.45156
0.684694
0.692165
0.516445
0.70479
0.367899
0.573337
0.366833
0.696649
0.364194
0.707961
0.687153