# vtk DataFile Version 1.0
unstructured grid
ascii
DATASET UNSTRUCTURED_GRID
points 13672 float
0.0796578 -0.059106 0
0.00128732 0.00159165 0
0.00227961 -0.00102548 0
0.0791586 -0.0598787 0
-0.0546216 0.01 0
0.000495206 0.025 0
0.0800549 -0.035 0
0.135172 -0.08 0
-0.0546216 -0.0451168 0
0.000495206 -0.0301168 0
0.0800549 -0.0901168 0
0.135172 -0.135117 0
-0.0546216 -0.0451168 -0.00551168
0.000495206 -0.0301168 -0.00551168
0.0800549 -0.0901168 -0.00551168
0.135172 -0.135117 -0.00551168
0.135172 -0.08 -0.00551168
0.0800549 -0.035 -0.00551168
0.000495206 0.025 -0.00551168
-0.0546216 0.01 -0.00551168
0.00128732 0.00159165 -0.00551168
0.00227961 -0.00102548 -0.00551168
0.0791586 -0.0598787 -0.00551168
0.0796578 -0.059106 -0.00551168
0.00165953 -0.000990923 0
0.00119576 -0.000874076 0
0.000866021 -0.000641801 0
0.000645147 -0.000349912 0
0.00052235 -1.7281e-05 0
0.00049972 0.000348016 0
0.000601632 0.000737716 0
0.000861774 0.0011403 0
0.00157235 0.00183217 0
0.00188647 0.00206725 0
0.00222612 0.00230203 0
0.00258713 0.00254351 0
0.00296826 0.00279524 0
0.00337118 0.00305664 0
0.00379785 0.00332658 0
0.00425045 0.00360349 0
0.00473139 0.00388521 0
0.0052432 0.00416895 0
0.0057881 0.00445204 0
0.00636753 0.00473281 0
0.00698281 0.00500961 0
0.00763526 0.00528058 0
0.00832616 0.00554366 0
0.00905691 0.00579603 0
0.00982918 0.00603333 0
0.0106445 0.00625033 0
0.0115038 0.00644128 0
0.0124073 0.00660297 0
0.0133543 0.00673414 0
0.0143444 0.00683382 0
0.0153769 0.00690031 0
0.0164512 0.00693173 0
0.0175666 0.00692547 0
0.0187219 0.00687822 0
0.0199156 0.00678477 0
0.0211454 0.00663864 0
0.0224084 0.00643275 0
0.0237018 0.00616676 0
0.0250249 0.00584739 0
0.026375 0.00547298 0
0.0277479 0.00503752 0
0.0291386 0.00453545 0
0.0305433 0.0039653 0
0.0319572 0.0033256 0
0.0333681 0.00260019 0
0.034775 0.00179799 0
0.0361793 0.000930615 0
0.0375798 3.12222e-06 0
0.0389689 -0.000988429 0
0.0403357 -0.00205109 0
0.041675 -0.00318283 0
0.0429849 -0.00437751 0
0.0442643 -0.00562904 0
0.0455126 -0.00693089 0
0.0467314 -0.00827518 0
0.0479204 -0.00965638 0
0.0490661 -0.0110799 0
0.0501515 -0.0125519 0
0.0511696 -0.0140695 0
0.0521492 -0.0156071 0
0.0531202 -0.0171411 0
0.0540851 -0.0186663 0
0.0550431 -0.0201798 0
0.0559923 -0.0216793 0
0.0569311 -0.0231626 0
0.0578582 -0.0246273 0
0.0587723 -0.0260715 0
0.0596721 -0.027493 0
0.0605563 -0.02889 0
0.0614241 -0.0302609 0
0.0622742 -0.0316042 0
0.063106 -0.0329183 0
0.0639186 -0.034202 0
0.0647113 -0.0354543 0
0.0654835 -0.0366743 0
0.0662345 -0.0378613 0
0.0669642 -0.0390145 0
0.0676726 -0.0401333 0
0.0683597 -0.0412172 0
0.0690246 -0.0422665 0
0.0696662 -0.0432819 0
0.0702841 -0.0442636 0
0.0708793 -0.0452111 0
0.0714538 -0.0461237 0
0.072009 -0.047001 0
0.0725452 -0.0478434 0
0.0730611 -0.0486524 0
0.073556 -0.0494294 0
0.0740291 -0.0501756 0
0.0744812 -0.0508916 0
0.0749138 -0.0515773 0
0.0753285 -0.0522331 0
0.0757266 -0.0528592 0
0.076109 -0.0534564 0
0.0764753 -0.0540264 0
0.0768243 -0.054571 0
0.0771553 -0.0550919 0
0.0774679 -0.0555901 0
0.0777617 -0.0560669 0
0.0780369 -0.056523 0
0.0782958 -0.0569578 0
0.0785421 -0.0573703 0
0.0787786 -0.0577603 0
0.0790073 -0.0581279 0
0.0792295 -0.058474 0
0.0794462 -0.0587995 0
0.0798803 -0.0594162 0
0.0800272 -0.0596588 0
0.0800357 -0.0598891 0
0.0799275 -0.0600784 0
0.0797205 -0.0601773 0
0.0794593 -0.0601051 0
0.0789155 -0.0596491 0
0.0786707 -0.0593963 0
0.0784111 -0.0591319 0
0.0781372 -0.0588542 0
0.0778566 -0.0585548 0
0.0775715 -0.0582308 0
0.0772803 -0.0578828 0
0.0769832 -0.0575099 0
0.0766822 -0.0571097 0
0.0763801 -0.0566796 0
0.0760759 -0.0562196 0
0.0757623 -0.0557337 0
0.0754359 -0.0552232 0
0.0750951 -0.0546879 0
0.0747379 -0.054128 0
0.0743626 -0.0535435 0
0.0739688 -0.0529338 0
0.0735559 -0.0522981 0
0.0731238 -0.0516357 0
0.0726718 -0.050946 0
0.0721991 -0.0502288 0
0.0717046 -0.049484 0
0.0711872 -0.0487117 0
0.0706461 -0.047912 0
0.0700804 -0.0470849 0
0.0694892 -0.0462308 0
0.0688718 -0.0453499 0
0.0682271 -0.0444431 0
0.0675544 -0.043511 0
0.0668527 -0.0425546 0
0.0661215 -0.0415748 0
0.06536 -0.040573 0
0.0645676 -0.0395504 0
0.0637439 -0.0385087 0
0.0628887 -0.0374493 0
0.062002 -0.0363741 0
0.0610838 -0.0352847 0
0.0601345 -0.0341831 0
0.0591547 -0.033071 0
0.0581456 -0.0319502 0
0.0571083 -0.0308224 0
0.0560444 -0.0296893 0
0.0549562 -0.028552 0
0.053845 -0.0274126 0
0.0527113 -0.0262746 0
0.051554 -0.0251427 0
0.0503724 -0.0240222 0
0.0491675 -0.0229164 0
0.047941 -0.0218282 0
0.0466955 -0.0207597 0
0.0454337 -0.0197126 0
0.0441592 -0.0186878 0
0.0428751 -0.0176863 0
0.0415841 -0.0167097 0
0.0402878 -0.0157609 0
0.0389879 -0.0148428 0
0.0376864 -0.0139575 0
0.0363853 -0.013107 0
0.0350871 -0.0122931 0
0.0337942 -0.0115164 0
0.0325095 -0.0107772 0
0.0312357 -0.0100756 0
0.0299758 -0.00941024 0
0.0287337 -0.00877784 0
0.0275126 -0.00817571 0
0.0263139 -0.00760375 0
0.0251376 -0.00706528 0
0.0239829 -0.0065649 0
0.0228537 -0.00609619 0
0.0217522 -0.00565563 0
0.0206795 -0.00524226 0
0.0196364 -0.00485507 0
0.0186233 -0.00449318 0
0.0176408 -0.00415577 0
0.016689 -0.00384204 0
0.0157682 -0.00355115 0
0.0148783 -0.00328218 0
0.0140192 -0.00303468 0
0.0131906 -0.00280795 0
0.0123925 -0.00260016 0
0.0116246 -0.00241012 0
0.0108864 -0.00223769 0
0.0101774 -0.00208212 0
0.00949701 -0.00194206 0
0.00884483 -0.0018163 0
0.0082202 -0.0017039 0
0.00762247 -0.00160391 0
0.00705097 -0.00151528 0
0.006505 -0.00143697 0
0.0059838 -0.00136806 0
0.00548662 -0.00130772 0
0.00501265 -0.00125519 0
0.00456114 -0.00120954 0
0.00413136 -0.00116914 0
0.00372257 -0.00113251 0
0.00333398 -0.00109853 0
0.00296466 -0.00106798 0
0.00261363 -0.0010431 0
-0.052721 -0.0445996 0
-0.0508204 -0.0440823 0
-0.0489199 -0.0435651 0
-0.0470193 -0.0430478 0
-0.0451187 -0.0425306 0
-0.0432181 -0.0420134 0
-0.0413175 -0.0414961 0
-0.039417 -0.0409789 0
-0.0375164 -0.0404616 0
-0.0356158 -0.0399444 0
-0.0337152 -0.0394271 0
-0.0318146 -0.0389099 0
-0.0299141 -0.0383927 0
-0.0280135 -0.0378754 0
-0.0261129 -0.0373582 0
-0.0242123 -0.0368409 0
-0.0223117 -0.0363237 0
-0.0204112 -0.0358065 0
-0.0185106 -0.0352892 0
-0.01661 -0.034772 0
-0.0147094 -0.0342547 0
-0.0128088 -0.0337375 0
-0.0109083 -0.0332202 0
-0.00900769 -0.032703 0
-0.00710711 -0.0321858 0
-0.00520653 -0.0316685 0
-0.00330595 -0.0311513 0
-0.00140537 -0.030634 0
0.00190689 -0.0299614 0
0.00332271 -0.0298498 0
0.00474133 -0.0297825 0
0.00616136 -0.0297597 0
0.0075814 -0.0297814 0
0.00900007 -0.0298477 0
0.010416 -0.0299583 0
0.0118278 -0.0301127 0
0.0132342 -0.0303103 0
0.0146339 -0.0305504 0
0.0160259 -0.0308322 0
0.0174091 -0.0311546 0
0.0187824 -0.0315166 0
0.020145 -0.031917 0
0.0214961 -0.0323546 0
0.0228351 -0.032828 0
0.0241613 -0.0333361 0
0.0254744 -0.0338774 0
0.0267738 -0.0344507 0
0.0280592 -0.0350545 0
0.0293306 -0.0356877 0
0.0305875 -0.0363488 0
0.0318301 -0.0370367 0
0.0330581 -0.0377501 0
0.0342717 -0.0384879 0
0.0354708 -0.0392489 0
0.0366556 -0.0400321 0
0.0378262 -0.0408363 0
0.0389828 -0.0416607 0
0.0401254 -0.0425042 0
0.0412543 -0.0433659 0
0.0423698 -0.0442451 0
0.043472 -0.0451408 0
0.0445612 -0.0460523 0
0.0456375 -0.0469789 0
0.0467013 -0.0479199 0
0.0477529 -0.0488746 0
0.0487923 -0.0498424 0
0.04982 -0.0508227 0
0.0508362 -0.051815 0
0.051841 -0.0528187 0
0.0528348 -0.0538333 0
0.0538178 -0.0548584 0
0.0547903 -0.0558935 0
0.0557524 -0.0569382 0
0.0567045 -0.0579922 0
0.0576467 -0.0590549 0
0.0585792 -0.0601261 0
0.0595024 -0.0612055 0
0.0604163 -0.0622926 0
0.0613212 -0.0633873 0
0.0622174 -0.0644891 0
0.0631049 -0.0655979 0
0.0639841 -0.0667134 0
0.064855 -0.0678353 0
0.0657179 -0.0689633 0
0.0665729 -0.0700974 0
0.0674202 -0.0712372 0
0.06826 -0.0723826 0
0.0690925 -0.0735333 0
0.0699178 -0.0746892 0
0.070736 -0.0758501 0
0.0715473 -0.0770159 0
0.0723518 -0.0781863 0
0.0731498 -0.0793612 0
0.0739412 -0.0805405 0
0.0747264 -0.081724 0
0.0755053 -0.0829116 0
0.0762781 -0.0841033 0
0.0770449 -0.0852987 0
0.0778059 -0.0864979 0
0.0785611 -0.0877007 0
0.0793108 -0.088907 0
0.0814681 -0.0912706 0
0.0828814 -0.0924245 0
0.0842946 -0.0935783 0
0.0857079 -0.0947322 0
0.0871211 -0.095886 0
0.0885344 -0.0970399 0
0.0899476 -0.0981937 0
0.0913609 -0.0993476 0
0.0927741 -0.100501 0
0.0941874 -0.101655 0
0.0956006 -0.102809 0
0.0970139 -0.103963 0
0.0984272 -0.105117 0
0.0998404 -0.106271 0
0.101254 -0.107424 0
0.102667 -0.108578 0
0.10408 -0.109732 0
0.105493 -0.110886 0
0.106907 -0.11204 0
0.10832 -0.113194 0
0.109733 -0.114348 0
0.111146 -0.115501 0
0.11256 -0.116655 0
0.113973 -0.117809 0
0.115386 -0.118963 0
0.116799 -0.120117 0
0.118213 -0.121271 0
0.119626 -0.122424 0
0.121039 -0.123578 0
0.122452 -0.124732 0
0.123866 -0.125886 0
0.125279 -0.12704 0
0.126692 -0.128194 0
0.128105 -0.129348 0
0.129519 -0.130501 0
0.130932 -0.131655 0
0.132345 -0.132809 0
0.133758 -0.133963 0
0.135172 -0.133216 0
0.135172 -0.131316 0
0.135172 -0.129415 0
0.135172 -0.127514 0
0.135172 -0.125614 0
0.135172 -0.123713 0
0.135172 -0.121813 0
0.135172 -0.119912 0
0.135172 -0.118012 0
0.135172 -0.116111 0
0.135172 -0.11421 0
0.135172 -0.11231 0
0.135172 -0.110409 0
0.135172 -0.108509 0
0.135172 -0.106608 0
0.135172 -0.104708 0
0.135172 -0.102807 0
0.135172 -0.100906 0
0.135172 -0.0990058 0
0.135172 -0.0971052 0
0.135172 -0.0952046 0
0.135172 -0.0933041 0
0.135172 -0.0914035 0
0.135172 -0.0895029 0
0.135172 -0.0876023 0
0.135172 -0.0857017 0
0.135172 -0.0838012 0
0.135172 -0.0819006 0
0.133758 -0.0788462 0
0.132345 -0.0776923 0
0.130932 -0.0765385 0
0.129519 -0.0753846 0
0.128105 -0.0742308 0
0.126692 -0.0730769 0
0.125279 -0.0719231 0
0.123866 -0.0707692 0
0.122452 -0.0696154 0
0.121039 -0.0684615 0
0.119626 -0.0673077 0
0.118213 -0.0661538 0
0.116799 -0.065 0
0.115386 -0.0638462 0
0.113973 -0.0626923 0
0.11256 -0.0615385 0
0.111146 -0.0603846 0
0.109733 -0.0592308 0
0.10832 -0.0580769 0
0.106907 -0.0569231 0
0.105493 -0.0557692 0
0.10408 -0.0546154 0
0.102667 -0.0534615 0
0.101254 -0.0523077 0
0.0998404 -0.0511538 0
0.0984272 -0.05 0
0.0970139 -0.0488462 0
0.0956006 -0.0476923 0
[...]
CELL_DATA 13116
SCALARS rho float
LOOKUP_TABLE default
0.573784
0.693848
0.346116
0.709422
0.707886
0.681062
0.295545
0.712463
0.522326
0.706961
0.310531
0.300831
0.708045
0.303742
0.29786
0.686252
0.568411
0.692667
0.711039
0.303424
0.568388
0.333578
0.313928
0.696763
0.593026
0.711907
0.706859
0.346206
0.573314
0.638115
0.567877
0.301536
0.544821
0.444377
0.301372
0.572513
0.667886
0.7104
0.63269
0.710901
0.707979
0.712114
0.449067
0.337103
0.711461
0.711248
0.694519
0.711458
0.31251
0.507337
0.711453
0.453544
0.287658
0.563073
0.544967
0.575489
0.335129
0.696581
0.517282
0.288936
0.305105
0.708719
0.693313
0.619734
0.568595
0.313082
0.706651
0.667699
0.709601
0.575482
0.301362
0.558688
0.340206
0.320732
0.562298
0.335009
0.668019
0.7101
0.300552
0.68851
0.682509
0.710757
0.698678
0.711441
0.710929
0.401269
0.301016
0.656938
0.712135
0.326013
0.303028
0.694908
0.700924
0.713113
0.647426
0.596571
0.594704
0.562461
0.56306
0.574485
0.661711
0.663469
0.708866
0.419912
0.696534
0.290817
0.346043
0.487265
0.332574
0.584141
0.515845
0.707165
0.593462
0.682493
0.689311
0.707057
0.303124
0.380028
0.710978
0.708851
0.666294
0.346746
0.709843
0.302503
0.7132
0.425378
0.301423
0.487189
0.331717
0.507237
0.711029
0.703711
0.4639
0.324407
0.444143
0.613921
0.560004
0.710623
0.660386
0.708879
0.658364
0.695674
0.488325
0.660728
0.682579
0.299755
0.303037
0.709936
0.70622
0.711732
0.510994
0.711499
0.711356
0.328149
0.705853
0.711466
0.316036
0.668432
0.562961
0.655662
0.696345
0.307724
0.699877
0.319205
0.352033
0.709531
0.712835
0.692048
0.297513
0.423558
0.393821
0.560127
0.290726
0.475513
0.706054
0.312194
0.321556
0.340484
0.706216
0.681739
0.309333
0.412282
0.539152
0.666482
0.687031
0.517597
0.322381
0.704998
0.698078
0.445761
0.653477
0.709563
0.5777
0.3117
0.706862
0.6789
0.703955
0.706554
0.711866
0.399218
0.420692
0.59163
0.482237
0.31674
0.705772
0.710254
0.459933
0.604391
0.272402
0.317543
0.334578
0.704375
0.316451
0.309462
0.321629
0.329359
0.367784
0.632506
0.713074
0.389045
0.331706
0.706286
0.51031
0.30987
0.51452
0.707972
0.681192
0.346062
0.706016
0.363035
0.713304
0.302157
0.580071
0.545649
0.561757
0.712126
0.590674
0.297472
0.422688
0.653106
0.561958
0.677812
0.560155
0.597199
0.712924
0.323972
0.71114
0.706799
0.562884
0.314818
0.315585
0.711085
0.711243
0.574159
0.710815
0.566903
0.679327
0.309906
0.306073
0.390676
0.274361
0.692126
0.703764
0.66786
0.299811
0.711438
0.316149
0.397521
0.697101
0.321587
0.711147
0.711398
0.56164
0.696567
0.29691
0.561533
0.68713
0.562891
0.710681
0.30268
0.304169
0.314543
0.6112
0.347091
0.330647
0.328702
0.32803
0.706839
0.281521
0.712144
0.709493
0.313103
0.304286
0.314894
0.428087
0.353918
0.656359
0.64376
0.703247
0.321985
0.706235
0.546736
0.310933
0.293627
0.646869
0.711343
0.705827
0.323718
0.685119
0.425754
0.704016
0.711767
0.711401
0.711759
0.313655
0.705741
0.270061
0.699425
0.707564
0.648748
0.311367
0.328093
0.707304
0.311888
0.70261
0.708839
0.37783
0.677988
0.698348
0.311262
0.711578
0.70086
0.286069
0.711105
0.392637
0.533548
0.714224
0.402167
0.669466
0.301406
0.694474
0.331571
0.608453
0.67686
0.704538
0.34413
0.352051
0.711219
0.327109
0.707113
0.700599
0.40817
0.56028
0.3253
0.338218
0.709183
0.518682
0.668686
0.304837
0.317329
0.7111
0.709369
0.307757
0.710664
0.304734
0.28982
0.708044
0.713777
0.493555
0.332852
0.711129
0.566921
0.686707
0.711759
0.701232
0.512976
0.380435
0.271
0.308085
0.682094
0.308444
0.538784
0.377863
0.307304
0.348071
0.501174
0.140503
0.327401
0.711004
0.305934
0.700754
0.576348
0.710687
0.647459
0.71121
0.339746
0.305046
0.401206
0.369944
0.707272
0.590457
0.709342
0.576288
0.682737
0.617723
0.710332
0.642634
0.636205
0.70174
0.687286
0.665273
0.394429
0.4632
0.571241
0.33362
0.641767
0.575845
0.290811
0.706605
0.561641
0.314672
0.304884
0.316854
0.320402
0.59858
0.305079
0.312214
0.705109
0.316806
0.547891
0.325446
0.689239
0.689213
0.360559
0.324782
0.708772
0.42642
0.328648
0.318799
0.326341
0.331276
0.306448
0.305306
0.339447
0.399008
0.314547
0.662336
0.365326
0.711663
0.390949
0.301836
0.458738
0.297103
0.324936
0.298409
0.710438
0.409193
0.614105
0.497622
0.315366
0.607198
0.712258
0.400346
0.677357
0.623516
0.624884
0.308031
0.562314
0.37937
0.699918
0.565281
0.323962
0.276037
0.696809
0.373331
0.402931
0.678447
0.348418
0.667117
0.68621
0.305394
0.320099
0.285381
0.472454
0.294028
0.285417
0.292564
0.27319
0.709903
0.709306
0.433159
0.577238
0.44565
0.7055
0.356726
0.321083
0.525314
0.325441
0.70862
0.320372
0.362446
0.459063
0.711534
0.712423
0.525445
0.378051
0.276283
0.526922
0.71229
0.58609
0.523804
0.693435
0.69093
0.314374
0.688284
0.541916
0.65115
0.331764
0.355282
0.681551
0.703417
0.645446
0.707782
0.70993
0.712508
0.695106
0.648885
0.710442
0.315851
0.711598
0.323857
0.277678
0.314306
0.709059
0.710701
0.31089
0.710934
0.588435
0.312663
0.606468
0.711416
0.697814
0.344888
0.323775
0.709511
0.330242
0.328288
0.291717
0.314915
0.706607
0.284309
0.708974
0.362374
0.692694
0.711388
0.708402
0.708938
0.330877
0.305461
0.710315
0.713202
0.66782
0.709837
0.70652
0.448698
0.310367
0.329242
0.702607
0.518717
0.316813
0.426304
0.306945
0.713402
0.705308
0.331222
0.337548
0.711117
0.409642
0.711025
0.634345
0.329463
0.365189
0.666161
0.561669
0.320943
0.712076
0.712917
0.710411
0.330652
0.560283
0.329383
0.561503
0.649914
0.333199
0.366583
0.330849
0.561445
0.335195
0.293866
0.381513
0.616132
0.700521
0.295569
0.303032
0.320434
0.610965
0.342977
0.683408
0.300435
0.56162
0.707877
0.391689
0.317631
0.315251
0.449233
0.331083
0.71209
0.326805
0.318324
0.67527
0.270275
0.702932
0.700487
0.561792
0.316739
0.709097
0.701614
0.703882
0.704099
0.714071
0.707673
0.300624
0.574649
0.391662
0.706599
0.301975
0.712759
0.497841
0.290937
0.565677
0.704538
0.324057
0.640316
0.303433
0.308844
0.704989
0.710556
0.305451
0.29985
0.298396
0.299345
0.713694
0.696756
0.328431
0.307988
0.706645
0.710144
0.56432
0.701508
0.704078
0.3078
0.70496
0.399888
0.711419
0.386146
0.586889
0.439193
0.705279
0.670071
0.54452
0.349284
0.340006
0.707526
0.571298
0.559559
0.701034
0.272752
0.689324
0.705529
0.345538
0.461426
0.702549
0.373884
0.568248
0.654036
0.325361
0.709989
0.645679
0.347514
0.698088
0.313533
0.710568
0.338001
0.703761
0.692969
0.337496
0.630017
0.700319
0.708532
0.590608
0.693791
0.547319
0.339778
0.423471
0.300626
0.318688
0.559848
0.517715
0.709781
0.706073
0.312317
0.354415
0.697653
0.70802
0.70843
0.711535
0.306381
0.687026
0.706961
0.303704
0.288118
0.710789
0.711253
0.710767
0.296792
0.552476
0.362304
0.696331
0.701779
0.584183
0.700733
0.316211
0.702491
0.712023
0.700096
0.711211
0.705945
0.38747
0.701361
0.318276
0.67605
0.707101
0.423346
0.686068
0.59152
0.711396
0.42727
0.403642
0.549685
0.636608
0.329638
0.3336
0.322994
0.315182
0.692189
0.688793
0.59065
0.32876
0.312841
0.70963
0.668901
0.288527
0.353775
0.429202
0.673023
0.706472
0.711799
0.691527
0.318323
0.329732
0.560832
0.302085
0.309276
0.329879
0.702266
0.360265
0.330842
0.569544
0.708809
0.70563
0.658652
0.70377
0.30511
0.280223
0.322494
0.505323
0.408612
0.302671
0.667426
0.689383
0.707802
0.708957
0.298564
0.32088
0.707612
0.321471
0.704633
0.693574
0.564392
0.305602
0.32634
0.709338
0.565894
0.595711
0.286042
0.711238
0.66675
0.566548
0.711654
0.711961
0.561135
0.692293
0.306966
0.702964
0.57041
0.654301
0.695584
0.559856
0.707207
0.56058
0.710655
0.316715
0.321276
0.321624
0.568258
0.499646
0.32301
0.698311
0.706061
0.299906
0.644275
0.364201
0.653159
0.491754
0.304461
0.708367
0.695666
0.318325
0.510399
0.568132
0.325649
0.713054
0.311731
0.289125
0.61494
0.588626
0.458821
0.709433
0.324952
0.700049
0.325652
0.298065
0.702506
0.316044
0.599256
0.306526
0.64572
0.586945
0.560738
0.712561
0.269877
0.320059
0.668066
0.453858
0.708013
0.453024
0.590439
0.683144
0.699637
0.461759
0.581463
0.70626
0.704299
0.707775
0.333349
0.332905
0.50391
0.706735
0.704206
0.376539
0.708689
0.596612
0.399595
0.305421
0.650459
0.672538
0.56026
0.561233
0.676047
0.686129
0.635781
0.676061
0.305326
0.642404
0.42803
0.710609
0.711267
0.317788
0.714714
0.708787
0.330307
0.285107
0.312991
0.559889
0.305891
0.612577
0.699544
0.642464
0.30464
0.709408
0.31297
0.55315
0.615407
0.582188
0.665765
0.608375
0.601746
0.681621
0.521479
0.706476
0.337588
0.702043
0.708371
0.439358
0.56073
0.691613
0.315624
0.269347
0.327404
0.711398
0.334136
0.560835
0.320546
0.712573
0.274782
0.439275
0.303694
0.69925
0.711338
0.565615
0.259508
0.603728
0.645461
0.316813
0.564877
0.709191
0.302124
0.577082
0.564367
0.707884
0.706375
0.322913
0.484311
0.707998
0.711081
0.675996
0.331271
0.398767
0.711327
0.560537
0.561645
0.560275
0.559326
0.703871
0.55385
0.709973
0.331149
0.314476
0.560333
0.7078
0.629933
0.314714
0.703651
0.572518
0.611567
0.337802
0.384151
0.710536
0.711067
0.53318
0.376409
0.709727
0.56093
0.297379
0.590307
0.691282
0.300578
0.30144
0.265551
0.701488
0.341628
0.315741
0.711738
0.459035
0.704815
0.648677
0.29347
0.3089
0.7102
0.328074
0.307813
0.566933
0.293111
0.358512
0.580536
0.714069
0.708023
0.313152
0.37207
0.312212
0.700485
0.291519
0.708553
0.288111
0.700121
0.713181
0.711592
0.697515
0.699777
0.701182
0.705749
0.708925
0.709848
0.283929
0.319296
0.694712
0.637685
0.462215
0.701947
0.541654
0.628241
0.653892
0.357977
0.708089
0.708912
0.707661
0.316495
0.702241
0.355789
0.711241
0.450786
0.69019
0.705446
0.30495
0.706186
0.318703
0.438565
0.692519
0.330743
0.670245
0.559844
0.713382
0.322589
0.704681
0.316557
0.304985
0.30756
0.321459
0.656373
0.282698
0.658189
0.604256
0.376404
0.312288
0.443207
0.548216
0.626961
0.682367
0.316757
0.311187
0.304816
0.303765
0.260093
0.63053
0.708837
0.34918
0.608675
0.699487
0.268122
0.708621
0.66732
0.615373
0.319189
0.561375
0.692696
0.702555
0.711155
0.298624
0.707622
0.70463
0.702662
0.649028
0.674602
0.326845
0.308272
0.711596
0.500027
0.329669
0.701407
0.310136
0.534321
0.633617
0.710043
0.710748
0.304033
0.701262
0.390031
0.31726
0.680767
0.70813
0.704568
0.711151
0.663345
0.30552
0.708378
0.286872
0.461057
0.709603
0.563064
0.708068
0.315496
0.310511
0.707116
0.318947
0.709591
0.626357
0.407119
0.339587
0.708789
0.306868
0.705761
0.709325
0.667833
0.307122
0.323241
0.480709
0.517057
0.619622
0.455342
0.685071
0.684008
0.711984
0.559723
0.699608
0.28036
0.340637
0.709975
0.671812
0.672051
0.421822
0.316185
0.685928
0.280774
0.704729
0.58566
0.376884
0.706925
0.308994
0.713501
0.346794
0.706155
0.290541
0.710156
0.674937
0.300348
0.713214
0.636612
0.302485
0.590773
0.71067
0.542232
0.296691
0.370415
0.451228
0.702181
0.677065
0.359867
0.548077
0.700801
0.670632
0.301888
0.622644
0.704036
0.407943
0.682674
0.699691
0.30191
0.710977
0.563593
0.344098
0.597468
0.318071
0.655304
0.325245
0.288523
0.703005
0.319576
0.321267
0.268078
0.705811
0.700068
0.399807
0.710071
0.367645
0.681318
0.318048
0.700337
0.376962
0.686246
0.711612
0.663732
0.590091
0.51349
0.670214
0.611038
0.347442
0.615781
0.664173
0.524754
0.699489
0.449677
0.413551
0.708298
0.312139
0.547574
0.366356
0.709159
0.288036
0.311393
0.695318
0.704293
0.305403
0.71005
0.688446
0.559877
0.711653
0.561138
0.307877
0.708415
0.306518
0.318079
0.71272
0.693268
0.712242
0.711533
0.302671
0.326434
0.310542
0.696099
0.599365
0.368295
0.714224
0.311384
0.32567
0.336485
0.712169
0.385134
0.708491
0.7095
0.613247
0.71096
0.709857
0.572853
0.665427
0.398253
0.300961
0.305008
0.561154
0.561019
0.313485
0.631057
0.70067
0.663326
0.322562
0.429281
0.68543
0.294588
0.680884
0.643602
0.308452
0.649171
0.693346
0.324519
0.708022
0.300616
0.709423
0.705384
0.70066
0.278798
0.423111
0.66954
0.306896
0.394326
0.710581
0.321502
0.658067
0.707671
0.710772
0.688205
0.383974
0.564771
0.680238
0.710995
0.350434
0.711207
0.325763
0.296154
0.71013
0.706224
0.60417
0.240597
0.705355
0.61245
0.56237
0.311761
0.302841
0.330231
0.710705
0.301669
0.27474
0.346046
0.642634
0.292242
0.320204
0.401218
0.709069
0.315793
0.591344
0.628277
0.710319
0.324259
0.711551
0.644853
0.599029
0.386337
0.647547
0.306718
0.313104
0.704046
0.304525
0.634283
0.698287
0.560654
0.312995
0.326454
0.325161
0.523668
0.560128
0.238552
0.710336
0.705568
0.690427
0.318106
0.283421
0.335258
0.68245
0.322028
0.559697
0.576757
0.638469
0.711425
0.303994
0.640132
0.301554
0.646548
0.628215
0.707899
0.627978
0.527765
0.650793
0.674268
0.710008
0.316297
0.38821
0.321681
0.689357
0.522848
0.563403
0.312604
0.386949
0.700033
0.711478
0.577709
0.304756
0.710594
0.522342
0.527302
0.678453
0.330099
0.304607
0.302296
0.706209
0.597452
0.647433
0.704792
0.335219
0.71357
0.641996
0.601124
0.595897
0.713221
0.708828
0.675726
0.694407
0.703682
0.324065
0.711427
0.711184
0.691234
0.711422
0.706939
0.610705
0.31102
0.2955
0.659943
0.329033
0.380469
0.711088
0.306512
0.613655
0.709219
0.694794
0.708223
0.319078
0.711265
0.307165
0.311798
0.681153
0.704634
0.708961
0.325457
0.710986
0.709582
0.66744
0.705111
0.333059
0.685582
0.707214
0.690816
0.396938
0.694861
0.314242
0.709911
0.334173
0.312549
0.571833
0.422044
0.708292
0.698319
0.705285
0.343108
0.680612
0.402314
0.300592
0.710661
0.443594
0.328513
0.70805
0.298339
0.471275
0.662745
0.689746
0.709398
0.445491
0.563182
0.650392
0.701527
0.611268
0.704937
0.500048
0.714212
0.704177
0.641656
0.297587
0.30229
0.418753
0.711191
0.316637
0.653591
0.710386
0.598422
0.703237
0.55105
0.672246
0.677536
0.318326
0.709804
0.699272
0.534856
0.699177
0.707756
0.712168
0.651091
0.318002
0.315508
0.706125
0.52738
0.559638
0.710142
0.711034
0.710145
0.703448
0.705112
0.617987
0.684439
0.707603
0.275907
0.304612
0.289338
0.369204
0.561329
0.438697
0.551205
0.707028
0.681904
0.320811
0.708126
0.709147
0.32619
0.366244
0.561027
0.711204
0.332267
0.296368
0.293104
0.559689
0.711641
0.400905
0.27997
0.307038
0.287097
0.367814
0.331447
0.713629
0.711587
0.695039
0.319005
0.695622
0.614289
0.580717
0.34541
0.303765
0.710578
0.560098
0.328228
0.684539
0.3234
0.695885
0.324435
0.710634
0.312703
0.707994
0.710499
0.323712
0.528711
0.327155
0.708563
0.296108
0.620221
0.309539
0.493932
0.308207
0.61435
0.316388
0.58328
0.581744
0.579948
0.699162
0.348697
0.701178
0.639369
0.710775
0.611021
0.681479
0.30404
0.425903
0.317025
0.701315
0.293249
0.708696
0.518087
0.692569
0.708023
0.484759
0.701953
0.301468
0.310453
0.278695
0.493517
0.577272
0.710612
0.320668
0.326401
0.70024
0.356096
0.306214
0.601675
0.368862
0.329667
0.295042
0.712174
0.634713
0.623739
0.317741
0.699365
0.706495
0.299819
0.314945
0.711914
0.70177
0.644437
0.476342
0.376865
0.349149
0.328502
0.713537
0.662089
0.518589
0.67888
0.275328
0.56665
0.307223
0.56737
0.709431
0.305426
0.310471
0.666256
0.597588
0.709372
0.704086
0.703355
0.710946
0.709206
0.330756
0.336427
0.323071
0.303964
0.571136
0.565021
0.636363
0.306572
0.312925
0.450995
0.301327
0.710374
0.688195
0.321211
0.335249
0.708837
0.3231
0.65047
0.701218
0.701741
0.673051
0.573711
0.32805
0.311969
0.683437
0.306035
0.429782
0.396899
0.641453
0.708976
0.300223
0.309676
0.5603
0.316615
0.704908
0.701356
0.318877
0.330727
0.27722
0.710026
0.30137
0.559821
0.694618
0.602755
0.297581
0.495524
0.709571
0.709934
0.29591
0.707397
0.659201
0.303208
0.710584
0.713176
0.314482
0.32313
0.709236
0.318917
0.302982
0.703137
0.32837
0.711552
0.671421
0.6996
0.657527
0.707666
0.707518
0.659689
0.307024
0.380372
0.673581
0.7062
0.423
0.70852
0.345621
0.710511
0.709937
0.557155
0.643316
0.425863
0.428816
0.708623
0.707506
0.703347
0.710655
0.707931
0.560734
0.71194
0.560062
0.713999
0.711078
0.713122
0.560215
0.669449
0.299499
0.711098
0.345078
0.70858
0.71128
0.696971
0.700024
0.686222
0.328542
0.327772
0.31333
0.297512
0.699547
0.306825
0.320318
0.684933
0.297064
0.693679
0.326425
0.704332
0.708126
0.318791
0.359541
0.378032
0.710961
0.323917
0.710575
0.705664
0.325416
0.710134
0.528649
0.386711
0.342436
0.299462
0.68109
0.324626
0.709914
0.548929
0.331431
0.709227
0.70852
0.703013
0.323886
0.572839
0.307246
0.696278
0.657596
0.707244
0.333517
0.705401
0.710421
0.704016
0.397269
0.711008
0.32759
0.315332
0.711958
0.434192
0.706561
0.419722
0.33227
0.406975
0.704013
0.336814
0.301056
0.338465
0.493846
0.562159
0.707429
0.29349
0.60868
0.709302
0.523508
0.44428
0.37537
0.530375
0.332763
0.309576
0.711369
0.316068
0.324005
0.711447
0.709831
0.32814
0.690966
0.331812
0.560977
0.349552
0.711396
0.57337
0.687754
0.644378
0.329584
0.310233
0.307678
0.672827
0.710298
0.56083
0.523229
0.352369
0.308605
0.697987
0.308688
0.711583
0.359871
0.581521
0.669292
0.316725
0.336855
0.315593
0.309714
0.339803
0.667893
0.698723
0.312916
0.711551
0.635715
0.337001
0.284482
0.709168
0.326575
0.709516
0.391902
0.688733
0.648497
0.711586
0.562333
0.309468
0.705291
0.709243
0.712012
0.321733
0.676485
0.570699
0.378221
0.711106
0.663868
0.714532
0.701144
0.709022
0.712252
0.711623
0.695
0.710606
0.314834
0.701221
0.315439
0.458858
0.710786
0.307786
0.708987
0.689328
0.321528
0.70312
0.321373
0.303381
0.712673
0.680159
0.709902
0.316703
0.701775
0.601672
0.350021
0.317454
0.712911
0.705864
0.365496
0.340639
0.697955
0.709411
0.328219
0.639721
0.709998
0.636102
0.318125
0.326527
0.304735
0.64886
0.294336
0.707277
0.688591
0.701044
0.619971
0.709479
0.316791
0.711233
0.590896
0.710481
0.627732
0.31042
0.30207
0.280626
0.697299
0.707057
0.389094
0.646697
0.373876
0.665471
0.708543
0.273803
0.656774
0.707737
0.62128
0.320521
0.304197
0.371111
0.709432
0.706643
0.599834
0.475957
0.711136
0.326887
0.626352
0.561898
0.704917
0.321701
0.60116
0.325501
0.695099
0.286996
0.709434
0.712844
0.316742
0.710371
0.45207
0.560209
0.64733
0.559686
0.711232
0.419291
0.694521
0.708805
0.707907
0.709847
0.435772
0.561776
0.2811
0.70937
0.277695
0.30788
0.277222
0.337712
0.331499
0.317314
0.709871
0.349625
0.280631
0.660729
0.710305
0.699858
0.401333
0.683844
0.677755
0.666228
0.302282
0.626714
0.706629
0.352478
0.342663
0.311567
0.625213
0.467778
0.317194
0.618397
0.299292
0.561471
0.460989
0.299372
0.435655
0.643101
0.372349
0.70539
0.270527
0.516274
0.364873
0.713319
0.37737
0.66225
0.561954
0.695985
0.442513
0.311823
0.713754
0.709139
0.344426
0.304844
0.678502
0.307031
0.694195
0.319844
0.529222
0.282322
0.707131
0.336678
0.709644
0.307415
0.708671
0.710514
0.708193
0.560968
0.279268
0.314071
0.39995
0.712259
0.684079
0.703637
0.582306
0.328352
0.701075
0.376083
0.709635
0.670891
0.414689
0.336968
0.70136
0.710112
0.308441
0.567857
0.714069
0.703126
0.699775
0.275121
0.628054
0.319963
0.704203
0.29564
0.619174
0.70958
0.714247
0.71014
0.334214
0.710151
0.319086
0.319403
0.704421
0.561182
0.539397
0.707537
0.561442
0.325908
0.693756
0.713281
0.711919
0.305436
0.41146
0.677879
0.307945
0.710866
0.710888
0.709532
0.713051
0.287397
0.445808
0.637886
0.315866
0.710544
0.708779
0.466909
0.712684
0.264184
0.683089
0.694246
0.666003
0.713123
0.302694
0.313155
0.710433
0.706816
0.321171
0.353165
0.33593
0.318764
0.277692
0.300804
0.355541
0.329279
0.709763
0.274837
0.320106
0.697149
0.539485
0.560324
0.384381
0.311261
0.709667
0.455318
0.505178
0.705912
0.368901
0.645356
0.593554
0.58561
0.699859
0.326327
0.707872
0.626444
0.32268
0.31431
0.415227
0.688108
0.58653
0.708669
0.689565
0.705072
0.700372
0.390572
0.709893
0.639542
0.713504
0.314247
0.708039
0.651327
0.38899
0.409582
0.283501
0.304358
0.269221
0.583636
0.663894
0.69488
0.310337
0.363503
0.710311
0.299887
0.703843
0.709237
0.709197
0.665867
0.71147
0.350271
0.30607
0.296864
0.572857
0.291035
0.711221
0.295084
0.703906
0.679919
0.711454
0.366144
0.442446
0.414052
0.710237
0.337139
0.310527
0.711452
0.700455
0.644898
0.685338
0.712923
0.693867
0.332016
0.600586
0.706431
0.494
0.709932
0.703374
0.697369
0.408805
0.389095
0.711925
0.456963
0.626009
0.320942
0.689213
0.710664
0.397733
0.297492
0.693916
0.488776
0.70699
0.703249
0.325851
0.303953
0.56343
0.429834
0.405586
0.71163
0.712855
0.322569
0.711343
0.563809
0.699562
0.332407
0.583438
0.329792
0.711915
0.709569
0.69431
0.6921
0.564554
0.326047
0.366084
0.699339
0.317042
0.58134
0.328092
0.71154
0.297647
0.648457
0.705966
0.562249
0.333597
0.559812
0.561706
0.306306
0.687946
0.298939
0.711951
0.330994
0.313581
0.29073
0.689465
0.711393
0.319327
0.315097
0.710308