# vtk DataFile Version 1.0
unstructured grid
ascii
DATASET UNSTRUCTURED_GRID
points 13672 float
0.0796578 -0.059106 0
0.00128732 0.00159165 0
0.00227961 -0.00102548 0
0.0791586 -0.0598787 0
-0.0546216 0.01 0
0.000495206 0.025 0
0.0800549 -0.035 0
0.135172 -0.08 0
-0.0546216 -0.0451168 0
0.000495206 -0.0301168 0
0.0800549 -0.0901168 0
0.135172 -0.135117 0
-0.0546216 -0.0451168 -0.00551168
0.000495206 -0.0301168 -0.00551168
0.0800549 -0.0901168 -0.00551168
0.135172 -0.135117 -0.00551168
0.135172 -0.08 -0.00551168
0.0800549 -0.035 -0.00551168
0.000495206 0.025 -0.00551168
-0.0546216 0.01 -0.00551168
0.00128732 0.00159165 -0.00551168
0.00227961 -0.00102548 -0.00551168
0.0791586 -0.0598787 -0.00551168
0.0796578 -0.059106 -0.00551168
0.00165953 -0.000990923 0
0.00119576 -0.000874076 0
0.000866021 -0.000641801 0
0.000645147 -0.000349912 0
0.00052235 -1.7281e-05 0
0.00049972 0.000348016 0
0.000601632 0.000737716 0
0.000861774 0.0011403 0
0.00157235 0.00183217 0
0.00188647 0.00206725 0
0.00222612 0.00230203 0
0.00258713 0.00254351 0
0.00296826 0.00279524 0
0.00337118 0.00305664 0
0.00379785 0.00332658 0
0.00425045 0.00360349 0
0.00473139 0.00388521 0
0.0052432 0.00416895 0
0.0057881 0.00445204 0
0.00636753 0.00473281 0
0.00698281 0.00500961 0
0.00763526 0.00528058 0
0.00832616 0.00554366 0
0.00905691 0.00579603 0
0.00982918 0.00603333 0
0.0106445 0.00625033 0
0.0115038 0.00644128 0
0.0124073 0.00660297 0
0.0133543 0.00673414 0
0.0143444 0.00683382 0
0.0153769 0.00690031 0
0.0164512 0.00693173 0
0.0175666 0.00692547 0
0.0187219 0.00687822 0
0.0199156 0.00678477 0
0.0211454 0.00663864 0
0.0224084 0.00643275 0
0.0237018 0.00616676 0
0.0250249 0.00584739 0
0.026375 0.00547298 0
0.0277479 0.00503752 0
0.0291386 0.00453545 0
0.0305433 0.0039653 0
0.0319572 0.0033256 0
0.0333681 0.00260019 0
0.034775 0.00179799 0
0.0361793 0.000930615 0
0.0375798 3.12222e-06 0
0.0389689 -0.000988429 0
0.0403357 -0.00205109 0
0.041675 -0.00318283 0
0.0429849 -0.00437751 0
0.0442643 -0.00562904 0
0.0455126 -0.00693089 0
0.0467314 -0.00827518 0
0.0479204 -0.00965638 0
0.0490661 -0.0110799 0
0.0501515 -0.0125519 0
0.0511696 -0.0140695 0
0.0521492 -0.0156071 0
0.0531202 -0.0171411 0
0.0540851 -0.0186663 0
0.0550431 -0.0201798 0
0.0559923 -0.0216793 0
0.0569311 -0.0231626 0
0.0578582 -0.0246273 0
0.0587723 -0.0260715 0
0.0596721 -0.027493 0
0.0605563 -0.02889 0
0.0614241 -0.0302609 0
0.0622742 -0.0316042 0
0.063106 -0.0329183 0
0.0639186 -0.034202 0
0.0647113 -0.0354543 0
0.0654835 -0.0366743 0
0.0662345 -0.0378613 0
0.0669642 -0.0390145 0
0.0676726 -0.0401333 0
0.0683597 -0.0412172 0
0.0690246 -0.0422665 0
0.0696662 -0.0432819 0
0.0702841 -0.0442636 0
0.0708793 -0.0452111 0
0.0714538 -0.0461237 0
0.072009 -0.047001 0
0.0725452 -0.0478434 0
0.0730611 -0.0486524 0
0.073556 -0.0494294 0
0.0740291 -0.0501756 0
0.0744812 -0.0508916 0
0.0749138 -0.0515773 0
0.0753285 -0.0522331 0
0.0757266 -0.0528592 0
0.076109 -0.0534564 0
0.0764753 -0.0540264 0
0.0768243 -0.054571 0
0.0771553 -0.0550919 0
0.0774679 -0.0555901 0
0.0777617 -0.0560669 0
0.0780369 -0.056523 0
0.0782958 -0.0569578 0
0.0785421 -0.0573703 0
0.0787786 -0.0577603 0
0.0790073 -0.0581279 0
0.0792295 -0.058474 0
0.0794462 -0.0587995 0
0.0798803 -0.0594162 0
0.0800272 -0.0596588 0
0.0800357 -0.0598891 0
0.0799275 -0.0600784 0
0.0797205 -0.0601773 0
0.0794593 -0.0601051 0
0.0789155 -0.0596491 0
0.0786707 -0.0593963 0
0.0784111 -0.0591319 0
0.0781372 -0.0588542 0
0.0778566 -0.0585548 0
0.0775715 -0.0582308 0
0.0772803 -0.0578828 0
0.0769832 -0.0575099 0
0.0766822 -0.0571097 0
0.0763801 -0.0566796 0
0.0760759 -0.0562196 0
0.0757623 -0.0557337 0
0.0754359 -0.0552232 0
0.0750951 -0.0546879 0
0.0747379 -0.054128 0
0.0743626 -0.0535435 0
0.0739688 -0.0529338 0
0.0735559 -0.0522981 0
0.0731238 -0.0516357 0
0.0726718 -0.050946 0
0.0721991 -0.0502288 0
0.0717046 -0.049484 0
0.0711872 -0.0487117 0
0.0706461 -0.047912 0
0.0700804 -0.0470849 0
0.0694892 -0.0462308 0
0.0688718 -0.0453499 0
0.0682271 -0.0444431 0
0.0675544 -0.043511 0
0.0668527 -0.0425546 0
0.0661215 -0.0415748 0
0.06536 -0.040573 0
0.0645676 -0.0395504 0
0.0637439 -0.0385087 0
0.0628887 -0.0374493 0
0.062002 -0.0363741 0
0.0610838 -0.0352847 0
0.0601345 -0.0341831 0
0.0591547 -0.033071 0
0.0581456 -0.0319502 0
0.0571083 -0.0308224 0
0.0560444 -0.0296893 0
0.0549562 -0.028552 0
0.053845 -0.0274126 0
0.0527113 -0.0262746 0
0.051554 -0.0251427 0
0.0503724 -0.0240222 0
0.0491675 -0.0229164 0
0.047941 -0.0218282 0
0.0466955 -0.0207597 0
0.0454337 -0.0197126 0
0.0441592 -0.0186878 0
0.0428751 -0.0176863 0
0.0415841 -0.0167097 0
0.0402878 -0.0157609 0
0.0389879 -0.0148428 0
0.0376864 -0.0139575 0
0.0363853 -0.013107 0
0.0350871 -0.0122931 0
0.0337942 -0.0115164 0
0.0325095 -0.0107772 0
0.0312357 -0.0100756 0
0.0299758 -0.00941024 0
0.0287337 -0.00877784 0
0.0275126 -0.00817571 0
0.0263139 -0.00760375 0
0.0251376 -0.00706528 0
0.0239829 -0.0065649 0
0.0228537 -0.00609619 0
0.0217522 -0.00565563 0
0.0206795 -0.00524226 0
0.0196364 -0.00485507 0
0.0186233 -0.00449318 0
0.0176408 -0.00415577 0
0.016689 -0.00384204 0
0.0157682 -0.00355115 0
0.0148783 -0.00328218 0
0.0140192 -0.00303468 0
0.0131906 -0.00280795 0
0.0123925 -0.00260016 0
0.0116246 -0.00241012 0
0.0108864 -0.00223769 0
0.0101774 -0.00208212 0
0.00949701 -0.00194206 0
0.00884483 -0.0018163 0
0.0082202 -0.0017039 0
0.00762247 -0.00160391 0
0.00705097 -0.00151528 0
0.006505 -0.00143697 0
0.0059838 -0.00136806 0
0.00548662 -0.00130772 0
0.00501265 -0.00125519 0
0.00456114 -0.00120954 0
0.00413136 -0.00116914 0
0.00372257 -0.00113251 0
0.00333398 -0.00109853 0
0.00296466 -0.00106798 0
0.00261363 -0.0010431 0
-0.052721 -0.0445996 0
-0.0508204 -0.0440823 0
-0.0489199 -0.0435651 0
-0.0470193 -0.0430478 0
-0.0451187 -0.0425306 0
-0.0432181 -0.0420134 0
-0.0413175 -0.0414961 0
-0.039417 -0.0409789 0
-0.0375164 -0.0404616 0
-0.0356158 -0.0399444 0
-0.0337152 -0.0394271 0
-0.0318146 -0.0389099 0
-0.0299141 -0.0383927 0
-0.0280135 -0.0378754 0
-0.0261129 -0.0373582 0
-0.0242123 -0.0368409 0
-0.0223117 -0.0363237 0
-0.0204112 -0.0358065 0
-0.0185106 -0.0352892 0
-0.01661 -0.034772 0
-0.0147094 -0.0342547 0
-0.0128088 -0.0337375 0
-0.0109083 -0.0332202 0
-0.00900769 -0.032703 0
-0.00710711 -0.0321858 0
-0.00520653 -0.0316685 0
-0.00330595 -0.0311513 0
-0.00140537 -0.030634 0
0.00190689 -0.0299614 0
0.00332271 -0.0298498 0
0.00474133 -0.0297825 0
0.00616136 -0.0297597 0
0.0075814 -0.0297814 0
0.00900007 -0.0298477 0
0.010416 -0.0299583 0
0.0118278 -0.0301127 0
0.0132342 -0.0303103 0
0.0146339 -0.0305504 0
0.0160259 -0.0308322 0
0.0174091 -0.0311546 0
0.0187824 -0.0315166 0
0.020145 -0.031917 0
0.0214961 -0.0323546 0
0.0228351 -0.032828 0
0.0241613 -0.0333361 0
0.0254744 -0.0338774 0
0.0267738 -0.0344507 0
0.0280592 -0.0350545 0
0.0293306 -0.0356877 0
0.0305875 -0.0363488 0
0.0318301 -0.0370367 0
0.0330581 -0.0377501 0
0.0342717 -0.0384879 0
0.0354708 -0.0392489 0
0.0366556 -0.0400321 0
0.0378262 -0.0408363 0
0.0389828 -0.0416607 0
0.0401254 -0.0425042 0
0.0412543 -0.0433659 0
0.0423698 -0.0442451 0
0.043472 -0.0451408 0
0.0445612 -0.0460523 0
0.0456375 -0.0469789 0
0.0467013 -0.0479199 0
0.0477529 -0.0488746 0
0.0487923 -0.0498424 0
0.04982 -0.0508227 0
0.0508362 -0.051815 0
0.051841 -0.0528187 0
0.0528348 -0.0538333 0
0.0538178 -0.0548584 0
0.0547903 -0.0558935 0
0.0557524 -0.0569382 0
0.0567045 -0.0579922 0
0.0576467 -0.0590549 0
0.0585792 -0.0601261 0
0.0595024 -0.0612055 0
0.0604163 -0.0622926 0
0.0613212 -0.0633873 0
0.0622174 -0.0644891 0
0.0631049 -0.0655979 0
0.0639841 -0.0667134 0
0.064855 -0.0678353 0
0.0657179 -0.0689633 0
0.0665729 -0.0700974 0
0.0674202 -0.0712372 0
0.06826 -0.0723826 0
0.0690925 -0.0735333 0
0.0699178 -0.0746892 0
0.070736 -0.0758501 0
0.0715473 -0.0770159 0
0.0723518 -0.0781863 0
0.0731498 -0.0793612 0
0.0739412 -0.0805405 0
0.0747264 -0.081724 0
0.0755053 -0.0829116 0
0.0762781 -0.0841033 0
0.0770449 -0.0852987 0
0.0778059 -0.0864979 0
0.0785611 -0.0877007 0
0.0793108 -0.088907 0
0.0814681 -0.0912706 0
0.0828814 -0.0924245 0
0.0842946 -0.0935783 0
0.0857079 -0.0947322 0
0.0871211 -0.095886 0
0.0885344 -0.0970399 0
0.0899476 -0.0981937 0
0.0913609 -0.0993476 0
0.0927741 -0.100501 0
0.0941874 -0.101655 0
0.0956006 -0.102809 0
0.0970139 -0.103963 0
0.0984272 -0.105117 0
0.0998404 -0.106271 0
0.101254 -0.107424 0
0.102667 -0.108578 0
0.10408 -0.109732 0
0.105493 -0.110886 0
0.106907 -0.11204 0
0.10832 -0.113194 0
0.109733 -0.114348 0
0.111146 -0.115501 0
0.11256 -0.116655 0
0.113973 -0.117809 0
0.115386 -0.118963 0
0.116799 -0.120117 0
0.118213 -0.121271 0
0.119626 -0.122424 0
0.121039 -0.123578 0
0.122452 -0.124732 0
0.123866 -0.125886 0
0.125279 -0.12704 0
0.126692 -0.128194 0
0.128105 -0.129348 0
0.129519 -0.130501 0
0.130932 -0.131655 0
0.132345 -0.132809 0
0.133758 -0.133963 0
0.135172 -0.133216 0
0.135172 -0.131316 0
0.135172 -0.129415 0
0.135172 -0.127514 0
0.135172 -0.125614 0
0.135172 -0.123713 0
0.135172 -0.121813 0
0.135172 -0.119912 0
0.135172 -0.118012 0
0.135172 -0.116111 0
0.135172 -0.11421 0
0.135172 -0.11231 0
0.135172 -0.110409 0
0.135172 -0.108509 0
0.135172 -0.106608 0
0.135172 -0.104708 0
0.135172 -0.102807 0
0.135172 -0.100906 0
0.135172 -0.0990058 0
0.135172 -0.0971052 0
0.135172 -0.0952046 0
0.135172 -0.0933041 0
0.135172 -0.0914035 0
0.135172 -0.0895029 0
0.135172 -0.0876023 0
0.135172 -0.0857017 0
0.135172 -0.0838012 0
0.135172 -0.0819006 0
0.133758 -0.0788462 0
0.132345 -0.0776923 0
0.130932 -0.0765385 0
0.129519 -0.0753846 0
0.128105 -0.0742308 0
0.126692 -0.0730769 0
0.125279 -0.0719231 0
0.123866 -0.0707692 0
0.122452 -0.0696154 0
0.121039 -0.0684615 0
0.119626 -0.0673077 0
0.118213 -0.0661538 0
0.116799 -0.065 0
0.115386 -0.0638462 0
0.113973 -0.0626923 0
0.11256 -0.0615385 0
0.111146 -0.0603846 0
0.109733 -0.0592308 0
0.10832 -0.0580769 0
0.106907 -0.0569231 0
0.105493 -0.0557692 0
0.10408 -0.0546154 0
0.102667 -0.0534615 0
0.101254 -0.0523077 0
0.0998404 -0.0511538 0
0.0984272 -0.05 0
0.0970139 -0.0488462 0
0.0956006 -0.0476923 0
[...]
CELL_DATA 13116
SCALARS rho float
LOOKUP_TABLE default
0.495294
0.523502
0.35551
0.541823
0.542296
0.531581
0.353744
0.547136
0.48431
0.551103
0.346231
0.335154
0.542134
0.366613
0.357718
0.531636
0.460677
0.634281
0.530603
0.357314
0.50448
0.36017
0.379333
0.612425
0.574552
0.525853
0.552418
0.35779
0.575606
0.604653
0.531076
0.392406
0.515741
0.406879
0.351774
0.499799
0.590873
0.528166
0.531318
0.535825
0.531044
0.54758
0.380027
0.363456
0.530336
0.530548
0.510415
0.532234
0.363627
0.48253
0.541542
0.396527
0.36253
0.453755
0.513683
0.547388
0.369013
0.578981
0.497422
0.362692
0.367411
0.544484
0.517641
0.531295
0.531061
0.368837
0.533789
0.611656
0.534061
0.531077
0.358179
0.552408
0.355598
0.376869
0.531003
0.348544
0.544759
0.53786
0.354994
0.632751
0.577875
0.520576
0.585124
0.532005
0.527232
0.42025
0.356046
0.628454
0.528319
0.327801
0.396594
0.523759
0.596864
0.534245
0.598024
0.558195
0.577289
0.53114
0.530979
0.564362
0.646334
0.497177
0.530998
0.355754
0.502937
0.37957
0.328546
0.424656
0.368476
0.586556
0.453338
0.513256
0.556548
0.592099
0.631484
0.534356
0.360145
0.352202
0.536131
0.535732
0.614433
0.355354
0.534334
0.410451
0.533359
0.401584
0.357169
0.470471
0.369927
0.484578
0.536261
0.533159
0.467364
0.364525
0.447369
0.521748
0.531142
0.536138
0.645698
0.535632
0.536207
0.511885
0.468185
0.535019
0.523067
0.3713
0.350292
0.518301
0.542515
0.541174
0.50881
0.531627
0.532175
0.357693
0.548729
0.528203
0.382459
0.652094
0.53117
0.631429
0.603168
0.348326
0.56533
0.381683
0.351694
0.542724
0.530638
0.635998
0.352323
0.432773
0.389632
0.531098
0.360709
0.452185
0.533666
0.378933
0.357063
0.356938
0.510874
0.531217
0.372991
0.396874
0.473182
0.593688
0.531261
0.494346
0.371076
0.531593
0.500589
0.423092
0.561585
0.51687
0.531046
0.384285
0.510992
0.531451
0.562483
0.531421
0.527319
0.364781
0.354556
0.591718
0.46469
0.376309
0.538633
0.529618
0.405815
0.569279
0.369402
0.331032
0.356436
0.53248
0.382738
0.354435
0.327104
0.358776
0.329601
0.530963
0.531883
0.408739
0.373244
0.533548
0.446874
0.373842
0.523106
0.546322
0.522713
0.360843
0.533794
0.362468
0.555924
0.39192
0.53111
0.541956
0.53114
0.532838
0.531065
0.362328
0.39225
0.634351
0.531103
0.531365
0.531109
0.530957
0.545718
0.358205
0.538559
0.546352
0.53094
0.343119
0.364448
0.530415
0.535814
0.531083
0.533575
0.480395
0.62256
0.345691
0.37441
0.353227
0.369755
0.49682
0.563552
0.543302
0.356487
0.530619
0.368324
0.402361
0.503235
0.342068
0.521892
0.54332
0.531072
0.57277
0.365548
0.531071
0.576428
0.530944
0.535998
0.354082
0.355522
0.386814
0.51787
0.352782
0.366958
0.302993
0.268004
0.5249
0.364424
0.529585
0.541244
0.365231
0.362805
0.36682
0.418074
0.356777
0.626025
0.504922
0.507572
0.341023
0.532052
0.557526
0.373655
0.361938
0.531236
0.535848
0.531382
0.370495
0.531515
0.371529
0.532387
0.546509
0.539931
0.545989
0.388634
0.533529
0.365688
0.531689
0.553307
0.639224
0.342896
0.302759
0.545636
0.364714
0.516945
0.544172
0.32399
0.644198
0.58666
0.363627
0.530415
0.589909
0.365859
0.537233
0.418672
0.544712
0.546962
0.425981
0.651846
0.356756
0.605141
0.316071
0.530955
0.491627
0.568711
0.360869
0.325022
0.527911
0.349588
0.537014
0.50329
0.38664
0.531167
0.370829
0.347844
0.534749
0.522756
0.603433
0.356197
0.382225
0.538578
0.541289
0.34903
0.540586
0.362799
0.377486
0.534688
0.545778
0.406709
0.327239
0.535778
0.531136
0.531671
0.530159
0.549446
0.508425
0.2909
0.366758
0.370762
0.531642
0.371288
0.470178
0.329066
0.366011
0.31916
0.418741
0.127697
0.34974
0.527873
0.288613
0.561342
0.574762
0.531326
0.623069
0.53855
0.347909
0.354961
0.370205
0.296381
0.534983
0.552439
0.53108
0.575416
0.524407
0.578099
0.518996
0.551421
0.602288
0.544878
0.635027
0.531442
0.357737
0.413034
0.491242
0.356419
0.504218
0.544697
0.361641
0.534005
0.531112
0.390703
0.353361
0.336631
0.370754
0.602673
0.353967
0.38419
0.532876
0.371082
0.540975
0.331564
0.531406
0.54988
0.361764
0.36447
0.534514
0.420009
0.330349
0.370616
0.328836
0.368262
0.359453
0.353501
0.363621
0.401906
0.33969
0.497909
0.343559
0.528153
0.338775
0.406046
0.471328
0.367056
0.327959
0.373364
0.53322
0.407114
0.612167
0.425529
0.369193
0.571657
0.529259
0.419593
0.643846
0.574915
0.571504
0.36102
0.531161
0.355035
0.557239
0.531082
0.378975
0.362101
0.4995
0.299985
0.427798
0.492893
0.327064
0.65144
0.521496
0.366158
0.353784
0.359482
0.447201
0.360172
0.366336
0.358947
0.365906
0.543421
0.543561
0.424854
0.568021
0.446004
0.509318
0.315135
0.346759
0.489542
0.378008
0.531616
0.270874
0.339548
0.463118
0.530015
0.527958
0.529381
0.321881
0.361429
0.540568
0.546561
0.531219
0.536447
0.504137
0.496088
0.338909
0.551713
0.536847
0.633936
0.274433
0.355107
0.594387
0.573866
0.622868
0.548167
0.52304
0.527592
0.601657
0.636499
0.531246
0.367859
0.530017
0.313531
0.369418
0.347056
0.541912
0.529928
0.278941
0.527059
0.593866
0.34233
0.531035
0.535506
0.549361
0.357797
0.345581
0.537028
0.330674
0.340889
0.346965
0.338628
0.530446
0.367272
0.54127
0.34353
0.524234
0.540781
0.533407
0.541597
0.329322
0.365077
0.530615
0.556408
0.566615
0.543499
0.546826
0.467519
0.3631
0.374569
0.531684
0.487812
0.337245
0.419827
0.360982
0.540924
0.532109
0.274765
0.360951
0.526752
0.438356
0.527983
0.632668
0.371567
0.36309
0.562831
0.531128
0.380445
0.526526
0.53106
0.530313
0.34417
0.53107
0.375658
0.53112
0.632956
0.328926
0.32776
0.365957
0.53102
0.361685
0.35771
0.352706
0.531054
0.538786
0.357498
0.371885
0.332949
0.531165
0.355519
0.531375
0.371219
0.55681
0.546946
0.342604
0.381315
0.381163
0.467859
0.370836
0.525391
0.371522
0.350286
0.531219
0.360436
0.532316
0.515206
0.531121
0.365286
0.531941
0.566454
0.559975
0.531799
0.540964
0.534463
0.379699
0.531194
0.411219
0.528834
0.354623
0.545529
0.462958
0.354618
0.53095
0.543815
0.342493
0.561439
0.388262
0.356818
0.532732
0.532865
0.348216
0.373865
0.355996
0.379526
0.541541
0.619935
0.344508
0.367957
0.537158
0.536388
0.558687
0.564482
0.532005
0.347163
0.56121
0.395659
0.541346
0.351701
0.558561
0.4509
0.533235
0.602524
0.54701
0.306436
0.360065
0.531642
0.576562
0.460958
0.565579
0.368893
0.558967
0.549462
0.341982
0.410612
0.561809
0.321955
0.530956
0.635288
0.298938
0.536901
0.597355
0.341237
0.541714
0.386038
0.524782
0.361402
0.532339
0.51699
0.365057
0.53131
0.563402
0.537723
0.594984
0.538777
0.55504
0.349443
0.374744
0.331129
0.37596
0.531149
0.526337
0.535029
0.54215
0.37368
0.362451
0.537821
0.548035
0.534797
0.543639
0.351072
0.639336
0.545741
0.356312
0.351024
0.53616
0.530421
0.526049
0.355766
0.564038
0.365737
0.544423
0.514184
0.531229
0.524608
0.336869
0.529297
0.529238
0.584125
0.532634
0.53126
0.407196
0.547261
0.330904
0.511581
0.547316
0.432479
0.523295
0.531245
0.540635
0.357436
0.362278
0.555915
0.619174
0.331425
0.326241
0.351211
0.33708
0.526443
0.560895
0.530943
0.268557
0.342008
0.533939
0.648114
0.361249
0.364253
0.432754
0.568496
0.531595
0.529969
0.585618
0.3302
0.33146
0.531085
0.407128
0.356748
0.371484
0.531074
0.365952
0.328625
0.538353
0.529705
0.510583
0.531448
0.531474
0.361167
0.359551
0.35305
0.424081
0.407372
0.392064
0.607411
0.597241
0.522654
0.531816
0.36996
0.354097
0.548539
0.335651
0.53117
0.515886
0.531172
0.348252
0.33587
0.521675
0.530932
0.50077
0.36555
0.528037
0.531499
0.533544
0.541103
0.544513
0.531079
0.504355
0.351083
0.53146
0.530925
0.52706
0.546624
0.531192
0.513216
0.531142
0.535381
0.350741
0.349202
0.34918
0.531166
0.460383
0.334193
0.536567
0.537984
0.327709
0.571174
0.364305
0.56655
0.417552
0.362359
0.546013
0.62445
0.335507
0.52219
0.531157
0.378703
0.533936
0.369304
0.378066
0.574146
0.575707
0.471231
0.530997
0.352457
0.56051
0.355138
0.351097
0.53225
0.337576
0.563489
0.364117
0.567998
0.561229
0.531163
0.528923
0.36486
0.35024
0.507643
0.38048
0.534716
0.416433
0.548688
0.531492
0.5864
0.395079
0.58347
0.51097
0.561031
0.534359
0.31937
0.338301
0.510755
0.511924
0.570997
0.334729
0.531054
0.502902
0.369812
0.352957
0.640913
0.57425
0.531124
0.530996
0.495298
0.579342
0.531202
0.585316
0.362247
0.626378
0.430059
0.537759
0.53015
0.266792
0.543913
0.540234
0.34808
0.365036
0.364708
0.531191
0.348694
0.574673
0.547663
0.629284
0.317815
0.526787
0.374584
0.56308
0.531288
0.530947
0.60811
0.531134
0.586373
0.578635
0.479839
0.52857
0.361626
0.531068
0.533345
0.362434
0.531114
0.554348
0.387329
0.366116
0.376215
0.540015
0.326048
0.531001
0.364994
0.547077
0.362054
0.451549
0.367303
0.558824
0.542751
0.478666
0.242669
0.585809
0.530986
0.353559
0.557322
0.543494
0.392286
0.550266
0.530939
0.546378
0.531253
0.3789
0.422445
0.535795
0.53088
0.513205
0.326653
0.359513
0.52855
0.531151
0.531142
0.531186
0.500298
0.533498
0.495222
0.536406
0.326836
0.376371
0.531181
0.541219
0.531078
0.371091
0.531025
0.505889
0.548225
0.34653
0.390362
0.540735
0.548023
0.521837
0.295226
0.531434
0.531114
0.352419
0.578335
0.586502
0.351968
0.400158
0.364886
0.503723
0.360913
0.372926
0.530058
0.422163
0.561626
0.575682
0.354205
0.361507
0.543254
0.346512
0.353563
0.530928
0.37782
0.316224
0.554656
0.54
0.532098
0.339552
0.339354
0.344162
0.515707
0.37865
0.532397
0.356835
0.535084
0.529819
0.530079
0.507133
0.529651
0.513244
0.531629
0.541232
0.533876
0.366483
0.336866
0.528241
0.531286
0.478046
0.504398
0.521812
0.531245
0.525504
0.360992
0.535008
0.544408
0.527724
0.343006
0.530115
0.340322
0.531955
0.470933
0.621898
0.531753
0.361495
0.535384
0.334893
0.387963
0.519017
0.370192
0.649041
0.531218
0.544246
0.371152
0.532774
0.33498
0.350071
0.365003
0.326104
0.513857
0.362469
0.54305
0.531243
0.298293
0.384858
0.460714
0.551824
0.592291
0.509474
0.367697
0.365252
0.348866
0.36732
0.239544
0.588113
0.516333
0.358757
0.530954
0.546021
0.364979
0.545792
0.648206
0.531252
0.337787
0.53096
0.5395
0.544798
0.538568
0.359522
0.53283
0.542533
0.530153
0.642646
0.531022
0.367767
0.372279
0.53184
0.50936
0.332005
0.532122
0.378893
0.543767
0.571287
0.523455
0.525432
0.357602
0.503364
0.356872
0.342449
0.636778
0.537623
0.546319
0.537932
0.580205
0.350923
0.542563
0.365464
0.477058
0.542435
0.531021
0.535393
0.342414
0.373196
0.546363
0.366416
0.536638
0.62205
0.397496
0.36906
0.534989
0.366385
0.531792
0.536401
0.562419
0.365958
0.349199
0.467631
0.472374
0.576681
0.43369
0.531217
0.508692
0.529504
0.531162
0.536956
0.360427
0.369208
0.537683
0.530983
0.514236
0.432893
0.376128
0.550534
0.361866
0.532034
0.588788
0.298495
0.534819
0.347125
0.533652
0.35368
0.54365
0.363591
0.531343
0.531201
0.30482
0.533964
0.617783
0.294165
0.530969
0.530705
0.519142
0.367772
0.326006
0.427217
0.564109
0.499331
0.360154
0.558908
0.537501
0.531243
0.307953
0.553654
0.523479
0.438405
0.531133
0.531812
0.264434
0.533743
0.530924
0.355188
0.555823
0.369907
0.559215
0.366517
0.377398
0.575903
0.339235
0.330709
0.364737
0.533359
0.519292
0.358532
0.53139
0.322022
0.544639
0.334128
0.521135
0.33013
0.531562
0.532
0.556948
0.531085
0.526467
0.531185
0.531223
0.356685
0.609869
0.56471
0.431632
0.536092
0.466326
0.360131
0.54258
0.372317
0.539577
0.365095
0.531123
0.361314
0.383448
0.627557
0.531707
0.364812
0.536811
0.600771
0.531173
0.543712
0.531051
0.349775
0.547946
0.358892
0.38249
0.530979
0.579939
0.547537
0.527959
0.371598
0.367006
0.346703
0.522833
0.531179
0.324744
0.543634
0.367287
0.371433
0.349492
0.529076
0.352693
0.543453
0.534091
0.608949
0.532578
0.533455
0.531378
0.54141
0.40957
0.370858
0.364739
0.531035
0.531004
0.370993
0.584745
0.502187
0.547925
0.379768
0.355164
0.509804
0.258295
0.508341
0.511704
0.354615
0.531057
0.526347
0.335985
0.531696
0.35394
0.534972
0.569377
0.529613
0.363751
0.445783
0.644775
0.274397
0.418458
0.531824
0.280894
0.531073
0.534181
0.520863
0.608767
0.292403
0.530997
0.634844
0.530888
0.338225
0.538664
0.355706
0.362239
0.526936
0.531659
0.531044
0.218542
0.532032
0.610035
0.531015
0.36565
0.36286
0.330104
0.537595
0.351223
0.359237
0.341136
0.510938
0.355896
0.265606
0.419591
0.532358
0.34276
0.531044
0.53116
0.534981
0.371046
0.533332
0.618256
0.53096
0.391982
0.639896
0.349985
0.372508
0.532718
0.36329
0.573063
0.54008
0.531165
0.351116
0.30338
0.341981
0.534651
0.531143
0.216256
0.528444
0.533195
0.602304
0.331255
0.365786
0.319234
0.498327
0.333082
0.531227
0.580572
0.531193
0.528935
0.35247
0.56773
0.381989
0.486247
0.624077
0.548534
0.497887
0.423754
0.637702
0.515359
0.538197
0.370383
0.333063
0.373926
0.624106
0.494267
0.53102
0.350834
0.368724
0.553639
0.533107
0.530923
0.363425
0.535681
0.532893
0.535759
0.49959
0.373361
0.361052
0.263933
0.531843
0.531257
0.640975
0.507858
0.316679
0.545647
0.632568
0.531261
0.530951
0.543932
0.544712
0.531565
0.565603
0.547893
0.376523
0.534477
0.538446
0.531103
0.535261
0.531637
0.515334
0.345033
0.380187
0.52397
0.326418
0.295997
0.535604
0.35614
0.613607
0.533629
0.520864
0.528059
0.386165
0.536846
0.362364
0.372794
0.531647
0.532343
0.531911
0.371192
0.540358
0.531003
0.513752
0.531434
0.357123
0.531042
0.546579
0.529755
0.365593
0.595625
0.340484
0.543557
0.36632
0.344441
0.466132
0.419856
0.546198
0.571157
0.53122
0.340873
0.531026
0.359934
0.358238
0.522245
0.465389
0.327179
0.531126
0.37327
0.487386
0.621744
0.511768
0.523889
0.463487
0.572248
0.616348
0.531479
0.510735
0.545456
0.507438
0.559854
0.507185
0.611545
0.36652
0.352613
0.419678
0.537879
0.386632
0.63091
0.537356
0.566951
0.531529
0.466578
0.640162
0.583507
0.339223
0.536457
0.501869
0.436526
0.50254
0.544278
0.525666
0.531138
0.330022
0.352786
0.529287
0.497403
0.496563
0.536305
0.531704
0.53167
0.578534
0.564526
0.583976
0.506478
0.551381
0.361075
0.374102
0.361268
0.334259
0.531127
0.426189
0.490954
0.534452
0.584469
0.381304
0.528617
0.54107
0.372555
0.345587
0.530989
0.535657
0.370695
0.337163
0.341268
0.531186
0.524998
0.369644
0.359959
0.355364
0.377096
0.30732
0.327378
0.555817
0.53212
0.539726
0.370231
0.521179
0.560681
0.586641
0.314978
0.354095
0.521679
0.53118
0.330249
0.531428
0.336184
0.606504
0.377635
0.534761
0.36771
0.522934
0.541285
0.371606
0.537572
0.36402
0.547467
0.378085
0.563023
0.376377
0.46937
0.34895
0.551926
0.351773
0.531075
0.531015
0.584141
0.529321
0.30583
0.521294
0.530973
0.540689
0.558875
0.544989
0.354287
0.345293
0.371897
0.579734
0.267711
0.540172
0.517458
0.582387
0.54577
0.412074
0.545644
0.357733
0.369543
0.359908
0.47533
0.46245
0.531306
0.345732
0.366721
0.532078
0.35789
0.363733
0.491713
0.337697
0.329976
0.380823
0.548412
0.630144
0.567007
0.379461
0.520003
0.532091
0.36961
0.301268
0.529057
0.531392
0.490867
0.490586
0.391812
0.337518
0.358034
0.540522
0.5183
0.484028
0.630721
0.367143
0.532171
0.348515
0.530998
0.539818
0.35373
0.370214
0.519771
0.485112
0.54103
0.546804
0.557834
0.538028
0.542789
0.362674
0.357105
0.376051
0.353203
0.485983
0.531125
0.632107
0.350234
0.361139
0.413055
0.400138
0.531643
0.511472
0.328553
0.27416
0.533616
0.380198
0.612528
0.553525
0.517225
0.531023
0.50114
0.339913
0.365749
0.503963
0.35382
0.380172
0.359412
0.531113
0.532713
0.296275
0.3513
0.531088
0.356032
0.532848
0.585214
0.345513
0.348282
0.363377
0.533238
0.360054
0.531217
0.55083
0.565866
0.333928
0.504258
0.537558
0.52742
0.354923
0.525548
0.528342
0.431536
0.535715
0.557671
0.342983
0.343859
0.521368
0.340739
0.354306
0.523035
0.323134
0.531397
0.644483
0.603739
0.542009
0.54133
0.533746
0.531283
0.348747
0.388459
0.522169
0.530611
0.445582
0.546231
0.290592
0.535225
0.524899
0.53701
0.613111
0.346329
0.428496
0.52904
0.539052
0.505005
0.541514
0.532564
0.531013
0.544094
0.531124
0.540242
0.523795
0.541669
0.531176
0.531289
0.311292
0.521808
0.356286
0.534784
0.534591
0.563331
0.512301
0.616483
0.347473
0.343182
0.278265
0.354158
0.51612
0.364049
0.338211
0.572418
0.355553
0.567553
0.357917
0.523287
0.533007
0.349691
0.360304
0.291004
0.53745
0.378315
0.530861
0.535388
0.342362
0.520026
0.528693
0.307259
0.35805
0.361005
0.650708
0.341893
0.53609
0.463247
0.359543
0.531031
0.531166
0.560079
0.334846
0.539731
0.369808
0.522101
0.531297
0.53441
0.327663
0.530192
0.536142
0.508222
0.374708
0.537265
0.335139
0.338447
0.533257
0.422582
0.550634
0.353338
0.328481
0.419884
0.510936
0.359492
0.253444
0.354744
0.436872
0.530952
0.534238
0.359275
0.555522
0.532667
0.536403
0.380083
0.298804
0.531431
0.331735
0.345887
0.5298
0.335726
0.333064
0.540425
0.543706
0.371322
0.628787
0.351939
0.530986
0.358626
0.524074
0.531148
0.615666
0.531062
0.354153
0.343714
0.367719
0.531429
0.523143
0.569595
0.509937
0.349317
0.280246
0.531141
0.348079
0.5317
0.358976
0.531181
0.610782
0.368001
0.359959
0.337429
0.350889
0.357898
0.516679
0.517284
0.368337
0.53376
0.599596
0.344832
0.360977
0.542946
0.326721
0.532728
0.40561
0.607228
0.618327
0.53326
0.530941
0.355412
0.562912
0.534077
0.549193
0.329671
0.503105
0.576025
0.293242
0.538069
0.547959
0.559767
0.520127
0.542928
0.533195
0.545412
0.531131
0.530639
0.374371
0.570161
0.337006
0.418935
0.531561
0.369566
0.525132
0.499499
0.366367
0.508109
0.334793
0.397717
0.53186
0.497182
0.543599
0.335912
0.519919
0.593023
0.359394
0.36988
0.529742
0.532087
0.351537
0.34349
0.551126
0.543367
0.365545
0.603763
0.541471
0.633563
0.368876
0.335566
0.361721
0.620967
0.360889
0.525789
0.62681
0.531142
0.554562
0.533138
0.334976
0.526572
0.593966
0.541138
0.495387
0.379051
0.351091
0.373217
0.59982
0.53555
0.403349
0.617007
0.333906
0.5562
0.535372
0.369637
0.528877
0.526279
0.587653
0.370264
0.357104
0.328686
0.53611
0.54936
0.590128
0.489967
0.53315
0.331387
0.603043
0.531058
0.530424
0.370999
0.604959
0.36663
0.501693
0.377061
0.530005
0.532687
0.378999
0.53593
0.383891
0.531178
0.583707
0.531218
0.539437
0.37695
0.531076
0.531277
0.533029
0.53046
0.460546
0.531068
0.36622
0.531386
0.370599
0.368701
0.370395
0.358612
0.331141
0.370339
0.542558
0.342644
0.358677
0.600264
0.536216
0.518543
0.369476
0.60811
0.63161
0.531023
0.295662
0.508608
0.533742
0.356815
0.346048
0.343294
0.5937
0.484294
0.350277
0.525094
0.371682
0.531028
0.476914
0.358339
0.447237
0.616349
0.325098
0.53234
0.364996
0.419641
0.347937
0.540639
0.354107
0.581784
0.531027
0.496378
0.378523
0.3425
0.541009
0.543916
0.340931
0.349901
0.53142
0.359312
0.598522
0.370166
0.534212
0.373607
0.533661
0.356422
0.543189
0.36845
0.535442
0.533627
0.539265
0.531147
0.365767
0.382966
0.369956
0.526412
0.57498
0.510567
0.464247
0.364782
0.545557
0.30264
0.521425
0.496634
0.35732
0.371654
0.556415
0.529944
0.372918
0.531088
0.544775
0.548855
0.595173
0.36512
0.605984
0.333966
0.545315
0.363067
0.531016
0.519799
0.540934
0.543524
0.348758
0.544475
0.333976
0.339946
0.532701
0.531153
0.515014
0.529658
0.531144
0.327579
0.631851
0.538692
0.545397
0.349713
0.398483
0.615253
0.363815
0.535426
0.537808
0.52629
0.540829
0.265725
0.412792
0.620136
0.379593
0.525389
0.545077
0.435047
0.530896
0.246236
0.505908
0.629761
0.644635
0.533392
0.355245
0.388976
0.531395
0.524696
0.363988
0.294607
0.354299
0.381324
0.359325
0.374505
0.359125
0.328088
0.531057
0.36986
0.369533
0.550159
0.512308
0.531079
0.368719
0.351333
0.533031
0.432699
0.429741
0.548973
0.341602
0.633362
0.531206
0.585998
0.522544
0.378264
0.534388
0.53128
0.344281
0.339543
0.359457
0.498166
0.584794
0.543337
0.531729
0.530922
0.524497
0.332805
0.534734
0.531278
0.533862
0.340689
0.534011
0.497029
0.32597
0.40605
0.364271
0.367197
0.362652
0.560155
0.621427
0.528902
0.344354
0.368218
0.541512
0.313105
0.536831
0.531298
0.526394
0.646897
0.533013
0.355155
0.368597
0.368361
0.528613
0.367273
0.532249
0.348971
0.532809
0.53127
0.534285
0.337827
0.415992
0.377798
0.533357
0.341541
0.344284
0.535927
0.522117
0.549839
0.531599
0.529431
0.596974
0.33845
0.602488
0.543178
0.506668
0.532669
0.539805
0.57536
0.438189
0.402791
0.546097
0.473053
0.564303
0.331029
0.516631
0.527253
0.365222
0.357825
0.52237
0.478273
0.540008
0.537371
0.340451
0.357071
0.530936
0.341931
0.368052
0.528767
0.52962
0.367065
0.528901
0.531156
0.513695
0.345706
0.562118
0.338614
0.530824
0.539585
0.592049
0.529545
0.531063
0.268622
0.322031
0.532598
0.3354
0.585907
0.366124
0.533683
0.366996
0.601786
0.543956
0.531048
0.327302
0.531212
0.530964
0.34913
0.518379
0.348205
0.548275
0.328265
0.366786
0.348369
0.545114
0.530406
0.30138
0.272511
0.519438