# vtk DataFile Version 1.0
unstructured grid
ascii
DATASET UNSTRUCTURED_GRID
points 13672 float
0.0796578 -0.059106 0
0.00128732 0.00159165 0
0.00227961 -0.00102548 0
0.0791586 -0.0598787 0
-0.0546216 0.01 0
0.000495206 0.025 0
0.0800549 -0.035 0
0.135172 -0.08 0
-0.0546216 -0.0451168 0
0.000495206 -0.0301168 0
0.0800549 -0.0901168 0
0.135172 -0.135117 0
-0.0546216 -0.0451168 -0.00551168
0.000495206 -0.0301168 -0.00551168
0.0800549 -0.0901168 -0.00551168
0.135172 -0.135117 -0.00551168
0.135172 -0.08 -0.00551168
0.0800549 -0.035 -0.00551168
0.000495206 0.025 -0.00551168
-0.0546216 0.01 -0.00551168
0.00128732 0.00159165 -0.00551168
0.00227961 -0.00102548 -0.00551168
0.0791586 -0.0598787 -0.00551168
0.0796578 -0.059106 -0.00551168
0.00165953 -0.000990923 0
0.00119576 -0.000874076 0
0.000866021 -0.000641801 0
0.000645147 -0.000349912 0
0.00052235 -1.7281e-05 0
0.00049972 0.000348016 0
0.000601632 0.000737716 0
0.000861774 0.0011403 0
0.00157235 0.00183217 0
0.00188647 0.00206725 0
0.00222612 0.00230203 0
0.00258713 0.00254351 0
0.00296826 0.00279524 0
0.00337118 0.00305664 0
0.00379785 0.00332658 0
0.00425045 0.00360349 0
0.00473139 0.00388521 0
0.0052432 0.00416895 0
0.0057881 0.00445204 0
0.00636753 0.00473281 0
0.00698281 0.00500961 0
0.00763526 0.00528058 0
0.00832616 0.00554366 0
0.00905691 0.00579603 0
0.00982918 0.00603333 0
0.0106445 0.00625033 0
0.0115038 0.00644128 0
0.0124073 0.00660297 0
0.0133543 0.00673414 0
0.0143444 0.00683382 0
0.0153769 0.00690031 0
0.0164512 0.00693173 0
0.0175666 0.00692547 0
0.0187219 0.00687822 0
0.0199156 0.00678477 0
0.0211454 0.00663864 0
0.0224084 0.00643275 0
0.0237018 0.00616676 0
0.0250249 0.00584739 0
0.026375 0.00547298 0
0.0277479 0.00503752 0
0.0291386 0.00453545 0
0.0305433 0.0039653 0
0.0319572 0.0033256 0
0.0333681 0.00260019 0
0.034775 0.00179799 0
0.0361793 0.000930615 0
0.0375798 3.12222e-06 0
0.0389689 -0.000988429 0
0.0403357 -0.00205109 0
0.041675 -0.00318283 0
0.0429849 -0.00437751 0
0.0442643 -0.00562904 0
0.0455126 -0.00693089 0
0.0467314 -0.00827518 0
0.0479204 -0.00965638 0
0.0490661 -0.0110799 0
0.0501515 -0.0125519 0
0.0511696 -0.0140695 0
0.0521492 -0.0156071 0
0.0531202 -0.0171411 0
0.0540851 -0.0186663 0
0.0550431 -0.0201798 0
0.0559923 -0.0216793 0
0.0569311 -0.0231626 0
0.0578582 -0.0246273 0
0.0587723 -0.0260715 0
0.0596721 -0.027493 0
0.0605563 -0.02889 0
0.0614241 -0.0302609 0
0.0622742 -0.0316042 0
0.063106 -0.0329183 0
0.0639186 -0.034202 0
0.0647113 -0.0354543 0
0.0654835 -0.0366743 0
0.0662345 -0.0378613 0
0.0669642 -0.0390145 0
0.0676726 -0.0401333 0
0.0683597 -0.0412172 0
0.0690246 -0.0422665 0
0.0696662 -0.0432819 0
0.0702841 -0.0442636 0
0.0708793 -0.0452111 0
0.0714538 -0.0461237 0
0.072009 -0.047001 0
0.0725452 -0.0478434 0
0.0730611 -0.0486524 0
0.073556 -0.0494294 0
0.0740291 -0.0501756 0
0.0744812 -0.0508916 0
0.0749138 -0.0515773 0
0.0753285 -0.0522331 0
0.0757266 -0.0528592 0
0.076109 -0.0534564 0
0.0764753 -0.0540264 0
0.0768243 -0.054571 0
0.0771553 -0.0550919 0
0.0774679 -0.0555901 0
0.0777617 -0.0560669 0
0.0780369 -0.056523 0
0.0782958 -0.0569578 0
0.0785421 -0.0573703 0
0.0787786 -0.0577603 0
0.0790073 -0.0581279 0
0.0792295 -0.058474 0
0.0794462 -0.0587995 0
0.0798803 -0.0594162 0
0.0800272 -0.0596588 0
0.0800357 -0.0598891 0
0.0799275 -0.0600784 0
0.0797205 -0.0601773 0
0.0794593 -0.0601051 0
0.0789155 -0.0596491 0
0.0786707 -0.0593963 0
0.0784111 -0.0591319 0
0.0781372 -0.0588542 0
0.0778566 -0.0585548 0
0.0775715 -0.0582308 0
0.0772803 -0.0578828 0
0.0769832 -0.0575099 0
0.0766822 -0.0571097 0
0.0763801 -0.0566796 0
0.0760759 -0.0562196 0
0.0757623 -0.0557337 0
0.0754359 -0.0552232 0
0.0750951 -0.0546879 0
0.0747379 -0.054128 0
0.0743626 -0.0535435 0
0.0739688 -0.0529338 0
0.0735559 -0.0522981 0
0.0731238 -0.0516357 0
0.0726718 -0.050946 0
0.0721991 -0.0502288 0
0.0717046 -0.049484 0
0.0711872 -0.0487117 0
0.0706461 -0.047912 0
0.0700804 -0.0470849 0
0.0694892 -0.0462308 0
0.0688718 -0.0453499 0
0.0682271 -0.0444431 0
0.0675544 -0.043511 0
0.0668527 -0.0425546 0
0.0661215 -0.0415748 0
0.06536 -0.040573 0
0.0645676 -0.0395504 0
0.0637439 -0.0385087 0
0.0628887 -0.0374493 0
0.062002 -0.0363741 0
0.0610838 -0.0352847 0
0.0601345 -0.0341831 0
0.0591547 -0.033071 0
0.0581456 -0.0319502 0
0.0571083 -0.0308224 0
0.0560444 -0.0296893 0
0.0549562 -0.028552 0
0.053845 -0.0274126 0
0.0527113 -0.0262746 0
0.051554 -0.0251427 0
0.0503724 -0.0240222 0
0.0491675 -0.0229164 0
0.047941 -0.0218282 0
0.0466955 -0.0207597 0
0.0454337 -0.0197126 0
0.0441592 -0.0186878 0
0.0428751 -0.0176863 0
0.0415841 -0.0167097 0
0.0402878 -0.0157609 0
0.0389879 -0.0148428 0
0.0376864 -0.0139575 0
0.0363853 -0.013107 0
0.0350871 -0.0122931 0
0.0337942 -0.0115164 0
0.0325095 -0.0107772 0
0.0312357 -0.0100756 0
0.0299758 -0.00941024 0
0.0287337 -0.00877784 0
0.0275126 -0.00817571 0
0.0263139 -0.00760375 0
0.0251376 -0.00706528 0
0.0239829 -0.0065649 0
0.0228537 -0.00609619 0
0.0217522 -0.00565563 0
0.0206795 -0.00524226 0
0.0196364 -0.00485507 0
0.0186233 -0.00449318 0
0.0176408 -0.00415577 0
0.016689 -0.00384204 0
0.0157682 -0.00355115 0
0.0148783 -0.00328218 0
0.0140192 -0.00303468 0
0.0131906 -0.00280795 0
0.0123925 -0.00260016 0
0.0116246 -0.00241012 0
0.0108864 -0.00223769 0
0.0101774 -0.00208212 0
0.00949701 -0.00194206 0
0.00884483 -0.0018163 0
0.0082202 -0.0017039 0
0.00762247 -0.00160391 0
0.00705097 -0.00151528 0
0.006505 -0.00143697 0
0.0059838 -0.00136806 0
0.00548662 -0.00130772 0
0.00501265 -0.00125519 0
0.00456114 -0.00120954 0
0.00413136 -0.00116914 0
0.00372257 -0.00113251 0
0.00333398 -0.00109853 0
0.00296466 -0.00106798 0
0.00261363 -0.0010431 0
-0.052721 -0.0445996 0
-0.0508204 -0.0440823 0
-0.0489199 -0.0435651 0
-0.0470193 -0.0430478 0
-0.0451187 -0.0425306 0
-0.0432181 -0.0420134 0
-0.0413175 -0.0414961 0
-0.039417 -0.0409789 0
-0.0375164 -0.0404616 0
-0.0356158 -0.0399444 0
-0.0337152 -0.0394271 0
-0.0318146 -0.0389099 0
-0.0299141 -0.0383927 0
-0.0280135 -0.0378754 0
-0.0261129 -0.0373582 0
-0.0242123 -0.0368409 0
-0.0223117 -0.0363237 0
-0.0204112 -0.0358065 0
-0.0185106 -0.0352892 0
-0.01661 -0.034772 0
-0.0147094 -0.0342547 0
-0.0128088 -0.0337375 0
-0.0109083 -0.0332202 0
-0.00900769 -0.032703 0
-0.00710711 -0.0321858 0
-0.00520653 -0.0316685 0
-0.00330595 -0.0311513 0
-0.00140537 -0.030634 0
0.00190689 -0.0299614 0
0.00332271 -0.0298498 0
0.00474133 -0.0297825 0
0.00616136 -0.0297597 0
0.0075814 -0.0297814 0
0.00900007 -0.0298477 0
0.010416 -0.0299583 0
0.0118278 -0.0301127 0
0.0132342 -0.0303103 0
0.0146339 -0.0305504 0
0.0160259 -0.0308322 0
0.0174091 -0.0311546 0
0.0187824 -0.0315166 0
0.020145 -0.031917 0
0.0214961 -0.0323546 0
0.0228351 -0.032828 0
0.0241613 -0.0333361 0
0.0254744 -0.0338774 0
0.0267738 -0.0344507 0
0.0280592 -0.0350545 0
0.0293306 -0.0356877 0
0.0305875 -0.0363488 0
0.0318301 -0.0370367 0
0.0330581 -0.0377501 0
0.0342717 -0.0384879 0
0.0354708 -0.0392489 0
0.0366556 -0.0400321 0
0.0378262 -0.0408363 0
0.0389828 -0.0416607 0
0.0401254 -0.0425042 0
0.0412543 -0.0433659 0
0.0423698 -0.0442451 0
0.043472 -0.0451408 0
0.0445612 -0.0460523 0
0.0456375 -0.0469789 0
0.0467013 -0.0479199 0
0.0477529 -0.0488746 0
0.0487923 -0.0498424 0
0.04982 -0.0508227 0
0.0508362 -0.051815 0
0.051841 -0.0528187 0
0.0528348 -0.0538333 0
0.0538178 -0.0548584 0
0.0547903 -0.0558935 0
0.0557524 -0.0569382 0
0.0567045 -0.0579922 0
0.0576467 -0.0590549 0
0.0585792 -0.0601261 0
0.0595024 -0.0612055 0
0.0604163 -0.0622926 0
0.0613212 -0.0633873 0
0.0622174 -0.0644891 0
0.0631049 -0.0655979 0
0.0639841 -0.0667134 0
0.064855 -0.0678353 0
0.0657179 -0.0689633 0
0.0665729 -0.0700974 0
0.0674202 -0.0712372 0
0.06826 -0.0723826 0
0.0690925 -0.0735333 0
0.0699178 -0.0746892 0
0.070736 -0.0758501 0
0.0715473 -0.0770159 0
0.0723518 -0.0781863 0
0.0731498 -0.0793612 0
0.0739412 -0.0805405 0
0.0747264 -0.081724 0
0.0755053 -0.0829116 0
0.0762781 -0.0841033 0
0.0770449 -0.0852987 0
0.0778059 -0.0864979 0
0.0785611 -0.0877007 0
0.0793108 -0.088907 0
0.0814681 -0.0912706 0
0.0828814 -0.0924245 0
0.0842946 -0.0935783 0
0.0857079 -0.0947322 0
0.0871211 -0.095886 0
0.0885344 -0.0970399 0
0.0899476 -0.0981937 0
0.0913609 -0.0993476 0
0.0927741 -0.100501 0
0.0941874 -0.101655 0
0.0956006 -0.102809 0
0.0970139 -0.103963 0
0.0984272 -0.105117 0
0.0998404 -0.106271 0
0.101254 -0.107424 0
0.102667 -0.108578 0
0.10408 -0.109732 0
0.105493 -0.110886 0
0.106907 -0.11204 0
0.10832 -0.113194 0
0.109733 -0.114348 0
0.111146 -0.115501 0
0.11256 -0.116655 0
0.113973 -0.117809 0
0.115386 -0.118963 0
0.116799 -0.120117 0
0.118213 -0.121271 0
0.119626 -0.122424 0
0.121039 -0.123578 0
0.122452 -0.124732 0
0.123866 -0.125886 0
0.125279 -0.12704 0
0.126692 -0.128194 0
0.128105 -0.129348 0
0.129519 -0.130501 0
0.130932 -0.131655 0
0.132345 -0.132809 0
0.133758 -0.133963 0
0.135172 -0.133216 0
0.135172 -0.131316 0
0.135172 -0.129415 0
0.135172 -0.127514 0
0.135172 -0.125614 0
0.135172 -0.123713 0
0.135172 -0.121813 0
0.135172 -0.119912 0
0.135172 -0.118012 0
0.135172 -0.116111 0
0.135172 -0.11421 0
0.135172 -0.11231 0
0.135172 -0.110409 0
0.135172 -0.108509 0
0.135172 -0.106608 0
0.135172 -0.104708 0
0.135172 -0.102807 0
0.135172 -0.100906 0
0.135172 -0.0990058 0
0.135172 -0.0971052 0
0.135172 -0.0952046 0
0.135172 -0.0933041 0
0.135172 -0.0914035 0
0.135172 -0.0895029 0
0.135172 -0.0876023 0
0.135172 -0.0857017 0
0.135172 -0.0838012 0
0.135172 -0.0819006 0
0.133758 -0.0788462 0
0.132345 -0.0776923 0
0.130932 -0.0765385 0
0.129519 -0.0753846 0
0.128105 -0.0742308 0
0.126692 -0.0730769 0
0.125279 -0.0719231 0
0.123866 -0.0707692 0
0.122452 -0.0696154 0
0.121039 -0.0684615 0
0.119626 -0.0673077 0
0.118213 -0.0661538 0
0.116799 -0.065 0
0.115386 -0.0638462 0
0.113973 -0.0626923 0
0.11256 -0.0615385 0
0.111146 -0.0603846 0
0.109733 -0.0592308 0
0.10832 -0.0580769 0
0.106907 -0.0569231 0
0.105493 -0.0557692 0
0.10408 -0.0546154 0
0.102667 -0.0534615 0
0.101254 -0.0523077 0
0.0998404 -0.0511538 0
0.0984272 -0.05 0
0.0970139 -0.0488462 0
0.0956006 -0.0476923 0
[...]
CELL_DATA 13116
SCALARS rho float
LOOKUP_TABLE default
0.445305
0.523602
0.308154
0.561051
0.55275
0.539486
0.357581
0.554374
0.427418
0.556505
0.36178
0.297195
0.552949
0.336295
0.333119
0.539571
0.423745
0.550206
0.53801
0.336728
0.448334
0.351744
0.325828
0.551544
0.486826
0.503569
0.556552
0.317363
0.512055
0.513211
0.538211
0.310686
0.448061
0.364829
0.351056
0.446906
0.526964
0.533695
0.539179
0.539949
0.539039
0.557105
0.351077
0.307804
0.536938
0.537889
0.507154
0.540539
0.369213
0.423924
0.550994
0.361954
0.353236
0.418876
0.447061
0.469617
0.307272
0.548848
0.434048
0.335672
0.336399
0.557427
0.516689
0.539114
0.538357
0.329414
0.541625
0.531903
0.542487
0.538464
0.335154
0.47719
0.343576
0.318835
0.53778
0.341694
0.51179
0.548701
0.366346
0.547982
0.536585
0.507979
0.551502
0.540345
0.529919
0.40116
0.36639
0.529839
0.525781
0.356817
0.304558
0.524835
0.553381
0.529578
0.51553
0.479314
0.48862
0.538201
0.537897
0.481391
0.537272
0.474519
0.538668
0.352632
0.494588
0.337651
0.314783
0.387738
0.321429
0.51676
0.410158
0.503763
0.477886
0.53923
0.548431
0.541775
0.354002
0.332136
0.546031
0.542749
0.532191
0.333913
0.542784
0.313329
0.524976
0.361852
0.365166
0.414899
0.310015
0.425281
0.546235
0.540726
0.42763
0.364318
0.407884
0.470698
0.537136
0.544696
0.536613
0.542528
0.500247
0.509552
0.413107
0.500865
0.513312
0.322683
0.350756
0.501912
0.551057
0.547783
0.450149
0.539901
0.540484
0.328335
0.553912
0.530932
0.324462
0.541498
0.538244
0.530095
0.550876
0.364841
0.550156
0.324596
0.327062
0.555776
0.522928
0.549846
0.353115
0.398106
0.361495
0.537105
0.331611
0.400687
0.541075
0.326788
0.364402
0.345745
0.500914
0.539213
0.334193
0.360297
0.426028
0.527269
0.539276
0.43222
0.315608
0.538847
0.485593
0.375841
0.507008
0.500404
0.538509
0.326849
0.496972
0.539561
0.554346
0.538546
0.524814
0.330908
0.352787
0.513874
0.410986
0.332866
0.547167
0.536784
0.369366
0.486642
0.334502
0.357372
0.338913
0.540631
0.323167
0.344577
0.354165
0.327451
0.315086
0.538629
0.5226
0.394778
0.308338
0.541462
0.405554
0.336188
0.490309
0.55683
0.511648
0.322794
0.541204
0.347686
0.560227
0.307237
0.53855
0.471545
0.538095
0.534589
0.538588
0.353659
0.357236
0.530056
0.537802
0.539459
0.537253
0.538446
0.549042
0.364662
0.547474
0.554453
0.537876
0.353345
0.368508
0.537949
0.545529
0.538436
0.542761
0.435533
0.541528
0.362728
0.374104
0.330219
0.33501
0.482593
0.55419
0.510866
0.369265
0.535702
0.315545
0.377697
0.496131
0.346021
0.504767
0.553861
0.537611
0.548597
0.355401
0.537571
0.540395
0.537881
0.544581
0.366691
0.353136
0.325112
0.467421
0.334305
0.3569
0.293616
0.281574
0.529364
0.347403
0.529938
0.553212
0.31004
0.311396
0.314803
0.374676
0.29517
0.528816
0.473118
0.499571
0.347083
0.540389
0.52067
0.371782
0.338732
0.53903
0.545485
0.538612
0.321047
0.539635
0.348163
0.540197
0.557052
0.546531
0.556227
0.327656
0.541204
0.33732
0.539347
0.557102
0.531292
0.36955
0.294731
0.554851
0.319058
0.517332
0.557337
0.29802
0.543676
0.55129
0.314751
0.535523
0.553321
0.333218
0.547344
0.411986
0.51259
0.53844
0.415294
0.541701
0.371215
0.549889
0.308011
0.538531
0.468763
0.55519
0.323322
0.31008
0.530902
0.333377
0.546454
0.489977
0.35292
0.537166
0.322319
0.346684
0.54451
0.475249
0.530751
0.355909
0.324118
0.547322
0.553069
0.352362
0.55199
0.346398
0.337799
0.541391
0.541944
0.380297
0.355906
0.544718
0.538406
0.539648
0.534529
0.548149
0.44999
0.269269
0.333898
0.3293
0.539615
0.331846
0.424548
0.303469
0.316765
0.305726
0.38713
0.126031
0.333534
0.53163
0.258741
0.550691
0.494933
0.539136
0.523835
0.548036
0.343181
0.346576
0.337359
0.279327
0.544437
0.474924
0.538925
0.501241
0.514523
0.49476
0.506666
0.497037
0.51119
0.547091
0.547614
0.539274
0.336279
0.375672
0.442432
0.35367
0.470424
0.468441
0.355536
0.541565
0.537708
0.32821
0.37322
0.362001
0.316424
0.526185
0.334008
0.326803
0.540917
0.321233
0.469217
0.359563
0.539124
0.536238
0.290438
0.363654
0.544147
0.377024
0.361744
0.314483
0.356746
0.321846
0.322766
0.37414
0.344952
0.375342
0.364496
0.472043
0.311599
0.529155
0.308438
0.338173
0.452873
0.323517
0.356414
0.32004
0.537849
0.373201
0.516832
0.390751
0.319497
0.488445
0.527474
0.400391
0.543352
0.495767
0.494845
0.311491
0.538131
0.331914
0.548967
0.538139
0.323344
0.350047
0.484634
0.280191
0.415607
0.470677
0.31422
0.540766
0.5153
0.314796
0.360786
0.3318
0.39738
0.336125
0.342346
0.331731
0.338514
0.558143
0.558809
0.379061
0.483415
0.406115
0.496862
0.306618
0.334013
0.43057
0.323644
0.540146
0.267211
0.320727
0.424827
0.536439
0.519542
0.482663
0.29639
0.35134
0.513035
0.554565
0.538752
0.510248
0.498029
0.481812
0.363253
0.535505
0.468634
0.529235
0.273911
0.297826
0.538516
0.554612
0.523043
0.557108
0.521217
0.503426
0.549993
0.529699
0.539083
0.353852
0.536226
0.306616
0.33398
0.36747
0.560171
0.537152
0.272361
0.529214
0.526937
0.370544
0.538562
0.54498
0.544559
0.317044
0.33398
0.547481
0.364545
0.361493
0.313125
0.362749
0.538471
0.33888
0.560158
0.312318
0.524096
0.550053
0.541724
0.553262
0.363127
0.319238
0.538498
0.561098
0.51996
0.557919
0.554269
0.454326
0.313135
0.324592
0.539957
0.428679
0.364281
0.378834
0.31375
0.537682
0.539286
0.273898
0.349479
0.527656
0.425386
0.532249
0.529044
0.308845
0.348069
0.517014
0.53777
0.325014
0.518738
0.522642
0.537945
0.332156
0.537199
0.307726
0.538024
0.528332
0.356718
0.316383
0.354458
0.537947
0.314101
0.362475
0.330799
0.538653
0.542885
0.364006
0.370627
0.360138
0.53878
0.339506
0.539452
0.325377
0.479607
0.556878
0.310971
0.32525
0.325738
0.454983
0.325688
0.511566
0.326739
0.333317
0.538964
0.335266
0.540451
0.514605
0.538102
0.345532
0.540643
0.552333
0.554065
0.540095
0.525637
0.541252
0.315342
0.53869
0.395738
0.536008
0.367208
0.549757
0.41115
0.351762
0.538139
0.549674
0.337426
0.499106
0.304486
0.333646
0.540856
0.537577
0.301949
0.319451
0.365731
0.317912
0.53509
0.551668
0.331502
0.314168
0.546446
0.544469
0.480622
0.551911
0.539314
0.365158
0.555267
0.366354
0.550875
0.333139
0.477519
0.422793
0.541046
0.531647
0.494158
0.298177
0.322473
0.538371
0.521224
0.422578
0.55153
0.33556
0.538983
0.553621
0.333037
0.37365
0.552671
0.296962
0.538213
0.530789
0.291646
0.543413
0.514268
0.325388
0.541998
0.324621
0.523789
0.33198
0.540511
0.515318
0.326376
0.539106
0.550519
0.548173
0.52597
0.5366
0.509382
0.347347
0.349434
0.298101
0.32661
0.536905
0.492174
0.543355
0.55057
0.344253
0.331905
0.53949
0.557524
0.544526
0.553842
0.370342
0.547756
0.554344
0.343601
0.309985
0.546206
0.537877
0.526886
0.325447
0.524169
0.298172
0.541363
0.512991
0.538801
0.52898
0.361431
0.535867
0.529843
0.552621
0.536662
0.539301
0.393684
0.547847
0.357682
0.498042
0.555429
0.395898
0.5164
0.538861
0.549632
0.344179
0.345797
0.509338
0.518174
0.367295
0.355248
0.338839
0.363001
0.525475
0.53866
0.53837
0.279242
0.364898
0.542335
0.540411
0.336077
0.333449
0.392893
0.526128
0.538611
0.53401
0.545553
0.35754
0.368131
0.537296
0.31201
0.336322
0.331105
0.538803
0.304601
0.360531
0.464048
0.537303
0.501015
0.539347
0.53886
0.351315
0.332742
0.338878
0.391497
0.374547
0.306648
0.530808
0.545263
0.524009
0.540073
0.330122
0.3544
0.556903
0.375005
0.53924
0.514952
0.538347
0.301987
0.35712
0.519723
0.538071
0.454418
0.33561
0.531534
0.539446
0.460954
0.547929
0.553083
0.537413
0.498238
0.370305
0.538929
0.538152
0.492393
0.541633
0.536965
0.50496
0.537566
0.544034
0.333571
0.344088
0.356596
0.538437
0.410502
0.372623
0.539324
0.546913
0.29167
0.504482
0.288074
0.508209
0.38524
0.366499
0.557711
0.551236
0.362935
0.499854
0.538427
0.317145
0.529833
0.339853
0.337955
0.491819
0.487689
0.449755
0.538581
0.335586
0.550026
0.3613
0.319397
0.540391
0.363148
0.482646
0.316365
0.503923
0.478674
0.537521
0.521328
0.332526
0.332727
0.488017
0.352751
0.544295
0.373131
0.474055
0.539281
0.55245
0.36307
0.516046
0.499727
0.554568
0.542167
0.310683
0.363261
0.476203
0.498148
0.554997
0.317407
0.538582
0.45578
0.337459
0.306945
0.532389
0.526756
0.537376
0.537864
0.474518
0.539757
0.538933
0.532328
0.316706
0.523331
0.389705
0.54403
0.537396
0.270733
0.505853
0.551552
0.358416
0.342427
0.316367
0.536985
0.365714
0.491617
0.545409
0.52455
0.328772
0.531479
0.335967
0.522442
0.538988
0.538334
0.529562
0.538742
0.494553
0.535636
0.425447
0.535602
0.328738
0.538979
0.541609
0.338824
0.537703
0.539683
0.323996
0.333264
0.314757
0.546925
0.36064
0.537494
0.335373
0.553668
0.347583
0.425566
0.321708
0.548561
0.553303
0.433919
0.240023
0.494511
0.538681
0.349739
0.478351
0.559157
0.306572
0.471578
0.537985
0.556567
0.539414
0.321944
0.385634
0.54559
0.538494
0.499155
0.357251
0.342308
0.533078
0.537271
0.537749
0.537237
0.443933
0.541053
0.440501
0.542246
0.358319
0.334869
0.537283
0.551866
0.538707
0.332251
0.538958
0.449849
0.480284
0.34375
0.369111
0.552297
0.562294
0.452129
0.274804
0.539586
0.537797
0.356314
0.489356
0.545386
0.354806
0.343491
0.334359
0.484676
0.343936
0.352461
0.534744
0.379379
0.555192
0.508772
0.353656
0.314744
0.556912
0.354839
0.334463
0.538081
0.335953
0.305435
0.474239
0.522168
0.540802
0.363037
0.266471
0.357236
0.515696
0.336938
0.541301
0.333652
0.539944
0.496887
0.536074
0.502471
0.53496
0.511452
0.538738
0.552938
0.543351
0.340215
0.352769
0.529502
0.539034
0.466713
0.49317
0.451209
0.538939
0.491178
0.290467
0.542153
0.558468
0.53417
0.34985
0.536515
0.308369
0.540341
0.460444
0.548239
0.540108
0.36718
0.544412
0.360433
0.352344
0.517595
0.331608
0.541169
0.537027
0.543412
0.317689
0.540861
0.360433
0.302048
0.316075
0.3545
0.485573
0.333614
0.502783
0.538901
0.2778
0.327106
0.441101
0.496656
0.503387
0.500322
0.346357
0.332046
0.354157
0.32245
0.237752
0.503079
0.507374
0.315692
0.53846
0.545016
0.336058
0.558465
0.539907
0.538956
0.354137
0.537738
0.535606
0.548017
0.54393
0.336024
0.541815
0.549256
0.536998
0.53357
0.53876
0.360381
0.320318
0.540091
0.480313
0.356964
0.540249
0.326277
0.509772
0.49872
0.522272
0.525111
0.30418
0.492025
0.330199
0.351072
0.544293
0.547824
0.551192
0.547067
0.521018
0.30224
0.554014
0.333766
0.465834
0.555342
0.537913
0.545205
0.353838
0.369966
0.554994
0.367382
0.547008
0.521178
0.362022
0.344431
0.541351
0.318314
0.540036
0.546656
0.518807
0.317968
0.353481
0.412958
0.420533
0.494791
0.386492
0.538906
0.500274
0.531163
0.53686
0.540658
0.356228
0.345245
0.548431
0.538762
0.496977
0.399666
0.334454
0.533351
0.331489
0.539235
0.521479
0.274457
0.544036
0.365964
0.514415
0.309928
0.551777
0.350447
0.539633
0.539156
0.279524
0.526977
0.517742
0.268649
0.538405
0.537878
0.449711
0.323937
0.308955
0.380485
0.552724
0.484943
0.325012
0.52164
0.542486
0.53899
0.318801
0.486955
0.527593
0.427254
0.538896
0.539438
0.26346
0.542983
0.537933
0.309368
0.478679
0.317115
0.506756
0.326015
0.338245
0.554306
0.358221
0.359641
0.333054
0.541292
0.52125
0.342934
0.539503
0.309253
0.52529
0.36069
0.524031
0.304638
0.53936
0.540406
0.512804
0.538606
0.502773
0.539183
0.538939
0.292938
0.512052
0.516599
0.400142
0.54017
0.449265
0.35158
0.553772
0.335974
0.465812
0.285368
0.538838
0.341523
0.32647
0.551342
0.53895
0.315466
0.543224
0.545354
0.536955
0.553464
0.537926
0.37116
0.557903
0.327088
0.323795
0.526688
0.546327
0.556409
0.529328
0.312224
0.325245
0.357366
0.524606
0.538849
0.309664
0.53015
0.339478
0.322693
0.344474
0.528009
0.332809
0.555263
0.543678
0.511614
0.536864
0.542759
0.461387
0.5079
0.388843
0.330207
0.316975
0.53791
0.537781
0.333673
0.502712
0.482732
0.509183
0.322427
0.338131
0.50297
0.254745
0.498278
0.477681
0.344304
0.538868
0.526752
0.370941
0.540274
0.335234
0.543153
0.555857
0.535293
0.333087
0.428795
0.539961
0.268873
0.411173
0.536938
0.275119
0.538928
0.542091
0.504471
0.545667
0.270434
0.538154
0.54378
0.538395
0.326342
0.548514
0.362111
0.328769
0.530918
0.5388
0.538646
0.215809
0.540344
0.515049
0.537783
0.331263
0.346903
0.36228
0.545788
0.35752
0.334752
0.326259
0.476118
0.334265
0.273745
0.396389
0.541226
0.371825
0.538548
0.538915
0.539669
0.317967
0.542113
0.52112
0.538439
0.369018
0.531523
0.348172
0.338168
0.540742
0.313059
0.49988
0.541633
0.537462
0.352789
0.294735
0.338256
0.505828
0.537268
0.213404
0.534283
0.541179
0.546529
0.356331
0.333939
0.31054
0.483979
0.362248
0.536939
0.520022
0.539003
0.533881
0.365972
0.500346
0.314889
0.457038
0.522129
0.557381
0.461504
0.397045
0.530711
0.499594
0.549128
0.323981
0.303664
0.313552
0.547808
0.432873
0.537937
0.357271
0.339456
0.548131
0.541932
0.538265
0.314291
0.540225
0.504343
0.50048
0.486614
0.325353
0.316975
0.262503
0.53882
0.538896
0.532608
0.495441
0.306118
0.544072
0.526495
0.538896
0.5384
0.544069
0.558312
0.539574
0.54526
0.550787
0.322269
0.543401
0.54777
0.538815
0.544675
0.53851
0.466537
0.377427
0.337961
0.494943
0.355
0.274475
0.539545
0.332342
0.520741
0.541999
0.521802
0.53475
0.324364
0.54087
0.313081
0.33991
0.539656
0.540381
0.540204
0.322189
0.551163
0.538687
0.493072
0.538696
0.355706
0.538795
0.555312
0.527113
0.33266
0.549284
0.357954
0.562218
0.338135
0.3789
0.428153
0.381516
0.557613
0.549469
0.539422
0.331681
0.538779
0.344732
0.332365
0.516504
0.454014
0.356598
0.538962
0.337644
0.474895
0.530885
0.5072
0.52462
0.446582
0.525452
0.522705
0.539636
0.464801
0.551162
0.47414
0.556633
0.492437
0.516631
0.330346
0.366765
0.381115
0.547107
0.323431
0.529085
0.543487
0.484005
0.539713
0.425312
0.540356
0.533419
0.354105
0.542639
0.488879
0.404441
0.491443
0.554757
0.512747
0.538825
0.356951
0.334071
0.536661
0.43531
0.442341
0.544452
0.540016
0.539909
0.554638
0.555613
0.496843
0.498345
0.55736
0.332428
0.330406
0.339151
0.301366
0.537699
0.379824
0.437745
0.543759
0.537067
0.323732
0.535544
0.561234
0.326343
0.325394
0.537563
0.544613
0.325558
0.308838
0.314721
0.536888
0.503038
0.336601
0.357465
0.340883
0.337123
0.285897
0.355841
0.558124
0.54052
0.538112
0.326596
0.522565
0.486371
0.526292
0.321763
0.370923
0.514931
0.53724
0.360313
0.539126
0.371582
0.551032
0.323293
0.539105
0.311376
0.524638
0.552978
0.319437
0.503314
0.359281
0.558152
0.336059
0.489313
0.326967
0.413596
0.34854
0.483022
0.351007
0.53853
0.53842
0.520701
0.534149
0.309381
0.524249
0.538632
0.551954
0.484573
0.525985
0.370997
0.344933
0.323846
0.553351
0.263591
0.551297
0.462045
0.546127
0.556497
0.380407
0.547704
0.333362
0.34021
0.332894
0.417499
0.427134
0.539445
0.346189
0.360142
0.540208
0.348265
0.317508
0.450561
0.321949
0.3607
0.338648
0.558005
0.52614
0.492511
0.330887
0.521828
0.538972
0.331996
0.294788
0.530137
0.538954
0.459105
0.476596
0.379714
0.325973
0.328115
0.53559
0.491798
0.426579
0.542547
0.332456
0.460691
0.366638
0.538216
0.551231
0.369491
0.371011
0.49651
0.446115
0.552947
0.55075
0.552977
0.543586
0.555501
0.326001
0.350876
0.314221
0.365715
0.439808
0.538285
0.527211
0.366544
0.337968
0.370415
0.341663
0.539834
0.506457
0.355457
0.274375
0.541959
0.324773
0.521722
0.549497
0.517649
0.538788
0.448056
0.36223
0.308441
0.494339
0.370867
0.350293
0.337753
0.538762
0.538548
0.306466
0.355354
0.537098
0.347983
0.540114
0.553365
0.358234
0.35844
0.35138
0.541695
0.352008
0.537009
0.542148
0.484508
0.304832
0.476672
0.548247
0.53227
0.364486
0.530168
0.496406
0.348047
0.545693
0.560366
0.354517
0.357685
0.518865
0.351584
0.368614
0.527095
0.31546
0.539431
0.540695
0.552832
0.501561
0.551697
0.541818
0.539251
0.358418
0.37118
0.504238
0.538616
0.427984
0.558221
0.284901
0.543792
0.525761
0.461662
0.518273
0.343862
0.384734
0.536185
0.549263
0.49026
0.55318
0.540927
0.537376
0.552547
0.536997
0.527443
0.518337
0.540915
0.53731
0.539283
0.282425
0.510325
0.292839
0.541064
0.543488
0.546974
0.510546
0.545323
0.357416
0.334763
0.27226
0.365618
0.516144
0.306731
0.35145
0.537618
0.324901
0.544764
0.330321
0.52719
0.54214
0.357543
0.350592
0.269495
0.546207
0.317528
0.538876
0.544191
0.336249
0.512992
0.47302
0.282877
0.318574
0.326733
0.546282
0.357884
0.541836
0.422506
0.355086
0.537953
0.539074
0.552978
0.37337
0.465244
0.323858
0.523974
0.539085
0.541726
0.361029
0.537899
0.544591
0.499907
0.345076
0.546122
0.369807
0.364041
0.535627
0.376226
0.555711
0.357802
0.361015
0.394537
0.506162
0.315467
0.232866
0.33382
0.394935
0.537804
0.54359
0.335916
0.48195
0.541061
0.509077
0.347881
0.271717
0.475606
0.369752
0.36439
0.53661
0.362891
0.366194
0.548023
0.559497
0.327622
0.549173
0.32772
0.537498
0.315715
0.517575
0.538573
0.5463
0.53887
0.36128
0.364851
0.319536
0.539276
0.520142
0.524374
0.443426
0.340156
0.274767
0.539076
0.358966
0.539821
0.346006
0.538725
0.532956
0.310857
0.30332
0.361579
0.37432
0.297973
0.495613
0.518173
0.311847
0.542765
0.510064
0.346269
0.33238
0.559569
0.35455
0.541729
0.386823
0.545937
0.522619
0.542019
0.53788
0.333511
0.555623
0.539671
0.560104
0.357461
0.489459
0.519773
0.272718
0.54704
0.510268
0.552514
0.522437
0.555577
0.534489
0.556081
0.538845
0.538072
0.349446
0.552313
0.361311
0.37724
0.536711
0.321281
0.528187
0.488418
0.364849
0.501071
0.358091
0.304835
0.529735
0.481854
0.559081
0.358111
0.522186
0.499354
0.308345
0.321195
0.516774
0.539064
0.331007
0.340458
0.544982
0.559031
0.356357
0.513345
0.553792
0.529123
0.317087
0.369779
0.31419
0.523747
0.352523
0.530756
0.547816
0.539127
0.486737
0.542287
0.357867
0.526326
0.522854
0.552827
0.459327
0.323638
0.359798
0.336086
0.551397
0.544987
0.38623
0.521063
0.263238
0.514049
0.542578
0.335596
0.495549
0.531535
0.499602
0.322433
0.360895
0.2968
0.546335
0.555603
0.49762
0.47305
0.542094
0.360327
0.507812
0.537669
0.538089
0.322188
0.525964
0.362178
0.493423
0.337546
0.537617
0.529704
0.332607
0.54601
0.354772
0.53728
0.511055
0.536915
0.546022
0.349846
0.539057
0.539362
0.539228
0.538321
0.44946
0.537627
0.344221
0.539537
0.335035
0.329675
0.336706
0.299251
0.368671
0.317735
0.555691
0.330188
0.333599
0.524263
0.546383
0.519793
0.340406
0.542497
0.541922
0.538732
0.289972
0.469025
0.541584
0.329728
0.3298
0.365818
0.503579
0.472002
0.354209
0.473693
0.331769
0.537992
0.462807
0.360716
0.41922
0.519288
0.295963
0.539384
0.331746
0.391961
0.329459
0.53796
0.333249
0.520037
0.537696
0.477247
0.345498
0.36614
0.532823
0.558325
0.332696
0.301973
0.539213
0.327661
0.548978
0.328993
0.485301
0.336602
0.541724
0.348806
0.557151
0.327091
0.542366
0.542911
0.549818
0.537696
0.346937
0.324812
0.337533
0.506027
0.536976
0.505005
0.42949
0.360016
0.546646
0.275443
0.518329
0.47219
0.353296
0.349639
0.550536
0.537374
0.326077
0.538354
0.536303
0.550388
0.552846
0.331742
0.50968
0.36011
0.550399
0.348226
0.538687
0.513786
0.519973
0.557478
0.349375
0.561997
0.358201
0.351626
0.540011
0.537764
0.446842
0.537222
0.537659
0.357586
0.55054
0.535301
0.554589
0.303677
0.361866
0.539541
0.305922
0.544153
0.543149
0.530189
0.540241
0.261984
0.369334
0.519109
0.330597
0.525607
0.558834
0.38955
0.527234
0.243265
0.495913
0.550711
0.538561
0.52726
0.368338
0.327786
0.539683
0.528764
0.367141
0.28405
0.352741
0.326357
0.333754
0.333171
0.291105
0.356359
0.539241
0.334316
0.319216
0.544166
0.445368
0.537122
0.341741
0.354916
0.541474
0.385325
0.394774
0.5542
0.321157
0.527361
0.538774
0.508053
0.525708
0.3137
0.54386
0.539081
0.333825
0.364626
0.352591
0.48616
0.503148
0.555507
0.539683
0.538744
0.528366
0.304138
0.544495
0.53913
0.516138
0.372654
0.542117
0.467008
0.297662
0.369597
0.350377
0.321765
0.33602
0.477671
0.531804
0.530445
0.36315
0.358423
0.553657
0.283883
0.544371
0.539383
0.530471
0.538786
0.541742
0.330564
0.323516
0.327962
0.460116
0.352876
0.540629
0.320765
0.540696
0.538993
0.543131
0.302435
0.370249
0.348243
0.542583
0.345824
0.366055
0.539267
0.525466
0.497264
0.539481
0.512697
0.548599
0.363452
0.520739
0.551828
0.488476
0.541629
0.545915
0.549365
0.426902
0.386522
0.555633
0.457446
0.492203
0.358475
0.512998
0.530712
0.33223
0.354316
0.522524
0.421971
0.549798
0.544367
0.35796
0.333046
0.537952
0.318042
0.34648
0.53183
0.517579
0.362641
0.534146
0.538273
0.511929
0.362189
0.478731
0.364428
0.533959
0.550977
0.548456
0.528407
0.538228
0.281573
0.30525
0.537397
0.356691
0.523822
0.359239
0.542595
0.326459
0.517284
0.55153
0.538127
0.361857
0.536978
0.5377
0.36665
0.513501
0.316438
0.559015
0.361426
0.30935
0.318572
0.534874
0.53644
0.295264
0.26877
0.502226
0.555113