# vtk DataFile Version 1.0
unstructured grid
ascii
DATASET UNSTRUCTURED_GRID
points 13672 float
0.0796578 -0.059106 0
0.00128732 0.00159165 0
0.00227961 -0.00102548 0
0.0791586 -0.0598787 0
-0.0546216 0.01 0
0.000495206 0.025 0
0.0800549 -0.035 0
0.135172 -0.08 0
-0.0546216 -0.0451168 0
0.000495206 -0.0301168 0
0.0800549 -0.0901168 0
0.135172 -0.135117 0
-0.0546216 -0.0451168 -0.00551168
0.000495206 -0.0301168 -0.00551168
0.0800549 -0.0901168 -0.00551168
0.135172 -0.135117 -0.00551168
0.135172 -0.08 -0.00551168
0.0800549 -0.035 -0.00551168
0.000495206 0.025 -0.00551168
-0.0546216 0.01 -0.00551168
0.00128732 0.00159165 -0.00551168
0.00227961 -0.00102548 -0.00551168
0.0791586 -0.0598787 -0.00551168
0.0796578 -0.059106 -0.00551168
0.00165953 -0.000990923 0
0.00119576 -0.000874076 0
0.000866021 -0.000641801 0
0.000645147 -0.000349912 0
0.00052235 -1.7281e-05 0
0.00049972 0.000348016 0
0.000601632 0.000737716 0
0.000861774 0.0011403 0
0.00157235 0.00183217 0
0.00188647 0.00206725 0
0.00222612 0.00230203 0
0.00258713 0.00254351 0
0.00296826 0.00279524 0
0.00337118 0.00305664 0
0.00379785 0.00332658 0
0.00425045 0.00360349 0
0.00473139 0.00388521 0
0.0052432 0.00416895 0
0.0057881 0.00445204 0
0.00636753 0.00473281 0
0.00698281 0.00500961 0
0.00763526 0.00528058 0
0.00832616 0.00554366 0
0.00905691 0.00579603 0
0.00982918 0.00603333 0
0.0106445 0.00625033 0
0.0115038 0.00644128 0
0.0124073 0.00660297 0
0.0133543 0.00673414 0
0.0143444 0.00683382 0
0.0153769 0.00690031 0
0.0164512 0.00693173 0
0.0175666 0.00692547 0
0.0187219 0.00687822 0
0.0199156 0.00678477 0
0.0211454 0.00663864 0
0.0224084 0.00643275 0
0.0237018 0.00616676 0
0.0250249 0.00584739 0
0.026375 0.00547298 0
0.0277479 0.00503752 0
0.0291386 0.00453545 0
0.0305433 0.0039653 0
0.0319572 0.0033256 0
0.0333681 0.00260019 0
0.034775 0.00179799 0
0.0361793 0.000930615 0
0.0375798 3.12222e-06 0
0.0389689 -0.000988429 0
0.0403357 -0.00205109 0
0.041675 -0.00318283 0
0.0429849 -0.00437751 0
0.0442643 -0.00562904 0
0.0455126 -0.00693089 0
0.0467314 -0.00827518 0
0.0479204 -0.00965638 0
0.0490661 -0.0110799 0
0.0501515 -0.0125519 0
0.0511696 -0.0140695 0
0.0521492 -0.0156071 0
0.0531202 -0.0171411 0
0.0540851 -0.0186663 0
0.0550431 -0.0201798 0
0.0559923 -0.0216793 0
0.0569311 -0.0231626 0
0.0578582 -0.0246273 0
0.0587723 -0.0260715 0
0.0596721 -0.027493 0
0.0605563 -0.02889 0
0.0614241 -0.0302609 0
0.0622742 -0.0316042 0
0.063106 -0.0329183 0
0.0639186 -0.034202 0
0.0647113 -0.0354543 0
0.0654835 -0.0366743 0
0.0662345 -0.0378613 0
0.0669642 -0.0390145 0
0.0676726 -0.0401333 0
0.0683597 -0.0412172 0
0.0690246 -0.0422665 0
0.0696662 -0.0432819 0
0.0702841 -0.0442636 0
0.0708793 -0.0452111 0
0.0714538 -0.0461237 0
0.072009 -0.047001 0
0.0725452 -0.0478434 0
0.0730611 -0.0486524 0
0.073556 -0.0494294 0
0.0740291 -0.0501756 0
0.0744812 -0.0508916 0
0.0749138 -0.0515773 0
0.0753285 -0.0522331 0
0.0757266 -0.0528592 0
0.076109 -0.0534564 0
0.0764753 -0.0540264 0
0.0768243 -0.054571 0
0.0771553 -0.0550919 0
0.0774679 -0.0555901 0
0.0777617 -0.0560669 0
0.0780369 -0.056523 0
0.0782958 -0.0569578 0
0.0785421 -0.0573703 0
0.0787786 -0.0577603 0
0.0790073 -0.0581279 0
0.0792295 -0.058474 0
0.0794462 -0.0587995 0
0.0798803 -0.0594162 0
0.0800272 -0.0596588 0
0.0800357 -0.0598891 0
0.0799275 -0.0600784 0
0.0797205 -0.0601773 0
0.0794593 -0.0601051 0
0.0789155 -0.0596491 0
0.0786707 -0.0593963 0
0.0784111 -0.0591319 0
0.0781372 -0.0588542 0
0.0778566 -0.0585548 0
0.0775715 -0.0582308 0
0.0772803 -0.0578828 0
0.0769832 -0.0575099 0
0.0766822 -0.0571097 0
0.0763801 -0.0566796 0
0.0760759 -0.0562196 0
0.0757623 -0.0557337 0
0.0754359 -0.0552232 0
0.0750951 -0.0546879 0
0.0747379 -0.054128 0
0.0743626 -0.0535435 0
0.0739688 -0.0529338 0
0.0735559 -0.0522981 0
0.0731238 -0.0516357 0
0.0726718 -0.050946 0
0.0721991 -0.0502288 0
0.0717046 -0.049484 0
0.0711872 -0.0487117 0
0.0706461 -0.047912 0
0.0700804 -0.0470849 0
0.0694892 -0.0462308 0
0.0688718 -0.0453499 0
0.0682271 -0.0444431 0
0.0675544 -0.043511 0
0.0668527 -0.0425546 0
0.0661215 -0.0415748 0
0.06536 -0.040573 0
0.0645676 -0.0395504 0
0.0637439 -0.0385087 0
0.0628887 -0.0374493 0
0.062002 -0.0363741 0
0.0610838 -0.0352847 0
0.0601345 -0.0341831 0
0.0591547 -0.033071 0
0.0581456 -0.0319502 0
0.0571083 -0.0308224 0
0.0560444 -0.0296893 0
0.0549562 -0.028552 0
0.053845 -0.0274126 0
0.0527113 -0.0262746 0
0.051554 -0.0251427 0
0.0503724 -0.0240222 0
0.0491675 -0.0229164 0
0.047941 -0.0218282 0
0.0466955 -0.0207597 0
0.0454337 -0.0197126 0
0.0441592 -0.0186878 0
0.0428751 -0.0176863 0
0.0415841 -0.0167097 0
0.0402878 -0.0157609 0
0.0389879 -0.0148428 0
0.0376864 -0.0139575 0
0.0363853 -0.013107 0
0.0350871 -0.0122931 0
0.0337942 -0.0115164 0
0.0325095 -0.0107772 0
0.0312357 -0.0100756 0
0.0299758 -0.00941024 0
0.0287337 -0.00877784 0
0.0275126 -0.00817571 0
0.0263139 -0.00760375 0
0.0251376 -0.00706528 0
0.0239829 -0.0065649 0
0.0228537 -0.00609619 0
0.0217522 -0.00565563 0
0.0206795 -0.00524226 0
0.0196364 -0.00485507 0
0.0186233 -0.00449318 0
0.0176408 -0.00415577 0
0.016689 -0.00384204 0
0.0157682 -0.00355115 0
0.0148783 -0.00328218 0
0.0140192 -0.00303468 0
0.0131906 -0.00280795 0
0.0123925 -0.00260016 0
0.0116246 -0.00241012 0
0.0108864 -0.00223769 0
0.0101774 -0.00208212 0
0.00949701 -0.00194206 0
0.00884483 -0.0018163 0
0.0082202 -0.0017039 0
0.00762247 -0.00160391 0
0.00705097 -0.00151528 0
0.006505 -0.00143697 0
0.0059838 -0.00136806 0
0.00548662 -0.00130772 0
0.00501265 -0.00125519 0
0.00456114 -0.00120954 0
0.00413136 -0.00116914 0
0.00372257 -0.00113251 0
0.00333398 -0.00109853 0
0.00296466 -0.00106798 0
0.00261363 -0.0010431 0
-0.052721 -0.0445996 0
-0.0508204 -0.0440823 0
-0.0489199 -0.0435651 0
-0.0470193 -0.0430478 0
-0.0451187 -0.0425306 0
-0.0432181 -0.0420134 0
-0.0413175 -0.0414961 0
-0.039417 -0.0409789 0
-0.0375164 -0.0404616 0
-0.0356158 -0.0399444 0
-0.0337152 -0.0394271 0
-0.0318146 -0.0389099 0
-0.0299141 -0.0383927 0
-0.0280135 -0.0378754 0
-0.0261129 -0.0373582 0
-0.0242123 -0.0368409 0
-0.0223117 -0.0363237 0
-0.0204112 -0.0358065 0
-0.0185106 -0.0352892 0
-0.01661 -0.034772 0
-0.0147094 -0.0342547 0
-0.0128088 -0.0337375 0
-0.0109083 -0.0332202 0
-0.00900769 -0.032703 0
-0.00710711 -0.0321858 0
-0.00520653 -0.0316685 0
-0.00330595 -0.0311513 0
-0.00140537 -0.030634 0
0.00190689 -0.0299614 0
0.00332271 -0.0298498 0
0.00474133 -0.0297825 0
0.00616136 -0.0297597 0
0.0075814 -0.0297814 0
0.00900007 -0.0298477 0
0.010416 -0.0299583 0
0.0118278 -0.0301127 0
0.0132342 -0.0303103 0
0.0146339 -0.0305504 0
0.0160259 -0.0308322 0
0.0174091 -0.0311546 0
0.0187824 -0.0315166 0
0.020145 -0.031917 0
0.0214961 -0.0323546 0
0.0228351 -0.032828 0
0.0241613 -0.0333361 0
0.0254744 -0.0338774 0
0.0267738 -0.0344507 0
0.0280592 -0.0350545 0
0.0293306 -0.0356877 0
0.0305875 -0.0363488 0
0.0318301 -0.0370367 0
0.0330581 -0.0377501 0
0.0342717 -0.0384879 0
0.0354708 -0.0392489 0
0.0366556 -0.0400321 0
0.0378262 -0.0408363 0
0.0389828 -0.0416607 0
0.0401254 -0.0425042 0
0.0412543 -0.0433659 0
0.0423698 -0.0442451 0
0.043472 -0.0451408 0
0.0445612 -0.0460523 0
0.0456375 -0.0469789 0
0.0467013 -0.0479199 0
0.0477529 -0.0488746 0
0.0487923 -0.0498424 0
0.04982 -0.0508227 0
0.0508362 -0.051815 0
0.051841 -0.0528187 0
0.0528348 -0.0538333 0
0.0538178 -0.0548584 0
0.0547903 -0.0558935 0
0.0557524 -0.0569382 0
0.0567045 -0.0579922 0
0.0576467 -0.0590549 0
0.0585792 -0.0601261 0
0.0595024 -0.0612055 0
0.0604163 -0.0622926 0
0.0613212 -0.0633873 0
0.0622174 -0.0644891 0
0.0631049 -0.0655979 0
0.0639841 -0.0667134 0
0.064855 -0.0678353 0
0.0657179 -0.0689633 0
0.0665729 -0.0700974 0
0.0674202 -0.0712372 0
0.06826 -0.0723826 0
0.0690925 -0.0735333 0
0.0699178 -0.0746892 0
0.070736 -0.0758501 0
0.0715473 -0.0770159 0
0.0723518 -0.0781863 0
0.0731498 -0.0793612 0
0.0739412 -0.0805405 0
0.0747264 -0.081724 0
0.0755053 -0.0829116 0
0.0762781 -0.0841033 0
0.0770449 -0.0852987 0
0.0778059 -0.0864979 0
0.0785611 -0.0877007 0
0.0793108 -0.088907 0
0.0814681 -0.0912706 0
0.0828814 -0.0924245 0
0.0842946 -0.0935783 0
0.0857079 -0.0947322 0
0.0871211 -0.095886 0
0.0885344 -0.0970399 0
0.0899476 -0.0981937 0
0.0913609 -0.0993476 0
0.0927741 -0.100501 0
0.0941874 -0.101655 0
0.0956006 -0.102809 0
0.0970139 -0.103963 0
0.0984272 -0.105117 0
0.0998404 -0.106271 0
0.101254 -0.107424 0
0.102667 -0.108578 0
0.10408 -0.109732 0
0.105493 -0.110886 0
0.106907 -0.11204 0
0.10832 -0.113194 0
0.109733 -0.114348 0
0.111146 -0.115501 0
0.11256 -0.116655 0
0.113973 -0.117809 0
0.115386 -0.118963 0
0.116799 -0.120117 0
0.118213 -0.121271 0
0.119626 -0.122424 0
0.121039 -0.123578 0
0.122452 -0.124732 0
0.123866 -0.125886 0
0.125279 -0.12704 0
0.126692 -0.128194 0
0.128105 -0.129348 0
0.129519 -0.130501 0
0.130932 -0.131655 0
0.132345 -0.132809 0
0.133758 -0.133963 0
0.135172 -0.133216 0
0.135172 -0.131316 0
0.135172 -0.129415 0
0.135172 -0.127514 0
0.135172 -0.125614 0
0.135172 -0.123713 0
0.135172 -0.121813 0
0.135172 -0.119912 0
0.135172 -0.118012 0
0.135172 -0.116111 0
0.135172 -0.11421 0
0.135172 -0.11231 0
0.135172 -0.110409 0
0.135172 -0.108509 0
0.135172 -0.106608 0
0.135172 -0.104708 0
0.135172 -0.102807 0
0.135172 -0.100906 0
0.135172 -0.0990058 0
0.135172 -0.0971052 0
0.135172 -0.0952046 0
0.135172 -0.0933041 0
0.135172 -0.0914035 0
0.135172 -0.0895029 0
0.135172 -0.0876023 0
0.135172 -0.0857017 0
0.135172 -0.0838012 0
0.135172 -0.0819006 0
0.133758 -0.0788462 0
0.132345 -0.0776923 0
0.130932 -0.0765385 0
0.129519 -0.0753846 0
0.128105 -0.0742308 0
0.126692 -0.0730769 0
0.125279 -0.0719231 0
0.123866 -0.0707692 0
0.122452 -0.0696154 0
0.121039 -0.0684615 0
0.119626 -0.0673077 0
0.118213 -0.0661538 0
0.116799 -0.065 0
0.115386 -0.0638462 0
0.113973 -0.0626923 0
0.11256 -0.0615385 0
0.111146 -0.0603846 0
0.109733 -0.0592308 0
0.10832 -0.0580769 0
0.106907 -0.0569231 0
0.105493 -0.0557692 0
0.10408 -0.0546154 0
0.102667 -0.0534615 0
0.101254 -0.0523077 0
0.0998404 -0.0511538 0
0.0984272 -0.05 0
0.0970139 -0.0488462 0
0.0956006 -0.0476923 0
[...]
CELL_DATA 13116
SCALARS rho float
LOOKUP_TABLE default
0.427076
0.514472
0.293542
0.555733
0.546367
0.533923
0.322823
0.549183
0.410233
0.550138
0.321939
0.297631
0.546611
0.330999
0.320605
0.53397
0.402043
0.542629
0.531605
0.328601
0.431098
0.326909
0.328669
0.544163
0.474008
0.493899
0.55017
0.330952
0.47296
0.502867
0.53364
0.331937
0.432321
0.348902
0.321785
0.429192
0.517678
0.526616
0.533885
0.533742
0.532978
0.551994
0.330944
0.292771
0.53038
0.531439
0.496308
0.534147
0.323498
0.407242
0.545295
0.344292
0.322209
0.396406
0.431238
0.455359
0.297475
0.54145
0.417629
0.319076
0.332111
0.551467
0.50683
0.533874
0.533708
0.336066
0.535528
0.523055
0.536309
0.533721
0.323184
0.456679
0.323021
0.328833
0.533604
0.306177
0.500782
0.542349
0.323917
0.540179
0.528213
0.498592
0.544257
0.533739
0.522649
0.350805
0.32651
0.52084
0.518325
0.325156
0.31439
0.515901
0.546303
0.522658
0.505278
0.465631
0.476019
0.533746
0.533596
0.465804
0.528523
0.457768
0.53251
0.31358
0.482223
0.334552
0.280787
0.368117
0.330395
0.480997
0.390734
0.493503
0.464164
0.531029
0.540674
0.535662
0.329112
0.302561
0.539627
0.536645
0.52337
0.321268
0.536607
0.345672
0.517615
0.342018
0.326953
0.397149
0.326906
0.408527
0.539861
0.533357
0.392091
0.328738
0.376518
0.454665
0.533662
0.538555
0.527808
0.536419
0.487659
0.499058
0.395901
0.488355
0.502677
0.328235
0.322442
0.491771
0.544391
0.542075
0.423982
0.533291
0.534119
0.312537
0.547334
0.523813
0.327655
0.532999
0.533745
0.521077
0.543451
0.321515
0.542974
0.327584
0.317122
0.549889
0.515309
0.542247
0.321882
0.36275
0.329507
0.533619
0.321841
0.383899
0.534956
0.329911
0.323385
0.324254
0.49018
0.533644
0.305783
0.337056
0.406871
0.518025
0.533665
0.415789
0.299517
0.53277
0.472138
0.359722
0.495494
0.489993
0.53369
0.331097
0.485798
0.533952
0.547523
0.532389
0.517236
0.31729
0.313243
0.485072
0.392992
0.330589
0.54026
0.529824
0.351182
0.473742
0.327866
0.324406
0.303598
0.534666
0.326815
0.327977
0.323921
0.311836
0.285907
0.533448
0.514913
0.340467
0.296713
0.535381
0.385852
0.306692
0.433529
0.550662
0.500733
0.333931
0.535097
0.306077
0.555561
0.321868
0.533667
0.448756
0.53374
0.527983
0.5337
0.316442
0.3362
0.521034
0.533665
0.533876
0.533661
0.533516
0.543652
0.324999
0.541499
0.548021
0.53358
0.324993
0.32507
0.531185
0.539156
0.533655
0.536104
0.41599
0.533348
0.321495
0.330111
0.309674
0.328447
0.468167
0.547341
0.499748
0.323693
0.529069
0.326912
0.338522
0.483992
0.321133
0.495094
0.548322
0.533637
0.541191
0.316708
0.533632
0.532367
0.53358
0.538428
0.321377
0.328208
0.329927
0.450805
0.32099
0.328758
0.260124
0.250906
0.521616
0.323791
0.522852
0.547139
0.308267
0.32335
0.327442
0.353734
0.290505
0.519744
0.456347
0.488406
0.321262
0.534391
0.458811
0.330262
0.319985
0.533746
0.539131
0.532514
0.298271
0.533993
0.322573
0.532801
0.551856
0.540726
0.550969
0.332062
0.535115
0.327031
0.533498
0.550958
0.521648
0.324865
0.25988
0.548506
0.333596
0.508154
0.551399
0.285342
0.535493
0.544008
0.328847
0.528874
0.546211
0.321913
0.54109
0.352128
0.449262
0.532439
0.357371
0.533253
0.324571
0.542391
0.269282
0.533497
0.451399
0.548481
0.333617
0.279621
0.523764
0.316034
0.539617
0.477306
0.32911
0.533664
0.307277
0.318515
0.537757
0.433736
0.521838
0.328333
0.327138
0.541368
0.546947
0.32236
0.546068
0.332853
0.333252
0.53525
0.536184
0.357283
0.322541
0.538508
0.533708
0.534035
0.527791
0.540993
0.424122
0.258425
0.325999
0.302979
0.534032
0.303703
0.405229
0.28926
0.3196
0.274934
0.36514
0.1102
0.31677
0.524507
0.261759
0.543597
0.472644
0.532857
0.514412
0.542034
0.318587
0.327455
0.322125
0.266084
0.53749
0.460866
0.532767
0.473122
0.504012
0.482559
0.497039
0.484355
0.500628
0.539923
0.539748
0.533847
0.314423
0.357524
0.423868
0.324863
0.453312
0.454035
0.323949
0.535454
0.533666
0.332611
0.326619
0.3283
0.301992
0.492724
0.324526
0.331094
0.534897
0.330922
0.448457
0.32866
0.533518
0.527988
0.290202
0.328961
0.537327
0.354943
0.328583
0.300199
0.320465
0.330135
0.328936
0.326929
0.327449
0.338336
0.323437
0.454972
0.308504
0.521938
0.297202
0.358371
0.394349
0.335132
0.324783
0.333381
0.531459
0.342824
0.500324
0.370117
0.334507
0.475738
0.520214
0.350173
0.535135
0.48351
0.482374
0.329245
0.533736
0.304218
0.541772
0.533633
0.327282
0.326805
0.470871
0.267806
0.358552
0.453819
0.28
0.53224
0.505019
0.307166
0.320818
0.322068
0.380425
0.31866
0.322744
0.322317
0.327465
0.552556
0.553114
0.358821
0.468281
0.375889
0.485604
0.275279
0.322477
0.413779
0.327432
0.53311
0.230689
0.290891
0.38882
0.529808
0.511502
0.438685
0.283913
0.326791
0.445936
0.54933
0.533808
0.443003
0.485864
0.467143
0.325657
0.527177
0.445235
0.520112
0.243481
0.29284
0.53025
0.547744
0.513554
0.550909
0.513106
0.493806
0.542516
0.520449
0.532828
0.313031
0.529583
0.266124
0.32719
0.327722
0.554651
0.530283
0.242337
0.521911
0.486109
0.325131
0.533597
0.538612
0.537078
0.33075
0.322327
0.540948
0.328394
0.310384
0.31167
0.32648
0.531189
0.323656
0.554666
0.309011
0.514984
0.544292
0.535595
0.547071
0.32805
0.307884
0.531603
0.556447
0.509946
0.552277
0.547798
0.39039
0.32861
0.329424
0.53409
0.411917
0.327679
0.354735
0.315944
0.531547
0.53316
0.243516
0.326863
0.520234
0.365143
0.525142
0.515551
0.325781
0.306776
0.506642
0.533686
0.328378
0.510598
0.514986
0.531057
0.313862
0.533617
0.309189
0.53373
0.519127
0.321352
0.285346
0.328256
0.533673
0.327495
0.322553
0.302971
0.533592
0.535454
0.323787
0.325768
0.327473
0.533722
0.322932
0.533854
0.328389
0.459716
0.550694
0.299688
0.327729
0.327903
0.390751
0.331972
0.502714
0.297569
0.323885
0.533515
0.322997
0.534529
0.505024
0.533734
0.303459
0.533682
0.545315
0.547236
0.534178
0.518419
0.535106
0.32793
0.533802
0.342301
0.528629
0.321201
0.544379
0.394185
0.322328
0.533606
0.5428
0.32094
0.486773
0.312121
0.322499
0.534851
0.531173
0.305146
0.327233
0.324351
0.334827
0.528763
0.544318
0.315004
0.301491
0.53958
0.538377
0.461169
0.544868
0.53326
0.32212
0.54858
0.33429
0.545162
0.303491
0.463998
0.378252
0.534972
0.522819
0.451976
0.268171
0.332618
0.532124
0.473408
0.401101
0.544455
0.328434
0.53093
0.546988
0.286578
0.355543
0.545727
0.283523
0.533596
0.521809
0.25636
0.537359
0.50387
0.306601
0.534405
0.329534
0.515985
0.299617
0.534573
0.505344
0.334852
0.53387
0.543382
0.541571
0.48707
0.528508
0.457183
0.322575
0.324654
0.297951
0.330425
0.53361
0.435913
0.537199
0.543873
0.307617
0.323135
0.531737
0.551403
0.537698
0.54836
0.32375
0.539895
0.547929
0.328076
0.309239
0.539773
0.531152
0.519357
0.325299
0.463439
0.309107
0.533665
0.503306
0.533804
0.520723
0.327904
0.528159
0.52276
0.545461
0.530187
0.533368
0.33889
0.540697
0.324378
0.485248
0.549062
0.362413
0.506224
0.533816
0.543868
0.312998
0.314494
0.458095
0.508286
0.329541
0.323938
0.317338
0.323497
0.516448
0.530568
0.533512
0.250091
0.322674
0.53616
0.531933
0.32258
0.324493
0.363802
0.516788
0.532456
0.527231
0.537886
0.324197
0.33009
0.533622
0.342987
0.322444
0.300081
0.532927
0.317841
0.3267
0.449335
0.530182
0.490252
0.53394
0.53287
0.331131
0.322157
0.317705
0.369611
0.342429
0.31871
0.521898
0.537475
0.515946
0.533976
0.334865
0.301743
0.550663
0.328701
0.53334
0.504927
0.533746
0.305131
0.318945
0.511367
0.53356
0.436268
0.321654
0.524417
0.533971
0.445897
0.542223
0.54769
0.533625
0.486094
0.324257
0.53297
0.53355
0.478643
0.533938
0.533655
0.494792
0.533708
0.537858
0.324312
0.318799
0.30462
0.533746
0.393073
0.330094
0.531598
0.540018
0.292451
0.492823
0.288033
0.496877
0.36406
0.318234
0.551679
0.543818
0.328749
0.432572
0.533722
0.328499
0.52294
0.334825
0.334415
0.47928
0.474224
0.39426
0.53238
0.316957
0.54286
0.322158
0.318539
0.534488
0.327349
0.469331
0.318792
0.492125
0.465206
0.533701
0.513508
0.324055
0.32334
0.47362
0.332629
0.537413
0.356716
0.459852
0.53373
0.54526
0.343852
0.478846
0.488887
0.547795
0.536041
0.272031
0.321329
0.424514
0.487163
0.548239
0.294536
0.532427
0.437768
0.321766
0.309469
0.522903
0.517478
0.533686
0.533652
0.458091
0.531658
0.533732
0.523551
0.318868
0.513776
0.361755
0.538046
0.530653
0.242642
0.4971
0.545229
0.318952
0.319419
0.331807
0.533658
0.321922
0.479145
0.53805
0.514974
0.306807
0.524148
0.33117
0.463003
0.533849
0.533522
0.520538
0.533699
0.482478
0.527194
0.408159
0.528204
0.297975
0.533167
0.535492
0.317059
0.533711
0.531715
0.328631
0.325258
0.327188
0.541122
0.3241
0.533614
0.314281
0.54847
0.326673
0.378714
0.324308
0.541303
0.547718
0.414368
0.213891
0.482391
0.533454
0.317669
0.460369
0.553467
0.322874
0.457457
0.53357
0.550377
0.53347
0.3257
0.365985
0.538779
0.532114
0.486479
0.324484
0.31188
0.526094
0.533663
0.533682
0.533687
0.426493
0.533714
0.422786
0.536151
0.324459
0.330258
0.53369
0.545434
0.533608
0.334182
0.533083
0.43256
0.465996
0.305289
0.327667
0.546376
0.557411
0.434639
0.263266
0.533422
0.533716
0.322048
0.476152
0.5377
0.321829
0.355939
0.325207
0.471463
0.326132
0.311771
0.528009
0.362857
0.548484
0.497608
0.322326
0.328715
0.551282
0.317325
0.324894
0.533561
0.331417
0.276211
0.46044
0.514616
0.533738
0.322637
0.260534
0.322734
0.506211
0.333864
0.534311
0.321777
0.53233
0.486729
0.529423
0.491198
0.527032
0.501545
0.532604
0.546728
0.536593
0.322882
0.322077
0.520936
0.533797
0.399151
0.481127
0.435628
0.533778
0.477279
0.289763
0.536025
0.552632
0.526807
0.324925
0.528836
0.302887
0.533681
0.392986
0.540503
0.53415
0.31821
0.537393
0.328569
0.332957
0.50784
0.29903
0.532708
0.533691
0.537698
0.302732
0.534845
0.324426
0.305461
0.318675
0.323316
0.470739
0.322789
0.490574
0.53379
0.266031
0.331199
0.385128
0.455283
0.492069
0.488021
0.305729
0.335097
0.322289
0.324353
0.213461
0.491641
0.497657
0.330419
0.533483
0.537628
0.325306
0.552579
0.531367
0.533805
0.324631
0.533611
0.527412
0.540947
0.538009
0.31862
0.534767
0.542372
0.529359
0.523574
0.53334
0.327367
0.323926
0.533551
0.42314
0.320223
0.534385
0.329992
0.448788
0.486533
0.514227
0.517425
0.307723
0.479655
0.311958
0.32469
0.536171
0.541155
0.544394
0.541019
0.511177
0.305766
0.547781
0.323027
0.398293
0.549436
0.533611
0.538376
0.324976
0.324717
0.548628
0.324471
0.540451
0.507977
0.336561
0.325232
0.535207
0.320796
0.53409
0.540038
0.508651
0.320342
0.318352
0.394498
0.402821
0.482507
0.369347
0.533379
0.488028
0.524169
0.533612
0.533069
0.326032
0.327178
0.542034
0.533341
0.483872
0.362616
0.330735
0.524809
0.322313
0.533144
0.482632
0.264466
0.537045
0.323529
0.505965
0.295738
0.545154
0.316198
0.532783
0.533651
0.278397
0.519813
0.507838
0.267702
0.533513
0.531505
0.434103
0.335123
0.287037
0.364152
0.545751
0.470132
0.320694
0.459888
0.535053
0.53356
0.299137
0.473318
0.519496
0.364831
0.533363
0.533586
0.23613
0.53637
0.533583
0.293808
0.464844
0.303456
0.495137
0.311523
0.333956
0.547395
0.317732
0.326232
0.324258
0.535224
0.512283
0.316758
0.533304
0.283941
0.51595
0.324514
0.515356
0.289886
0.533753
0.533894
0.501925
0.533639
0.4355
0.533678
0.533779
0.300101
0.499011
0.50617
0.377413
0.532552
0.389802
0.316105
0.547513
0.309078
0.447445
0.285448
0.532691
0.32224
0.330997
0.543899
0.532902
0.308761
0.537177
0.537558
0.533641
0.547995
0.533693
0.324253
0.551983
0.327172
0.327049
0.519432
0.538748
0.551296
0.52212
0.316098
0.310813
0.322076
0.515703
0.533754
0.286137
0.523437
0.335954
0.308448
0.305852
0.520763
0.303736
0.549135
0.536905
0.498144
0.530397
0.535974
0.446136
0.496403
0.34397
0.33132
0.3089
0.533687
0.533655
0.3341
0.491164
0.469109
0.497859
0.326036
0.310452
0.491131
0.22029
0.485579
0.461678
0.328417
0.533534
0.517896
0.329587
0.533193
0.324429
0.537011
0.549299
0.527442
0.323148
0.372164
0.531514
0.238492
0.351372
0.530459
0.245308
0.533525
0.535977
0.494718
0.537848
0.260235
0.533648
0.535651
0.532023
0.287366
0.542489
0.3239
0.332053
0.523628
0.532639
0.533588
0.186955
0.534381
0.498722
0.53361
0.336017
0.330752
0.32834
0.539773
0.322082
0.322243
0.306597
0.45995
0.322873
0.24538
0.350273
0.534282
0.327732
0.533597
0.533684
0.533432
0.301876
0.535628
0.511461
0.533488
0.329064
0.521802
0.32275
0.310593
0.534756
0.323323
0.487848
0.534022
0.533696
0.324073
0.260093
0.321173
0.441856
0.533683
0.185034
0.527265
0.535128
0.538805
0.325307
0.323695
0.272157
0.469361
0.329951
0.533683
0.476553
0.533694
0.526966
0.322712
0.488192
0.32599
0.437104
0.509431
0.551227
0.443137
0.372799
0.521573
0.48699
0.542794
0.307112
0.292464
0.321921
0.540033
0.41649
0.533618
0.327412
0.313946
0.540906
0.535389
0.533536
0.322432
0.534038
0.440496
0.442873
0.472249
0.330671
0.325597
0.234766
0.532655
0.533834
0.522369
0.483869
0.271228
0.538454
0.516759
0.533833
0.533493
0.538388
0.552431
0.534025
0.537678
0.543904
0.326333
0.537071
0.541779
0.533177
0.538281
0.532309
0.449838
0.326263
0.334862
0.481567
0.323001
0.263427
0.533327
0.323916
0.501172
0.535834
0.512554
0.527457
0.328374
0.534773
0.315776
0.332177
0.534064
0.533043
0.534103
0.298018
0.545269
0.532487
0.479417
0.532634
0.325431
0.533226
0.548963
0.518172
0.318097
0.541796
0.324663
0.557151
0.301989
0.326335
0.406774
0.353894
0.551552
0.542175
0.533506
0.307862
0.533272
0.318461
0.323794
0.507944
0.388224
0.32513
0.532903
0.322541
0.406064
0.52196
0.496054
0.516738
0.387258
0.469848
0.513168
0.533818
0.447718
0.544389
0.421992
0.551921
0.480519
0.506573
0.333619
0.323518
0.353362
0.541034
0.32803
0.520018
0.537472
0.470967
0.533867
0.404801
0.531975
0.524776
0.325854
0.536577
0.475927
0.38166
0.478814
0.548478
0.503997
0.533553
0.324543
0.324697
0.529267
0.418916
0.424556
0.538361
0.533297
0.533711
0.547798
0.548968
0.484903
0.48583
0.551181
0.322317
0.323208
0.322639
0.298646
0.533688
0.361101
0.419727
0.536773
0.528719
0.327272
0.528291
0.555921
0.297063
0.295656
0.533608
0.538391
0.331799
0.307877
0.313481
0.533641
0.493277
0.321471
0.326191
0.328614
0.332283
0.272341
0.322611
0.553397
0.534063
0.530176
0.309562
0.513471
0.473082
0.480767
0.300146
0.326369
0.506253
0.533698
0.327627
0.533556
0.329559
0.543581
0.327155
0.532836
0.300782
0.516626
0.547104
0.304872
0.444255
0.32259
0.552266
0.331685
0.47617
0.330202
0.396982
0.323475
0.469164
0.317789
0.533631
0.533626
0.479062
0.526145
0.288354
0.51566
0.533437
0.546065
0.471132
0.516709
0.326856
0.305508
0.332445
0.546271
0.229642
0.544937
0.430374
0.538529
0.550334
0.35963
0.540572
0.323971
0.3344
0.322229
0.400644
0.405147
0.532651
0.320185
0.328886
0.534361
0.300308
0.319374
0.431544
0.291157
0.327552
0.335556
0.552972
0.514084
0.479786
0.328889
0.512913
0.532777
0.332055
0.25622
0.523051
0.533061
0.439856
0.408605
0.326437
0.286663
0.313026
0.529269
0.477939
0.409656
0.534363
0.325019
0.445612
0.323145
0.533637
0.544979
0.327585
0.32715
0.483418
0.426055
0.546813
0.543893
0.546119
0.537608
0.549524
0.308812
0.324987
0.318745
0.321411
0.420851
0.533699
0.515475
0.322205
0.303176
0.354066
0.356274
0.533613
0.495144
0.324228
0.243639
0.535815
0.329141
0.512078
0.542379
0.50848
0.533337
0.430434
0.318188
0.307263
0.481232
0.327846
0.328557
0.316105
0.533565
0.532227
0.28885
0.328038
0.533608
0.316714
0.534018
0.546298
0.318175
0.31957
0.327347
0.535497
0.32917
0.533687
0.534437
0.471336
0.303155
0.4195
0.541779
0.52507
0.324583
0.522547
0.483294
0.374109
0.539178
0.555744
0.32494
0.317442
0.510451
0.321298
0.321111
0.518874
0.274165
0.532885
0.532296
0.545644
0.489207
0.545229
0.535705
0.533796
0.321862
0.325795
0.492235
0.531318
0.371953
0.552292
0.256995
0.537615
0.518061
0.446766
0.50837
0.306094
0.360646
0.529006
0.542638
0.47785
0.547377
0.53484
0.533606
0.547119
0.53361
0.520396
0.510056
0.534995
0.5337
0.533787
0.280845
0.501188
0.298609
0.534895
0.537196
0.539538
0.500431
0.537428
0.318482
0.317702
0.2421
0.324383
0.506684
0.318735
0.324567
0.529372
0.325056
0.537138
0.313624
0.519091
0.535151
0.316155
0.302553
0.258532
0.540151
0.328219
0.532034
0.537117
0.320622
0.504005
0.438619
0.272374
0.331088
0.324977
0.538216
0.317628
0.535733
0.40189
0.323217
0.531651
0.53299
0.54608
0.329451
0.450508
0.32641
0.515043
0.533768
0.535594
0.326214
0.530497
0.538477
0.488854
0.320368
0.540037
0.330829
0.324958
0.529122
0.357257
0.549261
0.315396
0.326641
0.351888
0.495837
0.32884
0.231459
0.301039
0.376227
0.533584
0.536628
0.329427
0.468127
0.534906
0.442862
0.32962
0.262791
0.440505
0.330798
0.32384
0.529857
0.325625
0.330172
0.542261
0.553993
0.296771
0.541486
0.310237
0.533604
0.330413
0.509206
0.533766
0.538471
0.533585
0.323335
0.323506
0.322015
0.533822
0.511965
0.467881
0.426125
0.294436
0.240485
0.533316
0.322165
0.533298
0.303366
0.53377
0.524222
0.298229
0.293145
0.327304
0.327882
0.296031
0.482283
0.508797
0.300981
0.536297
0.499404
0.318821
0.322245
0.55394
0.324837
0.534863
0.338924
0.538147
0.513093
0.535551
0.533595
0.324976
0.549007
0.533423
0.55516
0.320069
0.475399
0.472891
0.261283
0.541034
0.499061
0.54761
0.513693
0.549569
0.527914
0.550765
0.533143
0.531716
0.309754
0.545252
0.327608
0.360543
0.530214
0.323974
0.520568
0.474702
0.328384
0.490064
0.318099
0.315497
0.522742
0.466748
0.553566
0.326253
0.513445
0.486651
0.324692
0.30682
0.508522
0.532907
0.299059
0.307384
0.537513
0.553401
0.312835
0.502984
0.547858
0.516313
0.303644
0.331003
0.31627
0.514316
0.313928
0.523148
0.540013
0.533331
0.473205
0.535436
0.326088
0.518816
0.486455
0.546926
0.440605
0.327452
0.321747
0.331358
0.544042
0.538063
0.336817
0.511383
0.255959
0.50338
0.536467
0.328642
0.482336
0.524016
0.487979
0.308025
0.326688
0.293467
0.539709
0.549178
0.484639
0.408167
0.535461
0.328683
0.497045
0.533626
0.530673
0.3079
0.494422
0.328595
0.480738
0.333465
0.530586
0.522742
0.329176
0.539492
0.33448
0.533698
0.500242
0.53367
0.540165
0.325234
0.533356
0.533273
0.53297
0.531344
0.383669
0.533623
0.325734
0.533407
0.329324
0.301763
0.326937
0.294667
0.329803
0.303902
0.549865
0.290303
0.322033
0.514783
0.53987
0.510709
0.322556
0.534473
0.533712
0.533368
0.276607
0.452057
0.535476
0.320665
0.303856
0.322821
0.492354
0.403644
0.316993
0.458008
0.334628
0.533684
0.398178
0.327233
0.375214
0.5095
0.290818
0.533247
0.323799
0.368293
0.296888
0.531836
0.303489
0.510073
0.533613
0.462298
0.327881
0.324485
0.526277
0.552534
0.307802
0.305427
0.53369
0.323738
0.541429
0.310986
0.442058
0.331881
0.53562
0.32436
0.551403
0.301544
0.536267
0.536219
0.54329
0.533711
0.327806
0.328224
0.322026
0.496631
0.528655
0.494554
0.407316
0.329142
0.539418
0.266808
0.509859
0.455286
0.315682
0.327216
0.543469
0.530423
0.328826
0.533661
0.530137
0.543444
0.545653
0.323627
0.499084
0.32885
0.543539
0.315344
0.533568
0.504887
0.512227
0.551868
0.319627
0.556886
0.318395
0.324154
0.533933
0.533713
0.431118
0.529975
0.533676
0.325048
0.543017
0.528938
0.549277
0.306248
0.337518
0.531274
0.321218
0.537946
0.537167
0.522759
0.534273
0.22769
0.353074
0.509314
0.328584
0.517954
0.553042
0.372382
0.520001
0.215835
0.483019
0.543228
0.529971
0.520126
0.325052
0.332245
0.53287
0.520999
0.328142
0.263829
0.323502
0.32784
0.322194
0.334448
0.290722
0.32145
0.532313
0.327744
0.296456
0.536649
0.429561
0.533606
0.313386
0.327563
0.535292
0.368662
0.373566
0.547634
0.29345
0.517956
0.53377
0.480726
0.517154
0.324511
0.536944
0.533832
0.32099
0.324014
0.316215
0.472014
0.480103
0.549424
0.534021
0.531361
0.520067
0.292259
0.537819
0.533828
0.507898
0.326043
0.535998
0.449053
0.286786
0.342157
0.323555
0.323439
0.324271
0.464163
0.522981
0.521972
0.323985
0.308283
0.547787
0.283737
0.537197
0.533259
0.523066
0.53019
0.535189
0.320742
0.325599
0.335626
0.444606
0.319341
0.534292
0.320235
0.534691
0.533477
0.536799
0.299354
0.353981
0.323981
0.535832
0.30697
0.32249
0.533054
0.516909
0.484525
0.533896
0.504069
0.541036
0.324024
0.492756
0.545244
0.420819
0.534798
0.5388
0.542018
0.364866
0.338412
0.550398
0.395122
0.479314
0.326038
0.502495
0.523459
0.317728
0.313489
0.513338
0.402184
0.543156
0.537165
0.318197
0.32883
0.533585
0.299508
0.324704
0.524821
0.509415
0.327159
0.52724
0.533747
0.50201
0.301944
0.465201
0.32499
0.527235
0.544726
0.540925
0.51963
0.533708
0.252161
0.283678
0.529601
0.32052
0.48038
0.324128
0.536108
0.333553
0.507168
0.544866
0.5337
0.325515
0.533675
0.53359
0.323244
0.503064
0.315356
0.553995
0.325993
0.302692
0.315946
0.526515
0.529865
0.256549
0.238912