# vtk DataFile Version 1.0
unstructured grid
ascii
DATASET UNSTRUCTURED_GRID
points 13672 float
0.0796578 -0.059106 0
0.00128732 0.00159165 0
0.00227961 -0.00102548 0
0.0791586 -0.0598787 0
-0.0546216 0.01 0
0.000495206 0.025 0
0.0800549 -0.035 0
0.135172 -0.08 0
-0.0546216 -0.0451168 0
0.000495206 -0.0301168 0
0.0800549 -0.0901168 0
0.135172 -0.135117 0
-0.0546216 -0.0451168 -0.00551168
0.000495206 -0.0301168 -0.00551168
0.0800549 -0.0901168 -0.00551168
0.135172 -0.135117 -0.00551168
0.135172 -0.08 -0.00551168
0.0800549 -0.035 -0.00551168
0.000495206 0.025 -0.00551168
-0.0546216 0.01 -0.00551168
0.00128732 0.00159165 -0.00551168
0.00227961 -0.00102548 -0.00551168
0.0791586 -0.0598787 -0.00551168
0.0796578 -0.059106 -0.00551168
0.00165953 -0.000990923 0
0.00119576 -0.000874076 0
0.000866021 -0.000641801 0
0.000645147 -0.000349912 0
0.00052235 -1.7281e-05 0
0.00049972 0.000348016 0
0.000601632 0.000737716 0
0.000861774 0.0011403 0
0.00157235 0.00183217 0
0.00188647 0.00206725 0
0.00222612 0.00230203 0
0.00258713 0.00254351 0
0.00296826 0.00279524 0
0.00337118 0.00305664 0
0.00379785 0.00332658 0
0.00425045 0.00360349 0
0.00473139 0.00388521 0
0.0052432 0.00416895 0
0.0057881 0.00445204 0
0.00636753 0.00473281 0
0.00698281 0.00500961 0
0.00763526 0.00528058 0
0.00832616 0.00554366 0
0.00905691 0.00579603 0
0.00982918 0.00603333 0
0.0106445 0.00625033 0
0.0115038 0.00644128 0
0.0124073 0.00660297 0
0.0133543 0.00673414 0
0.0143444 0.00683382 0
0.0153769 0.00690031 0
0.0164512 0.00693173 0
0.0175666 0.00692547 0
0.0187219 0.00687822 0
0.0199156 0.00678477 0
0.0211454 0.00663864 0
0.0224084 0.00643275 0
0.0237018 0.00616676 0
0.0250249 0.00584739 0
0.026375 0.00547298 0
0.0277479 0.00503752 0
0.0291386 0.00453545 0
0.0305433 0.0039653 0
0.0319572 0.0033256 0
0.0333681 0.00260019 0
0.034775 0.00179799 0
0.0361793 0.000930615 0
0.0375798 3.12222e-06 0
0.0389689 -0.000988429 0
0.0403357 -0.00205109 0
0.041675 -0.00318283 0
0.0429849 -0.00437751 0
0.0442643 -0.00562904 0
0.0455126 -0.00693089 0
0.0467314 -0.00827518 0
0.0479204 -0.00965638 0
0.0490661 -0.0110799 0
0.0501515 -0.0125519 0
0.0511696 -0.0140695 0
0.0521492 -0.0156071 0
0.0531202 -0.0171411 0
0.0540851 -0.0186663 0
0.0550431 -0.0201798 0
0.0559923 -0.0216793 0
0.0569311 -0.0231626 0
0.0578582 -0.0246273 0
0.0587723 -0.0260715 0
0.0596721 -0.027493 0
0.0605563 -0.02889 0
0.0614241 -0.0302609 0
0.0622742 -0.0316042 0
0.063106 -0.0329183 0
0.0639186 -0.034202 0
0.0647113 -0.0354543 0
0.0654835 -0.0366743 0
0.0662345 -0.0378613 0
0.0669642 -0.0390145 0
0.0676726 -0.0401333 0
0.0683597 -0.0412172 0
0.0690246 -0.0422665 0
0.0696662 -0.0432819 0
0.0702841 -0.0442636 0
0.0708793 -0.0452111 0
0.0714538 -0.0461237 0
0.072009 -0.047001 0
0.0725452 -0.0478434 0
0.0730611 -0.0486524 0
0.073556 -0.0494294 0
0.0740291 -0.0501756 0
0.0744812 -0.0508916 0
0.0749138 -0.0515773 0
0.0753285 -0.0522331 0
0.0757266 -0.0528592 0
0.076109 -0.0534564 0
0.0764753 -0.0540264 0
0.0768243 -0.054571 0
0.0771553 -0.0550919 0
0.0774679 -0.0555901 0
0.0777617 -0.0560669 0
0.0780369 -0.056523 0
0.0782958 -0.0569578 0
0.0785421 -0.0573703 0
0.0787786 -0.0577603 0
0.0790073 -0.0581279 0
0.0792295 -0.058474 0
0.0794462 -0.0587995 0
0.0798803 -0.0594162 0
0.0800272 -0.0596588 0
0.0800357 -0.0598891 0
0.0799275 -0.0600784 0
0.0797205 -0.0601773 0
0.0794593 -0.0601051 0
0.0789155 -0.0596491 0
0.0786707 -0.0593963 0
0.0784111 -0.0591319 0
0.0781372 -0.0588542 0
0.0778566 -0.0585548 0
0.0775715 -0.0582308 0
0.0772803 -0.0578828 0
0.0769832 -0.0575099 0
0.0766822 -0.0571097 0
0.0763801 -0.0566796 0
0.0760759 -0.0562196 0
0.0757623 -0.0557337 0
0.0754359 -0.0552232 0
0.0750951 -0.0546879 0
0.0747379 -0.054128 0
0.0743626 -0.0535435 0
0.0739688 -0.0529338 0
0.0735559 -0.0522981 0
0.0731238 -0.0516357 0
0.0726718 -0.050946 0
0.0721991 -0.0502288 0
0.0717046 -0.049484 0
0.0711872 -0.0487117 0
0.0706461 -0.047912 0
0.0700804 -0.0470849 0
0.0694892 -0.0462308 0
0.0688718 -0.0453499 0
0.0682271 -0.0444431 0
0.0675544 -0.043511 0
0.0668527 -0.0425546 0
0.0661215 -0.0415748 0
0.06536 -0.040573 0
0.0645676 -0.0395504 0
0.0637439 -0.0385087 0
0.0628887 -0.0374493 0
0.062002 -0.0363741 0
0.0610838 -0.0352847 0
0.0601345 -0.0341831 0
0.0591547 -0.033071 0
0.0581456 -0.0319502 0
0.0571083 -0.0308224 0
0.0560444 -0.0296893 0
0.0549562 -0.028552 0
0.053845 -0.0274126 0
0.0527113 -0.0262746 0
0.051554 -0.0251427 0
0.0503724 -0.0240222 0
0.0491675 -0.0229164 0
0.047941 -0.0218282 0
0.0466955 -0.0207597 0
0.0454337 -0.0197126 0
0.0441592 -0.0186878 0
0.0428751 -0.0176863 0
0.0415841 -0.0167097 0
0.0402878 -0.0157609 0
0.0389879 -0.0148428 0
0.0376864 -0.0139575 0
0.0363853 -0.013107 0
0.0350871 -0.0122931 0
0.0337942 -0.0115164 0
0.0325095 -0.0107772 0
0.0312357 -0.0100756 0
0.0299758 -0.00941024 0
0.0287337 -0.00877784 0
0.0275126 -0.00817571 0
0.0263139 -0.00760375 0
0.0251376 -0.00706528 0
0.0239829 -0.0065649 0
0.0228537 -0.00609619 0
0.0217522 -0.00565563 0
0.0206795 -0.00524226 0
0.0196364 -0.00485507 0
0.0186233 -0.00449318 0
0.0176408 -0.00415577 0
0.016689 -0.00384204 0
0.0157682 -0.00355115 0
0.0148783 -0.00328218 0
0.0140192 -0.00303468 0
0.0131906 -0.00280795 0
0.0123925 -0.00260016 0
0.0116246 -0.00241012 0
0.0108864 -0.00223769 0
0.0101774 -0.00208212 0
0.00949701 -0.00194206 0
0.00884483 -0.0018163 0
0.0082202 -0.0017039 0
0.00762247 -0.00160391 0
0.00705097 -0.00151528 0
0.006505 -0.00143697 0
0.0059838 -0.00136806 0
0.00548662 -0.00130772 0
0.00501265 -0.00125519 0
0.00456114 -0.00120954 0
0.00413136 -0.00116914 0
0.00372257 -0.00113251 0
0.00333398 -0.00109853 0
0.00296466 -0.00106798 0
0.00261363 -0.0010431 0
-0.052721 -0.0445996 0
-0.0508204 -0.0440823 0
-0.0489199 -0.0435651 0
-0.0470193 -0.0430478 0
-0.0451187 -0.0425306 0
-0.0432181 -0.0420134 0
-0.0413175 -0.0414961 0
-0.039417 -0.0409789 0
-0.0375164 -0.0404616 0
-0.0356158 -0.0399444 0
-0.0337152 -0.0394271 0
-0.0318146 -0.0389099 0
-0.0299141 -0.0383927 0
-0.0280135 -0.0378754 0
-0.0261129 -0.0373582 0
-0.0242123 -0.0368409 0
-0.0223117 -0.0363237 0
-0.0204112 -0.0358065 0
-0.0185106 -0.0352892 0
-0.01661 -0.034772 0
-0.0147094 -0.0342547 0
-0.0128088 -0.0337375 0
-0.0109083 -0.0332202 0
-0.00900769 -0.032703 0
-0.00710711 -0.0321858 0
-0.00520653 -0.0316685 0
-0.00330595 -0.0311513 0
-0.00140537 -0.030634 0
0.00190689 -0.0299614 0
0.00332271 -0.0298498 0
0.00474133 -0.0297825 0
0.00616136 -0.0297597 0
0.0075814 -0.0297814 0
0.00900007 -0.0298477 0
0.010416 -0.0299583 0
0.0118278 -0.0301127 0
0.0132342 -0.0303103 0
0.0146339 -0.0305504 0
0.0160259 -0.0308322 0
0.0174091 -0.0311546 0
0.0187824 -0.0315166 0
0.020145 -0.031917 0
0.0214961 -0.0323546 0
0.0228351 -0.032828 0
0.0241613 -0.0333361 0
0.0254744 -0.0338774 0
0.0267738 -0.0344507 0
0.0280592 -0.0350545 0
0.0293306 -0.0356877 0
0.0305875 -0.0363488 0
0.0318301 -0.0370367 0
0.0330581 -0.0377501 0
0.0342717 -0.0384879 0
0.0354708 -0.0392489 0
0.0366556 -0.0400321 0
0.0378262 -0.0408363 0
0.0389828 -0.0416607 0
0.0401254 -0.0425042 0
0.0412543 -0.0433659 0
0.0423698 -0.0442451 0
0.043472 -0.0451408 0
0.0445612 -0.0460523 0
0.0456375 -0.0469789 0
0.0467013 -0.0479199 0
0.0477529 -0.0488746 0
0.0487923 -0.0498424 0
0.04982 -0.0508227 0
0.0508362 -0.051815 0
0.051841 -0.0528187 0
0.0528348 -0.0538333 0
0.0538178 -0.0548584 0
0.0547903 -0.0558935 0
0.0557524 -0.0569382 0
0.0567045 -0.0579922 0
0.0576467 -0.0590549 0
0.0585792 -0.0601261 0
0.0595024 -0.0612055 0
0.0604163 -0.0622926 0
0.0613212 -0.0633873 0
0.0622174 -0.0644891 0
0.0631049 -0.0655979 0
0.0639841 -0.0667134 0
0.064855 -0.0678353 0
0.0657179 -0.0689633 0
0.0665729 -0.0700974 0
0.0674202 -0.0712372 0
0.06826 -0.0723826 0
0.0690925 -0.0735333 0
0.0699178 -0.0746892 0
0.070736 -0.0758501 0
0.0715473 -0.0770159 0
0.0723518 -0.0781863 0
0.0731498 -0.0793612 0
0.0739412 -0.0805405 0
0.0747264 -0.081724 0
0.0755053 -0.0829116 0
0.0762781 -0.0841033 0
0.0770449 -0.0852987 0
0.0778059 -0.0864979 0
0.0785611 -0.0877007 0
0.0793108 -0.088907 0
0.0814681 -0.0912706 0
0.0828814 -0.0924245 0
0.0842946 -0.0935783 0
0.0857079 -0.0947322 0
0.0871211 -0.095886 0
0.0885344 -0.0970399 0
0.0899476 -0.0981937 0
0.0913609 -0.0993476 0
0.0927741 -0.100501 0
0.0941874 -0.101655 0
0.0956006 -0.102809 0
0.0970139 -0.103963 0
0.0984272 -0.105117 0
0.0998404 -0.106271 0
0.101254 -0.107424 0
0.102667 -0.108578 0
0.10408 -0.109732 0
0.105493 -0.110886 0
0.106907 -0.11204 0
0.10832 -0.113194 0
0.109733 -0.114348 0
0.111146 -0.115501 0
0.11256 -0.116655 0
0.113973 -0.117809 0
0.115386 -0.118963 0
0.116799 -0.120117 0
0.118213 -0.121271 0
0.119626 -0.122424 0
0.121039 -0.123578 0
0.122452 -0.124732 0
0.123866 -0.125886 0
0.125279 -0.12704 0
0.126692 -0.128194 0
0.128105 -0.129348 0
0.129519 -0.130501 0
0.130932 -0.131655 0
0.132345 -0.132809 0
0.133758 -0.133963 0
0.135172 -0.133216 0
0.135172 -0.131316 0
0.135172 -0.129415 0
0.135172 -0.127514 0
0.135172 -0.125614 0
0.135172 -0.123713 0
0.135172 -0.121813 0
0.135172 -0.119912 0
0.135172 -0.118012 0
0.135172 -0.116111 0
0.135172 -0.11421 0
0.135172 -0.11231 0
0.135172 -0.110409 0
0.135172 -0.108509 0
0.135172 -0.106608 0
0.135172 -0.104708 0
0.135172 -0.102807 0
0.135172 -0.100906 0
0.135172 -0.0990058 0
0.135172 -0.0971052 0
0.135172 -0.0952046 0
0.135172 -0.0933041 0
0.135172 -0.0914035 0
0.135172 -0.0895029 0
0.135172 -0.0876023 0
0.135172 -0.0857017 0
0.135172 -0.0838012 0
0.135172 -0.0819006 0
0.133758 -0.0788462 0
0.132345 -0.0776923 0
0.130932 -0.0765385 0
0.129519 -0.0753846 0
0.128105 -0.0742308 0
0.126692 -0.0730769 0
0.125279 -0.0719231 0
0.123866 -0.0707692 0
0.122452 -0.0696154 0
0.121039 -0.0684615 0
0.119626 -0.0673077 0
0.118213 -0.0661538 0
0.116799 -0.065 0
0.115386 -0.0638462 0
0.113973 -0.0626923 0
0.11256 -0.0615385 0
0.111146 -0.0603846 0
0.109733 -0.0592308 0
0.10832 -0.0580769 0
0.106907 -0.0569231 0
0.105493 -0.0557692 0
0.10408 -0.0546154 0
0.102667 -0.0534615 0
0.101254 -0.0523077 0
0.0998404 -0.0511538 0
0.0984272 -0.05 0
0.0970139 -0.0488462 0
0.0956006 -0.0476923 0
[...]
CELL_DATA 13116
SCALARS rho float
LOOKUP_TABLE default
0.426861
0.514364
0.293752
0.555599
0.546239
0.533867
0.323131
0.549105
0.410071
0.550002
0.322527
0.298479
0.546484
0.331459
0.320812
0.533913
0.401786
0.542501
0.53154
0.328766
0.430904
0.32701
0.329408
0.544031
0.473894
0.493968
0.550034
0.331798
0.472862
0.502755
0.53361
0.334387
0.432174
0.348776
0.322319
0.428983
0.517555
0.526553
0.533834
0.533694
0.532915
0.551906
0.33078
0.293888
0.53032
0.531374
0.496218
0.534065
0.323612
0.407096
0.545203
0.344139
0.322178
0.396146
0.431089
0.455223
0.299311
0.54132
0.417489
0.319104
0.332657
0.551332
0.506726
0.533825
0.533675
0.336725
0.535457
0.522941
0.536228
0.533685
0.323391
0.456568
0.323102
0.330062
0.533583
0.306386
0.500632
0.542237
0.324112
0.540053
0.52809
0.498622
0.544125
0.533652
0.522607
0.350658
0.326726
0.520736
0.518314
0.325855
0.316337
0.515795
0.546169
0.522657
0.505155
0.465486
0.475909
0.533719
0.533573
0.465696
0.528419
0.457581
0.532449
0.313409
0.482162
0.334851
0.280663
0.367935
0.331158
0.480904
0.39054
0.493502
0.464021
0.530908
0.540547
0.535593
0.329359
0.302419
0.539524
0.536577
0.523257
0.321381
0.536525
0.349253
0.517634
0.341884
0.327178
0.397011
0.328245
0.408383
0.539758
0.533244
0.391952
0.328875
0.376378
0.454456
0.533657
0.538471
0.527706
0.536353
0.487485
0.49897
0.395762
0.488184
0.502544
0.329467
0.323079
0.491809
0.544263
0.542002
0.423854
0.533206
0.534038
0.312811
0.547201
0.523774
0.32836
0.532889
0.533717
0.520975
0.54332
0.321914
0.542842
0.328193
0.317192
0.549763
0.515324
0.542119
0.322353
0.362606
0.329368
0.533614
0.32194
0.383759
0.534891
0.330692
0.323514
0.324339
0.490177
0.533588
0.305746
0.336918
0.406669
0.517903
0.533608
0.415646
0.29978
0.532718
0.472102
0.359593
0.495339
0.49003
0.533653
0.331781
0.485812
0.533892
0.547388
0.532336
0.517224
0.317196
0.313067
0.484981
0.392855
0.331304
0.540138
0.529745
0.351026
0.473608
0.327744
0.324661
0.303812
0.534595
0.327469
0.328593
0.324305
0.312107
0.285766
0.533405
0.514938
0.34032
0.298452
0.53531
0.385658
0.306644
0.433403
0.550527
0.500596
0.334658
0.535031
0.305944
0.555496
0.324761
0.533629
0.44864
0.533715
0.527951
0.533661
0.316583
0.336063
0.520935
0.533646
0.533817
0.533654
0.533478
0.543597
0.325124
0.54141
0.547888
0.533555
0.325704
0.32519
0.531106
0.539056
0.53362
0.536006
0.41576
0.533229
0.322085
0.330483
0.309531
0.328314
0.468096
0.547206
0.499596
0.323885
0.529021
0.329564
0.33838
0.483931
0.321415
0.495143
0.548223
0.533622
0.541061
0.316755
0.533618
0.532244
0.533555
0.538342
0.321557
0.328317
0.330689
0.450589
0.321092
0.328909
0.260011
0.251931
0.521548
0.323782
0.522827
0.547018
0.31098
0.325158
0.33
0.353599
0.290753
0.519639
0.456127
0.48838
0.321533
0.534319
0.458696
0.330702
0.320062
0.533698
0.539032
0.532461
0.298541
0.533933
0.322429
0.53269
0.55176
0.540654
0.550874
0.332777
0.535047
0.326868
0.533444
0.550822
0.521553
0.325154
0.259767
0.548373
0.333991
0.50809
0.551265
0.285236
0.535376
0.543876
0.329477
0.528826
0.546077
0.321969
0.540988
0.351979
0.449141
0.532454
0.357221
0.533143
0.324765
0.542261
0.269165
0.533457
0.451263
0.548347
0.334298
0.279494
0.523722
0.316323
0.539499
0.477281
0.328971
0.53366
0.307477
0.318636
0.537648
0.433611
0.52172
0.328441
0.327768
0.541281
0.546825
0.323012
0.545958
0.332944
0.33348
0.535189
0.536171
0.357065
0.322363
0.538418
0.533676
0.533977
0.527747
0.540864
0.423994
0.258638
0.325865
0.303013
0.533974
0.303709
0.405024
0.28915
0.320108
0.27481
0.364926
0.110154
0.317071
0.52446
0.262396
0.543466
0.472544
0.532786
0.51431
0.54194
0.318709
0.327566
0.32203
0.266399
0.537376
0.460718
0.532702
0.473024
0.50388
0.482424
0.497066
0.484185
0.500514
0.539797
0.539622
0.533795
0.314275
0.357369
0.423648
0.324948
0.453088
0.453894
0.323973
0.535386
0.533649
0.333331
0.326847
0.328791
0.30216
0.492634
0.324998
0.331787
0.534826
0.332322
0.448341
0.329143
0.533467
0.527865
0.291223
0.329097
0.537218
0.354807
0.329091
0.300436
0.320342
0.330903
0.329065
0.327154
0.327584
0.338195
0.324004
0.454783
0.30863
0.521908
0.297104
0.358578
0.394208
0.336064
0.325482
0.334851
0.531414
0.342684
0.500237
0.369918
0.335554
0.475603
0.520199
0.350024
0.535019
0.483366
0.482225
0.329558
0.53371
0.304078
0.541642
0.533604
0.327826
0.326723
0.470826
0.26793
0.3584
0.45369
0.279876
0.532131
0.504894
0.309284
0.320969
0.322219
0.380284
0.31872
0.322763
0.322522
0.327298
0.55243
0.552979
0.358687
0.468174
0.37575
0.485605
0.275139
0.322849
0.413621
0.327943
0.533011
0.230601
0.29076
0.388683
0.529749
0.51152
0.438563
0.283807
0.326719
0.44581
0.549248
0.533768
0.442877
0.485779
0.467064
0.326125
0.527053
0.445118
0.520014
0.243494
0.293012
0.530129
0.547609
0.513453
0.550774
0.513083
0.493894
0.542386
0.520353
0.532758
0.312945
0.529525
0.266012
0.327113
0.3281
0.554511
0.530205
0.242228
0.521871
0.486015
0.325432
0.533557
0.538515
0.536952
0.331624
0.322725
0.540836
0.328849
0.312201
0.312015
0.326949
0.531089
0.323695
0.554524
0.309138
0.514872
0.544201
0.535517
0.546946
0.32857
0.310114
0.531517
0.556381
0.50981
0.55215
0.547666
0.390242
0.329281
0.329932
0.534022
0.411764
0.328158
0.354598
0.31641
0.531534
0.533106
0.24356
0.326969
0.520203
0.364989
0.525092
0.51546
0.327236
0.306643
0.506501
0.533669
0.328944
0.510611
0.515004
0.530974
0.314102
0.53361
0.31198
0.533706
0.519029
0.321141
0.285201
0.328412
0.533648
0.328586
0.322643
0.302829
0.53355
0.535333
0.323943
0.326087
0.327956
0.533679
0.323015
0.533795
0.32962
0.459608
0.550558
0.299591
0.328347
0.328624
0.390605
0.332545
0.502756
0.297858
0.32424
0.533466
0.323031
0.534461
0.504954
0.533708
0.303454
0.533583
0.545182
0.547101
0.534108
0.518476
0.535045
0.329882
0.533763
0.342155
0.528537
0.321359
0.54432
0.394032
0.322688
0.533575
0.542672
0.321298
0.486611
0.313663
0.322738
0.53478
0.531128
0.305655
0.32873
0.324535
0.336491
0.528769
0.544187
0.315243
0.302314
0.539461
0.538297
0.46106
0.544735
0.533206
0.322553
0.548444
0.334151
0.545069
0.303344
0.463866
0.378108
0.534904
0.522701
0.451863
0.268036
0.333294
0.532072
0.473309
0.400853
0.544322
0.328266
0.530807
0.546855
0.286453
0.355388
0.545593
0.283413
0.533564
0.52171
0.256249
0.537293
0.503747
0.306717
0.534282
0.330296
0.515961
0.299832
0.534503
0.50524
0.335457
0.533822
0.543251
0.541454
0.486978
0.528387
0.457071
0.323119
0.32451
0.29812
0.331297
0.53361
0.435788
0.537118
0.543746
0.307519
0.323312
0.531616
0.551267
0.537587
0.548264
0.323966
0.53977
0.547797
0.328274
0.309569
0.539669
0.531075
0.519325
0.325501
0.463326
0.311449
0.533542
0.503246
0.533762
0.520629
0.328389
0.528055
0.522732
0.545327
0.530145
0.533304
0.338741
0.540569
0.324624
0.485097
0.548928
0.362269
0.506099
0.533772
0.543779
0.31284
0.314339
0.457985
0.508189
0.329857
0.323902
0.317583
0.324162
0.516334
0.530444
0.533475
0.251036
0.323236
0.536079
0.531823
0.322543
0.324711
0.363661
0.516659
0.532404
0.527188
0.53776
0.324443
0.330366
0.533613
0.346361
0.323928
0.300327
0.532873
0.319963
0.327263
0.449193
0.530094
0.490242
0.533887
0.532818
0.331224
0.322298
0.31789
0.369397
0.342289
0.320893
0.521782
0.53735
0.515899
0.533903
0.335212
0.3023
0.550527
0.329129
0.533278
0.504825
0.533715
0.305639
0.318776
0.511343
0.533531
0.436037
0.321702
0.524372
0.533916
0.44575
0.54215
0.547604
0.533614
0.486003
0.324474
0.532918
0.533519
0.478456
0.533814
0.533655
0.494788
0.533695
0.537773
0.324685
0.319038
0.30579
0.533713
0.392915
0.330487
0.531479
0.539897
0.293276
0.492672
0.289306
0.496725
0.363858
0.318284
0.551542
0.543688
0.329221
0.432442
0.533689
0.329602
0.522936
0.335515
0.334579
0.479142
0.474117
0.394118
0.532318
0.3172
0.542729
0.32235
0.31878
0.53442
0.327826
0.469192
0.319278
0.491971
0.465078
0.533689
0.513521
0.323969
0.323681
0.473448
0.33246
0.537302
0.356583
0.4597
0.533678
0.545127
0.343683
0.478752
0.488887
0.54766
0.535968
0.271913
0.323221
0.424384
0.487173
0.548104
0.294391
0.532368
0.43754
0.321669
0.309953
0.522806
0.51735
0.533677
0.533629
0.457946
0.531535
0.533686
0.523429
0.319317
0.513679
0.361615
0.53798
0.530579
0.243404
0.497288
0.545108
0.319142
0.319466
0.332502
0.533658
0.3223
0.47901
0.537925
0.514879
0.308061
0.524088
0.331955
0.462892
0.533803
0.533487
0.520422
0.533657
0.482373
0.527072
0.407994
0.528114
0.298207
0.53311
0.535415
0.316892
0.533695
0.531591
0.329352
0.325138
0.328481
0.541049
0.324773
0.533599
0.314423
0.548397
0.326589
0.37857
0.324828
0.541173
0.547618
0.414137
0.214082
0.482283
0.533409
0.31771
0.460258
0.55333
0.325932
0.457326
0.533543
0.550242
0.533405
0.326237
0.365804
0.538665
0.532045
0.486328
0.325042
0.311725
0.526043
0.533656
0.533665
0.533681
0.426302
0.533601
0.422597
0.536091
0.325091
0.330979
0.533684
0.545308
0.533566
0.334981
0.533026
0.432361
0.465822
0.305473
0.327525
0.546264
0.557309
0.434512
0.263312
0.533351
0.533698
0.322467
0.476048
0.537574
0.322283
0.356272
0.325086
0.471454
0.326239
0.311661
0.527963
0.362718
0.548348
0.497464
0.322674
0.328973
0.551161
0.317546
0.325343
0.533532
0.331875
0.27607
0.460308
0.514687
0.533635
0.323334
0.262087
0.323498
0.506139
0.33416
0.534208
0.322066
0.532213
0.486873
0.529368
0.49113
0.526923
0.501485
0.532552
0.546604
0.536489
0.322921
0.322305
0.520823
0.533749
0.399009
0.481105
0.435493
0.533732
0.477089
0.290682
0.535958
0.552495
0.526726
0.325561
0.52873
0.302981
0.533593
0.392838
0.540376
0.534079
0.318283
0.537277
0.329039
0.332821
0.507733
0.299277
0.532596
0.53369
0.537668
0.302934
0.534775
0.325197
0.305999
0.319172
0.323583
0.470543
0.322869
0.490407
0.533746
0.266088
0.331873
0.384981
0.45517
0.491946
0.487888
0.305641
0.33525
0.322942
0.324874
0.213812
0.49151
0.497663
0.331415
0.533444
0.537503
0.325185
0.552441
0.531258
0.53376
0.325132
0.533591
0.527291
0.540819
0.537949
0.318735
0.53466
0.542245
0.529253
0.523477
0.533293
0.327517
0.324487
0.533467
0.423008
0.32003
0.534318
0.330687
0.448668
0.486381
0.514202
0.517398
0.308314
0.479629
0.311832
0.325259
0.536051
0.541037
0.544263
0.540929
0.511047
0.306314
0.547652
0.323031
0.398149
0.549311
0.533587
0.538263
0.325622
0.325099
0.548495
0.32486
0.540339
0.507889
0.336423
0.325461
0.535148
0.321296
0.53402
0.539925
0.508512
0.320829
0.318573
0.394361
0.402652
0.482369
0.369213
0.53333
0.487902
0.524137
0.533613
0.53295
0.326035
0.327388
0.541922
0.533293
0.48371
0.362471
0.33145
0.524684
0.32234
0.53309
0.482539
0.265301
0.536931
0.323815
0.506042
0.295903
0.545025
0.316233
0.532691
0.533597
0.278565
0.519825
0.507738
0.267817
0.533476
0.531445
0.433965
0.336164
0.286894
0.36402
0.545618
0.469986
0.320923
0.459773
0.534932
0.533512
0.300499
0.473147
0.519419
0.364677
0.533314
0.533532
0.236404
0.536272
0.533557
0.294025
0.464694
0.303552
0.49498
0.31173
0.33411
0.54726
0.317654
0.32686
0.324164
0.535154
0.512201
0.316594
0.533232
0.283792
0.51582
0.325279
0.51527
0.289773
0.5337
0.53381
0.501777
0.533599
0.43537
0.533624
0.533733
0.302577
0.498921
0.506028
0.377176
0.532433
0.389657
0.315937
0.547385
0.309064
0.447326
0.287002
0.532628
0.3222
0.331697
0.543768
0.53285
0.311193
0.537112
0.537434
0.533641
0.547902
0.53367
0.324474
0.551844
0.328133
0.327681
0.519429
0.538621
0.551212
0.522088
0.316897
0.311047
0.322787
0.515601
0.53371
0.285993
0.523483
0.336442
0.308645
0.306049
0.520744
0.303591
0.549005
0.536799
0.498055
0.530355
0.535871
0.445977
0.496245
0.343828
0.331547
0.311253
0.533664
0.533635
0.334896
0.491029
0.469097
0.497703
0.326587
0.3103
0.491007
0.220205
0.485442
0.461463
0.328947
0.533486
0.517783
0.33018
0.533091
0.324918
0.536931
0.549165
0.527334
0.323144
0.372014
0.531404
0.238387
0.351225
0.530413
0.245212
0.533475
0.535903
0.494761
0.537723
0.260155
0.533619
0.535532
0.531956
0.28724
0.542392
0.324009
0.332548
0.523576
0.532586
0.533547
0.186882
0.534309
0.498634
0.53359
0.336177
0.331033
0.32885
0.539692
0.322504
0.322382
0.306719
0.459733
0.323287
0.246615
0.350126
0.534182
0.328076
0.533558
0.533637
0.533383
0.302082
0.535537
0.511357
0.533449
0.328922
0.521707
0.323395
0.310573
0.534688
0.325113
0.4877
0.5339
0.533686
0.325258
0.259979
0.321547
0.441732
0.533676
0.184961
0.5272
0.535057
0.538679
0.325803
0.323684
0.27204
0.469239
0.330428
0.533685
0.476456
0.533645
0.526913
0.322943
0.488034
0.327689
0.436875
0.509343
0.551091
0.442895
0.372546
0.521476
0.486834
0.542681
0.307155
0.292364
0.324839
0.539906
0.416342
0.533594
0.328026
0.313808
0.540777
0.535298
0.533502
0.324138
0.533987
0.440371
0.442751
0.472108
0.331212
0.326889
0.234965
0.532602
0.53379
0.522274
0.483865
0.271108
0.538427
0.516667
0.53379
0.533455
0.538352
0.552295
0.533967
0.537551
0.543774
0.326841
0.536981
0.541687
0.533128
0.538184
0.532257
0.449618
0.326513
0.335344
0.481386
0.322992
0.263451
0.533281
0.324217
0.501085
0.535754
0.51245
0.527376
0.329017
0.534724
0.316318
0.332962
0.534005
0.532933
0.534028
0.298308
0.545164
0.532424
0.479244
0.532582
0.325524
0.533177
0.548829
0.518054
0.317999
0.541666
0.325488
0.557028
0.302207
0.32659
0.406519
0.353754
0.551416
0.542044
0.533441
0.307981
0.533224
0.318297
0.32404
0.507943
0.388076
0.32575
0.53284
0.322956
0.405923
0.52185
0.495944
0.516701
0.387111
0.469742
0.513059
0.533753
0.447493
0.544259
0.421862
0.551924
0.480518
0.506463
0.33386
0.323739
0.353221
0.540942
0.328743
0.519917
0.537408
0.470834
0.533801
0.404572
0.531863
0.524654
0.326469
0.536515
0.475892
0.381415
0.478775
0.548347
0.504035
0.533507
0.32493
0.325013
0.529171
0.418765
0.42436
0.538281
0.533209
0.533636
0.547663
0.548833
0.484776
0.485705
0.551045
0.322357
0.32361
0.322599
0.298905
0.533672
0.360969
0.419534
0.53666
0.528596
0.327829
0.528206
0.555782
0.29739
0.295523
0.533591
0.538301
0.332365
0.308089
0.313609
0.533643
0.493342
0.321378
0.326206
0.329071
0.332553
0.272251
0.322452
0.553351
0.533979
0.530055
0.309638
0.51337
0.472925
0.480671
0.301496
0.326595
0.506256
0.533692
0.328157
0.533505
0.330115
0.54345
0.327665
0.532789
0.301461
0.516578
0.546992
0.305042
0.444134
0.322789
0.552127
0.332174
0.476012
0.330869
0.396838
0.324131
0.468994
0.317832
0.533593
0.53359
0.478967
0.526036
0.289592
0.515578
0.533394
0.545957
0.470976
0.51658
0.327078
0.305334
0.333487
0.546137
0.229549
0.544816
0.430247
0.538403
0.5502
0.359436
0.540444
0.324204
0.335135
0.322371
0.400504
0.404883
0.532563
0.320383
0.329024
0.534295
0.300178
0.319817
0.431299
0.291019
0.328087
0.336043
0.552884
0.513995
0.479631
0.329529
0.512827
0.532724
0.332235
0.256111
0.523022
0.533009
0.439626
0.408466
0.326297
0.286538
0.313304
0.529267
0.477757
0.409499
0.534246
0.32495
0.445462
0.323427
0.533606
0.54486
0.327793
0.327457
0.483246
0.425801
0.546692
0.543763
0.545986
0.537547
0.549397
0.309074
0.325074
0.321744
0.321599
0.420626
0.533669
0.515385
0.322416
0.30422
0.353934
0.356582
0.533538
0.495028
0.324898
0.243649
0.535736
0.329719
0.511967
0.542249
0.508411
0.533289
0.430228
0.319898
0.309938
0.481105
0.328053
0.328418
0.31596
0.533521
0.532177
0.290339
0.328476
0.533603
0.316751
0.53396
0.546164
0.319811
0.319749
0.32726
0.535415
0.329441
0.533687
0.534313
0.471196
0.303361
0.419368
0.541665
0.525011
0.324789
0.522479
0.483115
0.375348
0.539072
0.555706
0.325679
0.317306
0.510429
0.321436
0.321287
0.518794
0.274048
0.532805
0.532184
0.545511
0.489036
0.545104
0.535631
0.533742
0.322432
0.325652
0.492081
0.531217
0.371802
0.552154
0.256882
0.53753
0.518025
0.446636
0.508261
0.305922
0.360509
0.528921
0.542516
0.477845
0.547266
0.534764
0.533594
0.547033
0.533608
0.520439
0.510055
0.534967
0.533694
0.533732
0.280933
0.501215
0.300939
0.534836
0.537106
0.539409
0.500365
0.537304
0.318686
0.318012
0.241991
0.324584
0.506608
0.321173
0.325063
0.529248
0.325254
0.537011
0.313896
0.519016
0.535044
0.316067
0.302424
0.258925
0.540064
0.329385
0.531948
0.537001
0.320968
0.504009
0.438497
0.272278
0.331865
0.325149
0.538095
0.317465
0.535675
0.401659
0.323482
0.531596
0.532926
0.545946
0.329915
0.450362
0.326926
0.514942
0.533719
0.535528
0.32678
0.530395
0.538394
0.488834
0.320226
0.539949
0.331443
0.325492
0.529087
0.357125
0.549126
0.315204
0.327201
0.351743
0.495804
0.329762
0.231529
0.301235
0.376048
0.533562
0.536517
0.3296
0.467965
0.534827
0.442735
0.329474
0.263705
0.440384
0.330982
0.324148
0.529788
0.326162
0.330541
0.542182
0.553863
0.297065
0.541358
0.310495
0.533589
0.331398
0.509212
0.533729
0.538346
0.533537
0.32349
0.323904
0.322521
0.53377
0.511949
0.467775
0.425992
0.294311
0.240384
0.533259
0.322766
0.533217
0.303235
0.53373
0.524107
0.298868
0.294474
0.327775
0.328101
0.297948
0.482113
0.508713
0.30158
0.536204
0.499285
0.319295
0.322343
0.553802
0.325382
0.534762
0.33878
0.538022
0.512987
0.535461
0.53357
0.325278
0.548872
0.533372
0.555064
0.320044
0.47525
0.472791
0.261506
0.540945
0.498907
0.547625
0.513614
0.54944
0.527884
0.550667
0.533092
0.531654
0.309636
0.545119
0.328085
0.360402
0.530168
0.324499
0.520516
0.474607
0.328506
0.490035
0.318019
0.317604
0.522729
0.466617
0.553438
0.326989
0.513369
0.486555
0.326396
0.306865
0.508564
0.532854
0.298926
0.307542
0.537387
0.553267
0.31268
0.502869
0.54774
0.516222
0.306694
0.331639
0.316716
0.514212
0.313971
0.523078
0.539887
0.533273
0.473037
0.535334
0.326693
0.51879
0.486364
0.546814
0.440361
0.328089
0.322169
0.331346
0.54391
0.537947
0.336671
0.511276
0.257415
0.503234
0.536398
0.328495
0.482155
0.523945
0.487854
0.308106
0.326814
0.293998
0.539598
0.549043
0.484542
0.408028
0.535367
0.329162
0.496936
0.533609
0.530569
0.308022
0.494332
0.328725
0.480668
0.333617
0.5305
0.522733
0.329809
0.539385
0.334314
0.533692
0.500107
0.533671
0.540094
0.325091
0.5333
0.533205
0.532918
0.531256
0.383517
0.533607
0.325704
0.533337
0.329249
0.302062
0.326962
0.296406
0.330065
0.303994
0.549742
0.290175
0.32221
0.514662
0.539763
0.510629
0.322444
0.534352
0.533596
0.533322
0.277399
0.451829
0.535406
0.32081
0.304017
0.323245
0.492234
0.403501
0.318638
0.4578
0.334871
0.533659
0.398035
0.327482
0.375069
0.509395
0.291722
0.533193
0.323716
0.368054
0.296755
0.53182
0.303349
0.509941
0.533594
0.46226
0.327739
0.324812
0.526294
0.552399
0.307955
0.305964
0.533639
0.325097
0.541299
0.311058
0.441937
0.331851
0.535547
0.324442
0.551276
0.301921
0.536202
0.536119
0.543169
0.533696
0.327706
0.328977
0.321928
0.4967
0.528532
0.494521
0.407047
0.32928
0.539291
0.267781
0.509842
0.455125
0.315505
0.327399
0.543337
0.530341
0.329409
0.533628
0.530151
0.543313
0.545519
0.32356
0.498978
0.329307
0.54341
0.315487
0.533525
0.504883
0.512316
0.551745
0.320102
0.556764
0.318391
0.324655
0.533875
0.533696
0.430976
0.529882
0.533661
0.325748
0.542887
0.528928
0.549188
0.306734
0.337381
0.531157
0.32355
0.537859
0.537108
0.522705
0.534244
0.227598
0.352944
0.509218
0.329236
0.517923
0.552903
0.372239
0.519995
0.215933
0.482891
0.543099
0.529864
0.520133
0.325226
0.332965
0.53278
0.520933
0.328276
0.263992
0.323609
0.328462
0.322335
0.334683
0.291788
0.321289
0.532222
0.327653
0.297565
0.536524
0.429416
0.533601
0.313248
0.32816
0.535211
0.368528
0.373358
0.547501
0.293314
0.517861
0.533729
0.480633
0.517064
0.326199
0.536833
0.533783
0.321318
0.324551
0.316044
0.471915
0.480009
0.549294
0.533963
0.531256
0.519974
0.292161
0.537713
0.533778
0.507967
0.326371
0.535922
0.448838
0.286687
0.342018
0.323543
0.323942
0.32419
0.464037
0.522871
0.52186
0.324341
0.308151
0.547671
0.284191
0.537077
0.53319
0.523008
0.530082
0.535098
0.320867
0.326112
0.336076
0.444442
0.319402
0.534211
0.320415
0.534624
0.533428
0.536709
0.299477
0.353854
0.323841
0.535731
0.307132
0.322917
0.53301
0.516821
0.484353
0.533841
0.50413
0.540907
0.325722
0.492667
0.545115
0.420684
0.534699
0.538677
0.541887
0.364712
0.338271
0.550308
0.394979
0.479155
0.326751
0.50238
0.523412
0.31763
0.313562
0.513231
0.402048
0.543032
0.537044
0.318033
0.329059
0.533559
0.299364
0.324574
0.524781
0.509453
0.327299
0.527185
0.533719
0.50194
0.302196
0.465078
0.32657
0.527197
0.544609
0.540796
0.519513
0.533678
0.25328
0.28354
0.529487
0.320584
0.480285
0.324298
0.536016
0.334588
0.507048
0.544737
0.533672
0.326102
0.533675
0.53357
0.323499
0.502944
0.315587
0.5539
0.326575
0.304297
0.316051
0.526391
0.529811