# vtk DataFile Version 1.0
unstructured grid
ascii
DATASET UNSTRUCTURED_GRID
points 13672 float
0.0796578 -0.059106 0
0.00128732 0.00159165 0
0.00227961 -0.00102548 0
0.0791586 -0.0598787 0
-0.0546216 0.01 0
0.000495206 0.025 0
0.0800549 -0.035 0
0.135172 -0.08 0
-0.0546216 -0.0451168 0
0.000495206 -0.0301168 0
0.0800549 -0.0901168 0
0.135172 -0.135117 0
-0.0546216 -0.0451168 -0.00551168
0.000495206 -0.0301168 -0.00551168
0.0800549 -0.0901168 -0.00551168
0.135172 -0.135117 -0.00551168
0.135172 -0.08 -0.00551168
0.0800549 -0.035 -0.00551168
0.000495206 0.025 -0.00551168
-0.0546216 0.01 -0.00551168
0.00128732 0.00159165 -0.00551168
0.00227961 -0.00102548 -0.00551168
0.0791586 -0.0598787 -0.00551168
0.0796578 -0.059106 -0.00551168
0.00165953 -0.000990923 0
0.00119576 -0.000874076 0
0.000866021 -0.000641801 0
0.000645147 -0.000349912 0
0.00052235 -1.7281e-05 0
0.00049972 0.000348016 0
0.000601632 0.000737716 0
0.000861774 0.0011403 0
0.00157235 0.00183217 0
0.00188647 0.00206725 0
0.00222612 0.00230203 0
0.00258713 0.00254351 0
0.00296826 0.00279524 0
0.00337118 0.00305664 0
0.00379785 0.00332658 0
0.00425045 0.00360349 0
0.00473139 0.00388521 0
0.0052432 0.00416895 0
0.0057881 0.00445204 0
0.00636753 0.00473281 0
0.00698281 0.00500961 0
0.00763526 0.00528058 0
0.00832616 0.00554366 0
0.00905691 0.00579603 0
0.00982918 0.00603333 0
0.0106445 0.00625033 0
0.0115038 0.00644128 0
0.0124073 0.00660297 0
0.0133543 0.00673414 0
0.0143444 0.00683382 0
0.0153769 0.00690031 0
0.0164512 0.00693173 0
0.0175666 0.00692547 0
0.0187219 0.00687822 0
0.0199156 0.00678477 0
0.0211454 0.00663864 0
0.0224084 0.00643275 0
0.0237018 0.00616676 0
0.0250249 0.00584739 0
0.026375 0.00547298 0
0.0277479 0.00503752 0
0.0291386 0.00453545 0
0.0305433 0.0039653 0
0.0319572 0.0033256 0
0.0333681 0.00260019 0
0.034775 0.00179799 0
0.0361793 0.000930615 0
0.0375798 3.12222e-06 0
0.0389689 -0.000988429 0
0.0403357 -0.00205109 0
0.041675 -0.00318283 0
0.0429849 -0.00437751 0
0.0442643 -0.00562904 0
0.0455126 -0.00693089 0
0.0467314 -0.00827518 0
0.0479204 -0.00965638 0
0.0490661 -0.0110799 0
0.0501515 -0.0125519 0
0.0511696 -0.0140695 0
0.0521492 -0.0156071 0
0.0531202 -0.0171411 0
0.0540851 -0.0186663 0
0.0550431 -0.0201798 0
0.0559923 -0.0216793 0
0.0569311 -0.0231626 0
0.0578582 -0.0246273 0
0.0587723 -0.0260715 0
0.0596721 -0.027493 0
0.0605563 -0.02889 0
0.0614241 -0.0302609 0
0.0622742 -0.0316042 0
0.063106 -0.0329183 0
0.0639186 -0.034202 0
0.0647113 -0.0354543 0
0.0654835 -0.0366743 0
0.0662345 -0.0378613 0
0.0669642 -0.0390145 0
0.0676726 -0.0401333 0
0.0683597 -0.0412172 0
0.0690246 -0.0422665 0
0.0696662 -0.0432819 0
0.0702841 -0.0442636 0
0.0708793 -0.0452111 0
0.0714538 -0.0461237 0
0.072009 -0.047001 0
0.0725452 -0.0478434 0
0.0730611 -0.0486524 0
0.073556 -0.0494294 0
0.0740291 -0.0501756 0
0.0744812 -0.0508916 0
0.0749138 -0.0515773 0
0.0753285 -0.0522331 0
0.0757266 -0.0528592 0
0.076109 -0.0534564 0
0.0764753 -0.0540264 0
0.0768243 -0.054571 0
0.0771553 -0.0550919 0
0.0774679 -0.0555901 0
0.0777617 -0.0560669 0
0.0780369 -0.056523 0
0.0782958 -0.0569578 0
0.0785421 -0.0573703 0
0.0787786 -0.0577603 0
0.0790073 -0.0581279 0
0.0792295 -0.058474 0
0.0794462 -0.0587995 0
0.0798803 -0.0594162 0
0.0800272 -0.0596588 0
0.0800357 -0.0598891 0
0.0799275 -0.0600784 0
0.0797205 -0.0601773 0
0.0794593 -0.0601051 0
0.0789155 -0.0596491 0
0.0786707 -0.0593963 0
0.0784111 -0.0591319 0
0.0781372 -0.0588542 0
0.0778566 -0.0585548 0
0.0775715 -0.0582308 0
0.0772803 -0.0578828 0
0.0769832 -0.0575099 0
0.0766822 -0.0571097 0
0.0763801 -0.0566796 0
0.0760759 -0.0562196 0
0.0757623 -0.0557337 0
0.0754359 -0.0552232 0
0.0750951 -0.0546879 0
0.0747379 -0.054128 0
0.0743626 -0.0535435 0
0.0739688 -0.0529338 0
0.0735559 -0.0522981 0
0.0731238 -0.0516357 0
0.0726718 -0.050946 0
0.0721991 -0.0502288 0
0.0717046 -0.049484 0
0.0711872 -0.0487117 0
0.0706461 -0.047912 0
0.0700804 -0.0470849 0
0.0694892 -0.0462308 0
0.0688718 -0.0453499 0
0.0682271 -0.0444431 0
0.0675544 -0.043511 0
0.0668527 -0.0425546 0
0.0661215 -0.0415748 0
0.06536 -0.040573 0
0.0645676 -0.0395504 0
0.0637439 -0.0385087 0
0.0628887 -0.0374493 0
0.062002 -0.0363741 0
0.0610838 -0.0352847 0
0.0601345 -0.0341831 0
0.0591547 -0.033071 0
0.0581456 -0.0319502 0
0.0571083 -0.0308224 0
0.0560444 -0.0296893 0
0.0549562 -0.028552 0
0.053845 -0.0274126 0
0.0527113 -0.0262746 0
0.051554 -0.0251427 0
0.0503724 -0.0240222 0
0.0491675 -0.0229164 0
0.047941 -0.0218282 0
0.0466955 -0.0207597 0
0.0454337 -0.0197126 0
0.0441592 -0.0186878 0
0.0428751 -0.0176863 0
0.0415841 -0.0167097 0
0.0402878 -0.0157609 0
0.0389879 -0.0148428 0
0.0376864 -0.0139575 0
0.0363853 -0.013107 0
0.0350871 -0.0122931 0
0.0337942 -0.0115164 0
0.0325095 -0.0107772 0
0.0312357 -0.0100756 0
0.0299758 -0.00941024 0
0.0287337 -0.00877784 0
0.0275126 -0.00817571 0
0.0263139 -0.00760375 0
0.0251376 -0.00706528 0
0.0239829 -0.0065649 0
0.0228537 -0.00609619 0
0.0217522 -0.00565563 0
0.0206795 -0.00524226 0
0.0196364 -0.00485507 0
0.0186233 -0.00449318 0
0.0176408 -0.00415577 0
0.016689 -0.00384204 0
0.0157682 -0.00355115 0
0.0148783 -0.00328218 0
0.0140192 -0.00303468 0
0.0131906 -0.00280795 0
0.0123925 -0.00260016 0
0.0116246 -0.00241012 0
0.0108864 -0.00223769 0
0.0101774 -0.00208212 0
0.00949701 -0.00194206 0
0.00884483 -0.0018163 0
0.0082202 -0.0017039 0
0.00762247 -0.00160391 0
0.00705097 -0.00151528 0
0.006505 -0.00143697 0
0.0059838 -0.00136806 0
0.00548662 -0.00130772 0
0.00501265 -0.00125519 0
0.00456114 -0.00120954 0
0.00413136 -0.00116914 0
0.00372257 -0.00113251 0
0.00333398 -0.00109853 0
0.00296466 -0.00106798 0
0.00261363 -0.0010431 0
-0.052721 -0.0445996 0
-0.0508204 -0.0440823 0
-0.0489199 -0.0435651 0
-0.0470193 -0.0430478 0
-0.0451187 -0.0425306 0
-0.0432181 -0.0420134 0
-0.0413175 -0.0414961 0
-0.039417 -0.0409789 0
-0.0375164 -0.0404616 0
-0.0356158 -0.0399444 0
-0.0337152 -0.0394271 0
-0.0318146 -0.0389099 0
-0.0299141 -0.0383927 0
-0.0280135 -0.0378754 0
-0.0261129 -0.0373582 0
-0.0242123 -0.0368409 0
-0.0223117 -0.0363237 0
-0.0204112 -0.0358065 0
-0.0185106 -0.0352892 0
-0.01661 -0.034772 0
-0.0147094 -0.0342547 0
-0.0128088 -0.0337375 0
-0.0109083 -0.0332202 0
-0.00900769 -0.032703 0
-0.00710711 -0.0321858 0
-0.00520653 -0.0316685 0
-0.00330595 -0.0311513 0
-0.00140537 -0.030634 0
0.00190689 -0.0299614 0
0.00332271 -0.0298498 0
0.00474133 -0.0297825 0
0.00616136 -0.0297597 0
0.0075814 -0.0297814 0
0.00900007 -0.0298477 0
0.010416 -0.0299583 0
0.0118278 -0.0301127 0
0.0132342 -0.0303103 0
0.0146339 -0.0305504 0
0.0160259 -0.0308322 0
0.0174091 -0.0311546 0
0.0187824 -0.0315166 0
0.020145 -0.031917 0
0.0214961 -0.0323546 0
0.0228351 -0.032828 0
0.0241613 -0.0333361 0
0.0254744 -0.0338774 0
0.0267738 -0.0344507 0
0.0280592 -0.0350545 0
0.0293306 -0.0356877 0
0.0305875 -0.0363488 0
0.0318301 -0.0370367 0
0.0330581 -0.0377501 0
0.0342717 -0.0384879 0
0.0354708 -0.0392489 0
0.0366556 -0.0400321 0
0.0378262 -0.0408363 0
0.0389828 -0.0416607 0
0.0401254 -0.0425042 0
0.0412543 -0.0433659 0
0.0423698 -0.0442451 0
0.043472 -0.0451408 0
0.0445612 -0.0460523 0
0.0456375 -0.0469789 0
0.0467013 -0.0479199 0
0.0477529 -0.0488746 0
0.0487923 -0.0498424 0
0.04982 -0.0508227 0
0.0508362 -0.051815 0
0.051841 -0.0528187 0
0.0528348 -0.0538333 0
0.0538178 -0.0548584 0
0.0547903 -0.0558935 0
0.0557524 -0.0569382 0
0.0567045 -0.0579922 0
0.0576467 -0.0590549 0
0.0585792 -0.0601261 0
0.0595024 -0.0612055 0
0.0604163 -0.0622926 0
0.0613212 -0.0633873 0
0.0622174 -0.0644891 0
0.0631049 -0.0655979 0
0.0639841 -0.0667134 0
0.064855 -0.0678353 0
0.0657179 -0.0689633 0
0.0665729 -0.0700974 0
0.0674202 -0.0712372 0
0.06826 -0.0723826 0
0.0690925 -0.0735333 0
0.0699178 -0.0746892 0
0.070736 -0.0758501 0
0.0715473 -0.0770159 0
0.0723518 -0.0781863 0
0.0731498 -0.0793612 0
0.0739412 -0.0805405 0
0.0747264 -0.081724 0
0.0755053 -0.0829116 0
0.0762781 -0.0841033 0
0.0770449 -0.0852987 0
0.0778059 -0.0864979 0
0.0785611 -0.0877007 0
0.0793108 -0.088907 0
0.0814681 -0.0912706 0
0.0828814 -0.0924245 0
0.0842946 -0.0935783 0
0.0857079 -0.0947322 0
0.0871211 -0.095886 0
0.0885344 -0.0970399 0
0.0899476 -0.0981937 0
0.0913609 -0.0993476 0
0.0927741 -0.100501 0
0.0941874 -0.101655 0
0.0956006 -0.102809 0
0.0970139 -0.103963 0
0.0984272 -0.105117 0
0.0998404 -0.106271 0
0.101254 -0.107424 0
0.102667 -0.108578 0
0.10408 -0.109732 0
0.105493 -0.110886 0
0.106907 -0.11204 0
0.10832 -0.113194 0
0.109733 -0.114348 0
0.111146 -0.115501 0
0.11256 -0.116655 0
0.113973 -0.117809 0
0.115386 -0.118963 0
0.116799 -0.120117 0
0.118213 -0.121271 0
0.119626 -0.122424 0
0.121039 -0.123578 0
0.122452 -0.124732 0
0.123866 -0.125886 0
0.125279 -0.12704 0
0.126692 -0.128194 0
0.128105 -0.129348 0
0.129519 -0.130501 0
0.130932 -0.131655 0
0.132345 -0.132809 0
0.133758 -0.133963 0
0.135172 -0.133216 0
0.135172 -0.131316 0
0.135172 -0.129415 0
0.135172 -0.127514 0
0.135172 -0.125614 0
0.135172 -0.123713 0
0.135172 -0.121813 0
0.135172 -0.119912 0
0.135172 -0.118012 0
0.135172 -0.116111 0
0.135172 -0.11421 0
0.135172 -0.11231 0
0.135172 -0.110409 0
0.135172 -0.108509 0
0.135172 -0.106608 0
0.135172 -0.104708 0
0.135172 -0.102807 0
0.135172 -0.100906 0
0.135172 -0.0990058 0
0.135172 -0.0971052 0
0.135172 -0.0952046 0
0.135172 -0.0933041 0
0.135172 -0.0914035 0
0.135172 -0.0895029 0
0.135172 -0.0876023 0
0.135172 -0.0857017 0
0.135172 -0.0838012 0
0.135172 -0.0819006 0
0.133758 -0.0788462 0
0.132345 -0.0776923 0
0.130932 -0.0765385 0
0.129519 -0.0753846 0
0.128105 -0.0742308 0
0.126692 -0.0730769 0
0.125279 -0.0719231 0
0.123866 -0.0707692 0
0.122452 -0.0696154 0
0.121039 -0.0684615 0
0.119626 -0.0673077 0
0.118213 -0.0661538 0
0.116799 -0.065 0
0.115386 -0.0638462 0
0.113973 -0.0626923 0
0.11256 -0.0615385 0
0.111146 -0.0603846 0
0.109733 -0.0592308 0
0.10832 -0.0580769 0
0.106907 -0.0569231 0
0.105493 -0.0557692 0
0.10408 -0.0546154 0
0.102667 -0.0534615 0
0.101254 -0.0523077 0
0.0998404 -0.0511538 0
0.0984272 -0.05 0
0.0970139 -0.0488462 0
0.0956006 -0.0476923 0
[...]
CELL_DATA 13116
SCALARS rho float
LOOKUP_TABLE default
0.426806
0.514285
0.293948
0.555526
0.546185
0.533838
0.323266
0.549063
0.409992
0.549945
0.322945
0.299231
0.546429
0.331889
0.320873
0.533884
0.401736
0.542452
0.531491
0.3289
0.430841
0.32709
0.33018
0.543983
0.473784
0.493974
0.549976
0.332445
0.472721
0.502667
0.533583
0.336675
0.432079
0.348709
0.322622
0.428927
0.517486
0.526489
0.533808
0.533652
0.532875
0.551859
0.330732
0.294902
0.530266
0.531323
0.496129
0.534019
0.323627
0.407003
0.545154
0.344087
0.322202
0.396094
0.430997
0.455123
0.300936
0.54127
0.417387
0.319081
0.333189
0.551269
0.506641
0.533799
0.533649
0.337312
0.535422
0.522874
0.536189
0.533659
0.323468
0.456438
0.323177
0.331102
0.533557
0.306587
0.500556
0.542186
0.324192
0.540002
0.528031
0.498594
0.544076
0.5336
0.522545
0.350542
0.326978
0.52066
0.518269
0.326419
0.318402
0.515716
0.54612
0.522631
0.505076
0.465396
0.475799
0.533695
0.533546
0.465571
0.528346
0.457483
0.532406
0.313308
0.482074
0.335079
0.280567
0.367886
0.331839
0.480765
0.390487
0.493446
0.46393
0.530851
0.540497
0.535556
0.329635
0.302315
0.539475
0.536537
0.523189
0.321478
0.536486
0.352722
0.517618
0.34179
0.327441
0.39691
0.329336
0.408286
0.539709
0.533185
0.391832
0.328936
0.376266
0.454391
0.533639
0.538428
0.527631
0.536313
0.487409
0.498882
0.395665
0.488106
0.502461
0.330674
0.323476
0.491785
0.54421
0.541959
0.423727
0.533154
0.533993
0.313074
0.547147
0.523715
0.329087
0.532821
0.533693
0.520897
0.543271
0.322166
0.542792
0.328819
0.317254
0.549704
0.515301
0.54207
0.322613
0.362495
0.329264
0.533596
0.321936
0.383669
0.534854
0.331491
0.323588
0.324414
0.490118
0.533558
0.305716
0.336819
0.406611
0.517834
0.533577
0.415548
0.300067
0.532677
0.472023
0.359511
0.495265
0.490002
0.533626
0.332464
0.485763
0.533865
0.547335
0.532293
0.517176
0.317131
0.312965
0.484847
0.392754
0.332047
0.540085
0.529684
0.350974
0.473515
0.327615
0.324849
0.304023
0.534565
0.328133
0.329015
0.324627
0.312369
0.285663
0.533372
0.514923
0.340203
0.300014
0.535275
0.385605
0.3066
0.433261
0.550466
0.500512
0.335234
0.534995
0.30584
0.555465
0.327631
0.533601
0.448508
0.533691
0.527906
0.533633
0.31668
0.335968
0.520855
0.533622
0.533789
0.533635
0.533447
0.543563
0.325197
0.541365
0.547833
0.533529
0.326234
0.325212
0.531049
0.539008
0.533592
0.535954
0.41571
0.533172
0.322513
0.330807
0.309427
0.328178
0.468003
0.547153
0.49952
0.324084
0.528969
0.33125
0.338271
0.483843
0.321645
0.49513
0.548171
0.533599
0.541011
0.31677
0.533595
0.532188
0.533528
0.5383
0.321652
0.328441
0.331452
0.450525
0.321183
0.329001
0.259921
0.252926
0.521476
0.323811
0.522777
0.546963
0.313986
0.32663
0.331444
0.353499
0.290969
0.519562
0.456048
0.488308
0.321748
0.534287
0.458546
0.33111
0.320062
0.533669
0.538984
0.532419
0.298836
0.533905
0.322346
0.53263
0.551709
0.540612
0.550824
0.333491
0.535012
0.326714
0.533409
0.550759
0.521464
0.325382
0.259678
0.548316
0.334283
0.50801
0.551202
0.285171
0.535318
0.543826
0.329946
0.528772
0.546027
0.322012
0.540939
0.351857
0.448992
0.53246
0.357101
0.533076
0.324967
0.542212
0.269073
0.533425
0.451156
0.548294
0.33485
0.279398
0.523662
0.316588
0.539446
0.477207
0.328872
0.533641
0.307686
0.318747
0.537595
0.433474
0.521653
0.328568
0.328415
0.541235
0.54677
0.32343
0.545905
0.333016
0.333656
0.535149
0.536159
0.357013
0.322292
0.538374
0.533649
0.533949
0.527692
0.540813
0.423869
0.258838
0.325727
0.303061
0.533947
0.303725
0.404968
0.28908
0.320622
0.274715
0.364879
0.110117
0.317344
0.524398
0.262938
0.543416
0.472409
0.532742
0.514226
0.541893
0.318822
0.327688
0.321957
0.266704
0.537322
0.460629
0.53266
0.472886
0.503798
0.482336
0.497034
0.484111
0.500426
0.539744
0.539571
0.533766
0.314164
0.357307
0.423596
0.325018
0.45301
0.453798
0.324044
0.53535
0.533626
0.334046
0.327028
0.329153
0.302352
0.492498
0.325247
0.33248
0.534794
0.33379
0.448213
0.329419
0.533433
0.527804
0.292072
0.32917
0.537165
0.354705
0.329356
0.300701
0.32029
0.331588
0.32921
0.327331
0.327689
0.338086
0.324439
0.454686
0.308726
0.521854
0.29704
0.358725
0.394078
0.336857
0.326044
0.336166
0.531368
0.342579
0.500116
0.36987
0.336424
0.475512
0.520154
0.349909
0.534959
0.483283
0.482144
0.329911
0.533686
0.303977
0.541592
0.533578
0.328347
0.326614
0.470743
0.268071
0.358279
0.453585
0.27978
0.532062
0.50481
0.311569
0.321058
0.322242
0.380197
0.31871
0.322803
0.322577
0.327142
0.552366
0.552911
0.35859
0.46805
0.37564
0.485549
0.275031
0.323115
0.41354
0.328434
0.532953
0.230529
0.290663
0.388563
0.529694
0.511494
0.438423
0.283742
0.326614
0.44566
0.549203
0.533742
0.442728
0.485687
0.466969
0.32648
0.526991
0.444987
0.519932
0.243533
0.293164
0.53007
0.547557
0.513368
0.550713
0.513024
0.493917
0.542336
0.520266
0.532714
0.312873
0.529469
0.265923
0.327018
0.32836
0.554436
0.530146
0.242143
0.52181
0.485874
0.325676
0.533528
0.538467
0.536899
0.332288
0.323016
0.540784
0.329063
0.314165
0.312291
0.327305
0.531028
0.323739
0.554447
0.309235
0.514794
0.544153
0.535481
0.546891
0.32884
0.312456
0.531458
0.55635
0.509738
0.552087
0.54761
0.390112
0.32977
0.330407
0.533992
0.411676
0.32852
0.354495
0.316886
0.531514
0.533066
0.243631
0.327053
0.520144
0.364865
0.52503
0.515354
0.328415
0.30654
0.506427
0.533645
0.329506
0.510579
0.514983
0.530915
0.314322
0.533591
0.314374
0.533683
0.518945
0.321016
0.285091
0.32852
0.533624
0.329485
0.32269
0.302727
0.53352
0.535277
0.324015
0.326361
0.328273
0.533651
0.323092
0.533767
0.33082
0.459476
0.550498
0.299529
0.328981
0.329382
0.390473
0.333062
0.502742
0.298167
0.324469
0.533433
0.322984
0.53443
0.504872
0.533684
0.303415
0.533526
0.545131
0.547049
0.534078
0.518499
0.535005
0.331776
0.533738
0.342038
0.528472
0.321465
0.544284
0.393957
0.322852
0.533548
0.542619
0.321585
0.486536
0.31532
0.322835
0.534749
0.531081
0.306168
0.330202
0.324605
0.338031
0.528761
0.544138
0.315459
0.303316
0.539409
0.538256
0.460929
0.544685
0.533167
0.322845
0.548391
0.334047
0.54502
0.303239
0.463767
0.377988
0.53487
0.522635
0.451721
0.267931
0.333852
0.532028
0.473164
0.400805
0.544272
0.328105
0.53075
0.546801
0.286355
0.355328
0.545542
0.283348
0.533536
0.52163
0.256161
0.537251
0.503666
0.306831
0.534226
0.331063
0.515903
0.300046
0.534473
0.505154
0.335974
0.533796
0.543201
0.541402
0.486839
0.528325
0.456924
0.323551
0.324423
0.29826
0.332166
0.533594
0.435645
0.537078
0.543693
0.307417
0.323454
0.531558
0.551205
0.537533
0.548213
0.324114
0.539718
0.547741
0.32843
0.309935
0.539619
0.531019
0.519265
0.325706
0.463174
0.313234
0.533486
0.503165
0.533737
0.520554
0.328752
0.527989
0.522681
0.545278
0.530098
0.533268
0.338622
0.540518
0.324802
0.485006
0.54887
0.362159
0.506016
0.533747
0.543733
0.312762
0.314232
0.457838
0.508095
0.329986
0.323972
0.317797
0.32468
0.516257
0.530387
0.533445
0.251962
0.323666
0.536041
0.531756
0.322524
0.32488
0.363553
0.516591
0.532361
0.527133
0.537709
0.324626
0.330471
0.533592
0.349637
0.325219
0.300586
0.532834
0.321528
0.327627
0.449097
0.530032
0.49018
0.53386
0.532778
0.331336
0.322314
0.318047
0.36935
0.342183
0.323234
0.521714
0.537298
0.515829
0.533866
0.335558
0.302913
0.550467
0.329563
0.533242
0.504739
0.53369
0.306151
0.318664
0.511282
0.533503
0.43598
0.321742
0.524311
0.533889
0.445657
0.542107
0.547558
0.533592
0.48591
0.324621
0.532879
0.53349
0.478379
0.533759
0.533638
0.494731
0.533674
0.537731
0.324921
0.319204
0.307064
0.533688
0.392842
0.330834
0.53142
0.539844
0.294009
0.492596
0.290336
0.496651
0.36381
0.318288
0.551479
0.543639
0.329559
0.432297
0.533663
0.330587
0.522907
0.336216
0.334689
0.479053
0.473999
0.393989
0.532274
0.317416
0.542679
0.322464
0.319056
0.53439
0.328189
0.4691
0.319773
0.491895
0.464976
0.533668
0.513494
0.32386
0.323905
0.473356
0.332415
0.537248
0.356514
0.459614
0.533647
0.545078
0.343641
0.478613
0.488831
0.547607
0.535931
0.27182
0.325171
0.424246
0.487124
0.548051
0.294281
0.532325
0.437482
0.321592
0.310445
0.522719
0.517282
0.533657
0.533605
0.457843
0.531478
0.533657
0.523365
0.319778
0.513588
0.361509
0.537938
0.530522
0.244232
0.49741
0.545054
0.319288
0.319481
0.332907
0.533641
0.322546
0.47892
0.537872
0.514787
0.309195
0.524021
0.332798
0.462742
0.533777
0.533456
0.520353
0.533629
0.482261
0.527011
0.40792
0.528048
0.298437
0.533073
0.535379
0.316838
0.533673
0.531534
0.330067
0.325008
0.329571
0.541006
0.325346
0.533576
0.314553
0.548356
0.326475
0.378449
0.325364
0.541122
0.547567
0.414089
0.214268
0.482174
0.533377
0.317738
0.46013
0.553261
0.328857
0.457222
0.533516
0.550182
0.53337
0.326758
0.365757
0.538612
0.531997
0.486238
0.325559
0.311617
0.525983
0.533636
0.533642
0.533662
0.426237
0.533543
0.422531
0.53605
0.325655
0.331735
0.533665
0.545254
0.533535
0.335845
0.532988
0.432299
0.465747
0.305651
0.327416
0.546212
0.557255
0.434394
0.263379
0.533311
0.533675
0.322696
0.475929
0.537522
0.322529
0.356279
0.324953
0.47139
0.326326
0.311564
0.527907
0.362647
0.548295
0.497388
0.322829
0.329282
0.551101
0.317714
0.325586
0.533503
0.332263
0.275963
0.460206
0.51472
0.533578
0.323884
0.263349
0.324066
0.506057
0.334388
0.534152
0.322167
0.532154
0.486943
0.529312
0.491043
0.526856
0.501403
0.53251
0.546549
0.536436
0.32297
0.322476
0.520751
0.533722
0.398874
0.481034
0.435387
0.533705
0.477012
0.291449
0.535919
0.552429
0.526659
0.326038
0.528665
0.303067
0.53354
0.392705
0.540326
0.534048
0.318305
0.537223
0.329367
0.33275
0.507649
0.299534
0.532531
0.533673
0.537644
0.303153
0.534743
0.325788
0.306543
0.319676
0.323817
0.470461
0.322853
0.490331
0.533719
0.266168
0.332548
0.384853
0.455028
0.491856
0.487795
0.305513
0.335385
0.323367
0.325411
0.214142
0.491424
0.497613
0.332157
0.533412
0.53745
0.325052
0.552373
0.53119
0.533733
0.325523
0.533566
0.527228
0.540767
0.537908
0.318751
0.534604
0.542192
0.529189
0.523388
0.533259
0.327592
0.32505
0.533416
0.422869
0.319907
0.534289
0.331393
0.44852
0.486303
0.514143
0.51734
0.308927
0.479554
0.311741
0.325688
0.535995
0.540984
0.544211
0.540883
0.510976
0.306868
0.547596
0.322987
0.398016
0.549253
0.533561
0.53821
0.326108
0.325449
0.548439
0.325219
0.540287
0.507779
0.336321
0.325652
0.535106
0.321807
0.533989
0.539873
0.50844
0.321325
0.318723
0.394257
0.402581
0.482283
0.369126
0.533296
0.487809
0.524084
0.533597
0.532892
0.326006
0.327554
0.541871
0.533259
0.483621
0.362359
0.332189
0.524621
0.322296
0.53305
0.482399
0.266
0.536877
0.323988
0.506068
0.296059
0.544972
0.316237
0.532635
0.533567
0.278771
0.519805
0.507644
0.267949
0.533445
0.531396
0.433862
0.337055
0.286789
0.363938
0.545567
0.469886
0.321104
0.459623
0.534877
0.533479
0.301741
0.473072
0.519343
0.364552
0.533279
0.533497
0.236677
0.53622
0.53353
0.294229
0.464607
0.303673
0.494906
0.311932
0.334216
0.547209
0.317615
0.327321
0.324049
0.53512
0.512119
0.316471
0.533191
0.283676
0.515749
0.325865
0.515191
0.2897
0.533669
0.533761
0.501703
0.53357
0.435224
0.533594
0.533706
0.30457
0.498805
0.505955
0.377127
0.532375
0.389527
0.315828
0.547329
0.309059
0.447201
0.288246
0.532586
0.322197
0.332396
0.54372
0.53281
0.313692
0.537071
0.537382
0.533624
0.547852
0.533647
0.324624
0.551776
0.328837
0.328326
0.519395
0.538571
0.551166
0.522032
0.317756
0.311278
0.323298
0.515522
0.533683
0.285883
0.523504
0.336874
0.308848
0.306237
0.520697
0.303487
0.548946
0.536745
0.497937
0.530308
0.535818
0.445894
0.496168
0.343717
0.331706
0.313662
0.533641
0.533611
0.335792
0.490945
0.46903
0.497627
0.327121
0.310231
0.490915
0.220135
0.485348
0.461387
0.329305
0.533455
0.517707
0.330774
0.533033
0.325175
0.536892
0.54911
0.527268
0.323084
0.37189
0.531338
0.238304
0.351105
0.530365
0.245141
0.533444
0.535866
0.494742
0.537671
0.260109
0.533592
0.535476
0.531908
0.287142
0.542344
0.324081
0.332941
0.52351
0.532543
0.533517
0.186823
0.534278
0.498513
0.533564
0.336312
0.331302
0.329116
0.539649
0.322739
0.322397
0.306837
0.459658
0.323476
0.247843
0.35001
0.534125
0.328346
0.533529
0.533608
0.53334
0.302307
0.535489
0.511271
0.533418
0.328813
0.521616
0.323789
0.310562
0.534656
0.326579
0.487621
0.533844
0.533665
0.326242
0.25989
0.321849
0.441584
0.533657
0.184901
0.527136
0.535023
0.538628
0.326181
0.323628
0.271947
0.469139
0.330713
0.533668
0.476314
0.533617
0.526853
0.323057
0.487959
0.329378
0.436778
0.509233
0.55103
0.442825
0.372491
0.521392
0.486746
0.54263
0.307216
0.292301
0.327032
0.539856
0.41625
0.533568
0.328454
0.313709
0.540726
0.535248
0.533472
0.32556
0.533946
0.440225
0.442605
0.472009
0.331716
0.327909
0.235168
0.53256
0.533765
0.522183
0.483804
0.271015
0.538407
0.516573
0.533764
0.533424
0.538325
0.552229
0.53394
0.5375
0.543722
0.327327
0.536936
0.541641
0.533091
0.538136
0.532214
0.449557
0.326717
0.335727
0.481306
0.323064
0.263495
0.533239
0.324358
0.500962
0.535717
0.51237
0.52731
0.329648
0.534683
0.316863
0.333839
0.533978
0.532874
0.533992
0.298618
0.545113
0.532381
0.479157
0.532541
0.325595
0.533141
0.548772
0.51798
0.317927
0.541617
0.326124
0.556961
0.302427
0.3268
0.406468
0.353647
0.551353
0.541994
0.533406
0.308097
0.533189
0.318175
0.324128
0.507896
0.387944
0.326275
0.532801
0.323314
0.405785
0.52178
0.495853
0.516636
0.386982
0.469593
0.512979
0.533722
0.447431
0.544207
0.421724
0.551944
0.480459
0.506378
0.334087
0.32383
0.353114
0.540896
0.329449
0.519838
0.537366
0.470738
0.53377
0.40452
0.531801
0.524591
0.32694
0.536473
0.475813
0.381365
0.478695
0.54829
0.504019
0.533476
0.325227
0.325207
0.529107
0.418674
0.424297
0.538239
0.533154
0.533596
0.547612
0.548779
0.484684
0.485611
0.550984
0.322318
0.323981
0.322582
0.299094
0.533649
0.360876
0.419471
0.536606
0.528537
0.328379
0.528142
0.555705
0.297737
0.295426
0.533568
0.538257
0.332877
0.308297
0.313727
0.533626
0.493344
0.321308
0.326158
0.329372
0.33277
0.272206
0.322397
0.553333
0.533931
0.529995
0.309723
0.513289
0.472845
0.480527
0.302634
0.326784
0.506211
0.533673
0.328482
0.533472
0.330676
0.543401
0.328155
0.532747
0.302293
0.516509
0.546939
0.305229
0.443987
0.322925
0.552058
0.332607
0.475933
0.331545
0.39675
0.324548
0.468919
0.31786
0.533565
0.533562
0.478825
0.525968
0.290661
0.515499
0.533361
0.545905
0.470895
0.51651
0.327262
0.305252
0.33466
0.546087
0.229473
0.544762
0.430115
0.538353
0.550139
0.359389
0.540392
0.324291
0.335898
0.322386
0.400407
0.404829
0.532506
0.32054
0.3291
0.534266
0.300076
0.320273
0.431241
0.290917
0.328412
0.33643
0.552837
0.513891
0.479552
0.330205
0.512746
0.532682
0.332465
0.256025
0.522969
0.53297
0.439536
0.408329
0.326185
0.28644
0.313568
0.529252
0.477674
0.409417
0.534188
0.324861
0.445372
0.323594
0.533579
0.544807
0.327944
0.327728
0.483162
0.425742
0.546637
0.543711
0.545935
0.537506
0.549338
0.309334
0.325148
0.323888
0.321699
0.420575
0.533643
0.515283
0.322543
0.305388
0.353868
0.356552
0.533497
0.494937
0.32543
0.243684
0.535699
0.330286
0.511888
0.542198
0.50833
0.533255
0.430169
0.321607
0.313112
0.481008
0.328202
0.328337
0.315849
0.53349
0.532133
0.291707
0.328777
0.533585
0.316776
0.533922
0.546114
0.321342
0.319889
0.327178
0.535376
0.329738
0.533669
0.534258
0.471105
0.303596
0.41923
0.541614
0.524945
0.324854
0.522408
0.483036
0.376489
0.539022
0.555697
0.326231
0.317209
0.510368
0.32154
0.321397
0.518718
0.273954
0.532754
0.53212
0.545462
0.488961
0.54505
0.535595
0.533714
0.322808
0.325541
0.491996
0.531155
0.371679
0.552087
0.256798
0.537489
0.517961
0.446528
0.508176
0.305839
0.360404
0.528858
0.542464
0.477782
0.547212
0.53473
0.533573
0.546987
0.533591
0.520451
0.51001
0.534941
0.533674
0.533704
0.281021
0.501185
0.302832
0.534795
0.537062
0.539359
0.500281
0.537251
0.318844
0.31829
0.241905
0.324646
0.506525
0.3233
0.325452
0.52919
0.325456
0.536959
0.314151
0.51894
0.534988
0.316009
0.302323
0.259273
0.540019
0.330419
0.53189
0.536946
0.321249
0.503963
0.438361
0.272217
0.332484
0.325383
0.53804
0.317348
0.535633
0.40161
0.323682
0.53155
0.532886
0.545895
0.330379
0.450268
0.327452
0.514862
0.53369
0.53549
0.327152
0.530332
0.538352
0.488765
0.320126
0.539904
0.332039
0.325899
0.529042
0.35703
0.54907
0.315092
0.32756
0.351631
0.49573
0.330511
0.231608
0.301428
0.376001
0.533536
0.536462
0.329733
0.467886
0.53479
0.442587
0.329418
0.264458
0.440247
0.331047
0.324347
0.529731
0.326558
0.330755
0.542138
0.553796
0.297374
0.541308
0.310744
0.533567
0.332132
0.509171
0.533703
0.538294
0.533507
0.323599
0.324198
0.323038
0.533741
0.511894
0.467626
0.425879
0.294212
0.240303
0.533224
0.323181
0.533166
0.303132
0.533704
0.524041
0.29959
0.295651
0.328131
0.328248
0.299586
0.482026
0.50863
0.302316
0.536157
0.499198
0.319676
0.322336
0.553731
0.32585
0.534707
0.338667
0.537971
0.512905
0.535413
0.533544
0.325438
0.548818
0.533329
0.555013
0.32007
0.475153
0.472646
0.261719
0.5409
0.498832
0.54765
0.513534
0.549381
0.52784
0.550616
0.533055
0.531605
0.30952
0.545069
0.328442
0.360334
0.530118
0.325035
0.520448
0.47451
0.328553
0.489961
0.31798
0.319816
0.522691
0.466515
0.553373
0.327548
0.513289
0.486437
0.327655
0.30693
0.508557
0.532813
0.298827
0.307697
0.537334
0.553199
0.312507
0.502783
0.547684
0.516118
0.310443
0.332266
0.317179
0.514129
0.313984
0.523007
0.539836
0.533238
0.472962
0.535279
0.327148
0.518734
0.486226
0.54676
0.440289
0.328726
0.322409
0.331309
0.543861
0.537894
0.336558
0.511193
0.258617
0.503159
0.536358
0.328349
0.482077
0.523875
0.487762
0.308201
0.326962
0.294395
0.539546
0.548987
0.484423
0.407891
0.535315
0.329433
0.49684
0.533585
0.530507
0.308155
0.494198
0.328781
0.480578
0.333723
0.530439
0.522699
0.33048
0.539335
0.334263
0.533673
0.500029
0.533655
0.540051
0.324999
0.533266
0.533166
0.532876
0.531197
0.383386
0.533583
0.325698
0.533297
0.329162
0.302429
0.326958
0.297909
0.330162
0.30411
0.549683
0.290076
0.322246
0.51459
0.539712
0.510547
0.322356
0.534297
0.533537
0.533288
0.278109
0.451762
0.53537
0.320926
0.304175
0.323556
0.492142
0.403365
0.320185
0.457735
0.335137
0.533634
0.397902
0.327765
0.37495
0.50931
0.292422
0.533153
0.323611
0.368003
0.296655
0.531798
0.303247
0.509869
0.53357
0.462177
0.327687
0.325059
0.526292
0.552333
0.308103
0.306507
0.533607
0.326225
0.54125
0.311136
0.441796
0.331801
0.535511
0.324515
0.551213
0.302383
0.536161
0.536067
0.543117
0.533674
0.327631
0.32975
0.321853
0.496707
0.528473
0.494447
0.40699
0.329357
0.539239
0.268578
0.509784
0.455023
0.315391
0.327536
0.543287
0.530281
0.330004
0.533601
0.530154
0.543262
0.54547
0.323469
0.498881
0.329604
0.543358
0.315586
0.533494
0.504831
0.512363
0.551683
0.320478
0.556699
0.318405
0.32505
0.533838
0.533674
0.430877
0.529819
0.533638
0.32631
0.542838
0.528905
0.549141
0.307228
0.33728
0.531099
0.325427
0.537817
0.537067
0.522637
0.534216
0.227523
0.352871
0.509125
0.329926
0.517864
0.552833
0.372158
0.519959
0.216084
0.482796
0.54305
0.529794
0.52011
0.325428
0.333683
0.532724
0.520861
0.328334
0.264176
0.323698
0.329104
0.322351
0.334841
0.292688
0.321216
0.532164
0.327547
0.298813
0.536471
0.42932
0.533582
0.313147
0.328577
0.535173
0.368442
0.37331
0.547446
0.293217
0.517771
0.533703
0.480497
0.516985
0.327644
0.536778
0.533757
0.321572
0.324963
0.315935
0.471818
0.479875
0.549235
0.533934
0.531194
0.519898
0.292095
0.537661
0.533752
0.507986
0.326664
0.535885
0.448747
0.286624
0.341915
0.323574
0.324461
0.324078
0.463931
0.522802
0.521788
0.324593
0.308047
0.547616
0.284631
0.537023
0.533151
0.52294
0.530012
0.535048
0.320971
0.326641
0.336457
0.444362
0.319427
0.534166
0.32059
0.534592
0.533394
0.536664
0.299569
0.353777
0.323747
0.535678
0.30729
0.323232
0.532969
0.516742
0.484279
0.533811
0.504135
0.540857
0.327428
0.492534
0.545062
0.420543
0.534644
0.538624
0.541838
0.364587
0.33816
0.55026
0.394847
0.479077
0.327291
0.502292
0.523348
0.31756
0.313603
0.513151
0.401939
0.542979
0.53699
0.317915
0.329213
0.533532
0.299313
0.324468
0.524723
0.509443
0.327362
0.527124
0.533694
0.501856
0.302443
0.46497
0.328157
0.527146
0.544556
0.540747
0.51944
0.533653
0.254355
0.28344
0.529424
0.320641
0.480143
0.324414
0.535968
0.335491
0.506968
0.544683
0.533647
0.326516
0.533658
0.533545
0.32363
0.502858
0.315857
0.55385
0.326983
0.306251
0.316122
0.526328
0.529757