# vtk DataFile Version 1.0
unstructured grid
ascii
DATASET UNSTRUCTURED_GRID
points 13672 float
0.0796578 -0.059106 0
0.00128732 0.00159165 0
0.00227961 -0.00102548 0
0.0791586 -0.0598787 0
-0.0546216 0.01 0
0.000495206 0.025 0
0.0800549 -0.035 0
0.135172 -0.08 0
-0.0546216 -0.0451168 0
0.000495206 -0.0301168 0
0.0800549 -0.0901168 0
0.135172 -0.135117 0
-0.0546216 -0.0451168 -0.00551168
0.000495206 -0.0301168 -0.00551168
0.0800549 -0.0901168 -0.00551168
0.135172 -0.135117 -0.00551168
0.135172 -0.08 -0.00551168
0.0800549 -0.035 -0.00551168
0.000495206 0.025 -0.00551168
-0.0546216 0.01 -0.00551168
0.00128732 0.00159165 -0.00551168
0.00227961 -0.00102548 -0.00551168
0.0791586 -0.0598787 -0.00551168
0.0796578 -0.059106 -0.00551168
0.00165953 -0.000990923 0
0.00119576 -0.000874076 0
0.000866021 -0.000641801 0
0.000645147 -0.000349912 0
0.00052235 -1.7281e-05 0
0.00049972 0.000348016 0
0.000601632 0.000737716 0
0.000861774 0.0011403 0
0.00157235 0.00183217 0
0.00188647 0.00206725 0
0.00222612 0.00230203 0
0.00258713 0.00254351 0
0.00296826 0.00279524 0
0.00337118 0.00305664 0
0.00379785 0.00332658 0
0.00425045 0.00360349 0
0.00473139 0.00388521 0
0.0052432 0.00416895 0
0.0057881 0.00445204 0
0.00636753 0.00473281 0
0.00698281 0.00500961 0
0.00763526 0.00528058 0
0.00832616 0.00554366 0
0.00905691 0.00579603 0
0.00982918 0.00603333 0
0.0106445 0.00625033 0
0.0115038 0.00644128 0
0.0124073 0.00660297 0
0.0133543 0.00673414 0
0.0143444 0.00683382 0
0.0153769 0.00690031 0
0.0164512 0.00693173 0
0.0175666 0.00692547 0
0.0187219 0.00687822 0
0.0199156 0.00678477 0
0.0211454 0.00663864 0
0.0224084 0.00643275 0
0.0237018 0.00616676 0
0.0250249 0.00584739 0
0.026375 0.00547298 0
0.0277479 0.00503752 0
0.0291386 0.00453545 0
0.0305433 0.0039653 0
0.0319572 0.0033256 0
0.0333681 0.00260019 0
0.034775 0.00179799 0
0.0361793 0.000930615 0
0.0375798 3.12222e-06 0
0.0389689 -0.000988429 0
0.0403357 -0.00205109 0
0.041675 -0.00318283 0
0.0429849 -0.00437751 0
0.0442643 -0.00562904 0
0.0455126 -0.00693089 0
0.0467314 -0.00827518 0
0.0479204 -0.00965638 0
0.0490661 -0.0110799 0
0.0501515 -0.0125519 0
0.0511696 -0.0140695 0
0.0521492 -0.0156071 0
0.0531202 -0.0171411 0
0.0540851 -0.0186663 0
0.0550431 -0.0201798 0
0.0559923 -0.0216793 0
0.0569311 -0.0231626 0
0.0578582 -0.0246273 0
0.0587723 -0.0260715 0
0.0596721 -0.027493 0
0.0605563 -0.02889 0
0.0614241 -0.0302609 0
0.0622742 -0.0316042 0
0.063106 -0.0329183 0
0.0639186 -0.034202 0
0.0647113 -0.0354543 0
0.0654835 -0.0366743 0
0.0662345 -0.0378613 0
0.0669642 -0.0390145 0
0.0676726 -0.0401333 0
0.0683597 -0.0412172 0
0.0690246 -0.0422665 0
0.0696662 -0.0432819 0
0.0702841 -0.0442636 0
0.0708793 -0.0452111 0
0.0714538 -0.0461237 0
0.072009 -0.047001 0
0.0725452 -0.0478434 0
0.0730611 -0.0486524 0
0.073556 -0.0494294 0
0.0740291 -0.0501756 0
0.0744812 -0.0508916 0
0.0749138 -0.0515773 0
0.0753285 -0.0522331 0
0.0757266 -0.0528592 0
0.076109 -0.0534564 0
0.0764753 -0.0540264 0
0.0768243 -0.054571 0
0.0771553 -0.0550919 0
0.0774679 -0.0555901 0
0.0777617 -0.0560669 0
0.0780369 -0.056523 0
0.0782958 -0.0569578 0
0.0785421 -0.0573703 0
0.0787786 -0.0577603 0
0.0790073 -0.0581279 0
0.0792295 -0.058474 0
0.0794462 -0.0587995 0
0.0798803 -0.0594162 0
0.0800272 -0.0596588 0
0.0800357 -0.0598891 0
0.0799275 -0.0600784 0
0.0797205 -0.0601773 0
0.0794593 -0.0601051 0
0.0789155 -0.0596491 0
0.0786707 -0.0593963 0
0.0784111 -0.0591319 0
0.0781372 -0.0588542 0
0.0778566 -0.0585548 0
0.0775715 -0.0582308 0
0.0772803 -0.0578828 0
0.0769832 -0.0575099 0
0.0766822 -0.0571097 0
0.0763801 -0.0566796 0
0.0760759 -0.0562196 0
0.0757623 -0.0557337 0
0.0754359 -0.0552232 0
0.0750951 -0.0546879 0
0.0747379 -0.054128 0
0.0743626 -0.0535435 0
0.0739688 -0.0529338 0
0.0735559 -0.0522981 0
0.0731238 -0.0516357 0
0.0726718 -0.050946 0
0.0721991 -0.0502288 0
0.0717046 -0.049484 0
0.0711872 -0.0487117 0
0.0706461 -0.047912 0
0.0700804 -0.0470849 0
0.0694892 -0.0462308 0
0.0688718 -0.0453499 0
0.0682271 -0.0444431 0
0.0675544 -0.043511 0
0.0668527 -0.0425546 0
0.0661215 -0.0415748 0
0.06536 -0.040573 0
0.0645676 -0.0395504 0
0.0637439 -0.0385087 0
0.0628887 -0.0374493 0
0.062002 -0.0363741 0
0.0610838 -0.0352847 0
0.0601345 -0.0341831 0
0.0591547 -0.033071 0
0.0581456 -0.0319502 0
0.0571083 -0.0308224 0
0.0560444 -0.0296893 0
0.0549562 -0.028552 0
0.053845 -0.0274126 0
0.0527113 -0.0262746 0
0.051554 -0.0251427 0
0.0503724 -0.0240222 0
0.0491675 -0.0229164 0
0.047941 -0.0218282 0
0.0466955 -0.0207597 0
0.0454337 -0.0197126 0
0.0441592 -0.0186878 0
0.0428751 -0.0176863 0
0.0415841 -0.0167097 0
0.0402878 -0.0157609 0
0.0389879 -0.0148428 0
0.0376864 -0.0139575 0
0.0363853 -0.013107 0
0.0350871 -0.0122931 0
0.0337942 -0.0115164 0
0.0325095 -0.0107772 0
0.0312357 -0.0100756 0
0.0299758 -0.00941024 0
0.0287337 -0.00877784 0
0.0275126 -0.00817571 0
0.0263139 -0.00760375 0
0.0251376 -0.00706528 0
0.0239829 -0.0065649 0
0.0228537 -0.00609619 0
0.0217522 -0.00565563 0
0.0206795 -0.00524226 0
0.0196364 -0.00485507 0
0.0186233 -0.00449318 0
0.0176408 -0.00415577 0
0.016689 -0.00384204 0
0.0157682 -0.00355115 0
0.0148783 -0.00328218 0
0.0140192 -0.00303468 0
0.0131906 -0.00280795 0
0.0123925 -0.00260016 0
0.0116246 -0.00241012 0
0.0108864 -0.00223769 0
0.0101774 -0.00208212 0
0.00949701 -0.00194206 0
0.00884483 -0.0018163 0
0.0082202 -0.0017039 0
0.00762247 -0.00160391 0
0.00705097 -0.00151528 0
0.006505 -0.00143697 0
0.0059838 -0.00136806 0
0.00548662 -0.00130772 0
0.00501265 -0.00125519 0
0.00456114 -0.00120954 0
0.00413136 -0.00116914 0
0.00372257 -0.00113251 0
0.00333398 -0.00109853 0
0.00296466 -0.00106798 0
0.00261363 -0.0010431 0
-0.052721 -0.0445996 0
-0.0508204 -0.0440823 0
-0.0489199 -0.0435651 0
-0.0470193 -0.0430478 0
-0.0451187 -0.0425306 0
-0.0432181 -0.0420134 0
-0.0413175 -0.0414961 0
-0.039417 -0.0409789 0
-0.0375164 -0.0404616 0
-0.0356158 -0.0399444 0
-0.0337152 -0.0394271 0
-0.0318146 -0.0389099 0
-0.0299141 -0.0383927 0
-0.0280135 -0.0378754 0
-0.0261129 -0.0373582 0
-0.0242123 -0.0368409 0
-0.0223117 -0.0363237 0
-0.0204112 -0.0358065 0
-0.0185106 -0.0352892 0
-0.01661 -0.034772 0
-0.0147094 -0.0342547 0
-0.0128088 -0.0337375 0
-0.0109083 -0.0332202 0
-0.00900769 -0.032703 0
-0.00710711 -0.0321858 0
-0.00520653 -0.0316685 0
-0.00330595 -0.0311513 0
-0.00140537 -0.030634 0
0.00190689 -0.0299614 0
0.00332271 -0.0298498 0
0.00474133 -0.0297825 0
0.00616136 -0.0297597 0
0.0075814 -0.0297814 0
0.00900007 -0.0298477 0
0.010416 -0.0299583 0
0.0118278 -0.0301127 0
0.0132342 -0.0303103 0
0.0146339 -0.0305504 0
0.0160259 -0.0308322 0
0.0174091 -0.0311546 0
0.0187824 -0.0315166 0
0.020145 -0.031917 0
0.0214961 -0.0323546 0
0.0228351 -0.032828 0
0.0241613 -0.0333361 0
0.0254744 -0.0338774 0
0.0267738 -0.0344507 0
0.0280592 -0.0350545 0
0.0293306 -0.0356877 0
0.0305875 -0.0363488 0
0.0318301 -0.0370367 0
0.0330581 -0.0377501 0
0.0342717 -0.0384879 0
0.0354708 -0.0392489 0
0.0366556 -0.0400321 0
0.0378262 -0.0408363 0
0.0389828 -0.0416607 0
0.0401254 -0.0425042 0
0.0412543 -0.0433659 0
0.0423698 -0.0442451 0
0.043472 -0.0451408 0
0.0445612 -0.0460523 0
0.0456375 -0.0469789 0
0.0467013 -0.0479199 0
0.0477529 -0.0488746 0
0.0487923 -0.0498424 0
0.04982 -0.0508227 0
0.0508362 -0.051815 0
0.051841 -0.0528187 0
0.0528348 -0.0538333 0
0.0538178 -0.0548584 0
0.0547903 -0.0558935 0
0.0557524 -0.0569382 0
0.0567045 -0.0579922 0
0.0576467 -0.0590549 0
0.0585792 -0.0601261 0
0.0595024 -0.0612055 0
0.0604163 -0.0622926 0
0.0613212 -0.0633873 0
0.0622174 -0.0644891 0
0.0631049 -0.0655979 0
0.0639841 -0.0667134 0
0.064855 -0.0678353 0
0.0657179 -0.0689633 0
0.0665729 -0.0700974 0
0.0674202 -0.0712372 0
0.06826 -0.0723826 0
0.0690925 -0.0735333 0
0.0699178 -0.0746892 0
0.070736 -0.0758501 0
0.0715473 -0.0770159 0
0.0723518 -0.0781863 0
0.0731498 -0.0793612 0
0.0739412 -0.0805405 0
0.0747264 -0.081724 0
0.0755053 -0.0829116 0
0.0762781 -0.0841033 0
0.0770449 -0.0852987 0
0.0778059 -0.0864979 0
0.0785611 -0.0877007 0
0.0793108 -0.088907 0
0.0814681 -0.0912706 0
0.0828814 -0.0924245 0
0.0842946 -0.0935783 0
0.0857079 -0.0947322 0
0.0871211 -0.095886 0
0.0885344 -0.0970399 0
0.0899476 -0.0981937 0
0.0913609 -0.0993476 0
0.0927741 -0.100501 0
0.0941874 -0.101655 0
0.0956006 -0.102809 0
0.0970139 -0.103963 0
0.0984272 -0.105117 0
0.0998404 -0.106271 0
0.101254 -0.107424 0
0.102667 -0.108578 0
0.10408 -0.109732 0
0.105493 -0.110886 0
0.106907 -0.11204 0
0.10832 -0.113194 0
0.109733 -0.114348 0
0.111146 -0.115501 0
0.11256 -0.116655 0
0.113973 -0.117809 0
0.115386 -0.118963 0
0.116799 -0.120117 0
0.118213 -0.121271 0
0.119626 -0.122424 0
0.121039 -0.123578 0
0.122452 -0.124732 0
0.123866 -0.125886 0
0.125279 -0.12704 0
0.126692 -0.128194 0
0.128105 -0.129348 0
0.129519 -0.130501 0
0.130932 -0.131655 0
0.132345 -0.132809 0
0.133758 -0.133963 0
0.135172 -0.133216 0
0.135172 -0.131316 0
0.135172 -0.129415 0
0.135172 -0.127514 0
0.135172 -0.125614 0
0.135172 -0.123713 0
0.135172 -0.121813 0
0.135172 -0.119912 0
0.135172 -0.118012 0
0.135172 -0.116111 0
0.135172 -0.11421 0
0.135172 -0.11231 0
0.135172 -0.110409 0
0.135172 -0.108509 0
0.135172 -0.106608 0
0.135172 -0.104708 0
0.135172 -0.102807 0
0.135172 -0.100906 0
0.135172 -0.0990058 0
0.135172 -0.0971052 0
0.135172 -0.0952046 0
0.135172 -0.0933041 0
0.135172 -0.0914035 0
0.135172 -0.0895029 0
0.135172 -0.0876023 0
0.135172 -0.0857017 0
0.135172 -0.0838012 0
0.135172 -0.0819006 0
0.133758 -0.0788462 0
0.132345 -0.0776923 0
0.130932 -0.0765385 0
0.129519 -0.0753846 0
0.128105 -0.0742308 0
0.126692 -0.0730769 0
0.125279 -0.0719231 0
0.123866 -0.0707692 0
0.122452 -0.0696154 0
0.121039 -0.0684615 0
0.119626 -0.0673077 0
0.118213 -0.0661538 0
0.116799 -0.065 0
0.115386 -0.0638462 0
0.113973 -0.0626923 0
0.11256 -0.0615385 0
0.111146 -0.0603846 0
0.109733 -0.0592308 0
0.10832 -0.0580769 0
0.106907 -0.0569231 0
0.105493 -0.0557692 0
0.10408 -0.0546154 0
0.102667 -0.0534615 0
0.101254 -0.0523077 0
0.0998404 -0.0511538 0
0.0984272 -0.05 0
0.0970139 -0.0488462 0
0.0956006 -0.0476923 0
[...]
CELL_DATA 13116
SCALARS rho float
LOOKUP_TABLE default
0.474433
0.589918
0.311847
0.60886
0.607701
0.564159
0.3559
0.61886
0.443327
0.607635
0.34856
0.361036
0.607959
0.368456
0.349392
0.572938
0.455836
0.596517
0.623333
0.339263
0.475095
0.325188
0.345682
0.599228
0.516696
0.609593
0.60757
0.304487
0.511146
0.551832
0.543548
0.345656
0.468639
0.369684
0.355076
0.475445
0.572796
0.613452
0.540741
0.622404
0.616125
0.617625
0.356576
0.328423
0.622068
0.622989
0.58505
0.621163
0.342835
0.436553
0.617181
0.366834
0.369204
0.449773
0.467597
0.496594
0.332852
0.597522
0.448599
0.351035
0.366873
0.60923
0.587247
0.539588
0.543428
0.371589
0.62736
0.575219
0.625017
0.542582
0.347858
0.49391
0.319528
0.354122
0.547619
0.339272
0.565262
0.610895
0.353314
0.593196
0.584619
0.606207
0.600109
0.616369
0.612898
0.363114
0.369396
0.569715
0.612938
0.335773
0.346497
0.591248
0.602515
0.616807
0.556953
0.511107
0.51868
0.546119
0.546287
0.505299
0.576114
0.544264
0.622841
0.346074
0.582634
0.361432
0.291606
0.397812
0.320141
0.520151
0.425677
0.598487
0.50891
0.585697
0.593878
0.627796
0.376397
0.321243
0.613123
0.625431
0.574776
0.313454
0.624377
0.346249
0.615927
0.363264
0.371479
0.422948
0.32661
0.437874
0.613411
0.601385
0.41467
0.335994
0.395602
0.510601
0.555644
0.621416
0.575214
0.62541
0.55314
0.586993
0.421904
0.555078
0.576579
0.360472
0.354453
0.603631
0.605342
0.619672
0.453941
0.617043
0.622063
0.346831
0.605806
0.614651
0.33603
0.581354
0.545491
0.569375
0.598545
0.349426
0.600062
0.334224
0.30723
0.610674
0.614111
0.595989
0.355569
0.378378
0.344842
0.555239
0.35297
0.407618
0.628968
0.345855
0.337975
0.322247
0.596329
0.558063
0.328604
0.356747
0.44654
0.57225
0.56368
0.446911
0.348289
0.621658
0.581423
0.379213
0.554175
0.602547
0.54154
0.329213
0.596603
0.559384
0.604629
0.623679
0.612005
0.310256
0.345799
0.525182
0.418006
0.357428
0.604
0.612977
0.375029
0.519752
0.358988
0.337597
0.338335
0.61531
0.331576
0.321252
0.334796
0.346123
0.300837
0.539688
0.615061
0.351886
0.337256
0.626967
0.419978
0.327872
0.464241
0.608409
0.574772
0.305407
0.628525
0.316717
0.620648
0.345189
0.540597
0.483972
0.547134
0.619022
0.541315
0.351534
0.359356
0.568459
0.548734
0.555404
0.55449
0.539585
0.620399
0.337616
0.618701
0.606791
0.546142
0.349687
0.342205
0.615832
0.614428
0.541607
0.612514
0.464027
0.585426
0.348012
0.362853
0.312785
0.359679
0.57369
0.604387
0.564747
0.361546
0.621604
0.365677
0.353909
0.583671
0.345073
0.607047
0.616018
0.550177
0.597359
0.35154
0.550471
0.588645
0.545957
0.621379
0.349909
0.364611
0.330324
0.507065
0.315898
0.331352
0.270781
0.342345
0.606093
0.367797
0.615179
0.610395
0.353149
0.333532
0.364157
0.371651
0.302822
0.568865
0.529042
0.591784
0.343951
0.617243
0.493344
0.369623
0.349414
0.543649
0.615178
0.621714
0.347857
0.566978
0.352619
0.601678
0.616645
0.620413
0.616735
0.329333
0.627907
0.361991
0.604103
0.608348
0.567429
0.334493
0.270608
0.607416
0.368736
0.597005
0.609416
0.284313
0.586235
0.599777
0.364334
0.621098
0.602363
0.367305
0.614342
0.362541
0.482254
0.622102
0.368996
0.581857
0.361673
0.597069
0.279309
0.539009
0.55319
0.605638
0.309944
0.292667
0.61405
0.347649
0.605486
0.585893
0.350395
0.555155
0.346449
0.32235
0.608498
0.465014
0.575059
0.366802
0.333645
0.61907
0.610131
0.352646
0.613352
0.374602
0.361637
0.626856
0.621425
0.393925
0.335696
0.619646
0.542976
0.572229
0.619461
0.600177
0.45453
0.282384
0.359489
0.328526
0.564496
0.327622
0.445068
0.286423
0.326149
0.288261
0.402145
0.114556
0.346939
0.614003
0.358876
0.600847
0.511524
0.623704
0.562433
0.61726
0.321732
0.365149
0.316584
0.30217
0.605491
0.505469
0.622432
0.511974
0.577145
0.530706
0.604971
0.542436
0.549737
0.600235
0.592463
0.549563
0.318798
0.381331
0.471291
0.327662
0.526497
0.495512
0.370489
0.628233
0.549769
0.330209
0.333519
0.334478
0.346979
0.532751
0.353065
0.329593
0.624489
0.368012
0.484221
0.333681
0.578278
0.588614
0.298641
0.333828
0.607781
0.372294
0.331884
0.347696
0.332179
0.319359
0.361468
0.332411
0.322269
0.354155
0.342296
0.542344
0.296468
0.613873
0.287929
0.342684
0.416796
0.360471
0.337082
0.358398
0.623632
0.36007
0.542429
0.403729
0.369961
0.52217
0.613923
0.36224
0.585745
0.53347
0.533276
0.357977
0.546577
0.321498
0.599554
0.544127
0.320429
0.364167
0.57955
0.298684
0.3701
0.555476
0.292507
0.580393
0.580344
0.334266
0.338037
0.355233
0.403757
0.350018
0.369244
0.350868
0.362746
0.611247
0.6098
0.376823
0.507977
0.395225
0.594351
0.290538
0.349288
0.447073
0.319452
0.608115
0.245497
0.304316
0.410516
0.620804
0.612184
0.471024
0.281819
0.363556
0.47781
0.618444
0.540991
0.474671
0.580639
0.572054
0.340348
0.587849
0.480085
0.567194
0.326669
0.302819
0.584908
0.604569
0.561199
0.608368
0.607429
0.612113
0.597403
0.566658
0.623582
0.324748
0.620488
0.27645
0.35789
0.316435
0.608224
0.614384
0.277517
0.612457
0.525187
0.330944
0.540465
0.615734
0.596607
0.304638
0.349219
0.60935
0.331665
0.324193
0.361789
0.338638
0.605308
0.36795
0.607798
0.297405
0.588919
0.617472
0.626274
0.60937
0.331081
0.329312
0.612564
0.620399
0.569256
0.611173
0.606483
0.411009
0.363006
0.316874
0.601307
0.443752
0.332012
0.372448
0.331077
0.619972
0.625321
0.331189
0.323786
0.611998
0.378073
0.614457
0.558978
0.328436
0.318004
0.566796
0.549543
0.328479
0.610988
0.614305
0.613112
0.34385
0.554267
0.338475
0.54771
0.566177
0.335514
0.301031
0.329046
0.547333
0.317978
0.359147
0.321159
0.540211
0.598396
0.35755
0.360745
0.336539
0.540236
0.318886
0.561514
0.361805
0.497113
0.608337
0.290589
0.334902
0.341195
0.411477
0.316552
0.610283
0.346676
0.348185
0.557871
0.359587
0.613166
0.593751
0.546907
0.317
0.608865
0.60218
0.604422
0.605952
0.620019
0.627351
0.352785
0.541423
0.353829
0.60581
0.350766
0.620061
0.422006
0.357482
0.543731
0.603337
0.349217
0.5427
0.345767
0.348781
0.621543
0.623429
0.337097
0.357683
0.355237
0.352689
0.62007
0.599317
0.344792
0.33839
0.604876
0.622575
0.499009
0.6019
0.622462
0.348848
0.605833
0.350792
0.617176
0.323029
0.506803
0.396911
0.627641
0.576158
0.486933
0.283429
0.311503
0.625851
0.511055
0.451034
0.601422
0.360429
0.589412
0.605434
0.296442
0.379109
0.602904
0.286303
0.542728
0.569246
0.266825
0.623297
0.555399
0.310735
0.596256
0.330605
0.60935
0.331696
0.611927
0.5865
0.314588
0.540835
0.60052
0.607722
0.526477
0.592101
0.492048
0.328438
0.353034
0.297345
0.360941
0.557127
0.46709
0.624071
0.605063
0.321254
0.312081
0.595545
0.608601
0.607225
0.616463
0.338785
0.592465
0.606938
0.333783
0.292604
0.612401
0.616778
0.611061
0.355607
0.498469
0.295728
0.594802
0.594523
0.540372
0.598178
0.335689
0.600301
0.614762
0.601496
0.621911
0.606252
0.349593
0.600183
0.337222
0.565073
0.607338
0.377851
0.580676
0.540151
0.617893
0.348805
0.33766
0.493412
0.55482
0.328335
0.336818
0.345404
0.34251
0.588787
0.589025
0.540216
0.341943
0.344671
0.624923
0.580753
0.368367
0.313415
0.380233
0.575071
0.625085
0.618611
0.593222
0.336555
0.328851
0.553119
0.345157
0.319855
0.344954
0.599835
0.295363
0.335782
0.489838
0.609342
0.595455
0.546361
0.614815
0.375994
0.355589
0.344038
0.406764
0.359531
0.34503
0.574527
0.591974
0.605602
0.622373
0.351123
0.315064
0.608162
0.318307
0.601478
0.586888
0.54432
0.337058
0.331608
0.606052
0.5436
0.490584
0.367903
0.614553
0.550073
0.486239
0.619706
0.617963
0.551921
0.579512
0.337378
0.612051
0.54259
0.54648
0.594324
0.55699
0.598827
0.552085
0.621719
0.349185
0.341079
0.316396
0.543384
0.421809
0.321022
0.596123
0.604262
0.360547
0.548165
0.295365
0.554843
0.397323
0.348516
0.608808
0.598542
0.331979
0.462617
0.542951
0.34019
0.616756
0.372162
0.361183
0.527466
0.515711
0.416636
0.623668
0.346039
0.6001
0.340998
0.3526
0.609246
0.333869
0.51472
0.33347
0.548451
0.507901
0.55232
0.612895
0.35784
0.347915
0.554331
0.359559
0.606584
0.377726
0.504578
0.568217
0.601162
0.37027
0.517819
0.596181
0.604985
0.627344
0.28175
0.330967
0.453784
0.596749
0.605297
0.298974
0.622534
0.49197
0.316202
0.335353
0.568798
0.575109
0.553671
0.547809
0.554926
0.587828
0.541686
0.579403
0.341038
0.56028
0.378143
0.622256
0.616966
0.349299
0.62297
0.60881
0.335182
0.352155
0.368191
0.556816
0.350714
0.526419
0.59809
0.561067
0.36357
0.610777
0.36054
0.498279
0.54014
0.540381
0.573131
0.540473
0.525657
0.58378
0.44103
0.605754
0.330641
0.595368
0.625632
0.343904
0.550885
0.59108
0.328556
0.358671
0.334002
0.62015
0.336535
0.550941
0.344212
0.619267
0.363555
0.397466
0.351278
0.598949
0.61595
0.462398
0.316967
0.526206
0.541607
0.334754
0.498391
0.609402
0.344691
0.498793
0.544759
0.608304
0.609063
0.320371
0.395126
0.606612
0.623461
0.565469
0.33733
0.333614
0.615776
0.554087
0.549487
0.554797
0.46848
0.6015
0.463672
0.623687
0.338538
0.356595
0.554436
0.607379
0.541456
0.370362
0.600707
0.477969
0.516884
0.328249
0.339708
0.612937
0.613758
0.468155
0.288385
0.623264
0.549949
0.355608
0.51766
0.593006
0.354512
0.340868
0.360424
0.585642
0.32086
0.323201
0.619599
0.384194
0.605649
0.553053
0.35645
0.36075
0.612122
0.337167
0.352137
0.543578
0.362983
0.290746
0.502184
0.619737
0.606951
0.344425
0.291813
0.349076
0.594183
0.361307
0.607717
0.356028
0.59774
0.615648
0.620813
0.586365
0.597367
0.593359
0.622361
0.609289
0.609884
0.368113
0.340659
0.592009
0.541874
0.42217
0.588334
0.470815
0.541096
0.545611
0.299428
0.626804
0.609268
0.607809
0.350179
0.600041
0.301813
0.615102
0.413885
0.59405
0.611834
0.347317
0.604144
0.335555
0.360905
0.586836
0.341469
0.581724
0.556905
0.620903
0.347121
0.62258
0.340737
0.343423
0.324849
0.333895
0.544389
0.352891
0.554431
0.539531
0.292254
0.32843
0.404642
0.49057
0.540642
0.571202
0.316685
0.373168
0.35248
0.351981
0.325396
0.541724
0.601986
0.300734
0.539738
0.597953
0.360999
0.608786
0.579848
0.540034
0.345475
0.548267
0.59109
0.601152
0.62153
0.348542
0.60616
0.603299
0.600372
0.568838
0.55374
0.332447
0.324618
0.618498
0.45181
0.33248
0.605361
0.338737
0.482033
0.539596
0.607996
0.610175
0.343664
0.587146
0.311528
0.349476
0.587693
0.60706
0.603814
0.618226
0.567406
0.344901
0.608591
0.353232
0.421148
0.610804
0.546342
0.606679
0.349102
0.366973
0.607258
0.357633
0.609432
0.551363
0.354711
0.326292
0.625699
0.335054
0.611326
0.608874
0.568674
0.334279
0.340289
0.41911
0.435523
0.531369
0.390035
0.568149
0.572719
0.615772
0.557643
0.597366
0.363516
0.324919
0.610535
0.553221
0.561348
0.378001
0.359026
0.585651
0.355681
0.623876
0.521824
0.286243
0.605068
0.34594
0.616573
0.310172
0.605488
0.351401
0.611624
0.55308
0.355503
0.616389
0.554531
0.346786
0.539655
0.624425
0.469536
0.361179
0.291846
0.384269
0.602696
0.560373
0.308221
0.494476
0.598573
0.553538
0.363971
0.526421
0.601958
0.377779
0.56674
0.605584
0.348059
0.613016
0.545583
0.313464
0.510752
0.345433
0.555036
0.346397
0.361164
0.604133
0.328375
0.336079
0.35856
0.626614
0.595602
0.326325
0.62408
0.292292
0.580014
0.338573
0.59673
0.287851
0.572474
0.618749
0.563157
0.539591
0.465816
0.549402
0.539283
0.308538
0.541982
0.565391
0.420426
0.597219
0.410607
0.342951
0.60844
0.333567
0.483103
0.295018
0.621805
0.369366
0.330083
0.598419
0.618855
0.331389
0.623313
0.591583
0.556941
0.616999
0.547998
0.334995
0.60868
0.322953
0.332618
0.614646
0.594509
0.618084
0.613746
0.34588
0.347286
0.350414
0.592363
0.539319
0.291808
0.621087
0.374315
0.346659
0.338569
0.614038
0.322586
0.608903
0.609137
0.540598
0.622586
0.609975
0.488219
0.561694
0.357525
0.32617
0.329147
0.548099
0.548789
0.36857
0.541537
0.583996
0.561055
0.32157
0.348278
0.574928
0.232645
0.569146
0.531583
0.31838
0.541085
0.590115
0.317569
0.607062
0.353595
0.624875
0.606681
0.598326
0.355414
0.387857
0.580673
0.283502
0.362764
0.623754
0.294258
0.542841
0.627102
0.605966
0.591639
0.274485
0.544457
0.587155
0.623523
0.297563
0.616298
0.334143
0.365454
0.611897
0.624259
0.538897
0.197261
0.613048
0.540835
0.547762
0.373401
0.375249
0.331224
0.620819
0.353327
0.358234
0.31215
0.530203
0.354835
0.347792
0.362385
0.608692
0.317132
0.539545
0.539447
0.623565
0.346781
0.616714
0.559686
0.539567
0.341049
0.567147
0.353568
0.33354
0.6206
0.334011
0.54072
0.596353
0.552856
0.317088
0.269817
0.349062
0.473647
0.55466
0.194463
0.61357
0.625371
0.593156
0.337793
0.35398
0.282627
0.564797
0.330556
0.557629
0.514869
0.539881
0.616662
0.350621
0.543539
0.350947
0.522051
0.552908
0.608531
0.512348
0.418998
0.568005
0.564231
0.610764
0.343329
0.284434
0.361563
0.593425
0.448833
0.546333
0.31537
0.33021
0.599312
0.615929
0.541287
0.330717
0.622937
0.472201
0.475313
0.562259
0.318756
0.32827
0.343758
0.626297
0.540048
0.567533
0.592899
0.281261
0.621259
0.562066
0.540137
0.539645
0.620853
0.609233
0.555434
0.594661
0.602945
0.317304
0.619266
0.617752
0.575938
0.615564
0.625172
0.506182
0.327252
0.361639
0.551489
0.333672
0.282374
0.622206
0.349797
0.542951
0.625759
0.590321
0.608666
0.327229
0.62187
0.320138
0.364851
0.560192
0.602403
0.623603
0.346673
0.614649
0.623717
0.556011
0.618573
0.329892
0.564142
0.607429
0.587977
0.311682
0.596862
0.346482
0.609961
0.341429
0.323821
0.460419
0.371137
0.608691
0.598808
0.602648
0.314591
0.559118
0.327973
0.350847
0.607291
0.407777
0.336277
0.618051
0.360566
0.430357
0.572602
0.580521
0.607983
0.407234
0.506211
0.562805
0.592827
0.50512
0.604128
0.450652
0.623364
0.591363
0.555499
0.353891
0.353225
0.369808
0.618016
0.328474
0.567989
0.622781
0.515771
0.599157
0.44996
0.581928
0.580659
0.346401
0.623903
0.583793
0.427677
0.584547
0.607888
0.610606
0.544265
0.336364
0.347493
0.604982
0.452272
0.467059
0.622658
0.614382
0.623977
0.604696
0.606204
0.532533
0.572245
0.608361
0.357623
0.366059
0.369296
0.291091
0.550477
0.379868
0.460514
0.605211
0.584504
0.326182
0.608481
0.607853
0.349067
0.309001
0.550009
0.619466
0.316352
0.358067
0.360543
0.557697
0.608692
0.31526
0.362852
0.323102
0.362098
0.299393
0.334731
0.621656
0.619582
0.593296
0.343798
0.591379
0.52279
0.519153
0.326416
0.337538
0.60681
0.555096
0.33428
0.569435
0.316679
0.59839
0.318834
0.623058
0.345212
0.606106
0.612918
0.34714
0.476836
0.337505
0.608849
0.365006
0.527254
0.342855
0.423749
0.353214
0.5201
0.33371
0.540113
0.541355
0.517624
0.596755
0.325533
0.597743
0.541725
0.613789
0.520142
0.580353
0.3366
0.345879
0.36749
0.602543
0.242053
0.60861
0.461673
0.594045
0.608439
0.391109
0.600572
0.349691
0.369046
0.356267
0.427264
0.462074
0.613206
0.343158
0.332775
0.600577
0.310489
0.33869
0.490617
0.307157
0.333647
0.361741
0.617698
0.558058
0.531059
0.347538
0.595071
0.62631
0.346729
0.2653
0.614893
0.608082
0.521888
0.433795
0.337071
0.296479
0.346767
0.619761
0.551579
0.441489
0.585825
0.356604
0.485875
0.34904
0.543493
0.609924
0.331029
0.357644
0.556739
0.485333
0.610096
0.603268
0.603575
0.621841
0.610056
0.344875
0.325951
0.356086
0.349618
0.46905
0.544181
0.559492
0.344564
0.31531
0.374908
0.341355
0.624499
0.578751
0.337507
0.333452
0.625846
0.329028
0.562171
0.600637
0.59619
0.553385
0.47681
0.321606
0.351913
0.569785
0.328271
0.357551
0.320239
0.542366
0.626067
0.363608
0.322308
0.555175
0.334799
0.626975
0.602647
0.312852
0.33447
0.3662
0.624483
0.374979
0.55703
0.593755
0.51743
0.35731
0.447547
0.609601
0.612022
0.356626
0.607114
0.551812
0.359466
0.611657
0.620182
0.349285
0.327991
0.605597
0.339452
0.349026
0.600708
0.283355
0.61901
0.581822
0.601463
0.553445
0.607162
0.627627
0.544284
0.351949
0.335645
0.565762
0.604699
0.387588
0.608769
0.302287
0.622273
0.609205
0.484465
0.557201
0.345898
0.377096
0.609278
0.60645
0.589545
0.613418
0.62295
0.552104
0.61808
0.556176
0.619653
0.608517
0.620379
0.554416
0.549474
0.276775
0.607255
0.30946
0.626089
0.619886
0.596885
0.591766
0.590548
0.336766
0.347928
0.275888
0.354551
0.593354
0.343763
0.346545
0.586352
0.355523
0.594041
0.346805
0.602232
0.606924
0.326818
0.313644
0.284152
0.619696
0.34142
0.613226
0.603492
0.348555
0.605564
0.471496
0.271679
0.309539
0.34714
0.589227
0.327735
0.623931
0.447039
0.334301
0.625544
0.6175
0.603356
0.318123
0.491828
0.344811
0.592447
0.547655
0.627967
0.336045
0.603696
0.622014
0.592924
0.339788
0.61946
0.320339
0.340193
0.619838
0.375576
0.606992
0.343801
0.33494
0.365622
0.594766
0.316058
0.309216
0.327125
0.40628
0.546908
0.60575
0.368339
0.517236
0.625436
0.474494
0.354206
0.286875
0.473563
0.329477
0.343256
0.617654
0.340642
0.325917
0.619462
0.610825
0.345038
0.595045
0.344531
0.550799
0.300605
0.609065
0.542049
0.591794
0.541371
0.335342
0.34588
0.335921
0.555657
0.607628
0.504114
0.458036
0.305297
0.252158
0.583624
0.351193
0.619158
0.314205
0.540635
0.576494
0.349233
0.323923
0.337242
0.322731
0.31925
0.557574
0.59314
0.344704
0.616745
0.548719
0.332527
0.353869
0.609094
0.336387
0.609457
0.351541
0.592044
0.562028
0.617464
0.546382
0.348121
0.606286
0.625538
0.61708
0.330779
0.561789
0.510541
0.28606
0.618755
0.561937
0.62429
0.597146
0.609736
0.618763
0.616369
0.584804
0.624093
0.321965
0.601968
0.337462
0.382032
0.623464
0.337397
0.608888
0.572955
0.336587
0.592115
0.329439
0.347209
0.61597
0.561754
0.611059
0.342203
0.597759
0.528859
0.300845
0.343389
0.613665
0.625629
0.311841
0.322059
0.596816
0.609901
0.327002
0.552518
0.611572
0.560002
0.360991
0.31973
0.343772
0.562922
0.348663
0.607047
0.593105
0.591531
0.525055
0.609274
0.341286
0.611496
0.526083
0.61283
0.510778
0.324993
0.353357
0.359829
0.59935
0.605272
0.349199
0.560333
0.291454
0.564855
0.625987
0.360229
0.549643
0.607852
0.535818
0.345293
0.364341
0.290321
0.609042
0.607019
0.526891
0.433264
0.613857
0.331974
0.543879
0.549218
0.60307
0.346063
0.534675
0.335459
0.580606
0.360696
0.610676
0.61618
0.349179
0.611093
0.360299
0.55477
0.553948
0.557651
0.620754
0.352377
0.577378
0.618877
0.627457
0.611309
0.401703
0.549451
0.36758
0.622566
0.359135
0.324568
0.356229
0.321087
0.329347
0.345406
0.611384
0.298995
0.356728
0.567969
0.610975
0.594931
0.320507
0.587949
0.584978
0.549148
0.337085
0.516069
0.628154
0.310305
0.316726
0.344616
0.540185
0.427452
0.312346
0.514972
0.349584
0.547078
0.420995
0.37248
0.39322
0.557865
0.291106
0.626567
0.35671
0.410847
0.310366
0.619955
0.321064
0.566346
0.548829
0.576209
0.351785
0.335884
0.619813
0.609682
0.317431
0.343334
0.560915
0.323524
0.596337
0.343497
0.474783
0.360185
0.627433
0.323945
0.610831
0.324911
0.625693
0.611561
0.60753
0.550867
0.366798
0.336041
0.316574
0.61087
0.585656
0.593983
0.466309
0.333036
0.599576
0.287419
0.606044
0.549623
0.3427
0.328976
0.601152
0.612461
0.346377
0.542605
0.621398
0.602385
0.601519
0.35614
0.545816
0.335975
0.603251
0.351384
0.539279
0.604691
0.620471
0.61196
0.333613
0.610992
0.328481
0.347934
0.626057
0.550095
0.466123
0.607075
0.550301
0.336336
0.597225
0.619223
0.617429
0.341327
0.35662
0.583721
0.345243
0.621106
0.622153
0.610509
0.620208
0.239709
0.373949
0.555871
0.346285
0.610062
0.608748
0.395261
0.614824
0.344354
0.570224
0.597599
0.578444
0.616107
0.36575
0.32954
0.612449
0.60594
0.336827
0.321902
0.327607
0.336251
0.357753
0.329063
0.302145
0.332983
0.610805
0.358517
0.356561
0.596031
0.464697
0.554804
0.329053
0.316867
0.62517
0.389203
0.409562
0.605954
0.30779
0.563923
0.540294
0.520291
0.596658
0.343372
0.606396
0.540044
0.348034
0.341758
0.343177
0.571078
0.519993
0.60918
0.578359
0.603152
0.597771
0.283743
0.609906
0.541745
0.616469
0.326117
0.62699
0.531289
0.278996
0.359304
0.368467
0.349952
0.360818
0.506099
0.573591
0.5923
0.343913
0.319814
0.61241
0.359137
0.601585
0.620467
0.610039
0.578572
0.615917
0.31164
0.348116
0.354989
0.486969
0.354149
0.622589
0.357832
0.622684
0.561699
0.619422
0.293273
0.374062
0.349161
0.610907
0.327283
0.346741
0.621569
0.597233
0.543786
0.571042
0.613564
0.595949
0.328614
0.533266
0.605774
0.448594
0.6104
0.601373
0.598221
0.377914
0.352197
0.617305
0.417211
0.531721
0.336275
0.582126
0.612833
0.31138
0.347205
0.589738
0.428276
0.605907
0.601025
0.328663
0.331481
0.545335
0.328551
0.327126
0.615696
0.613505
0.333644
0.616484
0.545302
0.591854
0.332405
0.506965
0.325582
0.618749
0.610154
0.596109
0.589381
0.544867
0.344528
0.289749
0.596993
0.331095
0.519023
0.33525
0.616471
0.363708
0.558503
0.60521
0.545898
0.335448
0.557086
0.548129
0.348475
0.581233
0.352474
0.616946
0.334596
0.349041
0.362888
0.588476
0.622141
0.266784