# vtk DataFile Version 1.0
unstructured grid
ascii
DATASET UNSTRUCTURED_GRID
points 13672 float
0.0796578 -0.059106 0
0.00128732 0.00159165 0
0.00227961 -0.00102548 0
0.0791586 -0.0598787 0
-0.0546216 0.01 0
0.000495206 0.025 0
0.0800549 -0.035 0
0.135172 -0.08 0
-0.0546216 -0.0451168 0
0.000495206 -0.0301168 0
0.0800549 -0.0901168 0
0.135172 -0.135117 0
-0.0546216 -0.0451168 -0.00551168
0.000495206 -0.0301168 -0.00551168
0.0800549 -0.0901168 -0.00551168
0.135172 -0.135117 -0.00551168
0.135172 -0.08 -0.00551168
0.0800549 -0.035 -0.00551168
0.000495206 0.025 -0.00551168
-0.0546216 0.01 -0.00551168
0.00128732 0.00159165 -0.00551168
0.00227961 -0.00102548 -0.00551168
0.0791586 -0.0598787 -0.00551168
0.0796578 -0.059106 -0.00551168
0.00165953 -0.000990923 0
0.00119576 -0.000874076 0
0.000866021 -0.000641801 0
0.000645147 -0.000349912 0
0.00052235 -1.7281e-05 0
0.00049972 0.000348016 0
0.000601632 0.000737716 0
0.000861774 0.0011403 0
0.00157235 0.00183217 0
0.00188647 0.00206725 0
0.00222612 0.00230203 0
0.00258713 0.00254351 0
0.00296826 0.00279524 0
0.00337118 0.00305664 0
0.00379785 0.00332658 0
0.00425045 0.00360349 0
0.00473139 0.00388521 0
0.0052432 0.00416895 0
0.0057881 0.00445204 0
0.00636753 0.00473281 0
0.00698281 0.00500961 0
0.00763526 0.00528058 0
0.00832616 0.00554366 0
0.00905691 0.00579603 0
0.00982918 0.00603333 0
0.0106445 0.00625033 0
0.0115038 0.00644128 0
0.0124073 0.00660297 0
0.0133543 0.00673414 0
0.0143444 0.00683382 0
0.0153769 0.00690031 0
0.0164512 0.00693173 0
0.0175666 0.00692547 0
0.0187219 0.00687822 0
0.0199156 0.00678477 0
0.0211454 0.00663864 0
0.0224084 0.00643275 0
0.0237018 0.00616676 0
0.0250249 0.00584739 0
0.026375 0.00547298 0
0.0277479 0.00503752 0
0.0291386 0.00453545 0
0.0305433 0.0039653 0
0.0319572 0.0033256 0
0.0333681 0.00260019 0
0.034775 0.00179799 0
0.0361793 0.000930615 0
0.0375798 3.12222e-06 0
0.0389689 -0.000988429 0
0.0403357 -0.00205109 0
0.041675 -0.00318283 0
0.0429849 -0.00437751 0
0.0442643 -0.00562904 0
0.0455126 -0.00693089 0
0.0467314 -0.00827518 0
0.0479204 -0.00965638 0
0.0490661 -0.0110799 0
0.0501515 -0.0125519 0
0.0511696 -0.0140695 0
0.0521492 -0.0156071 0
0.0531202 -0.0171411 0
0.0540851 -0.0186663 0
0.0550431 -0.0201798 0
0.0559923 -0.0216793 0
0.0569311 -0.0231626 0
0.0578582 -0.0246273 0
0.0587723 -0.0260715 0
0.0596721 -0.027493 0
0.0605563 -0.02889 0
0.0614241 -0.0302609 0
0.0622742 -0.0316042 0
0.063106 -0.0329183 0
0.0639186 -0.034202 0
0.0647113 -0.0354543 0
0.0654835 -0.0366743 0
0.0662345 -0.0378613 0
0.0669642 -0.0390145 0
0.0676726 -0.0401333 0
0.0683597 -0.0412172 0
0.0690246 -0.0422665 0
0.0696662 -0.0432819 0
0.0702841 -0.0442636 0
0.0708793 -0.0452111 0
0.0714538 -0.0461237 0
0.072009 -0.047001 0
0.0725452 -0.0478434 0
0.0730611 -0.0486524 0
0.073556 -0.0494294 0
0.0740291 -0.0501756 0
0.0744812 -0.0508916 0
0.0749138 -0.0515773 0
0.0753285 -0.0522331 0
0.0757266 -0.0528592 0
0.076109 -0.0534564 0
0.0764753 -0.0540264 0
0.0768243 -0.054571 0
0.0771553 -0.0550919 0
0.0774679 -0.0555901 0
0.0777617 -0.0560669 0
0.0780369 -0.056523 0
0.0782958 -0.0569578 0
0.0785421 -0.0573703 0
0.0787786 -0.0577603 0
0.0790073 -0.0581279 0
0.0792295 -0.058474 0
0.0794462 -0.0587995 0
0.0798803 -0.0594162 0
0.0800272 -0.0596588 0
0.0800357 -0.0598891 0
0.0799275 -0.0600784 0
0.0797205 -0.0601773 0
0.0794593 -0.0601051 0
0.0789155 -0.0596491 0
0.0786707 -0.0593963 0
0.0784111 -0.0591319 0
0.0781372 -0.0588542 0
0.0778566 -0.0585548 0
0.0775715 -0.0582308 0
0.0772803 -0.0578828 0
0.0769832 -0.0575099 0
0.0766822 -0.0571097 0
0.0763801 -0.0566796 0
0.0760759 -0.0562196 0
0.0757623 -0.0557337 0
0.0754359 -0.0552232 0
0.0750951 -0.0546879 0
0.0747379 -0.054128 0
0.0743626 -0.0535435 0
0.0739688 -0.0529338 0
0.0735559 -0.0522981 0
0.0731238 -0.0516357 0
0.0726718 -0.050946 0
0.0721991 -0.0502288 0
0.0717046 -0.049484 0
0.0711872 -0.0487117 0
0.0706461 -0.047912 0
0.0700804 -0.0470849 0
0.0694892 -0.0462308 0
0.0688718 -0.0453499 0
0.0682271 -0.0444431 0
0.0675544 -0.043511 0
0.0668527 -0.0425546 0
0.0661215 -0.0415748 0
0.06536 -0.040573 0
0.0645676 -0.0395504 0
0.0637439 -0.0385087 0
0.0628887 -0.0374493 0
0.062002 -0.0363741 0
0.0610838 -0.0352847 0
0.0601345 -0.0341831 0
0.0591547 -0.033071 0
0.0581456 -0.0319502 0
0.0571083 -0.0308224 0
0.0560444 -0.0296893 0
0.0549562 -0.028552 0
0.053845 -0.0274126 0
0.0527113 -0.0262746 0
0.051554 -0.0251427 0
0.0503724 -0.0240222 0
0.0491675 -0.0229164 0
0.047941 -0.0218282 0
0.0466955 -0.0207597 0
0.0454337 -0.0197126 0
0.0441592 -0.0186878 0
0.0428751 -0.0176863 0
0.0415841 -0.0167097 0
0.0402878 -0.0157609 0
0.0389879 -0.0148428 0
0.0376864 -0.0139575 0
0.0363853 -0.013107 0
0.0350871 -0.0122931 0
0.0337942 -0.0115164 0
0.0325095 -0.0107772 0
0.0312357 -0.0100756 0
0.0299758 -0.00941024 0
0.0287337 -0.00877784 0
0.0275126 -0.00817571 0
0.0263139 -0.00760375 0
0.0251376 -0.00706528 0
0.0239829 -0.0065649 0
0.0228537 -0.00609619 0
0.0217522 -0.00565563 0
0.0206795 -0.00524226 0
0.0196364 -0.00485507 0
0.0186233 -0.00449318 0
0.0176408 -0.00415577 0
0.016689 -0.00384204 0
0.0157682 -0.00355115 0
0.0148783 -0.00328218 0
0.0140192 -0.00303468 0
0.0131906 -0.00280795 0
0.0123925 -0.00260016 0
0.0116246 -0.00241012 0
0.0108864 -0.00223769 0
0.0101774 -0.00208212 0
0.00949701 -0.00194206 0
0.00884483 -0.0018163 0
0.0082202 -0.0017039 0
0.00762247 -0.00160391 0
0.00705097 -0.00151528 0
0.006505 -0.00143697 0
0.0059838 -0.00136806 0
0.00548662 -0.00130772 0
0.00501265 -0.00125519 0
0.00456114 -0.00120954 0
0.00413136 -0.00116914 0
0.00372257 -0.00113251 0
0.00333398 -0.00109853 0
0.00296466 -0.00106798 0
0.00261363 -0.0010431 0
-0.052721 -0.0445996 0
-0.0508204 -0.0440823 0
-0.0489199 -0.0435651 0
-0.0470193 -0.0430478 0
-0.0451187 -0.0425306 0
-0.0432181 -0.0420134 0
-0.0413175 -0.0414961 0
-0.039417 -0.0409789 0
-0.0375164 -0.0404616 0
-0.0356158 -0.0399444 0
-0.0337152 -0.0394271 0
-0.0318146 -0.0389099 0
-0.0299141 -0.0383927 0
-0.0280135 -0.0378754 0
-0.0261129 -0.0373582 0
-0.0242123 -0.0368409 0
-0.0223117 -0.0363237 0
-0.0204112 -0.0358065 0
-0.0185106 -0.0352892 0
-0.01661 -0.034772 0
-0.0147094 -0.0342547 0
-0.0128088 -0.0337375 0
-0.0109083 -0.0332202 0
-0.00900769 -0.032703 0
-0.00710711 -0.0321858 0
-0.00520653 -0.0316685 0
-0.00330595 -0.0311513 0
-0.00140537 -0.030634 0
0.00190689 -0.0299614 0
0.00332271 -0.0298498 0
0.00474133 -0.0297825 0
0.00616136 -0.0297597 0
0.0075814 -0.0297814 0
0.00900007 -0.0298477 0
0.010416 -0.0299583 0
0.0118278 -0.0301127 0
0.0132342 -0.0303103 0
0.0146339 -0.0305504 0
0.0160259 -0.0308322 0
0.0174091 -0.0311546 0
0.0187824 -0.0315166 0
0.020145 -0.031917 0
0.0214961 -0.0323546 0
0.0228351 -0.032828 0
0.0241613 -0.0333361 0
0.0254744 -0.0338774 0
0.0267738 -0.0344507 0
0.0280592 -0.0350545 0
0.0293306 -0.0356877 0
0.0305875 -0.0363488 0
0.0318301 -0.0370367 0
0.0330581 -0.0377501 0
0.0342717 -0.0384879 0
0.0354708 -0.0392489 0
0.0366556 -0.0400321 0
0.0378262 -0.0408363 0
0.0389828 -0.0416607 0
0.0401254 -0.0425042 0
0.0412543 -0.0433659 0
0.0423698 -0.0442451 0
0.043472 -0.0451408 0
0.0445612 -0.0460523 0
0.0456375 -0.0469789 0
0.0467013 -0.0479199 0
0.0477529 -0.0488746 0
0.0487923 -0.0498424 0
0.04982 -0.0508227 0
0.0508362 -0.051815 0
0.051841 -0.0528187 0
0.0528348 -0.0538333 0
0.0538178 -0.0548584 0
0.0547903 -0.0558935 0
0.0557524 -0.0569382 0
0.0567045 -0.0579922 0
0.0576467 -0.0590549 0
0.0585792 -0.0601261 0
0.0595024 -0.0612055 0
0.0604163 -0.0622926 0
0.0613212 -0.0633873 0
0.0622174 -0.0644891 0
0.0631049 -0.0655979 0
0.0639841 -0.0667134 0
0.064855 -0.0678353 0
0.0657179 -0.0689633 0
0.0665729 -0.0700974 0
0.0674202 -0.0712372 0
0.06826 -0.0723826 0
0.0690925 -0.0735333 0
0.0699178 -0.0746892 0
0.070736 -0.0758501 0
0.0715473 -0.0770159 0
0.0723518 -0.0781863 0
0.0731498 -0.0793612 0
0.0739412 -0.0805405 0
0.0747264 -0.081724 0
0.0755053 -0.0829116 0
0.0762781 -0.0841033 0
0.0770449 -0.0852987 0
0.0778059 -0.0864979 0
0.0785611 -0.0877007 0
0.0793108 -0.088907 0
0.0814681 -0.0912706 0
0.0828814 -0.0924245 0
0.0842946 -0.0935783 0
0.0857079 -0.0947322 0
0.0871211 -0.095886 0
0.0885344 -0.0970399 0
0.0899476 -0.0981937 0
0.0913609 -0.0993476 0
0.0927741 -0.100501 0
0.0941874 -0.101655 0
0.0956006 -0.102809 0
0.0970139 -0.103963 0
0.0984272 -0.105117 0
0.0998404 -0.106271 0
0.101254 -0.107424 0
0.102667 -0.108578 0
0.10408 -0.109732 0
0.105493 -0.110886 0
0.106907 -0.11204 0
0.10832 -0.113194 0
0.109733 -0.114348 0
0.111146 -0.115501 0
0.11256 -0.116655 0
0.113973 -0.117809 0
0.115386 -0.118963 0
0.116799 -0.120117 0
0.118213 -0.121271 0
0.119626 -0.122424 0
0.121039 -0.123578 0
0.122452 -0.124732 0
0.123866 -0.125886 0
0.125279 -0.12704 0
0.126692 -0.128194 0
0.128105 -0.129348 0
0.129519 -0.130501 0
0.130932 -0.131655 0
0.132345 -0.132809 0
0.133758 -0.133963 0
0.135172 -0.133216 0
0.135172 -0.131316 0
0.135172 -0.129415 0
0.135172 -0.127514 0
0.135172 -0.125614 0
0.135172 -0.123713 0
0.135172 -0.121813 0
0.135172 -0.119912 0
0.135172 -0.118012 0
0.135172 -0.116111 0
0.135172 -0.11421 0
0.135172 -0.11231 0
0.135172 -0.110409 0
0.135172 -0.108509 0
0.135172 -0.106608 0
0.135172 -0.104708 0
0.135172 -0.102807 0
0.135172 -0.100906 0
0.135172 -0.0990058 0
0.135172 -0.0971052 0
0.135172 -0.0952046 0
0.135172 -0.0933041 0
0.135172 -0.0914035 0
0.135172 -0.0895029 0
0.135172 -0.0876023 0
0.135172 -0.0857017 0
0.135172 -0.0838012 0
0.135172 -0.0819006 0
0.133758 -0.0788462 0
0.132345 -0.0776923 0
0.130932 -0.0765385 0
0.129519 -0.0753846 0
0.128105 -0.0742308 0
0.126692 -0.0730769 0
0.125279 -0.0719231 0
0.123866 -0.0707692 0
0.122452 -0.0696154 0
0.121039 -0.0684615 0
0.119626 -0.0673077 0
0.118213 -0.0661538 0
0.116799 -0.065 0
0.115386 -0.0638462 0
0.113973 -0.0626923 0
0.11256 -0.0615385 0
0.111146 -0.0603846 0
0.109733 -0.0592308 0
0.10832 -0.0580769 0
0.106907 -0.0569231 0
0.105493 -0.0557692 0
0.10408 -0.0546154 0
0.102667 -0.0534615 0
0.101254 -0.0523077 0
0.0998404 -0.0511538 0
0.0984272 -0.05 0
0.0970139 -0.0488462 0
0.0956006 -0.0476923 0
[...]
CELL_DATA 13116
SCALARS rho float
LOOKUP_TABLE default
0.484024
0.521572
0.34949
0.543793
0.54309
0.533102
0.359055
0.549481
0.488753
0.547065
0.348898
0.337441
0.543162
0.371981
0.360629
0.533178
0.449076
0.612159
0.533508
0.360956
0.496096
0.367894
0.388382
0.583795
0.580488
0.523039
0.547438
0.370154
0.587212
0.595106
0.531595
0.395401
0.521128
0.414396
0.356737
0.48926
0.565424
0.531248
0.532307
0.538063
0.533368
0.549958
0.3815
0.361623
0.533265
0.533498
0.508561
0.535276
0.364674
0.490594
0.54412
0.399459
0.363372
0.443015
0.517862
0.550939
0.365526
0.55638
0.506094
0.364623
0.373356
0.545141
0.515832
0.532245
0.531857
0.37405
0.536068
0.590896
0.536673
0.531924
0.361962
0.563085
0.364005
0.382698
0.531444
0.346695
0.522726
0.54061
0.359455
0.611795
0.552231
0.520777
0.560808
0.535248
0.529898
0.429526
0.36165
0.619659
0.530403
0.331329
0.374221
0.522522
0.568603
0.536041
0.581237
0.554877
0.583016
0.53161
0.531496
0.574097
0.647811
0.48
0.533479
0.363185
0.499728
0.382493
0.335967
0.423946
0.368423
0.598239
0.450306
0.512985
0.554014
0.564634
0.609756
0.536631
0.366404
0.360455
0.539087
0.538071
0.594608
0.364058
0.536967
0.415649
0.534872
0.411739
0.362424
0.480334
0.367776
0.493155
0.539196
0.534766
0.47789
0.369271
0.457859
0.504194
0.531261
0.538774
0.647887
0.537959
0.51336
0.51064
0.477696
0.512687
0.513906
0.376688
0.355198
0.516645
0.542324
0.543583
0.519668
0.534866
0.535181
0.355719
0.545399
0.530825
0.389925
0.652961
0.531598
0.625458
0.574537
0.351905
0.549986
0.388119
0.360908
0.544592
0.532192
0.614869
0.357319
0.442913
0.398752
0.531244
0.363548
0.461317
0.535887
0.38848
0.363512
0.365098
0.51021
0.532562
0.372726
0.406721
0.468081
0.568706
0.532662
0.502396
0.370196
0.533785
0.494539
0.43295
0.537474
0.51507
0.532017
0.39251
0.508896
0.53277
0.550389
0.533718
0.52941
0.37374
0.361598
0.603208
0.474654
0.384303
0.539483
0.532909
0.408488
0.565697
0.373694
0.334361
0.352391
0.534512
0.388557
0.355234
0.330266
0.356181
0.336903
0.532161
0.533357
0.417557
0.369941
0.535808
0.444347
0.373588
0.534211
0.545598
0.512655
0.374042
0.536
0.370485
0.557598
0.386443
0.531765
0.552843
0.531565
0.535092
0.532076
0.365491
0.402238
0.632342
0.531394
0.532647
0.531296
0.531925
0.547861
0.36471
0.541192
0.544884
0.531553
0.3475
0.365401
0.53368
0.538757
0.53169
0.53675
0.469234
0.600582
0.348457
0.378264
0.358474
0.374324
0.489268
0.550741
0.521414
0.361353
0.533273
0.37093
0.411556
0.500846
0.344622
0.520761
0.545846
0.531343
0.552925
0.369163
0.531338
0.552327
0.531578
0.538669
0.358284
0.361381
0.393267
0.501028
0.361683
0.371147
0.309803
0.270689
0.527715
0.368013
0.531902
0.543345
0.367599
0.364833
0.36946
0.42856
0.344908
0.616023
0.484446
0.506662
0.343654
0.534186
0.569117
0.37982
0.363818
0.532573
0.538793
0.533617
0.369678
0.532895
0.379626
0.534326
0.548899
0.542332
0.54842
0.395466
0.535738
0.37058
0.533625
0.547124
0.645928
0.345743
0.309565
0.544819
0.368652
0.518444
0.54506
0.333513
0.632556
0.561695
0.36723
0.533106
0.564025
0.363383
0.54009
0.427921
0.556095
0.548373
0.435312
0.651733
0.361592
0.576456
0.323058
0.532003
0.476077
0.552994
0.371692
0.33241
0.530581
0.349728
0.538872
0.499016
0.396243
0.531245
0.36935
0.356058
0.537673
0.533868
0.580139
0.361953
0.388573
0.541176
0.54325
0.353327
0.543188
0.368602
0.381936
0.536962
0.547523
0.404024
0.330519
0.538548
0.531642
0.533177
0.532797
0.542925
0.519275
0.295442
0.370879
0.370624
0.533087
0.371135
0.464256
0.337874
0.374695
0.326412
0.414916
0.130547
0.349359
0.530662
0.292742
0.548566
0.585825
0.534128
0.61738
0.541226
0.356151
0.360393
0.377267
0.30285
0.537394
0.550623
0.533607
0.586725
0.515082
0.569938
0.519121
0.529017
0.593409
0.540955
0.615189
0.532845
0.363132
0.417258
0.479998
0.36426
0.483695
0.546557
0.363054
0.53627
0.531365
0.396479
0.356611
0.340722
0.370381
0.614481
0.358973
0.392526
0.53501
0.375431
0.551638
0.336091
0.533121
0.536937
0.35571
0.370312
0.537356
0.430491
0.335202
0.370376
0.335777
0.368524
0.364787
0.356638
0.370622
0.411181
0.341639
0.479415
0.351056
0.530587
0.34991
0.41977
0.481679
0.377736
0.331235
0.382989
0.535531
0.416877
0.622879
0.422907
0.373105
0.567242
0.531374
0.42891
0.632261
0.562639
0.558098
0.36496
0.531541
0.363349
0.546123
0.531581
0.380002
0.367439
0.493024
0.307871
0.437178
0.477886
0.334473
0.653118
0.514946
0.367511
0.360204
0.362853
0.45635
0.362425
0.366115
0.362007
0.370968
0.545429
0.54489
0.43537
0.577611
0.456571
0.507313
0.321726
0.352959
0.493781
0.378356
0.534721
0.276895
0.347304
0.47373
0.532979
0.529435
0.540576
0.332029
0.366905
0.551881
0.54896
0.531958
0.547676
0.501035
0.488094
0.3413
0.537296
0.547754
0.633309
0.279482
0.342828
0.566964
0.555357
0.618523
0.546243
0.525158
0.525468
0.573154
0.640045
0.533989
0.371034
0.532965
0.320374
0.373382
0.347347
0.543072
0.53322
0.285226
0.529651
0.605768
0.345068
0.532202
0.538454
0.541125
0.369984
0.351393
0.539707
0.335227
0.341758
0.34718
0.341371
0.533376
0.367739
0.542346
0.351783
0.521909
0.543386
0.535884
0.543273
0.334415
0.365833
0.533931
0.557984
0.540894
0.545413
0.544955
0.477634
0.366551
0.374566
0.533494
0.494365
0.34121
0.430291
0.369582
0.54275
0.534331
0.28005
0.368522
0.529209
0.447929
0.530863
0.642816
0.368986
0.371129
0.537476
0.531381
0.385447
0.527989
0.532477
0.533631
0.347033
0.531277
0.374314
0.531553
0.632958
0.339329
0.334818
0.371374
0.531617
0.364406
0.363341
0.36097
0.532302
0.537015
0.362321
0.375729
0.33695
0.532304
0.363987
0.532687
0.376804
0.567526
0.545791
0.353425
0.388163
0.389753
0.478022
0.372991
0.525834
0.370322
0.356281
0.532806
0.364639
0.534257
0.515856
0.531601
0.362923
0.53511
0.551393
0.549373
0.533731
0.541911
0.536726
0.385167
0.531911
0.420122
0.531801
0.359174
0.547782
0.466919
0.359595
0.531799
0.541973
0.34778
0.540559
0.369494
0.360829
0.534852
0.535202
0.355852
0.378865
0.360735
0.389469
0.543157
0.592274
0.347586
0.369465
0.538865
0.53891
0.569284
0.550373
0.534145
0.349951
0.550228
0.404975
0.543965
0.359911
0.559714
0.461156
0.535422
0.578501
0.558396
0.312756
0.369468
0.533987
0.58837
0.450457
0.550688
0.373527
0.542175
0.54548
0.349339
0.414418
0.549557
0.330508
0.531868
0.633169
0.305622
0.539253
0.581383
0.343689
0.537263
0.392701
0.527018
0.355645
0.534314
0.514826
0.372784
0.532331
0.549337
0.540032
0.606862
0.533276
0.566547
0.335243
0.383165
0.342466
0.382808
0.531173
0.537458
0.537609
0.542009
0.372687
0.365352
0.534781
0.546119
0.537571
0.546163
0.354156
0.621453
0.544668
0.359506
0.362011
0.539116
0.533669
0.528529
0.368542
0.575668
0.377287
0.537729
0.515089
0.531941
0.526114
0.34063
0.531187
0.531562
0.560396
0.534979
0.53331
0.415982
0.542104
0.334116
0.499977
0.545519
0.44269
0.5162
0.532004
0.543227
0.363504
0.371046
0.567452
0.620095
0.335654
0.328085
0.35194
0.340349
0.52321
0.542895
0.532006
0.271432
0.34407
0.536557
0.645339
0.359903
0.363228
0.443269
0.543055
0.533865
0.532585
0.559716
0.333592
0.335613
0.531267
0.412117
0.356574
0.369859
0.533087
0.383613
0.332914
0.540795
0.532945
0.509708
0.532672
0.533584
0.366993
0.362917
0.35379
0.420226
0.417063
0.380873
0.585497
0.569128
0.525075
0.534258
0.383517
0.352019
0.546294
0.339199
0.533149
0.514402
0.531632
0.355887
0.353005
0.523761
0.531697
0.485679
0.362939
0.530787
0.532795
0.536291
0.543553
0.546987
0.531302
0.500847
0.354332
0.53354
0.531762
0.504999
0.538623
0.531213
0.51357
0.531367
0.538069
0.356764
0.355538
0.348224
0.531667
0.463763
0.338342
0.534395
0.539227
0.3303
0.550368
0.343304
0.542799
0.415482
0.363477
0.545511
0.598186
0.339696
0.533206
0.53166
0.382111
0.535785
0.375921
0.382558
0.566744
0.584091
0.481577
0.533557
0.352836
0.547959
0.36138
0.363507
0.534151
0.341195
0.56047
0.372798
0.54663
0.564608
0.531332
0.530472
0.368258
0.356348
0.491971
0.381278
0.537383
0.423373
0.543858
0.533096
0.561741
0.39521
0.595175
0.509733
0.549944
0.536721
0.32644
0.339216
0.52167
0.50976
0.553861
0.339818
0.533506
0.487966
0.377158
0.361006
0.647131
0.547865
0.531331
0.531585
0.480448
0.554091
0.53247
0.558226
0.370495
0.627215
0.440595
0.540097
0.533397
0.27153
0.542641
0.542231
0.355049
0.368816
0.368118
0.531216
0.35219
0.568039
0.540945
0.633081
0.321517
0.529751
0.38305
0.574761
0.532237
0.531884
0.587169
0.53228
0.592147
0.552589
0.48073
0.531552
0.356314
0.532952
0.535803
0.364557
0.531421
0.540461
0.391645
0.369887
0.375739
0.542447
0.329412
0.531401
0.364124
0.549426
0.367336
0.461791
0.372508
0.546547
0.54533
0.467346
0.248181
0.590921
0.532198
0.356283
0.567664
0.544683
0.387589
0.554235
0.531609
0.545556
0.533315
0.379763
0.421896
0.538263
0.533805
0.501244
0.329277
0.368079
0.531412
0.531262
0.531387
0.531272
0.494075
0.534995
0.489928
0.5387
0.329506
0.384922
0.53128
0.542461
0.532344
0.376815
0.533015
0.496697
0.535143
0.344429
0.399036
0.543313
0.550253
0.531814
0.303333
0.534026
0.531452
0.35746
0.586674
0.560348
0.356992
0.415476
0.36903
0.49675
0.368613
0.374457
0.53275
0.428722
0.550357
0.554065
0.359306
0.365513
0.545476
0.353266
0.358727
0.531675
0.382171
0.32282
0.558075
0.540748
0.535069
0.342661
0.29036
0.348009
0.516616
0.381865
0.535455
0.360616
0.534442
0.527876
0.532975
0.505841
0.530386
0.513819
0.533872
0.543071
0.536959
0.366509
0.340688
0.526377
0.532505
0.488391
0.501699
0.529753
0.532399
0.503401
0.354082
0.537319
0.545052
0.530799
0.347583
0.531686
0.341093
0.535213
0.481116
0.596754
0.533785
0.362129
0.537377
0.338654
0.395294
0.51662
0.367878
0.646122
0.531243
0.5462
0.36997
0.534902
0.33714
0.355875
0.3737
0.328887
0.493626
0.365022
0.519434
0.532007
0.30657
0.392918
0.470856
0.563226
0.585027
0.501479
0.36527
0.37036
0.353194
0.372536
0.245023
0.57708
0.516814
0.37296
0.532084
0.540231
0.369164
0.544923
0.646501
0.532055
0.342061
0.531526
0.532925
0.541423
0.540865
0.361442
0.535663
0.541431
0.531969
0.650563
0.532518
0.367949
0.380979
0.535039
0.520179
0.34665
0.533942
0.388501
0.555157
0.554268
0.525696
0.527762
0.357898
0.500338
0.362489
0.347022
0.619624
0.539777
0.543438
0.540586
0.554681
0.356287
0.543702
0.367493
0.487319
0.544408
0.531482
0.537984
0.346909
0.379272
0.545099
0.37008
0.539376
0.63192
0.407159
0.365413
0.537266
0.375145
0.533805
0.539091
0.537248
0.374734
0.355593
0.477802
0.473556
0.567259
0.443609
0.532882
0.501556
0.531923
0.531165
0.535288
0.366084
0.370934
0.540414
0.532464
0.500013
0.44295
0.384041
0.535687
0.365191
0.53421
0.60058
0.294457
0.537149
0.349695
0.534068
0.344896
0.542984
0.367275
0.534616
0.532449
0.315074
0.535599
0.61692
0.304078
0.531929
0.533492
0.526395
0.378276
0.330966
0.43685
0.550548
0.487905
0.362112
0.570568
0.536494
0.532803
0.311782
0.537624
0.525859
0.447849
0.532811
0.533732
0.269955
0.536888
0.531623
0.349295
0.550927
0.369716
0.534985
0.364754
0.382229
0.55623
0.351588
0.334614
0.368246
0.535581
0.520452
0.364514
0.534055
0.326954
0.528919
0.336447
0.522516
0.338145
0.533222
0.535168
0.532124
0.531836
0.537507
0.532415
0.532027
0.362362
0.619317
0.539176
0.425444
0.534799
0.476522
0.368079
0.54362
0.371792
0.549848
0.336692
0.53361
0.359706
0.392054
0.602192
0.53385
0.366457
0.539134
0.572493
0.531198
0.54625
0.531578
0.352427
0.545158
0.359237
0.388469
0.532841
0.556175
0.549922
0.530428
0.368795
0.364989
0.350692
0.52236
0.531935
0.329599
0.544726
0.373361
0.369953
0.347329
0.531271
0.360945
0.544385
0.537129
0.618787
0.534928
0.536589
0.529463
0.519143
0.418699
0.383767
0.365476
0.531571
0.531531
0.37712
0.571642
0.494748
0.524201
0.381405
0.360868
0.503741
0.264038
0.49966
0.49054
0.355089
0.532208
0.524047
0.339216
0.53474
0.358962
0.537507
0.553163
0.530678
0.366912
0.455637
0.638483
0.280578
0.427683
0.534273
0.28709
0.532291
0.536546
0.519627
0.581066
0.301348
0.531786
0.616964
0.533776
0.34569
0.541393
0.362831
0.371675
0.529801
0.533952
0.531921
0.223434
0.534093
0.620551
0.53143
0.37081
0.368792
0.334799
0.54013
0.355726
0.363211
0.343291
0.489671
0.360262
0.270154
0.428958
0.535481
0.344343
0.531844
0.532076
0.53724
0.370029
0.536431
0.611246
0.532091
0.400738
0.646991
0.35487
0.372492
0.53478
0.365101
0.556112
0.536596
0.531317
0.351225
0.310167
0.347094
0.545904
0.531299
0.221095
0.531515
0.535394
0.573933
0.334723
0.367943
0.326324
0.488035
0.338205
0.531228
0.592378
0.532181
0.531832
0.356284
0.548153
0.384042
0.467542
0.633749
0.546308
0.478768
0.417415
0.640404
0.502118
0.540889
0.370218
0.343836
0.377446
0.599871
0.500698
0.531475
0.350866
0.377463
0.544365
0.536249
0.531816
0.364686
0.537924
0.544049
0.546999
0.489251
0.372869
0.362752
0.269487
0.534102
0.532096
0.649238
0.505584
0.323772
0.547515
0.638653
0.532128
0.532007
0.545936
0.545163
0.532873
0.548096
0.543724
0.376526
0.537396
0.541113
0.532852
0.53825
0.533946
0.497901
0.347037
0.382913
0.503417
0.329124
0.304118
0.537824
0.360655
0.624638
0.536203
0.520018
0.531218
0.388387
0.539059
0.370815
0.380684
0.533021
0.534476
0.534368
0.370008
0.543019
0.533588
0.497251
0.53362
0.364665
0.532697
0.545266
0.524991
0.373943
0.567865
0.343707
0.545713
0.360713
0.346484
0.454222
0.430081
0.545542
0.552426
0.533217
0.344397
0.532624
0.365926
0.362136
0.523876
0.475475
0.33047
0.533443
0.377988
0.497804
0.606443
0.507784
0.526351
0.473634
0.584062
0.605165
0.533223
0.493101
0.543157
0.51833
0.560258
0.503548
0.604038
0.379901
0.357307
0.429765
0.540589
0.390811
0.626127
0.539679
0.565584
0.533328
0.457878
0.628635
0.556476
0.343143
0.538757
0.497204
0.428848
0.498866
0.544407
0.526362
0.532567
0.333257
0.358663
0.532145
0.503324
0.48946
0.53884
0.534977
0.534365
0.557356
0.551453
0.578952
0.499701
0.546875
0.364673
0.38168
0.359948
0.336071
0.531358
0.43666
0.485597
0.536985
0.557535
0.385599
0.531769
0.542631
0.371391
0.353521
0.531439
0.538469
0.372935
0.347932
0.349946
0.531189
0.521995
0.377347
0.365618
0.356657
0.381207
0.315786
0.330858
0.557519
0.535249
0.534481
0.369611
0.520704
0.549007
0.598542
0.303668
0.3581
0.523136
0.531287
0.334652
0.533099
0.339327
0.577704
0.377907
0.537017
0.368937
0.525452
0.543763
0.370594
0.548888
0.360194
0.545122
0.383626
0.549911
0.386033
0.477607
0.354107
0.538167
0.354889
0.531789
0.532034
0.595936
0.529785
0.299471
0.522883
0.53231
0.543304
0.548111
0.529419
0.358315
0.350708
0.377183
0.558092
0.273738
0.542088
0.52846
0.557672
0.54535
0.410567
0.541495
0.36174
0.376765
0.363505
0.484672
0.450083
0.534604
0.347949
0.371023
0.533874
0.365592
0.372653
0.475601
0.34538
0.334412
0.383536
0.550741
0.639534
0.552924
0.387911
0.520823
0.53437
0.382399
0.307873
0.53143
0.533411
0.471434
0.501027
0.4002
0.344981
0.355966
0.542268
0.498867
0.488973
0.611499
0.37091
0.533041
0.351389
0.53185
0.542142
0.356625
0.373594
0.501896
0.470122
0.543152
0.543359
0.548156
0.540337
0.544407
0.358589
0.365023
0.379719
0.357341
0.474178
0.531578
0.641344
0.353495
0.359608
0.419787
0.415689
0.534391
0.506891
0.332231
0.27894
0.53614
0.38435
0.599426
0.544977
0.518447
0.532611
0.490588
0.340821
0.367914
0.496238
0.35627
0.388393
0.364722
0.532475
0.535048
0.300182
0.352108
0.531217
0.35805
0.535016
0.561039
0.345599
0.355344
0.36884
0.535924
0.366459
0.531238
0.540395
0.562013
0.344851
0.515069
0.540206
0.530404
0.360082
0.528432
0.506775
0.443978
0.538696
0.558357
0.347224
0.359952
0.523315
0.344181
0.358207
0.525296
0.330202
0.5346
0.636798
0.574559
0.518276
0.542408
0.536117
0.532401
0.352493
0.396958
0.50757
0.533437
0.455418
0.545119
0.295317
0.537903
0.527346
0.544283
0.60473
0.352051
0.439075
0.532262
0.540737
0.501122
0.544053
0.534952
0.531336
0.546576
0.531195
0.541398
0.525469
0.543647
0.531302
0.532465
0.32197
0.522332
0.361504
0.537053
0.537455
0.547759
0.512644
0.590557
0.354328
0.346413
0.284503
0.359326
0.516728
0.366685
0.342506
0.548836
0.368324
0.548819
0.356352
0.525705
0.53594
0.361311
0.368038
0.293328
0.540079
0.381788
0.53416
0.5372
0.347597
0.521458
0.539802
0.317426
0.368128
0.373372
0.641282
0.357945
0.538358
0.454375
0.351257
0.533566
0.533551
0.549019
0.338617
0.541479
0.37886
0.521879
0.532636
0.53669
0.332023
0.532841
0.53874
0.507516
0.383874
0.53994
0.337971
0.340389
0.535507
0.433049
0.546684
0.359347
0.332863
0.42945
0.511535
0.364978
0.262098
0.348703
0.435309
0.531544
0.536866
0.365565
0.545391
0.535245
0.547587
0.384174
0.291549
0.542595
0.335034
0.348376
0.532982
0.338664
0.337631
0.542908
0.545534
0.369935
0.605738
0.350577
0.531387
0.372759
0.525705
0.531935
0.589122
0.532118
0.361204
0.346023
0.37656
0.53288
0.525111
0.581332
0.519733
0.356869
0.286545
0.532892
0.351381
0.534882
0.366905
0.531837
0.58905
0.369028
0.359475
0.340847
0.351921
0.359455
0.500068
0.517861
0.369513
0.536822
0.589495
0.33293
0.363789
0.544292
0.329977
0.535895
0.414385
0.579256
0.609118
0.536353
0.531611
0.360685
0.550751
0.536346
0.551505
0.33717
0.491862
0.587718
0.298864
0.5407
0.524475
0.560622
0.521594
0.544409
0.535399
0.547891
0.532952
0.533448
0.374023
0.553055
0.340656
0.424945
0.534046
0.378593
0.527862
0.492605
0.369162
0.507602
0.347095
0.375501
0.533906
0.485874
0.545535
0.338466
0.521579
0.601892
0.373062
0.369727
0.530745
0.534325
0.359506
0.344013
0.541922
0.544865
0.3672
0.593222
0.543799
0.643464
0.37044
0.338428
0.366721
0.613057
0.364586
0.528684
0.603358
0.532947
0.539079
0.536245
0.338037
0.528886
0.605777
0.543658
0.476441
0.387361
0.355762
0.378404
0.571498
0.537816
0.412068
0.60876
0.285799
0.531545
0.537711
0.374331
0.506865
0.529274
0.581582
0.369738
0.362172
0.325145
0.538889
0.54629
0.599091
0.500437
0.536349
0.335975
0.601438
0.531377
0.532956
0.370184
0.616701
0.369397
0.498049
0.381911
0.533275
0.534656
0.387522
0.538892
0.385895
0.531285
0.56363
0.531216
0.541831
0.385954
0.532733
0.533684
0.535306
0.53377
0.470446
0.531379
0.369895
0.533896
0.375556
0.368313
0.374532
0.359451
0.335068
0.369957
0.544671
0.350156
0.362381
0.578709
0.539106
0.519435
0.374866
0.581364
0.613255
0.53252
0.304027
0.488721
0.536032
0.365103
0.342519
0.345503
0.587523
0.494656
0.349597
0.50674
0.384916
0.53163
0.487179
0.362938
0.4575
0.610114
0.316858
0.534537
0.36785
0.4145
0.355913
0.542526
0.362371
0.556765
0.531393
0.487502
0.382154
0.345605
0.54254
0.545032
0.343514
0.355865
0.533016
0.359667
0.570288
0.369726
0.54543
0.379081
0.536003
0.364581
0.545054
0.368123
0.537754
0.536787
0.54114
0.531381
0.370952
0.390754
0.377145
0.525022
0.550269
0.510687
0.451606
0.370488
0.540913
0.295015
0.523375
0.479445
0.36489
0.365036
0.546557
0.533247
0.382277
0.531636
0.546195
0.54384
0.567702
0.367907
0.604667
0.337931
0.542765
0.366628
0.531974
0.521156
0.541365
0.545656
0.33818
0.546643
0.34382
0.344751
0.53484
0.531401
0.521888
0.532726
0.531364
0.331252
0.608607
0.540566
0.547845
0.356898
0.408303
0.591766
0.36688
0.53816
0.540101
0.529192
0.542833
0.271697
0.421102
0.620323
0.388216
0.527778
0.544457
0.443795
0.532832
0.251824
0.497849
0.605535
0.640479
0.535092
0.360726
0.395689
0.534688
0.527447
0.36874
0.299433
0.362132
0.388384
0.363237
0.387638
0.358502
0.333506
0.534301
0.374067
0.370367
0.541199
0.518241
0.531232
0.377399
0.351466
0.53567
0.442407
0.426238
0.545598
0.349397
0.637335
0.53189
0.597389
0.523705
0.381098
0.537102
0.532171
0.350103
0.341643
0.367121
0.490628
0.596012
0.544453
0.533346
0.533379
0.52573
0.343798
0.537752
0.532218
0.5344
0.34342
0.53643
0.477273
0.3367
0.415879
0.367789
0.37268
0.366886
0.564295
0.605261
0.527079
0.346531
0.376131
0.543944
0.320373
0.537491
0.533788
0.529276
0.645869
0.536203
0.363882
0.376156
0.381329
0.525826
0.370963
0.535214
0.360718
0.53489
0.532918
0.537232
0.340403
0.425766
0.387304
0.536521
0.343086
0.346608
0.538127
0.523591
0.52709
0.533165
0.529784
0.568952
0.339261
0.614053
0.542889
0.517372
0.535864
0.539013
0.55457
0.447675
0.411625
0.548555
0.483332
0.549167
0.334376
0.512543
0.530043
0.373452
0.360092
0.520703
0.488674
0.541167
0.537608
0.356885
0.360061
0.531656
0.344972
0.37282
0.531389
0.530735
0.367427
0.53185
0.531609
0.513725
0.345468
0.567705
0.340114
0.53326
0.542003
0.564961
0.52579
0.531758
0.271726
0.327013
0.532367
0.341212
0.597766
0.361714
0.536782
0.376148
0.585693
0.542929
0.531696
0.331573
0.531227
0.531486
0.35249
0.513188
0.360366
0.550618
0.332411
0.368706
0.350998
0.534352
0.53321
0.308024
0.278478