# vtk DataFile Version 1.0
unstructured grid
ascii
DATASET UNSTRUCTURED_GRID
points 13672 float
0.0796578 -0.059106 0
0.00128732 0.00159165 0
0.00227961 -0.00102548 0
0.0791586 -0.0598787 0
-0.0546216 0.01 0
0.000495206 0.025 0
0.0800549 -0.035 0
0.135172 -0.08 0
-0.0546216 -0.0451168 0
0.000495206 -0.0301168 0
0.0800549 -0.0901168 0
0.135172 -0.135117 0
-0.0546216 -0.0451168 -0.00551168
0.000495206 -0.0301168 -0.00551168
0.0800549 -0.0901168 -0.00551168
0.135172 -0.135117 -0.00551168
0.135172 -0.08 -0.00551168
0.0800549 -0.035 -0.00551168
0.000495206 0.025 -0.00551168
-0.0546216 0.01 -0.00551168
0.00128732 0.00159165 -0.00551168
0.00227961 -0.00102548 -0.00551168
0.0791586 -0.0598787 -0.00551168
0.0796578 -0.059106 -0.00551168
0.00165953 -0.000990923 0
0.00119576 -0.000874076 0
0.000866021 -0.000641801 0
0.000645147 -0.000349912 0
0.00052235 -1.7281e-05 0
0.00049972 0.000348016 0
0.000601632 0.000737716 0
0.000861774 0.0011403 0
0.00157235 0.00183217 0
0.00188647 0.00206725 0
0.00222612 0.00230203 0
0.00258713 0.00254351 0
0.00296826 0.00279524 0
0.00337118 0.00305664 0
0.00379785 0.00332658 0
0.00425045 0.00360349 0
0.00473139 0.00388521 0
0.0052432 0.00416895 0
0.0057881 0.00445204 0
0.00636753 0.00473281 0
0.00698281 0.00500961 0
0.00763526 0.00528058 0
0.00832616 0.00554366 0
0.00905691 0.00579603 0
0.00982918 0.00603333 0
0.0106445 0.00625033 0
0.0115038 0.00644128 0
0.0124073 0.00660297 0
0.0133543 0.00673414 0
0.0143444 0.00683382 0
0.0153769 0.00690031 0
0.0164512 0.00693173 0
0.0175666 0.00692547 0
0.0187219 0.00687822 0
0.0199156 0.00678477 0
0.0211454 0.00663864 0
0.0224084 0.00643275 0
0.0237018 0.00616676 0
0.0250249 0.00584739 0
0.026375 0.00547298 0
0.0277479 0.00503752 0
0.0291386 0.00453545 0
0.0305433 0.0039653 0
0.0319572 0.0033256 0
0.0333681 0.00260019 0
0.034775 0.00179799 0
0.0361793 0.000930615 0
0.0375798 3.12222e-06 0
0.0389689 -0.000988429 0
0.0403357 -0.00205109 0
0.041675 -0.00318283 0
0.0429849 -0.00437751 0
0.0442643 -0.00562904 0
0.0455126 -0.00693089 0
0.0467314 -0.00827518 0
0.0479204 -0.00965638 0
0.0490661 -0.0110799 0
0.0501515 -0.0125519 0
0.0511696 -0.0140695 0
0.0521492 -0.0156071 0
0.0531202 -0.0171411 0
0.0540851 -0.0186663 0
0.0550431 -0.0201798 0
0.0559923 -0.0216793 0
0.0569311 -0.0231626 0
0.0578582 -0.0246273 0
0.0587723 -0.0260715 0
0.0596721 -0.027493 0
0.0605563 -0.02889 0
0.0614241 -0.0302609 0
0.0622742 -0.0316042 0
0.063106 -0.0329183 0
0.0639186 -0.034202 0
0.0647113 -0.0354543 0
0.0654835 -0.0366743 0
0.0662345 -0.0378613 0
0.0669642 -0.0390145 0
0.0676726 -0.0401333 0
0.0683597 -0.0412172 0
0.0690246 -0.0422665 0
0.0696662 -0.0432819 0
0.0702841 -0.0442636 0
0.0708793 -0.0452111 0
0.0714538 -0.0461237 0
0.072009 -0.047001 0
0.0725452 -0.0478434 0
0.0730611 -0.0486524 0
0.073556 -0.0494294 0
0.0740291 -0.0501756 0
0.0744812 -0.0508916 0
0.0749138 -0.0515773 0
0.0753285 -0.0522331 0
0.0757266 -0.0528592 0
0.076109 -0.0534564 0
0.0764753 -0.0540264 0
0.0768243 -0.054571 0
0.0771553 -0.0550919 0
0.0774679 -0.0555901 0
0.0777617 -0.0560669 0
0.0780369 -0.056523 0
0.0782958 -0.0569578 0
0.0785421 -0.0573703 0
0.0787786 -0.0577603 0
0.0790073 -0.0581279 0
0.0792295 -0.058474 0
0.0794462 -0.0587995 0
0.0798803 -0.0594162 0
0.0800272 -0.0596588 0
0.0800357 -0.0598891 0
0.0799275 -0.0600784 0
0.0797205 -0.0601773 0
0.0794593 -0.0601051 0
0.0789155 -0.0596491 0
0.0786707 -0.0593963 0
0.0784111 -0.0591319 0
0.0781372 -0.0588542 0
0.0778566 -0.0585548 0
0.0775715 -0.0582308 0
0.0772803 -0.0578828 0
0.0769832 -0.0575099 0
0.0766822 -0.0571097 0
0.0763801 -0.0566796 0
0.0760759 -0.0562196 0
0.0757623 -0.0557337 0
0.0754359 -0.0552232 0
0.0750951 -0.0546879 0
0.0747379 -0.054128 0
0.0743626 -0.0535435 0
0.0739688 -0.0529338 0
0.0735559 -0.0522981 0
0.0731238 -0.0516357 0
0.0726718 -0.050946 0
0.0721991 -0.0502288 0
0.0717046 -0.049484 0
0.0711872 -0.0487117 0
0.0706461 -0.047912 0
0.0700804 -0.0470849 0
0.0694892 -0.0462308 0
0.0688718 -0.0453499 0
0.0682271 -0.0444431 0
0.0675544 -0.043511 0
0.0668527 -0.0425546 0
0.0661215 -0.0415748 0
0.06536 -0.040573 0
0.0645676 -0.0395504 0
0.0637439 -0.0385087 0
0.0628887 -0.0374493 0
0.062002 -0.0363741 0
0.0610838 -0.0352847 0
0.0601345 -0.0341831 0
0.0591547 -0.033071 0
0.0581456 -0.0319502 0
0.0571083 -0.0308224 0
0.0560444 -0.0296893 0
0.0549562 -0.028552 0
0.053845 -0.0274126 0
0.0527113 -0.0262746 0
0.051554 -0.0251427 0
0.0503724 -0.0240222 0
0.0491675 -0.0229164 0
0.047941 -0.0218282 0
0.0466955 -0.0207597 0
0.0454337 -0.0197126 0
0.0441592 -0.0186878 0
0.0428751 -0.0176863 0
0.0415841 -0.0167097 0
0.0402878 -0.0157609 0
0.0389879 -0.0148428 0
0.0376864 -0.0139575 0
0.0363853 -0.013107 0
0.0350871 -0.0122931 0
0.0337942 -0.0115164 0
0.0325095 -0.0107772 0
0.0312357 -0.0100756 0
0.0299758 -0.00941024 0
0.0287337 -0.00877784 0
0.0275126 -0.00817571 0
0.0263139 -0.00760375 0
0.0251376 -0.00706528 0
0.0239829 -0.0065649 0
0.0228537 -0.00609619 0
0.0217522 -0.00565563 0
0.0206795 -0.00524226 0
0.0196364 -0.00485507 0
0.0186233 -0.00449318 0
0.0176408 -0.00415577 0
0.016689 -0.00384204 0
0.0157682 -0.00355115 0
0.0148783 -0.00328218 0
0.0140192 -0.00303468 0
0.0131906 -0.00280795 0
0.0123925 -0.00260016 0
0.0116246 -0.00241012 0
0.0108864 -0.00223769 0
0.0101774 -0.00208212 0
0.00949701 -0.00194206 0
0.00884483 -0.0018163 0
0.0082202 -0.0017039 0
0.00762247 -0.00160391 0
0.00705097 -0.00151528 0
0.006505 -0.00143697 0
0.0059838 -0.00136806 0
0.00548662 -0.00130772 0
0.00501265 -0.00125519 0
0.00456114 -0.00120954 0
0.00413136 -0.00116914 0
0.00372257 -0.00113251 0
0.00333398 -0.00109853 0
0.00296466 -0.00106798 0
0.00261363 -0.0010431 0
-0.052721 -0.0445996 0
-0.0508204 -0.0440823 0
-0.0489199 -0.0435651 0
-0.0470193 -0.0430478 0
-0.0451187 -0.0425306 0
-0.0432181 -0.0420134 0
-0.0413175 -0.0414961 0
-0.039417 -0.0409789 0
-0.0375164 -0.0404616 0
-0.0356158 -0.0399444 0
-0.0337152 -0.0394271 0
-0.0318146 -0.0389099 0
-0.0299141 -0.0383927 0
-0.0280135 -0.0378754 0
-0.0261129 -0.0373582 0
-0.0242123 -0.0368409 0
-0.0223117 -0.0363237 0
-0.0204112 -0.0358065 0
-0.0185106 -0.0352892 0
-0.01661 -0.034772 0
-0.0147094 -0.0342547 0
-0.0128088 -0.0337375 0
-0.0109083 -0.0332202 0
-0.00900769 -0.032703 0
-0.00710711 -0.0321858 0
-0.00520653 -0.0316685 0
-0.00330595 -0.0311513 0
-0.00140537 -0.030634 0
0.00190689 -0.0299614 0
0.00332271 -0.0298498 0
0.00474133 -0.0297825 0
0.00616136 -0.0297597 0
0.0075814 -0.0297814 0
0.00900007 -0.0298477 0
0.010416 -0.0299583 0
0.0118278 -0.0301127 0
0.0132342 -0.0303103 0
0.0146339 -0.0305504 0
0.0160259 -0.0308322 0
0.0174091 -0.0311546 0
0.0187824 -0.0315166 0
0.020145 -0.031917 0
0.0214961 -0.0323546 0
0.0228351 -0.032828 0
0.0241613 -0.0333361 0
0.0254744 -0.0338774 0
0.0267738 -0.0344507 0
0.0280592 -0.0350545 0
0.0293306 -0.0356877 0
0.0305875 -0.0363488 0
0.0318301 -0.0370367 0
0.0330581 -0.0377501 0
0.0342717 -0.0384879 0
0.0354708 -0.0392489 0
0.0366556 -0.0400321 0
0.0378262 -0.0408363 0
0.0389828 -0.0416607 0
0.0401254 -0.0425042 0
0.0412543 -0.0433659 0
0.0423698 -0.0442451 0
0.043472 -0.0451408 0
0.0445612 -0.0460523 0
0.0456375 -0.0469789 0
0.0467013 -0.0479199 0
0.0477529 -0.0488746 0
0.0487923 -0.0498424 0
0.04982 -0.0508227 0
0.0508362 -0.051815 0
0.051841 -0.0528187 0
0.0528348 -0.0538333 0
0.0538178 -0.0548584 0
0.0547903 -0.0558935 0
0.0557524 -0.0569382 0
0.0567045 -0.0579922 0
0.0576467 -0.0590549 0
0.0585792 -0.0601261 0
0.0595024 -0.0612055 0
0.0604163 -0.0622926 0
0.0613212 -0.0633873 0
0.0622174 -0.0644891 0
0.0631049 -0.0655979 0
0.0639841 -0.0667134 0
0.064855 -0.0678353 0
0.0657179 -0.0689633 0
0.0665729 -0.0700974 0
0.0674202 -0.0712372 0
0.06826 -0.0723826 0
0.0690925 -0.0735333 0
0.0699178 -0.0746892 0
0.070736 -0.0758501 0
0.0715473 -0.0770159 0
0.0723518 -0.0781863 0
0.0731498 -0.0793612 0
0.0739412 -0.0805405 0
0.0747264 -0.081724 0
0.0755053 -0.0829116 0
0.0762781 -0.0841033 0
0.0770449 -0.0852987 0
0.0778059 -0.0864979 0
0.0785611 -0.0877007 0
0.0793108 -0.088907 0
0.0814681 -0.0912706 0
0.0828814 -0.0924245 0
0.0842946 -0.0935783 0
0.0857079 -0.0947322 0
0.0871211 -0.095886 0
0.0885344 -0.0970399 0
0.0899476 -0.0981937 0
0.0913609 -0.0993476 0
0.0927741 -0.100501 0
0.0941874 -0.101655 0
0.0956006 -0.102809 0
0.0970139 -0.103963 0
0.0984272 -0.105117 0
0.0998404 -0.106271 0
0.101254 -0.107424 0
0.102667 -0.108578 0
0.10408 -0.109732 0
0.105493 -0.110886 0
0.106907 -0.11204 0
0.10832 -0.113194 0
0.109733 -0.114348 0
0.111146 -0.115501 0
0.11256 -0.116655 0
0.113973 -0.117809 0
0.115386 -0.118963 0
0.116799 -0.120117 0
0.118213 -0.121271 0
0.119626 -0.122424 0
0.121039 -0.123578 0
0.122452 -0.124732 0
0.123866 -0.125886 0
0.125279 -0.12704 0
0.126692 -0.128194 0
0.128105 -0.129348 0
0.129519 -0.130501 0
0.130932 -0.131655 0
0.132345 -0.132809 0
0.133758 -0.133963 0
0.135172 -0.133216 0
0.135172 -0.131316 0
0.135172 -0.129415 0
0.135172 -0.127514 0
0.135172 -0.125614 0
0.135172 -0.123713 0
0.135172 -0.121813 0
0.135172 -0.119912 0
0.135172 -0.118012 0
0.135172 -0.116111 0
0.135172 -0.11421 0
0.135172 -0.11231 0
0.135172 -0.110409 0
0.135172 -0.108509 0
0.135172 -0.106608 0
0.135172 -0.104708 0
0.135172 -0.102807 0
0.135172 -0.100906 0
0.135172 -0.0990058 0
0.135172 -0.0971052 0
0.135172 -0.0952046 0
0.135172 -0.0933041 0
0.135172 -0.0914035 0
0.135172 -0.0895029 0
0.135172 -0.0876023 0
0.135172 -0.0857017 0
0.135172 -0.0838012 0
0.135172 -0.0819006 0
0.133758 -0.0788462 0
0.132345 -0.0776923 0
0.130932 -0.0765385 0
0.129519 -0.0753846 0
0.128105 -0.0742308 0
0.126692 -0.0730769 0
0.125279 -0.0719231 0
0.123866 -0.0707692 0
0.122452 -0.0696154 0
0.121039 -0.0684615 0
0.119626 -0.0673077 0
0.118213 -0.0661538 0
0.116799 -0.065 0
0.115386 -0.0638462 0
0.113973 -0.0626923 0
0.11256 -0.0615385 0
0.111146 -0.0603846 0
0.109733 -0.0592308 0
0.10832 -0.0580769 0
0.106907 -0.0569231 0
0.105493 -0.0557692 0
0.10408 -0.0546154 0
0.102667 -0.0534615 0
0.101254 -0.0523077 0
0.0998404 -0.0511538 0
0.0984272 -0.05 0
0.0970139 -0.0488462 0
0.0956006 -0.0476923 0
[...]
CELL_DATA 13116
SCALARS rho float
LOOKUP_TABLE default
0.435266
0.518104
0.289074
0.557121
0.548402
0.537379
0.346049
0.549975
0.416909
0.552006
0.35603
0.287496
0.548623
0.312214
0.32532
0.537403
0.412799
0.545054
0.534682
0.310299
0.438549
0.323841
0.311833
0.546481
0.47858
0.497198
0.55204
0.312333
0.477496
0.506798
0.537478
0.298472
0.43813
0.353922
0.341674
0.436989
0.521147
0.529652
0.537475
0.53604
0.53621
0.552713
0.340164
0.291254
0.533428
0.534507
0.501155
0.537003
0.338376
0.412918
0.546952
0.351298
0.31615
0.407749
0.437167
0.460727
0.293842
0.543901
0.422937
0.325773
0.313368
0.553227
0.510942
0.537489
0.537508
0.320924
0.538403
0.526332
0.539054
0.537497
0.325709
0.461214
0.318153
0.313688
0.537523
0.319187
0.505157
0.544533
0.35387
0.542777
0.531228
0.502254
0.546545
0.536535
0.525687
0.359503
0.327003
0.524156
0.521118
0.337785
0.293572
0.519431
0.548461
0.52474
0.509196
0.471008
0.480471
0.537623
0.537492
0.470312
0.531575
0.465877
0.535709
0.345604
0.488205
0.322185
0.287331
0.376773
0.312524
0.485279
0.399344
0.498068
0.469523
0.533961
0.543228
0.538443
0.320551
0.317375
0.541984
0.53917
0.526602
0.314143
0.539306
0.301782
0.519736
0.34893
0.325479
0.402175
0.309305
0.414066
0.542206
0.536055
0.397006
0.333898
0.38097
0.461691
0.537705
0.540994
0.530879
0.538945
0.492841
0.503692
0.401125
0.493529
0.506997
0.305493
0.341417
0.495883
0.546576
0.543713
0.42853
0.536139
0.536999
0.31207
0.549375
0.52678
0.311729
0.535927
0.537613
0.524378
0.545822
0.357169
0.545316
0.312232
0.309727
0.551623
0.517774
0.544701
0.343265
0.367427
0.335565
0.537647
0.327033
0.389138
0.537862
0.312194
0.334512
0.319898
0.495085
0.537105
0.315871
0.343813
0.415479
0.521443
0.537097
0.421342
0.301271
0.536026
0.478906
0.364164
0.500043
0.494343
0.537444
0.314931
0.490894
0.537377
0.549592
0.535611
0.520135
0.319085
0.345807
0.48919
0.398047
0.315108
0.542643
0.532769
0.358598
0.478753
0.325837
0.347388
0.317014
0.537768
0.311223
0.308659
0.346933
0.311556
0.300681
0.537102
0.517248
0.351129
0.294386
0.538296
0.394672
0.318122
0.440345
0.552503
0.505221
0.315332
0.537991
0.313752
0.555097
0.295479
0.537422
0.453276
0.537639
0.530464
0.537434
0.32423
0.344777
0.524285
0.537619
0.537323
0.537685
0.537245
0.544546
0.334146
0.543584
0.550008
0.537461
0.34264
0.337627
0.534115
0.541555
0.537445
0.538713
0.425067
0.536239
0.357442
0.333018
0.318834
0.325747
0.475519
0.549426
0.504147
0.332619
0.532028
0.31477
0.345311
0.489839
0.327007
0.498714
0.549753
0.537613
0.543651
0.327492
0.53761
0.535213
0.537453
0.540883
0.347695
0.330137
0.313332
0.45817
0.314139
0.328439
0.266884
0.255678
0.524843
0.317378
0.525601
0.549022
0.300333
0.296539
0.314137
0.358458
0.285193
0.523088
0.464054
0.493666
0.328035
0.537507
0.465053
0.330562
0.327186
0.537347
0.541538
0.535774
0.306818
0.53739
0.338582
0.535539
0.552777
0.542555
0.551978
0.315802
0.538048
0.327251
0.536859
0.552832
0.52494
0.341789
0.267123
0.550455
0.32526
0.512114
0.553156
0.286889
0.538333
0.546319
0.320872
0.531831
0.548379
0.30676
0.543332
0.364444
0.456223
0.532781
0.368638
0.536157
0.333259
0.544812
0.277079
0.537198
0.460398
0.550468
0.314907
0.288168
0.526747
0.316323
0.542013
0.483537
0.337877
0.537722
0.307113
0.317653
0.540238
0.438932
0.525132
0.330262
0.311728
0.543445
0.548861
0.343657
0.547906
0.318464
0.323692
0.537923
0.53681
0.368969
0.341642
0.540968
0.53753
0.537452
0.530705
0.543399
0.428817
0.259443
0.326357
0.310955
0.537462
0.313713
0.413976
0.29182
0.305266
0.28359
0.375966
0.113501
0.316892
0.527522
0.251843
0.54589
0.476849
0.535892
0.517898
0.544106
0.31596
0.328572
0.325418
0.266446
0.540007
0.466391
0.535927
0.477443
0.508272
0.487301
0.500928
0.489525
0.504695
0.542368
0.542375
0.537367
0.324806
0.364751
0.432241
0.324162
0.461183
0.459536
0.316294
0.538298
0.537638
0.316336
0.322626
0.340217
0.301268
0.49669
0.327549
0.314814
0.537933
0.320568
0.453081
0.343102
0.536997
0.530971
0.286882
0.332857
0.539838
0.359346
0.350812
0.299627
0.342519
0.312484
0.325943
0.323482
0.32164
0.344771
0.353937
0.463248
0.301226
0.524833
0.29738
0.324536
0.403901
0.305043
0.337946
0.303188
0.534138
0.348705
0.504007
0.379744
0.320835
0.480661
0.522912
0.358723
0.537999
0.488309
0.487342
0.316561
0.537632
0.316189
0.544161
0.537479
0.311989
0.333395
0.477821
0.26832
0.369264
0.462488
0.287298
0.535189
0.5092
0.297471
0.332748
0.327959
0.385769
0.325535
0.310588
0.326024
0.327384
0.554062
0.554759
0.363045
0.472684
0.380388
0.490818
0.29054
0.322017
0.420175
0.312254
0.535855
0.238751
0.298889
0.393815
0.532853
0.514298
0.444039
0.285174
0.334294
0.453699
0.550229
0.537534
0.450997
0.491616
0.474633
0.346815
0.530192
0.449897
0.523403
0.256063
0.286991
0.533224
0.54979
0.51706
0.552727
0.516427
0.496788
0.544934
0.523743
0.535895
0.341568
0.532601
0.274352
0.325918
0.314415
0.556284
0.533218
0.250943
0.524931
0.490355
0.344399
0.537299
0.541066
0.539674
0.312247
0.322456
0.543238
0.359265
0.328082
0.297032
0.342883
0.534006
0.310607
0.556334
0.301608
0.518539
0.546048
0.538462
0.549017
0.356579
0.301134
0.534469
0.556047
0.513774
0.553823
0.5498
0.402174
0.318973
0.313439
0.537332
0.418052
0.343008
0.359295
0.30229
0.532822
0.536314
0.255711
0.3228
0.523257
0.376851
0.528188
0.518913
0.308689
0.314471
0.510656
0.537656
0.313056
0.513549
0.517424
0.533949
0.315975
0.537628
0.300535
0.537639
0.522471
0.341845
0.301329
0.326541
0.537558
0.310045
0.343328
0.317592
0.537269
0.53808
0.347488
0.330124
0.338797
0.53739
0.316881
0.537286
0.305956
0.464119
0.552529
0.2999
0.312374
0.311904
0.402604
0.314843
0.505792
0.310519
0.322668
0.537067
0.329849
0.537692
0.509183
0.537621
0.330893
0.536399
0.54752
0.54932
0.537372
0.519457
0.537829
0.301481
0.53755
0.352632
0.531558
0.339348
0.545294
0.400387
0.341353
0.537421
0.545086
0.322569
0.491718
0.293408
0.325235
0.537907
0.533882
0.291188
0.30382
0.353151
0.303117
0.529858
0.546624
0.315349
0.297289
0.541981
0.540787
0.465599
0.547101
0.536475
0.358057
0.550556
0.340421
0.546848
0.32093
0.469078
0.384652
0.537961
0.526061
0.457066
0.282483
0.313935
0.535265
0.478197
0.411619
0.546712
0.325736
0.533811
0.549061
0.296046
0.362767
0.547904
0.28575
0.537389
0.525045
0.263663
0.539659
0.507881
0.301945
0.537097
0.312918
0.519145
0.305376
0.537708
0.509513
0.316533
0.537482
0.545698
0.543846
0.491268
0.531437
0.462602
0.321701
0.339844
0.286671
0.315569
0.537678
0.442568
0.539812
0.54608
0.329682
0.316228
0.534522
0.553192
0.540185
0.549719
0.332546
0.542514
0.549918
0.309525
0.298286
0.542126
0.534098
0.522439
0.311075
0.469298
0.3014
0.536399
0.507574
0.537516
0.524003
0.339363
0.531087
0.525531
0.547673
0.532858
0.536626
0.349646
0.543103
0.345969
0.490867
0.550994
0.366769
0.510342
0.537506
0.545636
0.334468
0.336493
0.463497
0.511935
0.36538
0.342281
0.32005
0.352503
0.51996
0.533453
0.537249
0.255305
0.356897
0.538919
0.534902
0.306535
0.317756
0.367956
0.520271
0.535656
0.530129
0.540514
0.348429
0.368358
0.537637
0.300472
0.307152
0.312963
0.536318
0.306755
0.346709
0.454928
0.533076
0.495198
0.537464
0.536181
0.321703
0.328334
0.320133
0.380319
0.348356
0.295114
0.525184
0.540157
0.519327
0.537041
0.315976
0.328129
0.552502
0.357478
0.53664
0.509151
0.537589
0.291183
0.342029
0.514851
0.537389
0.444544
0.307142
0.527429
0.537462
0.451692
0.543874
0.548891
0.537622
0.491788
0.332083
0.536304
0.537358
0.484519
0.536647
0.537732
0.499323
0.537712
0.540389
0.323352
0.325346
0.326483
0.537568
0.399732
0.365656
0.534385
0.54241
0.282161
0.497409
0.285469
0.501321
0.3741
0.336514
0.553457
0.546161
0.34342
0.44144
0.537538
0.311803
0.525062
0.318864
0.323063
0.484224
0.478645
0.402938
0.535544
0.31769
0.545197
0.334396
0.306723
0.537664
0.340477
0.474498
0.304832
0.496828
0.470232
0.537717
0.516184
0.327245
0.321874
0.480159
0.341888
0.539924
0.362111
0.465455
0.537211
0.547487
0.3523
0.483215
0.493835
0.549834
0.538807
0.279715
0.327931
0.430995
0.492106
0.550254
0.304075
0.535627
0.44599
0.325444
0.29587
0.526128
0.520935
0.537705
0.537546
0.466337
0.534546
0.537359
0.526787
0.304878
0.51728
0.365807
0.540193
0.533622
0.248648
0.496984
0.547277
0.330069
0.324139
0.320964
0.537734
0.357867
0.483982
0.540598
0.518427
0.290904
0.527251
0.314274
0.468784
0.537493
0.537278
0.523898
0.537376
0.486742
0.53025
0.414962
0.53114
0.302599
0.536549
0.538369
0.327705
0.537687
0.534564
0.312459
0.326323
0.310666
0.54294
0.347213
0.537567
0.316372
0.549257
0.332533
0.385647
0.308188
0.54373
0.549222
0.423424
0.216692
0.48677
0.537088
0.331785
0.46487
0.555104
0.295015
0.462774
0.537427
0.552231
0.536725
0.310601
0.374615
0.541213
0.535165
0.492029
0.341051
0.332655
0.529104
0.537706
0.537647
0.53774
0.433956
0.536401
0.430431
0.538491
0.340958
0.31458
0.53774
0.547514
0.537275
0.320672
0.536447
0.440094
0.471924
0.315246
0.334652
0.548198
0.557892
0.439456
0.263926
0.536504
0.537675
0.346087
0.480477
0.540328
0.345049
0.329796
0.32736
0.478038
0.320284
0.340344
0.530954
0.368413
0.550474
0.501983
0.343138
0.320568
0.552806
0.329624
0.327073
0.537394
0.321245
0.290982
0.465577
0.515714
0.536443
0.355924
0.263698
0.350769
0.510311
0.321749
0.536989
0.328894
0.535089
0.489239
0.53245
0.496444
0.530017
0.505947
0.535824
0.548688
0.539159
0.310493
0.334344
0.524193
0.537401
0.411474
0.486956
0.440856
0.53741
0.483201
0.286315
0.538678
0.554338
0.529827
0.337188
0.531728
0.296053
0.536464
0.405922
0.543067
0.537328
0.336699
0.539908
0.33932
0.341058
0.511839
0.312007
0.535671
0.53777
0.538651
0.302707
0.537905
0.354411
0.291228
0.30454
0.346815
0.477306
0.328008
0.495571
0.537459
0.266678
0.315157
0.394359
0.460212
0.496429
0.493493
0.333387
0.327184
0.345645
0.308298
0.214293
0.496088
0.501821
0.312305
0.53719
0.54019
0.327666
0.554332
0.534352
0.537458
0.338196
0.537517
0.530393
0.543337
0.539977
0.325273
0.537419
0.544678
0.532244
0.526769
0.536912
0.330706
0.308674
0.536402
0.430567
0.340467
0.537601
0.313339
0.455466
0.491378
0.517536
0.520544
0.29319
0.485719
0.31844
0.336397
0.538978
0.543464
0.546601
0.543184
0.514922
0.29142
0.549726
0.327724
0.41069
0.551188
0.537509
0.540833
0.34141
0.328348
0.550572
0.328967
0.542774
0.511534
0.342824
0.323069
0.537789
0.306629
0.537261
0.542394
0.512534
0.306315
0.330048
0.39924
0.409971
0.487344
0.374115
0.536901
0.493518
0.526974
0.537687
0.535796
0.336914
0.323742
0.544244
0.536918
0.489626
0.367511
0.316307
0.527922
0.327802
0.536332
0.486955
0.264885
0.539577
0.354409
0.507981
0.290776
0.547296
0.326249
0.53556
0.537147
0.268868
0.521889
0.511485
0.258471
0.537245
0.534609
0.439554
0.304788
0.296296
0.368819
0.547929
0.477247
0.313597
0.466082
0.537691
0.537115
0.282611
0.478949
0.522814
0.37749
0.5369
0.536926
0.240942
0.538967
0.537447
0.289774
0.470324
0.301302
0.499789
0.310002
0.324096
0.549471
0.347612
0.338598
0.327369
0.53818
0.516022
0.331583
0.536376
0.295596
0.519456
0.353293
0.518912
0.293089
0.537205
0.536737
0.506214
0.537364
0.444127
0.537183
0.537434
0.293815
0.50277
0.510188
0.388889
0.535289
0.399921
0.34352
0.549469
0.317619
0.452051
0.283862
0.535856
0.307995
0.314575
0.546238
0.536161
0.297438
0.539477
0.540223
0.537716
0.549338
0.537595
0.33376
0.553842
0.303323
0.311614
0.5219
0.541324
0.552007
0.525036
0.300089
0.309327
0.35074
0.519255
0.537443
0.295968
0.524066
0.321767
0.307249
0.320038
0.523517
0.320122
0.551001
0.539445
0.501866
0.533107
0.538573
0.4522
0.501003
0.351479
0.317528
0.29873
0.537593
0.537571
0.31896
0.495639
0.475999
0.502357
0.310974
0.327156
0.496373
0.227793
0.491292
0.468864
0.307324
0.537125
0.521325
0.330863
0.53592
0.328062
0.539644
0.551232
0.530405
0.328298
0.382185
0.534503
0.247255
0.363759
0.533334
0.255897
0.537085
0.538766
0.498465
0.540522
0.26062
0.537472
0.538468
0.535085
0.294815
0.544554
0.331305
0.305956
0.526714
0.535829
0.537285
0.193267
0.537514
0.502432
0.537535
0.32484
0.317111
0.353244
0.541993
0.347467
0.329682
0.302298
0.467198
0.328554
0.248992
0.357497
0.536969
0.318655
0.537327
0.53731
0.535892
0.303579
0.538307
0.515044
0.537198
0.335556
0.525045
0.338865
0.319588
0.537844
0.297717
0.49264
0.536726
0.537721
0.311857
0.267028
0.323284
0.449374
0.537717
0.191184
0.530274
0.53811
0.541429
0.353871
0.328173
0.27988
0.476523
0.345054
0.53777
0.481127
0.537281
0.529977
0.352407
0.493046
0.301581
0.44714
0.512956
0.553023
0.451728
0.385606
0.524822
0.492437
0.544948
0.306002
0.292753
0.310207
0.542629
0.422389
0.53752
0.312213
0.32172
0.543332
0.538084
0.537318
0.298217
0.536381
0.448071
0.449419
0.479091
0.314236
0.298819
0.241027
0.53582
0.537513
0.525604
0.489341
0.278146
0.539191
0.520133
0.537508
0.537217
0.539425
0.554157
0.537466
0.540284
0.546151
0.311015
0.539676
0.543861
0.536668
0.540756
0.535475
0.457188
0.341807
0.323106
0.487259
0.339845
0.264119
0.535632
0.325373
0.50482
0.538648
0.516285
0.530466
0.312835
0.53691
0.301618
0.316278
0.537472
0.535767
0.537153
0.306928
0.547118
0.535643
0.485435
0.53591
0.325836
0.536745
0.550896
0.52158
0.320702
0.54425
0.353028
0.558168
0.316112
0.344519
0.417268
0.358636
0.553344
0.544578
0.53678
0.305227
0.536815
0.333401
0.326601
0.511382
0.400869
0.338837
0.536126
0.315611
0.418089
0.525258
0.500945
0.520015
0.397462
0.475089
0.516736
0.537104
0.455371
0.546596
0.42861
0.549973
0.486194
0.510376
0.315412
0.356751
0.357902
0.543213
0.311939
0.523331
0.539678
0.475941
0.53713
0.414606
0.534937
0.527929
0.341177
0.538923
0.482361
0.39326
0.485021
0.55041
0.507052
0.537163
0.352707
0.323506
0.532166
0.424933
0.432291
0.540787
0.536096
0.536736
0.549839
0.550915
0.489531
0.491526
0.553001
0.32889
0.314993
0.307316
0.292095
0.537676
0.365451
0.427565
0.539309
0.531719
0.312287
0.531251
0.557406
0.310214
0.303675
0.537544
0.540861
0.314731
0.295912
0.299731
0.537725
0.496702
0.324473
0.340862
0.306206
0.323011
0.274355
0.340754
0.552761
0.536899
0.53303
0.308951
0.517129
0.478425
0.485267
0.295542
0.321858
0.509724
0.537749
0.345243
0.537041
0.332165
0.545944
0.31197
0.535288
0.296637
0.519996
0.54887
0.304218
0.450916
0.330444
0.554092
0.321887
0.481508
0.313208
0.402437
0.33814
0.474834
0.333609
0.537377
0.537374
0.483495
0.529164
0.285486
0.51919
0.537089
0.547884
0.476548
0.520204
0.321004
0.336143
0.318923
0.548436
0.237071
0.547006
0.435167
0.541115
0.552185
0.369373
0.542994
0.326148
0.316244
0.328468
0.405727
0.416168
0.535462
0.32679
0.330262
0.537596
0.310002
0.305686
0.440459
0.304949
0.347308
0.323688
0.553552
0.517521
0.48486
0.313539
0.516581
0.535887
0.318825
0.264033
0.525867
0.536431
0.449295
0.420005
0.337257
0.294155
0.312238
0.530556
0.483969
0.416032
0.537235
0.325565
0.451408
0.357383
0.537439
0.547009
0.317812
0.332511
0.489027
0.435728
0.548734
0.546137
0.54826
0.539672
0.551314
0.310114
0.322664
0.309394
0.345645
0.429548
0.537553
0.518846
0.33869
0.318416
0.359457
0.327891
0.536629
0.500094
0.344605
0.256133
0.53864
0.313446
0.515701
0.544739
0.512404
0.536908
0.438214
0.325348
0.297518
0.487317
0.318952
0.339011
0.326377
0.537196
0.535101
0.27198
0.307566
0.537646
0.329684
0.537075
0.54846
0.31821
0.329277
0.330049
0.538326
0.319182
0.537768
0.537149
0.47646
0.292841
0.427123
0.544018
0.528118
0.352711
0.52571
0.488812
0.335157
0.541578
0.554663
0.344663
0.344674
0.513949
0.333381
0.341821
0.52223
0.282448
0.535784
0.535263
0.547853
0.494236
0.547326
0.538559
0.537312
0.350946
0.333681
0.497273
0.534115
0.381731
0.55406
0.268898
0.540175
0.521239
0.451887
0.512076
0.334825
0.364604
0.531944
0.54487
0.48391
0.549089
0.53783
0.537585
0.54838
0.537663
0.521576
0.5133
0.536285
0.537743
0.537282
0.271556
0.504722
0.29287
0.537517
0.539794
0.542069
0.504938
0.540131
0.330411
0.318426
0.251621
0.354144
0.510728
0.295137
0.335097
0.532339
0.310944
0.539769
0.313248
0.522415
0.537787
0.346184
0.312238
0.259559
0.542394
0.312181
0.534892
0.539654
0.321824
0.507687
0.443514
0.272652
0.312425
0.314001
0.540916
0.345217
0.538111
0.411736
0.327892
0.534803
0.536174
0.548226
0.348331
0.456184
0.310896
0.518607
0.537347
0.538361
0.350228
0.533338
0.540918
0.494032
0.330992
0.542303
0.331695
0.34892
0.531585
0.361705
0.551193
0.350059
0.349695
0.358261
0.500554
0.311084
0.223815
0.306263
0.384132
0.537471
0.539174
0.307007
0.473738
0.537839
0.450724
0.337071
0.263153
0.445373
0.374657
0.347325
0.532861
0.346977
0.354455
0.544034
0.555449
0.309754
0.543992
0.311849
0.537561
0.312245
0.512439
0.537526
0.541129
0.537201
0.331017
0.353431
0.307737
0.53734
0.515276
0.473237
0.431065
0.30361
0.247785
0.5367
0.352057
0.536177
0.311526
0.537511
0.527425
0.297809
0.290187
0.340568
0.318748
0.291078
0.488092
0.512765
0.296774
0.538945
0.503464
0.320514
0.32769
0.555578
0.337879
0.537516
0.347333
0.540811
0.516637
0.538252
0.537466
0.324749
0.55096
0.536086
0.55563
0.348102
0.48195
0.477613
0.262097
0.54318
0.503502
0.545911
0.51732
0.551375
0.530313
0.551854
0.53661
0.534833
0.336748
0.547462
0.33974
0.3663
0.533104
0.309313
0.523771
0.481439
0.333908
0.495223
0.346492
0.293886
0.525168
0.474184
0.555027
0.35447
0.517091
0.490666
0.309301
0.304335
0.511072
0.536044
0.305196
0.311051
0.540108
0.555002
0.340612
0.506952
0.549654
0.519665
0.308215
0.331411
0.302333
0.517824
0.326538
0.52631
0.542607
0.536695
0.478721
0.538059
0.353535
0.521824
0.490625
0.54871
0.449439
0.311797
0.350793
0.324014
0.546361
0.54054
0.345729
0.515022
0.260141
0.507537
0.539054
0.325778
0.48789
0.527146
0.49243
0.3059
0.330303
0.287803
0.542085
0.551107
0.488764
0.418608
0.538125
0.3459
0.501082
0.53758
0.533491
0.305904
0.498319
0.332094
0.486921
0.323694
0.533469
0.525049
0.314211
0.541864
0.343761
0.537751
0.504446
0.537756
0.542084
0.340159
0.536784
0.536428
0.535865
0.534212
0.396579
0.537576
0.316541
0.536518
0.324518
0.311862
0.325308
0.290522
0.371656
0.301498
0.551562
0.297637
0.329052
0.518338
0.542225
0.514511
0.328659
0.537294
0.53661
0.536962
0.263867
0.459729
0.538354
0.313196
0.303
0.355461
0.496618
0.415798
0.317404
0.464796
0.317698
0.537566
0.409533
0.320435
0.381498
0.513156
0.286487
0.536367
0.326361
0.380525
0.304444
0.53318
0.315434
0.513873
0.537557
0.470133
0.334878
0.339282
0.527396
0.554226
0.305877
0.291196
0.537191
0.303561
0.543923
0.310937
0.447236
0.32401
0.538493
0.321238
0.553042
0.308768
0.538822
0.538813
0.545474
0.537701
0.323229
0.311807
0.325574
0.499699
0.531657
0.499344
0.418478
0.33058
0.541899
0.266759
0.51337
0.463682
0.344875
0.327033
0.545768
0.533332
0.312362
0.537478
0.530748
0.545721
0.547861
0.326306
0.503052
0.338807
0.545798
0.320553
0.537248
0.508576
0.513148
0.553379
0.322421
0.557867
0.347689
0.335199
0.53703
0.537688
0.436664
0.532855
0.537654
0.337142
0.545416
0.530513
0.550345
0.292676
0.343781
0.53423
0.295722
0.54047
0.539243
0.525893
0.53567
0.235202
0.358178
0.512904
0.313113
0.521079
0.554785
0.378104
0.522503
0.219967
0.488941
0.545598
0.533036
0.522269
0.329876
0.31594
0.535658
0.524217
0.335961
0.267617
0.323248
0.312526
0.329288
0.320322
0.287243
0.340416
0.535114
0.325857
0.307411
0.539264
0.435282
0.537634
0.320628
0.309028
0.538163
0.373473
0.383682
0.549664
0.303631
0.521309
0.537486
0.484837
0.520597
0.309525
0.539474
0.537443
0.320884
0.353002
0.344448
0.479014
0.484242
0.551266
0.537417
0.53416
0.523357
0.292925
0.540301
0.537419
0.509889
0.349448
0.538798
0.45769
0.286953
0.347805
0.318763
0.307978
0.328853
0.469142
0.526221
0.525183
0.346784
0.318508
0.549542
0.273436
0.539734
0.53639
0.526165
0.533242
0.53789
0.313192
0.30999
0.312357
0.450836
0.327363
0.537175
0.306443
0.537773
0.537001
0.539424
0.29248
0.358602
0.338503
0.538449
0.31675
0.35704
0.535275
0.520382
0.489747
0.537345
0.506632
0.543542
0.326545
0.496652
0.54737
0.430842
0.537469
0.541266
0.544435
0.377356
0.347293
0.551367
0.405855
0.484534
0.339741
0.506922
0.526521
0.320315
0.327729
0.516988
0.406886
0.545375
0.539698
0.34196
0.305831
0.537438
0.307622
0.334649
0.52775
0.511971
0.331958
0.530255
0.537613
0.506361
0.333744
0.47008
0.326031
0.529999
0.546769
0.543427
0.522958
0.537541
0.256011
0.291684
0.532469
0.344865
0.484845
0.330283
0.538757
0.305421
0.511021
0.547029
0.537557
0.349989
0.537755
0.5375
0.356232
0.507392
0.303989
0.554595
0.346896
0.296612
0.300855