# vtk DataFile Version 1.0
unstructured grid
ascii
DATASET UNSTRUCTURED_GRID
points 13672 float
0.0796578 -0.059106 0
0.00128732 0.00159165 0
0.00227961 -0.00102548 0
0.0791586 -0.0598787 0
-0.0546216 0.01 0
0.000495206 0.025 0
0.0800549 -0.035 0
0.135172 -0.08 0
-0.0546216 -0.0451168 0
0.000495206 -0.0301168 0
0.0800549 -0.0901168 0
0.135172 -0.135117 0
-0.0546216 -0.0451168 -0.00551168
0.000495206 -0.0301168 -0.00551168
0.0800549 -0.0901168 -0.00551168
0.135172 -0.135117 -0.00551168
0.135172 -0.08 -0.00551168
0.0800549 -0.035 -0.00551168
0.000495206 0.025 -0.00551168
-0.0546216 0.01 -0.00551168
0.00128732 0.00159165 -0.00551168
0.00227961 -0.00102548 -0.00551168
0.0791586 -0.0598787 -0.00551168
0.0796578 -0.059106 -0.00551168
0.00165953 -0.000990923 0
0.00119576 -0.000874076 0
0.000866021 -0.000641801 0
0.000645147 -0.000349912 0
0.00052235 -1.7281e-05 0
0.00049972 0.000348016 0
0.000601632 0.000737716 0
0.000861774 0.0011403 0
0.00157235 0.00183217 0
0.00188647 0.00206725 0
0.00222612 0.00230203 0
0.00258713 0.00254351 0
0.00296826 0.00279524 0
0.00337118 0.00305664 0
0.00379785 0.00332658 0
0.00425045 0.00360349 0
0.00473139 0.00388521 0
0.0052432 0.00416895 0
0.0057881 0.00445204 0
0.00636753 0.00473281 0
0.00698281 0.00500961 0
0.00763526 0.00528058 0
0.00832616 0.00554366 0
0.00905691 0.00579603 0
0.00982918 0.00603333 0
0.0106445 0.00625033 0
0.0115038 0.00644128 0
0.0124073 0.00660297 0
0.0133543 0.00673414 0
0.0143444 0.00683382 0
0.0153769 0.00690031 0
0.0164512 0.00693173 0
0.0175666 0.00692547 0
0.0187219 0.00687822 0
0.0199156 0.00678477 0
0.0211454 0.00663864 0
0.0224084 0.00643275 0
0.0237018 0.00616676 0
0.0250249 0.00584739 0
0.026375 0.00547298 0
0.0277479 0.00503752 0
0.0291386 0.00453545 0
0.0305433 0.0039653 0
0.0319572 0.0033256 0
0.0333681 0.00260019 0
0.034775 0.00179799 0
0.0361793 0.000930615 0
0.0375798 3.12222e-06 0
0.0389689 -0.000988429 0
0.0403357 -0.00205109 0
0.041675 -0.00318283 0
0.0429849 -0.00437751 0
0.0442643 -0.00562904 0
0.0455126 -0.00693089 0
0.0467314 -0.00827518 0
0.0479204 -0.00965638 0
0.0490661 -0.0110799 0
0.0501515 -0.0125519 0
0.0511696 -0.0140695 0
0.0521492 -0.0156071 0
0.0531202 -0.0171411 0
0.0540851 -0.0186663 0
0.0550431 -0.0201798 0
0.0559923 -0.0216793 0
0.0569311 -0.0231626 0
0.0578582 -0.0246273 0
0.0587723 -0.0260715 0
0.0596721 -0.027493 0
0.0605563 -0.02889 0
0.0614241 -0.0302609 0
0.0622742 -0.0316042 0
0.063106 -0.0329183 0
0.0639186 -0.034202 0
0.0647113 -0.0354543 0
0.0654835 -0.0366743 0
0.0662345 -0.0378613 0
0.0669642 -0.0390145 0
0.0676726 -0.0401333 0
0.0683597 -0.0412172 0
0.0690246 -0.0422665 0
0.0696662 -0.0432819 0
0.0702841 -0.0442636 0
0.0708793 -0.0452111 0
0.0714538 -0.0461237 0
0.072009 -0.047001 0
0.0725452 -0.0478434 0
0.0730611 -0.0486524 0
0.073556 -0.0494294 0
0.0740291 -0.0501756 0
0.0744812 -0.0508916 0
0.0749138 -0.0515773 0
0.0753285 -0.0522331 0
0.0757266 -0.0528592 0
0.076109 -0.0534564 0
0.0764753 -0.0540264 0
0.0768243 -0.054571 0
0.0771553 -0.0550919 0
0.0774679 -0.0555901 0
0.0777617 -0.0560669 0
0.0780369 -0.056523 0
0.0782958 -0.0569578 0
0.0785421 -0.0573703 0
0.0787786 -0.0577603 0
0.0790073 -0.0581279 0
0.0792295 -0.058474 0
0.0794462 -0.0587995 0
0.0798803 -0.0594162 0
0.0800272 -0.0596588 0
0.0800357 -0.0598891 0
0.0799275 -0.0600784 0
0.0797205 -0.0601773 0
0.0794593 -0.0601051 0
0.0789155 -0.0596491 0
0.0786707 -0.0593963 0
0.0784111 -0.0591319 0
0.0781372 -0.0588542 0
0.0778566 -0.0585548 0
0.0775715 -0.0582308 0
0.0772803 -0.0578828 0
0.0769832 -0.0575099 0
0.0766822 -0.0571097 0
0.0763801 -0.0566796 0
0.0760759 -0.0562196 0
0.0757623 -0.0557337 0
0.0754359 -0.0552232 0
0.0750951 -0.0546879 0
0.0747379 -0.054128 0
0.0743626 -0.0535435 0
0.0739688 -0.0529338 0
0.0735559 -0.0522981 0
0.0731238 -0.0516357 0
0.0726718 -0.050946 0
0.0721991 -0.0502288 0
0.0717046 -0.049484 0
0.0711872 -0.0487117 0
0.0706461 -0.047912 0
0.0700804 -0.0470849 0
0.0694892 -0.0462308 0
0.0688718 -0.0453499 0
0.0682271 -0.0444431 0
0.0675544 -0.043511 0
0.0668527 -0.0425546 0
0.0661215 -0.0415748 0
0.06536 -0.040573 0
0.0645676 -0.0395504 0
0.0637439 -0.0385087 0
0.0628887 -0.0374493 0
0.062002 -0.0363741 0
0.0610838 -0.0352847 0
0.0601345 -0.0341831 0
0.0591547 -0.033071 0
0.0581456 -0.0319502 0
0.0571083 -0.0308224 0
0.0560444 -0.0296893 0
0.0549562 -0.028552 0
0.053845 -0.0274126 0
0.0527113 -0.0262746 0
0.051554 -0.0251427 0
0.0503724 -0.0240222 0
0.0491675 -0.0229164 0
0.047941 -0.0218282 0
0.0466955 -0.0207597 0
0.0454337 -0.0197126 0
0.0441592 -0.0186878 0
0.0428751 -0.0176863 0
0.0415841 -0.0167097 0
0.0402878 -0.0157609 0
0.0389879 -0.0148428 0
0.0376864 -0.0139575 0
0.0363853 -0.013107 0
0.0350871 -0.0122931 0
0.0337942 -0.0115164 0
0.0325095 -0.0107772 0
0.0312357 -0.0100756 0
0.0299758 -0.00941024 0
0.0287337 -0.00877784 0
0.0275126 -0.00817571 0
0.0263139 -0.00760375 0
0.0251376 -0.00706528 0
0.0239829 -0.0065649 0
0.0228537 -0.00609619 0
0.0217522 -0.00565563 0
0.0206795 -0.00524226 0
0.0196364 -0.00485507 0
0.0186233 -0.00449318 0
0.0176408 -0.00415577 0
0.016689 -0.00384204 0
0.0157682 -0.00355115 0
0.0148783 -0.00328218 0
0.0140192 -0.00303468 0
0.0131906 -0.00280795 0
0.0123925 -0.00260016 0
0.0116246 -0.00241012 0
0.0108864 -0.00223769 0
0.0101774 -0.00208212 0
0.00949701 -0.00194206 0
0.00884483 -0.0018163 0
0.0082202 -0.0017039 0
0.00762247 -0.00160391 0
0.00705097 -0.00151528 0
0.006505 -0.00143697 0
0.0059838 -0.00136806 0
0.00548662 -0.00130772 0
0.00501265 -0.00125519 0
0.00456114 -0.00120954 0
0.00413136 -0.00116914 0
0.00372257 -0.00113251 0
0.00333398 -0.00109853 0
0.00296466 -0.00106798 0
0.00261363 -0.0010431 0
-0.052721 -0.0445996 0
-0.0508204 -0.0440823 0
-0.0489199 -0.0435651 0
-0.0470193 -0.0430478 0
-0.0451187 -0.0425306 0
-0.0432181 -0.0420134 0
-0.0413175 -0.0414961 0
-0.039417 -0.0409789 0
-0.0375164 -0.0404616 0
-0.0356158 -0.0399444 0
-0.0337152 -0.0394271 0
-0.0318146 -0.0389099 0
-0.0299141 -0.0383927 0
-0.0280135 -0.0378754 0
-0.0261129 -0.0373582 0
-0.0242123 -0.0368409 0
-0.0223117 -0.0363237 0
-0.0204112 -0.0358065 0
-0.0185106 -0.0352892 0
-0.01661 -0.034772 0
-0.0147094 -0.0342547 0
-0.0128088 -0.0337375 0
-0.0109083 -0.0332202 0
-0.00900769 -0.032703 0
-0.00710711 -0.0321858 0
-0.00520653 -0.0316685 0
-0.00330595 -0.0311513 0
-0.00140537 -0.030634 0
0.00190689 -0.0299614 0
0.00332271 -0.0298498 0
0.00474133 -0.0297825 0
0.00616136 -0.0297597 0
0.0075814 -0.0297814 0
0.00900007 -0.0298477 0
0.010416 -0.0299583 0
0.0118278 -0.0301127 0
0.0132342 -0.0303103 0
0.0146339 -0.0305504 0
0.0160259 -0.0308322 0
0.0174091 -0.0311546 0
0.0187824 -0.0315166 0
0.020145 -0.031917 0
0.0214961 -0.0323546 0
0.0228351 -0.032828 0
0.0241613 -0.0333361 0
0.0254744 -0.0338774 0
0.0267738 -0.0344507 0
0.0280592 -0.0350545 0
0.0293306 -0.0356877 0
0.0305875 -0.0363488 0
0.0318301 -0.0370367 0
0.0330581 -0.0377501 0
0.0342717 -0.0384879 0
0.0354708 -0.0392489 0
0.0366556 -0.0400321 0
0.0378262 -0.0408363 0
0.0389828 -0.0416607 0
0.0401254 -0.0425042 0
0.0412543 -0.0433659 0
0.0423698 -0.0442451 0
0.043472 -0.0451408 0
0.0445612 -0.0460523 0
0.0456375 -0.0469789 0
0.0467013 -0.0479199 0
0.0477529 -0.0488746 0
0.0487923 -0.0498424 0
0.04982 -0.0508227 0
0.0508362 -0.051815 0
0.051841 -0.0528187 0
0.0528348 -0.0538333 0
0.0538178 -0.0548584 0
0.0547903 -0.0558935 0
0.0557524 -0.0569382 0
0.0567045 -0.0579922 0
0.0576467 -0.0590549 0
0.0585792 -0.0601261 0
0.0595024 -0.0612055 0
0.0604163 -0.0622926 0
0.0613212 -0.0633873 0
0.0622174 -0.0644891 0
0.0631049 -0.0655979 0
0.0639841 -0.0667134 0
0.064855 -0.0678353 0
0.0657179 -0.0689633 0
0.0665729 -0.0700974 0
0.0674202 -0.0712372 0
0.06826 -0.0723826 0
0.0690925 -0.0735333 0
0.0699178 -0.0746892 0
0.070736 -0.0758501 0
0.0715473 -0.0770159 0
0.0723518 -0.0781863 0
0.0731498 -0.0793612 0
0.0739412 -0.0805405 0
0.0747264 -0.081724 0
0.0755053 -0.0829116 0
0.0762781 -0.0841033 0
0.0770449 -0.0852987 0
0.0778059 -0.0864979 0
0.0785611 -0.0877007 0
0.0793108 -0.088907 0
0.0814681 -0.0912706 0
0.0828814 -0.0924245 0
0.0842946 -0.0935783 0
0.0857079 -0.0947322 0
0.0871211 -0.095886 0
0.0885344 -0.0970399 0
0.0899476 -0.0981937 0
0.0913609 -0.0993476 0
0.0927741 -0.100501 0
0.0941874 -0.101655 0
0.0956006 -0.102809 0
0.0970139 -0.103963 0
0.0984272 -0.105117 0
0.0998404 -0.106271 0
0.101254 -0.107424 0
0.102667 -0.108578 0
0.10408 -0.109732 0
0.105493 -0.110886 0
0.106907 -0.11204 0
0.10832 -0.113194 0
0.109733 -0.114348 0
0.111146 -0.115501 0
0.11256 -0.116655 0
0.113973 -0.117809 0
0.115386 -0.118963 0
0.116799 -0.120117 0
0.118213 -0.121271 0
0.119626 -0.122424 0
0.121039 -0.123578 0
0.122452 -0.124732 0
0.123866 -0.125886 0
0.125279 -0.12704 0
0.126692 -0.128194 0
0.128105 -0.129348 0
0.129519 -0.130501 0
0.130932 -0.131655 0
0.132345 -0.132809 0
0.133758 -0.133963 0
0.135172 -0.133216 0
0.135172 -0.131316 0
0.135172 -0.129415 0
0.135172 -0.127514 0
0.135172 -0.125614 0
0.135172 -0.123713 0
0.135172 -0.121813 0
0.135172 -0.119912 0
0.135172 -0.118012 0
0.135172 -0.116111 0
0.135172 -0.11421 0
0.135172 -0.11231 0
0.135172 -0.110409 0
0.135172 -0.108509 0
0.135172 -0.106608 0
0.135172 -0.104708 0
0.135172 -0.102807 0
0.135172 -0.100906 0
0.135172 -0.0990058 0
0.135172 -0.0971052 0
0.135172 -0.0952046 0
0.135172 -0.0933041 0
0.135172 -0.0914035 0
0.135172 -0.0895029 0
0.135172 -0.0876023 0
0.135172 -0.0857017 0
0.135172 -0.0838012 0
0.135172 -0.0819006 0
0.133758 -0.0788462 0
0.132345 -0.0776923 0
0.130932 -0.0765385 0
0.129519 -0.0753846 0
0.128105 -0.0742308 0
0.126692 -0.0730769 0
0.125279 -0.0719231 0
0.123866 -0.0707692 0
0.122452 -0.0696154 0
0.121039 -0.0684615 0
0.119626 -0.0673077 0
0.118213 -0.0661538 0
0.116799 -0.065 0
0.115386 -0.0638462 0
0.113973 -0.0626923 0
0.11256 -0.0615385 0
0.111146 -0.0603846 0
0.109733 -0.0592308 0
0.10832 -0.0580769 0
0.106907 -0.0569231 0
0.105493 -0.0557692 0
0.10408 -0.0546154 0
0.102667 -0.0534615 0
0.101254 -0.0523077 0
0.0998404 -0.0511538 0
0.0984272 -0.05 0
0.0970139 -0.0488462 0
0.0956006 -0.0476923 0
[...]
CELL_DATA 13116
SCALARS rho float
LOOKUP_TABLE default
0.427366
0.514813
0.292557
0.555897
0.546671
0.5338
0.319018
0.549719
0.410555
0.550481
0.318024
0.295156
0.546912
0.329482
0.316844
0.533856
0.402288
0.543173
0.531739
0.326836
0.431397
0.32526
0.326122
0.544678
0.474403
0.495141
0.550516
0.328531
0.473407
0.503307
0.533293
0.327181
0.432666
0.349291
0.317559
0.429491
0.518113
0.526886
0.533668
0.534102
0.532996
0.552496
0.331204
0.289477
0.53056
0.531584
0.496676
0.53431
0.320108
0.407608
0.545627
0.344615
0.32066
0.396622
0.43158
0.45572
0.292267
0.541906
0.418004
0.316726
0.329925
0.551718
0.507173
0.533646
0.533383
0.332611
0.535638
0.52353
0.536455
0.533412
0.319803
0.457086
0.321874
0.324174
0.533196
0.304996
0.501141
0.542631
0.319463
0.540729
0.528651
0.499475
0.544737
0.533954
0.523
0.351288
0.326209
0.521349
0.518896
0.324657
0.310703
0.51624
0.546776
0.523397
0.505707
0.465993
0.476424
0.533372
0.53321
0.466206
0.529116
0.4581
0.532566
0.313465
0.482681
0.33288
0.28116
0.368406
0.328347
0.481461
0.391016
0.49416
0.464523
0.531494
0.541227
0.535811
0.329049
0.302771
0.53989
0.536866
0.523857
0.3199
0.536765
0.338618
0.518519
0.342395
0.32668
0.397544
0.322059
0.408897
0.54012
0.533687
0.392541
0.325832
0.376983
0.454981
0.533141
0.538774
0.528398
0.536645
0.488004
0.499424
0.396285
0.488697
0.503023
0.325686
0.318345
0.492716
0.544723
0.542466
0.424407
0.533496
0.534271
0.310954
0.547686
0.524165
0.325443
0.533616
0.533377
0.5216
0.543959
0.317833
0.543403
0.32559
0.316128
0.550156
0.516135
0.542789
0.317812
0.363241
0.329918
0.533102
0.318619
0.384287
0.535079
0.327316
0.321413
0.323023
0.490829
0.533503
0.304337
0.337434
0.40714
0.51847
0.533537
0.416155
0.297326
0.532822
0.472701
0.360161
0.49587
0.490916
0.533401
0.329049
0.486558
0.533812
0.547941
0.532464
0.517792
0.317498
0.313077
0.485535
0.393384
0.327641
0.540591
0.530072
0.351504
0.474118
0.326455
0.323163
0.302381
0.534675
0.324728
0.324925
0.323436
0.310264
0.285985
0.533239
0.515843
0.340943
0.291819
0.535476
0.386123
0.305247
0.433986
0.55095
0.501074
0.332419
0.535218
0.306496
0.556405
0.316411
0.533372
0.449171
0.53335
0.52841
0.533424
0.314848
0.336507
0.521569
0.533241
0.533729
0.533158
0.533253
0.544269
0.323046
0.541774
0.548347
0.533199
0.322333
0.321615
0.531405
0.539406
0.533342
0.536357
0.416269
0.533868
0.317627
0.328415
0.309224
0.327074
0.468639
0.54776
0.500111
0.322351
0.529313
0.317943
0.338958
0.484442
0.319375
0.496136
0.548668
0.533191
0.541644
0.315253
0.533182
0.532811
0.533201
0.538644
0.317094
0.327823
0.327626
0.451121
0.319877
0.325674
0.26046
0.247338
0.521932
0.321288
0.52331
0.547423
0.302141
0.319274
0.318684
0.354158
0.289497
0.520245
0.456666
0.488951
0.319484
0.534396
0.459278
0.328825
0.317165
0.533557
0.539377
0.532568
0.296088
0.533866
0.322768
0.533127
0.55229
0.541082
0.551394
0.329912
0.535215
0.325306
0.533475
0.551222
0.522215
0.321417
0.260216
0.548819
0.330838
0.508534
0.551647
0.285608
0.536067
0.544488
0.326298
0.529119
0.54669
0.320592
0.541353
0.352609
0.449724
0.533634
0.357855
0.533867
0.323322
0.542904
0.269643
0.533254
0.451794
0.548896
0.332298
0.27993
0.524105
0.314511
0.539934
0.477896
0.329468
0.533145
0.305355
0.317557
0.538045
0.434175
0.522296
0.328022
0.32509
0.541643
0.547232
0.318288
0.546353
0.332377
0.331676
0.535451
0.537125
0.357434
0.320976
0.538726
0.533374
0.533919
0.528073
0.54138
0.424536
0.257579
0.324401
0.301327
0.533905
0.302052
0.405494
0.289393
0.318152
0.275231
0.365348
0.110342
0.31515
0.524822
0.259912
0.544021
0.473076
0.532964
0.514905
0.542307
0.317634
0.326999
0.322131
0.264827
0.537796
0.461218
0.532823
0.473554
0.504356
0.482949
0.49789
0.484711
0.501057
0.540296
0.540306
0.533691
0.313903
0.357833
0.424163
0.323539
0.453642
0.454392
0.322676
0.535585
0.533227
0.330438
0.324283
0.322848
0.299925
0.493225
0.320658
0.329021
0.534941
0.325265
0.44886
0.323874
0.533426
0.528387
0.286442
0.32628
0.537619
0.355376
0.323227
0.298009
0.319033
0.328181
0.328232
0.324622
0.325263
0.338769
0.319367
0.455322
0.307201
0.52236
0.297687
0.357574
0.39481
0.333204
0.324254
0.330431
0.531745
0.343272
0.500829
0.370366
0.329699
0.476118
0.52076
0.350663
0.535707
0.483896
0.482749
0.32763
0.53335
0.304493
0.542184
0.533277
0.325681
0.324077
0.471417
0.267328
0.359046
0.454226
0.280354
0.532851
0.50536
0.303164
0.31874
0.318593
0.380808
0.315909
0.321183
0.318552
0.325729
0.552808
0.553318
0.35929
0.468692
0.376346
0.486293
0.275213
0.320476
0.414111
0.32596
0.533391
0.230972
0.291226
0.389277
0.530005
0.512321
0.439121
0.284248
0.323953
0.44641
0.549826
0.533522
0.44347
0.486263
0.467601
0.321138
0.527575
0.445643
0.52065
0.242998
0.292082
0.530711
0.548188
0.514046
0.551214
0.513601
0.495227
0.543021
0.521002
0.532922
0.311822
0.52979
0.266479
0.325706
0.324921
0.554762
0.530521
0.242586
0.52228
0.486596
0.321718
0.53335
0.538851
0.537474
0.32811
0.320439
0.541239
0.322894
0.308167
0.310132
0.32194
0.531488
0.321954
0.554735
0.307712
0.515333
0.544611
0.535699
0.547357
0.322724
0.303816
0.53185
0.557309
0.510339
0.55253
0.548131
0.390863
0.32585
0.328042
0.534037
0.41226
0.322376
0.355165
0.314636
0.532345
0.533244
0.243042
0.325171
0.520651
0.365642
0.525441
0.516127
0.320492
0.307189
0.507025
0.533252
0.32653
0.511366
0.515843
0.531301
0.312539
0.533116
0.30106
0.533331
0.519656
0.31935
0.285307
0.32533
0.533283
0.32439
0.318509
0.303185
0.533365
0.535817
0.319424
0.324252
0.323177
0.533485
0.3218
0.533713
0.325882
0.460134
0.550989
0.300152
0.325676
0.325548
0.391225
0.330522
0.503719
0.295573
0.321434
0.53338
0.320073
0.534518
0.505403
0.533349
0.300919
0.533958
0.545748
0.547651
0.534147
0.519824
0.535294
0.324179
0.533505
0.342774
0.528923
0.317787
0.544971
0.394541
0.31834
0.533271
0.543153
0.319392
0.487141
0.309068
0.319057
0.534885
0.531451
0.303694
0.324272
0.319941
0.331476
0.52974
0.544828
0.313694
0.299112
0.5399
0.538603
0.461582
0.545297
0.533314
0.31833
0.548991
0.334706
0.545486
0.303605
0.464371
0.378724
0.535052
0.52328
0.452407
0.268121
0.331168
0.532239
0.47387
0.401346
0.544886
0.327054
0.531345
0.547345
0.286979
0.355857
0.546145
0.28367
0.533279
0.522349
0.256692
0.537641
0.504293
0.305885
0.534781
0.327216
0.51646
0.298459
0.534567
0.50569
0.333532
0.533648
0.54381
0.541873
0.487556
0.528885
0.457642
0.31778
0.324845
0.297337
0.326793
0.533063
0.436365
0.537379
0.544207
0.305792
0.320875
0.532105
0.551689
0.537995
0.548723
0.320699
0.540458
0.54825
0.325917
0.308485
0.540039
0.531364
0.519773
0.324196
0.463914
0.297021
0.534048
0.503707
0.533524
0.521049
0.322499
0.528485
0.5232
0.54594
0.530498
0.533346
0.339372
0.541082
0.323063
0.485585
0.549384
0.36291
0.506566
0.533546
0.54419
0.313102
0.314486
0.458543
0.508765
0.324432
0.32335
0.315525
0.319781
0.516792
0.530985
0.533244
0.246767
0.318751
0.536302
0.532524
0.321867
0.321782
0.364286
0.517197
0.532537
0.527528
0.538352
0.323091
0.325259
0.533131
0.33625
0.318823
0.298379
0.532898
0.306731
0.323467
0.449687
0.530454
0.490868
0.533763
0.532892
0.330863
0.318724
0.315818
0.369824
0.342874
0.314657
0.522366
0.537959
0.51633
0.534022
0.333609
0.29904
0.550973
0.325837
0.533303
0.505273
0.533394
0.303689
0.31702
0.511859
0.533221
0.436564
0.32037
0.524741
0.533811
0.44624
0.542608
0.548113
0.533152
0.486481
0.321225
0.532981
0.533228
0.478978
0.534331
0.533109
0.495428
0.53324
0.538057
0.321789
0.316826
0.301825
0.533409
0.393409
0.326462
0.531959
0.540343
0.290033
0.493209
0.282752
0.497259
0.364294
0.316036
0.551939
0.544338
0.323224
0.433036
0.533389
0.324623
0.523647
0.33178
0.332889
0.479656
0.474633
0.394722
0.532452
0.315143
0.543286
0.320198
0.317528
0.534468
0.322047
0.469701
0.317395
0.492501
0.46558
0.533226
0.5143
0.322075
0.320977
0.473951
0.332898
0.537712
0.357112
0.460205
0.533616
0.545745
0.344162
0.479305
0.489561
0.548209
0.536185
0.272398
0.319044
0.424958
0.487913
0.548657
0.294034
0.532487
0.43806
0.321734
0.308094
0.523481
0.517894
0.533196
0.533254
0.458471
0.532101
0.533525
0.523987
0.317441
0.514285
0.362241
0.538358
0.530867
0.241018
0.499775
0.545525
0.317533
0.317789
0.32815
0.533115
0.31826
0.47953
0.538434
0.515492
0.302908
0.524445
0.328096
0.463473
0.533607
0.53324
0.521001
0.53346
0.4829
0.527629
0.408486
0.528502
0.29678
0.533111
0.535591
0.317239
0.533265
0.532119
0.32642
0.3236
0.322643
0.541476
0.325285
0.533162
0.312373
0.549019
0.324011
0.379186
0.322325
0.541718
0.548051
0.414656
0.213397
0.482804
0.533253
0.316373
0.460776
0.55366
0.316929
0.457819
0.53321
0.550668
0.533446
0.324117
0.366285
0.539084
0.532243
0.486813
0.326014
0.311877
0.52638
0.533159
0.533247
0.533174
0.426796
0.534042
0.423076
0.536444
0.325991
0.327363
0.533184
0.54574
0.533388
0.330393
0.533044
0.43286
0.466338
0.304229
0.328122
0.546663
0.557904
0.435034
0.263158
0.533485
0.533283
0.31814
0.476567
0.538167
0.317792
0.354694
0.323283
0.472143
0.324462
0.310257
0.528277
0.363235
0.548895
0.498
0.318361
0.327352
0.55156
0.315774
0.321295
0.533221
0.329706
0.276149
0.460812
0.516139
0.534029
0.318993
0.253402
0.319055
0.506584
0.332218
0.534597
0.31774
0.532681
0.48868
0.529634
0.491614
0.527368
0.501949
0.532677
0.547016
0.536866
0.321218
0.320353
0.521286
0.533593
0.399618
0.481711
0.435997
0.533557
0.477618
0.286385
0.536217
0.552852
0.527092
0.322624
0.529165
0.302288
0.533906
0.393462
0.54104
0.534131
0.315828
0.537712
0.32377
0.333311
0.508185
0.297475
0.533304
0.533148
0.538452
0.300662
0.534884
0.321403
0.30394
0.31728
0.322737
0.471071
0.319758
0.490924
0.533533
0.265855
0.329187
0.385602
0.455719
0.492479
0.488361
0.303238
0.333452
0.318257
0.322367
0.212529
0.492044
0.498348
0.326844
0.533239
0.538011
0.323379
0.552785
0.531963
0.533556
0.322901
0.533202
0.527789
0.541315
0.538377
0.315476
0.535063
0.542721
0.529684
0.524176
0.533194
0.323839
0.322225
0.533744
0.423593
0.3182
0.534348
0.327878
0.449243
0.486911
0.514705
0.51788
0.306069
0.480225
0.311667
0.322664
0.536732
0.54146
0.544754
0.541282
0.511592
0.304228
0.54807
0.320713
0.398761
0.549706
0.533222
0.538679
0.32267
0.323449
0.548949
0.322818
0.540738
0.508502
0.336956
0.322261
0.535438
0.319334
0.534073
0.540327
0.509044
0.318934
0.316488
0.394906
0.403132
0.482891
0.369761
0.533268
0.488374
0.524566
0.533057
0.533426
0.322391
0.324062
0.542318
0.53319
0.484202
0.363109
0.327732
0.525208
0.319575
0.533213
0.4831
0.26059
0.537357
0.319302
0.507402
0.294872
0.545489
0.314654
0.533035
0.533493
0.277649
0.520658
0.508315
0.267198
0.533245
0.531634
0.434463
0.333044
0.28659
0.364572
0.546179
0.470482
0.318289
0.460359
0.535411
0.53342
0.295007
0.473666
0.519823
0.365325
0.533249
0.533567
0.235307
0.536618
0.533214
0.292759
0.4652
0.301561
0.495507
0.309589
0.332437
0.547842
0.316707
0.323147
0.322288
0.535305
0.512629
0.31616
0.533379
0.28343
0.516329
0.321385
0.515692
0.289927
0.533656
0.534082
0.502295
0.533363
0.435968
0.533516
0.533531
0.291826
0.499493
0.50656
0.377598
0.53291
0.390272
0.315937
0.547808
0.307858
0.447847
0.27869
0.532747
0.321485
0.328902
0.544428
0.532948
0.304437
0.537459
0.538055
0.533095
0.548368
0.533293
0.321179
0.552169
0.323786
0.325021
0.520103
0.539207
0.551815
0.522526
0.314045
0.308975
0.318189
0.51604
0.533492
0.285644
0.524821
0.33352
0.306521
0.304762
0.521275
0.303892
0.549416
0.537184
0.498633
0.530694
0.536246
0.446468
0.496758
0.344422
0.330483
0.30458
0.533285
0.533241
0.330405
0.491568
0.469771
0.49822
0.324388
0.310611
0.491475
0.220564
0.485918
0.462
0.32543
0.533343
0.518238
0.326795
0.533483
0.320463
0.537185
0.549683
0.527775
0.320721
0.372656
0.53209
0.23873
0.351846
0.530702
0.24545
0.53335
0.53611
0.495711
0.538352
0.260649
0.533305
0.536208
0.532151
0.287754
0.542761
0.322255
0.330924
0.523941
0.532722
0.533335
0.187186
0.534375
0.499217
0.5332
0.334363
0.330453
0.322958
0.540033
0.318199
0.318859
0.305823
0.46028
0.318645
0.241931
0.350762
0.534561
0.325077
0.533324
0.533458
0.533744
0.299794
0.535843
0.511941
0.53324
0.329521
0.522382
0.318628
0.309397
0.534783
0.319312
0.488228
0.534396
0.533214
0.320774
0.260434
0.319613
0.442317
0.533177
0.185265
0.527525
0.535196
0.539301
0.324158
0.321411
0.272517
0.469742
0.324121
0.53313
0.477013
0.533486
0.527235
0.318095
0.488565
0.322479
0.437412
0.509964
0.551523
0.443454
0.372913
0.522131
0.487325
0.543078
0.305402
0.292927
0.312838
0.540569
0.416837
0.53323
0.324412
0.314313
0.541308
0.53561
0.533236
0.318493
0.534373
0.440953
0.443322
0.472601
0.329257
0.322093
0.234136
0.532747
0.533572
0.522961
0.48453
0.271587
0.539274
0.517302
0.533574
0.533234
0.539088
0.552659
0.533879
0.538112
0.544275
0.324854
0.537275
0.542051
0.53309
0.538521
0.532409
0.45016
0.323615
0.332993
0.481898
0.322435
0.263406
0.53369
0.320425
0.501686
0.53596
0.512897
0.527735
0.326446
0.535156
0.314293
0.328947
0.533933
0.533363
0.534152
0.295973
0.545556
0.532559
0.479743
0.532679
0.323969
0.533117
0.54928
0.518527
0.31819
0.542289
0.321755
0.557436
0.300705
0.323716
0.407026
0.354323
0.551817
0.542616
0.53347
0.307055
0.533148
0.317852
0.320151
0.508584
0.388708
0.325394
0.532927
0.320928
0.406534
0.522454
0.496404
0.51715
0.387734
0.470323
0.513637
0.533751
0.448027
0.544742
0.422441
0.553533
0.481208
0.507027
0.332457
0.319501
0.353815
0.541296
0.325848
0.520539
0.537778
0.471343
0.53381
0.405037
0.532539
0.525214
0.323885
0.536854
0.476482
0.38184
0.479349
0.548779
0.504973
0.533376
0.323403
0.322174
0.529566
0.419259
0.424851
0.538581
0.533529
0.533792
0.548235
0.549376
0.485296
0.486178
0.551473
0.31944
0.321918
0.321952
0.296463
0.533242
0.361555
0.420014
0.537083
0.529166
0.325493
0.528571
0.556023
0.295008
0.296001
0.53317
0.538609
0.330365
0.306832
0.312495
0.533086
0.494482
0.321545
0.322676
0.325729
0.330689
0.27244
0.321174
0.554411
0.534242
0.530554
0.307716
0.513812
0.47344
0.481244
0.292837
0.324189
0.506924
0.533184
0.323538
0.533455
0.326821
0.5441
0.325686
0.533163
0.298341
0.517003
0.547395
0.302859
0.444708
0.319238
0.552452
0.330028
0.47653
0.328066
0.397362
0.319781
0.469514
0.316532
0.533343
0.533342
0.479529
0.526482
0.282032
0.515997
0.53324
0.546353
0.471487
0.517087
0.324677
0.305457
0.327807
0.54674
0.229928
0.545236
0.430793
0.538993
0.550619
0.359872
0.540944
0.320501
0.331314
0.31885
0.40104
0.405384
0.532892
0.318383
0.325811
0.534317
0.300724
0.318031
0.431838
0.291354
0.323413
0.333668
0.5535
0.514634
0.480158
0.326522
0.513258
0.532889
0.331137
0.256563
0.523471
0.53305
0.440188
0.409071
0.326887
0.287055
0.311314
0.530147
0.47827
0.409993
0.534907
0.323409
0.445956
0.319047
0.533309
0.545269
0.3252
0.32554
0.483747
0.426322
0.5471
0.544257
0.546524
0.537957
0.549793
0.307258
0.323675
0.309631
0.31706
0.421136
0.533346
0.516036
0.318275
0.300137
0.354466
0.355048
0.533704
0.495492
0.323454
0.243086
0.535934
0.327283
0.512542
0.542778
0.508851
0.533201
0.430728
0.315745
0.301354
0.481583
0.325437
0.328832
0.315578
0.53337
0.532433
0.284414
0.325191
0.53309
0.315381
0.534111
0.546765
0.315083
0.318194
0.324509
0.535623
0.329065
0.533142
0.53484
0.471708
0.302277
0.419952
0.542068
0.525362
0.320731
0.522861
0.483629
0.370263
0.539447
0.556951
0.322159
0.315695
0.510955
0.319778
0.31761
0.519205
0.274537
0.533071
0.53287
0.546135
0.48956
0.54554
0.535817
0.533617
0.317917
0.326253
0.492573
0.531623
0.372446
0.55251
0.256624
0.537808
0.518468
0.447138
0.508834
0.306053
0.361125
0.52928
0.542952
0.478515
0.547669
0.534899
0.533135
0.547532
0.533077
0.521652
0.510696
0.535694
0.533197
0.53362
0.280467
0.502041
0.290879
0.535123
0.537395
0.539964
0.500829
0.537948
0.316991
0.316223
0.242324
0.320502
0.507052
0.31343
0.322842
0.529803
0.323967
0.537572
0.311911
0.519421
0.535442
0.314984
0.302967
0.256878
0.540401
0.324076
0.532274
0.53744
0.319089
0.504681
0.439038
0.272864
0.329037
0.324095
0.538817
0.315701
0.536019
0.402138
0.319735
0.531766
0.533023
0.546496
0.326451
0.45086
0.324662
0.515384
0.533586
0.535754
0.323378
0.530804
0.538692
0.489422
0.320659
0.540286
0.327815
0.320724
0.529523
0.357719
0.549609
0.315032
0.323329
0.352368
0.496334
0.325943
0.231162
0.299932
0.376553
0.533192
0.536932
0.328978
0.468478
0.534995
0.443329
0.329903
0.258395
0.440929
0.326273
0.319155
0.530072
0.321464
0.324922
0.542607
0.554223
0.294968
0.542033
0.308797
0.533154
0.326914
0.509899
0.533462
0.538994
0.533377
0.321767
0.319289
0.32053
0.533674
0.512501
0.46835
0.426515
0.294837
0.240791
0.533242
0.318221
0.533483
0.303777
0.533479
0.5247
0.295466
0.28919
0.322278
0.325333
0.290229
0.48261
0.509149
0.298688
0.536514
0.499831
0.314548
0.319024
0.554106
0.325092
0.535137
0.339391
0.538651
0.51357
0.535758
0.533215
0.321918
0.549402
0.53367
0.555663
0.319417
0.475739
0.473349
0.260423
0.541296
0.499427
0.549264
0.514038
0.549837
0.528365
0.551171
0.533072
0.531833
0.307943
0.545697
0.322454
0.360912
0.530454
0.322401
0.520909
0.47511
0.325105
0.490592
0.316976
0.311552
0.523334
0.467122
0.553804
0.324043
0.513793
0.487097
0.317043
0.305098
0.509575
0.533005
0.299457
0.306406
0.537909
0.553602
0.31012
0.503417
0.548138
0.51689
0.29657
0.328077
0.31483
0.514797
0.312342
0.523456
0.54056
0.533266
0.473558
0.535714
0.32424
0.519273
0.486932
0.547217
0.440923
0.325568
0.317898
0.32996
0.544546
0.538375
0.337286
0.511851
0.249589
0.503753
0.53667
0.327284
0.482672
0.524316
0.488383
0.306142
0.326082
0.28974
0.539996
0.549519
0.485072
0.408632
0.535702
0.323834
0.497483
0.533193
0.530986
0.30592
0.494928
0.325307
0.481177
0.331957
0.53085
0.523381
0.326766
0.539767
0.334735
0.53319
0.500646
0.533115
0.540506
0.325442
0.533261
0.533305
0.533153
0.531602
0.384156
0.533186
0.323575
0.533456
0.327963
0.299612
0.325371
0.289456
0.325035
0.30203
0.550135
0.290712
0.318453
0.515226
0.540147
0.511062
0.322247
0.53497
0.534252
0.533212
0.274326
0.452372
0.535589
0.318998
0.30289
0.318805
0.492774
0.404112
0.313649
0.458334
0.333557
0.533298
0.398647
0.326904
0.375688
0.509969
0.285221
0.533342
0.321898
0.368443
0.297253
0.532599
0.30376
0.510483
0.533188
0.462868
0.328189
0.32033
0.527339
0.552753
0.306879
0.303904
0.533569
0.320056
0.541924
0.309172
0.442498
0.330521
0.535726
0.323121
0.551655
0.299337
0.536483
0.53648
0.543597
0.533261
0.32547
0.325902
0.321999
0.497885
0.529086
0.495055
0.407555
0.326468
0.539793
0.26202
0.510391
0.455667
0.315398
0.323959
0.543877
0.530674
0.326857
0.533331
0.531277
0.543822
0.546146
0.321716
0.499531
0.324015
0.543899
0.313791
0.533328
0.505505
0.513925
0.552138
0.315296
0.557188
0.317666
0.322464
0.534013
0.533273
0.431479
0.530261
0.533229
0.324491
0.543551
0.529696
0.549715
0.30488
0.337921
0.531776
0.315866
0.538152
0.537519
0.52308
0.53494
0.227975
0.353469
0.509802
0.326203
0.518388
0.553215
0.372742
0.520646
0.215596
0.483368
0.543761
0.530551
0.520922
0.324533
0.330072
0.533117
0.521324
0.325239
0.262676
0.322299
0.32576
0.318819
0.333574
0.287008
0.319851
0.532573
0.326303
0.2928
0.537046
0.429915
0.533093
0.31377
0.324558
0.535403
0.369075
0.373801
0.547986
0.293741
0.518494
0.533491
0.481182
0.517489
0.318789
0.537245
0.533603
0.319391
0.319866
0.316012
0.472426
0.480551
0.549701
0.533926
0.531672
0.520396
0.292763
0.538096
0.533611
0.509257
0.322969
0.536124
0.449391
0.2873
0.342603
0.321101
0.321603
0.321931
0.464543
0.523478
0.522318
0.319159
0.30871
0.548071
0.282287
0.537537
0.533305
0.523382
0.530773
0.535412
0.319296
0.323785
0.334062
0.444937
0.317826
0.534436
0.319146
0.534732
0.533361
0.536999
0.298288
0.354412
0.324252
0.536096
0.305969
0.318549
0.533449
0.517243
0.484879
0.533783
0.505279
0.541528
0.321597
0.493249
0.545573
0.421283
0.535065
0.53915
0.542472
0.36536
0.338847
0.550844
0.395591
0.479674
0.323336
0.502834
0.523786
0.317831
0.311569
0.513683
0.402594
0.543475
0.537511
0.316243
0.326545
0.53322
0.299725
0.324168
0.52516
0.510426
0.323613
0.5275
0.533383
0.502398
0.299259
0.465582
0.322576
0.527575
0.545014
0.541409
0.519985
0.533358
0.248402
0.283273
0.529947
0.319707
0.480849
0.320808
0.53633
0.331746
0.507606
0.545204
0.533333
0.323406
0.533128
0.533178
0.318968
0.503407
0.314403
0.554487
0.323537
0.298651
0.314917
0.526902
0.530065
0.25689
0.238911
0.493159
0.549391