# vtk DataFile Version 1.0
unstructured grid
ascii
DATASET UNSTRUCTURED_GRID
points 13672 float
0.0796578 -0.059106 0
0.00128732 0.00159165 0
0.00227961 -0.00102548 0
0.0791586 -0.0598787 0
-0.0546216 0.01 0
0.000495206 0.025 0
0.0800549 -0.035 0
0.135172 -0.08 0
-0.0546216 -0.0451168 0
0.000495206 -0.0301168 0
0.0800549 -0.0901168 0
0.135172 -0.135117 0
-0.0546216 -0.0451168 -0.00551168
0.000495206 -0.0301168 -0.00551168
0.0800549 -0.0901168 -0.00551168
0.135172 -0.135117 -0.00551168
0.135172 -0.08 -0.00551168
0.0800549 -0.035 -0.00551168
0.000495206 0.025 -0.00551168
-0.0546216 0.01 -0.00551168
0.00128732 0.00159165 -0.00551168
0.00227961 -0.00102548 -0.00551168
0.0791586 -0.0598787 -0.00551168
0.0796578 -0.059106 -0.00551168
0.00165953 -0.000990923 0
0.00119576 -0.000874076 0
0.000866021 -0.000641801 0
0.000645147 -0.000349912 0
0.00052235 -1.7281e-05 0
0.00049972 0.000348016 0
0.000601632 0.000737716 0
0.000861774 0.0011403 0
0.00157235 0.00183217 0
0.00188647 0.00206725 0
0.00222612 0.00230203 0
0.00258713 0.00254351 0
0.00296826 0.00279524 0
0.00337118 0.00305664 0
0.00379785 0.00332658 0
0.00425045 0.00360349 0
0.00473139 0.00388521 0
0.0052432 0.00416895 0
0.0057881 0.00445204 0
0.00636753 0.00473281 0
0.00698281 0.00500961 0
0.00763526 0.00528058 0
0.00832616 0.00554366 0
0.00905691 0.00579603 0
0.00982918 0.00603333 0
0.0106445 0.00625033 0
0.0115038 0.00644128 0
0.0124073 0.00660297 0
0.0133543 0.00673414 0
0.0143444 0.00683382 0
0.0153769 0.00690031 0
0.0164512 0.00693173 0
0.0175666 0.00692547 0
0.0187219 0.00687822 0
0.0199156 0.00678477 0
0.0211454 0.00663864 0
0.0224084 0.00643275 0
0.0237018 0.00616676 0
0.0250249 0.00584739 0
0.026375 0.00547298 0
0.0277479 0.00503752 0
0.0291386 0.00453545 0
0.0305433 0.0039653 0
0.0319572 0.0033256 0
0.0333681 0.00260019 0
0.034775 0.00179799 0
0.0361793 0.000930615 0
0.0375798 3.12222e-06 0
0.0389689 -0.000988429 0
0.0403357 -0.00205109 0
0.041675 -0.00318283 0
0.0429849 -0.00437751 0
0.0442643 -0.00562904 0
0.0455126 -0.00693089 0
0.0467314 -0.00827518 0
0.0479204 -0.00965638 0
0.0490661 -0.0110799 0
0.0501515 -0.0125519 0
0.0511696 -0.0140695 0
0.0521492 -0.0156071 0
0.0531202 -0.0171411 0
0.0540851 -0.0186663 0
0.0550431 -0.0201798 0
0.0559923 -0.0216793 0
0.0569311 -0.0231626 0
0.0578582 -0.0246273 0
0.0587723 -0.0260715 0
0.0596721 -0.027493 0
0.0605563 -0.02889 0
0.0614241 -0.0302609 0
0.0622742 -0.0316042 0
0.063106 -0.0329183 0
0.0639186 -0.034202 0
0.0647113 -0.0354543 0
0.0654835 -0.0366743 0
0.0662345 -0.0378613 0
0.0669642 -0.0390145 0
0.0676726 -0.0401333 0
0.0683597 -0.0412172 0
0.0690246 -0.0422665 0
0.0696662 -0.0432819 0
0.0702841 -0.0442636 0
0.0708793 -0.0452111 0
0.0714538 -0.0461237 0
0.072009 -0.047001 0
0.0725452 -0.0478434 0
0.0730611 -0.0486524 0
0.073556 -0.0494294 0
0.0740291 -0.0501756 0
0.0744812 -0.0508916 0
0.0749138 -0.0515773 0
0.0753285 -0.0522331 0
0.0757266 -0.0528592 0
0.076109 -0.0534564 0
0.0764753 -0.0540264 0
0.0768243 -0.054571 0
0.0771553 -0.0550919 0
0.0774679 -0.0555901 0
0.0777617 -0.0560669 0
0.0780369 -0.056523 0
0.0782958 -0.0569578 0
0.0785421 -0.0573703 0
0.0787786 -0.0577603 0
0.0790073 -0.0581279 0
0.0792295 -0.058474 0
0.0794462 -0.0587995 0
0.0798803 -0.0594162 0
0.0800272 -0.0596588 0
0.0800357 -0.0598891 0
0.0799275 -0.0600784 0
0.0797205 -0.0601773 0
0.0794593 -0.0601051 0
0.0789155 -0.0596491 0
0.0786707 -0.0593963 0
0.0784111 -0.0591319 0
0.0781372 -0.0588542 0
0.0778566 -0.0585548 0
0.0775715 -0.0582308 0
0.0772803 -0.0578828 0
0.0769832 -0.0575099 0
0.0766822 -0.0571097 0
0.0763801 -0.0566796 0
0.0760759 -0.0562196 0
0.0757623 -0.0557337 0
0.0754359 -0.0552232 0
0.0750951 -0.0546879 0
0.0747379 -0.054128 0
0.0743626 -0.0535435 0
0.0739688 -0.0529338 0
0.0735559 -0.0522981 0
0.0731238 -0.0516357 0
0.0726718 -0.050946 0
0.0721991 -0.0502288 0
0.0717046 -0.049484 0
0.0711872 -0.0487117 0
0.0706461 -0.047912 0
0.0700804 -0.0470849 0
0.0694892 -0.0462308 0
0.0688718 -0.0453499 0
0.0682271 -0.0444431 0
0.0675544 -0.043511 0
0.0668527 -0.0425546 0
0.0661215 -0.0415748 0
0.06536 -0.040573 0
0.0645676 -0.0395504 0
0.0637439 -0.0385087 0
0.0628887 -0.0374493 0
0.062002 -0.0363741 0
0.0610838 -0.0352847 0
0.0601345 -0.0341831 0
0.0591547 -0.033071 0
0.0581456 -0.0319502 0
0.0571083 -0.0308224 0
0.0560444 -0.0296893 0
0.0549562 -0.028552 0
0.053845 -0.0274126 0
0.0527113 -0.0262746 0
0.051554 -0.0251427 0
0.0503724 -0.0240222 0
0.0491675 -0.0229164 0
0.047941 -0.0218282 0
0.0466955 -0.0207597 0
0.0454337 -0.0197126 0
0.0441592 -0.0186878 0
0.0428751 -0.0176863 0
0.0415841 -0.0167097 0
0.0402878 -0.0157609 0
0.0389879 -0.0148428 0
0.0376864 -0.0139575 0
0.0363853 -0.013107 0
0.0350871 -0.0122931 0
0.0337942 -0.0115164 0
0.0325095 -0.0107772 0
0.0312357 -0.0100756 0
0.0299758 -0.00941024 0
0.0287337 -0.00877784 0
0.0275126 -0.00817571 0
0.0263139 -0.00760375 0
0.0251376 -0.00706528 0
0.0239829 -0.0065649 0
0.0228537 -0.00609619 0
0.0217522 -0.00565563 0
0.0206795 -0.00524226 0
0.0196364 -0.00485507 0
0.0186233 -0.00449318 0
0.0176408 -0.00415577 0
0.016689 -0.00384204 0
0.0157682 -0.00355115 0
0.0148783 -0.00328218 0
0.0140192 -0.00303468 0
0.0131906 -0.00280795 0
0.0123925 -0.00260016 0
0.0116246 -0.00241012 0
0.0108864 -0.00223769 0
0.0101774 -0.00208212 0
0.00949701 -0.00194206 0
0.00884483 -0.0018163 0
0.0082202 -0.0017039 0
0.00762247 -0.00160391 0
0.00705097 -0.00151528 0
0.006505 -0.00143697 0
0.0059838 -0.00136806 0
0.00548662 -0.00130772 0
0.00501265 -0.00125519 0
0.00456114 -0.00120954 0
0.00413136 -0.00116914 0
0.00372257 -0.00113251 0
0.00333398 -0.00109853 0
0.00296466 -0.00106798 0
0.00261363 -0.0010431 0
-0.052721 -0.0445996 0
-0.0508204 -0.0440823 0
-0.0489199 -0.0435651 0
-0.0470193 -0.0430478 0
-0.0451187 -0.0425306 0
-0.0432181 -0.0420134 0
-0.0413175 -0.0414961 0
-0.039417 -0.0409789 0
-0.0375164 -0.0404616 0
-0.0356158 -0.0399444 0
-0.0337152 -0.0394271 0
-0.0318146 -0.0389099 0
-0.0299141 -0.0383927 0
-0.0280135 -0.0378754 0
-0.0261129 -0.0373582 0
-0.0242123 -0.0368409 0
-0.0223117 -0.0363237 0
-0.0204112 -0.0358065 0
-0.0185106 -0.0352892 0
-0.01661 -0.034772 0
-0.0147094 -0.0342547 0
-0.0128088 -0.0337375 0
-0.0109083 -0.0332202 0
-0.00900769 -0.032703 0
-0.00710711 -0.0321858 0
-0.00520653 -0.0316685 0
-0.00330595 -0.0311513 0
-0.00140537 -0.030634 0
0.00190689 -0.0299614 0
0.00332271 -0.0298498 0
0.00474133 -0.0297825 0
0.00616136 -0.0297597 0
0.0075814 -0.0297814 0
0.00900007 -0.0298477 0
0.010416 -0.0299583 0
0.0118278 -0.0301127 0
0.0132342 -0.0303103 0
0.0146339 -0.0305504 0
0.0160259 -0.0308322 0
0.0174091 -0.0311546 0
0.0187824 -0.0315166 0
0.020145 -0.031917 0
0.0214961 -0.0323546 0
0.0228351 -0.032828 0
0.0241613 -0.0333361 0
0.0254744 -0.0338774 0
0.0267738 -0.0344507 0
0.0280592 -0.0350545 0
0.0293306 -0.0356877 0
0.0305875 -0.0363488 0
0.0318301 -0.0370367 0
0.0330581 -0.0377501 0
0.0342717 -0.0384879 0
0.0354708 -0.0392489 0
0.0366556 -0.0400321 0
0.0378262 -0.0408363 0
0.0389828 -0.0416607 0
0.0401254 -0.0425042 0
0.0412543 -0.0433659 0
0.0423698 -0.0442451 0
0.043472 -0.0451408 0
0.0445612 -0.0460523 0
0.0456375 -0.0469789 0
0.0467013 -0.0479199 0
0.0477529 -0.0488746 0
0.0487923 -0.0498424 0
0.04982 -0.0508227 0
0.0508362 -0.051815 0
0.051841 -0.0528187 0
0.0528348 -0.0538333 0
0.0538178 -0.0548584 0
0.0547903 -0.0558935 0
0.0557524 -0.0569382 0
0.0567045 -0.0579922 0
0.0576467 -0.0590549 0
0.0585792 -0.0601261 0
0.0595024 -0.0612055 0
0.0604163 -0.0622926 0
0.0613212 -0.0633873 0
0.0622174 -0.0644891 0
0.0631049 -0.0655979 0
0.0639841 -0.0667134 0
0.064855 -0.0678353 0
0.0657179 -0.0689633 0
0.0665729 -0.0700974 0
0.0674202 -0.0712372 0
0.06826 -0.0723826 0
0.0690925 -0.0735333 0
0.0699178 -0.0746892 0
0.070736 -0.0758501 0
0.0715473 -0.0770159 0
0.0723518 -0.0781863 0
0.0731498 -0.0793612 0
0.0739412 -0.0805405 0
0.0747264 -0.081724 0
0.0755053 -0.0829116 0
0.0762781 -0.0841033 0
0.0770449 -0.0852987 0
0.0778059 -0.0864979 0
0.0785611 -0.0877007 0
0.0793108 -0.088907 0
0.0814681 -0.0912706 0
0.0828814 -0.0924245 0
0.0842946 -0.0935783 0
0.0857079 -0.0947322 0
0.0871211 -0.095886 0
0.0885344 -0.0970399 0
0.0899476 -0.0981937 0
0.0913609 -0.0993476 0
0.0927741 -0.100501 0
0.0941874 -0.101655 0
0.0956006 -0.102809 0
0.0970139 -0.103963 0
0.0984272 -0.105117 0
0.0998404 -0.106271 0
0.101254 -0.107424 0
0.102667 -0.108578 0
0.10408 -0.109732 0
0.105493 -0.110886 0
0.106907 -0.11204 0
0.10832 -0.113194 0
0.109733 -0.114348 0
0.111146 -0.115501 0
0.11256 -0.116655 0
0.113973 -0.117809 0
0.115386 -0.118963 0
0.116799 -0.120117 0
0.118213 -0.121271 0
0.119626 -0.122424 0
0.121039 -0.123578 0
0.122452 -0.124732 0
0.123866 -0.125886 0
0.125279 -0.12704 0
0.126692 -0.128194 0
0.128105 -0.129348 0
0.129519 -0.130501 0
0.130932 -0.131655 0
0.132345 -0.132809 0
0.133758 -0.133963 0
0.135172 -0.133216 0
0.135172 -0.131316 0
0.135172 -0.129415 0
0.135172 -0.127514 0
0.135172 -0.125614 0
0.135172 -0.123713 0
0.135172 -0.121813 0
0.135172 -0.119912 0
0.135172 -0.118012 0
0.135172 -0.116111 0
0.135172 -0.11421 0
0.135172 -0.11231 0
0.135172 -0.110409 0
0.135172 -0.108509 0
0.135172 -0.106608 0
0.135172 -0.104708 0
0.135172 -0.102807 0
0.135172 -0.100906 0
0.135172 -0.0990058 0
0.135172 -0.0971052 0
0.135172 -0.0952046 0
0.135172 -0.0933041 0
0.135172 -0.0914035 0
0.135172 -0.0895029 0
0.135172 -0.0876023 0
0.135172 -0.0857017 0
0.135172 -0.0838012 0
0.135172 -0.0819006 0
0.133758 -0.0788462 0
0.132345 -0.0776923 0
0.130932 -0.0765385 0
0.129519 -0.0753846 0
0.128105 -0.0742308 0
0.126692 -0.0730769 0
0.125279 -0.0719231 0
0.123866 -0.0707692 0
0.122452 -0.0696154 0
0.121039 -0.0684615 0
0.119626 -0.0673077 0
0.118213 -0.0661538 0
0.116799 -0.065 0
0.115386 -0.0638462 0
0.113973 -0.0626923 0
0.11256 -0.0615385 0
0.111146 -0.0603846 0
0.109733 -0.0592308 0
0.10832 -0.0580769 0
0.106907 -0.0569231 0
0.105493 -0.0557692 0
0.10408 -0.0546154 0
0.102667 -0.0534615 0
0.101254 -0.0523077 0
0.0998404 -0.0511538 0
0.0984272 -0.05 0
0.0970139 -0.0488462 0
0.0956006 -0.0476923 0
[...]
CELL_DATA 13116
SCALARS rho float
LOOKUP_TABLE default
0.433667
0.517035
0.287907
0.556213
0.547465
0.536944
0.343876
0.549046
0.414963
0.551019
0.353278
0.287942
0.547689
0.311453
0.32437
0.536961
0.411202
0.543827
0.534018
0.310282
0.436863
0.320954
0.311524
0.545315
0.476689
0.495845
0.551049
0.311672
0.475029
0.505187
0.537217
0.298511
0.436189
0.351887
0.339599
0.435384
0.519844
0.528732
0.537093
0.535122
0.535714
0.551785
0.338048
0.290417
0.532662
0.533821
0.499934
0.536367
0.332598
0.410879
0.546076
0.349329
0.312419
0.406094
0.435237
0.458844
0.293265
0.542776
0.420899
0.324033
0.312685
0.552291
0.509816
0.537112
0.537243
0.319037
0.537764
0.524945
0.538415
0.537215
0.324526
0.459069
0.315914
0.31311
0.537346
0.314787
0.503982
0.543669
0.349248
0.541498
0.530037
0.500952
0.54542
0.535805
0.524661
0.354167
0.322696
0.52261
0.520003
0.334946
0.293193
0.518373
0.547359
0.523646
0.507709
0.469263
0.478579
0.537342
0.537301
0.468277
0.529989
0.464512
0.535144
0.343051
0.486833
0.321819
0.283963
0.374788
0.311847
0.482946
0.397455
0.496742
0.467759
0.532725
0.54196
0.537737
0.317691
0.315306
0.541171
0.538382
0.525188
0.312537
0.538651
0.302153
0.518582
0.346605
0.321331
0.400077
0.309132
0.41202
0.541394
0.535116
0.394174
0.329449
0.378305
0.460281
0.537602
0.540241
0.529281
0.538149
0.49164
0.502489
0.399037
0.492337
0.505877
0.305363
0.339183
0.494528
0.545616
0.542821
0.426209
0.535417
0.53638
0.311154
0.548384
0.525767
0.311055
0.534388
0.53732
0.522805
0.544656
0.354421
0.544237
0.311561
0.308289
0.55071
0.516609
0.543467
0.341145
0.364355
0.33265
0.537559
0.326811
0.387078
0.537167
0.311896
0.328928
0.317576
0.493731
0.536727
0.312342
0.341369
0.413669
0.520116
0.536713
0.41931
0.299532
0.535383
0.477429
0.362091
0.498753
0.492973
0.537163
0.31404
0.489498
0.536975
0.548546
0.534945
0.519013
0.316963
0.343336
0.487009
0.395931
0.314344
0.541703
0.531929
0.356602
0.477006
0.325743
0.343178
0.312624
0.537271
0.310436
0.308073
0.343769
0.31056
0.298797
0.53679
0.516067
0.344842
0.29379
0.537678
0.392752
0.314425
0.436332
0.551546
0.504088
0.314657
0.53731
0.309342
0.554104
0.295179
0.537111
0.45106
0.537373
0.529468
0.53714
0.319636
0.342373
0.522674
0.537401
0.53693
0.537569
0.536974
0.543597
0.328901
0.542757
0.549037
0.53729
0.339391
0.332312
0.533337
0.54076
0.537149
0.53792
0.423462
0.5349
0.3547
0.327948
0.316838
0.32562
0.474033
0.548377
0.502979
0.326481
0.531142
0.313675
0.341577
0.488479
0.323999
0.497379
0.54886
0.537437
0.542529
0.322506
0.537443
0.534044
0.537284
0.54014
0.341235
0.326239
0.312397
0.456754
0.312615
0.32517
0.26345
0.253912
0.523827
0.313812
0.524547
0.548118
0.299287
0.29722
0.313111
0.356181
0.283839
0.521551
0.462779
0.492313
0.324815
0.537044
0.46133
0.325688
0.325175
0.536977
0.54075
0.535141
0.303521
0.536983
0.335759
0.534604
0.551861
0.541676
0.551066
0.31481
0.537403
0.32691
0.536309
0.551874
0.523237
0.334124
0.263453
0.549493
0.322995
0.510954
0.552224
0.285026
0.536925
0.54519
0.319395
0.530944
0.547273
0.306264
0.54251
0.357338
0.452068
0.531686
0.362023
0.534633
0.32741
0.543625
0.272804
0.536911
0.458857
0.549429
0.314115
0.285629
0.525738
0.315226
0.5411
0.482095
0.335618
0.537599
0.305768
0.314729
0.539381
0.436024
0.523786
0.326252
0.31102
0.542618
0.547955
0.341231
0.547031
0.316504
0.323301
0.537132
0.535772
0.3669
0.336312
0.540224
0.537223
0.537013
0.529772
0.542372
0.426511
0.257055
0.326244
0.307791
0.537032
0.310259
0.412176
0.289906
0.304494
0.280971
0.373989
0.111732
0.315708
0.526535
0.252095
0.544823
0.474708
0.535318
0.516287
0.543277
0.313621
0.325
0.323231
0.264123
0.539109
0.464633
0.53539
0.475214
0.507155
0.485637
0.499613
0.488192
0.503073
0.541361
0.541079
0.536962
0.322733
0.362718
0.430648
0.320843
0.459907
0.45767
0.312552
0.537612
0.537433
0.315268
0.316983
0.337135
0.299849
0.494484
0.327628
0.313922
0.537384
0.318751
0.450909
0.340139
0.536539
0.529885
0.284727
0.328413
0.538973
0.357048
0.347266
0.298309
0.337368
0.311781
0.323641
0.317714
0.319557
0.341317
0.351855
0.46187
0.299767
0.523779
0.295364
0.326322
0.398346
0.305203
0.335236
0.303242
0.533234
0.345942
0.502056
0.377789
0.31914
0.478936
0.521819
0.353413
0.536584
0.486725
0.485782
0.315852
0.537353
0.314075
0.543101
0.537232
0.310846
0.331248
0.476336
0.266232
0.362827
0.460964
0.283997
0.53364
0.508086
0.29641
0.327214
0.327944
0.383712
0.323744
0.308929
0.325778
0.326926
0.553152
0.55384
0.360827
0.470664
0.377787
0.48943
0.28858
0.321821
0.418233
0.311056
0.534995
0.234596
0.296408
0.390902
0.532059
0.5131
0.44106
0.283265
0.331859
0.449012
0.549306
0.53719
0.446196
0.490299
0.473144
0.344584
0.5291
0.44766
0.521768
0.254143
0.285725
0.531981
0.548727
0.515428
0.551761
0.515277
0.49542
0.543758
0.522062
0.535332
0.336894
0.531783
0.269767
0.325818
0.313378
0.555374
0.5324
0.248252
0.523891
0.487967
0.336402
0.537011
0.540291
0.538626
0.31159
0.322188
0.542368
0.355254
0.323517
0.296975
0.340725
0.533105
0.309404
0.555428
0.300162
0.51748
0.545183
0.537878
0.5481
0.352866
0.29925
0.533656
0.555071
0.512552
0.552911
0.548824
0.395369
0.31775
0.312259
0.536906
0.416063
0.338848
0.356943
0.301493
0.531784
0.535618
0.253749
0.320208
0.522186
0.369917
0.52722
0.517072
0.308666
0.310132
0.509433
0.537434
0.31233
0.512349
0.516253
0.533136
0.314378
0.537532
0.300404
0.537388
0.520828
0.336164
0.299366
0.323459
0.537357
0.309524
0.336376
0.315624
0.536961
0.53709
0.341633
0.32484
0.336599
0.537065
0.315119
0.536894
0.305666
0.461978
0.551568
0.297901
0.311793
0.311434
0.395771
0.313765
0.504512
0.30649
0.32256
0.536662
0.329837
0.537195
0.508007
0.537362
0.326588
0.535553
0.54645
0.548276
0.536935
0.518254
0.537052
0.301387
0.537214
0.34654
0.530641
0.33158
0.544351
0.398408
0.339625
0.537213
0.544105
0.321748
0.490335
0.292966
0.32421
0.537375
0.532978
0.290558
0.30374
0.348602
0.303325
0.528778
0.545458
0.314399
0.296232
0.541062
0.540016
0.46348
0.546033
0.535822
0.355373
0.549524
0.33754
0.545977
0.318932
0.467235
0.380716
0.537338
0.524728
0.454306
0.280629
0.313162
0.534541
0.475486
0.409969
0.545639
0.325534
0.532697
0.548064
0.290581
0.360742
0.546849
0.283967
0.53717
0.523435
0.259875
0.538819
0.506376
0.300376
0.536079
0.312055
0.518023
0.302281
0.537224
0.508381
0.315595
0.537107
0.544624
0.542951
0.488927
0.530403
0.459442
0.318949
0.337102
0.28581
0.31463
0.537604
0.438659
0.539113
0.545121
0.325279
0.314472
0.533516
0.552231
0.53931
0.548824
0.324864
0.541211
0.548951
0.309646
0.297356
0.541304
0.533331
0.521361
0.310647
0.465774
0.298903
0.535363
0.506372
0.537163
0.522982
0.336438
0.53013
0.524481
0.546562
0.531926
0.536182
0.343247
0.542084
0.341694
0.489665
0.550021
0.36387
0.509233
0.537149
0.544772
0.331065
0.334479
0.46041
0.510228
0.360748
0.338164
0.317764
0.350373
0.518905
0.532337
0.536997
0.253695
0.354655
0.538293
0.533388
0.305825
0.31584
0.365343
0.519063
0.53498
0.52918
0.539342
0.34425
0.362958
0.537514
0.300769
0.305562
0.30885
0.535818
0.304738
0.343398
0.453052
0.532207
0.49385
0.537066
0.535585
0.31899
0.328282
0.317667
0.378345
0.345483
0.294816
0.523815
0.538946
0.518226
0.536559
0.315986
0.323936
0.551532
0.344467
0.536203
0.508011
0.537283
0.290537
0.336607
0.513685
0.537191
0.443087
0.306421
0.526436
0.537055
0.44982
0.542986
0.547987
0.537482
0.490486
0.324431
0.535722
0.537147
0.483303
0.5356
0.537644
0.498005
0.537524
0.539671
0.32333
0.32165
0.322398
0.537251
0.397748
0.354792
0.533389
0.541477
0.282602
0.49602
0.282624
0.500017
0.3721
0.330754
0.552508
0.544979
0.339313
0.43617
0.537226
0.311564
0.523975
0.317104
0.322708
0.482553
0.47669
0.39784
0.534964
0.315918
0.544125
0.329074
0.30608
0.53718
0.336607
0.47274
0.304102
0.49546
0.468367
0.53753
0.515007
0.327169
0.321647
0.47891
0.339813
0.539042
0.360071
0.463713
0.536771
0.546368
0.350307
0.480834
0.492473
0.548794
0.538133
0.275472
0.322637
0.427254
0.490728
0.54921
0.302117
0.535052
0.444519
0.323197
0.295171
0.524438
0.519711
0.53756
0.537364
0.464877
0.533368
0.537007
0.525543
0.304306
0.515589
0.363276
0.539331
0.532844
0.246613
0.495519
0.546367
0.325041
0.321444
0.319376
0.537643
0.355111
0.482288
0.539569
0.516722
0.288833
0.526277
0.313529
0.465355
0.53713
0.537031
0.522516
0.537057
0.484863
0.529057
0.413026
0.530217
0.299779
0.536107
0.537799
0.325452
0.537484
0.533475
0.311426
0.326233
0.31042
0.542064
0.344012
0.537444
0.313958
0.548326
0.330875
0.381424
0.307999
0.54266
0.548337
0.421834
0.213662
0.48491
0.536767
0.327551
0.462774
0.554182
0.294744
0.460866
0.537238
0.551274
0.536285
0.309368
0.372618
0.540322
0.53453
0.490831
0.337791
0.330667
0.528156
0.537567
0.53743
0.537602
0.432218
0.535464
0.428648
0.537631
0.337673
0.313875
0.537594
0.546582
0.536956
0.318722
0.535985
0.438442
0.470372
0.311073
0.330494
0.54732
0.556965
0.437353
0.261862
0.535994
0.537457
0.34383
0.478521
0.539156
0.34278
0.330172
0.327245
0.476546
0.318248
0.335716
0.530035
0.366395
0.54944
0.500602
0.341195
0.319172
0.5519
0.324586
0.327084
0.537192
0.320633
0.28915
0.463695
0.514473
0.535571
0.353626
0.259517
0.347608
0.509146
0.321369
0.536128
0.328953
0.53411
0.487786
0.531623
0.495153
0.529036
0.504731
0.535154
0.547774
0.538325
0.309083
0.330298
0.523162
0.537035
0.404438
0.485545
0.438849
0.537059
0.481995
0.284259
0.537918
0.553407
0.528899
0.334492
0.530771
0.294898
0.535713
0.398533
0.541818
0.536886
0.330963
0.538992
0.336927
0.338783
0.510728
0.307867
0.534164
0.537671
0.537651
0.301268
0.537351
0.352087
0.290622
0.303727
0.343104
0.476085
0.327579
0.49435
0.537099
0.264613
0.31422
0.388861
0.457511
0.494779
0.492275
0.329019
0.324268
0.343005
0.308095
0.211349
0.494499
0.500521
0.311645
0.536916
0.539165
0.327463
0.553395
0.532817
0.537093
0.334625
0.537366
0.529352
0.542336
0.539088
0.32345
0.536538
0.543702
0.531292
0.525048
0.536543
0.326985
0.307879
0.535707
0.426194
0.334695
0.537129
0.312819
0.451524
0.489902
0.516397
0.519437
0.292649
0.484293
0.316376
0.33361
0.537611
0.542562
0.545607
0.542368
0.513623
0.290811
0.548793
0.327079
0.403603
0.550277
0.537305
0.539947
0.338099
0.322768
0.549604
0.324472
0.541909
0.509668
0.340281
0.32082
0.536967
0.305924
0.536823
0.541525
0.511319
0.305574
0.325189
0.397116
0.408032
0.485703
0.372014
0.536476
0.492289
0.525948
0.537618
0.534808
0.332058
0.321543
0.543379
0.536553
0.488422
0.364268
0.315274
0.526819
0.327749
0.535659
0.484581
0.261584
0.538675
0.351405
0.506689
0.289638
0.546329
0.321891
0.534751
0.536774
0.268171
0.52076
0.509788
0.257684
0.536982
0.533935
0.437555
0.304891
0.294449
0.366759
0.546865
0.475896
0.311872
0.462405
0.536709
0.536715
0.280776
0.477464
0.521775
0.370125
0.536479
0.536374
0.238454
0.538181
0.537273
0.28866
0.468601
0.300075
0.498514
0.308864
0.323753
0.548402
0.343046
0.336425
0.327297
0.537574
0.514917
0.329445
0.535849
0.293705
0.51835
0.351023
0.517838
0.291186
0.536748
0.536051
0.504991
0.537051
0.438963
0.536809
0.537073
0.292733
0.50087
0.508946
0.387002
0.534304
0.393994
0.341363
0.548536
0.314222
0.44993
0.280629
0.535314
0.30662
0.313747
0.545047
0.535526
0.296243
0.538632
0.538995
0.53763
0.548443
0.537386
0.325687
0.55291
0.303252
0.310835
0.520786
0.540175
0.551079
0.523989
0.299705
0.308354
0.347816
0.518195
0.53709
0.294049
0.522898
0.319482
0.30614
0.315402
0.522433
0.318139
0.550066
0.538601
0.499944
0.532187
0.537742
0.450412
0.499828
0.346977
0.316721
0.297295
0.537389
0.537398
0.317357
0.494065
0.474486
0.501158
0.309794
0.324092
0.495164
0.223877
0.49006
0.467613
0.307364
0.53678
0.52028
0.324981
0.535048
0.328048
0.538953
0.550216
0.52943
0.328073
0.376156
0.533006
0.244482
0.356669
0.532453
0.253557
0.536731
0.53811
0.49713
0.539281
0.25877
0.537251
0.537102
0.534445
0.290673
0.543722
0.326302
0.305844
0.525719
0.535137
0.536973
0.190001
0.537058
0.500485
0.537352
0.322238
0.315054
0.349644
0.541183
0.345143
0.329636
0.300729
0.465952
0.3286
0.246878
0.352866
0.536121
0.316364
0.537028
0.536959
0.534994
0.301718
0.537585
0.513431
0.536929
0.331641
0.523323
0.336933
0.316112
0.537299
0.298075
0.491152
0.535714
0.537544
0.309662
0.263373
0.322338
0.444898
0.537589
0.187967
0.529374
0.537523
0.540216
0.350612
0.327649
0.275699
0.475127
0.341573
0.537687
0.47858
0.536923
0.529054
0.347608
0.491646
0.30149
0.445682
0.511102
0.552058
0.450414
0.383671
0.523158
0.491252
0.544079
0.304344
0.290791
0.309607
0.541371
0.420394
0.537309
0.311037
0.319536
0.542283
0.537349
0.537086
0.298401
0.535477
0.443565
0.445581
0.477757
0.313188
0.29915
0.238599
0.535119
0.537156
0.523872
0.487937
0.274565
0.538185
0.518395
0.537153
0.536956
0.53844
0.553223
0.537055
0.539171
0.545143
0.309803
0.538966
0.543036
0.53623
0.539984
0.534771
0.455795
0.330457
0.322681
0.486068
0.334924
0.262051
0.534707
0.325074
0.502844
0.538044
0.515203
0.529554
0.311625
0.53599
0.300772
0.315065
0.537054
0.534841
0.536668
0.303665
0.546252
0.535072
0.484226
0.535289
0.322303
0.536337
0.549928
0.52053
0.31854
0.54308
0.349586
0.557258
0.311708
0.332776
0.415683
0.356128
0.552394
0.543477
0.536349
0.303197
0.536423
0.331291
0.326319
0.510169
0.393595
0.335723
0.535619
0.313827
0.411154
0.523798
0.49975
0.518912
0.391457
0.472008
0.515193
0.536694
0.45398
0.545609
0.424767
0.54886
0.484769
0.508772
0.315367
0.353382
0.355368
0.5424
0.310899
0.521739
0.538818
0.474161
0.536715
0.412878
0.533483
0.526701
0.337664
0.538079
0.480912
0.391442
0.483598
0.54946
0.505783
0.536806
0.348874
0.323174
0.531248
0.42296
0.430562
0.540027
0.535328
0.536211
0.54878
0.549885
0.487836
0.490276
0.552032
0.328929
0.314066
0.306312
0.290347
0.537462
0.363272
0.42579
0.538412
0.53051
0.311362
0.530349
0.556503
0.30626
0.301227
0.537415
0.540122
0.313637
0.295438
0.299478
0.537649
0.495347
0.322235
0.337433
0.306508
0.322585
0.27262
0.3355
0.55175
0.536233
0.532003
0.307245
0.516053
0.476839
0.482716
0.292738
0.316685
0.508497
0.537615
0.342102
0.536594
0.325734
0.544765
0.31077
0.534377
0.295834
0.518903
0.547984
0.302842
0.447003
0.327134
0.553162
0.3213
0.47995
0.312817
0.400416
0.336003
0.473295
0.329253
0.537076
0.537114
0.481017
0.528175
0.282835
0.518116
0.536769
0.547011
0.474933
0.519093
0.316086
0.332424
0.317422
0.547339
0.233289
0.546095
0.432694
0.539955
0.551232
0.367366
0.541985
0.325598
0.315023
0.32843
0.403664
0.414587
0.53467
0.323437
0.326479
0.537123
0.304419
0.304985
0.439051
0.302876
0.344136
0.323279
0.552618
0.515703
0.483326
0.313024
0.515489
0.535156
0.318316
0.259665
0.524825
0.535878
0.447893
0.413407
0.33101
0.289938
0.311239
0.529491
0.48277
0.414063
0.535865
0.325416
0.449553
0.354246
0.537212
0.546115
0.3146
0.327896
0.487845
0.434264
0.547829
0.545138
0.54722
0.538787
0.550395
0.308632
0.319778
0.308643
0.339373
0.427962
0.537261
0.517039
0.331997
0.314742
0.357425
0.32859
0.536092
0.498901
0.342266
0.254173
0.538038
0.31278
0.514172
0.543694
0.511253
0.536522
0.436593
0.321012
0.297048
0.486032
0.315726
0.33647
0.324296
0.536858
0.534264
0.27029
0.307363
0.537554
0.325547
0.536385
0.547364
0.31481
0.324481
0.326415
0.537737
0.316555
0.537671
0.536081
0.474729
0.292195
0.422666
0.543145
0.52716
0.349866
0.524707
0.48762
0.335879
0.540752
0.553644
0.341265
0.33966
0.512775
0.32938
0.334096
0.521186
0.277773
0.535092
0.533787
0.546729
0.493027
0.546392
0.537941
0.536933
0.348278
0.328851
0.496114
0.533209
0.375807
0.553119
0.267143
0.539468
0.52015
0.449905
0.51048
0.331287
0.362222
0.53106
0.543949
0.482459
0.548206
0.537318
0.537474
0.547479
0.537581
0.520404
0.512108
0.535286
0.537596
0.536901
0.270606
0.503439
0.291846
0.536696
0.539088
0.540976
0.503719
0.538857
0.325368
0.317338
0.249022
0.351145
0.509575
0.295984
0.331894
0.531172
0.310505
0.53865
0.312091
0.521371
0.536915
0.341467
0.306687
0.256888
0.541596
0.311867
0.534094
0.538731
0.321126
0.506439
0.440969
0.27077
0.311721
0.313261
0.539526
0.340157
0.53725
0.410022
0.325046
0.534103
0.535672
0.547178
0.337573
0.45433
0.310502
0.517541
0.536968
0.537636
0.346965
0.532418
0.540168
0.492679
0.328823
0.54151
0.325541
0.346831
0.530607
0.359494
0.550203
0.347931
0.346469
0.354227
0.499266
0.310474
0.222978
0.303151
0.382229
0.537313
0.538285
0.306481
0.472129
0.537302
0.445987
0.335007
0.259801
0.442805
0.366048
0.343831
0.53206
0.344874
0.349246
0.543161
0.554537
0.305696
0.542744
0.310456
0.537438
0.311582
0.511232
0.537217
0.539866
0.536859
0.32617
0.350955
0.307024
0.536929
0.514112
0.47009
0.428972
0.298381
0.244019
0.536284
0.349414
0.535493
0.306921
0.537165
0.526055
0.296511
0.289615
0.338082
0.317141
0.290594
0.486898
0.511633
0.295995
0.538215
0.501863
0.318065
0.32752
0.554662
0.33465
0.53668
0.342223
0.539574
0.515064
0.537542
0.5373
0.32433
0.549936
0.53523
0.55469
0.34369
0.480659
0.474926
0.25971
0.542367
0.5023
0.544799
0.516226
0.550452
0.529311
0.550944
0.536149
0.534177
0.332175
0.546382
0.33715
0.364277
0.532223
0.308669
0.522728
0.480041
0.329417
0.493885
0.341764
0.293501
0.524092
0.472777
0.554117
0.350908
0.515991
0.488733
0.308331
0.303073
0.509833
0.535335
0.302306
0.307898
0.539057
0.554087
0.334521
0.505361
0.548757
0.51784
0.305762
0.325139
0.301778
0.516238
0.321596
0.525317
0.541333
0.536274
0.47721
0.53722
0.349756
0.520731
0.488327
0.547825
0.44811
0.310888
0.348235
0.323786
0.545208
0.539635
0.340323
0.513436
0.255932
0.506331
0.538284
0.32562
0.48669
0.526169
0.490755
0.304623
0.326277
0.285557
0.541221
0.550121
0.486826
0.41253
0.537354
0.342859
0.499365
0.537402
0.532567
0.304727
0.496155
0.328124
0.485541
0.323348
0.532618
0.523967
0.313613
0.541029
0.341626
0.537606
0.503014
0.537676
0.54121
0.337552
0.536381
0.535941
0.535059
0.533378
0.389135
0.537408
0.314426
0.536021
0.324317
0.308454
0.324583
0.290079
0.366237
0.300346
0.550654
0.293348
0.329
0.516953
0.541383
0.513394
0.326447
0.536023
0.53523
0.536599
0.261418
0.458425
0.537704
0.311618
0.300889
0.353053
0.494944
0.408808
0.314282
0.463422
0.317617
0.537354
0.402972
0.316895
0.377609
0.511541
0.283501
0.535663
0.326233
0.378547
0.301565
0.53215
0.313158
0.512568
0.537383
0.468568
0.332872
0.333856
0.526286
0.553302
0.303855
0.290598
0.53676
0.302629
0.542742
0.309029
0.444326
0.323746
0.537873
0.31854
0.552128
0.305706
0.538029
0.538006
0.544561
0.537485
0.32069
0.311136
0.32337
0.498361
0.530484
0.498049
0.416911
0.326884
0.540884
0.263361
0.512185
0.462238
0.342724
0.324643
0.544716
0.532498
0.312026
0.53719
0.529652
0.544706
0.546738
0.326146
0.501333
0.336403
0.544804
0.316384
0.536933
0.507344
0.511873
0.552472
0.319823
0.556954
0.343195
0.332108
0.536357
0.537462
0.434684
0.531962
0.537453
0.334349
0.544206
0.529465
0.549434
0.291973
0.341314
0.5329
0.296771
0.539746
0.538356
0.524883
0.534672
0.231338
0.35611
0.511206
0.312633
0.519982
0.553856
0.376052
0.521396
0.216883
0.487675
0.544397
0.531494
0.521148
0.325333
0.314957
0.53486
0.523191
0.330827
0.265822
0.31999
0.311928
0.329284
0.31953
0.285465
0.334963
0.534286
0.325742
0.304266
0.538212
0.433311
0.537544
0.318243
0.308094
0.537594
0.371378
0.381734
0.548672
0.301542
0.519608
0.537136
0.482647
0.519542
0.309275
0.538591
0.53707
0.320491
0.350868
0.342319
0.477601
0.48211
0.550334
0.536959
0.533239
0.522329
0.290834
0.539463
0.537043
0.50862
0.339562
0.538162
0.456332
0.284997
0.345214
0.314762
0.307663
0.32869
0.467248
0.524769
0.52416
0.343697
0.312631
0.54865
0.273184
0.538783
0.535891
0.525163
0.531697
0.537155
0.311689
0.309636
0.312565
0.449063
0.323098
0.536569
0.306108
0.537194
0.536575
0.538725
0.291018
0.356532
0.336116
0.537632
0.31255
0.354532
0.534336
0.519322
0.488435
0.536902
0.50535
0.542363
0.321575
0.494529
0.546409
0.424942
0.536645
0.540297
0.543317
0.370077
0.342167
0.550453
0.39962
0.48303
0.337758
0.505778
0.525515
0.318158
0.322636
0.515915
0.404733
0.544439
0.538739
0.336318
0.306875
0.537263
0.305589
0.332419
0.526754
0.510743
0.327824
0.529346
0.537316
0.505165
0.32829
0.468173
0.321245
0.529026
0.545879
0.542259
0.521915
0.53729
0.254362
0.289873
0.531487
0.340491
0.482344
0.326918
0.538024
0.30531
0.509521
0.546059
0.537322
0.346777
0.537664
0.537354
0.352772
0.506261
0.303275
0.553662
0.343674
0.295902
0.300788
0.528486
0.532071
0.260147
0.246801
0.494797
0.550008