# vtk DataFile Version 1.0
unstructured grid
ascii
DATASET UNSTRUCTURED_GRID
points 13672 float
0.0796578 -0.059106 0
0.00128732 0.00159165 0
0.00227961 -0.00102548 0
0.0791586 -0.0598787 0
-0.0546216 0.01 0
0.000495206 0.025 0
0.0800549 -0.035 0
0.135172 -0.08 0
-0.0546216 -0.0451168 0
0.000495206 -0.0301168 0
0.0800549 -0.0901168 0
0.135172 -0.135117 0
-0.0546216 -0.0451168 -0.00551168
0.000495206 -0.0301168 -0.00551168
0.0800549 -0.0901168 -0.00551168
0.135172 -0.135117 -0.00551168
0.135172 -0.08 -0.00551168
0.0800549 -0.035 -0.00551168
0.000495206 0.025 -0.00551168
-0.0546216 0.01 -0.00551168
0.00128732 0.00159165 -0.00551168
0.00227961 -0.00102548 -0.00551168
0.0791586 -0.0598787 -0.00551168
0.0796578 -0.059106 -0.00551168
0.00165953 -0.000990923 0
0.00119576 -0.000874076 0
0.000866021 -0.000641801 0
0.000645147 -0.000349912 0
0.00052235 -1.7281e-05 0
0.00049972 0.000348016 0
0.000601632 0.000737716 0
0.000861774 0.0011403 0
0.00157235 0.00183217 0
0.00188647 0.00206725 0
0.00222612 0.00230203 0
0.00258713 0.00254351 0
0.00296826 0.00279524 0
0.00337118 0.00305664 0
0.00379785 0.00332658 0
0.00425045 0.00360349 0
0.00473139 0.00388521 0
0.0052432 0.00416895 0
0.0057881 0.00445204 0
0.00636753 0.00473281 0
0.00698281 0.00500961 0
0.00763526 0.00528058 0
0.00832616 0.00554366 0
0.00905691 0.00579603 0
0.00982918 0.00603333 0
0.0106445 0.00625033 0
0.0115038 0.00644128 0
0.0124073 0.00660297 0
0.0133543 0.00673414 0
0.0143444 0.00683382 0
0.0153769 0.00690031 0
0.0164512 0.00693173 0
0.0175666 0.00692547 0
0.0187219 0.00687822 0
0.0199156 0.00678477 0
0.0211454 0.00663864 0
0.0224084 0.00643275 0
0.0237018 0.00616676 0
0.0250249 0.00584739 0
0.026375 0.00547298 0
0.0277479 0.00503752 0
0.0291386 0.00453545 0
0.0305433 0.0039653 0
0.0319572 0.0033256 0
0.0333681 0.00260019 0
0.034775 0.00179799 0
0.0361793 0.000930615 0
0.0375798 3.12222e-06 0
0.0389689 -0.000988429 0
0.0403357 -0.00205109 0
0.041675 -0.00318283 0
0.0429849 -0.00437751 0
0.0442643 -0.00562904 0
0.0455126 -0.00693089 0
0.0467314 -0.00827518 0
0.0479204 -0.00965638 0
0.0490661 -0.0110799 0
0.0501515 -0.0125519 0
0.0511696 -0.0140695 0
0.0521492 -0.0156071 0
0.0531202 -0.0171411 0
0.0540851 -0.0186663 0
0.0550431 -0.0201798 0
0.0559923 -0.0216793 0
0.0569311 -0.0231626 0
0.0578582 -0.0246273 0
0.0587723 -0.0260715 0
0.0596721 -0.027493 0
0.0605563 -0.02889 0
0.0614241 -0.0302609 0
0.0622742 -0.0316042 0
0.063106 -0.0329183 0
0.0639186 -0.034202 0
0.0647113 -0.0354543 0
0.0654835 -0.0366743 0
0.0662345 -0.0378613 0
0.0669642 -0.0390145 0
0.0676726 -0.0401333 0
0.0683597 -0.0412172 0
0.0690246 -0.0422665 0
0.0696662 -0.0432819 0
0.0702841 -0.0442636 0
0.0708793 -0.0452111 0
0.0714538 -0.0461237 0
0.072009 -0.047001 0
0.0725452 -0.0478434 0
0.0730611 -0.0486524 0
0.073556 -0.0494294 0
0.0740291 -0.0501756 0
0.0744812 -0.0508916 0
0.0749138 -0.0515773 0
0.0753285 -0.0522331 0
0.0757266 -0.0528592 0
0.076109 -0.0534564 0
0.0764753 -0.0540264 0
0.0768243 -0.054571 0
0.0771553 -0.0550919 0
0.0774679 -0.0555901 0
0.0777617 -0.0560669 0
0.0780369 -0.056523 0
0.0782958 -0.0569578 0
0.0785421 -0.0573703 0
0.0787786 -0.0577603 0
0.0790073 -0.0581279 0
0.0792295 -0.058474 0
0.0794462 -0.0587995 0
0.0798803 -0.0594162 0
0.0800272 -0.0596588 0
0.0800357 -0.0598891 0
0.0799275 -0.0600784 0
0.0797205 -0.0601773 0
0.0794593 -0.0601051 0
0.0789155 -0.0596491 0
0.0786707 -0.0593963 0
0.0784111 -0.0591319 0
0.0781372 -0.0588542 0
0.0778566 -0.0585548 0
0.0775715 -0.0582308 0
0.0772803 -0.0578828 0
0.0769832 -0.0575099 0
0.0766822 -0.0571097 0
0.0763801 -0.0566796 0
0.0760759 -0.0562196 0
0.0757623 -0.0557337 0
0.0754359 -0.0552232 0
0.0750951 -0.0546879 0
0.0747379 -0.054128 0
0.0743626 -0.0535435 0
0.0739688 -0.0529338 0
0.0735559 -0.0522981 0
0.0731238 -0.0516357 0
0.0726718 -0.050946 0
0.0721991 -0.0502288 0
0.0717046 -0.049484 0
0.0711872 -0.0487117 0
0.0706461 -0.047912 0
0.0700804 -0.0470849 0
0.0694892 -0.0462308 0
0.0688718 -0.0453499 0
0.0682271 -0.0444431 0
0.0675544 -0.043511 0
0.0668527 -0.0425546 0
0.0661215 -0.0415748 0
0.06536 -0.040573 0
0.0645676 -0.0395504 0
0.0637439 -0.0385087 0
0.0628887 -0.0374493 0
0.062002 -0.0363741 0
0.0610838 -0.0352847 0
0.0601345 -0.0341831 0
0.0591547 -0.033071 0
0.0581456 -0.0319502 0
0.0571083 -0.0308224 0
0.0560444 -0.0296893 0
0.0549562 -0.028552 0
0.053845 -0.0274126 0
0.0527113 -0.0262746 0
0.051554 -0.0251427 0
0.0503724 -0.0240222 0
0.0491675 -0.0229164 0
0.047941 -0.0218282 0
0.0466955 -0.0207597 0
0.0454337 -0.0197126 0
0.0441592 -0.0186878 0
0.0428751 -0.0176863 0
0.0415841 -0.0167097 0
0.0402878 -0.0157609 0
0.0389879 -0.0148428 0
0.0376864 -0.0139575 0
0.0363853 -0.013107 0
0.0350871 -0.0122931 0
0.0337942 -0.0115164 0
0.0325095 -0.0107772 0
0.0312357 -0.0100756 0
0.0299758 -0.00941024 0
0.0287337 -0.00877784 0
0.0275126 -0.00817571 0
0.0263139 -0.00760375 0
0.0251376 -0.00706528 0
0.0239829 -0.0065649 0
0.0228537 -0.00609619 0
0.0217522 -0.00565563 0
0.0206795 -0.00524226 0
0.0196364 -0.00485507 0
0.0186233 -0.00449318 0
0.0176408 -0.00415577 0
0.016689 -0.00384204 0
0.0157682 -0.00355115 0
0.0148783 -0.00328218 0
0.0140192 -0.00303468 0
0.0131906 -0.00280795 0
0.0123925 -0.00260016 0
0.0116246 -0.00241012 0
0.0108864 -0.00223769 0
0.0101774 -0.00208212 0
0.00949701 -0.00194206 0
0.00884483 -0.0018163 0
0.0082202 -0.0017039 0
0.00762247 -0.00160391 0
0.00705097 -0.00151528 0
0.006505 -0.00143697 0
0.0059838 -0.00136806 0
0.00548662 -0.00130772 0
0.00501265 -0.00125519 0
0.00456114 -0.00120954 0
0.00413136 -0.00116914 0
0.00372257 -0.00113251 0
0.00333398 -0.00109853 0
0.00296466 -0.00106798 0
0.00261363 -0.0010431 0
-0.052721 -0.0445996 0
-0.0508204 -0.0440823 0
-0.0489199 -0.0435651 0
-0.0470193 -0.0430478 0
-0.0451187 -0.0425306 0
-0.0432181 -0.0420134 0
-0.0413175 -0.0414961 0
-0.039417 -0.0409789 0
-0.0375164 -0.0404616 0
-0.0356158 -0.0399444 0
-0.0337152 -0.0394271 0
-0.0318146 -0.0389099 0
-0.0299141 -0.0383927 0
-0.0280135 -0.0378754 0
-0.0261129 -0.0373582 0
-0.0242123 -0.0368409 0
-0.0223117 -0.0363237 0
-0.0204112 -0.0358065 0
-0.0185106 -0.0352892 0
-0.01661 -0.034772 0
-0.0147094 -0.0342547 0
-0.0128088 -0.0337375 0
-0.0109083 -0.0332202 0
-0.00900769 -0.032703 0
-0.00710711 -0.0321858 0
-0.00520653 -0.0316685 0
-0.00330595 -0.0311513 0
-0.00140537 -0.030634 0
0.00190689 -0.0299614 0
0.00332271 -0.0298498 0
0.00474133 -0.0297825 0
0.00616136 -0.0297597 0
0.0075814 -0.0297814 0
0.00900007 -0.0298477 0
0.010416 -0.0299583 0
0.0118278 -0.0301127 0
0.0132342 -0.0303103 0
0.0146339 -0.0305504 0
0.0160259 -0.0308322 0
0.0174091 -0.0311546 0
0.0187824 -0.0315166 0
0.020145 -0.031917 0
0.0214961 -0.0323546 0
0.0228351 -0.032828 0
0.0241613 -0.0333361 0
0.0254744 -0.0338774 0
0.0267738 -0.0344507 0
0.0280592 -0.0350545 0
0.0293306 -0.0356877 0
0.0305875 -0.0363488 0
0.0318301 -0.0370367 0
0.0330581 -0.0377501 0
0.0342717 -0.0384879 0
0.0354708 -0.0392489 0
0.0366556 -0.0400321 0
0.0378262 -0.0408363 0
0.0389828 -0.0416607 0
0.0401254 -0.0425042 0
0.0412543 -0.0433659 0
0.0423698 -0.0442451 0
0.043472 -0.0451408 0
0.0445612 -0.0460523 0
0.0456375 -0.0469789 0
0.0467013 -0.0479199 0
0.0477529 -0.0488746 0
0.0487923 -0.0498424 0
0.04982 -0.0508227 0
0.0508362 -0.051815 0
0.051841 -0.0528187 0
0.0528348 -0.0538333 0
0.0538178 -0.0548584 0
0.0547903 -0.0558935 0
0.0557524 -0.0569382 0
0.0567045 -0.0579922 0
0.0576467 -0.0590549 0
0.0585792 -0.0601261 0
0.0595024 -0.0612055 0
0.0604163 -0.0622926 0
0.0613212 -0.0633873 0
0.0622174 -0.0644891 0
0.0631049 -0.0655979 0
0.0639841 -0.0667134 0
0.064855 -0.0678353 0
0.0657179 -0.0689633 0
0.0665729 -0.0700974 0
0.0674202 -0.0712372 0
0.06826 -0.0723826 0
0.0690925 -0.0735333 0
0.0699178 -0.0746892 0
0.070736 -0.0758501 0
0.0715473 -0.0770159 0
0.0723518 -0.0781863 0
0.0731498 -0.0793612 0
0.0739412 -0.0805405 0
0.0747264 -0.081724 0
0.0755053 -0.0829116 0
0.0762781 -0.0841033 0
0.0770449 -0.0852987 0
0.0778059 -0.0864979 0
0.0785611 -0.0877007 0
0.0793108 -0.088907 0
0.0814681 -0.0912706 0
0.0828814 -0.0924245 0
0.0842946 -0.0935783 0
0.0857079 -0.0947322 0
0.0871211 -0.095886 0
0.0885344 -0.0970399 0
0.0899476 -0.0981937 0
0.0913609 -0.0993476 0
0.0927741 -0.100501 0
0.0941874 -0.101655 0
0.0956006 -0.102809 0
0.0970139 -0.103963 0
0.0984272 -0.105117 0
0.0998404 -0.106271 0
0.101254 -0.107424 0
0.102667 -0.108578 0
0.10408 -0.109732 0
0.105493 -0.110886 0
0.106907 -0.11204 0
0.10832 -0.113194 0
0.109733 -0.114348 0
0.111146 -0.115501 0
0.11256 -0.116655 0
0.113973 -0.117809 0
0.115386 -0.118963 0
0.116799 -0.120117 0
0.118213 -0.121271 0
0.119626 -0.122424 0
0.121039 -0.123578 0
0.122452 -0.124732 0
0.123866 -0.125886 0
0.125279 -0.12704 0
0.126692 -0.128194 0
0.128105 -0.129348 0
0.129519 -0.130501 0
0.130932 -0.131655 0
0.132345 -0.132809 0
0.133758 -0.133963 0
0.135172 -0.133216 0
0.135172 -0.131316 0
0.135172 -0.129415 0
0.135172 -0.127514 0
0.135172 -0.125614 0
0.135172 -0.123713 0
0.135172 -0.121813 0
0.135172 -0.119912 0
0.135172 -0.118012 0
0.135172 -0.116111 0
0.135172 -0.11421 0
0.135172 -0.11231 0
0.135172 -0.110409 0
0.135172 -0.108509 0
0.135172 -0.106608 0
0.135172 -0.104708 0
0.135172 -0.102807 0
0.135172 -0.100906 0
0.135172 -0.0990058 0
0.135172 -0.0971052 0
0.135172 -0.0952046 0
0.135172 -0.0933041 0
0.135172 -0.0914035 0
0.135172 -0.0895029 0
0.135172 -0.0876023 0
0.135172 -0.0857017 0
0.135172 -0.0838012 0
0.135172 -0.0819006 0
0.133758 -0.0788462 0
0.132345 -0.0776923 0
0.130932 -0.0765385 0
0.129519 -0.0753846 0
0.128105 -0.0742308 0
0.126692 -0.0730769 0
0.125279 -0.0719231 0
0.123866 -0.0707692 0
0.122452 -0.0696154 0
0.121039 -0.0684615 0
0.119626 -0.0673077 0
0.118213 -0.0661538 0
0.116799 -0.065 0
0.115386 -0.0638462 0
0.113973 -0.0626923 0
0.11256 -0.0615385 0
0.111146 -0.0603846 0
0.109733 -0.0592308 0
0.10832 -0.0580769 0
0.106907 -0.0569231 0
0.105493 -0.0557692 0
0.10408 -0.0546154 0
0.102667 -0.0534615 0
0.101254 -0.0523077 0
0.0998404 -0.0511538 0
0.0984272 -0.05 0
0.0970139 -0.0488462 0
0.0956006 -0.0476923 0
[...]
CELL_DATA 13116
SCALARS rho float
LOOKUP_TABLE default
0.627088
0.704601
0.332326
0.714219
0.715815
0.696631
0.315054
0.713294
0.565799
0.719063
0.317306
0.308083
0.715819
0.322264
0.322944
0.697615
0.625128
0.726099
0.701945
0.322906
0.622409
0.337416
0.324807
0.724814
0.695749
0.706207
0.71918
0.335504
0.70322
0.719233
0.599865
0.312167
0.596002
0.467459
0.31367
0.625451
0.717804
0.702467
0.68246
0.706849
0.701645
0.713784
0.501778
0.328916
0.701785
0.701984
0.701619
0.703742
0.333947
0.54551
0.711727
0.496079
0.318889
0.620409
0.595645
0.652604
0.328612
0.722498
0.557111
0.326521
0.322658
0.716664
0.703222
0.676227
0.609114
0.323834
0.704644
0.723543
0.705247
0.626848
0.322776
0.650509
0.337836
0.326275
0.565364
0.319451
0.706534
0.7106
0.319099
0.726589
0.717959
0.704848
0.723551
0.704141
0.702596
0.419736
0.32056
0.727708
0.705084
0.327279
0.315162
0.704621
0.723372
0.707721
0.717213
0.676722
0.699565
0.574211
0.571096
0.680835
0.730857
0.693852
0.701338
0.430632
0.700035
0.307813
0.382677
0.536202
0.331212
0.719046
0.563068
0.702611
0.673747
0.721367
0.726582
0.704994
0.322516
0.397757
0.707926
0.706571
0.724447
0.340974
0.705437
0.314654
0.707946
0.438837
0.321008
0.515573
0.330333
0.544246
0.708073
0.707961
0.475519
0.335884
0.454749
0.671975
0.558911
0.707108
0.730973
0.706562
0.701302
0.701873
0.518999
0.701629
0.704087
0.315337
0.313511
0.704177
0.716159
0.710864
0.545534
0.703871
0.703634
0.315224
0.718994
0.702658
0.325412
0.730658
0.575658
0.72844
0.724589
0.317895
0.721306
0.326797
0.341738
0.715262
0.70699
0.726181
0.314074
0.435484
0.41148
0.559048
0.321535
0.503946
0.703919
0.323738
0.32865
0.338335
0.702137
0.699396
0.32137
0.42501
0.587972
0.718643
0.700324
0.558553
0.318484
0.700049
0.699101
0.465218
0.706467
0.703886
0.635251
0.322718
0.702266
0.698702
0.721355
0.700355
0.704775
0.385754
0.432735
0.722578
0.509458
0.325947
0.71233
0.703396
0.502378
0.691207
0.319267
0.318624
0.319479
0.703186
0.325665
0.325326
0.32417
0.315671
0.387906
0.68235
0.70766
0.412422
0.327537
0.704382
0.558128
0.321344
0.548095
0.717733
0.703875
0.335558
0.704024
0.394825
0.714805
0.313056
0.636689
0.617351
0.56792
0.705203
0.64957
0.331656
0.435068
0.729391
0.562759
0.698532
0.559254
0.658822
0.712321
0.329965
0.709359
0.718201
0.573101
0.314273
0.335718
0.703278
0.707457
0.621645
0.705868
0.620113
0.726157
0.31787
0.336787
0.390064
0.317341
0.698132
0.721362
0.705919
0.320699
0.701802
0.321774
0.414678
0.700241
0.31489
0.705283
0.713009
0.561918
0.72207
0.332001
0.561237
0.719285
0.574655
0.706861
0.320758
0.321011
0.324469
0.668746
0.339944
0.342013
0.370015
0.360501
0.70287
0.317237
0.704293
0.714345
0.320254
0.322302
0.321438
0.441412
0.336639
0.726846
0.687588
0.701264
0.315392
0.70333
0.633717
0.333328
0.326416
0.686353
0.707306
0.700195
0.319018
0.699866
0.440405
0.707565
0.713769
0.71007
0.713614
0.323978
0.703976
0.315953
0.698961
0.718103
0.731232
0.325565
0.368713
0.717861
0.321581
0.702425
0.716486
0.367162
0.728498
0.723531
0.321362
0.701816
0.723309
0.316516
0.708902
0.415655
0.592585
0.712184
0.421075
0.73037
0.320935
0.724906
0.372213
0.668322
0.694909
0.721331
0.335071
0.383561
0.702542
0.314601
0.710751
0.700018
0.4208
0.559019
0.316965
0.331915
0.707818
0.557826
0.721392
0.321161
0.3262
0.709348
0.714391
0.314058
0.712468
0.322519
0.314505
0.705235
0.711933
0.550421
0.33244
0.706785
0.599665
0.698148
0.702163
0.717459
0.549704
0.350263
0.316696
0.321721
0.697606
0.321846
0.588183
0.370641
0.319729
0.380711
0.556851
0.191005
0.314801
0.702338
0.313197
0.721179
0.699815
0.702453
0.72648
0.709637
0.332559
0.321648
0.391671
0.355271
0.708968
0.667362
0.70179
0.703135
0.704469
0.701126
0.704491
0.699758
0.718149
0.715632
0.726904
0.693046
0.393994
0.500807
0.623889
0.334481
0.685838
0.650117
0.318953
0.704625
0.561415
0.324516
0.323981
0.325999
0.318118
0.728431
0.314717
0.323034
0.703551
0.323174
0.620736
0.328558
0.69748
0.712882
0.33911
0.335489
0.707848
0.438363
0.330548
0.318383
0.327641
0.330968
0.321505
0.324313
0.342622
0.416592
0.321835
0.693144
0.344763
0.703478
0.368553
0.313704
0.465786
0.308992
0.32654
0.309933
0.70386
0.422809
0.727598
0.549262
0.323273
0.693439
0.705094
0.418148
0.728448
0.700459
0.699545
0.320994
0.569842
0.398928
0.719793
0.584968
0.329006
0.31539
0.698867
0.356564
0.420067
0.695272
0.382388
0.730727
0.703963
0.32173
0.327023
0.31838
0.499764
0.325891
0.317776
0.321117
0.315339
0.715029
0.715633
0.445819
0.686622
0.45755
0.701704
0.380643
0.314613
0.569733
0.329545
0.705584
0.343449
0.389507
0.471126
0.701866
0.70634
0.573251
0.365634
0.315392
0.57173
0.713276
0.646686
0.565292
0.700378
0.697954
0.323318
0.71269
0.609779
0.729619
0.366125
0.336952
0.721203
0.722067
0.726735
0.718132
0.703463
0.707167
0.724616
0.730596
0.702327
0.322842
0.701854
0.374396
0.320905
0.326557
0.7147
0.703242
0.365277
0.702772
0.724935
0.325948
0.665493
0.706927
0.715894
0.335186
0.314393
0.709979
0.331691
0.330908
0.297527
0.323853
0.705535
0.316993
0.714454
0.343831
0.704965
0.711183
0.704681
0.71495
0.331896
0.322628
0.704036
0.714966
0.711776
0.715151
0.718427
0.454147
0.321111
0.330979
0.702606
0.560596
0.326431
0.438801
0.319168
0.71023
0.70069
0.366265
0.339438
0.703208
0.424774
0.702222
0.731101
0.329613
0.394722
0.710304
0.563247
0.32761
0.705838
0.707247
0.703746
0.316229
0.559362
0.327543
0.566684
0.729389
0.332882
0.385489
0.341685
0.567525
0.331871
0.318437
0.399361
0.671759
0.711637
0.31838
0.333712
0.325598
0.66831
0.339054
0.699711
0.31695
0.659443
0.717883
0.370995
0.326306
0.325349
0.455303
0.331643
0.706252
0.31953
0.316417
0.695261
0.315152
0.70251
0.702264
0.56987
0.325702
0.705612
0.721932
0.721186
0.702888
0.710647
0.704918
0.310892
0.629186
0.414889
0.70457
0.321288
0.712375
0.536352
0.314036
0.598233
0.716296
0.313554
0.701617
0.315376
0.322063
0.703477
0.703551
0.317825
0.312669
0.318683
0.308429
0.710542
0.72486
0.315501
0.320794
0.711066
0.707405
0.664169
0.721676
0.700209
0.317888
0.720952
0.415337
0.711564
0.400243
0.672038
0.448283
0.703627
0.721348
0.62528
0.376753
0.333974
0.700688
0.70449
0.614562
0.721735
0.317481
0.715813
0.719151
0.393612
0.499206
0.721408
0.368062
0.610512
0.729637
0.365441
0.707774
0.716922
0.333335
0.712505
0.323891
0.703539
0.324772
0.702983
0.703005
0.33339
0.680187
0.721411
0.711249
0.725793
0.710208
0.635889
0.354215
0.435844
0.313691
0.326232
0.55837
0.553881
0.70611
0.715811
0.323147
0.348032
0.710398
0.717776
0.708239
0.71297
0.323827
0.727107
0.717959
0.323155
0.312817
0.708135
0.703108
0.703116
0.302314
0.651919
0.339713
0.713111
0.702089
0.642708
0.704233
0.325571
0.705954
0.704062
0.723326
0.703712
0.701815
0.41303
0.716914
0.31839
0.700307
0.718424
0.435039
0.704358
0.654062
0.710986
0.446516
0.412043
0.642162
0.725793
0.331567
0.333121
0.315016
0.321828
0.705526
0.715509
0.653202
0.361239
0.320405
0.705077
0.730169
0.317333
0.349505
0.441165
0.713882
0.700385
0.702344
0.722558
0.319217
0.331649
0.559823
0.314182
0.325092
0.319408
0.70012
0.339095
0.331235
0.638009
0.704249
0.701984
0.692015
0.6998
0.322415
0.317359
0.315733
0.559514
0.423637
0.314017
0.722281
0.723747
0.702686
0.703038
0.306886
0.327548
0.718299
0.328463
0.701637
0.702893
0.584537
0.317931
0.327858
0.703285
0.595036
0.650464
0.317365
0.702363
0.694408
0.632099
0.710786
0.712746
0.560333
0.700348
0.324296
0.699643
0.613131
0.697416
0.713905
0.558414
0.702648
0.560122
0.706377
0.31593
0.3216
0.327975
0.601793
0.539563
0.328927
0.709875
0.711854
0.308889
0.706222
0.340239
0.707473
0.544458
0.335006
0.717188
0.725266
0.326812
0.536404
0.605031
0.327933
0.70748
0.324732
0.309446
0.697998
0.699071
0.465697
0.701479
0.314965
0.720908
0.326265
0.306955
0.702451
0.326018
0.683115
0.318674
0.705653
0.676117
0.560071
0.706482
0.318767
0.31752
0.697261
0.509908
0.708338
0.480956
0.664379
0.696527
0.723535
0.515879
0.716494
0.702137
0.721174
0.705379
0.374453
0.333621
0.527988
0.702327
0.721531
0.382386
0.701198
0.652318
0.389787
0.317902
0.731355
0.714719
0.559463
0.564925
0.695667
0.719216
0.681716
0.718009
0.317066
0.728147
0.439337
0.708519
0.702894
0.360912
0.712121
0.713977
0.324608
0.328771
0.321846
0.558456
0.318233
0.697506
0.715485
0.72906
0.347324
0.702531
0.325085
0.655977
0.672961
0.641584
0.722226
0.665452
0.708789
0.717579
0.565261
0.704423
0.325288
0.700806
0.704539
0.494788
0.560725
0.714749
0.325126
0.318369
0.3284
0.710186
0.333635
0.560684
0.315899
0.713128
0.315136
0.448661
0.316158
0.719972
0.712765
0.618503
0.338516
0.708325
0.688438
0.318544
0.662481
0.715621
0.313157
0.659811
0.584191
0.717801
0.702007
0.328629
0.533634
0.709354
0.702206
0.700683
0.330871
0.407572
0.702133
0.559399
0.562246
0.559133
0.611055
0.708189
0.604952
0.707283
0.330877
0.325535
0.559244
0.715192
0.679024
0.324413
0.700857
0.62725
0.680009
0.323284
0.406499
0.712755
0.714075
0.584387
0.353185
0.702617
0.562054
0.314781
0.702785
0.72229
0.314563
0.313107
0.316519
0.699666
0.341347
0.323296
0.702008
0.488222
0.721003
0.70951
0.314425
0.321207
0.714688
0.322559
0.314843
0.598793
0.315178
0.381718
0.664668
0.710491
0.706177
0.320255
0.343024
0.316146
0.70239
0.308744
0.706201
0.3152
0.709316
0.708665
0.701761
0.701028
0.706549
0.701981
0.700269
0.714745
0.706718
0.317398
0.316458
0.706099
0.682788
0.467969
0.700479
0.594183
0.678328
0.696427
0.3383
0.705821
0.716305
0.703624
0.313678
0.706294
0.337972
0.704328
0.455534
0.72595
0.703007
0.335509
0.709479
0.325659
0.460903
0.703486
0.319452
0.730073
0.558466
0.711473
0.317558
0.703336
0.321337
0.317269
0.320033
0.324121
0.694808
0.321857
0.703181
0.662325
0.354344
0.323136
0.450688
0.633939
0.711504
0.700783
0.325459
0.322217
0.314283
0.316628
0.336072
0.709533
0.703425
0.33625
0.66839
0.714948
0.315765
0.716468
0.730436
0.670452
0.315066
0.56478
0.710154
0.716126
0.70907
0.325478
0.70688
0.715737
0.706434
0.731863
0.6965
0.343462
0.320648
0.70374
0.519135
0.329946
0.702062
0.321531
0.596228
0.702354
0.703366
0.703442
0.316128
0.700284
0.387688
0.31363
0.727704
0.711285
0.717984
0.708999
0.714984
0.317498
0.716021
0.324694
0.466097
0.715062
0.570821
0.708986
0.314163
0.329613
0.718172
0.34518
0.709556
0.728956
0.420825
0.351174
0.705782
0.318749
0.702923
0.709409
0.710863
0.319046
0.322553
0.504956
0.560962
0.700989
0.475404
0.697326
0.70075
0.703555
0.558176
0.710188
0.316171
0.34953
0.710459
0.695732
0.700114
0.433284
0.325485
0.712296
0.320081
0.70041
0.721666
0.348233
0.708754
0.321569
0.708968
0.332781
0.716982
0.330402
0.70463
0.69803
0.310978
0.707941
0.724881
0.313263
0.65284
0.701577
0.595276
0.310438
0.379095
0.471371
0.721743
0.697544
0.34829
0.639242
0.711096
0.694273
0.347972
0.689539
0.703197
0.4235
0.697027
0.699051
0.35907
0.705933
0.580473
0.331229
0.675135
0.318154
0.706276
0.315868
0.31145
0.722236
0.324
0.325611
0.318304
0.704074
0.703003
0.400262
0.702574
0.379298
0.709161
0.321848
0.703352
0.37303
0.697123
0.703888
0.7084
0.652965
0.541387
0.696956
0.668809
0.33485
0.72574
0.710659
0.580879
0.709796
0.455951
0.420705
0.715966
0.31959
0.616333
0.340888
0.701644
0.31753
0.322466
0.725392
0.69994
0.322237
0.707756
0.724325
0.558404
0.712763
0.563753
0.324453
0.716752
0.3243
0.326432
0.706449
0.722132
0.713636
0.703239
0.313832
0.315812
0.315822
0.704317
0.660222
0.378101
0.711282
0.324036
0.316717
0.320264
0.704728
0.400403
0.716489
0.70706
0.725847
0.703477
0.706374
0.635689
0.704702
0.416859
0.313146
0.322358
0.564725
0.562997
0.324697
0.708131
0.699314
0.705957
0.328363
0.451374
0.701245
0.323282
0.700449
0.68876
0.325049
0.689803
0.705582
0.329484
0.705884
0.314111
0.705983
0.720784
0.706343
0.320303
0.434767
0.729676
0.362808
0.417884
0.702233
0.367622
0.693133
0.705222
0.704938
0.724829
0.351925
0.591285
0.727581
0.702063
0.385425
0.70984
0.329981
0.314063
0.702391
0.700457
0.66426
0.289971
0.703219
0.726694
0.565858
0.32275
0.322363
0.331411
0.708497
0.315272
0.315055
0.332297
0.687567
0.314689
0.360245
0.419453
0.705917
0.326941
0.652394
0.680685
0.705742
0.31809
0.705015
0.724751
0.662078
0.408384
0.731253
0.313336
0.31953
0.702939
0.322442
0.704073
0.711952
0.55978
0.326048
0.36847
0.3135
0.566571
0.55918
0.28601
0.702591
0.703901
0.724405
0.320583
0.323951
0.374587
0.697648
0.327801
0.558204
0.711998
0.685927
0.702079
0.320667
0.703061
0.312222
0.686665
0.729195
0.717978
0.677161
0.58652
0.730587
0.70075
0.711001
0.317815
0.367332
0.324294
0.726087
0.56607
0.573564
0.326034
0.405276
0.718582
0.704998
0.632247
0.322663
0.706648
0.563301
0.576043
0.697864
0.331065
0.323198
0.359725
0.700528
0.65901
0.731786
0.701384
0.373881
0.711933
0.730336
0.663301
0.658414
0.71142
0.716494
0.697422
0.719767
0.718443
0.329103
0.705646
0.709444
0.698811
0.706694
0.70055
0.666765
0.325908
0.307559
0.698679
0.329095
0.352665
0.706682
0.319372
0.728074
0.704863
0.704005
0.703609
0.326765
0.707727
0.320196
0.324862
0.698507
0.707364
0.703162
0.318882
0.711754
0.701612
0.698604
0.700071
0.334358
0.698423
0.718225
0.706507
0.38654
0.724217
0.317034
0.713742
0.320349
0.32632
0.627326
0.434868
0.717253
0.72185
0.70202
0.330558
0.697601
0.402914
0.31998
0.70436
0.449853
0.328733
0.701497
0.321288
0.476294
0.725565
0.701869
0.702897
0.452659
0.686095
0.7238
0.70218
0.666825
0.717592
0.521809
0.715402
0.700976
0.72166
0.303959
0.318888
0.431604
0.708844
0.325631
0.728638
0.708128
0.685553
0.702371
0.60317
0.728883
0.718009
0.314987
0.707275
0.699672
0.592229
0.699949
0.717184
0.706311
0.688632
0.320442
0.317784
0.704976
0.571531
0.611576
0.707223
0.704299
0.70296
0.722101
0.720936
0.705345
0.700349
0.718147
0.317055
0.316112
0.319146
0.344275
0.560926
0.452466
0.601052
0.708427
0.71889
0.327662
0.703875
0.713946
0.320111
0.392121
0.561356
0.706583
0.331934
0.303267
0.297141
0.558135
0.705903
0.389408
0.315819
0.324754
0.318017
0.363522
0.331123
0.714711
0.703843
0.710769
0.316874
0.703961
0.688104
0.718728
0.35616
0.323358
0.704402
0.559036
0.329761
0.696841
0.329092
0.724827
0.329243
0.70566
0.319493
0.702638
0.713219
0.317533
0.580437
0.349908
0.716621
0.312347
0.693092
0.321298
0.52795
0.313142
0.683574
0.31891
0.642336
0.641379
0.716258
0.706389
0.357683
0.703241
0.684591
0.712379
0.686022
0.709611
0.323714
0.447079
0.324712
0.722897
0.34465
0.713863
0.557416
0.722468
0.71757
0.537732
0.716285
0.32044
0.324492
0.316262
0.525077
0.634658
0.704255
0.315727
0.339506
0.701707
0.396281
0.317937
0.656194
0.390588
0.330614
0.305785
0.713918
0.730407
0.695979
0.326275
0.703182
0.700926
0.309786
0.367468
0.703713
0.699437
0.685793
0.483079
0.408509
0.385607
0.315547
0.710163
0.697689
0.561554
0.727264
0.321637
0.6294
0.320529
0.606275
0.713096
0.32428
0.344898
0.699596
0.652474
0.71424
0.718012
0.720908
0.708742
0.715607
0.316672
0.3363
0.324403
0.321261
0.624486
0.588027
0.730699
0.323091
0.325209
0.478664
0.312845
0.702914
0.701815
0.324229
0.364309
0.704871
0.328245
0.722626
0.71935
0.702485
0.695687
0.628124
0.330857
0.319853
0.699538
0.324564
0.445623
0.396123
0.684653
0.702472
0.35041
0.325506
0.559057
0.31845
0.70185
0.722984
0.327434
0.325083
0.316375
0.704474
0.321672
0.558407
0.715385
0.685856
0.305639
0.513499
0.710575
0.70246
0.316939
0.702843
0.699293
0.31545
0.70789
0.7149
0.314693
0.326161
0.70335
0.316918
0.321284
0.703306
0.377445
0.703391
0.729346
0.723915
0.702058
0.715142
0.704875
0.693902
0.315699
0.406237
0.702342
0.705754
0.433606
0.716686
0.370072
0.706191
0.70299
0.624215
0.722472
0.446107
0.441756
0.703911
0.713175
0.700617
0.713136
0.703916
0.560156
0.71254
0.558708
0.710345
0.70465
0.710528
0.559243
0.696564
0.314072
0.705103
0.33417
0.705425
0.705751
0.72002
0.701884
0.72561
0.323087
0.31453
0.365672
0.317386
0.702474
0.32095
0.31468
0.717474
0.304137
0.719649
0.315056
0.703089
0.706781
0.32388
0.396449
0.349325
0.708349
0.327248
0.704056
0.709674
0.31373
0.704166
0.579958
0.356659
0.334545
0.309302
0.728503
0.32694
0.706917
0.601386
0.352918
0.700928
0.701792
0.721242
0.329246
0.642455
0.318998
0.704112
0.690265
0.705098
0.333216
0.705766
0.707079
0.70146
0.410798
0.708167
0.330751
0.323049
0.70517
0.448332
0.719266
0.432207
0.332255
0.422414
0.701869
0.33235
0.314234
0.324727
0.541572
0.567798
0.708113
0.317209
0.681558
0.703964
0.563399
0.481822
0.346523
0.584855
0.333506
0.322772
0.702487
0.323395
0.328954
0.710534
0.714975
0.319667
0.72623
0.316539
0.560787
0.336284
0.705002
0.627428
0.725707
0.687226
0.328868
0.321686
0.319254
0.694649
0.703857
0.680359
0.566542
0.390293
0.356291
0.700882
0.315998
0.703549
0.392252
0.636641
0.723517
0.319258
0.329742
0.324706
0.325623
0.331248
0.699501
0.702775
0.31953
0.705371
0.716109
0.3555
0.319805
0.715353
0.327358
0.70597
0.413602
0.724925
0.724578
0.704868
0.570612
0.318933
0.720702
0.704494
0.714216
0.324949
0.698369
0.701298
0.351495
0.708958
0.706641
0.71522
0.702987
0.715872
0.705656
0.713612
0.699121
0.701659
0.323543
0.722316
0.324957
0.490757
0.702093
0.319366
0.702524
0.698779
0.337529
0.701378
0.324997
0.315562
0.706187
0.697158
0.714943
0.318585
0.702915
0.7173
0.336324
0.317699
0.707435
0.700738
0.39334
0.326556
0.716436
0.715409
0.329479
0.718794
0.714002
0.731108
0.320993
0.330285
0.31614
0.725624
0.331537
0.702956
0.726376
0.701189
0.68846
0.706313
0.318596
0.703663
0.725247
0.713086
0.676733
0.322267
0.315803
0.316672
0.724351
0.709431
0.411338
0.72406
0.343657
0.708464
0.70628
0.317005
0.698837
0.702963
0.707788
0.317346
0.321291
0.344813
0.709031
0.71909
0.715548
0.483225
0.705319
0.329266
0.718151
0.562777
0.706002
0.317002
0.728619
0.339694
0.699788
0.316102
0.704084
0.706838
0.325966
0.708206
0.501519
0.559129
0.712429
0.558176
0.709738
0.430418
0.70054
0.702202
0.702594
0.704214
0.443162
0.56178
0.316667
0.702494
0.319931
0.322816
0.325033
0.330593
0.332668
0.317877
0.714842
0.387286
0.315913
0.719293
0.70857
0.702834
0.394271
0.724453
0.727324
0.694042
0.310133
0.678107
0.704678
0.344396
0.328722
0.321184
0.712096
0.472342
0.326875
0.675281
0.308144
0.568614
0.466123
0.32087
0.445383
0.723962
0.346957
0.700926
0.320977
0.574273
0.392012
0.710064
0.397208
0.714514
0.562656
0.697876
0.481528
0.325289
0.710433
0.716004
0.330051
0.317199
0.695801
0.324326
0.724348
0.316744
0.581697
0.31528
0.704778
0.336336
0.715356
0.322623
0.706292
0.706129
0.713095
0.560562
0.316294
0.32426
0.390843
0.706673
0.71724
0.701761
0.639184
0.337757
0.715741
0.347234
0.703548
0.694697
0.421444
0.351731
0.720261
0.703667
0.320422
0.601673
0.711575
0.718638
0.723755
0.321584
0.719783
0.325959
0.717487
0.330359
0.673873
0.703805
0.710904
0.714824
0.354593
0.714084
0.323475
0.314151
0.701465
0.561608
0.588885
0.704693
0.56118
0.327423
0.725804
0.709343
0.713203
0.317621
0.425019
0.725154
0.320819
0.706402
0.708451
0.702464
0.710147
0.336972
0.467348
0.726229
0.325622
0.703234
0.71602
0.495137
0.706276
0.343376
0.699888
0.725686
0.730039
0.707631
0.321272
0.323727
0.704473
0.702819
0.333843
0.362527
0.333339
0.326771
0.315499
0.312762
0.337375
0.329523
0.704647
0.31949
0.320688
0.715864
0.588893
0.559186
0.404331
0.325762
0.704321
0.476391
0.556969
0.719146
0.392405
0.730001
0.652312
0.716832
0.703728
0.327821
0.708054
0.67753
0.31419
0.322288
0.423846
0.698487
0.715837
0.716328
0.698309
0.706278
0.704157
0.366255
0.707433
0.684075
0.708856
0.326475
0.705164
0.689301
0.363881
0.424088
0.31775
0.316666
0.316201
0.67285
0.725829
0.7064
0.322884
0.400446
0.713643
0.310702
0.710938
0.702302
0.702547
0.73033
0.704851
0.342557
0.318001
0.302552
0.633995
0.32921
0.703677
0.298709
0.702684
0.696276
0.705396
0.342509
0.461017
0.425371
0.706077
0.323401
0.320628
0.707023
0.703586
0.700072
0.697155
0.707582
0.724091
0.3331
0.727088
0.716723
0.507134
0.705714
0.71296
0.72245
0.424901
0.409355
0.713427
0.462845
0.695776
0.324839
0.703061
0.702412
0.38749
0.332055
0.704287
0.515047
0.714234
0.711336
0.327577
0.323456
0.579749
0.475332
0.402048
0.702599
0.707281
0.341225
0.702111
0.583012
0.702075
0.333121
0.676175
0.331756
0.703201
0.712776
0.723739
0.706547
0.59012
0.361531
0.375485
0.707905
0.320525
0.718712
0.34912
0.705261
0.314988
0.718565
0.716911
0.574713
0.333185
0.558372
0.56436
0.320513
0.703288
0.308406
0.714054
0.331147
0.319756
0.301499
0.711387
0.701598