# vtk DataFile Version 1.0
unstructured grid
ascii
DATASET UNSTRUCTURED_GRID
points 13672 float
0.0796578 -0.059106 0
0.00128732 0.00159165 0
0.00227961 -0.00102548 0
0.0791586 -0.0598787 0
-0.0546216 0.01 0
0.000495206 0.025 0
0.0800549 -0.035 0
0.135172 -0.08 0
-0.0546216 -0.0451168 0
0.000495206 -0.0301168 0
0.0800549 -0.0901168 0
0.135172 -0.135117 0
-0.0546216 -0.0451168 -0.00551168
0.000495206 -0.0301168 -0.00551168
0.0800549 -0.0901168 -0.00551168
0.135172 -0.135117 -0.00551168
0.135172 -0.08 -0.00551168
0.0800549 -0.035 -0.00551168
0.000495206 0.025 -0.00551168
-0.0546216 0.01 -0.00551168
0.00128732 0.00159165 -0.00551168
0.00227961 -0.00102548 -0.00551168
0.0791586 -0.0598787 -0.00551168
0.0796578 -0.059106 -0.00551168
0.00165953 -0.000990923 0
0.00119576 -0.000874076 0
0.000866021 -0.000641801 0
0.000645147 -0.000349912 0
0.00052235 -1.7281e-05 0
0.00049972 0.000348016 0
0.000601632 0.000737716 0
0.000861774 0.0011403 0
0.00157235 0.00183217 0
0.00188647 0.00206725 0
0.00222612 0.00230203 0
0.00258713 0.00254351 0
0.00296826 0.00279524 0
0.00337118 0.00305664 0
0.00379785 0.00332658 0
0.00425045 0.00360349 0
0.00473139 0.00388521 0
0.0052432 0.00416895 0
0.0057881 0.00445204 0
0.00636753 0.00473281 0
0.00698281 0.00500961 0
0.00763526 0.00528058 0
0.00832616 0.00554366 0
0.00905691 0.00579603 0
0.00982918 0.00603333 0
0.0106445 0.00625033 0
0.0115038 0.00644128 0
0.0124073 0.00660297 0
0.0133543 0.00673414 0
0.0143444 0.00683382 0
0.0153769 0.00690031 0
0.0164512 0.00693173 0
0.0175666 0.00692547 0
0.0187219 0.00687822 0
0.0199156 0.00678477 0
0.0211454 0.00663864 0
0.0224084 0.00643275 0
0.0237018 0.00616676 0
0.0250249 0.00584739 0
0.026375 0.00547298 0
0.0277479 0.00503752 0
0.0291386 0.00453545 0
0.0305433 0.0039653 0
0.0319572 0.0033256 0
0.0333681 0.00260019 0
0.034775 0.00179799 0
0.0361793 0.000930615 0
0.0375798 3.12222e-06 0
0.0389689 -0.000988429 0
0.0403357 -0.00205109 0
0.041675 -0.00318283 0
0.0429849 -0.00437751 0
0.0442643 -0.00562904 0
0.0455126 -0.00693089 0
0.0467314 -0.00827518 0
0.0479204 -0.00965638 0
0.0490661 -0.0110799 0
0.0501515 -0.0125519 0
0.0511696 -0.0140695 0
0.0521492 -0.0156071 0
0.0531202 -0.0171411 0
0.0540851 -0.0186663 0
0.0550431 -0.0201798 0
0.0559923 -0.0216793 0
0.0569311 -0.0231626 0
0.0578582 -0.0246273 0
0.0587723 -0.0260715 0
0.0596721 -0.027493 0
0.0605563 -0.02889 0
0.0614241 -0.0302609 0
0.0622742 -0.0316042 0
0.063106 -0.0329183 0
0.0639186 -0.034202 0
0.0647113 -0.0354543 0
0.0654835 -0.0366743 0
0.0662345 -0.0378613 0
0.0669642 -0.0390145 0
0.0676726 -0.0401333 0
0.0683597 -0.0412172 0
0.0690246 -0.0422665 0
0.0696662 -0.0432819 0
0.0702841 -0.0442636 0
0.0708793 -0.0452111 0
0.0714538 -0.0461237 0
0.072009 -0.047001 0
0.0725452 -0.0478434 0
0.0730611 -0.0486524 0
0.073556 -0.0494294 0
0.0740291 -0.0501756 0
0.0744812 -0.0508916 0
0.0749138 -0.0515773 0
0.0753285 -0.0522331 0
0.0757266 -0.0528592 0
0.076109 -0.0534564 0
0.0764753 -0.0540264 0
0.0768243 -0.054571 0
0.0771553 -0.0550919 0
0.0774679 -0.0555901 0
0.0777617 -0.0560669 0
0.0780369 -0.056523 0
0.0782958 -0.0569578 0
0.0785421 -0.0573703 0
0.0787786 -0.0577603 0
0.0790073 -0.0581279 0
0.0792295 -0.058474 0
0.0794462 -0.0587995 0
0.0798803 -0.0594162 0
0.0800272 -0.0596588 0
0.0800357 -0.0598891 0
0.0799275 -0.0600784 0
0.0797205 -0.0601773 0
0.0794593 -0.0601051 0
0.0789155 -0.0596491 0
0.0786707 -0.0593963 0
0.0784111 -0.0591319 0
0.0781372 -0.0588542 0
0.0778566 -0.0585548 0
0.0775715 -0.0582308 0
0.0772803 -0.0578828 0
0.0769832 -0.0575099 0
0.0766822 -0.0571097 0
0.0763801 -0.0566796 0
0.0760759 -0.0562196 0
0.0757623 -0.0557337 0
0.0754359 -0.0552232 0
0.0750951 -0.0546879 0
0.0747379 -0.054128 0
0.0743626 -0.0535435 0
0.0739688 -0.0529338 0
0.0735559 -0.0522981 0
0.0731238 -0.0516357 0
0.0726718 -0.050946 0
0.0721991 -0.0502288 0
0.0717046 -0.049484 0
0.0711872 -0.0487117 0
0.0706461 -0.047912 0
0.0700804 -0.0470849 0
0.0694892 -0.0462308 0
0.0688718 -0.0453499 0
0.0682271 -0.0444431 0
0.0675544 -0.043511 0
0.0668527 -0.0425546 0
0.0661215 -0.0415748 0
0.06536 -0.040573 0
0.0645676 -0.0395504 0
0.0637439 -0.0385087 0
0.0628887 -0.0374493 0
0.062002 -0.0363741 0
0.0610838 -0.0352847 0
0.0601345 -0.0341831 0
0.0591547 -0.033071 0
0.0581456 -0.0319502 0
0.0571083 -0.0308224 0
0.0560444 -0.0296893 0
0.0549562 -0.028552 0
0.053845 -0.0274126 0
0.0527113 -0.0262746 0
0.051554 -0.0251427 0
0.0503724 -0.0240222 0
0.0491675 -0.0229164 0
0.047941 -0.0218282 0
0.0466955 -0.0207597 0
0.0454337 -0.0197126 0
0.0441592 -0.0186878 0
0.0428751 -0.0176863 0
0.0415841 -0.0167097 0
0.0402878 -0.0157609 0
0.0389879 -0.0148428 0
0.0376864 -0.0139575 0
0.0363853 -0.013107 0
0.0350871 -0.0122931 0
0.0337942 -0.0115164 0
0.0325095 -0.0107772 0
0.0312357 -0.0100756 0
0.0299758 -0.00941024 0
0.0287337 -0.00877784 0
0.0275126 -0.00817571 0
0.0263139 -0.00760375 0
0.0251376 -0.00706528 0
0.0239829 -0.0065649 0
0.0228537 -0.00609619 0
0.0217522 -0.00565563 0
0.0206795 -0.00524226 0
0.0196364 -0.00485507 0
0.0186233 -0.00449318 0
0.0176408 -0.00415577 0
0.016689 -0.00384204 0
0.0157682 -0.00355115 0
0.0148783 -0.00328218 0
0.0140192 -0.00303468 0
0.0131906 -0.00280795 0
0.0123925 -0.00260016 0
0.0116246 -0.00241012 0
0.0108864 -0.00223769 0
0.0101774 -0.00208212 0
0.00949701 -0.00194206 0
0.00884483 -0.0018163 0
0.0082202 -0.0017039 0
0.00762247 -0.00160391 0
0.00705097 -0.00151528 0
0.006505 -0.00143697 0
0.0059838 -0.00136806 0
0.00548662 -0.00130772 0
0.00501265 -0.00125519 0
0.00456114 -0.00120954 0
0.00413136 -0.00116914 0
0.00372257 -0.00113251 0
0.00333398 -0.00109853 0
0.00296466 -0.00106798 0
0.00261363 -0.0010431 0
-0.052721 -0.0445996 0
-0.0508204 -0.0440823 0
-0.0489199 -0.0435651 0
-0.0470193 -0.0430478 0
-0.0451187 -0.0425306 0
-0.0432181 -0.0420134 0
-0.0413175 -0.0414961 0
-0.039417 -0.0409789 0
-0.0375164 -0.0404616 0
-0.0356158 -0.0399444 0
-0.0337152 -0.0394271 0
-0.0318146 -0.0389099 0
-0.0299141 -0.0383927 0
-0.0280135 -0.0378754 0
-0.0261129 -0.0373582 0
-0.0242123 -0.0368409 0
-0.0223117 -0.0363237 0
-0.0204112 -0.0358065 0
-0.0185106 -0.0352892 0
-0.01661 -0.034772 0
-0.0147094 -0.0342547 0
-0.0128088 -0.0337375 0
-0.0109083 -0.0332202 0
-0.00900769 -0.032703 0
-0.00710711 -0.0321858 0
-0.00520653 -0.0316685 0
-0.00330595 -0.0311513 0
-0.00140537 -0.030634 0
0.00190689 -0.0299614 0
0.00332271 -0.0298498 0
0.00474133 -0.0297825 0
0.00616136 -0.0297597 0
0.0075814 -0.0297814 0
0.00900007 -0.0298477 0
0.010416 -0.0299583 0
0.0118278 -0.0301127 0
0.0132342 -0.0303103 0
0.0146339 -0.0305504 0
0.0160259 -0.0308322 0
0.0174091 -0.0311546 0
0.0187824 -0.0315166 0
0.020145 -0.031917 0
0.0214961 -0.0323546 0
0.0228351 -0.032828 0
0.0241613 -0.0333361 0
0.0254744 -0.0338774 0
0.0267738 -0.0344507 0
0.0280592 -0.0350545 0
0.0293306 -0.0356877 0
0.0305875 -0.0363488 0
0.0318301 -0.0370367 0
0.0330581 -0.0377501 0
0.0342717 -0.0384879 0
0.0354708 -0.0392489 0
0.0366556 -0.0400321 0
0.0378262 -0.0408363 0
0.0389828 -0.0416607 0
0.0401254 -0.0425042 0
0.0412543 -0.0433659 0
0.0423698 -0.0442451 0
0.043472 -0.0451408 0
0.0445612 -0.0460523 0
0.0456375 -0.0469789 0
0.0467013 -0.0479199 0
0.0477529 -0.0488746 0
0.0487923 -0.0498424 0
0.04982 -0.0508227 0
0.0508362 -0.051815 0
0.051841 -0.0528187 0
0.0528348 -0.0538333 0
0.0538178 -0.0548584 0
0.0547903 -0.0558935 0
0.0557524 -0.0569382 0
0.0567045 -0.0579922 0
0.0576467 -0.0590549 0
0.0585792 -0.0601261 0
0.0595024 -0.0612055 0
0.0604163 -0.0622926 0
0.0613212 -0.0633873 0
0.0622174 -0.0644891 0
0.0631049 -0.0655979 0
0.0639841 -0.0667134 0
0.064855 -0.0678353 0
0.0657179 -0.0689633 0
0.0665729 -0.0700974 0
0.0674202 -0.0712372 0
0.06826 -0.0723826 0
0.0690925 -0.0735333 0
0.0699178 -0.0746892 0
0.070736 -0.0758501 0
0.0715473 -0.0770159 0
0.0723518 -0.0781863 0
0.0731498 -0.0793612 0
0.0739412 -0.0805405 0
0.0747264 -0.081724 0
0.0755053 -0.0829116 0
0.0762781 -0.0841033 0
0.0770449 -0.0852987 0
0.0778059 -0.0864979 0
0.0785611 -0.0877007 0
0.0793108 -0.088907 0
0.0814681 -0.0912706 0
0.0828814 -0.0924245 0
0.0842946 -0.0935783 0
0.0857079 -0.0947322 0
0.0871211 -0.095886 0
0.0885344 -0.0970399 0
0.0899476 -0.0981937 0
0.0913609 -0.0993476 0
0.0927741 -0.100501 0
0.0941874 -0.101655 0
0.0956006 -0.102809 0
0.0970139 -0.103963 0
0.0984272 -0.105117 0
0.0998404 -0.106271 0
0.101254 -0.107424 0
0.102667 -0.108578 0
0.10408 -0.109732 0
0.105493 -0.110886 0
0.106907 -0.11204 0
0.10832 -0.113194 0
0.109733 -0.114348 0
0.111146 -0.115501 0
0.11256 -0.116655 0
0.113973 -0.117809 0
0.115386 -0.118963 0
0.116799 -0.120117 0
0.118213 -0.121271 0
0.119626 -0.122424 0
0.121039 -0.123578 0
0.122452 -0.124732 0
0.123866 -0.125886 0
0.125279 -0.12704 0
0.126692 -0.128194 0
0.128105 -0.129348 0
0.129519 -0.130501 0
0.130932 -0.131655 0
0.132345 -0.132809 0
0.133758 -0.133963 0
0.135172 -0.133216 0
0.135172 -0.131316 0
0.135172 -0.129415 0
0.135172 -0.127514 0
0.135172 -0.125614 0
0.135172 -0.123713 0
0.135172 -0.121813 0
0.135172 -0.119912 0
0.135172 -0.118012 0
0.135172 -0.116111 0
0.135172 -0.11421 0
0.135172 -0.11231 0
0.135172 -0.110409 0
0.135172 -0.108509 0
0.135172 -0.106608 0
0.135172 -0.104708 0
0.135172 -0.102807 0
0.135172 -0.100906 0
0.135172 -0.0990058 0
0.135172 -0.0971052 0
0.135172 -0.0952046 0
0.135172 -0.0933041 0
0.135172 -0.0914035 0
0.135172 -0.0895029 0
0.135172 -0.0876023 0
0.135172 -0.0857017 0
0.135172 -0.0838012 0
0.135172 -0.0819006 0
0.133758 -0.0788462 0
0.132345 -0.0776923 0
0.130932 -0.0765385 0
0.129519 -0.0753846 0
0.128105 -0.0742308 0
0.126692 -0.0730769 0
0.125279 -0.0719231 0
0.123866 -0.0707692 0
0.122452 -0.0696154 0
0.121039 -0.0684615 0
0.119626 -0.0673077 0
0.118213 -0.0661538 0
0.116799 -0.065 0
0.115386 -0.0638462 0
0.113973 -0.0626923 0
0.11256 -0.0615385 0
0.111146 -0.0603846 0
0.109733 -0.0592308 0
0.10832 -0.0580769 0
0.106907 -0.0569231 0
0.105493 -0.0557692 0
0.10408 -0.0546154 0
0.102667 -0.0534615 0
0.101254 -0.0523077 0
0.0998404 -0.0511538 0
0.0984272 -0.05 0
0.0970139 -0.0488462 0
0.0956006 -0.0476923 0
[...]
CELL_DATA 13116
SCALARS rho float
LOOKUP_TABLE default
0.427442
0.514928
0.292648
0.55604
0.546754
0.533886
0.319492
0.549747
0.410671
0.550568
0.318282
0.295316
0.546996
0.329413
0.317353
0.533941
0.402359
0.543209
0.531826
0.327313
0.431487
0.325375
0.326236
0.54472
0.474571
0.494984
0.550604
0.328418
0.473629
0.503422
0.533394
0.326023
0.432812
0.349391
0.317907
0.429569
0.518192
0.526981
0.533762
0.534144
0.533082
0.55254
0.331256
0.289622
0.530647
0.531672
0.496827
0.534391
0.320672
0.407749
0.545693
0.344669
0.321143
0.396698
0.43172
0.455875
0.292411
0.541955
0.418161
0.317244
0.329899
0.551829
0.507308
0.533741
0.533485
0.332822
0.535708
0.523599
0.536528
0.533512
0.320215
0.457295
0.321918
0.324591
0.533303
0.305166
0.501254
0.542704
0.320132
0.540766
0.528711
0.499435
0.544784
0.534033
0.523085
0.351454
0.326337
0.521429
0.518923
0.324131
0.310176
0.516352
0.546827
0.523365
0.50581
0.466128
0.476591
0.533475
0.533316
0.466402
0.529178
0.458276
0.53265
0.313644
0.482825
0.333237
0.281298
0.368461
0.328608
0.481674
0.391082
0.49421
0.46466
0.531547
0.541262
0.535876
0.329011
0.302936
0.53996
0.536926
0.523926
0.319976
0.536838
0.336917
0.518444
0.342524
0.326797
0.397697
0.322312
0.409043
0.54019
0.533757
0.392725
0.326194
0.377149
0.455079
0.53325
0.538841
0.528463
0.536704
0.488125
0.499571
0.396431
0.488821
0.503153
0.325292
0.31854
0.492663
0.544797
0.542512
0.424609
0.533578
0.534353
0.311359
0.547764
0.524243
0.325531
0.533666
0.533478
0.521681
0.544001
0.318227
0.543458
0.325753
0.316178
0.550256
0.516087
0.542825
0.318189
0.363399
0.330065
0.533213
0.31915
0.384417
0.535145
0.327335
0.321583
0.323077
0.490888
0.533594
0.304826
0.337576
0.407218
0.518549
0.533627
0.416305
0.297802
0.532894
0.47282
0.360275
0.495977
0.490873
0.533501
0.329025
0.486581
0.533904
0.548007
0.532536
0.517828
0.317591
0.313263
0.485737
0.393536
0.327927
0.540658
0.53016
0.351561
0.474256
0.326946
0.323571
0.302595
0.534756
0.324856
0.325427
0.323389
0.310654
0.286165
0.533331
0.515763
0.341107
0.29198
0.535547
0.38619
0.305748
0.434215
0.551052
0.501207
0.332282
0.535284
0.306644
0.556365
0.31524
0.53347
0.449382
0.533453
0.52845
0.533522
0.315223
0.336644
0.521653
0.533347
0.53382
0.533267
0.533349
0.544268
0.323211
0.541839
0.548431
0.533306
0.322235
0.322184
0.531492
0.539476
0.533441
0.53643
0.416334
0.533914
0.317875
0.328665
0.309449
0.327566
0.468797
0.547825
0.500225
0.32266
0.529389
0.318252
0.339115
0.484586
0.319934
0.496046
0.54874
0.533299
0.541693
0.315656
0.53329
0.532864
0.533308
0.538711
0.31777
0.327977
0.32767
0.451215
0.319891
0.326108
0.260592
0.24752
0.522037
0.32195
0.523359
0.54751
0.302229
0.319285
0.318921
0.354302
0.289543
0.520328
0.4568
0.489052
0.320064
0.534482
0.459517
0.328953
0.3177
0.533647
0.539448
0.532641
0.296554
0.533956
0.322894
0.533197
0.552351
0.541131
0.551454
0.329932
0.535284
0.325798
0.53355
0.551329
0.522308
0.322089
0.260349
0.548907
0.330993
0.508659
0.551758
0.285697
0.536108
0.544535
0.326384
0.529197
0.546741
0.321109
0.541424
0.352782
0.449963
0.533478
0.358029
0.533915
0.323634
0.542945
0.269778
0.533349
0.451987
0.548964
0.332319
0.280074
0.524188
0.314891
0.540002
0.477997
0.329611
0.533254
0.30587
0.317568
0.538114
0.434397
0.522367
0.328171
0.32523
0.541708
0.547318
0.318473
0.546433
0.332349
0.332041
0.535511
0.537037
0.357506
0.321611
0.538796
0.533474
0.534005
0.528149
0.54144
0.424736
0.257732
0.324884
0.301812
0.533992
0.302552
0.405569
0.289504
0.31807
0.275374
0.365406
0.110399
0.31559
0.524911
0.259964
0.544077
0.473289
0.53305
0.515002
0.542375
0.317641
0.327172
0.322256
0.264992
0.537865
0.461352
0.532909
0.47377
0.504484
0.483078
0.497863
0.484822
0.501176
0.540357
0.540342
0.533779
0.314145
0.357912
0.424233
0.323602
0.453772
0.45454
0.323059
0.535651
0.533333
0.330497
0.324806
0.32363
0.300403
0.493423
0.320926
0.328994
0.535018
0.325727
0.449066
0.324319
0.533505
0.528452
0.286596
0.326592
0.537688
0.355522
0.323845
0.29847
0.319627
0.328434
0.328416
0.325147
0.325498
0.338925
0.31969
0.455495
0.307302
0.522423
0.297749
0.357509
0.395013
0.332855
0.323737
0.329803
0.531801
0.343418
0.500996
0.370423
0.330014
0.476254
0.52079
0.350826
0.53575
0.484016
0.482868
0.327724
0.533452
0.304648
0.54224
0.533379
0.325896
0.324634
0.471545
0.267447
0.359218
0.454414
0.280494
0.532904
0.505492
0.303181
0.318909
0.319104
0.380933
0.316428
0.321733
0.319064
0.326226
0.552919
0.553444
0.359425
0.468887
0.376511
0.486343
0.275414
0.320568
0.414232
0.326175
0.533467
0.231086
0.291368
0.38946
0.530092
0.512283
0.439347
0.284331
0.324524
0.446649
0.549865
0.533619
0.443709
0.486422
0.467765
0.321682
0.527642
0.445854
0.520737
0.243187
0.292116
0.530766
0.548248
0.514147
0.551312
0.513669
0.49501
0.543063
0.521094
0.533008
0.312347
0.529877
0.266611
0.326188
0.325548
0.554918
0.530609
0.24272
0.522362
0.486808
0.32239
0.533445
0.538922
0.537531
0.328
0.320502
0.54131
0.323705
0.307978
0.310429
0.322485
0.531566
0.322546
0.554904
0.307806
0.515444
0.544676
0.535775
0.547445
0.323359
0.303783
0.531934
0.55727
0.510434
0.552641
0.548213
0.391064
0.325945
0.328279
0.534126
0.412392
0.323218
0.355314
0.314557
0.532292
0.533313
0.243219
0.325298
0.520723
0.36582
0.525531
0.516252
0.320736
0.307337
0.507126
0.533357
0.326741
0.511345
0.515786
0.531386
0.312725
0.533227
0.301246
0.533435
0.519748
0.320018
0.285507
0.325727
0.533389
0.324556
0.319191
0.303347
0.533458
0.535879
0.320111
0.3245
0.323495
0.533579
0.321838
0.533805
0.325481
0.460343
0.551089
0.300214
0.325848
0.325669
0.391427
0.330769
0.503632
0.296006
0.321574
0.533464
0.320573
0.534599
0.505535
0.533452
0.30152
0.534033
0.545805
0.547716
0.534234
0.519604
0.535354
0.323413
0.533603
0.34294
0.529009
0.318376
0.544977
0.394644
0.318799
0.533375
0.54322
0.319555
0.487251
0.308679
0.319443
0.534963
0.53151
0.303599
0.323764
0.320606
0.330766
0.529639
0.54487
0.313884
0.29937
0.539967
0.538668
0.461789
0.545354
0.533384
0.318724
0.54906
0.334853
0.545553
0.303781
0.464523
0.378905
0.535123
0.523349
0.452636
0.268316
0.331244
0.53231
0.474097
0.40141
0.544942
0.327554
0.531403
0.547421
0.287119
0.355929
0.546206
0.283775
0.533381
0.522431
0.256823
0.537694
0.504398
0.305919
0.534842
0.327258
0.516527
0.29862
0.534649
0.505827
0.333708
0.533742
0.543865
0.541945
0.487764
0.528955
0.457876
0.318436
0.324981
0.297328
0.327143
0.533173
0.436595
0.537448
0.544279
0.306383
0.321165
0.53217
0.551793
0.538064
0.548791
0.321272
0.540493
0.548335
0.326455
0.308441
0.540109
0.531452
0.519849
0.324349
0.464153
0.297641
0.534109
0.503835
0.533621
0.521154
0.323272
0.528566
0.523255
0.545989
0.530556
0.533432
0.339536
0.541141
0.323517
0.485741
0.549473
0.363064
0.506694
0.533643
0.544253
0.313219
0.314676
0.458777
0.508885
0.325364
0.32382
0.316097
0.319885
0.516899
0.531044
0.533342
0.246953
0.319052
0.536376
0.532575
0.322231
0.322146
0.36444
0.51728
0.532608
0.527604
0.538399
0.323459
0.326213
0.533241
0.33457
0.318995
0.298774
0.532978
0.307249
0.323423
0.449834
0.530538
0.490939
0.533854
0.532965
0.330881
0.31924
0.316444
0.369884
0.343023
0.313941
0.522437
0.538004
0.516431
0.534108
0.333654
0.299404
0.551069
0.326578
0.53339
0.505413
0.533494
0.303592
0.317673
0.511933
0.533324
0.436646
0.320878
0.524825
0.533901
0.446383
0.542655
0.548164
0.533262
0.486643
0.321801
0.533054
0.53333
0.479105
0.534389
0.533218
0.495484
0.533347
0.538126
0.321928
0.316936
0.301956
0.533509
0.39351
0.327316
0.532026
0.540411
0.290187
0.493317
0.28306
0.497365
0.36435
0.31654
0.552049
0.544377
0.324101
0.433269
0.533489
0.324943
0.523624
0.331864
0.333309
0.479787
0.474815
0.394923
0.532536
0.315709
0.54334
0.320322
0.31763
0.53455
0.322882
0.469839
0.317321
0.49261
0.465738
0.533332
0.514266
0.322569
0.32111
0.474113
0.332942
0.537781
0.357199
0.460334
0.533699
0.545793
0.344199
0.47952
0.489612
0.548276
0.536253
0.272535
0.319063
0.425179
0.48794
0.548723
0.294277
0.532569
0.438145
0.321871
0.308011
0.523569
0.517974
0.533304
0.533361
0.458659
0.532155
0.533617
0.524055
0.317387
0.514393
0.36239
0.53841
0.530955
0.24112
0.499194
0.545605
0.317611
0.318212
0.328286
0.533224
0.31867
0.479662
0.538493
0.5156
0.302872
0.524543
0.328251
0.463711
0.533702
0.533338
0.521075
0.533554
0.483066
0.527691
0.408591
0.528589
0.296937
0.533196
0.535668
0.317308
0.533371
0.532179
0.326524
0.324089
0.322928
0.541527
0.324403
0.533272
0.312973
0.549043
0.324554
0.379369
0.322328
0.541773
0.548124
0.414718
0.213452
0.482965
0.533344
0.316814
0.46098
0.553792
0.315561
0.457979
0.533315
0.550767
0.533534
0.324313
0.366335
0.539152
0.53233
0.486967
0.325462
0.312068
0.526468
0.533267
0.533352
0.533281
0.426888
0.534111
0.423171
0.536495
0.325256
0.327603
0.533291
0.54582
0.533481
0.330675
0.533128
0.432949
0.466449
0.304361
0.328273
0.546744
0.557966
0.435222
0.26326
0.533572
0.533389
0.318534
0.476748
0.538213
0.318182
0.354467
0.323774
0.472215
0.324592
0.310828
0.528356
0.363325
0.548964
0.498106
0.318829
0.327441
0.55166
0.31586
0.321536
0.533325
0.329912
0.276347
0.46097
0.515886
0.534102
0.319068
0.253965
0.319042
0.506715
0.332563
0.53467
0.318229
0.532749
0.488297
0.52972
0.491759
0.52745
0.50208
0.532748
0.547102
0.536937
0.3218
0.320951
0.521381
0.533685
0.39983
0.481808
0.436165
0.53365
0.477743
0.286524
0.536278
0.552975
0.527186
0.322581
0.529244
0.30229
0.533985
0.393667
0.541077
0.534219
0.316348
0.537779
0.324301
0.333384
0.508316
0.297804
0.533353
0.533256
0.538413
0.301164
0.534961
0.321251
0.303837
0.3172
0.322849
0.47121
0.320298
0.491042
0.533629
0.265958
0.329164
0.385796
0.455948
0.492606
0.488522
0.303877
0.333527
0.318432
0.32237
0.212553
0.492164
0.498378
0.326685
0.533334
0.53807
0.32387
0.552912
0.532016
0.533652
0.323162
0.533311
0.52786
0.541377
0.538419
0.316011
0.535135
0.542788
0.529762
0.524265
0.533279
0.324404
0.322138
0.533826
0.423816
0.318872
0.534431
0.327823
0.449481
0.487024
0.514777
0.517949
0.305968
0.48033
0.311856
0.322683
0.536771
0.541531
0.544823
0.54135
0.51168
0.304119
0.54816
0.321243
0.398969
0.549803
0.533328
0.538747
0.322623
0.323585
0.549036
0.323039
0.540808
0.508644
0.337101
0.322725
0.535496
0.319262
0.53416
0.540398
0.50914
0.31886
0.316592
0.395063
0.403233
0.483017
0.369886
0.533349
0.488536
0.524629
0.533167
0.533492
0.323067
0.324516
0.542391
0.533277
0.484354
0.363268
0.328041
0.525279
0.320082
0.533282
0.483313
0.260955
0.537424
0.319906
0.507175
0.294952
0.545563
0.315069
0.533114
0.533584
0.277748
0.520599
0.508435
0.267249
0.533342
0.531718
0.434624
0.332625
0.286821
0.364685
0.546238
0.470663
0.318573
0.460598
0.535474
0.533504
0.29494
0.473777
0.519933
0.365505
0.533331
0.533641
0.235389
0.53669
0.533321
0.292861
0.46533
0.302006
0.495616
0.310156
0.332852
0.547901
0.317211
0.323073
0.322783
0.535378
0.512754
0.316425
0.533466
0.283685
0.516421
0.321255
0.515811
0.290053
0.533737
0.534164
0.502402
0.53346
0.436202
0.533607
0.533627
0.292039
0.499654
0.50666
0.377665
0.532976
0.390471
0.316141
0.547896
0.308259
0.448048
0.279121
0.532832
0.321855
0.328865
0.544466
0.533019
0.304344
0.537513
0.538098
0.533205
0.548433
0.533399
0.321767
0.552297
0.324146
0.325158
0.520097
0.539254
0.551852
0.522594
0.313896
0.309489
0.318289
0.516154
0.533588
0.285888
0.524609
0.333559
0.307049
0.304922
0.521315
0.304063
0.549512
0.537255
0.498798
0.530753
0.536318
0.446594
0.496875
0.344584
0.330451
0.304519
0.533392
0.533349
0.330686
0.491686
0.469852
0.498333
0.324582
0.310709
0.491633
0.220674
0.486081
0.462126
0.325959
0.533435
0.518342
0.327529
0.533557
0.320737
0.537253
0.549758
0.527857
0.32123
0.372838
0.532142
0.238864
0.35202
0.530769
0.245594
0.533441
0.536179
0.495639
0.538395
0.260717
0.533409
0.536248
0.532237
0.287895
0.542832
0.322368
0.330798
0.524036
0.532794
0.533431
0.187281
0.53446
0.499386
0.533307
0.334427
0.330343
0.323582
0.540096
0.318596
0.319357
0.305867
0.460404
0.319048
0.242036
0.350925
0.534635
0.32573
0.533421
0.533552
0.533793
0.300288
0.535917
0.512044
0.533335
0.329673
0.522477
0.318819
0.309803
0.53486
0.319329
0.488342
0.534457
0.53332
0.321064
0.260567
0.319787
0.442554
0.533285
0.18536
0.527619
0.53527
0.539344
0.324207
0.321944
0.272654
0.469922
0.324927
0.533238
0.477234
0.533579
0.527323
0.318778
0.488675
0.321869
0.437585
0.510102
0.551624
0.443568
0.372998
0.522219
0.487474
0.543152
0.305846
0.292991
0.31327
0.540607
0.416977
0.533335
0.324931
0.314455
0.541365
0.535685
0.533336
0.318554
0.534419
0.441188
0.443556
0.472779
0.329511
0.322298
0.234229
0.532816
0.533669
0.523055
0.484593
0.271723
0.539218
0.51741
0.53367
0.53333
0.539061
0.552779
0.533969
0.538163
0.544341
0.32507
0.537348
0.542118
0.533171
0.538591
0.532479
0.45025
0.324238
0.333245
0.482031
0.322856
0.263502
0.533732
0.320756
0.501855
0.536035
0.513018
0.527827
0.326603
0.535195
0.314212
0.329113
0.534022
0.533435
0.534238
0.296412
0.545633
0.532644
0.479895
0.532751
0.324052
0.5332
0.549369
0.518625
0.318306
0.542332
0.321566
0.557548
0.300966
0.32434
0.407097
0.354478
0.551927
0.542668
0.533558
0.307108
0.533232
0.318117
0.320577
0.508614
0.388908
0.324869
0.533011
0.321117
0.40675
0.522526
0.496557
0.517238
0.387931
0.470557
0.513732
0.53384
0.44812
0.544813
0.422662
0.553289
0.481265
0.507136
0.332566
0.32008
0.353968
0.541364
0.325958
0.520623
0.537829
0.471487
0.533899
0.405109
0.532588
0.525279
0.323969
0.536908
0.476598
0.381911
0.47947
0.54887
0.504894
0.533464
0.323653
0.322334
0.529649
0.419397
0.424939
0.538646
0.533608
0.533879
0.548296
0.549446
0.48543
0.486343
0.551576
0.31994
0.322023
0.322306
0.29667
0.533347
0.361686
0.420103
0.537151
0.529224
0.325677
0.52866
0.556185
0.295435
0.296143
0.53328
0.538679
0.330611
0.306985
0.312735
0.533196
0.494338
0.321661
0.323286
0.32628
0.331018
0.272545
0.321799
0.554322
0.534323
0.53062
0.308238
0.513932
0.473559
0.481464
0.293416
0.324687
0.506945
0.533292
0.323749
0.533535
0.327543
0.544141
0.325898
0.533211
0.298609
0.517103
0.547478
0.303372
0.444943
0.31982
0.55258
0.330188
0.476648
0.328005
0.397489
0.319861
0.469625
0.316961
0.533441
0.53344
0.479747
0.526567
0.282519
0.516115
0.533331
0.546432
0.471607
0.517177
0.325183
0.305595
0.328233
0.546793
0.230047
0.545315
0.431006
0.539039
0.550719
0.359926
0.541006
0.320902
0.331375
0.319355
0.401186
0.405465
0.532972
0.318992
0.326248
0.5344
0.300872
0.317967
0.431924
0.291519
0.323629
0.333922
0.55354
0.514759
0.480273
0.326737
0.513381
0.532957
0.331259
0.256693
0.523531
0.533124
0.440343
0.409288
0.327047
0.287196
0.311785
0.530072
0.478411
0.410113
0.534951
0.323883
0.446094
0.319627
0.533412
0.545348
0.325761
0.325814
0.483889
0.426413
0.547185
0.544324
0.546588
0.538003
0.549892
0.307617
0.323737
0.310016
0.317743
0.421204
0.533447
0.516156
0.31893
0.300386
0.354547
0.354825
0.53379
0.495645
0.323086
0.243287
0.536009
0.327518
0.512637
0.542837
0.508978
0.533285
0.430811
0.315728
0.301476
0.481755
0.326006
0.328945
0.315818
0.53346
0.532496
0.284331
0.325768
0.533201
0.315832
0.534178
0.546819
0.315138
0.318268
0.325155
0.5357
0.329005
0.53325
0.534896
0.471844
0.302391
0.420173
0.54214
0.525458
0.321285
0.522963
0.483758
0.369299
0.539517
0.556822
0.322047
0.316315
0.511028
0.320317
0.318205
0.519315
0.274674
0.533155
0.532919
0.546182
0.489677
0.545619
0.535889
0.53371
0.318183
0.326408
0.492711
0.5317
0.372626
0.552633
0.256847
0.537877
0.518553
0.447308
0.508939
0.306191
0.361273
0.529368
0.543024
0.478585
0.547752
0.534981
0.533246
0.547584
0.533187
0.521475
0.51072
0.535665
0.533303
0.533712
0.280485
0.502008
0.291087
0.53518
0.537467
0.540016
0.500964
0.537989
0.317077
0.316562
0.242463
0.321066
0.507184
0.313352
0.323108
0.529861
0.324122
0.537623
0.31239
0.519531
0.535514
0.315511
0.303115
0.257085
0.540467
0.324406
0.532357
0.537506
0.319253
0.504705
0.439258
0.272927
0.329053
0.324224
0.538851
0.316356
0.536071
0.402203
0.320294
0.531843
0.533109
0.546558
0.327243
0.451003
0.324613
0.5155
0.533676
0.535818
0.323232
0.530883
0.538759
0.489513
0.320811
0.540352
0.328623
0.321118
0.529567
0.35785
0.549693
0.315244
0.323305
0.352528
0.496441
0.32609
0.231182
0.300074
0.376601
0.5333
0.537001
0.329044
0.468596
0.535077
0.443567
0.32997
0.258802
0.441151
0.327312
0.319853
0.530162
0.321782
0.325864
0.542661
0.554345
0.295346
0.542069
0.309084
0.533265
0.326755
0.509907
0.533562
0.539034
0.53347
0.321838
0.319843
0.320453
0.533761
0.512558
0.468585
0.426694
0.294981
0.240916
0.533328
0.318459
0.533567
0.303925
0.533577
0.524766
0.29582
0.289335
0.322945
0.325952
0.290384
0.482757
0.509281
0.298964
0.536587
0.499949
0.315162
0.319557
0.554246
0.324706
0.53521
0.339552
0.538693
0.513668
0.535834
0.533322
0.322163
0.549476
0.533727
0.555714
0.319841
0.475912
0.473576
0.260572
0.541363
0.499537
0.549002
0.514159
0.549936
0.5284
0.551236
0.533152
0.531919
0.308545
0.545752
0.32315
0.360998
0.530523
0.322325
0.521008
0.47528
0.325602
0.490697
0.317498
0.310971
0.523344
0.467306
0.553923
0.323954
0.513915
0.487272
0.317132
0.305539
0.509465
0.533072
0.299595
0.306511
0.537966
0.55373
0.310811
0.503531
0.548227
0.51701
0.2969
0.328857
0.31478
0.514895
0.312753
0.523558
0.540597
0.533352
0.473669
0.535785
0.324329
0.519337
0.487139
0.5473
0.44104
0.325521
0.318284
0.330437
0.544589
0.538443
0.337445
0.511953
0.250099
0.503859
0.536731
0.327779
0.482797
0.524417
0.488514
0.306652
0.326312
0.290087
0.540067
0.549604
0.48525
0.408848
0.535776
0.324295
0.497616
0.533301
0.531063
0.306462
0.495121
0.325799
0.48133
0.332367
0.530934
0.523378
0.327003
0.539837
0.334792
0.533297
0.500752
0.533224
0.540557
0.325586
0.533348
0.533392
0.533215
0.531685
0.384351
0.533293
0.324229
0.533543
0.328445
0.300073
0.325818
0.289609
0.32599
0.302476
0.550233
0.290852
0.318961
0.515312
0.540218
0.511189
0.322428
0.535015
0.534298
0.533298
0.274233
0.452478
0.535659
0.319132
0.302984
0.31929
0.492903
0.404326
0.313721
0.458432
0.333638
0.533404
0.398855
0.327011
0.375865
0.510075
0.285751
0.533409
0.322403
0.368515
0.297397
0.532554
0.303918
0.510575
0.533295
0.462995
0.328247
0.321058
0.527215
0.552874
0.306947
0.303802
0.533653
0.320285
0.541967
0.3097
0.442725
0.331004
0.535799
0.323173
0.551763
0.299775
0.536543
0.536552
0.543671
0.533366
0.326118
0.325954
0.322132
0.497723
0.529147
0.495163
0.407642
0.326776
0.539854
0.262456
0.510455
0.45585
0.315617
0.3245
0.543936
0.530761
0.326808
0.533431
0.531134
0.543886
0.546193
0.322218
0.499662
0.324523
0.543966
0.314161
0.533423
0.505548
0.513622
0.552242
0.315873
0.557298
0.318066
0.322654
0.53408
0.533377
0.431633
0.530345
0.533334
0.32393
0.543588
0.529653
0.549767
0.304788
0.338062
0.531827
0.315776
0.538221
0.537563
0.523177
0.534919
0.228092
0.353575
0.509917
0.326394
0.518463
0.553351
0.372856
0.520646
0.21567
0.483536
0.543798
0.530609
0.520876
0.32473
0.330099
0.533197
0.521429
0.325606
0.262866
0.322334
0.325932
0.319316
0.333537
0.287149
0.320492
0.532653
0.326785
0.293176
0.537102
0.430062
0.533205
0.313913
0.325087
0.535482
0.369196
0.373859
0.548064
0.293888
0.518595
0.533588
0.48139
0.517603
0.319102
0.537314
0.533698
0.319487
0.320241
0.316217
0.472597
0.480756
0.549799
0.534009
0.531748
0.520503
0.292826
0.538166
0.533705
0.509052
0.32363
0.536196
0.449549
0.287358
0.342748
0.321746
0.321589
0.32243
0.464706
0.523548
0.522411
0.319882
0.308859
0.548158
0.282397
0.537602
0.533392
0.52348
0.530831
0.535487
0.319381
0.323753
0.334037
0.445057
0.318237
0.534518
0.31933
0.534806
0.533443
0.537072
0.298349
0.354519
0.324393
0.536169
0.30609
0.319012
0.533487
0.517358
0.484991
0.533867
0.505124
0.541572
0.321743
0.493441
0.545649
0.421508
0.535139
0.539214
0.542522
0.365539
0.33901
0.550898
0.395796
0.479789
0.323135
0.502977
0.523875
0.317944
0.312017
0.513801
0.402763
0.543547
0.537574
0.316903
0.3271
0.533326
0.299786
0.324396
0.525237
0.510329
0.324185
0.52759
0.533484
0.502533
0.299721
0.465749
0.322792
0.527639
0.545093
0.541453
0.52008
0.533461
0.248568
0.283493
0.530022
0.320037
0.481068
0.3214
0.536403
0.331319
0.507708
0.545278
0.533438
0.323071
0.533236
0.533287
0.319586
0.503545
0.314493
0.554538
0.323289
0.298863
0.315233
0.526973
0.530148