# vtk DataFile Version 1.0
unstructured grid
ascii
DATASET UNSTRUCTURED_GRID
points 13672 float
0.0796578 -0.059106 0
0.00128732 0.00159165 0
0.00227961 -0.00102548 0
0.0791586 -0.0598787 0
-0.0546216 0.01 0
0.000495206 0.025 0
0.0800549 -0.035 0
0.135172 -0.08 0
-0.0546216 -0.0451168 0
0.000495206 -0.0301168 0
0.0800549 -0.0901168 0
0.135172 -0.135117 0
-0.0546216 -0.0451168 -0.00551168
0.000495206 -0.0301168 -0.00551168
0.0800549 -0.0901168 -0.00551168
0.135172 -0.135117 -0.00551168
0.135172 -0.08 -0.00551168
0.0800549 -0.035 -0.00551168
0.000495206 0.025 -0.00551168
-0.0546216 0.01 -0.00551168
0.00128732 0.00159165 -0.00551168
0.00227961 -0.00102548 -0.00551168
0.0791586 -0.0598787 -0.00551168
0.0796578 -0.059106 -0.00551168
0.00165953 -0.000990923 0
0.00119576 -0.000874076 0
0.000866021 -0.000641801 0
0.000645147 -0.000349912 0
0.00052235 -1.7281e-05 0
0.00049972 0.000348016 0
0.000601632 0.000737716 0
0.000861774 0.0011403 0
0.00157235 0.00183217 0
0.00188647 0.00206725 0
0.00222612 0.00230203 0
0.00258713 0.00254351 0
0.00296826 0.00279524 0
0.00337118 0.00305664 0
0.00379785 0.00332658 0
0.00425045 0.00360349 0
0.00473139 0.00388521 0
0.0052432 0.00416895 0
0.0057881 0.00445204 0
0.00636753 0.00473281 0
0.00698281 0.00500961 0
0.00763526 0.00528058 0
0.00832616 0.00554366 0
0.00905691 0.00579603 0
0.00982918 0.00603333 0
0.0106445 0.00625033 0
0.0115038 0.00644128 0
0.0124073 0.00660297 0
0.0133543 0.00673414 0
0.0143444 0.00683382 0
0.0153769 0.00690031 0
0.0164512 0.00693173 0
0.0175666 0.00692547 0
0.0187219 0.00687822 0
0.0199156 0.00678477 0
0.0211454 0.00663864 0
0.0224084 0.00643275 0
0.0237018 0.00616676 0
0.0250249 0.00584739 0
0.026375 0.00547298 0
0.0277479 0.00503752 0
0.0291386 0.00453545 0
0.0305433 0.0039653 0
0.0319572 0.0033256 0
0.0333681 0.00260019 0
0.034775 0.00179799 0
0.0361793 0.000930615 0
0.0375798 3.12222e-06 0
0.0389689 -0.000988429 0
0.0403357 -0.00205109 0
0.041675 -0.00318283 0
0.0429849 -0.00437751 0
0.0442643 -0.00562904 0
0.0455126 -0.00693089 0
0.0467314 -0.00827518 0
0.0479204 -0.00965638 0
0.0490661 -0.0110799 0
0.0501515 -0.0125519 0
0.0511696 -0.0140695 0
0.0521492 -0.0156071 0
0.0531202 -0.0171411 0
0.0540851 -0.0186663 0
0.0550431 -0.0201798 0
0.0559923 -0.0216793 0
0.0569311 -0.0231626 0
0.0578582 -0.0246273 0
0.0587723 -0.0260715 0
0.0596721 -0.027493 0
0.0605563 -0.02889 0
0.0614241 -0.0302609 0
0.0622742 -0.0316042 0
0.063106 -0.0329183 0
0.0639186 -0.034202 0
0.0647113 -0.0354543 0
0.0654835 -0.0366743 0
0.0662345 -0.0378613 0
0.0669642 -0.0390145 0
0.0676726 -0.0401333 0
0.0683597 -0.0412172 0
0.0690246 -0.0422665 0
0.0696662 -0.0432819 0
0.0702841 -0.0442636 0
0.0708793 -0.0452111 0
0.0714538 -0.0461237 0
0.072009 -0.047001 0
0.0725452 -0.0478434 0
0.0730611 -0.0486524 0
0.073556 -0.0494294 0
0.0740291 -0.0501756 0
0.0744812 -0.0508916 0
0.0749138 -0.0515773 0
0.0753285 -0.0522331 0
0.0757266 -0.0528592 0
0.076109 -0.0534564 0
0.0764753 -0.0540264 0
0.0768243 -0.054571 0
0.0771553 -0.0550919 0
0.0774679 -0.0555901 0
0.0777617 -0.0560669 0
0.0780369 -0.056523 0
0.0782958 -0.0569578 0
0.0785421 -0.0573703 0
0.0787786 -0.0577603 0
0.0790073 -0.0581279 0
0.0792295 -0.058474 0
0.0794462 -0.0587995 0
0.0798803 -0.0594162 0
0.0800272 -0.0596588 0
0.0800357 -0.0598891 0
0.0799275 -0.0600784 0
0.0797205 -0.0601773 0
0.0794593 -0.0601051 0
0.0789155 -0.0596491 0
0.0786707 -0.0593963 0
0.0784111 -0.0591319 0
0.0781372 -0.0588542 0
0.0778566 -0.0585548 0
0.0775715 -0.0582308 0
0.0772803 -0.0578828 0
0.0769832 -0.0575099 0
0.0766822 -0.0571097 0
0.0763801 -0.0566796 0
0.0760759 -0.0562196 0
0.0757623 -0.0557337 0
0.0754359 -0.0552232 0
0.0750951 -0.0546879 0
0.0747379 -0.054128 0
0.0743626 -0.0535435 0
0.0739688 -0.0529338 0
0.0735559 -0.0522981 0
0.0731238 -0.0516357 0
0.0726718 -0.050946 0
0.0721991 -0.0502288 0
0.0717046 -0.049484 0
0.0711872 -0.0487117 0
0.0706461 -0.047912 0
0.0700804 -0.0470849 0
0.0694892 -0.0462308 0
0.0688718 -0.0453499 0
0.0682271 -0.0444431 0
0.0675544 -0.043511 0
0.0668527 -0.0425546 0
0.0661215 -0.0415748 0
0.06536 -0.040573 0
0.0645676 -0.0395504 0
0.0637439 -0.0385087 0
0.0628887 -0.0374493 0
0.062002 -0.0363741 0
0.0610838 -0.0352847 0
0.0601345 -0.0341831 0
0.0591547 -0.033071 0
0.0581456 -0.0319502 0
0.0571083 -0.0308224 0
0.0560444 -0.0296893 0
0.0549562 -0.028552 0
0.053845 -0.0274126 0
0.0527113 -0.0262746 0
0.051554 -0.0251427 0
0.0503724 -0.0240222 0
0.0491675 -0.0229164 0
0.047941 -0.0218282 0
0.0466955 -0.0207597 0
0.0454337 -0.0197126 0
0.0441592 -0.0186878 0
0.0428751 -0.0176863 0
0.0415841 -0.0167097 0
0.0402878 -0.0157609 0
0.0389879 -0.0148428 0
0.0376864 -0.0139575 0
0.0363853 -0.013107 0
0.0350871 -0.0122931 0
0.0337942 -0.0115164 0
0.0325095 -0.0107772 0
0.0312357 -0.0100756 0
0.0299758 -0.00941024 0
0.0287337 -0.00877784 0
0.0275126 -0.00817571 0
0.0263139 -0.00760375 0
0.0251376 -0.00706528 0
0.0239829 -0.0065649 0
0.0228537 -0.00609619 0
0.0217522 -0.00565563 0
0.0206795 -0.00524226 0
0.0196364 -0.00485507 0
0.0186233 -0.00449318 0
0.0176408 -0.00415577 0
0.016689 -0.00384204 0
0.0157682 -0.00355115 0
0.0148783 -0.00328218 0
0.0140192 -0.00303468 0
0.0131906 -0.00280795 0
0.0123925 -0.00260016 0
0.0116246 -0.00241012 0
0.0108864 -0.00223769 0
0.0101774 -0.00208212 0
0.00949701 -0.00194206 0
0.00884483 -0.0018163 0
0.0082202 -0.0017039 0
0.00762247 -0.00160391 0
0.00705097 -0.00151528 0
0.006505 -0.00143697 0
0.0059838 -0.00136806 0
0.00548662 -0.00130772 0
0.00501265 -0.00125519 0
0.00456114 -0.00120954 0
0.00413136 -0.00116914 0
0.00372257 -0.00113251 0
0.00333398 -0.00109853 0
0.00296466 -0.00106798 0
0.00261363 -0.0010431 0
-0.052721 -0.0445996 0
-0.0508204 -0.0440823 0
-0.0489199 -0.0435651 0
-0.0470193 -0.0430478 0
-0.0451187 -0.0425306 0
-0.0432181 -0.0420134 0
-0.0413175 -0.0414961 0
-0.039417 -0.0409789 0
-0.0375164 -0.0404616 0
-0.0356158 -0.0399444 0
-0.0337152 -0.0394271 0
-0.0318146 -0.0389099 0
-0.0299141 -0.0383927 0
-0.0280135 -0.0378754 0
-0.0261129 -0.0373582 0
-0.0242123 -0.0368409 0
-0.0223117 -0.0363237 0
-0.0204112 -0.0358065 0
-0.0185106 -0.0352892 0
-0.01661 -0.034772 0
-0.0147094 -0.0342547 0
-0.0128088 -0.0337375 0
-0.0109083 -0.0332202 0
-0.00900769 -0.032703 0
-0.00710711 -0.0321858 0
-0.00520653 -0.0316685 0
-0.00330595 -0.0311513 0
-0.00140537 -0.030634 0
0.00190689 -0.0299614 0
0.00332271 -0.0298498 0
0.00474133 -0.0297825 0
0.00616136 -0.0297597 0
0.0075814 -0.0297814 0
0.00900007 -0.0298477 0
0.010416 -0.0299583 0
0.0118278 -0.0301127 0
0.0132342 -0.0303103 0
0.0146339 -0.0305504 0
0.0160259 -0.0308322 0
0.0174091 -0.0311546 0
0.0187824 -0.0315166 0
0.020145 -0.031917 0
0.0214961 -0.0323546 0
0.0228351 -0.032828 0
0.0241613 -0.0333361 0
0.0254744 -0.0338774 0
0.0267738 -0.0344507 0
0.0280592 -0.0350545 0
0.0293306 -0.0356877 0
0.0305875 -0.0363488 0
0.0318301 -0.0370367 0
0.0330581 -0.0377501 0
0.0342717 -0.0384879 0
0.0354708 -0.0392489 0
0.0366556 -0.0400321 0
0.0378262 -0.0408363 0
0.0389828 -0.0416607 0
0.0401254 -0.0425042 0
0.0412543 -0.0433659 0
0.0423698 -0.0442451 0
0.043472 -0.0451408 0
0.0445612 -0.0460523 0
0.0456375 -0.0469789 0
0.0467013 -0.0479199 0
0.0477529 -0.0488746 0
0.0487923 -0.0498424 0
0.04982 -0.0508227 0
0.0508362 -0.051815 0
0.051841 -0.0528187 0
0.0528348 -0.0538333 0
0.0538178 -0.0548584 0
0.0547903 -0.0558935 0
0.0557524 -0.0569382 0
0.0567045 -0.0579922 0
0.0576467 -0.0590549 0
0.0585792 -0.0601261 0
0.0595024 -0.0612055 0
0.0604163 -0.0622926 0
0.0613212 -0.0633873 0
0.0622174 -0.0644891 0
0.0631049 -0.0655979 0
0.0639841 -0.0667134 0
0.064855 -0.0678353 0
0.0657179 -0.0689633 0
0.0665729 -0.0700974 0
0.0674202 -0.0712372 0
0.06826 -0.0723826 0
0.0690925 -0.0735333 0
0.0699178 -0.0746892 0
0.070736 -0.0758501 0
0.0715473 -0.0770159 0
0.0723518 -0.0781863 0
0.0731498 -0.0793612 0
0.0739412 -0.0805405 0
0.0747264 -0.081724 0
0.0755053 -0.0829116 0
0.0762781 -0.0841033 0
0.0770449 -0.0852987 0
0.0778059 -0.0864979 0
0.0785611 -0.0877007 0
0.0793108 -0.088907 0
0.0814681 -0.0912706 0
0.0828814 -0.0924245 0
0.0842946 -0.0935783 0
0.0857079 -0.0947322 0
0.0871211 -0.095886 0
0.0885344 -0.0970399 0
0.0899476 -0.0981937 0
0.0913609 -0.0993476 0
0.0927741 -0.100501 0
0.0941874 -0.101655 0
0.0956006 -0.102809 0
0.0970139 -0.103963 0
0.0984272 -0.105117 0
0.0998404 -0.106271 0
0.101254 -0.107424 0
0.102667 -0.108578 0
0.10408 -0.109732 0
0.105493 -0.110886 0
0.106907 -0.11204 0
0.10832 -0.113194 0
0.109733 -0.114348 0
0.111146 -0.115501 0
0.11256 -0.116655 0
0.113973 -0.117809 0
0.115386 -0.118963 0
0.116799 -0.120117 0
0.118213 -0.121271 0
0.119626 -0.122424 0
0.121039 -0.123578 0
0.122452 -0.124732 0
0.123866 -0.125886 0
0.125279 -0.12704 0
0.126692 -0.128194 0
0.128105 -0.129348 0
0.129519 -0.130501 0
0.130932 -0.131655 0
0.132345 -0.132809 0
0.133758 -0.133963 0
0.135172 -0.133216 0
0.135172 -0.131316 0
0.135172 -0.129415 0
0.135172 -0.127514 0
0.135172 -0.125614 0
0.135172 -0.123713 0
0.135172 -0.121813 0
0.135172 -0.119912 0
0.135172 -0.118012 0
0.135172 -0.116111 0
0.135172 -0.11421 0
0.135172 -0.11231 0
0.135172 -0.110409 0
0.135172 -0.108509 0
0.135172 -0.106608 0
0.135172 -0.104708 0
0.135172 -0.102807 0
0.135172 -0.100906 0
0.135172 -0.0990058 0
0.135172 -0.0971052 0
0.135172 -0.0952046 0
0.135172 -0.0933041 0
0.135172 -0.0914035 0
0.135172 -0.0895029 0
0.135172 -0.0876023 0
0.135172 -0.0857017 0
0.135172 -0.0838012 0
0.135172 -0.0819006 0
0.133758 -0.0788462 0
0.132345 -0.0776923 0
0.130932 -0.0765385 0
0.129519 -0.0753846 0
0.128105 -0.0742308 0
0.126692 -0.0730769 0
0.125279 -0.0719231 0
0.123866 -0.0707692 0
0.122452 -0.0696154 0
0.121039 -0.0684615 0
0.119626 -0.0673077 0
0.118213 -0.0661538 0
0.116799 -0.065 0
0.115386 -0.0638462 0
0.113973 -0.0626923 0
0.11256 -0.0615385 0
0.111146 -0.0603846 0
0.109733 -0.0592308 0
0.10832 -0.0580769 0
0.106907 -0.0569231 0
0.105493 -0.0557692 0
0.10408 -0.0546154 0
0.102667 -0.0534615 0
0.101254 -0.0523077 0
0.0998404 -0.0511538 0
0.0984272 -0.05 0
0.0970139 -0.0488462 0
0.0956006 -0.0476923 0
[...]
CELL_DATA 13116
SCALARS rho float
LOOKUP_TABLE default
0.426986
0.514439
0.293618
0.555676
0.546306
0.533902
0.322954
0.549148
0.410164
0.550072
0.322167
0.297956
0.546551
0.331168
0.320708
0.533949
0.401937
0.542555
0.531578
0.328669
0.431016
0.326956
0.328923
0.54409
0.473963
0.49393
0.550104
0.331276
0.472929
0.502814
0.533631
0.33283
0.432263
0.348844
0.322003
0.429104
0.517619
0.526595
0.533868
0.533723
0.532952
0.551955
0.330859
0.29318
0.530357
0.531412
0.496295
0.53411
0.323566
0.407184
0.545254
0.344215
0.322187
0.396298
0.431179
0.455306
0.298153
0.541379
0.417577
0.3191
0.332311
0.551405
0.506805
0.533858
0.533698
0.336304
0.535498
0.522993
0.536272
0.53371
0.323287
0.456643
0.323056
0.329285
0.533598
0.306258
0.500729
0.542296
0.324004
0.540105
0.528149
0.498614
0.544185
0.5337
0.52264
0.350761
0.326582
0.52078
0.518328
0.325422
0.315062
0.515867
0.546232
0.522661
0.505222
0.465573
0.475976
0.53374
0.533589
0.465766
0.528458
0.457722
0.532485
0.313504
0.482225
0.334667
0.280749
0.368028
0.330671
0.480964
0.390644
0.49352
0.464106
0.530963
0.5406
0.535632
0.329199
0.302513
0.539579
0.536615
0.523307
0.321313
0.53657
0.346988
0.517625
0.341968
0.327028
0.397098
0.327415
0.408471
0.539813
0.533305
0.392049
0.32881
0.376474
0.454585
0.533663
0.538517
0.527744
0.536391
0.487601
0.499044
0.395848
0.488299
0.502639
0.328682
0.322697
0.491797
0.544328
0.542043
0.423943
0.533253
0.534083
0.312642
0.547268
0.523804
0.327898
0.53293
0.533739
0.521018
0.543378
0.321674
0.542904
0.327793
0.317148
0.549832
0.515319
0.542174
0.322074
0.362704
0.329462
0.53362
0.321898
0.383844
0.534929
0.330183
0.323451
0.324292
0.490197
0.533624
0.305773
0.337009
0.406781
0.517966
0.533644
0.415734
0.299611
0.532749
0.47215
0.359669
0.495435
0.490019
0.533678
0.331336
0.48582
0.533931
0.547454
0.532368
0.51724
0.31724
0.313164
0.485038
0.392942
0.330834
0.5402
0.529792
0.351104
0.473687
0.327827
0.3245
0.30368
0.534637
0.32704
0.328224
0.324058
0.311939
0.285861
0.533432
0.514926
0.340422
0.297352
0.535351
0.385761
0.306678
0.433495
0.550599
0.500693
0.334205
0.535069
0.306036
0.55553
0.322906
0.533655
0.448719
0.533734
0.527974
0.533687
0.316504
0.336148
0.520976
0.533661
0.533855
0.533661
0.533503
0.543627
0.325063
0.541459
0.547957
0.533572
0.325267
0.32514
0.531152
0.53911
0.533645
0.536058
0.415892
0.533278
0.321723
0.330254
0.309617
0.328403
0.468168
0.547271
0.499696
0.323761
0.529053
0.327948
0.338478
0.483993
0.321242
0.495122
0.548278
0.533635
0.54112
0.316736
0.53363
0.532301
0.533572
0.538389
0.321458
0.328247
0.330192
0.450722
0.321031
0.328831
0.26009
0.251256
0.521597
0.323776
0.522849
0.547083
0.3092
0.324024
0.328474
0.353686
0.290595
0.519685
0.456278
0.488417
0.321368
0.534361
0.458779
0.330428
0.320031
0.533728
0.539085
0.532493
0.298367
0.533971
0.32251
0.532751
0.551814
0.540695
0.550927
0.332311
0.535086
0.326974
0.533476
0.550895
0.521591
0.324985
0.259847
0.548442
0.333758
0.508145
0.551338
0.285293
0.535421
0.543936
0.329079
0.528858
0.546139
0.321926
0.541042
0.352084
0.449229
0.53244
0.357327
0.533184
0.32464
0.542318
0.269247
0.533482
0.451378
0.548413
0.33387
0.279581
0.523754
0.316145
0.53956
0.47732
0.329061
0.533666
0.307351
0.318565
0.537706
0.433701
0.521776
0.32837
0.327355
0.541329
0.54689
0.322619
0.546018
0.33289
0.333342
0.535224
0.536175
0.357179
0.322458
0.538467
0.5337
0.534013
0.527777
0.540926
0.424083
0.258496
0.325955
0.302995
0.534011
0.30371
0.405137
0.289211
0.319777
0.274895
0.365038
0.110187
0.316886
0.524495
0.262004
0.543528
0.472611
0.532827
0.514357
0.541991
0.318636
0.327495
0.322075
0.266194
0.537436
0.460806
0.53274
0.473089
0.503973
0.482503
0.497061
0.484292
0.500575
0.539859
0.539674
0.533828
0.314364
0.35745
0.423775
0.324903
0.453241
0.45398
0.323949
0.535425
0.533663
0.332861
0.326713
0.328503
0.302052
0.492688
0.32473
0.331336
0.534867
0.33143
0.44842
0.328868
0.533498
0.527929
0.290583
0.32903
0.537276
0.354896
0.328805
0.300283
0.320405
0.330412
0.328986
0.327021
0.327507
0.338292
0.323657
0.454925
0.308549
0.521934
0.297151
0.358447
0.39431
0.335483
0.325049
0.333927
0.531442
0.342778
0.500283
0.370021
0.334897
0.475683
0.520215
0.350127
0.535064
0.483451
0.482313
0.329365
0.53373
0.304171
0.541704
0.533625
0.327472
0.32678
0.470879
0.267843
0.358506
0.4538
0.279962
0.532172
0.504984
0.307905
0.320893
0.322146
0.380368
0.318698
0.322739
0.32242
0.327406
0.5525
0.553054
0.358773
0.468243
0.375844
0.485623
0.275235
0.322631
0.413713
0.32761
0.533065
0.230666
0.290849
0.388778
0.529786
0.511516
0.438651
0.283864
0.32677
0.445903
0.549293
0.533796
0.44297
0.485857
0.467141
0.325843
0.527118
0.445199
0.520055
0.243488
0.292901
0.530184
0.547674
0.513499
0.550845
0.513109
0.493841
0.542443
0.520391
0.532798
0.312997
0.529561
0.266091
0.32717
0.327876
0.554591
0.530251
0.242304
0.521903
0.486075
0.325255
0.533583
0.538567
0.537013
0.331085
0.322489
0.540895
0.328596
0.311005
0.311799
0.326667
0.531146
0.32366
0.554605
0.309057
0.514948
0.544251
0.53556
0.547012
0.328277
0.308666
0.531566
0.556415
0.50989
0.55222
0.547734
0.390349
0.328857
0.329603
0.534064
0.411854
0.327877
0.354688
0.316106
0.531541
0.533138
0.243532
0.326911
0.52023
0.365097
0.525128
0.5155
0.326337
0.306736
0.506586
0.533683
0.328574
0.510611
0.514997
0.531022
0.313957
0.533617
0.310231
0.533725
0.51907
0.321262
0.285298
0.328328
0.533666
0.327903
0.322591
0.302923
0.533576
0.535395
0.323856
0.325892
0.327672
0.533707
0.322967
0.533833
0.328835
0.459681
0.55063
0.299638
0.327942
0.328152
0.39071
0.332176
0.502737
0.297673
0.324037
0.533496
0.323024
0.534501
0.505015
0.533728
0.303466
0.533638
0.545245
0.547167
0.53415
0.518437
0.53508
0.328639
0.533791
0.342257
0.528592
0.32127
0.544352
0.394118
0.32248
0.533595
0.542735
0.321082
0.48671
0.312651
0.322614
0.534822
0.531157
0.305324
0.327774
0.324433
0.335436
0.528763
0.544245
0.315099
0.301775
0.539523
0.538341
0.461133
0.544798
0.533238
0.322291
0.548511
0.334245
0.54512
0.30344
0.463946
0.378209
0.534943
0.522757
0.451944
0.268129
0.332868
0.532104
0.473377
0.400995
0.544385
0.328376
0.530867
0.546922
0.28654
0.355467
0.545657
0.283475
0.533585
0.52175
0.256327
0.53733
0.503813
0.306644
0.534345
0.329799
0.515986
0.299697
0.534545
0.50532
0.335072
0.533855
0.543312
0.541515
0.487036
0.528453
0.457152
0.322795
0.324593
0.298008
0.330733
0.533613
0.435879
0.537163
0.543811
0.307586
0.323204
0.53168
0.551339
0.537645
0.548317
0.323844
0.539821
0.547865
0.328158
0.30935
0.539724
0.53112
0.519354
0.32537
0.463407
0.310016
0.533604
0.503301
0.533792
0.520692
0.328104
0.528116
0.522756
0.545389
0.530173
0.533342
0.338844
0.540632
0.32447
0.48521
0.548997
0.362366
0.506188
0.533803
0.543829
0.312923
0.314436
0.458064
0.508235
0.329686
0.323906
0.317433
0.323754
0.516409
0.530506
0.533498
0.250413
0.322891
0.536124
0.531864
0.32256
0.324578
0.363755
0.51673
0.532435
0.527218
0.537816
0.324287
0.330217
0.533621
0.34423
0.322995
0.300171
0.532905
0.318671
0.326933
0.449279
0.530145
0.490267
0.533921
0.532849
0.331166
0.322231
0.317777
0.36951
0.342383
0.319477
0.521836
0.537404
0.51594
0.533945
0.334988
0.301939
0.550598
0.328858
0.533316
0.504904
0.533738
0.305309
0.318873
0.511371
0.53355
0.436176
0.321663
0.524405
0.533952
0.445839
0.542191
0.547652
0.533624
0.486084
0.324351
0.532949
0.533539
0.478583
0.533876
0.533658
0.494808
0.533707
0.53782
0.324471
0.318903
0.305024
0.533737
0.393003
0.330245
0.531543
0.539959
0.292766
0.492763
0.288515
0.496818
0.363962
0.318267
0.551616
0.543745
0.328946
0.432538
0.533714
0.328907
0.522942
0.335073
0.334481
0.479223
0.474183
0.39422
0.532354
0.317051
0.542791
0.322248
0.31862
0.534461
0.327546
0.469275
0.318961
0.492064
0.465156
0.5337
0.513519
0.324032
0.323486
0.473576
0.332542
0.537361
0.356654
0.459791
0.53371
0.545188
0.343766
0.478814
0.488905
0.547726
0.536009
0.271996
0.321982
0.424479
0.487184
0.54817
0.294484
0.532403
0.437678
0.321716
0.309638
0.522844
0.51742
0.533686
0.533645
0.458065
0.531592
0.533715
0.52349
0.319024
0.513723
0.361708
0.538018
0.530623
0.242847
0.497158
0.545172
0.319034
0.319445
0.332087
0.533661
0.322072
0.479089
0.537986
0.514921
0.307265
0.52413
0.331441
0.462972
0.533834
0.53351
0.520477
0.533684
0.482435
0.527132
0.408087
0.528168
0.298061
0.533145
0.535458
0.316973
0.533709
0.531653
0.328882
0.32522
0.327676
0.54109
0.324355
0.53361
0.314336
0.548437
0.326648
0.378672
0.324491
0.541234
0.547674
0.414269
0.213965
0.482346
0.533437
0.317685
0.460332
0.553406
0.323984
0.457406
0.533561
0.550313
0.533444
0.325886
0.365895
0.538725
0.532085
0.48644
0.324686
0.311823
0.526079
0.533664
0.533679
0.533688
0.426412
0.533662
0.422705
0.536126
0.324692
0.330504
0.533692
0.545373
0.533592
0.334464
0.53306
0.432477
0.465927
0.30536
0.327623
0.546325
0.557366
0.434596
0.263273
0.533392
0.533713
0.322219
0.476112
0.53763
0.322015
0.356072
0.325168
0.471481
0.326179
0.31173
0.527994
0.362793
0.548415
0.49755
0.322473
0.328815
0.551228
0.31742
0.325088
0.533551
0.331591
0.276165
0.460388
0.514639
0.533691
0.322904
0.261123
0.323026
0.5062
0.333978
0.534264
0.321909
0.532276
0.486779
0.529403
0.491195
0.526987
0.501541
0.532584
0.546669
0.536545
0.322885
0.322165
0.520894
0.53378
0.399113
0.481141
0.435579
0.533762
0.477218
0.290106
0.535996
0.55257
0.526777
0.325171
0.528791
0.30292
0.533641
0.392945
0.54043
0.534122
0.318252
0.537338
0.328763
0.332894
0.507813
0.299121
0.532638
0.533694
0.537683
0.302805
0.534816
0.324722
0.305649
0.318848
0.323406
0.47068
0.322838
0.490516
0.533777
0.266042
0.331434
0.385086
0.45525
0.492015
0.487991
0.305706
0.335159
0.322547
0.324536
0.213592
0.491585
0.497674
0.330805
0.533469
0.537565
0.325267
0.552517
0.531299
0.533791
0.324823
0.533605
0.527358
0.540882
0.537984
0.318683
0.534718
0.542308
0.529314
0.523515
0.533322
0.327444
0.324122
0.533513
0.423105
0.320141
0.534359
0.330235
0.448755
0.486472
0.514229
0.517424
0.307929
0.479668
0.311905
0.324911
0.536098
0.541098
0.544328
0.540978
0.511119
0.305958
0.54772
0.323042
0.398254
0.549379
0.533604
0.538323
0.325226
0.324863
0.548564
0.324619
0.540398
0.507931
0.336515
0.325325
0.535183
0.32097
0.534062
0.539984
0.508595
0.320511
0.318451
0.394449
0.402747
0.48245
0.369294
0.533359
0.488002
0.524163
0.533616
0.533013
0.326036
0.327266
0.541981
0.533322
0.483829
0.36257
0.33098
0.524752
0.322338
0.533122
0.482599
0.264777
0.536991
0.323649
0.505993
0.295798
0.545091
0.316221
0.532742
0.533632
0.278452
0.51982
0.507787
0.267738
0.5335
0.531481
0.434051
0.335514
0.286986
0.364097
0.545681
0.470103
0.320782
0.459856
0.534995
0.533541
0.299632
0.473251
0.519474
0.364785
0.533344
0.533564
0.236234
0.536324
0.533575
0.293887
0.464783
0.303491
0.495078
0.311601
0.334019
0.547325
0.317694
0.32648
0.324232
0.535194
0.512264
0.316692
0.533274
0.283891
0.515899
0.324808
0.515334
0.289837
0.533733
0.533857
0.501869
0.533626
0.435466
0.533659
0.533765
0.301043
0.498969
0.506113
0.377305
0.532496
0.389761
0.316036
0.547452
0.309076
0.447406
0.28604
0.532665
0.322217
0.331242
0.543825
0.532881
0.309618
0.53715
0.537487
0.533644
0.547954
0.533687
0.324349
0.55192
0.327547
0.327267
0.519436
0.538678
0.551258
0.522115
0.316375
0.310901
0.322349
0.515672
0.53374
0.286087
0.52345
0.336133
0.308521
0.305929
0.520763
0.303686
0.549074
0.536856
0.498104
0.530383
0.535927
0.446071
0.496349
0.343927
0.331399
0.309731
0.533681
0.53365
0.334379
0.491107
0.469127
0.497803
0.326227
0.310377
0.491104
0.220267
0.485549
0.461608
0.328631
0.533517
0.517856
0.329801
0.533147
0.324639
0.536975
0.549232
0.527397
0.32316
0.37212
0.531446
0.238461
0.351329
0.530443
0.24528
0.533507
0.535944
0.494744
0.537776
0.260193
0.533639
0.53558
0.531995
0.287328
0.542445
0.323955
0.332242
0.523614
0.532618
0.533574
0.186936
0.534352
0.498682
0.533605
0.336083
0.330854
0.328564
0.539737
0.322254
0.322313
0.306642
0.45988
0.323055
0.245777
0.350228
0.534236
0.327869
0.533585
0.533669
0.533413
0.30195
0.535586
0.511406
0.533473
0.32902
0.521745
0.32301
0.310588
0.534728
0.32399
0.487788
0.533963
0.533696
0.324519
0.260059
0.321321
0.441823
0.533684
0.185014
0.527242
0.535097
0.538733
0.325492
0.323704
0.272123
0.469343
0.330157
0.533687
0.476521
0.533678
0.526949
0.322815
0.48813
0.326599
0.437038
0.509384
0.551163
0.443055
0.372686
0.521515
0.486948
0.542741
0.307128
0.292413
0.323017
0.539959
0.416431
0.533612
0.327656
0.313899
0.540839
0.535347
0.533524
0.323066
0.534018
0.440463
0.44284
0.472221
0.330862
0.326088
0.234843
0.532634
0.533821
0.522312
0.483887
0.271192
0.538441
0.516706
0.53382
0.533479
0.538371
0.55237
0.534004
0.53761
0.543838
0.32651
0.537029
0.541738
0.533158
0.538236
0.532289
0.449753
0.326366
0.335046
0.481511
0.32298
0.263425
0.533309
0.324055
0.501132
0.535799
0.512525
0.527426
0.328597
0.534754
0.315965
0.332449
0.534043
0.532993
0.534071
0.298122
0.545221
0.532462
0.47937
0.532613
0.325477
0.533206
0.548899
0.518129
0.318047
0.541723
0.324976
0.557099
0.302071
0.326438
0.406669
0.353847
0.551489
0.542104
0.53348
0.307907
0.533253
0.318394
0.323913
0.507955
0.388183
0.325362
0.532877
0.322698
0.406026
0.521899
0.496032
0.516735
0.387216
0.469817
0.513111
0.533793
0.447632
0.544324
0.421957
0.551912
0.480539
0.506519
0.333706
0.323614
0.353316
0.540992
0.328278
0.519959
0.537445
0.470913
0.533842
0.404701
0.531907
0.524714
0.326089
0.536551
0.475938
0.381551
0.478824
0.548416
0.504018
0.533535
0.324684
0.324836
0.529227
0.418855
0.424472
0.538325
0.533258
0.533679
0.547728
0.5489
0.484849
0.485805
0.551117
0.322346
0.323359
0.322618
0.298744
0.533685
0.361052
0.419644
0.53672
0.528655
0.327465
0.528258
0.555862
0.297179
0.295613
0.533604
0.53835
0.332001
0.307952
0.313528
0.533645
0.493308
0.321422
0.326204
0.328801
0.332388
0.272301
0.322535
0.553372
0.534025
0.53012
0.309591
0.513442
0.473019
0.480734
0.300661
0.32646
0.506266
0.533699
0.32785
0.533536
0.329759
0.543508
0.327333
0.532818
0.301015
0.516619
0.547053
0.304934
0.444222
0.322683
0.552203
0.33187
0.476106
0.330435
0.396924
0.323737
0.469096
0.317806
0.533619
0.533614
0.47903
0.526101
0.288823
0.515639
0.533421
0.546016
0.471069
0.516657
0.326946
0.305422
0.332814
0.5462
0.229616
0.544879
0.430336
0.538459
0.550271
0.359535
0.540507
0.324085
0.334663
0.322302
0.400591
0.405041
0.532612
0.320262
0.328955
0.534335
0.300269
0.319528
0.431451
0.291112
0.327778
0.335742
0.552932
0.514034
0.479723
0.329108
0.512892
0.532756
0.332114
0.256188
0.523046
0.53304
0.439788
0.408568
0.326395
0.286625
0.313132
0.529267
0.477886
0.40959
0.534293
0.325002
0.445552
0.323263
0.533627
0.544923
0.327673
0.32727
0.483368
0.425957
0.546756
0.543827
0.546051
0.537582
0.549465
0.308911
0.325027
0.319894
0.321496
0.420756
0.533692
0.515424
0.3223
0.303538
0.354004
0.356399
0.533581
0.495119
0.324482
0.243645
0.53578
0.329343
0.512021
0.542312
0.508469
0.533318
0.430347
0.318788
0.308164
0.481208
0.327934
0.328496
0.316046
0.533548
0.532208
0.289389
0.328216
0.533609
0.31673
0.533994
0.546227
0.318764
0.319647
0.327313
0.53546
0.329266
0.53369
0.534374
0.471279
0.303224
0.419464
0.541725
0.525052
0.324674
0.522527
0.483237
0.374581
0.539128
0.555721
0.325224
0.317384
0.510456
0.321351
0.321189
0.518851
0.274131
0.53285
0.532227
0.545572
0.489149
0.545169
0.535673
0.533777
0.322086
0.325751
0.49219
0.531274
0.371908
0.552229
0.256961
0.537576
0.518057
0.446718
0.508315
0.306009
0.3606
0.528972
0.542579
0.477869
0.547326
0.534808
0.533604
0.547081
0.533612
0.52041
0.510067
0.534983
0.533701
0.533768
0.280872
0.501209
0.299493
0.534871
0.537155
0.539469
0.500425
0.537356
0.31857
0.317822
0.242067
0.324472
0.506671
0.319622
0.324757
0.529308
0.325125
0.53707
0.313728
0.51907
0.535102
0.316116
0.302515
0.258672
0.540111
0.328652
0.531997
0.537062
0.32076
0.504019
0.438583
0.272326
0.331381
0.325031
0.538142
0.31756
0.535709
0.401789
0.323334
0.531629
0.532964
0.546011
0.32962
0.45045
0.32659
0.515013
0.53375
0.535566
0.326448
0.530453
0.53844
0.488867
0.320318
0.539997
0.33105
0.325168
0.529112
0.357208
0.549196
0.315307
0.326874
0.351843
0.495844
0.329187
0.231479
0.301113
0.37614
0.533577
0.536576
0.329492
0.468062
0.534871
0.442829
0.329546
0.263134
0.44047
0.330885
0.323971
0.52983
0.325838
0.330333
0.542226
0.553936
0.296877
0.541412
0.310336
0.533601
0.330794
0.509218
0.533755
0.538398
0.533568
0.323407
0.323665
0.322191
0.533803
0.511971
0.46785
0.426079
0.294399
0.240456
0.533294
0.322399
0.533262
0.303326
0.533758
0.524159
0.298453
0.293636
0.327495
0.327976
0.296746
0.482235
0.50878
0.301187
0.536254
0.49935
0.319016
0.322302
0.55388
0.325038
0.534817
0.33888
0.538075
0.513037
0.53551
0.533587
0.325113
0.54894
0.533403
0.555118
0.320046
0.475367
0.47286
0.261357
0.540994
0.499005
0.547606
0.513675
0.549509
0.527905
0.550722
0.533123
0.531691
0.309713
0.545181
0.327803
0.360477
0.530198
0.324157
0.520556
0.474693
0.328451
0.490074
0.31806
0.316226
0.522742
0.466727
0.55351
0.326533
0.513429
0.486611
0.325357
0.306837
0.508542
0.532886
0.299016
0.307445
0.537448
0.553342
0.31278
0.502929
0.547804
0.516261
0.304659
0.331232
0.316425
0.51426
0.313954
0.523127
0.539939
0.533308
0.473138
0.535389
0.326317
0.518815
0.486421
0.546875
0.440523
0.327674
0.321918
0.33136
0.543969
0.538008
0.336772
0.511328
0.256508
0.503325
0.536437
0.328592
0.482277
0.523993
0.487925
0.308055
0.326732
0.293671
0.539656
0.549112
0.4846
0.40813
0.535418
0.328891
0.496995
0.533622
0.530628
0.307945
0.494385
0.328664
0.480737
0.333527
0.53055
0.522743
0.329392
0.539442
0.334395
0.533699
0.500184
0.533674
0.540135
0.325177
0.533334
0.533245
0.53295
0.531307
0.383625
0.53362
0.325712
0.533378
0.329301
0.301869
0.326954
0.295314
0.329924
0.303936
0.54981
0.290264
0.32212
0.514724
0.53982
0.510692
0.322502
0.534403
0.533642
0.53335
0.276896
0.451977
0.535446
0.320721
0.303916
0.322988
0.492301
0.403605
0.317586
0.45793
0.334712
0.533677
0.39814
0.327317
0.37517
0.509446
0.291166
0.533225
0.323778
0.368183
0.296845
0.531829
0.303443
0.510015
0.533608
0.46231
0.327808
0.324623
0.526282
0.552474
0.30786
0.305615
0.53367
0.324249
0.541356
0.311014
0.442024
0.331875
0.535588
0.324397
0.551346
0.301677
0.536239
0.536173
0.543232
0.533709
0.327762
0.328485
0.321975
0.496661
0.528592
0.494562
0.407209
0.329212
0.539353
0.267175
0.509865
0.455253
0.315607
0.327297
0.5434
0.530389
0.32903
0.533651
0.530138
0.543377
0.545581
0.323613
0.499034
0.329041
0.543474
0.315406
0.533553
0.504899
0.512256
0.551813
0.319823
0.556834
0.318386
0.324347
0.53391
0.53371
0.431064
0.529936
0.533674
0.325316
0.542943
0.528934
0.549238
0.306418
0.337471
0.531207
0.32208
0.537906
0.537142
0.522745
0.534261
0.227664
0.353017
0.509263
0.328807
0.517952
0.55298
0.372321
0.520004
0.215876
0.482994
0.543154
0.529905
0.520132
0.325111
0.332496
0.532831
0.520981
0.328213
0.263888
0.32355
0.328054
0.322265
0.334531
0.291119
0.321375
0.532273
0.327717
0.296847
0.536585
0.429504
0.533607
0.31334
0.327801
0.535256
0.368608
0.373467
0.547568
0.293405
0.517901
0.533758
0.480693
0.517128
0.325145
0.536891
0.533816
0.321123
0.324224
0.316143
0.472004
0.480069
0.549363
0.533999
0.531315
0.520037
0.292209
0.537769
0.533812
0.507924
0.326172
0.535965
0.448992
0.286736
0.342112
0.323539
0.323615
0.32425
0.464114
0.522919
0.521929
0.324134
0.308244
0.547734
0.283904
0.537139
0.53323
0.52305
0.530123
0.535147
0.320791
0.325778
0.335795
0.444539
0.319374
0.534255
0.320299
0.534663
0.533457
0.536757
0.299397
0.353927
0.323927
0.535785
0.307033
0.322658
0.533037
0.516884
0.484461
0.533875
0.504095
0.540964
0.324616
0.492719
0.54518
0.420784
0.534753
0.538739
0.541947
0.36482
0.33837
0.550358
0.395083
0.479251
0.326316
0.502467
0.523447
0.317678
0.313526
0.513306
0.402137
0.543095
0.537106
0.318129
0.328928
0.533576
0.299433
0.324644
0.524811
0.509434
0.327233
0.527222
0.533741
0.502002
0.302034
0.465153
0.325542
0.527225
0.544671
0.540853
0.519586
0.5337
0.252544
0.283629
0.529551
0.320539
0.480348
0.324209
0.536066
0.333939
0.507112
0.544802
0.533692
0.325753
0.533678
0.533584
0.323354
0.503033
0.315433
0.553953
0.326229
0.303236
0.315985
0.526458
0.529845
0.256518
0.238903