# vtk DataFile Version 1.0
unstructured grid
ascii
DATASET UNSTRUCTURED_GRID
points 13672 float
0.0796578 -0.059106 0
0.00128732 0.00159165 0
0.00227961 -0.00102548 0
0.0791586 -0.0598787 0
-0.0546216 0.01 0
0.000495206 0.025 0
0.0800549 -0.035 0
0.135172 -0.08 0
-0.0546216 -0.0451168 0
0.000495206 -0.0301168 0
0.0800549 -0.0901168 0
0.135172 -0.135117 0
-0.0546216 -0.0451168 -0.00551168
0.000495206 -0.0301168 -0.00551168
0.0800549 -0.0901168 -0.00551168
0.135172 -0.135117 -0.00551168
0.135172 -0.08 -0.00551168
0.0800549 -0.035 -0.00551168
0.000495206 0.025 -0.00551168
-0.0546216 0.01 -0.00551168
0.00128732 0.00159165 -0.00551168
0.00227961 -0.00102548 -0.00551168
0.0791586 -0.0598787 -0.00551168
0.0796578 -0.059106 -0.00551168
0.00165953 -0.000990923 0
0.00119576 -0.000874076 0
0.000866021 -0.000641801 0
0.000645147 -0.000349912 0
0.00052235 -1.7281e-05 0
0.00049972 0.000348016 0
0.000601632 0.000737716 0
0.000861774 0.0011403 0
0.00157235 0.00183217 0
0.00188647 0.00206725 0
0.00222612 0.00230203 0
0.00258713 0.00254351 0
0.00296826 0.00279524 0
0.00337118 0.00305664 0
0.00379785 0.00332658 0
0.00425045 0.00360349 0
0.00473139 0.00388521 0
0.0052432 0.00416895 0
0.0057881 0.00445204 0
0.00636753 0.00473281 0
0.00698281 0.00500961 0
0.00763526 0.00528058 0
0.00832616 0.00554366 0
0.00905691 0.00579603 0
0.00982918 0.00603333 0
0.0106445 0.00625033 0
0.0115038 0.00644128 0
0.0124073 0.00660297 0
0.0133543 0.00673414 0
0.0143444 0.00683382 0
0.0153769 0.00690031 0
0.0164512 0.00693173 0
0.0175666 0.00692547 0
0.0187219 0.00687822 0
0.0199156 0.00678477 0
0.0211454 0.00663864 0
0.0224084 0.00643275 0
0.0237018 0.00616676 0
0.0250249 0.00584739 0
0.026375 0.00547298 0
0.0277479 0.00503752 0
0.0291386 0.00453545 0
0.0305433 0.0039653 0
0.0319572 0.0033256 0
0.0333681 0.00260019 0
0.034775 0.00179799 0
0.0361793 0.000930615 0
0.0375798 3.12222e-06 0
0.0389689 -0.000988429 0
0.0403357 -0.00205109 0
0.041675 -0.00318283 0
0.0429849 -0.00437751 0
0.0442643 -0.00562904 0
0.0455126 -0.00693089 0
0.0467314 -0.00827518 0
0.0479204 -0.00965638 0
0.0490661 -0.0110799 0
0.0501515 -0.0125519 0
0.0511696 -0.0140695 0
0.0521492 -0.0156071 0
0.0531202 -0.0171411 0
0.0540851 -0.0186663 0
0.0550431 -0.0201798 0
0.0559923 -0.0216793 0
0.0569311 -0.0231626 0
0.0578582 -0.0246273 0
0.0587723 -0.0260715 0
0.0596721 -0.027493 0
0.0605563 -0.02889 0
0.0614241 -0.0302609 0
0.0622742 -0.0316042 0
0.063106 -0.0329183 0
0.0639186 -0.034202 0
0.0647113 -0.0354543 0
0.0654835 -0.0366743 0
0.0662345 -0.0378613 0
0.0669642 -0.0390145 0
0.0676726 -0.0401333 0
0.0683597 -0.0412172 0
0.0690246 -0.0422665 0
0.0696662 -0.0432819 0
0.0702841 -0.0442636 0
0.0708793 -0.0452111 0
0.0714538 -0.0461237 0
0.072009 -0.047001 0
0.0725452 -0.0478434 0
0.0730611 -0.0486524 0
0.073556 -0.0494294 0
0.0740291 -0.0501756 0
0.0744812 -0.0508916 0
0.0749138 -0.0515773 0
0.0753285 -0.0522331 0
0.0757266 -0.0528592 0
0.076109 -0.0534564 0
0.0764753 -0.0540264 0
0.0768243 -0.054571 0
0.0771553 -0.0550919 0
0.0774679 -0.0555901 0
0.0777617 -0.0560669 0
0.0780369 -0.056523 0
0.0782958 -0.0569578 0
0.0785421 -0.0573703 0
0.0787786 -0.0577603 0
0.0790073 -0.0581279 0
0.0792295 -0.058474 0
0.0794462 -0.0587995 0
0.0798803 -0.0594162 0
0.0800272 -0.0596588 0
0.0800357 -0.0598891 0
0.0799275 -0.0600784 0
0.0797205 -0.0601773 0
0.0794593 -0.0601051 0
0.0789155 -0.0596491 0
0.0786707 -0.0593963 0
0.0784111 -0.0591319 0
0.0781372 -0.0588542 0
0.0778566 -0.0585548 0
0.0775715 -0.0582308 0
0.0772803 -0.0578828 0
0.0769832 -0.0575099 0
0.0766822 -0.0571097 0
0.0763801 -0.0566796 0
0.0760759 -0.0562196 0
0.0757623 -0.0557337 0
0.0754359 -0.0552232 0
0.0750951 -0.0546879 0
0.0747379 -0.054128 0
0.0743626 -0.0535435 0
0.0739688 -0.0529338 0
0.0735559 -0.0522981 0
0.0731238 -0.0516357 0
0.0726718 -0.050946 0
0.0721991 -0.0502288 0
0.0717046 -0.049484 0
0.0711872 -0.0487117 0
0.0706461 -0.047912 0
0.0700804 -0.0470849 0
0.0694892 -0.0462308 0
0.0688718 -0.0453499 0
0.0682271 -0.0444431 0
0.0675544 -0.043511 0
0.0668527 -0.0425546 0
0.0661215 -0.0415748 0
0.06536 -0.040573 0
0.0645676 -0.0395504 0
0.0637439 -0.0385087 0
0.0628887 -0.0374493 0
0.062002 -0.0363741 0
0.0610838 -0.0352847 0
0.0601345 -0.0341831 0
0.0591547 -0.033071 0
0.0581456 -0.0319502 0
0.0571083 -0.0308224 0
0.0560444 -0.0296893 0
0.0549562 -0.028552 0
0.053845 -0.0274126 0
0.0527113 -0.0262746 0
0.051554 -0.0251427 0
0.0503724 -0.0240222 0
0.0491675 -0.0229164 0
0.047941 -0.0218282 0
0.0466955 -0.0207597 0
0.0454337 -0.0197126 0
0.0441592 -0.0186878 0
0.0428751 -0.0176863 0
0.0415841 -0.0167097 0
0.0402878 -0.0157609 0
0.0389879 -0.0148428 0
0.0376864 -0.0139575 0
0.0363853 -0.013107 0
0.0350871 -0.0122931 0
0.0337942 -0.0115164 0
0.0325095 -0.0107772 0
0.0312357 -0.0100756 0
0.0299758 -0.00941024 0
0.0287337 -0.00877784 0
0.0275126 -0.00817571 0
0.0263139 -0.00760375 0
0.0251376 -0.00706528 0
0.0239829 -0.0065649 0
0.0228537 -0.00609619 0
0.0217522 -0.00565563 0
0.0206795 -0.00524226 0
0.0196364 -0.00485507 0
0.0186233 -0.00449318 0
0.0176408 -0.00415577 0
0.016689 -0.00384204 0
0.0157682 -0.00355115 0
0.0148783 -0.00328218 0
0.0140192 -0.00303468 0
0.0131906 -0.00280795 0
0.0123925 -0.00260016 0
0.0116246 -0.00241012 0
0.0108864 -0.00223769 0
0.0101774 -0.00208212 0
0.00949701 -0.00194206 0
0.00884483 -0.0018163 0
0.0082202 -0.0017039 0
0.00762247 -0.00160391 0
0.00705097 -0.00151528 0
0.006505 -0.00143697 0
0.0059838 -0.00136806 0
0.00548662 -0.00130772 0
0.00501265 -0.00125519 0
0.00456114 -0.00120954 0
0.00413136 -0.00116914 0
0.00372257 -0.00113251 0
0.00333398 -0.00109853 0
0.00296466 -0.00106798 0
0.00261363 -0.0010431 0
-0.052721 -0.0445996 0
-0.0508204 -0.0440823 0
-0.0489199 -0.0435651 0
-0.0470193 -0.0430478 0
-0.0451187 -0.0425306 0
-0.0432181 -0.0420134 0
-0.0413175 -0.0414961 0
-0.039417 -0.0409789 0
-0.0375164 -0.0404616 0
-0.0356158 -0.0399444 0
-0.0337152 -0.0394271 0
-0.0318146 -0.0389099 0
-0.0299141 -0.0383927 0
-0.0280135 -0.0378754 0
-0.0261129 -0.0373582 0
-0.0242123 -0.0368409 0
-0.0223117 -0.0363237 0
-0.0204112 -0.0358065 0
-0.0185106 -0.0352892 0
-0.01661 -0.034772 0
-0.0147094 -0.0342547 0
-0.0128088 -0.0337375 0
-0.0109083 -0.0332202 0
-0.00900769 -0.032703 0
-0.00710711 -0.0321858 0
-0.00520653 -0.0316685 0
-0.00330595 -0.0311513 0
-0.00140537 -0.030634 0
0.00190689 -0.0299614 0
0.00332271 -0.0298498 0
0.00474133 -0.0297825 0
0.00616136 -0.0297597 0
0.0075814 -0.0297814 0
0.00900007 -0.0298477 0
0.010416 -0.0299583 0
0.0118278 -0.0301127 0
0.0132342 -0.0303103 0
0.0146339 -0.0305504 0
0.0160259 -0.0308322 0
0.0174091 -0.0311546 0
0.0187824 -0.0315166 0
0.020145 -0.031917 0
0.0214961 -0.0323546 0
0.0228351 -0.032828 0
0.0241613 -0.0333361 0
0.0254744 -0.0338774 0
0.0267738 -0.0344507 0
0.0280592 -0.0350545 0
0.0293306 -0.0356877 0
0.0305875 -0.0363488 0
0.0318301 -0.0370367 0
0.0330581 -0.0377501 0
0.0342717 -0.0384879 0
0.0354708 -0.0392489 0
0.0366556 -0.0400321 0
0.0378262 -0.0408363 0
0.0389828 -0.0416607 0
0.0401254 -0.0425042 0
0.0412543 -0.0433659 0
0.0423698 -0.0442451 0
0.043472 -0.0451408 0
0.0445612 -0.0460523 0
0.0456375 -0.0469789 0
0.0467013 -0.0479199 0
0.0477529 -0.0488746 0
0.0487923 -0.0498424 0
0.04982 -0.0508227 0
0.0508362 -0.051815 0
0.051841 -0.0528187 0
0.0528348 -0.0538333 0
0.0538178 -0.0548584 0
0.0547903 -0.0558935 0
0.0557524 -0.0569382 0
0.0567045 -0.0579922 0
0.0576467 -0.0590549 0
0.0585792 -0.0601261 0
0.0595024 -0.0612055 0
0.0604163 -0.0622926 0
0.0613212 -0.0633873 0
0.0622174 -0.0644891 0
0.0631049 -0.0655979 0
0.0639841 -0.0667134 0
0.064855 -0.0678353 0
0.0657179 -0.0689633 0
0.0665729 -0.0700974 0
0.0674202 -0.0712372 0
0.06826 -0.0723826 0
0.0690925 -0.0735333 0
0.0699178 -0.0746892 0
0.070736 -0.0758501 0
0.0715473 -0.0770159 0
0.0723518 -0.0781863 0
0.0731498 -0.0793612 0
0.0739412 -0.0805405 0
0.0747264 -0.081724 0
0.0755053 -0.0829116 0
0.0762781 -0.0841033 0
0.0770449 -0.0852987 0
0.0778059 -0.0864979 0
0.0785611 -0.0877007 0
0.0793108 -0.088907 0
0.0814681 -0.0912706 0
0.0828814 -0.0924245 0
0.0842946 -0.0935783 0
0.0857079 -0.0947322 0
0.0871211 -0.095886 0
0.0885344 -0.0970399 0
0.0899476 -0.0981937 0
0.0913609 -0.0993476 0
0.0927741 -0.100501 0
0.0941874 -0.101655 0
0.0956006 -0.102809 0
0.0970139 -0.103963 0
0.0984272 -0.105117 0
0.0998404 -0.106271 0
0.101254 -0.107424 0
0.102667 -0.108578 0
0.10408 -0.109732 0
0.105493 -0.110886 0
0.106907 -0.11204 0
0.10832 -0.113194 0
0.109733 -0.114348 0
0.111146 -0.115501 0
0.11256 -0.116655 0
0.113973 -0.117809 0
0.115386 -0.118963 0
0.116799 -0.120117 0
0.118213 -0.121271 0
0.119626 -0.122424 0
0.121039 -0.123578 0
0.122452 -0.124732 0
0.123866 -0.125886 0
0.125279 -0.12704 0
0.126692 -0.128194 0
0.128105 -0.129348 0
0.129519 -0.130501 0
0.130932 -0.131655 0
0.132345 -0.132809 0
0.133758 -0.133963 0
0.135172 -0.133216 0
0.135172 -0.131316 0
0.135172 -0.129415 0
0.135172 -0.127514 0
0.135172 -0.125614 0
0.135172 -0.123713 0
0.135172 -0.121813 0
0.135172 -0.119912 0
0.135172 -0.118012 0
0.135172 -0.116111 0
0.135172 -0.11421 0
0.135172 -0.11231 0
0.135172 -0.110409 0
0.135172 -0.108509 0
0.135172 -0.106608 0
0.135172 -0.104708 0
0.135172 -0.102807 0
0.135172 -0.100906 0
0.135172 -0.0990058 0
0.135172 -0.0971052 0
0.135172 -0.0952046 0
0.135172 -0.0933041 0
0.135172 -0.0914035 0
0.135172 -0.0895029 0
0.135172 -0.0876023 0
0.135172 -0.0857017 0
0.135172 -0.0838012 0
0.135172 -0.0819006 0
0.133758 -0.0788462 0
0.132345 -0.0776923 0
0.130932 -0.0765385 0
0.129519 -0.0753846 0
0.128105 -0.0742308 0
0.126692 -0.0730769 0
0.125279 -0.0719231 0
0.123866 -0.0707692 0
0.122452 -0.0696154 0
0.121039 -0.0684615 0
0.119626 -0.0673077 0
0.118213 -0.0661538 0
0.116799 -0.065 0
0.115386 -0.0638462 0
0.113973 -0.0626923 0
0.11256 -0.0615385 0
0.111146 -0.0603846 0
0.109733 -0.0592308 0
0.10832 -0.0580769 0
0.106907 -0.0569231 0
0.105493 -0.0557692 0
0.10408 -0.0546154 0
0.102667 -0.0534615 0
0.101254 -0.0523077 0
0.0998404 -0.0511538 0
0.0984272 -0.05 0
0.0970139 -0.0488462 0
0.0956006 -0.0476923 0
[...]
CELL_DATA 13116
SCALARS rho float
LOOKUP_TABLE default
0.631842
0.709092
0.321685
0.712795
0.714206
0.698797
0.303637
0.713405
0.57425
0.714521
0.307685
0.297497
0.714129
0.302191
0.305373
0.700347
0.624623
0.71829
0.702614
0.315499
0.630114
0.322558
0.307675
0.717487
0.67352
0.710427
0.714544
0.323705
0.664635
0.704258
0.58756
0.297322
0.616994
0.459237
0.302647
0.631035
0.716971
0.705358
0.675358
0.710521
0.70143
0.713534
0.485483
0.317698
0.703573
0.702792
0.707521
0.70379
0.315363
0.554168
0.712105
0.482285
0.30292
0.619493
0.615167
0.655418
0.317013
0.717746
0.575177
0.306646
0.303321
0.713741
0.708259
0.667387
0.594875
0.310505
0.706187
0.718168
0.705683
0.612017
0.305771
0.651636
0.324296
0.31232
0.563949
0.311285
0.708809
0.712253
0.308022
0.718783
0.719322
0.710018
0.71703
0.704787
0.708025
0.417492
0.307826
0.71501
0.710486
0.32125
0.300337
0.70901
0.716556
0.711608
0.708678
0.670113
0.675172
0.569296
0.567426
0.662812
0.716392
0.696823
0.701741
0.426115
0.706642
0.288274
0.366847
0.524471
0.317703
0.671128
0.55878
0.708843
0.668056
0.719706
0.718731
0.707377
0.307472
0.386765
0.710132
0.708874
0.717899
0.328016
0.706009
0.299942
0.711672
0.433872
0.307948
0.520475
0.316826
0.55483
0.710209
0.711992
0.48823
0.319081
0.457396
0.671302
0.559173
0.708439
0.715985
0.709015
0.701972
0.707735
0.522157
0.702717
0.708524
0.294593
0.302844
0.709434
0.71495
0.711835
0.580893
0.704395
0.703569
0.309055
0.715043
0.708214
0.309119
0.718153
0.570517
0.714507
0.717569
0.30771
0.716951
0.311012
0.329502
0.713473
0.711283
0.718346
0.302872
0.433978
0.402846
0.559404
0.303513
0.50042
0.707133
0.30631
0.313123
0.324505
0.708471
0.696626
0.31712
0.419086
0.59122
0.716855
0.698188
0.574254
0.312551
0.703417
0.705835
0.459249
0.705074
0.709245
0.619874
0.307175
0.708349
0.696737
0.715637
0.703332
0.710336
0.38283
0.427904
0.675772
0.512422
0.310138
0.714659
0.704719
0.488624
0.67827
0.296843
0.311807
0.311592
0.70378
0.309786
0.320472
0.317424
0.309314
0.375174
0.67309
0.71153
0.409364
0.315846
0.705871
0.552404
0.31708
0.600106
0.714101
0.708186
0.323683
0.706923
0.3835
0.714838
0.298052
0.620722
0.63952
0.56537
0.710353
0.636699
0.310677
0.430062
0.71338
0.562777
0.696006
0.559463
0.645022
0.713152
0.31457
0.710571
0.714662
0.568393
0.305782
0.317291
0.704137
0.709478
0.606078
0.707705
0.623008
0.719543
0.308149
0.31698
0.384352
0.294256
0.704684
0.715695
0.708186
0.309259
0.706422
0.312454
0.407974
0.706836
0.308987
0.710101
0.712781
0.562078
0.717796
0.311391
0.561677
0.719424
0.569247
0.708145
0.310042
0.310461
0.308923
0.668509
0.327203
0.325437
0.352055
0.341868
0.706739
0.299184
0.709979
0.713395
0.313455
0.3166
0.312407
0.437307
0.325942
0.71478
0.688013
0.707876
0.309669
0.702705
0.646249
0.31577
0.306934
0.682445
0.709223
0.70281
0.312743
0.698818
0.434902
0.711429
0.713366
0.711354
0.713268
0.308611
0.706355
0.295024
0.702941
0.713957
0.711283
0.317728
0.350785
0.714452
0.311456
0.708239
0.713704
0.35813
0.719216
0.717121
0.312383
0.706286
0.716558
0.288629
0.710695
0.415042
0.631325
0.71376
0.42156
0.718271
0.3098
0.717942
0.356813
0.655905
0.700133
0.715481
0.322963
0.367786
0.707922
0.308221
0.713596
0.706714
0.414359
0.559781
0.311567
0.319483
0.710771
0.603625
0.718102
0.310262
0.310177
0.710557
0.713455
0.304041
0.712553
0.306089
0.295563
0.708702
0.713421
0.538173
0.331276
0.708163
0.586998
0.700507
0.707278
0.716795
0.584593
0.3405
0.294524
0.317415
0.699186
0.31759
0.590233
0.36169
0.304285
0.364274
0.546138
0.157643
0.308828
0.707167
0.300099
0.716645
0.665623
0.702318
0.710662
0.710829
0.320239
0.311772
0.389212
0.344267
0.712393
0.66463
0.701753
0.665895
0.708902
0.687609
0.709812
0.696883
0.70285
0.71653
0.718933
0.692717
0.389005
0.488894
0.628238
0.320203
0.686322
0.654447
0.303186
0.707067
0.561943
0.30921
0.315992
0.318024
0.312814
0.680127
0.301485
0.307444
0.704729
0.311585
0.640683
0.322707
0.699857
0.717393
0.328598
0.319011
0.710919
0.434355
0.326495
0.312896
0.324195
0.317344
0.312088
0.316696
0.327848
0.41003
0.312546
0.696044
0.333897
0.709344
0.362072
0.299236
0.488372
0.289446
0.320117
0.291456
0.709207
0.416938
0.69024
0.538417
0.311537
0.680136
0.710482
0.414992
0.7192
0.690165
0.690414
0.312741
0.566891
0.387787
0.717073
0.576744
0.314477
0.298856
0.705595
0.346032
0.419825
0.700665
0.366593
0.717816
0.708651
0.316688
0.311982
0.301153
0.495078
0.306876
0.295322
0.303295
0.293771
0.713299
0.713354
0.44226
0.66458
0.460082
0.708043
0.366062
0.304294
0.58048
0.315185
0.70772
0.327246
0.37532
0.482245
0.703878
0.710984
0.616904
0.356506
0.299849
0.621375
0.713292
0.633282
0.616847
0.706644
0.704435
0.314079
0.717287
0.635401
0.712502
0.348389
0.326367
0.719673
0.715897
0.709682
0.714174
0.709542
0.710778
0.717798
0.711449
0.702179
0.317976
0.704293
0.360329
0.298576
0.32216
0.712823
0.704428
0.345998
0.70842
0.673899
0.318483
0.654436
0.708741
0.717552
0.323283
0.304622
0.712286
0.328754
0.329966
0.28306
0.314759
0.708007
0.29224
0.712683
0.332787
0.709528
0.711786
0.704796
0.713696
0.328924
0.317759
0.705141
0.714914
0.713494
0.713344
0.714777
0.473086
0.312617
0.317101
0.701921
0.571829
0.31892
0.435337
0.303809
0.712549
0.705353
0.348356
0.32468
0.709109
0.427342
0.706554
0.703285
0.315922
0.383265
0.711838
0.562951
0.312173
0.710761
0.711379
0.704838
0.308035
0.559685
0.31524
0.564487
0.71195
0.331979
0.372638
0.325435
0.564629
0.318749
0.306495
0.388924
0.662111
0.715683
0.306627
0.313913
0.317671
0.658677
0.325686
0.697693
0.295985
0.654403
0.714128
0.365065
0.310214
0.308569
0.475234
0.318031
0.710767
0.312765
0.304381
0.695236
0.298129
0.703916
0.708164
0.566349
0.322592
0.707675
0.716376
0.715678
0.702217
0.712964
0.708458
0.294587
0.613379
0.412192
0.706749
0.310666
0.713078
0.533195
0.301933
0.585393
0.715657
0.305494
0.697433
0.300443
0.305846
0.704413
0.709023
0.302763
0.293776
0.307377
0.293277
0.712796
0.717462
0.307415
0.315879
0.713895
0.708837
0.656215
0.7164
0.704683
0.307926
0.715362
0.407763
0.712014
0.391059
0.665491
0.454971
0.706006
0.718415
0.642481
0.361317
0.321474
0.70444
0.66378
0.614467
0.71655
0.295018
0.718639
0.715163
0.383448
0.486904
0.716097
0.358247
0.595179
0.713737
0.347546
0.70993
0.707722
0.322575
0.716508
0.308239
0.709552
0.315605
0.703554
0.708172
0.320551
0.673382
0.716799
0.713246
0.675242
0.715263
0.646083
0.337893
0.430827
0.299669
0.311501
0.558985
0.605265
0.707109
0.715015
0.318934
0.335051
0.715178
0.713985
0.711419
0.712805
0.314806
0.718979
0.714601
0.315724
0.297173
0.710433
0.703936
0.70902
0.291074
0.650949
0.329266
0.71704
0.708241
0.628463
0.707932
0.317308
0.709284
0.709836
0.716715
0.709275
0.701202
0.410366
0.716777
0.311788
0.704287
0.714515
0.432777
0.709003
0.640879
0.711677
0.43951
0.406509
0.648303
0.704472
0.328936
0.331936
0.309443
0.312727
0.710037
0.718608
0.638864
0.342937
0.310919
0.705386
0.718232
0.290399
0.336377
0.43943
0.716298
0.703693
0.707641
0.718796
0.312444
0.329283
0.560521
0.299536
0.320398
0.312536
0.700818
0.328528
0.32756
0.647759
0.705824
0.708407
0.689989
0.702555
0.307921
0.300025
0.3105
0.549902
0.418003
0.29909
0.717932
0.719047
0.708377
0.702286
0.29393
0.325392
0.714249
0.32463
0.700994
0.708155
0.576556
0.302861
0.324756
0.709427
0.583015
0.652466
0.290842
0.707426
0.693656
0.643736
0.711749
0.712858
0.560983
0.706513
0.315649
0.702438
0.597793
0.697825
0.717469
0.559071
0.708913
0.560492
0.707513
0.30372
0.308211
0.325937
0.589987
0.536572
0.325153
0.71466
0.714409
0.297236
0.701745
0.329917
0.70569
0.532358
0.314706
0.713803
0.717727
0.319662
0.592919
0.591633
0.313838
0.711521
0.309359
0.287138
0.685171
0.671714
0.486966
0.701894
0.309374
0.716952
0.311839
0.294408
0.703651
0.318126
0.673454
0.303224
0.701918
0.666494
0.560728
0.711059
0.298426
0.305151
0.700373
0.493164
0.711632
0.471585
0.663455
0.69889
0.71683
0.499823
0.669639
0.708425
0.715541
0.706724
0.359
0.333301
0.575957
0.708481
0.715584
0.372858
0.701783
0.654227
0.386958
0.302682
0.7121
0.716691
0.559713
0.563043
0.700604
0.719467
0.675839
0.718739
0.301297
0.708055
0.436885
0.710517
0.703871
0.341442
0.71357
0.71368
0.312219
0.307732
0.312324
0.559127
0.307881
0.684
0.717086
0.708102
0.327549
0.706217
0.307783
0.651828
0.664016
0.625852
0.717499
0.655264
0.680407
0.719175
0.571078
0.706647
0.315931
0.700491
0.70453
0.478033
0.560856
0.718164
0.309791
0.296444
0.314716
0.711363
0.332028
0.560743
0.310882
0.713373
0.298404
0.456457
0.298431
0.717243
0.712648
0.620655
0.318763
0.681573
0.681056
0.313348
0.655998
0.713296
0.298363
0.658587
0.575681
0.714169
0.70132
0.314035
0.521246
0.712492
0.702524
0.704592
0.327746
0.401289
0.706361
0.5602
0.562389
0.559841
0.620133
0.712251
0.614103
0.710058
0.327598
0.308882
0.559946
0.714222
0.67152
0.310675
0.700729
0.634013
0.676105
0.314021
0.398132
0.712691
0.713511
0.615252
0.343071
0.702096
0.561686
0.303627
0.673271
0.718915
0.303716
0.298742
0.29686
0.706242
0.32707
0.318667
0.706785
0.478646
0.715412
0.705431
0.302776
0.312549
0.71326
0.310177
0.301919
0.586301
0.296153
0.3678
0.661098
0.712859
0.708774
0.310979
0.333043
0.306963
0.708145
0.289309
0.70872
0.300208
0.713939
0.711323
0.704481
0.707459
0.710475
0.708203
0.703787
0.713696
0.709222
0.29384
0.310534
0.710455
0.677469
0.497219
0.707114
0.619759
0.6714
0.696951
0.327664
0.70831
0.713528
0.70585
0.305289
0.709807
0.327303
0.705154
0.476965
0.718581
0.702243
0.315265
0.713089
0.317534
0.453068
0.708454
0.31234
0.718443
0.559007
0.713025
0.312103
0.704879
0.312668
0.302259
0.304583
0.317604
0.696173
0.302933
0.703552
0.651053
0.344257
0.307676
0.464025
0.645938
0.695773
0.705598
0.322237
0.310582
0.30415
0.298551
0.316741
0.697014
0.709365
0.324765
0.656567
0.717044
0.295483
0.713443
0.717903
0.660478
0.307928
0.563085
0.71525
0.716347
0.711033
0.306792
0.709922
0.715589
0.70996
0.711408
0.694054
0.325832
0.305153
0.704094
0.567994
0.327912
0.703394
0.30482
0.632385
0.695359
0.709434
0.709433
0.30106
0.70696
0.381875
0.305484
0.719289
0.71343
0.715588
0.710315
0.714302
0.302519
0.713978
0.30452
0.493773
0.713431
0.567324
0.712192
0.305918
0.312445
0.714529
0.324567
0.712013
0.698295
0.414121
0.335389
0.709245
0.30317
0.702105
0.712043
0.712766
0.303508
0.30918
0.509085
0.564603
0.68858
0.470517
0.698004
0.705785
0.709381
0.558793
0.714809
0.302122
0.333848
0.712268
0.692545
0.703451
0.431668
0.310114
0.716947
0.301409
0.704911
0.672146
0.338256
0.712298
0.311543
0.711951
0.322249
0.714976
0.309509
0.705928
0.694477
0.297522
0.711701
0.704276
0.299615
0.638276
0.702636
0.619119
0.289236
0.368783
0.46523
0.716197
0.702242
0.336234
0.647712
0.715325
0.693806
0.327858
0.684561
0.707239
0.426612
0.697101
0.703309
0.339187
0.707752
0.573182
0.320648
0.669872
0.313312
0.705446
0.31064
0.289848
0.715996
0.31884
0.317854
0.298185
0.705727
0.707973
0.396193
0.702152
0.367751
0.713757
0.313264
0.707883
0.364144
0.700009
0.704229
0.709558
0.63814
0.597975
0.692783
0.658064
0.323416
0.691234
0.711597
0.574868
0.714475
0.474257
0.416809
0.714023
0.315233
0.638399
0.330685
0.70172
0.29448
0.306819
0.717797
0.703547
0.317056
0.710043
0.719125
0.559087
0.712734
0.562481
0.315913
0.713481
0.319034
0.310626
0.711106
0.718531
0.713504
0.709096
0.298169
0.310225
0.306368
0.708688
0.647955
0.366739
0.713331
0.310013
0.311374
0.311823
0.710286
0.390823
0.713926
0.709774
0.689564
0.709042
0.70872
0.645238
0.706511
0.412218
0.299022
0.31728
0.562925
0.561937
0.309995
0.696753
0.705937
0.707226
0.313661
0.443581
0.706347
0.304868
0.705123
0.688925
0.319811
0.682562
0.71001
0.327103
0.708309
0.300909
0.706964
0.715193
0.710084
0.300746
0.440469
0.718331
0.343294
0.418184
0.707624
0.348888
0.687167
0.706414
0.709921
0.719064
0.342607
0.580525
0.719331
0.702505
0.371651
0.71104
0.315047
0.289503
0.706831
0.704325
0.651534
0.267963
0.702683
0.688977
0.564344
0.310466
0.305305
0.327996
0.709885
0.3046
0.298676
0.321644
0.687851
0.3002
0.340809
0.415872
0.708175
0.322625
0.638087
0.670898
0.710016
0.312367
0.706005
0.709102
0.648978
0.400197
0.710556
0.302867
0.315114
0.704762
0.316967
0.696505
0.716197
0.56052
0.321913
0.350493
0.305878
0.616942
0.55945
0.261658
0.705189
0.705371
0.718727
0.31306
0.303756
0.359013
0.703166
0.321444
0.558759
0.66717
0.677442
0.705916
0.310017
0.698259
0.295698
0.687859
0.699422
0.714065
0.67714
0.580926
0.712319
0.704371
0.712451
0.313334
0.360223
0.312859
0.718714
0.580556
0.569148
0.321684
0.395344
0.717133
0.706055
0.616201
0.317288
0.71035
0.613888
0.621369
0.702705
0.317206
0.317688
0.339743
0.704629
0.647371
0.710649
0.707813
0.356826
0.713316
0.707818
0.652159
0.644879
0.712918
0.713597
0.696976
0.718451
0.715912
0.314657
0.706699
0.710668
0.69897
0.708491
0.704204
0.667114
0.319248
0.29173
0.700023
0.326008
0.342995
0.710565
0.304255
0.689766
0.705024
0.70865
0.705611
0.311799
0.710892
0.30471
0.308214
0.698792
0.71107
0.70241
0.312429
0.71216
0.701884
0.701373
0.702736
0.319725
0.697533
0.714477
0.711166
0.382928
0.717874
0.308373
0.712854
0.312671
0.320169
0.627673
0.431311
0.713832
0.717355
0.70124
0.319893
0.696132
0.399294
0.303577
0.710083
0.467148
0.323966
0.701432
0.303171
0.511745
0.716932
0.707252
0.708805
0.468877
0.658991
0.711786
0.701171
0.667025
0.715454
0.568728
0.715592
0.707409
0.706836
0.291766
0.307962
0.427512
0.710223
0.310328
0.713663
0.710349
0.673864
0.701456
0.604582
0.718797
0.718941
0.307429
0.709918
0.706394
0.588051
0.706672
0.714267
0.710817
0.684552
0.313145
0.304682
0.70732
0.587192
0.619479
0.708615
0.705201
0.702429
0.715876
0.715293
0.689141
0.705532
0.714015
0.299277
0.303018
0.294043
0.333918
0.561601
0.448674
0.609077
0.711967
0.719471
0.312434
0.705771
0.712572
0.313116
0.378718
0.561203
0.707939
0.31845
0.291717
0.284492
0.55878
0.710266
0.386965
0.301938
0.319305
0.298925
0.352227
0.329321
0.714891
0.704086
0.715688
0.3123
0.708558
0.681094
0.669317
0.340999
0.314941
0.710066
0.559478
0.324891
0.698777
0.326292
0.717633
0.314812
0.7101
0.314254
0.708217
0.712827
0.31218
0.624436
0.331686
0.713473
0.297265
0.685562
0.304105
0.528593
0.303057
0.678765
0.313666
0.62658
0.626337
0.668857
0.710334
0.342979
0.707793
0.677041
0.712479
0.679105
0.714235
0.315694
0.439603
0.311531
0.716402
0.324505
0.713709
0.59878
0.718628
0.714111
0.524532
0.716545
0.304136
0.307617
0.298709
0.530133
0.634286
0.705296
0.310183
0.32266
0.703368
0.38733
0.302268
0.656768
0.37749
0.326414
0.291418
0.713663
0.703464
0.688282
0.310015
0.708039
0.705568
0.296175
0.352209
0.70954
0.701976
0.686769
0.521917
0.404604
0.371985
0.309806
0.712585
0.69961
0.569587
0.719353
0.300225
0.642129
0.310232
0.591714
0.713272
0.317034
0.324248
0.701995
0.653175
0.713444
0.715788
0.715866
0.710827
0.713614
0.310074
0.322022
0.31308
0.310706
0.627788
0.578616
0.704446
0.313406
0.321553
0.46909
0.298542
0.702459
0.707067
0.316844
0.346668
0.70507
0.31319
0.711651
0.716689
0.708193
0.693678
0.633916
0.329794
0.313439
0.704797
0.317684
0.439711
0.391722
0.678889
0.707804
0.330213
0.320165
0.559662
0.313405
0.706549
0.716401
0.324542
0.312828
0.299415
0.704363
0.305813
0.558979
0.718036
0.675746
0.293731
0.560437
0.712525
0.706065
0.305484
0.706572
0.700376
0.300677
0.710331
0.714958
0.306152
0.322172
0.709509
0.311227
0.310744
0.70739
0.363697
0.703715
0.718638
0.716891
0.702429
0.714291
0.705661
0.688811
0.305693
0.398654
0.705703
0.708412
0.438295
0.713516
0.354206
0.707236
0.708886
0.641081
0.7079
0.438974
0.438863
0.705618
0.714175
0.707113
0.712782
0.70343
0.56045
0.712744
0.559333
0.712841
0.710247
0.712529
0.559721
0.692694
0.299845
0.710218
0.322572
0.709094
0.706781
0.717867
0.708065
0.7192
0.310958
0.307924
0.346424
0.306188
0.708109
0.314842
0.307596
0.719209
0.292217
0.718609
0.309298
0.70734
0.70969
0.318887
0.387698
0.339388
0.709738
0.313254
0.705061
0.713358
0.305764
0.709903
0.619258
0.347968
0.322307
0.295971
0.719375
0.32354
0.710038
0.60157
0.335302
0.703196
0.701558
0.715954
0.326314
0.650124
0.302022
0.708587
0.688324
0.707673
0.331124
0.70856
0.708401
0.708023
0.402805
0.709585
0.329112
0.313894
0.710294
0.444224
0.714742
0.42722
0.329346
0.418549
0.70842
0.319504
0.300182
0.315506
0.531123
0.565121
0.711542
0.290917
0.67621
0.703478
0.615481
0.46942
0.336505
0.622929
0.332465
0.312997
0.703893
0.314478
0.324167
0.7115
0.713236
0.312593
0.718479
0.309758
0.560916
0.32484
0.710386
0.61143
0.718961
0.679271
0.314665
0.311809
0.303565
0.695529
0.709853
0.657135
0.594594
0.379842
0.337025
0.699921
0.30627
0.703829
0.380701
0.622324
0.718531
0.313163
0.318062
0.31597
0.320013
0.319453
0.702214
0.70805
0.31447
0.70655
0.702
0.338882
0.301283
0.713166
0.321905
0.708172
0.408908
0.718927
0.710971
0.70571
0.566855
0.304402
0.715178
0.709203
0.71379
0.319857
0.702783
0.662951
0.341579
0.710265
0.707989
0.715603
0.707888
0.71369
0.710587
0.71319
0.699809
0.702498
0.319212
0.716465
0.316332
0.480371
0.707383
0.303401
0.707476
0.70497
0.320073
0.708002
0.320125
0.300701
0.710959
0.702435
0.713246
0.310577
0.707965
0.681409
0.324985
0.313178
0.71137
0.705305
0.379967
0.316548
0.717583
0.713284
0.32804
0.705092
0.713152
0.704329
0.312784
0.3283
0.300493
0.711214
0.310964
0.706375
0.718792
0.700422
0.683243
0.708717
0.310848
0.709596
0.675422
0.712807
0.676705
0.306764
0.305132
0.29417
0.717378
0.712827
0.406433
0.709984
0.333769
0.710048
0.708554
0.292961
0.69952
0.70614
0.691556
0.312706
0.310748
0.334578
0.711754
0.714719
0.680037
0.521237
0.706731
0.324002
0.697007
0.562587
0.708996
0.312217
0.681743
0.32243
0.706333
0.29391
0.705479
0.711235
0.309736
0.710717
0.486081
0.559705
0.706495
0.558777
0.711148
0.425521
0.699252
0.701715
0.70775
0.705484
0.456801
0.562033
0.296298
0.701951
0.297333
0.31854
0.303984
0.318695
0.3309
0.313135
0.713324
0.374299
0.299468
0.71518
0.711036
0.708023
0.391543
0.719547
0.719293
0.690924
0.298872
0.677771
0.706394
0.331755
0.318614
0.31136
0.694869
0.504632
0.32375
0.674435
0.294796
0.565118
0.493205
0.306551
0.45066
0.70803
0.336603
0.705755
0.300444
0.566496
0.378334
0.712468
0.385453
0.713645
0.562501
0.704601
0.468627
0.316944
0.712775
0.71349
0.31966
0.302187
0.697393
0.319309
0.718027
0.312097
0.622497
0.292776
0.705779
0.322373
0.713412
0.318254
0.708971
0.708191
0.713862
0.561169
0.296611
0.307809
0.387996
0.710731
0.719161
0.708347
0.638952
0.321511
0.716717
0.337258
0.709644
0.698935
0.41772
0.335376
0.716603
0.704911
0.303032
0.588441
0.713392
0.7161
0.716841
0.300773
0.698405
0.318124
0.715759
0.309849
0.662868
0.709761
0.713069
0.713291
0.337375
0.713058
0.31797
0.306729
0.706208
0.561851
0.611807
0.706649
0.561749
0.321368
0.718101
0.712199
0.713101
0.302568
0.419084
0.719583
0.314526
0.70758
0.710781
0.706918
0.712367
0.31582
0.459963
0.705305
0.309024
0.709212
0.713275
0.487955
0.711027
0.323646
0.705005
0.718001
0.717532
0.711577
0.310322
0.308337
0.705631
0.706973
0.316922
0.348497
0.319655
0.310779
0.298814
0.298695
0.326587
0.327089
0.706056
0.297422
0.312926
0.717697
0.610211
0.55972
0.39386
0.321085
0.704065
0.470645
0.547584
0.715007
0.379379
0.709585
0.63995
0.671821
0.708001
0.314382
0.711374
0.668744
0.304661
0.312959
0.419765
0.704602
0.672376
0.713846
0.701429
0.709393
0.708019
0.359476
0.710129
0.676908
0.711973
0.319864
0.705957
0.69085
0.356634
0.418178
0.300649
0.299125
0.297733
0.664556
0.717247
0.710802
0.313215
0.393125
0.71299
0.297295
0.714618
0.701837
0.706825
0.717521
0.705827
0.329973
0.300703
0.290392
0.643659
0.308009
0.703545
0.288342
0.705389
0.696983
0.70631
0.332088
0.454902
0.420193
0.708182
0.31384
0.310697
0.710797
0.707911
0.697726
0.699963
0.711336
0.718136
0.332601
0.681242
0.71484
0.557942
0.707675
0.715591
0.717548
0.428336
0.40336
0.713236
0.486322
0.68908
0.316958
0.70807
0.707352
0.384271
0.311499
0.708894
0.526187
0.714505
0.714985
0.324518
0.316719
0.572637
0.461305
0.399794
0.708098
0.711326
0.323351
0.705562
0.575426
0.708148
0.332923
0.665264
0.330878
0.70894
0.713153
0.718094
0.711153
0.579974
0.342823
0.363757
0.71235
0.314707
0.669656
0.331141
0.706419
0.29185
0.709575
0.71503
0.569172
0.331093
0.558996
0.563078
0.310088
0.708176
0.295416
0.713657
0.327407
0.313775
0.279664
0.716358
0.70465
0.352155
0.345069