# vtk DataFile Version 1.0
unstructured grid
ascii
DATASET UNSTRUCTURED_GRID
points 13672 float
0.0796578 -0.059106 0
0.00128732 0.00159165 0
0.00227961 -0.00102548 0
0.0791586 -0.0598787 0
-0.0546216 0.01 0
0.000495206 0.025 0
0.0800549 -0.035 0
0.135172 -0.08 0
-0.0546216 -0.0451168 0
0.000495206 -0.0301168 0
0.0800549 -0.0901168 0
0.135172 -0.135117 0
-0.0546216 -0.0451168 -0.00551168
0.000495206 -0.0301168 -0.00551168
0.0800549 -0.0901168 -0.00551168
0.135172 -0.135117 -0.00551168
0.135172 -0.08 -0.00551168
0.0800549 -0.035 -0.00551168
0.000495206 0.025 -0.00551168
-0.0546216 0.01 -0.00551168
0.00128732 0.00159165 -0.00551168
0.00227961 -0.00102548 -0.00551168
0.0791586 -0.0598787 -0.00551168
0.0796578 -0.059106 -0.00551168
0.00165953 -0.000990923 0
0.00119576 -0.000874076 0
0.000866021 -0.000641801 0
0.000645147 -0.000349912 0
0.00052235 -1.7281e-05 0
0.00049972 0.000348016 0
0.000601632 0.000737716 0
0.000861774 0.0011403 0
0.00157235 0.00183217 0
0.00188647 0.00206725 0
0.00222612 0.00230203 0
0.00258713 0.00254351 0
0.00296826 0.00279524 0
0.00337118 0.00305664 0
0.00379785 0.00332658 0
0.00425045 0.00360349 0
0.00473139 0.00388521 0
0.0052432 0.00416895 0
0.0057881 0.00445204 0
0.00636753 0.00473281 0
0.00698281 0.00500961 0
0.00763526 0.00528058 0
0.00832616 0.00554366 0
0.00905691 0.00579603 0
0.00982918 0.00603333 0
0.0106445 0.00625033 0
0.0115038 0.00644128 0
0.0124073 0.00660297 0
0.0133543 0.00673414 0
0.0143444 0.00683382 0
0.0153769 0.00690031 0
0.0164512 0.00693173 0
0.0175666 0.00692547 0
0.0187219 0.00687822 0
0.0199156 0.00678477 0
0.0211454 0.00663864 0
0.0224084 0.00643275 0
0.0237018 0.00616676 0
0.0250249 0.00584739 0
0.026375 0.00547298 0
0.0277479 0.00503752 0
0.0291386 0.00453545 0
0.0305433 0.0039653 0
0.0319572 0.0033256 0
0.0333681 0.00260019 0
0.034775 0.00179799 0
0.0361793 0.000930615 0
0.0375798 3.12222e-06 0
0.0389689 -0.000988429 0
0.0403357 -0.00205109 0
0.041675 -0.00318283 0
0.0429849 -0.00437751 0
0.0442643 -0.00562904 0
0.0455126 -0.00693089 0
0.0467314 -0.00827518 0
0.0479204 -0.00965638 0
0.0490661 -0.0110799 0
0.0501515 -0.0125519 0
0.0511696 -0.0140695 0
0.0521492 -0.0156071 0
0.0531202 -0.0171411 0
0.0540851 -0.0186663 0
0.0550431 -0.0201798 0
0.0559923 -0.0216793 0
0.0569311 -0.0231626 0
0.0578582 -0.0246273 0
0.0587723 -0.0260715 0
0.0596721 -0.027493 0
0.0605563 -0.02889 0
0.0614241 -0.0302609 0
0.0622742 -0.0316042 0
0.063106 -0.0329183 0
0.0639186 -0.034202 0
0.0647113 -0.0354543 0
0.0654835 -0.0366743 0
0.0662345 -0.0378613 0
0.0669642 -0.0390145 0
0.0676726 -0.0401333 0
0.0683597 -0.0412172 0
0.0690246 -0.0422665 0
0.0696662 -0.0432819 0
0.0702841 -0.0442636 0
0.0708793 -0.0452111 0
0.0714538 -0.0461237 0
0.072009 -0.047001 0
0.0725452 -0.0478434 0
0.0730611 -0.0486524 0
0.073556 -0.0494294 0
0.0740291 -0.0501756 0
0.0744812 -0.0508916 0
0.0749138 -0.0515773 0
0.0753285 -0.0522331 0
0.0757266 -0.0528592 0
0.076109 -0.0534564 0
0.0764753 -0.0540264 0
0.0768243 -0.054571 0
0.0771553 -0.0550919 0
0.0774679 -0.0555901 0
0.0777617 -0.0560669 0
0.0780369 -0.056523 0
0.0782958 -0.0569578 0
0.0785421 -0.0573703 0
0.0787786 -0.0577603 0
0.0790073 -0.0581279 0
0.0792295 -0.058474 0
0.0794462 -0.0587995 0
0.0798803 -0.0594162 0
0.0800272 -0.0596588 0
0.0800357 -0.0598891 0
0.0799275 -0.0600784 0
0.0797205 -0.0601773 0
0.0794593 -0.0601051 0
0.0789155 -0.0596491 0
0.0786707 -0.0593963 0
0.0784111 -0.0591319 0
0.0781372 -0.0588542 0
0.0778566 -0.0585548 0
0.0775715 -0.0582308 0
0.0772803 -0.0578828 0
0.0769832 -0.0575099 0
0.0766822 -0.0571097 0
0.0763801 -0.0566796 0
0.0760759 -0.0562196 0
0.0757623 -0.0557337 0
0.0754359 -0.0552232 0
0.0750951 -0.0546879 0
0.0747379 -0.054128 0
0.0743626 -0.0535435 0
0.0739688 -0.0529338 0
0.0735559 -0.0522981 0
0.0731238 -0.0516357 0
0.0726718 -0.050946 0
0.0721991 -0.0502288 0
0.0717046 -0.049484 0
0.0711872 -0.0487117 0
0.0706461 -0.047912 0
0.0700804 -0.0470849 0
0.0694892 -0.0462308 0
0.0688718 -0.0453499 0
0.0682271 -0.0444431 0
0.0675544 -0.043511 0
0.0668527 -0.0425546 0
0.0661215 -0.0415748 0
0.06536 -0.040573 0
0.0645676 -0.0395504 0
0.0637439 -0.0385087 0
0.0628887 -0.0374493 0
0.062002 -0.0363741 0
0.0610838 -0.0352847 0
0.0601345 -0.0341831 0
0.0591547 -0.033071 0
0.0581456 -0.0319502 0
0.0571083 -0.0308224 0
0.0560444 -0.0296893 0
0.0549562 -0.028552 0
0.053845 -0.0274126 0
0.0527113 -0.0262746 0
0.051554 -0.0251427 0
0.0503724 -0.0240222 0
0.0491675 -0.0229164 0
0.047941 -0.0218282 0
0.0466955 -0.0207597 0
0.0454337 -0.0197126 0
0.0441592 -0.0186878 0
0.0428751 -0.0176863 0
0.0415841 -0.0167097 0
0.0402878 -0.0157609 0
0.0389879 -0.0148428 0
0.0376864 -0.0139575 0
0.0363853 -0.013107 0
0.0350871 -0.0122931 0
0.0337942 -0.0115164 0
0.0325095 -0.0107772 0
0.0312357 -0.0100756 0
0.0299758 -0.00941024 0
0.0287337 -0.00877784 0
0.0275126 -0.00817571 0
0.0263139 -0.00760375 0
0.0251376 -0.00706528 0
0.0239829 -0.0065649 0
0.0228537 -0.00609619 0
0.0217522 -0.00565563 0
0.0206795 -0.00524226 0
0.0196364 -0.00485507 0
0.0186233 -0.00449318 0
0.0176408 -0.00415577 0
0.016689 -0.00384204 0
0.0157682 -0.00355115 0
0.0148783 -0.00328218 0
0.0140192 -0.00303468 0
0.0131906 -0.00280795 0
0.0123925 -0.00260016 0
0.0116246 -0.00241012 0
0.0108864 -0.00223769 0
0.0101774 -0.00208212 0
0.00949701 -0.00194206 0
0.00884483 -0.0018163 0
0.0082202 -0.0017039 0
0.00762247 -0.00160391 0
0.00705097 -0.00151528 0
0.006505 -0.00143697 0
0.0059838 -0.00136806 0
0.00548662 -0.00130772 0
0.00501265 -0.00125519 0
0.00456114 -0.00120954 0
0.00413136 -0.00116914 0
0.00372257 -0.00113251 0
0.00333398 -0.00109853 0
0.00296466 -0.00106798 0
0.00261363 -0.0010431 0
-0.052721 -0.0445996 0
-0.0508204 -0.0440823 0
-0.0489199 -0.0435651 0
-0.0470193 -0.0430478 0
-0.0451187 -0.0425306 0
-0.0432181 -0.0420134 0
-0.0413175 -0.0414961 0
-0.039417 -0.0409789 0
-0.0375164 -0.0404616 0
-0.0356158 -0.0399444 0
-0.0337152 -0.0394271 0
-0.0318146 -0.0389099 0
-0.0299141 -0.0383927 0
-0.0280135 -0.0378754 0
-0.0261129 -0.0373582 0
-0.0242123 -0.0368409 0
-0.0223117 -0.0363237 0
-0.0204112 -0.0358065 0
-0.0185106 -0.0352892 0
-0.01661 -0.034772 0
-0.0147094 -0.0342547 0
-0.0128088 -0.0337375 0
-0.0109083 -0.0332202 0
-0.00900769 -0.032703 0
-0.00710711 -0.0321858 0
-0.00520653 -0.0316685 0
-0.00330595 -0.0311513 0
-0.00140537 -0.030634 0
0.00190689 -0.0299614 0
0.00332271 -0.0298498 0
0.00474133 -0.0297825 0
0.00616136 -0.0297597 0
0.0075814 -0.0297814 0
0.00900007 -0.0298477 0
0.010416 -0.0299583 0
0.0118278 -0.0301127 0
0.0132342 -0.0303103 0
0.0146339 -0.0305504 0
0.0160259 -0.0308322 0
0.0174091 -0.0311546 0
0.0187824 -0.0315166 0
0.020145 -0.031917 0
0.0214961 -0.0323546 0
0.0228351 -0.032828 0
0.0241613 -0.0333361 0
0.0254744 -0.0338774 0
0.0267738 -0.0344507 0
0.0280592 -0.0350545 0
0.0293306 -0.0356877 0
0.0305875 -0.0363488 0
0.0318301 -0.0370367 0
0.0330581 -0.0377501 0
0.0342717 -0.0384879 0
0.0354708 -0.0392489 0
0.0366556 -0.0400321 0
0.0378262 -0.0408363 0
0.0389828 -0.0416607 0
0.0401254 -0.0425042 0
0.0412543 -0.0433659 0
0.0423698 -0.0442451 0
0.043472 -0.0451408 0
0.0445612 -0.0460523 0
0.0456375 -0.0469789 0
0.0467013 -0.0479199 0
0.0477529 -0.0488746 0
0.0487923 -0.0498424 0
0.04982 -0.0508227 0
0.0508362 -0.051815 0
0.051841 -0.0528187 0
0.0528348 -0.0538333 0
0.0538178 -0.0548584 0
0.0547903 -0.0558935 0
0.0557524 -0.0569382 0
0.0567045 -0.0579922 0
0.0576467 -0.0590549 0
0.0585792 -0.0601261 0
0.0595024 -0.0612055 0
0.0604163 -0.0622926 0
0.0613212 -0.0633873 0
0.0622174 -0.0644891 0
0.0631049 -0.0655979 0
0.0639841 -0.0667134 0
0.064855 -0.0678353 0
0.0657179 -0.0689633 0
0.0665729 -0.0700974 0
0.0674202 -0.0712372 0
0.06826 -0.0723826 0
0.0690925 -0.0735333 0
0.0699178 -0.0746892 0
0.070736 -0.0758501 0
0.0715473 -0.0770159 0
0.0723518 -0.0781863 0
0.0731498 -0.0793612 0
0.0739412 -0.0805405 0
0.0747264 -0.081724 0
0.0755053 -0.0829116 0
0.0762781 -0.0841033 0
0.0770449 -0.0852987 0
0.0778059 -0.0864979 0
0.0785611 -0.0877007 0
0.0793108 -0.088907 0
0.0814681 -0.0912706 0
0.0828814 -0.0924245 0
0.0842946 -0.0935783 0
0.0857079 -0.0947322 0
0.0871211 -0.095886 0
0.0885344 -0.0970399 0
0.0899476 -0.0981937 0
0.0913609 -0.0993476 0
0.0927741 -0.100501 0
0.0941874 -0.101655 0
0.0956006 -0.102809 0
0.0970139 -0.103963 0
0.0984272 -0.105117 0
0.0998404 -0.106271 0
0.101254 -0.107424 0
0.102667 -0.108578 0
0.10408 -0.109732 0
0.105493 -0.110886 0
0.106907 -0.11204 0
0.10832 -0.113194 0
0.109733 -0.114348 0
0.111146 -0.115501 0
0.11256 -0.116655 0
0.113973 -0.117809 0
0.115386 -0.118963 0
0.116799 -0.120117 0
0.118213 -0.121271 0
0.119626 -0.122424 0
0.121039 -0.123578 0
0.122452 -0.124732 0
0.123866 -0.125886 0
0.125279 -0.12704 0
0.126692 -0.128194 0
0.128105 -0.129348 0
0.129519 -0.130501 0
0.130932 -0.131655 0
0.132345 -0.132809 0
0.133758 -0.133963 0
0.135172 -0.133216 0
0.135172 -0.131316 0
0.135172 -0.129415 0
0.135172 -0.127514 0
0.135172 -0.125614 0
0.135172 -0.123713 0
0.135172 -0.121813 0
0.135172 -0.119912 0
0.135172 -0.118012 0
0.135172 -0.116111 0
0.135172 -0.11421 0
0.135172 -0.11231 0
0.135172 -0.110409 0
0.135172 -0.108509 0
0.135172 -0.106608 0
0.135172 -0.104708 0
0.135172 -0.102807 0
0.135172 -0.100906 0
0.135172 -0.0990058 0
0.135172 -0.0971052 0
0.135172 -0.0952046 0
0.135172 -0.0933041 0
0.135172 -0.0914035 0
0.135172 -0.0895029 0
0.135172 -0.0876023 0
0.135172 -0.0857017 0
0.135172 -0.0838012 0
0.135172 -0.0819006 0
0.133758 -0.0788462 0
0.132345 -0.0776923 0
0.130932 -0.0765385 0
0.129519 -0.0753846 0
0.128105 -0.0742308 0
0.126692 -0.0730769 0
0.125279 -0.0719231 0
0.123866 -0.0707692 0
0.122452 -0.0696154 0
0.121039 -0.0684615 0
0.119626 -0.0673077 0
0.118213 -0.0661538 0
0.116799 -0.065 0
0.115386 -0.0638462 0
0.113973 -0.0626923 0
0.11256 -0.0615385 0
0.111146 -0.0603846 0
0.109733 -0.0592308 0
0.10832 -0.0580769 0
0.106907 -0.0569231 0
0.105493 -0.0557692 0
0.10408 -0.0546154 0
0.102667 -0.0534615 0
0.101254 -0.0523077 0
0.0998404 -0.0511538 0
0.0984272 -0.05 0
0.0970139 -0.0488462 0
0.0956006 -0.0476923 0
[...]
CELL_DATA 13116
SCALARS rho float
LOOKUP_TABLE default
0.446556
0.525081
0.323147
0.5619
0.554176
0.539477
0.363912
0.556231
0.43096
0.558051
0.361804
0.314339
0.554357
0.360575
0.342956
0.539577
0.424191
0.552627
0.539146
0.368966
0.450059
0.364598
0.342052
0.553832
0.492472
0.508265
0.558113
0.31533
0.545219
0.516097
0.537549
0.326176
0.452232
0.369565
0.358099
0.448294
0.529217
0.535269
0.538726
0.541505
0.539661
0.558833
0.353852
0.320178
0.538203
0.539064
0.509047
0.541768
0.373617
0.429779
0.552375
0.365188
0.364294
0.419301
0.450673
0.473399
0.318741
0.550969
0.441305
0.344831
0.358417
0.558645
0.518267
0.538631
0.537846
0.334049
0.542426
0.534448
0.543502
0.537977
0.345213
0.498277
0.357695
0.319855
0.537138
0.352153
0.513299
0.550021
0.364299
0.550502
0.538703
0.511724
0.553668
0.541697
0.531772
0.418669
0.377563
0.532846
0.528311
0.355346
0.317225
0.526308
0.555475
0.532435
0.51807
0.481991
0.494154
0.537431
0.537299
0.495031
0.541544
0.475652
0.539439
0.351835
0.497146
0.354535
0.32762
0.390357
0.323209
0.551537
0.412377
0.506988
0.480665
0.541511
0.550952
0.542668
0.37579
0.342833
0.547326
0.543853
0.534814
0.348043
0.54383
0.326545
0.52836
0.372023
0.377152
0.425532
0.307584
0.432077
0.547516
0.542173
0.450048
0.372875
0.42874
0.471796
0.536285
0.545856
0.541106
0.543648
0.501523
0.511427
0.421684
0.502119
0.514705
0.345399
0.356775
0.505931
0.552601
0.54935
0.473108
0.541248
0.54168
0.345254
0.555535
0.532758
0.3389
0.545319
0.537443
0.533262
0.553156
0.364975
0.552138
0.33829
0.341182
0.557019
0.526174
0.552269
0.360095
0.418198
0.378097
0.536303
0.342454
0.407856
0.541878
0.342653
0.371181
0.359496
0.504176
0.539077
0.339112
0.3742
0.427886
0.529602
0.539184
0.438349
0.328329
0.539478
0.488746
0.383858
0.508778
0.504414
0.538122
0.33834
0.500617
0.539373
0.556213
0.539272
0.52733
0.337718
0.351834
0.547017
0.421936
0.34225
0.548676
0.538249
0.372581
0.48951
0.348926
0.353299
0.348826
0.541094
0.336586
0.374391
0.350756
0.344499
0.32437
0.538448
0.526112
0.410068
0.319299
0.542217
0.407812
0.340432
0.516065
0.558188
0.513019
0.328042
0.542
0.361844
0.562817
0.321606
0.537934
0.494194
0.537305
0.536485
0.538222
0.363272
0.366856
0.533609
0.536999
0.539245
0.536437
0.538117
0.551192
0.372252
0.548739
0.555973
0.53736
0.354597
0.3739
0.539359
0.546803
0.537799
0.544101
0.436582
0.5441
0.362115
0.388174
0.336436
0.349743
0.485334
0.556065
0.512354
0.373166
0.537081
0.319545
0.395189
0.498655
0.354577
0.508968
0.555252
0.536838
0.550703
0.363524
0.536804
0.542514
0.537382
0.545741
0.365086
0.376376
0.33681
0.46846
0.348559
0.368079
0.304825
0.292745
0.531045
0.358068
0.532061
0.554524
0.319867
0.334387
0.318972
0.389424
0.304575
0.531758
0.473776
0.502509
0.354433
0.540893
0.550406
0.38958
0.346794
0.53888
0.546751
0.539272
0.330204
0.5395
0.351265
0.541634
0.558612
0.54801
0.557775
0.338721
0.541949
0.352541
0.539715
0.558462
0.539316
0.36832
0.305575
0.556317
0.321749
0.519337
0.558544
0.305375
0.546482
0.553463
0.322256
0.53692
0.55543
0.349626
0.548618
0.427475
0.54026
0.542243
0.431876
0.545325
0.375005
0.552225
0.319141
0.538248
0.470877
0.557032
0.329024
0.322498
0.532701
0.349708
0.547901
0.493176
0.365992
0.536284
0.336848
0.360611
0.545874
0.501784
0.533184
0.377944
0.338187
0.548587
0.554391
0.357042
0.553272
0.372329
0.35364
0.542429
0.545044
0.382071
0.352743
0.545909
0.537672
0.539622
0.536055
0.549935
0.472638
0.273206
0.348359
0.336171
0.539538
0.337825
0.426322
0.311404
0.328167
0.317858
0.388875
0.130193
0.348773
0.533349
0.272375
0.552641
0.520271
0.540178
0.527025
0.549301
0.357778
0.373099
0.343906
0.284099
0.545848
0.477661
0.539726
0.531204
0.515919
0.497406
0.510366
0.498637
0.514063
0.548801
0.550173
0.539175
0.342386
0.379151
0.443641
0.366063
0.471061
0.471716
0.367045
0.542402
0.536887
0.339261
0.37589
0.361969
0.329692
0.564142
0.345984
0.3384
0.541506
0.321627
0.489462
0.35928
0.539304
0.538017
0.293691
0.372803
0.545522
0.392888
0.360023
0.327419
0.35236
0.325376
0.347487
0.376604
0.35829
0.392945
0.362387
0.473207
0.319065
0.531206
0.315442
0.354646
0.473902
0.349775
0.354834
0.344126
0.539223
0.390407
0.540076
0.392892
0.320897
0.491252
0.529894
0.417813
0.54615
0.498145
0.497108
0.327105
0.537308
0.343663
0.550876
0.537478
0.332928
0.362136
0.487709
0.286011
0.432538
0.472838
0.326869
0.544786
0.516721
0.328396
0.367459
0.343224
0.404636
0.344497
0.355982
0.342699
0.353755
0.559285
0.559844
0.393941
0.496487
0.42671
0.500293
0.316047
0.35159
0.434124
0.333039
0.541545
0.276593
0.334018
0.447103
0.537767
0.52286
0.509857
0.304092
0.362845
0.539672
0.556318
0.538133
0.536424
0.500189
0.48447
0.36196
0.537283
0.491482
0.533001
0.28286
0.307748
0.540793
0.556562
0.526334
0.558509
0.523649
0.508573
0.552299
0.534427
0.540072
0.35124
0.537574
0.317537
0.347809
0.375448
0.560923
0.538602
0.282148
0.531128
0.564285
0.368625
0.538352
0.546241
0.546372
0.314698
0.351137
0.548838
0.36104
0.367608
0.332431
0.362313
0.539884
0.352674
0.560806
0.320597
0.525559
0.55141
0.5426
0.554601
0.360561
0.334801
0.539922
0.563718
0.521836
0.559075
0.555817
0.473656
0.321459
0.332932
0.540178
0.433186
0.36342
0.395876
0.325285
0.540502
0.539984
0.282894
0.362641
0.529736
0.442396
0.53392
0.550444
0.30718
0.3623
0.518809
0.536925
0.337415
0.521946
0.525974
0.539378
0.349916
0.536434
0.316797
0.537251
0.532169
0.353412
0.325618
0.366272
0.537345
0.309569
0.364341
0.340843
0.538491
0.544488
0.364347
0.384225
0.359837
0.538502
0.353777
0.539271
0.348589
0.500294
0.558257
0.317869
0.339478
0.341668
0.474342
0.333514
0.515531
0.333948
0.349893
0.539039
0.349103
0.540823
0.516588
0.537356
0.362752
0.54203
0.554299
0.555926
0.540423
0.530236
0.542249
0.334724
0.538056
0.41149
0.537459
0.367683
0.55183
0.414746
0.360483
0.537741
0.551304
0.354078
0.500928
0.317206
0.343795
0.541411
0.538941
0.313171
0.341005
0.36439
0.339338
0.538416
0.553939
0.350409
0.325873
0.547905
0.545625
0.500793
0.553868
0.539917
0.364655
0.557076
0.383305
0.552236
0.341712
0.480844
0.443923
0.541729
0.534066
0.523326
0.307339
0.326992
0.53922
0.555246
0.423307
0.553502
0.350596
0.540905
0.555269
0.345059
0.37707
0.554576
0.304626
0.537857
0.534329
0.302164
0.544693
0.516823
0.341234
0.543667
0.336521
0.526113
0.342951
0.540914
0.516912
0.333265
0.538686
0.552489
0.549569
0.563471
0.538212
0.539307
0.357485
0.35302
0.312644
0.329953
0.536036
0.518273
0.544424
0.552118
0.345776
0.343777
0.541081
0.55886
0.54591
0.555272
0.370604
0.550323
0.555845
0.371972
0.325658
0.547505
0.539275
0.528979
0.347218
0.554917
0.286584
0.543076
0.51513
0.538161
0.530484
0.361472
0.537298
0.531922
0.554751
0.538161
0.539725
0.408744
0.549613
0.354309
0.499339
0.556927
0.415936
0.51782
0.538253
0.550995
0.345176
0.351232
0.539435
0.522121
0.362722
0.353542
0.350254
0.360848
0.526922
0.540582
0.538129
0.290236
0.362925
0.543348
0.543805
0.355478
0.344621
0.412376
0.5281
0.53934
0.535594
0.547767
0.353081
0.363524
0.536506
0.325447
0.368941
0.339098
0.539206
0.291372
0.359976
0.467393
0.53875
0.504168
0.539087
0.539399
0.376014
0.344341
0.349096
0.39328
0.392164
0.32045
0.533305
0.547577
0.526029
0.540823
0.3519
0.370077
0.558332
0.369576
0.539597
0.516573
0.537562
0.313195
0.352646
0.522175
0.537646
0.455268
0.35218
0.533278
0.53924
0.464287
0.549474
0.554665
0.536639
0.500297
0.37101
0.53943
0.53777
0.493473
0.543397
0.53607
0.508111
0.536703
0.545171
0.349668
0.355253
0.370141
0.537675
0.413905
0.367523
0.540879
0.548403
0.308494
0.506487
0.285832
0.510059
0.387413
0.370913
0.558962
0.553547
0.361752
0.524272
0.537684
0.316047
0.532604
0.353685
0.35414
0.494417
0.496827
0.471202
0.539431
0.348618
0.551989
0.368083
0.33845
0.540726
0.362761
0.485463
0.328317
0.505826
0.48261
0.536632
0.524532
0.345868
0.349282
0.489158
0.355314
0.545683
0.377767
0.476558
0.539359
0.554606
0.36574
0.550698
0.503074
0.556411
0.543085
0.32206
0.366189
0.501123
0.50172
0.556858
0.327338
0.539354
0.456687
0.344017
0.318528
0.539832
0.528781
0.536541
0.537281
0.476357
0.541884
0.538739
0.5345
0.330081
0.52729
0.408788
0.545399
0.538806
0.282321
0.513962
0.552926
0.36756
0.352795
0.320556
0.53609
0.365023
0.494332
0.547165
0.529452
0.353063
0.53314
0.353429
0.553408
0.538521
0.538002
0.532068
0.538475
0.500201
0.537737
0.428392
0.537064
0.340016
0.539269
0.542471
0.341495
0.536882
0.541528
0.335289
0.34731
0.313876
0.548395
0.358882
0.536845
0.345863
0.555569
0.360551
0.446599
0.338833
0.550493
0.554666
0.434921
0.249827
0.49978
0.538502
0.351616
0.496008
0.560157
0.320679
0.475574
0.537499
0.557941
0.539828
0.331503
0.388305
0.546995
0.539624
0.500445
0.355727
0.348139
0.534695
0.5364
0.536906
0.536337
0.44583
0.542501
0.442506
0.543566
0.356858
0.35026
0.536383
0.553299
0.53855
0.336134
0.539319
0.45144
0.482134
0.354055
0.385375
0.553583
0.563913
0.465227
0.280617
0.540438
0.536984
0.362289
0.498203
0.5476
0.360979
0.361494
0.348969
0.488265
0.357595
0.350149
0.536235
0.383756
0.557008
0.510842
0.361543
0.329488
0.558134
0.36389
0.347023
0.537641
0.353367
0.314422
0.47811
0.527134
0.542197
0.360837
0.26035
0.357672
0.517639
0.353666
0.542686
0.345359
0.541461
0.503478
0.537424
0.504748
0.536399
0.513618
0.539434
0.554284
0.544703
0.353541
0.355728
0.530961
0.538793
0.486439
0.496327
0.45784
0.538654
0.492217
0.294458
0.54317
0.559573
0.535686
0.353718
0.537947
0.319138
0.541703
0.479271
0.550704
0.540508
0.371393
0.545854
0.360636
0.356739
0.519129
0.34011
0.544497
0.536113
0.546015
0.331363
0.541426
0.357088
0.313551
0.327384
0.350303
0.486487
0.344179
0.504188
0.538307
0.283462
0.33837
0.461546
0.52624
0.506221
0.501795
0.358491
0.33778
0.358078
0.339929
0.248469
0.505666
0.510635
0.311502
0.538256
0.546758
0.350849
0.559551
0.543454
0.538385
0.356634
0.537183
0.537219
0.549713
0.54546
0.344475
0.543206
0.550869
0.538427
0.544069
0.538787
0.370593
0.33158
0.541409
0.50455
0.352843
0.54051
0.340102
0.537637
0.500814
0.524637
0.527351
0.316552
0.495161
0.337088
0.355742
0.546986
0.549236
0.552863
0.548317
0.523158
0.313656
0.555381
0.344592
0.485383
0.556595
0.537264
0.546602
0.355383
0.386638
0.556486
0.380774
0.548359
0.538832
0.377308
0.35659
0.542487
0.330579
0.540442
0.548017
0.520643
0.330007
0.362121
0.42551
0.423437
0.497341
0.395947
0.539057
0.501828
0.533093
0.535977
0.542212
0.363053
0.357469
0.54976
0.538771
0.49818
0.419739
0.342549
0.535129
0.343528
0.539888
0.557547
0.273749
0.545457
0.36298
0.519366
0.325194
0.553333
0.358863
0.541026
0.538947
0.29367
0.530165
0.5214
0.281172
0.538083
0.53895
0.455302
0.350357
0.318187
0.388234
0.554665
0.486518
0.332505
0.551704
0.544063
0.539043
0.343272
0.488749
0.529243
0.44362
0.539041
0.539809
0.275079
0.54431
0.53747
0.324223
0.481193
0.329859
0.508453
0.34043
0.354165
0.556276
0.353427
0.358822
0.346652
0.541996
0.522967
0.34787
0.540409
0.318892
0.526908
0.357423
0.52566
0.31222
0.539482
0.541707
0.51449
0.538063
0.527594
0.538947
0.538373
0.297026
0.526428
0.518459
0.401321
0.541714
0.469592
0.35268
0.555155
0.340672
0.482094
0.280151
0.539628
0.358137
0.338066
0.553678
0.539553
0.331263
0.544509
0.547725
0.53607
0.55492
0.537261
0.37068
0.559005
0.364369
0.337485
0.529449
0.548492
0.558186
0.531334
0.327221
0.340726
0.358757
0.526103
0.538252
0.319702
0.534592
0.350916
0.33765
0.35398
0.53033
0.342006
0.556593
0.545032
0.527031
0.538308
0.544117
0.463971
0.509319
0.406433
0.347711
0.333282
0.537256
0.537158
0.340046
0.505199
0.486313
0.51071
0.332481
0.340057
0.504518
0.263613
0.499733
0.478418
0.374322
0.538612
0.528195
0.369239
0.541674
0.346908
0.544194
0.557611
0.536728
0.344918
0.447612
0.543069
0.278365
0.426686
0.538226
0.284518
0.538716
0.542982
0.508554
0.548066
0.276461
0.537689
0.546469
0.539506
0.338997
0.549777
0.37077
0.355463
0.532644
0.539527
0.538205
0.223224
0.540789
0.537349
0.537117
0.337689
0.372731
0.360065
0.547019
0.362476
0.347373
0.342169
0.476823
0.345631
0.286272
0.414611
0.542609
0.373809
0.538063
0.53846
0.54108
0.33107
0.543408
0.524213
0.538241
0.385645
0.54005
0.354766
0.342803
0.541252
0.335499
0.502037
0.543281
0.536572
0.374056
0.305696
0.354206
0.532192
0.536413
0.220729
0.53582
0.541847
0.548873
0.351145
0.345035
0.321976
0.485914
0.361058
0.536025
0.554741
0.538598
0.535438
0.363561
0.502268
0.332881
0.457835
0.538687
0.558752
0.461976
0.397859
0.535172
0.50084
0.550454
0.335255
0.310561
0.319082
0.550288
0.437386
0.537273
0.376189
0.353109
0.54999
0.543246
0.537909
0.3378
0.541702
0.53045
0.527499
0.488223
0.333594
0.34844
0.273441
0.539566
0.538344
0.544053
0.498832
0.317877
0.546828
0.533106
0.53837
0.538153
0.546516
0.559444
0.539382
0.547295
0.552509
0.331291
0.54462
0.54903
0.539033
0.545946
0.539302
0.467518
0.373094
0.355473
0.496012
0.351979
0.280076
0.541122
0.344542
0.549767
0.542964
0.523329
0.536258
0.334818
0.542485
0.324138
0.357294
0.539524
0.541806
0.540966
0.331893
0.552449
0.539542
0.49416
0.539315
0.367455
0.538936
0.556792
0.528582
0.339387
0.551557
0.355368
0.563349
0.34679
0.373548
0.428671
0.399589
0.558883
0.551515
0.539777
0.347265
0.538878
0.349545
0.343424
0.519441
0.472626
0.355044
0.539602
0.354645
0.495228
0.533632
0.508852
0.526738
0.466652
0.558272
0.525575
0.539814
0.465656
0.552802
0.498801
0.561033
0.495939
0.51962
0.353158
0.364922
0.399235
0.548356
0.334689
0.532362
0.544839
0.487038
0.539935
0.426502
0.543248
0.53558
0.354342
0.543909
0.491971
0.405312
0.494411
0.556172
0.516617
0.53879
0.351175
0.3497
0.538094
0.439567
0.444127
0.545592
0.541398
0.540844
0.556573
0.557411
0.49973
0.499952
0.558748
0.345293
0.349247
0.358357
0.304765
0.536842
0.392894
0.439684
0.545172
0.539237
0.335735
0.53703
0.561943
0.333353
0.338929
0.536949
0.54581
0.333278
0.327405
0.335308
0.535993
0.507653
0.343316
0.364766
0.372996
0.352938
0.29411
0.352691
0.561121
0.541795
0.539741
0.338155
0.524091
0.488522
0.562378
0.327601
0.37519
0.51798
0.536346
0.35977
0.539277
0.369375
0.553351
0.332539
0.540576
0.323211
0.526629
0.554271
0.33358
0.530548
0.369335
0.559231
0.35381
0.491416
0.341617
0.419438
0.354717
0.484925
0.352064
0.537973
0.538106
0.555873
0.535589
0.314908
0.525907
0.538555
0.553234
0.48679
0.527617
0.375588
0.344376
0.32521
0.555424
0.272709
0.552683
0.487301
0.54832
0.557849
0.382695
0.549423
0.3444
0.359163
0.344654
0.425759
0.427435
0.54084
0.353159
0.370556
0.540439
0.360932
0.330279
0.451083
0.332776
0.359872
0.356376
0.559783
0.542176
0.494648
0.344732
0.523496
0.539771
0.351641
0.305197
0.532157
0.53939
0.459833
0.497465
0.393878
0.338543
0.343944
0.538658
0.492825
0.430304
0.545208
0.346127
0.463715
0.363396
0.537798
0.552571
0.376756
0.383626
0.497613
0.446578
0.554273
0.55244
0.554821
0.545068
0.556768
0.342395
0.363881
0.319773
0.36469
0.440876
0.537526
0.542538
0.366388
0.361574
0.374879
0.359584
0.540809
0.508058
0.352719
0.283494
0.542886
0.334407
0.52451
0.551347
0.519584
0.538871
0.449488
0.367873
0.319605
0.49599
0.377683
0.354797
0.343426
0.538682
0.539652
0.330839
0.375195
0.536292
0.350543
0.540815
0.555431
0.370818
0.368126
0.361584
0.542712
0.374701
0.536097
0.543988
0.48723
0.321999
0.500534
0.549595
0.533908
0.366188
0.531839
0.497531
0.362233
0.54701
0.56381
0.354968
0.352646
0.521365
0.354468
0.368026
0.528733
0.326754
0.540749
0.543707
0.554998
0.502921
0.553144
0.542662
0.53892
0.361139
0.386716
0.505504
0.54003
0.446853
0.55935
0.294421
0.544916
0.527848
0.467833
0.521262
0.34374
0.4025
0.537659
0.55071
0.493757
0.554467
0.541671
0.536689
0.554113
0.536156
0.531632
0.521226
0.543411
0.536417
0.538999
0.295455
0.513946
0.297943
0.542188
0.544682
0.548964
0.512667
0.547801
0.366512
0.350968
0.28181
0.36624
0.518018
0.321436
0.355699
0.539672
0.346235
0.546805
0.345617
0.528866
0.543521
0.353077
0.363437
0.272243
0.547424
0.316457
0.540286
0.545648
0.353524
0.516101
0.4996
0.289336
0.31763
0.345737
0.549073
0.352907
0.543139
0.423652
0.366474
0.538881
0.539767
0.554862
0.369081
0.468424
0.338522
0.525493
0.538939
0.542648
0.360281
0.539317
0.54573
0.502925
0.356924
0.547341
0.368142
0.362436
0.537418
0.389408
0.557295
0.357568
0.360142
0.41327
0.508824
0.311005
0.242734
0.345372
0.397543
0.537281
0.54499
0.360801
0.48407
0.541959
0.535185
0.351457
0.270128
0.50263
0.364642
0.362472
0.538028
0.361412
0.362862
0.54946
0.560559
0.335499
0.551645
0.344901
0.536857
0.311392
0.520626
0.538014
0.548768
0.538532
0.370236
0.362432
0.331875
0.539214
0.522711
0.556724
0.455008
0.352616
0.284457
0.539273
0.360958
0.541128
0.359665
0.538051
0.535489
0.322514
0.315577
0.361353
0.378096
0.308249
0.496723
0.519934
0.323896
0.544045
0.512855
0.357087
0.343342
0.560487
0.352954
0.543103
0.403393
0.54833
0.525593
0.543302
0.537396
0.346971
0.557381
0.540874
0.561783
0.352513
0.490882
0.553345
0.276886
0.54828
0.51184
0.557203
0.524157
0.55685
0.536456
0.557588
0.539113
0.539119
0.348599
0.554325
0.361365
0.381393
0.538007
0.334063
0.530027
0.490656
0.373455
0.503919
0.35312
0.317337
0.532211
0.483708
0.560168
0.353375
0.523942
0.509628
0.301211
0.333616
0.520736
0.539811
0.345463
0.353557
0.546805
0.560047
0.357587
0.516158
0.555068
0.548709
0.322566
0.36815
0.327936
0.526792
0.360084
0.532397
0.550339
0.539358
0.488627
0.543658
0.352697
0.528546
0.559654
0.554125
0.459754
0.334716
0.36344
0.351395
0.55365
0.546414
0.402203
0.524051
0.258451
0.515726
0.543634
0.350627
0.496672
0.533154
0.502467
0.335379
0.377234
0.297056
0.54769
0.557169
0.508285
0.494509
0.543435
0.359526
0.511235
0.536935
0.539506
0.335987
0.563743
0.371714
0.495902
0.353246
0.539063
0.532304
0.345824
0.547334
0.357631
0.53638
0.513318
0.536007
0.547463
0.354833
0.539169
0.540062
0.54023
0.539752
0.467439
0.536897
0.356523
0.540319
0.349877
0.33875
0.349712
0.310149
0.363589
0.330405
0.556929
0.343034
0.345438
0.526688
0.54771
0.521554
0.346251
0.544925
0.544594
0.538762
0.310887
0.469683
0.542394
0.342659
0.344497
0.363461
0.506509
0.492082
0.372153
0.474788
0.352928
0.537382
0.483003
0.374034
0.440136
0.522413
0.293441
0.540106
0.344309
0.393174
0.343474
0.540684
0.345617
0.522161
0.537001
0.480592
0.349014
0.365823
0.53641
0.559422
0.347964
0.313444
0.539282
0.362546
0.551267
0.340203
0.512932
0.352108
0.54254
0.362216
0.558329
0.337398
0.543454
0.544254
0.551237
0.536823
0.358991
0.339235
0.34405
0.510716
0.53903
0.507693
0.429776
0.370341
0.548372
0.273398
0.520926
0.473812
0.354211
0.361447
0.552422
0.538825
0.341132
0.537679
0.54001
0.552141
0.555015
0.344201
0.513127
0.360309
0.552067
0.358689
0.538301
0.516712
0.525417
0.558678
0.360101
0.563136
0.353516
0.35696
0.540669
0.536894
0.45203
0.538657
0.536815
0.356485
0.552918
0.538068
0.556192
0.315201
0.376838
0.542074
0.320453
0.545315
0.544639
0.53194
0.542669
0.270941
0.374999
0.522982
0.347399
0.527778
0.559819
0.39598
0.529916
0.252648
0.497517
0.553086
0.541818
0.530318
0.377402
0.338973
0.541076
0.530476
0.374447
0.293695
0.365398
0.341142
0.346249
0.351129
0.296199
0.352436
0.540649
0.348524
0.324825
0.545984
0.449783
0.536334
0.35647
0.375434
0.54244
0.393332
0.396709
0.555822
0.333194
0.532321
0.538126
0.538996
0.527276
0.316093
0.545253
0.538568
0.352199
0.362534
0.353446
0.488407
0.530946
0.556816
0.539751
0.540157
0.529877
0.311274
0.545837
0.538654
0.520854
0.369489
0.543014
0.467843
0.30443
0.386247
0.360385
0.338388
0.350608
0.481805
0.534554
0.531897
0.361375
0.371567
0.554932
0.299355
0.545892
0.540149
0.532191
0.542412
0.543066
0.344045
0.339238
0.351996
0.462559
0.361647
0.541795
0.342134
0.541244
0.539119
0.54435
0.309332
0.378138
0.355043
0.543937
0.356739
0.363701
0.540949
0.527058
0.498803
0.539514
0.517134
0.550879
0.366409
0.556052
0.553365
0.511055
0.543001
0.547501
0.551469
0.443403
0.402875
0.557239
0.477828
0.494216
0.357046
0.51451
0.532482
0.338849
0.360627
0.524023
0.437122
0.551279
0.545911
0.353063
0.368914
0.537502
0.321149
0.351747
0.533594
0.521416
0.372149
0.535681
0.537484
0.51396
0.368963
0.483907
0.36726
0.535645
0.552308
0.550704
0.529877
0.537651
0.293161
0.315515
0.538869
0.353809
0.559686
0.370082
0.543892
0.353079
0.519872
0.553105
0.537528
0.360479
0.536071
0.537136
0.36358
0.514976
0.3346
0.560689
0.360201
0.321242
0.339274
0.536573
0.53772
0.305633
0.278101