# vtk DataFile Version 1.0
unstructured grid
ascii
DATASET UNSTRUCTURED_GRID
points 13672 float
0.0796578 -0.059106 0
0.00128732 0.00159165 0
0.00227961 -0.00102548 0
0.0791586 -0.0598787 0
-0.0546216 0.01 0
0.000495206 0.025 0
0.0800549 -0.035 0
0.135172 -0.08 0
-0.0546216 -0.0451168 0
0.000495206 -0.0301168 0
0.0800549 -0.0901168 0
0.135172 -0.135117 0
-0.0546216 -0.0451168 -0.00551168
0.000495206 -0.0301168 -0.00551168
0.0800549 -0.0901168 -0.00551168
0.135172 -0.135117 -0.00551168
0.135172 -0.08 -0.00551168
0.0800549 -0.035 -0.00551168
0.000495206 0.025 -0.00551168
-0.0546216 0.01 -0.00551168
0.00128732 0.00159165 -0.00551168
0.00227961 -0.00102548 -0.00551168
0.0791586 -0.0598787 -0.00551168
0.0796578 -0.059106 -0.00551168
0.00165953 -0.000990923 0
0.00119576 -0.000874076 0
0.000866021 -0.000641801 0
0.000645147 -0.000349912 0
0.00052235 -1.7281e-05 0
0.00049972 0.000348016 0
0.000601632 0.000737716 0
0.000861774 0.0011403 0
0.00157235 0.00183217 0
0.00188647 0.00206725 0
0.00222612 0.00230203 0
0.00258713 0.00254351 0
0.00296826 0.00279524 0
0.00337118 0.00305664 0
0.00379785 0.00332658 0
0.00425045 0.00360349 0
0.00473139 0.00388521 0
0.0052432 0.00416895 0
0.0057881 0.00445204 0
0.00636753 0.00473281 0
0.00698281 0.00500961 0
0.00763526 0.00528058 0
0.00832616 0.00554366 0
0.00905691 0.00579603 0
0.00982918 0.00603333 0
0.0106445 0.00625033 0
0.0115038 0.00644128 0
0.0124073 0.00660297 0
0.0133543 0.00673414 0
0.0143444 0.00683382 0
0.0153769 0.00690031 0
0.0164512 0.00693173 0
0.0175666 0.00692547 0
0.0187219 0.00687822 0
0.0199156 0.00678477 0
0.0211454 0.00663864 0
0.0224084 0.00643275 0
0.0237018 0.00616676 0
0.0250249 0.00584739 0
0.026375 0.00547298 0
0.0277479 0.00503752 0
0.0291386 0.00453545 0
0.0305433 0.0039653 0
0.0319572 0.0033256 0
0.0333681 0.00260019 0
0.034775 0.00179799 0
0.0361793 0.000930615 0
0.0375798 3.12222e-06 0
0.0389689 -0.000988429 0
0.0403357 -0.00205109 0
0.041675 -0.00318283 0
0.0429849 -0.00437751 0
0.0442643 -0.00562904 0
0.0455126 -0.00693089 0
0.0467314 -0.00827518 0
0.0479204 -0.00965638 0
0.0490661 -0.0110799 0
0.0501515 -0.0125519 0
0.0511696 -0.0140695 0
0.0521492 -0.0156071 0
0.0531202 -0.0171411 0
0.0540851 -0.0186663 0
0.0550431 -0.0201798 0
0.0559923 -0.0216793 0
0.0569311 -0.0231626 0
0.0578582 -0.0246273 0
0.0587723 -0.0260715 0
0.0596721 -0.027493 0
0.0605563 -0.02889 0
0.0614241 -0.0302609 0
0.0622742 -0.0316042 0
0.063106 -0.0329183 0
0.0639186 -0.034202 0
0.0647113 -0.0354543 0
0.0654835 -0.0366743 0
0.0662345 -0.0378613 0
0.0669642 -0.0390145 0
0.0676726 -0.0401333 0
0.0683597 -0.0412172 0
0.0690246 -0.0422665 0
0.0696662 -0.0432819 0
0.0702841 -0.0442636 0
0.0708793 -0.0452111 0
0.0714538 -0.0461237 0
0.072009 -0.047001 0
0.0725452 -0.0478434 0
0.0730611 -0.0486524 0
0.073556 -0.0494294 0
0.0740291 -0.0501756 0
0.0744812 -0.0508916 0
0.0749138 -0.0515773 0
0.0753285 -0.0522331 0
0.0757266 -0.0528592 0
0.076109 -0.0534564 0
0.0764753 -0.0540264 0
0.0768243 -0.054571 0
0.0771553 -0.0550919 0
0.0774679 -0.0555901 0
0.0777617 -0.0560669 0
0.0780369 -0.056523 0
0.0782958 -0.0569578 0
0.0785421 -0.0573703 0
0.0787786 -0.0577603 0
0.0790073 -0.0581279 0
0.0792295 -0.058474 0
0.0794462 -0.0587995 0
0.0798803 -0.0594162 0
0.0800272 -0.0596588 0
0.0800357 -0.0598891 0
0.0799275 -0.0600784 0
0.0797205 -0.0601773 0
0.0794593 -0.0601051 0
0.0789155 -0.0596491 0
0.0786707 -0.0593963 0
0.0784111 -0.0591319 0
0.0781372 -0.0588542 0
0.0778566 -0.0585548 0
0.0775715 -0.0582308 0
0.0772803 -0.0578828 0
0.0769832 -0.0575099 0
0.0766822 -0.0571097 0
0.0763801 -0.0566796 0
0.0760759 -0.0562196 0
0.0757623 -0.0557337 0
0.0754359 -0.0552232 0
0.0750951 -0.0546879 0
0.0747379 -0.054128 0
0.0743626 -0.0535435 0
0.0739688 -0.0529338 0
0.0735559 -0.0522981 0
0.0731238 -0.0516357 0
0.0726718 -0.050946 0
0.0721991 -0.0502288 0
0.0717046 -0.049484 0
0.0711872 -0.0487117 0
0.0706461 -0.047912 0
0.0700804 -0.0470849 0
0.0694892 -0.0462308 0
0.0688718 -0.0453499 0
0.0682271 -0.0444431 0
0.0675544 -0.043511 0
0.0668527 -0.0425546 0
0.0661215 -0.0415748 0
0.06536 -0.040573 0
0.0645676 -0.0395504 0
0.0637439 -0.0385087 0
0.0628887 -0.0374493 0
0.062002 -0.0363741 0
0.0610838 -0.0352847 0
0.0601345 -0.0341831 0
0.0591547 -0.033071 0
0.0581456 -0.0319502 0
0.0571083 -0.0308224 0
0.0560444 -0.0296893 0
0.0549562 -0.028552 0
0.053845 -0.0274126 0
0.0527113 -0.0262746 0
0.051554 -0.0251427 0
0.0503724 -0.0240222 0
0.0491675 -0.0229164 0
0.047941 -0.0218282 0
0.0466955 -0.0207597 0
0.0454337 -0.0197126 0
0.0441592 -0.0186878 0
0.0428751 -0.0176863 0
0.0415841 -0.0167097 0
0.0402878 -0.0157609 0
0.0389879 -0.0148428 0
0.0376864 -0.0139575 0
0.0363853 -0.013107 0
0.0350871 -0.0122931 0
0.0337942 -0.0115164 0
0.0325095 -0.0107772 0
0.0312357 -0.0100756 0
0.0299758 -0.00941024 0
0.0287337 -0.00877784 0
0.0275126 -0.00817571 0
0.0263139 -0.00760375 0
0.0251376 -0.00706528 0
0.0239829 -0.0065649 0
0.0228537 -0.00609619 0
0.0217522 -0.00565563 0
0.0206795 -0.00524226 0
0.0196364 -0.00485507 0
0.0186233 -0.00449318 0
0.0176408 -0.00415577 0
0.016689 -0.00384204 0
0.0157682 -0.00355115 0
0.0148783 -0.00328218 0
0.0140192 -0.00303468 0
0.0131906 -0.00280795 0
0.0123925 -0.00260016 0
0.0116246 -0.00241012 0
0.0108864 -0.00223769 0
0.0101774 -0.00208212 0
0.00949701 -0.00194206 0
0.00884483 -0.0018163 0
0.0082202 -0.0017039 0
0.00762247 -0.00160391 0
0.00705097 -0.00151528 0
0.006505 -0.00143697 0
0.0059838 -0.00136806 0
0.00548662 -0.00130772 0
0.00501265 -0.00125519 0
0.00456114 -0.00120954 0
0.00413136 -0.00116914 0
0.00372257 -0.00113251 0
0.00333398 -0.00109853 0
0.00296466 -0.00106798 0
0.00261363 -0.0010431 0
-0.052721 -0.0445996 0
-0.0508204 -0.0440823 0
-0.0489199 -0.0435651 0
-0.0470193 -0.0430478 0
-0.0451187 -0.0425306 0
-0.0432181 -0.0420134 0
-0.0413175 -0.0414961 0
-0.039417 -0.0409789 0
-0.0375164 -0.0404616 0
-0.0356158 -0.0399444 0
-0.0337152 -0.0394271 0
-0.0318146 -0.0389099 0
-0.0299141 -0.0383927 0
-0.0280135 -0.0378754 0
-0.0261129 -0.0373582 0
-0.0242123 -0.0368409 0
-0.0223117 -0.0363237 0
-0.0204112 -0.0358065 0
-0.0185106 -0.0352892 0
-0.01661 -0.034772 0
-0.0147094 -0.0342547 0
-0.0128088 -0.0337375 0
-0.0109083 -0.0332202 0
-0.00900769 -0.032703 0
-0.00710711 -0.0321858 0
-0.00520653 -0.0316685 0
-0.00330595 -0.0311513 0
-0.00140537 -0.030634 0
0.00190689 -0.0299614 0
0.00332271 -0.0298498 0
0.00474133 -0.0297825 0
0.00616136 -0.0297597 0
0.0075814 -0.0297814 0
0.00900007 -0.0298477 0
0.010416 -0.0299583 0
0.0118278 -0.0301127 0
0.0132342 -0.0303103 0
0.0146339 -0.0305504 0
0.0160259 -0.0308322 0
0.0174091 -0.0311546 0
0.0187824 -0.0315166 0
0.020145 -0.031917 0
0.0214961 -0.0323546 0
0.0228351 -0.032828 0
0.0241613 -0.0333361 0
0.0254744 -0.0338774 0
0.0267738 -0.0344507 0
0.0280592 -0.0350545 0
0.0293306 -0.0356877 0
0.0305875 -0.0363488 0
0.0318301 -0.0370367 0
0.0330581 -0.0377501 0
0.0342717 -0.0384879 0
0.0354708 -0.0392489 0
0.0366556 -0.0400321 0
0.0378262 -0.0408363 0
0.0389828 -0.0416607 0
0.0401254 -0.0425042 0
0.0412543 -0.0433659 0
0.0423698 -0.0442451 0
0.043472 -0.0451408 0
0.0445612 -0.0460523 0
0.0456375 -0.0469789 0
0.0467013 -0.0479199 0
0.0477529 -0.0488746 0
0.0487923 -0.0498424 0
0.04982 -0.0508227 0
0.0508362 -0.051815 0
0.051841 -0.0528187 0
0.0528348 -0.0538333 0
0.0538178 -0.0548584 0
0.0547903 -0.0558935 0
0.0557524 -0.0569382 0
0.0567045 -0.0579922 0
0.0576467 -0.0590549 0
0.0585792 -0.0601261 0
0.0595024 -0.0612055 0
0.0604163 -0.0622926 0
0.0613212 -0.0633873 0
0.0622174 -0.0644891 0
0.0631049 -0.0655979 0
0.0639841 -0.0667134 0
0.064855 -0.0678353 0
0.0657179 -0.0689633 0
0.0665729 -0.0700974 0
0.0674202 -0.0712372 0
0.06826 -0.0723826 0
0.0690925 -0.0735333 0
0.0699178 -0.0746892 0
0.070736 -0.0758501 0
0.0715473 -0.0770159 0
0.0723518 -0.0781863 0
0.0731498 -0.0793612 0
0.0739412 -0.0805405 0
0.0747264 -0.081724 0
0.0755053 -0.0829116 0
0.0762781 -0.0841033 0
0.0770449 -0.0852987 0
0.0778059 -0.0864979 0
0.0785611 -0.0877007 0
0.0793108 -0.088907 0
0.0814681 -0.0912706 0
0.0828814 -0.0924245 0
0.0842946 -0.0935783 0
0.0857079 -0.0947322 0
0.0871211 -0.095886 0
0.0885344 -0.0970399 0
0.0899476 -0.0981937 0
0.0913609 -0.0993476 0
0.0927741 -0.100501 0
0.0941874 -0.101655 0
0.0956006 -0.102809 0
0.0970139 -0.103963 0
0.0984272 -0.105117 0
0.0998404 -0.106271 0
0.101254 -0.107424 0
0.102667 -0.108578 0
0.10408 -0.109732 0
0.105493 -0.110886 0
0.106907 -0.11204 0
0.10832 -0.113194 0
0.109733 -0.114348 0
0.111146 -0.115501 0
0.11256 -0.116655 0
0.113973 -0.117809 0
0.115386 -0.118963 0
0.116799 -0.120117 0
0.118213 -0.121271 0
0.119626 -0.122424 0
0.121039 -0.123578 0
0.122452 -0.124732 0
0.123866 -0.125886 0
0.125279 -0.12704 0
0.126692 -0.128194 0
0.128105 -0.129348 0
0.129519 -0.130501 0
0.130932 -0.131655 0
0.132345 -0.132809 0
0.133758 -0.133963 0
0.135172 -0.133216 0
0.135172 -0.131316 0
0.135172 -0.129415 0
0.135172 -0.127514 0
0.135172 -0.125614 0
0.135172 -0.123713 0
0.135172 -0.121813 0
0.135172 -0.119912 0
0.135172 -0.118012 0
0.135172 -0.116111 0
0.135172 -0.11421 0
0.135172 -0.11231 0
0.135172 -0.110409 0
0.135172 -0.108509 0
0.135172 -0.106608 0
0.135172 -0.104708 0
0.135172 -0.102807 0
0.135172 -0.100906 0
0.135172 -0.0990058 0
0.135172 -0.0971052 0
0.135172 -0.0952046 0
0.135172 -0.0933041 0
0.135172 -0.0914035 0
0.135172 -0.0895029 0
0.135172 -0.0876023 0
0.135172 -0.0857017 0
0.135172 -0.0838012 0
0.135172 -0.0819006 0
0.133758 -0.0788462 0
0.132345 -0.0776923 0
0.130932 -0.0765385 0
0.129519 -0.0753846 0
0.128105 -0.0742308 0
0.126692 -0.0730769 0
0.125279 -0.0719231 0
0.123866 -0.0707692 0
0.122452 -0.0696154 0
0.121039 -0.0684615 0
0.119626 -0.0673077 0
0.118213 -0.0661538 0
0.116799 -0.065 0
0.115386 -0.0638462 0
0.113973 -0.0626923 0
0.11256 -0.0615385 0
0.111146 -0.0603846 0
0.109733 -0.0592308 0
0.10832 -0.0580769 0
0.106907 -0.0569231 0
0.105493 -0.0557692 0
0.10408 -0.0546154 0
0.102667 -0.0534615 0
0.101254 -0.0523077 0
0.0998404 -0.0511538 0
0.0984272 -0.05 0
0.0970139 -0.0488462 0
0.0956006 -0.0476923 0
[...]
CELL_DATA 13116
SCALARS rho float
LOOKUP_TABLE default
0.454038
0.581923
0.330674
0.603619
0.607933
0.524194
0.336904
0.622749
0.424029
0.608347
0.336456
0.369975
0.60816
0.369406
0.334594
0.523884
0.432651
0.594859
0.557729
0.351677
0.45504
0.329154
0.384695
0.598396
0.495171
0.609355
0.608287
0.360631
0.487454
0.535797
0.534147
0.374907
0.447807
0.350958
0.332918
0.45535
0.56283
0.597103
0.528169
0.600946
0.524687
0.621246
0.340016
0.340216
0.574515
0.563485
0.571463
0.574929
0.339788
0.416978
0.615125
0.350868
0.350326
0.426204
0.44706
0.475151
0.348315
0.59574
0.428128
0.342587
0.372667
0.60891
0.576804
0.528691
0.532871
0.360026
0.542278
0.565795
0.567317
0.532085
0.332639
0.470333
0.325397
0.364543
0.53668
0.309051
0.552077
0.608904
0.345669
0.590109
0.578716
0.602776
0.599488
0.593468
0.600089
0.345527
0.355849
0.558056
0.608075
0.33603
0.387588
0.583751
0.602706
0.61669
0.542526
0.490605
0.497249
0.535243
0.535663
0.482342
0.566358
0.518011
0.531464
0.334186
0.565423
0.361973
0.273505
0.380744
0.373729
0.497205
0.407442
0.589607
0.488282
0.580064
0.591054
0.555422
0.360499
0.304624
0.606559
0.581823
0.565242
0.324121
0.570585
0.385692
0.617695
0.343807
0.355409
0.403302
0.368672
0.418028
0.606058
0.599296
0.393921
0.336295
0.37634
0.490069
0.542019
0.593469
0.565087
0.584945
0.536629
0.574377
0.402444
0.538657
0.564425
0.368948
0.330991
0.59848
0.605296
0.615423
0.431313
0.590144
0.572049
0.314543
0.606129
0.599628
0.387307
0.573514
0.535128
0.557589
0.597339
0.337641
0.599073
0.38577
0.319221
0.610793
0.614213
0.594119
0.334093
0.36012
0.326216
0.541789
0.337562
0.389162
0.551056
0.385987
0.327444
0.326912
0.585974
0.524957
0.338477
0.337592
0.427065
0.562265
0.524455
0.426664
0.328831
0.526343
0.562031
0.360862
0.539267
0.596461
0.531229
0.389109
0.586202
0.524816
0.605123
0.530258
0.607221
0.304289
0.334284
0.502787
0.398446
0.373127
0.60339
0.596574
0.358973
0.499489
0.347936
0.33001
0.310513
0.523699
0.388266
0.344298
0.331169
0.314254
0.286837
0.527999
0.616419
0.334183
0.347008
0.537992
0.401827
0.338375
0.439968
0.608595
0.561942
0.364535
0.545995
0.298976
0.628876
0.37875
0.531863
0.460389
0.535995
0.604215
0.530614
0.352897
0.339907
0.556239
0.537545
0.525169
0.541133
0.530363
0.624136
0.328501
0.607746
0.607162
0.535386
0.328843
0.340745
0.591795
0.604462
0.532639
0.602797
0.443166
0.57936
0.336422
0.367867
0.304557
0.347822
0.551174
0.604786
0.551424
0.35307
0.582095
0.348165
0.334501
0.567039
0.32294
0.604526
0.61665
0.538482
0.595573
0.350147
0.538712
0.584033
0.535293
0.591573
0.347848
0.355209
0.390116
0.486091
0.324326
0.337748
0.253066
0.353348
0.597497
0.346688
0.605741
0.610488
0.345856
0.34781
0.347756
0.352941
0.344138
0.557038
0.505425
0.578904
0.32346
0.525192
0.468765
0.374072
0.342558
0.52693
0.603959
0.52683
0.328847
0.524367
0.334748
0.599276
0.619391
0.611025
0.619156
0.390045
0.539504
0.341256
0.521941
0.608513
0.554424
0.347622
0.252817
0.607764
0.351767
0.587842
0.609124
0.303245
0.580369
0.598998
0.349625
0.586603
0.602527
0.3521
0.607949
0.346911
0.457634
0.63107
0.352532
0.574339
0.353387
0.595374
0.261975
0.529472
0.523508
0.606544
0.367519
0.275308
0.59986
0.315751
0.60468
0.569037
0.330617
0.541902
0.318853
0.319379
0.605195
0.441151
0.565814
0.355107
0.387149
0.607076
0.610342
0.331946
0.612486
0.36543
0.363071
0.571749
0.62809
0.374652
0.333513
0.595241
0.533547
0.523944
0.59149
0.599095
0.431886
0.314688
0.343535
0.340405
0.524352
0.340753
0.425705
0.285546
0.383999
0.27074
0.38312
0.106706
0.316756
0.598717
0.361116
0.600179
0.488204
0.547483
0.548663
0.60884
0.319718
0.354165
0.310832
0.325844
0.603727
0.484785
0.532501
0.488494
0.565397
0.511661
0.600513
0.525254
0.533239
0.599131
0.589087
0.525561
0.310481
0.364502
0.450882
0.327102
0.502351
0.474284
0.351145
0.550978
0.538239
0.391491
0.350132
0.344399
0.330572
0.511219
0.326076
0.389356
0.52916
0.355218
0.460742
0.342527
0.52323
0.583845
0.353822
0.335125
0.604859
0.353742
0.342634
0.332468
0.330365
0.374279
0.352744
0.34985
0.331588
0.334547
0.33839
0.515457
0.314244
0.603978
0.281173
0.378347
0.395052
0.362104
0.335528
0.364787
0.586979
0.340959
0.52283
0.385818
0.35436
0.502213
0.608603
0.344806
0.579705
0.515117
0.514834
0.350937
0.535889
0.304536
0.598374
0.534625
0.385878
0.339844
0.559151
0.32498
0.353686
0.526852
0.273781
0.572204
0.568988
0.346289
0.326356
0.334709
0.385517
0.339781
0.349687
0.335009
0.341353
0.610499
0.608255
0.358281
0.485248
0.375894
0.58273
0.276017
0.320641
0.42764
0.385465
0.602528
0.227737
0.286883
0.389985
0.577335
0.611398
0.446845
0.295681
0.340163
0.45329
0.621946
0.531286
0.450092
0.563639
0.548788
0.340976
0.582794
0.456428
0.55454
0.356358
0.34004
0.579006
0.605332
0.546913
0.608728
0.601369
0.614118
0.595815
0.553569
0.542799
0.329618
0.583405
0.259606
0.349391
0.342912
0.603483
0.59577
0.323248
0.601483
0.502633
0.346934
0.529467
0.602472
0.594558
0.360141
0.320741
0.607649
0.341923
0.339994
0.358086
0.341279
0.60067
0.349444
0.602355
0.314048
0.58122
0.613326
0.549125
0.609574
0.341701
0.344879
0.598422
0.628587
0.558114
0.610709
0.606838
0.390016
0.349447
0.380642
0.522394
0.424092
0.345332
0.353512
0.385002
0.6228
0.531982
0.356483
0.329358
0.602628
0.361016
0.596467
0.543147
0.367057
0.300063
0.554824
0.538009
0.383376
0.609376
0.615257
0.595918
0.313485
0.541053
0.354035
0.536341
0.553132
0.333776
0.287033
0.336827
0.535826
0.368323
0.346256
0.305012
0.528599
0.596576
0.347208
0.36511
0.340087
0.529069
0.325655
0.524925
0.368804
0.473589
0.608553
0.284188
0.384689
0.38502
0.390356
0.377433
0.609985
0.325884
0.322009
0.524753
0.335377
0.522852
0.583584
0.535745
0.33683
0.602391
0.601964
0.60484
0.522254
0.627809
0.567641
0.369572
0.531756
0.336161
0.599646
0.349629
0.623285
0.404217
0.334498
0.533276
0.602928
0.318633
0.525769
0.386743
0.330734
0.526438
0.586647
0.387761
0.368952
0.345498
0.365978
0.625015
0.59862
0.313714
0.344913
0.604099
0.593351
0.475582
0.601545
0.52697
0.338105
0.606763
0.331794
0.614148
0.307888
0.485649
0.377211
0.535946
0.567342
0.462491
0.279881
0.36829
0.537734
0.487173
0.428969
0.600921
0.346445
0.58511
0.605683
0.280045
0.362584
0.602838
0.318599
0.532554
0.557277
0.249331
0.596795
0.540511
0.3116
0.59393
0.389737
0.603034
0.317182
0.522924
0.575625
0.373724
0.528398
0.599683
0.606948
0.504087
0.588122
0.467543
0.343365
0.335501
0.306431
0.368376
0.543191
0.442794
0.577861
0.604966
0.33661
0.3289
0.592751
0.608732
0.604765
0.617111
0.349446
0.589103
0.607304
0.350637
0.32473
0.606754
0.589677
0.602249
0.348319
0.474068
0.356202
0.59202
0.584226
0.531047
0.591978
0.344031
0.596431
0.605963
0.601383
0.591332
0.522192
0.332187
0.59911
0.329499
0.547171
0.607777
0.359816
0.569733
0.530589
0.613022
0.331189
0.324213
0.468879
0.538746
0.342092
0.334837
0.320315
0.337257
0.581356
0.584593
0.530441
0.35339
0.338871
0.564134
0.572677
0.353154
0.33088
0.361859
0.565918
0.532178
0.593392
0.590091
0.330151
0.342375
0.540495
0.383404
0.342883
0.318881
0.521545
0.356369
0.339975
0.468636
0.599719
0.584566
0.526444
0.522804
0.361559
0.334605
0.323362
0.387677
0.3402
0.38205
0.565047
0.588329
0.597863
0.53029
0.354049
0.337381
0.608554
0.342758
0.521961
0.575873
0.534353
0.387785
0.33042
0.599565
0.533594
0.469205
0.352169
0.597945
0.525721
0.465102
0.613848
0.619231
0.539723
0.562404
0.349684
0.522275
0.532786
0.527798
0.591538
0.543171
0.589986
0.539552
0.586635
0.322582
0.321314
0.339385
0.53363
0.403838
0.343744
0.59337
0.603609
0.370997
0.532167
0.356561
0.540152
0.379419
0.347153
0.608475
0.597529
0.344747
0.438239
0.533517
0.36893
0.615537
0.367206
0.36004
0.508054
0.493634
0.395023
0.534928
0.319734
0.599159
0.324521
0.339873
0.522383
0.345091
0.494261
0.38603
0.53241
0.486491
0.539902
0.61221
0.341744
0.322186
0.532973
0.342889
0.60437
0.359846
0.484137
0.523942
0.600976
0.354198
0.49458
0.585766
0.605611
0.558601
0.264472
0.338461
0.43009
0.586658
0.606
0.288926
0.530245
0.470499
0.310234
0.386287
0.5563
0.56602
0.54056
0.536178
0.527626
0.582946
0.527713
0.571667
0.385716
0.545471
0.359851
0.603582
0.588486
0.359121
0.636451
0.60886
0.319111
0.34982
0.349859
0.543047
0.338208
0.506987
0.596393
0.546333
0.370347
0.598489
0.376581
0.47379
0.529262
0.5312
0.563124
0.52913
0.504756
0.577665
0.422217
0.599465
0.31924
0.522079
0.544779
0.326703
0.538516
0.587202
0.390623
0.343585
0.36601
0.611639
0.337259
0.538669
0.323362
0.623193
0.339389
0.37762
0.378869
0.597572
0.61578
0.441748
0.347251
0.505427
0.527636
0.329161
0.475108
0.607439
0.37882
0.477059
0.534489
0.608543
0.522624
0.38881
0.378355
0.605145
0.559412
0.547953
0.335869
0.320159
0.595598
0.541195
0.538168
0.541686
0.448564
0.599526
0.443771
0.596398
0.336651
0.375968
0.541402
0.607535
0.528279
0.362001
0.521828
0.45774
0.497174
0.309727
0.321464
0.612279
0.613863
0.445816
0.314453
0.533988
0.537893
0.335475
0.495632
0.58982
0.33467
0.372732
0.340642
0.567985
0.328987
0.331927
0.58944
0.367102
0.606493
0.537963
0.335006
0.350608
0.612106
0.318683
0.325471
0.53359
0.367719
0.276697
0.480711
0.627778
0.602808
0.3362
0.357417
0.332502
0.584279
0.362315
0.603015
0.331307
0.595306
0.621249
0.580469
0.571903
0.593449
0.582532
0.527497
0.609456
0.60459
0.349562
0.326396
0.58614
0.527581
0.39995
0.573227
0.44926
0.528316
0.526696
0.353449
0.573413
0.608172
0.598629
0.327094
0.596595
0.31474
0.594999
0.39267
0.591265
0.523312
0.347076
0.602759
0.341854
0.337667
0.576787
0.318514
0.574041
0.543073
0.625123
0.325096
0.52663
0.33543
0.391344
0.383063
0.329746
0.523359
0.33949
0.538574
0.530078
0.31877
0.388816
0.384299
0.466244
0.522684
0.554115
0.334905
0.355845
0.332189
0.378924
0.352881
0.52417
0.595208
0.357544
0.529459
0.596202
0.340562
0.607453
0.571436
0.529701
0.325989
0.536666
0.586783
0.600278
0.607976
0.337816
0.602976
0.60286
0.596952
0.55626
0.525306
0.341192
0.384405
0.587174
0.428118
0.330744
0.522351
0.388333
0.457351
0.522162
0.601438
0.603308
0.387927
0.571063
0.303588
0.325563
0.582418
0.606342
0.603638
0.606757
0.555947
0.392929
0.608819
0.34531
0.399064
0.610914
0.535893
0.604849
0.327572
0.370128
0.607647
0.363789
0.607266
0.533733
0.335695
0.340145
0.580394
0.386694
0.522853
0.606965
0.557339
0.386567
0.321074
0.399499
0.416761
0.51251
0.371654
0.523869
0.555703
0.603656
0.543531
0.595071
0.343523
0.338823
0.608696
0.525424
0.543065
0.359816
0.371763
0.5799
0.338184
0.528787
0.498921
0.314319
0.603415
0.342287
0.621904
0.325325
0.605536
0.347958
0.599565
0.525753
0.332982
0.617676
0.538548
0.290067
0.530589
0.553737
0.448154
0.362483
0.281272
0.366207
0.602643
0.537221
0.326508
0.469951
0.596718
0.524981
0.370815
0.507412
0.594714
0.360759
0.523949
0.521921
0.364582
0.601702
0.534775
0.328816
0.490413
0.331887
0.540054
0.318491
0.360582
0.604759
0.328539
0.338399
0.341335
0.534598
0.587139
0.317681
0.538823
0.280495
0.571755
0.335503
0.589133
0.288124
0.523364
0.585688
0.549984
0.531016
0.441486
0.52591
0.52965
0.351415
0.522519
0.553205
0.399729
0.594804
0.389607
0.331068
0.608701
0.334943
0.459987
0.356807
0.530066
0.352663
0.389174
0.597513
0.524167
0.346543
0.598021
0.58789
0.543089
0.617632
0.536333
0.348724
0.607671
0.344417
0.387815
0.61247
0.591823
0.621914
0.602497
0.380106
0.317157
0.332284
0.58488
0.530262
0.280655
0.629797
0.36306
0.319561
0.308518
0.607212
0.307227
0.60911
0.604708
0.520844
0.588937
0.603879
0.467633
0.54741
0.339078
0.345404
0.344716
0.536341
0.536891
0.364615
0.524154
0.565086
0.547057
0.388312
0.325883
0.558934
0.216545
0.551193
0.509498
0.343941
0.527221
0.583165
0.342301
0.602241
0.326161
0.574201
0.607767
0.594528
0.340441
0.369266
0.572609
0.336378
0.346553
0.578499
0.352518
0.526533
0.552699
0.602583
0.587893
0.317333
0.5337
0.581695
0.556322
0.279869
0.609544
0.326584
0.3594
0.599165
0.531142
0.52996
0.183442
0.523348
0.521022
0.5368
0.357084
0.363746
0.34132
0.601147
0.336533
0.333773
0.310974
0.507911
0.329349
0.358563
0.344939
0.603215
0.343262
0.530853
0.528757
0.594004
0.325539
0.593327
0.545244
0.529645
0.322927
0.554134
0.330299
0.334993
0.524958
0.347669
0.523357
0.593991
0.540276
0.3427
0.252606
0.319006
0.449058
0.541308
0.181131
0.596557
0.531049
0.589981
0.332294
0.345086
0.264946
0.541534
0.344272
0.54358
0.491291
0.527992
0.593257
0.345332
0.526706
0.372608
0.491516
0.535716
0.608856
0.487819
0.396795
0.555425
0.546964
0.609344
0.332687
0.27934
0.353261
0.590354
0.428785
0.535798
0.342411
0.312092
0.598005
0.596097
0.531839
0.346295
0.598536
0.447703
0.450828
0.539949
0.378912
0.34726
0.365493
0.535159
0.530181
0.554478
0.580138
0.263648
0.626885
0.547432
0.530046
0.530165
0.624087
0.608371
0.525114
0.592031
0.602596
0.385245
0.592506
0.608002
0.522972
0.601744
0.533916
0.485393
0.346589
0.365493
0.533292
0.33191
0.310117
0.603088
0.328497
0.523394
0.559627
0.581825
0.5984
0.392645
0.605118
0.379832
0.373292
0.524522
0.599983
0.532945
0.326031
0.612782
0.53619
0.536606
0.524461
0.327767
0.523769
0.607839
0.581047
0.305355
0.595037
0.332499
0.60521
0.313137
0.345879
0.437449
0.352172
0.608399
0.597427
0.521813
0.310683
0.524371
0.319816
0.33194
0.602745
0.387222
0.335137
0.52524
0.365911
0.407689
0.562202
0.566338
0.600096
0.386591
0.482058
0.549411
0.522313
0.483946
0.603985
0.427039
0.635174
0.577687
0.540197
0.35359
0.342144
0.351159
0.606609
0.3905
0.555691
0.600892
0.495192
0.522343
0.429285
0.574419
0.573419
0.328063
0.593309
0.565782
0.406197
0.567332
0.608171
0.610314
0.526512
0.330584
0.32378
0.599728
0.432183
0.447152
0.59001
0.597427
0.540325
0.605445
0.607265
0.513355
0.554398
0.608621
0.336263
0.367357
0.353285
0.32107
0.53853
0.361286
0.440768
0.603271
0.578553
0.3865
0.599542
0.60139
0.327465
0.291864
0.538044
0.594384
0.3774
0.356624
0.357119
0.543558
0.607688
0.309534
0.341443
0.345823
0.364974
0.335397
0.33267
0.631168
0.582054
0.589821
0.326894
0.583244
0.503484
0.495953
0.342149
0.351517
0.602455
0.541725
0.341359
0.523497
0.342084
0.597289
0.385476
0.597134
0.3422
0.597974
0.61268
0.324775
0.452226
0.34816
0.607817
0.370535
0.508196
0.387317
0.405095
0.328727
0.500759
0.329149
0.531538
0.531109
0.494342
0.592625
0.341639
0.59022
0.527394
0.612736
0.500536
0.572265
0.351498
0.330734
0.360201
0.602718
0.224776
0.608726
0.438288
0.591218
0.60863
0.373603
0.599538
0.331124
0.370714
0.334573
0.407918
0.437946
0.597962
0.32511
0.337387
0.522015
0.293388
0.386739
0.467851
0.291449
0.340712
0.36535
0.621811
0.542098
0.512545
0.380109
0.58687
0.537258
0.350226
0.24927
0.604011
0.522001
0.492975
0.410864
0.31992
0.278912
0.315406
0.623242
0.532117
0.422385
0.579901
0.346427
0.46509
0.342144
0.533022
0.609805
0.349265
0.363452
0.53875
0.461691
0.610238
0.602957
0.603659
0.606763
0.610198
0.313505
0.327412
0.353397
0.34768
0.448422
0.534374
0.543974
0.348294
0.339281
0.357112
0.372919
0.545646
0.564171
0.334525
0.35202
0.553631
0.38115
0.54874
0.599711
0.587086
0.524861
0.456506
0.339013
0.345954
0.550324
0.348382
0.336126
0.312183
0.527233
0.565961
0.371354
0.3449
0.541723
0.328443
0.534225
0.6028
0.340389
0.319376
0.342513
0.560392
0.361401
0.543148
0.590845
0.497213
0.35499
0.423941
0.60816
0.59871
0.340972
0.598216
0.534159
0.402612
0.606495
0.628165
0.329596
0.328436
0.599404
0.328377
0.349363
0.593486
0.266764
0.583183
0.574229
0.601375
0.537326
0.60735
0.549883
0.526597
0.334887
0.31852
0.550175
0.600573
0.369104
0.607772
0.346208
0.584176
0.601233
0.462507
0.542355
0.329895
0.358859
0.599148
0.606135
0.574407
0.613021
0.532901
0.539504
0.61883
0.542523
0.626399
0.604629
0.621968
0.541291
0.526105
0.286724
0.604343
0.350447
0.577629
0.588971
0.594869
0.580315
0.586417
0.318907
0.316589
0.319569
0.341387
0.583587
0.348697
0.325626
0.581003
0.348735
0.591205
0.315959
0.594942
0.603445
0.328895
0.296024
0.314355
0.60213
0.367235
0.597405
0.60209
0.318049
0.600465
0.44764
0.278875
0.365012
0.342517
0.584684
0.329168
0.593494
0.426564
0.348008
0.543658
0.525554
0.60343
0.342715
0.470699
0.385439
0.584801
0.526617
0.562494
0.338223
0.599729
0.590231
0.580661
0.322576
0.601983
0.340989
0.339019
0.603206
0.356991
0.607605
0.337173
0.3392
0.347623
0.583757
0.365678
0.24258
0.313126
0.389653
0.535956
0.603552
0.357355
0.497444
0.548058
0.449978
0.334458
0.333285
0.449574
0.3398
0.344496
0.587358
0.339538
0.343853
0.612775
0.609319
0.324809
0.592743
0.310909
0.53853
0.357796
0.605612
0.531958
0.588136
0.527956
0.324751
0.34176
0.38714
0.525239
0.602247
0.479841
0.436371
0.287735
0.234584
0.522359
0.335363
0.582672
0.296397
0.531498
0.567564
0.340354
0.343069
0.342602
0.345305
0.349008
0.538998
0.58371
0.342483
0.595361
0.532216
0.347687
0.337238
0.606348
0.334014
0.603176
0.332877
0.588435
0.548317
0.591734
0.53532
0.327263
0.607175
0.58269
0.62102
0.32931
0.540454
0.486677
0.312354
0.605303
0.548229
0.637473
0.589176
0.60984
0.606492
0.618503
0.522445
0.550315
0.334336
0.601751
0.34319
0.364936
0.580731
0.387416
0.599047
0.551799
0.338462
0.579521
0.329597
0.389144
0.611066
0.537431
0.609766
0.332898
0.589692
0.507778
0.356024
0.332223
0.615533
0.533601
0.293115
0.310529
0.594755
0.608106
0.331848
0.536712
0.611529
0.544563
0.344131
0.341239
0.384262
0.549315
0.347395
0.598031
0.589997
0.522275
0.506143
0.603995
0.330803
0.604357
0.503634
0.612636
0.485717
0.385721
0.336498
0.354456
0.598489
0.603905
0.330465
0.546133
0.357152
0.552235
0.57792
0.347422
0.531907
0.598273
0.517156
0.326916
0.354479
0.323181
0.606701
0.607624
0.505529
0.410394
0.600761
0.342023
0.52593
0.537909
0.599445
0.325502
0.513492
0.338818
0.56241
0.360602
0.599773
0.613286
0.378377
0.606699
0.343511
0.54148
0.538994
0.543619
0.609364
0.334924
0.523127
0.526605
0.561538
0.599058
0.381949
0.538193
0.346264
0.531122
0.351105
0.340895
0.353822
0.347898
0.340855
0.332149
0.611494
0.282128
0.333276
0.556576
0.607447
0.586193
0.313951
0.582938
0.57876
0.525679
0.332327
0.493951
0.547106
0.324125
0.311159
0.340165
0.522115
0.405025
0.340038
0.494669
0.353827
0.535609
0.39896
0.35525
0.373828
0.542995
0.315041
0.534496
0.343864
0.38982
0.292176
0.621834
0.303693
0.55453
0.537504
0.552969
0.33247
0.347112
0.62512
0.608706
0.311076
0.391316
0.524191
0.344453
0.594262
0.327316
0.450628
0.35412
0.54538
0.326783
0.610529
0.341001
0.580047
0.603152
0.607398
0.538767
0.344671
0.387993
0.310549
0.611633
0.580046
0.582656
0.44147
0.335415
0.598285
0.327411
0.599998
0.521818
0.332126
0.342764
0.600444
0.597821
0.385741
0.533391
0.629226
0.601888
0.60148
0.344515
0.528148
0.341623
0.602899
0.351891
0.529313
0.599187
0.629757
0.611963
0.348134
0.607918
0.329447
0.324538
0.531042
0.538329
0.445194
0.600638
0.53875
0.337036
0.595775
0.620289
0.619666
0.390052
0.337219
0.577186
0.349385
0.590317
0.604805
0.598861
0.620465
0.222835
0.35509
0.540153
0.381784
0.602235
0.60678
0.377299
0.611754
0.364821
0.551401
0.596323
0.569619
0.616495
0.355079
0.390176
0.598884
0.597809
0.335745
0.345947
0.325322
0.384144
0.333808
0.349054
0.350355
0.331506
0.600598
0.348925
0.340067
0.593813
0.443967
0.541505
0.310555
0.343173
0.555976
0.371027
0.390942
0.606325
0.291464
0.549995
0.531036
0.49748
0.589616
0.364612
0.604048
0.528781
0.318279
0.338992
0.332023
0.548897
0.497231
0.609335
0.523193
0.599827
0.59158
0.275823
0.605256
0.52826
0.62152
0.345975
0.554466
0.504106
0.273537
0.340317
0.346929
0.380244
0.338194
0.484528
0.563555
0.586762
0.344639
0.302134
0.612275
0.363791
0.60033
0.528662
0.599853
0.5697
0.595879
0.323762
0.38286
0.356922
0.466516
0.351872
0.568981
0.35251
0.526195
0.524039
0.589729
0.325013
0.355185
0.331547
0.603685
0.309036
0.340307
0.605259
0.590015
0.526637
0.523883
0.61616
0.593748
0.337675
0.511979
0.605889
0.42484
0.603107
0.600379
0.596682
0.360787
0.333172
0.619926
0.395559
0.513222
0.337008
0.57
0.598771
0.305075
0.347301
0.581492
0.407876
0.605776
0.599707
0.330298
0.350177
0.534627
0.305387
0.320406
0.599017
0.61495
0.341068
0.593852
0.534848
0.580862
0.338147
0.48518
0.339672
0.59741
0.609887
0.593959
0.582964
0.534016
0.355419
0.295804
0.593821
0.329561
0.495778
0.346325
0.596521
0.363708
0.544344
0.605262
0.534747
0.337783
0.543246
0.536828
0.342859
0.569271
0.337641
0.620377
0.339021
0.344575
0.356016
0.583548
0.575127
0.250047
0.362603
0.600234