# vtk DataFile Version 1.0
unstructured grid
ascii
DATASET UNSTRUCTURED_GRID
points 13672 float
0.0796578 -0.059106 0
0.00128732 0.00159165 0
0.00227961 -0.00102548 0
0.0791586 -0.0598787 0
-0.0546216 0.01 0
0.000495206 0.025 0
0.0800549 -0.035 0
0.135172 -0.08 0
-0.0546216 -0.0451168 0
0.000495206 -0.0301168 0
0.0800549 -0.0901168 0
0.135172 -0.135117 0
-0.0546216 -0.0451168 -0.00551168
0.000495206 -0.0301168 -0.00551168
0.0800549 -0.0901168 -0.00551168
0.135172 -0.135117 -0.00551168
0.135172 -0.08 -0.00551168
0.0800549 -0.035 -0.00551168
0.000495206 0.025 -0.00551168
-0.0546216 0.01 -0.00551168
0.00128732 0.00159165 -0.00551168
0.00227961 -0.00102548 -0.00551168
0.0791586 -0.0598787 -0.00551168
0.0796578 -0.059106 -0.00551168
0.00165953 -0.000990923 0
0.00119576 -0.000874076 0
0.000866021 -0.000641801 0
0.000645147 -0.000349912 0
0.00052235 -1.7281e-05 0
0.00049972 0.000348016 0
0.000601632 0.000737716 0
0.000861774 0.0011403 0
0.00157235 0.00183217 0
0.00188647 0.00206725 0
0.00222612 0.00230203 0
0.00258713 0.00254351 0
0.00296826 0.00279524 0
0.00337118 0.00305664 0
0.00379785 0.00332658 0
0.00425045 0.00360349 0
0.00473139 0.00388521 0
0.0052432 0.00416895 0
0.0057881 0.00445204 0
0.00636753 0.00473281 0
0.00698281 0.00500961 0
0.00763526 0.00528058 0
0.00832616 0.00554366 0
0.00905691 0.00579603 0
0.00982918 0.00603333 0
0.0106445 0.00625033 0
0.0115038 0.00644128 0
0.0124073 0.00660297 0
0.0133543 0.00673414 0
0.0143444 0.00683382 0
0.0153769 0.00690031 0
0.0164512 0.00693173 0
0.0175666 0.00692547 0
0.0187219 0.00687822 0
0.0199156 0.00678477 0
0.0211454 0.00663864 0
0.0224084 0.00643275 0
0.0237018 0.00616676 0
0.0250249 0.00584739 0
0.026375 0.00547298 0
0.0277479 0.00503752 0
0.0291386 0.00453545 0
0.0305433 0.0039653 0
0.0319572 0.0033256 0
0.0333681 0.00260019 0
0.034775 0.00179799 0
0.0361793 0.000930615 0
0.0375798 3.12222e-06 0
0.0389689 -0.000988429 0
0.0403357 -0.00205109 0
0.041675 -0.00318283 0
0.0429849 -0.00437751 0
0.0442643 -0.00562904 0
0.0455126 -0.00693089 0
0.0467314 -0.00827518 0
0.0479204 -0.00965638 0
0.0490661 -0.0110799 0
0.0501515 -0.0125519 0
0.0511696 -0.0140695 0
0.0521492 -0.0156071 0
0.0531202 -0.0171411 0
0.0540851 -0.0186663 0
0.0550431 -0.0201798 0
0.0559923 -0.0216793 0
0.0569311 -0.0231626 0
0.0578582 -0.0246273 0
0.0587723 -0.0260715 0
0.0596721 -0.027493 0
0.0605563 -0.02889 0
0.0614241 -0.0302609 0
0.0622742 -0.0316042 0
0.063106 -0.0329183 0
0.0639186 -0.034202 0
0.0647113 -0.0354543 0
0.0654835 -0.0366743 0
0.0662345 -0.0378613 0
0.0669642 -0.0390145 0
0.0676726 -0.0401333 0
0.0683597 -0.0412172 0
0.0690246 -0.0422665 0
0.0696662 -0.0432819 0
0.0702841 -0.0442636 0
0.0708793 -0.0452111 0
0.0714538 -0.0461237 0
0.072009 -0.047001 0
0.0725452 -0.0478434 0
0.0730611 -0.0486524 0
0.073556 -0.0494294 0
0.0740291 -0.0501756 0
0.0744812 -0.0508916 0
0.0749138 -0.0515773 0
0.0753285 -0.0522331 0
0.0757266 -0.0528592 0
0.076109 -0.0534564 0
0.0764753 -0.0540264 0
0.0768243 -0.054571 0
0.0771553 -0.0550919 0
0.0774679 -0.0555901 0
0.0777617 -0.0560669 0
0.0780369 -0.056523 0
0.0782958 -0.0569578 0
0.0785421 -0.0573703 0
0.0787786 -0.0577603 0
0.0790073 -0.0581279 0
0.0792295 -0.058474 0
0.0794462 -0.0587995 0
0.0798803 -0.0594162 0
0.0800272 -0.0596588 0
0.0800357 -0.0598891 0
0.0799275 -0.0600784 0
0.0797205 -0.0601773 0
0.0794593 -0.0601051 0
0.0789155 -0.0596491 0
0.0786707 -0.0593963 0
0.0784111 -0.0591319 0
0.0781372 -0.0588542 0
0.0778566 -0.0585548 0
0.0775715 -0.0582308 0
0.0772803 -0.0578828 0
0.0769832 -0.0575099 0
0.0766822 -0.0571097 0
0.0763801 -0.0566796 0
0.0760759 -0.0562196 0
0.0757623 -0.0557337 0
0.0754359 -0.0552232 0
0.0750951 -0.0546879 0
0.0747379 -0.054128 0
0.0743626 -0.0535435 0
0.0739688 -0.0529338 0
0.0735559 -0.0522981 0
0.0731238 -0.0516357 0
0.0726718 -0.050946 0
0.0721991 -0.0502288 0
0.0717046 -0.049484 0
0.0711872 -0.0487117 0
0.0706461 -0.047912 0
0.0700804 -0.0470849 0
0.0694892 -0.0462308 0
0.0688718 -0.0453499 0
0.0682271 -0.0444431 0
0.0675544 -0.043511 0
0.0668527 -0.0425546 0
0.0661215 -0.0415748 0
0.06536 -0.040573 0
0.0645676 -0.0395504 0
0.0637439 -0.0385087 0
0.0628887 -0.0374493 0
0.062002 -0.0363741 0
0.0610838 -0.0352847 0
0.0601345 -0.0341831 0
0.0591547 -0.033071 0
0.0581456 -0.0319502 0
0.0571083 -0.0308224 0
0.0560444 -0.0296893 0
0.0549562 -0.028552 0
0.053845 -0.0274126 0
0.0527113 -0.0262746 0
0.051554 -0.0251427 0
0.0503724 -0.0240222 0
0.0491675 -0.0229164 0
0.047941 -0.0218282 0
0.0466955 -0.0207597 0
0.0454337 -0.0197126 0
0.0441592 -0.0186878 0
0.0428751 -0.0176863 0
0.0415841 -0.0167097 0
0.0402878 -0.0157609 0
0.0389879 -0.0148428 0
0.0376864 -0.0139575 0
0.0363853 -0.013107 0
0.0350871 -0.0122931 0
0.0337942 -0.0115164 0
0.0325095 -0.0107772 0
0.0312357 -0.0100756 0
0.0299758 -0.00941024 0
0.0287337 -0.00877784 0
0.0275126 -0.00817571 0
0.0263139 -0.00760375 0
0.0251376 -0.00706528 0
0.0239829 -0.0065649 0
0.0228537 -0.00609619 0
0.0217522 -0.00565563 0
0.0206795 -0.00524226 0
0.0196364 -0.00485507 0
0.0186233 -0.00449318 0
0.0176408 -0.00415577 0
0.016689 -0.00384204 0
0.0157682 -0.00355115 0
0.0148783 -0.00328218 0
0.0140192 -0.00303468 0
0.0131906 -0.00280795 0
0.0123925 -0.00260016 0
0.0116246 -0.00241012 0
0.0108864 -0.00223769 0
0.0101774 -0.00208212 0
0.00949701 -0.00194206 0
0.00884483 -0.0018163 0
0.0082202 -0.0017039 0
0.00762247 -0.00160391 0
0.00705097 -0.00151528 0
0.006505 -0.00143697 0
0.0059838 -0.00136806 0
0.00548662 -0.00130772 0
0.00501265 -0.00125519 0
0.00456114 -0.00120954 0
0.00413136 -0.00116914 0
0.00372257 -0.00113251 0
0.00333398 -0.00109853 0
0.00296466 -0.00106798 0
0.00261363 -0.0010431 0
-0.052721 -0.0445996 0
-0.0508204 -0.0440823 0
-0.0489199 -0.0435651 0
-0.0470193 -0.0430478 0
-0.0451187 -0.0425306 0
-0.0432181 -0.0420134 0
-0.0413175 -0.0414961 0
-0.039417 -0.0409789 0
-0.0375164 -0.0404616 0
-0.0356158 -0.0399444 0
-0.0337152 -0.0394271 0
-0.0318146 -0.0389099 0
-0.0299141 -0.0383927 0
-0.0280135 -0.0378754 0
-0.0261129 -0.0373582 0
-0.0242123 -0.0368409 0
-0.0223117 -0.0363237 0
-0.0204112 -0.0358065 0
-0.0185106 -0.0352892 0
-0.01661 -0.034772 0
-0.0147094 -0.0342547 0
-0.0128088 -0.0337375 0
-0.0109083 -0.0332202 0
-0.00900769 -0.032703 0
-0.00710711 -0.0321858 0
-0.00520653 -0.0316685 0
-0.00330595 -0.0311513 0
-0.00140537 -0.030634 0
0.00190689 -0.0299614 0
0.00332271 -0.0298498 0
0.00474133 -0.0297825 0
0.00616136 -0.0297597 0
0.0075814 -0.0297814 0
0.00900007 -0.0298477 0
0.010416 -0.0299583 0
0.0118278 -0.0301127 0
0.0132342 -0.0303103 0
0.0146339 -0.0305504 0
0.0160259 -0.0308322 0
0.0174091 -0.0311546 0
0.0187824 -0.0315166 0
0.020145 -0.031917 0
0.0214961 -0.0323546 0
0.0228351 -0.032828 0
0.0241613 -0.0333361 0
0.0254744 -0.0338774 0
0.0267738 -0.0344507 0
0.0280592 -0.0350545 0
0.0293306 -0.0356877 0
0.0305875 -0.0363488 0
0.0318301 -0.0370367 0
0.0330581 -0.0377501 0
0.0342717 -0.0384879 0
0.0354708 -0.0392489 0
0.0366556 -0.0400321 0
0.0378262 -0.0408363 0
0.0389828 -0.0416607 0
0.0401254 -0.0425042 0
0.0412543 -0.0433659 0
0.0423698 -0.0442451 0
0.043472 -0.0451408 0
0.0445612 -0.0460523 0
0.0456375 -0.0469789 0
0.0467013 -0.0479199 0
0.0477529 -0.0488746 0
0.0487923 -0.0498424 0
0.04982 -0.0508227 0
0.0508362 -0.051815 0
0.051841 -0.0528187 0
0.0528348 -0.0538333 0
0.0538178 -0.0548584 0
0.0547903 -0.0558935 0
0.0557524 -0.0569382 0
0.0567045 -0.0579922 0
0.0576467 -0.0590549 0
0.0585792 -0.0601261 0
0.0595024 -0.0612055 0
0.0604163 -0.0622926 0
0.0613212 -0.0633873 0
0.0622174 -0.0644891 0
0.0631049 -0.0655979 0
0.0639841 -0.0667134 0
0.064855 -0.0678353 0
0.0657179 -0.0689633 0
0.0665729 -0.0700974 0
0.0674202 -0.0712372 0
0.06826 -0.0723826 0
0.0690925 -0.0735333 0
0.0699178 -0.0746892 0
0.070736 -0.0758501 0
0.0715473 -0.0770159 0
0.0723518 -0.0781863 0
0.0731498 -0.0793612 0
0.0739412 -0.0805405 0
0.0747264 -0.081724 0
0.0755053 -0.0829116 0
0.0762781 -0.0841033 0
0.0770449 -0.0852987 0
0.0778059 -0.0864979 0
0.0785611 -0.0877007 0
0.0793108 -0.088907 0
0.0814681 -0.0912706 0
0.0828814 -0.0924245 0
0.0842946 -0.0935783 0
0.0857079 -0.0947322 0
0.0871211 -0.095886 0
0.0885344 -0.0970399 0
0.0899476 -0.0981937 0
0.0913609 -0.0993476 0
0.0927741 -0.100501 0
0.0941874 -0.101655 0
0.0956006 -0.102809 0
0.0970139 -0.103963 0
0.0984272 -0.105117 0
0.0998404 -0.106271 0
0.101254 -0.107424 0
0.102667 -0.108578 0
0.10408 -0.109732 0
0.105493 -0.110886 0
0.106907 -0.11204 0
0.10832 -0.113194 0
0.109733 -0.114348 0
0.111146 -0.115501 0
0.11256 -0.116655 0
0.113973 -0.117809 0
0.115386 -0.118963 0
0.116799 -0.120117 0
0.118213 -0.121271 0
0.119626 -0.122424 0
0.121039 -0.123578 0
0.122452 -0.124732 0
0.123866 -0.125886 0
0.125279 -0.12704 0
0.126692 -0.128194 0
0.128105 -0.129348 0
0.129519 -0.130501 0
0.130932 -0.131655 0
0.132345 -0.132809 0
0.133758 -0.133963 0
0.135172 -0.133216 0
0.135172 -0.131316 0
0.135172 -0.129415 0
0.135172 -0.127514 0
0.135172 -0.125614 0
0.135172 -0.123713 0
0.135172 -0.121813 0
0.135172 -0.119912 0
0.135172 -0.118012 0
0.135172 -0.116111 0
0.135172 -0.11421 0
0.135172 -0.11231 0
0.135172 -0.110409 0
0.135172 -0.108509 0
0.135172 -0.106608 0
0.135172 -0.104708 0
0.135172 -0.102807 0
0.135172 -0.100906 0
0.135172 -0.0990058 0
0.135172 -0.0971052 0
0.135172 -0.0952046 0
0.135172 -0.0933041 0
0.135172 -0.0914035 0
0.135172 -0.0895029 0
0.135172 -0.0876023 0
0.135172 -0.0857017 0
0.135172 -0.0838012 0
0.135172 -0.0819006 0
0.133758 -0.0788462 0
0.132345 -0.0776923 0
0.130932 -0.0765385 0
0.129519 -0.0753846 0
0.128105 -0.0742308 0
0.126692 -0.0730769 0
0.125279 -0.0719231 0
0.123866 -0.0707692 0
0.122452 -0.0696154 0
0.121039 -0.0684615 0
0.119626 -0.0673077 0
0.118213 -0.0661538 0
0.116799 -0.065 0
0.115386 -0.0638462 0
0.113973 -0.0626923 0
0.11256 -0.0615385 0
0.111146 -0.0603846 0
0.109733 -0.0592308 0
0.10832 -0.0580769 0
0.106907 -0.0569231 0
0.105493 -0.0557692 0
0.10408 -0.0546154 0
0.102667 -0.0534615 0
0.101254 -0.0523077 0
0.0998404 -0.0511538 0
0.0984272 -0.05 0
0.0970139 -0.0488462 0
0.0956006 -0.0476923 0
[...]
CELL_DATA 13116
SCALARS rho float
LOOKUP_TABLE default
0.454294
0.578316
0.329163
0.602538
0.605757
0.524652
0.336291
0.621604
0.424446
0.606158
0.33572
0.373506
0.606047
0.370747
0.337358
0.524374
0.433615
0.592021
0.566574
0.346639
0.455059
0.331545
0.386094
0.59568
0.493256
0.607454
0.606088
0.361111
0.485581
0.532776
0.534839
0.382149
0.447405
0.352409
0.332733
0.455498
0.559071
0.598549
0.528751
0.605346
0.528526
0.619904
0.342293
0.338243
0.5815
0.571764
0.569079
0.582284
0.342205
0.417148
0.615205
0.352802
0.349979
0.427371
0.446735
0.473939
0.345636
0.592867
0.427945
0.345713
0.374002
0.607074
0.573713
0.529306
0.533698
0.355697
0.551574
0.56221
0.575948
0.532887
0.335394
0.468902
0.327774
0.361288
0.537505
0.310595
0.548804
0.607823
0.343703
0.587176
0.574867
0.601068
0.596814
0.597149
0.601036
0.344786
0.351356
0.554703
0.607685
0.335149
0.395196
0.580126
0.60013
0.615976
0.539304
0.489052
0.495283
0.536117
0.536446
0.480691
0.5631
0.516718
0.538186
0.335914
0.563772
0.36626
0.273151
0.38262
0.373773
0.495101
0.408867
0.587952
0.486787
0.57646
0.588145
0.565386
0.358143
0.3046
0.606918
0.589411
0.561678
0.326395
0.578863
0.393103
0.616417
0.344573
0.35148
0.403398
0.366532
0.418114
0.606696
0.595909
0.393386
0.338753
0.376025
0.489042
0.543133
0.599016
0.561836
0.592093
0.534054
0.571917
0.402656
0.536028
0.561194
0.373686
0.330781
0.596805
0.602824
0.616402
0.430519
0.594477
0.579853
0.315141
0.603784
0.601361
0.389958
0.570246
0.535965
0.554267
0.594608
0.336851
0.596325
0.387416
0.321425
0.609092
0.612984
0.591275
0.333777
0.359727
0.32602
0.54289
0.340316
0.389684
0.561031
0.388684
0.329823
0.329231
0.584382
0.525296
0.339274
0.337943
0.428005
0.558514
0.524802
0.426597
0.326618
0.531073
0.560787
0.361704
0.536322
0.594834
0.532002
0.394953
0.584701
0.525229
0.602691
0.536579
0.606587
0.3057
0.336029
0.500578
0.398597
0.370664
0.600583
0.598111
0.360866
0.497619
0.351343
0.33188
0.312174
0.526758
0.391736
0.341986
0.331397
0.314964
0.286764
0.528432
0.615079
0.333372
0.344318
0.546521
0.403337
0.339581
0.438819
0.606578
0.558802
0.36571
0.555783
0.298445
0.626785
0.386022
0.532472
0.459156
0.536893
0.606913
0.531365
0.356059
0.340821
0.552955
0.538397
0.525566
0.542223
0.530912
0.623298
0.330896
0.610148
0.60492
0.53619
0.328643
0.343185
0.595269
0.605824
0.533288
0.603467
0.443848
0.576077
0.335705
0.370744
0.30541
0.35137
0.549961
0.602338
0.548218
0.348509
0.588274
0.344169
0.334108
0.565347
0.32274
0.602752
0.615798
0.539373
0.592654
0.353022
0.539616
0.580399
0.536103
0.597367
0.345353
0.348854
0.395138
0.485249
0.326626
0.340088
0.252716
0.354696
0.596056
0.347541
0.606649
0.608792
0.340808
0.344291
0.343337
0.353215
0.341047
0.553649
0.504153
0.577293
0.323364
0.529023
0.467229
0.377412
0.34564
0.527493
0.605697
0.531795
0.326636
0.524817
0.336524
0.595989
0.618073
0.613252
0.617945
0.395518
0.548428
0.344205
0.523286
0.606455
0.551229
0.343988
0.252462
0.605598
0.346855
0.585546
0.607309
0.299629
0.577245
0.596304
0.344404
0.592112
0.599945
0.355543
0.608607
0.346006
0.456248
0.629266
0.351649
0.571079
0.348436
0.592566
0.261496
0.529976
0.522646
0.604132
0.368867
0.275042
0.601277
0.316174
0.602105
0.567671
0.330904
0.542942
0.318418
0.321908
0.603695
0.440075
0.562121
0.34903
0.389686
0.609745
0.608551
0.33154
0.611572
0.3633
0.366874
0.580333
0.626745
0.376848
0.333326
0.60002
0.534264
0.524441
0.596
0.596112
0.431138
0.311569
0.34692
0.340383
0.524827
0.341078
0.426705
0.284544
0.392534
0.270473
0.385151
0.10652
0.316855
0.600237
0.367837
0.597494
0.486312
0.556797
0.545409
0.61048
0.322252
0.347803
0.312287
0.327082
0.601282
0.483432
0.53951
0.486596
0.562074
0.50943
0.598839
0.522844
0.530286
0.596041
0.586128
0.52605
0.311423
0.366179
0.451283
0.329518
0.501191
0.473152
0.350243
0.561006
0.539123
0.39689
0.345774
0.341381
0.32804
0.508802
0.32756
0.395087
0.534911
0.351419
0.45954
0.339938
0.523724
0.579801
0.352521
0.337593
0.603091
0.353909
0.340251
0.32952
0.331145
0.374637
0.346644
0.345556
0.333905
0.3342
0.33755
0.514246
0.315623
0.604661
0.282331
0.385503
0.394176
0.367995
0.33446
0.370898
0.593331
0.340886
0.520158
0.387712
0.350152
0.500249
0.608457
0.344088
0.576546
0.51283
0.512593
0.345102
0.536747
0.30449
0.595496
0.535326
0.388611
0.341134
0.557941
0.326021
0.352805
0.525903
0.273461
0.568929
0.565704
0.343367
0.328775
0.337087
0.386172
0.34285
0.352015
0.337732
0.344274
0.609008
0.606689
0.358573
0.483497
0.375653
0.581214
0.275925
0.321987
0.427897
0.388053
0.601124
0.227355
0.286651
0.389471
0.583769
0.610043
0.445692
0.29245
0.341139
0.451951
0.620833
0.532015
0.448777
0.561731
0.547599
0.339223
0.57871
0.455278
0.5513
0.35758
0.33664
0.575361
0.602846
0.543718
0.606668
0.600156
0.612136
0.593028
0.550371
0.551831
0.332168
0.589081
0.259076
0.352593
0.340465
0.602232
0.597952
0.331768
0.60198
0.500411
0.343238
0.530098
0.60468
0.591165
0.36056
0.321571
0.606105
0.339825
0.339607
0.363176
0.339333
0.598383
0.352281
0.601171
0.315596
0.577549
0.614018
0.55872
0.60766
0.339673
0.343015
0.599608
0.626436
0.554454
0.609151
0.604564
0.389057
0.344163
0.382723
0.523636
0.424313
0.341967
0.35362
0.393786
0.622092
0.53884
0.357706
0.331643
0.60285
0.360108
0.598561
0.540082
0.364639
0.29955
0.551292
0.538892
0.384296
0.607966
0.613818
0.597783
0.314814
0.542129
0.350964
0.537266
0.549896
0.333671
0.287012
0.339227
0.536743
0.367465
0.343939
0.305014
0.529198
0.593015
0.344906
0.368039
0.338178
0.529719
0.327998
0.525329
0.373257
0.472075
0.606521
0.285337
0.38595
0.386477
0.3894
0.379754
0.608212
0.324316
0.323636
0.52517
0.337263
0.525157
0.581163
0.536656
0.337913
0.601423
0.599382
0.602389
0.523926
0.625913
0.576645
0.376228
0.53252
0.335371
0.59761
0.346031
0.622547
0.405027
0.33414
0.534069
0.600208
0.319133
0.523273
0.394364
0.333358
0.531059
0.592886
0.396458
0.374581
0.343449
0.373012
0.623823
0.5959
0.314971
0.341858
0.601445
0.599196
0.474031
0.598947
0.531891
0.337244
0.604372
0.331649
0.614533
0.30806
0.484132
0.37657
0.544052
0.563625
0.461114
0.280061
0.369435
0.546149
0.485298
0.430121
0.598291
0.349926
0.581273
0.603307
0.279367
0.364339
0.600302
0.314549
0.53331
0.554001
0.248947
0.602149
0.53736
0.313642
0.590244
0.394749
0.602163
0.317814
0.525354
0.572619
0.375868
0.529027
0.596982
0.60488
0.501838
0.584032
0.466023
0.345121
0.337041
0.312384
0.365291
0.544312
0.441613
0.5856
0.602442
0.338534
0.330874
0.588863
0.606732
0.602819
0.61636
0.3457
0.58614
0.605078
0.346012
0.330932
0.60676
0.593742
0.602163
0.357306
0.472419
0.356336
0.588267
0.582013
0.531731
0.5887
0.341154
0.592996
0.606585
0.598761
0.596731
0.524002
0.331364
0.596091
0.331172
0.544817
0.6056
0.359478
0.566351
0.531261
0.613952
0.333852
0.324869
0.467364
0.535694
0.339724
0.334384
0.320258
0.336608
0.577532
0.580696
0.531044
0.354704
0.338288
0.57298
0.569456
0.356347
0.332839
0.361654
0.562026
0.539119
0.597419
0.586944
0.331993
0.340155
0.541482
0.390783
0.341229
0.318638
0.522638
0.356852
0.338592
0.46768
0.599246
0.582951
0.526979
0.525524
0.358042
0.336887
0.323192
0.389663
0.340065
0.389444
0.561397
0.585195
0.596445
0.53671
0.362278
0.337782
0.606467
0.339631
0.523288
0.57296
0.53514
0.396476
0.331773
0.598217
0.534328
0.469041
0.355467
0.599885
0.526223
0.464274
0.615283
0.618624
0.540674
0.560452
0.345778
0.524513
0.533487
0.52562
0.587808
0.544269
0.588356
0.540565
0.593031
0.32424
0.323742
0.33925
0.534387
0.40474
0.340498
0.589488
0.600847
0.374442
0.529393
0.355791
0.53714
0.381494
0.349615
0.606581
0.594785
0.341384
0.437053
0.534234
0.36605
0.61511
0.363867
0.364223
0.505935
0.491704
0.394158
0.542674
0.31951
0.596382
0.326898
0.349579
0.524244
0.341876
0.492573
0.39463
0.529654
0.484908
0.54089
0.610935
0.344733
0.324011
0.531051
0.345134
0.602204
0.361221
0.482858
0.524405
0.598333
0.356341
0.492551
0.584181
0.603191
0.568372
0.263991
0.337959
0.429078
0.585095
0.603583
0.28946
0.536603
0.470266
0.311673
0.394957
0.553083
0.562128
0.541628
0.537109
0.526475
0.579269
0.528305
0.567797
0.393587
0.54233
0.359729
0.607579
0.592743
0.36053
0.633744
0.606891
0.32139
0.353194
0.345082
0.544138
0.337181
0.504892
0.593091
0.543194
0.372377
0.598703
0.375227
0.472172
0.529919
0.531796
0.559503
0.529794
0.502555
0.573774
0.422808
0.597435
0.319556
0.522909
0.554096
0.329161
0.539512
0.583359
0.395768
0.346766
0.363219
0.613651
0.336658
0.539654
0.323124
0.622131
0.340827
0.376943
0.384973
0.594663
0.61517
0.442463
0.357008
0.503238
0.528043
0.331186
0.473592
0.605895
0.386134
0.47577
0.535247
0.6065
0.524681
0.392695
0.380328
0.60289
0.568175
0.545524
0.335225
0.32068
0.598273
0.542205
0.539056
0.542732
0.448747
0.596166
0.444073
0.601801
0.335662
0.374204
0.542439
0.605325
0.528873
0.358201
0.522973
0.457692
0.495658
0.311544
0.320948
0.611251
0.612393
0.445015
0.315037
0.541569
0.538865
0.335005
0.493657
0.586616
0.334283
0.379869
0.343521
0.566809
0.331224
0.334801
0.594229
0.368416
0.604093
0.534945
0.334546
0.344898
0.610644
0.320939
0.326949
0.534312
0.371883
0.276636
0.479307
0.625792
0.600861
0.33594
0.355897
0.332392
0.581818
0.366605
0.601437
0.332936
0.591536
0.619087
0.586607
0.569926
0.589652
0.580335
0.532879
0.607543
0.603738
0.352106
0.32731
0.582199
0.528177
0.398965
0.571785
0.448601
0.528943
0.524596
0.352048
0.581993
0.606466
0.597577
0.326948
0.593033
0.315569
0.598023
0.391682
0.58836
0.525848
0.349571
0.599961
0.3395
0.339533
0.573592
0.318515
0.570835
0.544177
0.624268
0.323522
0.531404
0.335258
0.399706
0.39163
0.330343
0.521534
0.342248
0.535823
0.530675
0.319713
0.394576
0.383445
0.464798
0.520061
0.551732
0.336432
0.351011
0.331779
0.384842
0.360059
0.521521
0.59356
0.358149
0.529996
0.592845
0.343431
0.605697
0.568204
0.530298
0.3261
0.537583
0.582661
0.597315
0.611048
0.340897
0.600741
0.600121
0.593498
0.553029
0.525656
0.343489
0.392209
0.592365
0.427068
0.331319
0.523822
0.393771
0.455981
0.519703
0.600386
0.602656
0.395897
0.569659
0.304552
0.3254
0.579323
0.604115
0.601067
0.609169
0.552336
0.401282
0.606806
0.348206
0.398067
0.609246
0.536671
0.602686
0.327504
0.373515
0.605461
0.366134
0.605844
0.530841
0.335822
0.342142
0.588023
0.39506
0.52516
0.605314
0.553718
0.39504
0.323405
0.399528
0.417508
0.510274
0.37233
0.524272
0.553353
0.605094
0.544665
0.591305
0.342789
0.34089
0.607482
0.525771
0.540717
0.359373
0.369013
0.575787
0.340933
0.534524
0.496783
0.312688
0.600804
0.34053
0.61996
0.324103
0.603118
0.351107
0.600318
0.526114
0.343542
0.616576
0.535469
0.298689
0.531136
0.562907
0.447585
0.368097
0.281731
0.367081
0.600092
0.535593
0.328407
0.468414
0.593151
0.525407
0.372583
0.505557
0.592271
0.359817
0.524337
0.523323
0.365723
0.602877
0.535585
0.327567
0.48891
0.329089
0.537103
0.318007
0.364432
0.602258
0.330741
0.336654
0.344235
0.542322
0.584293
0.318736
0.547405
0.280791
0.567765
0.335402
0.58615
0.287048
0.523822
0.591218
0.546675
0.531583
0.440255
0.52628
0.530231
0.349804
0.519848
0.549721
0.401562
0.591005
0.388707
0.332318
0.606648
0.335825
0.458823
0.356027
0.536407
0.354861
0.395062
0.594737
0.527879
0.344004
0.603114
0.584754
0.544184
0.617002
0.537277
0.344988
0.605838
0.342183
0.390717
0.611843
0.588725
0.620628
0.603451
0.38729
0.31715
0.331988
0.581369
0.530873
0.281069
0.627896
0.358934
0.31931
0.31025
0.607413
0.30733
0.607152
0.603524
0.518212
0.594765
0.603207
0.466897
0.544379
0.338469
0.352211
0.342568
0.537285
0.537844
0.360864
0.521523
0.563982
0.543947
0.391951
0.328917
0.556468
0.216169
0.548903
0.508055
0.341465
0.527599
0.579322
0.340082
0.600475
0.327613
0.582413
0.605401
0.590804
0.34328
0.368418
0.569383
0.344158
0.345661
0.585607
0.355951
0.526879
0.562552
0.600838
0.584798
0.306007
0.534528
0.578569
0.565289
0.279378
0.610675
0.328953
0.364349
0.599739
0.537797
0.530469
0.183136
0.526115
0.518367
0.53762
0.352291
0.363113
0.33936
0.605418
0.33603
0.335703
0.313078
0.506533
0.331035
0.359905
0.344251
0.601996
0.340684
0.531405
0.529234
0.599574
0.323995
0.597323
0.542027
0.530199
0.322423
0.550897
0.3301
0.336378
0.528841
0.344442
0.52084
0.590273
0.541275
0.341054
0.252218
0.319292
0.447783
0.542397
0.180822
0.598163
0.537656
0.586963
0.333459
0.347908
0.264485
0.540031
0.341027
0.544698
0.489349
0.52843
0.5966
0.343026
0.524152
0.379303
0.490932
0.532772
0.606819
0.487103
0.398692
0.552196
0.544486
0.608079
0.330831
0.279758
0.349944
0.587428
0.428809
0.536573
0.340432
0.312043
0.595023
0.599321
0.532485
0.343488
0.603427
0.446419
0.449547
0.538235
0.380393
0.344411
0.366476
0.542901
0.530867
0.551277
0.57867
0.263274
0.625769
0.544306
0.530732
0.530717
0.623475
0.606618
0.525579
0.588774
0.599957
0.388242
0.59733
0.610022
0.523365
0.604003
0.541436
0.484619
0.342852
0.369813
0.531001
0.332133
0.309526
0.607001
0.330725
0.520687
0.568902
0.578443
0.597789
0.39782
0.608735
0.388171
0.371118
0.524978
0.59681
0.540173
0.324502
0.612389
0.544162
0.534435
0.528303
0.330129
0.52409
0.605674
0.577078
0.306683
0.592219
0.332782
0.604121
0.314276
0.342193
0.438341
0.352118
0.606485
0.594616
0.523127
0.312891
0.524697
0.320931
0.334466
0.601325
0.386253
0.334379
0.529402
0.370043
0.406666
0.558726
0.563743
0.599223
0.385695
0.480292
0.546082
0.523082
0.483231
0.601431
0.42605
0.632624
0.57628
0.537077
0.361911
0.340619
0.351015
0.609009
0.395487
0.55241
0.605455
0.493423
0.523407
0.430345
0.5712
0.569539
0.327981
0.59918
0.564448
0.407837
0.565891
0.606062
0.608587
0.526989
0.332333
0.325716
0.597373
0.432181
0.447428
0.596309
0.599674
0.549212
0.60297
0.60488
0.511041
0.552181
0.606558
0.338738
0.371608
0.35619
0.318825
0.539442
0.36173
0.441222
0.600772
0.574741
0.388934
0.598631
0.600361
0.325772
0.291651
0.539001
0.599194
0.379715
0.362848
0.36293
0.544676
0.605823
0.310991
0.340933
0.343025
0.368712
0.335918
0.33244
0.629015
0.588284
0.585814
0.325705
0.579865
0.501642
0.493885
0.343918
0.346746
0.600962
0.542809
0.339352
0.523925
0.339686
0.594531
0.388238
0.602123
0.337712
0.596707
0.611506
0.323704
0.450936
0.350241
0.606003
0.374635
0.50621
0.392473
0.405521
0.328779
0.49909
0.331323
0.532122
0.531829
0.49231
0.58878
0.343326
0.587344
0.527852
0.61197
0.498789
0.568251
0.34678
0.333704
0.356421
0.600151
0.224428
0.606687
0.437352
0.588116
0.606609
0.375658
0.596527
0.333587
0.368332
0.337022
0.408059
0.438768
0.599606
0.325385
0.339817
0.523113
0.292685
0.394865
0.467722
0.291295
0.338965
0.369619
0.62033
0.539053
0.510404
0.379119
0.583877
0.545537
0.358227
0.248765
0.605124
0.523676
0.492259
0.409838
0.319105
0.278411
0.315498
0.622348
0.529989
0.422745
0.576705
0.349843
0.464319
0.340543
0.533817
0.608051
0.345174
0.365968
0.53638
0.461823
0.608475
0.600329
0.601159
0.610098
0.608401
0.31452
0.329771
0.350323
0.344875
0.448897
0.535118
0.540889
0.34517
0.33925
0.358589
0.380035
0.555054
0.561572
0.333928
0.352986
0.563189
0.38124
0.545404
0.596908
0.584636
0.525209
0.456569
0.33829
0.34081
0.548327
0.344502
0.338025
0.313203
0.527749
0.574644
0.373067
0.342222
0.542786
0.330189
0.541914
0.600247
0.339291
0.321667
0.343377
0.569449
0.359435
0.544251
0.587198
0.495441
0.361524
0.422937
0.606643
0.599339
0.339717
0.597001
0.531768
0.410193
0.606185
0.625894
0.329401
0.330836
0.597937
0.32965
0.346322
0.590874
0.266215
0.588923
0.57101
0.598745
0.534664
0.605078
0.559714
0.527016
0.334125
0.317887
0.547411
0.598054
0.36827
0.605966
0.346446
0.590939
0.600582
0.461521
0.539184
0.332794
0.358816
0.598716
0.603793
0.573091
0.611997
0.540029
0.540508
0.618379
0.543619
0.624713
0.603269
0.62161
0.542356
0.52651
0.292215
0.602644
0.348735
0.585583
0.59447
0.591807
0.578083
0.583311
0.321128
0.316624
0.327653
0.340059
0.580995
0.343621
0.325535
0.577171
0.357651
0.58789
0.316064
0.592577
0.601465
0.331367
0.295318
0.312184
0.60592
0.364178
0.599119
0.599194
0.318512
0.598978
0.446541
0.275453
0.365485
0.350736
0.58156
0.330773
0.599354
0.42771
0.349896
0.552793
0.52998
0.60092
0.339942
0.469715
0.391898
0.581371
0.527164
0.572116
0.337462
0.596945
0.596357
0.579061
0.322811
0.605739
0.339133
0.337642
0.60632
0.357408
0.605365
0.339003
0.338122
0.34708
0.581972
0.365089
0.251112
0.31435
0.391344
0.536798
0.601184
0.360868
0.495833
0.557573
0.448652
0.336552
0.327341
0.448428
0.338282
0.342361
0.591894
0.338169
0.340604
0.614317
0.607868
0.323581
0.589867
0.311822
0.539497
0.358499
0.60428
0.532749
0.585113
0.528388
0.327108
0.340225
0.395361
0.525728
0.600973
0.478093
0.435809
0.287098
0.234228
0.522832
0.334501
0.588573
0.295864
0.532187
0.563964
0.336117
0.340928
0.340277
0.342212
0.346321
0.536711
0.580925
0.338242
0.599008
0.529291
0.349454
0.339904
0.6049
0.333317
0.602372
0.332191
0.585392
0.545022
0.596177
0.536164
0.329498
0.604823
0.589883
0.619428
0.330944
0.538575
0.484773
0.312701
0.608241
0.545058
0.634843
0.586391
0.608009
0.608689
0.617321
0.522962
0.559565
0.336659
0.599163
0.340637
0.366348
0.58752
0.39528
0.598529
0.550249
0.340925
0.577854
0.331326
0.3968
0.611294
0.535999
0.608324
0.333543
0.587043
0.505468
0.356351
0.330144
0.613854
0.540981
0.292817
0.312628
0.591429
0.6066
0.33314
0.533665
0.610079
0.541477
0.340447
0.339285
0.391827
0.546018
0.350519
0.596828
0.587047
0.522972
0.50431
0.60292
0.331992
0.604035
0.501397
0.611442
0.485064
0.391987
0.335963
0.358093
0.595776
0.601362
0.32975
0.542883
0.355396
0.548836
0.585958
0.350986
0.529566
0.597308
0.514707
0.325259
0.348686
0.320217
0.605182
0.605388
0.503271
0.409387
0.602358
0.339609
0.52318
0.538771
0.596492
0.324202
0.511021
0.341223
0.560783
0.364514
0.599832
0.613112
0.376955
0.606113
0.345788
0.542538
0.535898
0.544735
0.612043
0.3361
0.523518
0.531474
0.570843
0.599624
0.380973
0.539071
0.348254
0.537793
0.354786
0.340962
0.357295
0.345278
0.339007
0.329439
0.609917
0.281582
0.335233
0.552971
0.606615
0.583394
0.315343
0.579648
0.575537
0.526051
0.338639
0.492963
0.556968
0.326266
0.313037
0.338933
0.519486
0.404014
0.339041
0.493495
0.361946
0.536528
0.39797
0.352454
0.373229
0.539825
0.314802
0.542096
0.346931
0.391885
0.291916
0.621378
0.303626
0.550954
0.538358
0.552057
0.334555
0.343792
0.623807
0.607034
0.313331
0.399698
0.524626
0.342515
0.59142
0.32655
0.449402
0.357916
0.55496
0.329187
0.608918
0.340826
0.587667
0.603379
0.605182
0.539727
0.346553
0.391444
0.311974
0.60972
0.57617
0.580866
0.442237
0.337844
0.595147
0.322404
0.598618
0.520685
0.333569
0.344725
0.597718
0.598968
0.391132
0.534077
0.627591
0.599208
0.598847
0.347616
0.525336
0.339186
0.600245
0.355248
0.529811
0.597592
0.62758
0.610448
0.349951
0.606701
0.331658
0.324561
0.537737
0.539267
0.444758
0.598938
0.53966
0.335835
0.592973
0.619824
0.61867
0.398481
0.337467
0.573782
0.344079
0.596092
0.608587
0.598977
0.620431
0.222475
0.356335
0.537086
0.381496
0.601782
0.605119
0.378232
0.611358
0.371365
0.549291
0.593538
0.566348
0.615569
0.349483
0.395679
0.600109
0.596232
0.338215
0.347305
0.327814
0.384951
0.335854
0.355927
0.348736
0.331953
0.600705
0.352407
0.336671
0.590364
0.443622
0.54257
0.310435
0.341098
0.565382
0.371773
0.392845
0.604
0.291294
0.54681
0.531682
0.495366
0.58643
0.361457
0.601843
0.529341
0.319235
0.337887
0.333356
0.547426
0.495147
0.607421
0.523689
0.596835
0.588258
0.276931
0.604378
0.528799
0.619626
0.342231
0.564249
0.503075
0.273802
0.340288
0.347487
0.386547
0.340582
0.482976
0.560082
0.582776
0.342648
0.301399
0.61099
0.368905
0.597139
0.534445
0.599468
0.566454
0.599192
0.326019
0.389093
0.364743
0.465876
0.354876
0.577178
0.360188
0.53084
0.524425
0.594952
0.322184
0.356221
0.332383
0.603446
0.310989
0.339143
0.608662
0.586972
0.524201
0.524365
0.614301
0.590859
0.33712
0.509534
0.603503
0.423745
0.602702
0.597254
0.593855
0.359854
0.332517
0.618807
0.39462
0.5111
0.335827
0.567
0.599893
0.306426
0.350331
0.577984
0.407685
0.603344
0.596455
0.33164
0.345943
0.535436
0.307708
0.321867
0.601213
0.613351
0.343448
0.597
0.535685
0.5785
0.338556
0.483583
0.338988
0.601011
0.608215
0.591067
0.578971
0.534878
0.356901
0.294298
0.589924
0.332535
0.493716
0.348303
0.599905
0.368377
0.54107
0.6028
0.535641
0.337101
0.544346
0.537706
0.341176
0.566177
0.347515
0.6189
0.337852
0.339694
0.36134
0.579424
0.582123
0.249568
0.364198
0.598531