# vtk DataFile Version 1.0
unstructured grid
ascii
DATASET UNSTRUCTURED_GRID
points 13672 float
0.0796578 -0.059106 0
0.00128732 0.00159165 0
0.00227961 -0.00102548 0
0.0791586 -0.0598787 0
-0.0546216 0.01 0
0.000495206 0.025 0
0.0800549 -0.035 0
0.135172 -0.08 0
-0.0546216 -0.0451168 0
0.000495206 -0.0301168 0
0.0800549 -0.0901168 0
0.135172 -0.135117 0
-0.0546216 -0.0451168 -0.00551168
0.000495206 -0.0301168 -0.00551168
0.0800549 -0.0901168 -0.00551168
0.135172 -0.135117 -0.00551168
0.135172 -0.08 -0.00551168
0.0800549 -0.035 -0.00551168
0.000495206 0.025 -0.00551168
-0.0546216 0.01 -0.00551168
0.00128732 0.00159165 -0.00551168
0.00227961 -0.00102548 -0.00551168
0.0791586 -0.0598787 -0.00551168
0.0796578 -0.059106 -0.00551168
0.00165953 -0.000990923 0
0.00119576 -0.000874076 0
0.000866021 -0.000641801 0
0.000645147 -0.000349912 0
0.00052235 -1.7281e-05 0
0.00049972 0.000348016 0
0.000601632 0.000737716 0
0.000861774 0.0011403 0
0.00157235 0.00183217 0
0.00188647 0.00206725 0
0.00222612 0.00230203 0
0.00258713 0.00254351 0
0.00296826 0.00279524 0
0.00337118 0.00305664 0
0.00379785 0.00332658 0
0.00425045 0.00360349 0
0.00473139 0.00388521 0
0.0052432 0.00416895 0
0.0057881 0.00445204 0
0.00636753 0.00473281 0
0.00698281 0.00500961 0
0.00763526 0.00528058 0
0.00832616 0.00554366 0
0.00905691 0.00579603 0
0.00982918 0.00603333 0
0.0106445 0.00625033 0
0.0115038 0.00644128 0
0.0124073 0.00660297 0
0.0133543 0.00673414 0
0.0143444 0.00683382 0
0.0153769 0.00690031 0
0.0164512 0.00693173 0
0.0175666 0.00692547 0
0.0187219 0.00687822 0
0.0199156 0.00678477 0
0.0211454 0.00663864 0
0.0224084 0.00643275 0
0.0237018 0.00616676 0
0.0250249 0.00584739 0
0.026375 0.00547298 0
0.0277479 0.00503752 0
0.0291386 0.00453545 0
0.0305433 0.0039653 0
0.0319572 0.0033256 0
0.0333681 0.00260019 0
0.034775 0.00179799 0
0.0361793 0.000930615 0
0.0375798 3.12222e-06 0
0.0389689 -0.000988429 0
0.0403357 -0.00205109 0
0.041675 -0.00318283 0
0.0429849 -0.00437751 0
0.0442643 -0.00562904 0
0.0455126 -0.00693089 0
0.0467314 -0.00827518 0
0.0479204 -0.00965638 0
0.0490661 -0.0110799 0
0.0501515 -0.0125519 0
0.0511696 -0.0140695 0
0.0521492 -0.0156071 0
0.0531202 -0.0171411 0
0.0540851 -0.0186663 0
0.0550431 -0.0201798 0
0.0559923 -0.0216793 0
0.0569311 -0.0231626 0
0.0578582 -0.0246273 0
0.0587723 -0.0260715 0
0.0596721 -0.027493 0
0.0605563 -0.02889 0
0.0614241 -0.0302609 0
0.0622742 -0.0316042 0
0.063106 -0.0329183 0
0.0639186 -0.034202 0
0.0647113 -0.0354543 0
0.0654835 -0.0366743 0
0.0662345 -0.0378613 0
0.0669642 -0.0390145 0
0.0676726 -0.0401333 0
0.0683597 -0.0412172 0
0.0690246 -0.0422665 0
0.0696662 -0.0432819 0
0.0702841 -0.0442636 0
0.0708793 -0.0452111 0
0.0714538 -0.0461237 0
0.072009 -0.047001 0
0.0725452 -0.0478434 0
0.0730611 -0.0486524 0
0.073556 -0.0494294 0
0.0740291 -0.0501756 0
0.0744812 -0.0508916 0
0.0749138 -0.0515773 0
0.0753285 -0.0522331 0
0.0757266 -0.0528592 0
0.076109 -0.0534564 0
0.0764753 -0.0540264 0
0.0768243 -0.054571 0
0.0771553 -0.0550919 0
0.0774679 -0.0555901 0
0.0777617 -0.0560669 0
0.0780369 -0.056523 0
0.0782958 -0.0569578 0
0.0785421 -0.0573703 0
0.0787786 -0.0577603 0
0.0790073 -0.0581279 0
0.0792295 -0.058474 0
0.0794462 -0.0587995 0
0.0798803 -0.0594162 0
0.0800272 -0.0596588 0
0.0800357 -0.0598891 0
0.0799275 -0.0600784 0
0.0797205 -0.0601773 0
0.0794593 -0.0601051 0
0.0789155 -0.0596491 0
0.0786707 -0.0593963 0
0.0784111 -0.0591319 0
0.0781372 -0.0588542 0
0.0778566 -0.0585548 0
0.0775715 -0.0582308 0
0.0772803 -0.0578828 0
0.0769832 -0.0575099 0
0.0766822 -0.0571097 0
0.0763801 -0.0566796 0
0.0760759 -0.0562196 0
0.0757623 -0.0557337 0
0.0754359 -0.0552232 0
0.0750951 -0.0546879 0
0.0747379 -0.054128 0
0.0743626 -0.0535435 0
0.0739688 -0.0529338 0
0.0735559 -0.0522981 0
0.0731238 -0.0516357 0
0.0726718 -0.050946 0
0.0721991 -0.0502288 0
0.0717046 -0.049484 0
0.0711872 -0.0487117 0
0.0706461 -0.047912 0
0.0700804 -0.0470849 0
0.0694892 -0.0462308 0
0.0688718 -0.0453499 0
0.0682271 -0.0444431 0
0.0675544 -0.043511 0
0.0668527 -0.0425546 0
0.0661215 -0.0415748 0
0.06536 -0.040573 0
0.0645676 -0.0395504 0
0.0637439 -0.0385087 0
0.0628887 -0.0374493 0
0.062002 -0.0363741 0
0.0610838 -0.0352847 0
0.0601345 -0.0341831 0
0.0591547 -0.033071 0
0.0581456 -0.0319502 0
0.0571083 -0.0308224 0
0.0560444 -0.0296893 0
0.0549562 -0.028552 0
0.053845 -0.0274126 0
0.0527113 -0.0262746 0
0.051554 -0.0251427 0
0.0503724 -0.0240222 0
0.0491675 -0.0229164 0
0.047941 -0.0218282 0
0.0466955 -0.0207597 0
0.0454337 -0.0197126 0
0.0441592 -0.0186878 0
0.0428751 -0.0176863 0
0.0415841 -0.0167097 0
0.0402878 -0.0157609 0
0.0389879 -0.0148428 0
0.0376864 -0.0139575 0
0.0363853 -0.013107 0
0.0350871 -0.0122931 0
0.0337942 -0.0115164 0
0.0325095 -0.0107772 0
0.0312357 -0.0100756 0
0.0299758 -0.00941024 0
0.0287337 -0.00877784 0
0.0275126 -0.00817571 0
0.0263139 -0.00760375 0
0.0251376 -0.00706528 0
0.0239829 -0.0065649 0
0.0228537 -0.00609619 0
0.0217522 -0.00565563 0
0.0206795 -0.00524226 0
0.0196364 -0.00485507 0
0.0186233 -0.00449318 0
0.0176408 -0.00415577 0
0.016689 -0.00384204 0
0.0157682 -0.00355115 0
0.0148783 -0.00328218 0
0.0140192 -0.00303468 0
0.0131906 -0.00280795 0
0.0123925 -0.00260016 0
0.0116246 -0.00241012 0
0.0108864 -0.00223769 0
0.0101774 -0.00208212 0
0.00949701 -0.00194206 0
0.00884483 -0.0018163 0
0.0082202 -0.0017039 0
0.00762247 -0.00160391 0
0.00705097 -0.00151528 0
0.006505 -0.00143697 0
0.0059838 -0.00136806 0
0.00548662 -0.00130772 0
0.00501265 -0.00125519 0
0.00456114 -0.00120954 0
0.00413136 -0.00116914 0
0.00372257 -0.00113251 0
0.00333398 -0.00109853 0
0.00296466 -0.00106798 0
0.00261363 -0.0010431 0
-0.052721 -0.0445996 0
-0.0508204 -0.0440823 0
-0.0489199 -0.0435651 0
-0.0470193 -0.0430478 0
-0.0451187 -0.0425306 0
-0.0432181 -0.0420134 0
-0.0413175 -0.0414961 0
-0.039417 -0.0409789 0
-0.0375164 -0.0404616 0
-0.0356158 -0.0399444 0
-0.0337152 -0.0394271 0
-0.0318146 -0.0389099 0
-0.0299141 -0.0383927 0
-0.0280135 -0.0378754 0
-0.0261129 -0.0373582 0
-0.0242123 -0.0368409 0
-0.0223117 -0.0363237 0
-0.0204112 -0.0358065 0
-0.0185106 -0.0352892 0
-0.01661 -0.034772 0
-0.0147094 -0.0342547 0
-0.0128088 -0.0337375 0
-0.0109083 -0.0332202 0
-0.00900769 -0.032703 0
-0.00710711 -0.0321858 0
-0.00520653 -0.0316685 0
-0.00330595 -0.0311513 0
-0.00140537 -0.030634 0
0.00190689 -0.0299614 0
0.00332271 -0.0298498 0
0.00474133 -0.0297825 0
0.00616136 -0.0297597 0
0.0075814 -0.0297814 0
0.00900007 -0.0298477 0
0.010416 -0.0299583 0
0.0118278 -0.0301127 0
0.0132342 -0.0303103 0
0.0146339 -0.0305504 0
0.0160259 -0.0308322 0
0.0174091 -0.0311546 0
0.0187824 -0.0315166 0
0.020145 -0.031917 0
0.0214961 -0.0323546 0
0.0228351 -0.032828 0
0.0241613 -0.0333361 0
0.0254744 -0.0338774 0
0.0267738 -0.0344507 0
0.0280592 -0.0350545 0
0.0293306 -0.0356877 0
0.0305875 -0.0363488 0
0.0318301 -0.0370367 0
0.0330581 -0.0377501 0
0.0342717 -0.0384879 0
0.0354708 -0.0392489 0
0.0366556 -0.0400321 0
0.0378262 -0.0408363 0
0.0389828 -0.0416607 0
0.0401254 -0.0425042 0
0.0412543 -0.0433659 0
0.0423698 -0.0442451 0
0.043472 -0.0451408 0
0.0445612 -0.0460523 0
0.0456375 -0.0469789 0
0.0467013 -0.0479199 0
0.0477529 -0.0488746 0
0.0487923 -0.0498424 0
0.04982 -0.0508227 0
0.0508362 -0.051815 0
0.051841 -0.0528187 0
0.0528348 -0.0538333 0
0.0538178 -0.0548584 0
0.0547903 -0.0558935 0
0.0557524 -0.0569382 0
0.0567045 -0.0579922 0
0.0576467 -0.0590549 0
0.0585792 -0.0601261 0
0.0595024 -0.0612055 0
0.0604163 -0.0622926 0
0.0613212 -0.0633873 0
0.0622174 -0.0644891 0
0.0631049 -0.0655979 0
0.0639841 -0.0667134 0
0.064855 -0.0678353 0
0.0657179 -0.0689633 0
0.0665729 -0.0700974 0
0.0674202 -0.0712372 0
0.06826 -0.0723826 0
0.0690925 -0.0735333 0
0.0699178 -0.0746892 0
0.070736 -0.0758501 0
0.0715473 -0.0770159 0
0.0723518 -0.0781863 0
0.0731498 -0.0793612 0
0.0739412 -0.0805405 0
0.0747264 -0.081724 0
0.0755053 -0.0829116 0
0.0762781 -0.0841033 0
0.0770449 -0.0852987 0
0.0778059 -0.0864979 0
0.0785611 -0.0877007 0
0.0793108 -0.088907 0
0.0814681 -0.0912706 0
0.0828814 -0.0924245 0
0.0842946 -0.0935783 0
0.0857079 -0.0947322 0
0.0871211 -0.095886 0
0.0885344 -0.0970399 0
0.0899476 -0.0981937 0
0.0913609 -0.0993476 0
0.0927741 -0.100501 0
0.0941874 -0.101655 0
0.0956006 -0.102809 0
0.0970139 -0.103963 0
0.0984272 -0.105117 0
0.0998404 -0.106271 0
0.101254 -0.107424 0
0.102667 -0.108578 0
0.10408 -0.109732 0
0.105493 -0.110886 0
0.106907 -0.11204 0
0.10832 -0.113194 0
0.109733 -0.114348 0
0.111146 -0.115501 0
0.11256 -0.116655 0
0.113973 -0.117809 0
0.115386 -0.118963 0
0.116799 -0.120117 0
0.118213 -0.121271 0
0.119626 -0.122424 0
0.121039 -0.123578 0
0.122452 -0.124732 0
0.123866 -0.125886 0
0.125279 -0.12704 0
0.126692 -0.128194 0
0.128105 -0.129348 0
0.129519 -0.130501 0
0.130932 -0.131655 0
0.132345 -0.132809 0
0.133758 -0.133963 0
0.135172 -0.133216 0
0.135172 -0.131316 0
0.135172 -0.129415 0
0.135172 -0.127514 0
0.135172 -0.125614 0
0.135172 -0.123713 0
0.135172 -0.121813 0
0.135172 -0.119912 0
0.135172 -0.118012 0
0.135172 -0.116111 0
0.135172 -0.11421 0
0.135172 -0.11231 0
0.135172 -0.110409 0
0.135172 -0.108509 0
0.135172 -0.106608 0
0.135172 -0.104708 0
0.135172 -0.102807 0
0.135172 -0.100906 0
0.135172 -0.0990058 0
0.135172 -0.0971052 0
0.135172 -0.0952046 0
0.135172 -0.0933041 0
0.135172 -0.0914035 0
0.135172 -0.0895029 0
0.135172 -0.0876023 0
0.135172 -0.0857017 0
0.135172 -0.0838012 0
0.135172 -0.0819006 0
0.133758 -0.0788462 0
0.132345 -0.0776923 0
0.130932 -0.0765385 0
0.129519 -0.0753846 0
0.128105 -0.0742308 0
0.126692 -0.0730769 0
0.125279 -0.0719231 0
0.123866 -0.0707692 0
0.122452 -0.0696154 0
0.121039 -0.0684615 0
0.119626 -0.0673077 0
0.118213 -0.0661538 0
0.116799 -0.065 0
0.115386 -0.0638462 0
0.113973 -0.0626923 0
0.11256 -0.0615385 0
0.111146 -0.0603846 0
0.109733 -0.0592308 0
0.10832 -0.0580769 0
0.106907 -0.0569231 0
0.105493 -0.0557692 0
0.10408 -0.0546154 0
0.102667 -0.0534615 0
0.101254 -0.0523077 0
0.0998404 -0.0511538 0
0.0984272 -0.05 0
0.0970139 -0.0488462 0
0.0956006 -0.0476923 0
[...]
CELL_DATA 13116
SCALARS rho float
LOOKUP_TABLE default
0.447346
0.527171
0.339534
0.560574
0.553589
0.538956
0.369202
0.557217
0.438821
0.557243
0.359029
0.336628
0.553762
0.386588
0.358522
0.539085
0.424523
0.551837
0.539316
0.374418
0.451171
0.376124
0.366691
0.552994
0.509422
0.514169
0.557298
0.314897
0.575162
0.5182
0.536782
0.362077
0.463238
0.377521
0.364105
0.449192
0.529844
0.536418
0.538262
0.542761
0.539458
0.559445
0.354725
0.332342
0.538709
0.539289
0.512253
0.541656
0.371988
0.445668
0.552638
0.367368
0.371009
0.419409
0.459035
0.483013
0.330383
0.550273
0.460974
0.362446
0.388415
0.557736
0.520865
0.538143
0.536968
0.373654
0.542353
0.534696
0.543352
0.537138
0.359548
0.531938
0.372775
0.337468
0.536115
0.360223
0.515146
0.549808
0.363238
0.549844
0.538898
0.516455
0.552903
0.541775
0.533678
0.435735
0.378223
0.534866
0.531241
0.349901
0.346781
0.528316
0.554637
0.535655
0.519167
0.485759
0.510284
0.536635
0.536314
0.526878
0.553298
0.478964
0.539373
0.350941
0.501104
0.380615
0.341344
0.391595
0.330036
0.583403
0.413407
0.511249
0.484726
0.541349
0.550278
0.542783
0.383239
0.359554
0.547236
0.544239
0.535064
0.365696
0.543701
0.361058
0.532314
0.391738
0.378493
0.448757
0.316748
0.450365
0.54741
0.542595
0.47568
0.375747
0.454369
0.473055
0.53502
0.5459
0.554091
0.544079
0.503582
0.514535
0.442566
0.504266
0.517201
0.376344
0.361569
0.511064
0.552056
0.55018
0.502904
0.541328
0.541545
0.355999
0.554805
0.534597
0.362545
0.555416
0.536706
0.536506
0.552345
0.363862
0.551452
0.363121
0.359806
0.556385
0.530021
0.551497
0.365879
0.442094
0.398747
0.535016
0.360651
0.425715
0.54196
0.366619
0.374744
0.373844
0.50852
0.538706
0.348972
0.395991
0.428798
0.530164
0.538831
0.455193
0.337861
0.539449
0.493307
0.402503
0.510216
0.509562
0.537255
0.359782
0.505416
0.539024
0.555448
0.539355
0.530276
0.345546
0.349902
0.581419
0.445194
0.367781
0.548454
0.538871
0.374802
0.493373
0.371899
0.34641
0.356137
0.540805
0.360293
0.371126
0.345667
0.35582
0.338612
0.537759
0.530272
0.424048
0.330189
0.542101
0.408865
0.348918
0.537813
0.557322
0.515541
0.336574
0.542051
0.37621
0.564878
0.354328
0.53733
0.526762
0.536467
0.538384
0.537384
0.37415
0.385588
0.539514
0.536065
0.538896
0.535208
0.537342
0.552831
0.376017
0.54892
0.555227
0.536308
0.354053
0.372747
0.539728
0.54671
0.53714
0.544136
0.43714
0.543725
0.35893
0.395306
0.347084
0.3728
0.489653
0.555298
0.514307
0.372967
0.538116
0.33538
0.414792
0.502541
0.355137
0.514285
0.555385
0.535792
0.550034
0.373932
0.535737
0.542399
0.536322
0.545758
0.362161
0.379998
0.35818
0.46972
0.366673
0.375134
0.316396
0.292221
0.532762
0.36627
0.534374
0.554054
0.340199
0.367675
0.338392
0.41306
0.321567
0.533532
0.47624
0.506594
0.353749
0.540586
0.571953
0.400292
0.362545
0.538183
0.546662
0.539262
0.337695
0.539152
0.357463
0.542095
0.558939
0.548774
0.558112
0.359742
0.541901
0.37241
0.539374
0.5575
0.566263
0.361102
0.316541
0.555562
0.365262
0.52214
0.557651
0.318664
0.547298
0.552691
0.363889
0.537968
0.554628
0.365297
0.548521
0.440815
0.560567
0.546343
0.446701
0.55382
0.374318
0.55145
0.330123
0.537515
0.475016
0.556249
0.339343
0.337082
0.534499
0.359307
0.54776
0.497703
0.386627
0.535051
0.346091
0.374666
0.545885
0.528559
0.533515
0.380482
0.362475
0.548802
0.553914
0.360033
0.553069
0.388464
0.37953
0.542867
0.548174
0.382016
0.347368
0.545862
0.53702
0.539161
0.537354
0.549478
0.502209
0.282427
0.370299
0.35316
0.53908
0.353785
0.427038
0.325381
0.351407
0.331826
0.388923
0.134281
0.356945
0.534967
0.293176
0.551944
0.55539
0.540104
0.530378
0.549379
0.373399
0.378895
0.35036
0.294749
0.545855
0.482081
0.539605
0.564625
0.518311
0.4998
0.515069
0.500072
0.516346
0.548462
0.549586
0.538587
0.352427
0.382747
0.444381
0.37708
0.473599
0.478552
0.373275
0.542456
0.535912
0.360408
0.370115
0.357313
0.339454
0.59844
0.359752
0.359765
0.541273
0.345945
0.521949
0.35545
0.538758
0.53856
0.304805
0.376988
0.545557
0.417145
0.356046
0.337754
0.345241
0.334069
0.376871
0.370571
0.372201
0.413293
0.355906
0.476597
0.329549
0.533437
0.326145
0.399196
0.491985
0.378324
0.349353
0.376186
0.540334
0.412821
0.580258
0.393496
0.353821
0.49484
0.53265
0.434849
0.547061
0.499701
0.498543
0.367418
0.536527
0.361417
0.550284
0.536677
0.357267
0.37203
0.492224
0.297962
0.448011
0.476976
0.340312
0.556324
0.519207
0.358028
0.372113
0.361135
0.422488
0.360674
0.367316
0.359439
0.372962
0.558537
0.558792
0.41806
0.527839
0.4523
0.504873
0.328261
0.367664
0.441742
0.356911
0.541901
0.285593
0.350275
0.472382
0.538378
0.526876
0.536226
0.31769
0.37169
0.558312
0.557124
0.537533
0.554696
0.503834
0.488748
0.357189
0.537907
0.523539
0.540221
0.290855
0.325249
0.540674
0.555795
0.530281
0.557642
0.526614
0.515012
0.551518
0.547636
0.539983
0.343475
0.538285
0.327974
0.370848
0.366944
0.559425
0.539151
0.292545
0.533162
0.595344
0.360982
0.537481
0.54615
0.546175
0.314955
0.366113
0.548667
0.35605
0.361157
0.355503
0.357631
0.540498
0.365554
0.559161
0.334649
0.527637
0.551672
0.542391
0.554056
0.356377
0.364413
0.540325
0.565964
0.523069
0.558336
0.555071
0.489438
0.362254
0.355612
0.539865
0.445104
0.357782
0.42032
0.349368
0.543418
0.540078
0.290874
0.375017
0.532046
0.457462
0.535389
0.595093
0.316864
0.376877
0.520182
0.535986
0.362815
0.525853
0.529926
0.539836
0.364635
0.535171
0.327261
0.536363
0.540121
0.351335
0.338842
0.374995
0.536322
0.312589
0.364794
0.357754
0.537652
0.544608
0.3643
0.391968
0.353769
0.537732
0.370494
0.538928
0.378133
0.534299
0.557394
0.328271
0.364561
0.365871
0.489985
0.354564
0.520464
0.339582
0.366846
0.538381
0.367142
0.540515
0.519532
0.536492
0.371823
0.542323
0.553546
0.555176
0.540111
0.535639
0.542633
0.36922
0.537424
0.426033
0.538338
0.365352
0.553312
0.420132
0.368378
0.536725
0.550817
0.365453
0.50223
0.346642
0.358182
0.541152
0.540049
0.337376
0.373604
0.36398
0.374946
0.542025
0.553055
0.365551
0.348904
0.547756
0.545802
0.534769
0.553129
0.539878
0.362267
0.556327
0.404417
0.552475
0.357014
0.487467
0.466345
0.541621
0.534354
0.550906
0.319253
0.333428
0.539495
0.582728
0.42352
0.55277
0.372968
0.541061
0.554539
0.355957
0.380199
0.553828
0.318677
0.536865
0.540026
0.312726
0.54532
0.517988
0.358873
0.5438
0.35811
0.528866
0.350986
0.54061
0.519617
0.349969
0.538146
0.551785
0.549327
0.595223
0.53894
0.564258
0.355637
0.360602
0.342712
0.353524
0.53469
0.540392
0.544396
0.551606
0.356781
0.356518
0.541541
0.557933
0.545929
0.555496
0.364739
0.549848
0.55511
0.372954
0.358938
0.547403
0.539634
0.531338
0.378192
0.577359
0.279205
0.543226
0.518221
0.537624
0.532196
0.356856
0.538261
0.53419
0.55398
0.539479
0.539453
0.422328
0.549208
0.346936
0.502371
0.556141
0.440261
0.520215
0.537725
0.551303
0.344749
0.363867
0.564641
0.530753
0.356401
0.348617
0.353883
0.354301
0.528798
0.540806
0.537229
0.29107
0.357118
0.543182
0.54981
0.371652
0.354594
0.437526
0.529042
0.539451
0.537003
0.547203
0.346016
0.35677
0.53531
0.36028
0.370672
0.34468
0.5389
0.278239
0.356085
0.474639
0.539386
0.508411
0.538582
0.539252
0.386162
0.361828
0.351407
0.393391
0.414255
0.352401
0.533631
0.546967
0.52846
0.540554
0.386678
0.367427
0.557476
0.360658
0.539306
0.51932
0.536879
0.337285
0.347442
0.525213
0.536657
0.45628
0.366636
0.534942
0.538757
0.471847
0.550252
0.555243
0.535495
0.503882
0.365208
0.539229
0.536805
0.495717
0.54351
0.534743
0.512268
0.535641
0.545122
0.365967
0.369656
0.366101
0.537029
0.418584
0.359243
0.54138
0.548208
0.330271
0.50773
0.284458
0.511445
0.387841
0.372661
0.557999
0.552668
0.356228
0.541668
0.537043
0.328663
0.535716
0.38543
0.379674
0.496986
0.523393
0.490591
0.539408
0.354017
0.551335
0.37328
0.369848
0.54041
0.35729
0.489456
0.353129
0.507117
0.492754
0.535573
0.52837
0.367015
0.366904
0.492269
0.356116
0.545714
0.385221
0.47937
0.538792
0.553836
0.366709
0.581874
0.507528
0.555657
0.543084
0.333323
0.358289
0.524037
0.506444
0.556054
0.342423
0.539314
0.457701
0.350827
0.343265
0.564959
0.529636
0.535373
0.536213
0.480254
0.5418
0.53801
0.534879
0.358549
0.53595
0.433828
0.546141
0.539241
0.28821
0.524102
0.552483
0.376493
0.370571
0.357265
0.534772
0.36386
0.497077
0.546918
0.54345
0.361607
0.534614
0.37854
0.576187
0.537949
0.537146
0.532476
0.537684
0.517035
0.538008
0.431663
0.538012
0.348465
0.538934
0.542249
0.341998
0.535861
0.541697
0.356834
0.369084
0.323813
0.549103
0.353854
0.535657
0.348973
0.556669
0.372245
0.468245
0.373183
0.5499
0.554767
0.43546
0.258729
0.515257
0.537855
0.345857
0.529379
0.559018
0.353489
0.485761
0.536498
0.55709
0.539545
0.354694
0.389422
0.546933
0.539699
0.503401
0.350778
0.361389
0.536052
0.535218
0.535962
0.535142
0.447119
0.542861
0.44385
0.544357
0.351859
0.374922
0.535209
0.552767
0.537732
0.37042
0.539012
0.452517
0.483535
0.361329
0.402693
0.553349
0.563953
0.493547
0.292072
0.540228
0.536005
0.367026
0.524055
0.547074
0.365933
0.403358
0.36957
0.493209
0.372237
0.34585
0.537446
0.390839
0.556252
0.512012
0.36851
0.369282
0.557603
0.373912
0.360616
0.536668
0.381379
0.327184
0.48781
0.533062
0.542519
0.354877
0.261935
0.355687
0.520499
0.380002
0.542946
0.361271
0.541922
0.51181
0.53818
0.508324
0.537442
0.516796
0.5395
0.553763
0.54476
0.365435
0.351242
0.532555
0.538131
0.501035
0.500729
0.476552
0.537964
0.494544
0.306983
0.543458
0.558521
0.536755
0.354891
0.538841
0.337707
0.54182
0.493718
0.549946
0.540196
0.372129
0.545881
0.355662
0.363402
0.521678
0.345925
0.550181
0.534812
0.548474
0.340654
0.54119
0.349995
0.338524
0.350439
0.344239
0.489163
0.362136
0.506066
0.537833
0.294886
0.359593
0.480303
0.554353
0.509029
0.504926
0.373059
0.38013
0.360349
0.374027
0.257738
0.507581
0.514841
0.310066
0.537421
0.546575
0.370601
0.558402
0.550509
0.53792
0.353884
0.536055
0.538022
0.54931
0.546457
0.35939
0.543449
0.550416
0.539237
0.578735
0.538172
0.374824
0.35391
0.541432
0.525411
0.348917
0.540178
0.363453
0.558767
0.502077
0.527486
0.529959
0.344394
0.499572
0.348784
0.356444
0.546793
0.549002
0.552253
0.548417
0.524096
0.338462
0.554734
0.364499
0.499977
0.556002
0.536321
0.546568
0.354553
0.397364
0.555726
0.387641
0.548207
0.578386
0.399558
0.367181
0.543077
0.355799
0.54014
0.547881
0.52199
0.354897
0.371827
0.450175
0.426771
0.499398
0.41651
0.538463
0.50503
0.535117
0.534615
0.542571
0.366873
0.369424
0.549555
0.538161
0.501056
0.443186
0.36756
0.535916
0.363404
0.539919
0.58873
0.279143
0.54552
0.36022
0.52542
0.342452
0.552732
0.371616
0.54133
0.53856
0.31971
0.533843
0.52816
0.306426
0.537284
0.53917
0.471149
0.378531
0.33295
0.40644
0.553909
0.490075
0.340813
0.573335
0.544238
0.538375
0.351868
0.490063
0.531137
0.457685
0.538436
0.53948
0.283356
0.54431
0.536404
0.340045
0.484139
0.339309
0.509972
0.348421
0.379648
0.5555
0.343747
0.352246
0.367502
0.541856
0.525388
0.354978
0.540228
0.332572
0.528398
0.349953
0.527835
0.325699
0.53895
0.541678
0.516032
0.537469
0.545345
0.538561
0.537912
0.310876
0.561462
0.519767
0.401067
0.542149
0.487154
0.355277
0.554529
0.342154
0.513116
0.275788
0.539526
0.371207
0.35951
0.552806
0.539491
0.36272
0.545169
0.54711
0.534739
0.555236
0.536259
0.363697
0.557862
0.372719
0.361576
0.532638
0.547916
0.558928
0.533494
0.359823
0.350024
0.358059
0.52815
0.537762
0.334344
0.539672
0.386028
0.346954
0.361088
0.532946
0.357951
0.555869
0.545084
0.563204
0.539539
0.544214
0.467649
0.511321
0.424627
0.383062
0.363703
0.536239
0.53607
0.374394
0.506675
0.491285
0.512515
0.356342
0.340608
0.507635
0.272104
0.502899
0.480745
0.370927
0.538106
0.529976
0.360815
0.542052
0.360035
0.544175
0.556797
0.537742
0.364738
0.464973
0.546291
0.288279
0.439984
0.539208
0.294832
0.538242
0.542935
0.513725
0.547414
0.286645
0.536703
0.54625
0.539608
0.351867
0.549786
0.376895
0.378971
0.534277
0.53965
0.537604
0.230371
0.540477
0.576697
0.53611
0.380694
0.386016
0.355952
0.547281
0.365889
0.364572
0.359436
0.479209
0.360263
0.287333
0.433427
0.542856
0.365171
0.537419
0.537997
0.542169
0.340423
0.543349
0.526958
0.53738
0.403787
0.568432
0.360353
0.342581
0.541004
0.368149
0.503278
0.543482
0.535486
0.368382
0.316846
0.364366
0.551695
0.535205
0.227772
0.53687
0.541669
0.548184
0.345624
0.364971
0.333357
0.489721
0.356384
0.53468
0.58379
0.538166
0.536649
0.36132
0.503579
0.368
0.460777
0.577487
0.557849
0.464054
0.397295
0.546977
0.503712
0.550223
0.341826
0.321672
0.329547
0.549555
0.449018
0.536347
0.36865
0.372914
0.549485
0.543215
0.537007
0.368407
0.542842
0.549898
0.549547
0.491774
0.353674
0.371771
0.281873
0.539719
0.537778
0.580532
0.503401
0.330013
0.549471
0.553809
0.537786
0.537304
0.548754
0.558412
0.538975
0.546877
0.551893
0.354612
0.544503
0.549136
0.538534
0.545864
0.5395
0.468785
0.364201
0.382263
0.498423
0.345616
0.290943
0.54243
0.359703
0.590014
0.542773
0.525613
0.537219
0.356952
0.543778
0.346446
0.383373
0.539127
0.542244
0.54069
0.339106
0.552359
0.539496
0.496998
0.539258
0.377168
0.538402
0.556011
0.530296
0.348272
0.550795
0.351405
0.562456
0.352818
0.364245
0.429081
0.423669
0.557934
0.550823
0.539481
0.363005
0.538301
0.355968
0.359209
0.523093
0.487516
0.349786
0.539425
0.37996
0.509891
0.534336
0.511914
0.52923
0.48415
0.582965
0.527159
0.539505
0.466918
0.552202
0.521392
0.564217
0.50067
0.522336
0.386343
0.364776
0.42354
0.54843
0.356354
0.53617
0.545594
0.492158
0.539629
0.426829
0.544188
0.535922
0.351931
0.544601
0.496422
0.405068
0.498722
0.555442
0.521415
0.538041
0.34509
0.366565
0.53891
0.450527
0.445217
0.545727
0.541573
0.540626
0.555774
0.556641
0.503311
0.503242
0.557814
0.364497
0.381117
0.372899
0.305497
0.535868
0.416166
0.440947
0.545274
0.539348
0.360918
0.537914
0.560379
0.339006
0.35574
0.535777
0.545751
0.354146
0.355505
0.361767
0.534632
0.513469
0.349847
0.369178
0.371773
0.379147
0.308759
0.346875
0.563549
0.541732
0.54031
0.343779
0.526327
0.490102
0.591337
0.322142
0.370906
0.521797
0.535141
0.355758
0.53871
0.360894
0.552535
0.35624
0.541771
0.338903
0.528981
0.554017
0.342956
0.552131
0.373335
0.558076
0.382894
0.492869
0.366564
0.434921
0.359585
0.48631
0.345548
0.537342
0.537189
0.585753
0.536719
0.313407
0.528082
0.537788
0.553072
0.488444
0.529004
0.371399
0.340531
0.353212
0.554643
0.281683
0.552255
0.51628
0.547741
0.557
0.383403
0.549026
0.359266
0.387596
0.362516
0.446615
0.427858
0.541123
0.3521
0.376103
0.540099
0.372517
0.356676
0.452268
0.347987
0.355896
0.383167
0.560436
0.5817
0.496054
0.368817
0.525873
0.540008
0.386363
0.315164
0.534328
0.53911
0.462722
0.51261
0.406474
0.351204
0.353358
0.541939
0.495518
0.438555
0.544911
0.36898
0.46928
0.361289
0.536824
0.5522
0.371123
0.390139
0.500264
0.447575
0.553809
0.551839
0.554081
0.546006
0.556099
0.354088
0.376086
0.328774
0.361758
0.441534
0.536821
0.581562
0.3616
0.370009
0.381555
0.402165
0.540615
0.511111
0.347084
0.291211
0.542696
0.357213
0.525783
0.550744
0.522336
0.538227
0.450406
0.361115
0.339562
0.499424
0.371238
0.36243
0.352286
0.537902
0.540362
0.339131
0.368967
0.535007
0.345507
0.540878
0.554631
0.365445
0.37724
0.368884
0.542486
0.383173
0.534786
0.543976
0.490953
0.350743
0.521015
0.549379
0.535304
0.368464
0.533484
0.499847
0.401585
0.546928
0.56656
0.353814
0.344997
0.524493
0.34985
0.364599
0.530677
0.337525
0.540822
0.546239
0.554158
0.504893
0.552625
0.542531
0.538545
0.361829
0.402194
0.508119
0.540646
0.464461
0.558243
0.305135
0.544859
0.530257
0.485585
0.523663
0.340803
0.427828
0.538445
0.550356
0.498516
0.554247
0.541387
0.53547
0.554695
0.534841
0.536494
0.524781
0.545815
0.535245
0.538632
0.32286
0.518491
0.312303
0.542779
0.544562
0.548437
0.515862
0.547159
0.375778
0.36062
0.292098
0.367707
0.52083
0.355439
0.354339
0.539814
0.377293
0.54642
0.354059
0.530828
0.543726
0.343336
0.375304
0.280675
0.547548
0.328579
0.540611
0.545683
0.365778
0.520026
0.528384
0.29981
0.317903
0.378891
0.550244
0.346832
0.543949
0.423915
0.370537
0.539143
0.539585
0.554123
0.360418
0.475161
0.367813
0.527639
0.538276
0.542821
0.356378
0.540011
0.54579
0.507073
0.37643
0.547436
0.359645
0.355985
0.539158
0.41258
0.556505
0.351832
0.356243
0.433482
0.512522
0.313052
0.263719
0.353915
0.39884
0.536193
0.545098
0.378483
0.485807
0.541694
0.55398
0.35413
0.274543
0.531415
0.356861
0.358756
0.538604
0.354778
0.35647
0.55004
0.559649
0.341165
0.550897
0.357702
0.53567
0.309335
0.524376
0.537272
0.548069
0.538028
0.377443
0.359104
0.357179
0.53862
0.525869
0.580935
0.481304
0.364307
0.294086
0.538927
0.360543
0.541155
0.373273
0.537509
0.535676
0.335891
0.329083
0.356956
0.369037
0.322743
0.499486
0.522565
0.339555
0.543957
0.514923
0.356575
0.361228
0.559235
0.348022
0.543295
0.419742
0.547649
0.527705
0.543224
0.536309
0.362577
0.556588
0.541681
0.562172
0.343952
0.494242
0.581068
0.286567
0.548408
0.513595
0.56149
0.526502
0.556144
0.53845
0.557834
0.538657
0.539271
0.352751
0.553579
0.357032
0.387274
0.538994
0.359876
0.531985
0.494554
0.375656
0.5079
0.343785
0.346538
0.53497
0.487492
0.559321
0.347747
0.526336
0.538806
0.303234
0.341305
0.525571
0.539972
0.362251
0.364059
0.546535
0.55899
0.372106
0.518084
0.554645
0.592729
0.332735
0.35968
0.358019
0.529325
0.370839
0.533942
0.549633
0.539027
0.489912
0.543809
0.347287
0.531089
0.5921
0.553874
0.461829
0.35611
0.365909
0.376082
0.552855
0.546395
0.417653
0.526458
0.261754
0.517302
0.543943
0.373415
0.498883
0.534593
0.505706
0.342895
0.378713
0.294523
0.547576
0.556383
0.538314
0.511033
0.543469
0.35561
0.517061
0.535904
0.540204
0.344111
0.598936
0.375232
0.499827
0.378928
0.539633
0.535215
0.369495
0.547247
0.358711
0.535198
0.514367
0.534654
0.548202
0.366187
0.538787
0.539842
0.540773
0.540215
0.482015
0.535846
0.366707
0.540098
0.373669
0.362302
0.372247
0.324203
0.356686
0.339604
0.556368
0.355963
0.362454
0.527366
0.547601
0.524099
0.352325
0.544462
0.544384
0.538079
0.329248
0.471463
0.542343
0.360222
0.357786
0.359417
0.50965
0.506784
0.367303
0.476164
0.38821
0.536381
0.498945
0.377662
0.462461
0.525525
0.29059
0.540233
0.365691
0.392702
0.359583
0.543491
0.362939
0.523139
0.535963
0.485432
0.351333
0.359764
0.54039
0.558426
0.362777
0.338381
0.538688
0.37227
0.550494
0.344969
0.539786
0.376665
0.542414
0.375409
0.557595
0.362037
0.543873
0.544301
0.550874
0.535841
0.368944
0.362114
0.35127
0.516585
0.539234
0.511454
0.430328
0.376106
0.548041
0.27722
0.524166
0.477604
0.354482
0.370389
0.551761
0.539381
0.369087
0.536989
0.544045
0.551533
0.554217
0.365803
0.518986
0.355348
0.551495
0.372531
0.5377
0.520429
0.531962
0.55809
0.36115
0.562319
0.34331
0.356871
0.540682
0.535948
0.466648
0.539368
0.535827
0.351147
0.552096
0.541009
0.55671
0.340137
0.399035
0.541808
0.355388
0.545264
0.545619
0.533656
0.545027
0.279679
0.386269
0.530739
0.371359
0.530286
0.558571
0.411673
0.532989
0.261369
0.500887
0.552265
0.546334
0.533836
0.377099
0.360148
0.54135
0.532297
0.375981
0.305942
0.377176
0.365887
0.363933
0.387081
0.310092
0.34595
0.541021
0.371769
0.332923
0.545815
0.461445
0.535052
0.375874
0.368682
0.542197
0.412056
0.397037
0.555073
0.35004
0.546604
0.53761
0.573554
0.529323
0.32802
0.545334
0.538133
0.368217
0.356429
0.354663
0.49239
0.567052
0.556092
0.539288
0.540769
0.531677
0.321496
0.545826
0.538234
0.5266
0.361143
0.542907
0.470888
0.314962
0.409194
0.367307
0.371517
0.369421
0.492846
0.535118
0.533367
0.357685
0.383446
0.554589
0.323661
0.545901
0.539942
0.53387
0.550318
0.543062
0.362247
0.370922
0.385159
0.465781
0.374468
0.541629
0.371441
0.541043
0.538508
0.544228
0.319986
0.39614
0.370754
0.544023
0.364764
0.360062
0.542406
0.529134
0.50033
0.538994
0.522609
0.550127
0.358601
0.592174
0.552771
0.527374
0.543171
0.547337
0.550761
0.457614
0.418926
0.557724
0.494532
0.495582
0.350313
0.51722
0.534217
0.346895
0.368636
0.526252
0.463811
0.550854
0.545919
0.346796
0.373426
0.536438
0.32248
0.355822
0.535321
0.526086
0.375138
0.53681
0.536748
0.517068
0.362534
0.499037
0.359505
0.53726
0.55196
0.549978
0.531504
0.536748
0.292872
0.330706
0.539635
0.344715
0.589217
0.374457
0.54383
0.378486
0.520949
0.552521
0.536585
0.355806
0.534748
0.536017
0.36149
0.517643
0.365699
0.56113
0.355462
0.338892
0.362899
0.537328
0.538445
0.3156
0.28752
0.511594
0.555757