# vtk DataFile Version 1.0
unstructured grid
ascii
DATASET UNSTRUCTURED_GRID
points 13672 float
0.0796578 -0.059106 0
0.00128732 0.00159165 0
0.00227961 -0.00102548 0
0.0791586 -0.0598787 0
-0.0546216 0.01 0
0.000495206 0.025 0
0.0800549 -0.035 0
0.135172 -0.08 0
-0.0546216 -0.0451168 0
0.000495206 -0.0301168 0
0.0800549 -0.0901168 0
0.135172 -0.135117 0
-0.0546216 -0.0451168 -0.00551168
0.000495206 -0.0301168 -0.00551168
0.0800549 -0.0901168 -0.00551168
0.135172 -0.135117 -0.00551168
0.135172 -0.08 -0.00551168
0.0800549 -0.035 -0.00551168
0.000495206 0.025 -0.00551168
-0.0546216 0.01 -0.00551168
0.00128732 0.00159165 -0.00551168
0.00227961 -0.00102548 -0.00551168
0.0791586 -0.0598787 -0.00551168
0.0796578 -0.059106 -0.00551168
0.00165953 -0.000990923 0
0.00119576 -0.000874076 0
0.000866021 -0.000641801 0
0.000645147 -0.000349912 0
0.00052235 -1.7281e-05 0
0.00049972 0.000348016 0
0.000601632 0.000737716 0
0.000861774 0.0011403 0
0.00157235 0.00183217 0
0.00188647 0.00206725 0
0.00222612 0.00230203 0
0.00258713 0.00254351 0
0.00296826 0.00279524 0
0.00337118 0.00305664 0
0.00379785 0.00332658 0
0.00425045 0.00360349 0
0.00473139 0.00388521 0
0.0052432 0.00416895 0
0.0057881 0.00445204 0
0.00636753 0.00473281 0
0.00698281 0.00500961 0
0.00763526 0.00528058 0
0.00832616 0.00554366 0
0.00905691 0.00579603 0
0.00982918 0.00603333 0
0.0106445 0.00625033 0
0.0115038 0.00644128 0
0.0124073 0.00660297 0
0.0133543 0.00673414 0
0.0143444 0.00683382 0
0.0153769 0.00690031 0
0.0164512 0.00693173 0
0.0175666 0.00692547 0
0.0187219 0.00687822 0
0.0199156 0.00678477 0
0.0211454 0.00663864 0
0.0224084 0.00643275 0
0.0237018 0.00616676 0
0.0250249 0.00584739 0
0.026375 0.00547298 0
0.0277479 0.00503752 0
0.0291386 0.00453545 0
0.0305433 0.0039653 0
0.0319572 0.0033256 0
0.0333681 0.00260019 0
0.034775 0.00179799 0
0.0361793 0.000930615 0
0.0375798 3.12222e-06 0
0.0389689 -0.000988429 0
0.0403357 -0.00205109 0
0.041675 -0.00318283 0
0.0429849 -0.00437751 0
0.0442643 -0.00562904 0
0.0455126 -0.00693089 0
0.0467314 -0.00827518 0
0.0479204 -0.00965638 0
0.0490661 -0.0110799 0
0.0501515 -0.0125519 0
0.0511696 -0.0140695 0
0.0521492 -0.0156071 0
0.0531202 -0.0171411 0
0.0540851 -0.0186663 0
0.0550431 -0.0201798 0
0.0559923 -0.0216793 0
0.0569311 -0.0231626 0
0.0578582 -0.0246273 0
0.0587723 -0.0260715 0
0.0596721 -0.027493 0
0.0605563 -0.02889 0
0.0614241 -0.0302609 0
0.0622742 -0.0316042 0
0.063106 -0.0329183 0
0.0639186 -0.034202 0
0.0647113 -0.0354543 0
0.0654835 -0.0366743 0
0.0662345 -0.0378613 0
0.0669642 -0.0390145 0
0.0676726 -0.0401333 0
0.0683597 -0.0412172 0
0.0690246 -0.0422665 0
0.0696662 -0.0432819 0
0.0702841 -0.0442636 0
0.0708793 -0.0452111 0
0.0714538 -0.0461237 0
0.072009 -0.047001 0
0.0725452 -0.0478434 0
0.0730611 -0.0486524 0
0.073556 -0.0494294 0
0.0740291 -0.0501756 0
0.0744812 -0.0508916 0
0.0749138 -0.0515773 0
0.0753285 -0.0522331 0
0.0757266 -0.0528592 0
0.076109 -0.0534564 0
0.0764753 -0.0540264 0
0.0768243 -0.054571 0
0.0771553 -0.0550919 0
0.0774679 -0.0555901 0
0.0777617 -0.0560669 0
0.0780369 -0.056523 0
0.0782958 -0.0569578 0
0.0785421 -0.0573703 0
0.0787786 -0.0577603 0
0.0790073 -0.0581279 0
0.0792295 -0.058474 0
0.0794462 -0.0587995 0
0.0798803 -0.0594162 0
0.0800272 -0.0596588 0
0.0800357 -0.0598891 0
0.0799275 -0.0600784 0
0.0797205 -0.0601773 0
0.0794593 -0.0601051 0
0.0789155 -0.0596491 0
0.0786707 -0.0593963 0
0.0784111 -0.0591319 0
0.0781372 -0.0588542 0
0.0778566 -0.0585548 0
0.0775715 -0.0582308 0
0.0772803 -0.0578828 0
0.0769832 -0.0575099 0
0.0766822 -0.0571097 0
0.0763801 -0.0566796 0
0.0760759 -0.0562196 0
0.0757623 -0.0557337 0
0.0754359 -0.0552232 0
0.0750951 -0.0546879 0
0.0747379 -0.054128 0
0.0743626 -0.0535435 0
0.0739688 -0.0529338 0
0.0735559 -0.0522981 0
0.0731238 -0.0516357 0
0.0726718 -0.050946 0
0.0721991 -0.0502288 0
0.0717046 -0.049484 0
0.0711872 -0.0487117 0
0.0706461 -0.047912 0
0.0700804 -0.0470849 0
0.0694892 -0.0462308 0
0.0688718 -0.0453499 0
0.0682271 -0.0444431 0
0.0675544 -0.043511 0
0.0668527 -0.0425546 0
0.0661215 -0.0415748 0
0.06536 -0.040573 0
0.0645676 -0.0395504 0
0.0637439 -0.0385087 0
0.0628887 -0.0374493 0
0.062002 -0.0363741 0
0.0610838 -0.0352847 0
0.0601345 -0.0341831 0
0.0591547 -0.033071 0
0.0581456 -0.0319502 0
0.0571083 -0.0308224 0
0.0560444 -0.0296893 0
0.0549562 -0.028552 0
0.053845 -0.0274126 0
0.0527113 -0.0262746 0
0.051554 -0.0251427 0
0.0503724 -0.0240222 0
0.0491675 -0.0229164 0
0.047941 -0.0218282 0
0.0466955 -0.0207597 0
0.0454337 -0.0197126 0
0.0441592 -0.0186878 0
0.0428751 -0.0176863 0
0.0415841 -0.0167097 0
0.0402878 -0.0157609 0
0.0389879 -0.0148428 0
0.0376864 -0.0139575 0
0.0363853 -0.013107 0
0.0350871 -0.0122931 0
0.0337942 -0.0115164 0
0.0325095 -0.0107772 0
0.0312357 -0.0100756 0
0.0299758 -0.00941024 0
0.0287337 -0.00877784 0
0.0275126 -0.00817571 0
0.0263139 -0.00760375 0
0.0251376 -0.00706528 0
0.0239829 -0.0065649 0
0.0228537 -0.00609619 0
0.0217522 -0.00565563 0
0.0206795 -0.00524226 0
0.0196364 -0.00485507 0
0.0186233 -0.00449318 0
0.0176408 -0.00415577 0
0.016689 -0.00384204 0
0.0157682 -0.00355115 0
0.0148783 -0.00328218 0
0.0140192 -0.00303468 0
0.0131906 -0.00280795 0
0.0123925 -0.00260016 0
0.0116246 -0.00241012 0
0.0108864 -0.00223769 0
0.0101774 -0.00208212 0
0.00949701 -0.00194206 0
0.00884483 -0.0018163 0
0.0082202 -0.0017039 0
0.00762247 -0.00160391 0
0.00705097 -0.00151528 0
0.006505 -0.00143697 0
0.0059838 -0.00136806 0
0.00548662 -0.00130772 0
0.00501265 -0.00125519 0
0.00456114 -0.00120954 0
0.00413136 -0.00116914 0
0.00372257 -0.00113251 0
0.00333398 -0.00109853 0
0.00296466 -0.00106798 0
0.00261363 -0.0010431 0
-0.052721 -0.0445996 0
-0.0508204 -0.0440823 0
-0.0489199 -0.0435651 0
-0.0470193 -0.0430478 0
-0.0451187 -0.0425306 0
-0.0432181 -0.0420134 0
-0.0413175 -0.0414961 0
-0.039417 -0.0409789 0
-0.0375164 -0.0404616 0
-0.0356158 -0.0399444 0
-0.0337152 -0.0394271 0
-0.0318146 -0.0389099 0
-0.0299141 -0.0383927 0
-0.0280135 -0.0378754 0
-0.0261129 -0.0373582 0
-0.0242123 -0.0368409 0
-0.0223117 -0.0363237 0
-0.0204112 -0.0358065 0
-0.0185106 -0.0352892 0
-0.01661 -0.034772 0
-0.0147094 -0.0342547 0
-0.0128088 -0.0337375 0
-0.0109083 -0.0332202 0
-0.00900769 -0.032703 0
-0.00710711 -0.0321858 0
-0.00520653 -0.0316685 0
-0.00330595 -0.0311513 0
-0.00140537 -0.030634 0
0.00190689 -0.0299614 0
0.00332271 -0.0298498 0
0.00474133 -0.0297825 0
0.00616136 -0.0297597 0
0.0075814 -0.0297814 0
0.00900007 -0.0298477 0
0.010416 -0.0299583 0
0.0118278 -0.0301127 0
0.0132342 -0.0303103 0
0.0146339 -0.0305504 0
0.0160259 -0.0308322 0
0.0174091 -0.0311546 0
0.0187824 -0.0315166 0
0.020145 -0.031917 0
0.0214961 -0.0323546 0
0.0228351 -0.032828 0
0.0241613 -0.0333361 0
0.0254744 -0.0338774 0
0.0267738 -0.0344507 0
0.0280592 -0.0350545 0
0.0293306 -0.0356877 0
0.0305875 -0.0363488 0
0.0318301 -0.0370367 0
0.0330581 -0.0377501 0
0.0342717 -0.0384879 0
0.0354708 -0.0392489 0
0.0366556 -0.0400321 0
0.0378262 -0.0408363 0
0.0389828 -0.0416607 0
0.0401254 -0.0425042 0
0.0412543 -0.0433659 0
0.0423698 -0.0442451 0
0.043472 -0.0451408 0
0.0445612 -0.0460523 0
0.0456375 -0.0469789 0
0.0467013 -0.0479199 0
0.0477529 -0.0488746 0
0.0487923 -0.0498424 0
0.04982 -0.0508227 0
0.0508362 -0.051815 0
0.051841 -0.0528187 0
0.0528348 -0.0538333 0
0.0538178 -0.0548584 0
0.0547903 -0.0558935 0
0.0557524 -0.0569382 0
0.0567045 -0.0579922 0
0.0576467 -0.0590549 0
0.0585792 -0.0601261 0
0.0595024 -0.0612055 0
0.0604163 -0.0622926 0
0.0613212 -0.0633873 0
0.0622174 -0.0644891 0
0.0631049 -0.0655979 0
0.0639841 -0.0667134 0
0.064855 -0.0678353 0
0.0657179 -0.0689633 0
0.0665729 -0.0700974 0
0.0674202 -0.0712372 0
0.06826 -0.0723826 0
0.0690925 -0.0735333 0
0.0699178 -0.0746892 0
0.070736 -0.0758501 0
0.0715473 -0.0770159 0
0.0723518 -0.0781863 0
0.0731498 -0.0793612 0
0.0739412 -0.0805405 0
0.0747264 -0.081724 0
0.0755053 -0.0829116 0
0.0762781 -0.0841033 0
0.0770449 -0.0852987 0
0.0778059 -0.0864979 0
0.0785611 -0.0877007 0
0.0793108 -0.088907 0
0.0814681 -0.0912706 0
0.0828814 -0.0924245 0
0.0842946 -0.0935783 0
0.0857079 -0.0947322 0
0.0871211 -0.095886 0
0.0885344 -0.0970399 0
0.0899476 -0.0981937 0
0.0913609 -0.0993476 0
0.0927741 -0.100501 0
0.0941874 -0.101655 0
0.0956006 -0.102809 0
0.0970139 -0.103963 0
0.0984272 -0.105117 0
0.0998404 -0.106271 0
0.101254 -0.107424 0
0.102667 -0.108578 0
0.10408 -0.109732 0
0.105493 -0.110886 0
0.106907 -0.11204 0
0.10832 -0.113194 0
0.109733 -0.114348 0
0.111146 -0.115501 0
0.11256 -0.116655 0
0.113973 -0.117809 0
0.115386 -0.118963 0
0.116799 -0.120117 0
0.118213 -0.121271 0
0.119626 -0.122424 0
0.121039 -0.123578 0
0.122452 -0.124732 0
0.123866 -0.125886 0
0.125279 -0.12704 0
0.126692 -0.128194 0
0.128105 -0.129348 0
0.129519 -0.130501 0
0.130932 -0.131655 0
0.132345 -0.132809 0
0.133758 -0.133963 0
0.135172 -0.133216 0
0.135172 -0.131316 0
0.135172 -0.129415 0
0.135172 -0.127514 0
0.135172 -0.125614 0
0.135172 -0.123713 0
0.135172 -0.121813 0
0.135172 -0.119912 0
0.135172 -0.118012 0
0.135172 -0.116111 0
0.135172 -0.11421 0
0.135172 -0.11231 0
0.135172 -0.110409 0
0.135172 -0.108509 0
0.135172 -0.106608 0
0.135172 -0.104708 0
0.135172 -0.102807 0
0.135172 -0.100906 0
0.135172 -0.0990058 0
0.135172 -0.0971052 0
0.135172 -0.0952046 0
0.135172 -0.0933041 0
0.135172 -0.0914035 0
0.135172 -0.0895029 0
0.135172 -0.0876023 0
0.135172 -0.0857017 0
0.135172 -0.0838012 0
0.135172 -0.0819006 0
0.133758 -0.0788462 0
0.132345 -0.0776923 0
0.130932 -0.0765385 0
0.129519 -0.0753846 0
0.128105 -0.0742308 0
0.126692 -0.0730769 0
0.125279 -0.0719231 0
0.123866 -0.0707692 0
0.122452 -0.0696154 0
0.121039 -0.0684615 0
0.119626 -0.0673077 0
0.118213 -0.0661538 0
0.116799 -0.065 0
0.115386 -0.0638462 0
0.113973 -0.0626923 0
0.11256 -0.0615385 0
0.111146 -0.0603846 0
0.109733 -0.0592308 0
0.10832 -0.0580769 0
0.106907 -0.0569231 0
0.105493 -0.0557692 0
0.10408 -0.0546154 0
0.102667 -0.0534615 0
0.101254 -0.0523077 0
0.0998404 -0.0511538 0
0.0984272 -0.05 0
0.0970139 -0.0488462 0
0.0956006 -0.0476923 0
[...]
CELL_DATA 13116
SCALARS rho float
LOOKUP_TABLE default
0.426242
0.514233
0.291773
0.554933
0.545802
0.533366
0.318385
0.549259
0.409586
0.549559
0.318559
0.294895
0.546043
0.329039
0.316427
0.533418
0.401034
0.542269
0.531272
0.324804
0.430331
0.325356
0.326198
0.543772
0.4736
0.495856
0.549594
0.327221
0.472681
0.502476
0.532958
0.331575
0.431769
0.348418
0.318039
0.428391
0.517268
0.526468
0.533263
0.53377
0.532528
0.551951
0.330158
0.289219
0.530126
0.531117
0.496324
0.533756
0.319098
0.406734
0.54501
0.343644
0.318937
0.395333
0.43067
0.454853
0.29229
0.540999
0.417158
0.315332
0.329662
0.550785
0.506675
0.533246
0.533035
0.331944
0.535136
0.522667
0.535902
0.533055
0.319706
0.456332
0.32179
0.323183
0.532893
0.304217
0.500353
0.541874
0.317676
0.539822
0.527793
0.499853
0.54383
0.533374
0.522735
0.350597
0.325012
0.520501
0.518882
0.326179
0.313774
0.515659
0.545869
0.523494
0.504863
0.465099
0.47563
0.53305
0.532894
0.465439
0.528258
0.457401
0.532109
0.31233
0.482539
0.331333
0.280563
0.367305
0.326659
0.480734
0.389891
0.494321
0.463634
0.530616
0.540322
0.535324
0.328141
0.302018
0.539198
0.536387
0.522997
0.319836
0.536207
0.345756
0.518794
0.341644
0.32551
0.39673
0.320999
0.408034
0.539427
0.532948
0.391808
0.325655
0.376253
0.45395
0.532907
0.538196
0.527544
0.536175
0.487174
0.499068
0.39546
0.487884
0.502384
0.326578
0.31946
0.493171
0.543849
0.541996
0.423657
0.532927
0.533722
0.309492
0.546779
0.523906
0.325491
0.532743
0.533053
0.520755
0.54305
0.317577
0.542498
0.325186
0.315985
0.549293
0.516369
0.541883
0.317986
0.362528
0.329235
0.532866
0.317681
0.383452
0.534606
0.327839
0.321493
0.322974
0.490988
0.533074
0.302742
0.33671
0.406001
0.517625
0.533102
0.415291
0.29589
0.532393
0.472726
0.359386
0.495017
0.491361
0.533034
0.329602
0.48684
0.533373
0.54703
0.532038
0.517771
0.316791
0.311906
0.484799
0.392575
0.326999
0.539766
0.529549
0.350523
0.473252
0.324867
0.321938
0.301511
0.534184
0.324524
0.323087
0.323229
0.308844
0.28522
0.532844
0.516163
0.340262
0.291825
0.534974
0.384989
0.303613
0.433266
0.55002
0.500426
0.330888
0.534741
0.305868
0.556159
0.321606
0.53301
0.448421
0.533037
0.528203
0.53305
0.313466
0.33573
0.520732
0.532948
0.533293
0.532913
0.532879
0.543982
0.323099
0.541173
0.547439
0.53288
0.322804
0.320576
0.530876
0.538733
0.532989
0.535702
0.415089
0.532975
0.318161
0.327296
0.308196
0.325471
0.468491
0.546848
0.499328
0.320924
0.528958
0.318351
0.338271
0.48429
0.317474
0.496672
0.548007
0.53291
0.540738
0.313862
0.532904
0.531938
0.532882
0.538062
0.315127
0.326527
0.327913
0.450068
0.31978
0.324961
0.259911
0.246489
0.521523
0.319222
0.523166
0.546598
0.303067
0.319711
0.31929
0.353419
0.288702
0.519399
0.455751
0.488974
0.317549
0.533897
0.458552
0.328197
0.315887
0.533147
0.538712
0.532141
0.294683
0.533422
0.321864
0.532399
0.551674
0.540608
0.550782
0.330263
0.534729
0.323883
0.533036
0.550276
0.521383
0.319025
0.259669
0.547911
0.329987
0.508248
0.550719
0.284942
0.535173
0.54358
0.325709
0.528762
0.545784
0.31857
0.540663
0.351915
0.448997
0.533975
0.357157
0.532994
0.32183
0.541997
0.26909
0.532872
0.451363
0.547987
0.330309
0.279297
0.52383
0.313073
0.53914
0.477966
0.328737
0.53291
0.303694
0.317097
0.537321
0.433445
0.52144
0.326729
0.324818
0.541053
0.546401
0.319433
0.545609
0.331492
0.330197
0.535003
0.53721
0.356143
0.318504
0.53812
0.533031
0.533478
0.527748
0.540499
0.423778
0.256828
0.322947
0.299823
0.533468
0.300491
0.404345
0.288684
0.318741
0.274609
0.364115
0.110121
0.313523
0.524507
0.259848
0.543117
0.47234
0.532469
0.514076
0.541673
0.317174
0.32565
0.321343
0.263996
0.537035
0.460315
0.532352
0.472821
0.503706
0.482085
0.498243
0.483818
0.500224
0.53943
0.5394
0.53327
0.31282
0.356855
0.423026
0.3235
0.452725
0.45351
0.321156
0.535097
0.532943
0.330579
0.322189
0.320847
0.298498
0.492485
0.321423
0.329594
0.534446
0.324311
0.448102
0.323506
0.532998
0.527569
0.285962
0.326196
0.536892
0.354641
0.322173
0.296668
0.316724
0.326518
0.326916
0.322511
0.325051
0.338082
0.319334
0.45463
0.306977
0.522183
0.297056
0.35727
0.394095
0.333387
0.32574
0.331858
0.531406
0.342573
0.500069
0.369193
0.329017
0.475253
0.520713
0.349969
0.534813
0.483017
0.481859
0.326737
0.533035
0.303769
0.541287
0.532948
0.324683
0.322631
0.471401
0.266594
0.35834
0.453827
0.27975
0.531982
0.504754
0.304181
0.31885
0.317922
0.379962
0.314696
0.31917
0.318148
0.324285
0.551933
0.552368
0.358558
0.467928
0.375614
0.486495
0.274425
0.320447
0.413164
0.324875
0.532741
0.230543
0.290574
0.388553
0.529577
0.512577
0.43839
0.283596
0.322476
0.445679
0.549322
0.533153
0.442744
0.485986
0.467416
0.320153
0.52676
0.44489
0.519817
0.242295
0.291281
0.529835
0.547281
0.513221
0.550283
0.513529
0.496101
0.542113
0.520173
0.532432
0.309957
0.529373
0.26595
0.324133
0.322586
0.553733
0.530004
0.242038
0.522038
0.485863
0.31928
0.532969
0.538197
0.536611
0.326884
0.320382
0.540479
0.320736
0.308514
0.308743
0.320952
0.530842
0.319846
0.553676
0.3075
0.51473
0.544002
0.535166
0.546506
0.321549
0.305034
0.531279
0.557038
0.50952
0.551653
0.547224
0.390144
0.325281
0.326619
0.533562
0.411341
0.319868
0.354431
0.31515
0.532379
0.532811
0.242369
0.325232
0.520472
0.364927
0.525101
0.51533
0.319627
0.306559
0.506208
0.532965
0.325772
0.511581
0.516104
0.53075
0.311724
0.532869
0.301351
0.533023
0.518823
0.316878
0.284495
0.32466
0.532969
0.323026
0.316562
0.302432
0.532975
0.535002
0.317519
0.323167
0.32309
0.533096
0.321714
0.533277
0.326762
0.459387
0.550058
0.299523
0.325256
0.325515
0.390507
0.328793
0.504191
0.294233
0.321557
0.532962
0.319041
0.534036
0.505104
0.533033
0.299127
0.533306
0.544839
0.54674
0.533663
0.520492
0.534843
0.326871
0.533141
0.342095
0.528338
0.31591
0.544645
0.393609
0.31794
0.532929
0.542279
0.318698
0.486251
0.311397
0.319111
0.534388
0.531111
0.304334
0.325747
0.318174
0.333572
0.529951
0.543921
0.312876
0.298743
0.539098
0.538056
0.460829
0.544388
0.532879
0.318105
0.548082
0.334015
0.544864
0.302795
0.463518
0.378005
0.534565
0.522423
0.451677
0.267362
0.329171
0.531825
0.473149
0.400091
0.543978
0.325468
0.530496
0.546437
0.286406
0.354877
0.545235
0.282974
0.532929
0.521511
0.256158
0.537181
0.503447
0.305117
0.533955
0.327529
0.516358
0.297731
0.53408
0.505206
0.331445
0.533247
0.542905
0.541079
0.486823
0.528103
0.456921
0.315745
0.323957
0.296997
0.325987
0.532846
0.435642
0.536824
0.543338
0.30388
0.320253
0.531316
0.550749
0.537256
0.548087
0.318645
0.539552
0.547345
0.323764
0.308431
0.539335
0.530846
0.519592
0.323196
0.463187
0.297387
0.533216
0.503468
0.533152
0.520506
0.320518
0.527827
0.523041
0.545034
0.53019
0.532882
0.338686
0.540206
0.321716
0.484961
0.548468
0.362196
0.505948
0.533169
0.543596
0.312077
0.313557
0.457818
0.507956
0.32157
0.321105
0.313653
0.320363
0.516158
0.530137
0.532874
0.245918
0.318845
0.535751
0.531648
0.320196
0.320846
0.363567
0.516374
0.532114
0.527218
0.537455
0.322048
0.322264
0.532877
0.343046
0.318477
0.297071
0.532462
0.307309
0.324996
0.448799
0.529879
0.490987
0.533344
0.532462
0.329849
0.318001
0.313945
0.36859
0.342177
0.318271
0.521509
0.537057
0.516087
0.533516
0.332997
0.298224
0.550043
0.322824
0.532843
0.504803
0.53306
0.304332
0.314649
0.511785
0.532882
0.43544
0.318363
0.524442
0.533384
0.445337
0.542129
0.547563
0.532888
0.486169
0.319154
0.532549
0.532881
0.478132
0.533493
0.532892
0.495565
0.532973
0.537475
0.321985
0.316768
0.301825
0.533067
0.392446
0.323309
0.53118
0.539525
0.289769
0.492339
0.282431
0.496409
0.363097
0.314559
0.550993
0.543431
0.32062
0.432314
0.533046
0.323623
0.523718
0.331478
0.331187
0.478783
0.473854
0.394007
0.531994
0.313285
0.542384
0.320324
0.31683
0.533987
0.319568
0.468824
0.317914
0.491628
0.464738
0.532964
0.514517
0.320726
0.321068
0.473267
0.331839
0.536968
0.356273
0.45929
0.533188
0.544839
0.343119
0.478581
0.489748
0.547299
0.535674
0.271837
0.31816
0.424229
0.48818
0.547746
0.293044
0.532037
0.43694
0.320932
0.308648
0.522647
0.517065
0.532943
0.532945
0.457992
0.531229
0.533123
0.523135
0.317836
0.513465
0.361522
0.537907
0.530364
0.240483
0.501652
0.544695
0.317219
0.316353
0.327641
0.532896
0.317855
0.478666
0.537571
0.514673
0.302653
0.524059
0.327988
0.462749
0.533217
0.532875
0.520146
0.533072
0.482112
0.526776
0.407501
0.527927
0.296067
0.532669
0.535061
0.316143
0.532984
0.531273
0.326352
0.322151
0.321664
0.540989
0.327401
0.532884
0.310606
0.548588
0.322617
0.378468
0.32241
0.54082
0.547385
0.413481
0.213137
0.482005
0.532855
0.31521
0.460017
0.552695
0.322697
0.456965
0.532881
0.54974
0.532976
0.323226
0.365186
0.538319
0.53176
0.48618
0.326347
0.310966
0.526033
0.532914
0.532962
0.532936
0.425732
0.533298
0.422008
0.536024
0.327117
0.326934
0.532941
0.544881
0.532995
0.329673
0.532598
0.431785
0.465379
0.303517
0.327448
0.545909
0.557259
0.434245
0.262459
0.532986
0.532995
0.318079
0.475796
0.53727
0.317876
0.354789
0.321939
0.472332
0.324461
0.30829
0.527937
0.362359
0.547984
0.497143
0.317901
0.326425
0.550732
0.315509
0.32197
0.532882
0.328776
0.275358
0.459963
0.516939
0.533353
0.319737
0.252604
0.320361
0.506269
0.330717
0.533919
0.317478
0.53191
0.490064
0.529229
0.4914
0.526687
0.501718
0.532252
0.54617
0.536174
0.319136
0.318509
0.520632
0.533189
0.398904
0.481785
0.435159
0.533161
0.476772
0.28584
0.535738
0.551895
0.526578
0.322693
0.528491
0.3016
0.533316
0.392741
0.540132
0.533641
0.314319
0.536936
0.322905
0.332518
0.507664
0.296334
0.532424
0.532929
0.538368
0.299109
0.53439
0.322018
0.304631
0.317841
0.322012
0.470255
0.31868
0.490091
0.533151
0.265148
0.329714
0.384882
0.454988
0.491637
0.487821
0.301268
0.332588
0.31941
0.322449
0.212375
0.491189
0.498538
0.326222
0.532859
0.537155
0.322034
0.551807
0.531092
0.533169
0.321518
0.532899
0.527012
0.540444
0.537974
0.31442
0.534359
0.541853
0.529003
0.523344
0.532781
0.322558
0.322949
0.533181
0.422869
0.315751
0.533874
0.328584
0.448518
0.486025
0.514608
0.51775
0.306771
0.480279
0.310739
0.322411
0.535834
0.540662
0.543864
0.540667
0.510755
0.304943
0.547192
0.319285
0.398045
0.548853
0.532909
0.53792
0.322707
0.322827
0.54804
0.321775
0.539985
0.507721
0.33625
0.320842
0.535004
0.319869
0.533587
0.539571
0.508231
0.319456
0.316453
0.394113
0.402126
0.482019
0.368964
0.532848
0.487869
0.524361
0.532846
0.532638
0.320538
0.322849
0.541561
0.532777
0.483521
0.362396
0.327004
0.524401
0.31849
0.532781
0.482371
0.25959
0.536599
0.317897
0.508212
0.294061
0.544607
0.313257
0.532433
0.53307
0.277057
0.520867
0.507504
0.266733
0.532875
0.531186
0.433609
0.333453
0.285639
0.363772
0.545269
0.469957
0.317687
0.459631
0.534605
0.533002
0.294851
0.472728
0.519384
0.364611
0.532827
0.533127
0.234892
0.535963
0.532889
0.292009
0.464293
0.30027
0.494657
0.307799
0.330805
0.546935
0.314709
0.324107
0.32094
0.534807
0.512212
0.314975
0.532878
0.282462
0.515569
0.321996
0.515233
0.289185
0.533223
0.533513
0.501476
0.532992
0.435242
0.533092
0.533143
0.291791
0.498725
0.505734
0.376298
0.532129
0.389553
0.314851
0.546933
0.306596
0.44708
0.278351
0.532283
0.319862
0.329539
0.543523
0.53252
0.305916
0.537007
0.537155
0.532877
0.547755
0.532985
0.319052
0.551189
0.322587
0.324749
0.520174
0.538308
0.551301
0.522332
0.314893
0.307288
0.319483
0.515485
0.53311
0.284683
0.525419
0.333073
0.304834
0.304023
0.521195
0.303105
0.548522
0.536479
0.497872
0.530375
0.535566
0.445525
0.495965
0.343745
0.330167
0.305902
0.532978
0.532941
0.329687
0.490708
0.469941
0.49741
0.323556
0.309619
0.490968
0.220148
0.485367
0.461084
0.323463
0.532937
0.5176
0.323829
0.53282
0.321264
0.53664
0.548771
0.527101
0.319477
0.371942
0.531212
0.238195
0.35116
0.530349
0.244866
0.532938
0.535595
0.496202
0.537448
0.260014
0.532967
0.535311
0.531675
0.287158
0.542102
0.322296
0.330362
0.523602
0.532295
0.532955
0.18683
0.53388
0.498457
0.532898
0.333518
0.329722
0.321847
0.539477
0.318131
0.318111
0.305053
0.459364
0.319023
0.241304
0.350068
0.533896
0.322548
0.532953
0.533063
0.533391
0.298265
0.535233
0.511114
0.532862
0.328846
0.521557
0.319796
0.308106
0.534296
0.319726
0.487347
0.533578
0.532956
0.319807
0.259889
0.318839
0.441593
0.532934
0.18491
0.52709
0.534697
0.538396
0.323768
0.319979
0.271957
0.46934
0.322258
0.532918
0.47629
0.533084
0.526868
0.316256
0.487681
0.32491
0.436523
0.509178
0.550587
0.442432
0.371535
0.521298
0.486663
0.542315
0.304136
0.292296
0.312746
0.539661
0.415942
0.532916
0.322487
0.313616
0.540419
0.534996
0.532878
0.318746
0.534023
0.440228
0.442596
0.472094
0.327709
0.321575
0.233692
0.532324
0.533191
0.522134
0.484706
0.271011
0.539234
0.516488
0.533192
0.53286
0.538949
0.551704
0.533445
0.537224
0.543382
0.323756
0.536668
0.541428
0.532666
0.537869
0.531991
0.449104
0.321185
0.331856
0.481091
0.320339
0.262724
0.53337
0.320748
0.500928
0.535416
0.512362
0.527214
0.325953
0.534824
0.314881
0.328743
0.533495
0.532642
0.533643
0.294605
0.544847
0.532095
0.479022
0.532251
0.323963
0.532695
0.548366
0.517851
0.317437
0.541381
0.322474
0.556599
0.299729
0.321265
0.405779
0.353592
0.550872
0.54171
0.533001
0.306288
0.53273
0.316651
0.320164
0.50869
0.387987
0.326442
0.532465
0.320067
0.405813
0.521597
0.495944
0.516958
0.387015
0.469599
0.512801
0.533289
0.446958
0.543854
0.421716
0.553961
0.481414
0.506197
0.331558
0.318112
0.353095
0.540672
0.325733
0.5197
0.537336
0.470484
0.533343
0.403817
0.531657
0.524362
0.323025
0.536417
0.476502
0.380535
0.479338
0.547879
0.505412
0.53297
0.322554
0.32235
0.528955
0.418348
0.423767
0.538029
0.532941
0.533278
0.547327
0.548467
0.484446
0.485691
0.550533
0.318431
0.321463
0.320305
0.296113
0.532961
0.360808
0.418928
0.536334
0.528302
0.32485
0.528031
0.555006
0.293709
0.29534
0.532884
0.538001
0.328642
0.305925
0.311194
0.532874
0.495165
0.320786
0.321082
0.323697
0.329329
0.271762
0.318706
0.55434
0.533677
0.529761
0.306221
0.513282
0.472525
0.480517
0.290889
0.322167
0.507068
0.532946
0.324063
0.53303
0.323864
0.543193
0.324604
0.53283
0.297854
0.516748
0.546634
0.301264
0.443983
0.317526
0.551471
0.329317
0.475617
0.328759
0.396498
0.321048
0.468571
0.3154
0.532979
0.532976
0.478804
0.525808
0.280351
0.515555
0.532842
0.545621
0.470571
0.51632
0.322631
0.304272
0.326832
0.545832
0.229475
0.544407
0.430044
0.538095
0.549693
0.358707
0.540071
0.32054
0.331161
0.318133
0.400211
0.404126
0.532307
0.316521
0.325128
0.533845
0.300126
0.318475
0.430705
0.290628
0.323938
0.332529
0.552964
0.513835
0.479257
0.326063
0.512819
0.532467
0.330393
0.256051
0.523292
0.532617
0.4393
0.408352
0.32624
0.286462
0.309667
0.530273
0.477496
0.409051
0.534013
0.321919
0.445045
0.317731
0.532964
0.544463
0.322992
0.324347
0.483001
0.425137
0.546271
0.543366
0.545616
0.537544
0.548918
0.305951
0.323648
0.309619
0.315079
0.419981
0.533013
0.515235
0.316225
0.299998
0.353628
0.355101
0.53319
0.495006
0.324383
0.242362
0.535394
0.326378
0.511704
0.541882
0.508536
0.532784
0.429635
0.315348
0.302153
0.48111
0.323196
0.327977
0.31449
0.532971
0.532046
0.284315
0.323046
0.532853
0.314201
0.533662
0.545858
0.314955
0.317847
0.322702
0.535072
0.328227
0.532924
0.533986
0.470828
0.301583
0.419231
0.541299
0.524975
0.319475
0.52245
0.482817
0.373632
0.53874
0.556984
0.322748
0.313432
0.5109
0.318298
0.315691
0.518754
0.273984
0.532527
0.531987
0.545228
0.488726
0.544681
0.535298
0.533198
0.318556
0.325586
0.491876
0.530967
0.37173
0.551539
0.255813
0.537231
0.518274
0.446309
0.508005
0.304887
0.360406
0.528734
0.542124
0.478698
0.54692
0.534379
0.532869
0.546985
0.532851
0.522184
0.510792
0.535603
0.532952
0.533196
0.280043
0.50238
0.290808
0.534694
0.536792
0.539069
0.500573
0.537045
0.316687
0.314859
0.241767
0.319197
0.506708
0.314659
0.321448
0.528945
0.322959
0.536686
0.310248
0.518999
0.534738
0.312993
0.30237
0.256053
0.539809
0.323065
0.531699
0.53666
0.31839
0.504838
0.438294
0.272234
0.327337
0.323357
0.537923
0.313366
0.535606
0.400919
0.317982
0.531341
0.532553
0.545587
0.323337
0.44996
0.325093
0.514846
0.533175
0.535273
0.325241
0.53015
0.538122
0.489479
0.319902
0.539687
0.324694
0.320371
0.529286
0.356985
0.54869
0.31369
0.324795
0.351671
0.496282
0.324453
0.230794
0.299209
0.375489
0.53288
0.536193
0.327883
0.467546
0.534463
0.442603
0.328938
0.257426
0.440189
0.322921
0.317338
0.529603
0.321345
0.321994
0.542086
0.553315
0.293756
0.541127
0.307667
0.532875
0.326254
0.510053
0.533103
0.538089
0.532975
0.321731
0.3182
0.321085
0.533251
0.512482
0.467628
0.425711
0.294253
0.240303
0.5328
0.318924
0.532931
0.303157
0.533112
0.523837
0.294673
0.288978
0.320786
0.322939
0.29014
0.481882
0.508749
0.298145
0.535893
0.498995
0.31258
0.318088
0.553119
0.325596
0.534471
0.338717
0.537747
0.512737
0.535154
0.532896
0.322261
0.54849
0.533282
0.55507
0.317495
0.475174
0.472629
0.259657
0.540691
0.498617
0.549788
0.513628
0.548952
0.528178
0.550534
0.532645
0.531375
0.305951
0.54479
0.32085
0.360024
0.530101
0.322976
0.520601
0.474822
0.324305
0.490589
0.314904
0.314916
0.523308
0.466681
0.552911
0.32365
0.513403
0.486336
0.317118
0.303835
0.51005
0.532579
0.298816
0.305673
0.537039
0.552657
0.307824
0.502583
0.547329
0.516088
0.296737
0.324993
0.315166
0.513965
0.310969
0.523024
0.539655
0.532819
0.472625
0.535036
0.323253
0.519145
0.486201
0.546455
0.4399
0.326165
0.317855
0.328242
0.543638
0.537604
0.33661
0.511019
0.248745
0.502944
0.536184
0.325681
0.481839
0.523875
0.487539
0.304656
0.324632
0.289205
0.539248
0.548602
0.484308
0.407912
0.53507
0.323407
0.496668
0.532905
0.530321
0.304294
0.494184
0.32451
0.480994
0.330337
0.530283
0.523395
0.326218
0.53905
0.333672
0.532948
0.499793
0.532904
0.54003
0.324586
0.532823
0.532822
0.532748
0.531023
0.383431
0.532901
0.321469
0.532962
0.3263
0.298412
0.323818
0.289364
0.32202
0.300744
0.549292
0.290111
0.317823
0.51438
0.539423
0.510667
0.321308
0.534076
0.533359
0.532803
0.274511
0.451352
0.535088
0.318843
0.302139
0.318052
0.491939
0.403392
0.313683
0.457321
0.332892
0.532982
0.397932
0.325789
0.374967
0.509144
0.284288
0.532911
0.320463
0.367105
0.296602
0.532604
0.303038
0.509646
0.532894
0.462899
0.327253
0.317978
0.527646
0.551808
0.306127
0.304591
0.533143
0.319536
0.541013
0.307678
0.441768
0.328778
0.535212
0.32307
0.550774
0.298247
0.536014
0.535813
0.542775
0.532983
0.32353
0.326168
0.321197
0.498599
0.52823
0.495013
0.40629
0.32638
0.538925
0.261029
0.510371
0.45512
0.314212
0.322397
0.542975
0.530132
0.32737
0.532986
0.531597
0.542929
0.54524
0.320271
0.498717
0.323292
0.543013
0.312423
0.532941
0.505598
0.514887
0.551296
0.31345
0.556347
0.316001
0.321341
0.533564
0.53299
0.430607
0.529664
0.532951
0.326269
0.542645
0.529739
0.549149
0.305465
0.33721
0.530892
0.317055
0.537562
0.537116
0.522737
0.534837
0.22753
0.352627
0.508994
0.325868
0.518232
0.552219
0.37187
0.520689
0.21527
0.482881
0.542858
0.529679
0.521088
0.323177
0.330401
0.53252
0.520934
0.32505
0.261837
0.322123
0.325353
0.318083
0.333268
0.286436
0.317403
0.531971
0.324722
0.292091
0.536183
0.429029
0.532853
0.313083
0.322602
0.534859
0.368273
0.372593
0.547075
0.293054
0.517673
0.533119
0.480453
0.516993
0.318161
0.536507
0.533205
0.319045
0.319592
0.314892
0.472134
0.479816
0.548809
0.533481
0.530993
0.519863
0.292134
0.537386
0.533208
0.509989
0.320392
0.535599
0.448568
0.286679
0.341905
0.319064
0.321762
0.320697
0.463708
0.522621
0.521649
0.317247
0.3081
0.547285
0.281837
0.536732
0.532817
0.523023
0.529902
0.534803
0.319222
0.324065
0.333503
0.443976
0.316394
0.533886
0.318034
0.534251
0.53294
0.536396
0.298006
0.353623
0.323449
0.535428
0.305255
0.317892
0.533155
0.516763
0.483991
0.533348
0.505918
0.540619
0.320361
0.492507
0.544694
0.420562
0.53441
0.538317
0.541565
0.364646
0.338178
0.550269
0.394873
0.478765
0.324197
0.502299
0.523481
0.317083
0.310131
0.513125
0.40181
0.54263
0.5367
0.313888
0.324376
0.532894
0.29876
0.323061
0.524888
0.510861
0.32234
0.527117
0.533056
0.502116
0.297806
0.464759
0.3211
0.527307
0.544214
0.540501
0.519306
0.533023
0.247579
0.282365
0.529213
0.318597
0.480124
0.319082
0.535712
0.332122
0.506762
0.544324
0.533007
0.325663
0.532911
0.532877
0.317457
0.502848
0.313768
0.553902
0.325548
0.298731
0.313359
0.526103
0.529664