# vtk DataFile Version 1.0
unstructured grid
ascii
DATASET UNSTRUCTURED_GRID
points 13672 float
0.0796578 -0.059106 0
0.00128732 0.00159165 0
0.00227961 -0.00102548 0
0.0791586 -0.0598787 0
-0.0546216 0.01 0
0.000495206 0.025 0
0.0800549 -0.035 0
0.135172 -0.08 0
-0.0546216 -0.0451168 0
0.000495206 -0.0301168 0
0.0800549 -0.0901168 0
0.135172 -0.135117 0
-0.0546216 -0.0451168 -0.00551168
0.000495206 -0.0301168 -0.00551168
0.0800549 -0.0901168 -0.00551168
0.135172 -0.135117 -0.00551168
0.135172 -0.08 -0.00551168
0.0800549 -0.035 -0.00551168
0.000495206 0.025 -0.00551168
-0.0546216 0.01 -0.00551168
0.00128732 0.00159165 -0.00551168
0.00227961 -0.00102548 -0.00551168
0.0791586 -0.0598787 -0.00551168
0.0796578 -0.059106 -0.00551168
0.00165953 -0.000990923 0
0.00119576 -0.000874076 0
0.000866021 -0.000641801 0
0.000645147 -0.000349912 0
0.00052235 -1.7281e-05 0
0.00049972 0.000348016 0
0.000601632 0.000737716 0
0.000861774 0.0011403 0
0.00157235 0.00183217 0
0.00188647 0.00206725 0
0.00222612 0.00230203 0
0.00258713 0.00254351 0
0.00296826 0.00279524 0
0.00337118 0.00305664 0
0.00379785 0.00332658 0
0.00425045 0.00360349 0
0.00473139 0.00388521 0
0.0052432 0.00416895 0
0.0057881 0.00445204 0
0.00636753 0.00473281 0
0.00698281 0.00500961 0
0.00763526 0.00528058 0
0.00832616 0.00554366 0
0.00905691 0.00579603 0
0.00982918 0.00603333 0
0.0106445 0.00625033 0
0.0115038 0.00644128 0
0.0124073 0.00660297 0
0.0133543 0.00673414 0
0.0143444 0.00683382 0
0.0153769 0.00690031 0
0.0164512 0.00693173 0
0.0175666 0.00692547 0
0.0187219 0.00687822 0
0.0199156 0.00678477 0
0.0211454 0.00663864 0
0.0224084 0.00643275 0
0.0237018 0.00616676 0
0.0250249 0.00584739 0
0.026375 0.00547298 0
0.0277479 0.00503752 0
0.0291386 0.00453545 0
0.0305433 0.0039653 0
0.0319572 0.0033256 0
0.0333681 0.00260019 0
0.034775 0.00179799 0
0.0361793 0.000930615 0
0.0375798 3.12222e-06 0
0.0389689 -0.000988429 0
0.0403357 -0.00205109 0
0.041675 -0.00318283 0
0.0429849 -0.00437751 0
0.0442643 -0.00562904 0
0.0455126 -0.00693089 0
0.0467314 -0.00827518 0
0.0479204 -0.00965638 0
0.0490661 -0.0110799 0
0.0501515 -0.0125519 0
0.0511696 -0.0140695 0
0.0521492 -0.0156071 0
0.0531202 -0.0171411 0
0.0540851 -0.0186663 0
0.0550431 -0.0201798 0
0.0559923 -0.0216793 0
0.0569311 -0.0231626 0
0.0578582 -0.0246273 0
0.0587723 -0.0260715 0
0.0596721 -0.027493 0
0.0605563 -0.02889 0
0.0614241 -0.0302609 0
0.0622742 -0.0316042 0
0.063106 -0.0329183 0
0.0639186 -0.034202 0
0.0647113 -0.0354543 0
0.0654835 -0.0366743 0
0.0662345 -0.0378613 0
0.0669642 -0.0390145 0
0.0676726 -0.0401333 0
0.0683597 -0.0412172 0
0.0690246 -0.0422665 0
0.0696662 -0.0432819 0
0.0702841 -0.0442636 0
0.0708793 -0.0452111 0
0.0714538 -0.0461237 0
0.072009 -0.047001 0
0.0725452 -0.0478434 0
0.0730611 -0.0486524 0
0.073556 -0.0494294 0
0.0740291 -0.0501756 0
0.0744812 -0.0508916 0
0.0749138 -0.0515773 0
0.0753285 -0.0522331 0
0.0757266 -0.0528592 0
0.076109 -0.0534564 0
0.0764753 -0.0540264 0
0.0768243 -0.054571 0
0.0771553 -0.0550919 0
0.0774679 -0.0555901 0
0.0777617 -0.0560669 0
0.0780369 -0.056523 0
0.0782958 -0.0569578 0
0.0785421 -0.0573703 0
0.0787786 -0.0577603 0
0.0790073 -0.0581279 0
0.0792295 -0.058474 0
0.0794462 -0.0587995 0
0.0798803 -0.0594162 0
0.0800272 -0.0596588 0
0.0800357 -0.0598891 0
0.0799275 -0.0600784 0
0.0797205 -0.0601773 0
0.0794593 -0.0601051 0
0.0789155 -0.0596491 0
0.0786707 -0.0593963 0
0.0784111 -0.0591319 0
0.0781372 -0.0588542 0
0.0778566 -0.0585548 0
0.0775715 -0.0582308 0
0.0772803 -0.0578828 0
0.0769832 -0.0575099 0
0.0766822 -0.0571097 0
0.0763801 -0.0566796 0
0.0760759 -0.0562196 0
0.0757623 -0.0557337 0
0.0754359 -0.0552232 0
0.0750951 -0.0546879 0
0.0747379 -0.054128 0
0.0743626 -0.0535435 0
0.0739688 -0.0529338 0
0.0735559 -0.0522981 0
0.0731238 -0.0516357 0
0.0726718 -0.050946 0
0.0721991 -0.0502288 0
0.0717046 -0.049484 0
0.0711872 -0.0487117 0
0.0706461 -0.047912 0
0.0700804 -0.0470849 0
0.0694892 -0.0462308 0
0.0688718 -0.0453499 0
0.0682271 -0.0444431 0
0.0675544 -0.043511 0
0.0668527 -0.0425546 0
0.0661215 -0.0415748 0
0.06536 -0.040573 0
0.0645676 -0.0395504 0
0.0637439 -0.0385087 0
0.0628887 -0.0374493 0
0.062002 -0.0363741 0
0.0610838 -0.0352847 0
0.0601345 -0.0341831 0
0.0591547 -0.033071 0
0.0581456 -0.0319502 0
0.0571083 -0.0308224 0
0.0560444 -0.0296893 0
0.0549562 -0.028552 0
0.053845 -0.0274126 0
0.0527113 -0.0262746 0
0.051554 -0.0251427 0
0.0503724 -0.0240222 0
0.0491675 -0.0229164 0
0.047941 -0.0218282 0
0.0466955 -0.0207597 0
0.0454337 -0.0197126 0
0.0441592 -0.0186878 0
0.0428751 -0.0176863 0
0.0415841 -0.0167097 0
0.0402878 -0.0157609 0
0.0389879 -0.0148428 0
0.0376864 -0.0139575 0
0.0363853 -0.013107 0
0.0350871 -0.0122931 0
0.0337942 -0.0115164 0
0.0325095 -0.0107772 0
0.0312357 -0.0100756 0
0.0299758 -0.00941024 0
0.0287337 -0.00877784 0
0.0275126 -0.00817571 0
0.0263139 -0.00760375 0
0.0251376 -0.00706528 0
0.0239829 -0.0065649 0
0.0228537 -0.00609619 0
0.0217522 -0.00565563 0
0.0206795 -0.00524226 0
0.0196364 -0.00485507 0
0.0186233 -0.00449318 0
0.0176408 -0.00415577 0
0.016689 -0.00384204 0
0.0157682 -0.00355115 0
0.0148783 -0.00328218 0
0.0140192 -0.00303468 0
0.0131906 -0.00280795 0
0.0123925 -0.00260016 0
0.0116246 -0.00241012 0
0.0108864 -0.00223769 0
0.0101774 -0.00208212 0
0.00949701 -0.00194206 0
0.00884483 -0.0018163 0
0.0082202 -0.0017039 0
0.00762247 -0.00160391 0
0.00705097 -0.00151528 0
0.006505 -0.00143697 0
0.0059838 -0.00136806 0
0.00548662 -0.00130772 0
0.00501265 -0.00125519 0
0.00456114 -0.00120954 0
0.00413136 -0.00116914 0
0.00372257 -0.00113251 0
0.00333398 -0.00109853 0
0.00296466 -0.00106798 0
0.00261363 -0.0010431 0
-0.052721 -0.0445996 0
-0.0508204 -0.0440823 0
-0.0489199 -0.0435651 0
-0.0470193 -0.0430478 0
-0.0451187 -0.0425306 0
-0.0432181 -0.0420134 0
-0.0413175 -0.0414961 0
-0.039417 -0.0409789 0
-0.0375164 -0.0404616 0
-0.0356158 -0.0399444 0
-0.0337152 -0.0394271 0
-0.0318146 -0.0389099 0
-0.0299141 -0.0383927 0
-0.0280135 -0.0378754 0
-0.0261129 -0.0373582 0
-0.0242123 -0.0368409 0
-0.0223117 -0.0363237 0
-0.0204112 -0.0358065 0
-0.0185106 -0.0352892 0
-0.01661 -0.034772 0
-0.0147094 -0.0342547 0
-0.0128088 -0.0337375 0
-0.0109083 -0.0332202 0
-0.00900769 -0.032703 0
-0.00710711 -0.0321858 0
-0.00520653 -0.0316685 0
-0.00330595 -0.0311513 0
-0.00140537 -0.030634 0
0.00190689 -0.0299614 0
0.00332271 -0.0298498 0
0.00474133 -0.0297825 0
0.00616136 -0.0297597 0
0.0075814 -0.0297814 0
0.00900007 -0.0298477 0
0.010416 -0.0299583 0
0.0118278 -0.0301127 0
0.0132342 -0.0303103 0
0.0146339 -0.0305504 0
0.0160259 -0.0308322 0
0.0174091 -0.0311546 0
0.0187824 -0.0315166 0
0.020145 -0.031917 0
0.0214961 -0.0323546 0
0.0228351 -0.032828 0
0.0241613 -0.0333361 0
0.0254744 -0.0338774 0
0.0267738 -0.0344507 0
0.0280592 -0.0350545 0
0.0293306 -0.0356877 0
0.0305875 -0.0363488 0
0.0318301 -0.0370367 0
0.0330581 -0.0377501 0
0.0342717 -0.0384879 0
0.0354708 -0.0392489 0
0.0366556 -0.0400321 0
0.0378262 -0.0408363 0
0.0389828 -0.0416607 0
0.0401254 -0.0425042 0
0.0412543 -0.0433659 0
0.0423698 -0.0442451 0
0.043472 -0.0451408 0
0.0445612 -0.0460523 0
0.0456375 -0.0469789 0
0.0467013 -0.0479199 0
0.0477529 -0.0488746 0
0.0487923 -0.0498424 0
0.04982 -0.0508227 0
0.0508362 -0.051815 0
0.051841 -0.0528187 0
0.0528348 -0.0538333 0
0.0538178 -0.0548584 0
0.0547903 -0.0558935 0
0.0557524 -0.0569382 0
0.0567045 -0.0579922 0
0.0576467 -0.0590549 0
0.0585792 -0.0601261 0
0.0595024 -0.0612055 0
0.0604163 -0.0622926 0
0.0613212 -0.0633873 0
0.0622174 -0.0644891 0
0.0631049 -0.0655979 0
0.0639841 -0.0667134 0
0.064855 -0.0678353 0
0.0657179 -0.0689633 0
0.0665729 -0.0700974 0
0.0674202 -0.0712372 0
0.06826 -0.0723826 0
0.0690925 -0.0735333 0
0.0699178 -0.0746892 0
0.070736 -0.0758501 0
0.0715473 -0.0770159 0
0.0723518 -0.0781863 0
0.0731498 -0.0793612 0
0.0739412 -0.0805405 0
0.0747264 -0.081724 0
0.0755053 -0.0829116 0
0.0762781 -0.0841033 0
0.0770449 -0.0852987 0
0.0778059 -0.0864979 0
0.0785611 -0.0877007 0
0.0793108 -0.088907 0
0.0814681 -0.0912706 0
0.0828814 -0.0924245 0
0.0842946 -0.0935783 0
0.0857079 -0.0947322 0
0.0871211 -0.095886 0
0.0885344 -0.0970399 0
0.0899476 -0.0981937 0
0.0913609 -0.0993476 0
0.0927741 -0.100501 0
0.0941874 -0.101655 0
0.0956006 -0.102809 0
0.0970139 -0.103963 0
0.0984272 -0.105117 0
0.0998404 -0.106271 0
0.101254 -0.107424 0
0.102667 -0.108578 0
0.10408 -0.109732 0
0.105493 -0.110886 0
0.106907 -0.11204 0
0.10832 -0.113194 0
0.109733 -0.114348 0
0.111146 -0.115501 0
0.11256 -0.116655 0
0.113973 -0.117809 0
0.115386 -0.118963 0
0.116799 -0.120117 0
0.118213 -0.121271 0
0.119626 -0.122424 0
0.121039 -0.123578 0
0.122452 -0.124732 0
0.123866 -0.125886 0
0.125279 -0.12704 0
0.126692 -0.128194 0
0.128105 -0.129348 0
0.129519 -0.130501 0
0.130932 -0.131655 0
0.132345 -0.132809 0
0.133758 -0.133963 0
0.135172 -0.133216 0
0.135172 -0.131316 0
0.135172 -0.129415 0
0.135172 -0.127514 0
0.135172 -0.125614 0
0.135172 -0.123713 0
0.135172 -0.121813 0
0.135172 -0.119912 0
0.135172 -0.118012 0
0.135172 -0.116111 0
0.135172 -0.11421 0
0.135172 -0.11231 0
0.135172 -0.110409 0
0.135172 -0.108509 0
0.135172 -0.106608 0
0.135172 -0.104708 0
0.135172 -0.102807 0
0.135172 -0.100906 0
0.135172 -0.0990058 0
0.135172 -0.0971052 0
0.135172 -0.0952046 0
0.135172 -0.0933041 0
0.135172 -0.0914035 0
0.135172 -0.0895029 0
0.135172 -0.0876023 0
0.135172 -0.0857017 0
0.135172 -0.0838012 0
0.135172 -0.0819006 0
0.133758 -0.0788462 0
0.132345 -0.0776923 0
0.130932 -0.0765385 0
0.129519 -0.0753846 0
0.128105 -0.0742308 0
0.126692 -0.0730769 0
0.125279 -0.0719231 0
0.123866 -0.0707692 0
0.122452 -0.0696154 0
0.121039 -0.0684615 0
0.119626 -0.0673077 0
0.118213 -0.0661538 0
0.116799 -0.065 0
0.115386 -0.0638462 0
0.113973 -0.0626923 0
0.11256 -0.0615385 0
0.111146 -0.0603846 0
0.109733 -0.0592308 0
0.10832 -0.0580769 0
0.106907 -0.0569231 0
0.105493 -0.0557692 0
0.10408 -0.0546154 0
0.102667 -0.0534615 0
0.101254 -0.0523077 0
0.0998404 -0.0511538 0
0.0984272 -0.05 0
0.0970139 -0.0488462 0
0.0956006 -0.0476923 0
[...]
CELL_DATA 13116
SCALARS rho float
LOOKUP_TABLE default
0.427441
0.514934
0.292664
0.556065
0.54677
0.533899
0.319597
0.549753
0.410685
0.550586
0.318357
0.29534
0.547012
0.329403
0.317458
0.533954
0.402352
0.543224
0.531835
0.327387
0.431492
0.325403
0.326273
0.544734
0.474598
0.494957
0.550621
0.328391
0.473663
0.503445
0.53341
0.325861
0.432829
0.349407
0.317999
0.429569
0.518208
0.52699
0.533778
0.534154
0.533092
0.552548
0.331269
0.289656
0.530656
0.531681
0.496831
0.534398
0.320776
0.407765
0.545705
0.344681
0.321236
0.396693
0.431736
0.455895
0.29245
0.54197
0.418179
0.317339
0.329904
0.551849
0.507313
0.533757
0.533501
0.332875
0.535719
0.523619
0.536538
0.533529
0.320301
0.457324
0.321933
0.324679
0.53332
0.30519
0.501259
0.542716
0.320268
0.540782
0.528726
0.499425
0.544798
0.53404
0.523094
0.351466
0.326351
0.521454
0.518926
0.324038
0.310118
0.516359
0.546842
0.523361
0.505829
0.466144
0.476619
0.533493
0.533333
0.466432
0.529203
0.458269
0.53266
0.313677
0.482827
0.333297
0.281308
0.36847
0.328646
0.48171
0.391089
0.494209
0.464677
0.531563
0.541277
0.535887
0.328994
0.302953
0.539969
0.536937
0.523947
0.319999
0.536847
0.336686
0.518432
0.342538
0.326809
0.397714
0.322362
0.40906
0.5402
0.533765
0.392742
0.326266
0.377163
0.455076
0.53327
0.538851
0.528489
0.536715
0.488125
0.499575
0.396448
0.488821
0.503156
0.325234
0.31861
0.49265
0.544811
0.542521
0.424631
0.533584
0.53436
0.311419
0.54778
0.524253
0.325561
0.533688
0.533496
0.521707
0.544015
0.31832
0.543472
0.325792
0.316196
0.550274
0.516079
0.54284
0.318284
0.363411
0.330075
0.533233
0.319255
0.384433
0.535156
0.327358
0.321617
0.323093
0.490887
0.533607
0.304907
0.337589
0.407224
0.518566
0.533639
0.416322
0.297887
0.532905
0.472819
0.360289
0.495984
0.490861
0.533516
0.329037
0.486576
0.533918
0.548022
0.532548
0.517831
0.317614
0.313298
0.485774
0.393553
0.327993
0.54067
0.530167
0.351572
0.474276
0.327032
0.323643
0.302627
0.534767
0.32489
0.325507
0.323382
0.310713
0.286184
0.533343
0.515751
0.341118
0.292021
0.535558
0.386198
0.305831
0.434239
0.551071
0.50121
0.332244
0.535295
0.306654
0.556359
0.315085
0.533485
0.44941
0.533471
0.528458
0.533537
0.315285
0.33666
0.521679
0.533365
0.533834
0.533288
0.533362
0.544269
0.323246
0.541851
0.548448
0.533322
0.322239
0.322289
0.531499
0.539485
0.533457
0.536437
0.416331
0.533933
0.317948
0.328703
0.309488
0.327653
0.468798
0.54784
0.500229
0.322711
0.5294
0.318338
0.339127
0.484589
0.320022
0.496029
0.548753
0.533317
0.541708
0.315723
0.533308
0.532878
0.533324
0.538721
0.317901
0.327994
0.327693
0.451211
0.319902
0.326191
0.260601
0.247552
0.522046
0.322083
0.523366
0.547525
0.302264
0.319289
0.318994
0.354316
0.289553
0.520352
0.456789
0.489054
0.320156
0.534493
0.459548
0.328971
0.3178
0.533661
0.539457
0.532652
0.296638
0.53397
0.322915
0.533205
0.552362
0.541141
0.551465
0.329951
0.535295
0.325891
0.533561
0.551349
0.522338
0.322203
0.260358
0.548924
0.331028
0.508665
0.551778
0.285713
0.536127
0.54455
0.326402
0.529209
0.546755
0.321204
0.541435
0.352795
0.449992
0.533453
0.358041
0.533937
0.323684
0.542959
0.269787
0.533362
0.451984
0.548979
0.332303
0.280086
0.524198
0.314946
0.540012
0.477997
0.329625
0.533274
0.305957
0.317571
0.538123
0.434421
0.522386
0.328187
0.325266
0.54172
0.547334
0.318541
0.546448
0.332338
0.332102
0.535523
0.537024
0.357516
0.321727
0.538805
0.533492
0.534018
0.52816
0.541453
0.424758
0.257763
0.324973
0.301893
0.534006
0.302636
0.405574
0.289524
0.318069
0.275386
0.365413
0.110403
0.315655
0.524921
0.259968
0.544091
0.473322
0.533058
0.515029
0.542387
0.317643
0.327192
0.322286
0.265023
0.537874
0.461368
0.532919
0.473804
0.504488
0.483096
0.497854
0.484826
0.501199
0.54037
0.540358
0.533792
0.314188
0.357925
0.42423
0.323619
0.45376
0.454559
0.32313
0.535663
0.533352
0.330522
0.324891
0.323779
0.300489
0.49346
0.320999
0.329006
0.535029
0.325829
0.449094
0.324417
0.533517
0.528463
0.286639
0.326655
0.537696
0.355535
0.323971
0.298554
0.319737
0.32847
0.328438
0.325232
0.325548
0.338937
0.319771
0.455486
0.307332
0.522432
0.297764
0.357502
0.39503
0.332793
0.323646
0.329704
0.531813
0.343429
0.501031
0.37043
0.330089
0.476273
0.520794
0.350837
0.535769
0.48403
0.482881
0.327736
0.533471
0.304662
0.542254
0.533395
0.325936
0.324748
0.471545
0.267469
0.35923
0.454411
0.280504
0.532927
0.505496
0.303193
0.318944
0.31921
0.380948
0.316526
0.321838
0.31917
0.326322
0.552939
0.553467
0.359437
0.468917
0.376526
0.486341
0.275438
0.320589
0.414246
0.326213
0.533473
0.231093
0.291379
0.389477
0.530101
0.512275
0.439373
0.284346
0.324641
0.446677
0.549872
0.533636
0.443736
0.486424
0.467766
0.321796
0.527654
0.445882
0.520765
0.24321
0.292123
0.530783
0.548263
0.514174
0.551331
0.513675
0.494975
0.543078
0.521123
0.533017
0.312437
0.529887
0.26662
0.326272
0.325648
0.554945
0.530616
0.242731
0.522371
0.486845
0.322504
0.533459
0.538931
0.537543
0.327976
0.320517
0.541321
0.323861
0.30795
0.31048
0.322599
0.531573
0.322659
0.554933
0.307834
0.515449
0.544688
0.535785
0.547461
0.323488
0.303787
0.53194
0.557264
0.510444
0.552661
0.54823
0.39108
0.325965
0.328317
0.534138
0.412407
0.323372
0.355328
0.314556
0.532285
0.533325
0.243239
0.325328
0.520732
0.365832
0.525541
0.516285
0.320787
0.307347
0.507136
0.533376
0.326784
0.51134
0.515777
0.531392
0.31275
0.533246
0.3013
0.533454
0.519775
0.320144
0.285531
0.325804
0.533406
0.324581
0.31933
0.303364
0.533471
0.53589
0.320251
0.324537
0.323572
0.533593
0.321853
0.533818
0.325422
0.460372
0.551108
0.300229
0.325889
0.325705
0.391443
0.330804
0.503616
0.296082
0.321608
0.533476
0.320675
0.534611
0.505541
0.533471
0.301631
0.53404
0.54582
0.547731
0.534246
0.519569
0.535366
0.323305
0.533621
0.342951
0.529016
0.318487
0.544979
0.394657
0.318904
0.53339
0.543234
0.319577
0.487258
0.308639
0.319527
0.534974
0.531522
0.303596
0.323692
0.320742
0.330661
0.529624
0.544884
0.31391
0.299417
0.539978
0.538678
0.461819
0.545369
0.533396
0.318817
0.549075
0.334864
0.545565
0.303801
0.464543
0.378919
0.535135
0.523367
0.452666
0.268338
0.331238
0.532322
0.474132
0.401406
0.544956
0.327644
0.531416
0.547437
0.287129
0.355942
0.546221
0.283792
0.533396
0.522457
0.256832
0.537705
0.504417
0.305924
0.534853
0.327281
0.516534
0.298646
0.534661
0.505832
0.333721
0.533758
0.543879
0.541956
0.487801
0.528964
0.457907
0.318558
0.325001
0.29733
0.327221
0.533194
0.436621
0.537458
0.544294
0.306486
0.321227
0.53218
0.551813
0.538073
0.548803
0.321371
0.540509
0.548352
0.32654
0.308439
0.540119
0.531459
0.519857
0.324376
0.464185
0.297808
0.53412
0.503841
0.533638
0.521161
0.323419
0.528573
0.523263
0.546004
0.530567
0.533443
0.339548
0.541154
0.323595
0.485739
0.54949
0.363076
0.506698
0.53366
0.544265
0.313243
0.314702
0.458808
0.508914
0.325536
0.323897
0.316189
0.319929
0.516906
0.531057
0.533355
0.246985
0.31913
0.536385
0.532597
0.322294
0.322221
0.364453
0.517292
0.53262
0.527615
0.538414
0.323525
0.326387
0.533261
0.33434
0.319024
0.298841
0.532989
0.307397
0.323437
0.449852
0.530545
0.490939
0.533868
0.532976
0.330877
0.319346
0.316549
0.369891
0.343034
0.313855
0.522456
0.53802
0.516439
0.534118
0.333665
0.299478
0.551088
0.326696
0.533401
0.505417
0.533512
0.303589
0.317796
0.511939
0.533339
0.43664
0.320971
0.524835
0.533915
0.4464
0.542664
0.548174
0.533281
0.486645
0.3219
0.533065
0.533345
0.479101
0.534401
0.533239
0.495484
0.533367
0.538136
0.321963
0.31696
0.30199
0.533526
0.393522
0.32746
0.532035
0.540423
0.29021
0.493327
0.283139
0.497373
0.364359
0.316627
0.55207
0.544392
0.324263
0.433293
0.533506
0.325008
0.52362
0.331894
0.333379
0.479804
0.474844
0.39494
0.532546
0.3158
0.543355
0.320349
0.31765
0.534562
0.323036
0.469857
0.317321
0.492618
0.46576
0.533352
0.51426
0.322661
0.321141
0.474107
0.332953
0.53779
0.357212
0.460349
0.533711
0.545807
0.344208
0.479556
0.48961
0.548291
0.536264
0.272544
0.319059
0.425202
0.487934
0.548739
0.294316
0.532579
0.43814
0.321904
0.30801
0.523598
0.517987
0.533324
0.533378
0.458654
0.53217
0.533631
0.524071
0.31739
0.514422
0.362403
0.53842
0.530963
0.241134
0.4991
0.54562
0.317624
0.318285
0.328321
0.533244
0.318764
0.47968
0.538505
0.51563
0.302877
0.524552
0.328297
0.463743
0.533718
0.533351
0.521094
0.533568
0.483094
0.527706
0.408604
0.528595
0.296963
0.533207
0.535677
0.317326
0.53339
0.532191
0.326555
0.324178
0.322986
0.541537
0.324239
0.53329
0.313077
0.549048
0.324665
0.379383
0.322342
0.541787
0.548137
0.414713
0.213455
0.482993
0.533357
0.316894
0.461009
0.553815
0.315374
0.458001
0.533331
0.550786
0.533544
0.324351
0.366344
0.539162
0.532339
0.486966
0.325342
0.312094
0.526478
0.533287
0.533371
0.533302
0.426894
0.534119
0.423179
0.536506
0.325107
0.327662
0.533311
0.545835
0.533494
0.330743
0.533139
0.432952
0.466456
0.30438
0.328284
0.546758
0.557977
0.435245
0.263279
0.533581
0.533408
0.31863
0.476779
0.538228
0.318278
0.354434
0.323868
0.472211
0.324624
0.310928
0.528367
0.363339
0.548979
0.498118
0.318935
0.32745
0.551677
0.315875
0.321601
0.53334
0.329946
0.276371
0.460991
0.515846
0.534109
0.319108
0.254091
0.319077
0.506721
0.332621
0.534677
0.318338
0.532758
0.488236
0.52973
0.491763
0.527458
0.502086
0.53276
0.547118
0.536945
0.321911
0.321051
0.521388
0.533699
0.399847
0.481808
0.436185
0.533665
0.477738
0.286562
0.53629
0.552997
0.527193
0.322587
0.529251
0.302293
0.533991
0.393683
0.541093
0.53423
0.316439
0.537789
0.324413
0.333396
0.508321
0.297859
0.533375
0.533277
0.538408
0.301252
0.534972
0.321243
0.303833
0.317199
0.322871
0.471202
0.320402
0.491044
0.533645
0.265978
0.329176
0.385811
0.455978
0.492627
0.488522
0.303995
0.333544
0.318499
0.322384
0.212553
0.492182
0.498376
0.326666
0.533346
0.538083
0.323964
0.552935
0.532039
0.533668
0.323198
0.533328
0.52787
0.54139
0.538429
0.316114
0.535143
0.542802
0.52977
0.524294
0.533291
0.324508
0.322139
0.533832
0.423838
0.319
0.534443
0.327832
0.44951
0.487035
0.514783
0.517957
0.305965
0.48033
0.311891
0.322692
0.53679
0.541543
0.544838
0.541361
0.511694
0.304115
0.548177
0.321339
0.398986
0.549821
0.533344
0.538757
0.322628
0.323603
0.549053
0.323072
0.540819
0.508678
0.337113
0.32281
0.535508
0.319262
0.534171
0.540408
0.50915
0.31886
0.316614
0.395079
0.403245
0.483034
0.369901
0.53336
0.488536
0.524638
0.533189
0.533502
0.323208
0.324602
0.542403
0.533289
0.484352
0.36328
0.32811
0.52529
0.320181
0.533294
0.48335
0.261032
0.537434
0.320029
0.507139
0.294965
0.545578
0.31514
0.53312
0.533597
0.277766
0.520589
0.508463
0.267259
0.533355
0.531728
0.434644
0.332552
0.286857
0.364699
0.546253
0.47066
0.318635
0.46063
0.535484
0.533516
0.294941
0.473783
0.51994
0.365517
0.533342
0.533652
0.235397
0.536698
0.533336
0.292878
0.465345
0.302086
0.495622
0.31025
0.332921
0.547916
0.3173
0.323079
0.322877
0.535389
0.512761
0.316474
0.533475
0.283722
0.516429
0.321252
0.515818
0.290075
0.533749
0.53417
0.502409
0.533475
0.436227
0.533621
0.533643
0.292105
0.499689
0.50667
0.377669
0.532985
0.390487
0.316175
0.547912
0.308326
0.448074
0.279227
0.532842
0.32192
0.328875
0.544481
0.533031
0.304338
0.537524
0.538114
0.533226
0.548444
0.533417
0.321868
0.55232
0.324204
0.325193
0.520095
0.539269
0.551859
0.522602
0.313887
0.309573
0.318343
0.51616
0.533604
0.285925
0.524575
0.333576
0.307138
0.304944
0.52132
0.304081
0.54953
0.537263
0.498833
0.530764
0.536325
0.446607
0.496878
0.344595
0.330448
0.304519
0.53341
0.533367
0.330752
0.491703
0.469849
0.498337
0.324621
0.31073
0.491634
0.220681
0.486081
0.462117
0.326044
0.533448
0.518349
0.327645
0.533564
0.320812
0.537263
0.549774
0.527864
0.321327
0.372851
0.532164
0.238875
0.352032
0.530781
0.245607
0.533453
0.53619
0.495624
0.538411
0.260731
0.533425
0.536267
0.532246
0.287904
0.542844
0.322392
0.330769
0.524045
0.532806
0.533445
0.187287
0.534471
0.499421
0.533325
0.334441
0.330315
0.32371
0.540107
0.318692
0.319463
0.305874
0.460393
0.319145
0.242056
0.350936
0.534642
0.325834
0.533435
0.533567
0.533804
0.300375
0.535924
0.51207
0.533348
0.329683
0.522507
0.318888
0.309871
0.534872
0.319333
0.488354
0.534468
0.53334
0.321111
0.260576
0.319811
0.442581
0.533306
0.185366
0.527628
0.535281
0.53936
0.324214
0.322041
0.272664
0.46992
0.325083
0.533259
0.47727
0.533594
0.527333
0.318914
0.488683
0.32179
0.437574
0.510136
0.551643
0.443555
0.373003
0.522247
0.487473
0.543165
0.305926
0.293005
0.313373
0.540623
0.416994
0.533352
0.325013
0.314467
0.541379
0.535692
0.53335
0.318566
0.534429
0.441215
0.443583
0.472777
0.329551
0.32233
0.234238
0.532828
0.533685
0.523085
0.484591
0.271732
0.539211
0.517441
0.533687
0.533342
0.539058
0.552801
0.533983
0.538177
0.544356
0.325109
0.537356
0.54213
0.533182
0.5386
0.532491
0.450244
0.324338
0.333287
0.482027
0.322926
0.263521
0.533742
0.320832
0.501891
0.536044
0.513023
0.527834
0.326639
0.535204
0.314211
0.329162
0.534036
0.533443
0.534247
0.296489
0.545646
0.532654
0.47989
0.532763
0.324072
0.533211
0.549387
0.518632
0.318333
0.542347
0.321557
0.557568
0.301007
0.324441
0.40709
0.354492
0.551947
0.542683
0.533569
0.307116
0.533243
0.318166
0.320669
0.508614
0.388923
0.324768
0.533021
0.321148
0.406768
0.522548
0.496559
0.517246
0.387946
0.470591
0.513756
0.533852
0.448114
0.544827
0.422684
0.553249
0.481262
0.50716
0.332586
0.320201
0.35398
0.541375
0.32599
0.520649
0.53784
0.471507
0.533911
0.405109
0.532609
0.525295
0.323983
0.536919
0.476599
0.381912
0.479471
0.548887
0.504879
0.533476
0.323698
0.322372
0.529656
0.419413
0.424944
0.538657
0.533615
0.533887
0.548311
0.549462
0.48545
0.486343
0.551595
0.320041
0.322039
0.322367
0.296721
0.533367
0.3617
0.42011
0.53716
0.52924
0.325716
0.528667
0.556213
0.295511
0.296154
0.533297
0.538688
0.330646
0.307012
0.312775
0.533217
0.494313
0.32169
0.323414
0.326368
0.331071
0.272561
0.321913
0.554309
0.53433
0.530629
0.308331
0.513937
0.47357
0.4815
0.293529
0.324768
0.506944
0.533312
0.323806
0.533547
0.327656
0.544156
0.325937
0.533221
0.298661
0.517112
0.547492
0.303462
0.444971
0.319923
0.552604
0.330214
0.476658
0.328012
0.397504
0.31991
0.469633
0.317039
0.533456
0.533455
0.479783
0.526574
0.282613
0.516122
0.533342
0.546446
0.471619
0.517186
0.325264
0.305626
0.328327
0.546807
0.230054
0.545329
0.43103
0.539054
0.550738
0.359935
0.541019
0.320987
0.331402
0.31946
0.401202
0.405457
0.532979
0.319094
0.326332
0.534412
0.300881
0.317968
0.431914
0.291535
0.323687
0.333964
0.553547
0.514792
0.480284
0.326788
0.513387
0.532969
0.331282
0.256701
0.52354
0.533136
0.440331
0.409307
0.327058
0.287206
0.311857
0.530062
0.478406
0.410127
0.53497
0.323967
0.44611
0.319746
0.533427
0.545362
0.325851
0.325856
0.483886
0.426404
0.547201
0.544339
0.546604
0.538012
0.54991
0.307671
0.323753
0.310109
0.317876
0.421201
0.533465
0.516189
0.31905
0.300439
0.35456
0.354792
0.533798
0.495647
0.32302
0.243312
0.536018
0.327564
0.51266
0.542851
0.508985
0.533296
0.430812
0.315722
0.301517
0.481754
0.326097
0.328963
0.315863
0.533473
0.532509
0.284331
0.32586
0.533221
0.315914
0.53419
0.546833
0.315147
0.318281
0.325287
0.535709
0.328984
0.533271
0.534909
0.471861
0.302412
0.420195
0.542152
0.525467
0.321403
0.522971
0.483756
0.369166
0.539526
0.556801
0.322051
0.31643
0.511033
0.320412
0.318316
0.519322
0.274683
0.533162
0.532941
0.546196
0.489678
0.545634
0.535899
0.533724
0.318261
0.326419
0.492711
0.531706
0.372639
0.552655
0.256876
0.537887
0.518561
0.447331
0.508963
0.306222
0.361286
0.529374
0.543037
0.478582
0.547766
0.534991
0.533265
0.547594
0.533208
0.521447
0.510721
0.535662
0.533324
0.533726
0.28049
0.501999
0.29115
0.535192
0.537475
0.54003
0.500969
0.538006
0.317091
0.316609
0.242474
0.321184
0.507189
0.313351
0.323146
0.529875
0.324149
0.537637
0.312465
0.519539
0.535521
0.315604
0.303124
0.257128
0.540478
0.324474
0.532363
0.537516
0.319276
0.504704
0.439284
0.272941
0.329041
0.324249
0.538869
0.316479
0.536083
0.402202
0.320392
0.531855
0.533119
0.546572
0.327371
0.45102
0.324619
0.515506
0.53369
0.535829
0.323227
0.53089
0.538769
0.489515
0.320826
0.540363
0.328753
0.321209
0.529576
0.357863
0.54971
0.315289
0.323323
0.352539
0.496445
0.32611
0.231187
0.300096
0.376608
0.533316
0.537009
0.329047
0.468606
0.535086
0.443594
0.329986
0.258889
0.441178
0.327498
0.319988
0.530171
0.32186
0.326037
0.542672
0.554366
0.295411
0.542084
0.309126
0.533283
0.326736
0.509904
0.533579
0.53905
0.533483
0.321853
0.319957
0.320454
0.533774
0.512562
0.468618
0.426715
0.294991
0.240924
0.533339
0.318533
0.533573
0.303935
0.533594
0.524785
0.295889
0.289372
0.323077
0.326052
0.290428
0.482754
0.509287
0.299016
0.536595
0.49997
0.315269
0.319663
0.55427
0.324629
0.535217
0.339563
0.538709
0.513692
0.535841
0.533338
0.322221
0.549492
0.533739
0.555723
0.319914
0.475909
0.47361
0.260602
0.541374
0.499542
0.548958
0.514166
0.549955
0.528407
0.551247
0.533163
0.531929
0.308652
0.545767
0.323286
0.361012
0.530535
0.322327
0.521017
0.475281
0.325696
0.4907
0.317591
0.310905
0.523346
0.467304
0.553943
0.323943
0.513922
0.487304
0.317182
0.305619
0.509447
0.533085
0.299605
0.306525
0.537979
0.553753
0.310946
0.503553
0.548243
0.517043
0.296979
0.328981
0.314784
0.51492
0.312823
0.523566
0.540613
0.533363
0.473676
0.535793
0.324341
0.519344
0.487176
0.547314
0.441026
0.325529
0.318378
0.330518
0.544603
0.538453
0.337456
0.511978
0.250211
0.503866
0.536743
0.327867
0.482795
0.524425
0.488535
0.306743
0.326343
0.290167
0.540077
0.549621
0.485282
0.408868
0.535783
0.324395
0.497642
0.533319
0.53107
0.306557
0.495158
0.325892
0.481333
0.332435
0.530941
0.523378
0.327058
0.539846
0.334806
0.533317
0.500767
0.533245
0.540568
0.325606
0.53336
0.533402
0.533227
0.531691
0.384366
0.533311
0.324357
0.533552
0.328528
0.300154
0.325895
0.289651
0.326164
0.302557
0.550251
0.290861
0.319068
0.51533
0.540228
0.511196
0.322468
0.535032
0.534317
0.53331
0.274225
0.452468
0.53567
0.319166
0.302998
0.319395
0.492925
0.404344
0.313736
0.458428
0.333655
0.533421
0.398872
0.327022
0.375879
0.5101
0.285866
0.533421
0.322496
0.368522
0.297408
0.532549
0.303933
0.510589
0.533313
0.462995
0.32826
0.321188
0.527196
0.552896
0.306957
0.303798
0.533665
0.320323
0.541982
0.309794
0.442752
0.331087
0.535809
0.323189
0.551782
0.299853
0.536555
0.536559
0.543685
0.533386
0.326247
0.325979
0.322164
0.497696
0.529161
0.495167
0.407633
0.326838
0.539867
0.262549
0.510459
0.455843
0.315656
0.324599
0.543951
0.530768
0.326816
0.533447
0.531111
0.5439
0.546207
0.322309
0.499688
0.324632
0.543981
0.314222
0.533437
0.505549
0.513573
0.552261
0.315976
0.557316
0.318135
0.322679
0.534092
0.533397
0.431651
0.530351
0.533353
0.323833
0.543603
0.529647
0.549777
0.304785
0.338075
0.531845
0.315772
0.53823
0.537572
0.523186
0.534917
0.2281
0.353591
0.509946
0.326441
0.518471
0.553375
0.372872
0.520646
0.215675
0.483536
0.543812
0.530633
0.520869
0.324756
0.330119
0.533203
0.521437
0.325678
0.262896
0.322344
0.325974
0.319421
0.333534
0.287187
0.320611
0.532659
0.32687
0.293251
0.537115
0.43008
0.533225
0.313925
0.325171
0.535491
0.369211
0.373866
0.54808
0.293901
0.518625
0.533605
0.481425
0.51761
0.319172
0.537322
0.533714
0.319502
0.320329
0.316253
0.472597
0.480791
0.549817
0.534022
0.531755
0.52051
0.292841
0.538174
0.533721
0.50902
0.323739
0.536206
0.449537
0.287371
0.342759
0.321876
0.3216
0.322529
0.464729
0.523569
0.522418
0.320021
0.308869
0.548174
0.282416
0.537612
0.533401
0.523489
0.530855
0.535494
0.319407
0.323762
0.334034
0.445069
0.318306
0.534526
0.319361
0.534817
0.533454
0.53708
0.29837
0.354532
0.32441
0.536176
0.306106
0.319113
0.533495
0.517365
0.484994
0.53388
0.505098
0.541587
0.321759
0.493478
0.545664
0.42153
0.535146
0.539225
0.542536
0.365552
0.339021
0.550907
0.395813
0.479798
0.323114
0.50298
0.523885
0.31797
0.312094
0.513806
0.402781
0.543561
0.537585
0.317028
0.327188
0.533342
0.299802
0.324445
0.525247
0.510312
0.324291
0.5276
0.533503
0.502538
0.299814
0.465774
0.322819
0.52765
0.545107
0.541468
0.520088
0.533478
0.248599
0.283527
0.53003
0.320096
0.481104
0.321505
0.536411
0.331243
0.507728
0.545293
0.533455
0.323031
0.533257
0.533304
0.319712
0.503548
0.314511
0.554547
0.323265
0.298912
0.315285
0.526984
0.530159
0.257027