# vtk DataFile Version 1.0
unstructured grid
ascii
DATASET UNSTRUCTURED_GRID
points 13672 float
0.0796578 -0.059106 0
0.00128732 0.00159165 0
0.00227961 -0.00102548 0
0.0791586 -0.0598787 0
-0.0546216 0.01 0
0.000495206 0.025 0
0.0800549 -0.035 0
0.135172 -0.08 0
-0.0546216 -0.0451168 0
0.000495206 -0.0301168 0
0.0800549 -0.0901168 0
0.135172 -0.135117 0
-0.0546216 -0.0451168 -0.00551168
0.000495206 -0.0301168 -0.00551168
0.0800549 -0.0901168 -0.00551168
0.135172 -0.135117 -0.00551168
0.135172 -0.08 -0.00551168
0.0800549 -0.035 -0.00551168
0.000495206 0.025 -0.00551168
-0.0546216 0.01 -0.00551168
0.00128732 0.00159165 -0.00551168
0.00227961 -0.00102548 -0.00551168
0.0791586 -0.0598787 -0.00551168
0.0796578 -0.059106 -0.00551168
0.00165953 -0.000990923 0
0.00119576 -0.000874076 0
0.000866021 -0.000641801 0
0.000645147 -0.000349912 0
0.00052235 -1.7281e-05 0
0.00049972 0.000348016 0
0.000601632 0.000737716 0
0.000861774 0.0011403 0
0.00157235 0.00183217 0
0.00188647 0.00206725 0
0.00222612 0.00230203 0
0.00258713 0.00254351 0
0.00296826 0.00279524 0
0.00337118 0.00305664 0
0.00379785 0.00332658 0
0.00425045 0.00360349 0
0.00473139 0.00388521 0
0.0052432 0.00416895 0
0.0057881 0.00445204 0
0.00636753 0.00473281 0
0.00698281 0.00500961 0
0.00763526 0.00528058 0
0.00832616 0.00554366 0
0.00905691 0.00579603 0
0.00982918 0.00603333 0
0.0106445 0.00625033 0
0.0115038 0.00644128 0
0.0124073 0.00660297 0
0.0133543 0.00673414 0
0.0143444 0.00683382 0
0.0153769 0.00690031 0
0.0164512 0.00693173 0
0.0175666 0.00692547 0
0.0187219 0.00687822 0
0.0199156 0.00678477 0
0.0211454 0.00663864 0
0.0224084 0.00643275 0
0.0237018 0.00616676 0
0.0250249 0.00584739 0
0.026375 0.00547298 0
0.0277479 0.00503752 0
0.0291386 0.00453545 0
0.0305433 0.0039653 0
0.0319572 0.0033256 0
0.0333681 0.00260019 0
0.034775 0.00179799 0
0.0361793 0.000930615 0
0.0375798 3.12222e-06 0
0.0389689 -0.000988429 0
0.0403357 -0.00205109 0
0.041675 -0.00318283 0
0.0429849 -0.00437751 0
0.0442643 -0.00562904 0
0.0455126 -0.00693089 0
0.0467314 -0.00827518 0
0.0479204 -0.00965638 0
0.0490661 -0.0110799 0
0.0501515 -0.0125519 0
0.0511696 -0.0140695 0
0.0521492 -0.0156071 0
0.0531202 -0.0171411 0
0.0540851 -0.0186663 0
0.0550431 -0.0201798 0
0.0559923 -0.0216793 0
0.0569311 -0.0231626 0
0.0578582 -0.0246273 0
0.0587723 -0.0260715 0
0.0596721 -0.027493 0
0.0605563 -0.02889 0
0.0614241 -0.0302609 0
0.0622742 -0.0316042 0
0.063106 -0.0329183 0
0.0639186 -0.034202 0
0.0647113 -0.0354543 0
0.0654835 -0.0366743 0
0.0662345 -0.0378613 0
0.0669642 -0.0390145 0
0.0676726 -0.0401333 0
0.0683597 -0.0412172 0
0.0690246 -0.0422665 0
0.0696662 -0.0432819 0
0.0702841 -0.0442636 0
0.0708793 -0.0452111 0
0.0714538 -0.0461237 0
0.072009 -0.047001 0
0.0725452 -0.0478434 0
0.0730611 -0.0486524 0
0.073556 -0.0494294 0
0.0740291 -0.0501756 0
0.0744812 -0.0508916 0
0.0749138 -0.0515773 0
0.0753285 -0.0522331 0
0.0757266 -0.0528592 0
0.076109 -0.0534564 0
0.0764753 -0.0540264 0
0.0768243 -0.054571 0
0.0771553 -0.0550919 0
0.0774679 -0.0555901 0
0.0777617 -0.0560669 0
0.0780369 -0.056523 0
0.0782958 -0.0569578 0
0.0785421 -0.0573703 0
0.0787786 -0.0577603 0
0.0790073 -0.0581279 0
0.0792295 -0.058474 0
0.0794462 -0.0587995 0
0.0798803 -0.0594162 0
0.0800272 -0.0596588 0
0.0800357 -0.0598891 0
0.0799275 -0.0600784 0
0.0797205 -0.0601773 0
0.0794593 -0.0601051 0
0.0789155 -0.0596491 0
0.0786707 -0.0593963 0
0.0784111 -0.0591319 0
0.0781372 -0.0588542 0
0.0778566 -0.0585548 0
0.0775715 -0.0582308 0
0.0772803 -0.0578828 0
0.0769832 -0.0575099 0
0.0766822 -0.0571097 0
0.0763801 -0.0566796 0
0.0760759 -0.0562196 0
0.0757623 -0.0557337 0
0.0754359 -0.0552232 0
0.0750951 -0.0546879 0
0.0747379 -0.054128 0
0.0743626 -0.0535435 0
0.0739688 -0.0529338 0
0.0735559 -0.0522981 0
0.0731238 -0.0516357 0
0.0726718 -0.050946 0
0.0721991 -0.0502288 0
0.0717046 -0.049484 0
0.0711872 -0.0487117 0
0.0706461 -0.047912 0
0.0700804 -0.0470849 0
0.0694892 -0.0462308 0
0.0688718 -0.0453499 0
0.0682271 -0.0444431 0
0.0675544 -0.043511 0
0.0668527 -0.0425546 0
0.0661215 -0.0415748 0
0.06536 -0.040573 0
0.0645676 -0.0395504 0
0.0637439 -0.0385087 0
0.0628887 -0.0374493 0
0.062002 -0.0363741 0
0.0610838 -0.0352847 0
0.0601345 -0.0341831 0
0.0591547 -0.033071 0
0.0581456 -0.0319502 0
0.0571083 -0.0308224 0
0.0560444 -0.0296893 0
0.0549562 -0.028552 0
0.053845 -0.0274126 0
0.0527113 -0.0262746 0
0.051554 -0.0251427 0
0.0503724 -0.0240222 0
0.0491675 -0.0229164 0
0.047941 -0.0218282 0
0.0466955 -0.0207597 0
0.0454337 -0.0197126 0
0.0441592 -0.0186878 0
0.0428751 -0.0176863 0
0.0415841 -0.0167097 0
0.0402878 -0.0157609 0
0.0389879 -0.0148428 0
0.0376864 -0.0139575 0
0.0363853 -0.013107 0
0.0350871 -0.0122931 0
0.0337942 -0.0115164 0
0.0325095 -0.0107772 0
0.0312357 -0.0100756 0
0.0299758 -0.00941024 0
0.0287337 -0.00877784 0
0.0275126 -0.00817571 0
0.0263139 -0.00760375 0
0.0251376 -0.00706528 0
0.0239829 -0.0065649 0
0.0228537 -0.00609619 0
0.0217522 -0.00565563 0
0.0206795 -0.00524226 0
0.0196364 -0.00485507 0
0.0186233 -0.00449318 0
0.0176408 -0.00415577 0
0.016689 -0.00384204 0
0.0157682 -0.00355115 0
0.0148783 -0.00328218 0
0.0140192 -0.00303468 0
0.0131906 -0.00280795 0
0.0123925 -0.00260016 0
0.0116246 -0.00241012 0
0.0108864 -0.00223769 0
0.0101774 -0.00208212 0
0.00949701 -0.00194206 0
0.00884483 -0.0018163 0
0.0082202 -0.0017039 0
0.00762247 -0.00160391 0
0.00705097 -0.00151528 0
0.006505 -0.00143697 0
0.0059838 -0.00136806 0
0.00548662 -0.00130772 0
0.00501265 -0.00125519 0
0.00456114 -0.00120954 0
0.00413136 -0.00116914 0
0.00372257 -0.00113251 0
0.00333398 -0.00109853 0
0.00296466 -0.00106798 0
0.00261363 -0.0010431 0
-0.052721 -0.0445996 0
-0.0508204 -0.0440823 0
-0.0489199 -0.0435651 0
-0.0470193 -0.0430478 0
-0.0451187 -0.0425306 0
-0.0432181 -0.0420134 0
-0.0413175 -0.0414961 0
-0.039417 -0.0409789 0
-0.0375164 -0.0404616 0
-0.0356158 -0.0399444 0
-0.0337152 -0.0394271 0
-0.0318146 -0.0389099 0
-0.0299141 -0.0383927 0
-0.0280135 -0.0378754 0
-0.0261129 -0.0373582 0
-0.0242123 -0.0368409 0
-0.0223117 -0.0363237 0
-0.0204112 -0.0358065 0
-0.0185106 -0.0352892 0
-0.01661 -0.034772 0
-0.0147094 -0.0342547 0
-0.0128088 -0.0337375 0
-0.0109083 -0.0332202 0
-0.00900769 -0.032703 0
-0.00710711 -0.0321858 0
-0.00520653 -0.0316685 0
-0.00330595 -0.0311513 0
-0.00140537 -0.030634 0
0.00190689 -0.0299614 0
0.00332271 -0.0298498 0
0.00474133 -0.0297825 0
0.00616136 -0.0297597 0
0.0075814 -0.0297814 0
0.00900007 -0.0298477 0
0.010416 -0.0299583 0
0.0118278 -0.0301127 0
0.0132342 -0.0303103 0
0.0146339 -0.0305504 0
0.0160259 -0.0308322 0
0.0174091 -0.0311546 0
0.0187824 -0.0315166 0
0.020145 -0.031917 0
0.0214961 -0.0323546 0
0.0228351 -0.032828 0
0.0241613 -0.0333361 0
0.0254744 -0.0338774 0
0.0267738 -0.0344507 0
0.0280592 -0.0350545 0
0.0293306 -0.0356877 0
0.0305875 -0.0363488 0
0.0318301 -0.0370367 0
0.0330581 -0.0377501 0
0.0342717 -0.0384879 0
0.0354708 -0.0392489 0
0.0366556 -0.0400321 0
0.0378262 -0.0408363 0
0.0389828 -0.0416607 0
0.0401254 -0.0425042 0
0.0412543 -0.0433659 0
0.0423698 -0.0442451 0
0.043472 -0.0451408 0
0.0445612 -0.0460523 0
0.0456375 -0.0469789 0
0.0467013 -0.0479199 0
0.0477529 -0.0488746 0
0.0487923 -0.0498424 0
0.04982 -0.0508227 0
0.0508362 -0.051815 0
0.051841 -0.0528187 0
0.0528348 -0.0538333 0
0.0538178 -0.0548584 0
0.0547903 -0.0558935 0
0.0557524 -0.0569382 0
0.0567045 -0.0579922 0
0.0576467 -0.0590549 0
0.0585792 -0.0601261 0
0.0595024 -0.0612055 0
0.0604163 -0.0622926 0
0.0613212 -0.0633873 0
0.0622174 -0.0644891 0
0.0631049 -0.0655979 0
0.0639841 -0.0667134 0
0.064855 -0.0678353 0
0.0657179 -0.0689633 0
0.0665729 -0.0700974 0
0.0674202 -0.0712372 0
0.06826 -0.0723826 0
0.0690925 -0.0735333 0
0.0699178 -0.0746892 0
0.070736 -0.0758501 0
0.0715473 -0.0770159 0
0.0723518 -0.0781863 0
0.0731498 -0.0793612 0
0.0739412 -0.0805405 0
0.0747264 -0.081724 0
0.0755053 -0.0829116 0
0.0762781 -0.0841033 0
0.0770449 -0.0852987 0
0.0778059 -0.0864979 0
0.0785611 -0.0877007 0
0.0793108 -0.088907 0
0.0814681 -0.0912706 0
0.0828814 -0.0924245 0
0.0842946 -0.0935783 0
0.0857079 -0.0947322 0
0.0871211 -0.095886 0
0.0885344 -0.0970399 0
0.0899476 -0.0981937 0
0.0913609 -0.0993476 0
0.0927741 -0.100501 0
0.0941874 -0.101655 0
0.0956006 -0.102809 0
0.0970139 -0.103963 0
0.0984272 -0.105117 0
0.0998404 -0.106271 0
0.101254 -0.107424 0
0.102667 -0.108578 0
0.10408 -0.109732 0
0.105493 -0.110886 0
0.106907 -0.11204 0
0.10832 -0.113194 0
0.109733 -0.114348 0
0.111146 -0.115501 0
0.11256 -0.116655 0
0.113973 -0.117809 0
0.115386 -0.118963 0
0.116799 -0.120117 0
0.118213 -0.121271 0
0.119626 -0.122424 0
0.121039 -0.123578 0
0.122452 -0.124732 0
0.123866 -0.125886 0
0.125279 -0.12704 0
0.126692 -0.128194 0
0.128105 -0.129348 0
0.129519 -0.130501 0
0.130932 -0.131655 0
0.132345 -0.132809 0
0.133758 -0.133963 0
0.135172 -0.133216 0
0.135172 -0.131316 0
0.135172 -0.129415 0
0.135172 -0.127514 0
0.135172 -0.125614 0
0.135172 -0.123713 0
0.135172 -0.121813 0
0.135172 -0.119912 0
0.135172 -0.118012 0
0.135172 -0.116111 0
0.135172 -0.11421 0
0.135172 -0.11231 0
0.135172 -0.110409 0
0.135172 -0.108509 0
0.135172 -0.106608 0
0.135172 -0.104708 0
0.135172 -0.102807 0
0.135172 -0.100906 0
0.135172 -0.0990058 0
0.135172 -0.0971052 0
0.135172 -0.0952046 0
0.135172 -0.0933041 0
0.135172 -0.0914035 0
0.135172 -0.0895029 0
0.135172 -0.0876023 0
0.135172 -0.0857017 0
0.135172 -0.0838012 0
0.135172 -0.0819006 0
0.133758 -0.0788462 0
0.132345 -0.0776923 0
0.130932 -0.0765385 0
0.129519 -0.0753846 0
0.128105 -0.0742308 0
0.126692 -0.0730769 0
0.125279 -0.0719231 0
0.123866 -0.0707692 0
0.122452 -0.0696154 0
0.121039 -0.0684615 0
0.119626 -0.0673077 0
0.118213 -0.0661538 0
0.116799 -0.065 0
0.115386 -0.0638462 0
0.113973 -0.0626923 0
0.11256 -0.0615385 0
0.111146 -0.0603846 0
0.109733 -0.0592308 0
0.10832 -0.0580769 0
0.106907 -0.0569231 0
0.105493 -0.0557692 0
0.10408 -0.0546154 0
0.102667 -0.0534615 0
0.101254 -0.0523077 0
0.0998404 -0.0511538 0
0.0984272 -0.05 0
0.0970139 -0.0488462 0
0.0956006 -0.0476923 0
[...]
CELL_DATA 13116
SCALARS rho float
LOOKUP_TABLE default
0.428188
0.514557
0.28671
0.553754
0.544601
0.535659
0.337646
0.547084
0.409744
0.548026
0.343017
0.291652
0.544845
0.312256
0.322801
0.535657
0.405051
0.540037
0.532184
0.309922
0.431582
0.317215
0.313652
0.54167
0.472531
0.494366
0.548046
0.313023
0.470936
0.501143
0.536394
0.305211
0.431458
0.346806
0.334754
0.430021
0.516099
0.526825
0.536033
0.533395
0.534061
0.549738
0.331583
0.288229
0.530846
0.531973
0.497784
0.534293
0.324337
0.406029
0.543905
0.343641
0.308529
0.399723
0.43044
0.454388
0.291445
0.539205
0.416276
0.322343
0.31377
0.549539
0.507493
0.536079
0.536361
0.315407
0.535975
0.520997
0.536432
0.536304
0.322631
0.454982
0.313
0.313187
0.536591
0.305228
0.500663
0.541085
0.332152
0.53759
0.52641
0.499409
0.54188
0.533606
0.522952
0.348029
0.313161
0.518499
0.518444
0.33002
0.297189
0.515913
0.543913
0.522136
0.503761
0.464851
0.474445
0.536609
0.536501
0.464173
0.525749
0.461104
0.533462
0.331573
0.484724
0.324108
0.279478
0.368559
0.314148
0.478876
0.391398
0.495047
0.46334
0.528961
0.538071
0.535946
0.312728
0.310169
0.538729
0.536528
0.52121
0.310158
0.536645
0.312381
0.517114
0.341146
0.312661
0.395457
0.310979
0.407248
0.538962
0.532331
0.389654
0.3233
0.373862
0.455629
0.53708
0.53815
0.52504
0.53631
0.48814
0.500369
0.394321
0.488916
0.503142
0.307766
0.334069
0.492929
0.542608
0.540868
0.422015
0.533252
0.534332
0.309455
0.545305
0.524081
0.313098
0.530147
0.536588
0.518661
0.541
0.343934
0.540808
0.313425
0.306068
0.54808
0.515129
0.53966
0.335819
0.359879
0.327991
0.537013
0.326117
0.38225
0.535441
0.314499
0.319605
0.314613
0.491978
0.535451
0.304711
0.336194
0.407797
0.516337
0.535409
0.414573
0.295237
0.533821
0.475269
0.35734
0.495048
0.491342
0.536193
0.316548
0.487732
0.535712
0.545289
0.533348
0.517449
0.312126
0.332284
0.482958
0.391277
0.315002
0.538754
0.529812
0.350771
0.472717
0.32707
0.331175
0.302882
0.535642
0.312457
0.308067
0.333099
0.308673
0.294602
0.535635
0.514593
0.337773
0.291702
0.53591
0.386607
0.306249
0.431358
0.548675
0.501315
0.316178
0.535577
0.303967
0.552349
0.299191
0.5362
0.446963
0.536668
0.527842
0.536147
0.315443
0.336293
0.518515
0.536731
0.535681
0.537011
0.535931
0.541805
0.320458
0.540607
0.546046
0.536457
0.331855
0.325077
0.531241
0.538379
0.536269
0.535517
0.417658
0.530915
0.343729
0.324118
0.312254
0.326981
0.471637
0.545108
0.499689
0.312975
0.52944
0.30769
0.336461
0.48639
0.3185
0.495856
0.546633
0.536782
0.53897
0.317506
0.536792
0.530413
0.536445
0.538039
0.320531
0.315296
0.314839
0.451982
0.31048
0.321055
0.258951
0.253223
0.521852
0.311714
0.522942
0.54547
0.296108
0.30055
0.30733
0.3516
0.281534
0.517464
0.458761
0.490452
0.318825
0.535376
0.45667
0.322484
0.322874
0.535813
0.538393
0.533567
0.295268
0.535691
0.326426
0.531854
0.549733
0.53974
0.548935
0.317213
0.535671
0.326999
0.534848
0.548985
0.518982
0.315409
0.258701
0.546554
0.314969
0.50904
0.549489
0.280899
0.532815
0.541637
0.311841
0.529235
0.543816
0.308648
0.54011
0.349457
0.447129
0.530257
0.354637
0.53041
0.314075
0.539915
0.267539
0.535826
0.455776
0.546221
0.315823
0.281293
0.524035
0.313323
0.538268
0.480064
0.3301
0.537088
0.302946
0.311073
0.536772
0.431676
0.519926
0.315397
0.312954
0.540494
0.545281
0.335353
0.544591
0.314092
0.325264
0.535369
0.534219
0.35983
0.325071
0.53805
0.536408
0.535713
0.528079
0.539096
0.422268
0.252257
0.326871
0.301185
0.535758
0.302798
0.406249
0.285635
0.306876
0.276572
0.367196
0.109514
0.313674
0.524787
0.254854
0.541434
0.470724
0.533454
0.512188
0.541051
0.310894
0.314285
0.318214
0.26001
0.536351
0.460155
0.533665
0.471197
0.504391
0.481457
0.498036
0.484286
0.499016
0.538156
0.537135
0.535747
0.317934
0.357002
0.425086
0.316407
0.455837
0.453154
0.308251
0.535842
0.536789
0.317547
0.31028
0.331899
0.296845
0.4904
0.327283
0.316431
0.535698
0.313945
0.446773
0.335927
0.535191
0.52657
0.279036
0.322242
0.536342
0.352605
0.339619
0.295316
0.325536
0.314066
0.314686
0.310837
0.316717
0.336357
0.342239
0.458421
0.297023
0.522149
0.290989
0.341583
0.39189
0.310056
0.329971
0.30781
0.531558
0.341133
0.497962
0.371326
0.31426
0.474683
0.520258
0.347353
0.53247
0.482579
0.481618
0.310713
0.536651
0.309049
0.539716
0.536423
0.312411
0.327349
0.474108
0.262205
0.355728
0.457991
0.279404
0.529399
0.505478
0.295812
0.317612
0.327182
0.378814
0.321613
0.309626
0.325057
0.326946
0.550635
0.551215
0.356331
0.466587
0.373306
0.48763
0.284488
0.321464
0.413138
0.312436
0.532535
0.229345
0.292028
0.386302
0.530234
0.511605
0.436688
0.279071
0.327342
0.443728
0.547295
0.536288
0.440821
0.488095
0.470687
0.337893
0.525791
0.443515
0.517588
0.250769
0.283844
0.528214
0.545426
0.511318
0.548864
0.513654
0.493983
0.540072
0.517841
0.533497
0.323218
0.529976
0.264235
0.327133
0.312055
0.552799
0.53031
0.2441
0.522206
0.48387
0.316424
0.535936
0.53796
0.535304
0.312881
0.321757
0.539719
0.342516
0.312195
0.299631
0.336119
0.53062
0.311057
0.552862
0.297509
0.514942
0.543021
0.535995
0.545363
0.343287
0.296682
0.53143
0.553265
0.509031
0.550368
0.545808
0.387834
0.310866
0.313627
0.535397
0.411066
0.327899
0.35249
0.303641
0.530227
0.534022
0.250417
0.31689
0.520537
0.362322
0.525437
0.512845
0.310456
0.304767
0.505933
0.536795
0.31418
0.51084
0.514773
0.53096
0.31147
0.536952
0.299446
0.536689
0.516652
0.324114
0.295073
0.319506
0.536584
0.311428
0.318868
0.310586
0.535847
0.534008
0.323635
0.32039
0.333607
0.536003
0.312775
0.535628
0.307829
0.457926
0.548686
0.293543
0.313718
0.313489
0.388206
0.315379
0.503042
0.296136
0.322303
0.53538
0.32887
0.535626
0.506047
0.536638
0.314059
0.533101
0.543071
0.54502
0.535366
0.516909
0.535299
0.305143
0.536331
0.339618
0.528309
0.312691
0.542524
0.393192
0.335269
0.536297
0.540997
0.320339
0.486387
0.296536
0.322424
0.5357
0.531309
0.293244
0.306536
0.331951
0.30974
0.527291
0.541822
0.312704
0.295033
0.538198
0.538002
0.459423
0.542656
0.534261
0.34465
0.546339
0.332806
0.543799
0.313735
0.462893
0.375533
0.535631
0.520881
0.450064
0.276785
0.315088
0.532915
0.471303
0.403712
0.542242
0.326676
0.529237
0.544958
0.284315
0.355008
0.543525
0.279971
0.53622
0.519263
0.255047
0.536947
0.502403
0.298873
0.532903
0.314588
0.516403
0.296705
0.535628
0.506085
0.317311
0.536056
0.541209
0.540194
0.484832
0.527312
0.455073
0.316457
0.328341
0.286802
0.314404
0.537123
0.433778
0.537106
0.542112
0.313603
0.311243
0.530455
0.54937
0.536642
0.546641
0.310695
0.537257
0.545979
0.309367
0.298165
0.538828
0.531269
0.519704
0.312526
0.461252
0.290359
0.532128
0.504469
0.536253
0.520671
0.331383
0.527552
0.522878
0.543075
0.530266
0.53461
0.336174
0.538831
0.330063
0.486837
0.547053
0.359505
0.506587
0.536215
0.542638
0.31884
0.328336
0.456063
0.506124
0.339475
0.328402
0.313824
0.34046
0.516275
0.528886
0.535944
0.252873
0.344128
0.536314
0.529174
0.307475
0.312414
0.360998
0.515534
0.533389
0.527494
0.53566
0.331972
0.337744
0.536925
0.310114
0.303899
0.298853
0.534325
0.29786
0.337918
0.448484
0.529936
0.492082
0.535909
0.53406
0.31425
0.327444
0.31347
0.371582
0.340683
0.299144
0.519914
0.535175
0.516466
0.53478
0.320332
0.311821
0.548614
0.321693
0.534666
0.505741
0.53652
0.293191
0.324158
0.512038
0.536278
0.437871
0.308402
0.524707
0.535857
0.445175
0.541021
0.545924
0.536864
0.488252
0.310907
0.534209
0.536198
0.479696
0.532319
0.537173
0.496306
0.536943
0.537577
0.323175
0.315247
0.311095
0.536457
0.392378
0.325233
0.530379
0.538559
0.286241
0.492133
0.275374
0.496303
0.365474
0.323556
0.549701
0.541297
0.328299
0.43037
0.536417
0.313226
0.522462
0.315007
0.324923
0.478329
0.472584
0.391762
0.533249
0.312935
0.540714
0.319874
0.307052
0.535629
0.326906
0.468392
0.306423
0.49159
0.464055
0.536965
0.513511
0.327287
0.321307
0.475795
0.333343
0.53635
0.354894
0.459194
0.535466
0.542859
0.344093
0.476749
0.49072
0.545564
0.536275
0.270252
0.312105
0.422389
0.488986
0.545974
0.297812
0.533383
0.439328
0.318108
0.297542
0.520182
0.51614
0.536996
0.536593
0.461874
0.529726
0.535879
0.521856
0.306684
0.511434
0.358962
0.537456
0.530815
0.244442
0.494582
0.543615
0.315986
0.319653
0.312306
0.537169
0.344283
0.478066
0.536305
0.512554
0.29141
0.524393
0.314421
0.460855
0.536124
0.536017
0.518602
0.535993
0.480766
0.525443
0.407704
0.527909
0.294794
0.534638
0.535928
0.318548
0.53686
0.530088
0.313692
0.326802
0.312009
0.540103
0.337913
0.536757
0.309866
0.546397
0.327744
0.376022
0.310504
0.539246
0.546098
0.416029
0.210331
0.48078
0.5356
0.317931
0.458682
0.551548
0.298995
0.456438
0.536368
0.548394
0.534705
0.310815
0.366359
0.537584
0.532661
0.487982
0.331345
0.324944
0.526384
0.53703
0.536795
0.537091
0.426872
0.532666
0.423212
0.535822
0.331959
0.31476
0.537075
0.543718
0.535833
0.315439
0.53448
0.43318
0.465909
0.303037
0.325365
0.544855
0.554824
0.433062
0.257709
0.534189
0.536813
0.337472
0.474436
0.535479
0.336737
0.338392
0.327307
0.474481
0.315535
0.322146
0.528326
0.36123
0.546244
0.496766
0.336015
0.311924
0.549415
0.315072
0.326677
0.536282
0.322533
0.285156
0.459328
0.51316
0.533034
0.342439
0.249792
0.337911
0.507168
0.323609
0.533602
0.328389
0.531162
0.486479
0.529835
0.493115
0.526356
0.502817
0.533569
0.545036
0.535808
0.310298
0.321689
0.520494
0.535919
0.396741
0.4836
0.434372
0.535979
0.478398
0.278982
0.536096
0.550699
0.526746
0.329019
0.528147
0.293423
0.53348
0.390464
0.537968
0.535275
0.323823
0.536171
0.333825
0.332666
0.508368
0.297865
0.529946
0.537202
0.536011
0.298094
0.53568
0.34089
0.293457
0.305976
0.331509
0.472551
0.32681
0.490808
0.536136
0.260467
0.316645
0.382484
0.453326
0.490684
0.489672
0.316216
0.31654
0.336213
0.310553
0.208461
0.490432
0.498884
0.312174
0.535821
0.535914
0.327437
0.550647
0.528589
0.536113
0.32693
0.536592
0.526257
0.539148
0.537253
0.32117
0.533926
0.540612
0.528651
0.520766
0.535268
0.322291
0.31044
0.533571
0.420927
0.322746
0.535622
0.315601
0.446697
0.485854
0.514757
0.517805
0.295567
0.482293
0.311694
0.32809
0.533556
0.539775
0.542467
0.54018
0.509916
0.293676
0.545983
0.32673
0.395859
0.547656
0.536529
0.537226
0.330649
0.318137
0.546644
0.321001
0.539274
0.505512
0.335393
0.317573
0.5352
0.308285
0.535218
0.538867
0.507833
0.307853
0.316094
0.39259
0.40258
0.481512
0.367233
0.535153
0.489752
0.524319
0.537152
0.531794
0.322305
0.318262
0.540776
0.53528
0.485419
0.359723
0.315306
0.52351
0.32716
0.534083
0.480492
0.255319
0.535915
0.340362
0.505319
0.288584
0.543309
0.317598
0.53245
0.535545
0.268815
0.519279
0.505701
0.258258
0.535947
0.532161
0.432981
0.30949
0.290332
0.361952
0.543515
0.473049
0.308483
0.457747
0.533663
0.535445
0.283494
0.473187
0.51971
0.362071
0.535151
0.53491
0.235378
0.535791
0.536411
0.287509
0.464159
0.297819
0.494839
0.306816
0.325786
0.545074
0.329196
0.332924
0.327393
0.535834
0.51282
0.3244
0.534023
0.28958
0.51521
0.340349
0.515686
0.286919
0.535414
0.533909
0.501494
0.536088
0.433282
0.535588
0.536082
0.287987
0.496784
0.505386
0.380178
0.531314
0.387245
0.333999
0.545717
0.307205
0.445781
0.272153
0.533607
0.307135
0.316372
0.541349
0.533976
0.295492
0.536779
0.535192
0.537154
0.546294
0.53665
0.311269
0.550138
0.304808
0.312741
0.519268
0.536542
0.549065
0.522349
0.302441
0.306571
0.338536
0.5158
0.536126
0.289854
0.521557
0.315487
0.303919
0.30538
0.520854
0.313038
0.547275
0.536045
0.495872
0.530524
0.535249
0.445666
0.496502
0.341463
0.318464
0.295924
0.536648
0.53666
0.315317
0.490002
0.472358
0.497736
0.311318
0.314151
0.492666
0.218959
0.487391
0.463632
0.308193
0.535613
0.517658
0.318211
0.532542
0.327597
0.536977
0.547091
0.526784
0.327604
0.369357
0.528816
0.24025
0.348743
0.530784
0.249644
0.53553
0.536259
0.495586
0.53545
0.2548
0.536375
0.533053
0.5326
0.285544
0.541438
0.318323
0.309391
0.523916
0.533539
0.535945
0.185876
0.535425
0.496414
0.536609
0.316139
0.312503
0.341487
0.539133
0.338542
0.328714
0.299216
0.461962
0.328184
0.245653
0.347432
0.533637
0.31354
0.536043
0.535899
0.533279
0.297417
0.535337
0.509356
0.53584
0.326734
0.519073
0.332918
0.308865
0.535664
0.30091
0.487105
0.532569
0.536989
0.306549
0.258711
0.320691
0.439708
0.537051
0.183922
0.527451
0.535799
0.536437
0.338108
0.327359
0.270495
0.472476
0.334704
0.537234
0.474446
0.535824
0.527267
0.329804
0.487693
0.305481
0.441443
0.506934
0.549179
0.445841
0.376541
0.518942
0.488342
0.541481
0.301666
0.286516
0.306952
0.537499
0.415526
0.536534
0.309665
0.314876
0.538935
0.535079
0.536097
0.30091
0.533744
0.438363
0.440789
0.474994
0.314843
0.302111
0.235327
0.533522
0.5362
0.519598
0.486088
0.26993
0.536568
0.514192
0.536189
0.535892
0.536766
0.550494
0.535824
0.53564
0.541947
0.311242
0.536768
0.540837
0.534852
0.537648
0.533162
0.451021
0.31415
0.324967
0.482659
0.325077
0.257777
0.532999
0.324281
0.498755
0.536101
0.51283
0.527394
0.313424
0.534257
0.302922
0.314764
0.535788
0.532122
0.534877
0.295493
0.543892
0.533343
0.481084
0.533732
0.31755
0.534992
0.546974
0.517765
0.313658
0.539404
0.338309
0.554948
0.301581
0.315468
0.409601
0.351699
0.549574
0.539978
0.534794
0.301006
0.535106
0.326301
0.325366
0.508596
0.385617
0.330123
0.533973
0.314369
0.40368
0.519766
0.497396
0.517215
0.384642
0.467676
0.511161
0.535223
0.449155
0.542498
0.419815
0.547476
0.482888
0.504719
0.319251
0.340857
0.351021
0.540188
0.313078
0.517594
0.536965
0.469876
0.535217
0.406735
0.529339
0.523033
0.329705
0.536258
0.478819
0.384706
0.481533
0.546575
0.504304
0.535601
0.335845
0.322598
0.528845
0.418061
0.42512
0.538006
0.533085
0.534346
0.545489
0.546717
0.483674
0.487748
0.54913
0.328118
0.315247
0.307461
0.286837
0.536843
0.35867
0.420265
0.535677
0.52684
0.313053
0.528146
0.554028
0.29591
0.29681
0.536699
0.537939
0.315188
0.296786
0.301067
0.53719
0.493848
0.31711
0.328208
0.307931
0.3245
0.268815
0.324622
0.550075
0.534114
0.528887
0.304429
0.51371
0.472539
0.478582
0.291698
0.310028
0.506937
0.537103
0.33722
0.535263
0.318158
0.541088
0.312176
0.532679
0.294491
0.517131
0.545521
0.299957
0.442164
0.323712
0.550406
0.323087
0.475688
0.315647
0.395557
0.331706
0.468922
0.318998
0.536134
0.536118
0.476916
0.525511
0.28126
0.516005
0.535581
0.544601
0.470583
0.51592
0.310265
0.317214
0.314615
0.543911
0.228447
0.543331
0.428486
0.536299
0.548372
0.360804
0.538768
0.324334
0.314608
0.327648
0.399004
0.408486
0.532427
0.317222
0.321648
0.535636
0.29796
0.307177
0.433825
0.298375
0.338837
0.325584
0.550591
0.511496
0.479149
0.314541
0.513358
0.533539
0.320318
0.254387
0.523206
0.534394
0.4437
0.406266
0.323906
0.284766
0.309428
0.52797
0.479446
0.408932
0.531821
0.326278
0.444883
0.342354
0.536302
0.543442
0.310624
0.32426
0.484667
0.428774
0.545153
0.541971
0.543951
0.536946
0.547709
0.305724
0.316061
0.305761
0.319351
0.422313
0.536481
0.512827
0.314474
0.305444
0.352225
0.338347
0.534213
0.496483
0.333769
0.250761
0.536121
0.314697
0.510156
0.540366
0.509308
0.535226
0.431256
0.311615
0.29569
0.483473
0.311368
0.329454
0.31944
0.535686
0.532597
0.272981
0.308342
0.537007
0.31638
0.534755
0.543939
0.307703
0.316062
0.322041
0.535758
0.312365
0.537205
0.532718
0.47041
0.292983
0.417288
0.540494
0.525292
0.33994
0.522742
0.484192
0.347655
0.538248
0.551982
0.332981
0.326308
0.511142
0.320695
0.31384
0.519084
0.272176
0.533006
0.529613
0.543211
0.489504
0.543513
0.5361
0.535766
0.339875
0.32329
0.493134
0.530692
0.369122
0.55035
0.263664
0.537391
0.518472
0.445515
0.506429
0.317039
0.357917
0.528849
0.541085
0.480503
0.545783
0.535514
0.536822
0.545423
0.53707
0.519025
0.510556
0.53365
0.537072
0.535704
0.270887
0.5019
0.287341
0.534939
0.536915
0.537491
0.501757
0.534964
0.315943
0.31541
0.244853
0.340327
0.507561
0.298717
0.325542
0.527589
0.312346
0.53511
0.310088
0.519342
0.534322
0.32749
0.300213
0.251707
0.539467
0.313174
0.531868
0.535881
0.319884
0.504853
0.436764
0.266676
0.313465
0.314051
0.535442
0.326732
0.535465
0.403846
0.322243
0.53243
0.533988
0.543881
0.32144
0.449741
0.313124
0.515191
0.535797
0.535844
0.340966
0.52989
0.538107
0.490848
0.323162
0.539361
0.318613
0.339299
0.528973
0.354874
0.54717
0.339694
0.340591
0.349179
0.497456
0.312217
0.223089
0.297749
0.37627
0.536502
0.535584
0.30888
0.467719
0.53541
0.440664
0.329153
0.253172
0.438617
0.334219
0.332469
0.530105
0.337767
0.330547
0.541148
0.552026
0.295483
0.5389
0.307779
0.536742
0.312156
0.509689
0.536324
0.535989
0.535734
0.318523
0.341636
0.309348
0.535693
0.51252
0.465741
0.424582
0.292211
0.239213
0.534849
0.34066
0.533391
0.301317
0.536271
0.522123
0.293198
0.287603
0.333759
0.313342
0.288184
0.483755
0.509533
0.294816
0.535946
0.497833
0.316223
0.326804
0.552047
0.328393
0.534207
0.336265
0.535747
0.511011
0.535317
0.536463
0.323511
0.546788
0.533525
0.552644
0.3306
0.477834
0.470788
0.255073
0.54021
0.498865
0.543443
0.514165
0.547739
0.527698
0.548775
0.534743
0.532393
0.319109
0.542974
0.332883
0.35902
0.530553
0.311119
0.520928
0.477634
0.323527
0.49203
0.328288
0.297625
0.522538
0.470011
0.551614
0.338464
0.513966
0.484682
0.306175
0.301027
0.508388
0.533732
0.298055
0.303087
0.535714
0.551494
0.320274
0.501328
0.546196
0.513604
0.297256
0.318142
0.304115
0.512168
0.31627
0.523313
0.537436
0.534815
0.472918
0.534716
0.337059
0.519115
0.484249
0.54535
0.443499
0.313293
0.340055
0.325737
0.541592
0.536849
0.334152
0.509376
0.246315
0.502893
0.536435
0.326921
0.483177
0.524155
0.486639
0.302449
0.315062
0.280941
0.538581
0.547102
0.482767
0.405817
0.535015
0.337886
0.49528
0.536717
0.530004
0.302598
0.492071
0.32311
0.483358
0.325373
0.530378
0.522429
0.314888
0.538496
0.335131
0.537089
0.499124
0.537223
0.539277
0.329328
0.534989
0.534227
0.533393
0.531117
0.381014
0.53673
0.31478
0.534254
0.325944
0.301059
0.325534
0.287839
0.339967
0.29836
0.548082
0.288189
0.328114
0.513101
0.538834
0.511329
0.321291
0.532154
0.53118
0.53534
0.26281
0.45393
0.535915
0.308947
0.298303
0.343246
0.490854
0.401245
0.307585
0.458906
0.321525
0.536579
0.395714
0.310752
0.372487
0.507477
0.277534
0.534058
0.326627
0.371444
0.297025
0.530582
0.308036
0.508865
0.536671
0.46619
0.327178
0.318564
0.524834
0.550631
0.301621
0.293446
0.535464
0.302787
0.53904
0.305906
0.440028
0.325711
0.536054
0.315054
0.549538
0.299442
0.536209
0.535567
0.54175
0.536884
0.3198
0.313425
0.318346
0.496905
0.526902
0.496236
0.410859
0.322033
0.537654
0.256626
0.510562
0.459058
0.335453
0.321372
0.541371
0.530333
0.314734
0.536345
0.52821
0.541479
0.543225
0.326572
0.497244
0.333608
0.541656
0.313097
0.535866
0.505748
0.51061
0.549976
0.317909
0.554628
0.329487
0.325856
0.534745
0.536846
0.43004
0.529614
0.536835
0.330022
0.540453
0.527922
0.547352
0.294375
0.336371
0.528953
0.299703
0.537621
0.536543
0.523054
0.533043
0.226429
0.351053
0.507096
0.314297
0.518335
0.55115
0.370968
0.519865
0.21324
0.485108
0.540667
0.527274
0.519659
0.313717
0.317402
0.53258
0.52125
0.323294
0.262627
0.315751
0.313776
0.328436
0.321397
0.280452
0.323745
0.531972
0.327125
0.294619
0.534878
0.428586
0.536984
0.313716
0.307775
0.535651
0.366553
0.375152
0.545593
0.297055
0.515414
0.536221
0.478635
0.517321
0.309983
0.535908
0.536039
0.319774
0.341634
0.334933
0.47513
0.478083
0.547567
0.535614
0.530645
0.520042
0.286225
0.536916
0.535982
0.507251
0.317079
0.536287
0.452465
0.280742
0.340481
0.311544
0.310063
0.327905
0.462944
0.520739
0.521466
0.333169
0.305875
0.546149
0.275144
0.535817
0.534142
0.523316
0.527468
0.534892
0.309285
0.312101
0.317836
0.444247
0.319242
0.534532
0.307734
0.535559
0.535262
0.536537
0.288376
0.351671
0.328596
0.535178
0.304559
0.344083
0.532639
0.517136
0.484571
0.535597
0.503937
0.538662
0.312385
0.490464
0.543415
0.418556
0.534208
0.537239
0.53977
0.362106
0.336041
0.548369
0.392631
0.478854
0.333285
0.503329
0.523762
0.313256
0.316999
0.513493
0.4003
0.541522
0.53574
0.323568
0.308656
0.536395
0.299673
0.327169
0.52507
0.509296
0.32255
0.527535
0.536573
0.503199
0.314372
0.463913
0.312659
0.52738
0.543225
0.538586
0.51916
0.536463
0.254151
0.285888
0.52865
0.327779
0.478229
0.323215
0.535752
0.308649
0.505559
0.543024
0.53652
0.340957
0.5372
0.536582
0.339966
0.503762
0.304098
0.551597
0.338159
0.294364
0.303045
0.525267
0.530321
0.254795
0.24291
0.49322