# vtk DataFile Version 1.0
unstructured grid
ascii
DATASET UNSTRUCTURED_GRID
points 13672 float
0.0796578 -0.059106 0
0.00128732 0.00159165 0
0.00227961 -0.00102548 0
0.0791586 -0.0598787 0
-0.0546216 0.01 0
0.000495206 0.025 0
0.0800549 -0.035 0
0.135172 -0.08 0
-0.0546216 -0.0451168 0
0.000495206 -0.0301168 0
0.0800549 -0.0901168 0
0.135172 -0.135117 0
-0.0546216 -0.0451168 -0.00551168
0.000495206 -0.0301168 -0.00551168
0.0800549 -0.0901168 -0.00551168
0.135172 -0.135117 -0.00551168
0.135172 -0.08 -0.00551168
0.0800549 -0.035 -0.00551168
0.000495206 0.025 -0.00551168
-0.0546216 0.01 -0.00551168
0.00128732 0.00159165 -0.00551168
0.00227961 -0.00102548 -0.00551168
0.0791586 -0.0598787 -0.00551168
0.0796578 -0.059106 -0.00551168
0.00165953 -0.000990923 0
0.00119576 -0.000874076 0
0.000866021 -0.000641801 0
0.000645147 -0.000349912 0
0.00052235 -1.7281e-05 0
0.00049972 0.000348016 0
0.000601632 0.000737716 0
0.000861774 0.0011403 0
0.00157235 0.00183217 0
0.00188647 0.00206725 0
0.00222612 0.00230203 0
0.00258713 0.00254351 0
0.00296826 0.00279524 0
0.00337118 0.00305664 0
0.00379785 0.00332658 0
0.00425045 0.00360349 0
0.00473139 0.00388521 0
0.0052432 0.00416895 0
0.0057881 0.00445204 0
0.00636753 0.00473281 0
0.00698281 0.00500961 0
0.00763526 0.00528058 0
0.00832616 0.00554366 0
0.00905691 0.00579603 0
0.00982918 0.00603333 0
0.0106445 0.00625033 0
0.0115038 0.00644128 0
0.0124073 0.00660297 0
0.0133543 0.00673414 0
0.0143444 0.00683382 0
0.0153769 0.00690031 0
0.0164512 0.00693173 0
0.0175666 0.00692547 0
0.0187219 0.00687822 0
0.0199156 0.00678477 0
0.0211454 0.00663864 0
0.0224084 0.00643275 0
0.0237018 0.00616676 0
0.0250249 0.00584739 0
0.026375 0.00547298 0
0.0277479 0.00503752 0
0.0291386 0.00453545 0
0.0305433 0.0039653 0
0.0319572 0.0033256 0
0.0333681 0.00260019 0
0.034775 0.00179799 0
0.0361793 0.000930615 0
0.0375798 3.12222e-06 0
0.0389689 -0.000988429 0
0.0403357 -0.00205109 0
0.041675 -0.00318283 0
0.0429849 -0.00437751 0
0.0442643 -0.00562904 0
0.0455126 -0.00693089 0
0.0467314 -0.00827518 0
0.0479204 -0.00965638 0
0.0490661 -0.0110799 0
0.0501515 -0.0125519 0
0.0511696 -0.0140695 0
0.0521492 -0.0156071 0
0.0531202 -0.0171411 0
0.0540851 -0.0186663 0
0.0550431 -0.0201798 0
0.0559923 -0.0216793 0
0.0569311 -0.0231626 0
0.0578582 -0.0246273 0
0.0587723 -0.0260715 0
0.0596721 -0.027493 0
0.0605563 -0.02889 0
0.0614241 -0.0302609 0
0.0622742 -0.0316042 0
0.063106 -0.0329183 0
0.0639186 -0.034202 0
0.0647113 -0.0354543 0
0.0654835 -0.0366743 0
0.0662345 -0.0378613 0
0.0669642 -0.0390145 0
0.0676726 -0.0401333 0
0.0683597 -0.0412172 0
0.0690246 -0.0422665 0
0.0696662 -0.0432819 0
0.0702841 -0.0442636 0
0.0708793 -0.0452111 0
0.0714538 -0.0461237 0
0.072009 -0.047001 0
0.0725452 -0.0478434 0
0.0730611 -0.0486524 0
0.073556 -0.0494294 0
0.0740291 -0.0501756 0
0.0744812 -0.0508916 0
0.0749138 -0.0515773 0
0.0753285 -0.0522331 0
0.0757266 -0.0528592 0
0.076109 -0.0534564 0
0.0764753 -0.0540264 0
0.0768243 -0.054571 0
0.0771553 -0.0550919 0
0.0774679 -0.0555901 0
0.0777617 -0.0560669 0
0.0780369 -0.056523 0
0.0782958 -0.0569578 0
0.0785421 -0.0573703 0
0.0787786 -0.0577603 0
0.0790073 -0.0581279 0
0.0792295 -0.058474 0
0.0794462 -0.0587995 0
0.0798803 -0.0594162 0
0.0800272 -0.0596588 0
0.0800357 -0.0598891 0
0.0799275 -0.0600784 0
0.0797205 -0.0601773 0
0.0794593 -0.0601051 0
0.0789155 -0.0596491 0
0.0786707 -0.0593963 0
0.0784111 -0.0591319 0
0.0781372 -0.0588542 0
0.0778566 -0.0585548 0
0.0775715 -0.0582308 0
0.0772803 -0.0578828 0
0.0769832 -0.0575099 0
0.0766822 -0.0571097 0
0.0763801 -0.0566796 0
0.0760759 -0.0562196 0
0.0757623 -0.0557337 0
0.0754359 -0.0552232 0
0.0750951 -0.0546879 0
0.0747379 -0.054128 0
0.0743626 -0.0535435 0
0.0739688 -0.0529338 0
0.0735559 -0.0522981 0
0.0731238 -0.0516357 0
0.0726718 -0.050946 0
0.0721991 -0.0502288 0
0.0717046 -0.049484 0
0.0711872 -0.0487117 0
0.0706461 -0.047912 0
0.0700804 -0.0470849 0
0.0694892 -0.0462308 0
0.0688718 -0.0453499 0
0.0682271 -0.0444431 0
0.0675544 -0.043511 0
0.0668527 -0.0425546 0
0.0661215 -0.0415748 0
0.06536 -0.040573 0
0.0645676 -0.0395504 0
0.0637439 -0.0385087 0
0.0628887 -0.0374493 0
0.062002 -0.0363741 0
0.0610838 -0.0352847 0
0.0601345 -0.0341831 0
0.0591547 -0.033071 0
0.0581456 -0.0319502 0
0.0571083 -0.0308224 0
0.0560444 -0.0296893 0
0.0549562 -0.028552 0
0.053845 -0.0274126 0
0.0527113 -0.0262746 0
0.051554 -0.0251427 0
0.0503724 -0.0240222 0
0.0491675 -0.0229164 0
0.047941 -0.0218282 0
0.0466955 -0.0207597 0
0.0454337 -0.0197126 0
0.0441592 -0.0186878 0
0.0428751 -0.0176863 0
0.0415841 -0.0167097 0
0.0402878 -0.0157609 0
0.0389879 -0.0148428 0
0.0376864 -0.0139575 0
0.0363853 -0.013107 0
0.0350871 -0.0122931 0
0.0337942 -0.0115164 0
0.0325095 -0.0107772 0
0.0312357 -0.0100756 0
0.0299758 -0.00941024 0
0.0287337 -0.00877784 0
0.0275126 -0.00817571 0
0.0263139 -0.00760375 0
0.0251376 -0.00706528 0
0.0239829 -0.0065649 0
0.0228537 -0.00609619 0
0.0217522 -0.00565563 0
0.0206795 -0.00524226 0
0.0196364 -0.00485507 0
0.0186233 -0.00449318 0
0.0176408 -0.00415577 0
0.016689 -0.00384204 0
0.0157682 -0.00355115 0
0.0148783 -0.00328218 0
0.0140192 -0.00303468 0
0.0131906 -0.00280795 0
0.0123925 -0.00260016 0
0.0116246 -0.00241012 0
0.0108864 -0.00223769 0
0.0101774 -0.00208212 0
0.00949701 -0.00194206 0
0.00884483 -0.0018163 0
0.0082202 -0.0017039 0
0.00762247 -0.00160391 0
0.00705097 -0.00151528 0
0.006505 -0.00143697 0
0.0059838 -0.00136806 0
0.00548662 -0.00130772 0
0.00501265 -0.00125519 0
0.00456114 -0.00120954 0
0.00413136 -0.00116914 0
0.00372257 -0.00113251 0
0.00333398 -0.00109853 0
0.00296466 -0.00106798 0
0.00261363 -0.0010431 0
-0.052721 -0.0445996 0
-0.0508204 -0.0440823 0
-0.0489199 -0.0435651 0
-0.0470193 -0.0430478 0
-0.0451187 -0.0425306 0
-0.0432181 -0.0420134 0
-0.0413175 -0.0414961 0
-0.039417 -0.0409789 0
-0.0375164 -0.0404616 0
-0.0356158 -0.0399444 0
-0.0337152 -0.0394271 0
-0.0318146 -0.0389099 0
-0.0299141 -0.0383927 0
-0.0280135 -0.0378754 0
-0.0261129 -0.0373582 0
-0.0242123 -0.0368409 0
-0.0223117 -0.0363237 0
-0.0204112 -0.0358065 0
-0.0185106 -0.0352892 0
-0.01661 -0.034772 0
-0.0147094 -0.0342547 0
-0.0128088 -0.0337375 0
-0.0109083 -0.0332202 0
-0.00900769 -0.032703 0
-0.00710711 -0.0321858 0
-0.00520653 -0.0316685 0
-0.00330595 -0.0311513 0
-0.00140537 -0.030634 0
0.00190689 -0.0299614 0
0.00332271 -0.0298498 0
0.00474133 -0.0297825 0
0.00616136 -0.0297597 0
0.0075814 -0.0297814 0
0.00900007 -0.0298477 0
0.010416 -0.0299583 0
0.0118278 -0.0301127 0
0.0132342 -0.0303103 0
0.0146339 -0.0305504 0
0.0160259 -0.0308322 0
0.0174091 -0.0311546 0
0.0187824 -0.0315166 0
0.020145 -0.031917 0
0.0214961 -0.0323546 0
0.0228351 -0.032828 0
0.0241613 -0.0333361 0
0.0254744 -0.0338774 0
0.0267738 -0.0344507 0
0.0280592 -0.0350545 0
0.0293306 -0.0356877 0
0.0305875 -0.0363488 0
0.0318301 -0.0370367 0
0.0330581 -0.0377501 0
0.0342717 -0.0384879 0
0.0354708 -0.0392489 0
0.0366556 -0.0400321 0
0.0378262 -0.0408363 0
0.0389828 -0.0416607 0
0.0401254 -0.0425042 0
0.0412543 -0.0433659 0
0.0423698 -0.0442451 0
0.043472 -0.0451408 0
0.0445612 -0.0460523 0
0.0456375 -0.0469789 0
0.0467013 -0.0479199 0
0.0477529 -0.0488746 0
0.0487923 -0.0498424 0
0.04982 -0.0508227 0
0.0508362 -0.051815 0
0.051841 -0.0528187 0
0.0528348 -0.0538333 0
0.0538178 -0.0548584 0
0.0547903 -0.0558935 0
0.0557524 -0.0569382 0
0.0567045 -0.0579922 0
0.0576467 -0.0590549 0
0.0585792 -0.0601261 0
0.0595024 -0.0612055 0
0.0604163 -0.0622926 0
0.0613212 -0.0633873 0
0.0622174 -0.0644891 0
0.0631049 -0.0655979 0
0.0639841 -0.0667134 0
0.064855 -0.0678353 0
0.0657179 -0.0689633 0
0.0665729 -0.0700974 0
0.0674202 -0.0712372 0
0.06826 -0.0723826 0
0.0690925 -0.0735333 0
0.0699178 -0.0746892 0
0.070736 -0.0758501 0
0.0715473 -0.0770159 0
0.0723518 -0.0781863 0
0.0731498 -0.0793612 0
0.0739412 -0.0805405 0
0.0747264 -0.081724 0
0.0755053 -0.0829116 0
0.0762781 -0.0841033 0
0.0770449 -0.0852987 0
0.0778059 -0.0864979 0
0.0785611 -0.0877007 0
0.0793108 -0.088907 0
0.0814681 -0.0912706 0
0.0828814 -0.0924245 0
0.0842946 -0.0935783 0
0.0857079 -0.0947322 0
0.0871211 -0.095886 0
0.0885344 -0.0970399 0
0.0899476 -0.0981937 0
0.0913609 -0.0993476 0
0.0927741 -0.100501 0
0.0941874 -0.101655 0
0.0956006 -0.102809 0
0.0970139 -0.103963 0
0.0984272 -0.105117 0
0.0998404 -0.106271 0
0.101254 -0.107424 0
0.102667 -0.108578 0
0.10408 -0.109732 0
0.105493 -0.110886 0
0.106907 -0.11204 0
0.10832 -0.113194 0
0.109733 -0.114348 0
0.111146 -0.115501 0
0.11256 -0.116655 0
0.113973 -0.117809 0
0.115386 -0.118963 0
0.116799 -0.120117 0
0.118213 -0.121271 0
0.119626 -0.122424 0
0.121039 -0.123578 0
0.122452 -0.124732 0
0.123866 -0.125886 0
0.125279 -0.12704 0
0.126692 -0.128194 0
0.128105 -0.129348 0
0.129519 -0.130501 0
0.130932 -0.131655 0
0.132345 -0.132809 0
0.133758 -0.133963 0
0.135172 -0.133216 0
0.135172 -0.131316 0
0.135172 -0.129415 0
0.135172 -0.127514 0
0.135172 -0.125614 0
0.135172 -0.123713 0
0.135172 -0.121813 0
0.135172 -0.119912 0
0.135172 -0.118012 0
0.135172 -0.116111 0
0.135172 -0.11421 0
0.135172 -0.11231 0
0.135172 -0.110409 0
0.135172 -0.108509 0
0.135172 -0.106608 0
0.135172 -0.104708 0
0.135172 -0.102807 0
0.135172 -0.100906 0
0.135172 -0.0990058 0
0.135172 -0.0971052 0
0.135172 -0.0952046 0
0.135172 -0.0933041 0
0.135172 -0.0914035 0
0.135172 -0.0895029 0
0.135172 -0.0876023 0
0.135172 -0.0857017 0
0.135172 -0.0838012 0
0.135172 -0.0819006 0
0.133758 -0.0788462 0
0.132345 -0.0776923 0
0.130932 -0.0765385 0
0.129519 -0.0753846 0
0.128105 -0.0742308 0
0.126692 -0.0730769 0
0.125279 -0.0719231 0
0.123866 -0.0707692 0
0.122452 -0.0696154 0
0.121039 -0.0684615 0
0.119626 -0.0673077 0
0.118213 -0.0661538 0
0.116799 -0.065 0
0.115386 -0.0638462 0
0.113973 -0.0626923 0
0.11256 -0.0615385 0
0.111146 -0.0603846 0
0.109733 -0.0592308 0
0.10832 -0.0580769 0
0.106907 -0.0569231 0
0.105493 -0.0557692 0
0.10408 -0.0546154 0
0.102667 -0.0534615 0
0.101254 -0.0523077 0
0.0998404 -0.0511538 0
0.0984272 -0.05 0
0.0970139 -0.0488462 0
0.0956006 -0.0476923 0
[...]
CELL_DATA 13116
SCALARS rho float
LOOKUP_TABLE default
0.498222
0.52971
0.355829
0.543296
0.545788
0.530526
0.349057
0.545985
0.479125
0.562968
0.343165
0.336677
0.545132
0.361333
0.353024
0.530564
0.464191
0.646182
0.528567
0.35498
0.505301
0.353714
0.372443
0.630494
0.566941
0.534546
0.565552
0.35026
0.564618
0.604064
0.530691
0.38265
0.509539
0.400702
0.346717
0.502068
0.603557
0.525549
0.530633
0.533598
0.529605
0.546738
0.377102
0.366063
0.528062
0.528442
0.517823
0.53009
0.359772
0.475528
0.539693
0.392895
0.359568
0.456734
0.507991
0.541317
0.372014
0.60173
0.489812
0.359255
0.362425
0.548475
0.524067
0.53063
0.530616
0.3665
0.531968
0.620776
0.532097
0.530581
0.352862
0.542441
0.348761
0.373477
0.530765
0.347602
0.5609
0.53645
0.351264
0.644078
0.596822
0.523828
0.607997
0.52954
0.524824
0.410187
0.353525
0.628891
0.526678
0.326534
0.396666
0.528958
0.618448
0.532945
0.602462
0.554921
0.569674
0.53081
0.530687
0.555057
0.643246
0.511852
0.529342
0.350623
0.513131
0.373693
0.32064
0.422413
0.36947
0.575817
0.451922
0.518273
0.552919
0.609612
0.643504
0.532385
0.356
0.344809
0.53403
0.533583
0.622813
0.348159
0.532322
0.398888
0.532719
0.393353
0.354695
0.462365
0.371649
0.477278
0.534131
0.534372
0.457218
0.358836
0.43759
0.529183
0.531265
0.533948
0.642287
0.533487
0.551029
0.518244
0.460412
0.550196
0.537329
0.363775
0.345161
0.52522
0.547971
0.539148
0.498624
0.529202
0.530098
0.353776
0.559332
0.525779
0.375529
0.649696
0.530825
0.630457
0.622998
0.345133
0.587144
0.375877
0.344258
0.543846
0.530045
0.647102
0.347392
0.422866
0.380632
0.531217
0.356153
0.444846
0.53175
0.371457
0.35082
0.35026
0.516751
0.530409
0.370881
0.388272
0.472616
0.605851
0.530429
0.487143
0.37098
0.529823
0.514325
0.415474
0.57341
0.524115
0.530488
0.376216
0.519159
0.53062
0.582674
0.529579
0.525793
0.357179
0.349669
0.581426
0.456568
0.371281
0.541884
0.526929
0.402101
0.56583
0.364593
0.326887
0.35639
0.531113
0.376681
0.353801
0.325155
0.355298
0.323215
0.530232
0.531391
0.39891
0.374484
0.531779
0.445275
0.371531
0.511417
0.552933
0.537537
0.352528
0.531911
0.353692
0.557025
0.384561
0.530621
0.53173
0.530852
0.530607
0.530466
0.359212
0.384449
0.631555
0.530876
0.530566
0.531178
0.530375
0.544389
0.35201
0.536368
0.554079
0.530651
0.338272
0.360669
0.527856
0.533597
0.530626
0.531179
0.483414
0.633912
0.342718
0.370729
0.349443
0.364784
0.511589
0.584195
0.55963
0.353572
0.528237
0.367948
0.392845
0.512214
0.334972
0.527634
0.541974
0.53091
0.59561
0.361841
0.530926
0.596853
0.530653
0.533793
0.350663
0.353726
0.379577
0.524833
0.345896
0.361481
0.295594
0.267535
0.522751
0.359965
0.527428
0.541658
0.364491
0.360978
0.36663
0.40911
0.35568
0.626931
0.517522
0.514117
0.333776
0.53074
0.545534
0.369426
0.358332
0.530362
0.5336
0.529636
0.370614
0.53065
0.365461
0.532868
0.545742
0.537783
0.545046
0.380955
0.531723
0.36028
0.530192
0.568243
0.633688
0.34216
0.295337
0.552269
0.36382
0.517925
0.547674
0.316388
0.648182
0.609323
0.362829
0.528025
0.612438
0.363236
0.535148
0.408347
0.532707
0.546784
0.415643
0.649861
0.354164
0.624492
0.308271
0.530319
0.507226
0.591225
0.354336
0.3176
0.52548
0.344388
0.538078
0.515063
0.37835
0.531206
0.369802
0.341821
0.533107
0.511605
0.614515
0.35458
0.376204
0.536387
0.542077
0.34439
0.539337
0.359021
0.372194
0.532574
0.544939
0.405788
0.327261
0.533551
0.530714
0.530637
0.527744
0.563925
0.498464
0.295357
0.361885
0.369038
0.530661
0.369454
0.470119
0.321692
0.358522
0.311811
0.418075
0.124467
0.344171
0.525372
0.286287
0.581838
0.564322
0.529494
0.621222
0.536424
0.34189
0.353337
0.363737
0.29698
0.534653
0.548619
0.529472
0.564818
0.538719
0.576867
0.522546
0.561991
0.601238
0.555968
0.645412
0.530494
0.354342
0.408639
0.49418
0.349912
0.5163
0.539354
0.359056
0.532081
0.530922
0.383312
0.351277
0.335319
0.370105
0.592391
0.347827
0.376066
0.531333
0.369339
0.531108
0.329402
0.530185
0.568164
0.355107
0.358474
0.533077
0.410859
0.328194
0.370202
0.326516
0.368971
0.357698
0.351339
0.357523
0.392411
0.33846
0.51228
0.337641
0.525941
0.330381
0.39426
0.460234
0.357822
0.326722
0.363485
0.530957
0.397827
0.603217
0.424281
0.367912
0.568568
0.527497
0.409556
0.64769
0.576315
0.573767
0.359856
0.530853
0.347401
0.576347
0.530722
0.374171
0.357096
0.513609
0.297638
0.417438
0.508884
0.319272
0.648686
0.533593
0.364324
0.34751
0.354416
0.440052
0.356319
0.362796
0.354105
0.360442
0.544325
0.546185
0.416005
0.558719
0.436352
0.517559
0.309473
0.339961
0.484258
0.37357
0.529448
0.264007
0.331857
0.45289
0.527675
0.527713
0.518142
0.314069
0.356547
0.528423
0.545338
0.530686
0.524346
0.513862
0.511085
0.337913
0.570557
0.526687
0.630567
0.269992
0.355742
0.611116
0.59704
0.620334
0.556859
0.521932
0.535003
0.621642
0.63168
0.529474
0.355914
0.527634
0.305775
0.364966
0.34764
0.545166
0.527283
0.272378
0.524763
0.583026
0.34168
0.530356
0.533234
0.565234
0.350372
0.339006
0.535978
0.32876
0.339611
0.35507
0.337656
0.528634
0.363215
0.544726
0.337618
0.530976
0.538779
0.531628
0.54312
0.327252
0.363514
0.527986
0.557969
0.581656
0.544629
0.555214
0.456334
0.362238
0.371501
0.530607
0.481616
0.335898
0.410595
0.353801
0.539642
0.530199
0.270035
0.354479
0.52461
0.427712
0.525406
0.625303
0.372769
0.354329
0.577577
0.530923
0.37531
0.526487
0.530842
0.527632
0.339312
0.531143
0.374935
0.530859
0.629179
0.328242
0.321823
0.360432
0.530766
0.363122
0.353776
0.345374
0.530305
0.54632
0.353709
0.368031
0.331372
0.530461
0.348656
0.530571
0.363623
0.5467
0.554321
0.334313
0.375386
0.374272
0.456608
0.368689
0.527674
0.371709
0.343632
0.530146
0.355046
0.53098
0.51805
0.530831
0.365944
0.529627
0.588285
0.578983
0.530642
0.541494
0.532374
0.370724
0.53068
0.401344
0.526781
0.351369
0.544029
0.458004
0.349585
0.530541
0.552032
0.336179
0.570166
0.39141
0.351354
0.531237
0.530604
0.342907
0.365978
0.352113
0.36917
0.540703
0.636337
0.339434
0.36599
0.538564
0.534217
0.548722
0.585775
0.530213
0.344345
0.580656
0.386604
0.539397
0.344845
0.553132
0.440452
0.53149
0.614344
0.53579
0.300927
0.354923
0.529667
0.565198
0.463676
0.587269
0.363778
0.579387
0.56098
0.333667
0.40642
0.58198
0.314808
0.530497
0.63266
0.291566
0.534691
0.601151
0.343802
0.55302
0.378849
0.523252
0.36297
0.531031
0.524085
0.360885
0.530612
0.584665
0.537733
0.584307
0.550491
0.543316
0.361994
0.368337
0.321304
0.371882
0.531322
0.514674
0.532949
0.547493
0.371961
0.356466
0.546789
0.556769
0.533571
0.542195
0.348972
0.648137
0.552797
0.35426
0.340646
0.534131
0.527899
0.523949
0.345217
0.552036
0.354513
0.558353
0.516627
0.530693
0.525216
0.335729
0.52951
0.527125
0.607278
0.530348
0.530052
0.397388
0.560064
0.32668
0.527504
0.555671
0.422638
0.535816
0.530687
0.538588
0.352611
0.355964
0.544316
0.614023
0.3294
0.32715
0.343921
0.334692
0.534392
0.58144
0.530349
0.267723
0.34008
0.531993
0.647079
0.36082
0.360455
0.423002
0.585355
0.529738
0.527554
0.606845
0.326296
0.329753
0.531061
0.39575
0.356757
0.371192
0.529691
0.353886
0.327083
0.532908
0.52713
0.516956
0.530623
0.529837
0.357851
0.354463
0.345253
0.423403
0.398022
0.387914
0.617346
0.61647
0.521155
0.530339
0.358927
0.356014
0.557731
0.334528
0.529998
0.522002
0.530788
0.342933
0.328788
0.520765
0.530538
0.506623
0.363047
0.52553
0.530625
0.52816
0.538995
0.542937
0.531002
0.514601
0.348829
0.529855
0.530482
0.541237
0.56199
0.531327
0.516849
0.531061
0.533222
0.343999
0.343039
0.350686
0.530749
0.455811
0.332324
0.54421
0.540429
0.328872
0.579385
0.356605
0.577687
0.416147
0.360471
0.552298
0.639597
0.333965
0.510226
0.530736
0.375465
0.532467
0.365377
0.372029
0.572555
0.567061
0.460199
0.529283
0.34558
0.58076
0.348949
0.340706
0.530967
0.336479
0.559935
0.356957
0.576835
0.554891
0.531075
0.528463
0.360111
0.3436
0.523713
0.378004
0.533754
0.410492
0.54645
0.530367
0.609359
0.392655
0.572647
0.517918
0.580458
0.532422
0.311498
0.337266
0.499449
0.52027
0.594032
0.330624
0.529389
0.508623
0.363128
0.347087
0.635644
0.59037
0.531137
0.530769
0.51115
0.599128
0.530391
0.601363
0.35773
0.621732
0.420439
0.535575
0.527612
0.263206
0.549407
0.541013
0.341871
0.361305
0.364091
0.531316
0.345501
0.572664
0.562036
0.623743
0.319166
0.524236
0.368902
0.551158
0.530641
0.530408
0.617079
0.530433
0.578676
0.597135
0.476088
0.526474
0.363002
0.529892
0.531601
0.359435
0.530981
0.573771
0.380841
0.361435
0.374753
0.537872
0.325924
0.530931
0.359729
0.545794
0.356996
0.441011
0.364485
0.578752
0.541214
0.481742
0.236809
0.578447
0.530242
0.343263
0.54761
0.546514
0.385027
0.54388
0.530595
0.553135
0.530043
0.374292
0.420121
0.535371
0.528876
0.529158
0.326478
0.353151
0.526008
0.531142
0.530948
0.531211
0.499895
0.534974
0.494436
0.534202
0.326778
0.370704
0.531188
0.543798
0.530302
0.368198
0.529763
0.507147
0.551083
0.347767
0.381098
0.539615
0.548633
0.512805
0.293577
0.529843
0.530942
0.347707
0.569621
0.607426
0.347199
0.388398
0.359664
0.518366
0.354312
0.365387
0.527632
0.416507
0.581245
0.584474
0.349317
0.36047
0.543456
0.340215
0.347291
0.530532
0.37381
0.310625
0.548398
0.5409
0.530279
0.336655
0.358189
0.340246
0.517907
0.373016
0.530372
0.351628
0.540377
0.536627
0.527693
0.514098
0.531966
0.516419
0.529788
0.542386
0.531779
0.362656
0.329918
0.534402
0.530489
0.466599
0.51401
0.514162
0.530501
0.539807
0.355054
0.532922
0.548521
0.525252
0.337835
0.531011
0.346597
0.529434
0.459582
0.636715
0.530539
0.360099
0.536065
0.333667
0.382008
0.526283
0.36986
0.648169
0.53135
0.54296
0.370792
0.531214
0.333364
0.354091
0.357435
0.324368
0.528685
0.358006
0.557211
0.530677
0.295919
0.376769
0.449771
0.540571
0.590293
0.523535
0.368103
0.363477
0.344359
0.364414
0.233878
0.588339
0.519517
0.350052
0.530297
0.559264
0.359733
0.552807
0.646658
0.530668
0.332634
0.530768
0.552323
0.555213
0.536411
0.355593
0.531384
0.549517
0.530567
0.636958
0.530071
0.363748
0.364482
0.529483
0.497873
0.328546
0.530905
0.371064
0.531858
0.57629
0.522058
0.523676
0.366477
0.513503
0.352057
0.337208
0.644636
0.538015
0.556254
0.535767
0.59302
0.356473
0.545352
0.361823
0.465688
0.543264
0.53073
0.534659
0.337406
0.36843
0.55378
0.363145
0.535402
0.614104
0.388607
0.365338
0.532838
0.359202
0.530607
0.535346
0.577843
0.358704
0.343005
0.459144
0.468655
0.576205
0.426029
0.530077
0.522124
0.527231
0.531355
0.544038
0.356034
0.364683
0.536377
0.530047
0.53052
0.422932
0.371223
0.56922
0.357132
0.530191
0.577985
0.309849
0.534698
0.345012
0.53535
0.35544
0.549972
0.359897
0.528765
0.530439
0.296081
0.533037
0.613244
0.285483
0.530401
0.528696
0.511902
0.358454
0.321804
0.419884
0.585159
0.514985
0.35297
0.546929
0.543764
0.530195
0.30908
0.558567
0.522326
0.427808
0.52999
0.530321
0.259348
0.53134
0.530609
0.355746
0.553408
0.368992
0.571409
0.363466
0.371719
0.599255
0.329024
0.329299
0.359891
0.531633
0.520723
0.355652
0.529728
0.318081
0.562406
0.332756
0.522019
0.323129
0.530378
0.529692
0.571469
0.530559
0.514456
0.530426
0.530638
0.352429
0.601333
0.578995
0.432184
0.542476
0.455251
0.35476
0.545572
0.369394
0.530004
0.356934
0.529525
0.360406
0.375277
0.641957
0.52997
0.362907
0.534629
0.619437
0.531309
0.542152
0.530819
0.348121
0.55812
0.358199
0.376548
0.529649
0.602061
0.546555
0.525694
0.37215
0.364124
0.342219
0.526853
0.530617
0.32052
0.543889
0.364143
0.369937
0.349103
0.527136
0.345645
0.546732
0.532138
0.600164
0.530296
0.53123
0.528099
0.557363
0.399816
0.360068
0.363345
0.530806
0.530821
0.367837
0.58642
0.517253
0.563033
0.374906
0.350525
0.52218
0.251746
0.522805
0.524441
0.354233
0.53034
0.533066
0.334251
0.529683
0.347842
0.532915
0.592632
0.531358
0.359002
0.435037
0.645285
0.267909
0.408149
0.529537
0.274697
0.530321
0.532281
0.526909
0.625867
0.288477
0.530614
0.643169
0.52889
0.330022
0.536565
0.349388
0.355423
0.524437
0.529741
0.530463
0.21298
0.530766
0.60102
0.530776
0.363871
0.357785
0.327977
0.535391
0.346991
0.353932
0.343535
0.523509
0.350011
0.262255
0.409559
0.530179
0.343412
0.530508
0.530542
0.532748
0.37069
0.530958
0.616771
0.530313
0.382687
0.634173
0.344798
0.368753
0.531212
0.361342
0.577981
0.550031
0.531097
0.35175
0.29593
0.335771
0.522663
0.531204
0.210755
0.525856
0.531528
0.621086
0.328298
0.361863
0.311364
0.514029
0.330927
0.53139
0.569465
0.530546
0.526391
0.349308
0.575023
0.37417
0.497539
0.616306
0.557771
0.507948
0.424557
0.633267
0.531718
0.536983
0.368449
0.324912
0.372463
0.638116
0.487841
0.530722
0.351331
0.360582
0.571031
0.530711
0.530421
0.361778
0.533467
0.520998
0.524036
0.515046
0.371981
0.359326
0.258724
0.529928
0.530667
0.635088
0.516625
0.309013
0.544596
0.626552
0.53066
0.530346
0.54251
0.549203
0.530702
0.587353
0.559666
0.372165
0.532239
0.536286
0.529929
0.532959
0.529709
0.522846
0.344567
0.376006
0.539399
0.325868
0.29406
0.533406
0.350235
0.604503
0.531758
0.525566
0.52547
0.381042
0.534662
0.354844
0.367782
0.530743
0.532429
0.530413
0.371189
0.538715
0.529295
0.530069
0.529728
0.35069
0.529962
0.554125
0.539636
0.358299
0.616535
0.336868
0.544715
0.367059
0.344007
0.469861
0.410481
0.552751
0.593921
0.530057
0.341595
0.529991
0.357218
0.352723
0.522239
0.45413
0.326044
0.529669
0.368808
0.475823
0.626383
0.52177
0.522099
0.452417
0.560494
0.617306
0.530475
0.518665
0.554491
0.496086
0.563244
0.517873
0.609983
0.355554
0.349024
0.410189
0.535669
0.380285
0.629296
0.535158
0.562526
0.53049
0.468211
0.643568
0.600367
0.33447
0.534266
0.514131
0.437844
0.513544
0.549157
0.527353
0.530224
0.327086
0.34628
0.527504
0.491231
0.496754
0.534131
0.529175
0.529984
0.602291
0.585707
0.580922
0.51972
0.56406
0.356038
0.368355
0.360826
0.336052
0.530949
0.417683
0.490281
0.533844
0.602493
0.375911
0.526115
0.543599
0.372708
0.337804
0.53088
0.533407
0.36852
0.329713
0.338963
0.531354
0.534032
0.362742
0.355319
0.354343
0.372414
0.300506
0.327242
0.556531
0.529868
0.551404
0.368073
0.52529
0.562106
0.575494
0.329475
0.351538
0.522093
0.531236
0.328278
0.530253
0.334615
0.625815
0.373209
0.532525
0.366467
0.521197
0.540454
0.370798
0.525743
0.365352
0.556944
0.374422
0.565342
0.368938
0.462451
0.343373
0.555158
0.341303
0.530571
0.530455
0.573112
0.532055
0.316091
0.521782
0.530156
0.539317
0.559763
0.562802
0.351598
0.34119
0.369469
0.603094
0.260933
0.541164
0.506921
0.604238
0.551801
0.410402
0.557113
0.352156
0.364997
0.354761
0.467573
0.466678
0.528709
0.337479
0.361208
0.530864
0.349186
0.357263
0.498704
0.330638
0.327971
0.376547
0.547795
0.622931
0.569888
0.373624
0.522066
0.530105
0.358661
0.293783
0.526842
0.529864
0.502252
0.479054
0.382396
0.329288
0.35393
0.539376
0.533946
0.478543
0.639888
0.362759
0.527609
0.345918
0.530571
0.539698
0.351822
0.366877
0.536104
0.491349
0.541459
0.557548
0.575923
0.535855
0.544518
0.360795
0.350555
0.374116
0.349905
0.489453
0.53074
0.625063
0.347848
0.361652
0.407269
0.38839
0.529903
0.522153
0.326678
0.269944
0.531775
0.375432
0.61465
0.570391
0.518799
0.529988
0.50344
0.338685
0.364902
0.51814
0.352121
0.373842
0.356151
0.53026
0.530525
0.296899
0.351288
0.531172
0.346512
0.530962
0.608258
0.346873
0.342133
0.358452
0.531359
0.355691
0.53135
0.568457
0.562681
0.325114
0.492801
0.536562
0.524852
0.350692
0.523275
0.543508
0.419628
0.533716
0.561359
0.338292
0.331638
0.520832
0.332393
0.351144
0.522144
0.315157
0.529056
0.645789
0.623885
0.556218
0.54427
0.531931
0.530567
0.344912
0.379157
0.538683
0.529048
0.434912
0.55367
0.286427
0.533083
0.523025
0.529411
0.612148
0.34208
0.418981
0.526428
0.540604
0.516075
0.540443
0.531009
0.530987
0.542436
0.531252
0.540267
0.523551
0.540166
0.531201
0.530552
0.301889
0.52431
0.352427
0.53263
0.532383
0.584788
0.515971
0.63163
0.341262
0.33711
0.271822
0.350097
0.518892
0.362505
0.332957
0.592421
0.345032
0.589414
0.353274
0.522078
0.531336
0.334634
0.351554
0.298335
0.535232
0.375084
0.52826
0.536452
0.336118
0.520597
0.517954
0.300169
0.352563
0.350324
0.653521
0.33107
0.533898
0.464967
0.365341
0.529058
0.529696
0.579361
0.333232
0.534608
0.363298
0.525765
0.53041
0.532403
0.326261
0.528954
0.533964
0.514324
0.366772
0.535029
0.333258
0.337705
0.531028
0.41392
0.562267
0.349432
0.326859
0.410008
0.514262
0.359068
0.245715
0.357035
0.434789
0.530703
0.533373
0.356284
0.556104
0.530969
0.524327
0.375846
0.315604
0.520529
0.330335
0.344299
0.527283
0.334474
0.330578
0.538312
0.54519
0.371514
0.641915
0.349289
0.5309
0.349958
0.523829
0.530645
0.631504
0.530387
0.347846
0.342075
0.360501
0.53044
0.522326
0.557813
0.501261
0.340778
0.273224
0.530091
0.344317
0.529371
0.350254
0.530667
0.620852
0.367539
0.362044
0.336319
0.350375
0.358681
0.53295
0.519904
0.366892
0.531425
0.599229
0.356256
0.35639
0.545671
0.325462
0.530434
0.395994
0.624811
0.61815
0.530916
0.530665
0.349112
0.583432
0.531884
0.548904
0.325708
0.518812
0.564666
0.29609
0.535871
0.563276
0.562117
0.520949
0.544988
0.531029
0.544375
0.52988
0.528666
0.371041
0.592808
0.335887
0.413569
0.529268
0.362313
0.522869
0.513524
0.361457
0.513839
0.3269
0.397972
0.530043
0.512982
0.544769
0.332936
0.520374
0.584218
0.351066
0.368139
0.530398
0.530156
0.343369
0.344772
0.568015
0.545632
0.354363
0.603761
0.541246
0.62642
0.368795
0.333655
0.362963
0.620204
0.35733
0.523495
0.640138
0.530064
0.559038
0.531008
0.331398
0.524696
0.583369
0.540246
0.50526
0.371033
0.34685
0.367839
0.620463
0.535617
0.393723
0.616145
0.357539
0.571315
0.53326
0.364567
0.543712
0.523859
0.585082
0.368563
0.355159
0.334235
0.53482
0.559715
0.581283
0.478456
0.530696
0.32913
0.598354
0.530872
0.529467
0.369462
0.59486
0.3617
0.512431
0.371438
0.5274
0.531041
0.373232
0.534025
0.380756
0.5312
0.591003
0.531382
0.537266
0.369995
0.530078
0.529824
0.530899
0.527813
0.449437
0.530901
0.361378
0.529863
0.365504
0.367411
0.366116
0.360058
0.329554
0.369339
0.543017
0.33434
0.353432
0.609047
0.534499
0.520571
0.364669
0.62391
0.639983
0.530069
0.289889
0.518942
0.531893
0.349173
0.350017
0.341744
0.591117
0.472807
0.351583
0.533065
0.360488
0.530757
0.465565
0.355833
0.43689
0.614327
0.329286
0.530425
0.360938
0.419798
0.339884
0.539174
0.346427
0.593818
0.530824
0.512256
0.374455
0.3413
0.540316
0.546981
0.342003
0.35309
0.53031
0.358532
0.618806
0.367272
0.522905
0.368013
0.531854
0.349829
0.544397
0.36719
0.53331
0.531267
0.540369
0.530995
0.360644
0.375538
0.363377
0.532389
0.59444
0.514949
0.468671
0.358845
0.557581
0.317811
0.520813
0.511923
0.352513
0.369213
0.574562
0.527275
0.365977
0.530663
0.544458
0.561744
0.616898
0.361209
0.601201
0.3325
0.554729
0.359462
0.530399
0.520714
0.542491
0.544023
0.357949
0.545416
0.32604
0.334286
0.530863
0.530974
0.508098
0.527465
0.530981
0.326411
0.644633
0.537189
0.544147
0.348577
0.38973
0.627703
0.36223
0.533238
0.535618
0.523783
0.539163
0.258982
0.406181
0.615415
0.373379
0.523509
0.551664
0.428425
0.529386
0.240236
0.52022
0.643283
0.643888
0.5323
0.352734
0.381356
0.528807
0.522692
0.358277
0.290742
0.347876
0.375457
0.354014
0.363611
0.35405
0.32693
0.528538
0.365245
0.369698
0.566683
0.505834
0.531161
0.360412
0.351778
0.531224
0.425175
0.428799
0.55968
0.33419
0.628079
0.530679
0.575512
0.523838
0.375586
0.533325
0.530651
0.337843
0.338364
0.354341
0.512601
0.574534
0.546226
0.53059
0.53016
0.525635
0.32452
0.532759
0.530628
0.535311
0.340258
0.532134
0.509716
0.317911
0.396813
0.359885
0.36455
0.357591
0.553461
0.626905
0.535051
0.342907
0.359293
0.540906
0.309052
0.540285
0.529783
0.523997
0.644929
0.530563
0.347779
0.363882
0.35754
0.525855
0.363499
0.530223
0.339945
0.531208
0.530132
0.532031
0.343474
0.408677
0.370398
0.531043
0.34117
0.34243
0.533741
0.522808
0.560862
0.530503
0.531534
0.617405
0.337274
0.59249
0.548818
0.494913
0.530308
0.546002
0.598322
0.427562
0.393129
0.544955
0.461799
0.568072
0.329568
0.52622
0.524746
0.357964
0.355643
0.528315
0.469404
0.542744
0.541626
0.330298
0.354893
0.530615
0.338636
0.3659
0.526337
0.530027
0.362987
0.526355
0.530798
0.517896
0.344485
0.554855
0.337048
0.528487
0.539195
0.613249
0.538238
0.53069
0.267837
0.317407
0.536846
0.327437
0.574847
0.367143
0.531309
0.358553
0.605719
0.550901
0.53072
0.325943
0.531349
0.530768
0.346758
0.529243
0.337924
0.547797
0.326842
0.365736
0.353
0.561702
0.528086
0.293872
0.266574
0.52646