# vtk DataFile Version 1.0
unstructured grid
ascii
DATASET UNSTRUCTURED_GRID
points 13672 float
0.0796578 -0.059106 0
0.00128732 0.00159165 0
0.00227961 -0.00102548 0
0.0791586 -0.0598787 0
-0.0546216 0.01 0
0.000495206 0.025 0
0.0800549 -0.035 0
0.135172 -0.08 0
-0.0546216 -0.0451168 0
0.000495206 -0.0301168 0
0.0800549 -0.0901168 0
0.135172 -0.135117 0
-0.0546216 -0.0451168 -0.00551168
0.000495206 -0.0301168 -0.00551168
0.0800549 -0.0901168 -0.00551168
0.135172 -0.135117 -0.00551168
0.135172 -0.08 -0.00551168
0.0800549 -0.035 -0.00551168
0.000495206 0.025 -0.00551168
-0.0546216 0.01 -0.00551168
0.00128732 0.00159165 -0.00551168
0.00227961 -0.00102548 -0.00551168
0.0791586 -0.0598787 -0.00551168
0.0796578 -0.059106 -0.00551168
0.00165953 -0.000990923 0
0.00119576 -0.000874076 0
0.000866021 -0.000641801 0
0.000645147 -0.000349912 0
0.00052235 -1.7281e-05 0
0.00049972 0.000348016 0
0.000601632 0.000737716 0
0.000861774 0.0011403 0
0.00157235 0.00183217 0
0.00188647 0.00206725 0
0.00222612 0.00230203 0
0.00258713 0.00254351 0
0.00296826 0.00279524 0
0.00337118 0.00305664 0
0.00379785 0.00332658 0
0.00425045 0.00360349 0
0.00473139 0.00388521 0
0.0052432 0.00416895 0
0.0057881 0.00445204 0
0.00636753 0.00473281 0
0.00698281 0.00500961 0
0.00763526 0.00528058 0
0.00832616 0.00554366 0
0.00905691 0.00579603 0
0.00982918 0.00603333 0
0.0106445 0.00625033 0
0.0115038 0.00644128 0
0.0124073 0.00660297 0
0.0133543 0.00673414 0
0.0143444 0.00683382 0
0.0153769 0.00690031 0
0.0164512 0.00693173 0
0.0175666 0.00692547 0
0.0187219 0.00687822 0
0.0199156 0.00678477 0
0.0211454 0.00663864 0
0.0224084 0.00643275 0
0.0237018 0.00616676 0
0.0250249 0.00584739 0
0.026375 0.00547298 0
0.0277479 0.00503752 0
0.0291386 0.00453545 0
0.0305433 0.0039653 0
0.0319572 0.0033256 0
0.0333681 0.00260019 0
0.034775 0.00179799 0
0.0361793 0.000930615 0
0.0375798 3.12222e-06 0
0.0389689 -0.000988429 0
0.0403357 -0.00205109 0
0.041675 -0.00318283 0
0.0429849 -0.00437751 0
0.0442643 -0.00562904 0
0.0455126 -0.00693089 0
0.0467314 -0.00827518 0
0.0479204 -0.00965638 0
0.0490661 -0.0110799 0
0.0501515 -0.0125519 0
0.0511696 -0.0140695 0
0.0521492 -0.0156071 0
0.0531202 -0.0171411 0
0.0540851 -0.0186663 0
0.0550431 -0.0201798 0
0.0559923 -0.0216793 0
0.0569311 -0.0231626 0
0.0578582 -0.0246273 0
0.0587723 -0.0260715 0
0.0596721 -0.027493 0
0.0605563 -0.02889 0
0.0614241 -0.0302609 0
0.0622742 -0.0316042 0
0.063106 -0.0329183 0
0.0639186 -0.034202 0
0.0647113 -0.0354543 0
0.0654835 -0.0366743 0
0.0662345 -0.0378613 0
0.0669642 -0.0390145 0
0.0676726 -0.0401333 0
0.0683597 -0.0412172 0
0.0690246 -0.0422665 0
0.0696662 -0.0432819 0
0.0702841 -0.0442636 0
0.0708793 -0.0452111 0
0.0714538 -0.0461237 0
0.072009 -0.047001 0
0.0725452 -0.0478434 0
0.0730611 -0.0486524 0
0.073556 -0.0494294 0
0.0740291 -0.0501756 0
0.0744812 -0.0508916 0
0.0749138 -0.0515773 0
0.0753285 -0.0522331 0
0.0757266 -0.0528592 0
0.076109 -0.0534564 0
0.0764753 -0.0540264 0
0.0768243 -0.054571 0
0.0771553 -0.0550919 0
0.0774679 -0.0555901 0
0.0777617 -0.0560669 0
0.0780369 -0.056523 0
0.0782958 -0.0569578 0
0.0785421 -0.0573703 0
0.0787786 -0.0577603 0
0.0790073 -0.0581279 0
0.0792295 -0.058474 0
0.0794462 -0.0587995 0
0.0798803 -0.0594162 0
0.0800272 -0.0596588 0
0.0800357 -0.0598891 0
0.0799275 -0.0600784 0
0.0797205 -0.0601773 0
0.0794593 -0.0601051 0
0.0789155 -0.0596491 0
0.0786707 -0.0593963 0
0.0784111 -0.0591319 0
0.0781372 -0.0588542 0
0.0778566 -0.0585548 0
0.0775715 -0.0582308 0
0.0772803 -0.0578828 0
0.0769832 -0.0575099 0
0.0766822 -0.0571097 0
0.0763801 -0.0566796 0
0.0760759 -0.0562196 0
0.0757623 -0.0557337 0
0.0754359 -0.0552232 0
0.0750951 -0.0546879 0
0.0747379 -0.054128 0
0.0743626 -0.0535435 0
0.0739688 -0.0529338 0
0.0735559 -0.0522981 0
0.0731238 -0.0516357 0
0.0726718 -0.050946 0
0.0721991 -0.0502288 0
0.0717046 -0.049484 0
0.0711872 -0.0487117 0
0.0706461 -0.047912 0
0.0700804 -0.0470849 0
0.0694892 -0.0462308 0
0.0688718 -0.0453499 0
0.0682271 -0.0444431 0
0.0675544 -0.043511 0
0.0668527 -0.0425546 0
0.0661215 -0.0415748 0
0.06536 -0.040573 0
0.0645676 -0.0395504 0
0.0637439 -0.0385087 0
0.0628887 -0.0374493 0
0.062002 -0.0363741 0
0.0610838 -0.0352847 0
0.0601345 -0.0341831 0
0.0591547 -0.033071 0
0.0581456 -0.0319502 0
0.0571083 -0.0308224 0
0.0560444 -0.0296893 0
0.0549562 -0.028552 0
0.053845 -0.0274126 0
0.0527113 -0.0262746 0
0.051554 -0.0251427 0
0.0503724 -0.0240222 0
0.0491675 -0.0229164 0
0.047941 -0.0218282 0
0.0466955 -0.0207597 0
0.0454337 -0.0197126 0
0.0441592 -0.0186878 0
0.0428751 -0.0176863 0
0.0415841 -0.0167097 0
0.0402878 -0.0157609 0
0.0389879 -0.0148428 0
0.0376864 -0.0139575 0
0.0363853 -0.013107 0
0.0350871 -0.0122931 0
0.0337942 -0.0115164 0
0.0325095 -0.0107772 0
0.0312357 -0.0100756 0
0.0299758 -0.00941024 0
0.0287337 -0.00877784 0
0.0275126 -0.00817571 0
0.0263139 -0.00760375 0
0.0251376 -0.00706528 0
0.0239829 -0.0065649 0
0.0228537 -0.00609619 0
0.0217522 -0.00565563 0
0.0206795 -0.00524226 0
0.0196364 -0.00485507 0
0.0186233 -0.00449318 0
0.0176408 -0.00415577 0
0.016689 -0.00384204 0
0.0157682 -0.00355115 0
0.0148783 -0.00328218 0
0.0140192 -0.00303468 0
0.0131906 -0.00280795 0
0.0123925 -0.00260016 0
0.0116246 -0.00241012 0
0.0108864 -0.00223769 0
0.0101774 -0.00208212 0
0.00949701 -0.00194206 0
0.00884483 -0.0018163 0
0.0082202 -0.0017039 0
0.00762247 -0.00160391 0
0.00705097 -0.00151528 0
0.006505 -0.00143697 0
0.0059838 -0.00136806 0
0.00548662 -0.00130772 0
0.00501265 -0.00125519 0
0.00456114 -0.00120954 0
0.00413136 -0.00116914 0
0.00372257 -0.00113251 0
0.00333398 -0.00109853 0
0.00296466 -0.00106798 0
0.00261363 -0.0010431 0
-0.052721 -0.0445996 0
-0.0508204 -0.0440823 0
-0.0489199 -0.0435651 0
-0.0470193 -0.0430478 0
-0.0451187 -0.0425306 0
-0.0432181 -0.0420134 0
-0.0413175 -0.0414961 0
-0.039417 -0.0409789 0
-0.0375164 -0.0404616 0
-0.0356158 -0.0399444 0
-0.0337152 -0.0394271 0
-0.0318146 -0.0389099 0
-0.0299141 -0.0383927 0
-0.0280135 -0.0378754 0
-0.0261129 -0.0373582 0
-0.0242123 -0.0368409 0
-0.0223117 -0.0363237 0
-0.0204112 -0.0358065 0
-0.0185106 -0.0352892 0
-0.01661 -0.034772 0
-0.0147094 -0.0342547 0
-0.0128088 -0.0337375 0
-0.0109083 -0.0332202 0
-0.00900769 -0.032703 0
-0.00710711 -0.0321858 0
-0.00520653 -0.0316685 0
-0.00330595 -0.0311513 0
-0.00140537 -0.030634 0
0.00190689 -0.0299614 0
0.00332271 -0.0298498 0
0.00474133 -0.0297825 0
0.00616136 -0.0297597 0
0.0075814 -0.0297814 0
0.00900007 -0.0298477 0
0.010416 -0.0299583 0
0.0118278 -0.0301127 0
0.0132342 -0.0303103 0
0.0146339 -0.0305504 0
0.0160259 -0.0308322 0
0.0174091 -0.0311546 0
0.0187824 -0.0315166 0
0.020145 -0.031917 0
0.0214961 -0.0323546 0
0.0228351 -0.032828 0
0.0241613 -0.0333361 0
0.0254744 -0.0338774 0
0.0267738 -0.0344507 0
0.0280592 -0.0350545 0
0.0293306 -0.0356877 0
0.0305875 -0.0363488 0
0.0318301 -0.0370367 0
0.0330581 -0.0377501 0
0.0342717 -0.0384879 0
0.0354708 -0.0392489 0
0.0366556 -0.0400321 0
0.0378262 -0.0408363 0
0.0389828 -0.0416607 0
0.0401254 -0.0425042 0
0.0412543 -0.0433659 0
0.0423698 -0.0442451 0
0.043472 -0.0451408 0
0.0445612 -0.0460523 0
0.0456375 -0.0469789 0
0.0467013 -0.0479199 0
0.0477529 -0.0488746 0
0.0487923 -0.0498424 0
0.04982 -0.0508227 0
0.0508362 -0.051815 0
0.051841 -0.0528187 0
0.0528348 -0.0538333 0
0.0538178 -0.0548584 0
0.0547903 -0.0558935 0
0.0557524 -0.0569382 0
0.0567045 -0.0579922 0
0.0576467 -0.0590549 0
0.0585792 -0.0601261 0
0.0595024 -0.0612055 0
0.0604163 -0.0622926 0
0.0613212 -0.0633873 0
0.0622174 -0.0644891 0
0.0631049 -0.0655979 0
0.0639841 -0.0667134 0
0.064855 -0.0678353 0
0.0657179 -0.0689633 0
0.0665729 -0.0700974 0
0.0674202 -0.0712372 0
0.06826 -0.0723826 0
0.0690925 -0.0735333 0
0.0699178 -0.0746892 0
0.070736 -0.0758501 0
0.0715473 -0.0770159 0
0.0723518 -0.0781863 0
0.0731498 -0.0793612 0
0.0739412 -0.0805405 0
0.0747264 -0.081724 0
0.0755053 -0.0829116 0
0.0762781 -0.0841033 0
0.0770449 -0.0852987 0
0.0778059 -0.0864979 0
0.0785611 -0.0877007 0
0.0793108 -0.088907 0
0.0814681 -0.0912706 0
0.0828814 -0.0924245 0
0.0842946 -0.0935783 0
0.0857079 -0.0947322 0
0.0871211 -0.095886 0
0.0885344 -0.0970399 0
0.0899476 -0.0981937 0
0.0913609 -0.0993476 0
0.0927741 -0.100501 0
0.0941874 -0.101655 0
0.0956006 -0.102809 0
0.0970139 -0.103963 0
0.0984272 -0.105117 0
0.0998404 -0.106271 0
0.101254 -0.107424 0
0.102667 -0.108578 0
0.10408 -0.109732 0
0.105493 -0.110886 0
0.106907 -0.11204 0
0.10832 -0.113194 0
0.109733 -0.114348 0
0.111146 -0.115501 0
0.11256 -0.116655 0
0.113973 -0.117809 0
0.115386 -0.118963 0
0.116799 -0.120117 0
0.118213 -0.121271 0
0.119626 -0.122424 0
0.121039 -0.123578 0
0.122452 -0.124732 0
0.123866 -0.125886 0
0.125279 -0.12704 0
0.126692 -0.128194 0
0.128105 -0.129348 0
0.129519 -0.130501 0
0.130932 -0.131655 0
0.132345 -0.132809 0
0.133758 -0.133963 0
0.135172 -0.133216 0
0.135172 -0.131316 0
0.135172 -0.129415 0
0.135172 -0.127514 0
0.135172 -0.125614 0
0.135172 -0.123713 0
0.135172 -0.121813 0
0.135172 -0.119912 0
0.135172 -0.118012 0
0.135172 -0.116111 0
0.135172 -0.11421 0
0.135172 -0.11231 0
0.135172 -0.110409 0
0.135172 -0.108509 0
0.135172 -0.106608 0
0.135172 -0.104708 0
0.135172 -0.102807 0
0.135172 -0.100906 0
0.135172 -0.0990058 0
0.135172 -0.0971052 0
0.135172 -0.0952046 0
0.135172 -0.0933041 0
0.135172 -0.0914035 0
0.135172 -0.0895029 0
0.135172 -0.0876023 0
0.135172 -0.0857017 0
0.135172 -0.0838012 0
0.135172 -0.0819006 0
0.133758 -0.0788462 0
0.132345 -0.0776923 0
0.130932 -0.0765385 0
0.129519 -0.0753846 0
0.128105 -0.0742308 0
0.126692 -0.0730769 0
0.125279 -0.0719231 0
0.123866 -0.0707692 0
0.122452 -0.0696154 0
0.121039 -0.0684615 0
0.119626 -0.0673077 0
0.118213 -0.0661538 0
0.116799 -0.065 0
0.115386 -0.0638462 0
0.113973 -0.0626923 0
0.11256 -0.0615385 0
0.111146 -0.0603846 0
0.109733 -0.0592308 0
0.10832 -0.0580769 0
0.106907 -0.0569231 0
0.105493 -0.0557692 0
0.10408 -0.0546154 0
0.102667 -0.0534615 0
0.101254 -0.0523077 0
0.0998404 -0.0511538 0
0.0984272 -0.05 0
0.0970139 -0.0488462 0
0.0956006 -0.0476923 0
[...]
CELL_DATA 13116
SCALARS rho float
LOOKUP_TABLE default
0.446101
0.524021
0.31301
0.561604
0.553467
0.539585
0.359689
0.555156
0.428699
0.557292
0.361938
0.301776
0.553661
0.343416
0.335357
0.539689
0.424447
0.551257
0.538378
0.350075
0.449198
0.356326
0.33046
0.552561
0.488271
0.505022
0.557344
0.317319
0.523005
0.514245
0.538032
0.314607
0.449328
0.366539
0.353129
0.447719
0.527892
0.534126
0.539196
0.540564
0.539318
0.557866
0.35249
0.31197
0.537321
0.538262
0.507569
0.540976
0.371329
0.425607
0.55164
0.36344
0.357566
0.4196
0.448246
0.470733
0.311051
0.5498
0.435957
0.337563
0.342865
0.558101
0.517077
0.539113
0.538237
0.329823
0.542037
0.532933
0.542956
0.538359
0.33755
0.482543
0.348444
0.318733
0.537573
0.34507
0.512383
0.549311
0.366015
0.549052
0.537496
0.509113
0.552479
0.540771
0.530477
0.407029
0.372219
0.530967
0.526596
0.357025
0.307819
0.525252
0.554344
0.530538
0.516489
0.480223
0.490063
0.538018
0.537704
0.484597
0.538596
0.474735
0.538949
0.352819
0.495175
0.342138
0.318987
0.389087
0.322596
0.527962
0.411353
0.504672
0.47882
0.540205
0.549503
0.542201
0.36251
0.335221
0.546574
0.543247
0.533241
0.338507
0.54326
0.316886
0.526082
0.36462
0.37123
0.41767
0.308945
0.42714
0.54678
0.541272
0.434681
0.367719
0.414336
0.471283
0.536879
0.545218
0.53797
0.543029
0.500748
0.50997
0.415397
0.501343
0.513727
0.328794
0.352518
0.503117
0.551807
0.548461
0.456667
0.540321
0.54092
0.333708
0.554716
0.5315
0.328391
0.54275
0.538056
0.531252
0.551888
0.365075
0.551068
0.328311
0.331537
0.556438
0.523976
0.550896
0.355251
0.404434
0.366668
0.536866
0.334031
0.402716
0.541457
0.331442
0.367012
0.350496
0.501821
0.539313
0.336117
0.364285
0.427064
0.528221
0.5394
0.433916
0.319807
0.539041
0.486372
0.378089
0.507716
0.501599
0.538419
0.329965
0.498009
0.539706
0.555237
0.538769
0.525614
0.333266
0.352969
0.523699
0.413851
0.336086
0.547848
0.53718
0.370845
0.487593
0.33802
0.356387
0.342154
0.540977
0.326684
0.358336
0.353203
0.332811
0.317858
0.538574
0.523736
0.400073
0.312029
0.541863
0.40677
0.337907
0.499058
0.557552
0.512055
0.324404
0.54159
0.35242
0.56121
0.310912
0.538426
0.477544
0.537897
0.53526
0.538509
0.356796
0.359868
0.531277
0.537563
0.539587
0.537009
0.538341
0.549886
0.367632
0.548058
0.555222
0.5377
0.353846
0.370988
0.538349
0.546059
0.538291
0.543232
0.436352
0.542593
0.362697
0.379438
0.332248
0.338663
0.483202
0.555082
0.511442
0.371439
0.536146
0.316673
0.383306
0.496713
0.349134
0.506047
0.554525
0.537369
0.549543
0.357978
0.537329
0.541317
0.537709
0.545099
0.366808
0.360881
0.328267
0.468011
0.338921
0.361057
0.297345
0.286371
0.529798
0.351201
0.530637
0.55388
0.313148
0.316834
0.315912
0.378802
0.297851
0.529926
0.473412
0.500337
0.349867
0.540755
0.531106
0.378076
0.340366
0.539034
0.546013
0.538811
0.32403
0.539802
0.349287
0.540726
0.557769
0.547176
0.556938
0.330671
0.541586
0.341425
0.539479
0.557827
0.533223
0.370149
0.298379
0.555602
0.318325
0.51783
0.558005
0.300293
0.544797
0.552268
0.31549
0.535968
0.554288
0.338923
0.547913
0.417433
0.522259
0.539728
0.421025
0.542929
0.373494
0.550912
0.311807
0.538445
0.469155
0.556074
0.325094
0.313992
0.53145
0.338579
0.547089
0.490794
0.356636
0.536881
0.327023
0.351562
0.545047
0.48388
0.531746
0.363948
0.327877
0.547907
0.553741
0.353727
0.552624
0.354258
0.341843
0.541845
0.543035
0.381485
0.355195
0.545235
0.538243
0.539782
0.53502
0.548972
0.456392
0.270462
0.3375
0.331638
0.539741
0.333893
0.425577
0.305887
0.319738
0.309571
0.388297
0.127456
0.338438
0.532139
0.262152
0.551594
0.501665
0.539524
0.52498
0.548624
0.348185
0.354654
0.339703
0.280872
0.545015
0.47585
0.539244
0.50998
0.514953
0.495673
0.507777
0.497684
0.512211
0.547873
0.548693
0.539329
0.338305
0.377178
0.443245
0.358137
0.470717
0.469482
0.36022
0.541973
0.537459
0.331195
0.375844
0.362863
0.320847
0.538127
0.337256
0.32996
0.541283
0.320537
0.474379
0.35992
0.539182
0.537002
0.291092
0.367238
0.544684
0.381556
0.361402
0.318829
0.355641
0.323357
0.326201
0.376654
0.349533
0.380923
0.364415
0.472266
0.313948
0.529808
0.310705
0.342537
0.459998
0.330828
0.356569
0.326357
0.53836
0.378489
0.522491
0.391994
0.318964
0.48938
0.528263
0.406246
0.544469
0.496621
0.495671
0.313955
0.537925
0.335327
0.549846
0.537953
0.325815
0.35403
0.485378
0.282005
0.421427
0.471083
0.318373
0.54204
0.5157
0.318639
0.363178
0.334451
0.399448
0.33783
0.347281
0.334311
0.342714
0.558776
0.559422
0.38321
0.486486
0.412451
0.497814
0.309589
0.339107
0.431838
0.326094
0.540589
0.270434
0.324873
0.431856
0.536836
0.520593
0.491611
0.29875
0.355198
0.522423
0.555321
0.538668
0.519475
0.498489
0.482389
0.36352
0.536266
0.474739
0.530491
0.276984
0.300695
0.539487
0.555531
0.524206
0.557847
0.52194
0.505028
0.551008
0.531099
0.539461
0.353471
0.536628
0.310384
0.337239
0.373013
0.560703
0.53755
0.275547
0.529794
0.539523
0.370826
0.538492
0.545496
0.545371
0.316888
0.338983
0.548083
0.363449
0.364775
0.318976
0.363425
0.538905
0.343659
0.56066
0.314842
0.524529
0.550686
0.542167
0.553945
0.362356
0.323108
0.538901
0.562095
0.520733
0.558557
0.555047
0.461026
0.31421
0.326856
0.540242
0.430102
0.364833
0.38383
0.316725
0.538675
0.539533
0.276982
0.354109
0.528298
0.431285
0.532737
0.533868
0.307894
0.352815
0.517747
0.537521
0.328377
0.519746
0.523718
0.538343
0.337401
0.536969
0.310514
0.537825
0.52959
0.355924
0.319231
0.358776
0.537778
0.313364
0.363435
0.333623
0.538598
0.543574
0.364425
0.375738
0.360914
0.538738
0.344284
0.539588
0.331816
0.484814
0.557608
0.313225
0.329182
0.330228
0.461701
0.327878
0.512794
0.329153
0.337953
0.538978
0.338893
0.540759
0.515079
0.537918
0.349102
0.541088
0.553249
0.554952
0.540413
0.527126
0.541689
0.320253
0.538594
0.40115
0.536409
0.368213
0.550584
0.412541
0.35447
0.538007
0.550446
0.342535
0.499821
0.307747
0.336067
0.541218
0.538078
0.304827
0.325125
0.365585
0.323292
0.536224
0.552681
0.337183
0.317949
0.54709
0.544998
0.48567
0.552823
0.539524
0.365217
0.55614
0.371639
0.551514
0.335562
0.478558
0.429607
0.541411
0.53264
0.503793
0.301054
0.324103
0.538644
0.532988
0.42339
0.552445
0.339406
0.539823
0.554433
0.337246
0.375156
0.553568
0.299284
0.538092
0.532012
0.295202
0.543975
0.515227
0.330631
0.542722
0.327816
0.524494
0.336074
0.540843
0.5157
0.328394
0.539109
0.551429
0.548809
0.538433
0.537262
0.519654
0.351382
0.350637
0.301434
0.327471
0.536639
0.501036
0.543845
0.551316
0.344807
0.335751
0.540149
0.558242
0.545078
0.554515
0.371676
0.548838
0.555105
0.357271
0.313486
0.546752
0.538277
0.527522
0.331019
0.534965
0.294707
0.542109
0.513515
0.538723
0.529381
0.362343
0.536322
0.530521
0.55359
0.537201
0.539558
0.398932
0.548659
0.35703
0.498343
0.556195
0.402177
0.516816
0.538799
0.550264
0.344925
0.3473
0.519655
0.519419
0.365788
0.355049
0.342765
0.362909
0.52593
0.539497
0.538269
0.283849
0.364719
0.542803
0.541611
0.343
0.337153
0.398855
0.526955
0.538838
0.534521
0.546524
0.356395
0.366593
0.537046
0.315572
0.348432
0.333791
0.538929
0.301258
0.360697
0.465115
0.537701
0.501879
0.539411
0.539017
0.359532
0.335496
0.342493
0.392668
0.380015
0.310191
0.531821
0.546265
0.524564
0.540465
0.335423
0.360996
0.557651
0.373158
0.539469
0.515334
0.538172
0.304869
0.356002
0.520438
0.537919
0.455053
0.341505
0.53206
0.539533
0.462024
0.548602
0.553789
0.537166
0.498668
0.371792
0.539073
0.538012
0.492815
0.542406
0.536675
0.505847
0.53731
0.544536
0.338108
0.346985
0.362854
0.538278
0.411865
0.370931
0.539958
0.54758
0.296175
0.505258
0.287493
0.508941
0.386515
0.368344
0.558401
0.55226
0.363272
0.508441
0.538267
0.316565
0.530766
0.343851
0.342173
0.492712
0.489835
0.456925
0.538886
0.339943
0.550929
0.363664
0.32396
0.540694
0.363941
0.483585
0.319442
0.504668
0.479807
0.537249
0.522352
0.33568
0.337301
0.488273
0.354114
0.544849
0.374834
0.474947
0.53935
0.553427
0.364456
0.527356
0.500661
0.555451
0.542615
0.314554
0.365325
0.484519
0.499159
0.555888
0.320374
0.538855
0.456415
0.339783
0.309901
0.534221
0.527605
0.537125
0.537694
0.474844
0.540681
0.538918
0.533248
0.320148
0.524597
0.395517
0.544624
0.537797
0.274856
0.508361
0.552231
0.36153
0.345027
0.316662
0.536695
0.365702
0.492542
0.5462
0.525964
0.337388
0.531929
0.341569
0.533302
0.538964
0.538214
0.530573
0.538695
0.496015
0.536538
0.426665
0.536
0.332934
0.539126
0.542049
0.340223
0.537469
0.54049
0.326976
0.336685
0.314079
0.547571
0.360475
0.537293
0.339067
0.554459
0.351686
0.432399
0.326267
0.549446
0.553957
0.434738
0.243194
0.495899
0.538635
0.350941
0.48265
0.559763
0.310166
0.472738
0.537818
0.557294
0.539683
0.324403
0.387013
0.546181
0.538873
0.499468
0.357258
0.343908
0.533557
0.536991
0.537499
0.536948
0.444862
0.541608
0.441469
0.542807
0.358374
0.33989
0.536996
0.552576
0.538659
0.332816
0.539122
0.450674
0.481019
0.347562
0.374445
0.552936
0.563047
0.45532
0.2766
0.539968
0.53757
0.358224
0.491453
0.546355
0.356715
0.347816
0.338091
0.485629
0.348608
0.352097
0.535217
0.38102
0.556067
0.509576
0.356139
0.316638
0.557559
0.357601
0.33793
0.537927
0.340442
0.308202
0.47537
0.523759
0.541268
0.362764
0.264303
0.357438
0.516162
0.34134
0.54177
0.336592
0.540553
0.498924
0.536481
0.50299
0.535446
0.511977
0.538955
0.553621
0.543846
0.344921
0.354279
0.52998
0.539036
0.473672
0.493991
0.452923
0.538922
0.491582
0.291338
0.542618
0.559108
0.534564
0.351245
0.536985
0.311576
0.540764
0.467082
0.549295
0.540443
0.369054
0.545011
0.361308
0.353996
0.517982
0.334509
0.54236
0.536729
0.544364
0.322206
0.541214
0.35983
0.305005
0.319031
0.353235
0.48588
0.335937
0.503342
0.538848
0.279569
0.330175
0.447947
0.506396
0.504365
0.500636
0.348316
0.331727
0.355313
0.327177
0.241149
0.503998
0.508324
0.315005
0.538371
0.545797
0.339966
0.559103
0.54113
0.538918
0.355391
0.537562
0.536267
0.548802
0.544572
0.337864
0.542311
0.550016
0.537475
0.535937
0.538754
0.364333
0.323311
0.540515
0.488518
0.355954
0.540529
0.330141
0.519452
0.499508
0.522976
0.525793
0.307328
0.492829
0.332418
0.352863
0.545396
0.548464
0.551995
0.547641
0.52189
0.305184
0.554718
0.33604
0.472733
0.556003
0.537711
0.545783
0.354546
0.375845
0.555756
0.372509
0.547598
0.525261
0.366529
0.348609
0.541838
0.321484
0.540368
0.547243
0.51956
0.321078
0.356041
0.416238
0.421761
0.495684
0.389075
0.538929
0.500598
0.531794
0.53659
0.5413
0.358843
0.349424
0.549039
0.538757
0.497289
0.406024
0.337312
0.534107
0.334206
0.539461
0.533442
0.274263
0.544609
0.365487
0.515979
0.314838
0.55254
0.352841
0.540047
0.53923
0.282886
0.52803
0.518936
0.271572
0.538296
0.538224
0.451229
0.331327
0.311706
0.38269
0.553633
0.485224
0.327462
0.532208
0.543156
0.539006
0.327359
0.487664
0.528009
0.433001
0.538915
0.539583
0.267343
0.543459
0.537772
0.314236
0.47956
0.32144
0.507439
0.330723
0.342335
0.55523
0.357086
0.360314
0.336339
0.541677
0.521669
0.344742
0.539887
0.312189
0.525938
0.36018
0.524437
0.30697
0.539446
0.540836
0.513486
0.538503
0.511496
0.539257
0.538898
0.293492
0.515423
0.517358
0.401157
0.5408
0.456173
0.352233
0.55448
0.337971
0.469821
0.283977
0.539145
0.347665
0.329619
0.552373
0.539138
0.31966
0.543784
0.546372
0.536672
0.55414
0.537745
0.372212
0.558545
0.33877
0.327416
0.527595
0.547284
0.557179
0.529962
0.316059
0.33023
0.357812
0.525014
0.538784
0.3127
0.531603
0.342161
0.327542
0.347697
0.528765
0.33541
0.555963
0.544184
0.515239
0.537384
0.54324
0.462336
0.508447
0.394618
0.334167
0.321164
0.537729
0.537599
0.335254
0.503609
0.483672
0.509788
0.325
0.339197
0.503302
0.257795
0.498585
0.478021
0.35838
0.538862
0.527207
0.370909
0.540728
0.338447
0.543637
0.556713
0.535768
0.335726
0.435156
0.541123
0.271983
0.416622
0.537383
0.278122
0.538945
0.542533
0.505709
0.546695
0.272345
0.53802
0.544881
0.538765
0.330593
0.549104
0.365383
0.33702
0.531407
0.539033
0.538563
0.218355
0.540696
0.520487
0.537571
0.331241
0.355332
0.361703
0.546351
0.359134
0.337951
0.331554
0.476449
0.337218
0.278751
0.402375
0.541684
0.373988
0.538441
0.538888
0.540226
0.322237
0.542571
0.522236
0.53835
0.374418
0.533549
0.350061
0.340205
0.541076
0.318294
0.500687
0.542341
0.537186
0.363833
0.298413
0.343199
0.515019
0.537008
0.21592
0.534701
0.541558
0.547545
0.354696
0.336309
0.314419
0.484337
0.36241
0.536638
0.531846
0.539004
0.534341
0.365674
0.501089
0.319473
0.457269
0.525941
0.558111
0.461862
0.397969
0.532069
0.499917
0.549747
0.32795
0.305887
0.315253
0.548867
0.434276
0.537733
0.368315
0.343498
0.548984
0.542386
0.538136
0.319704
0.540815
0.513436
0.509736
0.486905
0.327703
0.324665
0.266136
0.539064
0.538846
0.53516
0.496368
0.310038
0.54507
0.528212
0.53885
0.538301
0.544978
0.558961
0.539699
0.546166
0.551607
0.324623
0.543889
0.548354
0.538863
0.545185
0.538762
0.467124
0.376573
0.342658
0.495327
0.35435
0.276212
0.540161
0.335453
0.528147
0.542458
0.522206
0.535144
0.327056
0.541512
0.315993
0.34554
0.539802
0.540898
0.540603
0.325372
0.551788
0.539001
0.493364
0.53888
0.359978
0.538827
0.556071
0.527618
0.334991
0.550287
0.357209
0.562837
0.341123
0.377563
0.428865
0.386982
0.558309
0.550399
0.539682
0.336993
0.538794
0.346542
0.335042
0.517393
0.460529
0.356678
0.539233
0.34237
0.4821
0.531962
0.507563
0.525233
0.453398
0.536962
0.523778
0.539883
0.465357
0.551953
0.482371
0.558159
0.493394
0.517701
0.336114
0.366437
0.386593
0.547678
0.326396
0.530263
0.544071
0.48498
0.539979
0.426215
0.54149
0.534337
0.35451
0.543188
0.489649
0.405353
0.492174
0.555488
0.513949
0.538806
0.355125
0.338343
0.537073
0.436654
0.443261
0.544973
0.540436
0.540316
0.555552
0.556482
0.49781
0.498669
0.558095
0.335513
0.335034
0.34618
0.302856
0.537443
0.383382
0.438722
0.544319
0.537997
0.326816
0.535937
0.561748
0.328728
0.329602
0.53737
0.545125
0.327727
0.31364
0.320551
0.536601
0.504462
0.338993
0.360228
0.355111
0.341148
0.28835
0.355158
0.559228
0.540952
0.538792
0.330599
0.522966
0.487163
0.538742
0.324941
0.374099
0.515851
0.53696
0.360532
0.539181
0.371272
0.552055
0.325699
0.539676
0.315368
0.525186
0.553626
0.324071
0.512692
0.363184
0.558787
0.340553
0.490094
0.331147
0.415332
0.350382
0.483763
0.351946
0.538411
0.538325
0.532568
0.534628
0.312247
0.524661
0.538581
0.552586
0.485384
0.526648
0.374304
0.345346
0.323574
0.554305
0.266696
0.551977
0.469723
0.547092
0.557215
0.381702
0.548496
0.336075
0.346099
0.335692
0.419696
0.427765
0.539853
0.34889
0.364125
0.540473
0.352682
0.320803
0.451102
0.325209
0.360756
0.343427
0.558782
0.529769
0.493303
0.335371
0.522237
0.539247
0.336591
0.298375
0.530792
0.539074
0.459346
0.483969
0.384661
0.330207
0.333165
0.536649
0.49212
0.427896
0.543637
0.335621
0.46172
0.36593
0.538092
0.551889
0.374523
0.375837
0.496849
0.446672
0.553618
0.551557
0.553854
0.544212
0.556174
0.331095
0.355481
0.315926
0.366112
0.440598
0.538101
0.530673
0.367567
0.344178
0.372099
0.346062
0.540241
0.506811
0.355036
0.277535
0.542412
0.327645
0.522773
0.550357
0.518122
0.538787
0.448862
0.365517
0.312076
0.494654
0.375876
0.351891
0.339711
0.53873
0.538953
0.314892
0.366659
0.536851
0.349384
0.540412
0.554318
0.36482
0.361837
0.354971
0.542152
0.360627
0.53671
0.54296
0.485421
0.309015
0.484747
0.54886
0.532719
0.365283
0.530602
0.496823
0.351845
0.546234
0.561594
0.354746
0.356454
0.519592
0.353079
0.369308
0.527507
0.319356
0.539846
0.541843
0.553816
0.502099
0.55241
0.542251
0.539318
0.359291
0.376401
0.504622
0.53906
0.434353
0.558873
0.287994
0.54429
0.526376
0.463252
0.519354
0.344377
0.389937
0.536579
0.549946
0.491203
0.553824
0.541344
0.537164
0.553247
0.536739
0.528811
0.519222
0.541824
0.537032
0.539366
0.285428
0.511428
0.293749
0.541542
0.543978
0.547873
0.511049
0.546373
0.360391
0.339869
0.275349
0.366089
0.516589
0.310916
0.353234
0.538509
0.330305
0.545671
0.335285
0.527612
0.542632
0.356544
0.355056
0.270306
0.546763
0.316889
0.539282
0.544798
0.341496
0.51392
0.481308
0.28494
0.318895
0.331153
0.547404
0.356633
0.542386
0.423419
0.359327
0.538245
0.539378
0.553869
0.371999
0.466274
0.327831
0.524378
0.539101
0.542158
0.361046
0.538343
0.545108
0.500708
0.348421
0.546676
0.369816
0.364274
0.53627
0.379814
0.556509
0.358393
0.360998
0.40061
0.506855
0.314788
0.235186
0.338112
0.396265
0.537627
0.544137
0.344672
0.48274
0.5415
0.518232
0.349451
0.271259
0.484088
0.367986
0.364511
0.537013
0.363178
0.36542
0.548665
0.560109
0.330306
0.550234
0.332985
0.537296
0.315028
0.518516
0.538473
0.54735
0.538849
0.364589
0.364536
0.32274
0.539332
0.520913
0.535713
0.446277
0.344466
0.278052
0.539227
0.359652
0.540242
0.350614
0.538625
0.533986
0.31472
0.307258
0.362349
0.378479
0.300945
0.495931
0.518594
0.315905
0.543236
0.51106
0.350432
0.334882
0.56015
0.354533
0.542192
0.392378
0.546965
0.523714
0.542475
0.537718
0.337053
0.55648
0.540149
0.560859
0.356116
0.489727
0.53132
0.273999
0.547612
0.510894
0.554086
0.522859
0.556255
0.535185
0.556783
0.538909
0.538414
0.34938
0.553245
0.362199
0.378858
0.537153
0.324628
0.528698
0.488873
0.368331
0.501809
0.356885
0.308064
0.530568
0.482189
0.559699
0.35671
0.522618
0.501765
0.30624
0.325475
0.518027
0.539321
0.335614
0.345189
0.545802
0.559636
0.356097
0.514361
0.554446
0.533494
0.31889
0.369799
0.317706
0.524859
0.354779
0.531181
0.548886
0.539298
0.487471
0.542764
0.356275
0.527016
0.534809
0.553474
0.459671
0.32665
0.360989
0.339918
0.552401
0.545583
0.391645
0.522153
0.261362
0.514726
0.543061
0.339401
0.495983
0.531954
0.500571
0.326816
0.36874
0.297494
0.546911
0.556394
0.500102
0.480508
0.54255
0.360423
0.508925
0.537438
0.538544
0.326797
0.537565
0.365919
0.493977
0.341532
0.538015
0.530579
0.337023
0.54656
0.356208
0.536995
0.511922
0.536617
0.546653
0.351283
0.539178
0.539697
0.53961
0.538724
0.455776
0.537395
0.348528
0.539903
0.338696
0.332039
0.3398
0.302542
0.366903
0.322047
0.556345
0.334521
0.336488
0.525229
0.546944
0.520219
0.342537
0.543525
0.543012
0.538714
0.296195
0.469456
0.541996
0.333822
0.334939
0.365515
0.504579
0.479103
0.363038
0.474262
0.336888
0.537825
0.469816
0.366971
0.425966
0.520402
0.295854
0.539648
0.334582
0.393007
0.333923
0.538923
0.336937
0.520898
0.537475
0.478068
0.347055
0.367117
0.534028
0.558958
0.337941
0.304916
0.539269
0.338148
0.549985
0.332899
0.494389
0.340528
0.542147
0.353526
0.557797
0.329857
0.542853
0.543388
0.550494
0.537441
0.351037
0.328796
0.339843
0.507481
0.537865
0.5057
0.430097
0.363923
0.547433
0.274902
0.519093
0.472475
0.354038
0.353801
0.551415
0.53777
0.330316
0.538192
0.537556
0.551217
0.55383
0.334509
0.510807
0.360956
0.551194
0.351439
0.538618
0.514648
0.521704
0.558121
0.35356
0.562628
0.357117
0.3537
0.54029
0.537513
0.448296
0.537626
0.537403
0.357968
0.551581
0.536265
0.555308
0.306624
0.366232
0.54059
0.31007
0.54466
0.543772
0.530675
0.541127
0.265049
0.371183
0.520358
0.335715
0.526263
0.55944
0.391493
0.528118
0.246341
0.496227
0.551751
0.53974
0.528271
0.373906
0.330819
0.540097
0.529208
0.370166
0.287289
0.357256
0.330571
0.336853
0.337237
0.292263
0.355432
0.539654
0.337723
0.321105
0.544978
0.446695
0.536882
0.346242
0.36661
0.541925
0.387576
0.395971
0.555005
0.324752
0.528792
0.538687
0.517009
0.526108
0.314018
0.544405
0.539075
0.339169
0.364555
0.353251
0.48661
0.510641
0.556199
0.539824
0.53921
0.528766
0.306444
0.545017
0.539142
0.517632
0.372276
0.542563
0.467235
0.299847
0.374608
0.354083
0.326242
0.339904
0.47884
0.532884
0.530933
0.363289
0.363013
0.554305
0.287791
0.545024
0.539734
0.530941
0.54001
0.542191
0.334844
0.327787
0.33413
0.461048
0.35547
0.541069
0.326437
0.541018
0.539022
0.543611
0.304605
0.372496
0.350004
0.543055
0.34981
0.365672
0.539916
0.525868
0.497889
0.539582
0.514088
0.549602
0.36558
0.531063
0.552583
0.496428
0.542085
0.546625
0.550315
0.432684
0.392011
0.556357
0.464452
0.492962
0.358906
0.51337
0.53123
0.334549
0.356301
0.522934
0.425947
0.550505
0.545035
0.356793
0.347595
0.537796
0.319505
0.348526
0.532383
0.518794
0.366416
0.534592
0.538092
0.512406
0.365664
0.480088
0.36652
0.534527
0.551627
0.549448
0.528912
0.538087
0.286461
0.308343
0.537947
0.356255
0.536068
0.363358
0.543062
0.334204
0.518264
0.552297
0.537973
0.361767
0.536681
0.537514
0.366081
0.513879
0.320759
0.559766
0.361471
0.313267
0.324951
0.535589
0.536834
0.298836