# vtk DataFile Version 1.0
unstructured grid
ascii
DATASET UNSTRUCTURED_GRID
points 13672 float
0.0796578 -0.059106 0
0.00128732 0.00159165 0
0.00227961 -0.00102548 0
0.0791586 -0.0598787 0
-0.0546216 0.01 0
0.000495206 0.025 0
0.0800549 -0.035 0
0.135172 -0.08 0
-0.0546216 -0.0451168 0
0.000495206 -0.0301168 0
0.0800549 -0.0901168 0
0.135172 -0.135117 0
-0.0546216 -0.0451168 -0.00551168
0.000495206 -0.0301168 -0.00551168
0.0800549 -0.0901168 -0.00551168
0.135172 -0.135117 -0.00551168
0.135172 -0.08 -0.00551168
0.0800549 -0.035 -0.00551168
0.000495206 0.025 -0.00551168
-0.0546216 0.01 -0.00551168
0.00128732 0.00159165 -0.00551168
0.00227961 -0.00102548 -0.00551168
0.0791586 -0.0598787 -0.00551168
0.0796578 -0.059106 -0.00551168
0.00165953 -0.000990923 0
0.00119576 -0.000874076 0
0.000866021 -0.000641801 0
0.000645147 -0.000349912 0
0.00052235 -1.7281e-05 0
0.00049972 0.000348016 0
0.000601632 0.000737716 0
0.000861774 0.0011403 0
0.00157235 0.00183217 0
0.00188647 0.00206725 0
0.00222612 0.00230203 0
0.00258713 0.00254351 0
0.00296826 0.00279524 0
0.00337118 0.00305664 0
0.00379785 0.00332658 0
0.00425045 0.00360349 0
0.00473139 0.00388521 0
0.0052432 0.00416895 0
0.0057881 0.00445204 0
0.00636753 0.00473281 0
0.00698281 0.00500961 0
0.00763526 0.00528058 0
0.00832616 0.00554366 0
0.00905691 0.00579603 0
0.00982918 0.00603333 0
0.0106445 0.00625033 0
0.0115038 0.00644128 0
0.0124073 0.00660297 0
0.0133543 0.00673414 0
0.0143444 0.00683382 0
0.0153769 0.00690031 0
0.0164512 0.00693173 0
0.0175666 0.00692547 0
0.0187219 0.00687822 0
0.0199156 0.00678477 0
0.0211454 0.00663864 0
0.0224084 0.00643275 0
0.0237018 0.00616676 0
0.0250249 0.00584739 0
0.026375 0.00547298 0
0.0277479 0.00503752 0
0.0291386 0.00453545 0
0.0305433 0.0039653 0
0.0319572 0.0033256 0
0.0333681 0.00260019 0
0.034775 0.00179799 0
0.0361793 0.000930615 0
0.0375798 3.12222e-06 0
0.0389689 -0.000988429 0
0.0403357 -0.00205109 0
0.041675 -0.00318283 0
0.0429849 -0.00437751 0
0.0442643 -0.00562904 0
0.0455126 -0.00693089 0
0.0467314 -0.00827518 0
0.0479204 -0.00965638 0
0.0490661 -0.0110799 0
0.0501515 -0.0125519 0
0.0511696 -0.0140695 0
0.0521492 -0.0156071 0
0.0531202 -0.0171411 0
0.0540851 -0.0186663 0
0.0550431 -0.0201798 0
0.0559923 -0.0216793 0
0.0569311 -0.0231626 0
0.0578582 -0.0246273 0
0.0587723 -0.0260715 0
0.0596721 -0.027493 0
0.0605563 -0.02889 0
0.0614241 -0.0302609 0
0.0622742 -0.0316042 0
0.063106 -0.0329183 0
0.0639186 -0.034202 0
0.0647113 -0.0354543 0
0.0654835 -0.0366743 0
0.0662345 -0.0378613 0
0.0669642 -0.0390145 0
0.0676726 -0.0401333 0
0.0683597 -0.0412172 0
0.0690246 -0.0422665 0
0.0696662 -0.0432819 0
0.0702841 -0.0442636 0
0.0708793 -0.0452111 0
0.0714538 -0.0461237 0
0.072009 -0.047001 0
0.0725452 -0.0478434 0
0.0730611 -0.0486524 0
0.073556 -0.0494294 0
0.0740291 -0.0501756 0
0.0744812 -0.0508916 0
0.0749138 -0.0515773 0
0.0753285 -0.0522331 0
0.0757266 -0.0528592 0
0.076109 -0.0534564 0
0.0764753 -0.0540264 0
0.0768243 -0.054571 0
0.0771553 -0.0550919 0
0.0774679 -0.0555901 0
0.0777617 -0.0560669 0
0.0780369 -0.056523 0
0.0782958 -0.0569578 0
0.0785421 -0.0573703 0
0.0787786 -0.0577603 0
0.0790073 -0.0581279 0
0.0792295 -0.058474 0
0.0794462 -0.0587995 0
0.0798803 -0.0594162 0
0.0800272 -0.0596588 0
0.0800357 -0.0598891 0
0.0799275 -0.0600784 0
0.0797205 -0.0601773 0
0.0794593 -0.0601051 0
0.0789155 -0.0596491 0
0.0786707 -0.0593963 0
0.0784111 -0.0591319 0
0.0781372 -0.0588542 0
0.0778566 -0.0585548 0
0.0775715 -0.0582308 0
0.0772803 -0.0578828 0
0.0769832 -0.0575099 0
0.0766822 -0.0571097 0
0.0763801 -0.0566796 0
0.0760759 -0.0562196 0
0.0757623 -0.0557337 0
0.0754359 -0.0552232 0
0.0750951 -0.0546879 0
0.0747379 -0.054128 0
0.0743626 -0.0535435 0
0.0739688 -0.0529338 0
0.0735559 -0.0522981 0
0.0731238 -0.0516357 0
0.0726718 -0.050946 0
0.0721991 -0.0502288 0
0.0717046 -0.049484 0
0.0711872 -0.0487117 0
0.0706461 -0.047912 0
0.0700804 -0.0470849 0
0.0694892 -0.0462308 0
0.0688718 -0.0453499 0
0.0682271 -0.0444431 0
0.0675544 -0.043511 0
0.0668527 -0.0425546 0
0.0661215 -0.0415748 0
0.06536 -0.040573 0
0.0645676 -0.0395504 0
0.0637439 -0.0385087 0
0.0628887 -0.0374493 0
0.062002 -0.0363741 0
0.0610838 -0.0352847 0
0.0601345 -0.0341831 0
0.0591547 -0.033071 0
0.0581456 -0.0319502 0
0.0571083 -0.0308224 0
0.0560444 -0.0296893 0
0.0549562 -0.028552 0
0.053845 -0.0274126 0
0.0527113 -0.0262746 0
0.051554 -0.0251427 0
0.0503724 -0.0240222 0
0.0491675 -0.0229164 0
0.047941 -0.0218282 0
0.0466955 -0.0207597 0
0.0454337 -0.0197126 0
0.0441592 -0.0186878 0
0.0428751 -0.0176863 0
0.0415841 -0.0167097 0
0.0402878 -0.0157609 0
0.0389879 -0.0148428 0
0.0376864 -0.0139575 0
0.0363853 -0.013107 0
0.0350871 -0.0122931 0
0.0337942 -0.0115164 0
0.0325095 -0.0107772 0
0.0312357 -0.0100756 0
0.0299758 -0.00941024 0
0.0287337 -0.00877784 0
0.0275126 -0.00817571 0
0.0263139 -0.00760375 0
0.0251376 -0.00706528 0
0.0239829 -0.0065649 0
0.0228537 -0.00609619 0
0.0217522 -0.00565563 0
0.0206795 -0.00524226 0
0.0196364 -0.00485507 0
0.0186233 -0.00449318 0
0.0176408 -0.00415577 0
0.016689 -0.00384204 0
0.0157682 -0.00355115 0
0.0148783 -0.00328218 0
0.0140192 -0.00303468 0
0.0131906 -0.00280795 0
0.0123925 -0.00260016 0
0.0116246 -0.00241012 0
0.0108864 -0.00223769 0
0.0101774 -0.00208212 0
0.00949701 -0.00194206 0
0.00884483 -0.0018163 0
0.0082202 -0.0017039 0
0.00762247 -0.00160391 0
0.00705097 -0.00151528 0
0.006505 -0.00143697 0
0.0059838 -0.00136806 0
0.00548662 -0.00130772 0
0.00501265 -0.00125519 0
0.00456114 -0.00120954 0
0.00413136 -0.00116914 0
0.00372257 -0.00113251 0
0.00333398 -0.00109853 0
0.00296466 -0.00106798 0
0.00261363 -0.0010431 0
-0.052721 -0.0445996 0
-0.0508204 -0.0440823 0
-0.0489199 -0.0435651 0
-0.0470193 -0.0430478 0
-0.0451187 -0.0425306 0
-0.0432181 -0.0420134 0
-0.0413175 -0.0414961 0
-0.039417 -0.0409789 0
-0.0375164 -0.0404616 0
-0.0356158 -0.0399444 0
-0.0337152 -0.0394271 0
-0.0318146 -0.0389099 0
-0.0299141 -0.0383927 0
-0.0280135 -0.0378754 0
-0.0261129 -0.0373582 0
-0.0242123 -0.0368409 0
-0.0223117 -0.0363237 0
-0.0204112 -0.0358065 0
-0.0185106 -0.0352892 0
-0.01661 -0.034772 0
-0.0147094 -0.0342547 0
-0.0128088 -0.0337375 0
-0.0109083 -0.0332202 0
-0.00900769 -0.032703 0
-0.00710711 -0.0321858 0
-0.00520653 -0.0316685 0
-0.00330595 -0.0311513 0
-0.00140537 -0.030634 0
0.00190689 -0.0299614 0
0.00332271 -0.0298498 0
0.00474133 -0.0297825 0
0.00616136 -0.0297597 0
0.0075814 -0.0297814 0
0.00900007 -0.0298477 0
0.010416 -0.0299583 0
0.0118278 -0.0301127 0
0.0132342 -0.0303103 0
0.0146339 -0.0305504 0
0.0160259 -0.0308322 0
0.0174091 -0.0311546 0
0.0187824 -0.0315166 0
0.020145 -0.031917 0
0.0214961 -0.0323546 0
0.0228351 -0.032828 0
0.0241613 -0.0333361 0
0.0254744 -0.0338774 0
0.0267738 -0.0344507 0
0.0280592 -0.0350545 0
0.0293306 -0.0356877 0
0.0305875 -0.0363488 0
0.0318301 -0.0370367 0
0.0330581 -0.0377501 0
0.0342717 -0.0384879 0
0.0354708 -0.0392489 0
0.0366556 -0.0400321 0
0.0378262 -0.0408363 0
0.0389828 -0.0416607 0
0.0401254 -0.0425042 0
0.0412543 -0.0433659 0
0.0423698 -0.0442451 0
0.043472 -0.0451408 0
0.0445612 -0.0460523 0
0.0456375 -0.0469789 0
0.0467013 -0.0479199 0
0.0477529 -0.0488746 0
0.0487923 -0.0498424 0
0.04982 -0.0508227 0
0.0508362 -0.051815 0
0.051841 -0.0528187 0
0.0528348 -0.0538333 0
0.0538178 -0.0548584 0
0.0547903 -0.0558935 0
0.0557524 -0.0569382 0
0.0567045 -0.0579922 0
0.0576467 -0.0590549 0
0.0585792 -0.0601261 0
0.0595024 -0.0612055 0
0.0604163 -0.0622926 0
0.0613212 -0.0633873 0
0.0622174 -0.0644891 0
0.0631049 -0.0655979 0
0.0639841 -0.0667134 0
0.064855 -0.0678353 0
0.0657179 -0.0689633 0
0.0665729 -0.0700974 0
0.0674202 -0.0712372 0
0.06826 -0.0723826 0
0.0690925 -0.0735333 0
0.0699178 -0.0746892 0
0.070736 -0.0758501 0
0.0715473 -0.0770159 0
0.0723518 -0.0781863 0
0.0731498 -0.0793612 0
0.0739412 -0.0805405 0
0.0747264 -0.081724 0
0.0755053 -0.0829116 0
0.0762781 -0.0841033 0
0.0770449 -0.0852987 0
0.0778059 -0.0864979 0
0.0785611 -0.0877007 0
0.0793108 -0.088907 0
0.0814681 -0.0912706 0
0.0828814 -0.0924245 0
0.0842946 -0.0935783 0
0.0857079 -0.0947322 0
0.0871211 -0.095886 0
0.0885344 -0.0970399 0
0.0899476 -0.0981937 0
0.0913609 -0.0993476 0
0.0927741 -0.100501 0
0.0941874 -0.101655 0
0.0956006 -0.102809 0
0.0970139 -0.103963 0
0.0984272 -0.105117 0
0.0998404 -0.106271 0
0.101254 -0.107424 0
0.102667 -0.108578 0
0.10408 -0.109732 0
0.105493 -0.110886 0
0.106907 -0.11204 0
0.10832 -0.113194 0
0.109733 -0.114348 0
0.111146 -0.115501 0
0.11256 -0.116655 0
0.113973 -0.117809 0
0.115386 -0.118963 0
0.116799 -0.120117 0
0.118213 -0.121271 0
0.119626 -0.122424 0
0.121039 -0.123578 0
0.122452 -0.124732 0
0.123866 -0.125886 0
0.125279 -0.12704 0
0.126692 -0.128194 0
0.128105 -0.129348 0
0.129519 -0.130501 0
0.130932 -0.131655 0
0.132345 -0.132809 0
0.133758 -0.133963 0
0.135172 -0.133216 0
0.135172 -0.131316 0
0.135172 -0.129415 0
0.135172 -0.127514 0
0.135172 -0.125614 0
0.135172 -0.123713 0
0.135172 -0.121813 0
0.135172 -0.119912 0
0.135172 -0.118012 0
0.135172 -0.116111 0
0.135172 -0.11421 0
0.135172 -0.11231 0
0.135172 -0.110409 0
0.135172 -0.108509 0
0.135172 -0.106608 0
0.135172 -0.104708 0
0.135172 -0.102807 0
0.135172 -0.100906 0
0.135172 -0.0990058 0
0.135172 -0.0971052 0
0.135172 -0.0952046 0
0.135172 -0.0933041 0
0.135172 -0.0914035 0
0.135172 -0.0895029 0
0.135172 -0.0876023 0
0.135172 -0.0857017 0
0.135172 -0.0838012 0
0.135172 -0.0819006 0
0.133758 -0.0788462 0
0.132345 -0.0776923 0
0.130932 -0.0765385 0
0.129519 -0.0753846 0
0.128105 -0.0742308 0
0.126692 -0.0730769 0
0.125279 -0.0719231 0
0.123866 -0.0707692 0
0.122452 -0.0696154 0
0.121039 -0.0684615 0
0.119626 -0.0673077 0
0.118213 -0.0661538 0
0.116799 -0.065 0
0.115386 -0.0638462 0
0.113973 -0.0626923 0
0.11256 -0.0615385 0
0.111146 -0.0603846 0
0.109733 -0.0592308 0
0.10832 -0.0580769 0
0.106907 -0.0569231 0
0.105493 -0.0557692 0
0.10408 -0.0546154 0
0.102667 -0.0534615 0
0.101254 -0.0523077 0
0.0998404 -0.0511538 0
0.0984272 -0.05 0
0.0970139 -0.0488462 0
0.0956006 -0.0476923 0
[...]
CELL_DATA 13116
SCALARS rho float
LOOKUP_TABLE default
0.427103
0.514482
0.293517
0.555753
0.546389
0.533929
0.322776
0.549196
0.410256
0.550162
0.321861
0.297525
0.546634
0.330943
0.320565
0.533976
0.402073
0.542659
0.531614
0.328576
0.431124
0.32689
0.32859
0.544192
0.474025
0.493892
0.550194
0.330844
0.472974
0.50289
0.533641
0.331648
0.432341
0.348924
0.32171
0.429218
0.517702
0.526623
0.533889
0.53375
0.532986
0.552009
0.330975
0.292638
0.530388
0.531448
0.496308
0.53416
0.323468
0.407261
0.545311
0.344321
0.322218
0.396437
0.431259
0.455378
0.297253
0.541478
0.417647
0.319066
0.332044
0.551489
0.506836
0.533878
0.533711
0.335988
0.535539
0.523082
0.536321
0.533723
0.323144
0.456693
0.323007
0.328686
0.533605
0.306148
0.500797
0.542368
0.323883
0.54021
0.528238
0.498586
0.544285
0.533752
0.522653
0.350818
0.326487
0.520867
0.518326
0.325066
0.314186
0.515911
0.546331
0.52266
0.505301
0.465651
0.476037
0.533747
0.533598
0.465819
0.528553
0.457774
0.532518
0.313607
0.482218
0.334514
0.280798
0.368148
0.330306
0.481012
0.390764
0.493497
0.464184
0.531057
0.540705
0.535672
0.329083
0.302575
0.539644
0.536656
0.523397
0.321251
0.53662
0.345241
0.517615
0.342036
0.32693
0.397166
0.326732
0.408546
0.539878
0.533376
0.392103
0.328707
0.376532
0.454687
0.53366
0.538569
0.527838
0.53643
0.487674
0.499058
0.395919
0.488369
0.502686
0.328091
0.322355
0.491764
0.544415
0.542087
0.423995
0.533304
0.534131
0.312501
0.547359
0.523817
0.32758
0.53303
0.533746
0.521105
0.543481
0.321459
0.543001
0.327519
0.317113
0.54991
0.515308
0.542278
0.321815
0.362764
0.32952
0.533618
0.321818
0.383919
0.534966
0.329825
0.323357
0.324239
0.490173
0.53365
0.305785
0.337072
0.4069
0.518049
0.533671
0.415807
0.299487
0.532778
0.472131
0.35974
0.495513
0.489986
0.533693
0.331023
0.485791
0.533957
0.547549
0.532397
0.517237
0.317311
0.313271
0.485089
0.39301
0.330513
0.540282
0.529835
0.351211
0.473762
0.327878
0.324377
0.303569
0.534675
0.326746
0.327892
0.323877
0.311801
0.28592
0.533453
0.514912
0.34048
0.296504
0.535392
0.385882
0.306696
0.43354
0.550686
0.500742
0.333842
0.535107
0.306088
0.555574
0.321536
0.533669
0.448769
0.53374
0.527988
0.533703
0.31642
0.336218
0.521062
0.533666
0.533881
0.53366
0.53352
0.543662
0.324973
0.541513
0.548045
0.533581
0.324902
0.32504
0.531197
0.539173
0.533657
0.53612
0.416019
0.533377
0.321417
0.330063
0.309693
0.328461
0.468161
0.547367
0.499763
0.32367
0.529075
0.32657
0.338535
0.483987
0.321097
0.495088
0.548339
0.533638
0.541219
0.316697
0.533632
0.532394
0.533581
0.538442
0.321344
0.328195
0.329845
0.450828
0.320974
0.328728
0.260134
0.25079
0.521623
0.3238
0.522855
0.54716
0.307972
0.323129
0.327101
0.35375
0.290476
0.519771
0.456361
0.4884
0.321228
0.5344
0.458823
0.330207
0.319966
0.533751
0.539148
0.532522
0.298239
0.533999
0.322596
0.53282
0.551872
0.540738
0.550985
0.331984
0.535125
0.327049
0.533506
0.550982
0.521676
0.32482
0.25989
0.548529
0.333539
0.508155
0.551421
0.285361
0.535524
0.544036
0.328767
0.528881
0.546239
0.321912
0.541107
0.352141
0.449273
0.532443
0.357384
0.533284
0.324548
0.54242
0.269291
0.533501
0.451398
0.548507
0.333534
0.279633
0.523768
0.315996
0.539638
0.477299
0.329125
0.533663
0.307252
0.318496
0.537775
0.433747
0.521863
0.328321
0.327071
0.541382
0.546968
0.322272
0.546086
0.332839
0.333222
0.53526
0.53619
0.357318
0.322571
0.538522
0.53371
0.534041
0.527797
0.541018
0.424135
0.258405
0.326012
0.302973
0.534038
0.3037
0.405259
0.289278
0.319545
0.274945
0.365174
0.110203
0.31673
0.524512
0.261679
0.543624
0.472659
0.532867
0.514437
0.542049
0.318568
0.327441
0.322146
0.26605
0.53751
0.460886
0.532776
0.473137
0.504022
0.482579
0.497033
0.484374
0.50065
0.539948
0.539779
0.533852
0.314443
0.357551
0.423896
0.324845
0.453326
0.454055
0.32395
0.535465
0.533666
0.332534
0.326585
0.328226
0.301972
0.492741
0.324452
0.331018
0.534906
0.330756
0.448471
0.328582
0.533525
0.528011
0.290076
0.328932
0.537346
0.354959
0.3285
0.300172
0.320488
0.330047
0.328918
0.326896
0.327427
0.338349
0.32336
0.454977
0.308489
0.521941
0.297223
0.358344
0.39436
0.335015
0.324693
0.333201
0.531466
0.342838
0.500345
0.37015
0.334379
0.475758
0.520215
0.350186
0.535167
0.48353
0.482394
0.3292
0.533736
0.304232
0.541799
0.533634
0.327224
0.326812
0.470864
0.267796
0.358565
0.453817
0.280011
0.532271
0.505028
0.306935
0.320787
0.322037
0.380445
0.318643
0.322749
0.322276
0.327484
0.552576
0.553135
0.358837
0.468297
0.375903
0.485597
0.275292
0.322423
0.413801
0.327377
0.533126
0.230695
0.290904
0.388833
0.529816
0.5115
0.438697
0.283932
0.326796
0.445948
0.549344
0.533811
0.443014
0.485861
0.467138
0.32559
0.527199
0.445249
0.52014
0.243477
0.292821
0.530277
0.54777
0.513579
0.550933
0.513105
0.4938
0.542545
0.520476
0.532837
0.313044
0.52959
0.266133
0.327196
0.327668
0.554673
0.530294
0.242346
0.521914
0.486125
0.325086
0.533601
0.538628
0.537103
0.330637
0.32227
0.540968
0.328319
0.310195
0.311629
0.326413
0.531205
0.323659
0.554687
0.308996
0.514995
0.544307
0.535606
0.547092
0.327967
0.307639
0.531616
0.55646
0.509966
0.552297
0.547823
0.390401
0.328525
0.329369
0.534098
0.411938
0.327607
0.354751
0.315894
0.531553
0.533169
0.243508
0.326843
0.520236
0.365156
0.525148
0.515576
0.325593
0.306788
0.506661
0.533686
0.328317
0.510596
0.514985
0.53107
0.313829
0.533617
0.308846
0.53373
0.519154
0.321384
0.285359
0.328226
0.533674
0.327363
0.322537
0.302985
0.533596
0.535477
0.32376
0.325726
0.327401
0.533726
0.322918
0.533859
0.328244
0.45973
0.550717
0.299709
0.327663
0.327826
0.390762
0.331908
0.502709
0.297535
0.323829
0.533521
0.322986
0.534537
0.505025
0.533735
0.303455
0.533698
0.545342
0.547262
0.534186
0.518418
0.535116
0.327699
0.533805
0.342313
0.528642
0.321173
0.544391
0.394209
0.322274
0.533608
0.542824
0.320891
0.486792
0.311959
0.322454
0.534861
0.53118
0.30509
0.327059
0.324319
0.334629
0.528767
0.544347
0.314971
0.301403
0.539602
0.53839
0.461183
0.544895
0.533268
0.322061
0.548605
0.334304
0.545177
0.303506
0.464017
0.378264
0.534982
0.522845
0.451988
0.268183
0.332536
0.532132
0.473422
0.401133
0.544482
0.328453
0.530955
0.547013
0.286588
0.355571
0.545753
0.283541
0.533599
0.521837
0.256369
0.53737
0.503892
0.306585
0.534428
0.329451
0.515986
0.299589
0.534582
0.505349
0.334781
0.533874
0.543409
0.541592
0.487087
0.528529
0.457195
0.322496
0.324675
0.297934
0.330327
0.533609
0.435924
0.537212
0.543897
0.307626
0.323111
0.531758
0.551426
0.537717
0.548376
0.323714
0.539926
0.547953
0.328046
0.309207
0.539791
0.531163
0.519359
0.325276
0.463451
0.308798
0.533688
0.503305
0.533806
0.520733
0.327831
0.528175
0.522763
0.545489
0.530194
0.533376
0.338903
0.540722
0.32435
0.485254
0.549086
0.362427
0.506233
0.533818
0.543883
0.313025
0.314513
0.458108
0.508309
0.329487
0.323952
0.317307
0.323408
0.51646
0.530593
0.533516
0.249984
0.322599
0.536172
0.531963
0.322589
0.324463
0.363816
0.516809
0.532464
0.527237
0.537914
0.324171
0.330042
0.533621
0.342579
0.322265
0.300051
0.532934
0.317556
0.326615
0.449355
0.530195
0.490245
0.533945
0.532878
0.331118
0.322128
0.317681
0.369645
0.342443
0.318469
0.521924
0.537504
0.515948
0.533986
0.334825
0.301682
0.550686
0.328649
0.533348
0.504931
0.533747
0.305076
0.318971
0.511366
0.533563
0.436293
0.321654
0.524421
0.533976
0.445917
0.542236
0.547705
0.533625
0.486092
0.324221
0.532978
0.533553
0.478657
0.533962
0.533654
0.494786
0.533708
0.537872
0.324255
0.31876
0.304495
0.533748
0.393098
0.330042
0.531619
0.54004
0.292348
0.492843
0.287872
0.496896
0.364093
0.31822
0.551701
0.543847
0.328676
0.432582
0.533724
0.328365
0.522941
0.334744
0.334394
0.4793
0.474241
0.394271
0.532388
0.316926
0.542887
0.322123
0.318514
0.534496
0.327277
0.469351
0.31874
0.492145
0.465225
0.5337
0.513506
0.32406
0.323287
0.473627
0.332661
0.537433
0.356738
0.459873
0.533736
0.545289
0.343883
0.478861
0.48888
0.547821
0.536052
0.272041
0.32113
0.424526
0.487155
0.548265
0.294552
0.532436
0.437793
0.321787
0.309416
0.522931
0.5175
0.533685
0.533653
0.458091
0.531684
0.533736
0.523576
0.318819
0.513801
0.36177
0.538057
0.530663
0.242582
0.49709
0.545251
0.31892
0.319409
0.33171
0.533657
0.321869
0.479165
0.538075
0.515
0.306658
0.524155
0.331084
0.463016
0.533852
0.533526
0.520563
0.533703
0.482497
0.527219
0.408183
0.528217
0.297946
0.533174
0.535504
0.317092
0.533711
0.53174
0.328553
0.325269
0.327026
0.541135
0.324016
0.533614
0.314263
0.548484
0.32668
0.378727
0.32425
0.541329
0.547735
0.414397
0.213866
0.48241
0.533459
0.317665
0.460383
0.553488
0.322516
0.457475
0.533572
0.5504
0.533478
0.325643
0.366016
0.538799
0.532123
0.486485
0.324419
0.311898
0.5261
0.533662
0.533682
0.533685
0.426519
0.533733
0.422812
0.536161
0.324382
0.330181
0.533689
0.545456
0.533613
0.334091
0.533091
0.432585
0.466017
0.305264
0.32768
0.546394
0.557428
0.434654
0.263267
0.533432
0.533716
0.321988
0.476168
0.537728
0.321764
0.355892
0.325218
0.471454
0.326114
0.311785
0.528015
0.362881
0.54851
0.497628
0.322273
0.328677
0.551301
0.317289
0.324823
0.533564
0.331361
0.276223
0.460458
0.514614
0.533755
0.322547
0.260337
0.322637
0.506212
0.333826
0.534328
0.321728
0.532351
0.486719
0.529431
0.491195
0.527048
0.501544
0.532613
0.546749
0.53661
0.322885
0.322049
0.52095
0.533801
0.399162
0.48112
0.435646
0.533782
0.477293
0.28965
0.536036
0.552654
0.526817
0.324843
0.528853
0.302876
0.533695
0.392997
0.540534
0.534158
0.318192
0.537414
0.328498
0.33298
0.507847
0.298999
0.532739
0.533689
0.537705
0.302708
0.534854
0.324325
0.305402
0.318621
0.323289
0.47075
0.322769
0.490589
0.533793
0.26603
0.331125
0.385139
0.455295
0.49209
0.488024
0.305734
0.335073
0.322202
0.324295
0.213418
0.491661
0.497651
0.330288
0.533487
0.537653
0.325317
0.552601
0.531397
0.533808
0.324568
0.533612
0.527433
0.540971
0.53802
0.318594
0.534785
0.542396
0.529376
0.523602
0.533346
0.327335
0.323865
0.533563
0.423151
0.320253
0.534393
0.329915
0.448799
0.486553
0.514227
0.517426
0.30766
0.479648
0.311977
0.324617
0.536201
0.541176
0.544418
0.541034
0.511199
0.305706
0.547803
0.323019
0.398303
0.549456
0.533612
0.538396
0.324894
0.324669
0.548652
0.324421
0.54047
0.508
0.336575
0.325198
0.535217
0.320742
0.534099
0.540057
0.50867
0.32029
0.318314
0.394514
0.402846
0.482527
0.369366
0.533385
0.488031
0.524172
0.53361
0.53309
0.326028
0.327144
0.542054
0.533347
0.483879
0.36263
0.330658
0.524831
0.322302
0.533152
0.482647
0.264363
0.537065
0.323484
0.505961
0.295718
0.545178
0.316189
0.532797
0.533656
0.278381
0.519814
0.507861
0.267692
0.533517
0.531514
0.434121
0.334993
0.287052
0.364171
0.545778
0.470133
0.320664
0.4599
0.535075
0.533566
0.298976
0.473339
0.519503
0.364844
0.533369
0.533594
0.236095
0.536386
0.533585
0.293781
0.464864
0.303444
0.495155
0.311497
0.333935
0.547422
0.317748
0.326144
0.324265
0.535234
0.512288
0.31678
0.533314
0.283955
0.515967
0.324413
0.515363
0.289904
0.53376
0.533908
0.501943
0.533642
0.435511
0.533684
0.533782
0.299786
0.499031
0.506189
0.377447
0.532573
0.389814
0.316128
0.547535
0.309079
0.447459
0.285249
0.5327
0.32225
0.330921
0.543928
0.53291
0.308491
0.537188
0.537588
0.533639
0.548011
0.533694
0.324216
0.552005
0.327046
0.326982
0.519432
0.538776
0.551311
0.522123
0.316011
0.310783
0.321984
0.515712
0.533757
0.286152
0.523437
0.335893
0.308423
0.305825
0.520765
0.303751
0.549157
0.536923
0.498164
0.530404
0.535991
0.446157
0.496418
0.343982
0.331294
0.308639
0.533688
0.533656
0.33401
0.491185
0.4691
0.497875
0.325977
0.310479
0.491134
0.220296
0.485583
0.461692
0.328344
0.533539
0.517908
0.32952
0.533209
0.324354
0.537023
0.549325
0.527458
0.323141
0.372176
0.531544
0.2385
0.351385
0.530466
0.245315
0.53353
0.535988
0.494712
0.537877
0.260252
0.533651
0.535682
0.532032
0.287377
0.542506
0.323876
0.33199
0.523634
0.532647
0.533592
0.18696
0.534389
0.498742
0.533611
0.335993
0.330717
0.328257
0.539787
0.322022
0.322215
0.306581
0.459965
0.322808
0.245253
0.350287
0.534299
0.327685
0.533601
0.533688
0.53344
0.301851
0.535643
0.511485
0.533492
0.329077
0.521829
0.322661
0.310595
0.534765
0.323104
0.487869
0.534045
0.533695
0.323927
0.260102
0.321122
0.441867
0.533682
0.185039
0.527273
0.535137
0.538835
0.325247
0.323689
0.272167
0.469359
0.329873
0.533681
0.476567
0.533699
0.526972
0.322672
0.488212
0.325791
0.437115
0.509455
0.55125
0.443155
0.372834
0.521601
0.486997
0.542813
0.307106
0.292484
0.321561
0.540063
0.41651
0.533619
0.327329
0.31396
0.540933
0.535404
0.533539
0.322225
0.534046
0.440507
0.442884
0.47225
0.330611
0.325435
0.23474
0.532663
0.533837
0.522397
0.483861
0.271238
0.538462
0.516785
0.533836
0.533497
0.538396
0.552454
0.53403
0.537705
0.543929
0.326279
0.537085
0.541794
0.533184
0.538297
0.532317
0.449861
0.326227
0.334801
0.48158
0.323012
0.263431
0.533335
0.323863
0.501193
0.535846
0.512562
0.527468
0.328306
0.534782
0.315717
0.332091
0.53407
0.533062
0.534113
0.297984
0.545286
0.532496
0.479425
0.532642
0.325412
0.533233
0.548987
0.518186
0.318117
0.541825
0.324559
0.55717
0.301961
0.326298
0.406804
0.353908
0.551575
0.542202
0.533514
0.307845
0.533279
0.318484
0.323748
0.507941
0.388236
0.325053
0.532911
0.322489
0.406075
0.521987
0.496056
0.51674
0.387269
0.469861
0.513192
0.533825
0.44774
0.544414
0.422003
0.551929
0.480512
0.506596
0.333591
0.323482
0.353377
0.541049
0.327954
0.520045
0.537483
0.470986
0.533875
0.404831
0.532006
0.524801
0.325777
0.536587
0.47592
0.381693
0.478808
0.548501
0.503992
0.533558
0.324498
0.324646
0.529281
0.418936
0.424582
0.538374
0.533311
0.533721
0.547824
0.548993
0.484923
0.485832
0.551205
0.322303
0.323159
0.322647
0.298613
0.533688
0.361118
0.419754
0.536793
0.528745
0.327213
0.528302
0.555941
0.297025
0.295669
0.533608
0.538406
0.331735
0.307853
0.313467
0.533639
0.49327
0.321492
0.326184
0.328549
0.332248
0.272356
0.32264
0.553408
0.534076
0.530198
0.309553
0.513479
0.473103
0.480782
0.299969
0.326337
0.506249
0.533696
0.327545
0.533562
0.329496
0.543611
0.327101
0.532844
0.300708
0.516628
0.547123
0.304851
0.444266
0.322553
0.552288
0.331625
0.47619
0.330129
0.397002
0.323386
0.469185
0.317785
0.533634
0.53363
0.479077
0.526161
0.288194
0.515666
0.533442
0.546083
0.471152
0.516727
0.326824
0.30554
0.332327
0.546299
0.229649
0.544959
0.430386
0.538558
0.550357
0.359663
0.540597
0.323927
0.334314
0.322201
0.400662
0.405176
0.532665
0.320161
0.328857
0.534368
0.300318
0.319326
0.431569
0.291171
0.327469
0.335494
0.552987
0.514109
0.479806
0.328822
0.512918
0.532785
0.332037
0.256228
0.523054
0.533069
0.439867
0.408616
0.326449
0.286674
0.31299
0.529273
0.47795
0.409678
0.534394
0.325023
0.445632
0.323101
0.53364
0.544999
0.327553
0.327109
0.483428
0.426081
0.546834
0.543918
0.546146
0.537619
0.549545
0.308778
0.32497
0.318368
0.321377
0.420879
0.533701
0.515501
0.322167
0.303063
0.354089
0.356229
0.533624
0.495147
0.324143
0.243634
0.535827
0.329079
0.512102
0.542405
0.508481
0.533343
0.43046
0.318002
0.306978
0.481233
0.327814
0.32858
0.316126
0.53357
0.532235
0.288675
0.327976
0.533607
0.316711
0.534027
0.546326
0.317988
0.319541
0.327359
0.535509
0.329139
0.533685
0.534462
0.471356
0.303134
0.419511
0.541799
0.525077
0.324548
0.522554
0.483307
0.373889
0.539195
0.555756
0.324846
0.317464
0.51045
0.321283
0.321081
0.518881
0.274175
0.532897
0.532326
0.545672
0.489223
0.545252
0.535716
0.5338
0.321785
0.325808
0.492244
0.531334
0.371965
0.552314
0.257004
0.537628
0.518063
0.446783
0.508393
0.306125
0.360661
0.529018
0.54266
0.477842
0.547395
0.534851
0.533606
0.547133
0.533609
0.520396
0.510054
0.535002
0.533699
0.533792
0.280837
0.501184
0.298314
0.534904
0.53721
0.539565
0.50043
0.537458
0.318448
0.317661
0.242109
0.324349
0.506686
0.318449
0.324505
0.529397
0.325033
0.537165
0.31359
0.519097
0.535168
0.316171
0.302563
0.258488
0.540165
0.328076
0.532048
0.537138
0.320574
0.504001
0.438631
0.272394
0.330991
0.324961
0.538247
0.317653
0.535743
0.401921
0.323173
0.531659
0.532999
0.546106
0.329396
0.450528
0.326354
0.515051
0.533773
0.535605
0.32613
0.530512
0.538491
0.488847
0.320383
0.540051
0.330759
0.324885
0.529128
0.357273
0.549286
0.315429
0.326557
0.351902
0.495833
0.328725
0.231453
0.301014
0.376257
0.533586
0.536647
0.329405
0.468148
0.534917
0.442873
0.329648
0.262676
0.440517
0.330765
0.32379
0.529866
0.325549
0.330113
0.542274
0.554013
0.296736
0.541516
0.310202
0.533605
0.330284
0.509203
0.533768
0.538501
0.533589
0.323306
0.32345
0.32196
0.533828
0.511964
0.467894
0.42614
0.294446
0.240492
0.533323
0.322085
0.533311
0.303378
0.533772
0.524249
0.298158
0.292985
0.327235
0.327848
0.295794
0.482292
0.5088
0.300916
0.536312
0.499425
0.31875
0.322222
0.553962
0.324771
0.534879
0.338937
0.538177
0.513118
0.535566
0.533596
0.324925
0.549033
0.533432
0.555176
0.320081
0.475402
0.472905
0.261261
0.541049
0.499077
0.547617
0.513698
0.54959
0.527918
0.550781
0.53315
0.531725
0.309767
0.545279
0.327537
0.360567
0.530221
0.323916
0.520572
0.474698
0.328354
0.490059
0.318116
0.315276
0.522744
0.466748
0.553586
0.326161
0.513449
0.486669
0.324464
0.306814
0.508519
0.532916
0.299071
0.307362
0.537539
0.553422
0.312852
0.503006
0.547878
0.516338
0.303322
0.330931
0.316222
0.51434
0.313918
0.523156
0.540044
0.533338
0.473226
0.535453
0.326013
0.518817
0.486471
0.546945
0.440623
0.327383
0.321688
0.331357
0.544071
0.538083
0.33683
0.511407
0.255777
0.503397
0.536478
0.328658
0.48235
0.524024
0.487999
0.308015
0.326673
0.293398
0.539728
0.549202
0.484657
0.408178
0.535477
0.328606
0.497066
0.533627
0.530689
0.307884
0.49444
0.328565
0.480733
0.333444
0.530599
0.522744
0.329109
0.53951
0.334511
0.533697
0.500263
0.533668
0.540177
0.325254
0.533363
0.533282
0.532979
0.531358
0.383681
0.533623
0.325744
0.533417
0.32933
0.301729
0.32693
0.294455
0.329757
0.303891
0.549885
0.290315
0.322
0.514807
0.539889
0.510713
0.322577
0.534502
0.533743
0.533374
0.276514
0.452077
0.535487
0.320645
0.303835
0.322763
0.492374
0.403654
0.316804
0.45803
0.334602
0.533685
0.398189
0.327207
0.375227
0.509524
0.2907
0.533256
0.323804
0.368328
0.2969
0.531842
0.303503
0.510094
0.533613
0.462291
0.327909
0.324434
0.52628
0.552556
0.307781
0.305368
0.533696
0.323569
0.541458
0.310977
0.442069
0.331882
0.535631
0.324344
0.551423
0.301503
0.536278
0.536236
0.543312
0.533711
0.327822
0.328143
0.322046
0.496625
0.52868
0.49455
0.407344
0.329113
0.539443
0.266685
0.509857
0.455288
0.315708
0.327184
0.543495
0.530435
0.328762
0.533663
0.53014
0.543469
0.545681
0.32363
0.499105
0.328779
0.543564
0.315323
0.533572
0.504884
0.512224
0.551887
0.319556
0.556905
0.318402
0.324091
0.533942
0.533713
0.431137
0.529989
0.533676
0.324956
0.543046
0.528942
0.549292
0.306195
0.337533
0.531303
0.320937
0.53796
0.537177
0.522765
0.534279
0.227696
0.353094
0.509338
0.328515
0.517955
0.553064
0.372404
0.520002
0.215821
0.48302
0.543258
0.530002
0.520126
0.325033
0.332167
0.532885
0.521005
0.328111
0.263808
0.323482
0.327774
0.322167
0.334422
0.290592
0.321478
0.532328
0.327752
0.296332
0.536675
0.42958
0.533605
0.3134
0.327482
0.535303
0.368681
0.3736
0.547659
0.293463
0.517982
0.533773
0.480742
0.517162
0.324301
0.536963
0.533835
0.320942
0.323941
0.316239
0.47201
0.480118
0.549446
0.534027
0.531378
0.520077
0.29228
0.537837
0.533832
0.507894
0.325997
0.536009
0.449062
0.286806
0.342172
0.323563
0.323384
0.324276
0.464181
0.523008
0.521987
0.32393
0.308294
0.547806
0.283684
0.537219
0.533268
0.523071
0.53022
0.535204
0.320725
0.325542
0.33557
0.444628
0.319329
0.534304
0.320214
0.5347
0.533483
0.536813
0.29934
0.354
0.324
0.535849
0.306947
0.322431
0.533061
0.516916
0.484543
0.533902
0.504065
0.541065
0.323842
0.492774
0.545267
0.42083
0.534815
0.538823
0.542046
0.364879
0.338424
0.550414
0.395134
0.479334
0.325941
0.502501
0.523463
0.317748
0.313474
0.513346
0.402199
0.543178
0.537187
0.318222
0.328795
0.533587
0.299536
0.324727
0.524826
0.509412
0.327127
0.527247
0.533749
0.50201
0.301914
0.465218
0.324819
0.52724
0.544746
0.540954
0.519644
0.53371
0.252034
0.283692
0.52962
0.320517
0.480395
0.324096
0.536123
0.333425
0.507191
0.544889
0.533701
0.325431
0.533673
0.533591
0.323203
0.50307
0.315332
0.55401
0.325909
0.302521
0.315934
0.526536
0.529872
0.256557