# vtk DataFile Version 1.0
unstructured grid
ascii
DATASET UNSTRUCTURED_GRID
points 13672 float
0.0796578 -0.059106 0
0.00128732 0.00159165 0
0.00227961 -0.00102548 0
0.0791586 -0.0598787 0
-0.0546216 0.01 0
0.000495206 0.025 0
0.0800549 -0.035 0
0.135172 -0.08 0
-0.0546216 -0.0451168 0
0.000495206 -0.0301168 0
0.0800549 -0.0901168 0
0.135172 -0.135117 0
-0.0546216 -0.0451168 -0.00551168
0.000495206 -0.0301168 -0.00551168
0.0800549 -0.0901168 -0.00551168
0.135172 -0.135117 -0.00551168
0.135172 -0.08 -0.00551168
0.0800549 -0.035 -0.00551168
0.000495206 0.025 -0.00551168
-0.0546216 0.01 -0.00551168
0.00128732 0.00159165 -0.00551168
0.00227961 -0.00102548 -0.00551168
0.0791586 -0.0598787 -0.00551168
0.0796578 -0.059106 -0.00551168
0.00165953 -0.000990923 0
0.00119576 -0.000874076 0
0.000866021 -0.000641801 0
0.000645147 -0.000349912 0
0.00052235 -1.7281e-05 0
0.00049972 0.000348016 0
0.000601632 0.000737716 0
0.000861774 0.0011403 0
0.00157235 0.00183217 0
0.00188647 0.00206725 0
0.00222612 0.00230203 0
0.00258713 0.00254351 0
0.00296826 0.00279524 0
0.00337118 0.00305664 0
0.00379785 0.00332658 0
0.00425045 0.00360349 0
0.00473139 0.00388521 0
0.0052432 0.00416895 0
0.0057881 0.00445204 0
0.00636753 0.00473281 0
0.00698281 0.00500961 0
0.00763526 0.00528058 0
0.00832616 0.00554366 0
0.00905691 0.00579603 0
0.00982918 0.00603333 0
0.0106445 0.00625033 0
0.0115038 0.00644128 0
0.0124073 0.00660297 0
0.0133543 0.00673414 0
0.0143444 0.00683382 0
0.0153769 0.00690031 0
0.0164512 0.00693173 0
0.0175666 0.00692547 0
0.0187219 0.00687822 0
0.0199156 0.00678477 0
0.0211454 0.00663864 0
0.0224084 0.00643275 0
0.0237018 0.00616676 0
0.0250249 0.00584739 0
0.026375 0.00547298 0
0.0277479 0.00503752 0
0.0291386 0.00453545 0
0.0305433 0.0039653 0
0.0319572 0.0033256 0
0.0333681 0.00260019 0
0.034775 0.00179799 0
0.0361793 0.000930615 0
0.0375798 3.12222e-06 0
0.0389689 -0.000988429 0
0.0403357 -0.00205109 0
0.041675 -0.00318283 0
0.0429849 -0.00437751 0
0.0442643 -0.00562904 0
0.0455126 -0.00693089 0
0.0467314 -0.00827518 0
0.0479204 -0.00965638 0
0.0490661 -0.0110799 0
0.0501515 -0.0125519 0
0.0511696 -0.0140695 0
0.0521492 -0.0156071 0
0.0531202 -0.0171411 0
0.0540851 -0.0186663 0
0.0550431 -0.0201798 0
0.0559923 -0.0216793 0
0.0569311 -0.0231626 0
0.0578582 -0.0246273 0
0.0587723 -0.0260715 0
0.0596721 -0.027493 0
0.0605563 -0.02889 0
0.0614241 -0.0302609 0
0.0622742 -0.0316042 0
0.063106 -0.0329183 0
0.0639186 -0.034202 0
0.0647113 -0.0354543 0
0.0654835 -0.0366743 0
0.0662345 -0.0378613 0
0.0669642 -0.0390145 0
0.0676726 -0.0401333 0
0.0683597 -0.0412172 0
0.0690246 -0.0422665 0
0.0696662 -0.0432819 0
0.0702841 -0.0442636 0
0.0708793 -0.0452111 0
0.0714538 -0.0461237 0
0.072009 -0.047001 0
0.0725452 -0.0478434 0
0.0730611 -0.0486524 0
0.073556 -0.0494294 0
0.0740291 -0.0501756 0
0.0744812 -0.0508916 0
0.0749138 -0.0515773 0
0.0753285 -0.0522331 0
0.0757266 -0.0528592 0
0.076109 -0.0534564 0
0.0764753 -0.0540264 0
0.0768243 -0.054571 0
0.0771553 -0.0550919 0
0.0774679 -0.0555901 0
0.0777617 -0.0560669 0
0.0780369 -0.056523 0
0.0782958 -0.0569578 0
0.0785421 -0.0573703 0
0.0787786 -0.0577603 0
0.0790073 -0.0581279 0
0.0792295 -0.058474 0
0.0794462 -0.0587995 0
0.0798803 -0.0594162 0
0.0800272 -0.0596588 0
0.0800357 -0.0598891 0
0.0799275 -0.0600784 0
0.0797205 -0.0601773 0
0.0794593 -0.0601051 0
0.0789155 -0.0596491 0
0.0786707 -0.0593963 0
0.0784111 -0.0591319 0
0.0781372 -0.0588542 0
0.0778566 -0.0585548 0
0.0775715 -0.0582308 0
0.0772803 -0.0578828 0
0.0769832 -0.0575099 0
0.0766822 -0.0571097 0
0.0763801 -0.0566796 0
0.0760759 -0.0562196 0
0.0757623 -0.0557337 0
0.0754359 -0.0552232 0
0.0750951 -0.0546879 0
0.0747379 -0.054128 0
0.0743626 -0.0535435 0
0.0739688 -0.0529338 0
0.0735559 -0.0522981 0
0.0731238 -0.0516357 0
0.0726718 -0.050946 0
0.0721991 -0.0502288 0
0.0717046 -0.049484 0
0.0711872 -0.0487117 0
0.0706461 -0.047912 0
0.0700804 -0.0470849 0
0.0694892 -0.0462308 0
0.0688718 -0.0453499 0
0.0682271 -0.0444431 0
0.0675544 -0.043511 0
0.0668527 -0.0425546 0
0.0661215 -0.0415748 0
0.06536 -0.040573 0
0.0645676 -0.0395504 0
0.0637439 -0.0385087 0
0.0628887 -0.0374493 0
0.062002 -0.0363741 0
0.0610838 -0.0352847 0
0.0601345 -0.0341831 0
0.0591547 -0.033071 0
0.0581456 -0.0319502 0
0.0571083 -0.0308224 0
0.0560444 -0.0296893 0
0.0549562 -0.028552 0
0.053845 -0.0274126 0
0.0527113 -0.0262746 0
0.051554 -0.0251427 0
0.0503724 -0.0240222 0
0.0491675 -0.0229164 0
0.047941 -0.0218282 0
0.0466955 -0.0207597 0
0.0454337 -0.0197126 0
0.0441592 -0.0186878 0
0.0428751 -0.0176863 0
0.0415841 -0.0167097 0
0.0402878 -0.0157609 0
0.0389879 -0.0148428 0
0.0376864 -0.0139575 0
0.0363853 -0.013107 0
0.0350871 -0.0122931 0
0.0337942 -0.0115164 0
0.0325095 -0.0107772 0
0.0312357 -0.0100756 0
0.0299758 -0.00941024 0
0.0287337 -0.00877784 0
0.0275126 -0.00817571 0
0.0263139 -0.00760375 0
0.0251376 -0.00706528 0
0.0239829 -0.0065649 0
0.0228537 -0.00609619 0
0.0217522 -0.00565563 0
0.0206795 -0.00524226 0
0.0196364 -0.00485507 0
0.0186233 -0.00449318 0
0.0176408 -0.00415577 0
0.016689 -0.00384204 0
0.0157682 -0.00355115 0
0.0148783 -0.00328218 0
0.0140192 -0.00303468 0
0.0131906 -0.00280795 0
0.0123925 -0.00260016 0
0.0116246 -0.00241012 0
0.0108864 -0.00223769 0
0.0101774 -0.00208212 0
0.00949701 -0.00194206 0
0.00884483 -0.0018163 0
0.0082202 -0.0017039 0
0.00762247 -0.00160391 0
0.00705097 -0.00151528 0
0.006505 -0.00143697 0
0.0059838 -0.00136806 0
0.00548662 -0.00130772 0
0.00501265 -0.00125519 0
0.00456114 -0.00120954 0
0.00413136 -0.00116914 0
0.00372257 -0.00113251 0
0.00333398 -0.00109853 0
0.00296466 -0.00106798 0
0.00261363 -0.0010431 0
-0.052721 -0.0445996 0
-0.0508204 -0.0440823 0
-0.0489199 -0.0435651 0
-0.0470193 -0.0430478 0
-0.0451187 -0.0425306 0
-0.0432181 -0.0420134 0
-0.0413175 -0.0414961 0
-0.039417 -0.0409789 0
-0.0375164 -0.0404616 0
-0.0356158 -0.0399444 0
-0.0337152 -0.0394271 0
-0.0318146 -0.0389099 0
-0.0299141 -0.0383927 0
-0.0280135 -0.0378754 0
-0.0261129 -0.0373582 0
-0.0242123 -0.0368409 0
-0.0223117 -0.0363237 0
-0.0204112 -0.0358065 0
-0.0185106 -0.0352892 0
-0.01661 -0.034772 0
-0.0147094 -0.0342547 0
-0.0128088 -0.0337375 0
-0.0109083 -0.0332202 0
-0.00900769 -0.032703 0
-0.00710711 -0.0321858 0
-0.00520653 -0.0316685 0
-0.00330595 -0.0311513 0
-0.00140537 -0.030634 0
0.00190689 -0.0299614 0
0.00332271 -0.0298498 0
0.00474133 -0.0297825 0
0.00616136 -0.0297597 0
0.0075814 -0.0297814 0
0.00900007 -0.0298477 0
0.010416 -0.0299583 0
0.0118278 -0.0301127 0
0.0132342 -0.0303103 0
0.0146339 -0.0305504 0
0.0160259 -0.0308322 0
0.0174091 -0.0311546 0
0.0187824 -0.0315166 0
0.020145 -0.031917 0
0.0214961 -0.0323546 0
0.0228351 -0.032828 0
0.0241613 -0.0333361 0
0.0254744 -0.0338774 0
0.0267738 -0.0344507 0
0.0280592 -0.0350545 0
0.0293306 -0.0356877 0
0.0305875 -0.0363488 0
0.0318301 -0.0370367 0
0.0330581 -0.0377501 0
0.0342717 -0.0384879 0
0.0354708 -0.0392489 0
0.0366556 -0.0400321 0
0.0378262 -0.0408363 0
0.0389828 -0.0416607 0
0.0401254 -0.0425042 0
0.0412543 -0.0433659 0
0.0423698 -0.0442451 0
0.043472 -0.0451408 0
0.0445612 -0.0460523 0
0.0456375 -0.0469789 0
0.0467013 -0.0479199 0
0.0477529 -0.0488746 0
0.0487923 -0.0498424 0
0.04982 -0.0508227 0
0.0508362 -0.051815 0
0.051841 -0.0528187 0
0.0528348 -0.0538333 0
0.0538178 -0.0548584 0
0.0547903 -0.0558935 0
0.0557524 -0.0569382 0
0.0567045 -0.0579922 0
0.0576467 -0.0590549 0
0.0585792 -0.0601261 0
0.0595024 -0.0612055 0
0.0604163 -0.0622926 0
0.0613212 -0.0633873 0
0.0622174 -0.0644891 0
0.0631049 -0.0655979 0
0.0639841 -0.0667134 0
0.064855 -0.0678353 0
0.0657179 -0.0689633 0
0.0665729 -0.0700974 0
0.0674202 -0.0712372 0
0.06826 -0.0723826 0
0.0690925 -0.0735333 0
0.0699178 -0.0746892 0
0.070736 -0.0758501 0
0.0715473 -0.0770159 0
0.0723518 -0.0781863 0
0.0731498 -0.0793612 0
0.0739412 -0.0805405 0
0.0747264 -0.081724 0
0.0755053 -0.0829116 0
0.0762781 -0.0841033 0
0.0770449 -0.0852987 0
0.0778059 -0.0864979 0
0.0785611 -0.0877007 0
0.0793108 -0.088907 0
0.0814681 -0.0912706 0
0.0828814 -0.0924245 0
0.0842946 -0.0935783 0
0.0857079 -0.0947322 0
0.0871211 -0.095886 0
0.0885344 -0.0970399 0
0.0899476 -0.0981937 0
0.0913609 -0.0993476 0
0.0927741 -0.100501 0
0.0941874 -0.101655 0
0.0956006 -0.102809 0
0.0970139 -0.103963 0
0.0984272 -0.105117 0
0.0998404 -0.106271 0
0.101254 -0.107424 0
0.102667 -0.108578 0
0.10408 -0.109732 0
0.105493 -0.110886 0
0.106907 -0.11204 0
0.10832 -0.113194 0
0.109733 -0.114348 0
0.111146 -0.115501 0
0.11256 -0.116655 0
0.113973 -0.117809 0
0.115386 -0.118963 0
0.116799 -0.120117 0
0.118213 -0.121271 0
0.119626 -0.122424 0
0.121039 -0.123578 0
0.122452 -0.124732 0
0.123866 -0.125886 0
0.125279 -0.12704 0
0.126692 -0.128194 0
0.128105 -0.129348 0
0.129519 -0.130501 0
0.130932 -0.131655 0
0.132345 -0.132809 0
0.133758 -0.133963 0
0.135172 -0.133216 0
0.135172 -0.131316 0
0.135172 -0.129415 0
0.135172 -0.127514 0
0.135172 -0.125614 0
0.135172 -0.123713 0
0.135172 -0.121813 0
0.135172 -0.119912 0
0.135172 -0.118012 0
0.135172 -0.116111 0
0.135172 -0.11421 0
0.135172 -0.11231 0
0.135172 -0.110409 0
0.135172 -0.108509 0
0.135172 -0.106608 0
0.135172 -0.104708 0
0.135172 -0.102807 0
0.135172 -0.100906 0
0.135172 -0.0990058 0
0.135172 -0.0971052 0
0.135172 -0.0952046 0
0.135172 -0.0933041 0
0.135172 -0.0914035 0
0.135172 -0.0895029 0
0.135172 -0.0876023 0
0.135172 -0.0857017 0
0.135172 -0.0838012 0
0.135172 -0.0819006 0
0.133758 -0.0788462 0
0.132345 -0.0776923 0
0.130932 -0.0765385 0
0.129519 -0.0753846 0
0.128105 -0.0742308 0
0.126692 -0.0730769 0
0.125279 -0.0719231 0
0.123866 -0.0707692 0
0.122452 -0.0696154 0
0.121039 -0.0684615 0
0.119626 -0.0673077 0
0.118213 -0.0661538 0
0.116799 -0.065 0
0.115386 -0.0638462 0
0.113973 -0.0626923 0
0.11256 -0.0615385 0
0.111146 -0.0603846 0
0.109733 -0.0592308 0
0.10832 -0.0580769 0
0.106907 -0.0569231 0
0.105493 -0.0557692 0
0.10408 -0.0546154 0
0.102667 -0.0534615 0
0.101254 -0.0523077 0
0.0998404 -0.0511538 0
0.0984272 -0.05 0
0.0970139 -0.0488462 0
0.0956006 -0.0476923 0
[...]
CELL_DATA 13116
SCALARS rho float
LOOKUP_TABLE default
0.5977
0.674381
0.499687
0.696324
0.697375
0.689376
0.382026
0.702034
0.597671
0.699446
0.36013
0.501968
0.697556
0.448021
0.46588
0.689377
0.597701
0.627933
0.689509
0.354551
0.5977
0.505966
0.480558
0.658038
0.5977
0.707403
0.6995
0.532094
0.5977
0.597712
0.677259
0.490209
0.597692
0.595708
0.388459
0.5977
0.600076
0.690711
0.689195
0.700285
0.689386
0.701272
0.597635
0.476146
0.689723
0.689538
0.685502
0.689609
0.494519
0.597487
0.69951
0.597502
0.410362
0.597701
0.597694
0.5977
0.474786
0.661613
0.597548
0.480208
0.45026
0.698731
0.67574
0.689112
0.680677
0.429185
0.690002
0.598874
0.690287
0.684261
0.465258
0.597696
0.510837
0.455573
0.635181
0.43504
0.60392
0.69564
0.364699
0.611848
0.615846
0.707326
0.674016
0.689647
0.69754
0.571027
0.395226
0.597791
0.706205
0.336297
0.498713
0.676982
0.686291
0.706318
0.597789
0.5977
0.5977
0.660399
0.650877
0.5977
0.597744
0.613486
0.689411
0.594376
0.696412
0.487576
0.552714
0.597677
0.509124
0.5977
0.597695
0.706562
0.5977
0.611058
0.613672
0.691027
0.416896
0.568462
0.693512
0.694541
0.598532
0.521988
0.690584
0.498823
0.706943
0.58837
0.399566
0.596449
0.49547
0.597433
0.69382
0.687523
0.590531
0.498676
0.586505
0.597712
0.557973
0.693978
0.597733
0.694869
0.599989
0.687471
0.596728
0.600851
0.637542
0.462127
0.386993
0.706918
0.695478
0.700852
0.597069
0.689616
0.689583
0.399092
0.697461
0.697766
0.491456
0.597821
0.660536
0.597759
0.655728
0.360883
0.680463
0.492627
0.527444
0.698536
0.707077
0.624933
0.386097
0.579924
0.571083
0.558407
0.463142
0.596327
0.690423
0.480107
0.480352
0.509826
0.706096
0.689222
0.345062
0.581436
0.597699
0.599528
0.689228
0.597583
0.39897
0.689525
0.699846
0.593689
0.598378
0.706785
0.686164
0.502374
0.706062
0.689218
0.696305
0.689539
0.706241
0.592696
0.594963
0.5977
0.596146
0.460513
0.691815
0.689668
0.597541
0.5977
0.470873
0.347821
0.432356
0.689283
0.497385
0.338217
0.337216
0.403727
0.564016
0.689073
0.707055
0.567615
0.467701
0.689779
0.597693
0.34449
0.596948
0.699063
0.633604
0.533295
0.690261
0.559302
0.702549
0.491137
0.686496
0.597678
0.648574
0.702383
0.687611
0.501492
0.588002
0.597727
0.613755
0.689202
0.558939
0.688327
0.703323
0.483848
0.697576
0.69813
0.656326
0.373099
0.497875
0.689613
0.693255
0.683981
0.690418
0.5977
0.601685
0.357862
0.514263
0.583088
0.469186
0.691258
0.695705
0.604179
0.378498
0.692005
0.411588
0.570156
0.697201
0.372629
0.70732
0.699804
0.599624
0.662451
0.499254
0.58636
0.625907
0.660326
0.693428
0.358425
0.387126
0.503104
0.597711
0.519246
0.513169
0.545364
0.53699
0.691806
0.419183
0.703645
0.697939
0.38805
0.351511
0.406663
0.586272
0.526656
0.597801
0.599046
0.704511
0.368499
0.689278
0.597664
0.519501
0.479454
0.689276
0.693224
0.689494
0.403247
0.689228
0.593442
0.687769
0.70065
0.700342
0.700623
0.505042
0.68989
0.445847
0.689446
0.699629
0.597703
0.339158
0.544218
0.698425
0.406408
0.697647
0.698703
0.574203
0.599167
0.671761
0.395527
0.691925
0.685961
0.443643
0.695371
0.569853
0.597536
0.706636
0.571386
0.59787
0.378253
0.643041
0.548173
0.688754
0.653752
0.697943
0.531222
0.554703
0.696928
0.395517
0.692305
0.702268
0.580229
0.558796
0.395885
0.493026
0.691388
0.597233
0.599567
0.39125
0.493442
0.697732
0.697852
0.380501
0.698053
0.429081
0.49233
0.69341
0.705634
0.597697
0.336098
0.693135
0.67748
0.68936
0.693867
0.684791
0.597192
0.56933
0.461802
0.345194
0.689351
0.344213
0.597699
0.573418
0.501039
0.552539
0.597698
0.505822
0.390942
0.694575
0.505714
0.684988
0.5977
0.689509
0.597723
0.69734
0.496029
0.384897
0.593346
0.562145
0.690914
0.5977
0.689426
0.5977
0.637492
0.597701
0.707224
0.597884
0.597709
0.685915
0.608387
0.689351
0.58485
0.597346
0.5977
0.498
0.598917
0.5977
0.4092
0.690551
0.594255
0.505765
0.345961
0.337605
0.389574
0.5977
0.427272
0.502288
0.689389
0.427729
0.597685
0.33625
0.689402
0.646058
0.542229
0.499019
0.691117
0.584692
0.33615
0.389735
0.336252
0.509959
0.385209
0.344222
0.519966
0.571587
0.343556
0.613362
0.547019
0.702181
0.587038
0.498552
0.587176
0.464767
0.336398
0.467239
0.696299
0.576714
0.5977
0.597694
0.423747
0.5977
0.705744
0.570324
0.599085
0.597704
0.597706
0.383618
0.649232
0.568419
0.680635
0.668617
0.51151
0.416561
0.698419
0.565204
0.570797
0.65871
0.552281
0.597796
0.650248
0.351726
0.475013
0.449852
0.596199
0.476011
0.432129
0.462575
0.443631
0.698487
0.698181
0.587346
0.5977
0.587476
0.705593
0.558075
0.420557
0.597676
0.513094
0.689532
0.538312
0.559453
0.58967
0.689839
0.707339
0.597438
0.574259
0.412135
0.597356
0.701735
0.687642
0.597265
0.687852
0.688874
0.34119
0.642724
0.597668
0.597717
0.54402
0.525965
0.609766
0.695396
0.597714
0.699309
0.705751
0.707439
0.648392
0.597706
0.68949
0.3381
0.690048
0.551021
0.477842
0.336748
0.696607
0.689666
0.539984
0.699153
0.5977
0.338144
0.688761
0.692715
0.674113
0.530472
0.41702
0.694251
0.336136
0.336113
0.474347
0.340296
0.689081
0.438188
0.696207
0.543747
0.67189
0.699153
0.689672
0.697805
0.336133
0.345651
0.689564
0.702117
0.601842
0.698554
0.697955
0.583412
0.391627
0.517642
0.689235
0.597635
0.337247
0.584084
0.500696
0.705525
0.689732
0.543061
0.510947
0.702162
0.572828
0.693058
0.5977
0.490739
0.559084
0.601301
0.6137
0.49516
0.707354
0.707092
0.689591
0.42184
0.559186
0.466533
0.642796
0.597715
0.336084
0.563022
0.514519
0.644425
0.510663
0.375877
0.570289
0.688979
0.682897
0.373359
0.511693
0.337086
0.688881
0.514894
0.689207
0.459682
0.597698
0.699138
0.587608
0.489165
0.483019
0.583847
0.519674
0.707561
0.412374
0.43493
0.689349
0.433022
0.6893
0.695628
0.653102
0.336612
0.689647
0.688548
0.695775
0.689247
0.70744
0.692708
0.478294
0.685926
0.568925
0.689229
0.36013
0.702964
0.597541
0.393067
0.677569
0.692532
0.401643
0.597798
0.497861
0.461591
0.689348
0.695957
0.50106
0.467642
0.367991
0.478602
0.706193
0.65828
0.418162
0.358752
0.692047
0.694938
0.597698
0.688019
0.689576
0.358298
0.698233
0.572909
0.699314
0.573756
0.5977
0.582796
0.68968
0.60002
0.597668
0.555113
0.526108
0.689736
0.597699
0.5977
0.686045
0.462998
0.641356
0.697048
0.562081
0.597385
0.691777
0.570641
0.681815
0.597728
0.543166
0.697709
0.597767
0.500877
0.677049
0.501687
0.70502
0.456482
0.689269
0.675466
0.525699
0.6892
0.682696
0.694403
0.5977
0.666768
0.597671
0.536199
0.592445
0.503154
0.453737
0.557679
0.597093
0.69179
0.694958
0.338595
0.539616
0.677443
0.699277
0.691258
0.700076
0.345615
0.607265
0.69811
0.351449
0.500021
0.693506
0.689617
0.702131
0.483454
0.597681
0.548065
0.671146
0.699296
0.686994
0.686753
0.337972
0.687038
0.703376
0.682085
0.697481
0.68934
0.568229
0.68497
0.348394
0.625796
0.698764
0.580326
0.649147
0.688144
0.699202
0.596223
0.584157
0.59768
0.597703
0.336143
0.336073
0.376899
0.343061
0.668646
0.639356
0.688074
0.539101
0.347653
0.690099
0.597889
0.440827
0.54098
0.583154
0.60512
0.689574
0.694882
0.635737
0.345468
0.336137
0.563457
0.498281
0.338288
0.418038
0.689359
0.546715
0.336134
0.5977
0.6895
0.705857
0.689331
0.689472
0.417997
0.446997
0.372587
0.597698
0.57653
0.493954
0.599043
0.623403
0.69995
0.689398
0.486976
0.336265
0.699299
0.336253
0.689325
0.678108
0.66928
0.501011
0.336255
0.705774
0.676705
0.597703
0.440915
0.695304
0.68934
0.5977
0.700641
0.700982
0.569943
0.684953
0.344336
0.689466
0.681786
0.59957
0.66807
0.557693
0.706652
0.57689
0.692384
0.433175
0.457952
0.336234
0.67704
0.59758
0.336236
0.679193
0.691897
0.500317
0.597831
0.549347
0.598286
0.597693
0.499211
0.698964
0.648784
0.336858
0.596519
0.678222
0.475966
0.706242
0.438549
0.485615
0.597701
0.5977
0.587183
0.689427
0.3819
0.68126
0.472449
0.491371
0.689288
0.337626
0.5977
0.499059
0.597883
0.5977
0.573708
0.7072
0.460362
0.439568
0.613308
0.597659
0.690972
0.596309
0.5977
0.68939
0.679429
0.597668
0.5977
0.706032
0.696954
0.690725
0.549417
0.33608
0.596191
0.706144
0.697333
0.572095
0.6894
0.597703
0.5927
0.50012
0.597704
0.604206
0.560208
0.639657
0.646129
0.623021
0.689213
0.605467
0.493716
0.597705
0.582937
0.699233
0.689649
0.535947
0.70888
0.696954
0.466112
0.492242
0.404698
0.557841
0.360173
0.597701
0.679824
0.597704
0.526193
0.691866
0.459752
0.597685
0.689075
0.68666
0.598753
0.688747
0.5977
0.614845
0.597678
0.689267
0.458727
0.689306
0.689589
0.597619
0.589056
0.651508
0.505289
0.463393
0.47974
0.700164
0.336083
0.580995
0.372424
0.70231
0.419083
0.582754
0.477779
0.677833
0.699552
0.5977
0.528495
0.5977
0.689143
0.350225
0.597699
0.697959
0.493021
0.5977
0.668712
0.69901
0.689348
0.512416
0.597678
0.691983
0.689526
0.624434
0.336121
0.581974
0.692608
0.561297
0.610197
0.55844
0.5977
0.68774
0.5977
0.69812
0.336121
0.461969
0.560481
0.696815
0.689147
0.435407
0.689323
0.5977
0.597702
0.455309
0.565514
0.698059
0.698295
0.597639
0.56728
0.68946
0.61194
0.380618
0.5977
0.634866
0.38188
0.49785
0.448632
0.702936
0.517548
0.337811
0.692918
0.596602
0.697946
0.597917
0.388968
0.387907
0.698774
0.459438
0.428036
0.676404
0.502703
0.560113
0.5977
0.707691
0.689524
0.347249
0.558105
0.363915
0.694731
0.490131
0.689721
0.430892
0.68291
0.707757
0.69018
0.696017
0.684096
0.699092
0.689569
0.697633
0.69067
0.434394
0.358738
0.674958
0.689238
0.58757
0.703552
0.597682
0.689165
0.599624
0.539136
0.692888
0.698469
0.689711
0.378551
0.686688
0.52499
0.689656
0.583758
0.619056
0.689263
0.500266
0.690281
0.337385
0.595431
0.673317
0.422466
0.59793
0.557782
0.704848
0.394305
0.689393
0.342836
0.500754
0.501539
0.337194
0.601527
0.466053
0.599636
0.688359
0.567573
0.503688
0.582711
0.597678
0.597703
0.645715
0.336642
0.41361
0.377908
0.475755
0.527085
0.597707
0.707086
0.535222
0.688767
0.679561
0.445241
0.698529
0.597829
0.688785
0.366448
0.631453
0.663695
0.688045
0.700578
0.475435
0.68968
0.692366
0.687
0.597702
0.689242
0.514736
0.501873
0.689614
0.595601
0.336149
0.689286
0.490014
0.59756
0.597725
0.705096
0.70422
0.498167
0.702913
0.582985
0.378713
0.600768
0.693965
0.694081
0.696883
0.59935
0.501015
0.698059
0.477844
0.586965
0.698496
0.647965
0.69168
0.373388
0.516843
0.698491
0.521644
0.693881
0.5977
0.577952
0.533606
0.695163
0.497823
0.68928
0.693385
0.602177
0.498758
0.460815
0.595712
0.597673
0.597702
0.594095
0.689366
0.652033
0.701318
0.557659
0.68169
0.397359
0.531126
0.695334
0.689224
0.615689
0.57878
0.455636
0.635726
0.458714
0.689635
0.5977
0.56441
0.690456
0.348605
0.707644
0.501305
0.696085
0.494658
0.689573
0.689212
0.49884
0.706765
0.597703
0.503085
0.687928
0.689501
0.597687
0.462133
0.569588
0.5944
0.690755
0.640707
0.545814
0.59767
0.683548
0.689345
0.526952
0.597709
0.690773
0.572289
0.689357
0.689446
0.534171
0.690612
0.664184
0.494306
0.5977
0.38042
0.598636
0.387978
0.486443
0.694298
0.337146
0.337001
0.456115
0.689648
0.6896
0.587818
0.689477
0.565883
0.626238
0.34128
0.688507
0.57417
0.689399
0.689637
0.600606
0.687988
0.596708
0.689205
0.688655
0.521413
0.5977
0.600356
0.5977
0.681586
0.584215
0.591327
0.697915
0.350452
0.597685
0.551188
0.689423
0.433013
0.501276
0.646116
0.689524
0.349881
0.69801
0.618985
0.557792
0.700293
0.633351
0.342408
0.698806
0.340698
0.496483
0.706568
0.645111
0.701534
0.701353
0.488134
0.393745
0.366409
0.680238
0.688132
0.566497
0.707344
0.428441
0.393775
0.439679
0.705191
0.572558
0.698495
0.690786
0.5977
0.696509
0.690356
0.5977
0.602516
0.570215
0.501169
0.346716
0.6381
0.62572
0.44002
0.597709
0.702295
0.600983
0.510174
0.5965
0.655764
0.533579
0.641551
0.598674
0.338601
0.689153
0.67209
0.336173
0.68945
0.424153
0.691515
0.699201
0.685226
0.461343
0.577023
0.597977
0.537981
0.570877
0.693076
0.54216
0.689184
0.690416
0.707194
0.616779
0.57473
0.6748
0.600716
0.689512
0.554213
0.697186
0.484049
0.45515
0.69363
0.689642
0.688445
0.521552
0.689262
0.5977
0.630755
0.418342
0.427648
0.336131
0.697017
0.375694
0.432716
0.496555
0.598689
0.429359
0.535313
0.571416
0.689761
0.336606
0.687626
0.689083
0.698388
0.398821
0.690123
0.597719
0.688599
0.566686
0.597702
0.389791
0.350377
0.689364
0.350016
0.597725
0.677837
0.564551
0.33694
0.545016
0.397383
0.597302
0.558354
0.523679
0.690421
0.689532
0.625779
0.342655
0.474085
0.548911
0.66175
0.336402
0.557693
0.5977
0.689148
0.691766
0.357305
0.597783
0.479816
0.602395
0.5977
0.699371
0.598039
0.5977
0.597709
0.619528
0.695916
0.370265
0.584383
0.43662
0.615812
0.597647
0.649884
0.336969
0.571316
0.680797
0.690058
0.68511
0.346927
0.699544
0.59724
0.597429
0.644789
0.514353
0.346077
0.535084
0.689692
0.688512
0.597701
0.705202
0.547368
0.705086
0.597702
0.688762
0.688281
0.704478
0.698585
0.689305
0.655355
0.692397
0.513312
0.691037
0.697308
0.689338
0.692268
0.689656
0.597712
0.338289
0.496438
0.60157
0.336162
0.570944
0.700582
0.450838
0.5977
0.689865
0.678216
0.689678
0.509106
0.701239
0.501939
0.451019
0.689308
0.688192
0.689398
0.408207
0.69815
0.689434
0.609441
0.689488
0.496553
0.689288
0.698689
0.663269
0.590125
0.648444
0.357531
0.696255
0.431692
0.33752
0.597701
0.581649
0.698961
0.672231
0.689331
0.488875
0.689275
0.589067
0.456321
0.707325
0.582
0.33617
0.689388
0.505933
0.589487
0.598093
0.668837
0.702068
0.58322
0.597697
0.597764
0.689261
0.597716
0.694508
0.595827
0.703601
0.70475
0.597717
0.483182
0.363633
0.580223
0.696567
0.50562
0.597739
0.698877
0.5977
0.689264
0.5977
0.598302
0.607204
0.366755
0.697601
0.701021
0.5977
0.700783
0.698315
0.707548
0.689279
0.342612
0.443021
0.689015
0.597666
0.5977
0.694438
0.689627
0.689477
0.695681
0.698746
0.597701
0.655123
0.699574
0.446011
0.508827
0.437911
0.553185
0.581466
0.589687
0.597699
0.69031
0.613187
0.502347
0.689613
0.69558
0.413381
0.561386
0.596471
0.692709
0.520721
0.486531
0.475314
0.557658
0.707322
0.593321
0.396816
0.340094
0.49738
0.563521
0.336093
0.703493
0.689634
0.669945
0.37272
0.680118
0.597702
0.5977
0.542801
0.350043
0.707425
0.558505
0.336177
0.689392
0.336193
0.652489
0.513098
0.698943
0.374008
0.699141
0.698354
0.393539
0.597466
0.524838
0.698684
0.503821
0.597704
0.485595
0.597227
0.388379
0.597703
0.347974
0.686926
0.687069
0.5977
0.683406
0.545964
0.689627
0.689156
0.698194
0.597701
0.626246
0.348255
0.596942
0.436591
0.688295
0.535041
0.696784
0.597283
0.640934
0.698928
0.597689
0.686543
0.457544
0.446211
0.445387
0.596953
0.597703
0.689575
0.367087
0.508016
0.689294
0.562016
0.495938
0.597716
0.562902
0.336146
0.494634
0.701309
0.5977
0.597706
0.473813
0.688028
0.689914
0.493184
0.548264
0.702323
0.689451
0.601115
0.590966
0.566998
0.554451
0.39471
0.705928
0.603708
0.597657
0.600475
0.476094
0.5977
0.352944
0.681174
0.696963
0.344081
0.51953
0.606643
0.597711
0.697736
0.692988
0.693882
0.700183
0.69848
0.410986
0.503043
0.440539
0.357082
0.5977
0.671428
0.5977
0.348448
0.336993
0.596391
0.497075
0.689495
0.66386
0.3374
0.542263
0.689832
0.495574
0.597779
0.685619
0.695939
0.689298
0.5977
0.33611
0.383659
0.654897
0.342165
0.593781
0.586869
0.689233
0.692287
0.528887
0.338285
0.557953
0.350645
0.689904
0.688466
0.33631
0.468301
0.416108
0.689678
0.418894
0.557754
0.662946
0.5977
0.491054
0.595165
0.694947
0.691725
0.374711
0.69165
0.600879
0.501203
0.692867
0.701614
0.37002
0.336459
0.706214
0.356859
0.357211
0.690211
0.552429
0.689595
0.598123
0.678475
0.59954
0.696609
0.689909
0.68918
0.369534
0.565029
0.615237
0.688949
0.576439
0.698726
0.550835
0.692001
0.702021
0.597697
0.597721
0.596762
0.584662
0.689595
0.694802
0.704258
0.6985
0.689369
0.570899
0.700916
0.557746
0.707328
0.70728
0.704636
0.560023
0.689193
0.502141
0.70742
0.51816
0.694617
0.691225
0.667099
0.69738
0.610195
0.461588
0.396387
0.540387
0.370951
0.692759
0.366911
0.370434
0.622787
0.486306
0.651954
0.390685
0.691569
0.689872
0.337179
0.561344
0.566777
0.696243
0.471359
0.689576
0.689912
0.403798
0.707356
0.597531
0.579792
0.527413
0.493995
0.599921
0.336344
0.698018
0.5977
0.531357
0.689567
0.689404
0.693202
0.336189
0.5977
0.486219
0.681034
0.689319
0.691452
0.336103
0.688673
0.693952
0.705022
0.577211
0.695857
0.336132
0.341087
0.701699
0.588857
0.69895
0.596599
0.336113
0.573357
0.704773
0.513358
0.502691
0.459708
0.597683
0.644988
0.690377
0.445384
0.597701
0.689457
0.597234
0.597299
0.563118
0.597556
0.336092
0.345443
0.689722
0.340009
0.336247
0.699942
0.698151
0.417715
0.620408
0.413084
0.583792
0.536015
0.70734
0.685354
0.613235
0.689132
0.480488
0.347113
0.497384
0.689364
0.70663
0.597695
0.597563
0.558211
0.53915
0.689284
0.366619
0.689604
0.557815
0.685931
0.59921
0.390497
0.486388
0.338786
0.338306
0.498378
0.60892
0.68915
0.372327
0.690508
0.59771
0.536705
0.459309
0.697547
0.336238
0.689931
0.568655
0.618223
0.597739
0.69004
0.650323
0.449085
0.698874
0.695166
0.700883
0.336713
0.634046
0.597699
0.568506
0.697
0.601152
0.70498
0.690875
0.698504
0.703152
0.700416
0.689364
0.689485
0.337701
0.687118
0.338658
0.596843
0.692831
0.495542
0.695678
0.681102
0.50274
0.704369
0.336711
0.499316
0.705676
0.654671
0.698278
0.349465
0.692331
0.5977
0.534769
0.372644
0.70751
0.689781
0.560329
0.470935
0.674046
0.69806
0.336197
0.597717
0.698225
0.5977
0.408238
0.336148
0.492739
0.597734
0.496647
0.691063
0.612844
0.689296
0.597706
0.69013
0.348959
0.704222
0.5977
0.698223
0.598091
0.503419
0.373119
0.480806
0.662809
0.691132
0.567148
0.597731
0.559372
0.601485
0.69367
0.465799
0.600073
0.690782
0.597701
0.378393
0.384406
0.555393
0.693055
0.698852
0.5977
0.591059
0.690108
0.336206
0.597701
0.610748
0.688447
0.381928
0.5977
0.507105
0.693849
0.489641
0.689537
0.705972
0.469251
0.693041
0.597616
0.559218
0.597835
0.55769
0.700079
0.589952
0.689266
0.689409
0.691665
0.689544
0.579565
0.594424
0.428056
0.689446
0.477087
0.341483
0.489475
0.493866
0.336121
0.377578
0.698625
0.555819
0.437845
0.598393
0.693481
0.690371
0.592512
0.608668
0.600068
0.689274
0.515241
0.597847
0.690131
0.533352
0.481328
0.347741
0.597702
0.588582
0.336417
0.59772
0.488413
0.651952
0.587008
0.406689
0.581952
0.597716
0.55769
0.689815
0.468299
0.597699
0.559536
0.70539
0.566436
0.599109
0.608954
0.698066
0.597405
0.339646
0.706478
0.698434
0.485866
0.500849
0.689382
0.340403
0.643594
0.371889
0.59751
0.479213
0.689891
0.504527
0.698607
0.342552
0.694578
0.690507
0.695586
0.579066
0.426547
0.49144
0.592222
0.707519
0.620579
0.704571
0.597705
0.504088
0.684253
0.563078
0.70659
0.632018
0.592895
0.532798
0.686363
0.689615
0.483645
0.679778
0.706627
0.691108
0.679676
0.471674
0.597701
0.336964
0.692841
0.50027
0.688811
0.707297
0.707918
0.698772
0.534347
0.697148
0.337494
0.373956
0.689751
0.59996
0.597684
0.689325
0.589503
0.336276
0.634623
0.705621
0.700917
0.500699
0.580179
0.601792
0.371538
0.692433
0.700204
0.693773
0.704634
0.534026
0.594977
0.597704
0.474715
0.703343
0.698146
0.596308
0.706367
0.529322
0.65141
0.638413
0.597839
0.706692
0.384506
0.504707
0.689576
0.692503
0.494838
0.551926
0.494802
0.487838
0.436697
0.500103
0.533053
0.33615
0.689543
0.475908
0.408998
0.671798
0.597687
0.558851
0.569004
0.337472
0.689577
0.594474
0.597697
0.697749
0.563533
0.597704
0.687569
0.5977
0.686926
0.469027
0.690605
0.689006
0.416953
0.342933
0.592409
0.678416
0.5977
0.698523
0.689377
0.688446
0.686625
0.586596
0.691517
0.689111
0.707654
0.337216
0.690184
0.603031
0.58436
0.578057
0.415502
0.479525
0.438391
0.5977
0.598157
0.675255
0.34394
0.563818
0.698365
0.498738
0.68836
0.689428
0.693268
0.597812
0.689939
0.528208
0.483012
0.478919
0.5977
0.49624
0.689579
0.479508
0.689442
0.689368
0.690675
0.54636
0.59352
0.587102
0.690302
0.457539
0.34989
0.701526
0.688012
0.597973
0.689384
0.707649
0.64251
0.33608
0.5977
0.696339
0.594519
0.689919
0.688437
0.666177
0.572948
0.566241
0.70092
0.586179
0.59771
0.337312
0.663411
0.695205
0.591109
0.496865
0.675295
0.59613
0.695083
0.687544
0.336281
0.348478
0.665065
0.597506
0.593527
0.697051
0.707477
0.510466
0.691223
0.667962
0.695879
0.336087
0.5977
0.336099
0.698315
0.696863
0.646244
0.667238
0.672938
0.537475
0.564666
0.682351
0.342185
0.5977
0.524615
0.690359
0.456748
0.597791
0.695818
0.661702
0.336105
0.55772
0.630777
0.354007
0.657821
0.493493
0.700813
0.336139
0.383082
0.466441
0.650364
0.690241
0.547352
0.539042
0.706997
0.698393
0.585889
0.605276
0.336129
0.59769
0.338732
0.681108
0.348767
0.59893
0.704237
0.530174
0.597462
0.379267
0.688117
0.428019
0.351304