# vtk DataFile Version 1.0
unstructured grid
ascii
DATASET UNSTRUCTURED_GRID
points 13672 float
0.0796578 -0.059106 0
0.00128732 0.00159165 0
0.00227961 -0.00102548 0
0.0791586 -0.0598787 0
-0.0546216 0.01 0
0.000495206 0.025 0
0.0800549 -0.035 0
0.135172 -0.08 0
-0.0546216 -0.0451168 0
0.000495206 -0.0301168 0
0.0800549 -0.0901168 0
0.135172 -0.135117 0
-0.0546216 -0.0451168 -0.00551168
0.000495206 -0.0301168 -0.00551168
0.0800549 -0.0901168 -0.00551168
0.135172 -0.135117 -0.00551168
0.135172 -0.08 -0.00551168
0.0800549 -0.035 -0.00551168
0.000495206 0.025 -0.00551168
-0.0546216 0.01 -0.00551168
0.00128732 0.00159165 -0.00551168
0.00227961 -0.00102548 -0.00551168
0.0791586 -0.0598787 -0.00551168
0.0796578 -0.059106 -0.00551168
0.00165953 -0.000990923 0
0.00119576 -0.000874076 0
0.000866021 -0.000641801 0
0.000645147 -0.000349912 0
0.00052235 -1.7281e-05 0
0.00049972 0.000348016 0
0.000601632 0.000737716 0
0.000861774 0.0011403 0
0.00157235 0.00183217 0
0.00188647 0.00206725 0
0.00222612 0.00230203 0
0.00258713 0.00254351 0
0.00296826 0.00279524 0
0.00337118 0.00305664 0
0.00379785 0.00332658 0
0.00425045 0.00360349 0
0.00473139 0.00388521 0
0.0052432 0.00416895 0
0.0057881 0.00445204 0
0.00636753 0.00473281 0
0.00698281 0.00500961 0
0.00763526 0.00528058 0
0.00832616 0.00554366 0
0.00905691 0.00579603 0
0.00982918 0.00603333 0
0.0106445 0.00625033 0
0.0115038 0.00644128 0
0.0124073 0.00660297 0
0.0133543 0.00673414 0
0.0143444 0.00683382 0
0.0153769 0.00690031 0
0.0164512 0.00693173 0
0.0175666 0.00692547 0
0.0187219 0.00687822 0
0.0199156 0.00678477 0
0.0211454 0.00663864 0
0.0224084 0.00643275 0
0.0237018 0.00616676 0
0.0250249 0.00584739 0
0.026375 0.00547298 0
0.0277479 0.00503752 0
0.0291386 0.00453545 0
0.0305433 0.0039653 0
0.0319572 0.0033256 0
0.0333681 0.00260019 0
0.034775 0.00179799 0
0.0361793 0.000930615 0
0.0375798 3.12222e-06 0
0.0389689 -0.000988429 0
0.0403357 -0.00205109 0
0.041675 -0.00318283 0
0.0429849 -0.00437751 0
0.0442643 -0.00562904 0
0.0455126 -0.00693089 0
0.0467314 -0.00827518 0
0.0479204 -0.00965638 0
0.0490661 -0.0110799 0
0.0501515 -0.0125519 0
0.0511696 -0.0140695 0
0.0521492 -0.0156071 0
0.0531202 -0.0171411 0
0.0540851 -0.0186663 0
0.0550431 -0.0201798 0
0.0559923 -0.0216793 0
0.0569311 -0.0231626 0
0.0578582 -0.0246273 0
0.0587723 -0.0260715 0
0.0596721 -0.027493 0
0.0605563 -0.02889 0
0.0614241 -0.0302609 0
0.0622742 -0.0316042 0
0.063106 -0.0329183 0
0.0639186 -0.034202 0
0.0647113 -0.0354543 0
0.0654835 -0.0366743 0
0.0662345 -0.0378613 0
0.0669642 -0.0390145 0
0.0676726 -0.0401333 0
0.0683597 -0.0412172 0
0.0690246 -0.0422665 0
0.0696662 -0.0432819 0
0.0702841 -0.0442636 0
0.0708793 -0.0452111 0
0.0714538 -0.0461237 0
0.072009 -0.047001 0
0.0725452 -0.0478434 0
0.0730611 -0.0486524 0
0.073556 -0.0494294 0
0.0740291 -0.0501756 0
0.0744812 -0.0508916 0
0.0749138 -0.0515773 0
0.0753285 -0.0522331 0
0.0757266 -0.0528592 0
0.076109 -0.0534564 0
0.0764753 -0.0540264 0
0.0768243 -0.054571 0
0.0771553 -0.0550919 0
0.0774679 -0.0555901 0
0.0777617 -0.0560669 0
0.0780369 -0.056523 0
0.0782958 -0.0569578 0
0.0785421 -0.0573703 0
0.0787786 -0.0577603 0
0.0790073 -0.0581279 0
0.0792295 -0.058474 0
0.0794462 -0.0587995 0
0.0798803 -0.0594162 0
0.0800272 -0.0596588 0
0.0800357 -0.0598891 0
0.0799275 -0.0600784 0
0.0797205 -0.0601773 0
0.0794593 -0.0601051 0
0.0789155 -0.0596491 0
0.0786707 -0.0593963 0
0.0784111 -0.0591319 0
0.0781372 -0.0588542 0
0.0778566 -0.0585548 0
0.0775715 -0.0582308 0
0.0772803 -0.0578828 0
0.0769832 -0.0575099 0
0.0766822 -0.0571097 0
0.0763801 -0.0566796 0
0.0760759 -0.0562196 0
0.0757623 -0.0557337 0
0.0754359 -0.0552232 0
0.0750951 -0.0546879 0
0.0747379 -0.054128 0
0.0743626 -0.0535435 0
0.0739688 -0.0529338 0
0.0735559 -0.0522981 0
0.0731238 -0.0516357 0
0.0726718 -0.050946 0
0.0721991 -0.0502288 0
0.0717046 -0.049484 0
0.0711872 -0.0487117 0
0.0706461 -0.047912 0
0.0700804 -0.0470849 0
0.0694892 -0.0462308 0
0.0688718 -0.0453499 0
0.0682271 -0.0444431 0
0.0675544 -0.043511 0
0.0668527 -0.0425546 0
0.0661215 -0.0415748 0
0.06536 -0.040573 0
0.0645676 -0.0395504 0
0.0637439 -0.0385087 0
0.0628887 -0.0374493 0
0.062002 -0.0363741 0
0.0610838 -0.0352847 0
0.0601345 -0.0341831 0
0.0591547 -0.033071 0
0.0581456 -0.0319502 0
0.0571083 -0.0308224 0
0.0560444 -0.0296893 0
0.0549562 -0.028552 0
0.053845 -0.0274126 0
0.0527113 -0.0262746 0
0.051554 -0.0251427 0
0.0503724 -0.0240222 0
0.0491675 -0.0229164 0
0.047941 -0.0218282 0
0.0466955 -0.0207597 0
0.0454337 -0.0197126 0
0.0441592 -0.0186878 0
0.0428751 -0.0176863 0
0.0415841 -0.0167097 0
0.0402878 -0.0157609 0
0.0389879 -0.0148428 0
0.0376864 -0.0139575 0
0.0363853 -0.013107 0
0.0350871 -0.0122931 0
0.0337942 -0.0115164 0
0.0325095 -0.0107772 0
0.0312357 -0.0100756 0
0.0299758 -0.00941024 0
0.0287337 -0.00877784 0
0.0275126 -0.00817571 0
0.0263139 -0.00760375 0
0.0251376 -0.00706528 0
0.0239829 -0.0065649 0
0.0228537 -0.00609619 0
0.0217522 -0.00565563 0
0.0206795 -0.00524226 0
0.0196364 -0.00485507 0
0.0186233 -0.00449318 0
0.0176408 -0.00415577 0
0.016689 -0.00384204 0
0.0157682 -0.00355115 0
0.0148783 -0.00328218 0
0.0140192 -0.00303468 0
0.0131906 -0.00280795 0
0.0123925 -0.00260016 0
0.0116246 -0.00241012 0
0.0108864 -0.00223769 0
0.0101774 -0.00208212 0
0.00949701 -0.00194206 0
0.00884483 -0.0018163 0
0.0082202 -0.0017039 0
0.00762247 -0.00160391 0
0.00705097 -0.00151528 0
0.006505 -0.00143697 0
0.0059838 -0.00136806 0
0.00548662 -0.00130772 0
0.00501265 -0.00125519 0
0.00456114 -0.00120954 0
0.00413136 -0.00116914 0
0.00372257 -0.00113251 0
0.00333398 -0.00109853 0
0.00296466 -0.00106798 0
0.00261363 -0.0010431 0
-0.052721 -0.0445996 0
-0.0508204 -0.0440823 0
-0.0489199 -0.0435651 0
-0.0470193 -0.0430478 0
-0.0451187 -0.0425306 0
-0.0432181 -0.0420134 0
-0.0413175 -0.0414961 0
-0.039417 -0.0409789 0
-0.0375164 -0.0404616 0
-0.0356158 -0.0399444 0
-0.0337152 -0.0394271 0
-0.0318146 -0.0389099 0
-0.0299141 -0.0383927 0
-0.0280135 -0.0378754 0
-0.0261129 -0.0373582 0
-0.0242123 -0.0368409 0
-0.0223117 -0.0363237 0
-0.0204112 -0.0358065 0
-0.0185106 -0.0352892 0
-0.01661 -0.034772 0
-0.0147094 -0.0342547 0
-0.0128088 -0.0337375 0
-0.0109083 -0.0332202 0
-0.00900769 -0.032703 0
-0.00710711 -0.0321858 0
-0.00520653 -0.0316685 0
-0.00330595 -0.0311513 0
-0.00140537 -0.030634 0
0.00190689 -0.0299614 0
0.00332271 -0.0298498 0
0.00474133 -0.0297825 0
0.00616136 -0.0297597 0
0.0075814 -0.0297814 0
0.00900007 -0.0298477 0
0.010416 -0.0299583 0
0.0118278 -0.0301127 0
0.0132342 -0.0303103 0
0.0146339 -0.0305504 0
0.0160259 -0.0308322 0
0.0174091 -0.0311546 0
0.0187824 -0.0315166 0
0.020145 -0.031917 0
0.0214961 -0.0323546 0
0.0228351 -0.032828 0
0.0241613 -0.0333361 0
0.0254744 -0.0338774 0
0.0267738 -0.0344507 0
0.0280592 -0.0350545 0
0.0293306 -0.0356877 0
0.0305875 -0.0363488 0
0.0318301 -0.0370367 0
0.0330581 -0.0377501 0
0.0342717 -0.0384879 0
0.0354708 -0.0392489 0
0.0366556 -0.0400321 0
0.0378262 -0.0408363 0
0.0389828 -0.0416607 0
0.0401254 -0.0425042 0
0.0412543 -0.0433659 0
0.0423698 -0.0442451 0
0.043472 -0.0451408 0
0.0445612 -0.0460523 0
0.0456375 -0.0469789 0
0.0467013 -0.0479199 0
0.0477529 -0.0488746 0
0.0487923 -0.0498424 0
0.04982 -0.0508227 0
0.0508362 -0.051815 0
0.051841 -0.0528187 0
0.0528348 -0.0538333 0
0.0538178 -0.0548584 0
0.0547903 -0.0558935 0
0.0557524 -0.0569382 0
0.0567045 -0.0579922 0
0.0576467 -0.0590549 0
0.0585792 -0.0601261 0
0.0595024 -0.0612055 0
0.0604163 -0.0622926 0
0.0613212 -0.0633873 0
0.0622174 -0.0644891 0
0.0631049 -0.0655979 0
0.0639841 -0.0667134 0
0.064855 -0.0678353 0
0.0657179 -0.0689633 0
0.0665729 -0.0700974 0
0.0674202 -0.0712372 0
0.06826 -0.0723826 0
0.0690925 -0.0735333 0
0.0699178 -0.0746892 0
0.070736 -0.0758501 0
0.0715473 -0.0770159 0
0.0723518 -0.0781863 0
0.0731498 -0.0793612 0
0.0739412 -0.0805405 0
0.0747264 -0.081724 0
0.0755053 -0.0829116 0
0.0762781 -0.0841033 0
0.0770449 -0.0852987 0
0.0778059 -0.0864979 0
0.0785611 -0.0877007 0
0.0793108 -0.088907 0
0.0814681 -0.0912706 0
0.0828814 -0.0924245 0
0.0842946 -0.0935783 0
0.0857079 -0.0947322 0
0.0871211 -0.095886 0
0.0885344 -0.0970399 0
0.0899476 -0.0981937 0
0.0913609 -0.0993476 0
0.0927741 -0.100501 0
0.0941874 -0.101655 0
0.0956006 -0.102809 0
0.0970139 -0.103963 0
0.0984272 -0.105117 0
0.0998404 -0.106271 0
0.101254 -0.107424 0
0.102667 -0.108578 0
0.10408 -0.109732 0
0.105493 -0.110886 0
0.106907 -0.11204 0
0.10832 -0.113194 0
0.109733 -0.114348 0
0.111146 -0.115501 0
0.11256 -0.116655 0
0.113973 -0.117809 0
0.115386 -0.118963 0
0.116799 -0.120117 0
0.118213 -0.121271 0
0.119626 -0.122424 0
0.121039 -0.123578 0
0.122452 -0.124732 0
0.123866 -0.125886 0
0.125279 -0.12704 0
0.126692 -0.128194 0
0.128105 -0.129348 0
0.129519 -0.130501 0
0.130932 -0.131655 0
0.132345 -0.132809 0
0.133758 -0.133963 0
0.135172 -0.133216 0
0.135172 -0.131316 0
0.135172 -0.129415 0
0.135172 -0.127514 0
0.135172 -0.125614 0
0.135172 -0.123713 0
0.135172 -0.121813 0
0.135172 -0.119912 0
0.135172 -0.118012 0
0.135172 -0.116111 0
0.135172 -0.11421 0
0.135172 -0.11231 0
0.135172 -0.110409 0
0.135172 -0.108509 0
0.135172 -0.106608 0
0.135172 -0.104708 0
0.135172 -0.102807 0
0.135172 -0.100906 0
0.135172 -0.0990058 0
0.135172 -0.0971052 0
0.135172 -0.0952046 0
0.135172 -0.0933041 0
0.135172 -0.0914035 0
0.135172 -0.0895029 0
0.135172 -0.0876023 0
0.135172 -0.0857017 0
0.135172 -0.0838012 0
0.135172 -0.0819006 0
0.133758 -0.0788462 0
0.132345 -0.0776923 0
0.130932 -0.0765385 0
0.129519 -0.0753846 0
0.128105 -0.0742308 0
0.126692 -0.0730769 0
0.125279 -0.0719231 0
0.123866 -0.0707692 0
0.122452 -0.0696154 0
0.121039 -0.0684615 0
0.119626 -0.0673077 0
0.118213 -0.0661538 0
0.116799 -0.065 0
0.115386 -0.0638462 0
0.113973 -0.0626923 0
0.11256 -0.0615385 0
0.111146 -0.0603846 0
0.109733 -0.0592308 0
0.10832 -0.0580769 0
0.106907 -0.0569231 0
0.105493 -0.0557692 0
0.10408 -0.0546154 0
0.102667 -0.0534615 0
0.101254 -0.0523077 0
0.0998404 -0.0511538 0
0.0984272 -0.05 0
0.0970139 -0.0488462 0
0.0956006 -0.0476923 0
[...]
CELL_DATA 13116
SCALARS rho float
LOOKUP_TABLE default
0.427465
0.514907
0.292749
0.556153
0.546843
0.53395
0.320138
0.549746
0.410736
0.550664
0.318804
0.2954
0.547085
0.329405
0.317972
0.534005
0.402366
0.543317
0.531859
0.327677
0.431528
0.325589
0.326513
0.544821
0.474655
0.494742
0.550699
0.328299
0.473711
0.503524
0.533483
0.325411
0.432869
0.349463
0.318511
0.429594
0.518276
0.526988
0.533835
0.534159
0.533128
0.552553
0.331385
0.289861
0.530676
0.531704
0.496735
0.534423
0.321261
0.407801
0.545739
0.344773
0.321664
0.396719
0.431777
0.455938
0.292706
0.542058
0.418207
0.317754
0.329996
0.551931
0.507255
0.533815
0.53357
0.333213
0.535756
0.523716
0.536571
0.533596
0.32073
0.457358
0.322055
0.32514
0.533399
0.305298
0.501242
0.542771
0.320958
0.540882
0.528804
0.499271
0.544883
0.534064
0.523071
0.351428
0.326382
0.521564
0.518858
0.323674
0.310031
0.516335
0.546923
0.523272
0.505895
0.466185
0.476678
0.53357
0.533409
0.466481
0.529324
0.458136
0.532694
0.313844
0.482696
0.333529
0.281281
0.368564
0.328773
0.48177
0.391164
0.494077
0.46472
0.531655
0.541375
0.535923
0.328899
0.302973
0.540013
0.536969
0.524046
0.320161
0.536881
0.336065
0.518306
0.342555
0.326833
0.397734
0.322619
0.409092
0.540245
0.533807
0.392721
0.326634
0.377143
0.455059
0.533364
0.538888
0.52861
0.536747
0.488079
0.499486
0.396474
0.488772
0.503103
0.325082
0.319046
0.492479
0.544885
0.542534
0.424631
0.533608
0.534385
0.311645
0.547858
0.524233
0.325753
0.533805
0.533573
0.52182
0.544104
0.318814
0.543556
0.326004
0.316327
0.550345
0.515962
0.542935
0.3188
0.363382
0.330052
0.533325
0.319752
0.384465
0.535196
0.327552
0.321815
0.323217
0.490752
0.533655
0.305226
0.337588
0.407285
0.518637
0.533687
0.416356
0.298277
0.532951
0.472669
0.360314
0.495987
0.490691
0.533581
0.329164
0.486422
0.533965
0.548101
0.532591
0.517762
0.317728
0.313478
0.485844
0.393574
0.328353
0.540734
0.530179
0.351662
0.474324
0.327394
0.323906
0.302762
0.534804
0.325091
0.325827
0.323357
0.310933
0.286221
0.533403
0.515616
0.341081
0.292281
0.535596
0.386278
0.306159
0.434228
0.551152
0.501154
0.332076
0.535333
0.306622
0.556296
0.314691
0.533553
0.449433
0.53355
0.528439
0.533601
0.315534
0.336692
0.521795
0.533448
0.533883
0.533379
0.533426
0.544236
0.323444
0.541888
0.548527
0.533396
0.322347
0.322782
0.531516
0.539528
0.533526
0.536472
0.416358
0.53404
0.318385
0.328855
0.309667
0.328018
0.468651
0.54792
0.500204
0.322932
0.529413
0.318903
0.339098
0.484463
0.320332
0.495846
0.54879
0.533402
0.541796
0.315989
0.533393
0.532963
0.533398
0.538757
0.318557
0.328042
0.327866
0.451192
0.320009
0.326612
0.260574
0.247739
0.522025
0.322717
0.523328
0.547591
0.302541
0.31934
0.319502
0.354317
0.289627
0.520459
0.456693
0.488928
0.320481
0.534526
0.459562
0.32903
0.318254
0.533719
0.539499
0.532696
0.297022
0.534016
0.323002
0.533245
0.552382
0.541159
0.551486
0.330103
0.535334
0.326315
0.533612
0.551436
0.522461
0.322704
0.26033
0.549002
0.331255
0.508596
0.55186
0.285778
0.536239
0.544636
0.326533
0.52922
0.546836
0.321599
0.541481
0.352757
0.449993
0.533291
0.358001
0.534054
0.323892
0.54305
0.269755
0.533424
0.45183
0.549057
0.33218
0.280074
0.524179
0.315136
0.540071
0.477849
0.329631
0.533369
0.306328
0.317627
0.538168
0.434418
0.522473
0.328229
0.325472
0.541756
0.547401
0.31897
0.546501
0.332295
0.332337
0.535556
0.536917
0.357637
0.322257
0.538842
0.533564
0.534068
0.528164
0.541531
0.424763
0.257903
0.32536
0.30222
0.534056
0.302974
0.405635
0.289606
0.318133
0.275374
0.365513
0.110388
0.315879
0.524908
0.25997
0.544175
0.473372
0.533083
0.515133
0.542427
0.317699
0.327251
0.322437
0.265173
0.537926
0.461408
0.53295
0.473855
0.504442
0.483144
0.497704
0.484818
0.501275
0.540444
0.540459
0.533846
0.314391
0.358011
0.424254
0.323745
0.453658
0.454602
0.323452
0.5357
0.533437
0.330692
0.325241
0.324504
0.300879
0.493537
0.321406
0.329133
0.535066
0.326385
0.44912
0.324949
0.533571
0.52852
0.286911
0.326989
0.537742
0.355531
0.324608
0.298943
0.320217
0.328588
0.328513
0.325581
0.325838
0.338909
0.320237
0.455347
0.307514
0.522396
0.297822
0.357509
0.394996
0.332575
0.323292
0.329391
0.531828
0.343407
0.501125
0.370525
0.330545
0.476321
0.520734
0.3508
0.535882
0.484068
0.482914
0.327801
0.533549
0.30467
0.542337
0.533469
0.326116
0.325301
0.471394
0.267567
0.359191
0.454256
0.280481
0.533046
0.505445
0.303295
0.319146
0.319723
0.380984
0.316973
0.322306
0.319687
0.326753
0.55301
0.553553
0.359434
0.468967
0.37651
0.486195
0.275495
0.320715
0.414293
0.326382
0.533503
0.231058
0.291366
0.389455
0.530118
0.512152
0.439375
0.284406
0.32521
0.446671
0.549874
0.533702
0.443727
0.486304
0.467619
0.322385
0.527709
0.445904
0.520881
0.243274
0.292179
0.530875
0.54834
0.514279
0.551411
0.513604
0.494731
0.543168
0.521243
0.533043
0.312791
0.529901
0.266585
0.326617
0.326048
0.555047
0.530629
0.242718
0.522343
0.486909
0.323001
0.533521
0.538971
0.537618
0.327907
0.320612
0.541374
0.324597
0.307844
0.310676
0.323188
0.531598
0.323156
0.555043
0.308013
0.515424
0.544722
0.535818
0.547531
0.32413
0.303854
0.531959
0.5572
0.510472
0.552732
0.548309
0.39104
0.326112
0.328463
0.534176
0.412451
0.324095
0.355322
0.314611
0.532199
0.53337
0.243292
0.325523
0.520692
0.365793
0.525533
0.516399
0.321067
0.307314
0.507152
0.533461
0.326998
0.511224
0.515654
0.531409
0.312861
0.533336
0.301665
0.533534
0.519891
0.32073
0.285589
0.326203
0.533483
0.324683
0.320038
0.303385
0.533532
0.53595
0.320958
0.324678
0.324036
0.533654
0.321972
0.533866
0.32526
0.460408
0.551188
0.300288
0.326112
0.325927
0.391404
0.330916
0.503449
0.296424
0.321804
0.533532
0.321173
0.53465
0.505463
0.533548
0.302118
0.53407
0.545902
0.54781
0.534282
0.519353
0.535401
0.323013
0.533688
0.342914
0.529028
0.319018
0.544953
0.39471
0.319451
0.533459
0.543308
0.319664
0.487265
0.308601
0.31995
0.535011
0.531538
0.30365
0.323501
0.321434
0.330362
0.5295
0.544972
0.314021
0.299631
0.540038
0.538713
0.461858
0.545452
0.533442
0.319318
0.549151
0.334842
0.5456
0.303845
0.464589
0.378886
0.535174
0.523455
0.452685
0.268389
0.331157
0.532361
0.474176
0.401438
0.54504
0.328028
0.531489
0.547516
0.287095
0.35603
0.546303
0.283865
0.533463
0.522574
0.256803
0.53773
0.504484
0.30597
0.534916
0.327455
0.516473
0.29877
0.534698
0.505767
0.333713
0.533816
0.543963
0.542016
0.487869
0.529009
0.457922
0.319102
0.32508
0.297362
0.327641
0.53329
0.436612
0.537493
0.544367
0.306907
0.321557
0.532231
0.551895
0.53812
0.548835
0.321812
0.540611
0.54843
0.326886
0.308465
0.540165
0.531475
0.519815
0.324504
0.464202
0.298804
0.534185
0.503757
0.533703
0.521147
0.324141
0.528592
0.523226
0.546086
0.530575
0.53348
0.339514
0.541231
0.323877
0.485639
0.549569
0.363049
0.506653
0.533723
0.544297
0.313375
0.314792
0.458828
0.509015
0.326315
0.324208
0.31653
0.320247
0.516892
0.531128
0.533419
0.247165
0.319581
0.536418
0.532716
0.32255
0.322609
0.364432
0.517338
0.532662
0.527614
0.538507
0.323769
0.327162
0.53335
0.333714
0.319155
0.299129
0.533037
0.308309
0.32361
0.449894
0.53056
0.490807
0.533922
0.533024
0.33085
0.31986
0.316956
0.369989
0.343011
0.313672
0.522547
0.538117
0.51639
0.534147
0.333741
0.299825
0.551168
0.327164
0.533441
0.505349
0.533587
0.303642
0.318352
0.511864
0.533409
0.436631
0.32136
0.524821
0.533967
0.446442
0.542679
0.54819
0.533368
0.486526
0.32234
0.533114
0.533413
0.479036
0.534468
0.533337
0.495358
0.533455
0.538172
0.322167
0.317119
0.302168
0.533599
0.393582
0.328061
0.532083
0.540486
0.290272
0.493345
0.283592
0.497382
0.364464
0.316997
0.552154
0.544481
0.325026
0.433276
0.533578
0.325335
0.523537
0.332121
0.333656
0.47985
0.474902
0.394906
0.532578
0.316139
0.543438
0.320513
0.317759
0.534601
0.323759
0.469902
0.317386
0.492632
0.465808
0.533442
0.514145
0.323074
0.321328
0.473994
0.333063
0.537839
0.357267
0.460386
0.533765
0.54589
0.344307
0.479613
0.489469
0.548369
0.536299
0.272512
0.318995
0.425189
0.48778
0.548817
0.294478
0.532614
0.438134
0.322062
0.308067
0.523719
0.518039
0.533415
0.533455
0.458505
0.532255
0.53369
0.524146
0.31747
0.514531
0.362384
0.538441
0.530978
0.241191
0.498625
0.545686
0.317715
0.318588
0.328565
0.533342
0.319265
0.479728
0.538579
0.515743
0.302987
0.52454
0.328594
0.463763
0.533779
0.533417
0.521184
0.53363
0.48316
0.527781
0.408659
0.528605
0.29709
0.533252
0.535709
0.317466
0.533476
0.532261
0.326746
0.324563
0.323283
0.541556
0.323538
0.533373
0.313495
0.549037
0.325201
0.37935
0.322478
0.541871
0.548176
0.414736
0.213441
0.48306
0.533415
0.31722
0.461049
0.553903
0.314884
0.458049
0.533403
0.550867
0.533581
0.324529
0.36644
0.539215
0.532363
0.486872
0.324763
0.312176
0.526474
0.53338
0.533455
0.533396
0.426935
0.534163
0.423228
0.536527
0.324428
0.327997
0.533405
0.545906
0.533554
0.331138
0.533184
0.432981
0.466473
0.304471
0.328253
0.546813
0.557992
0.435268
0.263357
0.53361
0.533492
0.319144
0.476839
0.538321
0.318796
0.354357
0.324294
0.472051
0.324827
0.311335
0.528373
0.363399
0.549056
0.498145
0.319482
0.327502
0.551741
0.315974
0.321965
0.53341
0.330075
0.276428
0.461037
0.515603
0.534143
0.319416
0.254748
0.319376
0.506648
0.332845
0.534711
0.318886
0.532805
0.487892
0.529745
0.491651
0.527479
0.501997
0.532804
0.547187
0.536985
0.322401
0.321413
0.521388
0.533757
0.399811
0.481668
0.436217
0.533724
0.477667
0.286804
0.536324
0.553083
0.527195
0.322668
0.529275
0.302338
0.534016
0.393644
0.54119
0.534265
0.316826
0.537842
0.325008
0.333461
0.508266
0.298096
0.533492
0.533375
0.53834
0.301646
0.535011
0.321334
0.303886
0.317259
0.322968
0.471106
0.32088
0.491014
0.533707
0.266061
0.329302
0.385774
0.455999
0.492689
0.488421
0.304506
0.333669
0.318923
0.322521
0.212548
0.492234
0.498248
0.326682
0.533409
0.538155
0.324392
0.553026
0.532158
0.533729
0.323305
0.533405
0.527912
0.541465
0.538439
0.316588
0.535182
0.542876
0.529796
0.524415
0.533347
0.325009
0.322217
0.533856
0.423819
0.319584
0.534484
0.327953
0.449513
0.48706
0.514717
0.517903
0.306028
0.48019
0.312052
0.32276
0.536899
0.541603
0.544915
0.5414
0.511743
0.304167
0.548251
0.32176
0.398948
0.549891
0.533421
0.538808
0.322706
0.323657
0.549132
0.323199
0.540872
0.508785
0.337101
0.323238
0.535537
0.319332
0.534205
0.540461
0.509169
0.318926
0.316756
0.395091
0.403305
0.48308
0.369927
0.533415
0.488432
0.524612
0.533286
0.533554
0.323908
0.325036
0.542458
0.533345
0.484259
0.363249
0.328486
0.525339
0.320645
0.53334
0.483412
0.261416
0.537484
0.320646
0.506903
0.29504
0.545654
0.315427
0.533144
0.533648
0.277864
0.520477
0.50856
0.267319
0.533419
0.531755
0.43468
0.332297
0.287002
0.36473
0.546335
0.470527
0.318965
0.460646
0.535542
0.533573
0.295045
0.473794
0.519914
0.365478
0.533398
0.533703
0.235407
0.536733
0.533409
0.292973
0.465384
0.302456
0.495621
0.310634
0.33319
0.547994
0.31766
0.32323
0.323292
0.535427
0.512711
0.3167
0.533502
0.283869
0.516443
0.321365
0.515781
0.290169
0.533802
0.534195
0.502412
0.53354
0.436212
0.533672
0.533703
0.292552
0.499782
0.506689
0.377752
0.533034
0.39045
0.316328
0.547986
0.308592
0.448101
0.279822
0.532874
0.322195
0.329
0.54457
0.533077
0.30437
0.537549
0.538212
0.533323
0.548473
0.533495
0.322315
0.552416
0.32444
0.325394
0.520012
0.53936
0.551859
0.52257
0.313938
0.309909
0.318721
0.516134
0.533667
0.286076
0.524367
0.333733
0.307514
0.305042
0.521267
0.304116
0.549606
0.537305
0.498924
0.530774
0.536362
0.446647
0.496847
0.344559
0.330474
0.304572
0.533488
0.533446
0.331142
0.49175
0.469689
0.498319
0.324804
0.310855
0.491537
0.220648
0.485976
0.462032
0.326386
0.533504
0.51834
0.32808
0.533595
0.321234
0.537298
0.549853
0.527885
0.321763
0.372812
0.532282
0.238861
0.351994
0.5308
0.245607
0.533508
0.536225
0.495447
0.53851
0.260779
0.533495
0.536376
0.532271
0.287872
0.542887
0.322546
0.330654
0.52403
0.53285
0.533508
0.187259
0.534506
0.499513
0.533404
0.334558
0.330188
0.324353
0.540142
0.319203
0.319982
0.305928
0.460304
0.319662
0.242192
0.3509
0.534675
0.326238
0.5335
0.533626
0.533818
0.300766
0.535955
0.512166
0.53341
0.329652
0.522628
0.319317
0.31014
0.534911
0.319384
0.488383
0.534529
0.533431
0.321296
0.260547
0.319897
0.442575
0.533398
0.185339
0.52763
0.535319
0.539457
0.32423
0.322464
0.272632
0.46978
0.325848
0.533358
0.477321
0.53365
0.527334
0.319601
0.488696
0.321607
0.437451
0.510245
0.551724
0.443473
0.373096
0.522366
0.487383
0.54322
0.306282
0.29306
0.313972
0.540722
0.417034
0.53343
0.32534
0.314459
0.54146
0.535722
0.533417
0.318647
0.53444
0.441207
0.443582
0.472646
0.329691
0.32247
0.234246
0.532871
0.533748
0.523206
0.484447
0.271704
0.53913
0.517558
0.533749
0.533406
0.539002
0.552887
0.534032
0.538262
0.544435
0.325279
0.53739
0.542169
0.533235
0.538639
0.532532
0.450221
0.324748
0.333443
0.481955
0.323214
0.263598
0.533746
0.321234
0.501984
0.536077
0.512984
0.52784
0.32683
0.535206
0.314275
0.329473
0.534084
0.533481
0.534276
0.296838
0.545695
0.532685
0.479794
0.532808
0.324211
0.533264
0.549466
0.51863
0.31846
0.542438
0.321644
0.557627
0.301179
0.324848
0.407103
0.354481
0.55203
0.542769
0.533607
0.307175
0.533298
0.3184
0.321132
0.508511
0.388883
0.324341
0.533057
0.321271
0.406734
0.522651
0.49647
0.517196
0.387908
0.470622
0.513849
0.533891
0.448087
0.544904
0.422668
0.55303
0.48111
0.507246
0.332689
0.320812
0.353962
0.541415
0.326183
0.520762
0.537861
0.471554
0.533949
0.405161
0.532724
0.52537
0.324038
0.536943
0.476454
0.381981
0.47933
0.548964
0.504719
0.533534
0.323854
0.322591
0.529672
0.419454
0.424986
0.538692
0.533639
0.533914
0.54839
0.549538
0.485507
0.486234
0.551678
0.320523
0.322095
0.322617
0.297007
0.533453
0.361705
0.42016
0.537208
0.529322
0.325916
0.528675
0.556314
0.295854
0.296141
0.533378
0.538725
0.330758
0.307135
0.312935
0.533315
0.494103
0.321831
0.324053
0.32672
0.331281
0.272627
0.322422
0.554209
0.534355
0.530679
0.308734
0.5139
0.473597
0.481555
0.294165
0.325099
0.506834
0.533407
0.324171
0.533601
0.328083
0.544244
0.326104
0.533231
0.298921
0.517066
0.547548
0.303857
0.444971
0.320393
0.552698
0.330311
0.476685
0.328136
0.397539
0.320248
0.46965
0.317356
0.533522
0.53352
0.479837
0.526592
0.283144
0.516085
0.533402
0.546498
0.47165
0.517205
0.325598
0.305814
0.328843
0.546888
0.230023
0.545395
0.431034
0.539146
0.550819
0.36004
0.541095
0.321418
0.33162
0.31997
0.401225
0.40546
0.533001
0.319478
0.326756
0.534454
0.300845
0.318036
0.431883
0.291551
0.324056
0.33412
0.553547
0.514907
0.48031
0.327067
0.51334
0.533011
0.331405
0.256668
0.523507
0.533186
0.440207
0.409274
0.327022
0.287174
0.312129
0.529958
0.478316
0.410176
0.53508
0.324322
0.446151
0.320347
0.533496
0.545425
0.32622
0.326018
0.483803
0.426382
0.547267
0.544417
0.546684
0.538026
0.549983
0.307889
0.323881
0.310656
0.318533
0.421223
0.533539
0.516304
0.319619
0.300697
0.354617
0.354717
0.533824
0.495557
0.322762
0.243388
0.536052
0.327783
0.512748
0.542933
0.508918
0.533353
0.430839
0.315677
0.301808
0.481635
0.326471
0.329036
0.316072
0.533532
0.532538
0.284439
0.326228
0.533313
0.316245
0.534233
0.546914
0.315187
0.318372
0.325925
0.535739
0.328877
0.533369
0.534982
0.471904
0.302517
0.420175
0.542208
0.525458
0.321994
0.522953
0.483691
0.368812
0.539571
0.556667
0.322168
0.316935
0.510954
0.320782
0.318844
0.519295
0.27465
0.533184
0.533058
0.546279
0.48964
0.545705
0.535935
0.533776
0.31872
0.326386
0.492641
0.531732
0.372599
0.552745
0.256968
0.537922
0.518515
0.447368
0.509051
0.306404
0.361271
0.529385
0.543102
0.478431
0.54782
0.535022
0.53335
0.547611
0.533302
0.521259
0.510622
0.535601
0.533417
0.533777
0.28053
0.501854
0.291573
0.535221
0.53751
0.540115
0.500879
0.538108
0.31719
0.316763
0.242465
0.321781
0.507118
0.313434
0.323254
0.529953
0.324279
0.537723
0.312742
0.519509
0.535561
0.31598
0.303085
0.257327
0.540515
0.324814
0.532384
0.537571
0.319363
0.504589
0.439293
0.272987
0.328973
0.324378
0.538975
0.317028
0.536104
0.402252
0.320844
0.531889
0.533152
0.546653
0.327873
0.451061
0.324724
0.515474
0.533746
0.535866
0.323318
0.530914
0.538805
0.489387
0.320842
0.5404
0.329247
0.321715
0.529564
0.357865
0.549789
0.315537
0.323513
0.352506
0.496335
0.326188
0.231222
0.300206
0.376686
0.533391
0.537056
0.329037
0.468633
0.535115
0.443584
0.33009
0.259325
0.441187
0.328312
0.32066
0.530184
0.322318
0.326824
0.542695
0.554443
0.295702
0.54218
0.309292
0.533365
0.326744
0.509797
0.533646
0.539151
0.533541
0.321969
0.32054
0.320523
0.533828
0.512482
0.468647
0.426736
0.294954
0.240894
0.533384
0.318977
0.533596
0.303902
0.533661
0.524882
0.296232
0.289602
0.323743
0.326454
0.290726
0.482665
0.509227
0.299272
0.536628
0.500039
0.315743
0.32016
0.554363
0.324296
0.535251
0.339526
0.538808
0.513788
0.535871
0.533412
0.322538
0.549569
0.533764
0.555731
0.320205
0.475786
0.473651
0.260735
0.541413
0.499529
0.548727
0.51412
0.55003
0.528383
0.551273
0.533215
0.531957
0.309095
0.545849
0.323967
0.361077
0.530554
0.322403
0.520988
0.475144
0.326155
0.490577
0.317974
0.310799
0.523284
0.467162
0.554017
0.323936
0.513873
0.487378
0.317598
0.305975
0.509281
0.533128
0.29958
0.306606
0.538056
0.553838
0.311565
0.50363
0.548306
0.517158
0.297435
0.329447
0.314866
0.515021
0.313109
0.523552
0.540712
0.533407
0.473692
0.535829
0.324384
0.519294
0.487245
0.54737
0.44094
0.325636
0.318883
0.330844
0.54469
0.538506
0.33742
0.512073
0.250794
0.503868
0.536776
0.328238
0.482735
0.524414
0.488592
0.307142
0.326451
0.290602
0.540128
0.5497
0.485355
0.408836
0.535815
0.324939
0.49772
0.533401
0.531096
0.306971
0.495238
0.326349
0.481202
0.332702
0.530957
0.523307
0.327353
0.539893
0.334924
0.533411
0.500811
0.533344
0.540588
0.32567
0.533407
0.533433
0.533261
0.53171
0.384325
0.533394
0.32495
0.533582
0.328869
0.300493
0.326212
0.289931
0.326938
0.302926
0.550319
0.290829
0.319594
0.515404
0.540276
0.51114
0.322668
0.535133
0.534428
0.533367
0.274249
0.452409
0.535708
0.319378
0.303082
0.319938
0.492989
0.404309
0.313814
0.458404
0.333756
0.533497
0.398834
0.327044
0.375849
0.510194
0.286473
0.533465
0.322897
0.368623
0.29739
0.53247
0.303939
0.510635
0.533394
0.462839
0.328359
0.321776
0.527053
0.552981
0.307022
0.303853
0.533719
0.320489
0.542075
0.310198
0.442755
0.33142
0.535845
0.323312
0.551856
0.30018
0.536588
0.536596
0.543749
0.533473
0.326852
0.32616
0.322318
0.497481
0.529237
0.495053
0.407628
0.327171
0.539942
0.263023
0.510375
0.455691
0.315846
0.325076
0.544033
0.530781
0.326936
0.533519
0.530958
0.543979
0.546289
0.322704
0.499771
0.32522
0.544058
0.31447
0.533498
0.505443
0.513296
0.552327
0.316469
0.557373
0.318397
0.322755
0.534136
0.533483
0.431687
0.530368
0.533439
0.32346
0.543695
0.529565
0.549793
0.304836
0.338067
0.53195
0.315853
0.538266
0.537584
0.523167
0.534861
0.228069
0.353639
0.510048
0.326709
0.518422
0.553471
0.37292
0.520568
0.215656
0.48342
0.543903
0.530753
0.520766
0.32484
0.330275
0.533226
0.521412
0.326046
0.263036
0.322437
0.326199
0.319937
0.333559
0.28743
0.321142
0.532682
0.327221
0.293634
0.53719
0.430119
0.533316
0.313913
0.325504
0.535521
0.36924
0.37396
0.548159
0.293899
0.518742
0.53367
0.481485
0.51758
0.319555
0.537369
0.533772
0.319585
0.320822
0.316418
0.472455
0.480853
0.549893
0.534071
0.531785
0.520492
0.292895
0.538218
0.533778
0.508799
0.324195
0.536241
0.44941
0.287419
0.342739
0.322495
0.321721
0.322995
0.464776
0.523674
0.522425
0.320705
0.308832
0.548233
0.2825
0.537671
0.533431
0.523471
0.530975
0.535523
0.319582
0.323876
0.334056
0.445107
0.318582
0.534552
0.319501
0.534859
0.53351
0.537113
0.298511
0.354562
0.324453
0.536212
0.306191
0.319644
0.533492
0.517334
0.48498
0.533931
0.504899
0.54168
0.321774
0.493557
0.545739
0.421504
0.535179
0.539291
0.542624
0.365513
0.338984
0.550922
0.395777
0.479819
0.323136
0.502914
0.523867
0.318097
0.312421
0.513771
0.402789
0.54363
0.537645
0.317583
0.327538
0.533414
0.29992
0.324694
0.525233
0.510154
0.324796
0.527602
0.533579
0.502451
0.300256
0.465823
0.322869
0.527643
0.545168
0.54156
0.520089
0.53355
0.248785
0.283661
0.530065
0.32033
0.48116
0.32198
0.536443
0.330964
0.507799
0.545368
0.533529
0.322968
0.533355
0.533381
0.320347
0.503485
0.314613
0.554557
0.323279
0.299198
0.315486
0.527032
0.530177
0.256994
0.239063