# vtk DataFile Version 1.0
unstructured grid
ascii
DATASET UNSTRUCTURED_GRID
points 13672 float
0.0796578 -0.059106 0
0.00128732 0.00159165 0
0.00227961 -0.00102548 0
0.0791586 -0.0598787 0
-0.0546216 0.01 0
0.000495206 0.025 0
0.0800549 -0.035 0
0.135172 -0.08 0
-0.0546216 -0.0451168 0
0.000495206 -0.0301168 0
0.0800549 -0.0901168 0
0.135172 -0.135117 0
-0.0546216 -0.0451168 -0.00551168
0.000495206 -0.0301168 -0.00551168
0.0800549 -0.0901168 -0.00551168
0.135172 -0.135117 -0.00551168
0.135172 -0.08 -0.00551168
0.0800549 -0.035 -0.00551168
0.000495206 0.025 -0.00551168
-0.0546216 0.01 -0.00551168
0.00128732 0.00159165 -0.00551168
0.00227961 -0.00102548 -0.00551168
0.0791586 -0.0598787 -0.00551168
0.0796578 -0.059106 -0.00551168
0.00165953 -0.000990923 0
0.00119576 -0.000874076 0
0.000866021 -0.000641801 0
0.000645147 -0.000349912 0
0.00052235 -1.7281e-05 0
0.00049972 0.000348016 0
0.000601632 0.000737716 0
0.000861774 0.0011403 0
0.00157235 0.00183217 0
0.00188647 0.00206725 0
0.00222612 0.00230203 0
0.00258713 0.00254351 0
0.00296826 0.00279524 0
0.00337118 0.00305664 0
0.00379785 0.00332658 0
0.00425045 0.00360349 0
0.00473139 0.00388521 0
0.0052432 0.00416895 0
0.0057881 0.00445204 0
0.00636753 0.00473281 0
0.00698281 0.00500961 0
0.00763526 0.00528058 0
0.00832616 0.00554366 0
0.00905691 0.00579603 0
0.00982918 0.00603333 0
0.0106445 0.00625033 0
0.0115038 0.00644128 0
0.0124073 0.00660297 0
0.0133543 0.00673414 0
0.0143444 0.00683382 0
0.0153769 0.00690031 0
0.0164512 0.00693173 0
0.0175666 0.00692547 0
0.0187219 0.00687822 0
0.0199156 0.00678477 0
0.0211454 0.00663864 0
0.0224084 0.00643275 0
0.0237018 0.00616676 0
0.0250249 0.00584739 0
0.026375 0.00547298 0
0.0277479 0.00503752 0
0.0291386 0.00453545 0
0.0305433 0.0039653 0
0.0319572 0.0033256 0
0.0333681 0.00260019 0
0.034775 0.00179799 0
0.0361793 0.000930615 0
0.0375798 3.12222e-06 0
0.0389689 -0.000988429 0
0.0403357 -0.00205109 0
0.041675 -0.00318283 0
0.0429849 -0.00437751 0
0.0442643 -0.00562904 0
0.0455126 -0.00693089 0
0.0467314 -0.00827518 0
0.0479204 -0.00965638 0
0.0490661 -0.0110799 0
0.0501515 -0.0125519 0
0.0511696 -0.0140695 0
0.0521492 -0.0156071 0
0.0531202 -0.0171411 0
0.0540851 -0.0186663 0
0.0550431 -0.0201798 0
0.0559923 -0.0216793 0
0.0569311 -0.0231626 0
0.0578582 -0.0246273 0
0.0587723 -0.0260715 0
0.0596721 -0.027493 0
0.0605563 -0.02889 0
0.0614241 -0.0302609 0
0.0622742 -0.0316042 0
0.063106 -0.0329183 0
0.0639186 -0.034202 0
0.0647113 -0.0354543 0
0.0654835 -0.0366743 0
0.0662345 -0.0378613 0
0.0669642 -0.0390145 0
0.0676726 -0.0401333 0
0.0683597 -0.0412172 0
0.0690246 -0.0422665 0
0.0696662 -0.0432819 0
0.0702841 -0.0442636 0
0.0708793 -0.0452111 0
0.0714538 -0.0461237 0
0.072009 -0.047001 0
0.0725452 -0.0478434 0
0.0730611 -0.0486524 0
0.073556 -0.0494294 0
0.0740291 -0.0501756 0
0.0744812 -0.0508916 0
0.0749138 -0.0515773 0
0.0753285 -0.0522331 0
0.0757266 -0.0528592 0
0.076109 -0.0534564 0
0.0764753 -0.0540264 0
0.0768243 -0.054571 0
0.0771553 -0.0550919 0
0.0774679 -0.0555901 0
0.0777617 -0.0560669 0
0.0780369 -0.056523 0
0.0782958 -0.0569578 0
0.0785421 -0.0573703 0
0.0787786 -0.0577603 0
0.0790073 -0.0581279 0
0.0792295 -0.058474 0
0.0794462 -0.0587995 0
0.0798803 -0.0594162 0
0.0800272 -0.0596588 0
0.0800357 -0.0598891 0
0.0799275 -0.0600784 0
0.0797205 -0.0601773 0
0.0794593 -0.0601051 0
0.0789155 -0.0596491 0
0.0786707 -0.0593963 0
0.0784111 -0.0591319 0
0.0781372 -0.0588542 0
0.0778566 -0.0585548 0
0.0775715 -0.0582308 0
0.0772803 -0.0578828 0
0.0769832 -0.0575099 0
0.0766822 -0.0571097 0
0.0763801 -0.0566796 0
0.0760759 -0.0562196 0
0.0757623 -0.0557337 0
0.0754359 -0.0552232 0
0.0750951 -0.0546879 0
0.0747379 -0.054128 0
0.0743626 -0.0535435 0
0.0739688 -0.0529338 0
0.0735559 -0.0522981 0
0.0731238 -0.0516357 0
0.0726718 -0.050946 0
0.0721991 -0.0502288 0
0.0717046 -0.049484 0
0.0711872 -0.0487117 0
0.0706461 -0.047912 0
0.0700804 -0.0470849 0
0.0694892 -0.0462308 0
0.0688718 -0.0453499 0
0.0682271 -0.0444431 0
0.0675544 -0.043511 0
0.0668527 -0.0425546 0
0.0661215 -0.0415748 0
0.06536 -0.040573 0
0.0645676 -0.0395504 0
0.0637439 -0.0385087 0
0.0628887 -0.0374493 0
0.062002 -0.0363741 0
0.0610838 -0.0352847 0
0.0601345 -0.0341831 0
0.0591547 -0.033071 0
0.0581456 -0.0319502 0
0.0571083 -0.0308224 0
0.0560444 -0.0296893 0
0.0549562 -0.028552 0
0.053845 -0.0274126 0
0.0527113 -0.0262746 0
0.051554 -0.0251427 0
0.0503724 -0.0240222 0
0.0491675 -0.0229164 0
0.047941 -0.0218282 0
0.0466955 -0.0207597 0
0.0454337 -0.0197126 0
0.0441592 -0.0186878 0
0.0428751 -0.0176863 0
0.0415841 -0.0167097 0
0.0402878 -0.0157609 0
0.0389879 -0.0148428 0
0.0376864 -0.0139575 0
0.0363853 -0.013107 0
0.0350871 -0.0122931 0
0.0337942 -0.0115164 0
0.0325095 -0.0107772 0
0.0312357 -0.0100756 0
0.0299758 -0.00941024 0
0.0287337 -0.00877784 0
0.0275126 -0.00817571 0
0.0263139 -0.00760375 0
0.0251376 -0.00706528 0
0.0239829 -0.0065649 0
0.0228537 -0.00609619 0
0.0217522 -0.00565563 0
0.0206795 -0.00524226 0
0.0196364 -0.00485507 0
0.0186233 -0.00449318 0
0.0176408 -0.00415577 0
0.016689 -0.00384204 0
0.0157682 -0.00355115 0
0.0148783 -0.00328218 0
0.0140192 -0.00303468 0
0.0131906 -0.00280795 0
0.0123925 -0.00260016 0
0.0116246 -0.00241012 0
0.0108864 -0.00223769 0
0.0101774 -0.00208212 0
0.00949701 -0.00194206 0
0.00884483 -0.0018163 0
0.0082202 -0.0017039 0
0.00762247 -0.00160391 0
0.00705097 -0.00151528 0
0.006505 -0.00143697 0
0.0059838 -0.00136806 0
0.00548662 -0.00130772 0
0.00501265 -0.00125519 0
0.00456114 -0.00120954 0
0.00413136 -0.00116914 0
0.00372257 -0.00113251 0
0.00333398 -0.00109853 0
0.00296466 -0.00106798 0
0.00261363 -0.0010431 0
-0.052721 -0.0445996 0
-0.0508204 -0.0440823 0
-0.0489199 -0.0435651 0
-0.0470193 -0.0430478 0
-0.0451187 -0.0425306 0
-0.0432181 -0.0420134 0
-0.0413175 -0.0414961 0
-0.039417 -0.0409789 0
-0.0375164 -0.0404616 0
-0.0356158 -0.0399444 0
-0.0337152 -0.0394271 0
-0.0318146 -0.0389099 0
-0.0299141 -0.0383927 0
-0.0280135 -0.0378754 0
-0.0261129 -0.0373582 0
-0.0242123 -0.0368409 0
-0.0223117 -0.0363237 0
-0.0204112 -0.0358065 0
-0.0185106 -0.0352892 0
-0.01661 -0.034772 0
-0.0147094 -0.0342547 0
-0.0128088 -0.0337375 0
-0.0109083 -0.0332202 0
-0.00900769 -0.032703 0
-0.00710711 -0.0321858 0
-0.00520653 -0.0316685 0
-0.00330595 -0.0311513 0
-0.00140537 -0.030634 0
0.00190689 -0.0299614 0
0.00332271 -0.0298498 0
0.00474133 -0.0297825 0
0.00616136 -0.0297597 0
0.0075814 -0.0297814 0
0.00900007 -0.0298477 0
0.010416 -0.0299583 0
0.0118278 -0.0301127 0
0.0132342 -0.0303103 0
0.0146339 -0.0305504 0
0.0160259 -0.0308322 0
0.0174091 -0.0311546 0
0.0187824 -0.0315166 0
0.020145 -0.031917 0
0.0214961 -0.0323546 0
0.0228351 -0.032828 0
0.0241613 -0.0333361 0
0.0254744 -0.0338774 0
0.0267738 -0.0344507 0
0.0280592 -0.0350545 0
0.0293306 -0.0356877 0
0.0305875 -0.0363488 0
0.0318301 -0.0370367 0
0.0330581 -0.0377501 0
0.0342717 -0.0384879 0
0.0354708 -0.0392489 0
0.0366556 -0.0400321 0
0.0378262 -0.0408363 0
0.0389828 -0.0416607 0
0.0401254 -0.0425042 0
0.0412543 -0.0433659 0
0.0423698 -0.0442451 0
0.043472 -0.0451408 0
0.0445612 -0.0460523 0
0.0456375 -0.0469789 0
0.0467013 -0.0479199 0
0.0477529 -0.0488746 0
0.0487923 -0.0498424 0
0.04982 -0.0508227 0
0.0508362 -0.051815 0
0.051841 -0.0528187 0
0.0528348 -0.0538333 0
0.0538178 -0.0548584 0
0.0547903 -0.0558935 0
0.0557524 -0.0569382 0
0.0567045 -0.0579922 0
0.0576467 -0.0590549 0
0.0585792 -0.0601261 0
0.0595024 -0.0612055 0
0.0604163 -0.0622926 0
0.0613212 -0.0633873 0
0.0622174 -0.0644891 0
0.0631049 -0.0655979 0
0.0639841 -0.0667134 0
0.064855 -0.0678353 0
0.0657179 -0.0689633 0
0.0665729 -0.0700974 0
0.0674202 -0.0712372 0
0.06826 -0.0723826 0
0.0690925 -0.0735333 0
0.0699178 -0.0746892 0
0.070736 -0.0758501 0
0.0715473 -0.0770159 0
0.0723518 -0.0781863 0
0.0731498 -0.0793612 0
0.0739412 -0.0805405 0
0.0747264 -0.081724 0
0.0755053 -0.0829116 0
0.0762781 -0.0841033 0
0.0770449 -0.0852987 0
0.0778059 -0.0864979 0
0.0785611 -0.0877007 0
0.0793108 -0.088907 0
0.0814681 -0.0912706 0
0.0828814 -0.0924245 0
0.0842946 -0.0935783 0
0.0857079 -0.0947322 0
0.0871211 -0.095886 0
0.0885344 -0.0970399 0
0.0899476 -0.0981937 0
0.0913609 -0.0993476 0
0.0927741 -0.100501 0
0.0941874 -0.101655 0
0.0956006 -0.102809 0
0.0970139 -0.103963 0
0.0984272 -0.105117 0
0.0998404 -0.106271 0
0.101254 -0.107424 0
0.102667 -0.108578 0
0.10408 -0.109732 0
0.105493 -0.110886 0
0.106907 -0.11204 0
0.10832 -0.113194 0
0.109733 -0.114348 0
0.111146 -0.115501 0
0.11256 -0.116655 0
0.113973 -0.117809 0
0.115386 -0.118963 0
0.116799 -0.120117 0
0.118213 -0.121271 0
0.119626 -0.122424 0
0.121039 -0.123578 0
0.122452 -0.124732 0
0.123866 -0.125886 0
0.125279 -0.12704 0
0.126692 -0.128194 0
0.128105 -0.129348 0
0.129519 -0.130501 0
0.130932 -0.131655 0
0.132345 -0.132809 0
0.133758 -0.133963 0
0.135172 -0.133216 0
0.135172 -0.131316 0
0.135172 -0.129415 0
0.135172 -0.127514 0
0.135172 -0.125614 0
0.135172 -0.123713 0
0.135172 -0.121813 0
0.135172 -0.119912 0
0.135172 -0.118012 0
0.135172 -0.116111 0
0.135172 -0.11421 0
0.135172 -0.11231 0
0.135172 -0.110409 0
0.135172 -0.108509 0
0.135172 -0.106608 0
0.135172 -0.104708 0
0.135172 -0.102807 0
0.135172 -0.100906 0
0.135172 -0.0990058 0
0.135172 -0.0971052 0
0.135172 -0.0952046 0
0.135172 -0.0933041 0
0.135172 -0.0914035 0
0.135172 -0.0895029 0
0.135172 -0.0876023 0
0.135172 -0.0857017 0
0.135172 -0.0838012 0
0.135172 -0.0819006 0
0.133758 -0.0788462 0
0.132345 -0.0776923 0
0.130932 -0.0765385 0
0.129519 -0.0753846 0
0.128105 -0.0742308 0
0.126692 -0.0730769 0
0.125279 -0.0719231 0
0.123866 -0.0707692 0
0.122452 -0.0696154 0
0.121039 -0.0684615 0
0.119626 -0.0673077 0
0.118213 -0.0661538 0
0.116799 -0.065 0
0.115386 -0.0638462 0
0.113973 -0.0626923 0
0.11256 -0.0615385 0
0.111146 -0.0603846 0
0.109733 -0.0592308 0
0.10832 -0.0580769 0
0.106907 -0.0569231 0
0.105493 -0.0557692 0
0.10408 -0.0546154 0
0.102667 -0.0534615 0
0.101254 -0.0523077 0
0.0998404 -0.0511538 0
0.0984272 -0.05 0
0.0970139 -0.0488462 0
0.0956006 -0.0476923 0
[...]
CELL_DATA 13116
SCALARS rho float
LOOKUP_TABLE default
0.427218
0.514581
0.293305
0.555918
0.546556
0.533967
0.322316
0.549341
0.410418
0.550346
0.321185
0.296813
0.5468
0.330467
0.320175
0.534016
0.402166
0.54289
0.531694
0.328363
0.431256
0.326667
0.328026
0.544412
0.474232
0.493992
0.550379
0.32996
0.473208
0.503107
0.533642
0.329417
0.43251
0.349097
0.321044
0.429337
0.517894
0.52672
0.533911
0.533863
0.533046
0.55216
0.331153
0.291652
0.530476
0.53153
0.496376
0.534245
0.323162
0.407432
0.545448
0.344496
0.322278
0.396534
0.431426
0.455558
0.295593
0.541685
0.417819
0.318964
0.331486
0.551661
0.506919
0.533898
0.533716
0.335334
0.53562
0.523306
0.536409
0.533731
0.322755
0.456899
0.322842
0.327572
0.533597
0.305905
0.50091
0.542508
0.32347
0.540448
0.528433
0.498683
0.544496
0.533848
0.522753
0.350972
0.326332
0.521117
0.518432
0.324332
0.312727
0.516012
0.546539
0.522773
0.505499
0.465822
0.476248
0.533746
0.533593
0.466031
0.528827
0.457806
0.532585
0.313781
0.482283
0.334255
0.280923
0.368315
0.329636
0.481258
0.390917
0.493584
0.464356
0.531268
0.540941
0.535762
0.328863
0.302706
0.539768
0.536759
0.523627
0.321064
0.536711
0.341982
0.517726
0.342195
0.32677
0.397336
0.325336
0.408716
0.540002
0.533512
0.392267
0.328376
0.376693
0.454783
0.533638
0.538677
0.528113
0.536534
0.487762
0.49913
0.396088
0.488454
0.502772
0.326983
0.321612
0.491859
0.544585
0.542216
0.424175
0.533397
0.534215
0.312239
0.547542
0.52392
0.327054
0.533304
0.533746
0.52136
0.5437
0.320943
0.5432
0.327078
0.316998
0.550072
0.515415
0.542509
0.321209
0.362923
0.32966
0.533596
0.321576
0.384088
0.535051
0.329202
0.323075
0.324058
0.490259
0.533681
0.305808
0.337221
0.407042
0.518247
0.533705
0.415979
0.299257
0.532848
0.472201
0.35991
0.495645
0.490079
0.533704
0.330488
0.485878
0.533991
0.547746
0.532471
0.517341
0.317489
0.313445
0.485338
0.393179
0.329965
0.540439
0.529932
0.351385
0.473944
0.327981
0.324218
0.303335
0.534735
0.326267
0.327252
0.323554
0.311537
0.286036
0.533473
0.515022
0.340632
0.294957
0.53547
0.386038
0.306733
0.43373
0.550863
0.500824
0.33313
0.535191
0.306223
0.55573
0.319055
0.533678
0.448969
0.533737
0.528099
0.533715
0.316264
0.336374
0.521323
0.533657
0.533913
0.533641
0.533532
0.543798
0.324696
0.541637
0.548224
0.533577
0.324187
0.324723
0.53129
0.539292
0.533663
0.536232
0.416129
0.533615
0.320741
0.329715
0.309804
0.32858
0.468221
0.547564
0.499871
0.323483
0.529173
0.323973
0.33868
0.484054
0.32087
0.495185
0.548484
0.533625
0.541425
0.316626
0.533619
0.532593
0.533577
0.538548
0.320949
0.32808
0.329265
0.45092
0.320795
0.328396
0.260245
0.249851
0.52172
0.323849
0.522962
0.547317
0.305914
0.321543
0.324509
0.353911
0.290241
0.520016
0.456404
0.488479
0.321015
0.534458
0.459041
0.329826
0.319779
0.533777
0.539265
0.532591
0.298004
0.534035
0.322762
0.532952
0.552024
0.540863
0.551135
0.331437
0.535205
0.32717
0.533563
0.55116
0.521956
0.324414
0.260001
0.548705
0.332992
0.508239
0.551591
0.285513
0.535779
0.544248
0.328082
0.528978
0.546448
0.321941
0.541234
0.352298
0.449479
0.532571
0.357539
0.533556
0.324366
0.542643
0.269406
0.533516
0.45144
0.548703
0.332899
0.279754
0.52387
0.31572
0.539786
0.477373
0.329275
0.533641
0.307069
0.318301
0.537905
0.433936
0.522076
0.328216
0.326612
0.541505
0.547125
0.321524
0.546231
0.332661
0.33302
0.535359
0.53632
0.357478
0.322782
0.53863
0.533714
0.53408
0.527898
0.541201
0.424316
0.258262
0.326111
0.302931
0.534075
0.303678
0.405398
0.289419
0.319142
0.275064
0.365326
0.110248
0.316454
0.524612
0.261114
0.543822
0.472886
0.53294
0.514683
0.542176
0.318373
0.327318
0.322313
0.265786
0.537649
0.461053
0.532842
0.473367
0.504112
0.482762
0.497129
0.484493
0.500863
0.540123
0.540019
0.533884
0.314562
0.357727
0.424009
0.324647
0.453365
0.454231
0.323946
0.535551
0.533655
0.331991
0.326292
0.327521
0.301821
0.493005
0.323817
0.330475
0.534974
0.32948
0.448669
0.327836
0.533567
0.528177
0.289105
0.328614
0.537476
0.355118
0.327717
0.299969
0.320669
0.329395
0.328747
0.326609
0.327166
0.338494
0.322681
0.455008
0.308332
0.522045
0.297418
0.35812
0.394523
0.334079
0.323961
0.331787
0.531572
0.342988
0.500612
0.370307
0.333341
0.47594
0.520322
0.350341
0.535422
0.4837
0.482557
0.328761
0.533733
0.304366
0.541992
0.533633
0.326835
0.326796
0.470932
0.267728
0.358723
0.45386
0.280134
0.532545
0.505114
0.305401
0.320478
0.321731
0.380614
0.318471
0.322814
0.321889
0.327612
0.552739
0.553303
0.359002
0.468512
0.376065
0.485681
0.275395
0.32198
0.413965
0.327016
0.53324
0.230779
0.291031
0.388997
0.529906
0.511605
0.438891
0.284096
0.326767
0.446151
0.54949
0.533822
0.443213
0.485922
0.467196
0.324967
0.527364
0.445446
0.520404
0.243446
0.292654
0.530488
0.547971
0.513827
0.551112
0.513203
0.493902
0.542765
0.520749
0.532909
0.31317
0.529682
0.266243
0.327248
0.327261
0.554839
0.530389
0.242447
0.522015
0.48638
0.324679
0.533617
0.538743
0.537283
0.329714
0.321819
0.541108
0.327613
0.309009
0.31136
0.325784
0.53132
0.323714
0.554852
0.308836
0.515096
0.54444
0.535685
0.547253
0.32719
0.306016
0.531716
0.55662
0.510119
0.552461
0.548002
0.390562
0.327791
0.328994
0.534145
0.412105
0.326939
0.354909
0.315529
0.531675
0.533247
0.243461
0.326618
0.520339
0.365317
0.525247
0.515863
0.324078
0.30692
0.506804
0.533676
0.327907
0.510699
0.515093
0.531167
0.313552
0.533597
0.306221
0.533726
0.519417
0.321575
0.28547
0.327902
0.533669
0.326351
0.322286
0.303117
0.533615
0.535636
0.323403
0.325426
0.326698
0.533744
0.322753
0.533892
0.327134
0.45994
0.550895
0.299899
0.327213
0.327285
0.390924
0.331455
0.50281
0.297283
0.323357
0.533555
0.322827
0.534594
0.505105
0.533732
0.30338
0.533812
0.545542
0.547458
0.534237
0.518535
0.535212
0.32596
0.533815
0.342465
0.528749
0.320861
0.544527
0.394376
0.321761
0.53361
0.542998
0.320522
0.486927
0.310807
0.322033
0.534926
0.531285
0.304685
0.325739
0.323922
0.3331
0.528889
0.544567
0.314698
0.300815
0.539752
0.538497
0.461394
0.545094
0.53334
0.321519
0.548799
0.334446
0.545313
0.303636
0.464201
0.378423
0.535058
0.523057
0.452196
0.268282
0.331922
0.532213
0.473659
0.401238
0.544681
0.328606
0.531137
0.547197
0.286715
0.355746
0.54595
0.283673
0.533604
0.5221
0.256477
0.537482
0.50409
0.306437
0.534593
0.32887
0.516086
0.29936
0.534639
0.505428
0.334262
0.533896
0.543608
0.54174
0.487342
0.52868
0.45741
0.32176
0.324837
0.297798
0.3296
0.533583
0.436115
0.537309
0.544067
0.307686
0.322849
0.53191
0.551604
0.53785
0.548521
0.323364
0.540168
0.54813
0.327792
0.308981
0.539917
0.531255
0.51946
0.325101
0.463674
0.306166
0.533856
0.503386
0.533819
0.520835
0.327134
0.528294
0.522868
0.545698
0.5303
0.533427
0.33906
0.540903
0.324199
0.485309
0.549265
0.362587
0.506323
0.533832
0.544015
0.313204
0.314654
0.458323
0.508558
0.328964
0.324087
0.317104
0.322638
0.516567
0.530775
0.533527
0.249118
0.321938
0.536259
0.532232
0.322663
0.324144
0.363978
0.516977
0.532539
0.527338
0.538126
0.324025
0.329592
0.533603
0.339468
0.321018
0.299823
0.532987
0.31514
0.325856
0.449528
0.530298
0.490329
0.533973
0.532942
0.330979
0.321835
0.317548
0.369798
0.342592
0.316723
0.522142
0.537723
0.516042
0.534049
0.334527
0.301252
0.550866
0.328289
0.533397
0.50501
0.533749
0.304672
0.319144
0.511462
0.533563
0.436383
0.321687
0.524522
0.534008
0.446087
0.542365
0.547847
0.533609
0.486152
0.323872
0.53304
0.533556
0.478729
0.534134
0.533628
0.494874
0.533693
0.537974
0.323768
0.318397
0.303676
0.533751
0.393265
0.32965
0.531767
0.540195
0.291656
0.492992
0.286617
0.497035
0.364256
0.318095
0.551876
0.54407
0.327996
0.432771
0.533728
0.327347
0.523053
0.334074
0.334254
0.479477
0.474457
0.394433
0.532457
0.31672
0.543084
0.321791
0.31833
0.534551
0.326609
0.469528
0.318359
0.492287
0.465414
0.533685
0.513612
0.324085
0.322831
0.47367
0.332833
0.537567
0.356913
0.460036
0.533775
0.5455
0.344054
0.479103
0.488965
0.548016
0.536141
0.272158
0.3199
0.424707
0.487241
0.548462
0.294643
0.532503
0.437886
0.321955
0.309033
0.523211
0.517673
0.533668
0.533647
0.458129
0.531884
0.53376
0.52377
0.318464
0.51406
0.361932
0.538173
0.530755
0.242125
0.4972
0.545408
0.318634
0.31934
0.330846
0.533631
0.32137
0.479347
0.538252
0.515264
0.3055
0.524252
0.330449
0.463239
0.533871
0.533535
0.520781
0.533721
0.482717
0.527412
0.408345
0.528323
0.297704
0.53322
0.53558
0.317276
0.5337
0.531917
0.328017
0.325349
0.325747
0.54126
0.323376
0.5336
0.314162
0.548627
0.326665
0.378886
0.323805
0.541523
0.547879
0.414505
0.213704
0.482627
0.53348
0.317691
0.460592
0.553657
0.319795
0.457661
0.53357
0.550577
0.533529
0.325266
0.366187
0.538939
0.532202
0.486543
0.323958
0.312034
0.526199
0.533642
0.533672
0.533665
0.426658
0.53387
0.422955
0.536272
0.323824
0.329631
0.533669
0.54562
0.533633
0.333369
0.533141
0.432712
0.466153
0.305043
0.327826
0.546541
0.557591
0.434839
0.263294
0.533499
0.533707
0.321434
0.476388
0.537939
0.321175
0.355464
0.325284
0.471532
0.325898
0.311904
0.528115
0.363056
0.548704
0.497786
0.321771
0.328298
0.551461
0.316969
0.324218
0.533564
0.330965
0.276327
0.460644
0.514729
0.533874
0.321769
0.258753
0.321823
0.506293
0.333568
0.534447
0.321263
0.532496
0.486819
0.529523
0.491263
0.527172
0.501623
0.532687
0.546909
0.536731
0.322941
0.321897
0.521065
0.533825
0.399327
0.481197
0.435823
0.533803
0.477359
0.288777
0.536134
0.552825
0.526918
0.324217
0.528975
0.302764
0.533793
0.39316
0.540766
0.534212
0.318033
0.537557
0.327816
0.333154
0.507931
0.298759
0.533007
0.533664
0.537835
0.302527
0.534922
0.323466
0.304974
0.318228
0.323113
0.470799
0.322559
0.490691
0.533808
0.266041
0.3306
0.385301
0.455506
0.492289
0.488082
0.305724
0.3348
0.321455
0.323849
0.213116
0.491848
0.497744
0.329197
0.533502
0.537828
0.325384
0.552774
0.531668
0.533825
0.324125
0.533604
0.527582
0.541147
0.538139
0.318341
0.53491
0.542568
0.529499
0.523889
0.533377
0.326985
0.323417
0.533654
0.423331
0.320436
0.534445
0.329359
0.449005
0.486707
0.514326
0.517527
0.307199
0.479723
0.312101
0.324066
0.53645
0.541324
0.544598
0.541156
0.511374
0.30527
0.54797
0.32294
0.398467
0.549617
0.533607
0.538534
0.324259
0.324339
0.54883
0.324053
0.540607
0.508274
0.33672
0.32486
0.53532
0.320348
0.534152
0.540195
0.508816
0.319908
0.317968
0.394683
0.403006
0.482706
0.369535
0.533423
0.488088
0.524278
0.533584
0.533241
0.325905
0.326783
0.542194
0.533377
0.483936
0.362788
0.330107
0.524993
0.322164
0.533227
0.482896
0.263538
0.537203
0.32301
0.506069
0.295542
0.545352
0.316127
0.5329
0.533685
0.278275
0.519926
0.508105
0.267622
0.533528
0.531593
0.434297
0.333951
0.287139
0.364341
0.545977
0.470175
0.320358
0.460121
0.535231
0.5336
0.297726
0.473472
0.519598
0.365004
0.533407
0.533651
0.235851
0.536498
0.533582
0.293559
0.465029
0.303358
0.495283
0.311318
0.333799
0.547623
0.317901
0.325369
0.324298
0.53531
0.512376
0.31691
0.533383
0.284035
0.516102
0.323553
0.515455
0.290035
0.533802
0.533998
0.502073
0.533653
0.435703
0.533712
0.533798
0.297282
0.499289
0.506337
0.377582
0.532721
0.389975
0.316286
0.547702
0.309105
0.447654
0.283685
0.532765
0.322335
0.330369
0.544153
0.532979
0.30669
0.5373
0.537811
0.533614
0.548154
0.533688
0.323862
0.552177
0.326112
0.326523
0.519541
0.538985
0.55146
0.522227
0.315381
0.310572
0.321206
0.51581
0.533771
0.286236
0.523558
0.335359
0.308246
0.305598
0.520871
0.303881
0.549326
0.537047
0.498424
0.53051
0.536109
0.446315
0.496519
0.344126
0.331091
0.306887
0.533682
0.533648
0.333309
0.491367
0.469177
0.497987
0.325588
0.31066
0.491195
0.220378
0.485638
0.461743
0.327774
0.533563
0.518018
0.329085
0.533326
0.323703
0.537118
0.549516
0.52758
0.323057
0.372336
0.531809
0.238598
0.351538
0.530566
0.2454
0.533556
0.536074
0.494808
0.538104
0.260416
0.533652
0.53593
0.532111
0.287501
0.542635
0.32363
0.331462
0.523732
0.532724
0.533606
0.18703
0.534445
0.499005
0.533603
0.335708
0.330421
0.327472
0.539903
0.321472
0.321931
0.306424
0.460012
0.322221
0.244262
0.350442
0.534415
0.327336
0.533611
0.533707
0.53355
0.301664
0.535743
0.511724
0.533506
0.329225
0.522112
0.321908
0.310631
0.53483
0.321544
0.488027
0.534207
0.533679
0.322905
0.260214
0.320745
0.442066
0.533662
0.18511
0.527369
0.535211
0.539057
0.324785
0.323625
0.272283
0.469405
0.329124
0.533655
0.476807
0.53372
0.52707
0.322205
0.488353
0.324301
0.437146
0.509731
0.551429
0.4432
0.372965
0.521874
0.487057
0.542955
0.307076
0.292671
0.318862
0.540297
0.416678
0.533614
0.326709
0.314101
0.541121
0.535506
0.533545
0.320748
0.534158
0.440703
0.443082
0.472293
0.3302
0.324255
0.234561
0.532741
0.533852
0.522683
0.483944
0.271357
0.538592
0.51706
0.533852
0.533509
0.538525
0.552625
0.534063
0.537903
0.544112
0.325918
0.537187
0.541919
0.533226
0.538411
0.532396
0.449949
0.325917
0.334382
0.481646
0.323129
0.263485
0.533448
0.323379
0.501463
0.535929
0.512654
0.527568
0.327844
0.534897
0.315282
0.331437
0.534106
0.533193
0.534177
0.297727
0.545426
0.532565
0.479478
0.53271
0.325194
0.53327
0.549165
0.518302
0.318285
0.542043
0.323717
0.557334
0.301738
0.325992
0.406897
0.354065
0.551751
0.542405
0.533563
0.307686
0.533313
0.318617
0.323318
0.50804
0.388399
0.324441
0.532971
0.322123
0.406244
0.522223
0.496124
0.516837
0.387431
0.470094
0.513422
0.533869
0.447824
0.544592
0.422184
0.552088
0.480593
0.506821
0.333369
0.323073
0.353533
0.541171
0.327427
0.520301
0.537597
0.471169
0.53392
0.404954
0.532263
0.524995
0.325205
0.536697
0.475991
0.381816
0.478879
0.548674
0.504094
0.533585
0.324198
0.324195
0.529391
0.419103
0.424718
0.538481
0.53341
0.533791
0.548024
0.549187
0.485115
0.485887
0.551385
0.322143
0.322827
0.322722
0.298308
0.533676
0.361283
0.419895
0.536929
0.528945
0.326819
0.528404
0.556106
0.296748
0.295799
0.533596
0.538513
0.331289
0.307683
0.313361
0.533613
0.493369
0.321665
0.326022
0.328039
0.332007
0.272465
0.322851
0.553563
0.534165
0.530352
0.309502
0.513572
0.473255
0.481029
0.298438
0.326059
0.506347
0.533676
0.326779
0.533603
0.32908
0.543833
0.326739
0.532954
0.300207
0.516723
0.547272
0.304696
0.444467
0.322192
0.55246
0.33121
0.476342
0.329584
0.397171
0.322648
0.469323
0.317813
0.533643
0.53364
0.47932
0.526283
0.286823
0.515759
0.533465
0.546227
0.471308
0.516866
0.326551
0.305733
0.33142
0.546506
0.229738
0.545116
0.430572
0.538768
0.550533
0.359827
0.540774
0.32351
0.333617
0.321914
0.400832
0.40526
0.532764
0.320024
0.328534
0.534419
0.300449
0.318974
0.431641
0.291294
0.326695
0.33507
0.553139
0.51439
0.47996
0.328349
0.513007
0.532868
0.33192
0.256336
0.52316
0.533126
0.439898
0.408786
0.326593
0.2868
0.312734
0.529395
0.478004
0.409843
0.53464
0.325059
0.445799
0.322641
0.533643
0.545152
0.327275
0.326809
0.483488
0.426156
0.546991
0.544098
0.546339
0.537736
0.549709
0.308516
0.324774
0.315551
0.320966
0.420988
0.533702
0.515783
0.321753
0.302311
0.354264
0.355815
0.533695
0.495213
0.323453
0.243599
0.535909
0.328657
0.512327
0.542595
0.508565
0.533376
0.43058
0.316816
0.305022
0.481283
0.327537
0.328752
0.316248
0.533594
0.532332
0.287317
0.327503
0.533585
0.316737
0.534107
0.546533
0.316747
0.319267
0.327399
0.53559
0.328892
0.53366
0.534641
0.471532
0.302989
0.419689
0.541941
0.525174
0.324166
0.522651
0.483379
0.372174
0.539321
0.555918
0.3241
0.31762
0.510545
0.321227
0.320738
0.518977
0.274292
0.532986
0.532588
0.545885
0.489318
0.545417
0.535798
0.533827
0.321117
0.325956
0.492317
0.531451
0.372125
0.552488
0.257059
0.537728
0.518161
0.446967
0.508621
0.306316
0.360824
0.529119
0.542817
0.477923
0.547543
0.534919
0.53359
0.547273
0.533585
0.520513
0.510154
0.535127
0.53368
0.53382
0.280782
0.501282
0.295983
0.535007
0.537311
0.539761
0.500506
0.53769
0.318147
0.317362
0.242208
0.323968
0.506767
0.316413
0.324065
0.529589
0.324864
0.537362
0.313342
0.519191
0.535293
0.316318
0.302691
0.258153
0.540281
0.326979
0.532147
0.537283
0.320211
0.504097
0.438824
0.272579
0.330234
0.324858
0.538503
0.317822
0.535853
0.402042
0.322741
0.531738
0.53306
0.546302
0.329027
0.4507
0.325932
0.515147
0.5338
0.535697
0.325384
0.53063
0.538597
0.488928
0.320526
0.540168
0.330317
0.324219
0.529239
0.357439
0.549471
0.315621
0.325796
0.352055
0.495914
0.327813
0.231413
0.300792
0.376418
0.533579
0.53678
0.329217
0.468298
0.53499
0.443071
0.329828
0.261754
0.440712
0.330456
0.323265
0.529958
0.324855
0.329549
0.542402
0.554178
0.296473
0.54175
0.30993
0.533591
0.329207
0.509304
0.533777
0.538733
0.53361
0.323023
0.322908
0.32156
0.533861
0.512062
0.468123
0.426319
0.294571
0.240591
0.533365
0.321394
0.533399
0.30351
0.533783
0.524473
0.297656
0.291786
0.326572
0.327564
0.294002
0.482349
0.508885
0.300474
0.536415
0.499632
0.318099
0.321981
0.554129
0.32426
0.534995
0.339085
0.538403
0.513353
0.535664
0.533592
0.324455
0.549225
0.533535
0.555333
0.320213
0.475445
0.473138
0.261106
0.54117
0.499194
0.54777
0.513787
0.549756
0.52803
0.550931
0.533195
0.531803
0.30986
0.545481
0.32686
0.360743
0.53032
0.323498
0.520669
0.474752
0.328032
0.490137
0.318268
0.313695
0.522855
0.466791
0.55375
0.325416
0.513538
0.486906
0.322536
0.306778
0.508625
0.532995
0.299204
0.307164
0.53772
0.553589
0.312912
0.503219
0.548033
0.516625
0.301105
0.330476
0.315867
0.514581
0.313843
0.523254
0.54028
0.533382
0.473364
0.535572
0.325424
0.51892
0.486725
0.547094
0.440667
0.326883
0.321137
0.331371
0.544288
0.538225
0.336978
0.51164
0.254328
0.503527
0.536578
0.328792
0.482425
0.524122
0.488194
0.307951
0.326555
0.292784
0.539864
0.549386
0.48489
0.408349
0.535584
0.327857
0.497289
0.533616
0.530808
0.307781
0.494706
0.328235
0.480796
0.33331
0.530701
0.522855
0.328641
0.539639
0.334693
0.533677
0.500438
0.533641
0.5403
0.325411
0.533402
0.533343
0.533073
0.53146
0.383843
0.533612
0.325837
0.53348
0.329398
0.3015
0.326892
0.292851
0.329325
0.303812
0.550045
0.290444
0.321667
0.515009
0.54002
0.510799
0.322724
0.534728
0.533989
0.533404
0.275807
0.452139
0.53557
0.320427
0.303641
0.322217
0.492579
0.403822
0.315537
0.458121
0.334402
0.533681
0.398353
0.327025
0.375387
0.509758
0.289684
0.533335
0.323833
0.368471
0.297033
0.531964
0.303636
0.510267
0.533603
0.462361
0.328087
0.323946
0.5264
0.552725
0.307586
0.30494
0.533734
0.32237
0.541678
0.310934
0.442266
0.331916
0.535712
0.324161
0.551587
0.301222
0.53638
0.536351
0.543468
0.533699
0.327938
0.32757
0.322211
0.496726
0.528871
0.494629
0.407425
0.328794
0.539619
0.265687
0.509954
0.455322
0.315872
0.326846
0.543689
0.530534
0.328283
0.533666
0.530266
0.543653
0.545894
0.323643
0.499334
0.328085
0.543743
0.315173
0.533588
0.504978
0.512339
0.552048
0.318895
0.557069
0.3185
0.323635
0.534019
0.533702
0.43131
0.530096
0.533664
0.32421
0.543274
0.52906
0.549438
0.305813
0.337683
0.531535
0.318907
0.538064
0.537294
0.522863
0.534403
0.227785
0.353267
0.509588
0.328031
0.518056
0.553235
0.372574
0.52011
0.215742
0.483072
0.543484
0.53027
0.520238
0.324895
0.331616
0.532987
0.521101
0.327784
0.263619
0.323272
0.327319
0.321882
0.334207
0.289587
0.321683
0.532432
0.327826
0.295464
0.536854
0.429752
0.533584
0.313541
0.326874
0.535382
0.36885
0.373754
0.547843
0.293589
0.518253
0.533785
0.480983
0.517258
0.322668
0.537096
0.533855
0.320564
0.32328
0.316399
0.472061
0.480358
0.549614
0.53407
0.531499
0.520177
0.292477
0.537962
0.533853
0.508002
0.325613
0.536094
0.449093
0.286998
0.342322
0.32361
0.322962
0.324271
0.464373
0.523245
0.522106
0.323369
0.308427
0.547958
0.283326
0.537372
0.533332
0.523169
0.53049
0.535305
0.320528
0.325116
0.335119
0.444783
0.319249
0.534386
0.320057
0.534769
0.533521
0.536912
0.2992
0.354168
0.324154
0.535964
0.306743
0.321887
0.533176
0.517011
0.484657
0.533942
0.504169
0.541284
0.322707
0.493035
0.545439
0.421008
0.534928
0.538985
0.542252
0.365039
0.338564
0.550562
0.395297
0.479481
0.325103
0.502579
0.523563
0.317917
0.313357
0.513441
0.40237
0.54334
0.537342
0.318391
0.328502
0.533584
0.299709
0.324875
0.524928
0.509518
0.326783
0.527344
0.533749
0.502086
0.301667
0.465414
0.323761
0.527346
0.544897
0.54117
0.519763
0.533712
0.251023
0.283777
0.529755
0.320546
0.480641
0.323765
0.536226
0.332413
0.507396
0.545063
0.533701
0.324693
0.533647
0.533582
0.322748
0.50315
0.315161
0.554165
0.325163
0.30136
0.315856
0.526693
0.529964
0.256664
0.238952
0.492258