# vtk DataFile Version 1.0
unstructured grid
ascii
DATASET UNSTRUCTURED_GRID
points 13672 float
0.0796578 -0.059106 0
0.00128732 0.00159165 0
0.00227961 -0.00102548 0
0.0791586 -0.0598787 0
-0.0546216 0.01 0
0.000495206 0.025 0
0.0800549 -0.035 0
0.135172 -0.08 0
-0.0546216 -0.0451168 0
0.000495206 -0.0301168 0
0.0800549 -0.0901168 0
0.135172 -0.135117 0
-0.0546216 -0.0451168 -0.00551168
0.000495206 -0.0301168 -0.00551168
0.0800549 -0.0901168 -0.00551168
0.135172 -0.135117 -0.00551168
0.135172 -0.08 -0.00551168
0.0800549 -0.035 -0.00551168
0.000495206 0.025 -0.00551168
-0.0546216 0.01 -0.00551168
0.00128732 0.00159165 -0.00551168
0.00227961 -0.00102548 -0.00551168
0.0791586 -0.0598787 -0.00551168
0.0796578 -0.059106 -0.00551168
0.00165953 -0.000990923 0
0.00119576 -0.000874076 0
0.000866021 -0.000641801 0
0.000645147 -0.000349912 0
0.00052235 -1.7281e-05 0
0.00049972 0.000348016 0
0.000601632 0.000737716 0
0.000861774 0.0011403 0
0.00157235 0.00183217 0
0.00188647 0.00206725 0
0.00222612 0.00230203 0
0.00258713 0.00254351 0
0.00296826 0.00279524 0
0.00337118 0.00305664 0
0.00379785 0.00332658 0
0.00425045 0.00360349 0
0.00473139 0.00388521 0
0.0052432 0.00416895 0
0.0057881 0.00445204 0
0.00636753 0.00473281 0
0.00698281 0.00500961 0
0.00763526 0.00528058 0
0.00832616 0.00554366 0
0.00905691 0.00579603 0
0.00982918 0.00603333 0
0.0106445 0.00625033 0
0.0115038 0.00644128 0
0.0124073 0.00660297 0
0.0133543 0.00673414 0
0.0143444 0.00683382 0
0.0153769 0.00690031 0
0.0164512 0.00693173 0
0.0175666 0.00692547 0
0.0187219 0.00687822 0
0.0199156 0.00678477 0
0.0211454 0.00663864 0
0.0224084 0.00643275 0
0.0237018 0.00616676 0
0.0250249 0.00584739 0
0.026375 0.00547298 0
0.0277479 0.00503752 0
0.0291386 0.00453545 0
0.0305433 0.0039653 0
0.0319572 0.0033256 0
0.0333681 0.00260019 0
0.034775 0.00179799 0
0.0361793 0.000930615 0
0.0375798 3.12222e-06 0
0.0389689 -0.000988429 0
0.0403357 -0.00205109 0
0.041675 -0.00318283 0
0.0429849 -0.00437751 0
0.0442643 -0.00562904 0
0.0455126 -0.00693089 0
0.0467314 -0.00827518 0
0.0479204 -0.00965638 0
0.0490661 -0.0110799 0
0.0501515 -0.0125519 0
0.0511696 -0.0140695 0
0.0521492 -0.0156071 0
0.0531202 -0.0171411 0
0.0540851 -0.0186663 0
0.0550431 -0.0201798 0
0.0559923 -0.0216793 0
0.0569311 -0.0231626 0
0.0578582 -0.0246273 0
0.0587723 -0.0260715 0
0.0596721 -0.027493 0
0.0605563 -0.02889 0
0.0614241 -0.0302609 0
0.0622742 -0.0316042 0
0.063106 -0.0329183 0
0.0639186 -0.034202 0
0.0647113 -0.0354543 0
0.0654835 -0.0366743 0
0.0662345 -0.0378613 0
0.0669642 -0.0390145 0
0.0676726 -0.0401333 0
0.0683597 -0.0412172 0
0.0690246 -0.0422665 0
0.0696662 -0.0432819 0
0.0702841 -0.0442636 0
0.0708793 -0.0452111 0
0.0714538 -0.0461237 0
0.072009 -0.047001 0
0.0725452 -0.0478434 0
0.0730611 -0.0486524 0
0.073556 -0.0494294 0
0.0740291 -0.0501756 0
0.0744812 -0.0508916 0
0.0749138 -0.0515773 0
0.0753285 -0.0522331 0
0.0757266 -0.0528592 0
0.076109 -0.0534564 0
0.0764753 -0.0540264 0
0.0768243 -0.054571 0
0.0771553 -0.0550919 0
0.0774679 -0.0555901 0
0.0777617 -0.0560669 0
0.0780369 -0.056523 0
0.0782958 -0.0569578 0
0.0785421 -0.0573703 0
0.0787786 -0.0577603 0
0.0790073 -0.0581279 0
0.0792295 -0.058474 0
0.0794462 -0.0587995 0
0.0798803 -0.0594162 0
0.0800272 -0.0596588 0
0.0800357 -0.0598891 0
0.0799275 -0.0600784 0
0.0797205 -0.0601773 0
0.0794593 -0.0601051 0
0.0789155 -0.0596491 0
0.0786707 -0.0593963 0
0.0784111 -0.0591319 0
0.0781372 -0.0588542 0
0.0778566 -0.0585548 0
0.0775715 -0.0582308 0
0.0772803 -0.0578828 0
0.0769832 -0.0575099 0
0.0766822 -0.0571097 0
0.0763801 -0.0566796 0
0.0760759 -0.0562196 0
0.0757623 -0.0557337 0
0.0754359 -0.0552232 0
0.0750951 -0.0546879 0
0.0747379 -0.054128 0
0.0743626 -0.0535435 0
0.0739688 -0.0529338 0
0.0735559 -0.0522981 0
0.0731238 -0.0516357 0
0.0726718 -0.050946 0
0.0721991 -0.0502288 0
0.0717046 -0.049484 0
0.0711872 -0.0487117 0
0.0706461 -0.047912 0
0.0700804 -0.0470849 0
0.0694892 -0.0462308 0
0.0688718 -0.0453499 0
0.0682271 -0.0444431 0
0.0675544 -0.043511 0
0.0668527 -0.0425546 0
0.0661215 -0.0415748 0
0.06536 -0.040573 0
0.0645676 -0.0395504 0
0.0637439 -0.0385087 0
0.0628887 -0.0374493 0
0.062002 -0.0363741 0
0.0610838 -0.0352847 0
0.0601345 -0.0341831 0
0.0591547 -0.033071 0
0.0581456 -0.0319502 0
0.0571083 -0.0308224 0
0.0560444 -0.0296893 0
0.0549562 -0.028552 0
0.053845 -0.0274126 0
0.0527113 -0.0262746 0
0.051554 -0.0251427 0
0.0503724 -0.0240222 0
0.0491675 -0.0229164 0
0.047941 -0.0218282 0
0.0466955 -0.0207597 0
0.0454337 -0.0197126 0
0.0441592 -0.0186878 0
0.0428751 -0.0176863 0
0.0415841 -0.0167097 0
0.0402878 -0.0157609 0
0.0389879 -0.0148428 0
0.0376864 -0.0139575 0
0.0363853 -0.013107 0
0.0350871 -0.0122931 0
0.0337942 -0.0115164 0
0.0325095 -0.0107772 0
0.0312357 -0.0100756 0
0.0299758 -0.00941024 0
0.0287337 -0.00877784 0
0.0275126 -0.00817571 0
0.0263139 -0.00760375 0
0.0251376 -0.00706528 0
0.0239829 -0.0065649 0
0.0228537 -0.00609619 0
0.0217522 -0.00565563 0
0.0206795 -0.00524226 0
0.0196364 -0.00485507 0
0.0186233 -0.00449318 0
0.0176408 -0.00415577 0
0.016689 -0.00384204 0
0.0157682 -0.00355115 0
0.0148783 -0.00328218 0
0.0140192 -0.00303468 0
0.0131906 -0.00280795 0
0.0123925 -0.00260016 0
0.0116246 -0.00241012 0
0.0108864 -0.00223769 0
0.0101774 -0.00208212 0
0.00949701 -0.00194206 0
0.00884483 -0.0018163 0
0.0082202 -0.0017039 0
0.00762247 -0.00160391 0
0.00705097 -0.00151528 0
0.006505 -0.00143697 0
0.0059838 -0.00136806 0
0.00548662 -0.00130772 0
0.00501265 -0.00125519 0
0.00456114 -0.00120954 0
0.00413136 -0.00116914 0
0.00372257 -0.00113251 0
0.00333398 -0.00109853 0
0.00296466 -0.00106798 0
0.00261363 -0.0010431 0
-0.052721 -0.0445996 0
-0.0508204 -0.0440823 0
-0.0489199 -0.0435651 0
-0.0470193 -0.0430478 0
-0.0451187 -0.0425306 0
-0.0432181 -0.0420134 0
-0.0413175 -0.0414961 0
-0.039417 -0.0409789 0
-0.0375164 -0.0404616 0
-0.0356158 -0.0399444 0
-0.0337152 -0.0394271 0
-0.0318146 -0.0389099 0
-0.0299141 -0.0383927 0
-0.0280135 -0.0378754 0
-0.0261129 -0.0373582 0
-0.0242123 -0.0368409 0
-0.0223117 -0.0363237 0
-0.0204112 -0.0358065 0
-0.0185106 -0.0352892 0
-0.01661 -0.034772 0
-0.0147094 -0.0342547 0
-0.0128088 -0.0337375 0
-0.0109083 -0.0332202 0
-0.00900769 -0.032703 0
-0.00710711 -0.0321858 0
-0.00520653 -0.0316685 0
-0.00330595 -0.0311513 0
-0.00140537 -0.030634 0
0.00190689 -0.0299614 0
0.00332271 -0.0298498 0
0.00474133 -0.0297825 0
0.00616136 -0.0297597 0
0.0075814 -0.0297814 0
0.00900007 -0.0298477 0
0.010416 -0.0299583 0
0.0118278 -0.0301127 0
0.0132342 -0.0303103 0
0.0146339 -0.0305504 0
0.0160259 -0.0308322 0
0.0174091 -0.0311546 0
0.0187824 -0.0315166 0
0.020145 -0.031917 0
0.0214961 -0.0323546 0
0.0228351 -0.032828 0
0.0241613 -0.0333361 0
0.0254744 -0.0338774 0
0.0267738 -0.0344507 0
0.0280592 -0.0350545 0
0.0293306 -0.0356877 0
0.0305875 -0.0363488 0
0.0318301 -0.0370367 0
0.0330581 -0.0377501 0
0.0342717 -0.0384879 0
0.0354708 -0.0392489 0
0.0366556 -0.0400321 0
0.0378262 -0.0408363 0
0.0389828 -0.0416607 0
0.0401254 -0.0425042 0
0.0412543 -0.0433659 0
0.0423698 -0.0442451 0
0.043472 -0.0451408 0
0.0445612 -0.0460523 0
0.0456375 -0.0469789 0
0.0467013 -0.0479199 0
0.0477529 -0.0488746 0
0.0487923 -0.0498424 0
0.04982 -0.0508227 0
0.0508362 -0.051815 0
0.051841 -0.0528187 0
0.0528348 -0.0538333 0
0.0538178 -0.0548584 0
0.0547903 -0.0558935 0
0.0557524 -0.0569382 0
0.0567045 -0.0579922 0
0.0576467 -0.0590549 0
0.0585792 -0.0601261 0
0.0595024 -0.0612055 0
0.0604163 -0.0622926 0
0.0613212 -0.0633873 0
0.0622174 -0.0644891 0
0.0631049 -0.0655979 0
0.0639841 -0.0667134 0
0.064855 -0.0678353 0
0.0657179 -0.0689633 0
0.0665729 -0.0700974 0
0.0674202 -0.0712372 0
0.06826 -0.0723826 0
0.0690925 -0.0735333 0
0.0699178 -0.0746892 0
0.070736 -0.0758501 0
0.0715473 -0.0770159 0
0.0723518 -0.0781863 0
0.0731498 -0.0793612 0
0.0739412 -0.0805405 0
0.0747264 -0.081724 0
0.0755053 -0.0829116 0
0.0762781 -0.0841033 0
0.0770449 -0.0852987 0
0.0778059 -0.0864979 0
0.0785611 -0.0877007 0
0.0793108 -0.088907 0
0.0814681 -0.0912706 0
0.0828814 -0.0924245 0
0.0842946 -0.0935783 0
0.0857079 -0.0947322 0
0.0871211 -0.095886 0
0.0885344 -0.0970399 0
0.0899476 -0.0981937 0
0.0913609 -0.0993476 0
0.0927741 -0.100501 0
0.0941874 -0.101655 0
0.0956006 -0.102809 0
0.0970139 -0.103963 0
0.0984272 -0.105117 0
0.0998404 -0.106271 0
0.101254 -0.107424 0
0.102667 -0.108578 0
0.10408 -0.109732 0
0.105493 -0.110886 0
0.106907 -0.11204 0
0.10832 -0.113194 0
0.109733 -0.114348 0
0.111146 -0.115501 0
0.11256 -0.116655 0
0.113973 -0.117809 0
0.115386 -0.118963 0
0.116799 -0.120117 0
0.118213 -0.121271 0
0.119626 -0.122424 0
0.121039 -0.123578 0
0.122452 -0.124732 0
0.123866 -0.125886 0
0.125279 -0.12704 0
0.126692 -0.128194 0
0.128105 -0.129348 0
0.129519 -0.130501 0
0.130932 -0.131655 0
0.132345 -0.132809 0
0.133758 -0.133963 0
0.135172 -0.133216 0
0.135172 -0.131316 0
0.135172 -0.129415 0
0.135172 -0.127514 0
0.135172 -0.125614 0
0.135172 -0.123713 0
0.135172 -0.121813 0
0.135172 -0.119912 0
0.135172 -0.118012 0
0.135172 -0.116111 0
0.135172 -0.11421 0
0.135172 -0.11231 0
0.135172 -0.110409 0
0.135172 -0.108509 0
0.135172 -0.106608 0
0.135172 -0.104708 0
0.135172 -0.102807 0
0.135172 -0.100906 0
0.135172 -0.0990058 0
0.135172 -0.0971052 0
0.135172 -0.0952046 0
0.135172 -0.0933041 0
0.135172 -0.0914035 0
0.135172 -0.0895029 0
0.135172 -0.0876023 0
0.135172 -0.0857017 0
0.135172 -0.0838012 0
0.135172 -0.0819006 0
0.133758 -0.0788462 0
0.132345 -0.0776923 0
0.130932 -0.0765385 0
0.129519 -0.0753846 0
0.128105 -0.0742308 0
0.126692 -0.0730769 0
0.125279 -0.0719231 0
0.123866 -0.0707692 0
0.122452 -0.0696154 0
0.121039 -0.0684615 0
0.119626 -0.0673077 0
0.118213 -0.0661538 0
0.116799 -0.065 0
0.115386 -0.0638462 0
0.113973 -0.0626923 0
0.11256 -0.0615385 0
0.111146 -0.0603846 0
0.109733 -0.0592308 0
0.10832 -0.0580769 0
0.106907 -0.0569231 0
0.105493 -0.0557692 0
0.10408 -0.0546154 0
0.102667 -0.0534615 0
0.101254 -0.0523077 0
0.0998404 -0.0511538 0
0.0984272 -0.05 0
0.0970139 -0.0488462 0
0.0956006 -0.0476923 0
[...]
CELL_DATA 13116
SCALARS rho float
LOOKUP_TABLE default
0.480763
0.5721
0.347354
0.578576
0.588692
0.527607
0.338062
0.564415
0.456583
0.614456
0.336334
0.353709
0.586522
0.348999
0.338895
0.527532
0.448204
0.645386
0.523186
0.353804
0.485904
0.328897
0.358402
0.644391
0.545043
0.589627
0.616871
0.342384
0.542311
0.588447
0.529938
0.351696
0.486023
0.379127
0.335728
0.483746
0.608955
0.526273
0.528313
0.529649
0.525063
0.568709
0.361099
0.364524
0.52279
0.523035
0.558031
0.524182
0.342328
0.451793
0.546559
0.375747
0.346762
0.440526
0.484725
0.51836
0.367716
0.633944
0.46547
0.345889
0.350478
0.592402
0.565167
0.528444
0.529631
0.36079
0.526574
0.617887
0.526118
0.529412
0.337549
0.518965
0.324287
0.366333
0.530743
0.329234
0.579358
0.551241
0.340564
0.64226
0.619813
0.569941
0.638513
0.525704
0.52798
0.381283
0.346513
0.615276
0.540714
0.327603
0.363053
0.571218
0.642763
0.55076
0.591994
0.533436
0.548111
0.530328
0.530397
0.532507
0.627208
0.522629
0.524604
0.338377
0.552751
0.356243
0.29727
0.404937
0.359613
0.554446
0.433276
0.56419
0.531318
0.626035
0.642932
0.526802
0.347288
0.323901
0.538788
0.527733
0.61853
0.322842
0.526252
0.363582
0.558948
0.368767
0.347004
0.437901
0.364056
0.453266
0.537648
0.571914
0.42993
0.337023
0.410293
0.517729
0.532645
0.528502
0.626121
0.527871
0.561873
0.558863
0.436396
0.562588
0.572354
0.345033
0.334098
0.575595
0.595229
0.541889
0.472773
0.524806
0.524219
0.326572
0.610601
0.526524
0.35795
0.633899
0.53029
0.61577
0.642083
0.337289
0.628987
0.360669
0.320497
0.57792
0.556871
0.644938
0.336445
0.394381
0.353755
0.53255
0.342568
0.421296
0.526607
0.35585
0.331117
0.326012
0.562709
0.52726
0.363711
0.362869
0.45358
0.609706
0.527154
0.46318
0.366945
0.525681
0.552927
0.391656
0.575754
0.574307
0.529145
0.351943
0.567036
0.527398
0.628695
0.525186
0.54216
0.332976
0.338434
0.560617
0.432167
0.362288
0.58452
0.526457
0.383996
0.545171
0.351291
0.3235
0.340201
0.526555
0.358768
0.358502
0.324694
0.328437
0.305274
0.528075
0.559358
0.370562
0.368142
0.526531
0.426791
0.360563
0.485042
0.60139
0.570789
0.344428
0.526677
0.327783
0.594534
0.354574
0.529217
0.507526
0.530571
0.529549
0.528988
0.347706
0.36139
0.615706
0.53105
0.527397
0.532307
0.528757
0.560458
0.331653
0.534674
0.603809
0.530312
0.330093
0.34264
0.524286
0.534527
0.529436
0.533135
0.466505
0.632626
0.335906
0.358295
0.329835
0.351352
0.544495
0.629427
0.577962
0.344572
0.52319
0.365257
0.364815
0.552477
0.320499
0.57816
0.557056
0.531368
0.631511
0.348883
0.531445
0.623931
0.530297
0.528106
0.340533
0.35091
0.356014
0.512327
0.321958
0.337324
0.273937
0.31729
0.536921
0.347071
0.531877
0.571533
0.364327
0.362264
0.36469
0.382658
0.344068
0.613638
0.519133
0.557939
0.32054
0.526013
0.520739
0.35808
0.3444
0.528084
0.533489
0.525416
0.366675
0.527333
0.346892
0.567362
0.56821
0.536588
0.565571
0.35555
0.526606
0.347233
0.526648
0.619469
0.616691
0.342827
0.273697
0.600836
0.361269
0.552733
0.590462
0.295789
0.636826
0.638723
0.360577
0.523438
0.64099
0.351208
0.538505
0.380775
0.507023
0.576461
0.387292
0.634304
0.34597
0.641694
0.285486
0.528476
0.522765
0.633307
0.348008
0.295768
0.527132
0.320151
0.57336
0.557064
0.354176
0.532628
0.356978
0.320898
0.548419
0.485664
0.615687
0.351291
0.35967
0.534153
0.574306
0.334651
0.55485
0.350228
0.356859
0.526994
0.567269
0.390789
0.333457
0.528579
0.529751
0.527544
0.52389
0.613641
0.472976
0.342489
0.348789
0.366982
0.527641
0.365992
0.451617
0.298845
0.337797
0.290337
0.402082
0.115311
0.320307
0.526449
0.296543
0.626787
0.542035
0.52395
0.605783
0.53668
0.320932
0.350944
0.340287
0.326466
0.562643
0.526535
0.524575
0.542664
0.574008
0.558193
0.568979
0.559713
0.585061
0.606116
0.641959
0.527912
0.336333
0.389962
0.476785
0.326888
0.515784
0.516635
0.346508
0.526695
0.531289
0.357961
0.349143
0.335431
0.366461
0.571966
0.334434
0.352052
0.526533
0.36436
0.507121
0.330591
0.527246
0.608599
0.342387
0.335705
0.551127
0.384007
0.33231
0.367801
0.329387
0.35918
0.354664
0.349475
0.3308
0.364539
0.334956
0.520574
0.332341
0.531002
0.30633
0.35856
0.432077
0.338512
0.327523
0.3401
0.52592
0.370476
0.583973
0.40753
0.363582
0.548138
0.539291
0.3806
0.636229
0.559595
0.557836
0.35859
0.530529
0.325125
0.622627
0.530101
0.35782
0.34431
0.550715
0.323715
0.388916
0.526232
0.296332
0.632779
0.572034
0.366059
0.328789
0.341266
0.416826
0.342687
0.349967
0.340127
0.347247
0.577609
0.586056
0.389816
0.536269
0.409435
0.56444
0.293198
0.324665
0.461549
0.357476
0.540766
0.244532
0.308892
0.425769
0.522521
0.557894
0.492595
0.294296
0.344045
0.502046
0.562964
0.529187
0.497918
0.552269
0.542615
0.335106
0.609103
0.502475
0.614423
0.263242
0.34499
0.625458
0.635833
0.604428
0.607236
0.544603
0.590221
0.641037
0.614864
0.52406
0.322676
0.522894
0.283167
0.35201
0.355462
0.586512
0.525706
0.253721
0.530208
0.561791
0.342869
0.5287
0.531971
0.612559
0.341829
0.324691
0.555668
0.334796
0.348296
0.354639
0.335271
0.546704
0.350394
0.586726
0.33035
0.573668
0.542339
0.525998
0.579027
0.332944
0.364981
0.528339
0.597606
0.595413
0.579098
0.605473
0.427289
0.360319
0.356317
0.526455
0.458377
0.33684
0.383663
0.337306
0.556063
0.525827
0.264078
0.329131
0.532262
0.398465
0.524721
0.607308
0.364901
0.328351
0.590427
0.53122
0.361013
0.558429
0.561771
0.526283
0.319099
0.532268
0.367797
0.530677
0.612803
0.336333
0.305081
0.336004
0.530501
0.358368
0.342118
0.324548
0.528463
0.595249
0.342257
0.35484
0.329985
0.52866
0.32425
0.52735
0.344954
0.52339
0.603577
0.310052
0.360767
0.3592
0.427667
0.355845
0.571928
0.3658
0.328675
0.527528
0.342189
0.526702
0.556946
0.530493
0.358733
0.538004
0.630801
0.62658
0.526292
0.577013
0.526863
0.345071
0.529296
0.372814
0.542749
0.342229
0.557687
0.436048
0.338092
0.529707
0.602065
0.322232
0.563739
0.361285
0.336223
0.526493
0.525729
0.345214
0.344461
0.340904
0.341819
0.562974
0.645516
0.319367
0.366677
0.575356
0.528739
0.525493
0.629363
0.526079
0.337411
0.627999
0.359624
0.544352
0.3261
0.530877
0.412127
0.526547
0.616987
0.511486
0.284822
0.349466
0.524937
0.542708
0.447215
0.629903
0.350315
0.616134
0.612363
0.309576
0.388005
0.627674
0.294383
0.529499
0.616929
0.270099
0.529637
0.589831
0.337994
0.602423
0.355889
0.540783
0.35648
0.526598
0.565173
0.353353
0.52845
0.628099
0.566173
0.563359
0.597643
0.518769
0.34724
0.349054
0.291534
0.363744
0.5331
0.488391
0.526869
0.594547
0.350972
0.327715
0.595478
0.607215
0.553825
0.55596
0.343927
0.642377
0.601861
0.353512
0.308802
0.540602
0.523755
0.533256
0.319541
0.527418
0.34113
0.606401
0.555075
0.529082
0.559768
0.335328
0.563145
0.533013
0.639063
0.525852
0.525782
0.369259
0.610171
0.32345
0.55389
0.605935
0.394248
0.574139
0.528963
0.54111
0.336388
0.340463
0.520069
0.596427
0.336162
0.334857
0.319845
0.331411
0.577554
0.61668
0.528866
0.313827
0.335216
0.525988
0.632051
0.35026
0.329778
0.395295
0.604341
0.525293
0.524207
0.63261
0.323381
0.337756
0.532085
0.36134
0.361348
0.361857
0.525962
0.340137
0.330786
0.509981
0.532939
0.562869
0.528049
0.525951
0.350256
0.341576
0.319883
0.407167
0.370509
0.357484
0.616108
0.634679
0.541047
0.52521
0.330147
0.359602
0.608382
0.345329
0.525872
0.562653
0.530044
0.34544
0.331702
0.545503
0.52976
0.492416
0.351028
0.525511
0.52788
0.505128
0.539774
0.554997
0.531807
0.552496
0.344153
0.526061
0.529514
0.549389
0.609097
0.533116
0.560083
0.531759
0.527297
0.32891
0.325932
0.358338
0.529811
0.434408
0.341831
0.592402
0.580869
0.352766
0.572909
0.343699
0.578151
0.40006
0.348386
0.6002
0.645564
0.335691
0.483302
0.529764
0.366928
0.547319
0.35758
0.355746
0.553265
0.545152
0.432013
0.524371
0.320474
0.625709
0.330968
0.313353
0.526742
0.336849
0.538706
0.340526
0.571654
0.532437
0.531891
0.556717
0.346922
0.327973
0.541379
0.362778
0.556774
0.38892
0.525205
0.527532
0.639752
0.376495
0.551114
0.56511
0.62759
0.526658
0.288492
0.341094
0.472721
0.56822
0.634355
0.311192
0.524666
0.494259
0.339405
0.342852
0.618691
0.606429
0.532105
0.530602
0.528114
0.623922
0.528291
0.61579
0.349245
0.604714
0.39288
0.531888
0.52327
0.274299
0.605478
0.573651
0.324122
0.348603
0.361975
0.533072
0.337296
0.553184
0.610781
0.606442
0.33182
0.52883
0.358395
0.52687
0.528701
0.52903
0.614236
0.528657
0.557619
0.618884
0.454503
0.542221
0.357134
0.526157
0.525977
0.34458
0.531386
0.614157
0.357859
0.348761
0.365992
0.53717
0.332856
0.531421
0.326687
0.562661
0.344379
0.412646
0.35052
0.623685
0.553439
0.464894
0.222618
0.557487
0.527975
0.320036
0.524432
0.587753
0.354873
0.521266
0.530026
0.601798
0.525708
0.357488
0.40287
0.562132
0.523392
0.555497
0.330603
0.337114
0.524325
0.532359
0.531285
0.532548
0.479638
0.573627
0.474335
0.529358
0.331697
0.360828
0.532443
0.584249
0.528388
0.3616
0.52587
0.487847
0.533984
0.336088
0.353355
0.556577
0.583159
0.488274
0.317856
0.524665
0.531179
0.336857
0.548
0.632467
0.336674
0.353371
0.346667
0.559443
0.32837
0.328131
0.523486
0.395588
0.628249
0.579928
0.338096
0.358272
0.572522
0.323392
0.333702
0.52974
0.356357
0.29425
0.525716
0.578955
0.546334
0.331816
0.347957
0.333169
0.555508
0.356077
0.543205
0.339442
0.586923
0.593217
0.522592
0.554905
0.572629
0.555911
0.525494
0.576648
0.541029
0.350132
0.321111
0.578481
0.528326
0.438178
0.558005
0.490091
0.528499
0.547591
0.342075
0.52717
0.592573
0.534444
0.32884
0.56752
0.34476
0.526258
0.430505
0.641722
0.526021
0.348336
0.570321
0.332866
0.361292
0.5679
0.36049
0.633218
0.533084
0.559511
0.365397
0.526511
0.330545
0.356795
0.336402
0.324444
0.538219
0.344273
0.566749
0.528792
0.319957
0.351872
0.420926
0.5163
0.572261
0.555376
0.355128
0.359112
0.334662
0.350591
0.221765
0.571685
0.563671
0.339583
0.528574
0.608427
0.3467
0.60158
0.631335
0.528685
0.325473
0.530745
0.598569
0.605528
0.534167
0.341384
0.551351
0.598359
0.564994
0.619786
0.527416
0.340332
0.341562
0.524462
0.470685
0.334066
0.526858
0.352079
0.506398
0.563873
0.541702
0.538263
0.357164
0.556716
0.329652
0.328125
0.637414
0.569049
0.607422
0.534186
0.599239
0.358994
0.585959
0.348409
0.437079
0.575738
0.530483
0.55911
0.328946
0.35486
0.603208
0.354994
0.553238
0.595748
0.362345
0.342044
0.527259
0.342749
0.526109
0.555492
0.59298
0.341906
0.326115
0.434122
0.447359
0.558116
0.402237
0.527292
0.555142
0.529418
0.533232
0.592375
0.343485
0.338847
0.552628
0.527367
0.553068
0.394288
0.362333
0.606495
0.343889
0.525948
0.556713
0.343258
0.564487
0.338237
0.578017
0.346598
0.598367
0.347475
0.530124
0.527478
0.280742
0.556001
0.595756
0.260713
0.528865
0.523425
0.488146
0.338867
0.302567
0.396499
0.629477
0.537962
0.325406
0.522313
0.591718
0.527629
0.323356
0.544447
0.547274
0.398447
0.527162
0.526763
0.250936
0.531765
0.530131
0.348018
0.532299
0.366907
0.575059
0.336072
0.356047
0.636588
0.324252
0.32934
0.346935
0.526545
0.557157
0.342832
0.524453
0.300433
0.595299
0.330346
0.557221
0.300254
0.527409
0.524425
0.583382
0.528937
0.487468
0.527464
0.528627
0.343071
0.582052
0.590161
0.41635
0.590099
0.426562
0.34325
0.586853
0.3509
0.505873
0.34413
0.524664
0.34956
0.351606
0.646162
0.525892
0.364
0.529938
0.635528
0.533079
0.554368
0.530668
0.34425
0.609337
0.360884
0.359461
0.547257
0.63187
0.567093
0.529573
0.35261
0.337561
0.333644
0.568031
0.528754
0.301426
0.577295
0.357658
0.354514
0.331801
0.535833
0.326101
0.588853
0.543774
0.580717
0.525579
0.538807
0.505854
0.573591
0.371247
0.327592
0.364978
0.530661
0.530832
0.361013
0.570922
0.556978
0.576591
0.357961
0.334226
0.557131
0.233179
0.552935
0.526309
0.358438
0.527827
0.576481
0.346328
0.543601
0.334559
0.526807
0.634384
0.570608
0.345301
0.405782
0.631276
0.24958
0.380534
0.524341
0.257702
0.527642
0.526572
0.57735
0.636958
0.341526
0.529865
0.636598
0.523412
0.305697
0.538177
0.328733
0.343212
0.528329
0.525364
0.528613
0.197324
0.526183
0.581564
0.530779
0.359385
0.346687
0.332093
0.530955
0.337352
0.341302
0.337028
0.524374
0.336483
0.291039
0.380654
0.540439
0.353155
0.528897
0.52832
0.527994
0.365197
0.526469
0.601309
0.528655
0.354899
0.617046
0.334047
0.343478
0.526664
0.362646
0.565841
0.599453
0.532017
0.359142
0.274142
0.32255
0.496475
0.532385
0.195247
0.526241
0.526539
0.637131
0.325952
0.348348
0.288397
0.539893
0.333556
0.533281
0.547475
0.528133
0.523546
0.339802
0.566106
0.348069
0.495333
0.598054
0.608606
0.501861
0.409372
0.616608
0.55671
0.554076
0.363406
0.301944
0.367517
0.641322
0.46446
0.530447
0.358479
0.33622
0.618762
0.527252
0.529201
0.363563
0.5291
0.494671
0.498172
0.540191
0.357835
0.361362
0.249103
0.52546
0.528906
0.617896
0.562886
0.286378
0.564114
0.609186
0.528894
0.528769
0.556762
0.59412
0.527719
0.625044
0.611048
0.355796
0.527325
0.535482
0.526861
0.531517
0.525136
0.511122
0.347551
0.357812
0.552273
0.329606
0.317797
0.530249
0.335333
0.585183
0.52593
0.566957
0.532037
0.360219
0.531628
0.333425
0.358346
0.527645
0.564854
0.525245
0.365268
0.548896
0.52435
0.548301
0.525625
0.328189
0.526994
0.603733
0.583099
0.33397
0.639064
0.330987
0.580273
0.355201
0.347897
0.453966
0.38299
0.600944
0.631454
0.525826
0.333058
0.527154
0.345364
0.338125
0.553931
0.424821
0.327676
0.525118
0.353026
0.447352
0.616845
0.560103
0.537618
0.423547
0.537032
0.603855
0.526496
0.5079
0.605279
0.469234
0.612394
0.563412
0.594006
0.328185
0.338886
0.382376
0.533882
0.357921
0.614198
0.530868
0.540971
0.526405
0.451084
0.631783
0.616997
0.32794
0.52904
0.554746
0.422114
0.554649
0.594982
0.569472
0.527973
0.324924
0.330696
0.546481
0.467843
0.477123
0.528315
0.527441
0.524569
0.63792
0.630896
0.56149
0.552623
0.615696
0.342961
0.355526
0.350084
0.34699
0.531387
0.392311
0.470359
0.560378
0.621825
0.359698
0.534419
0.582892
0.366766
0.314517
0.531216
0.528332
0.35587
0.33371
0.351573
0.533256
0.588905
0.339123
0.342764
0.357628
0.357193
0.303438
0.332812
0.592808
0.524251
0.599339
0.352872
0.566379
0.544282
0.553673
0.346496
0.348396
0.55643
0.532549
0.330123
0.527415
0.346784
0.643058
0.356941
0.528284
0.366873
0.538598
0.5604
0.363494
0.500023
0.34969
0.607943
0.358975
0.548779
0.352231
0.438826
0.33194
0.538703
0.319952
0.529101
0.529137
0.551324
0.573553
0.344356
0.555563
0.527999
0.553203
0.541503
0.59623
0.348888
0.328313
0.363753
0.637791
0.24174
0.575125
0.481311
0.632438
0.599556
0.394283
0.607407
0.337499
0.356552
0.341585
0.443056
0.45145
0.528018
0.319885
0.337475
0.526902
0.323826
0.347052
0.486486
0.310598
0.330119
0.358123
0.572269
0.605086
0.554151
0.361942
0.560221
0.525525
0.328415
0.272034
0.530227
0.526226
0.499416
0.450841
0.355277
0.305038
0.32557
0.557828
0.547467
0.455805
0.6346
0.349636
0.504829
0.338017
0.529673
0.566574
0.351442
0.35711
0.553866
0.478182
0.571627
0.608849
0.624265
0.533253
0.581321
0.336507
0.32702
0.367984
0.340348
0.47284
0.530014
0.607283
0.340921
0.363694
0.386055
0.353477
0.524427
0.559651
0.326771
0.26692
0.525999
0.36191
0.602264
0.619202
0.555483
0.527314
0.485224
0.349769
0.365118
0.548901
0.352259
0.353816
0.338445
0.528157
0.525282
0.312994
0.356401
0.532526
0.320428
0.526364
0.639465
0.357879
0.323942
0.345509
0.525463
0.346528
0.533114
0.613281
0.541583
0.320079
0.465691
0.556414
0.528054
0.339776
0.53556
0.555296
0.381546
0.541478
0.610328
0.330465
0.328791
0.548616
0.320855
0.341791
0.549124
0.291912
0.523759
0.632332
0.643945
0.564917
0.585985
0.526378
0.527769
0.336383
0.351542
0.563692
0.549762
0.405574
0.603021
0.27328
0.527053
0.536708
0.50583
0.59677
0.328946
0.391684
0.532161
0.577202
0.560533
0.557916
0.525768
0.531714
0.553149
0.532836
0.571329
0.553512
0.553074
0.532393
0.527633
0.273178
0.568746
0.343033
0.52703
0.526903
0.625406
0.555779
0.637422
0.323855
0.319494
0.253604
0.339534
0.557684
0.363675
0.325385
0.619622
0.31939
0.625462
0.325058
0.546682
0.548529
0.323335
0.325907
0.3417
0.531274
0.366805
0.527416
0.572545
0.322172
0.555636
0.492765
0.2957
0.347723
0.320708
0.641098
0.329603
0.528753
0.448053
0.350812
0.524164
0.525002
0.626373
0.344989
0.511711
0.350283
0.566595
0.528068
0.526825
0.330893
0.552914
0.528162
0.558349
0.343572
0.531076
0.344414
0.335237
0.529225
0.38808
0.61374
0.344263
0.330674
0.381341
0.554994
0.35521
0.222154
0.350655
0.416358
0.530509
0.55781
0.346173
0.537071
0.525415
0.497769
0.357847
0.352766
0.495414
0.338855
0.338614
0.522884
0.332609
0.335678
0.538802
0.581035
0.36472
0.643655
0.32571
0.531364
0.33963
0.553881
0.529394
0.63869
0.527995
0.328329
0.336648
0.343913
0.527795
0.547514
0.534185
0.476573
0.315741
0.253092
0.526461
0.336222
0.523914
0.324586
0.529143
0.619503
0.367651
0.361271
0.334833
0.354058
0.357707
0.551797
0.558349
0.366988
0.527515
0.583218
0.350518
0.343158
0.58577
0.326662
0.538101
0.367281
0.637165
0.603761
0.526097
0.530322
0.333432
0.629414
0.526636
0.576445
0.325844
0.54305
0.541934
0.320699
0.533086
0.578028
0.609229
0.555815
0.583077
0.531354
0.563923
0.526651
0.523515
0.337391
0.632955
0.335037
0.393101
0.524218
0.345769
0.532473
0.546017
0.339466
0.556869
0.324859
0.364329
0.539334
0.536421
0.57923
0.329439
0.553833
0.563658
0.33933
0.3638
0.56745
0.525693
0.318693
0.334588
0.614641
0.58428
0.334918
0.588611
0.566464
0.608578
0.366564
0.344791
0.352714
0.605493
0.345166
0.53536
0.641747
0.526297
0.544368
0.540944
0.327441
0.536617
0.562504
0.559743
0.498631
0.346848
0.337047
0.353919
0.642082
0.566136
0.365129
0.601157
0.348498
0.585126
0.527447
0.351064
0.554155
0.53388
0.566148
0.356713
0.349674
0.348296
0.552706
0.611047
0.560531
0.450322
0.530001
0.330513
0.57962
0.531173
0.555738
0.357786
0.574628
0.339172
0.550847
0.355769
0.531242
0.543471
0.362144
0.543505
0.364622
0.532457
0.584135
0.533296
0.535107
0.349619
0.526605
0.524987
0.525721
0.529708
0.41978
0.531279
0.348211
0.524826
0.352318
0.366686
0.352565
0.359235
0.337689
0.367044
0.573469
0.309678
0.341004
0.605746
0.546444
0.55836
0.34256
0.632778
0.633699
0.52759
0.282462
0.513574
0.526551
0.323123
0.342964
0.336676
0.572733
0.444265
0.360221
0.522404
0.330302
0.530435
0.436963
0.346889
0.408623
0.598387
0.340529
0.525935
0.348416
0.404523
0.315994
0.552719
0.324045
0.597817
0.531018
0.546189
0.356566
0.340594
0.564382
0.588321
0.333559
0.356606
0.527537
0.361304
0.639235
0.346044
0.497398
0.353844
0.526422
0.325984
0.579058
0.366996
0.527632
0.534717
0.575075
0.531479
0.347513
0.356506
0.339685
0.584975
0.619541
0.557015
0.453609
0.335726
0.607541
0.351927
0.547908
0.5243
0.34346
0.343941
0.622397
0.527801
0.351756
0.529673
0.572305
0.612919
0.642251
0.348645
0.582697
0.331816
0.605567
0.347351
0.528389
0.557317
0.585261
0.575128
0.350964
0.579359
0.322493
0.325148
0.526395
0.531338
0.484282
0.540735
0.53148
0.328385
0.645509
0.550794
0.561078
0.353296
0.363905
0.629373
0.363021
0.527641
0.532311
0.529296
0.549207
0.239919
0.383882
0.598161
0.360979
0.536302
0.599867
0.406469
0.544304
0.224894
0.550962
0.645619
0.629114
0.553043
0.346628
0.355921
0.52899
0.538726
0.336961
0.31852
0.325926
0.361217
0.341221
0.330929
0.341958
0.331249
0.532305
0.351961
0.367398
0.613306
0.482297
0.532446
0.335642
0.358301
0.525472
0.401574
0.411997
0.61103
0.312154
0.61101
0.529042
0.554094
0.56047
0.367853
0.555766
0.528426
0.323054
0.334971
0.343568
0.54354
0.553265
0.587179
0.527386
0.557598
0.562005
0.300835
0.542882
0.528263
0.576371
0.343889
0.52641
0.511481
0.296187
0.369688
0.346866
0.350874
0.345507
0.530884
0.618352
0.579533
0.337559
0.333539
0.562912
0.326014
0.583975
0.524812
0.532085
0.629474
0.52684
0.322355
0.351093
0.331832
0.503813
0.350775
0.524337
0.328973
0.526661
0.527384
0.526708
0.348288
0.385247
0.349035
0.536441
0.327608
0.336615
0.531272
0.557391
0.55981
0.527543
0.575489
0.638487
0.342885
0.572295
0.596278
0.467239
0.536072
0.593804
0.633165
0.398285
0.364648
0.563373
0.43325
0.553264
0.328717
0.56568
0.526882
0.333735
0.344878
0.570714
0.444091
0.583854
0.586873
0.329909
0.354984
0.530109
0.324099
0.349819
0.525976
0.565347
0.340209
0.52383
0.530199
0.558476
0.344392
0.532253
0.344247
0.525696
0.563984
0.637281
0.582442
0.529971
0.302493
0.297601
0.581438
0.320968
0.55316
0.34902
0.527656
0.340687
0.594773
0.600077
0.530179
0.329957
0.533154
0.5308
0.338726
0.5683
0.310481
0.573375
0.329828
0.365929
0.352204
0.603969
0.522805
0.272148
0.251428
0.577347