# vtk DataFile Version 1.0
unstructured grid
ascii
DATASET UNSTRUCTURED_GRID
points 13672 float
0.0796578 -0.059106 0
0.00128732 0.00159165 0
0.00227961 -0.00102548 0
0.0791586 -0.0598787 0
-0.0546216 0.01 0
0.000495206 0.025 0
0.0800549 -0.035 0
0.135172 -0.08 0
-0.0546216 -0.0451168 0
0.000495206 -0.0301168 0
0.0800549 -0.0901168 0
0.135172 -0.135117 0
-0.0546216 -0.0451168 -0.00551168
0.000495206 -0.0301168 -0.00551168
0.0800549 -0.0901168 -0.00551168
0.135172 -0.135117 -0.00551168
0.135172 -0.08 -0.00551168
0.0800549 -0.035 -0.00551168
0.000495206 0.025 -0.00551168
-0.0546216 0.01 -0.00551168
0.00128732 0.00159165 -0.00551168
0.00227961 -0.00102548 -0.00551168
0.0791586 -0.0598787 -0.00551168
0.0796578 -0.059106 -0.00551168
0.00165953 -0.000990923 0
0.00119576 -0.000874076 0
0.000866021 -0.000641801 0
0.000645147 -0.000349912 0
0.00052235 -1.7281e-05 0
0.00049972 0.000348016 0
0.000601632 0.000737716 0
0.000861774 0.0011403 0
0.00157235 0.00183217 0
0.00188647 0.00206725 0
0.00222612 0.00230203 0
0.00258713 0.00254351 0
0.00296826 0.00279524 0
0.00337118 0.00305664 0
0.00379785 0.00332658 0
0.00425045 0.00360349 0
0.00473139 0.00388521 0
0.0052432 0.00416895 0
0.0057881 0.00445204 0
0.00636753 0.00473281 0
0.00698281 0.00500961 0
0.00763526 0.00528058 0
0.00832616 0.00554366 0
0.00905691 0.00579603 0
0.00982918 0.00603333 0
0.0106445 0.00625033 0
0.0115038 0.00644128 0
0.0124073 0.00660297 0
0.0133543 0.00673414 0
0.0143444 0.00683382 0
0.0153769 0.00690031 0
0.0164512 0.00693173 0
0.0175666 0.00692547 0
0.0187219 0.00687822 0
0.0199156 0.00678477 0
0.0211454 0.00663864 0
0.0224084 0.00643275 0
0.0237018 0.00616676 0
0.0250249 0.00584739 0
0.026375 0.00547298 0
0.0277479 0.00503752 0
0.0291386 0.00453545 0
0.0305433 0.0039653 0
0.0319572 0.0033256 0
0.0333681 0.00260019 0
0.034775 0.00179799 0
0.0361793 0.000930615 0
0.0375798 3.12222e-06 0
0.0389689 -0.000988429 0
0.0403357 -0.00205109 0
0.041675 -0.00318283 0
0.0429849 -0.00437751 0
0.0442643 -0.00562904 0
0.0455126 -0.00693089 0
0.0467314 -0.00827518 0
0.0479204 -0.00965638 0
0.0490661 -0.0110799 0
0.0501515 -0.0125519 0
0.0511696 -0.0140695 0
0.0521492 -0.0156071 0
0.0531202 -0.0171411 0
0.0540851 -0.0186663 0
0.0550431 -0.0201798 0
0.0559923 -0.0216793 0
0.0569311 -0.0231626 0
0.0578582 -0.0246273 0
0.0587723 -0.0260715 0
0.0596721 -0.027493 0
0.0605563 -0.02889 0
0.0614241 -0.0302609 0
0.0622742 -0.0316042 0
0.063106 -0.0329183 0
0.0639186 -0.034202 0
0.0647113 -0.0354543 0
0.0654835 -0.0366743 0
0.0662345 -0.0378613 0
0.0669642 -0.0390145 0
0.0676726 -0.0401333 0
0.0683597 -0.0412172 0
0.0690246 -0.0422665 0
0.0696662 -0.0432819 0
0.0702841 -0.0442636 0
0.0708793 -0.0452111 0
0.0714538 -0.0461237 0
0.072009 -0.047001 0
0.0725452 -0.0478434 0
0.0730611 -0.0486524 0
0.073556 -0.0494294 0
0.0740291 -0.0501756 0
0.0744812 -0.0508916 0
0.0749138 -0.0515773 0
0.0753285 -0.0522331 0
0.0757266 -0.0528592 0
0.076109 -0.0534564 0
0.0764753 -0.0540264 0
0.0768243 -0.054571 0
0.0771553 -0.0550919 0
0.0774679 -0.0555901 0
0.0777617 -0.0560669 0
0.0780369 -0.056523 0
0.0782958 -0.0569578 0
0.0785421 -0.0573703 0
0.0787786 -0.0577603 0
0.0790073 -0.0581279 0
0.0792295 -0.058474 0
0.0794462 -0.0587995 0
0.0798803 -0.0594162 0
0.0800272 -0.0596588 0
0.0800357 -0.0598891 0
0.0799275 -0.0600784 0
0.0797205 -0.0601773 0
0.0794593 -0.0601051 0
0.0789155 -0.0596491 0
0.0786707 -0.0593963 0
0.0784111 -0.0591319 0
0.0781372 -0.0588542 0
0.0778566 -0.0585548 0
0.0775715 -0.0582308 0
0.0772803 -0.0578828 0
0.0769832 -0.0575099 0
0.0766822 -0.0571097 0
0.0763801 -0.0566796 0
0.0760759 -0.0562196 0
0.0757623 -0.0557337 0
0.0754359 -0.0552232 0
0.0750951 -0.0546879 0
0.0747379 -0.054128 0
0.0743626 -0.0535435 0
0.0739688 -0.0529338 0
0.0735559 -0.0522981 0
0.0731238 -0.0516357 0
0.0726718 -0.050946 0
0.0721991 -0.0502288 0
0.0717046 -0.049484 0
0.0711872 -0.0487117 0
0.0706461 -0.047912 0
0.0700804 -0.0470849 0
0.0694892 -0.0462308 0
0.0688718 -0.0453499 0
0.0682271 -0.0444431 0
0.0675544 -0.043511 0
0.0668527 -0.0425546 0
0.0661215 -0.0415748 0
0.06536 -0.040573 0
0.0645676 -0.0395504 0
0.0637439 -0.0385087 0
0.0628887 -0.0374493 0
0.062002 -0.0363741 0
0.0610838 -0.0352847 0
0.0601345 -0.0341831 0
0.0591547 -0.033071 0
0.0581456 -0.0319502 0
0.0571083 -0.0308224 0
0.0560444 -0.0296893 0
0.0549562 -0.028552 0
0.053845 -0.0274126 0
0.0527113 -0.0262746 0
0.051554 -0.0251427 0
0.0503724 -0.0240222 0
0.0491675 -0.0229164 0
0.047941 -0.0218282 0
0.0466955 -0.0207597 0
0.0454337 -0.0197126 0
0.0441592 -0.0186878 0
0.0428751 -0.0176863 0
0.0415841 -0.0167097 0
0.0402878 -0.0157609 0
0.0389879 -0.0148428 0
0.0376864 -0.0139575 0
0.0363853 -0.013107 0
0.0350871 -0.0122931 0
0.0337942 -0.0115164 0
0.0325095 -0.0107772 0
0.0312357 -0.0100756 0
0.0299758 -0.00941024 0
0.0287337 -0.00877784 0
0.0275126 -0.00817571 0
0.0263139 -0.00760375 0
0.0251376 -0.00706528 0
0.0239829 -0.0065649 0
0.0228537 -0.00609619 0
0.0217522 -0.00565563 0
0.0206795 -0.00524226 0
0.0196364 -0.00485507 0
0.0186233 -0.00449318 0
0.0176408 -0.00415577 0
0.016689 -0.00384204 0
0.0157682 -0.00355115 0
0.0148783 -0.00328218 0
0.0140192 -0.00303468 0
0.0131906 -0.00280795 0
0.0123925 -0.00260016 0
0.0116246 -0.00241012 0
0.0108864 -0.00223769 0
0.0101774 -0.00208212 0
0.00949701 -0.00194206 0
0.00884483 -0.0018163 0
0.0082202 -0.0017039 0
0.00762247 -0.00160391 0
0.00705097 -0.00151528 0
0.006505 -0.00143697 0
0.0059838 -0.00136806 0
0.00548662 -0.00130772 0
0.00501265 -0.00125519 0
0.00456114 -0.00120954 0
0.00413136 -0.00116914 0
0.00372257 -0.00113251 0
0.00333398 -0.00109853 0
0.00296466 -0.00106798 0
0.00261363 -0.0010431 0
-0.052721 -0.0445996 0
-0.0508204 -0.0440823 0
-0.0489199 -0.0435651 0
-0.0470193 -0.0430478 0
-0.0451187 -0.0425306 0
-0.0432181 -0.0420134 0
-0.0413175 -0.0414961 0
-0.039417 -0.0409789 0
-0.0375164 -0.0404616 0
-0.0356158 -0.0399444 0
-0.0337152 -0.0394271 0
-0.0318146 -0.0389099 0
-0.0299141 -0.0383927 0
-0.0280135 -0.0378754 0
-0.0261129 -0.0373582 0
-0.0242123 -0.0368409 0
-0.0223117 -0.0363237 0
-0.0204112 -0.0358065 0
-0.0185106 -0.0352892 0
-0.01661 -0.034772 0
-0.0147094 -0.0342547 0
-0.0128088 -0.0337375 0
-0.0109083 -0.0332202 0
-0.00900769 -0.032703 0
-0.00710711 -0.0321858 0
-0.00520653 -0.0316685 0
-0.00330595 -0.0311513 0
-0.00140537 -0.030634 0
0.00190689 -0.0299614 0
0.00332271 -0.0298498 0
0.00474133 -0.0297825 0
0.00616136 -0.0297597 0
0.0075814 -0.0297814 0
0.00900007 -0.0298477 0
0.010416 -0.0299583 0
0.0118278 -0.0301127 0
0.0132342 -0.0303103 0
0.0146339 -0.0305504 0
0.0160259 -0.0308322 0
0.0174091 -0.0311546 0
0.0187824 -0.0315166 0
0.020145 -0.031917 0
0.0214961 -0.0323546 0
0.0228351 -0.032828 0
0.0241613 -0.0333361 0
0.0254744 -0.0338774 0
0.0267738 -0.0344507 0
0.0280592 -0.0350545 0
0.0293306 -0.0356877 0
0.0305875 -0.0363488 0
0.0318301 -0.0370367 0
0.0330581 -0.0377501 0
0.0342717 -0.0384879 0
0.0354708 -0.0392489 0
0.0366556 -0.0400321 0
0.0378262 -0.0408363 0
0.0389828 -0.0416607 0
0.0401254 -0.0425042 0
0.0412543 -0.0433659 0
0.0423698 -0.0442451 0
0.043472 -0.0451408 0
0.0445612 -0.0460523 0
0.0456375 -0.0469789 0
0.0467013 -0.0479199 0
0.0477529 -0.0488746 0
0.0487923 -0.0498424 0
0.04982 -0.0508227 0
0.0508362 -0.051815 0
0.051841 -0.0528187 0
0.0528348 -0.0538333 0
0.0538178 -0.0548584 0
0.0547903 -0.0558935 0
0.0557524 -0.0569382 0
0.0567045 -0.0579922 0
0.0576467 -0.0590549 0
0.0585792 -0.0601261 0
0.0595024 -0.0612055 0
0.0604163 -0.0622926 0
0.0613212 -0.0633873 0
0.0622174 -0.0644891 0
0.0631049 -0.0655979 0
0.0639841 -0.0667134 0
0.064855 -0.0678353 0
0.0657179 -0.0689633 0
0.0665729 -0.0700974 0
0.0674202 -0.0712372 0
0.06826 -0.0723826 0
0.0690925 -0.0735333 0
0.0699178 -0.0746892 0
0.070736 -0.0758501 0
0.0715473 -0.0770159 0
0.0723518 -0.0781863 0
0.0731498 -0.0793612 0
0.0739412 -0.0805405 0
0.0747264 -0.081724 0
0.0755053 -0.0829116 0
0.0762781 -0.0841033 0
0.0770449 -0.0852987 0
0.0778059 -0.0864979 0
0.0785611 -0.0877007 0
0.0793108 -0.088907 0
0.0814681 -0.0912706 0
0.0828814 -0.0924245 0
0.0842946 -0.0935783 0
0.0857079 -0.0947322 0
0.0871211 -0.095886 0
0.0885344 -0.0970399 0
0.0899476 -0.0981937 0
0.0913609 -0.0993476 0
0.0927741 -0.100501 0
0.0941874 -0.101655 0
0.0956006 -0.102809 0
0.0970139 -0.103963 0
0.0984272 -0.105117 0
0.0998404 -0.106271 0
0.101254 -0.107424 0
0.102667 -0.108578 0
0.10408 -0.109732 0
0.105493 -0.110886 0
0.106907 -0.11204 0
0.10832 -0.113194 0
0.109733 -0.114348 0
0.111146 -0.115501 0
0.11256 -0.116655 0
0.113973 -0.117809 0
0.115386 -0.118963 0
0.116799 -0.120117 0
0.118213 -0.121271 0
0.119626 -0.122424 0
0.121039 -0.123578 0
0.122452 -0.124732 0
0.123866 -0.125886 0
0.125279 -0.12704 0
0.126692 -0.128194 0
0.128105 -0.129348 0
0.129519 -0.130501 0
0.130932 -0.131655 0
0.132345 -0.132809 0
0.133758 -0.133963 0
0.135172 -0.133216 0
0.135172 -0.131316 0
0.135172 -0.129415 0
0.135172 -0.127514 0
0.135172 -0.125614 0
0.135172 -0.123713 0
0.135172 -0.121813 0
0.135172 -0.119912 0
0.135172 -0.118012 0
0.135172 -0.116111 0
0.135172 -0.11421 0
0.135172 -0.11231 0
0.135172 -0.110409 0
0.135172 -0.108509 0
0.135172 -0.106608 0
0.135172 -0.104708 0
0.135172 -0.102807 0
0.135172 -0.100906 0
0.135172 -0.0990058 0
0.135172 -0.0971052 0
0.135172 -0.0952046 0
0.135172 -0.0933041 0
0.135172 -0.0914035 0
0.135172 -0.0895029 0
0.135172 -0.0876023 0
0.135172 -0.0857017 0
0.135172 -0.0838012 0
0.135172 -0.0819006 0
0.133758 -0.0788462 0
0.132345 -0.0776923 0
0.130932 -0.0765385 0
0.129519 -0.0753846 0
0.128105 -0.0742308 0
0.126692 -0.0730769 0
0.125279 -0.0719231 0
0.123866 -0.0707692 0
0.122452 -0.0696154 0
0.121039 -0.0684615 0
0.119626 -0.0673077 0
0.118213 -0.0661538 0
0.116799 -0.065 0
0.115386 -0.0638462 0
0.113973 -0.0626923 0
0.11256 -0.0615385 0
0.111146 -0.0603846 0
0.109733 -0.0592308 0
0.10832 -0.0580769 0
0.106907 -0.0569231 0
0.105493 -0.0557692 0
0.10408 -0.0546154 0
0.102667 -0.0534615 0
0.101254 -0.0523077 0
0.0998404 -0.0511538 0
0.0984272 -0.05 0
0.0970139 -0.0488462 0
0.0956006 -0.0476923 0
[...]
CELL_DATA 13116
SCALARS rho float
LOOKUP_TABLE default
0.446641
0.526543
0.333275
0.561311
0.553961
0.539195
0.367774
0.556917
0.434149
0.557689
0.361068
0.328042
0.554135
0.378284
0.352357
0.539299
0.423891
0.552348
0.539412
0.374261
0.45041
0.371929
0.356053
0.55352
0.49979
0.511727
0.557748
0.312852
0.564341
0.517116
0.537148
0.34516
0.456934
0.373085
0.362638
0.448464
0.529718
0.536255
0.538376
0.542426
0.539576
0.559315
0.353672
0.32796
0.538742
0.539379
0.511071
0.541788
0.373385
0.437038
0.552646
0.365749
0.369244
0.418853
0.454191
0.477414
0.326186
0.550753
0.450694
0.355132
0.377368
0.558236
0.519978
0.538276
0.537353
0.352101
0.542435
0.534821
0.54344
0.537504
0.354116
0.51807
0.366772
0.326577
0.536603
0.357867
0.514332
0.550054
0.363429
0.550321
0.539052
0.514534
0.553379
0.541939
0.533139
0.42935
0.378668
0.53385
0.53016
0.352625
0.331656
0.527738
0.55513
0.534418
0.518699
0.483572
0.501111
0.53699
0.536785
0.511884
0.546149
0.477679
0.539521
0.350418
0.499574
0.36981
0.336027
0.39045
0.324242
0.571885
0.412475
0.509545
0.482382
0.541688
0.550763
0.542853
0.382138
0.352425
0.547442
0.544226
0.535201
0.358305
0.543794
0.343148
0.530746
0.38267
0.378762
0.437791
0.311008
0.440727
0.547617
0.542733
0.465689
0.375572
0.444068
0.472277
0.535594
0.545983
0.546246
0.544055
0.502605
0.513404
0.432166
0.503271
0.516251
0.365056
0.36053
0.508962
0.552428
0.549955
0.49094
0.541488
0.541667
0.353392
0.555225
0.534083
0.352323
0.549022
0.537038
0.534692
0.552865
0.364984
0.551899
0.351938
0.351794
0.556769
0.528502
0.551994
0.364483
0.43258
0.390389
0.535587
0.353255
0.4165
0.542065
0.355908
0.373876
0.368242
0.506782
0.538791
0.342578
0.386512
0.427986
0.530082
0.538898
0.446102
0.334557
0.53973
0.491501
0.393146
0.509504
0.507453
0.537649
0.349685
0.503469
0.539037
0.555885
0.539591
0.529189
0.341409
0.349897
0.568609
0.434326
0.353889
0.548755
0.538922
0.373192
0.491162
0.362574
0.349589
0.354064
0.540838
0.349885
0.374436
0.34826
0.352954
0.332529
0.538131
0.528613
0.418827
0.326252
0.542185
0.407899
0.343222
0.530367
0.557797
0.514568
0.331651
0.54215
0.370682
0.564139
0.338377
0.537592
0.513593
0.536847
0.537789
0.537766
0.369909
0.376933
0.536042
0.536525
0.538916
0.535762
0.537737
0.552259
0.375121
0.548965
0.555652
0.536802
0.354746
0.374045
0.539833
0.546907
0.537439
0.544344
0.436452
0.544173
0.361064
0.393417
0.341842
0.363466
0.48798
0.555739
0.513443
0.373526
0.537967
0.324991
0.407127
0.501044
0.356434
0.512102
0.555447
0.5363
0.550509
0.369715
0.536253
0.542699
0.536818
0.545847
0.363368
0.380292
0.348238
0.468928
0.359054
0.37325
0.311944
0.294021
0.532369
0.363841
0.533598
0.554371
0.328651
0.357563
0.325653
0.402789
0.313546
0.532667
0.475115
0.504984
0.35548
0.540582
0.565167
0.397317
0.356027
0.538525
0.54685
0.539525
0.334922
0.53916
0.35396
0.542224
0.558928
0.548583
0.558094
0.349771
0.542002
0.364869
0.539719
0.558023
0.551367
0.364402
0.312332
0.555989
0.340421
0.521177
0.558144
0.311996
0.546859
0.553177
0.344503
0.537813
0.555106
0.359526
0.548705
0.435968
0.554118
0.544702
0.441299
0.548402
0.375014
0.551972
0.325888
0.537894
0.473462
0.556693
0.333501
0.331346
0.534009
0.357252
0.548036
0.495901
0.377659
0.535654
0.343616
0.369234
0.546119
0.518528
0.533585
0.380858
0.351914
0.548833
0.554235
0.359776
0.553275
0.385275
0.368731
0.542872
0.546955
0.381373
0.349739
0.545987
0.537311
0.539324
0.537088
0.549857
0.490338
0.277247
0.361546
0.343464
0.539224
0.344488
0.426311
0.318593
0.340122
0.326369
0.38826
0.13271
0.355451
0.534572
0.284761
0.552385
0.541436
0.540191
0.528517
0.549469
0.367255
0.378775
0.346889
0.289045
0.546105
0.479479
0.539715
0.551847
0.517411
0.49849
0.51316
0.499315
0.515132
0.548808
0.550025
0.538858
0.347442
0.380468
0.443671
0.373022
0.472443
0.474565
0.371671
0.542543
0.536393
0.350417
0.372776
0.359608
0.335976
0.586296
0.354792
0.349724
0.541342
0.329848
0.508509
0.357557
0.539153
0.538571
0.298728
0.376197
0.545791
0.406696
0.357997
0.333723
0.348383
0.327678
0.370439
0.373323
0.366818
0.405263
0.359214
0.475283
0.324662
0.532715
0.32046
0.378103
0.485774
0.368358
0.352104
0.364599
0.54012
0.403569
0.563788
0.392629
0.332035
0.492789
0.531651
0.428449
0.546562
0.498898
0.4978
0.35286
0.536889
0.353874
0.550706
0.537062
0.34495
0.36895
0.490446
0.291726
0.442314
0.475418
0.335126
0.549079
0.518303
0.344554
0.370738
0.354015
0.413302
0.353989
0.363527
0.352813
0.365763
0.558982
0.559369
0.407504
0.512846
0.44198
0.503029
0.32336
0.362553
0.437266
0.344683
0.542067
0.282177
0.343766
0.462563
0.538383
0.52528
0.526516
0.310898
0.369053
0.552549
0.556901
0.537754
0.549058
0.502449
0.487099
0.359651
0.537876
0.51064
0.535961
0.288111
0.317026
0.540993
0.556239
0.528053
0.558115
0.525534
0.512339
0.552039
0.539856
0.54007
0.346933
0.53826
0.323977
0.361395
0.37131
0.560222
0.539214
0.288594
0.532555
0.584624
0.364441
0.537923
0.546335
0.546488
0.312521
0.361534
0.548922
0.358258
0.365271
0.34625
0.360093
0.540589
0.360989
0.560025
0.327844
0.526996
0.551681
0.542456
0.554406
0.358331
0.35346
0.540449
0.565162
0.52257
0.558774
0.555497
0.484058
0.343271
0.34324
0.539846
0.438309
0.360402
0.409988
0.337571
0.5423
0.540307
0.288124
0.370445
0.531294
0.45197
0.535069
0.576237
0.31114
0.371255
0.519593
0.53645
0.350664
0.524306
0.528358
0.539938
0.360325
0.53573
0.323355
0.536764
0.535405
0.351256
0.333315
0.372255
0.536774
0.308627
0.364997
0.350374
0.538092
0.544823
0.364482
0.389709
0.356936
0.538089
0.363649
0.538946
0.367662
0.520204
0.557866
0.322737
0.353337
0.355589
0.484684
0.342763
0.518455
0.33764
0.361063
0.538805
0.360363
0.540575
0.518492
0.536875
0.372817
0.5425
0.553996
0.555608
0.540094
0.533432
0.54266
0.355073
0.537666
0.420622
0.538334
0.366513
0.552809
0.4171
0.366036
0.537198
0.551184
0.362682
0.501549
0.331672
0.352656
0.54121
0.539842
0.325201
0.361063
0.363954
0.360983
0.540601
0.5536
0.361185
0.336838
0.548036
0.54584
0.520578
0.553576
0.540149
0.363982
0.55675
0.39587
0.552493
0.350209
0.483619
0.457875
0.541729
0.534452
0.540797
0.314468
0.329194
0.539666
0.573386
0.422895
0.553219
0.364052
0.541241
0.554961
0.351842
0.37816
0.554269
0.311825
0.537334
0.536687
0.308663
0.545212
0.517474
0.352038
0.544008
0.348136
0.52789
0.348456
0.540637
0.518671
0.340638
0.538319
0.552233
0.54961
0.584185
0.538907
0.555667
0.358365
0.356513
0.329458
0.339337
0.535307
0.532797
0.544478
0.55197
0.349314
0.351585
0.541633
0.558437
0.546168
0.55552
0.367403
0.550194
0.555529
0.374138
0.344212
0.54762
0.539732
0.530564
0.365708
0.570247
0.28001
0.543423
0.517106
0.537809
0.531808
0.359143
0.538211
0.533437
0.554448
0.539176
0.539532
0.417255
0.549567
0.350456
0.501168
0.556579
0.430487
0.519352
0.537897
0.551294
0.344373
0.357786
0.555943
0.525645
0.359113
0.351222
0.354015
0.357558
0.528253
0.540957
0.537694
0.29213
0.360187
0.543267
0.546044
0.366006
0.35104
0.427197
0.52875
0.539679
0.536685
0.547674
0.349263
0.359698
0.535875
0.342469
0.372981
0.343044
0.539202
0.280949
0.358226
0.470416
0.539459
0.506719
0.538738
0.539567
0.384739
0.354977
0.351991
0.392717
0.405275
0.336547
0.533707
0.547477
0.527675
0.540582
0.372808
0.370824
0.557944
0.364727
0.539403
0.518357
0.537182
0.325173
0.349028
0.524101
0.537134
0.455513
0.361517
0.534521
0.5389
0.467409
0.55005
0.555117
0.536041
0.502522
0.367879
0.539562
0.537277
0.494656
0.543715
0.535382
0.510615
0.536147
0.545228
0.360399
0.364323
0.369765
0.537307
0.415904
0.362963
0.541461
0.548503
0.321881
0.507106
0.2838
0.510765
0.387014
0.372225
0.558521
0.553217
0.358806
0.536223
0.537324
0.320575
0.534531
0.371515
0.369079
0.49555
0.509401
0.48378
0.539539
0.353516
0.551772
0.371607
0.356797
0.540457
0.359871
0.487157
0.341003
0.506459
0.486822
0.536095
0.526855
0.358549
0.36078
0.491017
0.355043
0.545955
0.381054
0.477801
0.53913
0.554307
0.365592
0.570665
0.505737
0.556086
0.543151
0.328982
0.362713
0.515872
0.50453
0.556512
0.33593
0.53947
0.456948
0.347212
0.330991
0.550894
0.529392
0.535912
0.536685
0.478785
0.54209
0.538362
0.534923
0.344484
0.530832
0.423473
0.545981
0.539315
0.286995
0.519847
0.552803
0.373214
0.363181
0.335696
0.535409
0.364756
0.49556
0.547248
0.535245
0.361177
0.534315
0.367347
0.568942
0.538145
0.537581
0.532497
0.538057
0.507435
0.538121
0.429826
0.53798
0.345763
0.539141
0.542307
0.341099
0.536336
0.541878
0.346777
0.36038
0.318011
0.548935
0.35647
0.536183
0.349066
0.556321
0.368444
0.460176
0.357152
0.55033
0.554842
0.434763
0.255735
0.506347
0.538202
0.349237
0.514937
0.559636
0.337412
0.479851
0.536976
0.557557
0.539607
0.343186
0.388308
0.54719
0.539799
0.502225
0.353339
0.355082
0.535778
0.535798
0.536428
0.53573
0.446257
0.543021
0.442968
0.5442
0.354454
0.363418
0.535787
0.553124
0.538161
0.350589
0.539221
0.451756
0.482739
0.359141
0.395965
0.553567
0.564108
0.480532
0.286045
0.540289
0.536459
0.365979
0.51033
0.547535
0.364853
0.384639
0.361572
0.491213
0.366496
0.346898
0.537222
0.386822
0.556681
0.51145
0.366525
0.355457
0.557949
0.370246
0.355819
0.537138
0.369696
0.321876
0.482164
0.530628
0.542696
0.357915
0.259254
0.357264
0.519505
0.369039
0.543136
0.355272
0.542029
0.508313
0.538139
0.506968
0.537342
0.515635
0.539749
0.554105
0.544983
0.361337
0.354236
0.532166
0.538421
0.496324
0.498978
0.466502
0.538266
0.493452
0.30027
0.543483
0.55909
0.536667
0.355033
0.538817
0.32894
0.541991
0.488913
0.550495
0.540184
0.372163
0.546127
0.358394
0.359696
0.520805
0.344285
0.546579
0.535444
0.54755
0.337752
0.541273
0.35334
0.325874
0.339245
0.347286
0.487985
0.354881
0.505164
0.537979
0.288821
0.349531
0.473618
0.544005
0.507447
0.503726
0.371596
0.362287
0.360353
0.358189
0.254847
0.506556
0.513161
0.308213
0.537868
0.546882
0.363063
0.559017
0.546108
0.538052
0.355829
0.536559
0.537949
0.549667
0.546186
0.353303
0.543648
0.550775
0.539247
0.560381
0.538562
0.374303
0.343171
0.541584
0.518203
0.349743
0.540226
0.352643
0.551931
0.501427
0.526467
0.529056
0.33034
0.497821
0.342981
0.356874
0.547054
0.54929
0.552649
0.548496
0.523749
0.325859
0.555123
0.356267
0.495233
0.556368
0.536776
0.54682
0.35535
0.39421
0.556155
0.385772
0.54846
0.560512
0.390078
0.364013
0.543024
0.343495
0.540126
0.548138
0.521431
0.342741
0.368249
0.438982
0.424831
0.49829
0.406616
0.53889
0.503809
0.53449
0.535241
0.542709
0.366009
0.365153
0.549803
0.538537
0.499886
0.43391
0.353608
0.535795
0.355388
0.54017
0.577743
0.275198
0.545757
0.361164
0.522925
0.335763
0.553116
0.36636
0.541489
0.538655
0.308425
0.532399
0.524193
0.295249
0.537693
0.539268
0.462392
0.368914
0.326546
0.39722
0.554356
0.488719
0.337663
0.56656
0.544434
0.53879
0.351579
0.489334
0.530663
0.452581
0.538868
0.539806
0.280949
0.54452
0.536901
0.334077
0.482461
0.33572
0.509223
0.34667
0.369091
0.55595
0.348197
0.355511
0.35924
0.541946
0.52463
0.351284
0.5403
0.32692
0.527897
0.353505
0.527208
0.319138
0.539279
0.541837
0.515331
0.537727
0.539769
0.538648
0.538048
0.303993
0.544617
0.519199
0.400552
0.542259
0.481066
0.353371
0.554911
0.341231
0.49954
0.27602
0.539644
0.366854
0.349437
0.553353
0.539782
0.349974
0.545052
0.547631
0.535373
0.555221
0.536703
0.366871
0.558473
0.373498
0.35101
0.531422
0.548378
0.55874
0.532812
0.344136
0.347824
0.35917
0.527564
0.537925
0.328204
0.53761
0.371746
0.344541
0.358995
0.532019
0.350925
0.556286
0.545311
0.546169
0.53928
0.544428
0.465508
0.510416
0.417717
0.367808
0.352293
0.53669
0.536551
0.355505
0.505937
0.489281
0.511682
0.344664
0.339765
0.506456
0.268878
0.501679
0.479639
0.374282
0.538324
0.529489
0.365011
0.542212
0.355353
0.544249
0.557257
0.537662
0.356754
0.458674
0.544349
0.284532
0.435179
0.539078
0.290931
0.538438
0.543007
0.511607
0.547951
0.281218
0.537148
0.546546
0.539707
0.346889
0.549907
0.374871
0.371091
0.53389
0.539881
0.537875
0.227653
0.54047
0.560334
0.536593
0.362635
0.383402
0.357922
0.547294
0.365457
0.358065
0.352839
0.478081
0.354819
0.288567
0.426264
0.543046
0.369447
0.537716
0.538151
0.541927
0.337434
0.54353
0.525488
0.537837
0.396698
0.552905
0.358983
0.342766
0.541092
0.35846
0.502652
0.543666
0.536022
0.372283
0.312551
0.362103
0.545475
0.535764
0.225093
0.53675
0.541754
0.548716
0.348019
0.356767
0.328974
0.488276
0.358652
0.535333
0.573689
0.538293
0.536438
0.362001
0.502895
0.352761
0.459622
0.559573
0.558341
0.46301
0.396907
0.539987
0.502552
0.550472
0.339601
0.315786
0.323978
0.550095
0.442431
0.536795
0.372929
0.364495
0.549883
0.543403
0.537458
0.359967
0.542559
0.543668
0.542111
0.490419
0.342418
0.367325
0.279264
0.539937
0.537972
0.561616
0.501565
0.325334
0.548465
0.54213
0.537991
0.537747
0.547925
0.558971
0.539044
0.547276
0.552297
0.342631
0.544655
0.549213
0.53892
0.546049
0.539699
0.467983
0.368147
0.371142
0.497333
0.348786
0.28512
0.542076
0.354118
0.574591
0.542849
0.524895
0.537172
0.34642
0.543411
0.335673
0.371663
0.539192
0.542384
0.540718
0.336736
0.552518
0.539619
0.495821
0.53954
0.373737
0.538775
0.556447
0.529808
0.343471
0.551311
0.353385
0.563024
0.351109
0.368309
0.428425
0.413736
0.55845
0.551286
0.539535
0.357168
0.538689
0.352557
0.353069
0.521672
0.482442
0.352467
0.539555
0.369479
0.505213
0.534172
0.510782
0.528401
0.478041
0.574975
0.526424
0.539508
0.466111
0.552595
0.51336
0.563064
0.49876
0.520843
0.373196
0.364521
0.413457
0.54852
0.346226
0.534017
0.545436
0.48918
0.539625
0.426199
0.543773
0.53599
0.353298
0.544481
0.494661
0.404563
0.497025
0.555861
0.519466
0.538474
0.347727
0.360675
0.538932
0.444262
0.444431
0.545777
0.54174
0.540691
0.556233
0.557078
0.50124
0.501991
0.558324
0.35698
0.367978
0.368032
0.304699
0.536351
0.405727
0.440059
0.545499
0.539548
0.349096
0.537899
0.561229
0.336982
0.348971
0.536299
0.54588
0.342403
0.343837
0.351098
0.535279
0.511063
0.346373
0.367964
0.374471
0.368159
0.30182
0.349532
0.56265
0.541883
0.540344
0.342433
0.52564
0.489251
0.581523
0.325807
0.373005
0.520296
0.535718
0.357929
0.5391
0.365063
0.553066
0.344091
0.541486
0.330761
0.52824
0.554242
0.340167
0.544973
0.372897
0.558694
0.370764
0.492087
0.354726
0.426482
0.358412
0.485542
0.349214
0.537625
0.537627
0.575277
0.536581
0.314763
0.527458
0.538233
0.55326
0.48756
0.528554
0.373488
0.341544
0.335421
0.555109
0.278257
0.552572
0.504954
0.548207
0.557466
0.382428
0.549386
0.353638
0.376057
0.355504
0.436092
0.427233
0.541275
0.353923
0.374869
0.54016
0.368142
0.343763
0.451437
0.341702
0.358027
0.372081
0.560292
0.56326
0.49531
0.357183
0.525134
0.540193
0.371871
0.311345
0.533629
0.539466
0.461545
0.507775
0.401823
0.346319
0.351249
0.540661
0.49435
0.43373
0.54529
0.359625
0.466068
0.36192
0.53727
0.55249
0.373975
0.388374
0.499131
0.446811
0.554126
0.552237
0.554514
0.545766
0.556495
0.350915
0.371522
0.324384
0.362985
0.440836
0.537148
0.56308
0.363725
0.370634
0.37776
0.38299
0.540688
0.509974
0.349811
0.288665
0.542769
0.344685
0.525246
0.551163
0.521399
0.538657
0.449698
0.365263
0.328516
0.498115
0.374382
0.358324
0.347751
0.538336
0.540342
0.339106
0.372792
0.535593
0.34861
0.54106
0.555103
0.3693
0.373886
0.366803
0.542571
0.38186
0.535425
0.544226
0.488798
0.338637
0.513961
0.54964
0.535035
0.367488
0.533123
0.498784
0.381468
0.547152
0.565577
0.354737
0.347925
0.523332
0.352866
0.366142
0.530177
0.333402
0.540958
0.544725
0.554662
0.503947
0.552979
0.542602
0.538604
0.362525
0.396275
0.50704
0.540735
0.458037
0.558837
0.301108
0.544961
0.529464
0.475852
0.522394
0.341424
0.417107
0.538463
0.550671
0.496598
0.554457
0.541418
0.536013
0.554569
0.535444
0.534522
0.523402
0.54492
0.535809
0.538684
0.310624
0.516654
0.305354
0.542732
0.544707
0.54886
0.514694
0.547705
0.372399
0.358596
0.288191
0.366983
0.519859
0.339329
0.355842
0.539995
0.364672
0.546812
0.352335
0.530316
0.543933
0.347815
0.370816
0.27575
0.547614
0.320919
0.540752
0.545928
0.362679
0.518477
0.517313
0.29425
0.315597
0.364998
0.549476
0.348739
0.543793
0.423284
0.370604
0.539283
0.539686
0.554556
0.364487
0.471205
0.353298
0.527002
0.538595
0.542883
0.358561
0.540074
0.545865
0.505432
0.367862
0.547512
0.363894
0.359282
0.538637
0.402241
0.556943
0.353888
0.358369
0.425711
0.511096
0.30946
0.254218
0.35121
0.397713
0.536696
0.545323
0.372769
0.484838
0.541746
0.548061
0.352299
0.27095
0.520389
0.360303
0.360153
0.538632
0.358175
0.359283
0.549922
0.560174
0.339408
0.551413
0.354154
0.536201
0.307642
0.522906
0.537578
0.548626
0.538231
0.374867
0.360634
0.344819
0.538911
0.524687
0.573138
0.46891
0.359862
0.290398
0.539083
0.361662
0.541295
0.368051
0.537709
0.535842
0.329449
0.323965
0.359222
0.373151
0.316726
0.498326
0.521693
0.331471
0.544143
0.513835
0.359128
0.354027
0.559908
0.35058
0.543492
0.413558
0.548192
0.526633
0.543399
0.536806
0.356974
0.557034
0.541579
0.562147
0.348003
0.492944
0.571507
0.281176
0.548475
0.51279
0.559832
0.525786
0.556556
0.537803
0.557854
0.539038
0.539382
0.3486
0.554026
0.359263
0.383881
0.538865
0.347282
0.531446
0.493067
0.375876
0.50634
0.348044
0.331511
0.533959
0.486061
0.559817
0.350183
0.525592
0.523667
0.299624
0.338717
0.523607
0.540183
0.355586
0.360623
0.546874
0.559573
0.365636
0.5171
0.554941
0.573523
0.326917
0.36391
0.343147
0.527983
0.366448
0.533634
0.550165
0.539165
0.489213
0.544016
0.349533
0.530213
0.580614
0.554098
0.460802
0.34592
0.36576
0.365882
0.553358
0.546649
0.411805
0.525181
0.258504
0.5166
0.543956
0.364271
0.497844
0.534333
0.503856
0.340754
0.378834
0.294652
0.547828
0.556819
0.522877
0.505616
0.543667
0.357709
0.513615
0.536402
0.540262
0.341894
0.586396
0.37494
0.498318
0.368227
0.53972
0.534125
0.357818
0.547475
0.357549
0.535775
0.513895
0.535308
0.548023
0.360547
0.538958
0.539909
0.540811
0.540331
0.47696
0.536351
0.363417
0.540157
0.363918
0.351754
0.362845
0.318535
0.359651
0.336131
0.556722
0.350965
0.355916
0.527194
0.547835
0.523275
0.349064
0.544943
0.544716
0.538513
0.323715
0.470491
0.542429
0.352707
0.353142
0.361458
0.507874
0.502055
0.371111
0.475346
0.373874
0.536823
0.49364
0.377156
0.453999
0.523809
0.290263
0.540442
0.356975
0.392263
0.353246
0.542421
0.355758
0.522759
0.536461
0.483516
0.349694
0.362513
0.538804
0.558972
0.357435
0.32576
0.539045
0.372545
0.551025
0.344108
0.529853
0.366556
0.54249
0.370348
0.558025
0.351176
0.543861
0.544515
0.551184
0.536319
0.3658
0.352189
0.34739
0.514162
0.539386
0.509995
0.429685
0.374702
0.548389
0.273807
0.52295
0.476168
0.353671
0.368036
0.552193
0.539459
0.355402
0.537308
0.542433
0.551938
0.554701
0.356962
0.515523
0.358051
0.551886
0.36691
0.537975
0.518976
0.529259
0.558462
0.362809
0.562833
0.348183
0.3579
0.540883
0.536408
0.458498
0.539425
0.536315
0.353854
0.552618
0.539886
0.556612
0.327636
0.389523
0.542218
0.338452
0.545376
0.545369
0.533236
0.544154
0.276342
0.380307
0.526183
0.361175
0.529436
0.559236
0.403342
0.53183
0.258323
0.499598
0.55279
0.543593
0.532465
0.377737
0.350155
0.54151
0.531848
0.376276
0.300837
0.372751
0.354857
0.357152
0.37163
0.302955
0.348783
0.541169
0.362245
0.328684
0.54612
0.454815
0.53563
0.367875
0.372729
0.542269
0.402665
0.396292
0.555499
0.343031
0.538248
0.537792
0.560417
0.52876
0.321603
0.545563
0.538238
0.363377
0.359538
0.353391
0.490866
0.552981
0.55651
0.539494
0.540859
0.531242
0.316188
0.546057
0.538325
0.524239
0.364934
0.542981
0.469653
0.30937
0.399547
0.365392
0.355751
0.362363
0.486422
0.535058
0.53304
0.359187
0.379
0.554852
0.313541
0.54615
0.540011
0.533471
0.545405
0.543243
0.354416
0.355378
0.372421
0.463889
0.369182
0.541746
0.359628
0.541168
0.538927
0.544378
0.314787
0.387079
0.363252
0.544235
0.362284
0.361927
0.541981
0.528559
0.499532
0.539253
0.520363
0.550655
0.362993
0.578973
0.553152
0.522195
0.54337
0.547628
0.551237
0.452464
0.412887
0.557642
0.488886
0.494847
0.353585
0.516246
0.53377
0.342562
0.365499
0.525552
0.452166
0.551191
0.546166
0.348816
0.374027
0.536932
0.321271
0.353552
0.534857
0.524196
0.375126
0.536637
0.537076
0.51594
0.366676
0.490427
0.363856
0.53683
0.552242
0.55049
0.531073
0.537143
0.294627
0.324276
0.539635
0.349217
0.579054
0.373978
0.544013
0.370146
0.520499
0.552903
0.537
0.358249
0.535391
0.536529
0.362034
0.516675
0.35258
0.561079
0.3579
0.329576
0.353603
0.537251
0.538416
0.311779
0.284094