# vtk DataFile Version 1.0
unstructured grid
ascii
DATASET UNSTRUCTURED_GRID
points 13672 float
0.0796578 -0.059106 0
0.00128732 0.00159165 0
0.00227961 -0.00102548 0
0.0791586 -0.0598787 0
-0.0546216 0.01 0
0.000495206 0.025 0
0.0800549 -0.035 0
0.135172 -0.08 0
-0.0546216 -0.0451168 0
0.000495206 -0.0301168 0
0.0800549 -0.0901168 0
0.135172 -0.135117 0
-0.0546216 -0.0451168 -0.00551168
0.000495206 -0.0301168 -0.00551168
0.0800549 -0.0901168 -0.00551168
0.135172 -0.135117 -0.00551168
0.135172 -0.08 -0.00551168
0.0800549 -0.035 -0.00551168
0.000495206 0.025 -0.00551168
-0.0546216 0.01 -0.00551168
0.00128732 0.00159165 -0.00551168
0.00227961 -0.00102548 -0.00551168
0.0791586 -0.0598787 -0.00551168
0.0796578 -0.059106 -0.00551168
0.00165953 -0.000990923 0
0.00119576 -0.000874076 0
0.000866021 -0.000641801 0
0.000645147 -0.000349912 0
0.00052235 -1.7281e-05 0
0.00049972 0.000348016 0
0.000601632 0.000737716 0
0.000861774 0.0011403 0
0.00157235 0.00183217 0
0.00188647 0.00206725 0
0.00222612 0.00230203 0
0.00258713 0.00254351 0
0.00296826 0.00279524 0
0.00337118 0.00305664 0
0.00379785 0.00332658 0
0.00425045 0.00360349 0
0.00473139 0.00388521 0
0.0052432 0.00416895 0
0.0057881 0.00445204 0
0.00636753 0.00473281 0
0.00698281 0.00500961 0
0.00763526 0.00528058 0
0.00832616 0.00554366 0
0.00905691 0.00579603 0
0.00982918 0.00603333 0
0.0106445 0.00625033 0
0.0115038 0.00644128 0
0.0124073 0.00660297 0
0.0133543 0.00673414 0
0.0143444 0.00683382 0
0.0153769 0.00690031 0
0.0164512 0.00693173 0
0.0175666 0.00692547 0
0.0187219 0.00687822 0
0.0199156 0.00678477 0
0.0211454 0.00663864 0
0.0224084 0.00643275 0
0.0237018 0.00616676 0
0.0250249 0.00584739 0
0.026375 0.00547298 0
0.0277479 0.00503752 0
0.0291386 0.00453545 0
0.0305433 0.0039653 0
0.0319572 0.0033256 0
0.0333681 0.00260019 0
0.034775 0.00179799 0
0.0361793 0.000930615 0
0.0375798 3.12222e-06 0
0.0389689 -0.000988429 0
0.0403357 -0.00205109 0
0.041675 -0.00318283 0
0.0429849 -0.00437751 0
0.0442643 -0.00562904 0
0.0455126 -0.00693089 0
0.0467314 -0.00827518 0
0.0479204 -0.00965638 0
0.0490661 -0.0110799 0
0.0501515 -0.0125519 0
0.0511696 -0.0140695 0
0.0521492 -0.0156071 0
0.0531202 -0.0171411 0
0.0540851 -0.0186663 0
0.0550431 -0.0201798 0
0.0559923 -0.0216793 0
0.0569311 -0.0231626 0
0.0578582 -0.0246273 0
0.0587723 -0.0260715 0
0.0596721 -0.027493 0
0.0605563 -0.02889 0
0.0614241 -0.0302609 0
0.0622742 -0.0316042 0
0.063106 -0.0329183 0
0.0639186 -0.034202 0
0.0647113 -0.0354543 0
0.0654835 -0.0366743 0
0.0662345 -0.0378613 0
0.0669642 -0.0390145 0
0.0676726 -0.0401333 0
0.0683597 -0.0412172 0
0.0690246 -0.0422665 0
0.0696662 -0.0432819 0
0.0702841 -0.0442636 0
0.0708793 -0.0452111 0
0.0714538 -0.0461237 0
0.072009 -0.047001 0
0.0725452 -0.0478434 0
0.0730611 -0.0486524 0
0.073556 -0.0494294 0
0.0740291 -0.0501756 0
0.0744812 -0.0508916 0
0.0749138 -0.0515773 0
0.0753285 -0.0522331 0
0.0757266 -0.0528592 0
0.076109 -0.0534564 0
0.0764753 -0.0540264 0
0.0768243 -0.054571 0
0.0771553 -0.0550919 0
0.0774679 -0.0555901 0
0.0777617 -0.0560669 0
0.0780369 -0.056523 0
0.0782958 -0.0569578 0
0.0785421 -0.0573703 0
0.0787786 -0.0577603 0
0.0790073 -0.0581279 0
0.0792295 -0.058474 0
0.0794462 -0.0587995 0
0.0798803 -0.0594162 0
0.0800272 -0.0596588 0
0.0800357 -0.0598891 0
0.0799275 -0.0600784 0
0.0797205 -0.0601773 0
0.0794593 -0.0601051 0
0.0789155 -0.0596491 0
0.0786707 -0.0593963 0
0.0784111 -0.0591319 0
0.0781372 -0.0588542 0
0.0778566 -0.0585548 0
0.0775715 -0.0582308 0
0.0772803 -0.0578828 0
0.0769832 -0.0575099 0
0.0766822 -0.0571097 0
0.0763801 -0.0566796 0
0.0760759 -0.0562196 0
0.0757623 -0.0557337 0
0.0754359 -0.0552232 0
0.0750951 -0.0546879 0
0.0747379 -0.054128 0
0.0743626 -0.0535435 0
0.0739688 -0.0529338 0
0.0735559 -0.0522981 0
0.0731238 -0.0516357 0
0.0726718 -0.050946 0
0.0721991 -0.0502288 0
0.0717046 -0.049484 0
0.0711872 -0.0487117 0
0.0706461 -0.047912 0
0.0700804 -0.0470849 0
0.0694892 -0.0462308 0
0.0688718 -0.0453499 0
0.0682271 -0.0444431 0
0.0675544 -0.043511 0
0.0668527 -0.0425546 0
0.0661215 -0.0415748 0
0.06536 -0.040573 0
0.0645676 -0.0395504 0
0.0637439 -0.0385087 0
0.0628887 -0.0374493 0
0.062002 -0.0363741 0
0.0610838 -0.0352847 0
0.0601345 -0.0341831 0
0.0591547 -0.033071 0
0.0581456 -0.0319502 0
0.0571083 -0.0308224 0
0.0560444 -0.0296893 0
0.0549562 -0.028552 0
0.053845 -0.0274126 0
0.0527113 -0.0262746 0
0.051554 -0.0251427 0
0.0503724 -0.0240222 0
0.0491675 -0.0229164 0
0.047941 -0.0218282 0
0.0466955 -0.0207597 0
0.0454337 -0.0197126 0
0.0441592 -0.0186878 0
0.0428751 -0.0176863 0
0.0415841 -0.0167097 0
0.0402878 -0.0157609 0
0.0389879 -0.0148428 0
0.0376864 -0.0139575 0
0.0363853 -0.013107 0
0.0350871 -0.0122931 0
0.0337942 -0.0115164 0
0.0325095 -0.0107772 0
0.0312357 -0.0100756 0
0.0299758 -0.00941024 0
0.0287337 -0.00877784 0
0.0275126 -0.00817571 0
0.0263139 -0.00760375 0
0.0251376 -0.00706528 0
0.0239829 -0.0065649 0
0.0228537 -0.00609619 0
0.0217522 -0.00565563 0
0.0206795 -0.00524226 0
0.0196364 -0.00485507 0
0.0186233 -0.00449318 0
0.0176408 -0.00415577 0
0.016689 -0.00384204 0
0.0157682 -0.00355115 0
0.0148783 -0.00328218 0
0.0140192 -0.00303468 0
0.0131906 -0.00280795 0
0.0123925 -0.00260016 0
0.0116246 -0.00241012 0
0.0108864 -0.00223769 0
0.0101774 -0.00208212 0
0.00949701 -0.00194206 0
0.00884483 -0.0018163 0
0.0082202 -0.0017039 0
0.00762247 -0.00160391 0
0.00705097 -0.00151528 0
0.006505 -0.00143697 0
0.0059838 -0.00136806 0
0.00548662 -0.00130772 0
0.00501265 -0.00125519 0
0.00456114 -0.00120954 0
0.00413136 -0.00116914 0
0.00372257 -0.00113251 0
0.00333398 -0.00109853 0
0.00296466 -0.00106798 0
0.00261363 -0.0010431 0
-0.052721 -0.0445996 0
-0.0508204 -0.0440823 0
-0.0489199 -0.0435651 0
-0.0470193 -0.0430478 0
-0.0451187 -0.0425306 0
-0.0432181 -0.0420134 0
-0.0413175 -0.0414961 0
-0.039417 -0.0409789 0
-0.0375164 -0.0404616 0
-0.0356158 -0.0399444 0
-0.0337152 -0.0394271 0
-0.0318146 -0.0389099 0
-0.0299141 -0.0383927 0
-0.0280135 -0.0378754 0
-0.0261129 -0.0373582 0
-0.0242123 -0.0368409 0
-0.0223117 -0.0363237 0
-0.0204112 -0.0358065 0
-0.0185106 -0.0352892 0
-0.01661 -0.034772 0
-0.0147094 -0.0342547 0
-0.0128088 -0.0337375 0
-0.0109083 -0.0332202 0
-0.00900769 -0.032703 0
-0.00710711 -0.0321858 0
-0.00520653 -0.0316685 0
-0.00330595 -0.0311513 0
-0.00140537 -0.030634 0
0.00190689 -0.0299614 0
0.00332271 -0.0298498 0
0.00474133 -0.0297825 0
0.00616136 -0.0297597 0
0.0075814 -0.0297814 0
0.00900007 -0.0298477 0
0.010416 -0.0299583 0
0.0118278 -0.0301127 0
0.0132342 -0.0303103 0
0.0146339 -0.0305504 0
0.0160259 -0.0308322 0
0.0174091 -0.0311546 0
0.0187824 -0.0315166 0
0.020145 -0.031917 0
0.0214961 -0.0323546 0
0.0228351 -0.032828 0
0.0241613 -0.0333361 0
0.0254744 -0.0338774 0
0.0267738 -0.0344507 0
0.0280592 -0.0350545 0
0.0293306 -0.0356877 0
0.0305875 -0.0363488 0
0.0318301 -0.0370367 0
0.0330581 -0.0377501 0
0.0342717 -0.0384879 0
0.0354708 -0.0392489 0
0.0366556 -0.0400321 0
0.0378262 -0.0408363 0
0.0389828 -0.0416607 0
0.0401254 -0.0425042 0
0.0412543 -0.0433659 0
0.0423698 -0.0442451 0
0.043472 -0.0451408 0
0.0445612 -0.0460523 0
0.0456375 -0.0469789 0
0.0467013 -0.0479199 0
0.0477529 -0.0488746 0
0.0487923 -0.0498424 0
0.04982 -0.0508227 0
0.0508362 -0.051815 0
0.051841 -0.0528187 0
0.0528348 -0.0538333 0
0.0538178 -0.0548584 0
0.0547903 -0.0558935 0
0.0557524 -0.0569382 0
0.0567045 -0.0579922 0
0.0576467 -0.0590549 0
0.0585792 -0.0601261 0
0.0595024 -0.0612055 0
0.0604163 -0.0622926 0
0.0613212 -0.0633873 0
0.0622174 -0.0644891 0
0.0631049 -0.0655979 0
0.0639841 -0.0667134 0
0.064855 -0.0678353 0
0.0657179 -0.0689633 0
0.0665729 -0.0700974 0
0.0674202 -0.0712372 0
0.06826 -0.0723826 0
0.0690925 -0.0735333 0
0.0699178 -0.0746892 0
0.070736 -0.0758501 0
0.0715473 -0.0770159 0
0.0723518 -0.0781863 0
0.0731498 -0.0793612 0
0.0739412 -0.0805405 0
0.0747264 -0.081724 0
0.0755053 -0.0829116 0
0.0762781 -0.0841033 0
0.0770449 -0.0852987 0
0.0778059 -0.0864979 0
0.0785611 -0.0877007 0
0.0793108 -0.088907 0
0.0814681 -0.0912706 0
0.0828814 -0.0924245 0
0.0842946 -0.0935783 0
0.0857079 -0.0947322 0
0.0871211 -0.095886 0
0.0885344 -0.0970399 0
0.0899476 -0.0981937 0
0.0913609 -0.0993476 0
0.0927741 -0.100501 0
0.0941874 -0.101655 0
0.0956006 -0.102809 0
0.0970139 -0.103963 0
0.0984272 -0.105117 0
0.0998404 -0.106271 0
0.101254 -0.107424 0
0.102667 -0.108578 0
0.10408 -0.109732 0
0.105493 -0.110886 0
0.106907 -0.11204 0
0.10832 -0.113194 0
0.109733 -0.114348 0
0.111146 -0.115501 0
0.11256 -0.116655 0
0.113973 -0.117809 0
0.115386 -0.118963 0
0.116799 -0.120117 0
0.118213 -0.121271 0
0.119626 -0.122424 0
0.121039 -0.123578 0
0.122452 -0.124732 0
0.123866 -0.125886 0
0.125279 -0.12704 0
0.126692 -0.128194 0
0.128105 -0.129348 0
0.129519 -0.130501 0
0.130932 -0.131655 0
0.132345 -0.132809 0
0.133758 -0.133963 0
0.135172 -0.133216 0
0.135172 -0.131316 0
0.135172 -0.129415 0
0.135172 -0.127514 0
0.135172 -0.125614 0
0.135172 -0.123713 0
0.135172 -0.121813 0
0.135172 -0.119912 0
0.135172 -0.118012 0
0.135172 -0.116111 0
0.135172 -0.11421 0
0.135172 -0.11231 0
0.135172 -0.110409 0
0.135172 -0.108509 0
0.135172 -0.106608 0
0.135172 -0.104708 0
0.135172 -0.102807 0
0.135172 -0.100906 0
0.135172 -0.0990058 0
0.135172 -0.0971052 0
0.135172 -0.0952046 0
0.135172 -0.0933041 0
0.135172 -0.0914035 0
0.135172 -0.0895029 0
0.135172 -0.0876023 0
0.135172 -0.0857017 0
0.135172 -0.0838012 0
0.135172 -0.0819006 0
0.133758 -0.0788462 0
0.132345 -0.0776923 0
0.130932 -0.0765385 0
0.129519 -0.0753846 0
0.128105 -0.0742308 0
0.126692 -0.0730769 0
0.125279 -0.0719231 0
0.123866 -0.0707692 0
0.122452 -0.0696154 0
0.121039 -0.0684615 0
0.119626 -0.0673077 0
0.118213 -0.0661538 0
0.116799 -0.065 0
0.115386 -0.0638462 0
0.113973 -0.0626923 0
0.11256 -0.0615385 0
0.111146 -0.0603846 0
0.109733 -0.0592308 0
0.10832 -0.0580769 0
0.106907 -0.0569231 0
0.105493 -0.0557692 0
0.10408 -0.0546154 0
0.102667 -0.0534615 0
0.101254 -0.0523077 0
0.0998404 -0.0511538 0
0.0984272 -0.05 0
0.0970139 -0.0488462 0
0.0956006 -0.0476923 0
[...]
CELL_DATA 13116
SCALARS rho float
LOOKUP_TABLE default
0.427399
0.514847
0.292579
0.555928
0.54669
0.53382
0.319104
0.549723
0.410588
0.550499
0.318058
0.295189
0.54693
0.329468
0.31694
0.533876
0.402325
0.543177
0.531762
0.326947
0.431429
0.325281
0.326135
0.544685
0.474439
0.4951
0.550535
0.328516
0.473452
0.503329
0.533316
0.326906
0.432704
0.349315
0.317611
0.429523
0.51813
0.52691
0.533689
0.534108
0.533018
0.552505
0.331218
0.289504
0.530582
0.531607
0.49672
0.534334
0.320224
0.407644
0.545641
0.34463
0.320761
0.39666
0.431617
0.455758
0.292291
0.541915
0.418044
0.316833
0.329916
0.551742
0.507213
0.533666
0.533406
0.332648
0.535654
0.523541
0.536474
0.533435
0.31988
0.457132
0.32188
0.324255
0.533221
0.305038
0.501177
0.542649
0.319596
0.540733
0.528664
0.499461
0.544745
0.533978
0.523019
0.351334
0.326244
0.521359
0.518898
0.324547
0.310566
0.516274
0.546785
0.523385
0.505729
0.466028
0.476459
0.533394
0.533235
0.466248
0.52912
0.458164
0.532588
0.313505
0.48272
0.332958
0.281198
0.368425
0.328409
0.481502
0.39104
0.494169
0.464558
0.531503
0.54123
0.535825
0.329051
0.302814
0.539909
0.536879
0.523868
0.319911
0.536784
0.338208
0.518497
0.342428
0.326713
0.397582
0.322111
0.408934
0.540138
0.533708
0.392588
0.325904
0.377026
0.455021
0.533163
0.53879
0.528403
0.536657
0.488047
0.499466
0.396322
0.488741
0.503064
0.325596
0.31836
0.492699
0.54474
0.542474
0.424456
0.53352
0.534295
0.311048
0.547703
0.524181
0.325453
0.533619
0.533398
0.52161
0.543965
0.317902
0.543414
0.325619
0.316134
0.550178
0.516119
0.542793
0.317872
0.363284
0.329958
0.533125
0.318723
0.38432
0.535093
0.327307
0.321446
0.323032
0.490841
0.533525
0.304443
0.337472
0.407169
0.518487
0.533558
0.416193
0.297428
0.53284
0.472732
0.36019
0.495903
0.490902
0.533425
0.329033
0.48656
0.533833
0.547955
0.532481
0.517796
0.317514
0.313119
0.485572
0.393423
0.327693
0.540608
0.530098
0.35152
0.474151
0.326559
0.323247
0.302433
0.534694
0.324748
0.325038
0.323426
0.310355
0.286031
0.533263
0.515819
0.340987
0.291847
0.535492
0.386147
0.305356
0.43404
0.550972
0.501117
0.332404
0.535232
0.306537
0.556395
0.316125
0.533394
0.449218
0.533372
0.528415
0.533447
0.314931
0.336542
0.521579
0.533265
0.533749
0.533181
0.533277
0.544267
0.323078
0.541788
0.548365
0.533224
0.322298
0.321732
0.531431
0.539425
0.533365
0.536379
0.416301
0.533873
0.31766
0.328472
0.309274
0.327178
0.468684
0.547773
0.500148
0.322421
0.529329
0.317989
0.339001
0.484481
0.3195
0.49611
0.548683
0.533215
0.541653
0.315341
0.533205
0.532822
0.533227
0.53866
0.317233
0.327865
0.327625
0.451161
0.319876
0.325763
0.260496
0.24738
0.521961
0.32142
0.523318
0.547442
0.302146
0.319274
0.318715
0.354195
0.289507
0.520257
0.456722
0.488975
0.319612
0.534417
0.45933
0.328855
0.317274
0.533579
0.539396
0.532586
0.296187
0.533886
0.322798
0.533148
0.552302
0.541091
0.551406
0.329906
0.535231
0.325406
0.533494
0.551245
0.522226
0.321564
0.260252
0.548838
0.33087
0.508566
0.551671
0.285628
0.536069
0.544496
0.326318
0.529136
0.546699
0.320701
0.541371
0.352656
0.449778
0.533596
0.357902
0.53387
0.323393
0.54291
0.26968
0.533278
0.451856
0.54891
0.33232
0.279969
0.524123
0.314601
0.539952
0.477921
0.329505
0.533167
0.305468
0.317561
0.538065
0.434227
0.522309
0.328063
0.325112
0.541658
0.547251
0.318301
0.546371
0.332379
0.331757
0.535463
0.537102
0.357459
0.321111
0.538744
0.533397
0.533938
0.528089
0.541394
0.424584
0.257609
0.324501
0.301432
0.533925
0.30216
0.405523
0.289418
0.318125
0.275269
0.365371
0.110358
0.315252
0.524843
0.259924
0.544032
0.473119
0.532987
0.514919
0.542323
0.317637
0.327045
0.322153
0.264861
0.537816
0.461253
0.532846
0.473598
0.504397
0.48298
0.497879
0.484748
0.501081
0.540311
0.540309
0.533712
0.313955
0.357854
0.424195
0.32355
0.453698
0.454429
0.322758
0.535599
0.53325
0.330441
0.324401
0.323009
0.300027
0.493261
0.320695
0.329004
0.534959
0.325352
0.448906
0.323956
0.533446
0.528404
0.286465
0.326342
0.537639
0.355414
0.323347
0.298106
0.319159
0.328242
0.32828
0.324741
0.325308
0.338811
0.319421
0.455385
0.307216
0.522372
0.297698
0.357559
0.394862
0.333133
0.324145
0.330293
0.531755
0.343312
0.500856
0.370387
0.329755
0.476151
0.520762
0.350708
0.53571
0.483927
0.482781
0.327657
0.533372
0.304534
0.542195
0.533301
0.325726
0.324186
0.47145
0.267353
0.359093
0.454285
0.280392
0.532854
0.505401
0.303159
0.318772
0.31869
0.38084
0.316014
0.321296
0.318648
0.32583
0.552832
0.553345
0.359325
0.468733
0.376389
0.486303
0.275263
0.320493
0.414144
0.326006
0.533415
0.231004
0.291265
0.389325
0.530027
0.512308
0.439173
0.284265
0.324064
0.446465
0.549833
0.533543
0.443526
0.486308
0.467647
0.321244
0.527593
0.445691
0.52066
0.243045
0.292091
0.530721
0.5482
0.514061
0.551235
0.513614
0.495172
0.543028
0.521013
0.532945
0.311934
0.529811
0.266516
0.325809
0.325061
0.554796
0.530546
0.242622
0.522297
0.486636
0.321866
0.533374
0.53887
0.537488
0.328094
0.32045
0.541257
0.323059
0.308121
0.310196
0.322046
0.531512
0.322076
0.554772
0.307725
0.515367
0.544624
0.535718
0.547377
0.322847
0.3038
0.531875
0.557299
0.510365
0.552554
0.548149
0.390916
0.325871
0.328096
0.534058
0.412295
0.322553
0.355204
0.31461
0.532329
0.53326
0.243086
0.325194
0.520665
0.36569
0.525462
0.516144
0.32054
0.30723
0.507054
0.533274
0.326571
0.511356
0.515825
0.531326
0.312585
0.533139
0.301088
0.533354
0.519667
0.31949
0.285357
0.325412
0.533306
0.324431
0.318645
0.303227
0.533388
0.535834
0.319561
0.32431
0.323231
0.533507
0.321805
0.533734
0.325792
0.460178
0.55101
0.300163
0.325706
0.325565
0.391278
0.330582
0.503694
0.295667
0.321457
0.533402
0.320169
0.534536
0.505439
0.533371
0.301043
0.533982
0.545759
0.547664
0.534167
0.51977
0.535306
0.323998
0.533526
0.342819
0.52895
0.31791
0.54497
0.394569
0.318421
0.533296
0.543168
0.319431
0.487175
0.308964
0.319127
0.534903
0.531462
0.303664
0.324154
0.320072
0.331313
0.529713
0.544834
0.313741
0.299165
0.539918
0.538618
0.461626
0.545308
0.53333
0.318398
0.549005
0.334746
0.5455
0.30365
0.464407
0.378772
0.535068
0.523293
0.452457
0.26817
0.331201
0.532256
0.473916
0.40138
0.544897
0.327159
0.531359
0.547362
0.287017
0.355876
0.546157
0.283694
0.533304
0.522358
0.256728
0.537651
0.504315
0.305897
0.534797
0.327214
0.516473
0.298497
0.534586
0.505731
0.333584
0.533669
0.54382
0.541891
0.487594
0.528905
0.457693
0.31792
0.324878
0.297335
0.326858
0.533084
0.436419
0.537396
0.544224
0.305918
0.320932
0.532124
0.551711
0.538015
0.548737
0.320824
0.540461
0.548268
0.32604
0.308473
0.540058
0.531389
0.519789
0.32423
0.463966
0.297113
0.534064
0.50374
0.533545
0.52108
0.322658
0.52851
0.523209
0.545949
0.530508
0.533368
0.339416
0.541096
0.323158
0.485637
0.549403
0.362952
0.506606
0.533567
0.544203
0.313129
0.314532
0.458593
0.508784
0.324626
0.323458
0.315652
0.319787
0.516825
0.530999
0.533269
0.24681
0.318799
0.536321
0.532527
0.321948
0.321855
0.364327
0.517219
0.532554
0.527543
0.53836
0.323167
0.325459
0.533155
0.335848
0.318859
0.298467
0.532919
0.306801
0.323442
0.449724
0.530479
0.490883
0.533783
0.53291
0.330875
0.318822
0.315953
0.369848
0.342914
0.314476
0.522379
0.537966
0.516354
0.534044
0.333619
0.29911
0.550994
0.326004
0.533325
0.505314
0.533415
0.303659
0.317156
0.511874
0.533246
0.436603
0.320478
0.524759
0.533831
0.446277
0.542617
0.548123
0.533176
0.486528
0.321351
0.532999
0.533254
0.479026
0.534346
0.533131
0.495439
0.533262
0.538075
0.321811
0.316847
0.301843
0.53343
0.393437
0.326649
0.531978
0.540361
0.290065
0.493241
0.282801
0.497291
0.364314
0.316144
0.551963
0.544343
0.323408
0.433092
0.533411
0.324687
0.523637
0.331791
0.332981
0.479689
0.474671
0.394774
0.532474
0.315269
0.543297
0.32022
0.31755
0.534487
0.322222
0.469736
0.31737
0.492533
0.465617
0.533248
0.514287
0.322176
0.321
0.474009
0.332912
0.537732
0.357134
0.46024
0.533637
0.545754
0.344175
0.479346
0.48957
0.548223
0.536201
0.272435
0.319053
0.425011
0.487917
0.54867
0.29409
0.532508
0.438099
0.321759
0.308068
0.52349
0.517914
0.533219
0.533278
0.458532
0.532112
0.533547
0.524001
0.317421
0.5143
0.362281
0.538368
0.530892
0.241043
0.499639
0.545543
0.317552
0.31788
0.328175
0.533137
0.318333
0.479562
0.538448
0.515506
0.302896
0.52447
0.328118
0.463524
0.533628
0.533265
0.521015
0.533482
0.482933
0.527643
0.408516
0.528528
0.296816
0.533133
0.53561
0.317256
0.533287
0.532134
0.326434
0.323702
0.3227
0.541486
0.325103
0.533186
0.312501
0.549023
0.324117
0.379234
0.322318
0.541729
0.548066
0.414688
0.213412
0.482837
0.533277
0.316463
0.46082
0.553689
0.316599
0.457857
0.533235
0.550689
0.533468
0.324157
0.366302
0.539103
0.532267
0.486865
0.325915
0.311924
0.5264
0.533181
0.533269
0.533196
0.426827
0.534063
0.423108
0.536453
0.32585
0.327405
0.533206
0.545758
0.533411
0.330444
0.533066
0.432893
0.466373
0.304262
0.328163
0.546681
0.557917
0.435079
0.263179
0.533508
0.533305
0.318206
0.476603
0.538175
0.317856
0.354644
0.323382
0.472159
0.324485
0.310378
0.528294
0.363258
0.548909
0.498029
0.318444
0.327378
0.551581
0.315794
0.321329
0.533246
0.329751
0.276199
0.460849
0.516077
0.534051
0.318991
0.253504
0.319026
0.506619
0.332294
0.534619
0.317827
0.532701
0.488586
0.529655
0.491654
0.527394
0.501984
0.532694
0.547036
0.536887
0.321338
0.320482
0.521315
0.533614
0.399673
0.481734
0.436038
0.533579
0.477666
0.286407
0.53623
0.552879
0.527119
0.322606
0.529189
0.30229
0.53393
0.393516
0.541044
0.534152
0.315939
0.537731
0.323872
0.333329
0.508224
0.297549
0.533307
0.53317
0.53844
0.30077
0.534902
0.32136
0.303909
0.317254
0.322761
0.471125
0.319866
0.490964
0.533554
0.265877
0.329172
0.385653
0.455769
0.492507
0.488412
0.303371
0.333469
0.318267
0.32236
0.212536
0.492072
0.498351
0.326808
0.533264
0.538026
0.323478
0.552813
0.531967
0.533577
0.322962
0.533227
0.52781
0.54133
0.538384
0.315583
0.535085
0.542737
0.529708
0.524185
0.533216
0.323958
0.322195
0.533768
0.423648
0.318339
0.534367
0.327854
0.449297
0.486943
0.51472
0.517894
0.306038
0.48025
0.311707
0.322664
0.536735
0.541478
0.544769
0.541298
0.511614
0.304194
0.54809
0.320823
0.398815
0.549727
0.533247
0.538698
0.322651
0.323481
0.548968
0.322871
0.540757
0.508523
0.336995
0.32236
0.535449
0.31931
0.534094
0.540346
0.509072
0.318909
0.316508
0.394946
0.403161
0.482922
0.369793
0.533289
0.488425
0.524577
0.533079
0.533445
0.322523
0.324158
0.542337
0.533214
0.484254
0.363152
0.327789
0.525227
0.319675
0.533229
0.48314
0.26066
0.537376
0.319422
0.507345
0.294893
0.545505
0.314744
0.53306
0.533515
0.27767
0.52064
0.508335
0.267209
0.53327
0.531655
0.434502
0.332957
0.286644
0.3646
0.546191
0.470542
0.318344
0.460411
0.535428
0.533441
0.294987
0.473701
0.519853
0.365374
0.533271
0.533585
0.235329
0.536639
0.533239
0.292784
0.465235
0.301655
0.495541
0.309713
0.332529
0.547854
0.316815
0.323119
0.322389
0.535322
0.512664
0.316217
0.533402
0.28349
0.516356
0.321346
0.515726
0.289955
0.533676
0.534106
0.502328
0.533386
0.436024
0.533538
0.533552
0.291855
0.49952
0.506589
0.377627
0.532929
0.390324
0.315984
0.547827
0.307944
0.447893
0.278761
0.532769
0.321566
0.328882
0.544433
0.532966
0.304407
0.53747
0.538062
0.533117
0.548381
0.533316
0.321308
0.552197
0.323866
0.325043
0.520097
0.539215
0.551822
0.522539
0.314002
0.30909
0.318184
0.516074
0.533514
0.285701
0.524769
0.333524
0.306636
0.304802
0.52128
0.303936
0.549437
0.537205
0.498661
0.530705
0.536268
0.446503
0.496797
0.344467
0.330475
0.304558
0.533309
0.533265
0.330456
0.491597
0.46979
0.498257
0.324427
0.310633
0.491524
0.220594
0.485971
0.462053
0.325549
0.533366
0.51827
0.326961
0.533506
0.3205
0.537201
0.549698
0.5278
0.320824
0.372705
0.532094
0.238766
0.351893
0.530715
0.245488
0.533372
0.536126
0.49569
0.538358
0.260662
0.533329
0.536211
0.532174
0.287793
0.542778
0.322276
0.330905
0.523964
0.532739
0.533359
0.187212
0.534395
0.499245
0.533225
0.334378
0.330439
0.323079
0.540047
0.318266
0.318952
0.305836
0.460333
0.31871
0.241955
0.350806
0.534584
0.325224
0.533347
0.53348
0.533752
0.299901
0.535865
0.511958
0.533265
0.329562
0.522393
0.318641
0.309485
0.534801
0.319314
0.488259
0.534412
0.533236
0.320838
0.260471
0.319655
0.442372
0.533199
0.185291
0.52755
0.535213
0.539308
0.32417
0.321521
0.272555
0.469798
0.324284
0.533152
0.477057
0.533508
0.527255
0.318233
0.488598
0.322331
0.437479
0.509984
0.551544
0.443507
0.372947
0.522141
0.487376
0.543096
0.305495
0.292939
0.312914
0.540573
0.416873
0.533254
0.324529
0.314351
0.541321
0.535632
0.533261
0.318504
0.534381
0.441008
0.443376
0.472659
0.329316
0.322139
0.234161
0.532763
0.533593
0.522971
0.484543
0.271624
0.539258
0.517316
0.533595
0.533258
0.539079
0.552685
0.533899
0.538122
0.54429
0.3249
0.537295
0.542066
0.533112
0.53854
0.532426
0.4502
0.323755
0.333048
0.481947
0.32253
0.263426
0.533696
0.320481
0.501714
0.535979
0.512933
0.527762
0.326474
0.535161
0.314266
0.328971
0.533953
0.533385
0.534174
0.296068
0.545573
0.532581
0.479797
0.532697
0.323984
0.533139
0.549299
0.518557
0.318211
0.542296
0.321699
0.55746
0.300766
0.323856
0.407064
0.354364
0.551841
0.542626
0.533492
0.30707
0.53317
0.317909
0.320228
0.508587
0.388761
0.32529
0.532948
0.32097
0.406589
0.522464
0.49645
0.517169
0.387786
0.470372
0.513653
0.533773
0.448069
0.544758
0.422495
0.553478
0.48122
0.507047
0.332482
0.319614
0.353856
0.541312
0.325863
0.520549
0.537788
0.471377
0.533832
0.405069
0.532543
0.525228
0.323904
0.536864
0.476511
0.381872
0.47938
0.548799
0.504949
0.533398
0.323455
0.322201
0.529592
0.419295
0.424883
0.538596
0.533553
0.533815
0.548247
0.54939
0.485326
0.48623
0.551495
0.319537
0.321942
0.322031
0.296498
0.533264
0.361589
0.420045
0.537103
0.529178
0.325528
0.528598
0.556059
0.2951
0.29604
0.533194
0.538627
0.330425
0.306866
0.312549
0.533108
0.494444
0.321565
0.322794
0.325853
0.330762
0.272465
0.321308
0.55439
0.534266
0.530573
0.307826
0.513847
0.473474
0.481286
0.292959
0.324302
0.506925
0.533206
0.323569
0.533475
0.326985
0.544106
0.325731
0.533171
0.298395
0.517027
0.547413
0.30297
0.444762
0.319364
0.552479
0.330063
0.476564
0.32804
0.397395
0.319772
0.469549
0.31662
0.533367
0.533366
0.479571
0.526508
0.282136
0.516031
0.533264
0.546371
0.471521
0.517113
0.324792
0.305486
0.327887
0.546749
0.229961
0.545254
0.430843
0.539001
0.550641
0.359891
0.540959
0.320574
0.331318
0.318946
0.401078
0.405426
0.532916
0.318514
0.325901
0.534336
0.300765
0.318009
0.431881
0.291397
0.323444
0.333724
0.553508
0.514651
0.480191
0.32656
0.513293
0.532904
0.331163
0.256599
0.523482
0.533069
0.440251
0.409126
0.326931
0.287094
0.311422
0.530126
0.478322
0.410026
0.534911
0.323509
0.445992
0.319162
0.533334
0.545287
0.325327
0.325603
0.483798
0.426367
0.547119
0.544271
0.546537
0.537965
0.549815
0.307341
0.323685
0.309697
0.3172
0.421168
0.533368
0.516051
0.318414
0.300182
0.354486
0.354999
0.533727
0.495539
0.323378
0.243135
0.535953
0.327331
0.512559
0.542791
0.508884
0.533223
0.430761
0.315742
0.301367
0.481637
0.325565
0.328859
0.31563
0.533393
0.532445
0.28439
0.32532
0.533113
0.315473
0.534126
0.546775
0.315093
0.318211
0.324635
0.535643
0.329062
0.533164
0.534853
0.471742
0.302301
0.420007
0.542086
0.525386
0.320837
0.522888
0.483676
0.370034
0.539466
0.556922
0.322119
0.315824
0.51097
0.31989
0.317736
0.519236
0.274575
0.533096
0.532873
0.546143
0.489601
0.545558
0.535834
0.533638
0.317952
0.326295
0.492619
0.531647
0.372494
0.552537
0.256679
0.537825
0.518486
0.447178
0.508852
0.306083
0.361164
0.529307
0.542969
0.47853
0.547687
0.53492
0.533159
0.547542
0.533099
0.521608
0.510697
0.535684
0.533218
0.533641
0.280471
0.502029
0.290908
0.535134
0.537414
0.539974
0.500865
0.537953
0.317011
0.316304
0.242361
0.32061
0.507088
0.313404
0.322905
0.529816
0.324002
0.537582
0.31202
0.519451
0.535463
0.315096
0.303008
0.256918
0.540416
0.324142
0.532299
0.537459
0.319128
0.504683
0.439089
0.272876
0.329054
0.324123
0.538818
0.315836
0.536028
0.402168
0.319857
0.531784
0.533046
0.546508
0.326628
0.450896
0.324642
0.515418
0.533608
0.535768
0.323331
0.530829
0.538708
0.489443
0.320699
0.540301
0.327996
0.320794
0.529529
0.357753
0.549627
0.315076
0.323308
0.352412
0.49636
0.325982
0.231167
0.299966
0.376571
0.533217
0.536952
0.329001
0.468513
0.535016
0.443385
0.329919
0.258473
0.44098
0.326493
0.319298
0.530096
0.321518
0.32512
0.542617
0.554249
0.295051
0.542037
0.308866
0.533179
0.326879
0.509896
0.533484
0.538998
0.533399
0.321781
0.319397
0.320504
0.533694
0.512511
0.468399
0.426559
0.294877
0.240826
0.533264
0.318249
0.533508
0.303818
0.533501
0.524711
0.295538
0.289215
0.322413
0.325473
0.290252
0.482662
0.509186
0.298744
0.536535
0.499856
0.31468
0.319128
0.554137
0.325017
0.53516
0.339435
0.538657
0.513586
0.53578
0.53324
0.321958
0.549417
0.53368
0.555673
0.31951
0.475796
0.473395
0.260453
0.541312
0.499462
0.549204
0.514071
0.549858
0.528369
0.551184
0.533094
0.531856
0.30807
0.545708
0.322595
0.360934
0.530468
0.322375
0.520933
0.47516
0.325207
0.490617
0.317087
0.311401
0.523332
0.467181
0.55383
0.324024
0.513826
0.48713
0.317041
0.305191
0.509545
0.53302
0.299495
0.306434
0.537922
0.55363
0.31026
0.50344
0.548158
0.516905
0.296627
0.328252
0.314811
0.514812
0.312431
0.523483
0.540564
0.533288
0.473592
0.535736
0.324264
0.519285
0.48697
0.547236
0.440977
0.325547
0.317962
0.330064
0.544553
0.538394
0.33733
0.511868
0.249682
0.503785
0.536683
0.327389
0.482718
0.524344
0.488412
0.30625
0.32614
0.289802
0.540016
0.549537
0.485106
0.408687
0.535725
0.323919
0.497509
0.533217
0.53101
0.306036
0.494962
0.325408
0.481219
0.332047
0.530875
0.523376
0.326809
0.539786
0.33475
0.533211
0.500672
0.533137
0.540516
0.325478
0.533283
0.533328
0.533166
0.531627
0.384208
0.53321
0.323706
0.533478
0.328066
0.299709
0.325467
0.289481
0.325235
0.302124
0.550156
0.29075
0.318548
0.515244
0.540166
0.511098
0.322281
0.534976
0.534256
0.533235
0.274302
0.45242
0.535605
0.31902
0.302914
0.318897
0.492801
0.404167
0.31366
0.458374
0.333574
0.533321
0.398701
0.326935
0.375735
0.509987
0.28532
0.533357
0.322003
0.368472
0.297292
0.532585
0.303802
0.510506
0.533212
0.462901
0.328203
0.320486
0.527307
0.552779
0.306899
0.303873
0.53359
0.320105
0.54193
0.309283
0.44255
0.330625
0.535743
0.323129
0.551678
0.299429
0.536495
0.536501
0.543615
0.533283
0.325599
0.325903
0.322022
0.497843
0.5291
0.495081
0.407599
0.326528
0.539807
0.262103
0.510403
0.45573
0.315446
0.324075
0.54389
0.5307
0.326835
0.533354
0.531241
0.543836
0.546154
0.32182
0.499555
0.324112
0.543914
0.313872
0.533352
0.505511
0.513851
0.552161
0.315421
0.557212
0.317752
0.322509
0.534028
0.533295
0.431518
0.530287
0.533252
0.324372
0.543556
0.529682
0.549726
0.304852
0.337959
0.531783
0.315839
0.538169
0.537526
0.523104
0.534932
0.228007
0.353495
0.50982
0.326235
0.518403
0.553244
0.372771
0.520641
0.215616
0.483422
0.543766
0.530555
0.520907
0.324584
0.330068
0.533141
0.521352
0.325312
0.262721
0.322305
0.32579
0.318912
0.333566
0.287031
0.319986
0.532598
0.326405
0.292875
0.537059
0.429952
0.533116
0.313809
0.324677
0.535424
0.369106
0.373824
0.548002
0.293781
0.518507
0.533512
0.481222
0.517522
0.318847
0.537265
0.533624
0.319413
0.319932
0.316058
0.472477
0.48059
0.549722
0.533945
0.531696
0.520428
0.292774
0.538116
0.533632
0.509205
0.323116
0.536142
0.449454
0.28731
0.342642
0.32123
0.321591
0.322029
0.46458
0.523488
0.522346
0.319307
0.308751
0.54809
0.282309
0.537555
0.533327
0.523406
0.530778
0.535434
0.319308
0.323769
0.334058
0.444971
0.317915
0.534459
0.319188
0.534749
0.533382
0.537019
0.298295
0.354439
0.324288
0.536118
0.306
0.318635
0.533454
0.517276
0.484917
0.533803
0.505238
0.541535
0.321634
0.493283
0.54559
0.421338
0.535088
0.539167
0.542481
0.365408
0.338892
0.550855
0.395644
0.479708
0.323286
0.502878
0.523806
0.317852
0.311666
0.513719
0.402637
0.543492
0.537528
0.316379
0.326671
0.533246
0.29974
0.324212
0.525176
0.510399
0.323733
0.527522
0.533404
0.502434
0.299349
0.46562
0.32263
0.527587
0.545032
0.541416
0.520014
0.533381
0.248439
0.283325
0.52997
0.319775
0.480891
0.320936
0.536351
0.331659
0.507627
0.545221
0.533357
0.323321
0.53315
0.533203
0.319091
0.503449
0.314422
0.554498
0.32347
0.298689
0.314988
0.526922
0.530085
0.256925
0.238947