# vtk DataFile Version 1.0
unstructured grid
ascii
DATASET UNSTRUCTURED_GRID
points 13672 float
0.0796578 -0.059106 0
0.00128732 0.00159165 0
0.00227961 -0.00102548 0
0.0791586 -0.0598787 0
-0.0546216 0.01 0
0.000495206 0.025 0
0.0800549 -0.035 0
0.135172 -0.08 0
-0.0546216 -0.0451168 0
0.000495206 -0.0301168 0
0.0800549 -0.0901168 0
0.135172 -0.135117 0
-0.0546216 -0.0451168 -0.00551168
0.000495206 -0.0301168 -0.00551168
0.0800549 -0.0901168 -0.00551168
0.135172 -0.135117 -0.00551168
0.135172 -0.08 -0.00551168
0.0800549 -0.035 -0.00551168
0.000495206 0.025 -0.00551168
-0.0546216 0.01 -0.00551168
0.00128732 0.00159165 -0.00551168
0.00227961 -0.00102548 -0.00551168
0.0791586 -0.0598787 -0.00551168
0.0796578 -0.059106 -0.00551168
0.00165953 -0.000990923 0
0.00119576 -0.000874076 0
0.000866021 -0.000641801 0
0.000645147 -0.000349912 0
0.00052235 -1.7281e-05 0
0.00049972 0.000348016 0
0.000601632 0.000737716 0
0.000861774 0.0011403 0
0.00157235 0.00183217 0
0.00188647 0.00206725 0
0.00222612 0.00230203 0
0.00258713 0.00254351 0
0.00296826 0.00279524 0
0.00337118 0.00305664 0
0.00379785 0.00332658 0
0.00425045 0.00360349 0
0.00473139 0.00388521 0
0.0052432 0.00416895 0
0.0057881 0.00445204 0
0.00636753 0.00473281 0
0.00698281 0.00500961 0
0.00763526 0.00528058 0
0.00832616 0.00554366 0
0.00905691 0.00579603 0
0.00982918 0.00603333 0
0.0106445 0.00625033 0
0.0115038 0.00644128 0
0.0124073 0.00660297 0
0.0133543 0.00673414 0
0.0143444 0.00683382 0
0.0153769 0.00690031 0
0.0164512 0.00693173 0
0.0175666 0.00692547 0
0.0187219 0.00687822 0
0.0199156 0.00678477 0
0.0211454 0.00663864 0
0.0224084 0.00643275 0
0.0237018 0.00616676 0
0.0250249 0.00584739 0
0.026375 0.00547298 0
0.0277479 0.00503752 0
0.0291386 0.00453545 0
0.0305433 0.0039653 0
0.0319572 0.0033256 0
0.0333681 0.00260019 0
0.034775 0.00179799 0
0.0361793 0.000930615 0
0.0375798 3.12222e-06 0
0.0389689 -0.000988429 0
0.0403357 -0.00205109 0
0.041675 -0.00318283 0
0.0429849 -0.00437751 0
0.0442643 -0.00562904 0
0.0455126 -0.00693089 0
0.0467314 -0.00827518 0
0.0479204 -0.00965638 0
0.0490661 -0.0110799 0
0.0501515 -0.0125519 0
0.0511696 -0.0140695 0
0.0521492 -0.0156071 0
0.0531202 -0.0171411 0
0.0540851 -0.0186663 0
0.0550431 -0.0201798 0
0.0559923 -0.0216793 0
0.0569311 -0.0231626 0
0.0578582 -0.0246273 0
0.0587723 -0.0260715 0
0.0596721 -0.027493 0
0.0605563 -0.02889 0
0.0614241 -0.0302609 0
0.0622742 -0.0316042 0
0.063106 -0.0329183 0
0.0639186 -0.034202 0
0.0647113 -0.0354543 0
0.0654835 -0.0366743 0
0.0662345 -0.0378613 0
0.0669642 -0.0390145 0
0.0676726 -0.0401333 0
0.0683597 -0.0412172 0
0.0690246 -0.0422665 0
0.0696662 -0.0432819 0
0.0702841 -0.0442636 0
0.0708793 -0.0452111 0
0.0714538 -0.0461237 0
0.072009 -0.047001 0
0.0725452 -0.0478434 0
0.0730611 -0.0486524 0
0.073556 -0.0494294 0
0.0740291 -0.0501756 0
0.0744812 -0.0508916 0
0.0749138 -0.0515773 0
0.0753285 -0.0522331 0
0.0757266 -0.0528592 0
0.076109 -0.0534564 0
0.0764753 -0.0540264 0
0.0768243 -0.054571 0
0.0771553 -0.0550919 0
0.0774679 -0.0555901 0
0.0777617 -0.0560669 0
0.0780369 -0.056523 0
0.0782958 -0.0569578 0
0.0785421 -0.0573703 0
0.0787786 -0.0577603 0
0.0790073 -0.0581279 0
0.0792295 -0.058474 0
0.0794462 -0.0587995 0
0.0798803 -0.0594162 0
0.0800272 -0.0596588 0
0.0800357 -0.0598891 0
0.0799275 -0.0600784 0
0.0797205 -0.0601773 0
0.0794593 -0.0601051 0
0.0789155 -0.0596491 0
0.0786707 -0.0593963 0
0.0784111 -0.0591319 0
0.0781372 -0.0588542 0
0.0778566 -0.0585548 0
0.0775715 -0.0582308 0
0.0772803 -0.0578828 0
0.0769832 -0.0575099 0
0.0766822 -0.0571097 0
0.0763801 -0.0566796 0
0.0760759 -0.0562196 0
0.0757623 -0.0557337 0
0.0754359 -0.0552232 0
0.0750951 -0.0546879 0
0.0747379 -0.054128 0
0.0743626 -0.0535435 0
0.0739688 -0.0529338 0
0.0735559 -0.0522981 0
0.0731238 -0.0516357 0
0.0726718 -0.050946 0
0.0721991 -0.0502288 0
0.0717046 -0.049484 0
0.0711872 -0.0487117 0
0.0706461 -0.047912 0
0.0700804 -0.0470849 0
0.0694892 -0.0462308 0
0.0688718 -0.0453499 0
0.0682271 -0.0444431 0
0.0675544 -0.043511 0
0.0668527 -0.0425546 0
0.0661215 -0.0415748 0
0.06536 -0.040573 0
0.0645676 -0.0395504 0
0.0637439 -0.0385087 0
0.0628887 -0.0374493 0
0.062002 -0.0363741 0
0.0610838 -0.0352847 0
0.0601345 -0.0341831 0
0.0591547 -0.033071 0
0.0581456 -0.0319502 0
0.0571083 -0.0308224 0
0.0560444 -0.0296893 0
0.0549562 -0.028552 0
0.053845 -0.0274126 0
0.0527113 -0.0262746 0
0.051554 -0.0251427 0
0.0503724 -0.0240222 0
0.0491675 -0.0229164 0
0.047941 -0.0218282 0
0.0466955 -0.0207597 0
0.0454337 -0.0197126 0
0.0441592 -0.0186878 0
0.0428751 -0.0176863 0
0.0415841 -0.0167097 0
0.0402878 -0.0157609 0
0.0389879 -0.0148428 0
0.0376864 -0.0139575 0
0.0363853 -0.013107 0
0.0350871 -0.0122931 0
0.0337942 -0.0115164 0
0.0325095 -0.0107772 0
0.0312357 -0.0100756 0
0.0299758 -0.00941024 0
0.0287337 -0.00877784 0
0.0275126 -0.00817571 0
0.0263139 -0.00760375 0
0.0251376 -0.00706528 0
0.0239829 -0.0065649 0
0.0228537 -0.00609619 0
0.0217522 -0.00565563 0
0.0206795 -0.00524226 0
0.0196364 -0.00485507 0
0.0186233 -0.00449318 0
0.0176408 -0.00415577 0
0.016689 -0.00384204 0
0.0157682 -0.00355115 0
0.0148783 -0.00328218 0
0.0140192 -0.00303468 0
0.0131906 -0.00280795 0
0.0123925 -0.00260016 0
0.0116246 -0.00241012 0
0.0108864 -0.00223769 0
0.0101774 -0.00208212 0
0.00949701 -0.00194206 0
0.00884483 -0.0018163 0
0.0082202 -0.0017039 0
0.00762247 -0.00160391 0
0.00705097 -0.00151528 0
0.006505 -0.00143697 0
0.0059838 -0.00136806 0
0.00548662 -0.00130772 0
0.00501265 -0.00125519 0
0.00456114 -0.00120954 0
0.00413136 -0.00116914 0
0.00372257 -0.00113251 0
0.00333398 -0.00109853 0
0.00296466 -0.00106798 0
0.00261363 -0.0010431 0
-0.052721 -0.0445996 0
-0.0508204 -0.0440823 0
-0.0489199 -0.0435651 0
-0.0470193 -0.0430478 0
-0.0451187 -0.0425306 0
-0.0432181 -0.0420134 0
-0.0413175 -0.0414961 0
-0.039417 -0.0409789 0
-0.0375164 -0.0404616 0
-0.0356158 -0.0399444 0
-0.0337152 -0.0394271 0
-0.0318146 -0.0389099 0
-0.0299141 -0.0383927 0
-0.0280135 -0.0378754 0
-0.0261129 -0.0373582 0
-0.0242123 -0.0368409 0
-0.0223117 -0.0363237 0
-0.0204112 -0.0358065 0
-0.0185106 -0.0352892 0
-0.01661 -0.034772 0
-0.0147094 -0.0342547 0
-0.0128088 -0.0337375 0
-0.0109083 -0.0332202 0
-0.00900769 -0.032703 0
-0.00710711 -0.0321858 0
-0.00520653 -0.0316685 0
-0.00330595 -0.0311513 0
-0.00140537 -0.030634 0
0.00190689 -0.0299614 0
0.00332271 -0.0298498 0
0.00474133 -0.0297825 0
0.00616136 -0.0297597 0
0.0075814 -0.0297814 0
0.00900007 -0.0298477 0
0.010416 -0.0299583 0
0.0118278 -0.0301127 0
0.0132342 -0.0303103 0
0.0146339 -0.0305504 0
0.0160259 -0.0308322 0
0.0174091 -0.0311546 0
0.0187824 -0.0315166 0
0.020145 -0.031917 0
0.0214961 -0.0323546 0
0.0228351 -0.032828 0
0.0241613 -0.0333361 0
0.0254744 -0.0338774 0
0.0267738 -0.0344507 0
0.0280592 -0.0350545 0
0.0293306 -0.0356877 0
0.0305875 -0.0363488 0
0.0318301 -0.0370367 0
0.0330581 -0.0377501 0
0.0342717 -0.0384879 0
0.0354708 -0.0392489 0
0.0366556 -0.0400321 0
0.0378262 -0.0408363 0
0.0389828 -0.0416607 0
0.0401254 -0.0425042 0
0.0412543 -0.0433659 0
0.0423698 -0.0442451 0
0.043472 -0.0451408 0
0.0445612 -0.0460523 0
0.0456375 -0.0469789 0
0.0467013 -0.0479199 0
0.0477529 -0.0488746 0
0.0487923 -0.0498424 0
0.04982 -0.0508227 0
0.0508362 -0.051815 0
0.051841 -0.0528187 0
0.0528348 -0.0538333 0
0.0538178 -0.0548584 0
0.0547903 -0.0558935 0
0.0557524 -0.0569382 0
0.0567045 -0.0579922 0
0.0576467 -0.0590549 0
0.0585792 -0.0601261 0
0.0595024 -0.0612055 0
0.0604163 -0.0622926 0
0.0613212 -0.0633873 0
0.0622174 -0.0644891 0
0.0631049 -0.0655979 0
0.0639841 -0.0667134 0
0.064855 -0.0678353 0
0.0657179 -0.0689633 0
0.0665729 -0.0700974 0
0.0674202 -0.0712372 0
0.06826 -0.0723826 0
0.0690925 -0.0735333 0
0.0699178 -0.0746892 0
0.070736 -0.0758501 0
0.0715473 -0.0770159 0
0.0723518 -0.0781863 0
0.0731498 -0.0793612 0
0.0739412 -0.0805405 0
0.0747264 -0.081724 0
0.0755053 -0.0829116 0
0.0762781 -0.0841033 0
0.0770449 -0.0852987 0
0.0778059 -0.0864979 0
0.0785611 -0.0877007 0
0.0793108 -0.088907 0
0.0814681 -0.0912706 0
0.0828814 -0.0924245 0
0.0842946 -0.0935783 0
0.0857079 -0.0947322 0
0.0871211 -0.095886 0
0.0885344 -0.0970399 0
0.0899476 -0.0981937 0
0.0913609 -0.0993476 0
0.0927741 -0.100501 0
0.0941874 -0.101655 0
0.0956006 -0.102809 0
0.0970139 -0.103963 0
0.0984272 -0.105117 0
0.0998404 -0.106271 0
0.101254 -0.107424 0
0.102667 -0.108578 0
0.10408 -0.109732 0
0.105493 -0.110886 0
0.106907 -0.11204 0
0.10832 -0.113194 0
0.109733 -0.114348 0
0.111146 -0.115501 0
0.11256 -0.116655 0
0.113973 -0.117809 0
0.115386 -0.118963 0
0.116799 -0.120117 0
0.118213 -0.121271 0
0.119626 -0.122424 0
0.121039 -0.123578 0
0.122452 -0.124732 0
0.123866 -0.125886 0
0.125279 -0.12704 0
0.126692 -0.128194 0
0.128105 -0.129348 0
0.129519 -0.130501 0
0.130932 -0.131655 0
0.132345 -0.132809 0
0.133758 -0.133963 0
0.135172 -0.133216 0
0.135172 -0.131316 0
0.135172 -0.129415 0
0.135172 -0.127514 0
0.135172 -0.125614 0
0.135172 -0.123713 0
0.135172 -0.121813 0
0.135172 -0.119912 0
0.135172 -0.118012 0
0.135172 -0.116111 0
0.135172 -0.11421 0
0.135172 -0.11231 0
0.135172 -0.110409 0
0.135172 -0.108509 0
0.135172 -0.106608 0
0.135172 -0.104708 0
0.135172 -0.102807 0
0.135172 -0.100906 0
0.135172 -0.0990058 0
0.135172 -0.0971052 0
0.135172 -0.0952046 0
0.135172 -0.0933041 0
0.135172 -0.0914035 0
0.135172 -0.0895029 0
0.135172 -0.0876023 0
0.135172 -0.0857017 0
0.135172 -0.0838012 0
0.135172 -0.0819006 0
0.133758 -0.0788462 0
0.132345 -0.0776923 0
0.130932 -0.0765385 0
0.129519 -0.0753846 0
0.128105 -0.0742308 0
0.126692 -0.0730769 0
0.125279 -0.0719231 0
0.123866 -0.0707692 0
0.122452 -0.0696154 0
0.121039 -0.0684615 0
0.119626 -0.0673077 0
0.118213 -0.0661538 0
0.116799 -0.065 0
0.115386 -0.0638462 0
0.113973 -0.0626923 0
0.11256 -0.0615385 0
0.111146 -0.0603846 0
0.109733 -0.0592308 0
0.10832 -0.0580769 0
0.106907 -0.0569231 0
0.105493 -0.0557692 0
0.10408 -0.0546154 0
0.102667 -0.0534615 0
0.101254 -0.0523077 0
0.0998404 -0.0511538 0
0.0984272 -0.05 0
0.0970139 -0.0488462 0
0.0956006 -0.0476923 0
[...]
CELL_DATA 13116
SCALARS rho float
LOOKUP_TABLE default
0.44851
0.526964
0.343351
0.559151
0.552942
0.538659
0.369616
0.556924
0.447495
0.556484
0.357
0.341933
0.553104
0.389689
0.362084
0.538792
0.425063
0.551864
0.539149
0.372642
0.452918
0.378573
0.376663
0.552601
0.523941
0.515862
0.556535
0.32159
0.582242
0.52098
0.53622
0.374911
0.473966
0.385153
0.364288
0.450526
0.529645
0.536223
0.537856
0.542495
0.539275
0.558953
0.357674
0.33458
0.53848
0.539113
0.512575
0.541598
0.369553
0.457332
0.552164
0.371414
0.371368
0.419911
0.468155
0.493335
0.332788
0.54982
0.473516
0.367136
0.393298
0.556803
0.520867
0.537723
0.536546
0.386119
0.542108
0.534792
0.543188
0.536724
0.362363
0.543937
0.377125
0.355222
0.53556
0.360056
0.515202
0.549348
0.364006
0.550091
0.538465
0.517528
0.552453
0.541658
0.533553
0.439509
0.376984
0.538087
0.531506
0.346653
0.361773
0.528087
0.554107
0.536144
0.52008
0.490864
0.524437
0.536062
0.535781
0.541245
0.566808
0.479491
0.539149
0.353969
0.501777
0.388287
0.344806
0.39439
0.344119
0.59107
0.41568
0.512061
0.490142
0.540947
0.550438
0.542474
0.382515
0.36542
0.546907
0.543897
0.535255
0.371727
0.543524
0.37686
0.533141
0.401087
0.377453
0.460249
0.325991
0.462366
0.547068
0.542203
0.482781
0.374223
0.462236
0.473871
0.534367
0.545612
0.568402
0.543728
0.503938
0.514804
0.454192
0.504593
0.517239
0.382557
0.361703
0.512315
0.551482
0.549875
0.512704
0.541216
0.541493
0.355367
0.554161
0.534449
0.371241
0.568717
0.536107
0.541372
0.551934
0.362283
0.55096
0.372178
0.366824
0.555578
0.530758
0.551627
0.366015
0.449075
0.404998
0.534392
0.365328
0.436777
0.541624
0.37779
0.374252
0.377751
0.50936
0.538386
0.357406
0.404548
0.430797
0.529975
0.53853
0.46732
0.341348
0.539045
0.494219
0.41337
0.510522
0.510812
0.536882
0.37026
0.506465
0.538718
0.55485
0.538956
0.530539
0.352635
0.352432
0.590877
0.456446
0.381761
0.547984
0.538698
0.378753
0.498497
0.378023
0.344111
0.355844
0.540639
0.369051
0.366578
0.343285
0.35538
0.343527
0.537392
0.531178
0.427188
0.332655
0.541867
0.411221
0.35713
0.541375
0.556476
0.515608
0.345321
0.54174
0.379749
0.565008
0.367619
0.536802
0.53786
0.53588
0.538262
0.537017
0.376331
0.394541
0.54731
0.535418
0.538576
0.534582
0.536932
0.552805
0.375562
0.548531
0.554536
0.535833
0.353607
0.370315
0.539587
0.546401
0.536596
0.543907
0.43812
0.543794
0.35683
0.395357
0.353137
0.378906
0.49045
0.554702
0.51441
0.37184
0.537795
0.35622
0.420019
0.503175
0.352191
0.515653
0.554818
0.535156
0.549567
0.376356
0.535105
0.541963
0.535861
0.54549
0.361441
0.378761
0.367896
0.470543
0.372864
0.374903
0.319145
0.289521
0.532596
0.367112
0.534381
0.553391
0.354108
0.370529
0.358879
0.422633
0.329464
0.53634
0.476766
0.507314
0.350648
0.540474
0.574475
0.400718
0.366528
0.537866
0.54636
0.538877
0.340953
0.538867
0.363264
0.541711
0.558379
0.548455
0.557571
0.369851
0.541623
0.377071
0.539019
0.556587
0.585337
0.357512
0.319092
0.554839
0.377957
0.522268
0.556721
0.326564
0.550133
0.552233
0.372778
0.537658
0.554108
0.368604
0.548136
0.442943
0.56294
0.547384
0.449267
0.565761
0.373008
0.551084
0.332677
0.537118
0.475712
0.555613
0.34942
0.341005
0.534345
0.358079
0.547322
0.498612
0.394784
0.534348
0.34656
0.377886
0.545545
0.535186
0.5334
0.379301
0.370991
0.548411
0.553258
0.359626
0.552491
0.388424
0.387169
0.542486
0.548777
0.383666
0.34574
0.5456
0.536436
0.538873
0.537069
0.548982
0.512053
0.289608
0.375964
0.361471
0.538787
0.362031
0.428769
0.332917
0.364737
0.335458
0.390514
0.135137
0.35537
0.534787
0.298569
0.551446
0.566882
0.540027
0.535093
0.548965
0.377258
0.377757
0.35679
0.301675
0.545458
0.487977
0.539448
0.574421
0.518297
0.503008
0.516118
0.500607
0.519391
0.547971
0.550007
0.53828
0.358381
0.387813
0.445501
0.379525
0.474153
0.486729
0.373737
0.542151
0.535254
0.370309
0.367157
0.3542
0.343351
0.606365
0.362526
0.370171
0.541081
0.369146
0.53368
0.352077
0.538437
0.538107
0.312638
0.376061
0.545209
0.426579
0.352917
0.342944
0.343446
0.348761
0.377881
0.367515
0.375779
0.418916
0.352848
0.477153
0.335589
0.533407
0.33465
0.414136
0.494712
0.384474
0.346214
0.382974
0.539977
0.420288
0.594009
0.395529
0.376158
0.499635
0.532844
0.43874
0.549993
0.50157
0.500144
0.372777
0.535908
0.367618
0.549793
0.536116
0.368647
0.374144
0.493106
0.305461
0.450973
0.477682
0.343663
0.570712
0.519195
0.365642
0.371992
0.365618
0.433478
0.364867
0.369127
0.363351
0.377354
0.557564
0.557687
0.428135
0.54251
0.460329
0.505815
0.331674
0.369164
0.450203
0.368811
0.541632
0.287327
0.354968
0.479241
0.538149
0.527667
0.542369
0.325792
0.373549
0.560079
0.556758
0.537052
0.556376
0.504375
0.489524
0.354333
0.537457
0.534354
0.549235
0.292113
0.333293
0.540277
0.555213
0.535694
0.5568
0.526857
0.516993
0.551126
0.561455
0.539892
0.343806
0.538041
0.330284
0.377173
0.361542
0.557997
0.538992
0.294895
0.53307
0.601626
0.357148
0.537158
0.545873
0.545705
0.321794
0.367164
0.548243
0.352904
0.356389
0.361881
0.354658
0.540199
0.367988
0.55765
0.342347
0.527438
0.551222
0.542253
0.553382
0.35331
0.368273
0.540151
0.5661
0.522943
0.557386
0.554391
0.491599
0.371516
0.369279
0.53969
0.455884
0.354442
0.429253
0.3633
0.543875
0.539647
0.292213
0.377817
0.532039
0.46035
0.535195
0.610678
0.325784
0.380502
0.520121
0.53532
0.372854
0.526577
0.53072
0.539672
0.365073
0.534572
0.330589
0.535789
0.549801
0.355033
0.343107
0.375666
0.535849
0.321286
0.364728
0.364124
0.537336
0.544157
0.364694
0.392343
0.350117
0.537395
0.375738
0.53862
0.383538
0.546493
0.556552
0.336617
0.373416
0.374503
0.492031
0.369809
0.521673
0.34131
0.369331
0.538069
0.371403
0.540313
0.519726
0.535938
0.368099
0.542064
0.553025
0.554588
0.539964
0.537235
0.542254
0.378452
0.536935
0.42921
0.53807
0.364044
0.553223
0.426241
0.369198
0.536341
0.550289
0.36474
0.502869
0.361434
0.361246
0.540971
0.539682
0.351944
0.38096
0.364976
0.383941
0.542801
0.552685
0.365939
0.359024
0.547312
0.545485
0.547176
0.552611
0.539468
0.360253
0.5557
0.410869
0.552005
0.363125
0.495431
0.471598
0.541352
0.534188
0.557437
0.322582
0.343351
0.539081
0.587732
0.424262
0.552262
0.378682
0.5406
0.553906
0.358486
0.384888
0.553283
0.326187
0.536497
0.547647
0.315158
0.544983
0.519042
0.362932
0.543335
0.367824
0.529025
0.35131
0.540439
0.519679
0.365294
0.537756
0.551292
0.54886
0.601891
0.53849
0.568775
0.350583
0.366766
0.353339
0.371891
0.534007
0.544113
0.544162
0.551049
0.364986
0.360185
0.541096
0.557029
0.545566
0.554954
0.36185
0.550614
0.55442
0.370397
0.370865
0.547058
0.5395
0.53135
0.387276
0.580115
0.282741
0.542758
0.518482
0.537125
0.531939
0.353792
0.537912
0.534176
0.553494
0.53916
0.539273
0.425423
0.548724
0.34422
0.502755
0.555404
0.447646
0.520162
0.537246
0.550868
0.347546
0.370358
0.56932
0.540751
0.352889
0.345653
0.35155
0.351534
0.528524
0.54034
0.536875
0.289098
0.354373
0.543036
0.558784
0.374712
0.356811
0.445828
0.528747
0.539045
0.536737
0.546787
0.343696
0.353156
0.534666
0.375542
0.366289
0.345019
0.538576
0.280839
0.352599
0.483127
0.539165
0.509209
0.538246
0.538867
0.3854
0.366061
0.348898
0.39501
0.421328
0.366329
0.533636
0.546577
0.528486
0.540491
0.396729
0.362705
0.556652
0.355657
0.5391
0.519401
0.536285
0.351801
0.349534
0.52548
0.536227
0.457058
0.369351
0.534765
0.538436
0.480633
0.549939
0.554819
0.534861
0.504405
0.362237
0.538848
0.536393
0.49619
0.543051
0.534034
0.513028
0.534986
0.54488
0.368444
0.37222
0.361255
0.536447
0.424202
0.354731
0.540942
0.547744
0.335472
0.508299
0.288532
0.511763
0.389908
0.372092
0.55705
0.552371
0.352715
0.543326
0.536461
0.343652
0.536144
0.392292
0.387104
0.50047
0.539355
0.493881
0.539204
0.351982
0.550842
0.373492
0.379808
0.540213
0.354026
0.494774
0.367352
0.507642
0.503593
0.534885
0.529085
0.372503
0.369628
0.492765
0.358986
0.545343
0.392587
0.483265
0.538488
0.553363
0.369566
0.589183
0.508424
0.555056
0.542834
0.335958
0.353532
0.528544
0.507468
0.555416
0.347739
0.539074
0.45851
0.357327
0.357682
0.583839
0.52934
0.534736
0.535745
0.480911
0.541356
0.537689
0.534499
0.373644
0.546107
0.442345
0.545809
0.539101
0.28757
0.527901
0.551893
0.3776
0.375353
0.372272
0.534062
0.36262
0.500782
0.546434
0.557539
0.357974
0.534436
0.388452
0.579059
0.537541
0.536743
0.532582
0.537348
0.531739
0.537583
0.435939
0.537751
0.348943
0.538659
0.542127
0.344795
0.535242
0.541221
0.36646
0.374713
0.334318
0.548771
0.350118
0.535132
0.347127
0.556422
0.374779
0.473027
0.385465
0.549412
0.554207
0.436395
0.259802
0.529407
0.537487
0.342565
0.542367
0.557856
0.366931
0.496472
0.536034
0.556264
0.539375
0.365719
0.392239
0.54653
0.539574
0.503748
0.347363
0.367912
0.535834
0.534523
0.535299
0.534435
0.449277
0.54246
0.446123
0.544021
0.348387
0.385204
0.534503
0.552159
0.537414
0.386091
0.538741
0.454152
0.48517
0.361193
0.407251
0.552759
0.563096
0.506264
0.299678
0.540155
0.535395
0.367014
0.540078
0.546651
0.365862
0.417091
0.374665
0.4943
0.376273
0.350727
0.537156
0.398106
0.555625
0.512426
0.369096
0.373997
0.556757
0.375142
0.36322
0.536225
0.389964
0.331218
0.498216
0.534889
0.542217
0.352394
0.267297
0.354368
0.520652
0.387857
0.542653
0.364813
0.541491
0.514766
0.537924
0.508824
0.537056
0.517099
0.539088
0.553109
0.544467
0.367502
0.347881
0.532228
0.537798
0.502461
0.501584
0.48975
0.537622
0.495042
0.31517
0.543119
0.557463
0.536527
0.354607
0.538473
0.346326
0.541681
0.495375
0.549785
0.540065
0.371166
0.545467
0.352136
0.369789
0.521666
0.345913
0.559028
0.534094
0.548773
0.342901
0.540976
0.347606
0.353376
0.363565
0.341515
0.489683
0.366684
0.506371
0.537348
0.302542
0.37007
0.483621
0.561149
0.51282
0.505279
0.370111
0.385532
0.359799
0.386026
0.258381
0.510006
0.515636
0.316307
0.537067
0.546101
0.375279
0.557295
0.56045
0.537449
0.351817
0.535587
0.537577
0.548813
0.546184
0.363054
0.543115
0.549894
0.538862
0.598636
0.537841
0.373243
0.366176
0.541341
0.528921
0.351963
0.539972
0.375499
0.561522
0.503108
0.52768
0.530061
0.359211
0.500424
0.355609
0.355672
0.547771
0.548539
0.551692
0.548033
0.524017
0.353385
0.554023
0.36987
0.501492
0.555221
0.535759
0.546177
0.353963
0.3981
0.555006
0.387775
0.547797
0.594149
0.407666
0.367491
0.542693
0.370165
0.540016
0.547475
0.521886
0.36915
0.373308
0.461348
0.431209
0.502111
0.427334
0.538141
0.505404
0.535015
0.533923
0.542125
0.367743
0.371337
0.549105
0.537827
0.501422
0.449853
0.381872
0.535483
0.368587
0.5395
0.59554
0.28544
0.545129
0.359231
0.527267
0.346629
0.552139
0.374794
0.541138
0.538216
0.328589
0.534544
0.536386
0.315391
0.53688
0.53895
0.483789
0.384201
0.338223
0.417288
0.553372
0.490636
0.344265
0.575812
0.543798
0.538068
0.348031
0.491265
0.530975
0.460278
0.538112
0.539131
0.283824
0.544079
0.535968
0.343471
0.488248
0.343774
0.510255
0.347751
0.386962
0.554927
0.341264
0.348789
0.3728
0.541618
0.525345
0.360001
0.540153
0.336754
0.528101
0.347302
0.527702
0.332947
0.538643
0.541585
0.516088
0.536973
0.547107
0.538209
0.537436
0.317949
0.577579
0.519732
0.40216
0.541715
0.489861
0.359268
0.553836
0.345776
0.525655
0.27931
0.539354
0.373386
0.370108
0.552557
0.539092
0.368074
0.544821
0.546741
0.534035
0.554729
0.53575
0.360297
0.55678
0.369269
0.370246
0.533062
0.547489
0.558494
0.533438
0.372973
0.34955
0.356929
0.52794
0.537264
0.338986
0.54113
0.390836
0.34722
0.360843
0.533075
0.364151
0.555092
0.544771
0.579005
0.539202
0.543939
0.472684
0.511496
0.428925
0.394995
0.367909
0.535734
0.535578
0.38795
0.508375
0.492379
0.512669
0.367041
0.343801
0.507952
0.273756
0.503282
0.481311
0.366312
0.537721
0.529676
0.355716
0.541765
0.362618
0.543944
0.556093
0.537361
0.369842
0.468272
0.551991
0.290444
0.442063
0.538828
0.297145
0.537873
0.5427
0.51501
0.547095
0.29423
0.536298
0.547074
0.539465
0.355034
0.549358
0.377613
0.383574
0.534111
0.53922
0.537148
0.231769
0.540352
0.590581
0.535539
0.386271
0.3858
0.352819
0.546924
0.365306
0.36857
0.363102
0.479786
0.363379
0.286339
0.437932
0.542584
0.359797
0.536942
0.537553
0.541842
0.342811
0.5432
0.530791
0.537037
0.408652
0.587674
0.36071
0.344794
0.540785
0.370808
0.504282
0.543025
0.534793
0.36311
0.319473
0.363337
0.553931
0.534551
0.229153
0.536669
0.541449
0.547818
0.344228
0.37031
0.336007
0.490358
0.353025
0.533959
0.589704
0.537748
0.536418
0.361339
0.504334
0.378479
0.461136
0.59367
0.556971
0.464568
0.398137
0.559866
0.50405
0.549747
0.344673
0.330099
0.342288
0.549461
0.459676
0.535775
0.36327
0.379957
0.548994
0.543057
0.536596
0.370341
0.542545
0.55221
0.553055
0.492334
0.369195
0.371276
0.282637
0.539293
0.537332
0.600045
0.504334
0.332978
0.549857
0.570932
0.537353
0.536937
0.548963
0.557377
0.538666
0.546422
0.551348
0.366382
0.54432
0.548731
0.538208
0.545604
0.539086
0.469557
0.359735
0.390386
0.498842
0.34247
0.298655
0.542165
0.362716
0.602302
0.542639
0.525489
0.536997
0.367133
0.543535
0.358821
0.39252
0.538835
0.541868
0.540632
0.341059
0.551823
0.539311
0.497417
0.538874
0.379003
0.538078
0.555274
0.529987
0.35578
0.550388
0.350235
0.56113
0.352544
0.359637
0.429661
0.431705
0.556998
0.550349
0.539302
0.365866
0.537976
0.360899
0.362775
0.523652
0.489485
0.346407
0.539231
0.387428
0.511282
0.535432
0.512171
0.529286
0.486918
0.586479
0.529315
0.53931
0.467629
0.551636
0.525738
0.564742
0.50168
0.526051
0.395817
0.365559
0.431669
0.548057
0.365982
0.541649
0.545262
0.498682
0.539451
0.427967
0.546765
0.535529
0.350904
0.544253
0.497291
0.405955
0.499534
0.554711
0.522563
0.537735
0.343408
0.369349
0.538619
0.460956
0.447119
0.545422
0.541424
0.540575
0.555173
0.555984
0.508119
0.503654
0.556916
0.369286
0.390626
0.375334
0.308998
0.535193
0.426591
0.44318
0.544899
0.538919
0.370982
0.53769
0.55881
0.341025
0.360713
0.535272
0.545505
0.369349
0.364243
0.36923
0.533923
0.515113
0.356337
0.370743
0.367689
0.387032
0.315832
0.344899
0.563836
0.541651
0.539866
0.344367
0.526188
0.492053
0.596672
0.317629
0.36835
0.522435
0.534451
0.35231
0.538398
0.355745
0.552133
0.368159
0.541462
0.349032
0.528982
0.553393
0.344653
0.55528
0.371639
0.556977
0.391791
0.494528
0.380476
0.446317
0.360014
0.487855
0.342166
0.536837
0.536841
0.59207
0.536333
0.311528
0.527959
0.537458
0.552501
0.490543
0.528683
0.368805
0.341771
0.375197
0.554115
0.283519
0.551677
0.524906
0.547326
0.556168
0.38571
0.548531
0.362334
0.393794
0.366891
0.458594
0.428283
0.540958
0.349063
0.375332
0.539878
0.375152
0.371301
0.452859
0.35278
0.352444
0.391196
0.559938
0.598377
0.497567
0.379044
0.525814
0.53957
0.397483
0.317356
0.534276
0.53874
0.463155
0.51411
0.409201
0.354272
0.352428
0.542554
0.495983
0.447392
0.545417
0.375185
0.476149
0.360684
0.536439
0.551632
0.367809
0.390181
0.500648
0.448091
0.553164
0.551289
0.553518
0.545713
0.555303
0.354094
0.378962
0.337775
0.360921
0.44252
0.536218
0.598599
0.359569
0.366415
0.388588
0.415963
0.540565
0.51137
0.344625
0.292172
0.542551
0.370572
0.527353
0.550234
0.522447
0.537905
0.451742
0.356138
0.352961
0.499916
0.367692
0.368903
0.358127
0.537594
0.539934
0.334975
0.364054
0.534363
0.342259
0.540486
0.554097
0.360159
0.378441
0.370112
0.542395
0.382454
0.534068
0.543512
0.495982
0.360034
0.524373
0.548928
0.53512
0.36976
0.533316
0.500253
0.418433
0.546594
0.566878
0.353238
0.345777
0.524802
0.346504
0.363067
0.530519
0.339944
0.540736
0.551155
0.553673
0.505245
0.552027
0.542334
0.538172
0.360635
0.406041
0.508362
0.540336
0.467926
0.557176
0.307445
0.544632
0.530283
0.499134
0.526936
0.342508
0.437143
0.538231
0.549842
0.499526
0.553623
0.541298
0.534911
0.554276
0.534174
0.53783
0.525306
0.546068
0.534559
0.538278
0.332899
0.519482
0.319117
0.542397
0.54437
0.54797
0.516174
0.546945
0.376868
0.359276
0.294402
0.368839
0.520964
0.365424
0.352408
0.539367
0.386627
0.545965
0.352891
0.530691
0.5434
0.341319
0.378002
0.287593
0.547196
0.34304
0.540444
0.545263
0.365191
0.520704
0.536534
0.307753
0.325452
0.389667
0.554031
0.348949
0.543598
0.424988
0.367472
0.538798
0.539431
0.55357
0.355473
0.483268
0.383626
0.527468
0.53796
0.542494
0.352762
0.539686
0.545496
0.507821
0.384168
0.547096
0.354672
0.352675
0.53898
0.422849
0.55579
0.35242
0.352738
0.438576
0.51307
0.321053
0.271587
0.354263
0.401526
0.535724
0.544732
0.381579
0.488103
0.541629
0.555954
0.358468
0.280579
0.539409
0.352961
0.357493
0.538436
0.35142
0.352761
0.549672
0.558551
0.341976
0.550896
0.357791
0.53514
0.315521
0.524997
0.536826
0.547832
0.537617
0.378629
0.357279
0.371685
0.538315
0.526202
0.584275
0.493902
0.366942
0.296159
0.538664
0.359148
0.541075
0.376556
0.536978
0.535685
0.344893
0.332138
0.35402
0.36441
0.327285
0.499884
0.522594
0.349672
0.54378
0.517606
0.351271
0.365751
0.557995
0.345017
0.543033
0.423615
0.547326
0.530671
0.543086
0.535873
0.36547
0.55591
0.541286
0.561593
0.340916
0.49475
0.586425
0.293839
0.548027
0.513717
0.562654
0.526442
0.555341
0.53837
0.55726
0.538324
0.539059
0.361869
0.553074
0.354081
0.39388
0.538618
0.374588
0.531879
0.495206
0.373658
0.508574
0.341426
0.361726
0.535201
0.488116
0.558263
0.346469
0.526303
0.555379
0.310025
0.344301
0.526783
0.539542
0.367003
0.364792
0.546058
0.557863
0.373399
0.520577
0.553961
0.608898
0.344185
0.354639
0.372623
0.532923
0.373336
0.533753
0.549616
0.538778
0.491178
0.543532
0.346159
0.53117
0.599408
0.553266
0.462302
0.366951
0.365211
0.38299
0.552429
0.54599
0.421349
0.529826
0.267434
0.517322
0.543603
0.37931
0.499307
0.534403
0.510062
0.34434
0.377535
0.297612
0.547184
0.555669
0.554727
0.512987
0.543279
0.352203
0.524442
0.535294
0.539873
0.345206
0.60735
0.373596
0.500477
0.386439
0.539431
0.535534
0.379966
0.546899
0.361938
0.534498
0.514861
0.533936
0.547881
0.373052
0.538503
0.539726
0.540346
0.540024
0.484153
0.53524
0.368251
0.540012
0.380147
0.367182
0.378665
0.328202
0.353061
0.344003
0.555572
0.359168
0.366452
0.52749
0.547234
0.524104
0.358153
0.544178
0.545019
0.537758
0.330404
0.472069
0.54208
0.366744
0.359549
0.357101
0.513893
0.508255
0.362019
0.47696
0.398724
0.535903
0.500893
0.377211
0.467797
0.529792
0.294188
0.539809
0.371466
0.393797
0.363995
0.543899
0.368531
0.523107
0.535375
0.486424
0.355354
0.356873
0.541326
0.557388
0.365104
0.353221
0.538383
0.369049
0.550088
0.344771
0.546162
0.383471
0.542199
0.378772
0.556689
0.366961
0.543507
0.54405
0.550349
0.535172
0.370522
0.370997
0.357996
0.518259
0.538783
0.512037
0.430699
0.375615
0.547549
0.283182
0.524525
0.478248
0.357632
0.369714
0.551245
0.539206
0.384468
0.536425
0.545043
0.551001
0.553733
0.371637
0.526445
0.351779
0.550949
0.375868
0.537264
0.52101
0.534095
0.557208
0.35652
0.56111
0.339948
0.355185
0.540295
0.535284
0.478835
0.539108
0.53516
0.347742
0.552014
0.541447
0.556247
0.354711
0.407375
0.541704
0.366067
0.545027
0.545327
0.53351
0.545245
0.281447
0.394843
0.539931
0.379555
0.530348
0.557381
0.422227
0.533356
0.262667
0.501355
0.55211
0.55338
0.53445
0.375584
0.370176
0.541171
0.532156
0.374172
0.309645
0.379882
0.374467
0.368142
0.399066
0.318116
0.344279
0.540812
0.378112
0.340665
0.545346
0.472434
0.534424
0.382142
0.363455
0.542113
0.422895
0.398827
0.554417
0.35551
0.560955
0.537093
0.583566
0.52915
0.338864
0.544973
0.537691
0.369024
0.353385
0.358191
0.493091
0.578313
0.555301
0.539001
0.540422
0.531439
0.329451
0.545505
0.537808
0.528294
0.356664
0.542702
0.471398
0.323203
0.417277
0.367821
0.3845
0.373821
0.504269
0.535995
0.533001
0.356098
0.386099
0.553922
0.331194
0.54546
0.53984
0.533719
0.560934
0.542917
0.369034
0.385646
0.393942
0.470323
0.377713
0.541577
0.379883
0.540782
0.538192
0.544067
0.326758
0.406848
0.378845
0.543768
0.364786
0.357958
0.54219
0.528976
0.500837
0.538697
0.524127
0.549714
0.353643
0.601663
0.552174
0.529004
0.542927
0.546876
0.5503
0.460219
0.4226
0.557236
0.496783
0.49692
0.347154
0.51729
0.534062
0.354
0.369941
0.526107
0.474881
0.550319
0.545479
0.348745
0.370939
0.536016
0.325664
0.360554
0.535142
0.527214
0.373177
0.536583
0.536157
0.517348
0.358201
0.512509
0.354515
0.537026
0.551403
0.549559
0.53117
0.536293
0.290296
0.335689
0.539213
0.341302
0.595022
0.3726
0.543664
0.383104
0.521948
0.551937
0.536117
0.351992
0.534031
0.535525
0.361292
0.517706
0.375879
0.560557
0.351755
0.350555
0.369091
0.536874
0.538151
0.317777
0.289321