# vtk DataFile Version 1.0
unstructured grid
ascii
DATASET UNSTRUCTURED_GRID
points 13672 float
0.0796578 -0.059106 0
0.00128732 0.00159165 0
0.00227961 -0.00102548 0
0.0791586 -0.0598787 0
-0.0546216 0.01 0
0.000495206 0.025 0
0.0800549 -0.035 0
0.135172 -0.08 0
-0.0546216 -0.0451168 0
0.000495206 -0.0301168 0
0.0800549 -0.0901168 0
0.135172 -0.135117 0
-0.0546216 -0.0451168 -0.00551168
0.000495206 -0.0301168 -0.00551168
0.0800549 -0.0901168 -0.00551168
0.135172 -0.135117 -0.00551168
0.135172 -0.08 -0.00551168
0.0800549 -0.035 -0.00551168
0.000495206 0.025 -0.00551168
-0.0546216 0.01 -0.00551168
0.00128732 0.00159165 -0.00551168
0.00227961 -0.00102548 -0.00551168
0.0791586 -0.0598787 -0.00551168
0.0796578 -0.059106 -0.00551168
0.00165953 -0.000990923 0
0.00119576 -0.000874076 0
0.000866021 -0.000641801 0
0.000645147 -0.000349912 0
0.00052235 -1.7281e-05 0
0.00049972 0.000348016 0
0.000601632 0.000737716 0
0.000861774 0.0011403 0
0.00157235 0.00183217 0
0.00188647 0.00206725 0
0.00222612 0.00230203 0
0.00258713 0.00254351 0
0.00296826 0.00279524 0
0.00337118 0.00305664 0
0.00379785 0.00332658 0
0.00425045 0.00360349 0
0.00473139 0.00388521 0
0.0052432 0.00416895 0
0.0057881 0.00445204 0
0.00636753 0.00473281 0
0.00698281 0.00500961 0
0.00763526 0.00528058 0
0.00832616 0.00554366 0
0.00905691 0.00579603 0
0.00982918 0.00603333 0
0.0106445 0.00625033 0
0.0115038 0.00644128 0
0.0124073 0.00660297 0
0.0133543 0.00673414 0
0.0143444 0.00683382 0
0.0153769 0.00690031 0
0.0164512 0.00693173 0
0.0175666 0.00692547 0
0.0187219 0.00687822 0
0.0199156 0.00678477 0
0.0211454 0.00663864 0
0.0224084 0.00643275 0
0.0237018 0.00616676 0
0.0250249 0.00584739 0
0.026375 0.00547298 0
0.0277479 0.00503752 0
0.0291386 0.00453545 0
0.0305433 0.0039653 0
0.0319572 0.0033256 0
0.0333681 0.00260019 0
0.034775 0.00179799 0
0.0361793 0.000930615 0
0.0375798 3.12222e-06 0
0.0389689 -0.000988429 0
0.0403357 -0.00205109 0
0.041675 -0.00318283 0
0.0429849 -0.00437751 0
0.0442643 -0.00562904 0
0.0455126 -0.00693089 0
0.0467314 -0.00827518 0
0.0479204 -0.00965638 0
0.0490661 -0.0110799 0
0.0501515 -0.0125519 0
0.0511696 -0.0140695 0
0.0521492 -0.0156071 0
0.0531202 -0.0171411 0
0.0540851 -0.0186663 0
0.0550431 -0.0201798 0
0.0559923 -0.0216793 0
0.0569311 -0.0231626 0
0.0578582 -0.0246273 0
0.0587723 -0.0260715 0
0.0596721 -0.027493 0
0.0605563 -0.02889 0
0.0614241 -0.0302609 0
0.0622742 -0.0316042 0
0.063106 -0.0329183 0
0.0639186 -0.034202 0
0.0647113 -0.0354543 0
0.0654835 -0.0366743 0
0.0662345 -0.0378613 0
0.0669642 -0.0390145 0
0.0676726 -0.0401333 0
0.0683597 -0.0412172 0
0.0690246 -0.0422665 0
0.0696662 -0.0432819 0
0.0702841 -0.0442636 0
0.0708793 -0.0452111 0
0.0714538 -0.0461237 0
0.072009 -0.047001 0
0.0725452 -0.0478434 0
0.0730611 -0.0486524 0
0.073556 -0.0494294 0
0.0740291 -0.0501756 0
0.0744812 -0.0508916 0
0.0749138 -0.0515773 0
0.0753285 -0.0522331 0
0.0757266 -0.0528592 0
0.076109 -0.0534564 0
0.0764753 -0.0540264 0
0.0768243 -0.054571 0
0.0771553 -0.0550919 0
0.0774679 -0.0555901 0
0.0777617 -0.0560669 0
0.0780369 -0.056523 0
0.0782958 -0.0569578 0
0.0785421 -0.0573703 0
0.0787786 -0.0577603 0
0.0790073 -0.0581279 0
0.0792295 -0.058474 0
0.0794462 -0.0587995 0
0.0798803 -0.0594162 0
0.0800272 -0.0596588 0
0.0800357 -0.0598891 0
0.0799275 -0.0600784 0
0.0797205 -0.0601773 0
0.0794593 -0.0601051 0
0.0789155 -0.0596491 0
0.0786707 -0.0593963 0
0.0784111 -0.0591319 0
0.0781372 -0.0588542 0
0.0778566 -0.0585548 0
0.0775715 -0.0582308 0
0.0772803 -0.0578828 0
0.0769832 -0.0575099 0
0.0766822 -0.0571097 0
0.0763801 -0.0566796 0
0.0760759 -0.0562196 0
0.0757623 -0.0557337 0
0.0754359 -0.0552232 0
0.0750951 -0.0546879 0
0.0747379 -0.054128 0
0.0743626 -0.0535435 0
0.0739688 -0.0529338 0
0.0735559 -0.0522981 0
0.0731238 -0.0516357 0
0.0726718 -0.050946 0
0.0721991 -0.0502288 0
0.0717046 -0.049484 0
0.0711872 -0.0487117 0
0.0706461 -0.047912 0
0.0700804 -0.0470849 0
0.0694892 -0.0462308 0
0.0688718 -0.0453499 0
0.0682271 -0.0444431 0
0.0675544 -0.043511 0
0.0668527 -0.0425546 0
0.0661215 -0.0415748 0
0.06536 -0.040573 0
0.0645676 -0.0395504 0
0.0637439 -0.0385087 0
0.0628887 -0.0374493 0
0.062002 -0.0363741 0
0.0610838 -0.0352847 0
0.0601345 -0.0341831 0
0.0591547 -0.033071 0
0.0581456 -0.0319502 0
0.0571083 -0.0308224 0
0.0560444 -0.0296893 0
0.0549562 -0.028552 0
0.053845 -0.0274126 0
0.0527113 -0.0262746 0
0.051554 -0.0251427 0
0.0503724 -0.0240222 0
0.0491675 -0.0229164 0
0.047941 -0.0218282 0
0.0466955 -0.0207597 0
0.0454337 -0.0197126 0
0.0441592 -0.0186878 0
0.0428751 -0.0176863 0
0.0415841 -0.0167097 0
0.0402878 -0.0157609 0
0.0389879 -0.0148428 0
0.0376864 -0.0139575 0
0.0363853 -0.013107 0
0.0350871 -0.0122931 0
0.0337942 -0.0115164 0
0.0325095 -0.0107772 0
0.0312357 -0.0100756 0
0.0299758 -0.00941024 0
0.0287337 -0.00877784 0
0.0275126 -0.00817571 0
0.0263139 -0.00760375 0
0.0251376 -0.00706528 0
0.0239829 -0.0065649 0
0.0228537 -0.00609619 0
0.0217522 -0.00565563 0
0.0206795 -0.00524226 0
0.0196364 -0.00485507 0
0.0186233 -0.00449318 0
0.0176408 -0.00415577 0
0.016689 -0.00384204 0
0.0157682 -0.00355115 0
0.0148783 -0.00328218 0
0.0140192 -0.00303468 0
0.0131906 -0.00280795 0
0.0123925 -0.00260016 0
0.0116246 -0.00241012 0
0.0108864 -0.00223769 0
0.0101774 -0.00208212 0
0.00949701 -0.00194206 0
0.00884483 -0.0018163 0
0.0082202 -0.0017039 0
0.00762247 -0.00160391 0
0.00705097 -0.00151528 0
0.006505 -0.00143697 0
0.0059838 -0.00136806 0
0.00548662 -0.00130772 0
0.00501265 -0.00125519 0
0.00456114 -0.00120954 0
0.00413136 -0.00116914 0
0.00372257 -0.00113251 0
0.00333398 -0.00109853 0
0.00296466 -0.00106798 0
0.00261363 -0.0010431 0
-0.052721 -0.0445996 0
-0.0508204 -0.0440823 0
-0.0489199 -0.0435651 0
-0.0470193 -0.0430478 0
-0.0451187 -0.0425306 0
-0.0432181 -0.0420134 0
-0.0413175 -0.0414961 0
-0.039417 -0.0409789 0
-0.0375164 -0.0404616 0
-0.0356158 -0.0399444 0
-0.0337152 -0.0394271 0
-0.0318146 -0.0389099 0
-0.0299141 -0.0383927 0
-0.0280135 -0.0378754 0
-0.0261129 -0.0373582 0
-0.0242123 -0.0368409 0
-0.0223117 -0.0363237 0
-0.0204112 -0.0358065 0
-0.0185106 -0.0352892 0
-0.01661 -0.034772 0
-0.0147094 -0.0342547 0
-0.0128088 -0.0337375 0
-0.0109083 -0.0332202 0
-0.00900769 -0.032703 0
-0.00710711 -0.0321858 0
-0.00520653 -0.0316685 0
-0.00330595 -0.0311513 0
-0.00140537 -0.030634 0
0.00190689 -0.0299614 0
0.00332271 -0.0298498 0
0.00474133 -0.0297825 0
0.00616136 -0.0297597 0
0.0075814 -0.0297814 0
0.00900007 -0.0298477 0
0.010416 -0.0299583 0
0.0118278 -0.0301127 0
0.0132342 -0.0303103 0
0.0146339 -0.0305504 0
0.0160259 -0.0308322 0
0.0174091 -0.0311546 0
0.0187824 -0.0315166 0
0.020145 -0.031917 0
0.0214961 -0.0323546 0
0.0228351 -0.032828 0
0.0241613 -0.0333361 0
0.0254744 -0.0338774 0
0.0267738 -0.0344507 0
0.0280592 -0.0350545 0
0.0293306 -0.0356877 0
0.0305875 -0.0363488 0
0.0318301 -0.0370367 0
0.0330581 -0.0377501 0
0.0342717 -0.0384879 0
0.0354708 -0.0392489 0
0.0366556 -0.0400321 0
0.0378262 -0.0408363 0
0.0389828 -0.0416607 0
0.0401254 -0.0425042 0
0.0412543 -0.0433659 0
0.0423698 -0.0442451 0
0.043472 -0.0451408 0
0.0445612 -0.0460523 0
0.0456375 -0.0469789 0
0.0467013 -0.0479199 0
0.0477529 -0.0488746 0
0.0487923 -0.0498424 0
0.04982 -0.0508227 0
0.0508362 -0.051815 0
0.051841 -0.0528187 0
0.0528348 -0.0538333 0
0.0538178 -0.0548584 0
0.0547903 -0.0558935 0
0.0557524 -0.0569382 0
0.0567045 -0.0579922 0
0.0576467 -0.0590549 0
0.0585792 -0.0601261 0
0.0595024 -0.0612055 0
0.0604163 -0.0622926 0
0.0613212 -0.0633873 0
0.0622174 -0.0644891 0
0.0631049 -0.0655979 0
0.0639841 -0.0667134 0
0.064855 -0.0678353 0
0.0657179 -0.0689633 0
0.0665729 -0.0700974 0
0.0674202 -0.0712372 0
0.06826 -0.0723826 0
0.0690925 -0.0735333 0
0.0699178 -0.0746892 0
0.070736 -0.0758501 0
0.0715473 -0.0770159 0
0.0723518 -0.0781863 0
0.0731498 -0.0793612 0
0.0739412 -0.0805405 0
0.0747264 -0.081724 0
0.0755053 -0.0829116 0
0.0762781 -0.0841033 0
0.0770449 -0.0852987 0
0.0778059 -0.0864979 0
0.0785611 -0.0877007 0
0.0793108 -0.088907 0
0.0814681 -0.0912706 0
0.0828814 -0.0924245 0
0.0842946 -0.0935783 0
0.0857079 -0.0947322 0
0.0871211 -0.095886 0
0.0885344 -0.0970399 0
0.0899476 -0.0981937 0
0.0913609 -0.0993476 0
0.0927741 -0.100501 0
0.0941874 -0.101655 0
0.0956006 -0.102809 0
0.0970139 -0.103963 0
0.0984272 -0.105117 0
0.0998404 -0.106271 0
0.101254 -0.107424 0
0.102667 -0.108578 0
0.10408 -0.109732 0
0.105493 -0.110886 0
0.106907 -0.11204 0
0.10832 -0.113194 0
0.109733 -0.114348 0
0.111146 -0.115501 0
0.11256 -0.116655 0
0.113973 -0.117809 0
0.115386 -0.118963 0
0.116799 -0.120117 0
0.118213 -0.121271 0
0.119626 -0.122424 0
0.121039 -0.123578 0
0.122452 -0.124732 0
0.123866 -0.125886 0
0.125279 -0.12704 0
0.126692 -0.128194 0
0.128105 -0.129348 0
0.129519 -0.130501 0
0.130932 -0.131655 0
0.132345 -0.132809 0
0.133758 -0.133963 0
0.135172 -0.133216 0
0.135172 -0.131316 0
0.135172 -0.129415 0
0.135172 -0.127514 0
0.135172 -0.125614 0
0.135172 -0.123713 0
0.135172 -0.121813 0
0.135172 -0.119912 0
0.135172 -0.118012 0
0.135172 -0.116111 0
0.135172 -0.11421 0
0.135172 -0.11231 0
0.135172 -0.110409 0
0.135172 -0.108509 0
0.135172 -0.106608 0
0.135172 -0.104708 0
0.135172 -0.102807 0
0.135172 -0.100906 0
0.135172 -0.0990058 0
0.135172 -0.0971052 0
0.135172 -0.0952046 0
0.135172 -0.0933041 0
0.135172 -0.0914035 0
0.135172 -0.0895029 0
0.135172 -0.0876023 0
0.135172 -0.0857017 0
0.135172 -0.0838012 0
0.135172 -0.0819006 0
0.133758 -0.0788462 0
0.132345 -0.0776923 0
0.130932 -0.0765385 0
0.129519 -0.0753846 0
0.128105 -0.0742308 0
0.126692 -0.0730769 0
0.125279 -0.0719231 0
0.123866 -0.0707692 0
0.122452 -0.0696154 0
0.121039 -0.0684615 0
0.119626 -0.0673077 0
0.118213 -0.0661538 0
0.116799 -0.065 0
0.115386 -0.0638462 0
0.113973 -0.0626923 0
0.11256 -0.0615385 0
0.111146 -0.0603846 0
0.109733 -0.0592308 0
0.10832 -0.0580769 0
0.106907 -0.0569231 0
0.105493 -0.0557692 0
0.10408 -0.0546154 0
0.102667 -0.0534615 0
0.101254 -0.0523077 0
0.0998404 -0.0511538 0
0.0984272 -0.05 0
0.0970139 -0.0488462 0
0.0956006 -0.0476923 0
[...]
CELL_DATA 13116
SCALARS rho float
LOOKUP_TABLE default
0.446553
0.526193
0.330824
0.56149
0.554057
0.53927
0.366967
0.556754
0.433157
0.557821
0.361455
0.324732
0.554231
0.374314
0.350039
0.539368
0.423818
0.552533
0.539407
0.373632
0.450304
0.370211
0.352435
0.553697
0.497525
0.510847
0.557882
0.313139
0.559978
0.516902
0.537244
0.339705
0.455498
0.372052
0.361721
0.448368
0.52963
0.53608
0.538419
0.542206
0.539619
0.559208
0.353673
0.326118
0.538676
0.539365
0.510574
0.541842
0.373653
0.434828
0.552593
0.365566
0.368231
0.418817
0.453132
0.476199
0.324426
0.550895
0.447893
0.352485
0.372668
0.55837
0.519558
0.538323
0.537481
0.345792
0.542447
0.534812
0.54348
0.537625
0.351984
0.513111
0.36453
0.324194
0.53675
0.356669
0.514037
0.550094
0.36357
0.550492
0.539024
0.513822
0.553537
0.541963
0.532832
0.426854
0.378581
0.533647
0.529698
0.353356
0.327453
0.527401
0.555295
0.533917
0.51859
0.483159
0.498964
0.537084
0.536928
0.507145
0.544671
0.477149
0.539543
0.350641
0.49898
0.365945
0.334015
0.390371
0.323523
0.567245
0.4124
0.508905
0.48193
0.54173
0.550935
0.542828
0.381101
0.34993
0.547473
0.544153
0.535197
0.355693
0.54383
0.338072
0.530141
0.379763
0.378572
0.434364
0.30964
0.438129
0.547649
0.542668
0.461905
0.375153
0.440284
0.472101
0.535774
0.545982
0.544591
0.543973
0.502283
0.51292
0.429118
0.502932
0.515843
0.360358
0.359808
0.508195
0.552523
0.549811
0.486581
0.541511
0.541724
0.351848
0.555351
0.533784
0.34882
0.547813
0.537119
0.534338
0.553037
0.365091
0.552034
0.348233
0.349061
0.55686
0.527912
0.552179
0.363597
0.429051
0.387339
0.535774
0.35054
0.413931
0.542043
0.352448
0.373369
0.366106
0.506131
0.538834
0.341348
0.383291
0.427916
0.530008
0.538939
0.443755
0.333249
0.53973
0.490824
0.390442
0.509302
0.506684
0.537782
0.346598
0.502753
0.539069
0.556026
0.539574
0.528726
0.340457
0.350286
0.563621
0.430889
0.350142
0.548799
0.538845
0.372996
0.490738
0.359153
0.350628
0.352976
0.540884
0.346374
0.375173
0.348976
0.351322
0.330402
0.538239
0.527979
0.4168
0.324605
0.542204
0.407825
0.342204
0.527181
0.55793
0.514156
0.330667
0.542135
0.368588
0.563828
0.33354
0.537658
0.508823
0.536949
0.537473
0.537893
0.368299
0.374175
0.535339
0.536644
0.538947
0.535938
0.537855
0.551994
0.374584
0.548932
0.555775
0.536964
0.354843
0.374245
0.539804
0.546939
0.537515
0.544366
0.436384
0.54428
0.361507
0.392438
0.34031
0.360032
0.487337
0.555881
0.513131
0.373526
0.537795
0.323119
0.404242
0.50046
0.356379
0.511307
0.555414
0.536443
0.550645
0.368167
0.536401
0.542729
0.536983
0.545853
0.363762
0.380062
0.345148
0.468748
0.356369
0.372187
0.310252
0.294151
0.532094
0.362606
0.533224
0.554442
0.325936
0.352321
0.323282
0.399305
0.311078
0.532493
0.474705
0.504371
0.35561
0.540635
0.562025
0.395812
0.353652
0.538632
0.546881
0.539525
0.333891
0.539194
0.353136
0.542153
0.558864
0.548448
0.558028
0.34674
0.542006
0.361904
0.539771
0.558172
0.547591
0.365419
0.310731
0.556111
0.333595
0.520737
0.558275
0.310116
0.546857
0.553336
0.337383
0.537641
0.555265
0.357189
0.548729
0.434031
0.55116
0.544085
0.439137
0.547414
0.375084
0.552141
0.324292
0.538005
0.472831
0.556835
0.332208
0.329191
0.533718
0.35587
0.548068
0.495228
0.374612
0.535825
0.342312
0.367131
0.546134
0.514602
0.533552
0.38073
0.348289
0.548794
0.554308
0.35932
0.553302
0.383062
0.364884
0.542786
0.546475
0.381455
0.350527
0.546008
0.537379
0.539385
0.536873
0.549944
0.486015
0.276009
0.358275
0.341001
0.539283
0.342194
0.426263
0.316586
0.336828
0.324305
0.38832
0.132114
0.354283
0.534312
0.281637
0.552521
0.536295
0.54023
0.528143
0.549454
0.364918
0.378283
0.346155
0.287542
0.546115
0.47898
0.53975
0.546998
0.517017
0.49825
0.512453
0.499123
0.514897
0.548873
0.550189
0.538943
0.346012
0.380073
0.443585
0.371389
0.472018
0.473736
0.370746
0.542528
0.536519
0.347357
0.373606
0.360215
0.334658
0.581302
0.352761
0.34665
0.54138
0.326754
0.503721
0.358042
0.539243
0.538473
0.297181
0.375578
0.545802
0.403121
0.358517
0.332345
0.349458
0.326726
0.366244
0.374196
0.364736
0.402265
0.360142
0.474741
0.323198
0.532355
0.319075
0.371063
0.483118
0.364187
0.352847
0.35978
0.539922
0.400262
0.55775
0.392619
0.32779
0.492401
0.531214
0.425958
0.546546
0.498754
0.497665
0.34613
0.536977
0.351236
0.550821
0.537165
0.34138
0.367507
0.489776
0.29004
0.440058
0.474789
0.333153
0.547667
0.517896
0.339862
0.370066
0.351342
0.410731
0.351556
0.361839
0.350322
0.362895
0.559083
0.559517
0.40396
0.508203
0.438203
0.502345
0.321526
0.360194
0.436307
0.341217
0.542029
0.280865
0.341363
0.458828
0.538299
0.524666
0.52265
0.308983
0.367766
0.549841
0.556765
0.537817
0.546405
0.501896
0.486461
0.360282
0.537763
0.505952
0.53508
0.286921
0.314482
0.541027
0.556383
0.527603
0.55825
0.52507
0.511382
0.552206
0.53814
0.540109
0.348237
0.538157
0.322465
0.357964
0.372621
0.560429
0.539151
0.287062
0.532228
0.580083
0.365518
0.538066
0.546369
0.546528
0.312672
0.359335
0.54896
0.358939
0.366314
0.34287
0.360712
0.540501
0.359067
0.560253
0.325817
0.526647
0.55163
0.542503
0.554491
0.358888
0.348618
0.540412
0.56481
0.522377
0.558875
0.555622
0.481753
0.336375
0.340068
0.539889
0.436723
0.361167
0.406381
0.334168
0.541846
0.540282
0.286943
0.368598
0.530923
0.449778
0.534834
0.56938
0.309691
0.369129
0.519379
0.536567
0.346904
0.523708
0.527753
0.539892
0.358167
0.535915
0.32178
0.536877
0.534424
0.351662
0.331332
0.37094
0.536926
0.308222
0.364905
0.347855
0.53823
0.544805
0.364472
0.388629
0.357765
0.538207
0.361164
0.538978
0.363179
0.515176
0.558
0.321392
0.349583
0.352001
0.4824
0.339913
0.517713
0.336838
0.358581
0.538915
0.357685
0.54062
0.518032
0.536986
0.371708
0.542475
0.554141
0.555747
0.540141
0.532626
0.542583
0.34978
0.537735
0.418508
0.538201
0.366809
0.552568
0.416428
0.364844
0.537361
0.551273
0.36102
0.501391
0.327479
0.350527
0.541252
0.539645
0.321825
0.356088
0.364004
0.355544
0.54005
0.553785
0.35897
0.333469
0.548069
0.54581
0.515548
0.553719
0.540148
0.364285
0.556885
0.39275
0.552445
0.347923
0.482824
0.454563
0.541743
0.534425
0.536767
0.312682
0.328544
0.539615
0.569364
0.422861
0.553361
0.360716
0.541215
0.555088
0.35027
0.377833
0.554411
0.309797
0.537495
0.536014
0.307123
0.545097
0.51736
0.349382
0.543985
0.345011
0.527456
0.347229
0.540684
0.518237
0.338396
0.538379
0.552371
0.549657
0.579547
0.538776
0.552018
0.358602
0.355466
0.324978
0.336037
0.535499
0.529558
0.544491
0.55206
0.347871
0.349699
0.541552
0.558579
0.546179
0.555472
0.368222
0.55035
0.555651
0.374113
0.339267
0.547652
0.539704
0.530187
0.36118
0.566973
0.28123
0.543397
0.516627
0.537858
0.531524
0.359744
0.538052
0.53307
0.554604
0.538947
0.53958
0.415289
0.549645
0.35157
0.500686
0.556707
0.426896
0.518957
0.537947
0.551235
0.34455
0.355905
0.552257
0.524568
0.360009
0.351892
0.353517
0.358515
0.527933
0.540919
0.537842
0.292055
0.361026
0.543311
0.545371
0.363614
0.349546
0.423487
0.528597
0.539656
0.536452
0.547795
0.350328
0.360665
0.536045
0.337308
0.37306
0.342228
0.539254
0.283096
0.358722
0.469528
0.539376
0.506083
0.538798
0.539588
0.383398
0.352369
0.351689
0.392768
0.402014
0.331874
0.533681
0.547609
0.527289
0.540642
0.367648
0.371371
0.558079
0.366023
0.539451
0.517918
0.537253
0.321812
0.349905
0.523628
0.53729
0.455359
0.359365
0.534252
0.538958
0.466478
0.549914
0.555014
0.536202
0.501976
0.368692
0.539593
0.537431
0.494301
0.543697
0.53557
0.509989
0.536288
0.545248
0.358014
0.362192
0.370491
0.537372
0.415334
0.364161
0.541373
0.548543
0.318649
0.506959
0.284177
0.510575
0.387037
0.371992
0.558665
0.553404
0.359548
0.533696
0.537389
0.318846
0.534044
0.366339
0.365288
0.495289
0.505615
0.480928
0.539557
0.352758
0.5519
0.370859
0.352192
0.540503
0.36061
0.486715
0.337497
0.506298
0.485541
0.536233
0.526267
0.355395
0.358192
0.490521
0.355048
0.545964
0.380096
0.477505
0.539219
0.554464
0.365568
0.566123
0.505071
0.556224
0.543153
0.327345
0.363957
0.512506
0.503825
0.556658
0.33367
0.539487
0.456799
0.346412
0.327516
0.547407
0.529254
0.536075
0.536847
0.478186
0.542113
0.538474
0.534865
0.340447
0.52975
0.419782
0.545847
0.539273
0.286146
0.518367
0.552875
0.371887
0.360513
0.330155
0.535595
0.364872
0.495278
0.547296
0.533412
0.359998
0.534083
0.363641
0.565616
0.538211
0.537716
0.53246
0.53818
0.505187
0.538079
0.429445
0.537835
0.344472
0.539196
0.542357
0.341161
0.536472
0.541848
0.343653
0.357135
0.316565
0.548809
0.357122
0.536363
0.348654
0.55614
0.366729
0.456981
0.352023
0.550446
0.554814
0.434694
0.254425
0.504303
0.538301
0.350137
0.509962
0.559797
0.332559
0.478557
0.53713
0.557689
0.539655
0.339783
0.388253
0.547211
0.539813
0.501754
0.353989
0.353106
0.535561
0.53596
0.536547
0.535893
0.446135
0.542965
0.442842
0.544056
0.355108
0.359754
0.535947
0.553212
0.538295
0.345491
0.539273
0.451649
0.482599
0.358033
0.393432
0.553599
0.564085
0.476324
0.284458
0.540344
0.536588
0.365248
0.506664
0.547647
0.364086
0.378175
0.3585
0.490481
0.364311
0.347789
0.537023
0.385917
0.556817
0.511308
0.365466
0.348793
0.55802
0.368756
0.353825
0.53729
0.365557
0.319963
0.48094
0.529746
0.542661
0.358793
0.259097
0.357561
0.519056
0.365137
0.543112
0.352903
0.54195
0.507088
0.538025
0.506425
0.537164
0.515145
0.539733
0.554187
0.544995
0.359564
0.354928
0.531891
0.538517
0.4942
0.498322
0.463894
0.538365
0.493082
0.298505
0.543427
0.559242
0.536505
0.354885
0.538669
0.326239
0.542006
0.48681
0.55067
0.540234
0.372087
0.546131
0.359046
0.358835
0.520391
0.343423
0.545956
0.535627
0.547165
0.336469
0.54131
0.354401
0.322397
0.335973
0.348153
0.487552
0.352193
0.504875
0.538018
0.287237
0.346479
0.470863
0.5399
0.507155
0.503233
0.369313
0.354632
0.36
0.353095
0.253478
0.506368
0.512526
0.308576
0.538005
0.546919
0.360118
0.559184
0.545293
0.538091
0.356259
0.536734
0.537804
0.549743
0.546012
0.351078
0.543623
0.550858
0.539114
0.555361
0.538663
0.373667
0.339985
0.541617
0.515146
0.350436
0.540272
0.349305
0.548848
0.501298
0.52602
0.528643
0.326406
0.497164
0.341316
0.356796
0.547165
0.549336
0.552759
0.54848
0.523616
0.322411
0.555225
0.353287
0.49311
0.556454
0.536908
0.546837
0.355492
0.392695
0.556279
0.384823
0.548496
0.554512
0.38679
0.362393
0.542911
0.33993
0.540176
0.548172
0.521219
0.339222
0.366826
0.435332
0.424444
0.49809
0.403598
0.53899
0.503307
0.534159
0.535436
0.542647
0.365452
0.363333
0.549843
0.538637
0.499427
0.430449
0.349947
0.535655
0.352419
0.540156
0.573191
0.274498
0.545758
0.361506
0.522024
0.333178
0.55322
0.364449
0.541467
0.538697
0.304582
0.531833
0.523369
0.2915
0.537816
0.539249
0.460236
0.364787
0.324331
0.394584
0.554501
0.488167
0.336574
0.563405
0.544406
0.538901
0.350391
0.489194
0.530356
0.450542
0.53897
0.539856
0.279747
0.544547
0.537069
0.331701
0.482152
0.334469
0.509004
0.345545
0.365302
0.556097
0.349703
0.356428
0.356129
0.541968
0.524241
0.350305
0.540352
0.324855
0.527641
0.354615
0.526854
0.317196
0.539363
0.541879
0.515093
0.537795
0.537191
0.538688
0.538086
0.301967
0.539409
0.519
0.400626
0.542184
0.478491
0.35306
0.55501
0.341176
0.494927
0.276842
0.539675
0.364923
0.346352
0.553542
0.539787
0.344853
0.544931
0.547767
0.535562
0.555159
0.536846
0.367852
0.55864
0.37276
0.347428
0.530924
0.548499
0.558614
0.532463
0.339334
0.346502
0.359266
0.527222
0.537967
0.325998
0.536851
0.365631
0.343228
0.35793
0.531601
0.348546
0.556397
0.545322
0.540754
0.539064
0.544436
0.465097
0.510098
0.415045
0.362525
0.347333
0.536837
0.536714
0.350251
0.5058
0.488546
0.511401
0.341142
0.339807
0.505965
0.267641
0.501181
0.479257
0.375039
0.538389
0.529185
0.366255
0.542168
0.353416
0.544259
0.557399
0.53749
0.353792
0.456132
0.544033
0.283072
0.433245
0.538906
0.289404
0.538499
0.543017
0.510833
0.548097
0.279871
0.537301
0.546656
0.539714
0.345015
0.549904
0.373982
0.367689
0.533629
0.539854
0.537951
0.22661
0.540522
0.554429
0.536735
0.35488
0.381602
0.358463
0.547246
0.364911
0.355506
0.350232
0.477688
0.352643
0.288469
0.423504
0.543028
0.370739
0.537798
0.538197
0.541732
0.336134
0.543572
0.525191
0.53798
0.39404
0.5489
0.358146
0.342941
0.54113
0.353311
0.502528
0.543631
0.536166
0.373263
0.310924
0.360622
0.542633
0.535934
0.224066
0.536593
0.541783
0.548867
0.348843
0.353787
0.327318
0.487696
0.35926
0.535524
0.569444
0.538335
0.536247
0.362302
0.502743
0.347379
0.459129
0.553713
0.558481
0.462651
0.397015
0.538473
0.502093
0.550514
0.33876
0.314319
0.322601
0.550267
0.440888
0.536922
0.374157
0.361566
0.549981
0.543441
0.5376
0.355315
0.542358
0.540835
0.538888
0.489869
0.339751
0.364173
0.278033
0.539904
0.538032
0.556272
0.500883
0.32356
0.548053
0.539301
0.538056
0.537885
0.547572
0.55912
0.539087
0.547362
0.552409
0.339241
0.544699
0.549194
0.539004
0.546084
0.539661
0.467796
0.369414
0.367184
0.496947
0.349689
0.283644
0.541848
0.351886
0.568676
0.542896
0.524518
0.53703
0.343191
0.543188
0.332494
0.367768
0.539236
0.542318
0.54078
0.335719
0.552527
0.539643
0.495365
0.539547
0.372302
0.538863
0.556574
0.529512
0.342354
0.551474
0.35398
0.563137
0.350206
0.369639
0.428343
0.410174
0.558593
0.551425
0.539584
0.354788
0.538785
0.351693
0.350727
0.521112
0.480272
0.353166
0.539594
0.365734
0.503086
0.534121
0.5103
0.528007
0.475476
0.571363
0.526267
0.53955
0.465917
0.552702
0.510041
0.562587
0.498056
0.520552
0.368315
0.364519
0.409866
0.548509
0.343081
0.533589
0.545299
0.48859
0.539668
0.42618
0.543738
0.535938
0.35367
0.544353
0.493999
0.404619
0.496382
0.555977
0.518743
0.5386
0.348629
0.358205
0.538808
0.442821
0.444332
0.545755
0.541745
0.540751
0.556382
0.557215
0.500853
0.501478
0.558469
0.354119
0.363237
0.365888
0.304786
0.536474
0.402305
0.439943
0.545494
0.539536
0.345369
0.53777
0.561442
0.336178
0.346486
0.536478
0.545905
0.339581
0.339711
0.347221
0.535473
0.510196
0.345626
0.367344
0.374938
0.364268
0.299681
0.350382
0.56228
0.54193
0.540242
0.341689
0.525271
0.4891
0.577285
0.326584
0.373604
0.519713
0.535885
0.358444
0.539193
0.366309
0.55324
0.340648
0.541274
0.328682
0.527866
0.554275
0.338864
0.541819
0.372296
0.558862
0.36646
0.491948
0.351195
0.424327
0.357695
0.485404
0.350229
0.5377
0.537775
0.570913
0.536386
0.314974
0.527104
0.538361
0.553279
0.487403
0.528314
0.374079
0.342245
0.331652
0.555263
0.276946
0.552643
0.500716
0.548331
0.557598
0.382416
0.549461
0.35144
0.371585
0.352837
0.43306
0.427136
0.54126
0.354112
0.374035
0.540207
0.366469
0.340029
0.451231
0.339434
0.358537
0.368121
0.56018
0.557282
0.495175
0.353605
0.52475
0.540143
0.366738
0.3099
0.533277
0.539511
0.46106
0.505577
0.399996
0.344477
0.349904
0.540155
0.493917
0.432678
0.545401
0.356219
0.465403
0.362167
0.537423
0.55255
0.374827
0.387472
0.498705
0.44663
0.554198
0.552346
0.554652
0.5456
0.556594
0.349222
0.369708
0.323146
0.36338
0.440754
0.537224
0.557201
0.36439
0.369675
0.376921
0.376369
0.540746
0.509492
0.350608
0.287515
0.542814
0.341485
0.525123
0.551278
0.520965
0.538765
0.449602
0.366327
0.325851
0.497583
0.375364
0.357303
0.346519
0.538466
0.54021
0.337959
0.373832
0.535778
0.349397
0.541039
0.55526
0.370183
0.37253
0.36573
0.542631
0.38067
0.535609
0.544232
0.488393
0.33441
0.510957
0.549682
0.534816
0.367154
0.532861
0.498416
0.375532
0.547183
0.565152
0.354921
0.349174
0.522847
0.353582
0.366597
0.529862
0.331842
0.540982
0.544499
0.554832
0.503642
0.553066
0.542629
0.538636
0.362394
0.394021
0.506619
0.540645
0.455458
0.558999
0.299492
0.544983
0.529081
0.473422
0.52214
0.341991
0.413378
0.538353
0.550734
0.495891
0.554484
0.541476
0.536195
0.554465
0.535633
0.533792
0.522855
0.54454
0.535969
0.538717
0.306555
0.515968
0.303243
0.542619
0.544749
0.548966
0.514201
0.547854
0.371021
0.357202
0.286672
0.36676
0.519416
0.333972
0.35607
0.539975
0.360134
0.546892
0.351136
0.53
0.543916
0.349352
0.369101
0.274615
0.547593
0.319252
0.54073
0.54593
0.360888
0.517879
0.513107
0.292874
0.315796
0.360125
0.549446
0.34977
0.543645
0.42327
0.36995
0.539244
0.539729
0.554695
0.365753
0.470389
0.349162
0.526647
0.538695
0.542846
0.359057
0.539969
0.54586
0.50481
0.364976
0.547499
0.365156
0.360187
0.538344
0.398834
0.557075
0.354906
0.358866
0.422733
0.510536
0.309208
0.251106
0.349907
0.397618
0.536865
0.545318
0.370206
0.48467
0.54181
0.545329
0.352052
0.270396
0.516183
0.361441
0.360656
0.538562
0.35911
0.360184
0.549818
0.560297
0.338583
0.551592
0.352295
0.536381
0.308099
0.522331
0.537675
0.548786
0.538291
0.373818
0.36105
0.341243
0.538999
0.524197
0.569598
0.465023
0.358171
0.288992
0.539136
0.361704
0.541328
0.36607
0.537758
0.535841
0.327684
0.321934
0.359786
0.374513
0.314568
0.497882
0.521273
0.329402
0.544188
0.513627
0.359189
0.351355
0.560083
0.351244
0.543484
0.411172
0.548343
0.526413
0.543445
0.536978
0.354685
0.557173
0.541429
0.562074
0.349289
0.492418
0.567454
0.27986
0.548452
0.512517
0.55921
0.525408
0.556661
0.537473
0.557802
0.539114
0.539375
0.34832
0.554172
0.359819
0.383155
0.538693
0.343635
0.531133
0.492479
0.375552
0.505742
0.34948
0.327377
0.533521
0.485481
0.559931
0.351029
0.525209
0.519461
0.299383
0.337712
0.522878
0.540146
0.353116
0.359026
0.546927
0.55972
0.363104
0.516905
0.555002
0.566754
0.325639
0.365162
0.338835
0.527712
0.364836
0.533388
0.550336
0.539216
0.489084
0.544014
0.350344
0.529808
0.575882
0.554132
0.460439
0.342834
0.36535
0.362209
0.553525
0.546662
0.409558
0.524925
0.258092
0.516354
0.543897
0.360876
0.497495
0.534106
0.503511
0.339737
0.378687
0.295224
0.54786
0.55695
0.518524
0.503208
0.543692
0.358207
0.512929
0.536545
0.540154
0.340781
0.58128
0.374416
0.497728
0.364409
0.539651
0.533666
0.354304
0.547505
0.357525
0.535936
0.51378
0.535501
0.547892
0.358893
0.539015
0.539959
0.540706
0.540282
0.474841
0.536498
0.361902
0.54021
0.360376
0.347904
0.359484
0.316435
0.360642
0.334922
0.5568
0.349085
0.353379
0.527117
0.547866
0.522867
0.348339
0.545052
0.544814
0.538628
0.32099
0.470197
0.542436
0.350122
0.351124
0.361985
0.50754
0.49992
0.37197
0.475149
0.368628
0.53697
0.491314
0.376626
0.450701
0.523466
0.290841
0.540411
0.353786
0.392377
0.350871
0.541983
0.353182
0.522622
0.536607
0.4828
0.349497
0.363366
0.538201
0.559114
0.355188
0.322288
0.53914
0.371557
0.551189
0.343478
0.52592
0.362903
0.542514
0.368385
0.558128
0.347146
0.54378
0.544533
0.551248
0.536444
0.364325
0.348829
0.346526
0.513286
0.539354
0.509427
0.429563
0.373846
0.548452
0.273341
0.522448
0.475578
0.353742
0.366615
0.55232
0.539394
0.351453
0.537387
0.541824
0.55205
0.554864
0.353738
0.514832
0.358702
0.55199
0.364851
0.538053
0.518408
0.528291
0.55854
0.362591
0.562936
0.349752
0.357937
0.540871
0.536526
0.456523
0.539324
0.536442
0.354563
0.552804
0.539427
0.556519
0.324145
0.386245
0.542296
0.332959
0.545398
0.545196
0.532962
0.543781
0.275067
0.378752
0.525223
0.357581
0.529038
0.559415
0.401119
0.531348
0.257043
0.499074
0.552974
0.543102
0.531921
0.377758
0.347098
0.541495
0.531556
0.376059
0.299001
0.371005
0.351154
0.354518
0.366255
0.300966
0.349754
0.541135
0.358784
0.327627
0.546155
0.45328
0.535817
0.365006
0.373845
0.54233
0.399942
0.396315
0.555628
0.340532
0.536373
0.537836
0.555399
0.528424
0.319917
0.545564
0.538273
0.361021
0.360395
0.353303
0.490265
0.547714
0.556619
0.53956
0.540765
0.530944
0.314869
0.546077
0.538358
0.523382
0.366115
0.543005
0.469151
0.308
0.396163
0.364347
0.350875
0.359566
0.485011
0.535024
0.532785
0.359672
0.377281
0.554898
0.30996
0.546154
0.540061
0.533204
0.544469
0.543278
0.351736
0.350824
0.367532
0.463535
0.367265
0.541807
0.355337
0.541196
0.539029
0.544425
0.31332
0.384477
0.360927
0.544246
0.361066
0.362398
0.541731
0.528219
0.49932
0.53933
0.519543
0.550815
0.364205
0.573734
0.553254
0.519825
0.543368
0.547662
0.551381
0.450402
0.410541
0.557554
0.486442
0.494709
0.354538
0.515809
0.533491
0.341572
0.364291
0.525182
0.448225
0.551266
0.54617
0.349867
0.373634
0.537101
0.321214
0.353126
0.534575
0.52349
0.37468
0.536462
0.537157
0.515458
0.367748
0.48842
0.365053
0.536559
0.552299
0.550643
0.530791
0.537272
0.294721
0.321993
0.539501
0.350628
0.574735
0.373314
0.544055
0.366446
0.520396
0.553005
0.537135
0.35885
0.535578
0.536702
0.362296
0.516243
0.348015
0.560998
0.358515
0.327226
0.350138
0.537114
0.538304
0.310333
0.282702
0.508658