# vtk DataFile Version 1.0
unstructured grid
ascii
DATASET UNSTRUCTURED_GRID
points 13672 float
0.0796578 -0.059106 0
0.00128732 0.00159165 0
0.00227961 -0.00102548 0
0.0791586 -0.0598787 0
-0.0546216 0.01 0
0.000495206 0.025 0
0.0800549 -0.035 0
0.135172 -0.08 0
-0.0546216 -0.0451168 0
0.000495206 -0.0301168 0
0.0800549 -0.0901168 0
0.135172 -0.135117 0
-0.0546216 -0.0451168 -0.00551168
0.000495206 -0.0301168 -0.00551168
0.0800549 -0.0901168 -0.00551168
0.135172 -0.135117 -0.00551168
0.135172 -0.08 -0.00551168
0.0800549 -0.035 -0.00551168
0.000495206 0.025 -0.00551168
-0.0546216 0.01 -0.00551168
0.00128732 0.00159165 -0.00551168
0.00227961 -0.00102548 -0.00551168
0.0791586 -0.0598787 -0.00551168
0.0796578 -0.059106 -0.00551168
0.00165953 -0.000990923 0
0.00119576 -0.000874076 0
0.000866021 -0.000641801 0
0.000645147 -0.000349912 0
0.00052235 -1.7281e-05 0
0.00049972 0.000348016 0
0.000601632 0.000737716 0
0.000861774 0.0011403 0
0.00157235 0.00183217 0
0.00188647 0.00206725 0
0.00222612 0.00230203 0
0.00258713 0.00254351 0
0.00296826 0.00279524 0
0.00337118 0.00305664 0
0.00379785 0.00332658 0
0.00425045 0.00360349 0
0.00473139 0.00388521 0
0.0052432 0.00416895 0
0.0057881 0.00445204 0
0.00636753 0.00473281 0
0.00698281 0.00500961 0
0.00763526 0.00528058 0
0.00832616 0.00554366 0
0.00905691 0.00579603 0
0.00982918 0.00603333 0
0.0106445 0.00625033 0
0.0115038 0.00644128 0
0.0124073 0.00660297 0
0.0133543 0.00673414 0
0.0143444 0.00683382 0
0.0153769 0.00690031 0
0.0164512 0.00693173 0
0.0175666 0.00692547 0
0.0187219 0.00687822 0
0.0199156 0.00678477 0
0.0211454 0.00663864 0
0.0224084 0.00643275 0
0.0237018 0.00616676 0
0.0250249 0.00584739 0
0.026375 0.00547298 0
0.0277479 0.00503752 0
0.0291386 0.00453545 0
0.0305433 0.0039653 0
0.0319572 0.0033256 0
0.0333681 0.00260019 0
0.034775 0.00179799 0
0.0361793 0.000930615 0
0.0375798 3.12222e-06 0
0.0389689 -0.000988429 0
0.0403357 -0.00205109 0
0.041675 -0.00318283 0
0.0429849 -0.00437751 0
0.0442643 -0.00562904 0
0.0455126 -0.00693089 0
0.0467314 -0.00827518 0
0.0479204 -0.00965638 0
0.0490661 -0.0110799 0
0.0501515 -0.0125519 0
0.0511696 -0.0140695 0
0.0521492 -0.0156071 0
0.0531202 -0.0171411 0
0.0540851 -0.0186663 0
0.0550431 -0.0201798 0
0.0559923 -0.0216793 0
0.0569311 -0.0231626 0
0.0578582 -0.0246273 0
0.0587723 -0.0260715 0
0.0596721 -0.027493 0
0.0605563 -0.02889 0
0.0614241 -0.0302609 0
0.0622742 -0.0316042 0
0.063106 -0.0329183 0
0.0639186 -0.034202 0
0.0647113 -0.0354543 0
0.0654835 -0.0366743 0
0.0662345 -0.0378613 0
0.0669642 -0.0390145 0
0.0676726 -0.0401333 0
0.0683597 -0.0412172 0
0.0690246 -0.0422665 0
0.0696662 -0.0432819 0
0.0702841 -0.0442636 0
0.0708793 -0.0452111 0
0.0714538 -0.0461237 0
0.072009 -0.047001 0
0.0725452 -0.0478434 0
0.0730611 -0.0486524 0
0.073556 -0.0494294 0
0.0740291 -0.0501756 0
0.0744812 -0.0508916 0
0.0749138 -0.0515773 0
0.0753285 -0.0522331 0
0.0757266 -0.0528592 0
0.076109 -0.0534564 0
0.0764753 -0.0540264 0
0.0768243 -0.054571 0
0.0771553 -0.0550919 0
0.0774679 -0.0555901 0
0.0777617 -0.0560669 0
0.0780369 -0.056523 0
0.0782958 -0.0569578 0
0.0785421 -0.0573703 0
0.0787786 -0.0577603 0
0.0790073 -0.0581279 0
0.0792295 -0.058474 0
0.0794462 -0.0587995 0
0.0798803 -0.0594162 0
0.0800272 -0.0596588 0
0.0800357 -0.0598891 0
0.0799275 -0.0600784 0
0.0797205 -0.0601773 0
0.0794593 -0.0601051 0
0.0789155 -0.0596491 0
0.0786707 -0.0593963 0
0.0784111 -0.0591319 0
0.0781372 -0.0588542 0
0.0778566 -0.0585548 0
0.0775715 -0.0582308 0
0.0772803 -0.0578828 0
0.0769832 -0.0575099 0
0.0766822 -0.0571097 0
0.0763801 -0.0566796 0
0.0760759 -0.0562196 0
0.0757623 -0.0557337 0
0.0754359 -0.0552232 0
0.0750951 -0.0546879 0
0.0747379 -0.054128 0
0.0743626 -0.0535435 0
0.0739688 -0.0529338 0
0.0735559 -0.0522981 0
0.0731238 -0.0516357 0
0.0726718 -0.050946 0
0.0721991 -0.0502288 0
0.0717046 -0.049484 0
0.0711872 -0.0487117 0
0.0706461 -0.047912 0
0.0700804 -0.0470849 0
0.0694892 -0.0462308 0
0.0688718 -0.0453499 0
0.0682271 -0.0444431 0
0.0675544 -0.043511 0
0.0668527 -0.0425546 0
0.0661215 -0.0415748 0
0.06536 -0.040573 0
0.0645676 -0.0395504 0
0.0637439 -0.0385087 0
0.0628887 -0.0374493 0
0.062002 -0.0363741 0
0.0610838 -0.0352847 0
0.0601345 -0.0341831 0
0.0591547 -0.033071 0
0.0581456 -0.0319502 0
0.0571083 -0.0308224 0
0.0560444 -0.0296893 0
0.0549562 -0.028552 0
0.053845 -0.0274126 0
0.0527113 -0.0262746 0
0.051554 -0.0251427 0
0.0503724 -0.0240222 0
0.0491675 -0.0229164 0
0.047941 -0.0218282 0
0.0466955 -0.0207597 0
0.0454337 -0.0197126 0
0.0441592 -0.0186878 0
0.0428751 -0.0176863 0
0.0415841 -0.0167097 0
0.0402878 -0.0157609 0
0.0389879 -0.0148428 0
0.0376864 -0.0139575 0
0.0363853 -0.013107 0
0.0350871 -0.0122931 0
0.0337942 -0.0115164 0
0.0325095 -0.0107772 0
0.0312357 -0.0100756 0
0.0299758 -0.00941024 0
0.0287337 -0.00877784 0
0.0275126 -0.00817571 0
0.0263139 -0.00760375 0
0.0251376 -0.00706528 0
0.0239829 -0.0065649 0
0.0228537 -0.00609619 0
0.0217522 -0.00565563 0
0.0206795 -0.00524226 0
0.0196364 -0.00485507 0
0.0186233 -0.00449318 0
0.0176408 -0.00415577 0
0.016689 -0.00384204 0
0.0157682 -0.00355115 0
0.0148783 -0.00328218 0
0.0140192 -0.00303468 0
0.0131906 -0.00280795 0
0.0123925 -0.00260016 0
0.0116246 -0.00241012 0
0.0108864 -0.00223769 0
0.0101774 -0.00208212 0
0.00949701 -0.00194206 0
0.00884483 -0.0018163 0
0.0082202 -0.0017039 0
0.00762247 -0.00160391 0
0.00705097 -0.00151528 0
0.006505 -0.00143697 0
0.0059838 -0.00136806 0
0.00548662 -0.00130772 0
0.00501265 -0.00125519 0
0.00456114 -0.00120954 0
0.00413136 -0.00116914 0
0.00372257 -0.00113251 0
0.00333398 -0.00109853 0
0.00296466 -0.00106798 0
0.00261363 -0.0010431 0
-0.052721 -0.0445996 0
-0.0508204 -0.0440823 0
-0.0489199 -0.0435651 0
-0.0470193 -0.0430478 0
-0.0451187 -0.0425306 0
-0.0432181 -0.0420134 0
-0.0413175 -0.0414961 0
-0.039417 -0.0409789 0
-0.0375164 -0.0404616 0
-0.0356158 -0.0399444 0
-0.0337152 -0.0394271 0
-0.0318146 -0.0389099 0
-0.0299141 -0.0383927 0
-0.0280135 -0.0378754 0
-0.0261129 -0.0373582 0
-0.0242123 -0.0368409 0
-0.0223117 -0.0363237 0
-0.0204112 -0.0358065 0
-0.0185106 -0.0352892 0
-0.01661 -0.034772 0
-0.0147094 -0.0342547 0
-0.0128088 -0.0337375 0
-0.0109083 -0.0332202 0
-0.00900769 -0.032703 0
-0.00710711 -0.0321858 0
-0.00520653 -0.0316685 0
-0.00330595 -0.0311513 0
-0.00140537 -0.030634 0
0.00190689 -0.0299614 0
0.00332271 -0.0298498 0
0.00474133 -0.0297825 0
0.00616136 -0.0297597 0
0.0075814 -0.0297814 0
0.00900007 -0.0298477 0
0.010416 -0.0299583 0
0.0118278 -0.0301127 0
0.0132342 -0.0303103 0
0.0146339 -0.0305504 0
0.0160259 -0.0308322 0
0.0174091 -0.0311546 0
0.0187824 -0.0315166 0
0.020145 -0.031917 0
0.0214961 -0.0323546 0
0.0228351 -0.032828 0
0.0241613 -0.0333361 0
0.0254744 -0.0338774 0
0.0267738 -0.0344507 0
0.0280592 -0.0350545 0
0.0293306 -0.0356877 0
0.0305875 -0.0363488 0
0.0318301 -0.0370367 0
0.0330581 -0.0377501 0
0.0342717 -0.0384879 0
0.0354708 -0.0392489 0
0.0366556 -0.0400321 0
0.0378262 -0.0408363 0
0.0389828 -0.0416607 0
0.0401254 -0.0425042 0
0.0412543 -0.0433659 0
0.0423698 -0.0442451 0
0.043472 -0.0451408 0
0.0445612 -0.0460523 0
0.0456375 -0.0469789 0
0.0467013 -0.0479199 0
0.0477529 -0.0488746 0
0.0487923 -0.0498424 0
0.04982 -0.0508227 0
0.0508362 -0.051815 0
0.051841 -0.0528187 0
0.0528348 -0.0538333 0
0.0538178 -0.0548584 0
0.0547903 -0.0558935 0
0.0557524 -0.0569382 0
0.0567045 -0.0579922 0
0.0576467 -0.0590549 0
0.0585792 -0.0601261 0
0.0595024 -0.0612055 0
0.0604163 -0.0622926 0
0.0613212 -0.0633873 0
0.0622174 -0.0644891 0
0.0631049 -0.0655979 0
0.0639841 -0.0667134 0
0.064855 -0.0678353 0
0.0657179 -0.0689633 0
0.0665729 -0.0700974 0
0.0674202 -0.0712372 0
0.06826 -0.0723826 0
0.0690925 -0.0735333 0
0.0699178 -0.0746892 0
0.070736 -0.0758501 0
0.0715473 -0.0770159 0
0.0723518 -0.0781863 0
0.0731498 -0.0793612 0
0.0739412 -0.0805405 0
0.0747264 -0.081724 0
0.0755053 -0.0829116 0
0.0762781 -0.0841033 0
0.0770449 -0.0852987 0
0.0778059 -0.0864979 0
0.0785611 -0.0877007 0
0.0793108 -0.088907 0
0.0814681 -0.0912706 0
0.0828814 -0.0924245 0
0.0842946 -0.0935783 0
0.0857079 -0.0947322 0
0.0871211 -0.095886 0
0.0885344 -0.0970399 0
0.0899476 -0.0981937 0
0.0913609 -0.0993476 0
0.0927741 -0.100501 0
0.0941874 -0.101655 0
0.0956006 -0.102809 0
0.0970139 -0.103963 0
0.0984272 -0.105117 0
0.0998404 -0.106271 0
0.101254 -0.107424 0
0.102667 -0.108578 0
0.10408 -0.109732 0
0.105493 -0.110886 0
0.106907 -0.11204 0
0.10832 -0.113194 0
0.109733 -0.114348 0
0.111146 -0.115501 0
0.11256 -0.116655 0
0.113973 -0.117809 0
0.115386 -0.118963 0
0.116799 -0.120117 0
0.118213 -0.121271 0
0.119626 -0.122424 0
0.121039 -0.123578 0
0.122452 -0.124732 0
0.123866 -0.125886 0
0.125279 -0.12704 0
0.126692 -0.128194 0
0.128105 -0.129348 0
0.129519 -0.130501 0
0.130932 -0.131655 0
0.132345 -0.132809 0
0.133758 -0.133963 0
0.135172 -0.133216 0
0.135172 -0.131316 0
0.135172 -0.129415 0
0.135172 -0.127514 0
0.135172 -0.125614 0
0.135172 -0.123713 0
0.135172 -0.121813 0
0.135172 -0.119912 0
0.135172 -0.118012 0
0.135172 -0.116111 0
0.135172 -0.11421 0
0.135172 -0.11231 0
0.135172 -0.110409 0
0.135172 -0.108509 0
0.135172 -0.106608 0
0.135172 -0.104708 0
0.135172 -0.102807 0
0.135172 -0.100906 0
0.135172 -0.0990058 0
0.135172 -0.0971052 0
0.135172 -0.0952046 0
0.135172 -0.0933041 0
0.135172 -0.0914035 0
0.135172 -0.0895029 0
0.135172 -0.0876023 0
0.135172 -0.0857017 0
0.135172 -0.0838012 0
0.135172 -0.0819006 0
0.133758 -0.0788462 0
0.132345 -0.0776923 0
0.130932 -0.0765385 0
0.129519 -0.0753846 0
0.128105 -0.0742308 0
0.126692 -0.0730769 0
0.125279 -0.0719231 0
0.123866 -0.0707692 0
0.122452 -0.0696154 0
0.121039 -0.0684615 0
0.119626 -0.0673077 0
0.118213 -0.0661538 0
0.116799 -0.065 0
0.115386 -0.0638462 0
0.113973 -0.0626923 0
0.11256 -0.0615385 0
0.111146 -0.0603846 0
0.109733 -0.0592308 0
0.10832 -0.0580769 0
0.106907 -0.0569231 0
0.105493 -0.0557692 0
0.10408 -0.0546154 0
0.102667 -0.0534615 0
0.101254 -0.0523077 0
0.0998404 -0.0511538 0
0.0984272 -0.05 0
0.0970139 -0.0488462 0
0.0956006 -0.0476923 0
[...]
CELL_DATA 13116
SCALARS rho float
LOOKUP_TABLE default
0.423901
0.512463
0.289554
0.552751
0.543756
0.532688
0.320828
0.547667
0.407294
0.547389
0.32153
0.293252
0.544001
0.32535
0.318673
0.532722
0.398653
0.540005
0.530129
0.32205
0.428004
0.322861
0.326221
0.54153
0.471269
0.495761
0.54742
0.321198
0.470268
0.500177
0.532726
0.333397
0.429452
0.346334
0.321734
0.426057
0.515041
0.525146
0.532747
0.53259
0.531576
0.55023
0.328087
0.289813
0.528949
0.529953
0.494877
0.532459
0.321056
0.404448
0.543354
0.341558
0.315821
0.392936
0.428356
0.452525
0.293969
0.538796
0.41485
0.314228
0.326436
0.548644
0.505013
0.532753
0.532764
0.329545
0.534023
0.520401
0.534653
0.532746
0.320799
0.45396
0.318444
0.322891
0.532803
0.302811
0.498243
0.540052
0.31713
0.53754
0.525601
0.499386
0.541615
0.531938
0.521569
0.348454
0.321782
0.518186
0.517977
0.327857
0.316692
0.513895
0.543655
0.522683
0.502589
0.462779
0.473298
0.532876
0.532755
0.463082
0.52589
0.455491
0.531109
0.310377
0.4814
0.327779
0.278765
0.365081
0.323144
0.478315
0.387602
0.493601
0.461319
0.528393
0.538043
0.534175
0.324298
0.300152
0.537518
0.53514
0.520718
0.316851
0.534929
0.35041
0.518169
0.339587
0.322238
0.394465
0.319662
0.405742
0.53775
0.53106
0.389522
0.326358
0.374019
0.451634
0.533095
0.536785
0.525177
0.534936
0.485027
0.497617
0.393209
0.485762
0.500495
0.324273
0.322428
0.492803
0.541785
0.540544
0.421302
0.531522
0.532452
0.307434
0.54464
0.522767
0.325538
0.530369
0.532865
0.518425
0.540809
0.320286
0.54032
0.324549
0.312711
0.547259
0.515718
0.539618
0.321464
0.360331
0.327216
0.533048
0.319114
0.381234
0.533514
0.328093
0.319986
0.319778
0.490267
0.532409
0.300573
0.334667
0.403671
0.515384
0.532415
0.412989
0.29372
0.531445
0.471831
0.357258
0.492802
0.490987
0.532687
0.329913
0.486278
0.5327
0.544841
0.531056
0.516857
0.315685
0.30996
0.482394
0.390326
0.326157
0.537777
0.528112
0.348416
0.470939
0.322007
0.320276
0.30008
0.533241
0.32415
0.320327
0.322685
0.306823
0.283487
0.53233
0.515596
0.338171
0.293444
0.533885
0.382705
0.301418
0.43085
0.547866
0.498529
0.324228
0.533651
0.303951
0.554652
0.325121
0.532659
0.446041
0.532901
0.527132
0.532675
0.310675
0.333708
0.518392
0.53289
0.532633
0.533055
0.532476
0.542627
0.321449
0.539631
0.545312
0.532734
0.322247
0.322559
0.529488
0.537105
0.532677
0.534088
0.412731
0.530694
0.321083
0.324422
0.307109
0.322545
0.467353
0.544656
0.497224
0.318147
0.527821
0.319907
0.336203
0.48314
0.314802
0.496385
0.546246
0.532909
0.538537
0.311271
0.532914
0.52975
0.532732
0.536652
0.313607
0.323243
0.328251
0.447738
0.316183
0.326735
0.258242
0.244654
0.520111
0.316212
0.522141
0.544635
0.304165
0.318724
0.320714
0.351297
0.285847
0.517086
0.453573
0.488074
0.31484
0.532944
0.456086
0.325808
0.315986
0.532597
0.537102
0.53119
0.292562
0.532728
0.319886
0.530533
0.549893
0.53919
0.549022
0.330519
0.533655
0.321709
0.532197
0.548105
0.518997
0.316164
0.258001
0.545791
0.327436
0.506926
0.548588
0.283614
0.532854
0.54136
0.323559
0.527616
0.543566
0.314663
0.538983
0.349771
0.446542
0.533254
0.354986
0.530629
0.319007
0.539753
0.267383
0.532424
0.449831
0.545801
0.324055
0.277512
0.522666
0.31103
0.537216
0.47713
0.32672
0.533089
0.301253
0.313759
0.535541
0.43105
0.519192
0.32341
0.324359
0.539527
0.54443
0.322455
0.543781
0.327299
0.326867
0.53383
0.536241
0.353852
0.315822
0.536659
0.532763
0.532781
0.526604
0.538379
0.421431
0.255885
0.320671
0.29777
0.53279
0.298382
0.402016
0.287551
0.318376
0.272857
0.361846
0.10942
0.31125
0.5233
0.258369
0.540946
0.469949
0.531346
0.511757
0.540073
0.313807
0.32237
0.320448
0.262977
0.535169
0.457999
0.531335
0.470428
0.501805
0.479777
0.497752
0.481576
0.497927
0.53734
0.53711
0.532657
0.311694
0.354711
0.42068
0.320424
0.450546
0.451184
0.318088
0.533974
0.532921
0.330599
0.319293
0.320402
0.29611
0.490041
0.322513
0.329949
0.533446
0.323919
0.445737
0.326309
0.532282
0.525466
0.285298
0.326429
0.535103
0.35251
0.324045
0.294459
0.314051
0.322979
0.324051
0.319608
0.324222
0.336016
0.32127
0.452729
0.304349
0.521118
0.295336
0.354456
0.391786
0.330162
0.32737
0.329934
0.53028
0.34048
0.497663
0.366937
0.327471
0.472941
0.519776
0.347824
0.532489
0.480718
0.479566
0.324153
0.532887
0.301877
0.53913
0.532739
0.322566
0.321271
0.470446
0.265271
0.356155
0.452335
0.27796
0.529611
0.502919
0.304259
0.317471
0.319917
0.377753
0.31486
0.315515
0.320509
0.322064
0.549869
0.550216
0.356403
0.465567
0.373388
0.48583
0.272822
0.319192
0.410873
0.322475
0.531067
0.229139
0.288731
0.386276
0.528384
0.511959
0.435988
0.282114
0.321142
0.44321
0.547687
0.532786
0.440289
0.484649
0.466225
0.321315
0.524654
0.442517
0.517471
0.240897
0.288155
0.527611
0.545082
0.510898
0.548117
0.512538
0.496173
0.539873
0.517802
0.531334
0.307548
0.528175
0.264288
0.321328
0.319596
0.551505
0.528596
0.240474
0.520893
0.483416
0.316328
0.532544
0.536618
0.5345
0.321042
0.319214
0.538642
0.319567
0.303142
0.305234
0.322115
0.529128
0.316124
0.551429
0.304738
0.512918
0.542377
0.534016
0.5445
0.323179
0.304615
0.52978
0.555526
0.507347
0.549585
0.545095
0.387836
0.323192
0.323382
0.532722
0.409046
0.317823
0.352299
0.314572
0.531432
0.531813
0.240905
0.322896
0.519389
0.362707
0.523876
0.512896
0.318865
0.304645
0.504038
0.53293
0.324522
0.510923
0.515479
0.529284
0.310243
0.533012
0.304316
0.532908
0.516476
0.314266
0.282817
0.326107
0.532844
0.319777
0.314828
0.300565
0.532508
0.532978
0.316336
0.320392
0.324843
0.532646
0.318332
0.532607
0.324409
0.457009
0.5479
0.297887
0.32464
0.325526
0.388197
0.324775
0.503816
0.292326
0.320308
0.532319
0.319554
0.533134
0.503752
0.532888
0.296877
0.531641
0.542649
0.544554
0.532781
0.5202
0.533688
0.326702
0.532795
0.339996
0.526709
0.313615
0.543244
0.391361
0.320931
0.532685
0.540199
0.317365
0.483993
0.313337
0.320195
0.533402
0.529987
0.303887
0.324213
0.317635
0.33264
0.529177
0.541681
0.311407
0.297716
0.537159
0.536686
0.458453
0.542204
0.531925
0.320712
0.545898
0.331972
0.543208
0.300955
0.461193
0.375753
0.533519
0.520177
0.449268
0.26579
0.323324
0.530801
0.470713
0.397713
0.541793
0.3226
0.528355
0.544295
0.284629
0.352741
0.543054
0.281811
0.532649
0.51917
0.254519
0.535884
0.501172
0.301987
0.531898
0.327908
0.515343
0.296399
0.533163
0.503562
0.326014
0.53275
0.540729
0.539171
0.484385
0.526068
0.454477
0.316548
0.321982
0.294672
0.325292
0.533104
0.433224
0.535518
0.541281
0.301547
0.320137
0.529302
0.548577
0.535438
0.546353
0.315983
0.537259
0.545226
0.321019
0.306632
0.537627
0.529488
0.518501
0.319977
0.46071
0.302034
0.53114
0.502203
0.532766
0.51884
0.320098
0.526035
0.521999
0.542816
0.529069
0.532
0.336594
0.538096
0.3199
0.483111
0.546324
0.359998
0.504098
0.532763
0.541997
0.310106
0.311686
0.455385
0.505625
0.318589
0.318443
0.31099
0.321765
0.514306
0.527991
0.532489
0.244158
0.32107
0.534511
0.529294
0.316371
0.32173
0.361373
0.514199
0.53113
0.526075
0.535245
0.320626
0.318914
0.532987
0.347209
0.316002
0.295191
0.53162
0.309992
0.330716
0.446477
0.528319
0.490214
0.53276
0.531558
0.325861
0.319916
0.311206
0.366305
0.340087
0.321032
0.51925
0.534823
0.514876
0.532486
0.330058
0.295723
0.547877
0.318377
0.531987
0.503181
0.532834
0.303885
0.312001
0.510788
0.532646
0.433082
0.314459
0.523261
0.532767
0.443017
0.540667
0.545925
0.532954
0.48478
0.316486
0.531661
0.532606
0.475987
0.5314
0.533141
0.494815
0.533023
0.536089
0.320872
0.314779
0.298756
0.532806
0.390195
0.318769
0.529187
0.537551
0.288104
0.490084
0.283177
0.49419
0.360834
0.313031
0.548825
0.541185
0.318322
0.429885
0.532776
0.322938
0.522885
0.329135
0.327538
0.476479
0.471505
0.391698
0.530967
0.310636
0.540211
0.31867
0.31407
0.533101
0.31763
0.466506
0.317341
0.489382
0.462411
0.533028
0.513855
0.319262
0.319709
0.47135
0.329753
0.535138
0.354172
0.45697
0.532505
0.54262
0.341007
0.476166
0.489064
0.545114
0.534495
0.27011
0.311497
0.421843
0.487591
0.545554
0.292041
0.531041
0.434583
0.32005
0.308097
0.520257
0.51488
0.53305
0.532839
0.45638
0.529036
0.53261
0.520928
0.316845
0.511115
0.359336
0.536582
0.529026
0.238723
0.502588
0.542726
0.31496
0.313753
0.32572
0.533139
0.32028
0.476357
0.535473
0.512316
0.300096
0.522737
0.327221
0.460282
0.532761
0.532516
0.517887
0.532627
0.47977
0.524588
0.405211
0.526307
0.294784
0.53186
0.533925
0.31409
0.532982
0.529148
0.326141
0.319972
0.320933
0.539553
0.327584
0.532906
0.307894
0.547034
0.32134
0.376213
0.320588
0.53866
0.545631
0.411131
0.211747
0.479671
0.532323
0.313062
0.457647
0.55052
0.326322
0.454639
0.532688
0.54759
0.532089
0.321231
0.362965
0.536452
0.530605
0.484316
0.324909
0.309112
0.524819
0.533054
0.532932
0.533097
0.423401
0.531409
0.419683
0.534778
0.326299
0.326258
0.533088
0.542856
0.532514
0.327966
0.531756
0.429452
0.463067
0.301961
0.325414
0.544061
0.555349
0.431899
0.260895
0.531929
0.53296
0.321295
0.473446
0.535057
0.321288
0.351751
0.320299
0.471663
0.322199
0.305859
0.526782
0.360218
0.545797
0.494898
0.320801
0.323774
0.548734
0.313452
0.322501
0.532644
0.326006
0.273751
0.457632
0.516793
0.531626
0.321356
0.256894
0.322115
0.504897
0.327221
0.532202
0.320453
0.529944
0.490684
0.528046
0.490158
0.524833
0.500462
0.531277
0.544172
0.534466
0.315451
0.315931
0.518765
0.532668
0.396569
0.480957
0.432832
0.532674
0.474629
0.284907
0.534536
0.549727
0.525064
0.321733
0.526673
0.297953
0.531844
0.390418
0.537862
0.532732
0.312908
0.535029
0.323974
0.330513
0.505965
0.29464
0.530068
0.533168
0.537252
0.296744
0.533397
0.322351
0.304231
0.317456
0.320821
0.468168
0.319706
0.487933
0.532717
0.263644
0.329995
0.382594
0.45257
0.489333
0.486091
0.298981
0.329357
0.322427
0.320627
0.210982
0.488896
0.497855
0.320692
0.532425
0.535063
0.320406
0.549616
0.528731
0.532719
0.319337
0.532821
0.524979
0.538355
0.536669
0.315556
0.532581
0.539785
0.527184
0.520929
0.532153
0.325032
0.322848
0.531809
0.420478
0.313106
0.533021
0.328735
0.446074
0.483745
0.513592
0.516708
0.306374
0.479423
0.309791
0.321161
0.533528
0.538745
0.541754
0.539117
0.508543
0.304582
0.545135
0.318118
0.395715
0.546836
0.532774
0.536067
0.321704
0.320548
0.545911
0.319071
0.538164
0.505323
0.334208
0.322035
0.533811
0.319303
0.532684
0.537742
0.506064
0.318868
0.314535
0.391852
0.399845
0.479717
0.366795
0.532166
0.48619
0.523282
0.533121
0.530645
0.318834
0.324735
0.539734
0.532151
0.481595
0.360199
0.3261
0.522294
0.318887
0.531808
0.479946
0.260874
0.53473
0.318699
0.508151
0.29154
0.542527
0.310768
0.530882
0.53244
0.274745
0.520171
0.505172
0.264576
0.532485
0.53008
0.431288
0.330367
0.284616
0.361629
0.543081
0.468268
0.317541
0.457157
0.532597
0.53237
0.292371
0.470435
0.517889
0.362396
0.532143
0.532285
0.233269
0.534359
0.532718
0.290027
0.461977
0.29785
0.492455
0.305187
0.327298
0.544733
0.312174
0.326312
0.319453
0.533743
0.510699
0.313595
0.5318
0.281351
0.513504
0.322394
0.51367
0.288151
0.53251
0.532144
0.499314
0.532601
0.432801
0.532465
0.532688
0.293697
0.496345
0.503546
0.37395
0.530142
0.387252
0.31297
0.54488
0.304473
0.444717
0.280513
0.531276
0.316184
0.329948
0.54127
0.531584
0.305818
0.53572
0.534912
0.533126
0.546049
0.532881
0.316357
0.549004
0.320334
0.324269
0.519353
0.536106
0.549625
0.521249
0.31431
0.304862
0.322196
0.513763
0.532682
0.283698
0.525011
0.330072
0.302347
0.302667
0.520226
0.301252
0.546439
0.534738
0.495482
0.529258
0.533876
0.443209
0.493852
0.341654
0.327587
0.305679
0.532876
0.532872
0.327972
0.488412
0.469254
0.495267
0.321763
0.307663
0.489286
0.218797
0.483625
0.458894
0.320718
0.532376
0.51575
0.319017
0.53111
0.32255
0.535359
0.546591
0.525265
0.319162
0.369697
0.528871
0.236661
0.349027
0.529236
0.243291
0.532346
0.534428
0.495865
0.535196
0.258183
0.532742
0.533009
0.530533
0.285341
0.540456
0.319931
0.326697
0.522345
0.531298
0.532518
0.185677
0.532951
0.496057
0.532813
0.330189
0.325661
0.323619
0.538037
0.321329
0.319886
0.302048
0.457176
0.321812
0.239313
0.347922
0.53221
0.319229
0.532561
0.532566
0.532224
0.295916
0.533764
0.508797
0.532438
0.326804
0.519158
0.322502
0.305956
0.533331
0.318695
0.48507
0.531532
0.533039
0.316894
0.25822
0.317447
0.439149
0.533081
0.183763
0.525756
0.533654
0.536155
0.323253
0.318781
0.270232
0.467827
0.322252
0.533186
0.473862
0.532551
0.525649
0.315644
0.485421
0.325116
0.434408
0.506775
0.548417
0.440161
0.369148
0.518929
0.484758
0.540476
0.301666
0.290604
0.315238
0.537389
0.413648
0.532776
0.319614
0.311658
0.538278
0.533507
0.532553
0.317643
0.532837
0.437794
0.440168
0.470429
0.324326
0.319792
0.232104
0.531325
0.532773
0.519724
0.484011
0.269267
0.538143
0.514109
0.532771
0.532457
0.537787
0.549536
0.532795
0.535051
0.54126
0.321266
0.53523
0.53985
0.531936
0.536293
0.530985
0.446772
0.318034
0.32878
0.478994
0.317635
0.261169
0.5322
0.32167
0.49851
0.534216
0.510657
0.525707
0.324856
0.533618
0.314739
0.327575
0.532819
0.530792
0.532603
0.292643
0.543082
0.531061
0.477047
0.531316
0.321152
0.532
0.54623
0.515936
0.316441
0.53915
0.322206
0.554511
0.298237
0.31808
0.403389
0.351459
0.548703
0.539519
0.532134
0.303362
0.532062
0.315262
0.32184
0.507908
0.385678
0.326916
0.531513
0.317481
0.40345
0.519309
0.49433
0.515829
0.384719
0.467132
0.510505
0.532481
0.444624
0.541753
0.419332
0.552926
0.480758
0.503894
0.328323
0.318774
0.350956
0.539109
0.325449
0.517372
0.536037
0.468164
0.532516
0.401459
0.529334
0.522158
0.321146
0.53516
0.475598
0.378181
0.478387
0.545777
0.504999
0.532408
0.321575
0.321134
0.527281
0.416044
0.421434
0.53666
0.531456
0.532174
0.545131
0.546282
0.482139
0.484043
0.548356
0.319135
0.319357
0.316493
0.294537
0.532953
0.358657
0.416601
0.534479
0.526097
0.323651
0.526497
0.552783
0.291924
0.293469
0.532875
0.536538
0.324623
0.303002
0.307645
0.533148
0.495036
0.319846
0.320057
0.321008
0.326136
0.270576
0.315987
0.552967
0.53233
0.527725
0.30365
0.51159
0.470224
0.47807
0.291238
0.319282
0.506331
0.53311
0.328683
0.532331
0.319167
0.540945
0.322182
0.531677
0.29659
0.515529
0.544768
0.298786
0.441548
0.31716
0.549284
0.326803
0.473319
0.328558
0.394243
0.322647
0.466267
0.313311
0.532614
0.532627
0.476375
0.523957
0.280505
0.514022
0.532312
0.543811
0.468269
0.51425
0.319746
0.302294
0.325916
0.543618
0.228035
0.542438
0.427672
0.53589
0.54755
0.35648
0.537974
0.321715
0.328948
0.320063
0.397937
0.401732
0.530805
0.313815
0.326898
0.533004
0.298264
0.317648
0.428355
0.288818
0.328658
0.329438
0.551234
0.511428
0.476962
0.325487
0.511271
0.531441
0.327639
0.254439
0.522232
0.531761
0.437176
0.405988
0.324236
0.284645
0.307365
0.529425
0.475451
0.406762
0.531715
0.319537
0.442724
0.318711
0.532707
0.542537
0.320133
0.321504
0.480984
0.422751
0.544301
0.541253
0.543445
0.536242
0.546868
0.304062
0.320565
0.312455
0.313545
0.417637
0.532788
0.512825
0.314145
0.297865
0.35154
0.351983
0.532071
0.493351
0.325425
0.241042
0.534211
0.324942
0.509412
0.539736
0.50717
0.532139
0.427302
0.310153
0.303187
0.479486
0.320345
0.325967
0.313379
0.532443
0.530943
0.281888
0.320169
0.533034
0.312015
0.532641
0.543647
0.311362
0.315489
0.320497
0.533855
0.324364
0.533168
0.531869
0.46851
0.299008
0.41685
0.539448
0.523665
0.320294
0.521044
0.480707
0.372782
0.537023
0.555676
0.322357
0.310807
0.509922
0.31597
0.31343
0.517231
0.272261
0.531193
0.52965
0.543003
0.486568
0.542654
0.534159
0.532602
0.321862
0.323559
0.489914
0.529231
0.369485
0.549353
0.25458
0.535866
0.517153
0.443976
0.505699
0.302911
0.358231
0.527205
0.540149
0.478021
0.545068
0.533317
0.532936
0.545362
0.533072
0.52176
0.510002
0.534526
0.533093
0.532579
0.277787
0.501866
0.292651
0.533516
0.53537
0.536901
0.499279
0.534778
0.314565
0.312911
0.240214
0.319909
0.50529
0.315218
0.31927
0.526767
0.319735
0.534511
0.307915
0.517526
0.532972
0.310468
0.300503
0.255658
0.53832
0.322438
0.53021
0.534741
0.317061
0.504116
0.435908
0.270361
0.321675
0.320692
0.535596
0.31074
0.534376
0.39857
0.317505
0.530292
0.531578
0.543409
0.318636
0.447633
0.32408
0.513145
0.532612
0.534115
0.330781
0.528404
0.53673
0.488626
0.317937
0.538191
0.319604
0.321979
0.528194
0.354843
0.546526
0.311727
0.330551
0.349524
0.495281
0.320562
0.228885
0.297734
0.373271
0.532763
0.53436
0.324007
0.465236
0.533334
0.440149
0.326904
0.259183
0.437797
0.318959
0.317189
0.528307
0.322729
0.31878
0.540589
0.551201
0.292024
0.538855
0.306008
0.532891
0.320673
0.509328
0.532779
0.535824
0.532443
0.31917
0.319463
0.320519
0.532624
0.511556
0.465169
0.42338
0.292426
0.238776
0.532022
0.322083
0.53159
0.301259
0.532745
0.521573
0.293255
0.28984
0.321271
0.319989
0.291625
0.479896
0.507249
0.296778
0.534404
0.496697
0.312257
0.319552
0.550926
0.325401
0.532795
0.336636
0.535499
0.51043
0.533707
0.532752
0.322048
0.546307
0.532136
0.553244
0.314984
0.473425
0.470198
0.258619
0.539158
0.496472
0.548965
0.512134
0.546886
0.527119
0.548751
0.531884
0.530269
0.303546
0.542595
0.321142
0.357892
0.528984
0.322413
0.519345
0.473473
0.326392
0.489653
0.312295
0.318212
0.522391
0.465113
0.550817
0.322282
0.511941
0.483975
0.315399
0.301371
0.509659
0.531573
0.296918
0.303663
0.534921
0.550508
0.305376
0.50029
0.545387
0.51366
0.298411
0.319876
0.314015
0.511654
0.308581
0.521595
0.537375
0.532022
0.470328
0.533339
0.321521
0.518114
0.483775
0.544588
0.437632
0.32637
0.321084
0.324809
0.541403
0.535716
0.334537
0.508714
0.252613
0.500792
0.534953
0.322747
0.479704
0.522445
0.485231
0.302078
0.321634
0.289118
0.537432
0.546444
0.481953
0.40555
0.533514
0.326145
0.494348
0.532874
0.528553
0.301685
0.491741
0.326605
0.479799
0.32685
0.528753
0.522513
0.325529
0.537308
0.331571
0.533098
0.497535
0.533176
0.538625
0.322612
0.532079
0.531833
0.531656
0.529489
0.381137
0.532883
0.318148
0.531935
0.323093
0.296525
0.320892
0.29081
0.318639
0.298332
0.547287
0.288271
0.32006
0.512126
0.537665
0.50918
0.320479
0.531827
0.531061
0.532197
0.272824
0.449068
0.533972
0.316678
0.299957
0.31976
0.489627
0.401039
0.310725
0.455014
0.330054
0.532845
0.395602
0.322481
0.372724
0.506837
0.286383
0.531904
0.318632
0.364751
0.294719
0.531636
0.301149
0.507429
0.532845
0.462028
0.325247
0.315659
0.526975
0.549659
0.303557
0.304194
0.532472
0.317472
0.538776
0.305097
0.439357
0.325299
0.534086
0.319863
0.54871
0.296457
0.534788
0.534167
0.540816
0.532987
0.320665
0.326499
0.320317
0.49849
0.526049
0.494023
0.403875
0.326549
0.536832
0.263021
0.509438
0.45341
0.31233
0.323753
0.540813
0.528661
0.326594
0.532712
0.530886
0.540805
0.543015
0.318433
0.496393
0.324624
0.540911
0.30961
0.532475
0.504798
0.514905
0.549272
0.312962
0.554252
0.313737
0.319443
0.532565
0.53297
0.428284
0.528038
0.532951
0.328303
0.540387
0.528836
0.547463
0.304903
0.335156
0.528628
0.317465
0.536154
0.535832
0.521455
0.533763
0.226106
0.350527
0.506665
0.325421
0.517159
0.550018
0.369691
0.519842
0.21387
0.481234
0.540606
0.527323
0.520353
0.320109
0.330645
0.53099
0.51954
0.325799
0.261047
0.318904
0.324781
0.319889
0.330658
0.285836
0.314686
0.530405
0.321867
0.291537
0.534069
0.426712
0.533023
0.31112
0.319727
0.533678
0.366109
0.370307
0.544931
0.291207
0.515305
0.532731
0.478049
0.515374
0.318746
0.534682
0.532711
0.317736
0.321318
0.31301
0.470781
0.477422
0.546727
0.53275
0.529208
0.518204
0.290341
0.53565
0.53269
0.509846
0.317011
0.534424
0.446507
0.284858
0.339817
0.316065
0.320123
0.319755
0.461372
0.520336
0.519769
0.316976
0.306202
0.545378
0.27975
0.534755
0.531801
0.521715
0.527544
0.533317
0.316416
0.322658
0.330332
0.441656
0.313681
0.532629
0.314687
0.533273
0.532265
0.534971
0.294964
0.351524
0.321469
0.533771
0.303538
0.319734
0.531994
0.515172
0.48176
0.532656
0.505706
0.538382
0.314194
0.490083
0.542622
0.418163
0.532763
0.536294
0.539363
0.362432
0.336122
0.548555
0.392553
0.476479
0.325522
0.500575
0.522271
0.316084
0.30796
0.511381
0.399522
0.540624
0.534709
0.311233
0.321692
0.532715
0.296837
0.322004
0.523746
0.510427
0.324831
0.52588
0.532858
0.500781
0.295095
0.462425
0.315003
0.526199
0.542304
0.538274
0.517392
0.532806
0.245578
0.28143
0.527285
0.316792
0.47769
0.319226
0.534219
0.32888
0.50448
0.542243
0.532826
0.330627
0.533162
0.532805
0.317985
0.501083
0.311126
0.552109
0.330778
0.298502
0.309556
0.524024
0.528509
0.254765