# vtk DataFile Version 1.0
unstructured grid
ascii
DATASET UNSTRUCTURED_GRID
points 13672 float
0.0796578 -0.059106 0
0.00128732 0.00159165 0
0.00227961 -0.00102548 0
0.0791586 -0.0598787 0
-0.0546216 0.01 0
0.000495206 0.025 0
0.0800549 -0.035 0
0.135172 -0.08 0
-0.0546216 -0.0451168 0
0.000495206 -0.0301168 0
0.0800549 -0.0901168 0
0.135172 -0.135117 0
-0.0546216 -0.0451168 -0.00551168
0.000495206 -0.0301168 -0.00551168
0.0800549 -0.0901168 -0.00551168
0.135172 -0.135117 -0.00551168
0.135172 -0.08 -0.00551168
0.0800549 -0.035 -0.00551168
0.000495206 0.025 -0.00551168
-0.0546216 0.01 -0.00551168
0.00128732 0.00159165 -0.00551168
0.00227961 -0.00102548 -0.00551168
0.0791586 -0.0598787 -0.00551168
0.0796578 -0.059106 -0.00551168
0.00165953 -0.000990923 0
0.00119576 -0.000874076 0
0.000866021 -0.000641801 0
0.000645147 -0.000349912 0
0.00052235 -1.7281e-05 0
0.00049972 0.000348016 0
0.000601632 0.000737716 0
0.000861774 0.0011403 0
0.00157235 0.00183217 0
0.00188647 0.00206725 0
0.00222612 0.00230203 0
0.00258713 0.00254351 0
0.00296826 0.00279524 0
0.00337118 0.00305664 0
0.00379785 0.00332658 0
0.00425045 0.00360349 0
0.00473139 0.00388521 0
0.0052432 0.00416895 0
0.0057881 0.00445204 0
0.00636753 0.00473281 0
0.00698281 0.00500961 0
0.00763526 0.00528058 0
0.00832616 0.00554366 0
0.00905691 0.00579603 0
0.00982918 0.00603333 0
0.0106445 0.00625033 0
0.0115038 0.00644128 0
0.0124073 0.00660297 0
0.0133543 0.00673414 0
0.0143444 0.00683382 0
0.0153769 0.00690031 0
0.0164512 0.00693173 0
0.0175666 0.00692547 0
0.0187219 0.00687822 0
0.0199156 0.00678477 0
0.0211454 0.00663864 0
0.0224084 0.00643275 0
0.0237018 0.00616676 0
0.0250249 0.00584739 0
0.026375 0.00547298 0
0.0277479 0.00503752 0
0.0291386 0.00453545 0
0.0305433 0.0039653 0
0.0319572 0.0033256 0
0.0333681 0.00260019 0
0.034775 0.00179799 0
0.0361793 0.000930615 0
0.0375798 3.12222e-06 0
0.0389689 -0.000988429 0
0.0403357 -0.00205109 0
0.041675 -0.00318283 0
0.0429849 -0.00437751 0
0.0442643 -0.00562904 0
0.0455126 -0.00693089 0
0.0467314 -0.00827518 0
0.0479204 -0.00965638 0
0.0490661 -0.0110799 0
0.0501515 -0.0125519 0
0.0511696 -0.0140695 0
0.0521492 -0.0156071 0
0.0531202 -0.0171411 0
0.0540851 -0.0186663 0
0.0550431 -0.0201798 0
0.0559923 -0.0216793 0
0.0569311 -0.0231626 0
0.0578582 -0.0246273 0
0.0587723 -0.0260715 0
0.0596721 -0.027493 0
0.0605563 -0.02889 0
0.0614241 -0.0302609 0
0.0622742 -0.0316042 0
0.063106 -0.0329183 0
0.0639186 -0.034202 0
0.0647113 -0.0354543 0
0.0654835 -0.0366743 0
0.0662345 -0.0378613 0
0.0669642 -0.0390145 0
0.0676726 -0.0401333 0
0.0683597 -0.0412172 0
0.0690246 -0.0422665 0
0.0696662 -0.0432819 0
0.0702841 -0.0442636 0
0.0708793 -0.0452111 0
0.0714538 -0.0461237 0
0.072009 -0.047001 0
0.0725452 -0.0478434 0
0.0730611 -0.0486524 0
0.073556 -0.0494294 0
0.0740291 -0.0501756 0
0.0744812 -0.0508916 0
0.0749138 -0.0515773 0
0.0753285 -0.0522331 0
0.0757266 -0.0528592 0
0.076109 -0.0534564 0
0.0764753 -0.0540264 0
0.0768243 -0.054571 0
0.0771553 -0.0550919 0
0.0774679 -0.0555901 0
0.0777617 -0.0560669 0
0.0780369 -0.056523 0
0.0782958 -0.0569578 0
0.0785421 -0.0573703 0
0.0787786 -0.0577603 0
0.0790073 -0.0581279 0
0.0792295 -0.058474 0
0.0794462 -0.0587995 0
0.0798803 -0.0594162 0
0.0800272 -0.0596588 0
0.0800357 -0.0598891 0
0.0799275 -0.0600784 0
0.0797205 -0.0601773 0
0.0794593 -0.0601051 0
0.0789155 -0.0596491 0
0.0786707 -0.0593963 0
0.0784111 -0.0591319 0
0.0781372 -0.0588542 0
0.0778566 -0.0585548 0
0.0775715 -0.0582308 0
0.0772803 -0.0578828 0
0.0769832 -0.0575099 0
0.0766822 -0.0571097 0
0.0763801 -0.0566796 0
0.0760759 -0.0562196 0
0.0757623 -0.0557337 0
0.0754359 -0.0552232 0
0.0750951 -0.0546879 0
0.0747379 -0.054128 0
0.0743626 -0.0535435 0
0.0739688 -0.0529338 0
0.0735559 -0.0522981 0
0.0731238 -0.0516357 0
0.0726718 -0.050946 0
0.0721991 -0.0502288 0
0.0717046 -0.049484 0
0.0711872 -0.0487117 0
0.0706461 -0.047912 0
0.0700804 -0.0470849 0
0.0694892 -0.0462308 0
0.0688718 -0.0453499 0
0.0682271 -0.0444431 0
0.0675544 -0.043511 0
0.0668527 -0.0425546 0
0.0661215 -0.0415748 0
0.06536 -0.040573 0
0.0645676 -0.0395504 0
0.0637439 -0.0385087 0
0.0628887 -0.0374493 0
0.062002 -0.0363741 0
0.0610838 -0.0352847 0
0.0601345 -0.0341831 0
0.0591547 -0.033071 0
0.0581456 -0.0319502 0
0.0571083 -0.0308224 0
0.0560444 -0.0296893 0
0.0549562 -0.028552 0
0.053845 -0.0274126 0
0.0527113 -0.0262746 0
0.051554 -0.0251427 0
0.0503724 -0.0240222 0
0.0491675 -0.0229164 0
0.047941 -0.0218282 0
0.0466955 -0.0207597 0
0.0454337 -0.0197126 0
0.0441592 -0.0186878 0
0.0428751 -0.0176863 0
0.0415841 -0.0167097 0
0.0402878 -0.0157609 0
0.0389879 -0.0148428 0
0.0376864 -0.0139575 0
0.0363853 -0.013107 0
0.0350871 -0.0122931 0
0.0337942 -0.0115164 0
0.0325095 -0.0107772 0
0.0312357 -0.0100756 0
0.0299758 -0.00941024 0
0.0287337 -0.00877784 0
0.0275126 -0.00817571 0
0.0263139 -0.00760375 0
0.0251376 -0.00706528 0
0.0239829 -0.0065649 0
0.0228537 -0.00609619 0
0.0217522 -0.00565563 0
0.0206795 -0.00524226 0
0.0196364 -0.00485507 0
0.0186233 -0.00449318 0
0.0176408 -0.00415577 0
0.016689 -0.00384204 0
0.0157682 -0.00355115 0
0.0148783 -0.00328218 0
0.0140192 -0.00303468 0
0.0131906 -0.00280795 0
0.0123925 -0.00260016 0
0.0116246 -0.00241012 0
0.0108864 -0.00223769 0
0.0101774 -0.00208212 0
0.00949701 -0.00194206 0
0.00884483 -0.0018163 0
0.0082202 -0.0017039 0
0.00762247 -0.00160391 0
0.00705097 -0.00151528 0
0.006505 -0.00143697 0
0.0059838 -0.00136806 0
0.00548662 -0.00130772 0
0.00501265 -0.00125519 0
0.00456114 -0.00120954 0
0.00413136 -0.00116914 0
0.00372257 -0.00113251 0
0.00333398 -0.00109853 0
0.00296466 -0.00106798 0
0.00261363 -0.0010431 0
-0.052721 -0.0445996 0
-0.0508204 -0.0440823 0
-0.0489199 -0.0435651 0
-0.0470193 -0.0430478 0
-0.0451187 -0.0425306 0
-0.0432181 -0.0420134 0
-0.0413175 -0.0414961 0
-0.039417 -0.0409789 0
-0.0375164 -0.0404616 0
-0.0356158 -0.0399444 0
-0.0337152 -0.0394271 0
-0.0318146 -0.0389099 0
-0.0299141 -0.0383927 0
-0.0280135 -0.0378754 0
-0.0261129 -0.0373582 0
-0.0242123 -0.0368409 0
-0.0223117 -0.0363237 0
-0.0204112 -0.0358065 0
-0.0185106 -0.0352892 0
-0.01661 -0.034772 0
-0.0147094 -0.0342547 0
-0.0128088 -0.0337375 0
-0.0109083 -0.0332202 0
-0.00900769 -0.032703 0
-0.00710711 -0.0321858 0
-0.00520653 -0.0316685 0
-0.00330595 -0.0311513 0
-0.00140537 -0.030634 0
0.00190689 -0.0299614 0
0.00332271 -0.0298498 0
0.00474133 -0.0297825 0
0.00616136 -0.0297597 0
0.0075814 -0.0297814 0
0.00900007 -0.0298477 0
0.010416 -0.0299583 0
0.0118278 -0.0301127 0
0.0132342 -0.0303103 0
0.0146339 -0.0305504 0
0.0160259 -0.0308322 0
0.0174091 -0.0311546 0
0.0187824 -0.0315166 0
0.020145 -0.031917 0
0.0214961 -0.0323546 0
0.0228351 -0.032828 0
0.0241613 -0.0333361 0
0.0254744 -0.0338774 0
0.0267738 -0.0344507 0
0.0280592 -0.0350545 0
0.0293306 -0.0356877 0
0.0305875 -0.0363488 0
0.0318301 -0.0370367 0
0.0330581 -0.0377501 0
0.0342717 -0.0384879 0
0.0354708 -0.0392489 0
0.0366556 -0.0400321 0
0.0378262 -0.0408363 0
0.0389828 -0.0416607 0
0.0401254 -0.0425042 0
0.0412543 -0.0433659 0
0.0423698 -0.0442451 0
0.043472 -0.0451408 0
0.0445612 -0.0460523 0
0.0456375 -0.0469789 0
0.0467013 -0.0479199 0
0.0477529 -0.0488746 0
0.0487923 -0.0498424 0
0.04982 -0.0508227 0
0.0508362 -0.051815 0
0.051841 -0.0528187 0
0.0528348 -0.0538333 0
0.0538178 -0.0548584 0
0.0547903 -0.0558935 0
0.0557524 -0.0569382 0
0.0567045 -0.0579922 0
0.0576467 -0.0590549 0
0.0585792 -0.0601261 0
0.0595024 -0.0612055 0
0.0604163 -0.0622926 0
0.0613212 -0.0633873 0
0.0622174 -0.0644891 0
0.0631049 -0.0655979 0
0.0639841 -0.0667134 0
0.064855 -0.0678353 0
0.0657179 -0.0689633 0
0.0665729 -0.0700974 0
0.0674202 -0.0712372 0
0.06826 -0.0723826 0
0.0690925 -0.0735333 0
0.0699178 -0.0746892 0
0.070736 -0.0758501 0
0.0715473 -0.0770159 0
0.0723518 -0.0781863 0
0.0731498 -0.0793612 0
0.0739412 -0.0805405 0
0.0747264 -0.081724 0
0.0755053 -0.0829116 0
0.0762781 -0.0841033 0
0.0770449 -0.0852987 0
0.0778059 -0.0864979 0
0.0785611 -0.0877007 0
0.0793108 -0.088907 0
0.0814681 -0.0912706 0
0.0828814 -0.0924245 0
0.0842946 -0.0935783 0
0.0857079 -0.0947322 0
0.0871211 -0.095886 0
0.0885344 -0.0970399 0
0.0899476 -0.0981937 0
0.0913609 -0.0993476 0
0.0927741 -0.100501 0
0.0941874 -0.101655 0
0.0956006 -0.102809 0
0.0970139 -0.103963 0
0.0984272 -0.105117 0
0.0998404 -0.106271 0
0.101254 -0.107424 0
0.102667 -0.108578 0
0.10408 -0.109732 0
0.105493 -0.110886 0
0.106907 -0.11204 0
0.10832 -0.113194 0
0.109733 -0.114348 0
0.111146 -0.115501 0
0.11256 -0.116655 0
0.113973 -0.117809 0
0.115386 -0.118963 0
0.116799 -0.120117 0
0.118213 -0.121271 0
0.119626 -0.122424 0
0.121039 -0.123578 0
0.122452 -0.124732 0
0.123866 -0.125886 0
0.125279 -0.12704 0
0.126692 -0.128194 0
0.128105 -0.129348 0
0.129519 -0.130501 0
0.130932 -0.131655 0
0.132345 -0.132809 0
0.133758 -0.133963 0
0.135172 -0.133216 0
0.135172 -0.131316 0
0.135172 -0.129415 0
0.135172 -0.127514 0
0.135172 -0.125614 0
0.135172 -0.123713 0
0.135172 -0.121813 0
0.135172 -0.119912 0
0.135172 -0.118012 0
0.135172 -0.116111 0
0.135172 -0.11421 0
0.135172 -0.11231 0
0.135172 -0.110409 0
0.135172 -0.108509 0
0.135172 -0.106608 0
0.135172 -0.104708 0
0.135172 -0.102807 0
0.135172 -0.100906 0
0.135172 -0.0990058 0
0.135172 -0.0971052 0
0.135172 -0.0952046 0
0.135172 -0.0933041 0
0.135172 -0.0914035 0
0.135172 -0.0895029 0
0.135172 -0.0876023 0
0.135172 -0.0857017 0
0.135172 -0.0838012 0
0.135172 -0.0819006 0
0.133758 -0.0788462 0
0.132345 -0.0776923 0
0.130932 -0.0765385 0
0.129519 -0.0753846 0
0.128105 -0.0742308 0
0.126692 -0.0730769 0
0.125279 -0.0719231 0
0.123866 -0.0707692 0
0.122452 -0.0696154 0
0.121039 -0.0684615 0
0.119626 -0.0673077 0
0.118213 -0.0661538 0
0.116799 -0.065 0
0.115386 -0.0638462 0
0.113973 -0.0626923 0
0.11256 -0.0615385 0
0.111146 -0.0603846 0
0.109733 -0.0592308 0
0.10832 -0.0580769 0
0.106907 -0.0569231 0
0.105493 -0.0557692 0
0.10408 -0.0546154 0
0.102667 -0.0534615 0
0.101254 -0.0523077 0
0.0998404 -0.0511538 0
0.0984272 -0.05 0
0.0970139 -0.0488462 0
0.0956006 -0.0476923 0
[...]
CELL_DATA 13116
SCALARS rho float
LOOKUP_TABLE default
0.627732
0.716484
0.312798
0.711505
0.711667
0.695424
0.295391
0.713075
0.569599
0.711628
0.299627
0.288086
0.711668
0.288361
0.307611
0.697931
0.628135
0.709398
0.70805
0.302349
0.61928
0.325947
0.294485
0.710365
0.63
0.712071
0.711611
0.314846
0.607364
0.674136
0.573745
0.290258
0.586782
0.47962
0.296021
0.625359
0.699614
0.713338
0.658808
0.711121
0.70333
0.712985
0.50034
0.305435
0.709912
0.708536
0.711786
0.70889
0.322856
0.550125
0.711837
0.500127
0.285442
0.623992
0.588083
0.614939
0.304298
0.710395
0.557718
0.310467
0.289305
0.711719
0.71473
0.648857
0.58184
0.296031
0.707417
0.698561
0.708287
0.595024
0.308094
0.593321
0.326052
0.298056
0.561119
0.3045
0.70175
0.711709
0.297403
0.708082
0.707651
0.711918
0.710703
0.711343
0.712936
0.443257
0.293796
0.690359
0.712696
0.31719
0.291601
0.716815
0.711142
0.712917
0.682834
0.636515
0.631715
0.565225
0.562807
0.610276
0.693766
0.695328
0.705327
0.433192
0.708869
0.286683
0.39085
0.544761
0.305488
0.618818
0.573754
0.711119
0.633539
0.706768
0.70837
0.708294
0.292077
0.412654
0.711568
0.709587
0.6975
0.329994
0.708588
0.291312
0.713016
0.458952
0.293679
0.527136
0.303842
0.548882
0.711489
0.714707
0.501383
0.325594
0.482969
0.659443
0.559908
0.709991
0.692808
0.709664
0.69452
0.712472
0.529278
0.69628
0.711036
0.28576
0.296307
0.711322
0.711662
0.71193
0.545953
0.711038
0.708416
0.302933
0.711567
0.712519
0.296408
0.698348
0.565126
0.689329
0.710256
0.298903
0.710959
0.297942
0.330931
0.711798
0.712862
0.709204
0.295571
0.463301
0.433665
0.559792
0.305098
0.517511
0.7079
0.293499
0.316329
0.327087
0.710703
0.689144
0.308185
0.447606
0.595368
0.698435
0.692183
0.559368
0.302356
0.707118
0.707606
0.48337
0.689629
0.71115
0.600585
0.295806
0.710376
0.689356
0.711444
0.70754
0.712716
0.380135
0.433915
0.626908
0.522412
0.295875
0.712274
0.713537
0.50817
0.643141
0.29281
0.305292
0.304059
0.704345
0.297244
0.310228
0.312273
0.30301
0.396585
0.656426
0.712948
0.431035
0.302729
0.707065
0.568192
0.308536
0.547268
0.711686
0.71015
0.314854
0.70774
0.407825
0.714343
0.290613
0.597476
0.580132
0.563301
0.711887
0.618468
0.31537
0.454306
0.687189
0.560586
0.687961
0.56028
0.622835
0.713193
0.317851
0.71101
0.71162
0.563799
0.299845
0.325492
0.712023
0.711307
0.586219
0.712296
0.624249
0.704646
0.299711
0.322887
0.386962
0.289522
0.70604
0.711414
0.701652
0.29627
0.710867
0.299331
0.438684
0.709241
0.303268
0.711885
0.712172
0.560232
0.710431
0.317984
0.560085
0.708842
0.564346
0.709912
0.298568
0.296815
0.297093
0.657694
0.328889
0.332535
0.37063
0.358881
0.71548
0.279793
0.712431
0.711722
0.301269
0.304274
0.299419
0.465333
0.31979
0.689938
0.684246
0.710246
0.303898
0.703511
0.578483
0.320078
0.311077
0.672344
0.711157
0.706925
0.302336
0.693244
0.449687
0.714906
0.712724
0.711576
0.712653
0.296983
0.707247
0.281908
0.704973
0.711454
0.683498
0.306343
0.369589
0.711649
0.298064
0.714106
0.711733
0.359966
0.703757
0.710641
0.299309
0.711027
0.71112
0.271632
0.711307
0.433508
0.56516
0.714219
0.443544
0.698951
0.296919
0.709827
0.376043
0.635236
0.699888
0.711525
0.313677
0.393382
0.712697
0.302713
0.712428
0.708665
0.442135
0.559565
0.303225
0.318711
0.71274
0.551923
0.699501
0.296593
0.297268
0.710994
0.711714
0.297604
0.711696
0.290897
0.291248
0.709321
0.713806
0.55649
0.331453
0.710201
0.57303
0.697645
0.711473
0.711495
0.548247
0.344028
0.28735
0.307748
0.694987
0.308354
0.596055
0.363899
0.293943
0.389266
0.5642
0.153974
0.303192
0.712851
0.290605
0.711058
0.610763
0.706352
0.682483
0.711142
0.319382
0.298145
0.385877
0.347394
0.712989
0.631109
0.70478
0.610662
0.711341
0.655666
0.711752
0.680802
0.672346
0.711804
0.707672
0.685912
0.391978
0.509951
0.626322
0.322614
0.682909
0.616199
0.286877
0.707981
0.56027
0.297477
0.303165
0.308161
0.303008
0.633781
0.29896
0.296007
0.705654
0.297837
0.582862
0.316565
0.700066
0.711607
0.324109
0.32459
0.712919
0.463707
0.321914
0.302616
0.323374
0.305111
0.298714
0.30399
0.331918
0.440339
0.303276
0.694433
0.33559
0.712543
0.362927
0.290928
0.496178
0.284711
0.315536
0.285634
0.710603
0.448275
0.650343
0.557712
0.297643
0.645733
0.712643
0.441921
0.703446
0.661638
0.663216
0.299642
0.56332
0.414217
0.711094
0.567411
0.302273
0.2854
0.707288
0.349285
0.44377
0.700567
0.391978
0.697467
0.712789
0.305046
0.314584
0.299541
0.514388
0.310916
0.273847
0.304226
0.279228
0.711893
0.711725
0.470421
0.612943
0.484582
0.710124
0.386653
0.301365
0.571981
0.3031
0.714381
0.351324
0.402215
0.497196
0.710442
0.712737
0.558447
0.358311
0.287759
0.558385
0.712919
0.61162
0.555358
0.70929
0.705691
0.304182
0.711516
0.576539
0.685592
0.365931
0.320826
0.706401
0.711467
0.680731
0.711674
0.712899
0.712279
0.709967
0.68367
0.705924
0.313068
0.710824
0.373868
0.298096
0.313184
0.711379
0.712889
0.364147
0.712958
0.622922
0.307453
0.637457
0.711042
0.711611
0.314074
0.301515
0.711977
0.325054
0.327023
0.285215
0.304847
0.715636
0.271432
0.711277
0.333971
0.716345
0.711656
0.707097
0.711701
0.325602
0.30653
0.713463
0.714362
0.70081
0.711884
0.711605
0.486576
0.299631
0.305386
0.700969
0.563164
0.309005
0.46467
0.293727
0.713236
0.707861
0.367133
0.32868
0.712829
0.450022
0.712755
0.670264
0.302584
0.409094
0.699774
0.56087
0.299054
0.712645
0.712896
0.713321
0.303047
0.560022
0.301685
0.563159
0.684541
0.332234
0.392948
0.331171
0.563846
0.30688
0.295093
0.413615
0.646667
0.713051
0.295488
0.317062
0.309609
0.642689
0.327708
0.690979
0.285995
0.596199
0.711675
0.365448
0.29698
0.295331
0.48739
0.306513
0.712467
0.302433
0.302606
0.692005
0.290516
0.704078
0.713676
0.564102
0.318094
0.714029
0.71117
0.711432
0.70194
0.713822
0.709103
0.288172
0.593119
0.434203
0.716272
0.298472
0.713064
0.545602
0.294315
0.574741
0.711693
0.301278
0.678147
0.291755
0.308575
0.705289
0.71063
0.293031
0.286352
0.296702
0.287856
0.713516
0.71036
0.302407
0.304527
0.712444
0.709962
0.598991
0.711141
0.707208
0.299136
0.711572
0.439151
0.711776
0.412027
0.625828
0.478355
0.706855
0.700407
0.577539
0.380711
0.311195
0.708419
0.604895
0.620352
0.711086
0.28656
0.710399
0.711542
0.391502
0.507922
0.711275
0.360663
0.580874
0.687936
0.365374
0.71043
0.681298
0.318312
0.712728
0.29645
0.712929
0.305727
0.703854
0.714217
0.310012
0.657809
0.711006
0.712006
0.625401
0.713874
0.579461
0.346628
0.446167
0.289505
0.296962
0.559244
0.550209
0.709097
0.711699
0.312492
0.33851
0.713819
0.711643
0.712894
0.712261
0.302402
0.707591
0.711629
0.302659
0.283923
0.711699
0.711601
0.712968
0.288039
0.583983
0.325313
0.712448
0.713076
0.606031
0.717568
0.307313
0.716759
0.712503
0.710969
0.711053
0.701445
0.430113
0.711606
0.305419
0.704921
0.711646
0.462878
0.713023
0.618066
0.711617
0.447377
0.422328
0.582165
0.672577
0.324817
0.332064
0.303529
0.303752
0.716218
0.710428
0.617184
0.358849
0.30182
0.708122
0.69869
0.273536
0.340279
0.468486
0.704005
0.70771
0.711679
0.709341
0.306008
0.325276
0.559726
0.291097
0.310344
0.30288
0.703017
0.323967
0.324913
0.610438
0.714943
0.710678
0.680089
0.70616
0.293187
0.29681
0.304254
0.568192
0.448785
0.291175
0.698531
0.708635
0.713972
0.704237
0.289039
0.321208
0.711663
0.317212
0.700798
0.714157
0.568059
0.293098
0.324127
0.712918
0.571743
0.647153
0.27185
0.712622
0.685557
0.607988
0.711848
0.712512
0.559865
0.709115
0.303283
0.705875
0.581602
0.691537
0.712102
0.559294
0.711298
0.560823
0.709677
0.301943
0.308147
0.321612
0.576457
0.548333
0.318123
0.714163
0.712353
0.289016
0.681122
0.326806
0.689083
0.552562
0.323812
0.71165
0.710137
0.310287
0.542765
0.576222
0.300063
0.712877
0.294329
0.284673
0.653203
0.624903
0.49608
0.705796
0.30349
0.711018
0.31431
0.289157
0.703639
0.308006
0.638512
0.293333
0.682604
0.6252
0.560297
0.712776
0.29433
0.303968
0.699442
0.50855
0.713039
0.493237
0.631823
0.697086
0.710898
0.517269
0.616067
0.71057
0.711484
0.708145
0.378175
0.331848
0.537478
0.71053
0.711487
0.380331
0.705583
0.647295
0.383688
0.292938
0.684943
0.703437
0.560564
0.562934
0.70034
0.708546
0.6637
0.70461
0.292154
0.677938
0.466726
0.710921
0.711561
0.359792
0.714304
0.711709
0.311366
0.311032
0.298987
0.559335
0.298573
0.65093
0.711783
0.677973
0.335909
0.714094
0.293579
0.585163
0.646246
0.603242
0.697413
0.63905
0.638444
0.707373
0.570707
0.716386
0.305584
0.700523
0.706855
0.48993
0.561338
0.711266
0.297835
0.290463
0.30108
0.71156
0.331634
0.560882
0.304125
0.713112
0.285204
0.478607
0.289328
0.710999
0.712065
0.623694
0.30071
0.640655
0.6665
0.306699
0.599922
0.711671
0.290822
0.616177
0.567445
0.711689
0.701504
0.301955
0.542699
0.712618
0.70763
0.705221
0.326861
0.417087
0.712411
0.559693
0.560551
0.559721
0.610284
0.71444
0.60529
0.710519
0.326453
0.294575
0.559832
0.71169
0.658501
0.296115
0.701529
0.623055
0.653253
0.3069
0.42669
0.711719
0.712627
0.569816
0.346419
0.704697
0.561746
0.295532
0.626653
0.70935
0.296471
0.290652
0.287501
0.708119
0.330638
0.31396
0.711423
0.501118
0.711557
0.684693
0.295356
0.299402
0.711955
0.309176
0.299644
0.573769
0.282577
0.386853
0.619353
0.71378
0.714344
0.302155
0.332745
0.299728
0.714059
0.286196
0.713995
0.296658
0.714363
0.712591
0.710758
0.710648
0.716689
0.712766
0.707541
0.711702
0.712844
0.271264
0.30446
0.716807
0.665104
0.499241
0.709151
0.580613
0.657537
0.691287
0.322424
0.70909
0.711694
0.715745
0.299842
0.716523
0.324503
0.7119
0.488668
0.708626
0.702408
0.324067
0.7131
0.308529
0.471481
0.714841
0.302934
0.699509
0.559423
0.713397
0.302731
0.705666
0.30443
0.292686
0.294115
0.31279
0.692923
0.303353
0.694167
0.630314
0.347658
0.29625
0.481947
0.581126
0.663874
0.707697
0.317926
0.296672
0.297182
0.289139
0.298686
0.667435
0.711599
0.316707
0.637473
0.711939
0.284176
0.71154
0.697666
0.641203
0.30218
0.562276
0.713779
0.711737
0.711387
0.310966
0.714045
0.711752
0.716241
0.683674
0.688163
0.334546
0.294449
0.710319
0.533424
0.327933
0.703041
0.293516
0.566169
0.671398
0.712971
0.712938
0.292096
0.708999
0.3837
0.300123
0.70508
0.712086
0.711527
0.710908
0.696756
0.292945
0.711683
0.307359
0.497866
0.711792
0.562558
0.712721
0.300105
0.313425
0.711644
0.333876
0.712016
0.662681
0.444117
0.342346
0.709789
0.293324
0.702246
0.712151
0.701001
0.293535
0.309304
0.520076
0.56696
0.657743
0.494713
0.697075
0.708171
0.712329
0.559187
0.713858
0.289893
0.340377
0.711761
0.685421
0.703017
0.461522
0.295704
0.711008
0.300689
0.70753
0.620294
0.341201
0.713219
0.300929
0.713164
0.314257
0.711617
0.314744
0.71352
0.685137
0.289467
0.713024
0.672481
0.289982
0.615449
0.708001
0.582353
0.284034
0.375916
0.489659
0.711235
0.702465
0.33921
0.580014
0.713298
0.689433
0.33527
0.662938
0.716432
0.447776
0.695392
0.7051
0.355677
0.71204
0.56697
0.311236
0.637922
0.30362
0.691269
0.30353
0.288035
0.71141
0.315233
0.310337
0.291823
0.706792
0.715797
0.398922
0.705153
0.378565
0.710502
0.305183
0.716558
0.366184
0.698793
0.710147
0.698158
0.613615
0.545507
0.682223
0.637582
0.314298
0.652135
0.698144
0.588942
0.714126
0.487673
0.425352
0.711682
0.306959
0.582768
0.328277
0.704859
0.27502
0.295506
0.710058
0.706952
0.305285
0.710516
0.708292
0.559307
0.712281
0.562815
0.30375
0.711479
0.30776
0.297839
0.712799
0.709805
0.713026
0.712573
0.29044
0.303221
0.299093
0.71695
0.625587
0.375951
0.714051
0.295258
0.303433
0.305221
0.712619
0.413532
0.711707
0.712919
0.649524
0.71086
0.713006
0.616512
0.699844
0.440319
0.290085
0.305728
0.562967
0.562347
0.295207
0.668067
0.70779
0.698076
0.301462
0.452547
0.709288
0.322559
0.706821
0.684162
0.308993
0.667671
0.71658
0.321481
0.714548
0.297653
0.708883
0.711571
0.716753
0.298704
0.46335
0.699085
0.360281
0.435676
0.710433
0.369653
0.674169
0.707933
0.711739
0.708139
0.346453
0.572626
0.704869
0.707655
0.394981
0.711239
0.317552
0.282432
0.7135
0.707936
0.629574
0.262007
0.703146
0.648565
0.561244
0.296401
0.289617
0.324332
0.710586
0.296736
0.292562
0.316659
0.683571
0.296683
0.359286
0.443243
0.713852
0.313924
0.614552
0.651775
0.710718
0.302792
0.710902
0.680174
0.628404
0.429011
0.682343
0.297074
0.307114
0.705356
0.304819
0.671811
0.712981
0.560124
0.313213
0.367937
0.30163
0.555704
0.560245
0.257943
0.713435
0.706413
0.708808
0.30613
0.304845
0.379343
0.703831
0.313448
0.559262
0.610927
0.65997
0.712211
0.298879
0.677664
0.288742
0.68511
0.66446
0.711652
0.673609
0.592473
0.685261
0.704485
0.711706
0.304332
0.361388
0.299278
0.708377
0.566551
0.563463
0.312593
0.423075
0.711263
0.711225
0.595214
0.30538
0.710926
0.554001
0.559316
0.703189
0.305239
0.305649
0.356054
0.708028
0.626791
0.682343
0.709895
0.378063
0.713634
0.677543
0.631974
0.623518
0.713257
0.711699
0.690073
0.710387
0.711471
0.302633
0.710069
0.711066
0.698638
0.711095
0.708119
0.658005
0.308048
0.285582
0.695663
0.325554
0.346655
0.711235
0.304535
0.649649
0.707665
0.716299
0.715358
0.299786
0.711428
0.294038
0.293544
0.693349
0.714882
0.704459
0.302316
0.711629
0.705641
0.699994
0.706662
0.323014
0.694979
0.71165
0.715638
0.380934
0.709915
0.3011
0.711778
0.303861
0.309501
0.630896
0.461181
0.711642
0.710719
0.700932
0.315242
0.692256
0.401787
0.304813
0.712484
0.482095
0.321675
0.70368
0.299167
0.507294
0.694888
0.7114
0.713394
0.484003
0.595784
0.685077
0.699462
0.658914
0.711561
0.53398
0.71524
0.709419
0.677366
0.288231
0.297733
0.457902
0.710896
0.298299
0.687673
0.710777
0.637012
0.7003
0.610124
0.700742
0.705386
0.301587
0.710397
0.708292
0.598636
0.708677
0.711666
0.712517
0.675403
0.306414
0.303753
0.716294
0.571154
0.611895
0.709874
0.712314
0.705503
0.711463
0.71157
0.655536
0.707771
0.71151
0.29533
0.292389
0.275176
0.334971
0.56038
0.475766
0.603843
0.713369
0.707132
0.299751
0.715513
0.711291
0.30235
0.405814
0.561101
0.7102
0.307109
0.288553
0.285617
0.559232
0.711938
0.38388
0.290348
0.307984
0.293397
0.355722
0.329416
0.714503
0.709714
0.713587
0.304237
0.716493
0.654216
0.6147
0.347912
0.301881
0.712361
0.559987
0.320442
0.697777
0.320056
0.710152
0.302716
0.710886
0.303106
0.713998
0.711772
0.303175
0.560866
0.343065
0.711532
0.285447
0.659606
0.292758
0.537244
0.297363
0.655398
0.307069
0.602608
0.606426
0.614181
0.716865
0.349508
0.716438
0.663584
0.711702
0.651272
0.710396
0.302684
0.444099
0.297193
0.711159
0.329764
0.711717
0.552181
0.709605
0.711693
0.544146
0.711706
0.3052
0.29295
0.294845
0.534332
0.635752
0.713053
0.304109
0.329182
0.702818
0.400652
0.292772
0.65349
0.403004
0.322793
0.28636
0.713099
0.67068
0.66261
0.29609
0.716061
0.708385
0.289837
0.366046
0.712457
0.705169
0.684025
0.511662
0.42005
0.394416
0.303477
0.713341
0.696841
0.565361
0.704272
0.300269
0.608852
0.299807
0.579163
0.71171
0.304428
0.335254
0.699792
0.650549
0.711713
0.71152
0.711366
0.711204
0.711759
0.303193
0.324882
0.29958
0.299175
0.627169
0.568291
0.672227
0.301377
0.314339
0.490486
0.290666
0.705826
0.710919
0.310605
0.364202
0.707516
0.30003
0.685221
0.711243
0.714324
0.688592
0.625636
0.326502
0.301384
0.706383
0.305316
0.456757
0.393583
0.667781
0.709729
0.338564
0.309446
0.559541
0.306661
0.707674
0.711172
0.318168
0.311579
0.283389
0.707609
0.290347
0.559381
0.711489
0.641827
0.289009
0.529453
0.711865
0.713733
0.295928
0.715297
0.695126
0.291131
0.711899
0.714409
0.29998
0.320567
0.712849
0.305002
0.298743
0.716649
0.378191
0.710101
0.700225
0.71093
0.693718
0.711701
0.707375
0.676054
0.298075
0.423867
0.705031
0.71565
0.462849
0.711547
0.369851
0.709497
0.713302
0.595479
0.678856
0.444237
0.467633
0.715151
0.711892
0.70909
0.711813
0.705428
0.560363
0.712445
0.559366
0.71375
0.712571
0.713046
0.560134
0.682164
0.288874
0.71212
0.312795
0.709667
0.709902
0.71073
0.712643
0.707402
0.309515
0.302778
0.36524
0.296617
0.714264
0.302444
0.302088
0.708641
0.28857
0.710294
0.303128
0.7162
0.713853
0.315226
0.403335
0.342533
0.710615
0.299268
0.713051
0.713131
0.301534
0.712208
0.562123
0.351639
0.312448
0.289628
0.705226
0.322521
0.710514
0.609359
0.345689
0.708242
0.703727
0.711327
0.320049
0.613875
0.291844
0.716819
0.680341
0.70851
0.330073
0.715979
0.709897
0.710371
0.428211
0.710578
0.324771
0.304398
0.711726
0.471159
0.711633
0.427738
0.327441
0.448129
0.711456
0.307962
0.28922
0.306452
0.551484
0.562512
0.713372
0.279211
0.649484
0.706256
0.554867
0.48513
0.338655
0.563732
0.330297
0.301901
0.711449
0.305284
0.317104
0.711616
0.71186
0.302314
0.708869
0.303514
0.560676
0.316944
0.712538
0.592391
0.707883
0.663201
0.31671
0.301444
0.293589
0.690784
0.712798
0.593188
0.560921
0.396492
0.346943
0.697983
0.298687
0.709988
0.404507
0.600681
0.699599
0.301879
0.305913
0.306022
0.309079
0.307967
0.700652
0.715074
0.30348
0.710821
0.671949
0.348516
0.300271
0.711593
0.318976
0.713497
0.434391
0.708266
0.683406
0.710631
0.564109
0.304274
0.711542
0.710052
0.713113
0.316962
0.703187
0.603873
0.344994
0.710874
0.698434
0.715352
0.715877
0.711744
0.712019
0.712536
0.700694
0.70769
0.314256
0.711117
0.306284
0.502086
0.710515
0.293351
0.713998
0.706477
0.327156
0.710531
0.317404
0.291779
0.712611
0.702789
0.711885
0.303398
0.715666
0.638
0.31715
0.304117
0.712867
0.70808
0.4078
0.310427
0.711481
0.71173
0.327825
0.675686
0.711766
0.671974
0.300307
0.323423
0.291822
0.683636
0.31745
0.715476
0.708118
0.699205
0.660422
0.713334
0.303831
0.712828
0.625837
0.711752
0.673476
0.295491
0.296851
0.29433
0.710462
0.712876
0.431388
0.681846
0.334092
0.699504
0.709343
0.286283
0.693382
0.71532
0.658525
0.304144
0.297456
0.336083
0.712211
0.711639
0.636089
0.511504
0.712008
0.318588
0.662905
0.560438
0.715989
0.303859
0.636527
0.33011
0.70848
0.289324
0.714432
0.712724
0.295669
0.711971
0.502612
0.559944
0.683105
0.559245
0.711421
0.443529
0.696172
0.703567
0.709259
0.713994
0.474578
0.560246
0.274714
0.704179
0.295404
0.309141
0.304904
0.306721
0.327889
0.303565
0.711839
0.395929
0.295139
0.694005
0.711916
0.715349
0.388689
0.706718
0.703713
0.683892
0.295422
0.671824
0.707538
0.334337
0.311635
0.301479
0.662032
0.504109
0.317084
0.663046
0.289355
0.564027
0.497804
0.291533
0.475036
0.67862
0.339064
0.707951
0.299056
0.581349
0.406703
0.713163
0.412963
0.69592
0.56045
0.706187
0.482882
0.305663
0.713555
0.711735
0.314457
0.292592
0.69462
0.308379
0.709765
0.304457
0.561868
0.290918
0.707309
0.324397
0.711837
0.308418
0.709594
0.712517
0.711827
0.560737
0.276599
0.295451
0.385147
0.712316
0.708428
0.711221
0.639748
0.32753
0.711766
0.33984
0.712732
0.698124
0.42349
0.343292
0.711195
0.713726
0.292028
0.573869
0.713964
0.711428
0.710952
0.30059
0.664535
0.30968
0.711562
0.314905
0.64322
0.712265
0.713943
0.711959
0.347603
0.711962
0.313783
0.30135
0.707409
0.560958
0.580278
0.715702
0.560271
0.317134
0.709681
0.713061
0.712634
0.292957
0.448362
0.704101
0.30209
0.709814
0.711178
0.713868
0.712948
0.316754
0.482319
0.673846
0.295248
0.713031
0.711513
0.509255
0.712751
0.315427
0.706772
0.709805
0.696741
0.712961
0.296743
0.296715
0.713207
0.715371
0.323095
0.355625
0.321444
0.297365
0.293782
0.29009
0.320242
0.326954
0.713951
0.296034
0.300876
0.711586
0.581481
0.559648
0.423009
0.311383
0.707111
0.494797
0.566379
0.711572
0.40532
0.680513
0.618074
0.620407
0.717068
0.300455
0.713241
0.650801
0.301053
0.303448
0.427579
0.705878
0.621727
0.71172
0.699634
0.715669
0.717542
0.360968
0.712502
0.660877
0.713209
0.309423
0.707784
0.688421
0.358817
0.448576
0.282385
0.289815
0.287268
0.621644
0.695672
0.716681
0.302319
0.407138
0.711791
0.289248
0.712981
0.704051
0.714169
0.696674
0.711302
0.331968
0.290931
0.287324
0.617338
0.310915
0.708109
0.287023
0.705962
0.694919
0.709986
0.332058
0.478521
0.440249
0.712817
0.307606
0.300875
0.711496
0.716948
0.68287
0.697826
0.712804
0.709707
0.330675
0.636085
0.711626
0.52754
0.713281
0.712375
0.710531
0.449024
0.430654
0.712717
0.494514
0.665052
0.3096
0.713074
0.713102
0.381766
0.31841
0.716295
0.527042
0.711799
0.71293
0.323868
0.303897
0.56692
0.469547
0.397599
0.712319
0.712856
0.331427
0.712282
0.5679
0.713004
0.332079
0.621009
0.328018
0.711729
0.711711
0.70984
0.71602
0.572387
0.360478
0.372336
0.71557
0.30861
0.615507
0.34165
0.71097
0.2837
0.683589
0.71161
0.566234
0.330175
0.559334
0.561492
0.299468
0.712864
0.289399
0.713002
0.324964
0.302122
0.28251
0.712454
0.710443
0.368582
0.364331
0.711455
0.711754