# vtk DataFile Version 1.0
unstructured grid
ascii
DATASET UNSTRUCTURED_GRID
points 13672 float
0.0796578 -0.059106 0
0.00128732 0.00159165 0
0.00227961 -0.00102548 0
0.0791586 -0.0598787 0
-0.0546216 0.01 0
0.000495206 0.025 0
0.0800549 -0.035 0
0.135172 -0.08 0
-0.0546216 -0.0451168 0
0.000495206 -0.0301168 0
0.0800549 -0.0901168 0
0.135172 -0.135117 0
-0.0546216 -0.0451168 -0.00551168
0.000495206 -0.0301168 -0.00551168
0.0800549 -0.0901168 -0.00551168
0.135172 -0.135117 -0.00551168
0.135172 -0.08 -0.00551168
0.0800549 -0.035 -0.00551168
0.000495206 0.025 -0.00551168
-0.0546216 0.01 -0.00551168
0.00128732 0.00159165 -0.00551168
0.00227961 -0.00102548 -0.00551168
0.0791586 -0.0598787 -0.00551168
0.0796578 -0.059106 -0.00551168
0.00165953 -0.000990923 0
0.00119576 -0.000874076 0
0.000866021 -0.000641801 0
0.000645147 -0.000349912 0
0.00052235 -1.7281e-05 0
0.00049972 0.000348016 0
0.000601632 0.000737716 0
0.000861774 0.0011403 0
0.00157235 0.00183217 0
0.00188647 0.00206725 0
0.00222612 0.00230203 0
0.00258713 0.00254351 0
0.00296826 0.00279524 0
0.00337118 0.00305664 0
0.00379785 0.00332658 0
0.00425045 0.00360349 0
0.00473139 0.00388521 0
0.0052432 0.00416895 0
0.0057881 0.00445204 0
0.00636753 0.00473281 0
0.00698281 0.00500961 0
0.00763526 0.00528058 0
0.00832616 0.00554366 0
0.00905691 0.00579603 0
0.00982918 0.00603333 0
0.0106445 0.00625033 0
0.0115038 0.00644128 0
0.0124073 0.00660297 0
0.0133543 0.00673414 0
0.0143444 0.00683382 0
0.0153769 0.00690031 0
0.0164512 0.00693173 0
0.0175666 0.00692547 0
0.0187219 0.00687822 0
0.0199156 0.00678477 0
0.0211454 0.00663864 0
0.0224084 0.00643275 0
0.0237018 0.00616676 0
0.0250249 0.00584739 0
0.026375 0.00547298 0
0.0277479 0.00503752 0
0.0291386 0.00453545 0
0.0305433 0.0039653 0
0.0319572 0.0033256 0
0.0333681 0.00260019 0
0.034775 0.00179799 0
0.0361793 0.000930615 0
0.0375798 3.12222e-06 0
0.0389689 -0.000988429 0
0.0403357 -0.00205109 0
0.041675 -0.00318283 0
0.0429849 -0.00437751 0
0.0442643 -0.00562904 0
0.0455126 -0.00693089 0
0.0467314 -0.00827518 0
0.0479204 -0.00965638 0
0.0490661 -0.0110799 0
0.0501515 -0.0125519 0
0.0511696 -0.0140695 0
0.0521492 -0.0156071 0
0.0531202 -0.0171411 0
0.0540851 -0.0186663 0
0.0550431 -0.0201798 0
0.0559923 -0.0216793 0
0.0569311 -0.0231626 0
0.0578582 -0.0246273 0
0.0587723 -0.0260715 0
0.0596721 -0.027493 0
0.0605563 -0.02889 0
0.0614241 -0.0302609 0
0.0622742 -0.0316042 0
0.063106 -0.0329183 0
0.0639186 -0.034202 0
0.0647113 -0.0354543 0
0.0654835 -0.0366743 0
0.0662345 -0.0378613 0
0.0669642 -0.0390145 0
0.0676726 -0.0401333 0
0.0683597 -0.0412172 0
0.0690246 -0.0422665 0
0.0696662 -0.0432819 0
0.0702841 -0.0442636 0
0.0708793 -0.0452111 0
0.0714538 -0.0461237 0
0.072009 -0.047001 0
0.0725452 -0.0478434 0
0.0730611 -0.0486524 0
0.073556 -0.0494294 0
0.0740291 -0.0501756 0
0.0744812 -0.0508916 0
0.0749138 -0.0515773 0
0.0753285 -0.0522331 0
0.0757266 -0.0528592 0
0.076109 -0.0534564 0
0.0764753 -0.0540264 0
0.0768243 -0.054571 0
0.0771553 -0.0550919 0
0.0774679 -0.0555901 0
0.0777617 -0.0560669 0
0.0780369 -0.056523 0
0.0782958 -0.0569578 0
0.0785421 -0.0573703 0
0.0787786 -0.0577603 0
0.0790073 -0.0581279 0
0.0792295 -0.058474 0
0.0794462 -0.0587995 0
0.0798803 -0.0594162 0
0.0800272 -0.0596588 0
0.0800357 -0.0598891 0
0.0799275 -0.0600784 0
0.0797205 -0.0601773 0
0.0794593 -0.0601051 0
0.0789155 -0.0596491 0
0.0786707 -0.0593963 0
0.0784111 -0.0591319 0
0.0781372 -0.0588542 0
0.0778566 -0.0585548 0
0.0775715 -0.0582308 0
0.0772803 -0.0578828 0
0.0769832 -0.0575099 0
0.0766822 -0.0571097 0
0.0763801 -0.0566796 0
0.0760759 -0.0562196 0
0.0757623 -0.0557337 0
0.0754359 -0.0552232 0
0.0750951 -0.0546879 0
0.0747379 -0.054128 0
0.0743626 -0.0535435 0
0.0739688 -0.0529338 0
0.0735559 -0.0522981 0
0.0731238 -0.0516357 0
0.0726718 -0.050946 0
0.0721991 -0.0502288 0
0.0717046 -0.049484 0
0.0711872 -0.0487117 0
0.0706461 -0.047912 0
0.0700804 -0.0470849 0
0.0694892 -0.0462308 0
0.0688718 -0.0453499 0
0.0682271 -0.0444431 0
0.0675544 -0.043511 0
0.0668527 -0.0425546 0
0.0661215 -0.0415748 0
0.06536 -0.040573 0
0.0645676 -0.0395504 0
0.0637439 -0.0385087 0
0.0628887 -0.0374493 0
0.062002 -0.0363741 0
0.0610838 -0.0352847 0
0.0601345 -0.0341831 0
0.0591547 -0.033071 0
0.0581456 -0.0319502 0
0.0571083 -0.0308224 0
0.0560444 -0.0296893 0
0.0549562 -0.028552 0
0.053845 -0.0274126 0
0.0527113 -0.0262746 0
0.051554 -0.0251427 0
0.0503724 -0.0240222 0
0.0491675 -0.0229164 0
0.047941 -0.0218282 0
0.0466955 -0.0207597 0
0.0454337 -0.0197126 0
0.0441592 -0.0186878 0
0.0428751 -0.0176863 0
0.0415841 -0.0167097 0
0.0402878 -0.0157609 0
0.0389879 -0.0148428 0
0.0376864 -0.0139575 0
0.0363853 -0.013107 0
0.0350871 -0.0122931 0
0.0337942 -0.0115164 0
0.0325095 -0.0107772 0
0.0312357 -0.0100756 0
0.0299758 -0.00941024 0
0.0287337 -0.00877784 0
0.0275126 -0.00817571 0
0.0263139 -0.00760375 0
0.0251376 -0.00706528 0
0.0239829 -0.0065649 0
0.0228537 -0.00609619 0
0.0217522 -0.00565563 0
0.0206795 -0.00524226 0
0.0196364 -0.00485507 0
0.0186233 -0.00449318 0
0.0176408 -0.00415577 0
0.016689 -0.00384204 0
0.0157682 -0.00355115 0
0.0148783 -0.00328218 0
0.0140192 -0.00303468 0
0.0131906 -0.00280795 0
0.0123925 -0.00260016 0
0.0116246 -0.00241012 0
0.0108864 -0.00223769 0
0.0101774 -0.00208212 0
0.00949701 -0.00194206 0
0.00884483 -0.0018163 0
0.0082202 -0.0017039 0
0.00762247 -0.00160391 0
0.00705097 -0.00151528 0
0.006505 -0.00143697 0
0.0059838 -0.00136806 0
0.00548662 -0.00130772 0
0.00501265 -0.00125519 0
0.00456114 -0.00120954 0
0.00413136 -0.00116914 0
0.00372257 -0.00113251 0
0.00333398 -0.00109853 0
0.00296466 -0.00106798 0
0.00261363 -0.0010431 0
-0.052721 -0.0445996 0
-0.0508204 -0.0440823 0
-0.0489199 -0.0435651 0
-0.0470193 -0.0430478 0
-0.0451187 -0.0425306 0
-0.0432181 -0.0420134 0
-0.0413175 -0.0414961 0
-0.039417 -0.0409789 0
-0.0375164 -0.0404616 0
-0.0356158 -0.0399444 0
-0.0337152 -0.0394271 0
-0.0318146 -0.0389099 0
-0.0299141 -0.0383927 0
-0.0280135 -0.0378754 0
-0.0261129 -0.0373582 0
-0.0242123 -0.0368409 0
-0.0223117 -0.0363237 0
-0.0204112 -0.0358065 0
-0.0185106 -0.0352892 0
-0.01661 -0.034772 0
-0.0147094 -0.0342547 0
-0.0128088 -0.0337375 0
-0.0109083 -0.0332202 0
-0.00900769 -0.032703 0
-0.00710711 -0.0321858 0
-0.00520653 -0.0316685 0
-0.00330595 -0.0311513 0
-0.00140537 -0.030634 0
0.00190689 -0.0299614 0
0.00332271 -0.0298498 0
0.00474133 -0.0297825 0
0.00616136 -0.0297597 0
0.0075814 -0.0297814 0
0.00900007 -0.0298477 0
0.010416 -0.0299583 0
0.0118278 -0.0301127 0
0.0132342 -0.0303103 0
0.0146339 -0.0305504 0
0.0160259 -0.0308322 0
0.0174091 -0.0311546 0
0.0187824 -0.0315166 0
0.020145 -0.031917 0
0.0214961 -0.0323546 0
0.0228351 -0.032828 0
0.0241613 -0.0333361 0
0.0254744 -0.0338774 0
0.0267738 -0.0344507 0
0.0280592 -0.0350545 0
0.0293306 -0.0356877 0
0.0305875 -0.0363488 0
0.0318301 -0.0370367 0
0.0330581 -0.0377501 0
0.0342717 -0.0384879 0
0.0354708 -0.0392489 0
0.0366556 -0.0400321 0
0.0378262 -0.0408363 0
0.0389828 -0.0416607 0
0.0401254 -0.0425042 0
0.0412543 -0.0433659 0
0.0423698 -0.0442451 0
0.043472 -0.0451408 0
0.0445612 -0.0460523 0
0.0456375 -0.0469789 0
0.0467013 -0.0479199 0
0.0477529 -0.0488746 0
0.0487923 -0.0498424 0
0.04982 -0.0508227 0
0.0508362 -0.051815 0
0.051841 -0.0528187 0
0.0528348 -0.0538333 0
0.0538178 -0.0548584 0
0.0547903 -0.0558935 0
0.0557524 -0.0569382 0
0.0567045 -0.0579922 0
0.0576467 -0.0590549 0
0.0585792 -0.0601261 0
0.0595024 -0.0612055 0
0.0604163 -0.0622926 0
0.0613212 -0.0633873 0
0.0622174 -0.0644891 0
0.0631049 -0.0655979 0
0.0639841 -0.0667134 0
0.064855 -0.0678353 0
0.0657179 -0.0689633 0
0.0665729 -0.0700974 0
0.0674202 -0.0712372 0
0.06826 -0.0723826 0
0.0690925 -0.0735333 0
0.0699178 -0.0746892 0
0.070736 -0.0758501 0
0.0715473 -0.0770159 0
0.0723518 -0.0781863 0
0.0731498 -0.0793612 0
0.0739412 -0.0805405 0
0.0747264 -0.081724 0
0.0755053 -0.0829116 0
0.0762781 -0.0841033 0
0.0770449 -0.0852987 0
0.0778059 -0.0864979 0
0.0785611 -0.0877007 0
0.0793108 -0.088907 0
0.0814681 -0.0912706 0
0.0828814 -0.0924245 0
0.0842946 -0.0935783 0
0.0857079 -0.0947322 0
0.0871211 -0.095886 0
0.0885344 -0.0970399 0
0.0899476 -0.0981937 0
0.0913609 -0.0993476 0
0.0927741 -0.100501 0
0.0941874 -0.101655 0
0.0956006 -0.102809 0
0.0970139 -0.103963 0
0.0984272 -0.105117 0
0.0998404 -0.106271 0
0.101254 -0.107424 0
0.102667 -0.108578 0
0.10408 -0.109732 0
0.105493 -0.110886 0
0.106907 -0.11204 0
0.10832 -0.113194 0
0.109733 -0.114348 0
0.111146 -0.115501 0
0.11256 -0.116655 0
0.113973 -0.117809 0
0.115386 -0.118963 0
0.116799 -0.120117 0
0.118213 -0.121271 0
0.119626 -0.122424 0
0.121039 -0.123578 0
0.122452 -0.124732 0
0.123866 -0.125886 0
0.125279 -0.12704 0
0.126692 -0.128194 0
0.128105 -0.129348 0
0.129519 -0.130501 0
0.130932 -0.131655 0
0.132345 -0.132809 0
0.133758 -0.133963 0
0.135172 -0.133216 0
0.135172 -0.131316 0
0.135172 -0.129415 0
0.135172 -0.127514 0
0.135172 -0.125614 0
0.135172 -0.123713 0
0.135172 -0.121813 0
0.135172 -0.119912 0
0.135172 -0.118012 0
0.135172 -0.116111 0
0.135172 -0.11421 0
0.135172 -0.11231 0
0.135172 -0.110409 0
0.135172 -0.108509 0
0.135172 -0.106608 0
0.135172 -0.104708 0
0.135172 -0.102807 0
0.135172 -0.100906 0
0.135172 -0.0990058 0
0.135172 -0.0971052 0
0.135172 -0.0952046 0
0.135172 -0.0933041 0
0.135172 -0.0914035 0
0.135172 -0.0895029 0
0.135172 -0.0876023 0
0.135172 -0.0857017 0
0.135172 -0.0838012 0
0.135172 -0.0819006 0
0.133758 -0.0788462 0
0.132345 -0.0776923 0
0.130932 -0.0765385 0
0.129519 -0.0753846 0
0.128105 -0.0742308 0
0.126692 -0.0730769 0
0.125279 -0.0719231 0
0.123866 -0.0707692 0
0.122452 -0.0696154 0
0.121039 -0.0684615 0
0.119626 -0.0673077 0
0.118213 -0.0661538 0
0.116799 -0.065 0
0.115386 -0.0638462 0
0.113973 -0.0626923 0
0.11256 -0.0615385 0
0.111146 -0.0603846 0
0.109733 -0.0592308 0
0.10832 -0.0580769 0
0.106907 -0.0569231 0
0.105493 -0.0557692 0
0.10408 -0.0546154 0
0.102667 -0.0534615 0
0.101254 -0.0523077 0
0.0998404 -0.0511538 0
0.0984272 -0.05 0
0.0970139 -0.0488462 0
0.0956006 -0.0476923 0
[...]
CELL_DATA 13116
SCALARS rho float
LOOKUP_TABLE default
0.632545
0.715552
0.313678
0.711726
0.712119
0.697412
0.296653
0.713083
0.579168
0.71213
0.301219
0.291464
0.712101
0.29058
0.302126
0.69953
0.629222
0.711991
0.705775
0.306117
0.626335
0.320769
0.297127
0.712233
0.641616
0.711953
0.712122
0.315585
0.621393
0.683065
0.577137
0.291163
0.599568
0.46865
0.296569
0.630743
0.706148
0.710764
0.664346
0.711012
0.702295
0.71304
0.490419
0.308134
0.707842
0.706189
0.711178
0.706767
0.315752
0.562182
0.711817
0.490193
0.289971
0.624875
0.600351
0.626885
0.307181
0.712345
0.571909
0.305578
0.291696
0.712046
0.713685
0.654979
0.585424
0.299571
0.707203
0.705187
0.707628
0.600016
0.302494
0.608149
0.321872
0.301436
0.561661
0.305563
0.706196
0.711859
0.299719
0.711418
0.712233
0.711832
0.712258
0.708878
0.711882
0.447464
0.297178
0.69802
0.712384
0.317566
0.293334
0.715697
0.712368
0.712727
0.691083
0.646748
0.643302
0.566365
0.563757
0.623684
0.701013
0.696055
0.703832
0.422759
0.708917
0.288932
0.386696
0.539851
0.307808
0.631996
0.574073
0.711075
0.643997
0.711318
0.711566
0.7082
0.295559
0.398141
0.71136
0.709475
0.704279
0.326347
0.707961
0.293154
0.712844
0.447575
0.297131
0.538484
0.306564
0.561723
0.711308
0.714884
0.512911
0.318592
0.487556
0.665204
0.559696
0.709687
0.700182
0.709567
0.698768
0.711709
0.539973
0.700176
0.711927
0.286183
0.296931
0.711272
0.712312
0.711837
0.563406
0.708384
0.706338
0.304538
0.712209
0.711684
0.298982
0.704897
0.566534
0.697101
0.712194
0.300674
0.712385
0.30067
0.327757
0.712057
0.71268
0.711901
0.296426
0.463907
0.426483
0.559642
0.300063
0.52304
0.707918
0.295966
0.310277
0.322493
0.710697
0.691642
0.31135
0.436235
0.59955
0.705148
0.694193
0.572851
0.305565
0.70673
0.707824
0.476644
0.696241
0.71111
0.606346
0.29788
0.710407
0.691919
0.712275
0.706916
0.712379
0.38069
0.424076
0.639498
0.532699
0.299057
0.712974
0.710137
0.498679
0.653412
0.290809
0.306911
0.305589
0.704214
0.299804
0.313442
0.313096
0.304618
0.382407
0.661523
0.712777
0.436707
0.305851
0.706854
0.567945
0.311568
0.565827
0.712089
0.711197
0.315574
0.707723
0.408383
0.714424
0.291601
0.603894
0.596158
0.563955
0.711662
0.624381
0.313177
0.441469
0.695177
0.561107
0.690693
0.560057
0.629397
0.713132
0.311856
0.710892
0.71216
0.564682
0.300803
0.318058
0.708757
0.710996
0.591419
0.711199
0.627314
0.709627
0.301437
0.322301
0.38183
0.287646
0.706341
0.71227
0.705904
0.299446
0.710169
0.302974
0.43671
0.709232
0.304845
0.711801
0.712219
0.560628
0.712395
0.314388
0.560419
0.712621
0.565298
0.709562
0.301227
0.300355
0.29939
0.663169
0.325222
0.325868
0.368568
0.348361
0.712838
0.284687
0.712043
0.711992
0.304952
0.30814
0.303049
0.458685
0.319387
0.697653
0.68613
0.71024
0.305538
0.703099
0.59509
0.320262
0.305839
0.6764
0.710814
0.706238
0.30554
0.695229
0.436786
0.714873
0.712793
0.711464
0.712712
0.299186
0.707176
0.283017
0.705175
0.711869
0.691894
0.309265
0.367734
0.712136
0.301673
0.712835
0.712051
0.359423
0.70893
0.712252
0.302926
0.710207
0.712354
0.270788
0.711223
0.440889
0.582852
0.714124
0.450183
0.705365
0.300065
0.712088
0.376775
0.641448
0.700419
0.712292
0.314594
0.383661
0.711704
0.30401
0.712898
0.708818
0.429457
0.559649
0.305898
0.315232
0.712557
0.570051
0.706013
0.300102
0.299937
0.710873
0.711999
0.298361
0.711809
0.294065
0.294519
0.709316
0.71371
0.551192
0.331276
0.709795
0.576498
0.699266
0.710791
0.712813
0.565576
0.342441
0.286087
0.311123
0.697026
0.311602
0.599476
0.362443
0.295609
0.380143
0.559715
0.155174
0.304662
0.711527
0.293664
0.712339
0.624366
0.704306
0.690894
0.711055
0.316045
0.301784
0.385677
0.346235
0.713215
0.641512
0.703275
0.624334
0.712367
0.665248
0.711677
0.687552
0.681365
0.713067
0.711237
0.689058
0.386082
0.502709
0.630504
0.317549
0.684558
0.627862
0.290863
0.7079
0.560676
0.299743
0.306661
0.310451
0.306213
0.645982
0.296292
0.298111
0.705478
0.301381
0.59855
0.317627
0.700843
0.714866
0.323148
0.318004
0.712761
0.45728
0.322651
0.305945
0.323278
0.307451
0.302327
0.3075
0.327249
0.438009
0.305316
0.695139
0.333229
0.711989
0.363955
0.292861
0.509578
0.283969
0.316062
0.285273
0.710533
0.44203
0.661304
0.553096
0.301212
0.655835
0.712326
0.445132
0.708719
0.670697
0.672088
0.30334
0.564285
0.400392
0.712554
0.569603
0.304682
0.287933
0.707525
0.348327
0.449484
0.701085
0.386674
0.704162
0.713002
0.308868
0.30881
0.295764
0.518033
0.305423
0.277033
0.299342
0.280473
0.712107
0.711985
0.464983
0.626113
0.489358
0.710176
0.373208
0.299897
0.582252
0.30544
0.712765
0.348422
0.391545
0.507999
0.708343
0.712561
0.576357
0.358006
0.289929
0.576636
0.71293
0.61838
0.573738
0.709175
0.706008
0.306408
0.714901
0.592801
0.693742
0.35487
0.320168
0.711107
0.71237
0.689301
0.712092
0.712363
0.712124
0.712113
0.692036
0.704009
0.314468
0.708901
0.378308
0.295445
0.315965
0.711619
0.709523
0.358686
0.712023
0.635876
0.31029
0.643004
0.710603
0.713497
0.314972
0.300367
0.71215
0.325675
0.328176
0.283315
0.307079
0.713906
0.273343
0.711515
0.331592
0.715793
0.711614
0.706446
0.712037
0.326074
0.310232
0.71041
0.714457
0.706726
0.712107
0.712176
0.498407
0.30328
0.307508
0.701191
0.574674
0.311375
0.460118
0.295337
0.713096
0.707905
0.355835
0.323461
0.712137
0.456935
0.711209
0.679855
0.305466
0.408587
0.705589
0.561406
0.301808
0.712463
0.712723
0.710077
0.303355
0.559873
0.304931
0.563638
0.692792
0.332073
0.379003
0.325253
0.564069
0.309034
0.297616
0.399137
0.651817
0.714402
0.297927
0.317497
0.311224
0.648318
0.32368
0.69326
0.286772
0.610828
0.712085
0.36645
0.299756
0.298033
0.499609
0.308523
0.712348
0.305513
0.299789
0.693767
0.289785
0.704165
0.712579
0.564804
0.319775
0.71247
0.712316
0.712278
0.70191
0.713685
0.709116
0.288255
0.598872
0.439919
0.713523
0.301402
0.71301
0.551068
0.295056
0.577277
0.712562
0.301424
0.685598
0.293345
0.302696
0.705101
0.710543
0.294744
0.286489
0.299015
0.287744
0.713382
0.712227
0.302814
0.308297
0.712981
0.709739
0.613376
0.712304
0.707252
0.300958
0.712293
0.432019
0.711752
0.397108
0.637191
0.485703
0.706797
0.706758
0.594006
0.367952
0.31258
0.708001
0.619183
0.621337
0.712319
0.285655
0.713787
0.71222
0.399489
0.499376
0.712295
0.359264
0.584432
0.695847
0.36431
0.710311
0.689659
0.316869
0.714508
0.298723
0.712359
0.307789
0.703807
0.713266
0.311526
0.663259
0.712358
0.712356
0.638181
0.715983
0.595842
0.340068
0.432666
0.29273
0.300347
0.559192
0.568669
0.708679
0.712375
0.314696
0.335512
0.715417
0.712029
0.712866
0.712296
0.305566
0.71121
0.712155
0.306376
0.288043
0.711539
0.708368
0.71221
0.288157
0.600044
0.324217
0.714551
0.712203
0.612635
0.71528
0.309624
0.71561
0.71207
0.712312
0.710894
0.70107
0.436648
0.712919
0.307038
0.705639
0.712145
0.462184
0.71341
0.62512
0.711562
0.436873
0.40836
0.598359
0.681763
0.325672
0.331862
0.305274
0.305719
0.716072
0.713913
0.623599
0.348561
0.303807
0.707396
0.705155
0.273493
0.337256
0.467852
0.709645
0.707219
0.711013
0.712208
0.307584
0.326159
0.559884
0.292912
0.31355
0.305663
0.702374
0.323075
0.32506
0.622336
0.711905
0.710672
0.683951
0.705681
0.296586
0.293772
0.306222
0.564216
0.444131
0.29241
0.705187
0.711877
0.712677
0.70318
0.289656
0.322878
0.712099
0.319317
0.700618
0.713168
0.570215
0.294797
0.324051
0.712363
0.574282
0.651294
0.272159
0.711494
0.688854
0.619809
0.711754
0.71251
0.560089
0.709005
0.30648
0.705459
0.585526
0.695125
0.714361
0.559266
0.711217
0.560849
0.709226
0.299092
0.303873
0.323315
0.580011
0.55356
0.320028
0.715558
0.712999
0.292323
0.688778
0.325481
0.695932
0.546702
0.317779
0.712
0.712195
0.312487
0.561582
0.580147
0.303197
0.712679
0.297741
0.285856
0.662831
0.637085
0.50916
0.704148
0.305202
0.712429
0.308587
0.290632
0.703769
0.310409
0.648852
0.294875
0.690025
0.63672
0.560483
0.712589
0.291931
0.300677
0.700365
0.499469
0.713061
0.485343
0.641979
0.698645
0.712309
0.508328
0.629462
0.710588
0.712277
0.707875
0.378931
0.332391
0.555928
0.710562
0.712292
0.372802
0.704108
0.651945
0.383601
0.294563
0.6932
0.709233
0.560391
0.562935
0.700841
0.712503
0.668295
0.710155
0.293404
0.68676
0.464487
0.710799
0.708357
0.350784
0.71414
0.712068
0.307718
0.308296
0.302671
0.559314
0.300524
0.660755
0.713384
0.686814
0.336187
0.711723
0.296543
0.601142
0.652325
0.609525
0.70425
0.644655
0.649663
0.712088
0.578877
0.713519
0.307824
0.700362
0.706165
0.480368
0.561347
0.714238
0.300206
0.288653
0.304176
0.711452
0.331464
0.560742
0.306364
0.713106
0.287536
0.486645
0.290248
0.712561
0.712107
0.626092
0.316587
0.651688
0.671044
0.308839
0.614156
0.711933
0.29199
0.628306
0.569233
0.712105
0.701145
0.30434
0.536621
0.712851
0.705279
0.706035
0.326632
0.403138
0.710945
0.559845
0.561018
0.559797
0.617633
0.714704
0.612761
0.710424
0.326271
0.297663
0.559914
0.712158
0.663043
0.299632
0.701088
0.629856
0.661578
0.307552
0.426005
0.711854
0.712784
0.585815
0.345368
0.703266
0.56187
0.296805
0.638794
0.712284
0.297388
0.29258
0.287534
0.708282
0.326059
0.315343
0.710605
0.494705
0.712295
0.69231
0.296123
0.303068
0.712145
0.30562
0.296919
0.576685
0.290327
0.373663
0.631236
0.713636
0.713254
0.304087
0.330835
0.301083
0.712819
0.289586
0.712943
0.29411
0.715386
0.712392
0.70905
0.710374
0.716289
0.712001
0.707169
0.712042
0.71219
0.274118
0.306177
0.716648
0.669827
0.513894
0.709264
0.595007
0.662652
0.694559
0.321722
0.708998
0.711988
0.712424
0.300592
0.715706
0.322748
0.709483
0.501109
0.711651
0.702184
0.318002
0.713511
0.310475
0.459804
0.713927
0.305557
0.705807
0.55934
0.713293
0.305758
0.705563
0.306211
0.294436
0.295813
0.313541
0.694877
0.299021
0.699139
0.636763
0.346694
0.298349
0.4922
0.597334
0.673281
0.707874
0.319517
0.300256
0.298181
0.290135
0.314239
0.676501
0.711509
0.317102
0.643238
0.71356
0.284657
0.711842
0.704322
0.647258
0.303421
0.562324
0.716029
0.712881
0.711262
0.305257
0.713462
0.712613
0.715529
0.692077
0.690137
0.327211
0.296221
0.707744
0.551846
0.327751
0.703312
0.295476
0.583751
0.679694
0.712369
0.71232
0.293648
0.70912
0.379507
0.300905
0.709794
0.712481
0.712353
0.710774
0.703574
0.294687
0.712071
0.302895
0.512076
0.712045
0.563577
0.712889
0.301077
0.314645
0.712147
0.331789
0.712143
0.672771
0.434151
0.336879
0.709763
0.294818
0.702003
0.712285
0.706735
0.295072
0.304941
0.530609
0.574342
0.667169
0.49301
0.697931
0.708218
0.711845
0.559115
0.715145
0.292496
0.335094
0.711918
0.687731
0.704207
0.462178
0.298979
0.714693
0.296673
0.707551
0.633397
0.339366
0.71342
0.303355
0.713004
0.314685
0.712261
0.311215
0.711053
0.688236
0.292343
0.712846
0.681634
0.293111
0.622118
0.706043
0.59634
0.283274
0.368807
0.484173
0.712301
0.702881
0.336824
0.596488
0.714559
0.691624
0.335798
0.67093
0.713804
0.455203
0.696419
0.705367
0.350587
0.711033
0.568255
0.312423
0.64791
0.306884
0.697588
0.305803
0.289077
0.712361
0.315939
0.311772
0.290308
0.706624
0.713921
0.392463
0.703539
0.369178
0.71397
0.30689
0.714412
0.364289
0.700147
0.707778
0.703819
0.620857
0.564282
0.685711
0.643974
0.315165
0.662863
0.704277
0.58711
0.715348
0.499521
0.414191
0.712082
0.30992
0.598287
0.326762
0.703368
0.277526
0.297548
0.712179
0.70669
0.309094
0.710403
0.711696
0.559282
0.712296
0.562837
0.30688
0.711795
0.311288
0.300477
0.712575
0.712363
0.713065
0.71195
0.291242
0.305358
0.3004
0.715501
0.632484
0.367665
0.713928
0.298794
0.305979
0.306035
0.712263
0.39857
0.712074
0.712431
0.660453
0.710723
0.712143
0.626984
0.704042
0.442131
0.292712
0.309486
0.563028
0.562234
0.298653
0.677017
0.707969
0.70308
0.303891
0.441742
0.709213
0.32078
0.707098
0.686704
0.312317
0.672391
0.716273
0.323246
0.713202
0.295439
0.708479
0.712248
0.716106
0.295379
0.470894
0.705458
0.355691
0.443595
0.710224
0.360461
0.678355
0.707629
0.711668
0.71157
0.345246
0.574579
0.709674
0.70537
0.394457
0.711179
0.311944
0.28176
0.711733
0.707657
0.636236
0.26403
0.702881
0.659597
0.561872
0.299941
0.292799
0.324844
0.710424
0.298007
0.29117
0.315574
0.685833
0.294238
0.349762
0.445957
0.712581
0.316587
0.621506
0.657725
0.71065
0.305829
0.709451
0.688754
0.634646
0.427954
0.690839
0.297348
0.309964
0.705336
0.308678
0.680204
0.714691
0.560291
0.316028
0.366942
0.30194
0.574062
0.560064
0.258805
0.710667
0.706237
0.711819
0.307668
0.300898
0.379354
0.704176
0.315184
0.559155
0.624769
0.665481
0.710622
0.301425
0.685348
0.289013
0.686009
0.674417
0.712051
0.675469
0.591377
0.693466
0.705551
0.711883
0.307482
0.362182
0.302805
0.711558
0.578942
0.564716
0.315479
0.410377
0.712743
0.70968
0.600775
0.309167
0.710832
0.572324
0.577327
0.703557
0.30746
0.309436
0.350382
0.707825
0.633497
0.690879
0.709963
0.375298
0.713543
0.686463
0.638683
0.629892
0.713152
0.712004
0.692762
0.712803
0.712407
0.304974
0.709241
0.710963
0.698969
0.710577
0.707716
0.66298
0.311122
0.290097
0.698497
0.325304
0.345541
0.71112
0.299835
0.660666
0.70693
0.715025
0.711992
0.302193
0.711303
0.2958
0.296683
0.69556
0.714699
0.703399
0.305389
0.71168
0.703966
0.701372
0.706055
0.317463
0.69593
0.71214
0.716349
0.380463
0.712109
0.302597
0.711974
0.306018
0.312466
0.632245
0.457783
0.712
0.712387
0.700782
0.313983
0.693637
0.395295
0.299665
0.712244
0.49343
0.321637
0.702552
0.303214
0.523119
0.702021
0.710944
0.712442
0.495229
0.610861
0.69324
0.69991
0.663501
0.712346
0.552361
0.715293
0.709516
0.686117
0.288257
0.299922
0.454096
0.710755
0.300701
0.69562
0.71066
0.647619
0.700537
0.612354
0.706756
0.710726
0.302751
0.710301
0.708465
0.598001
0.708815
0.712112
0.71239
0.678877
0.307932
0.300104
0.713966
0.583343
0.618588
0.709628
0.709768
0.703917
0.712361
0.712273
0.665329
0.707804
0.711927
0.292618
0.297
0.276303
0.332841
0.56073
0.47041
0.610504
0.713474
0.711815
0.302365
0.712223
0.711517
0.30554
0.394906
0.561001
0.709738
0.309026
0.289228
0.284122
0.559156
0.711831
0.384035
0.292671
0.311461
0.29773
0.353762
0.329182
0.714562
0.707436
0.715638
0.307046
0.715064
0.663165
0.628243
0.342734
0.305407
0.712164
0.559903
0.321013
0.698985
0.321961
0.712163
0.305078
0.710802
0.30674
0.712625
0.711915
0.306096
0.578849
0.33484
0.711838
0.291851
0.668358
0.294681
0.546333
0.297719
0.663778
0.309169
0.609359
0.612356
0.627746
0.7164
0.344697
0.714229
0.667791
0.711797
0.660427
0.714014
0.306255
0.43525
0.300722
0.712326
0.332373
0.712087
0.569984
0.712282
0.712097
0.537736
0.712936
0.300082
0.296021
0.29209
0.54585
0.637171
0.710284
0.305934
0.322536
0.703209
0.407289
0.294145
0.65629
0.389096
0.323172
0.290332
0.713162
0.680194
0.671278
0.299086
0.714175
0.708352
0.291334
0.369674
0.711972
0.704776
0.684945
0.528256
0.42756
0.394705
0.305282
0.7132
0.698817
0.575293
0.709301
0.297306
0.62035
0.302153
0.582357
0.711994
0.307973
0.331887
0.701733
0.653215
0.712
0.712412
0.712286
0.71108
0.712054
0.304937
0.319822
0.303075
0.30186
0.630767
0.570796
0.681623
0.304323
0.316846
0.481246
0.292504
0.704099
0.710588
0.311702
0.352971
0.706849
0.302802
0.69337
0.712511
0.712975
0.690465
0.631632
0.327728
0.305086
0.706531
0.308838
0.443753
0.388252
0.671772
0.70974
0.338786
0.312683
0.55954
0.30888
0.707867
0.712334
0.32038
0.308176
0.287157
0.706547
0.293707
0.559304
0.713937
0.651943
0.290591
0.54772
0.712073
0.711442
0.29777
0.712623
0.698394
0.29346
0.711694
0.714514
0.301032
0.320735
0.712353
0.306843
0.301608
0.714077
0.382489
0.707301
0.706354
0.712352
0.698431
0.712186
0.706981
0.68024
0.299401
0.426085
0.706771
0.714149
0.469587
0.71186
0.358743
0.709015
0.7124
0.609225
0.687505
0.434982
0.464733
0.71187
0.712405
0.709207
0.711938
0.704672
0.560284
0.712432
0.559352
0.71361
0.712327
0.712916
0.560093
0.685661
0.29239
0.712015
0.31398
0.709659
0.709158
0.71268
0.711882
0.711182
0.306267
0.30383
0.358637
0.298506
0.712963
0.306275
0.303237
0.712811
0.289118
0.712851
0.304891
0.713686
0.713205
0.31602
0.409157
0.34091
0.710435
0.302512
0.710102
0.713623
0.301696
0.712027
0.579584
0.351324
0.313635
0.291342
0.70993
0.322587
0.710433
0.610614
0.337998
0.707079
0.702551
0.712286
0.321888
0.625418
0.293298
0.7153
0.683821
0.708437
0.329993
0.714507
0.709605
0.710363
0.413625
0.710382
0.326141
0.306498
0.711524
0.464811
0.712185
0.421217
0.327473
0.448716
0.711208
0.30996
0.292764
0.308051
0.547352
0.56293
0.713358
0.279049
0.658498
0.70519
0.573251
0.474168
0.336734
0.581146
0.330803
0.304502
0.708517
0.307297
0.318724
0.711523
0.712077
0.3053
0.711757
0.304894
0.560612
0.317272
0.712327
0.597877
0.711367
0.668234
0.311347
0.303799
0.295096
0.693295
0.712389
0.608419
0.576799
0.401288
0.348777
0.698518
0.300063
0.707337
0.405375
0.606872
0.706042
0.305413
0.308439
0.308279
0.312318
0.31005
0.702265
0.713523
0.307105
0.709678
0.680942
0.3414
0.296331
0.711849
0.319082
0.712301
0.437663
0.711583
0.691718
0.709119
0.564578
0.299868
0.712222
0.710062
0.713205
0.317347
0.703627
0.618169
0.343716
0.710735
0.703572
0.715389
0.713882
0.712056
0.711799
0.712599
0.700671
0.705677
0.315831
0.712311
0.308586
0.495434
0.710232
0.294856
0.712308
0.706677
0.320108
0.710472
0.317792
0.29355
0.712366
0.703187
0.712096
0.304984
0.713745
0.649508
0.317458
0.307261
0.712717
0.708063
0.400345
0.310164
0.71334
0.711978
0.327966
0.684503
0.711974
0.681421
0.303903
0.324926
0.292958
0.691924
0.313383
0.712613
0.71144
0.69946
0.668669
0.712403
0.305416
0.712274
0.638571
0.711898
0.675094
0.297498
0.298323
0.292777
0.712243
0.713199
0.435021
0.690284
0.332074
0.704953
0.709227
0.2843
0.696988
0.712362
0.66818
0.307087
0.300864
0.33396
0.712286
0.712184
0.647688
0.528061
0.710546
0.319452
0.672576
0.56088
0.714754
0.306696
0.648532
0.322931
0.708546
0.291628
0.711295
0.712506
0.298732
0.711843
0.492382
0.559942
0.6911
0.559158
0.711304
0.429269
0.697127
0.702464
0.70935
0.711018
0.484791
0.560601
0.279372
0.702907
0.29331
0.312388
0.303491
0.309077
0.328518
0.306825
0.712061
0.397027
0.292717
0.701287
0.711859
0.713647
0.387537
0.710956
0.708916
0.686317
0.30515
0.675111
0.707357
0.331181
0.311712
0.303674
0.671571
0.519318
0.319399
0.6686
0.290155
0.56434
0.511919
0.295081
0.481644
0.68731
0.337009
0.708048
0.296012
0.578895
0.398282
0.713021
0.39947
0.702802
0.560846
0.706461
0.471841
0.308468
0.713419
0.712015
0.313526
0.294366
0.696495
0.311852
0.712081
0.307102
0.579539
0.28994
0.70698
0.319813
0.712079
0.311792
0.709518
0.71156
0.712259
0.560955
0.281061
0.297885
0.384566
0.71219
0.712744
0.711037
0.64122
0.320982
0.713125
0.337901
0.712306
0.698683
0.413864
0.337188
0.712422
0.710389
0.293777
0.577447
0.713851
0.712436
0.712347
0.297209
0.674151
0.311433
0.71245
0.312631
0.649202
0.712048
0.713797
0.712155
0.340072
0.71215
0.314633
0.302347
0.707617
0.561281
0.593819
0.713054
0.56065
0.317555
0.712077
0.712904
0.712661
0.294649
0.438648
0.709331
0.305907
0.709347
0.711057
0.711974
0.71281
0.320712
0.473098
0.682949
0.298165
0.712319
0.711791
0.509016
0.712514
0.326472
0.706901
0.712111
0.703527
0.712775
0.300211
0.298916
0.71064
0.712899
0.316167
0.350372
0.316623
0.300203
0.291723
0.292594
0.319925
0.326746
0.711429
0.29384
0.304396
0.713588
0.594565
0.559619
0.4121
0.31442
0.70607
0.492062
0.562532
0.712203
0.392069
0.689143
0.624771
0.633401
0.714896
0.303732
0.713186
0.656482
0.300275
0.305556
0.416815
0.706126
0.6346
0.712068
0.70097
0.714685
0.715301
0.361912
0.712175
0.666015
0.713055
0.312179
0.707372
0.689329
0.359477
0.441723
0.287168
0.290835
0.28783
0.633525
0.702683
0.716735
0.304859
0.414022
0.711961
0.292289
0.71383
0.702785
0.712096
0.703483
0.709593
0.328678
0.292175
0.286881
0.627374
0.308962
0.706175
0.28646
0.706027
0.696337
0.709024
0.329905
0.469816
0.425721
0.711784
0.307678
0.303046
0.711363
0.71471
0.689319
0.699422
0.71266
0.712092
0.331357
0.648062
0.712236
0.54588
0.711909
0.713398
0.712344
0.456681
0.43275
0.712758
0.507828
0.673447
0.310999
0.712621
0.711737
0.381507
0.313908
0.715244
0.540596
0.71237
0.713891
0.323836
0.307663
0.568097
0.459988
0.39493
0.711527
0.712703
0.324253
0.710447
0.56987
0.712149
0.332534
0.633052
0.32903
0.711336
0.711977
0.712154
0.716559
0.574444
0.350012
0.364899
0.716119
0.310283
0.628979
0.3338
0.709711
0.283571
0.6918
0.712273
0.567058
0.330059
0.559279
0.561691
0.301859
0.712624
0.291165
0.713086
0.325041
0.305779
0.279482
0.715455
0.709074
0.371014
0.35625
0.711395