# vtk DataFile Version 1.0
unstructured grid
ascii
DATASET UNSTRUCTURED_GRID
points 13672 float
0.0796578 -0.059106 0
0.00128732 0.00159165 0
0.00227961 -0.00102548 0
0.0791586 -0.0598787 0
-0.0546216 0.01 0
0.000495206 0.025 0
0.0800549 -0.035 0
0.135172 -0.08 0
-0.0546216 -0.0451168 0
0.000495206 -0.0301168 0
0.0800549 -0.0901168 0
0.135172 -0.135117 0
-0.0546216 -0.0451168 -0.00551168
0.000495206 -0.0301168 -0.00551168
0.0800549 -0.0901168 -0.00551168
0.135172 -0.135117 -0.00551168
0.135172 -0.08 -0.00551168
0.0800549 -0.035 -0.00551168
0.000495206 0.025 -0.00551168
-0.0546216 0.01 -0.00551168
0.00128732 0.00159165 -0.00551168
0.00227961 -0.00102548 -0.00551168
0.0791586 -0.0598787 -0.00551168
0.0796578 -0.059106 -0.00551168
0.00165953 -0.000990923 0
0.00119576 -0.000874076 0
0.000866021 -0.000641801 0
0.000645147 -0.000349912 0
0.00052235 -1.7281e-05 0
0.00049972 0.000348016 0
0.000601632 0.000737716 0
0.000861774 0.0011403 0
0.00157235 0.00183217 0
0.00188647 0.00206725 0
0.00222612 0.00230203 0
0.00258713 0.00254351 0
0.00296826 0.00279524 0
0.00337118 0.00305664 0
0.00379785 0.00332658 0
0.00425045 0.00360349 0
0.00473139 0.00388521 0
0.0052432 0.00416895 0
0.0057881 0.00445204 0
0.00636753 0.00473281 0
0.00698281 0.00500961 0
0.00763526 0.00528058 0
0.00832616 0.00554366 0
0.00905691 0.00579603 0
0.00982918 0.00603333 0
0.0106445 0.00625033 0
0.0115038 0.00644128 0
0.0124073 0.00660297 0
0.0133543 0.00673414 0
0.0143444 0.00683382 0
0.0153769 0.00690031 0
0.0164512 0.00693173 0
0.0175666 0.00692547 0
0.0187219 0.00687822 0
0.0199156 0.00678477 0
0.0211454 0.00663864 0
0.0224084 0.00643275 0
0.0237018 0.00616676 0
0.0250249 0.00584739 0
0.026375 0.00547298 0
0.0277479 0.00503752 0
0.0291386 0.00453545 0
0.0305433 0.0039653 0
0.0319572 0.0033256 0
0.0333681 0.00260019 0
0.034775 0.00179799 0
0.0361793 0.000930615 0
0.0375798 3.12222e-06 0
0.0389689 -0.000988429 0
0.0403357 -0.00205109 0
0.041675 -0.00318283 0
0.0429849 -0.00437751 0
0.0442643 -0.00562904 0
0.0455126 -0.00693089 0
0.0467314 -0.00827518 0
0.0479204 -0.00965638 0
0.0490661 -0.0110799 0
0.0501515 -0.0125519 0
0.0511696 -0.0140695 0
0.0521492 -0.0156071 0
0.0531202 -0.0171411 0
0.0540851 -0.0186663 0
0.0550431 -0.0201798 0
0.0559923 -0.0216793 0
0.0569311 -0.0231626 0
0.0578582 -0.0246273 0
0.0587723 -0.0260715 0
0.0596721 -0.027493 0
0.0605563 -0.02889 0
0.0614241 -0.0302609 0
0.0622742 -0.0316042 0
0.063106 -0.0329183 0
0.0639186 -0.034202 0
0.0647113 -0.0354543 0
0.0654835 -0.0366743 0
0.0662345 -0.0378613 0
0.0669642 -0.0390145 0
0.0676726 -0.0401333 0
0.0683597 -0.0412172 0
0.0690246 -0.0422665 0
0.0696662 -0.0432819 0
0.0702841 -0.0442636 0
0.0708793 -0.0452111 0
0.0714538 -0.0461237 0
0.072009 -0.047001 0
0.0725452 -0.0478434 0
0.0730611 -0.0486524 0
0.073556 -0.0494294 0
0.0740291 -0.0501756 0
0.0744812 -0.0508916 0
0.0749138 -0.0515773 0
0.0753285 -0.0522331 0
0.0757266 -0.0528592 0
0.076109 -0.0534564 0
0.0764753 -0.0540264 0
0.0768243 -0.054571 0
0.0771553 -0.0550919 0
0.0774679 -0.0555901 0
0.0777617 -0.0560669 0
0.0780369 -0.056523 0
0.0782958 -0.0569578 0
0.0785421 -0.0573703 0
0.0787786 -0.0577603 0
0.0790073 -0.0581279 0
0.0792295 -0.058474 0
0.0794462 -0.0587995 0
0.0798803 -0.0594162 0
0.0800272 -0.0596588 0
0.0800357 -0.0598891 0
0.0799275 -0.0600784 0
0.0797205 -0.0601773 0
0.0794593 -0.0601051 0
0.0789155 -0.0596491 0
0.0786707 -0.0593963 0
0.0784111 -0.0591319 0
0.0781372 -0.0588542 0
0.0778566 -0.0585548 0
0.0775715 -0.0582308 0
0.0772803 -0.0578828 0
0.0769832 -0.0575099 0
0.0766822 -0.0571097 0
0.0763801 -0.0566796 0
0.0760759 -0.0562196 0
0.0757623 -0.0557337 0
0.0754359 -0.0552232 0
0.0750951 -0.0546879 0
0.0747379 -0.054128 0
0.0743626 -0.0535435 0
0.0739688 -0.0529338 0
0.0735559 -0.0522981 0
0.0731238 -0.0516357 0
0.0726718 -0.050946 0
0.0721991 -0.0502288 0
0.0717046 -0.049484 0
0.0711872 -0.0487117 0
0.0706461 -0.047912 0
0.0700804 -0.0470849 0
0.0694892 -0.0462308 0
0.0688718 -0.0453499 0
0.0682271 -0.0444431 0
0.0675544 -0.043511 0
0.0668527 -0.0425546 0
0.0661215 -0.0415748 0
0.06536 -0.040573 0
0.0645676 -0.0395504 0
0.0637439 -0.0385087 0
0.0628887 -0.0374493 0
0.062002 -0.0363741 0
0.0610838 -0.0352847 0
0.0601345 -0.0341831 0
0.0591547 -0.033071 0
0.0581456 -0.0319502 0
0.0571083 -0.0308224 0
0.0560444 -0.0296893 0
0.0549562 -0.028552 0
0.053845 -0.0274126 0
0.0527113 -0.0262746 0
0.051554 -0.0251427 0
0.0503724 -0.0240222 0
0.0491675 -0.0229164 0
0.047941 -0.0218282 0
0.0466955 -0.0207597 0
0.0454337 -0.0197126 0
0.0441592 -0.0186878 0
0.0428751 -0.0176863 0
0.0415841 -0.0167097 0
0.0402878 -0.0157609 0
0.0389879 -0.0148428 0
0.0376864 -0.0139575 0
0.0363853 -0.013107 0
0.0350871 -0.0122931 0
0.0337942 -0.0115164 0
0.0325095 -0.0107772 0
0.0312357 -0.0100756 0
0.0299758 -0.00941024 0
0.0287337 -0.00877784 0
0.0275126 -0.00817571 0
0.0263139 -0.00760375 0
0.0251376 -0.00706528 0
0.0239829 -0.0065649 0
0.0228537 -0.00609619 0
0.0217522 -0.00565563 0
0.0206795 -0.00524226 0
0.0196364 -0.00485507 0
0.0186233 -0.00449318 0
0.0176408 -0.00415577 0
0.016689 -0.00384204 0
0.0157682 -0.00355115 0
0.0148783 -0.00328218 0
0.0140192 -0.00303468 0
0.0131906 -0.00280795 0
0.0123925 -0.00260016 0
0.0116246 -0.00241012 0
0.0108864 -0.00223769 0
0.0101774 -0.00208212 0
0.00949701 -0.00194206 0
0.00884483 -0.0018163 0
0.0082202 -0.0017039 0
0.00762247 -0.00160391 0
0.00705097 -0.00151528 0
0.006505 -0.00143697 0
0.0059838 -0.00136806 0
0.00548662 -0.00130772 0
0.00501265 -0.00125519 0
0.00456114 -0.00120954 0
0.00413136 -0.00116914 0
0.00372257 -0.00113251 0
0.00333398 -0.00109853 0
0.00296466 -0.00106798 0
0.00261363 -0.0010431 0
-0.052721 -0.0445996 0
-0.0508204 -0.0440823 0
-0.0489199 -0.0435651 0
-0.0470193 -0.0430478 0
-0.0451187 -0.0425306 0
-0.0432181 -0.0420134 0
-0.0413175 -0.0414961 0
-0.039417 -0.0409789 0
-0.0375164 -0.0404616 0
-0.0356158 -0.0399444 0
-0.0337152 -0.0394271 0
-0.0318146 -0.0389099 0
-0.0299141 -0.0383927 0
-0.0280135 -0.0378754 0
-0.0261129 -0.0373582 0
-0.0242123 -0.0368409 0
-0.0223117 -0.0363237 0
-0.0204112 -0.0358065 0
-0.0185106 -0.0352892 0
-0.01661 -0.034772 0
-0.0147094 -0.0342547 0
-0.0128088 -0.0337375 0
-0.0109083 -0.0332202 0
-0.00900769 -0.032703 0
-0.00710711 -0.0321858 0
-0.00520653 -0.0316685 0
-0.00330595 -0.0311513 0
-0.00140537 -0.030634 0
0.00190689 -0.0299614 0
0.00332271 -0.0298498 0
0.00474133 -0.0297825 0
0.00616136 -0.0297597 0
0.0075814 -0.0297814 0
0.00900007 -0.0298477 0
0.010416 -0.0299583 0
0.0118278 -0.0301127 0
0.0132342 -0.0303103 0
0.0146339 -0.0305504 0
0.0160259 -0.0308322 0
0.0174091 -0.0311546 0
0.0187824 -0.0315166 0
0.020145 -0.031917 0
0.0214961 -0.0323546 0
0.0228351 -0.032828 0
0.0241613 -0.0333361 0
0.0254744 -0.0338774 0
0.0267738 -0.0344507 0
0.0280592 -0.0350545 0
0.0293306 -0.0356877 0
0.0305875 -0.0363488 0
0.0318301 -0.0370367 0
0.0330581 -0.0377501 0
0.0342717 -0.0384879 0
0.0354708 -0.0392489 0
0.0366556 -0.0400321 0
0.0378262 -0.0408363 0
0.0389828 -0.0416607 0
0.0401254 -0.0425042 0
0.0412543 -0.0433659 0
0.0423698 -0.0442451 0
0.043472 -0.0451408 0
0.0445612 -0.0460523 0
0.0456375 -0.0469789 0
0.0467013 -0.0479199 0
0.0477529 -0.0488746 0
0.0487923 -0.0498424 0
0.04982 -0.0508227 0
0.0508362 -0.051815 0
0.051841 -0.0528187 0
0.0528348 -0.0538333 0
0.0538178 -0.0548584 0
0.0547903 -0.0558935 0
0.0557524 -0.0569382 0
0.0567045 -0.0579922 0
0.0576467 -0.0590549 0
0.0585792 -0.0601261 0
0.0595024 -0.0612055 0
0.0604163 -0.0622926 0
0.0613212 -0.0633873 0
0.0622174 -0.0644891 0
0.0631049 -0.0655979 0
0.0639841 -0.0667134 0
0.064855 -0.0678353 0
0.0657179 -0.0689633 0
0.0665729 -0.0700974 0
0.0674202 -0.0712372 0
0.06826 -0.0723826 0
0.0690925 -0.0735333 0
0.0699178 -0.0746892 0
0.070736 -0.0758501 0
0.0715473 -0.0770159 0
0.0723518 -0.0781863 0
0.0731498 -0.0793612 0
0.0739412 -0.0805405 0
0.0747264 -0.081724 0
0.0755053 -0.0829116 0
0.0762781 -0.0841033 0
0.0770449 -0.0852987 0
0.0778059 -0.0864979 0
0.0785611 -0.0877007 0
0.0793108 -0.088907 0
0.0814681 -0.0912706 0
0.0828814 -0.0924245 0
0.0842946 -0.0935783 0
0.0857079 -0.0947322 0
0.0871211 -0.095886 0
0.0885344 -0.0970399 0
0.0899476 -0.0981937 0
0.0913609 -0.0993476 0
0.0927741 -0.100501 0
0.0941874 -0.101655 0
0.0956006 -0.102809 0
0.0970139 -0.103963 0
0.0984272 -0.105117 0
0.0998404 -0.106271 0
0.101254 -0.107424 0
0.102667 -0.108578 0
0.10408 -0.109732 0
0.105493 -0.110886 0
0.106907 -0.11204 0
0.10832 -0.113194 0
0.109733 -0.114348 0
0.111146 -0.115501 0
0.11256 -0.116655 0
0.113973 -0.117809 0
0.115386 -0.118963 0
0.116799 -0.120117 0
0.118213 -0.121271 0
0.119626 -0.122424 0
0.121039 -0.123578 0
0.122452 -0.124732 0
0.123866 -0.125886 0
0.125279 -0.12704 0
0.126692 -0.128194 0
0.128105 -0.129348 0
0.129519 -0.130501 0
0.130932 -0.131655 0
0.132345 -0.132809 0
0.133758 -0.133963 0
0.135172 -0.133216 0
0.135172 -0.131316 0
0.135172 -0.129415 0
0.135172 -0.127514 0
0.135172 -0.125614 0
0.135172 -0.123713 0
0.135172 -0.121813 0
0.135172 -0.119912 0
0.135172 -0.118012 0
0.135172 -0.116111 0
0.135172 -0.11421 0
0.135172 -0.11231 0
0.135172 -0.110409 0
0.135172 -0.108509 0
0.135172 -0.106608 0
0.135172 -0.104708 0
0.135172 -0.102807 0
0.135172 -0.100906 0
0.135172 -0.0990058 0
0.135172 -0.0971052 0
0.135172 -0.0952046 0
0.135172 -0.0933041 0
0.135172 -0.0914035 0
0.135172 -0.0895029 0
0.135172 -0.0876023 0
0.135172 -0.0857017 0
0.135172 -0.0838012 0
0.135172 -0.0819006 0
0.133758 -0.0788462 0
0.132345 -0.0776923 0
0.130932 -0.0765385 0
0.129519 -0.0753846 0
0.128105 -0.0742308 0
0.126692 -0.0730769 0
0.125279 -0.0719231 0
0.123866 -0.0707692 0
0.122452 -0.0696154 0
0.121039 -0.0684615 0
0.119626 -0.0673077 0
0.118213 -0.0661538 0
0.116799 -0.065 0
0.115386 -0.0638462 0
0.113973 -0.0626923 0
0.11256 -0.0615385 0
0.111146 -0.0603846 0
0.109733 -0.0592308 0
0.10832 -0.0580769 0
0.106907 -0.0569231 0
0.105493 -0.0557692 0
0.10408 -0.0546154 0
0.102667 -0.0534615 0
0.101254 -0.0523077 0
0.0998404 -0.0511538 0
0.0984272 -0.05 0
0.0970139 -0.0488462 0
0.0956006 -0.0476923 0
[...]
CELL_DATA 13116
SCALARS rho float
LOOKUP_TABLE default
0.454229
0.524689
0.341736
0.553287
0.549721
0.537028
0.36646
0.554883
0.474108
0.552814
0.352743
0.343398
0.549854
0.384093
0.362053
0.537151
0.42632
0.559132
0.537441
0.366804
0.464103
0.378995
0.395625
0.552894
0.560086
0.519747
0.55285
0.367512
0.591602
0.545341
0.534417
0.3849
0.504053
0.408895
0.362542
0.457944
0.531828
0.534658
0.535986
0.541814
0.537482
0.556198
0.372227
0.339912
0.536983
0.537413
0.510042
0.539552
0.362941
0.483298
0.549827
0.390149
0.36699
0.421375
0.497928
0.526937
0.344374
0.548087
0.499536
0.367704
0.388009
0.552637
0.518362
0.535858
0.534672
0.387026
0.540571
0.542563
0.54131
0.53486
0.362203
0.563376
0.379133
0.386634
0.533732
0.352032
0.513129
0.546739
0.364858
0.559284
0.53784
0.519401
0.550611
0.539627
0.532554
0.438961
0.372485
0.567106
0.531718
0.339336
0.373228
0.525868
0.552273
0.537124
0.531907
0.519068
0.561282
0.534212
0.533945
0.567986
0.613793
0.474668
0.537526
0.366266
0.499703
0.390389
0.344515
0.409281
0.380095
0.601888
0.429631
0.512337
0.51917
0.541327
0.558491
0.541129
0.377414
0.370139
0.544617
0.542608
0.544311
0.377666
0.541644
0.391643
0.534959
0.417534
0.373325
0.481372
0.368089
0.487659
0.544754
0.540132
0.48763
0.368873
0.468324
0.474927
0.532591
0.543738
0.61539
0.542477
0.501455
0.512359
0.476841
0.501971
0.514444
0.381552
0.36068
0.514494
0.548536
0.548331
0.52514
0.53918
0.539443
0.349574
0.550934
0.533564
0.388012
0.617985
0.534283
0.576391
0.551357
0.357298
0.548625
0.384422
0.374601
0.551853
0.532272
0.560234
0.363637
0.453425
0.408661
0.532595
0.366191
0.459754
0.540354
0.399218
0.370502
0.379144
0.509498
0.536519
0.367472
0.415526
0.443507
0.532717
0.53665
0.493977
0.35882
0.537939
0.492881
0.435425
0.51069
0.512904
0.535047
0.394186
0.507309
0.536798
0.551835
0.537836
0.530663
0.373292
0.364135
0.605459
0.476693
0.39563
0.545471
0.536838
0.397432
0.527797
0.379977
0.339219
0.34921
0.53884
0.383296
0.358297
0.337119
0.349654
0.346513
0.535684
0.533173
0.426625
0.347969
0.540298
0.425236
0.367928
0.542287
0.552555
0.512718
0.393131
0.540438
0.379309
0.563363
0.375722
0.534985
0.554814
0.534038
0.537928
0.535192
0.372623
0.409753
0.589294
0.533633
0.536652
0.532771
0.535169
0.551865
0.371871
0.546504
0.551146
0.533974
0.352256
0.363594
0.537674
0.544152
0.534783
0.541771
0.442425
0.551276
0.352371
0.389084
0.364803
0.380865
0.487856
0.551709
0.512202
0.368366
0.536796
0.377186
0.421631
0.501114
0.345355
0.518424
0.552043
0.533364
0.547648
0.374609
0.533317
0.541036
0.534003
0.543605
0.361491
0.373711
0.387458
0.471793
0.377523
0.370247
0.317923
0.280645
0.530912
0.365642
0.534093
0.550146
0.368757
0.367874
0.375623
0.436386
0.337288
0.563149
0.472858
0.506501
0.343882
0.538488
0.57585
0.394085
0.366321
0.536174
0.544134
0.53772
0.358578
0.536952
0.380437
0.539653
0.555431
0.547
0.554761
0.39146
0.540204
0.379009
0.537763
0.552451
0.626343
0.351828
0.317665
0.551345
0.378625
0.520508
0.552574
0.341358
0.577269
0.550462
0.37454
0.536603
0.552033
0.365941
0.545775
0.438481
0.563416
0.549361
0.445501
0.614486
0.369293
0.551017
0.331138
0.53537
0.471202
0.552497
0.392069
0.341497
0.533357
0.350659
0.544871
0.497726
0.405207
0.532638
0.352074
0.373754
0.543281
0.54102
0.538109
0.374386
0.384534
0.546426
0.550029
0.358099
0.549604
0.381841
0.38914
0.541377
0.549626
0.39247
0.342764
0.543582
0.534617
0.537173
0.536115
0.546535
0.524772
0.303377
0.377841
0.367778
0.537052
0.368383
0.439688
0.345832
0.386831
0.335452
0.399575
0.134016
0.34842
0.53362
0.300088
0.548988
0.585922
0.538128
0.56926
0.546747
0.373937
0.372548
0.376196
0.312988
0.543155
0.51756
0.537664
0.589158
0.515576
0.526036
0.517813
0.500803
0.544653
0.545554
0.560998
0.536614
0.369999
0.408157
0.450865
0.378457
0.47029
0.5191
0.369951
0.540778
0.533478
0.388856
0.361921
0.348106
0.36014
0.617772
0.364074
0.394127
0.539405
0.385639
0.552479
0.344369
0.537032
0.536429
0.326553
0.371713
0.542951
0.439074
0.344984
0.361015
0.343637
0.380847
0.375099
0.362035
0.378156
0.421224
0.347054
0.472335
0.350363
0.532876
0.355285
0.431247
0.492126
0.387998
0.339008
0.386598
0.539271
0.426755
0.619237
0.407136
0.38351
0.528073
0.532948
0.438463
0.577272
0.51678
0.512975
0.372363
0.534092
0.372842
0.547427
0.534321
0.378435
0.376975
0.491428
0.318176
0.447652
0.473374
0.343229
0.620053
0.516473
0.368124
0.368135
0.36651
0.45605
0.365087
0.365935
0.363635
0.379409
0.553281
0.552993
0.443192
0.570301
0.467014
0.506079
0.331643
0.364191
0.477328
0.379238
0.539585
0.284455
0.356633
0.48361
0.536662
0.529216
0.54765
0.341001
0.376373
0.559511
0.554543
0.535193
0.555476
0.501724
0.486675
0.34816
0.535803
0.550424
0.592797
0.28858
0.341187
0.540995
0.552382
0.572032
0.552881
0.526446
0.521855
0.55064
0.608041
0.538006
0.361827
0.536607
0.328301
0.37921
0.351439
0.552229
0.537139
0.293335
0.532152
0.61001
0.351008
0.535412
0.543683
0.543607
0.366176
0.361904
0.545738
0.345046
0.34689
0.361894
0.34835
0.53821
0.365784
0.551664
0.357587
0.525168
0.548984
0.540395
0.550092
0.345093
0.366583
0.538185
0.564302
0.522308
0.553178
0.551049
0.488099
0.373498
0.381615
0.537711
0.483145
0.347997
0.439705
0.38281
0.544629
0.538607
0.288994
0.378842
0.53138
0.458319
0.533949
0.638441
0.36738
0.3801
0.519273
0.533539
0.381131
0.527859
0.532399
0.537748
0.356687
0.53275
0.357276
0.533936
0.593938
0.365226
0.344867
0.372519
0.533954
0.373114
0.366865
0.370225
0.535629
0.542004
0.367013
0.386298
0.343615
0.535632
0.379062
0.536695
0.381664
0.566912
0.552637
0.357514
0.385167
0.390871
0.488456
0.384528
0.524237
0.356553
0.366259
0.536565
0.372206
0.538574
0.517766
0.53408
0.360746
0.540005
0.550453
0.551586
0.537979
0.540906
0.541143
0.382343
0.535075
0.429029
0.536148
0.362456
0.552078
0.450752
0.366748
0.53448
0.547559
0.357498
0.505465
0.372556
0.361906
0.53924
0.538942
0.368933
0.381482
0.366533
0.390636
0.5443
0.554068
0.357461
0.367703
0.544865
0.543783
0.568208
0.550035
0.538387
0.354884
0.55252
0.415001
0.549675
0.369578
0.529149
0.472127
0.539885
0.538274
0.564406
0.322364
0.387837
0.538062
0.593615
0.427192
0.549769
0.380624
0.539085
0.550731
0.357151
0.404776
0.550538
0.338635
0.534657
0.58954
0.313568
0.543744
0.531822
0.359968
0.541277
0.387955
0.52858
0.346189
0.538621
0.517141
0.390234
0.535914
0.548901
0.546248
0.610951
0.536559
0.572833
0.335849
0.384043
0.359385
0.392587
0.532294
0.545373
0.542371
0.548171
0.369949
0.364674
0.539103
0.552917
0.543285
0.552264
0.357798
0.565006
0.551036
0.364453
0.377982
0.544732
0.537608
0.530639
0.389826
0.582033
0.300362
0.540781
0.516718
0.535266
0.529934
0.347816
0.535951
0.533777
0.551384
0.538485
0.537411
0.424854
0.546294
0.338859
0.499119
0.551846
0.453045
0.51753
0.535385
0.548716
0.361811
0.380508
0.573716
0.583619
0.34432
0.338884
0.345786
0.346318
0.526299
0.538833
0.535118
0.281226
0.349036
0.541144
0.602927
0.371391
0.358673
0.453473
0.528005
0.537966
0.535807
0.545818
0.338854
0.344645
0.532889
0.389228
0.35781
0.350858
0.53714
0.30024
0.343402
0.515077
0.537234
0.50909
0.536451
0.537697
0.379587
0.366694
0.344007
0.404353
0.426904
0.375818
0.53999
0.546544
0.527251
0.538461
0.402426
0.352528
0.552787
0.345678
0.537258
0.516856
0.534459
0.368964
0.362358
0.524984
0.534395
0.458312
0.366
0.5337
0.53665
0.512164
0.548363
0.552565
0.533078
0.501607
0.358023
0.537661
0.534573
0.4933
0.541112
0.532359
0.51318
0.533191
0.542955
0.366238
0.367477
0.350969
0.534613
0.447691
0.34571
0.538945
0.545253
0.336764
0.511941
0.305115
0.512652
0.401587
0.367457
0.55281
0.555003
0.346003
0.541661
0.534639
0.378249
0.536979
0.390722
0.388932
0.524272
0.57159
0.491977
0.537566
0.346205
0.548438
0.369825
0.383252
0.538443
0.347794
0.524082
0.386186
0.510378
0.539094
0.53313
0.530487
0.374001
0.366505
0.488647
0.372854
0.543071
0.416163
0.50724
0.536976
0.55139
0.384045
0.599208
0.508723
0.551997
0.541282
0.33455
0.344455
0.530198
0.508186
0.552342
0.350909
0.537521
0.460129
0.376469
0.374529
0.625931
0.529038
0.532931
0.533847
0.476451
0.540604
0.535971
0.534885
0.386768
0.589987
0.450803
0.544562
0.537265
0.281513
0.537177
0.548865
0.369769
0.37535
0.376804
0.532383
0.357717
0.525806
0.544206
0.602731
0.342673
0.532916
0.39723
0.581176
0.535699
0.534972
0.539948
0.535586
0.569795
0.537065
0.458344
0.53585
0.344487
0.536994
0.540258
0.357971
0.533411
0.539504
0.381765
0.37635
0.372191
0.547223
0.340621
0.533254
0.34657
0.554581
0.377371
0.47278
0.388735
0.547119
0.551481
0.440298
0.256239
0.567603
0.535776
0.342172
0.565157
0.552964
0.375454
0.530535
0.534191
0.552418
0.537462
0.376483
0.407458
0.544153
0.537764
0.500192
0.338459
0.377481
0.534599
0.532794
0.533531
0.532726
0.463511
0.540354
0.460993
0.542979
0.339449
0.396839
0.532784
0.54907
0.535716
0.390424
0.537092
0.464389
0.495754
0.352895
0.408282
0.549812
0.558692
0.529222
0.313343
0.538167
0.533558
0.364039
0.573093
0.545736
0.363253
0.429713
0.376358
0.494109
0.379231
0.369007
0.536125
0.421572
0.552453
0.51584
0.366427
0.373321
0.552909
0.367333
0.364457
0.53439
0.393406
0.3325
0.532777
0.539156
0.54014
0.347652
0.278946
0.351723
0.518683
0.390152
0.540559
0.365358
0.539447
0.522441
0.536568
0.506693
0.535067
0.515296
0.538019
0.549877
0.542273
0.364849
0.341668
0.530155
0.536055
0.498589
0.500858
0.518571
0.535855
0.492007
0.327975
0.541838
0.552902
0.534678
0.352983
0.536497
0.354892
0.539645
0.491475
0.55375
0.538058
0.365997
0.54317
0.34559
0.390557
0.519166
0.34739
0.603419
0.532417
0.548933
0.357091
0.539325
0.343204
0.36914
0.385792
0.335021
0.485896
0.36727
0.504431
0.535488
0.316477
0.39404
0.481442
0.568827
0.539782
0.501841
0.363017
0.382944
0.358017
0.388819
0.253822
0.529854
0.51627
0.350617
0.535346
0.543891
0.376609
0.552561
0.605872
0.535581
0.347202
0.533693
0.535682
0.546308
0.545101
0.362817
0.540979
0.547196
0.536868
0.636716
0.536255
0.365767
0.390764
0.539307
0.528968
0.363994
0.538195
0.399416
0.562463
0.510928
0.527185
0.529537
0.371617
0.499521
0.368664
0.352942
0.563413
0.545952
0.548822
0.545933
0.52527
0.369476
0.55059
0.370851
0.49758
0.551587
0.533944
0.543833
0.352156
0.392221
0.551513
0.381402
0.545329
0.624351
0.416415
0.361413
0.541627
0.388718
0.538021
0.545024
0.520932
0.388187
0.367678
0.480651
0.453291
0.522619
0.447593
0.536702
0.50206
0.534451
0.532227
0.540073
0.372207
0.3687
0.546522
0.536215
0.49777
0.453509
0.395329
0.533848
0.369729
0.538449
0.604738
0.297884
0.542867
0.354888
0.531743
0.344982
0.549127
0.37348
0.539137
0.536353
0.331985
0.536054
0.577196
0.31976
0.535122
0.537403
0.513288
0.387168
0.341431
0.439325
0.550686
0.486443
0.353158
0.577267
0.54167
0.536542
0.332628
0.498322
0.529141
0.457865
0.536652
0.537871
0.279317
0.541925
0.534094
0.341269
0.513418
0.360076
0.51005
0.347963
0.388585
0.552192
0.346262
0.342203
0.374191
0.540055
0.523294
0.371319
0.538176
0.337542
0.52618
0.342703
0.525668
0.345366
0.537167
0.539523
0.514952
0.535162
0.545738
0.536332
0.535572
0.328101
0.609304
0.51913
0.40824
0.539676
0.487031
0.372034
0.550456
0.361863
0.547746
0.294522
0.537629
0.369448
0.395114
0.556096
0.538
0.367785
0.543599
0.547105
0.532347
0.552188
0.533865
0.355931
0.552124
0.36135
0.38363
0.533798
0.546136
0.55592
0.532805
0.379396
0.348905
0.354417
0.525745
0.535407
0.340418
0.544329
0.387563
0.352114
0.352842
0.533022
0.370469
0.551442
0.542553
0.609835
0.538512
0.541785
0.498739
0.509194
0.428733
0.402232
0.366377
0.533843
0.53368
0.391115
0.523722
0.492026
0.510808
0.377103
0.358603
0.504724
0.271138
0.499732
0.47787
0.357819
0.535933
0.527501
0.345459
0.53972
0.364043
0.542208
0.552756
0.535371
0.37085
0.46617
0.589338
0.288623
0.438049
0.538
0.295528
0.536084
0.541103
0.517454
0.548584
0.30974
0.534421
0.561371
0.537709
0.354187
0.547041
0.374526
0.384576
0.532777
0.538156
0.535348
0.229527
0.538384
0.616263
0.533716
0.383697
0.379685
0.344617
0.545143
0.361751
0.369141
0.359316
0.476304
0.364382
0.280001
0.438428
0.540497
0.349428
0.535143
0.53571
0.541106
0.357536
0.541111
0.561679
0.535315
0.410049
0.628209
0.360226
0.361931
0.539157
0.367981
0.5123
0.540965
0.533049
0.35371
0.318154
0.356179
0.553698
0.532769
0.227033
0.535029
0.539845
0.548137
0.340405
0.371299
0.334539
0.486554
0.346229
0.532302
0.597199
0.535898
0.535129
0.360914
0.508824
0.383201
0.455776
0.625015
0.552941
0.461311
0.402458
0.60648
0.500526
0.547091
0.359405
0.349781
0.380927
0.554394
0.487577
0.533957
0.353638
0.386637
0.546631
0.540957
0.534798
0.366885
0.541793
0.551902
0.554527
0.488297
0.38342
0.365894
0.278607
0.538271
0.535476
0.636849
0.504397
0.332072
0.550147
0.614373
0.535501
0.535195
0.548899
0.552894
0.536825
0.544655
0.548575
0.377229
0.542251
0.546564
0.536762
0.543434
0.538051
0.470064
0.352343
0.393689
0.495603
0.336367
0.313362
0.541503
0.363669
0.623549
0.540749
0.523197
0.535136
0.379246
0.542811
0.38171
0.395809
0.537011
0.539794
0.538597
0.356379
0.549137
0.537614
0.49361
0.537723
0.377321
0.536559
0.551722
0.527824
0.375166
0.549513
0.347873
0.555404
0.348393
0.35186
0.43098
0.439727
0.552788
0.548261
0.537377
0.360771
0.536436
0.372557
0.363634
0.524134
0.48586
0.338489
0.537504
0.389316
0.507703
0.552122
0.509268
0.52837
0.484131
0.589932
0.552322
0.537355
0.467402
0.548741
0.527014
0.563742
0.501842
0.555507
0.400338
0.363831
0.439453
0.545953
0.380905
0.578598
0.544083
0.530887
0.537481
0.433982
0.572652
0.535625
0.348077
0.543127
0.496033
0.410316
0.498143
0.551194
0.524985
0.536134
0.339162
0.367435
0.536671
0.489184
0.459448
0.543697
0.539401
0.538544
0.55237
0.552733
0.537691
0.500243
0.552812
0.370267
0.394764
0.371472
0.323193
0.533417
0.443567
0.457587
0.542681
0.538728
0.379647
0.535818
0.552504
0.357473
0.362921
0.533393
0.543482
0.384419
0.366763
0.369475
0.532251
0.518781
0.376207
0.374483
0.35995
0.389284
0.325659
0.341878
0.562641
0.539591
0.53795
0.354691
0.523934
0.506265
0.603355
0.306594
0.363657
0.523105
0.532713
0.343864
0.53697
0.34535
0.551897
0.378826
0.54078
0.364328
0.527731
0.550341
0.356787
0.556409
0.362695
0.552272
0.395397
0.506751
0.401229
0.471836
0.359877
0.497947
0.341822
0.535031
0.535032
0.600381
0.534332
0.304486
0.525974
0.535812
0.549653
0.505845
0.526831
0.363906
0.35182
0.388971
0.551696
0.281148
0.548686
0.534702
0.546137
0.552313
0.397889
0.546067
0.362828
0.392103
0.367672
0.482436
0.428454
0.538968
0.343253
0.370104
0.538121
0.373771
0.387565
0.452083
0.355106
0.343738
0.39438
0.557111
0.63035
0.508968
0.392882
0.523735
0.538584
0.40299
0.315475
0.533779
0.537507
0.45826
0.510793
0.408501
0.353371
0.347598
0.543705
0.492381
0.474265
0.557219
0.377045
0.505639
0.356717
0.534579
0.548692
0.361729
0.383856
0.497159
0.44738
0.549961
0.548489
0.550655
0.544614
0.551608
0.349424
0.378756
0.378327
0.360659
0.44648
0.534405
0.631359
0.357031
0.359026
0.412253
0.429287
0.538547
0.508358
0.338971
0.288044
0.540686
0.380647
0.546377
0.547719
0.520594
0.53638
0.459222
0.345775
0.368461
0.49632
0.361213
0.38761
0.370574
0.535957
0.539086
0.319705
0.355535
0.532585
0.342666
0.539375
0.551801
0.349379
0.370611
0.373798
0.540399
0.377228
0.532396
0.54163
0.524519
0.363151
0.524083
0.546342
0.533624
0.367982
0.531664
0.497263
0.436068
0.544286
0.565432
0.35178
0.359859
0.524368
0.341017
0.361244
0.528649
0.338196
0.538743
0.585965
0.552517
0.50317
0.548971
0.540647
0.536278
0.357322
0.406015
0.505173
0.538345
0.466027
0.552572
0.304841
0.542733
0.529406
0.529947
0.554783
0.353388
0.448155
0.536353
0.547089
0.499479
0.550591
0.539327
0.533054
0.552077
0.532435
0.540856
0.525815
0.546266
0.532813
0.536377
0.338424
0.521221
0.328531
0.541378
0.542317
0.545958
0.51422
0.550306
0.368894
0.3515
0.292737
0.366931
0.518911
0.369439
0.347744
0.538396
0.389581
0.544289
0.347836
0.528894
0.541252
0.351807
0.376444
0.300603
0.545241
0.378427
0.538454
0.542973
0.357572
0.521356
0.545779
0.325074
0.376073
0.393953
0.587053
0.362182
0.542588
0.430494
0.354346
0.537549
0.537622
0.55075
0.345554
0.514882
0.395963
0.525258
0.536274
0.541193
0.343015
0.537697
0.543665
0.507242
0.393244
0.545123
0.344761
0.346373
0.53855
0.439649
0.552285
0.362241
0.34338
0.439728
0.512056
0.372435
0.275656
0.347679
0.416988
0.53386
0.542508
0.380577
0.504226
0.53962
0.55534
0.376195
0.292623
0.548467
0.343802
0.353703
0.536718
0.345316
0.344476
0.547924
0.553831
0.352441
0.557106
0.350774
0.533265
0.350157
0.525826
0.534967
0.550635
0.535803
0.374402
0.351841
0.390362
0.536676
0.526053
0.587323
0.517127
0.365213
0.294143
0.536914
0.355611
0.539062
0.375733
0.535125
0.542422
0.363698
0.337637
0.348015
0.356012
0.335577
0.496272
0.520427
0.364982
0.541661
0.540497
0.335598
0.366463
0.55285
0.337739
0.540938
0.423491
0.548491
0.557685
0.540997
0.533989
0.365807
0.552585
0.540436
0.558406
0.337621
0.490734
0.592777
0.307483
0.545982
0.511881
0.564048
0.524461
0.551617
0.538114
0.554335
0.536912
0.53743
0.371196
0.5506
0.348087
0.416796
0.537751
0.39311
0.530548
0.492074
0.366775
0.50764
0.346166
0.373756
0.535547
0.484047
0.553685
0.343554
0.524372
0.589153
0.331856
0.359022
0.529534
0.538542
0.368584
0.357082
0.543946
0.553086
0.365879
0.543253
0.550665
0.638034
0.36987
0.34478
0.382775
0.562729
0.371229
0.532037
0.555575
0.536999
0.499037
0.541405
0.34311
0.530723
0.609592
0.550247
0.458908
0.391587
0.361662
0.384669
0.551444
0.543662
0.421104
0.558498
0.27901
0.51602
0.542275
0.381105
0.496435
0.532698
0.53847
0.356454
0.37256
0.310275
0.54477
0.552177
0.587514
0.510171
0.541175
0.344221
0.562439
0.533494
0.537894
0.356111
0.619683
0.367032
0.498117
0.388328
0.5375
0.53609
0.393586
0.544569
0.377405
0.532766
0.520707
0.53228
0.546468
0.389143
0.536744
0.537805
0.539464
0.538064
0.480741
0.533448
0.367666
0.538038
0.381889
0.367044
0.380436
0.336092
0.34428
0.360259
0.551898
0.35849
0.367091
0.533703
0.544857
0.522053
0.375129
0.546423
0.55809
0.536196
0.322457
0.469688
0.540569
0.374986
0.353475
0.351081
0.542874
0.504649
0.351602
0.477635
0.404424
0.534011
0.49741
0.373728
0.468566
0.561984
0.305268
0.538794
0.373104
0.400023
0.365191
0.544539
0.372265
0.524769
0.533561
0.484867
0.372883
0.351986
0.543247
0.552901
0.359161
0.369095
0.536868
0.361581
0.549488
0.353222
0.552097
0.385151
0.540544
0.379115
0.552636
0.366928
0.542268
0.541898
0.547546
0.533387
0.372255
0.389819
0.37704
0.522126
0.537932
0.511022
0.430391
0.371613
0.545181
0.295381
0.524288
0.473598
0.369311
0.361174
0.548675
0.537305
0.398994
0.534616
0.547025
0.548301
0.55206
0.373109
0.565373
0.344892
0.54817
0.373561
0.535468
0.521277
0.539143
0.553228
0.341274
0.555845
0.339586
0.350717
0.539176
0.533497
0.508326
0.537165
0.5334
0.340024
0.55784
0.542262
0.55376
0.370496
0.417281
0.54705
0.370245
0.543076
0.544299
0.532136
0.5454
0.279022
0.417909
0.582226
0.393412
0.529689
0.552392
0.44436
0.533966
0.259588
0.49784
0.556798
0.594156
0.535732
0.370626
0.391208
0.539164
0.530522
0.368579
0.309167
0.377531
0.385958
0.368875
0.406218
0.328976
0.343565
0.538813
0.380218
0.364843
0.543292
0.502207
0.532631
0.386833
0.354274
0.540119
0.444578
0.409459
0.551151
0.358847
0.606808
0.535239
0.599188
0.527111
0.3741
0.542742
0.535815
0.361833
0.347387
0.370612
0.489876
0.596665
0.551599
0.53739
0.538401
0.529428
0.349077
0.543252
0.535924
0.532362
0.349119
0.541001
0.466643
0.34267
0.425288
0.365904
0.389176
0.374914
0.539874
0.551087
0.53093
0.351771
0.384562
0.550708
0.333797
0.543178
0.537905
0.532275
0.606688
0.540846
0.376793
0.393258
0.398941
0.494771
0.376512
0.539515
0.381403
0.539285
0.536741
0.542006
0.342389
0.428911
0.393822
0.541625
0.356103
0.352153
0.541622
0.52697
0.500602
0.537107
0.527699
0.549064
0.343982
0.616242
0.549141
0.526503
0.540829
0.544509
0.548379
0.457807
0.42158
0.554625
0.493642
0.506377
0.341098
0.514511
0.532896
0.373513
0.366361
0.523813
0.492569
0.547502
0.543221
0.361954
0.364597
0.534144
0.339572
0.375402
0.53425
0.52973
0.365323
0.535209
0.53432
0.515343
0.349613
0.547367
0.344976
0.536327
0.548509
0.548565
0.529053
0.534411
0.281847
0.337502
0.5372
0.337294
0.602444
0.363131
0.541568
0.384134
0.535234
0.548954
0.53423
0.342142
0.532363
0.533659
0.358317
0.51494
0.379739
0.557419
0.342435
0.366811
0.36812
0.53507
0.536876