# vtk DataFile Version 1.0
unstructured grid
ascii
DATASET UNSTRUCTURED_GRID
points 13672 float
0.0796578 -0.059106 0
0.00128732 0.00159165 0
0.00227961 -0.00102548 0
0.0791586 -0.0598787 0
-0.0546216 0.01 0
0.000495206 0.025 0
0.0800549 -0.035 0
0.135172 -0.08 0
-0.0546216 -0.0451168 0
0.000495206 -0.0301168 0
0.0800549 -0.0901168 0
0.135172 -0.135117 0
-0.0546216 -0.0451168 -0.00551168
0.000495206 -0.0301168 -0.00551168
0.0800549 -0.0901168 -0.00551168
0.135172 -0.135117 -0.00551168
0.135172 -0.08 -0.00551168
0.0800549 -0.035 -0.00551168
0.000495206 0.025 -0.00551168
-0.0546216 0.01 -0.00551168
0.00128732 0.00159165 -0.00551168
0.00227961 -0.00102548 -0.00551168
0.0791586 -0.0598787 -0.00551168
0.0796578 -0.059106 -0.00551168
0.00165953 -0.000990923 0
0.00119576 -0.000874076 0
0.000866021 -0.000641801 0
0.000645147 -0.000349912 0
0.00052235 -1.7281e-05 0
0.00049972 0.000348016 0
0.000601632 0.000737716 0
0.000861774 0.0011403 0
0.00157235 0.00183217 0
0.00188647 0.00206725 0
0.00222612 0.00230203 0
0.00258713 0.00254351 0
0.00296826 0.00279524 0
0.00337118 0.00305664 0
0.00379785 0.00332658 0
0.00425045 0.00360349 0
0.00473139 0.00388521 0
0.0052432 0.00416895 0
0.0057881 0.00445204 0
0.00636753 0.00473281 0
0.00698281 0.00500961 0
0.00763526 0.00528058 0
0.00832616 0.00554366 0
0.00905691 0.00579603 0
0.00982918 0.00603333 0
0.0106445 0.00625033 0
0.0115038 0.00644128 0
0.0124073 0.00660297 0
0.0133543 0.00673414 0
0.0143444 0.00683382 0
0.0153769 0.00690031 0
0.0164512 0.00693173 0
0.0175666 0.00692547 0
0.0187219 0.00687822 0
0.0199156 0.00678477 0
0.0211454 0.00663864 0
0.0224084 0.00643275 0
0.0237018 0.00616676 0
0.0250249 0.00584739 0
0.026375 0.00547298 0
0.0277479 0.00503752 0
0.0291386 0.00453545 0
0.0305433 0.0039653 0
0.0319572 0.0033256 0
0.0333681 0.00260019 0
0.034775 0.00179799 0
0.0361793 0.000930615 0
0.0375798 3.12222e-06 0
0.0389689 -0.000988429 0
0.0403357 -0.00205109 0
0.041675 -0.00318283 0
0.0429849 -0.00437751 0
0.0442643 -0.00562904 0
0.0455126 -0.00693089 0
0.0467314 -0.00827518 0
0.0479204 -0.00965638 0
0.0490661 -0.0110799 0
0.0501515 -0.0125519 0
0.0511696 -0.0140695 0
0.0521492 -0.0156071 0
0.0531202 -0.0171411 0
0.0540851 -0.0186663 0
0.0550431 -0.0201798 0
0.0559923 -0.0216793 0
0.0569311 -0.0231626 0
0.0578582 -0.0246273 0
0.0587723 -0.0260715 0
0.0596721 -0.027493 0
0.0605563 -0.02889 0
0.0614241 -0.0302609 0
0.0622742 -0.0316042 0
0.063106 -0.0329183 0
0.0639186 -0.034202 0
0.0647113 -0.0354543 0
0.0654835 -0.0366743 0
0.0662345 -0.0378613 0
0.0669642 -0.0390145 0
0.0676726 -0.0401333 0
0.0683597 -0.0412172 0
0.0690246 -0.0422665 0
0.0696662 -0.0432819 0
0.0702841 -0.0442636 0
0.0708793 -0.0452111 0
0.0714538 -0.0461237 0
0.072009 -0.047001 0
0.0725452 -0.0478434 0
0.0730611 -0.0486524 0
0.073556 -0.0494294 0
0.0740291 -0.0501756 0
0.0744812 -0.0508916 0
0.0749138 -0.0515773 0
0.0753285 -0.0522331 0
0.0757266 -0.0528592 0
0.076109 -0.0534564 0
0.0764753 -0.0540264 0
0.0768243 -0.054571 0
0.0771553 -0.0550919 0
0.0774679 -0.0555901 0
0.0777617 -0.0560669 0
0.0780369 -0.056523 0
0.0782958 -0.0569578 0
0.0785421 -0.0573703 0
0.0787786 -0.0577603 0
0.0790073 -0.0581279 0
0.0792295 -0.058474 0
0.0794462 -0.0587995 0
0.0798803 -0.0594162 0
0.0800272 -0.0596588 0
0.0800357 -0.0598891 0
0.0799275 -0.0600784 0
0.0797205 -0.0601773 0
0.0794593 -0.0601051 0
0.0789155 -0.0596491 0
0.0786707 -0.0593963 0
0.0784111 -0.0591319 0
0.0781372 -0.0588542 0
0.0778566 -0.0585548 0
0.0775715 -0.0582308 0
0.0772803 -0.0578828 0
0.0769832 -0.0575099 0
0.0766822 -0.0571097 0
0.0763801 -0.0566796 0
0.0760759 -0.0562196 0
0.0757623 -0.0557337 0
0.0754359 -0.0552232 0
0.0750951 -0.0546879 0
0.0747379 -0.054128 0
0.0743626 -0.0535435 0
0.0739688 -0.0529338 0
0.0735559 -0.0522981 0
0.0731238 -0.0516357 0
0.0726718 -0.050946 0
0.0721991 -0.0502288 0
0.0717046 -0.049484 0
0.0711872 -0.0487117 0
0.0706461 -0.047912 0
0.0700804 -0.0470849 0
0.0694892 -0.0462308 0
0.0688718 -0.0453499 0
0.0682271 -0.0444431 0
0.0675544 -0.043511 0
0.0668527 -0.0425546 0
0.0661215 -0.0415748 0
0.06536 -0.040573 0
0.0645676 -0.0395504 0
0.0637439 -0.0385087 0
0.0628887 -0.0374493 0
0.062002 -0.0363741 0
0.0610838 -0.0352847 0
0.0601345 -0.0341831 0
0.0591547 -0.033071 0
0.0581456 -0.0319502 0
0.0571083 -0.0308224 0
0.0560444 -0.0296893 0
0.0549562 -0.028552 0
0.053845 -0.0274126 0
0.0527113 -0.0262746 0
0.051554 -0.0251427 0
0.0503724 -0.0240222 0
0.0491675 -0.0229164 0
0.047941 -0.0218282 0
0.0466955 -0.0207597 0
0.0454337 -0.0197126 0
0.0441592 -0.0186878 0
0.0428751 -0.0176863 0
0.0415841 -0.0167097 0
0.0402878 -0.0157609 0
0.0389879 -0.0148428 0
0.0376864 -0.0139575 0
0.0363853 -0.013107 0
0.0350871 -0.0122931 0
0.0337942 -0.0115164 0
0.0325095 -0.0107772 0
0.0312357 -0.0100756 0
0.0299758 -0.00941024 0
0.0287337 -0.00877784 0
0.0275126 -0.00817571 0
0.0263139 -0.00760375 0
0.0251376 -0.00706528 0
0.0239829 -0.0065649 0
0.0228537 -0.00609619 0
0.0217522 -0.00565563 0
0.0206795 -0.00524226 0
0.0196364 -0.00485507 0
0.0186233 -0.00449318 0
0.0176408 -0.00415577 0
0.016689 -0.00384204 0
0.0157682 -0.00355115 0
0.0148783 -0.00328218 0
0.0140192 -0.00303468 0
0.0131906 -0.00280795 0
0.0123925 -0.00260016 0
0.0116246 -0.00241012 0
0.0108864 -0.00223769 0
0.0101774 -0.00208212 0
0.00949701 -0.00194206 0
0.00884483 -0.0018163 0
0.0082202 -0.0017039 0
0.00762247 -0.00160391 0
0.00705097 -0.00151528 0
0.006505 -0.00143697 0
0.0059838 -0.00136806 0
0.00548662 -0.00130772 0
0.00501265 -0.00125519 0
0.00456114 -0.00120954 0
0.00413136 -0.00116914 0
0.00372257 -0.00113251 0
0.00333398 -0.00109853 0
0.00296466 -0.00106798 0
0.00261363 -0.0010431 0
-0.052721 -0.0445996 0
-0.0508204 -0.0440823 0
-0.0489199 -0.0435651 0
-0.0470193 -0.0430478 0
-0.0451187 -0.0425306 0
-0.0432181 -0.0420134 0
-0.0413175 -0.0414961 0
-0.039417 -0.0409789 0
-0.0375164 -0.0404616 0
-0.0356158 -0.0399444 0
-0.0337152 -0.0394271 0
-0.0318146 -0.0389099 0
-0.0299141 -0.0383927 0
-0.0280135 -0.0378754 0
-0.0261129 -0.0373582 0
-0.0242123 -0.0368409 0
-0.0223117 -0.0363237 0
-0.0204112 -0.0358065 0
-0.0185106 -0.0352892 0
-0.01661 -0.034772 0
-0.0147094 -0.0342547 0
-0.0128088 -0.0337375 0
-0.0109083 -0.0332202 0
-0.00900769 -0.032703 0
-0.00710711 -0.0321858 0
-0.00520653 -0.0316685 0
-0.00330595 -0.0311513 0
-0.00140537 -0.030634 0
0.00190689 -0.0299614 0
0.00332271 -0.0298498 0
0.00474133 -0.0297825 0
0.00616136 -0.0297597 0
0.0075814 -0.0297814 0
0.00900007 -0.0298477 0
0.010416 -0.0299583 0
0.0118278 -0.0301127 0
0.0132342 -0.0303103 0
0.0146339 -0.0305504 0
0.0160259 -0.0308322 0
0.0174091 -0.0311546 0
0.0187824 -0.0315166 0
0.020145 -0.031917 0
0.0214961 -0.0323546 0
0.0228351 -0.032828 0
0.0241613 -0.0333361 0
0.0254744 -0.0338774 0
0.0267738 -0.0344507 0
0.0280592 -0.0350545 0
0.0293306 -0.0356877 0
0.0305875 -0.0363488 0
0.0318301 -0.0370367 0
0.0330581 -0.0377501 0
0.0342717 -0.0384879 0
0.0354708 -0.0392489 0
0.0366556 -0.0400321 0
0.0378262 -0.0408363 0
0.0389828 -0.0416607 0
0.0401254 -0.0425042 0
0.0412543 -0.0433659 0
0.0423698 -0.0442451 0
0.043472 -0.0451408 0
0.0445612 -0.0460523 0
0.0456375 -0.0469789 0
0.0467013 -0.0479199 0
0.0477529 -0.0488746 0
0.0487923 -0.0498424 0
0.04982 -0.0508227 0
0.0508362 -0.051815 0
0.051841 -0.0528187 0
0.0528348 -0.0538333 0
0.0538178 -0.0548584 0
0.0547903 -0.0558935 0
0.0557524 -0.0569382 0
0.0567045 -0.0579922 0
0.0576467 -0.0590549 0
0.0585792 -0.0601261 0
0.0595024 -0.0612055 0
0.0604163 -0.0622926 0
0.0613212 -0.0633873 0
0.0622174 -0.0644891 0
0.0631049 -0.0655979 0
0.0639841 -0.0667134 0
0.064855 -0.0678353 0
0.0657179 -0.0689633 0
0.0665729 -0.0700974 0
0.0674202 -0.0712372 0
0.06826 -0.0723826 0
0.0690925 -0.0735333 0
0.0699178 -0.0746892 0
0.070736 -0.0758501 0
0.0715473 -0.0770159 0
0.0723518 -0.0781863 0
0.0731498 -0.0793612 0
0.0739412 -0.0805405 0
0.0747264 -0.081724 0
0.0755053 -0.0829116 0
0.0762781 -0.0841033 0
0.0770449 -0.0852987 0
0.0778059 -0.0864979 0
0.0785611 -0.0877007 0
0.0793108 -0.088907 0
0.0814681 -0.0912706 0
0.0828814 -0.0924245 0
0.0842946 -0.0935783 0
0.0857079 -0.0947322 0
0.0871211 -0.095886 0
0.0885344 -0.0970399 0
0.0899476 -0.0981937 0
0.0913609 -0.0993476 0
0.0927741 -0.100501 0
0.0941874 -0.101655 0
0.0956006 -0.102809 0
0.0970139 -0.103963 0
0.0984272 -0.105117 0
0.0998404 -0.106271 0
0.101254 -0.107424 0
0.102667 -0.108578 0
0.10408 -0.109732 0
0.105493 -0.110886 0
0.106907 -0.11204 0
0.10832 -0.113194 0
0.109733 -0.114348 0
0.111146 -0.115501 0
0.11256 -0.116655 0
0.113973 -0.117809 0
0.115386 -0.118963 0
0.116799 -0.120117 0
0.118213 -0.121271 0
0.119626 -0.122424 0
0.121039 -0.123578 0
0.122452 -0.124732 0
0.123866 -0.125886 0
0.125279 -0.12704 0
0.126692 -0.128194 0
0.128105 -0.129348 0
0.129519 -0.130501 0
0.130932 -0.131655 0
0.132345 -0.132809 0
0.133758 -0.133963 0
0.135172 -0.133216 0
0.135172 -0.131316 0
0.135172 -0.129415 0
0.135172 -0.127514 0
0.135172 -0.125614 0
0.135172 -0.123713 0
0.135172 -0.121813 0
0.135172 -0.119912 0
0.135172 -0.118012 0
0.135172 -0.116111 0
0.135172 -0.11421 0
0.135172 -0.11231 0
0.135172 -0.110409 0
0.135172 -0.108509 0
0.135172 -0.106608 0
0.135172 -0.104708 0
0.135172 -0.102807 0
0.135172 -0.100906 0
0.135172 -0.0990058 0
0.135172 -0.0971052 0
0.135172 -0.0952046 0
0.135172 -0.0933041 0
0.135172 -0.0914035 0
0.135172 -0.0895029 0
0.135172 -0.0876023 0
0.135172 -0.0857017 0
0.135172 -0.0838012 0
0.135172 -0.0819006 0
0.133758 -0.0788462 0
0.132345 -0.0776923 0
0.130932 -0.0765385 0
0.129519 -0.0753846 0
0.128105 -0.0742308 0
0.126692 -0.0730769 0
0.125279 -0.0719231 0
0.123866 -0.0707692 0
0.122452 -0.0696154 0
0.121039 -0.0684615 0
0.119626 -0.0673077 0
0.118213 -0.0661538 0
0.116799 -0.065 0
0.115386 -0.0638462 0
0.113973 -0.0626923 0
0.11256 -0.0615385 0
0.111146 -0.0603846 0
0.109733 -0.0592308 0
0.10832 -0.0580769 0
0.106907 -0.0569231 0
0.105493 -0.0557692 0
0.10408 -0.0546154 0
0.102667 -0.0534615 0
0.101254 -0.0523077 0
0.0998404 -0.0511538 0
0.0984272 -0.05 0
0.0970139 -0.0488462 0
0.0956006 -0.0476923 0
[...]
CELL_DATA 13116
SCALARS rho float
LOOKUP_TABLE default
0.426825
0.51432
0.293836
0.555566
0.546217
0.533853
0.323206
0.549087
0.410032
0.549979
0.322721
0.298784
0.546462
0.331642
0.320844
0.533899
0.401747
0.542488
0.531518
0.32882
0.430868
0.327043
0.329728
0.544018
0.473847
0.493972
0.550011
0.332091
0.472801
0.50272
0.533596
0.335356
0.432128
0.348746
0.32247
0.428948
0.517526
0.526522
0.53382
0.533675
0.532896
0.551885
0.330762
0.294322
0.530295
0.531351
0.496165
0.534045
0.323618
0.407051
0.545181
0.344118
0.322187
0.396106
0.431044
0.455176
0.300012
0.541304
0.41744
0.319094
0.33288
0.551306
0.506677
0.533811
0.533662
0.336976
0.535441
0.522919
0.536211
0.533672
0.323427
0.456509
0.323133
0.330512
0.533571
0.306468
0.500587
0.542215
0.324157
0.540041
0.528067
0.498608
0.54411
0.533629
0.522577
0.350596
0.32683
0.520713
0.518292
0.326106
0.317179
0.515751
0.546154
0.522646
0.505122
0.465443
0.475862
0.533706
0.533561
0.465641
0.528401
0.457512
0.532429
0.313366
0.48211
0.334952
0.280612
0.367913
0.331454
0.480846
0.390513
0.493472
0.463978
0.530889
0.540535
0.535577
0.329471
0.302366
0.539503
0.536559
0.523235
0.321424
0.536508
0.350671
0.517627
0.341838
0.327286
0.396961
0.328726
0.408336
0.539737
0.533217
0.39189
0.3289
0.37632
0.454412
0.53365
0.538452
0.527687
0.536335
0.487436
0.498919
0.395715
0.488133
0.502493
0.329968
0.32327
0.491797
0.544242
0.541983
0.423792
0.533183
0.534018
0.312918
0.54718
0.523746
0.328663
0.532873
0.533704
0.520951
0.543306
0.322036
0.542826
0.328455
0.31722
0.549738
0.515314
0.542107
0.322484
0.362547
0.329313
0.533607
0.321942
0.383716
0.534874
0.331025
0.323543
0.32437
0.490146
0.533572
0.305728
0.336868
0.406637
0.517875
0.533592
0.415599
0.299896
0.532698
0.472057
0.359554
0.495297
0.490016
0.533639
0.332068
0.485786
0.533878
0.547369
0.532316
0.517201
0.317175
0.313024
0.484927
0.392806
0.331612
0.540116
0.529716
0.351005
0.473565
0.327687
0.324746
0.303898
0.534581
0.327747
0.328786
0.324451
0.312212
0.285713
0.533389
0.514932
0.340258
0.299123
0.535294
0.385631
0.30662
0.433333
0.550502
0.500544
0.334917
0.535015
0.305888
0.555483
0.325943
0.533615
0.448579
0.533703
0.52793
0.533647
0.316623
0.336017
0.520912
0.533635
0.533802
0.533646
0.533463
0.543582
0.325153
0.54139
0.547866
0.533544
0.325942
0.325199
0.53108
0.539035
0.533606
0.535982
0.415726
0.533214
0.322282
0.330619
0.309486
0.328254
0.46804
0.547187
0.49955
0.323968
0.528997
0.330326
0.338322
0.48388
0.321511
0.495137
0.5482
0.533612
0.541046
0.316759
0.533608
0.532224
0.533543
0.538324
0.321603
0.328366
0.331009
0.450544
0.321131
0.328948
0.259963
0.252352
0.521511
0.323796
0.522803
0.546995
0.312225
0.325816
0.330671
0.353549
0.290849
0.519615
0.456067
0.48834
0.321623
0.534304
0.458627
0.330869
0.320063
0.533683
0.539011
0.532441
0.29866
0.533918
0.322392
0.532662
0.551738
0.540635
0.550852
0.333077
0.535031
0.326799
0.533427
0.550797
0.521527
0.325248
0.259719
0.54835
0.334121
0.508046
0.551238
0.285209
0.535362
0.543861
0.329692
0.528801
0.546061
0.321991
0.540966
0.351914
0.44907
0.532459
0.357157
0.533127
0.324848
0.542248
0.269116
0.533441
0.451194
0.548328
0.334545
0.279443
0.523693
0.31643
0.539477
0.477239
0.328921
0.533652
0.307561
0.318682
0.537625
0.433544
0.521696
0.328492
0.328039
0.541261
0.546802
0.323211
0.545935
0.332973
0.333556
0.535171
0.536167
0.357039
0.322328
0.538399
0.533662
0.533962
0.527721
0.540845
0.423933
0.258727
0.325804
0.303025
0.53396
0.303709
0.404992
0.28912
0.320323
0.274759
0.364902
0.110134
0.317182
0.52443
0.262626
0.543449
0.472486
0.532766
0.514283
0.54192
0.318756
0.327613
0.322006
0.26653
0.537352
0.460675
0.532683
0.472965
0.50383
0.482384
0.49705
0.484141
0.500479
0.539776
0.53961
0.53378
0.314228
0.357342
0.423613
0.324976
0.453027
0.453849
0.324002
0.53537
0.533639
0.333632
0.326923
0.328949
0.302235
0.49258
0.325117
0.332078
0.534811
0.332926
0.448282
0.329274
0.533451
0.527838
0.291596
0.329127
0.537194
0.354755
0.329219
0.300542
0.320318
0.331201
0.32912
0.327228
0.32763
0.338137
0.324199
0.454714
0.308676
0.521882
0.297081
0.35866
0.39414
0.336408
0.325733
0.335411
0.531393
0.342629
0.500193
0.369894
0.335929
0.475561
0.520177
0.349963
0.535005
0.483326
0.482185
0.329702
0.533698
0.304026
0.541625
0.533591
0.328049
0.326679
0.470778
0.26799
0.358336
0.453622
0.279825
0.532115
0.504844
0.310216
0.321005
0.322235
0.380242
0.318717
0.322782
0.322552
0.327228
0.552402
0.55295
0.358639
0.46812
0.375693
0.485575
0.275084
0.322964
0.413582
0.328153
0.532984
0.230561
0.290709
0.388621
0.529724
0.511508
0.438496
0.283781
0.326677
0.445738
0.549228
0.533754
0.442804
0.485724
0.467007
0.326282
0.527025
0.445057
0.51999
0.243502
0.29308
0.530109
0.547591
0.513425
0.550749
0.513053
0.493907
0.542372
0.520327
0.532738
0.312911
0.529499
0.265963
0.32707
0.328218
0.554477
0.530177
0.242183
0.521842
0.485958
0.325532
0.533543
0.538494
0.536932
0.331925
0.322851
0.540813
0.328956
0.313002
0.312135
0.327106
0.53106
0.323717
0.554489
0.309184
0.514828
0.54418
0.535501
0.546923
0.328702
0.311075
0.53149
0.556368
0.509773
0.552123
0.547644
0.390173
0.329505
0.330137
0.534007
0.411722
0.328313
0.354546
0.316609
0.531526
0.533087
0.243582
0.327004
0.520174
0.364923
0.525062
0.515426
0.327756
0.306588
0.506462
0.533657
0.329182
0.510596
0.514995
0.530947
0.314192
0.533602
0.313021
0.533694
0.519004
0.321084
0.285145
0.328458
0.533637
0.328983
0.322669
0.302776
0.533535
0.535309
0.323983
0.326201
0.328104
0.533665
0.323047
0.53378
0.330119
0.459549
0.550533
0.299568
0.328612
0.328939
0.390535
0.33277
0.50275
0.297983
0.324341
0.53345
0.323015
0.534446
0.504908
0.533696
0.303436
0.533557
0.545165
0.547083
0.534093
0.518489
0.535027
0.330671
0.53375
0.342093
0.528505
0.321406
0.544304
0.393996
0.322776
0.533563
0.542651
0.321418
0.486569
0.314335
0.322784
0.534766
0.531106
0.305869
0.32934
0.324576
0.337143
0.528767
0.544173
0.315331
0.302702
0.539439
0.538279
0.461002
0.544718
0.533187
0.322691
0.548425
0.334096
0.545047
0.303291
0.463821
0.378045
0.534889
0.522677
0.451797
0.267982
0.333542
0.532052
0.473247
0.400818
0.544306
0.328195
0.530784
0.546835
0.286401
0.355363
0.545576
0.283384
0.533551
0.521687
0.256202
0.537274
0.503713
0.306766
0.534259
0.330618
0.515932
0.299921
0.534489
0.505189
0.335685
0.533808
0.543234
0.541432
0.486922
0.528358
0.457003
0.323306
0.324471
0.298194
0.331661
0.533605
0.435718
0.537101
0.543725
0.307472
0.323376
0.53159
0.551241
0.537563
0.548241
0.32403
0.539758
0.547775
0.328338
0.309719
0.539647
0.53105
0.519295
0.325585
0.463256
0.312246
0.533518
0.503201
0.533748
0.520589
0.328547
0.528022
0.522708
0.545312
0.530123
0.533287
0.338678
0.54055
0.324705
0.485037
0.548905
0.362212
0.50605
0.533758
0.543759
0.312809
0.314288
0.457917
0.508156
0.329924
0.323926
0.317671
0.324394
0.516291
0.530421
0.533461
0.251427
0.32343
0.536062
0.531807
0.322535
0.324787
0.363605
0.516627
0.532384
0.527162
0.537745
0.324526
0.330422
0.533605
0.347693
0.324488
0.300432
0.532854
0.320672
0.327431
0.449147
0.530064
0.490209
0.533873
0.532799
0.331269
0.32231
0.317954
0.369372
0.342233
0.321825
0.521758
0.537335
0.515863
0.533886
0.335356
0.302543
0.550502
0.329304
0.533261
0.504774
0.533702
0.305852
0.318727
0.511312
0.533518
0.435995
0.321723
0.524343
0.533902
0.445706
0.542131
0.547584
0.533605
0.485947
0.324537
0.532899
0.533506
0.478403
0.533791
0.533649
0.494758
0.533686
0.537754
0.32479
0.319109
0.306304
0.5337
0.39288
0.330631
0.531452
0.539874
0.293575
0.492632
0.289761
0.496684
0.363835
0.318283
0.551516
0.543674
0.329368
0.43237
0.533676
0.330025
0.522923
0.335805
0.334629
0.4791
0.474066
0.394051
0.532298
0.317288
0.542712
0.322398
0.318889
0.534405
0.327981
0.469149
0.319484
0.49193
0.465032
0.53368
0.513509
0.323921
0.323779
0.473384
0.332442
0.537278
0.356553
0.459658
0.533662
0.545112
0.343666
0.478694
0.488857
0.547641
0.535951
0.271863
0.324031
0.424316
0.487146
0.548085
0.29434
0.532348
0.437498
0.321644
0.310158
0.522781
0.517319
0.533669
0.533618
0.457878
0.531515
0.533671
0.523403
0.319509
0.51365
0.361561
0.537961
0.530553
0.243753
0.497349
0.545085
0.319202
0.319471
0.332691
0.533652
0.322418
0.478969
0.537904
0.51485
0.308552
0.524055
0.332299
0.462824
0.533789
0.533472
0.520397
0.533643
0.482327
0.527048
0.407958
0.528081
0.298303
0.533092
0.535399
0.316872
0.533685
0.531568
0.329654
0.32508
0.328957
0.54103
0.325021
0.533589
0.314474
0.548378
0.326542
0.378506
0.325049
0.541156
0.547596
0.414103
0.214156
0.482238
0.533393
0.31772
0.460201
0.5533
0.327152
0.457278
0.533531
0.550217
0.533388
0.326459
0.365783
0.538642
0.532024
0.486269
0.325265
0.311673
0.526014
0.533648
0.533654
0.533673
0.426266
0.533574
0.422561
0.536072
0.325335
0.331291
0.533676
0.545286
0.533551
0.335331
0.533008
0.432324
0.46578
0.305546
0.327467
0.546242
0.557285
0.434456
0.263342
0.533333
0.533687
0.322584
0.475998
0.537558
0.322407
0.356356
0.325027
0.471418
0.326276
0.311617
0.527937
0.362686
0.548329
0.497426
0.322758
0.329096
0.551135
0.317616
0.325458
0.533519
0.33204
0.276016
0.460261
0.514705
0.533608
0.32358
0.262643
0.323757
0.506093
0.334261
0.534182
0.322121
0.532186
0.48691
0.529342
0.49108
0.526889
0.501439
0.532532
0.546581
0.536465
0.322944
0.322378
0.520785
0.533735
0.398938
0.481065
0.435443
0.533718
0.477035
0.29102
0.535941
0.552467
0.526693
0.325774
0.528698
0.30302
0.533569
0.392768
0.540364
0.534064
0.31829
0.537253
0.329187
0.332791
0.507683
0.299381
0.532581
0.533684
0.537658
0.303021
0.53476
0.325464
0.306226
0.319383
0.323689
0.470484
0.322864
0.490359
0.533731
0.266123
0.332157
0.384914
0.455105
0.491907
0.487828
0.305587
0.335307
0.323144
0.325095
0.213949
0.491472
0.497637
0.331752
0.533429
0.537482
0.325126
0.552412
0.531242
0.533745
0.325303
0.53358
0.527261
0.540799
0.53793
0.318744
0.534634
0.542224
0.529221
0.523451
0.533276
0.327549
0.324723
0.533445
0.422939
0.319976
0.534304
0.330981
0.448598
0.486341
0.514172
0.517369
0.308566
0.479587
0.311794
0.325448
0.536038
0.541014
0.544244
0.540909
0.511015
0.306545
0.547629
0.323011
0.398079
0.549286
0.533575
0.53824
0.325839
0.325242
0.548473
0.325008
0.540316
0.507852
0.33637
0.325543
0.535129
0.321509
0.534005
0.539903
0.508474
0.321036
0.318636
0.394309
0.402617
0.482329
0.369171
0.533313
0.487843
0.524112
0.533608
0.532924
0.326029
0.327459
0.5419
0.533276
0.483651
0.362412
0.331756
0.524655
0.322322
0.533071
0.482481
0.265608
0.536907
0.323898
0.506057
0.295971
0.545005
0.316232
0.532665
0.533581
0.278645
0.519817
0.507705
0.267874
0.533461
0.531423
0.433916
0.336549
0.286844
0.363981
0.5456
0.46992
0.321006
0.459704
0.534908
0.533496
0.301036
0.473105
0.519379
0.36461
0.533297
0.533515
0.236513
0.536249
0.533545
0.294113
0.464652
0.303597
0.494938
0.311811
0.334156
0.547243
0.317636
0.327069
0.324113
0.535138
0.512156
0.316542
0.533214
0.283736
0.515782
0.325544
0.515227
0.289742
0.533685
0.533788
0.501736
0.533584
0.435298
0.533608
0.533718
0.303458
0.498878
0.50599
0.377146
0.532406
0.389589
0.315889
0.547362
0.309056
0.447268
0.287551
0.532608
0.322197
0.33199
0.543755
0.532831
0.312228
0.537094
0.53742
0.533634
0.54788
0.533659
0.324538
0.551815
0.328454
0.327951
0.519413
0.538606
0.551192
0.522061
0.317244
0.31114
0.323024
0.515557
0.533695
0.285941
0.523495
0.336628
0.308726
0.306126
0.520722
0.303538
0.548981
0.536775
0.498011
0.530333
0.535847
0.445935
0.496197
0.343768
0.331638
0.312251
0.533653
0.533624
0.335255
0.490991
0.469059
0.497658
0.326814
0.310273
0.490949
0.220166
0.485381
0.461406
0.329111
0.53347
0.517741
0.330424
0.533064
0.325042
0.536914
0.549145
0.527301
0.323119
0.371948
0.531388
0.238342
0.351161
0.530391
0.245173
0.533459
0.535887
0.494752
0.537709
0.260138
0.533606
0.535519
0.531935
0.287187
0.542371
0.324038
0.332723
0.523544
0.532566
0.533531
0.186849
0.534294
0.498589
0.533578
0.336233
0.331145
0.32898
0.539673
0.322622
0.322395
0.306769
0.459676
0.323382
0.247138
0.350065
0.534156
0.328192
0.533544
0.533622
0.533363
0.302171
0.535516
0.511327
0.533434
0.328864
0.52168
0.323584
0.310563
0.534673
0.325767
0.48766
0.533876
0.533676
0.325689
0.259931
0.321674
0.44166
0.533668
0.184928
0.527169
0.535041
0.538665
0.325976
0.323659
0.27199
0.469175
0.33056
0.533678
0.476396
0.53363
0.526885
0.323001
0.487993
0.328389
0.436803
0.509306
0.551066
0.442839
0.372512
0.521452
0.486776
0.542659
0.307175
0.29234
0.325806
0.539894
0.416298
0.533582
0.328222
0.313756
0.540759
0.535276
0.533488
0.324768
0.533968
0.4403
0.442681
0.472043
0.33143
0.327346
0.235044
0.532583
0.533776
0.522248
0.483832
0.271058
0.538419
0.516638
0.533776
0.53344
0.53834
0.552267
0.533953
0.537534
0.543755
0.327049
0.536961
0.541667
0.53311
0.538163
0.532237
0.449574
0.326597
0.33551
0.481331
0.323021
0.263472
0.533262
0.324283
0.50104
0.535738
0.512404
0.527344
0.329285
0.534706
0.316547
0.333314
0.533991
0.532905
0.534012
0.298434
0.545142
0.532404
0.479184
0.532563
0.325552
0.533159
0.548806
0.518013
0.317974
0.541652
0.325774
0.556998
0.302296
0.326676
0.40648
0.353699
0.55139
0.542028
0.533424
0.308031
0.533207
0.318246
0.324084
0.50792
0.388006
0.325981
0.532822
0.323108
0.405851
0.521828
0.495889
0.516668
0.387043
0.469676
0.513031
0.533738
0.447448
0.544239
0.421793
0.551935
0.480486
0.506431
0.333956
0.323791
0.353165
0.540921
0.329041
0.519893
0.537389
0.47079
0.533786
0.404539
0.531848
0.524629
0.326677
0.536496
0.475847
0.381382
0.47873
0.548324
0.504028
0.533492
0.325066
0.325099
0.529139
0.418721
0.424324
0.538262
0.533184
0.533618
0.547646
0.548813
0.484736
0.485645
0.55102
0.322343
0.323764
0.322591
0.298994
0.533661
0.360923
0.419499
0.536636
0.528575
0.328062
0.528175
0.555748
0.297531
0.295472
0.533581
0.538282
0.332588
0.308175
0.313658
0.533637
0.493344
0.321356
0.326193
0.329209
0.332645
0.27223
0.322424
0.553344
0.533958
0.530028
0.309668
0.513324
0.472884
0.48061
0.301989
0.326673
0.506233
0.533684
0.328309
0.533489
0.330344
0.543436
0.327875
0.53277
0.301787
0.516543
0.546969
0.305116
0.444063
0.322845
0.552098
0.332355
0.475971
0.331152
0.396796
0.324328
0.468953
0.317842
0.533578
0.533576
0.478907
0.526001
0.290053
0.515535
0.533378
0.545934
0.470935
0.516543
0.327154
0.305303
0.333957
0.546121
0.229508
0.544793
0.430183
0.538388
0.550175
0.359414
0.540424
0.324245
0.335448
0.322383
0.400456
0.40484
0.532537
0.320448
0.329057
0.53428
0.300123
0.320007
0.431253
0.290966
0.32824
0.336212
0.552863
0.513961
0.47959
0.329809
0.512782
0.532705
0.332324
0.256064
0.522996
0.53299
0.439558
0.408395
0.326237
0.286485
0.313411
0.529261
0.477699
0.409459
0.534232
0.324911
0.445418
0.323508
0.533593
0.544838
0.327856
0.327569
0.483188
0.425755
0.546668
0.543743
0.545968
0.537528
0.549372
0.309179
0.325103
0.322678
0.321646
0.420591
0.533656
0.515353
0.322472
0.304683
0.353905
0.356653
0.53352
0.494972
0.325137
0.243655
0.53572
0.329959
0.511938
0.542231
0.508366
0.533273
0.430191
0.320611
0.311239
0.481043
0.328115
0.328382
0.315914
0.533506
0.532157
0.290928
0.328613
0.533596
0.316759
0.533942
0.546148
0.320461
0.319807
0.327226
0.535398
0.329563
0.53368
0.534292
0.471153
0.303455
0.419298
0.541643
0.524979
0.324831
0.522443
0.483061
0.375826
0.53905
0.555703
0.325928
0.317264
0.510398
0.321479
0.321336
0.518753
0.273997
0.532782
0.532169
0.545496
0.488988
0.545082
0.535615
0.533727
0.322611
0.325593
0.492026
0.531187
0.371737
0.552126
0.256838
0.537512
0.517993
0.446586
0.50823
0.30589
0.360455
0.528891
0.542495
0.47781
0.547243
0.534749
0.533586
0.547013
0.533602
0.520446
0.510033
0.534956
0.533685
0.533717
0.280978
0.5012
0.301774
0.534818
0.537087
0.539392
0.500317
0.537291
0.318752
0.318126
0.241945
0.324625
0.506561
0.322103
0.325232
0.529226
0.325337
0.536994
0.314
0.518976
0.535018
0.31604
0.302369
0.259078
0.540044
0.329829
0.531921
0.536977
0.321086
0.503986
0.438431
0.272255
0.332142
0.325236
0.538083
0.317414
0.535656
0.401627
0.323565
0.531575
0.532907
0.545928
0.330103
0.450317
0.327146
0.514897
0.533704
0.53551
0.32695
0.530364
0.538376
0.488796
0.320175
0.539929
0.331691
0.325674
0.529067
0.357078
0.549104
0.315161
0.327367
0.351684
0.495763
0.330094
0.231567
0.301315
0.376025
0.53355
0.536492
0.329661
0.467924
0.534811
0.442663
0.329452
0.264037
0.440319
0.331017
0.324239
0.529762
0.326341
0.330639
0.542163
0.553834
0.297191
0.541346
0.310596
0.53358
0.331731
0.509192
0.533716
0.538333
0.533522
0.323535
0.324036
0.322737
0.533755
0.511922
0.467708
0.425938
0.294257
0.24034
0.533241
0.32296
0.533194
0.30318
0.533715
0.524085
0.299153
0.294982
0.327931
0.328164
0.298662
0.482054
0.508666
0.301866
0.536183
0.499249
0.319458
0.322343
0.553771
0.325589
0.534737
0.33872
0.538009
0.512958
0.53544
0.533558
0.32535
0.548852
0.533352
0.555041
0.320054
0.475185
0.472728
0.2616
0.540925
0.498863
0.547639
0.51357
0.549415
0.527864
0.550644
0.533075
0.531632
0.309584
0.545102
0.328241
0.360372
0.530145
0.324722
0.520482
0.474547
0.328526
0.489994
0.318001
0.318512
0.522712
0.466551
0.553409
0.327242
0.513325
0.486508
0.326966
0.306887
0.508562
0.532835
0.298874
0.307606
0.537367
0.553237
0.31261
0.502835
0.547716
0.516189
0.308239
0.331899
0.316908
0.514184
0.313974
0.523042
0.539875
0.533255
0.472996
0.535309
0.3269
0.518762
0.486308
0.546791
0.440303
0.328357
0.322289
0.331329
0.543896
0.537924
0.336611
0.511247
0.257942
0.503192
0.53638
0.32843
0.482102
0.52391
0.487814
0.30814
0.326871
0.294179
0.539575
0.549021
0.484494
0.407957
0.535344
0.329292
0.496899
0.533598
0.530539
0.308073
0.49428
0.328748
0.480615
0.333663
0.530471
0.522717
0.330086
0.539363
0.334295
0.533684
0.50007
0.533666
0.540075
0.325048
0.533283
0.533187
0.532898
0.531228
0.383447
0.533596
0.325702
0.533319
0.32921
0.302199
0.326959
0.297059
0.330117
0.304037
0.549717
0.290122
0.322233
0.514633
0.53974
0.510583
0.322413
0.534336
0.533581
0.533306
0.277709
0.451778
0.535389
0.320862
0.304083
0.323386
0.492195
0.40343
0.319292
0.457755
0.334979
0.533647
0.397966
0.327599
0.375007
0.509365
0.292035
0.533174
0.323669
0.368025
0.296702
0.531811
0.303296
0.509907
0.533584
0.462212
0.327719
0.324915
0.526295
0.552371
0.308017
0.30619
0.533623
0.325593
0.541285
0.311086
0.441869
0.331829
0.535531
0.324471
0.551249
0.302095
0.536183
0.536096
0.543147
0.533685
0.327674
0.329299
0.321903
0.496705
0.528509
0.49448
0.407002
0.329312
0.539271
0.268133
0.509812
0.455055
0.315456
0.327457
0.54332
0.530313
0.329657
0.533614
0.530154
0.543295
0.545504
0.32352
0.498941
0.329444
0.54339
0.315528
0.533509
0.504856
0.512341
0.551718
0.320263
0.556735
0.318397
0.324826
0.533858
0.533685
0.430928
0.529852
0.53365
0.325997
0.542875
0.528918
0.549167
0.30694
0.337329
0.531141
0.324385
0.537841
0.537089
0.522671
0.534232
0.227557
0.352911
0.509186
0.329522
0.517894
0.552872
0.372201
0.519979
0.21597
0.48283
0.543086
0.529846
0.520123
0.325307
0.333267
0.532754
0.520896
0.3283
0.264066
0.323645
0.32873
0.322348
0.334774
0.292183
0.321254
0.532195
0.327606
0.298064
0.536504
0.42937
0.533594
0.313195
0.328351
0.535195
0.368487
0.373333
0.54748
0.293263
0.517834
0.533714
0.480576
0.517021
0.326825
0.536808
0.533769
0.321425
0.324735
0.315997
0.471855
0.479954
0.549269
0.533948
0.531226
0.519933
0.292136
0.53769
0.533764
0.507978
0.32649
0.535906
0.44877
0.286664
0.341964
0.323557
0.324157
0.324141
0.463989
0.52285
0.521822
0.324452
0.308095
0.547648
0.284369
0.537054
0.533172
0.522974
0.530065
0.535076
0.320914
0.326332
0.336242
0.444401
0.319411
0.534191
0.320487
0.534609
0.533411
0.536689
0.299521
0.353818
0.323796
0.535707
0.307197
0.32306
0.532991
0.516778
0.484308
0.533826
0.504134
0.540893
0.326435
0.492615
0.545094
0.420613
0.534674
0.538655
0.541872
0.364646
0.338211
0.550286
0.39491
0.479114
0.326995
0.502327
0.523381
0.317606
0.313577
0.513185
0.401994
0.54301
0.537021
0.317982
0.329125
0.533547
0.299345
0.324536
0.524753
0.509449
0.327326
0.527156
0.533706
0.501892
0.302297
0.46503
0.327232
0.527173
0.544586
0.540782
0.519473
0.533666
0.253736
0.283493
0.529456
0.320609
0.480225
0.324345
0.535995
0.334977
0.507016
0.544716
0.53366
0.326289
0.533669
0.533559
0.323566
0.502892
0.315694
0.553878
0.32676
0.30508