# vtk DataFile Version 1.0
unstructured grid
ascii
DATASET UNSTRUCTURED_GRID
points 13672 float
0.0796578 -0.059106 0
0.00128732 0.00159165 0
0.00227961 -0.00102548 0
0.0791586 -0.0598787 0
-0.0546216 0.01 0
0.000495206 0.025 0
0.0800549 -0.035 0
0.135172 -0.08 0
-0.0546216 -0.0451168 0
0.000495206 -0.0301168 0
0.0800549 -0.0901168 0
0.135172 -0.135117 0
-0.0546216 -0.0451168 -0.00551168
0.000495206 -0.0301168 -0.00551168
0.0800549 -0.0901168 -0.00551168
0.135172 -0.135117 -0.00551168
0.135172 -0.08 -0.00551168
0.0800549 -0.035 -0.00551168
0.000495206 0.025 -0.00551168
-0.0546216 0.01 -0.00551168
0.00128732 0.00159165 -0.00551168
0.00227961 -0.00102548 -0.00551168
0.0791586 -0.0598787 -0.00551168
0.0796578 -0.059106 -0.00551168
0.00165953 -0.000990923 0
0.00119576 -0.000874076 0
0.000866021 -0.000641801 0
0.000645147 -0.000349912 0
0.00052235 -1.7281e-05 0
0.00049972 0.000348016 0
0.000601632 0.000737716 0
0.000861774 0.0011403 0
0.00157235 0.00183217 0
0.00188647 0.00206725 0
0.00222612 0.00230203 0
0.00258713 0.00254351 0
0.00296826 0.00279524 0
0.00337118 0.00305664 0
0.00379785 0.00332658 0
0.00425045 0.00360349 0
0.00473139 0.00388521 0
0.0052432 0.00416895 0
0.0057881 0.00445204 0
0.00636753 0.00473281 0
0.00698281 0.00500961 0
0.00763526 0.00528058 0
0.00832616 0.00554366 0
0.00905691 0.00579603 0
0.00982918 0.00603333 0
0.0106445 0.00625033 0
0.0115038 0.00644128 0
0.0124073 0.00660297 0
0.0133543 0.00673414 0
0.0143444 0.00683382 0
0.0153769 0.00690031 0
0.0164512 0.00693173 0
0.0175666 0.00692547 0
0.0187219 0.00687822 0
0.0199156 0.00678477 0
0.0211454 0.00663864 0
0.0224084 0.00643275 0
0.0237018 0.00616676 0
0.0250249 0.00584739 0
0.026375 0.00547298 0
0.0277479 0.00503752 0
0.0291386 0.00453545 0
0.0305433 0.0039653 0
0.0319572 0.0033256 0
0.0333681 0.00260019 0
0.034775 0.00179799 0
0.0361793 0.000930615 0
0.0375798 3.12222e-06 0
0.0389689 -0.000988429 0
0.0403357 -0.00205109 0
0.041675 -0.00318283 0
0.0429849 -0.00437751 0
0.0442643 -0.00562904 0
0.0455126 -0.00693089 0
0.0467314 -0.00827518 0
0.0479204 -0.00965638 0
0.0490661 -0.0110799 0
0.0501515 -0.0125519 0
0.0511696 -0.0140695 0
0.0521492 -0.0156071 0
0.0531202 -0.0171411 0
0.0540851 -0.0186663 0
0.0550431 -0.0201798 0
0.0559923 -0.0216793 0
0.0569311 -0.0231626 0
0.0578582 -0.0246273 0
0.0587723 -0.0260715 0
0.0596721 -0.027493 0
0.0605563 -0.02889 0
0.0614241 -0.0302609 0
0.0622742 -0.0316042 0
0.063106 -0.0329183 0
0.0639186 -0.034202 0
0.0647113 -0.0354543 0
0.0654835 -0.0366743 0
0.0662345 -0.0378613 0
0.0669642 -0.0390145 0
0.0676726 -0.0401333 0
0.0683597 -0.0412172 0
0.0690246 -0.0422665 0
0.0696662 -0.0432819 0
0.0702841 -0.0442636 0
0.0708793 -0.0452111 0
0.0714538 -0.0461237 0
0.072009 -0.047001 0
0.0725452 -0.0478434 0
0.0730611 -0.0486524 0
0.073556 -0.0494294 0
0.0740291 -0.0501756 0
0.0744812 -0.0508916 0
0.0749138 -0.0515773 0
0.0753285 -0.0522331 0
0.0757266 -0.0528592 0
0.076109 -0.0534564 0
0.0764753 -0.0540264 0
0.0768243 -0.054571 0
0.0771553 -0.0550919 0
0.0774679 -0.0555901 0
0.0777617 -0.0560669 0
0.0780369 -0.056523 0
0.0782958 -0.0569578 0
0.0785421 -0.0573703 0
0.0787786 -0.0577603 0
0.0790073 -0.0581279 0
0.0792295 -0.058474 0
0.0794462 -0.0587995 0
0.0798803 -0.0594162 0
0.0800272 -0.0596588 0
0.0800357 -0.0598891 0
0.0799275 -0.0600784 0
0.0797205 -0.0601773 0
0.0794593 -0.0601051 0
0.0789155 -0.0596491 0
0.0786707 -0.0593963 0
0.0784111 -0.0591319 0
0.0781372 -0.0588542 0
0.0778566 -0.0585548 0
0.0775715 -0.0582308 0
0.0772803 -0.0578828 0
0.0769832 -0.0575099 0
0.0766822 -0.0571097 0
0.0763801 -0.0566796 0
0.0760759 -0.0562196 0
0.0757623 -0.0557337 0
0.0754359 -0.0552232 0
0.0750951 -0.0546879 0
0.0747379 -0.054128 0
0.0743626 -0.0535435 0
0.0739688 -0.0529338 0
0.0735559 -0.0522981 0
0.0731238 -0.0516357 0
0.0726718 -0.050946 0
0.0721991 -0.0502288 0
0.0717046 -0.049484 0
0.0711872 -0.0487117 0
0.0706461 -0.047912 0
0.0700804 -0.0470849 0
0.0694892 -0.0462308 0
0.0688718 -0.0453499 0
0.0682271 -0.0444431 0
0.0675544 -0.043511 0
0.0668527 -0.0425546 0
0.0661215 -0.0415748 0
0.06536 -0.040573 0
0.0645676 -0.0395504 0
0.0637439 -0.0385087 0
0.0628887 -0.0374493 0
0.062002 -0.0363741 0
0.0610838 -0.0352847 0
0.0601345 -0.0341831 0
0.0591547 -0.033071 0
0.0581456 -0.0319502 0
0.0571083 -0.0308224 0
0.0560444 -0.0296893 0
0.0549562 -0.028552 0
0.053845 -0.0274126 0
0.0527113 -0.0262746 0
0.051554 -0.0251427 0
0.0503724 -0.0240222 0
0.0491675 -0.0229164 0
0.047941 -0.0218282 0
0.0466955 -0.0207597 0
0.0454337 -0.0197126 0
0.0441592 -0.0186878 0
0.0428751 -0.0176863 0
0.0415841 -0.0167097 0
0.0402878 -0.0157609 0
0.0389879 -0.0148428 0
0.0376864 -0.0139575 0
0.0363853 -0.013107 0
0.0350871 -0.0122931 0
0.0337942 -0.0115164 0
0.0325095 -0.0107772 0
0.0312357 -0.0100756 0
0.0299758 -0.00941024 0
0.0287337 -0.00877784 0
0.0275126 -0.00817571 0
0.0263139 -0.00760375 0
0.0251376 -0.00706528 0
0.0239829 -0.0065649 0
0.0228537 -0.00609619 0
0.0217522 -0.00565563 0
0.0206795 -0.00524226 0
0.0196364 -0.00485507 0
0.0186233 -0.00449318 0
0.0176408 -0.00415577 0
0.016689 -0.00384204 0
0.0157682 -0.00355115 0
0.0148783 -0.00328218 0
0.0140192 -0.00303468 0
0.0131906 -0.00280795 0
0.0123925 -0.00260016 0
0.0116246 -0.00241012 0
0.0108864 -0.00223769 0
0.0101774 -0.00208212 0
0.00949701 -0.00194206 0
0.00884483 -0.0018163 0
0.0082202 -0.0017039 0
0.00762247 -0.00160391 0
0.00705097 -0.00151528 0
0.006505 -0.00143697 0
0.0059838 -0.00136806 0
0.00548662 -0.00130772 0
0.00501265 -0.00125519 0
0.00456114 -0.00120954 0
0.00413136 -0.00116914 0
0.00372257 -0.00113251 0
0.00333398 -0.00109853 0
0.00296466 -0.00106798 0
0.00261363 -0.0010431 0
-0.052721 -0.0445996 0
-0.0508204 -0.0440823 0
-0.0489199 -0.0435651 0
-0.0470193 -0.0430478 0
-0.0451187 -0.0425306 0
-0.0432181 -0.0420134 0
-0.0413175 -0.0414961 0
-0.039417 -0.0409789 0
-0.0375164 -0.0404616 0
-0.0356158 -0.0399444 0
-0.0337152 -0.0394271 0
-0.0318146 -0.0389099 0
-0.0299141 -0.0383927 0
-0.0280135 -0.0378754 0
-0.0261129 -0.0373582 0
-0.0242123 -0.0368409 0
-0.0223117 -0.0363237 0
-0.0204112 -0.0358065 0
-0.0185106 -0.0352892 0
-0.01661 -0.034772 0
-0.0147094 -0.0342547 0
-0.0128088 -0.0337375 0
-0.0109083 -0.0332202 0
-0.00900769 -0.032703 0
-0.00710711 -0.0321858 0
-0.00520653 -0.0316685 0
-0.00330595 -0.0311513 0
-0.00140537 -0.030634 0
0.00190689 -0.0299614 0
0.00332271 -0.0298498 0
0.00474133 -0.0297825 0
0.00616136 -0.0297597 0
0.0075814 -0.0297814 0
0.00900007 -0.0298477 0
0.010416 -0.0299583 0
0.0118278 -0.0301127 0
0.0132342 -0.0303103 0
0.0146339 -0.0305504 0
0.0160259 -0.0308322 0
0.0174091 -0.0311546 0
0.0187824 -0.0315166 0
0.020145 -0.031917 0
0.0214961 -0.0323546 0
0.0228351 -0.032828 0
0.0241613 -0.0333361 0
0.0254744 -0.0338774 0
0.0267738 -0.0344507 0
0.0280592 -0.0350545 0
0.0293306 -0.0356877 0
0.0305875 -0.0363488 0
0.0318301 -0.0370367 0
0.0330581 -0.0377501 0
0.0342717 -0.0384879 0
0.0354708 -0.0392489 0
0.0366556 -0.0400321 0
0.0378262 -0.0408363 0
0.0389828 -0.0416607 0
0.0401254 -0.0425042 0
0.0412543 -0.0433659 0
0.0423698 -0.0442451 0
0.043472 -0.0451408 0
0.0445612 -0.0460523 0
0.0456375 -0.0469789 0
0.0467013 -0.0479199 0
0.0477529 -0.0488746 0
0.0487923 -0.0498424 0
0.04982 -0.0508227 0
0.0508362 -0.051815 0
0.051841 -0.0528187 0
0.0528348 -0.0538333 0
0.0538178 -0.0548584 0
0.0547903 -0.0558935 0
0.0557524 -0.0569382 0
0.0567045 -0.0579922 0
0.0576467 -0.0590549 0
0.0585792 -0.0601261 0
0.0595024 -0.0612055 0
0.0604163 -0.0622926 0
0.0613212 -0.0633873 0
0.0622174 -0.0644891 0
0.0631049 -0.0655979 0
0.0639841 -0.0667134 0
0.064855 -0.0678353 0
0.0657179 -0.0689633 0
0.0665729 -0.0700974 0
0.0674202 -0.0712372 0
0.06826 -0.0723826 0
0.0690925 -0.0735333 0
0.0699178 -0.0746892 0
0.070736 -0.0758501 0
0.0715473 -0.0770159 0
0.0723518 -0.0781863 0
0.0731498 -0.0793612 0
0.0739412 -0.0805405 0
0.0747264 -0.081724 0
0.0755053 -0.0829116 0
0.0762781 -0.0841033 0
0.0770449 -0.0852987 0
0.0778059 -0.0864979 0
0.0785611 -0.0877007 0
0.0793108 -0.088907 0
0.0814681 -0.0912706 0
0.0828814 -0.0924245 0
0.0842946 -0.0935783 0
0.0857079 -0.0947322 0
0.0871211 -0.095886 0
0.0885344 -0.0970399 0
0.0899476 -0.0981937 0
0.0913609 -0.0993476 0
0.0927741 -0.100501 0
0.0941874 -0.101655 0
0.0956006 -0.102809 0
0.0970139 -0.103963 0
0.0984272 -0.105117 0
0.0998404 -0.106271 0
0.101254 -0.107424 0
0.102667 -0.108578 0
0.10408 -0.109732 0
0.105493 -0.110886 0
0.106907 -0.11204 0
0.10832 -0.113194 0
0.109733 -0.114348 0
0.111146 -0.115501 0
0.11256 -0.116655 0
0.113973 -0.117809 0
0.115386 -0.118963 0
0.116799 -0.120117 0
0.118213 -0.121271 0
0.119626 -0.122424 0
0.121039 -0.123578 0
0.122452 -0.124732 0
0.123866 -0.125886 0
0.125279 -0.12704 0
0.126692 -0.128194 0
0.128105 -0.129348 0
0.129519 -0.130501 0
0.130932 -0.131655 0
0.132345 -0.132809 0
0.133758 -0.133963 0
0.135172 -0.133216 0
0.135172 -0.131316 0
0.135172 -0.129415 0
0.135172 -0.127514 0
0.135172 -0.125614 0
0.135172 -0.123713 0
0.135172 -0.121813 0
0.135172 -0.119912 0
0.135172 -0.118012 0
0.135172 -0.116111 0
0.135172 -0.11421 0
0.135172 -0.11231 0
0.135172 -0.110409 0
0.135172 -0.108509 0
0.135172 -0.106608 0
0.135172 -0.104708 0
0.135172 -0.102807 0
0.135172 -0.100906 0
0.135172 -0.0990058 0
0.135172 -0.0971052 0
0.135172 -0.0952046 0
0.135172 -0.0933041 0
0.135172 -0.0914035 0
0.135172 -0.0895029 0
0.135172 -0.0876023 0
0.135172 -0.0857017 0
0.135172 -0.0838012 0
0.135172 -0.0819006 0
0.133758 -0.0788462 0
0.132345 -0.0776923 0
0.130932 -0.0765385 0
0.129519 -0.0753846 0
0.128105 -0.0742308 0
0.126692 -0.0730769 0
0.125279 -0.0719231 0
0.123866 -0.0707692 0
0.122452 -0.0696154 0
0.121039 -0.0684615 0
0.119626 -0.0673077 0
0.118213 -0.0661538 0
0.116799 -0.065 0
0.115386 -0.0638462 0
0.113973 -0.0626923 0
0.11256 -0.0615385 0
0.111146 -0.0603846 0
0.109733 -0.0592308 0
0.10832 -0.0580769 0
0.106907 -0.0569231 0
0.105493 -0.0557692 0
0.10408 -0.0546154 0
0.102667 -0.0534615 0
0.101254 -0.0523077 0
0.0998404 -0.0511538 0
0.0984272 -0.05 0
0.0970139 -0.0488462 0
0.0956006 -0.0476923 0
[...]
CELL_DATA 13116
SCALARS rho float
LOOKUP_TABLE default
0.427429
0.514789
0.293071
0.556052
0.546683
0.534003
0.321574
0.549481
0.410609
0.55048
0.320278
0.296154
0.546927
0.32993
0.319543
0.534053
0.4024
0.543014
0.531793
0.328171
0.431457
0.326359
0.327434
0.544539
0.474429
0.494144
0.550513
0.328967
0.473436
0.503269
0.533635
0.327097
0.432717
0.349263
0.320104
0.429546
0.518051
0.52686
0.53393
0.533967
0.533118
0.552304
0.331268
0.290806
0.530584
0.531633
0.496615
0.534352
0.322688
0.40764
0.545569
0.344627
0.32225
0.396763
0.43163
0.455764
0.294144
0.541809
0.418038
0.318726
0.330824
0.551792
0.507146
0.533915
0.533712
0.334554
0.535697
0.52344
0.5365
0.533731
0.322173
0.45713
0.322605
0.326536
0.533574
0.305701
0.501135
0.542632
0.322712
0.54057
0.528573
0.498839
0.544623
0.533972
0.522892
0.351247
0.326278
0.521247
0.518568
0.323689
0.311298
0.516216
0.546668
0.522904
0.505667
0.466023
0.476442
0.53373
0.533576
0.466245
0.528953
0.458137
0.532665
0.313884
0.482523
0.333987
0.281146
0.368458
0.329071
0.481475
0.391082
0.493763
0.464556
0.531398
0.541064
0.535842
0.328724
0.302907
0.53989
0.53685
0.52376
0.320773
0.536804
0.338615
0.517863
0.342398
0.326713
0.397559
0.323907
0.408929
0.540123
0.533662
0.392536
0.327907
0.376955
0.455027
0.533578
0.538778
0.528239
0.536624
0.488016
0.499363
0.396304
0.48871
0.503013
0.325884
0.320612
0.49202
0.544713
0.542333
0.424433
0.533519
0.534319
0.312053
0.547671
0.524051
0.32651
0.53343
0.533731
0.521491
0.543826
0.320192
0.543325
0.326643
0.316784
0.550201
0.515553
0.542632
0.320331
0.363189
0.329901
0.533538
0.321102
0.384293
0.535126
0.328525
0.322726
0.32381
0.490443
0.533721
0.305751
0.337441
0.407224
0.518403
0.533746
0.416192
0.299049
0.532917
0.472433
0.36011
0.49586
0.490242
0.533708
0.329903
0.486059
0.534027
0.547877
0.532545
0.51748
0.317576
0.31354
0.485543
0.3934
0.329402
0.540572
0.530071
0.351519
0.474139
0.328001
0.324083
0.303149
0.534796
0.32578
0.326685
0.323299
0.311348
0.286214
0.533499
0.51516
0.340904
0.293633
0.535544
0.386199
0.306685
0.43401
0.550994
0.50107
0.33237
0.535266
0.306467
0.5559
0.316572
0.533684
0.449211
0.533716
0.528213
0.533723
0.316094
0.336565
0.521455
0.533628
0.533949
0.533587
0.533546
0.543933
0.32435
0.541747
0.548352
0.533561
0.32332
0.324236
0.531419
0.53941
0.533665
0.536361
0.416341
0.533736
0.319842
0.329384
0.309855
0.328612
0.468484
0.547696
0.500102
0.3233
0.52928
0.321622
0.338935
0.484291
0.320696
0.49534
0.548612
0.53359
0.54155
0.316531
0.533583
0.532725
0.533562
0.53865
0.320253
0.328017
0.328655
0.451168
0.320538
0.327912
0.260453
0.248896
0.521886
0.323711
0.523089
0.547442
0.30427
0.320314
0.322162
0.354138
0.289948
0.52015
0.456715
0.488682
0.320852
0.534523
0.459309
0.329474
0.319421
0.533802
0.539383
0.532662
0.297791
0.534073
0.322908
0.533104
0.552164
0.540975
0.551272
0.330851
0.535278
0.327114
0.533617
0.551287
0.522091
0.3239
0.26021
0.548834
0.332292
0.508439
0.551722
0.28564
0.535899
0.544375
0.32736
0.529087
0.546578
0.321934
0.541353
0.352578
0.449757
0.532727
0.357821
0.533681
0.324205
0.542767
0.269624
0.533536
0.451761
0.548835
0.332267
0.279966
0.524004
0.315513
0.539919
0.477592
0.329491
0.533583
0.306932
0.318075
0.538037
0.434206
0.522216
0.328169
0.326148
0.541614
0.547251
0.320522
0.546354
0.332421
0.332816
0.535445
0.536466
0.357619
0.322859
0.538736
0.533709
0.534117
0.528012
0.54133
0.424568
0.258076
0.326076
0.302817
0.53411
0.303574
0.40558
0.28953
0.31869
0.275272
0.365476
0.110337
0.316251
0.524748
0.260581
0.543947
0.473108
0.533034
0.514824
0.542289
0.318145
0.327252
0.322369
0.265496
0.537785
0.461255
0.532923
0.473589
0.504348
0.482953
0.497287
0.484721
0.501029
0.540254
0.540141
0.533914
0.314601
0.357873
0.42422
0.32439
0.453682
0.454435
0.323892
0.535628
0.533622
0.331422
0.325978
0.326568
0.301658
0.493209
0.322968
0.329881
0.53504
0.328225
0.448904
0.326836
0.533611
0.528331
0.288082
0.328171
0.53761
0.355352
0.326652
0.299759
0.320722
0.328856
0.328616
0.326303
0.326778
0.338747
0.321788
0.455344
0.308042
0.522178
0.297561
0.357827
0.394811
0.333113
0.323314
0.330325
0.531669
0.343235
0.500789
0.370456
0.332245
0.476134
0.520455
0.350615
0.535542
0.483896
0.482756
0.328285
0.533714
0.304576
0.542118
0.533624
0.326491
0.326484
0.471173
0.267641
0.359007
0.454176
0.280354
0.532671
0.50535
0.304285
0.320098
0.321165
0.380814
0.318124
0.322809
0.321257
0.327557
0.552871
0.553434
0.359234
0.468725
0.376321
0.48587
0.275552
0.32151
0.414159
0.326702
0.533383
0.230958
0.291248
0.389266
0.530018
0.511747
0.439158
0.284232
0.326432
0.446437
0.549628
0.533827
0.443499
0.486175
0.467466
0.324112
0.527521
0.445688
0.520536
0.243465
0.29243
0.530619
0.548104
0.513968
0.551245
0.513358
0.494051
0.54289
0.520884
0.533
0.3132
0.529796
0.266457
0.327231
0.326869
0.554968
0.530524
0.242633
0.522154
0.486598
0.324173
0.533632
0.538859
0.537416
0.328669
0.321347
0.541235
0.32662
0.308191
0.311064
0.324926
0.531473
0.323695
0.554979
0.308545
0.515305
0.544558
0.535766
0.54738
0.326134
0.304845
0.531854
0.556793
0.510307
0.552593
0.548131
0.390857
0.327018
0.328679
0.534199
0.412305
0.32605
0.355145
0.315118
0.531809
0.533318
0.243468
0.326302
0.520479
0.365606
0.525382
0.51602
0.322512
0.307163
0.507003
0.533644
0.327525
0.510843
0.515231
0.531305
0.313313
0.533543
0.303871
0.533703
0.519551
0.321552
0.285633
0.327431
0.533649
0.325377
0.321694
0.303316
0.533634
0.535777
0.322698
0.32515
0.325754
0.533759
0.322514
0.533929
0.326039
0.460171
0.551027
0.300037
0.326774
0.32674
0.39122
0.331069
0.502959
0.297081
0.322819
0.533593
0.322402
0.534651
0.505315
0.533712
0.303103
0.533953
0.54567
0.547589
0.534296
0.518688
0.535296
0.324235
0.533817
0.342737
0.528907
0.320339
0.544662
0.394559
0.32096
0.533606
0.543126
0.320168
0.487143
0.309667
0.321413
0.534991
0.531383
0.304222
0.32444
0.323173
0.331505
0.52903
0.544693
0.314463
0.300344
0.539884
0.538596
0.461622
0.545222
0.533406
0.320739
0.548933
0.334688
0.545434
0.303818
0.464403
0.378701
0.535128
0.523197
0.45245
0.268439
0.331286
0.532292
0.473895
0.401453
0.544808
0.328653
0.531278
0.547326
0.286947
0.355889
0.546078
0.283789
0.533603
0.52223
0.256684
0.537581
0.504258
0.306258
0.534735
0.328258
0.516234
0.299158
0.534698
0.505659
0.333755
0.533913
0.543733
0.541869
0.487556
0.52884
0.457672
0.320859
0.324991
0.297612
0.328874
0.533514
0.436394
0.537402
0.544194
0.307601
0.32244
0.532062
0.551737
0.537985
0.548649
0.322895
0.54029
0.548259
0.327538
0.308732
0.54004
0.531382
0.519604
0.324885
0.46394
0.302997
0.533998
0.503592
0.533825
0.521022
0.326189
0.52846
0.522997
0.545828
0.530404
0.533491
0.339333
0.541032
0.324075
0.485592
0.549396
0.362852
0.506554
0.533841
0.544132
0.313317
0.314807
0.45858
0.508708
0.328176
0.324285
0.316964
0.321687
0.51677
0.530918
0.53354
0.248244
0.321069
0.536349
0.532354
0.322719
0.323656
0.364235
0.517148
0.532613
0.527455
0.538249
0.323911
0.3289
0.533554
0.336202
0.320053
0.299654
0.533047
0.312243
0.324934
0.449733
0.530446
0.490518
0.534
0.533006
0.330843
0.321285
0.317461
0.369949
0.34284
0.315026
0.522281
0.537845
0.516209
0.534127
0.334186
0.30076
0.550999
0.327972
0.533458
0.505241
0.533738
0.30421
0.319105
0.511623
0.533559
0.436626
0.321685
0.524655
0.534037
0.446291
0.542482
0.547977
0.533566
0.486409
0.323412
0.533103
0.533556
0.479002
0.534274
0.533561
0.495053
0.533651
0.538074
0.323206
0.317983
0.302982
0.533745
0.393443
0.329217
0.53192
0.540327
0.29101
0.493197
0.285293
0.497245
0.364398
0.317884
0.552009
0.544195
0.327074
0.43306
0.533723
0.326389
0.523183
0.333284
0.334104
0.479671
0.474659
0.394721
0.532541
0.316581
0.54321
0.321402
0.318117
0.534607
0.325718
0.469727
0.317929
0.492496
0.465615
0.533641
0.513752
0.323945
0.322313
0.473975
0.332951
0.537702
0.357079
0.460239
0.533814
0.545629
0.34418
0.479322
0.48915
0.548148
0.536223
0.272379
0.319141
0.424986
0.487424
0.548593
0.294705
0.532582
0.438127
0.322008
0.308603
0.523346
0.517841
0.533618
0.533625
0.45845
0.532017
0.533781
0.523917
0.318047
0.514203
0.362185
0.538276
0.530881
0.241701
0.497391
0.545534
0.318339
0.319215
0.329862
0.533565
0.32064
0.479539
0.538384
0.515405
0.304255
0.524401
0.329747
0.463501
0.533884
0.533545
0.520921
0.533736
0.482907
0.527555
0.408531
0.528483
0.297488
0.533278
0.535661
0.317378
0.533663
0.532059
0.327469
0.325299
0.324494
0.541373
0.322935
0.533563
0.314089
0.548766
0.326361
0.379166
0.323269
0.541649
0.548004
0.414719
0.213596
0.482814
0.533509
0.317688
0.460817
0.553788
0.317003
0.457865
0.533561
0.550708
0.533593
0.324928
0.366326
0.539073
0.532301
0.486822
0.323799
0.312192
0.526328
0.533589
0.53364
0.533608
0.426855
0.534018
0.423147
0.53637
0.323539
0.329052
0.533615
0.545747
0.533653
0.332546
0.533201
0.432919
0.466369
0.304851
0.328082
0.546665
0.557746
0.435073
0.263298
0.533581
0.533674
0.320613
0.476588
0.538063
0.320314
0.354892
0.325162
0.471742
0.325583
0.311888
0.528229
0.363223
0.548838
0.497983
0.32098
0.32789
0.551592
0.316642
0.323428
0.53356
0.330573
0.276483
0.460849
0.514885
0.534018
0.320814
0.256995
0.32079
0.506502
0.333303
0.534588
0.320507
0.532648
0.486972
0.529635
0.491496
0.527342
0.501833
0.532759
0.547036
0.536864
0.322926
0.32178
0.521256
0.533847
0.399622
0.481406
0.436042
0.533821
0.477637
0.287854
0.53622
0.552957
0.527074
0.323478
0.529139
0.302585
0.53392
0.393458
0.540889
0.534273
0.317783
0.537694
0.326886
0.333305
0.508158
0.298575
0.53313
0.533598
0.537972
0.302365
0.534987
0.322465
0.304485
0.317792
0.322974
0.471099
0.322147
0.490932
0.533821
0.266028
0.330025
0.38559
0.455759
0.492468
0.488356
0.305489
0.334352
0.32046
0.323313
0.212848
0.492033
0.497912
0.327905
0.53352
0.537962
0.32526
0.552904
0.531792
0.533839
0.323673
0.53358
0.527745
0.541276
0.538247
0.317895
0.535052
0.542696
0.529661
0.524029
0.533416
0.326467
0.322877
0.533772
0.423616
0.320397
0.534497
0.328751
0.449278
0.486911
0.51448
0.517673
0.30668
0.479938
0.312157
0.323442
0.53657
0.541454
0.544726
0.541267
0.511546
0.304773
0.548097
0.322724
0.398762
0.549746
0.533589
0.538668
0.323509
0.324047
0.548959
0.323723
0.540735
0.508434
0.336951
0.324394
0.53541
0.3199
0.534213
0.540324
0.509012
0.319473
0.317581
0.394913
0.403187
0.482897
0.36974
0.533466
0.48836
0.524403
0.533512
0.53339
0.325428
0.326276
0.542319
0.533415
0.48422
0.363056
0.329548
0.525155
0.321808
0.533295
0.483112
0.2626
0.537341
0.322266
0.506219
0.295336
0.545479
0.316022
0.533037
0.533721
0.278141
0.520061
0.508258
0.26752
0.533541
0.531689
0.434511
0.332881
0.287211
0.364537
0.546105
0.470481
0.319892
0.460388
0.535374
0.533636
0.296386
0.473689
0.519779
0.365293
0.53345
0.533705
0.235659
0.536624
0.53357
0.29332
0.465231
0.303228
0.495502
0.311198
0.333658
0.547755
0.317966
0.324456
0.324163
0.535382
0.512579
0.316946
0.533469
0.284112
0.516295
0.322544
0.515653
0.290136
0.533843
0.534114
0.502284
0.533663
0.435992
0.533747
0.533813
0.294957
0.499462
0.506534
0.377756
0.532872
0.390266
0.316397
0.547829
0.309072
0.447889
0.282016
0.532846
0.322401
0.329765
0.544279
0.533046
0.305397
0.537398
0.537932
0.533546
0.548282
0.533665
0.323398
0.552303
0.325336
0.326058
0.519674
0.539108
0.551603
0.52236
0.314708
0.310428
0.320201
0.516014
0.533783
0.286305
0.523715
0.334692
0.308116
0.305412
0.521003
0.304071
0.549455
0.537181
0.498601
0.530611
0.536243
0.446517
0.496757
0.344391
0.33082
0.305616
0.533658
0.533621
0.332511
0.491555
0.469391
0.498216
0.325232
0.31077
0.49146
0.220551
0.485917
0.462041
0.327252
0.533593
0.518216
0.328764
0.533471
0.322827
0.53721
0.549647
0.527749
0.322792
0.372625
0.53193
0.238781
0.351816
0.530664
0.245563
0.533589
0.536155
0.494965
0.538225
0.260549
0.533644
0.536049
0.532209
0.287731
0.54275
0.323328
0.330912
0.523876
0.532798
0.533622
0.187177
0.534508
0.499185
0.53358
0.335245
0.330149
0.326401
0.540007
0.32066
0.321369
0.306238
0.460315
0.321354
0.243267
0.350716
0.534555
0.327004
0.533623
0.533728
0.533648
0.301497
0.53586
0.511871
0.533523
0.329481
0.522251
0.3209
0.310607
0.534893
0.320338
0.488227
0.534351
0.533632
0.322109
0.260424
0.320384
0.442348
0.533607
0.185256
0.527508
0.53528
0.539178
0.324346
0.323422
0.272502
0.469701
0.328081
0.533585
0.477034
0.533745
0.527197
0.321413
0.488564
0.322803
0.437496
0.50989
0.551562
0.443509
0.373144
0.522007
0.487335
0.54308
0.306994
0.292814
0.316522
0.540419
0.416882
0.533597
0.326168
0.314324
0.541248
0.535626
0.533551
0.3196
0.534259
0.440985
0.443357
0.472594
0.32987
0.323331
0.234439
0.532815
0.533862
0.522823
0.484137
0.271575
0.538734
0.517201
0.533862
0.533524
0.538659
0.552757
0.534096
0.53803
0.544239
0.325606
0.537296
0.542031
0.533275
0.538528
0.532472
0.450199
0.325583
0.333954
0.481922
0.323267
0.263508
0.533552
0.322705
0.501643
0.536016
0.512867
0.527721
0.3274
0.535004
0.314825
0.330699
0.534141
0.533343
0.534255
0.297517
0.545547
0.532649
0.479769
0.532779
0.324918
0.533315
0.549295
0.518499
0.318363
0.542166
0.322714
0.557476
0.301569
0.325665
0.407131
0.354308
0.551883
0.54253
0.533624
0.307502
0.533356
0.318647
0.322664
0.508193
0.388696
0.323998
0.533044
0.321759
0.406541
0.522355
0.496375
0.516993
0.387723
0.470346
0.513568
0.533922
0.448079
0.544719
0.422465
0.552298
0.480789
0.506977
0.333097
0.322359
0.353783
0.541282
0.326891
0.520432
0.537698
0.471367
0.533975
0.405149
0.532383
0.525141
0.324569
0.536794
0.476218
0.382004
0.479106
0.548803
0.504242
0.533615
0.323935
0.323661
0.529549
0.419307
0.424915
0.538579
0.53354
0.533878
0.548156
0.549321
0.485301
0.486162
0.551517
0.321738
0.322509
0.32278
0.297826
0.533641
0.361506
0.420086
0.537067
0.529083
0.326437
0.528557
0.556237
0.296525
0.296019
0.533563
0.53862
0.330908
0.30748
0.313229
0.533542
0.493522
0.321731
0.325509
0.327565
0.331768
0.272568
0.32295
0.553738
0.534278
0.530507
0.309434
0.513782
0.473461
0.481256
0.296698
0.325771
0.506501
0.533619
0.325804
0.533645
0.328768
0.54396
0.326426
0.533054
0.29976
0.516888
0.547397
0.304559
0.444742
0.321723
0.552586
0.330807
0.476548
0.32897
0.397374
0.321683
0.469537
0.31781
0.533651
0.533646
0.479545
0.526456
0.285301
0.515954
0.533493
0.54635
0.471511
0.517054
0.326269
0.305816
0.330469
0.546637
0.229921
0.545242
0.430832
0.53889
0.550663
0.359964
0.540903
0.322893
0.3328
0.321367
0.401051
0.405509
0.532899
0.319923
0.328059
0.53447
0.300692
0.318567
0.431906
0.291492
0.325707
0.334635
0.553287
0.514542
0.480165
0.32788
0.513212
0.532943
0.331756
0.256544
0.523288
0.533185
0.440243
0.409081
0.326854
0.287031
0.312558
0.529531
0.478294
0.410037
0.534759
0.324999
0.446003
0.321916
0.533639
0.545277
0.326973
0.326535
0.483768
0.42642
0.547118
0.544225
0.546468
0.537842
0.549838
0.308324
0.324517
0.313135
0.320256
0.421202
0.533692
0.515934
0.321121
0.301654
0.354425
0.355252
0.533784
0.495469
0.322828
0.243609
0.535993
0.328279
0.512476
0.542722
0.508768
0.533416
0.430789
0.316017
0.303476
0.481566
0.327233
0.328906
0.31628
0.53362
0.53242
0.285866
0.327062
0.533527
0.316736
0.534177
0.546663
0.315839
0.318981
0.327147
0.535681
0.328722
0.533593
0.534778
0.471731
0.30282
0.419973
0.542067
0.525319
0.323472
0.522814
0.483649
0.370299
0.539446
0.556111
0.323194
0.31759
0.510707
0.32119
0.320186
0.519161
0.274514
0.533103
0.532709
0.546014
0.489565
0.545544
0.535877
0.533857
0.320205
0.326216
0.49258
0.531605
0.372412
0.552618
0.257151
0.537827
0.518313
0.447182
0.508774
0.306402
0.361072
0.529269
0.542945
0.478123
0.547668
0.534994
0.533547
0.547402
0.533521
0.520662
0.510304
0.535257
0.533626
0.533853
0.280687
0.501436
0.293822
0.535095
0.537417
0.539887
0.500723
0.537811
0.317836
0.317128
0.242392
0.323273
0.506979
0.314799
0.323621
0.529728
0.324654
0.53749
0.31317
0.519372
0.535434
0.31636
0.302935
0.257764
0.540388
0.325943
0.532282
0.537421
0.319868
0.504256
0.439082
0.272729
0.329396
0.324713
0.538627
0.317778
0.53595
0.402238
0.322196
0.531824
0.533136
0.546431
0.328709
0.450905
0.325432
0.515353
0.533827
0.535778
0.324499
0.530786
0.538697
0.489126
0.320734
0.540275
0.329988
0.323333
0.52935
0.357664
0.549602
0.315674
0.324867
0.352323
0.496112
0.326861
0.231342
0.30059
0.376569
0.53356
0.536919
0.32904
0.468505
0.535074
0.443357
0.32995
0.260695
0.440971
0.329935
0.322462
0.530083
0.323943
0.328746
0.542516
0.554313
0.296272
0.541873
0.309714
0.533555
0.327934
0.509452
0.533778
0.538853
0.533636
0.322702
0.322136
0.321102
0.533893
0.512216
0.468377
0.426552
0.294808
0.240784
0.533419
0.320464
0.533516
0.303752
0.533788
0.524606
0.297201
0.290734
0.325664
0.327255
0.29238
0.482634
0.509097
0.300073
0.536531
0.499802
0.317316
0.321509
0.55426
0.323916
0.535132
0.339352
0.538523
0.513498
0.53578
0.533576
0.323844
0.549358
0.533626
0.555483
0.320315
0.475745
0.473375
0.260913
0.541279
0.499418
0.547975
0.513986
0.549884
0.528146
0.551067
0.533247
0.531897
0.309788
0.545609
0.325937
0.360904
0.530419
0.32302
0.520824
0.475026
0.327547
0.490341
0.318319
0.312148
0.522982
0.467095
0.553884
0.324577
0.513735
0.487095
0.320267
0.306692
0.508769
0.533068
0.299435
0.306975
0.537852
0.55372
0.312655
0.503382
0.548159
0.516778
0.299378
0.330148
0.315448
0.514723
0.313723
0.523417
0.540403
0.533438
0.473577
0.535708
0.324781
0.51906
0.486935
0.547219
0.440979
0.326326
0.320328
0.331356
0.544415
0.538361
0.337246
0.511788
0.25275
0.503738
0.536667
0.328834
0.482692
0.524282
0.488379
0.307867
0.326502
0.291941
0.539993
0.549517
0.48508
0.408643
0.53571
0.32685
0.497458
0.533585
0.530965
0.30768
0.494906
0.327742
0.481045
0.33317
0.530845
0.522983
0.32818
0.539765
0.334808
0.533622
0.500622
0.533571
0.54041
0.325579
0.533451
0.533419
0.533156
0.531601
0.38414
0.533579
0.325778
0.53356
0.329413
0.301236
0.326804
0.291417
0.328651
0.303688
0.550174
0.290679
0.32106
0.515165
0.540145
0.511006
0.322745
0.534849
0.534108
0.533439
0.275041
0.452421
0.535646
0.320084
0.30344
0.321448
0.492758
0.404119
0.314594
0.45837
0.334154
0.533662
0.398648
0.326944
0.375663
0.509907
0.288403
0.533407
0.323725
0.368635
0.297258
0.532096
0.303847
0.510443
0.533575
0.462602
0.328207
0.323287
0.526544
0.552856
0.307381
0.304453
0.533772
0.321425
0.541801
0.310879
0.442533
0.331919
0.535789
0.323914
0.551717
0.300928
0.53647
0.536481
0.543595
0.533662
0.327839
0.326971
0.322266
0.496877
0.529013
0.49483
0.407684
0.32835
0.53975
0.264536
0.510113
0.455653
0.315961
0.326369
0.543815
0.530674
0.327723
0.533664
0.530417
0.54378
0.546024
0.323526
0.4995
0.32713
0.54387
0.315009
0.533608
0.50514
0.5125
0.55218
0.318098
0.557213
0.318555
0.323168
0.534087
0.533668
0.431523
0.530249
0.533628
0.323545
0.543398
0.529191
0.549572
0.305374
0.337911
0.531657
0.317261
0.538166
0.537399
0.523013
0.534531
0.227966
0.353444
0.509735
0.327541
0.518203
0.553364
0.372759
0.520242
0.215727
0.483353
0.543608
0.530394
0.520372
0.324841
0.331028
0.533122
0.521269
0.327319
0.263431
0.32302
0.326874
0.321324
0.333922
0.288555
0.321742
0.532572
0.327823
0.294758
0.536988
0.429961
0.533527
0.31377
0.326341
0.535469
0.369052
0.373907
0.547972
0.2938
0.518391
0.533792
0.481196
0.517454
0.321137
0.537233
0.533873
0.320194
0.322404
0.316501
0.472341
0.480568
0.549743
0.534111
0.531654
0.520366
0.292625
0.538093
0.533874
0.508151
0.325187
0.536176
0.449432
0.287149
0.342566
0.323473
0.322456
0.32403
0.464578
0.523375
0.522292
0.322544
0.308675
0.548084
0.282966
0.53751
0.533411
0.523321
0.530614
0.535426
0.320218
0.324606
0.334597
0.444985
0.319142
0.534488
0.319862
0.534832
0.533561
0.537021
0.298939
0.354359
0.324339
0.536096
0.306563
0.321124
0.533283
0.517206
0.484889
0.53398
0.504316
0.541408
0.322001
0.493233
0.545566
0.421301
0.535063
0.539119
0.542377
0.365328
0.338826
0.550698
0.39559
0.479689
0.324163
0.50282
0.523703
0.317995
0.313173
0.513654
0.402608
0.543468
0.53748
0.318344
0.328219
0.533573
0.299809
0.32487
0.525055
0.509661
0.326268
0.527471
0.533735
0.502303
0.301234
0.465618
0.323111
0.52746
0.545022
0.541293
0.519956
0.533701
0.249991
0.283851
0.529917
0.320556
0.480865
0.323304
0.536344
0.331413
0.50756
0.545191
0.533686
0.323869
0.53358
0.533557
0.321995
0.503391
0.314957
0.554312
0.324309
0.300426
0.315748
0.526855
0.530071
0.256871