# vtk DataFile Version 1.0
unstructured grid
ascii
DATASET UNSTRUCTURED_GRID
points 13672 float
0.0796578 -0.059106 0
0.00128732 0.00159165 0
0.00227961 -0.00102548 0
0.0791586 -0.0598787 0
-0.0546216 0.01 0
0.000495206 0.025 0
0.0800549 -0.035 0
0.135172 -0.08 0
-0.0546216 -0.0451168 0
0.000495206 -0.0301168 0
0.0800549 -0.0901168 0
0.135172 -0.135117 0
-0.0546216 -0.0451168 -0.00551168
0.000495206 -0.0301168 -0.00551168
0.0800549 -0.0901168 -0.00551168
0.135172 -0.135117 -0.00551168
0.135172 -0.08 -0.00551168
0.0800549 -0.035 -0.00551168
0.000495206 0.025 -0.00551168
-0.0546216 0.01 -0.00551168
0.00128732 0.00159165 -0.00551168
0.00227961 -0.00102548 -0.00551168
0.0791586 -0.0598787 -0.00551168
0.0796578 -0.059106 -0.00551168
0.00165953 -0.000990923 0
0.00119576 -0.000874076 0
0.000866021 -0.000641801 0
0.000645147 -0.000349912 0
0.00052235 -1.7281e-05 0
0.00049972 0.000348016 0
0.000601632 0.000737716 0
0.000861774 0.0011403 0
0.00157235 0.00183217 0
0.00188647 0.00206725 0
0.00222612 0.00230203 0
0.00258713 0.00254351 0
0.00296826 0.00279524 0
0.00337118 0.00305664 0
0.00379785 0.00332658 0
0.00425045 0.00360349 0
0.00473139 0.00388521 0
0.0052432 0.00416895 0
0.0057881 0.00445204 0
0.00636753 0.00473281 0
0.00698281 0.00500961 0
0.00763526 0.00528058 0
0.00832616 0.00554366 0
0.00905691 0.00579603 0
0.00982918 0.00603333 0
0.0106445 0.00625033 0
0.0115038 0.00644128 0
0.0124073 0.00660297 0
0.0133543 0.00673414 0
0.0143444 0.00683382 0
0.0153769 0.00690031 0
0.0164512 0.00693173 0
0.0175666 0.00692547 0
0.0187219 0.00687822 0
0.0199156 0.00678477 0
0.0211454 0.00663864 0
0.0224084 0.00643275 0
0.0237018 0.00616676 0
0.0250249 0.00584739 0
0.026375 0.00547298 0
0.0277479 0.00503752 0
0.0291386 0.00453545 0
0.0305433 0.0039653 0
0.0319572 0.0033256 0
0.0333681 0.00260019 0
0.034775 0.00179799 0
0.0361793 0.000930615 0
0.0375798 3.12222e-06 0
0.0389689 -0.000988429 0
0.0403357 -0.00205109 0
0.041675 -0.00318283 0
0.0429849 -0.00437751 0
0.0442643 -0.00562904 0
0.0455126 -0.00693089 0
0.0467314 -0.00827518 0
0.0479204 -0.00965638 0
0.0490661 -0.0110799 0
0.0501515 -0.0125519 0
0.0511696 -0.0140695 0
0.0521492 -0.0156071 0
0.0531202 -0.0171411 0
0.0540851 -0.0186663 0
0.0550431 -0.0201798 0
0.0559923 -0.0216793 0
0.0569311 -0.0231626 0
0.0578582 -0.0246273 0
0.0587723 -0.0260715 0
0.0596721 -0.027493 0
0.0605563 -0.02889 0
0.0614241 -0.0302609 0
0.0622742 -0.0316042 0
0.063106 -0.0329183 0
0.0639186 -0.034202 0
0.0647113 -0.0354543 0
0.0654835 -0.0366743 0
0.0662345 -0.0378613 0
0.0669642 -0.0390145 0
0.0676726 -0.0401333 0
0.0683597 -0.0412172 0
0.0690246 -0.0422665 0
0.0696662 -0.0432819 0
0.0702841 -0.0442636 0
0.0708793 -0.0452111 0
0.0714538 -0.0461237 0
0.072009 -0.047001 0
0.0725452 -0.0478434 0
0.0730611 -0.0486524 0
0.073556 -0.0494294 0
0.0740291 -0.0501756 0
0.0744812 -0.0508916 0
0.0749138 -0.0515773 0
0.0753285 -0.0522331 0
0.0757266 -0.0528592 0
0.076109 -0.0534564 0
0.0764753 -0.0540264 0
0.0768243 -0.054571 0
0.0771553 -0.0550919 0
0.0774679 -0.0555901 0
0.0777617 -0.0560669 0
0.0780369 -0.056523 0
0.0782958 -0.0569578 0
0.0785421 -0.0573703 0
0.0787786 -0.0577603 0
0.0790073 -0.0581279 0
0.0792295 -0.058474 0
0.0794462 -0.0587995 0
0.0798803 -0.0594162 0
0.0800272 -0.0596588 0
0.0800357 -0.0598891 0
0.0799275 -0.0600784 0
0.0797205 -0.0601773 0
0.0794593 -0.0601051 0
0.0789155 -0.0596491 0
0.0786707 -0.0593963 0
0.0784111 -0.0591319 0
0.0781372 -0.0588542 0
0.0778566 -0.0585548 0
0.0775715 -0.0582308 0
0.0772803 -0.0578828 0
0.0769832 -0.0575099 0
0.0766822 -0.0571097 0
0.0763801 -0.0566796 0
0.0760759 -0.0562196 0
0.0757623 -0.0557337 0
0.0754359 -0.0552232 0
0.0750951 -0.0546879 0
0.0747379 -0.054128 0
0.0743626 -0.0535435 0
0.0739688 -0.0529338 0
0.0735559 -0.0522981 0
0.0731238 -0.0516357 0
0.0726718 -0.050946 0
0.0721991 -0.0502288 0
0.0717046 -0.049484 0
0.0711872 -0.0487117 0
0.0706461 -0.047912 0
0.0700804 -0.0470849 0
0.0694892 -0.0462308 0
0.0688718 -0.0453499 0
0.0682271 -0.0444431 0
0.0675544 -0.043511 0
0.0668527 -0.0425546 0
0.0661215 -0.0415748 0
0.06536 -0.040573 0
0.0645676 -0.0395504 0
0.0637439 -0.0385087 0
0.0628887 -0.0374493 0
0.062002 -0.0363741 0
0.0610838 -0.0352847 0
0.0601345 -0.0341831 0
0.0591547 -0.033071 0
0.0581456 -0.0319502 0
0.0571083 -0.0308224 0
0.0560444 -0.0296893 0
0.0549562 -0.028552 0
0.053845 -0.0274126 0
0.0527113 -0.0262746 0
0.051554 -0.0251427 0
0.0503724 -0.0240222 0
0.0491675 -0.0229164 0
0.047941 -0.0218282 0
0.0466955 -0.0207597 0
0.0454337 -0.0197126 0
0.0441592 -0.0186878 0
0.0428751 -0.0176863 0
0.0415841 -0.0167097 0
0.0402878 -0.0157609 0
0.0389879 -0.0148428 0
0.0376864 -0.0139575 0
0.0363853 -0.013107 0
0.0350871 -0.0122931 0
0.0337942 -0.0115164 0
0.0325095 -0.0107772 0
0.0312357 -0.0100756 0
0.0299758 -0.00941024 0
0.0287337 -0.00877784 0
0.0275126 -0.00817571 0
0.0263139 -0.00760375 0
0.0251376 -0.00706528 0
0.0239829 -0.0065649 0
0.0228537 -0.00609619 0
0.0217522 -0.00565563 0
0.0206795 -0.00524226 0
0.0196364 -0.00485507 0
0.0186233 -0.00449318 0
0.0176408 -0.00415577 0
0.016689 -0.00384204 0
0.0157682 -0.00355115 0
0.0148783 -0.00328218 0
0.0140192 -0.00303468 0
0.0131906 -0.00280795 0
0.0123925 -0.00260016 0
0.0116246 -0.00241012 0
0.0108864 -0.00223769 0
0.0101774 -0.00208212 0
0.00949701 -0.00194206 0
0.00884483 -0.0018163 0
0.0082202 -0.0017039 0
0.00762247 -0.00160391 0
0.00705097 -0.00151528 0
0.006505 -0.00143697 0
0.0059838 -0.00136806 0
0.00548662 -0.00130772 0
0.00501265 -0.00125519 0
0.00456114 -0.00120954 0
0.00413136 -0.00116914 0
0.00372257 -0.00113251 0
0.00333398 -0.00109853 0
0.00296466 -0.00106798 0
0.00261363 -0.0010431 0
-0.052721 -0.0445996 0
-0.0508204 -0.0440823 0
-0.0489199 -0.0435651 0
-0.0470193 -0.0430478 0
-0.0451187 -0.0425306 0
-0.0432181 -0.0420134 0
-0.0413175 -0.0414961 0
-0.039417 -0.0409789 0
-0.0375164 -0.0404616 0
-0.0356158 -0.0399444 0
-0.0337152 -0.0394271 0
-0.0318146 -0.0389099 0
-0.0299141 -0.0383927 0
-0.0280135 -0.0378754 0
-0.0261129 -0.0373582 0
-0.0242123 -0.0368409 0
-0.0223117 -0.0363237 0
-0.0204112 -0.0358065 0
-0.0185106 -0.0352892 0
-0.01661 -0.034772 0
-0.0147094 -0.0342547 0
-0.0128088 -0.0337375 0
-0.0109083 -0.0332202 0
-0.00900769 -0.032703 0
-0.00710711 -0.0321858 0
-0.00520653 -0.0316685 0
-0.00330595 -0.0311513 0
-0.00140537 -0.030634 0
0.00190689 -0.0299614 0
0.00332271 -0.0298498 0
0.00474133 -0.0297825 0
0.00616136 -0.0297597 0
0.0075814 -0.0297814 0
0.00900007 -0.0298477 0
0.010416 -0.0299583 0
0.0118278 -0.0301127 0
0.0132342 -0.0303103 0
0.0146339 -0.0305504 0
0.0160259 -0.0308322 0
0.0174091 -0.0311546 0
0.0187824 -0.0315166 0
0.020145 -0.031917 0
0.0214961 -0.0323546 0
0.0228351 -0.032828 0
0.0241613 -0.0333361 0
0.0254744 -0.0338774 0
0.0267738 -0.0344507 0
0.0280592 -0.0350545 0
0.0293306 -0.0356877 0
0.0305875 -0.0363488 0
0.0318301 -0.0370367 0
0.0330581 -0.0377501 0
0.0342717 -0.0384879 0
0.0354708 -0.0392489 0
0.0366556 -0.0400321 0
0.0378262 -0.0408363 0
0.0389828 -0.0416607 0
0.0401254 -0.0425042 0
0.0412543 -0.0433659 0
0.0423698 -0.0442451 0
0.043472 -0.0451408 0
0.0445612 -0.0460523 0
0.0456375 -0.0469789 0
0.0467013 -0.0479199 0
0.0477529 -0.0488746 0
0.0487923 -0.0498424 0
0.04982 -0.0508227 0
0.0508362 -0.051815 0
0.051841 -0.0528187 0
0.0528348 -0.0538333 0
0.0538178 -0.0548584 0
0.0547903 -0.0558935 0
0.0557524 -0.0569382 0
0.0567045 -0.0579922 0
0.0576467 -0.0590549 0
0.0585792 -0.0601261 0
0.0595024 -0.0612055 0
0.0604163 -0.0622926 0
0.0613212 -0.0633873 0
0.0622174 -0.0644891 0
0.0631049 -0.0655979 0
0.0639841 -0.0667134 0
0.064855 -0.0678353 0
0.0657179 -0.0689633 0
0.0665729 -0.0700974 0
0.0674202 -0.0712372 0
0.06826 -0.0723826 0
0.0690925 -0.0735333 0
0.0699178 -0.0746892 0
0.070736 -0.0758501 0
0.0715473 -0.0770159 0
0.0723518 -0.0781863 0
0.0731498 -0.0793612 0
0.0739412 -0.0805405 0
0.0747264 -0.081724 0
0.0755053 -0.0829116 0
0.0762781 -0.0841033 0
0.0770449 -0.0852987 0
0.0778059 -0.0864979 0
0.0785611 -0.0877007 0
0.0793108 -0.088907 0
0.0814681 -0.0912706 0
0.0828814 -0.0924245 0
0.0842946 -0.0935783 0
0.0857079 -0.0947322 0
0.0871211 -0.095886 0
0.0885344 -0.0970399 0
0.0899476 -0.0981937 0
0.0913609 -0.0993476 0
0.0927741 -0.100501 0
0.0941874 -0.101655 0
0.0956006 -0.102809 0
0.0970139 -0.103963 0
0.0984272 -0.105117 0
0.0998404 -0.106271 0
0.101254 -0.107424 0
0.102667 -0.108578 0
0.10408 -0.109732 0
0.105493 -0.110886 0
0.106907 -0.11204 0
0.10832 -0.113194 0
0.109733 -0.114348 0
0.111146 -0.115501 0
0.11256 -0.116655 0
0.113973 -0.117809 0
0.115386 -0.118963 0
0.116799 -0.120117 0
0.118213 -0.121271 0
0.119626 -0.122424 0
0.121039 -0.123578 0
0.122452 -0.124732 0
0.123866 -0.125886 0
0.125279 -0.12704 0
0.126692 -0.128194 0
0.128105 -0.129348 0
0.129519 -0.130501 0
0.130932 -0.131655 0
0.132345 -0.132809 0
0.133758 -0.133963 0
0.135172 -0.133216 0
0.135172 -0.131316 0
0.135172 -0.129415 0
0.135172 -0.127514 0
0.135172 -0.125614 0
0.135172 -0.123713 0
0.135172 -0.121813 0
0.135172 -0.119912 0
0.135172 -0.118012 0
0.135172 -0.116111 0
0.135172 -0.11421 0
0.135172 -0.11231 0
0.135172 -0.110409 0
0.135172 -0.108509 0
0.135172 -0.106608 0
0.135172 -0.104708 0
0.135172 -0.102807 0
0.135172 -0.100906 0
0.135172 -0.0990058 0
0.135172 -0.0971052 0
0.135172 -0.0952046 0
0.135172 -0.0933041 0
0.135172 -0.0914035 0
0.135172 -0.0895029 0
0.135172 -0.0876023 0
0.135172 -0.0857017 0
0.135172 -0.0838012 0
0.135172 -0.0819006 0
0.133758 -0.0788462 0
0.132345 -0.0776923 0
0.130932 -0.0765385 0
0.129519 -0.0753846 0
0.128105 -0.0742308 0
0.126692 -0.0730769 0
0.125279 -0.0719231 0
0.123866 -0.0707692 0
0.122452 -0.0696154 0
0.121039 -0.0684615 0
0.119626 -0.0673077 0
0.118213 -0.0661538 0
0.116799 -0.065 0
0.115386 -0.0638462 0
0.113973 -0.0626923 0
0.11256 -0.0615385 0
0.111146 -0.0603846 0
0.109733 -0.0592308 0
0.10832 -0.0580769 0
0.106907 -0.0569231 0
0.105493 -0.0557692 0
0.10408 -0.0546154 0
0.102667 -0.0534615 0
0.101254 -0.0523077 0
0.0998404 -0.0511538 0
0.0984272 -0.05 0
0.0970139 -0.0488462 0
0.0956006 -0.0476923 0
[...]
CELL_DATA 13116
SCALARS rho float
LOOKUP_TABLE default
0.423326
0.511723
0.28859
0.551838
0.542848
0.532601
0.322389
0.546772
0.406382
0.546397
0.323076
0.292364
0.543096
0.323568
0.319281
0.532623
0.398325
0.538829
0.529646
0.320988
0.427295
0.320421
0.326108
0.540395
0.470005
0.49502
0.546423
0.319334
0.468791
0.498964
0.532919
0.333015
0.428412
0.345408
0.322845
0.425439
0.513994
0.524486
0.532785
0.531948
0.531274
0.549309
0.327391
0.289555
0.528413
0.529452
0.49419
0.531911
0.322536
0.4034
0.542562
0.340764
0.314519
0.392626
0.427339
0.451414
0.293892
0.537721
0.413748
0.315415
0.324779
0.547707
0.504299
0.532806
0.532926
0.328194
0.533599
0.519234
0.534145
0.53289
0.3204
0.452611
0.316142
0.323034
0.533055
0.302327
0.497469
0.53926
0.318067
0.536337
0.524572
0.498654
0.540516
0.531315
0.520888
0.347402
0.32026
0.516888
0.517254
0.328383
0.316818
0.513153
0.542565
0.521927
0.501475
0.461745
0.472012
0.533105
0.532982
0.46174
0.524498
0.455008
0.530757
0.309816
0.480731
0.326324
0.277906
0.364382
0.322668
0.476809
0.38693
0.492889
0.460272
0.527299
0.536843
0.533712
0.322471
0.299398
0.536795
0.534584
0.519521
0.314553
0.534403
0.350446
0.517396
0.338599
0.320662
0.393365
0.319562
0.404678
0.537029
0.530262
0.388349
0.324981
0.372895
0.451036
0.533486
0.536173
0.523778
0.53438
0.484345
0.496921
0.392129
0.485086
0.499787
0.322823
0.323212
0.492083
0.540863
0.539785
0.420039
0.530911
0.53192
0.306698
0.543661
0.522097
0.325533
0.528994
0.53309
0.517099
0.539679
0.322026
0.539279
0.324512
0.310441
0.546359
0.514964
0.538441
0.322784
0.359241
0.326257
0.533428
0.320523
0.380193
0.533093
0.327771
0.318381
0.317515
0.489562
0.532346
0.299766
0.3337
0.403024
0.514308
0.532335
0.411914
0.292778
0.531137
0.471173
0.356219
0.491958
0.490275
0.532804
0.329512
0.48558
0.532631
0.543799
0.530712
0.516135
0.315087
0.309441
0.480894
0.389233
0.325936
0.536909
0.527455
0.347624
0.469839
0.321421
0.3193
0.299546
0.532953
0.32414
0.318297
0.322473
0.306105
0.282896
0.532358
0.514829
0.337152
0.293281
0.533481
0.382038
0.300629
0.429492
0.546907
0.497831
0.322203
0.533232
0.303027
0.5536
0.325202
0.532796
0.444699
0.533148
0.526462
0.532777
0.30998
0.332774
0.517028
0.53317
0.532576
0.533423
0.532567
0.541772
0.319778
0.538929
0.544351
0.532952
0.322217
0.323988
0.528864
0.536406
0.532835
0.533399
0.412242
0.529488
0.322635
0.323393
0.307767
0.321875
0.466718
0.543613
0.496463
0.317011
0.527252
0.318743
0.335207
0.482465
0.31379
0.495652
0.545399
0.533209
0.537468
0.310803
0.533219
0.528709
0.532947
0.536042
0.313955
0.321772
0.328227
0.447172
0.313935
0.325896
0.257442
0.245064
0.519403
0.315189
0.521447
0.543764
0.301873
0.315998
0.319261
0.350255
0.284699
0.515804
0.453127
0.487377
0.313805
0.532649
0.454626
0.324737
0.317626
0.532595
0.53641
0.530875
0.291633
0.532642
0.319086
0.529745
0.548985
0.538469
0.548128
0.330343
0.533256
0.321412
0.531987
0.547137
0.517551
0.315483
0.257201
0.544839
0.32591
0.506205
0.547656
0.282818
0.531572
0.54026
0.321859
0.52704
0.542473
0.313024
0.538251
0.348718
0.445121
0.532345
0.353918
0.529263
0.317843
0.538611
0.266558
0.532492
0.449291
0.544759
0.322491
0.276705
0.521994
0.310298
0.536386
0.476458
0.325783
0.533476
0.300378
0.31206
0.534783
0.429715
0.51807
0.321907
0.324328
0.538829
0.543557
0.323412
0.542962
0.325419
0.325614
0.533317
0.53536
0.353374
0.315534
0.536032
0.532947
0.532683
0.525996
0.537409
0.420179
0.255761
0.320531
0.296903
0.532707
0.297546
0.401392
0.287063
0.317528
0.272065
0.361338
0.109074
0.310439
0.522634
0.257573
0.539912
0.46851
0.530895
0.510446
0.539352
0.312096
0.320905
0.320385
0.263311
0.534373
0.456984
0.530972
0.468978
0.501088
0.478688
0.497025
0.480792
0.496729
0.5364
0.535894
0.532615
0.312373
0.353879
0.420128
0.318272
0.450118
0.450104
0.316736
0.533534
0.533218
0.330527
0.318248
0.32185
0.295039
0.488495
0.321913
0.329561
0.533112
0.323472
0.444418
0.32898
0.532163
0.524546
0.285261
0.324629
0.534341
0.351465
0.326476
0.293369
0.313626
0.322463
0.322619
0.318551
0.322045
0.335019
0.322805
0.452255
0.302299
0.520428
0.294144
0.352977
0.390586
0.328424
0.327867
0.32858
0.529705
0.339465
0.496152
0.366338
0.326306
0.471844
0.519058
0.346774
0.531206
0.479699
0.478587
0.322536
0.533132
0.301067
0.538118
0.532942
0.322335
0.321378
0.469792
0.264962
0.355086
0.45178
0.277116
0.52823
0.502204
0.30145
0.315958
0.321029
0.376731
0.316402
0.314029
0.321134
0.321705
0.548958
0.549294
0.355328
0.464213
0.372266
0.485133
0.272429
0.318738
0.40993
0.32219
0.530349
0.228442
0.287893
0.3851
0.527828
0.511211
0.434634
0.281156
0.321279
0.441797
0.546798
0.532912
0.43889
0.483985
0.465597
0.323151
0.523736
0.441191
0.516092
0.240739
0.286852
0.526518
0.54402
0.509573
0.547145
0.511816
0.495418
0.53874
0.516381
0.530903
0.306862
0.527608
0.263477
0.320849
0.317823
0.5506
0.527953
0.239763
0.520204
0.481879
0.315607
0.532611
0.535942
0.533543
0.319199
0.318978
0.537849
0.319625
0.298899
0.303606
0.32397
0.528395
0.314646
0.550535
0.302673
0.512173
0.541608
0.533574
0.543613
0.325446
0.301425
0.529116
0.554443
0.50644
0.548674
0.544129
0.386656
0.321487
0.322964
0.532519
0.408055
0.318061
0.351254
0.313673
0.530621
0.531459
0.240629
0.320493
0.518689
0.361614
0.523218
0.51137
0.318825
0.303725
0.503161
0.533225
0.324461
0.510181
0.51472
0.528628
0.309766
0.533373
0.304583
0.533163
0.5151
0.313988
0.282363
0.324962
0.533078
0.319034
0.314976
0.299811
0.532552
0.532099
0.316874
0.319382
0.326372
0.532705
0.316036
0.532541
0.322945
0.455636
0.546936
0.296749
0.324604
0.325528
0.387011
0.324172
0.503067
0.29153
0.319366
0.532253
0.320692
0.532878
0.503038
0.533128
0.296187
0.530929
0.541598
0.543516
0.532544
0.519338
0.533192
0.325859
0.532934
0.338968
0.525994
0.313243
0.542389
0.390419
0.322393
0.53285
0.539265
0.317055
0.48314
0.313211
0.319693
0.533079
0.529413
0.303027
0.322993
0.318554
0.331569
0.528341
0.540547
0.310933
0.296072
0.53632
0.536082
0.457088
0.541159
0.531614
0.322468
0.544864
0.331
0.542421
0.300288
0.460058
0.374616
0.533145
0.519057
0.447867
0.265394
0.321907
0.530406
0.469212
0.397334
0.540746
0.321909
0.527381
0.543312
0.283762
0.351916
0.542016
0.2813
0.532795
0.517802
0.25373
0.535265
0.500057
0.300572
0.530997
0.327868
0.514625
0.295823
0.532897
0.502854
0.324894
0.532794
0.53969
0.538344
0.482849
0.525203
0.453031
0.320787
0.321177
0.293409
0.325127
0.533522
0.431863
0.534969
0.540364
0.300876
0.318481
0.52844
0.547612
0.534664
0.545505
0.315302
0.536038
0.544271
0.319952
0.3055
0.536894
0.528876
0.517798
0.318418
0.459233
0.302982
0.530226
0.501488
0.532886
0.518106
0.321548
0.525276
0.521307
0.541722
0.528466
0.53176
0.335577
0.537136
0.31888
0.482494
0.545355
0.358904
0.503377
0.53287
0.541236
0.309406
0.311087
0.453944
0.504271
0.317302
0.318232
0.309998
0.322653
0.51355
0.527017
0.53258
0.244579
0.322666
0.53401
0.527944
0.314647
0.320726
0.360274
0.513247
0.530782
0.525453
0.534155
0.319686
0.317269
0.533335
0.347178
0.31286
0.294483
0.531411
0.309993
0.333704
0.445412
0.527628
0.48951
0.532744
0.531291
0.324072
0.321094
0.310097
0.365784
0.339072
0.321015
0.518105
0.533701
0.51416
0.532124
0.328554
0.294219
0.546902
0.316498
0.53177
0.502474
0.53304
0.303025
0.311571
0.510065
0.532818
0.432595
0.312819
0.522598
0.532729
0.441985
0.539911
0.545077
0.533282
0.484118
0.315788
0.531408
0.532758
0.47538
0.530469
0.53356
0.494101
0.533357
0.535499
0.319968
0.313399
0.296147
0.532994
0.38929
0.316715
0.528339
0.536693
0.2872
0.489169
0.283825
0.49332
0.36025
0.314217
0.547873
0.540041
0.318309
0.428527
0.53296
0.323137
0.522135
0.327796
0.326136
0.475417
0.470174
0.390501
0.530588
0.309656
0.539177
0.317246
0.312655
0.532858
0.317975
0.46543
0.316447
0.488498
0.461249
0.53337
0.513107
0.319822
0.318717
0.470796
0.329088
0.53436
0.353203
0.45598
0.532411
0.541519
0.34031
0.474665
0.488361
0.544077
0.534021
0.269275
0.306116
0.420537
0.48689
0.544509
0.292758
0.530691
0.434078
0.32006
0.307209
0.518812
0.513908
0.533406
0.533081
0.455835
0.527993
0.53263
0.519888
0.31584
0.509736
0.358245
0.535928
0.528415
0.238247
0.501625
0.541858
0.313708
0.313407
0.324098
0.533555
0.322038
0.475266
0.534528
0.510914
0.299119
0.522056
0.326688
0.458805
0.53283
0.532628
0.516742
0.532688
0.478449
0.523566
0.40432
0.525591
0.294215
0.531681
0.533492
0.313446
0.53329
0.528195
0.326177
0.319973
0.321044
0.538827
0.327748
0.533206
0.306785
0.546144
0.321493
0.375073
0.319413
0.537642
0.544798
0.410652
0.211048
0.478376
0.532341
0.31187
0.456299
0.549596
0.326369
0.453494
0.532883
0.546631
0.531847
0.321021
0.362259
0.535652
0.530121
0.483693
0.324848
0.308521
0.524175
0.533424
0.533229
0.533481
0.422665
0.53061
0.41894
0.534167
0.32632
0.326004
0.533466
0.54196
0.53255
0.327018
0.531552
0.428771
0.462237
0.30137
0.324435
0.543233
0.554367
0.430669
0.260263
0.531541
0.533253
0.322778
0.472096
0.533968
0.322687
0.350147
0.320511
0.471003
0.319809
0.30521
0.52618
0.359265
0.544761
0.493952
0.322312
0.322169
0.547836
0.312314
0.32177
0.532817
0.324781
0.273361
0.456482
0.515931
0.530891
0.32226
0.25979
0.322835
0.504183
0.325789
0.531471
0.321314
0.52911
0.489907
0.527481
0.489472
0.524057
0.499751
0.53094
0.543289
0.533739
0.313964
0.314818
0.517993
0.532687
0.395344
0.480274
0.431688
0.532714
0.474037
0.284751
0.534021
0.548792
0.524367
0.321595
0.525905
0.296295
0.531206
0.389224
0.536681
0.532473
0.314377
0.534215
0.325658
0.329579
0.505247
0.293984
0.528723
0.533587
0.536408
0.295812
0.533069
0.32272
0.303391
0.316603
0.320404
0.467639
0.321217
0.487206
0.53281
0.263067
0.329605
0.381432
0.451157
0.488179
0.485452
0.298382
0.327717
0.323408
0.319454
0.210265
0.487804
0.497135
0.318647
0.532491
0.534125
0.320626
0.548678
0.527367
0.532801
0.318665
0.533072
0.524117
0.537413
0.535982
0.317032
0.531828
0.53886
0.526416
0.519453
0.532104
0.326594
0.322088
0.531216
0.419171
0.312741
0.532805
0.328153
0.444658
0.482808
0.512873
0.515995
0.305572
0.478745
0.31031
0.320961
0.532278
0.537914
0.540793
0.538422
0.507553
0.303752
0.544224
0.319294
0.394501
0.545943
0.533007
0.535275
0.321547
0.319516
0.54495
0.31819
0.53738
0.503825
0.333237
0.324296
0.533265
0.318416
0.532427
0.536955
0.505175
0.317973
0.313205
0.390737
0.398992
0.478657
0.365749
0.532072
0.485548
0.522607
0.533548
0.529792
0.318891
0.325433
0.538941
0.532105
0.480988
0.359111
0.325887
0.521384
0.320222
0.531477
0.47843
0.262595
0.533933
0.320361
0.507345
0.290452
0.541593
0.310477
0.530209
0.532402
0.273536
0.519403
0.503833
0.263428
0.532581
0.52962
0.430171
0.328659
0.285243
0.360601
0.542033
0.467696
0.315974
0.455689
0.531731
0.53231
0.291426
0.469608
0.517168
0.361307
0.532052
0.532071
0.232608
0.533675
0.532921
0.289153
0.460975
0.296647
0.491634
0.30423
0.325999
0.543668
0.311589
0.327554
0.319953
0.533359
0.509976
0.314067
0.531394
0.281944
0.512666
0.322798
0.512943
0.287899
0.532396
0.531556
0.498482
0.532714
0.431433
0.532432
0.532769
0.294087
0.494881
0.502652
0.37354
0.529296
0.386072
0.312482
0.543969
0.303466
0.443419
0.281829
0.530919
0.314489
0.329524
0.540117
0.531286
0.302498
0.535102
0.533772
0.533542
0.545206
0.533131
0.315652
0.548067
0.318099
0.324246
0.518614
0.53503
0.548709
0.520561
0.313475
0.30399
0.323166
0.513027
0.53278
0.284388
0.524122
0.328461
0.301447
0.302188
0.519515
0.300547
0.545517
0.533998
0.494001
0.528671
0.533156
0.442265
0.493114
0.340634
0.326198
0.302457
0.533126
0.533132
0.32707
0.487341
0.468602
0.494492
0.321577
0.306935
0.488631
0.218127
0.482999
0.458412
0.318935
0.532384
0.514991
0.316362
0.530381
0.322001
0.534825
0.545563
0.524493
0.320489
0.368576
0.527539
0.235963
0.347974
0.52869
0.242632
0.532333
0.533966
0.495135
0.534043
0.257081
0.532921
0.531762
0.530057
0.28447
0.539721
0.318076
0.324906
0.521665
0.530942
0.532602
0.185105
0.532675
0.494559
0.533068
0.328513
0.323782
0.325999
0.537382
0.322919
0.321089
0.300684
0.456706
0.321889
0.239149
0.34687
0.53149
0.317475
0.532669
0.532619
0.531621
0.294991
0.533136
0.507509
0.532507
0.32582
0.517692
0.323121
0.304973
0.533024
0.31595
0.484112
0.530641
0.533389
0.313813
0.257417
0.317114
0.437755
0.533456
0.183193
0.525102
0.533285
0.535019
0.322786
0.319897
0.2694
0.467231
0.32378
0.533616
0.472359
0.532582
0.525018
0.316616
0.48454
0.324433
0.434039
0.505277
0.547448
0.439782
0.368828
0.517515
0.484132
0.539674
0.300411
0.289453
0.315298
0.536203
0.412621
0.53301
0.31746
0.31076
0.537286
0.53287
0.532681
0.314997
0.532211
0.436414
0.438784
0.469844
0.323905
0.317344
0.231463
0.530963
0.532868
0.518247
0.48332
0.268434
0.537275
0.512661
0.532863
0.53254
0.536954
0.548598
0.532737
0.53402
0.540287
0.320969
0.534618
0.539138
0.531812
0.535619
0.530612
0.446223
0.316867
0.327416
0.478387
0.317247
0.260438
0.531558
0.320938
0.496984
0.533739
0.509929
0.525015
0.32479
0.532952
0.313965
0.326825
0.53274
0.530011
0.532235
0.291838
0.542285
0.530679
0.476467
0.531018
0.31908
0.531904
0.545267
0.515158
0.316117
0.538029
0.322254
0.553568
0.29766
0.316879
0.403042
0.350421
0.547749
0.538464
0.531909
0.302033
0.531985
0.315734
0.321649
0.507178
0.384501
0.327282
0.531208
0.316368
0.4022
0.518081
0.493653
0.515116
0.383545
0.46563
0.509269
0.532303
0.444109
0.5408
0.418028
0.551816
0.480074
0.502659
0.32674
0.320257
0.349911
0.538412
0.325496
0.516034
0.535397
0.467047
0.532323
0.400972
0.528036
0.521121
0.320634
0.534556
0.474931
0.377818
0.477715
0.544839
0.50425
0.532393
0.320858
0.319984
0.526556
0.415036
0.420733
0.536061
0.530809
0.531752
0.544072
0.545247
0.481002
0.483406
0.547381
0.320477
0.318288
0.314772
0.292961
0.533261
0.357589
0.415887
0.53369
0.525046
0.323555
0.525803
0.551879
0.291135
0.292618
0.533159
0.535911
0.324022
0.301559
0.305976
0.533577
0.494299
0.319607
0.320507
0.319356
0.324922
0.270018
0.315672
0.55192
0.531755
0.526852
0.302481
0.51086
0.469292
0.476545
0.296267
0.318232
0.5056
0.533496
0.332139
0.532224
0.316733
0.539802
0.321885
0.531066
0.294997
0.514816
0.543927
0.297825
0.440151
0.320716
0.548349
0.325624
0.472396
0.327826
0.393212
0.323025
0.465414
0.312141
0.532741
0.532739
0.474863
0.523181
0.284777
0.513296
0.532322
0.542996
0.467326
0.513405
0.318681
0.301715
0.325387
0.542533
0.227327
0.54157
0.426379
0.534806
0.546598
0.355872
0.537027
0.321264
0.327647
0.321242
0.39685
0.401434
0.530147
0.312695
0.326021
0.532798
0.297355
0.316684
0.42796
0.288097
0.332214
0.32806
0.550295
0.509932
0.476022
0.325419
0.510547
0.531052
0.32623
0.253651
0.521546
0.531537
0.4368
0.40473
0.323255
0.28377
0.306551
0.528609
0.474879
0.405811
0.530475
0.319483
0.441708
0.320416
0.532868
0.541691
0.319063
0.32061
0.480377
0.422389
0.543429
0.54029
0.54242
0.535569
0.545963
0.303386
0.318357
0.312719
0.313904
0.417123
0.532993
0.511325
0.314061
0.295674
0.350577
0.350358
0.531636
0.492678
0.325648
0.241034
0.533746
0.324911
0.508199
0.538737
0.50645
0.532076
0.426669
0.305554
0.300945
0.478864
0.31928
0.325077
0.314076
0.532449
0.530442
0.280989
0.318402
0.533413
0.310806
0.532272
0.542564
0.307319
0.314186
0.320065
0.533368
0.322525
0.533589
0.530912
0.467446
0.297688
0.415552
0.538647
0.522991
0.321699
0.520339
0.480077
0.371399
0.536288
0.554555
0.322369
0.31029
0.509198
0.314766
0.31311
0.516508
0.271421
0.530612
0.528332
0.541897
0.485859
0.541755
0.533721
0.532591
0.323328
0.322581
0.489255
0.52849
0.368369
0.548412
0.254777
0.535288
0.516443
0.4428
0.504452
0.302317
0.357141
0.526517
0.539284
0.477346
0.54423
0.532937
0.533257
0.544525
0.533471
0.520915
0.50927
0.533723
0.533469
0.532552
0.276579
0.501131
0.293013
0.532979
0.534768
0.535876
0.498571
0.533598
0.313388
0.312228
0.239525
0.321293
0.504575
0.312481
0.318595
0.525753
0.318176
0.533479
0.307081
0.516806
0.532223
0.309849
0.299592
0.256108
0.537657
0.322633
0.529553
0.533921
0.316759
0.503388
0.43458
0.26917
0.320149
0.319318
0.534312
0.310254
0.533773
0.398098
0.320853
0.529877
0.531252
0.542375
0.316443
0.446589
0.323086
0.512411
0.532601
0.533641
0.333412
0.52766
0.536127
0.487927
0.317077
0.537528
0.316516
0.323583
0.527535
0.35377
0.545534
0.311347
0.333673
0.348472
0.494573
0.319632
0.227862
0.297133
0.37255
0.532993
0.533581
0.322184
0.464326
0.532903
0.438754
0.326119
0.260936
0.436453
0.316893
0.318533
0.527704
0.324038
0.317634
0.539849
0.550279
0.291297
0.537667
0.305431
0.533187
0.318629
0.508595
0.532921
0.534646
0.532472
0.317502
0.321343
0.319627
0.532571
0.510832
0.463678
0.422193
0.291534
0.238032
0.531868
0.323566
0.531009
0.300344
0.532878
0.520409
0.291912
0.289701
0.323061
0.318745
0.29168
0.479302
0.506531
0.295211
0.53377
0.495525
0.315897
0.320965
0.550008
0.32555
0.53208
0.335621
0.534347
0.509166
0.53309
0.532967
0.32095
0.545279
0.531591
0.552287
0.314485
0.472843
0.468707
0.258577
0.538468
0.495684
0.547836
0.51141
0.545975
0.526437
0.547861
0.531737
0.529816
0.30291
0.541533
0.32288
0.356955
0.528436
0.321515
0.518644
0.47284
0.326232
0.488954
0.311729
0.318415
0.521667
0.464532
0.5499
0.321929
0.511219
0.482564
0.31425
0.300123
0.508891
0.531206
0.296023
0.302824
0.533956
0.549589
0.304919
0.4991
0.544523
0.512143
0.297199
0.316838
0.312994
0.51037
0.308417
0.52089
0.536175
0.531853
0.469472
0.532616
0.320963
0.517405
0.482247
0.543747
0.437267
0.325853
0.322682
0.323689
0.540279
0.534907
0.333531
0.507455
0.255511
0.499958
0.534416
0.322048
0.479072
0.521745
0.484082
0.300922
0.320352
0.288498
0.536654
0.545458
0.480558
0.404292
0.532846
0.328839
0.493079
0.533158
0.527801
0.300623
0.490195
0.326355
0.479136
0.325562
0.528072
0.521778
0.325451
0.536561
0.330865
0.533478
0.496518
0.533607
0.537919
0.321794
0.531954
0.531499
0.531185
0.528812
0.379982
0.533173
0.316964
0.531571
0.322195
0.295378
0.320269
0.290841
0.316978
0.297119
0.546395
0.287384
0.321208
0.511024
0.53691
0.508458
0.321099
0.530675
0.529817
0.532158
0.271843
0.448606
0.533544
0.3145
0.299005
0.321621
0.488441
0.399801
0.307077
0.454414
0.328602
0.533075
0.394388
0.320847
0.371598
0.505562
0.28731
0.53154
0.31906
0.364359
0.293844
0.530833
0.300341
0.506445
0.533118
0.461395
0.324457
0.315501
0.526136
0.548733
0.302429
0.303354
0.532387
0.31471
0.53765
0.303913
0.437989
0.324137
0.533658
0.317618
0.547801
0.295229
0.534242
0.533465
0.539957
0.533302
0.319778
0.326477
0.320307
0.497737
0.525036
0.493317
0.403593
0.324733
0.535889
0.26487
0.508714
0.452895
0.311933
0.326892
0.539796
0.527998
0.325694
0.532888
0.530002
0.539828
0.541909
0.318913
0.495104
0.326357
0.539957
0.308838
0.532542
0.504072
0.514026
0.548367
0.316645
0.553312
0.313085
0.318905
0.532216
0.533274
0.427198
0.527328
0.533261
0.328956
0.539224
0.528054
0.546589
0.304022
0.334172
0.527446
0.314759
0.535553
0.535166
0.520765
0.532973
0.225403
0.349563
0.505307
0.325346
0.516448
0.54909
0.368716
0.519108
0.213178
0.48061
0.539448
0.525968
0.519592
0.318766
0.330486
0.530323
0.51883
0.324516
0.26174
0.316959
0.324751
0.321076
0.329256
0.285727
0.31431
0.529722
0.321309
0.290452
0.533111
0.425651
0.533396
0.310207
0.31761
0.533215
0.365069
0.369747
0.543948
0.290406
0.513885
0.532851
0.476563
0.514643
0.319057
0.533907
0.532767
0.317471
0.322917
0.31255
0.470161
0.475951
0.545806
0.532625
0.528452
0.51747
0.289116
0.53491
0.53273
0.509043
0.315958
0.533962
0.446087
0.28364
0.338801
0.315041
0.318997
0.320294
0.460187
0.519104
0.518992
0.318316
0.305275
0.544523
0.27864
0.533903
0.531445
0.521022
0.526183
0.532679
0.314147
0.321575
0.328726
0.440743
0.31312
0.532107
0.313081
0.532954
0.532176
0.534366
0.293072
0.35052
0.320612
0.533064
0.30288
0.321593
0.531331
0.514443
0.480996
0.532558
0.504935
0.53726
0.309061
0.488553
0.541693
0.416856
0.532059
0.535407
0.538291
0.361341
0.335127
0.547666
0.391348
0.47558
0.32634
0.499875
0.521594
0.315737
0.30827
0.510647
0.398373
0.53974
0.533848
0.310747
0.320509
0.532914
0.296203
0.322785
0.523087
0.509662
0.326424
0.525251
0.533078
0.500074
0.294143
0.461215
0.310079
0.525562
0.541466
0.537164
0.51661
0.532998
0.245766
0.282023
0.526475
0.315961
0.476172
0.32286
0.533581
0.32712
0.50334
0.541306
0.533036
0.332687
0.533584
0.533057
0.319546
0.50038
0.309752
0.551165
0.333045
0.296579
0.307823
0.523133
0.527967
0.253977
0.236189