# vtk DataFile Version 1.0
unstructured grid
ascii
DATASET UNSTRUCTURED_GRID
points 13672 float
0.0796578 -0.059106 0
0.00128732 0.00159165 0
0.00227961 -0.00102548 0
0.0791586 -0.0598787 0
-0.0546216 0.01 0
0.000495206 0.025 0
0.0800549 -0.035 0
0.135172 -0.08 0
-0.0546216 -0.0451168 0
0.000495206 -0.0301168 0
0.0800549 -0.0901168 0
0.135172 -0.135117 0
-0.0546216 -0.0451168 -0.00551168
0.000495206 -0.0301168 -0.00551168
0.0800549 -0.0901168 -0.00551168
0.135172 -0.135117 -0.00551168
0.135172 -0.08 -0.00551168
0.0800549 -0.035 -0.00551168
0.000495206 0.025 -0.00551168
-0.0546216 0.01 -0.00551168
0.00128732 0.00159165 -0.00551168
0.00227961 -0.00102548 -0.00551168
0.0791586 -0.0598787 -0.00551168
0.0796578 -0.059106 -0.00551168
0.00165953 -0.000990923 0
0.00119576 -0.000874076 0
0.000866021 -0.000641801 0
0.000645147 -0.000349912 0
0.00052235 -1.7281e-05 0
0.00049972 0.000348016 0
0.000601632 0.000737716 0
0.000861774 0.0011403 0
0.00157235 0.00183217 0
0.00188647 0.00206725 0
0.00222612 0.00230203 0
0.00258713 0.00254351 0
0.00296826 0.00279524 0
0.00337118 0.00305664 0
0.00379785 0.00332658 0
0.00425045 0.00360349 0
0.00473139 0.00388521 0
0.0052432 0.00416895 0
0.0057881 0.00445204 0
0.00636753 0.00473281 0
0.00698281 0.00500961 0
0.00763526 0.00528058 0
0.00832616 0.00554366 0
0.00905691 0.00579603 0
0.00982918 0.00603333 0
0.0106445 0.00625033 0
0.0115038 0.00644128 0
0.0124073 0.00660297 0
0.0133543 0.00673414 0
0.0143444 0.00683382 0
0.0153769 0.00690031 0
0.0164512 0.00693173 0
0.0175666 0.00692547 0
0.0187219 0.00687822 0
0.0199156 0.00678477 0
0.0211454 0.00663864 0
0.0224084 0.00643275 0
0.0237018 0.00616676 0
0.0250249 0.00584739 0
0.026375 0.00547298 0
0.0277479 0.00503752 0
0.0291386 0.00453545 0
0.0305433 0.0039653 0
0.0319572 0.0033256 0
0.0333681 0.00260019 0
0.034775 0.00179799 0
0.0361793 0.000930615 0
0.0375798 3.12222e-06 0
0.0389689 -0.000988429 0
0.0403357 -0.00205109 0
0.041675 -0.00318283 0
0.0429849 -0.00437751 0
0.0442643 -0.00562904 0
0.0455126 -0.00693089 0
0.0467314 -0.00827518 0
0.0479204 -0.00965638 0
0.0490661 -0.0110799 0
0.0501515 -0.0125519 0
0.0511696 -0.0140695 0
0.0521492 -0.0156071 0
0.0531202 -0.0171411 0
0.0540851 -0.0186663 0
0.0550431 -0.0201798 0
0.0559923 -0.0216793 0
0.0569311 -0.0231626 0
0.0578582 -0.0246273 0
0.0587723 -0.0260715 0
0.0596721 -0.027493 0
0.0605563 -0.02889 0
0.0614241 -0.0302609 0
0.0622742 -0.0316042 0
0.063106 -0.0329183 0
0.0639186 -0.034202 0
0.0647113 -0.0354543 0
0.0654835 -0.0366743 0
0.0662345 -0.0378613 0
0.0669642 -0.0390145 0
0.0676726 -0.0401333 0
0.0683597 -0.0412172 0
0.0690246 -0.0422665 0
0.0696662 -0.0432819 0
0.0702841 -0.0442636 0
0.0708793 -0.0452111 0
0.0714538 -0.0461237 0
0.072009 -0.047001 0
0.0725452 -0.0478434 0
0.0730611 -0.0486524 0
0.073556 -0.0494294 0
0.0740291 -0.0501756 0
0.0744812 -0.0508916 0
0.0749138 -0.0515773 0
0.0753285 -0.0522331 0
0.0757266 -0.0528592 0
0.076109 -0.0534564 0
0.0764753 -0.0540264 0
0.0768243 -0.054571 0
0.0771553 -0.0550919 0
0.0774679 -0.0555901 0
0.0777617 -0.0560669 0
0.0780369 -0.056523 0
0.0782958 -0.0569578 0
0.0785421 -0.0573703 0
0.0787786 -0.0577603 0
0.0790073 -0.0581279 0
0.0792295 -0.058474 0
0.0794462 -0.0587995 0
0.0798803 -0.0594162 0
0.0800272 -0.0596588 0
0.0800357 -0.0598891 0
0.0799275 -0.0600784 0
0.0797205 -0.0601773 0
0.0794593 -0.0601051 0
0.0789155 -0.0596491 0
0.0786707 -0.0593963 0
0.0784111 -0.0591319 0
0.0781372 -0.0588542 0
0.0778566 -0.0585548 0
0.0775715 -0.0582308 0
0.0772803 -0.0578828 0
0.0769832 -0.0575099 0
0.0766822 -0.0571097 0
0.0763801 -0.0566796 0
0.0760759 -0.0562196 0
0.0757623 -0.0557337 0
0.0754359 -0.0552232 0
0.0750951 -0.0546879 0
0.0747379 -0.054128 0
0.0743626 -0.0535435 0
0.0739688 -0.0529338 0
0.0735559 -0.0522981 0
0.0731238 -0.0516357 0
0.0726718 -0.050946 0
0.0721991 -0.0502288 0
0.0717046 -0.049484 0
0.0711872 -0.0487117 0
0.0706461 -0.047912 0
0.0700804 -0.0470849 0
0.0694892 -0.0462308 0
0.0688718 -0.0453499 0
0.0682271 -0.0444431 0
0.0675544 -0.043511 0
0.0668527 -0.0425546 0
0.0661215 -0.0415748 0
0.06536 -0.040573 0
0.0645676 -0.0395504 0
0.0637439 -0.0385087 0
0.0628887 -0.0374493 0
0.062002 -0.0363741 0
0.0610838 -0.0352847 0
0.0601345 -0.0341831 0
0.0591547 -0.033071 0
0.0581456 -0.0319502 0
0.0571083 -0.0308224 0
0.0560444 -0.0296893 0
0.0549562 -0.028552 0
0.053845 -0.0274126 0
0.0527113 -0.0262746 0
0.051554 -0.0251427 0
0.0503724 -0.0240222 0
0.0491675 -0.0229164 0
0.047941 -0.0218282 0
0.0466955 -0.0207597 0
0.0454337 -0.0197126 0
0.0441592 -0.0186878 0
0.0428751 -0.0176863 0
0.0415841 -0.0167097 0
0.0402878 -0.0157609 0
0.0389879 -0.0148428 0
0.0376864 -0.0139575 0
0.0363853 -0.013107 0
0.0350871 -0.0122931 0
0.0337942 -0.0115164 0
0.0325095 -0.0107772 0
0.0312357 -0.0100756 0
0.0299758 -0.00941024 0
0.0287337 -0.00877784 0
0.0275126 -0.00817571 0
0.0263139 -0.00760375 0
0.0251376 -0.00706528 0
0.0239829 -0.0065649 0
0.0228537 -0.00609619 0
0.0217522 -0.00565563 0
0.0206795 -0.00524226 0
0.0196364 -0.00485507 0
0.0186233 -0.00449318 0
0.0176408 -0.00415577 0
0.016689 -0.00384204 0
0.0157682 -0.00355115 0
0.0148783 -0.00328218 0
0.0140192 -0.00303468 0
0.0131906 -0.00280795 0
0.0123925 -0.00260016 0
0.0116246 -0.00241012 0
0.0108864 -0.00223769 0
0.0101774 -0.00208212 0
0.00949701 -0.00194206 0
0.00884483 -0.0018163 0
0.0082202 -0.0017039 0
0.00762247 -0.00160391 0
0.00705097 -0.00151528 0
0.006505 -0.00143697 0
0.0059838 -0.00136806 0
0.00548662 -0.00130772 0
0.00501265 -0.00125519 0
0.00456114 -0.00120954 0
0.00413136 -0.00116914 0
0.00372257 -0.00113251 0
0.00333398 -0.00109853 0
0.00296466 -0.00106798 0
0.00261363 -0.0010431 0
-0.052721 -0.0445996 0
-0.0508204 -0.0440823 0
-0.0489199 -0.0435651 0
-0.0470193 -0.0430478 0
-0.0451187 -0.0425306 0
-0.0432181 -0.0420134 0
-0.0413175 -0.0414961 0
-0.039417 -0.0409789 0
-0.0375164 -0.0404616 0
-0.0356158 -0.0399444 0
-0.0337152 -0.0394271 0
-0.0318146 -0.0389099 0
-0.0299141 -0.0383927 0
-0.0280135 -0.0378754 0
-0.0261129 -0.0373582 0
-0.0242123 -0.0368409 0
-0.0223117 -0.0363237 0
-0.0204112 -0.0358065 0
-0.0185106 -0.0352892 0
-0.01661 -0.034772 0
-0.0147094 -0.0342547 0
-0.0128088 -0.0337375 0
-0.0109083 -0.0332202 0
-0.00900769 -0.032703 0
-0.00710711 -0.0321858 0
-0.00520653 -0.0316685 0
-0.00330595 -0.0311513 0
-0.00140537 -0.030634 0
0.00190689 -0.0299614 0
0.00332271 -0.0298498 0
0.00474133 -0.0297825 0
0.00616136 -0.0297597 0
0.0075814 -0.0297814 0
0.00900007 -0.0298477 0
0.010416 -0.0299583 0
0.0118278 -0.0301127 0
0.0132342 -0.0303103 0
0.0146339 -0.0305504 0
0.0160259 -0.0308322 0
0.0174091 -0.0311546 0
0.0187824 -0.0315166 0
0.020145 -0.031917 0
0.0214961 -0.0323546 0
0.0228351 -0.032828 0
0.0241613 -0.0333361 0
0.0254744 -0.0338774 0
0.0267738 -0.0344507 0
0.0280592 -0.0350545 0
0.0293306 -0.0356877 0
0.0305875 -0.0363488 0
0.0318301 -0.0370367 0
0.0330581 -0.0377501 0
0.0342717 -0.0384879 0
0.0354708 -0.0392489 0
0.0366556 -0.0400321 0
0.0378262 -0.0408363 0
0.0389828 -0.0416607 0
0.0401254 -0.0425042 0
0.0412543 -0.0433659 0
0.0423698 -0.0442451 0
0.043472 -0.0451408 0
0.0445612 -0.0460523 0
0.0456375 -0.0469789 0
0.0467013 -0.0479199 0
0.0477529 -0.0488746 0
0.0487923 -0.0498424 0
0.04982 -0.0508227 0
0.0508362 -0.051815 0
0.051841 -0.0528187 0
0.0528348 -0.0538333 0
0.0538178 -0.0548584 0
0.0547903 -0.0558935 0
0.0557524 -0.0569382 0
0.0567045 -0.0579922 0
0.0576467 -0.0590549 0
0.0585792 -0.0601261 0
0.0595024 -0.0612055 0
0.0604163 -0.0622926 0
0.0613212 -0.0633873 0
0.0622174 -0.0644891 0
0.0631049 -0.0655979 0
0.0639841 -0.0667134 0
0.064855 -0.0678353 0
0.0657179 -0.0689633 0
0.0665729 -0.0700974 0
0.0674202 -0.0712372 0
0.06826 -0.0723826 0
0.0690925 -0.0735333 0
0.0699178 -0.0746892 0
0.070736 -0.0758501 0
0.0715473 -0.0770159 0
0.0723518 -0.0781863 0
0.0731498 -0.0793612 0
0.0739412 -0.0805405 0
0.0747264 -0.081724 0
0.0755053 -0.0829116 0
0.0762781 -0.0841033 0
0.0770449 -0.0852987 0
0.0778059 -0.0864979 0
0.0785611 -0.0877007 0
0.0793108 -0.088907 0
0.0814681 -0.0912706 0
0.0828814 -0.0924245 0
0.0842946 -0.0935783 0
0.0857079 -0.0947322 0
0.0871211 -0.095886 0
0.0885344 -0.0970399 0
0.0899476 -0.0981937 0
0.0913609 -0.0993476 0
0.0927741 -0.100501 0
0.0941874 -0.101655 0
0.0956006 -0.102809 0
0.0970139 -0.103963 0
0.0984272 -0.105117 0
0.0998404 -0.106271 0
0.101254 -0.107424 0
0.102667 -0.108578 0
0.10408 -0.109732 0
0.105493 -0.110886 0
0.106907 -0.11204 0
0.10832 -0.113194 0
0.109733 -0.114348 0
0.111146 -0.115501 0
0.11256 -0.116655 0
0.113973 -0.117809 0
0.115386 -0.118963 0
0.116799 -0.120117 0
0.118213 -0.121271 0
0.119626 -0.122424 0
0.121039 -0.123578 0
0.122452 -0.124732 0
0.123866 -0.125886 0
0.125279 -0.12704 0
0.126692 -0.128194 0
0.128105 -0.129348 0
0.129519 -0.130501 0
0.130932 -0.131655 0
0.132345 -0.132809 0
0.133758 -0.133963 0
0.135172 -0.133216 0
0.135172 -0.131316 0
0.135172 -0.129415 0
0.135172 -0.127514 0
0.135172 -0.125614 0
0.135172 -0.123713 0
0.135172 -0.121813 0
0.135172 -0.119912 0
0.135172 -0.118012 0
0.135172 -0.116111 0
0.135172 -0.11421 0
0.135172 -0.11231 0
0.135172 -0.110409 0
0.135172 -0.108509 0
0.135172 -0.106608 0
0.135172 -0.104708 0
0.135172 -0.102807 0
0.135172 -0.100906 0
0.135172 -0.0990058 0
0.135172 -0.0971052 0
0.135172 -0.0952046 0
0.135172 -0.0933041 0
0.135172 -0.0914035 0
0.135172 -0.0895029 0
0.135172 -0.0876023 0
0.135172 -0.0857017 0
0.135172 -0.0838012 0
0.135172 -0.0819006 0
0.133758 -0.0788462 0
0.132345 -0.0776923 0
0.130932 -0.0765385 0
0.129519 -0.0753846 0
0.128105 -0.0742308 0
0.126692 -0.0730769 0
0.125279 -0.0719231 0
0.123866 -0.0707692 0
0.122452 -0.0696154 0
0.121039 -0.0684615 0
0.119626 -0.0673077 0
0.118213 -0.0661538 0
0.116799 -0.065 0
0.115386 -0.0638462 0
0.113973 -0.0626923 0
0.11256 -0.0615385 0
0.111146 -0.0603846 0
0.109733 -0.0592308 0
0.10832 -0.0580769 0
0.106907 -0.0569231 0
0.105493 -0.0557692 0
0.10408 -0.0546154 0
0.102667 -0.0534615 0
0.101254 -0.0523077 0
0.0998404 -0.0511538 0
0.0984272 -0.05 0
0.0970139 -0.0488462 0
0.0956006 -0.0476923 0
[...]
CELL_DATA 13116
SCALARS rho float
LOOKUP_TABLE default
0.461749
0.523117
0.339351
0.550305
0.54778
0.535732
0.364827
0.553621
0.482662
0.550836
0.35162
0.342089
0.547914
0.379754
0.361684
0.535866
0.429489
0.571244
0.536362
0.363933
0.474807
0.376723
0.397344
0.556722
0.572443
0.521782
0.550885
0.385931
0.592859
0.564807
0.533385
0.387422
0.51414
0.415018
0.3618
0.466732
0.536877
0.533694
0.534882
0.541113
0.536408
0.554596
0.37812
0.349552
0.535976
0.536331
0.509276
0.538292
0.362329
0.489948
0.548385
0.396684
0.364498
0.424613
0.508688
0.539681
0.355785
0.547875
0.506076
0.366727
0.383052
0.55041
0.517061
0.534752
0.533581
0.382895
0.539345
0.553636
0.540053
0.533743
0.362628
0.567208
0.375133
0.388008
0.532787
0.347856
0.512676
0.544953
0.363536
0.572219
0.538542
0.520791
0.550635
0.53821
0.532118
0.437339
0.369291
0.588085
0.532034
0.336317
0.371274
0.524286
0.553046
0.537589
0.546321
0.534649
0.574068
0.533236
0.532955
0.574914
0.630292
0.472737
0.536427
0.368601
0.499642
0.387795
0.34272
0.416239
0.377141
0.603447
0.437916
0.513258
0.534569
0.543733
0.570493
0.539919
0.374127
0.368208
0.542952
0.541475
0.556583
0.374756
0.540371
0.395998
0.535847
0.418645
0.370198
0.484736
0.371838
0.493672
0.543092
0.538191
0.486204
0.369001
0.466598
0.478887
0.531965
0.542407
0.631463
0.541359
0.500936
0.511581
0.481047
0.501282
0.512849
0.379329
0.360154
0.51607
0.546644
0.547283
0.526193
0.537798
0.538212
0.34963
0.54908
0.533133
0.392955
0.635053
0.533304
0.597066
0.553601
0.355657
0.547508
0.388813
0.371891
0.549782
0.533143
0.573559
0.3626
0.451504
0.40675
0.531965
0.365498
0.464221
0.539113
0.399112
0.369099
0.375523
0.5104
0.535457
0.369884
0.414724
0.452497
0.538517
0.535599
0.501148
0.364234
0.536637
0.493314
0.438528
0.513791
0.514473
0.533878
0.399011
0.508509
0.535733
0.550344
0.536596
0.53099
0.378414
0.36658
0.607861
0.479615
0.394286
0.543556
0.535524
0.404416
0.544351
0.378865
0.338084
0.347036
0.537689
0.388755
0.356374
0.335
0.349609
0.344304
0.534463
0.534182
0.425057
0.359748
0.539071
0.433042
0.370613
0.541604
0.550436
0.511138
0.393883
0.539205
0.37757
0.562025
0.374498
0.533919
0.557763
0.533089
0.53761
0.534005
0.370243
0.410095
0.608576
0.532728
0.535599
0.532095
0.533993
0.551155
0.370383
0.545131
0.549209
0.532967
0.351753
0.362923
0.536379
0.542534
0.533725
0.540121
0.448431
0.562187
0.351157
0.385576
0.364692
0.379761
0.487688
0.550259
0.511645
0.366049
0.535987
0.37533
0.419648
0.501029
0.344557
0.520147
0.550427
0.532507
0.547028
0.373298
0.532469
0.54127
0.53299
0.54227
0.360784
0.3697
0.394436
0.475893
0.373456
0.369881
0.316131
0.276749
0.52995
0.36648
0.534017
0.54823
0.368693
0.366031
0.373648
0.436387
0.335449
0.583712
0.47106
0.507018
0.343262
0.537417
0.57576
0.390027
0.365364
0.534877
0.542548
0.536461
0.363839
0.535881
0.383853
0.537725
0.553703
0.545962
0.553115
0.398023
0.538962
0.377372
0.536363
0.550346
0.638348
0.349242
0.315877
0.549371
0.375144
0.520018
0.550355
0.341946
0.598395
0.550635
0.372009
0.535796
0.552204
0.362896
0.544146
0.436161
0.563063
0.549904
0.443395
0.632219
0.366791
0.553794
0.329425
0.534178
0.470109
0.551136
0.388872
0.33942
0.532879
0.348941
0.542969
0.49832
0.404269
0.531962
0.359017
0.36779
0.541458
0.540986
0.546069
0.370465
0.389462
0.54508
0.548109
0.357648
0.547848
0.377499
0.387011
0.540253
0.549712
0.396989
0.339815
0.542174
0.533592
0.535929
0.535427
0.544862
0.525856
0.303937
0.376357
0.368846
0.535832
0.369511
0.448224
0.345728
0.385973
0.333342
0.405139
0.133213
0.34743
0.533009
0.298655
0.547691
0.5897
0.537056
0.589675
0.545275
0.367989
0.368454
0.381
0.312148
0.541257
0.532387
0.536599
0.591642
0.513992
0.543578
0.519166
0.504174
0.564056
0.543769
0.575329
0.535327
0.36986
0.414614
0.458006
0.374558
0.46863
0.532621
0.366959
0.539548
0.532604
0.395978
0.359334
0.345316
0.365118
0.619337
0.363679
0.399057
0.538205
0.382752
0.556043
0.340775
0.535635
0.535083
0.328356
0.371714
0.541108
0.438627
0.340914
0.365561
0.343936
0.377378
0.371669
0.359339
0.376991
0.419291
0.344976
0.470533
0.353736
0.532709
0.358789
0.43431
0.490132
0.387055
0.336045
0.387143
0.538482
0.425163
0.624704
0.413586
0.38016
0.544919
0.533155
0.436781
0.59825
0.532677
0.527678
0.369625
0.533137
0.371021
0.546018
0.533299
0.377952
0.375415
0.491709
0.317663
0.445439
0.472389
0.341314
0.636545
0.514901
0.367403
0.366287
0.365684
0.460011
0.364179
0.364053
0.363273
0.377905
0.55099
0.550554
0.443314
0.577726
0.465351
0.507077
0.328958
0.360899
0.486522
0.378153
0.537852
0.282625
0.354584
0.482127
0.535668
0.530203
0.547633
0.341572
0.374926
0.55899
0.553209
0.534115
0.554858
0.501188
0.486376
0.34548
0.534549
0.553028
0.611367
0.285722
0.338953
0.543941
0.551333
0.592171
0.550779
0.526663
0.524133
0.55281
0.624322
0.536943
0.367995
0.535638
0.326609
0.378121
0.348922
0.549324
0.53586
0.291352
0.531804
0.611066
0.348388
0.534155
0.542124
0.542015
0.385402
0.358881
0.543915
0.341114
0.344874
0.357729
0.345641
0.536441
0.364603
0.548675
0.359021
0.523506
0.547571
0.539194
0.548145
0.34083
0.365576
0.536724
0.562756
0.523663
0.550917
0.549136
0.48606
0.371006
0.379434
0.53667
0.491035
0.345153
0.438748
0.381229
0.544782
0.537308
0.286293
0.376825
0.531228
0.456248
0.533252
0.644115
0.371536
0.378297
0.520516
0.532659
0.383743
0.528793
0.533338
0.536351
0.352472
0.532074
0.367563
0.533
0.612096
0.360966
0.342342
0.37197
0.532987
0.375384
0.367383
0.368575
0.534343
0.540101
0.366669
0.382851
0.34117
0.534398
0.375179
0.53565
0.379424
0.571166
0.550524
0.361421
0.38936
0.394978
0.48644
0.381645
0.525765
0.363432
0.36347
0.535184
0.37035
0.537387
0.51722
0.533121
0.361103
0.538283
0.549276
0.550033
0.536932
0.542288
0.539998
0.382078
0.534002
0.427571
0.534546
0.361631
0.55126
0.459665
0.365339
0.533375
0.545711
0.354579
0.511617
0.370172
0.362285
0.538053
0.538148
0.367129
0.379801
0.365253
0.391933
0.544765
0.559664
0.353295
0.368354
0.542959
0.542525
0.572697
0.548798
0.537051
0.353164
0.550916
0.413088
0.548227
0.367788
0.543886
0.469918
0.538632
0.545504
0.564956
0.319745
0.385565
0.536883
0.594254
0.431658
0.5486
0.379452
0.538114
0.548905
0.355723
0.411376
0.549147
0.338321
0.533517
0.608999
0.311816
0.542703
0.546898
0.354437
0.539471
0.394807
0.528694
0.345051
0.53748
0.515891
0.38678
0.53477
0.547697
0.544372
0.612102
0.534746
0.573065
0.331074
0.387406
0.356181
0.391534
0.531734
0.544779
0.541092
0.546285
0.371338
0.365214
0.537221
0.550743
0.541416
0.550688
0.356075
0.581831
0.549094
0.361875
0.374673
0.543031
0.536358
0.530493
0.385135
0.582097
0.31136
0.539069
0.516391
0.534202
0.528446
0.345089
0.534123
0.533669
0.551185
0.537813
0.53637
0.423362
0.544564
0.337669
0.497432
0.549869
0.451263
0.515967
0.534312
0.547344
0.365783
0.379493
0.573979
0.601091
0.340717
0.335151
0.346646
0.344396
0.5246
0.537952
0.5339
0.277461
0.347179
0.539901
0.621856
0.366837
0.359044
0.451956
0.528797
0.536731
0.535174
0.546459
0.337728
0.341051
0.532149
0.39316
0.356339
0.358631
0.535884
0.315563
0.33897
0.527981
0.535702
0.509899
0.535268
0.536378
0.375616
0.365846
0.345887
0.410152
0.425278
0.374629
0.54964
0.548756
0.526918
0.537414
0.399276
0.351471
0.550708
0.342679
0.536199
0.515639
0.533459
0.36716
0.364526
0.525208
0.533304
0.462032
0.362762
0.533141
0.53546
0.524494
0.547288
0.551211
0.532288
0.500944
0.356239
0.536318
0.533448
0.492436
0.539471
0.531765
0.514029
0.5324
0.541613
0.363768
0.363511
0.34925
0.533597
0.456365
0.342456
0.53704
0.543336
0.335349
0.519399
0.312302
0.516744
0.407585
0.36586
0.550569
0.562211
0.34325
0.540716
0.533618
0.380867
0.537388
0.386235
0.386807
0.541496
0.581226
0.49002
0.536485
0.346977
0.547128
0.367642
0.378877
0.537274
0.345035
0.540073
0.384553
0.516809
0.552616
0.532343
0.531377
0.372547
0.363562
0.486799
0.378041
0.541194
0.42277
0.522455
0.535614
0.551388
0.390058
0.600585
0.509709
0.550447
0.540063
0.33285
0.342441
0.529318
0.509347
0.551083
0.347558
0.536418
0.464278
0.381104
0.372597
0.638477
0.530532
0.532208
0.532895
0.475184
0.541167
0.534693
0.537292
0.383475
0.607655
0.449328
0.543564
0.536062
0.2782
0.540513
0.546962
0.364403
0.373748
0.373759
0.531781
0.355871
0.543208
0.542528
0.618483
0.335035
0.532053
0.394251
0.581224
0.534564
0.5338
0.550619
0.534347
0.582877
0.537952
0.468747
0.534276
0.344159
0.535844
0.539077
0.363064
0.532574
0.538236
0.38838
0.374898
0.374492
0.546142
0.336005
0.532434
0.352587
0.55342
0.375495
0.470539
0.384157
0.545789
0.549877
0.44613
0.254109
0.580957
0.534566
0.347981
0.570357
0.550442
0.374508
0.543338
0.533142
0.550327
0.536423
0.376811
0.414533
0.542266
0.536674
0.49853
0.334567
0.376301
0.53387
0.532077
0.532654
0.532034
0.474718
0.538417
0.471917
0.542025
0.335218
0.395313
0.532077
0.547144
0.534422
0.386373
0.535936
0.474734
0.507777
0.34778
0.406546
0.548028
0.556206
0.53436
0.313347
0.537111
0.53269
0.362764
0.58313
0.546494
0.362206
0.430257
0.374648
0.495029
0.377196
0.372645
0.535388
0.427798
0.550864
0.523014
0.365022
0.370538
0.550797
0.362236
0.363826
0.533302
0.390793
0.33
0.546105
0.540784
0.538342
0.346034
0.28108
0.351193
0.518073
0.387531
0.538774
0.364523
0.5375
0.525621
0.535633
0.506423
0.533193
0.514998
0.53675
0.54794
0.540508
0.363449
0.341241
0.528359
0.53481
0.496719
0.501488
0.527054
0.534626
0.490976
0.328998
0.540672
0.550524
0.533318
0.352268
0.534637
0.351759
0.538179
0.489504
0.561586
0.537011
0.364313
0.541244
0.34291
0.396372
0.517783
0.353413
0.622503
0.531814
0.548753
0.363189
0.538103
0.3414
0.367133
0.384965
0.333143
0.48411
0.3666
0.504637
0.534427
0.316532
0.398992
0.479357
0.569583
0.558477
0.500393
0.363281
0.378764
0.357502
0.384171
0.251359
0.547496
0.517255
0.383238
0.534108
0.542165
0.374835
0.550124
0.624304
0.534516
0.34616
0.53276
0.533924
0.544514
0.544227
0.362183
0.539123
0.545334
0.534997
0.646603
0.534967
0.364472
0.391315
0.537973
0.527902
0.363801
0.537031
0.399615
0.562133
0.522312
0.527318
0.52956
0.368776
0.50008
0.368764
0.351941
0.580468
0.544067
0.547013
0.544513
0.529228
0.3675
0.548602
0.369794
0.495665
0.54955
0.532963
0.541946
0.35149
0.38861
0.549546
0.377638
0.543512
0.631649
0.415196
0.359242
0.540572
0.386986
0.536994
0.543189
0.52185
0.386539
0.363598
0.483137
0.462902
0.539849
0.449748
0.535323
0.500723
0.534189
0.531687
0.538162
0.372557
0.367536
0.544728
0.53494
0.496051
0.451527
0.393873
0.532646
0.368527
0.537136
0.60594
0.298613
0.540959
0.352631
0.53366
0.34114
0.547251
0.371914
0.537561
0.535287
0.328132
0.536786
0.595533
0.316409
0.533946
0.536341
0.52239
0.386527
0.338255
0.442331
0.549386
0.484958
0.356419
0.577189
0.539749
0.535168
0.325059
0.508358
0.528049
0.455938
0.535273
0.53648
0.276546
0.540287
0.533059
0.339027
0.529146
0.364471
0.512633
0.353306
0.386737
0.551273
0.352479
0.339457
0.372719
0.538822
0.522287
0.371524
0.537111
0.334168
0.524985
0.340891
0.52451
0.345207
0.535799
0.538173
0.515908
0.534076
0.544907
0.535267
0.53451
0.341169
0.617804
0.52077
0.413048
0.537744
0.484983
0.373807
0.548477
0.366749
0.552692
0.301967
0.536566
0.365098
0.399576
0.564422
0.536682
0.366695
0.542571
0.549901
0.531757
0.550682
0.532926
0.354255
0.549752
0.359317
0.38873
0.53429
0.54618
0.554414
0.532581
0.375849
0.35344
0.353862
0.524234
0.534345
0.336883
0.545437
0.383082
0.359141
0.348551
0.53314
0.368725
0.549396
0.540755
0.617866
0.53779
0.54004
0.512137
0.508647
0.426718
0.398999
0.365255
0.532904
0.532766
0.387051
0.540085
0.49289
0.510905
0.377623
0.362874
0.503377
0.269451
0.498245
0.476413
0.355821
0.534804
0.525772
0.342825
0.537945
0.363678
0.540952
0.551314
0.533511
0.369784
0.464062
0.610037
0.286631
0.43582
0.537146
0.293358
0.534962
0.539879
0.519083
0.553053
0.310934
0.533346
0.577536
0.53663
0.352436
0.545517
0.371465
0.382313
0.53209
0.536889
0.53423
0.228064
0.537313
0.622051
0.532776
0.379506
0.376095
0.34048
0.543873
0.360519
0.367771
0.353655
0.474835
0.363984
0.276684
0.436798
0.538747
0.346678
0.534034
0.534633
0.540312
0.363446
0.539638
0.58232
0.534074
0.408312
0.639923
0.359843
0.367565
0.537933
0.366185
0.523924
0.539113
0.532279
0.352093
0.316421
0.353506
0.553108
0.53209
0.225633
0.533991
0.538621
0.551033
0.339154
0.370272
0.332789
0.485519
0.343058
0.531728
0.598099
0.534828
0.534335
0.359423
0.517099
0.3821
0.453798
0.632803
0.550805
0.460161
0.405936
0.623286
0.498834
0.545294
0.364443
0.352735
0.381672
0.563248
0.496199
0.532976
0.351695
0.385138
0.545101
0.539453
0.533643
0.365186
0.541027
0.55127
0.554121
0.486871
0.379787
0.36387
0.275941
0.537019
0.534374
0.646154
0.50533
0.330293
0.550002
0.628184
0.534388
0.533982
0.548613
0.550552
0.53569
0.543784
0.546822
0.376372
0.54083
0.545121
0.535437
0.541874
0.536839
0.473234
0.34966
0.391193
0.494231
0.334429
0.313929
0.540831
0.363581
0.627617
0.539528
0.52174
0.533767
0.382811
0.542129
0.381504
0.391799
0.53587
0.537874
0.537539
0.36318
0.547485
0.536537
0.491816
0.536444
0.373968
0.535265
0.54974
0.526065
0.379038
0.550909
0.347143
0.552363
0.349008
0.349183
0.43426
0.438476
0.550553
0.547488
0.53634
0.354927
0.535135
0.373
0.36379
0.524856
0.483862
0.335264
0.536428
0.38649
0.506011
0.569542
0.508093
0.528205
0.482083
0.590218
0.572256
0.536339
0.46963
0.546911
0.52605
0.563238
0.502843
0.575686
0.396465
0.361848
0.438101
0.544519
0.38726
0.59901
0.543099
0.546708
0.536466
0.440372
0.593681
0.537533
0.347178
0.542124
0.496469
0.414608
0.498487
0.549192
0.526436
0.534791
0.337921
0.365149
0.534988
0.498091
0.469916
0.54243
0.537918
0.537459
0.551517
0.551183
0.555428
0.498951
0.550681
0.368857
0.391949
0.366867
0.329468
0.532561
0.444282
0.468055
0.54078
0.540219
0.382331
0.534381
0.549326
0.364258
0.360904
0.532534
0.542068
0.381652
0.362572
0.364538
0.531689
0.520758
0.381226
0.37321
0.35786
0.38695
0.324333
0.339421
0.561567
0.53827
0.53614
0.361756
0.5225
0.520926
0.604137
0.302423
0.361193
0.523946
0.532038
0.339876
0.535583
0.342669
0.554685
0.377795
0.540039
0.366506
0.527352
0.548534
0.363326
0.555997
0.359691
0.549875
0.392792
0.52068
0.398744
0.477895
0.359418
0.509921
0.347474
0.533947
0.533841
0.601455
0.532477
0.300706
0.52488
0.534514
0.54792
0.520843
0.525649
0.361383
0.354712
0.385731
0.551121
0.279408
0.546785
0.535295
0.546417
0.550215
0.403795
0.544296
0.363214
0.38759
0.366715
0.487185
0.430544
0.537476
0.343899
0.369802
0.536939
0.372275
0.385135
0.453413
0.352883
0.339674
0.391912
0.555461
0.63825
0.522614
0.395048
0.522643
0.537348
0.398659
0.313865
0.533596
0.536149
0.456434
0.509159
0.407175
0.351668
0.348752
0.544049
0.49074
0.482939
0.571716
0.375706
0.518539
0.354533
0.53347
0.546829
0.359116
0.380316
0.495527
0.44881
0.548038
0.546704
0.549111
0.543715
0.549545
0.34996
0.375151
0.381953
0.359782
0.452465
0.533399
0.639574
0.355538
0.358459
0.419045
0.430462
0.537455
0.507076
0.336895
0.285071
0.539468
0.382212
0.564936
0.546164
0.520007
0.535035
0.468106
0.343455
0.368648
0.495052
0.358591
0.391725
0.371023
0.534633
0.538073
0.312519
0.353362
0.531939
0.349202
0.538084
0.551571
0.347183
0.365008
0.374718
0.539184
0.37402
0.531795
0.540154
0.540759
0.359071
0.5229
0.544519
0.53276
0.365818
0.5307
0.496199
0.440648
0.542559
0.56342
0.351301
0.364514
0.52466
0.341723
0.360275
0.527505
0.336546
0.537467
0.606903
0.55434
0.503278
0.547046
0.53943
0.535222
0.356381
0.404319
0.503603
0.536546
0.463879
0.550191
0.301687
0.541409
0.529234
0.539724
0.57507
0.356295
0.447377
0.534907
0.545189
0.500407
0.548803
0.538204
0.532283
0.550751
0.531832
0.54203
0.526505
0.546125
0.532112
0.535325
0.33513
0.522522
0.341393
0.540322
0.540912
0.54489
0.513821
0.557091
0.363576
0.34927
0.290669
0.364795
0.518189
0.368095
0.346624
0.538463
0.384935
0.543544
0.348917
0.527875
0.539414
0.360132
0.374849
0.300994
0.543881
0.380875
0.536988
0.541042
0.354467
0.522224
0.546474
0.326996
0.38423
0.389178
0.609407
0.365017
0.541643
0.436652
0.349649
0.536436
0.536569
0.54928
0.342628
0.527963
0.392081
0.523792
0.534983
0.539994
0.338398
0.535893
0.542353
0.507859
0.391948
0.543747
0.342105
0.343988
0.538136
0.44044
0.550366
0.364791
0.33893
0.437709
0.512366
0.377487
0.272871
0.344154
0.425058
0.532879
0.540613
0.377026
0.519101
0.538476
0.554753
0.382249
0.293571
0.5492
0.340254
0.351344
0.535612
0.342989
0.34122
0.546751
0.551346
0.361301
0.567505
0.348487
0.532436
0.383045
0.526636
0.53387
0.556838
0.534689
0.370277
0.349405
0.388522
0.535368
0.526437
0.587547
0.522204
0.36356
0.292416
0.535813
0.354637
0.537773
0.373958
0.534073
0.552463
0.366587
0.347346
0.345309
0.353452
0.347738
0.494551
0.519481
0.367171
0.540161
0.559434
0.330353
0.365785
0.550221
0.334827
0.539204
0.421795
0.552523
0.578133
0.539551
0.532982
0.365052
0.550972
0.53948
0.556546
0.339802
0.489154
0.593534
0.307819
0.544592
0.511904
0.563562
0.523487
0.549545
0.537857
0.552645
0.53558
0.536345
0.37295
0.549593
0.345322
0.423262
0.5369
0.390982
0.529973
0.491458
0.366449
0.508083
0.351072
0.371993
0.535758
0.482863
0.551266
0.342295
0.523475
0.598981
0.360625
0.363972
0.530956
0.537278
0.366732
0.351359
0.542407
0.550609
0.365172
0.562317
0.548746
0.644224
0.371286
0.342184
0.379127
0.583277
0.369459
0.530988
0.565473
0.535909
0.50974
0.539647
0.341911
0.530739
0.610953
0.548438
0.457708
0.395078
0.360459
0.383422
0.553074
0.541758
0.419472
0.57897
0.280453
0.51668
0.541113
0.379976
0.495487
0.531623
0.556635
0.36283
0.368993
0.315831
0.54294
0.550245
0.5969
0.508566
0.539592
0.340569
0.580388
0.532606
0.536063
0.362907
0.621424
0.366655
0.497903
0.386484
0.536014
0.5364
0.395149
0.54282
0.383242
0.532069
0.530338
0.531709
0.545434
0.391447
0.535626
0.536766
0.538368
0.536565
0.47877
0.532572
0.368581
0.536993
0.380787
0.367011
0.379222
0.347721
0.340629
0.36473
0.549852
0.356841
0.366104
0.543433
0.543097
0.521135
0.378865
0.551616
0.573516
0.534866
0.317432
0.46932
0.539334
0.373669
0.348017
0.348743
0.561698
0.502899
0.350015
0.481238
0.400732
0.533035
0.495519
0.370741
0.466317
0.582369
0.308625
0.537513
0.371745
0.404255
0.363221
0.544632
0.370162
0.529413
0.532655
0.485254
0.379318
0.349351
0.543903
0.550549
0.353282
0.367123
0.5355
0.359763
0.55133
0.36092
0.552292
0.384005
0.539319
0.375204
0.550445
0.366809
0.541143
0.540208
0.545657
0.532548
0.373733
0.394678
0.38133
0.52411
0.538271
0.511368
0.432061
0.371602
0.543428
0.296448
0.524672
0.472183
0.370998
0.358603
0.547185
0.535923
0.395335
0.533575
0.547621
0.546588
0.552825
0.371734
0.583559
0.342059
0.546363
0.371431
0.534335
0.522005
0.541033
0.551058
0.33609
0.553019
0.344084
0.349499
0.537869
0.532637
0.517458
0.535541
0.532548
0.336692
0.568565
0.542495
0.552286
0.368389
0.416316
0.555737
0.368772
0.541716
0.543427
0.531444
0.545281
0.277305
0.423232
0.600107
0.395725
0.52963
0.549847
0.447973
0.534385
0.257597
0.496547
0.56636
0.614209
0.53638
0.36735
0.397858
0.537622
0.529636
0.368667
0.305684
0.372766
0.390229
0.367581
0.402961
0.330617
0.342544
0.537221
0.379109
0.368323
0.541735
0.512002
0.531977
0.385098
0.352276
0.538929
0.447578
0.415879
0.549294
0.356817
0.622618
0.534185
0.601907
0.525802
0.378861
0.540864
0.534746
0.358142
0.345132
0.372601
0.489218
0.600096
0.549534
0.536098
0.536543
0.527975
0.3525
0.541475
0.534856
0.534143
0.346416
0.539775
0.464734
0.345669
0.424007
0.366468
0.384716
0.372925
0.553149
0.567641
0.529121
0.349386
0.383004
0.548833
0.330708
0.541242
0.536862
0.531524
0.624665
0.539359
0.374329
0.388952
0.396148
0.507963
0.375197
0.53829
0.376596
0.538021
0.535353
0.540601
0.345153
0.431874
0.394565
0.539915
0.350338
0.349875
0.54104
0.525714
0.503412
0.53579
0.529464
0.550754
0.341897
0.618525
0.547256
0.525203
0.539128
0.542621
0.547884
0.455826
0.419504
0.553094
0.491711
0.518688
0.338721
0.513098
0.532325
0.377899
0.364356
0.522287
0.494532
0.545607
0.541294
0.364613
0.362079
0.5331
0.344579
0.378207
0.533769
0.531062
0.364061
0.53436
0.533334
0.51486
0.348093
0.559479
0.342903
0.535824
0.546658
0.549629
0.527258
0.53337
0.278029
0.33406
0.53526
0.338769
0.603339
0.360098
0.540071
0.383111
0.550651
0.54708
0.533219
0.337676
0.531768
0.532726
0.356157
0.513463
0.375394
0.555594
0.33816
0.368102
0.363267
0.533542
0.535934
0.3141
0.284684
0.516996
0.549339