# vtk DataFile Version 1.0
unstructured grid
ascii
DATASET UNSTRUCTURED_GRID
points 13672 float
0.0796578 -0.059106 0
0.00128732 0.00159165 0
0.00227961 -0.00102548 0
0.0791586 -0.0598787 0
-0.0546216 0.01 0
0.000495206 0.025 0
0.0800549 -0.035 0
0.135172 -0.08 0
-0.0546216 -0.0451168 0
0.000495206 -0.0301168 0
0.0800549 -0.0901168 0
0.135172 -0.135117 0
-0.0546216 -0.0451168 -0.00551168
0.000495206 -0.0301168 -0.00551168
0.0800549 -0.0901168 -0.00551168
0.135172 -0.135117 -0.00551168
0.135172 -0.08 -0.00551168
0.0800549 -0.035 -0.00551168
0.000495206 0.025 -0.00551168
-0.0546216 0.01 -0.00551168
0.00128732 0.00159165 -0.00551168
0.00227961 -0.00102548 -0.00551168
0.0791586 -0.0598787 -0.00551168
0.0796578 -0.059106 -0.00551168
0.00165953 -0.000990923 0
0.00119576 -0.000874076 0
0.000866021 -0.000641801 0
0.000645147 -0.000349912 0
0.00052235 -1.7281e-05 0
0.00049972 0.000348016 0
0.000601632 0.000737716 0
0.000861774 0.0011403 0
0.00157235 0.00183217 0
0.00188647 0.00206725 0
0.00222612 0.00230203 0
0.00258713 0.00254351 0
0.00296826 0.00279524 0
0.00337118 0.00305664 0
0.00379785 0.00332658 0
0.00425045 0.00360349 0
0.00473139 0.00388521 0
0.0052432 0.00416895 0
0.0057881 0.00445204 0
0.00636753 0.00473281 0
0.00698281 0.00500961 0
0.00763526 0.00528058 0
0.00832616 0.00554366 0
0.00905691 0.00579603 0
0.00982918 0.00603333 0
0.0106445 0.00625033 0
0.0115038 0.00644128 0
0.0124073 0.00660297 0
0.0133543 0.00673414 0
0.0143444 0.00683382 0
0.0153769 0.00690031 0
0.0164512 0.00693173 0
0.0175666 0.00692547 0
0.0187219 0.00687822 0
0.0199156 0.00678477 0
0.0211454 0.00663864 0
0.0224084 0.00643275 0
0.0237018 0.00616676 0
0.0250249 0.00584739 0
0.026375 0.00547298 0
0.0277479 0.00503752 0
0.0291386 0.00453545 0
0.0305433 0.0039653 0
0.0319572 0.0033256 0
0.0333681 0.00260019 0
0.034775 0.00179799 0
0.0361793 0.000930615 0
0.0375798 3.12222e-06 0
0.0389689 -0.000988429 0
0.0403357 -0.00205109 0
0.041675 -0.00318283 0
0.0429849 -0.00437751 0
0.0442643 -0.00562904 0
0.0455126 -0.00693089 0
0.0467314 -0.00827518 0
0.0479204 -0.00965638 0
0.0490661 -0.0110799 0
0.0501515 -0.0125519 0
0.0511696 -0.0140695 0
0.0521492 -0.0156071 0
0.0531202 -0.0171411 0
0.0540851 -0.0186663 0
0.0550431 -0.0201798 0
0.0559923 -0.0216793 0
0.0569311 -0.0231626 0
0.0578582 -0.0246273 0
0.0587723 -0.0260715 0
0.0596721 -0.027493 0
0.0605563 -0.02889 0
0.0614241 -0.0302609 0
0.0622742 -0.0316042 0
0.063106 -0.0329183 0
0.0639186 -0.034202 0
0.0647113 -0.0354543 0
0.0654835 -0.0366743 0
0.0662345 -0.0378613 0
0.0669642 -0.0390145 0
0.0676726 -0.0401333 0
0.0683597 -0.0412172 0
0.0690246 -0.0422665 0
0.0696662 -0.0432819 0
0.0702841 -0.0442636 0
0.0708793 -0.0452111 0
0.0714538 -0.0461237 0
0.072009 -0.047001 0
0.0725452 -0.0478434 0
0.0730611 -0.0486524 0
0.073556 -0.0494294 0
0.0740291 -0.0501756 0
0.0744812 -0.0508916 0
0.0749138 -0.0515773 0
0.0753285 -0.0522331 0
0.0757266 -0.0528592 0
0.076109 -0.0534564 0
0.0764753 -0.0540264 0
0.0768243 -0.054571 0
0.0771553 -0.0550919 0
0.0774679 -0.0555901 0
0.0777617 -0.0560669 0
0.0780369 -0.056523 0
0.0782958 -0.0569578 0
0.0785421 -0.0573703 0
0.0787786 -0.0577603 0
0.0790073 -0.0581279 0
0.0792295 -0.058474 0
0.0794462 -0.0587995 0
0.0798803 -0.0594162 0
0.0800272 -0.0596588 0
0.0800357 -0.0598891 0
0.0799275 -0.0600784 0
0.0797205 -0.0601773 0
0.0794593 -0.0601051 0
0.0789155 -0.0596491 0
0.0786707 -0.0593963 0
0.0784111 -0.0591319 0
0.0781372 -0.0588542 0
0.0778566 -0.0585548 0
0.0775715 -0.0582308 0
0.0772803 -0.0578828 0
0.0769832 -0.0575099 0
0.0766822 -0.0571097 0
0.0763801 -0.0566796 0
0.0760759 -0.0562196 0
0.0757623 -0.0557337 0
0.0754359 -0.0552232 0
0.0750951 -0.0546879 0
0.0747379 -0.054128 0
0.0743626 -0.0535435 0
0.0739688 -0.0529338 0
0.0735559 -0.0522981 0
0.0731238 -0.0516357 0
0.0726718 -0.050946 0
0.0721991 -0.0502288 0
0.0717046 -0.049484 0
0.0711872 -0.0487117 0
0.0706461 -0.047912 0
0.0700804 -0.0470849 0
0.0694892 -0.0462308 0
0.0688718 -0.0453499 0
0.0682271 -0.0444431 0
0.0675544 -0.043511 0
0.0668527 -0.0425546 0
0.0661215 -0.0415748 0
0.06536 -0.040573 0
0.0645676 -0.0395504 0
0.0637439 -0.0385087 0
0.0628887 -0.0374493 0
0.062002 -0.0363741 0
0.0610838 -0.0352847 0
0.0601345 -0.0341831 0
0.0591547 -0.033071 0
0.0581456 -0.0319502 0
0.0571083 -0.0308224 0
0.0560444 -0.0296893 0
0.0549562 -0.028552 0
0.053845 -0.0274126 0
0.0527113 -0.0262746 0
0.051554 -0.0251427 0
0.0503724 -0.0240222 0
0.0491675 -0.0229164 0
0.047941 -0.0218282 0
0.0466955 -0.0207597 0
0.0454337 -0.0197126 0
0.0441592 -0.0186878 0
0.0428751 -0.0176863 0
0.0415841 -0.0167097 0
0.0402878 -0.0157609 0
0.0389879 -0.0148428 0
0.0376864 -0.0139575 0
0.0363853 -0.013107 0
0.0350871 -0.0122931 0
0.0337942 -0.0115164 0
0.0325095 -0.0107772 0
0.0312357 -0.0100756 0
0.0299758 -0.00941024 0
0.0287337 -0.00877784 0
0.0275126 -0.00817571 0
0.0263139 -0.00760375 0
0.0251376 -0.00706528 0
0.0239829 -0.0065649 0
0.0228537 -0.00609619 0
0.0217522 -0.00565563 0
0.0206795 -0.00524226 0
0.0196364 -0.00485507 0
0.0186233 -0.00449318 0
0.0176408 -0.00415577 0
0.016689 -0.00384204 0
0.0157682 -0.00355115 0
0.0148783 -0.00328218 0
0.0140192 -0.00303468 0
0.0131906 -0.00280795 0
0.0123925 -0.00260016 0
0.0116246 -0.00241012 0
0.0108864 -0.00223769 0
0.0101774 -0.00208212 0
0.00949701 -0.00194206 0
0.00884483 -0.0018163 0
0.0082202 -0.0017039 0
0.00762247 -0.00160391 0
0.00705097 -0.00151528 0
0.006505 -0.00143697 0
0.0059838 -0.00136806 0
0.00548662 -0.00130772 0
0.00501265 -0.00125519 0
0.00456114 -0.00120954 0
0.00413136 -0.00116914 0
0.00372257 -0.00113251 0
0.00333398 -0.00109853 0
0.00296466 -0.00106798 0
0.00261363 -0.0010431 0
-0.052721 -0.0445996 0
-0.0508204 -0.0440823 0
-0.0489199 -0.0435651 0
-0.0470193 -0.0430478 0
-0.0451187 -0.0425306 0
-0.0432181 -0.0420134 0
-0.0413175 -0.0414961 0
-0.039417 -0.0409789 0
-0.0375164 -0.0404616 0
-0.0356158 -0.0399444 0
-0.0337152 -0.0394271 0
-0.0318146 -0.0389099 0
-0.0299141 -0.0383927 0
-0.0280135 -0.0378754 0
-0.0261129 -0.0373582 0
-0.0242123 -0.0368409 0
-0.0223117 -0.0363237 0
-0.0204112 -0.0358065 0
-0.0185106 -0.0352892 0
-0.01661 -0.034772 0
-0.0147094 -0.0342547 0
-0.0128088 -0.0337375 0
-0.0109083 -0.0332202 0
-0.00900769 -0.032703 0
-0.00710711 -0.0321858 0
-0.00520653 -0.0316685 0
-0.00330595 -0.0311513 0
-0.00140537 -0.030634 0
0.00190689 -0.0299614 0
0.00332271 -0.0298498 0
0.00474133 -0.0297825 0
0.00616136 -0.0297597 0
0.0075814 -0.0297814 0
0.00900007 -0.0298477 0
0.010416 -0.0299583 0
0.0118278 -0.0301127 0
0.0132342 -0.0303103 0
0.0146339 -0.0305504 0
0.0160259 -0.0308322 0
0.0174091 -0.0311546 0
0.0187824 -0.0315166 0
0.020145 -0.031917 0
0.0214961 -0.0323546 0
0.0228351 -0.032828 0
0.0241613 -0.0333361 0
0.0254744 -0.0338774 0
0.0267738 -0.0344507 0
0.0280592 -0.0350545 0
0.0293306 -0.0356877 0
0.0305875 -0.0363488 0
0.0318301 -0.0370367 0
0.0330581 -0.0377501 0
0.0342717 -0.0384879 0
0.0354708 -0.0392489 0
0.0366556 -0.0400321 0
0.0378262 -0.0408363 0
0.0389828 -0.0416607 0
0.0401254 -0.0425042 0
0.0412543 -0.0433659 0
0.0423698 -0.0442451 0
0.043472 -0.0451408 0
0.0445612 -0.0460523 0
0.0456375 -0.0469789 0
0.0467013 -0.0479199 0
0.0477529 -0.0488746 0
0.0487923 -0.0498424 0
0.04982 -0.0508227 0
0.0508362 -0.051815 0
0.051841 -0.0528187 0
0.0528348 -0.0538333 0
0.0538178 -0.0548584 0
0.0547903 -0.0558935 0
0.0557524 -0.0569382 0
0.0567045 -0.0579922 0
0.0576467 -0.0590549 0
0.0585792 -0.0601261 0
0.0595024 -0.0612055 0
0.0604163 -0.0622926 0
0.0613212 -0.0633873 0
0.0622174 -0.0644891 0
0.0631049 -0.0655979 0
0.0639841 -0.0667134 0
0.064855 -0.0678353 0
0.0657179 -0.0689633 0
0.0665729 -0.0700974 0
0.0674202 -0.0712372 0
0.06826 -0.0723826 0
0.0690925 -0.0735333 0
0.0699178 -0.0746892 0
0.070736 -0.0758501 0
0.0715473 -0.0770159 0
0.0723518 -0.0781863 0
0.0731498 -0.0793612 0
0.0739412 -0.0805405 0
0.0747264 -0.081724 0
0.0755053 -0.0829116 0
0.0762781 -0.0841033 0
0.0770449 -0.0852987 0
0.0778059 -0.0864979 0
0.0785611 -0.0877007 0
0.0793108 -0.088907 0
0.0814681 -0.0912706 0
0.0828814 -0.0924245 0
0.0842946 -0.0935783 0
0.0857079 -0.0947322 0
0.0871211 -0.095886 0
0.0885344 -0.0970399 0
0.0899476 -0.0981937 0
0.0913609 -0.0993476 0
0.0927741 -0.100501 0
0.0941874 -0.101655 0
0.0956006 -0.102809 0
0.0970139 -0.103963 0
0.0984272 -0.105117 0
0.0998404 -0.106271 0
0.101254 -0.107424 0
0.102667 -0.108578 0
0.10408 -0.109732 0
0.105493 -0.110886 0
0.106907 -0.11204 0
0.10832 -0.113194 0
0.109733 -0.114348 0
0.111146 -0.115501 0
0.11256 -0.116655 0
0.113973 -0.117809 0
0.115386 -0.118963 0
0.116799 -0.120117 0
0.118213 -0.121271 0
0.119626 -0.122424 0
0.121039 -0.123578 0
0.122452 -0.124732 0
0.123866 -0.125886 0
0.125279 -0.12704 0
0.126692 -0.128194 0
0.128105 -0.129348 0
0.129519 -0.130501 0
0.130932 -0.131655 0
0.132345 -0.132809 0
0.133758 -0.133963 0
0.135172 -0.133216 0
0.135172 -0.131316 0
0.135172 -0.129415 0
0.135172 -0.127514 0
0.135172 -0.125614 0
0.135172 -0.123713 0
0.135172 -0.121813 0
0.135172 -0.119912 0
0.135172 -0.118012 0
0.135172 -0.116111 0
0.135172 -0.11421 0
0.135172 -0.11231 0
0.135172 -0.110409 0
0.135172 -0.108509 0
0.135172 -0.106608 0
0.135172 -0.104708 0
0.135172 -0.102807 0
0.135172 -0.100906 0
0.135172 -0.0990058 0
0.135172 -0.0971052 0
0.135172 -0.0952046 0
0.135172 -0.0933041 0
0.135172 -0.0914035 0
0.135172 -0.0895029 0
0.135172 -0.0876023 0
0.135172 -0.0857017 0
0.135172 -0.0838012 0
0.135172 -0.0819006 0
0.133758 -0.0788462 0
0.132345 -0.0776923 0
0.130932 -0.0765385 0
0.129519 -0.0753846 0
0.128105 -0.0742308 0
0.126692 -0.0730769 0
0.125279 -0.0719231 0
0.123866 -0.0707692 0
0.122452 -0.0696154 0
0.121039 -0.0684615 0
0.119626 -0.0673077 0
0.118213 -0.0661538 0
0.116799 -0.065 0
0.115386 -0.0638462 0
0.113973 -0.0626923 0
0.11256 -0.0615385 0
0.111146 -0.0603846 0
0.109733 -0.0592308 0
0.10832 -0.0580769 0
0.106907 -0.0569231 0
0.105493 -0.0557692 0
0.10408 -0.0546154 0
0.102667 -0.0534615 0
0.101254 -0.0523077 0
0.0998404 -0.0511538 0
0.0984272 -0.05 0
0.0970139 -0.0488462 0
0.0956006 -0.0476923 0
[...]
CELL_DATA 13116
SCALARS rho float
LOOKUP_TABLE default
0.426956
0.514426
0.293644
0.555658
0.546289
0.533895
0.322994
0.549138
0.410143
0.550054
0.322241
0.298063
0.546534
0.331225
0.320735
0.533941
0.401901
0.542538
0.53157
0.32869
0.43099
0.326968
0.329014
0.544072
0.47395
0.493941
0.550086
0.331383
0.472918
0.5028
0.533627
0.333135
0.432245
0.348827
0.322072
0.429075
0.517603
0.526587
0.533862
0.533717
0.532944
0.551943
0.330837
0.29332
0.530349
0.531404
0.496284
0.534099
0.323581
0.407166
0.545242
0.344194
0.322182
0.396261
0.431159
0.455289
0.298383
0.541361
0.417559
0.319104
0.332378
0.551387
0.506793
0.533852
0.533694
0.336385
0.535488
0.522978
0.536261
0.533705
0.323314
0.456631
0.323065
0.329439
0.533595
0.306284
0.500709
0.542282
0.324028
0.540088
0.528133
0.49862
0.544167
0.533689
0.522636
0.350743
0.326608
0.520767
0.518328
0.32551
0.315303
0.515855
0.546213
0.522662
0.505206
0.465554
0.475963
0.533736
0.533586
0.465753
0.528445
0.457697
0.532477
0.313481
0.482218
0.334705
0.280734
0.368003
0.330766
0.480955
0.390617
0.493522
0.464088
0.530947
0.540583
0.535623
0.329229
0.302495
0.539565
0.536607
0.523293
0.321326
0.536559
0.347432
0.517629
0.341951
0.327056
0.397081
0.327583
0.408453
0.539799
0.533291
0.392032
0.328828
0.376457
0.454556
0.533663
0.538506
0.527731
0.536382
0.487578
0.499034
0.395831
0.488276
0.502622
0.328834
0.322778
0.491804
0.544311
0.542034
0.423928
0.533242
0.534072
0.312676
0.54725
0.523801
0.327985
0.532916
0.533735
0.521005
0.54336
0.321725
0.542886
0.327869
0.317156
0.549815
0.515323
0.542156
0.322135
0.362686
0.329445
0.53362
0.321912
0.383826
0.53492
0.330279
0.323467
0.324302
0.490198
0.533616
0.305769
0.336991
0.406753
0.51795
0.533637
0.415716
0.299643
0.532743
0.472147
0.359653
0.495414
0.490026
0.533673
0.33142
0.485824
0.533923
0.547435
0.532362
0.51724
0.317228
0.313141
0.485029
0.392925
0.330922
0.540184
0.529782
0.351083
0.47367
0.327812
0.324533
0.303706
0.534627
0.327121
0.328302
0.324106
0.311973
0.285843
0.533426
0.514931
0.340404
0.297569
0.535341
0.385734
0.306673
0.433481
0.550581
0.500676
0.334296
0.53506
0.30602
0.555522
0.323266
0.533651
0.448706
0.533731
0.527971
0.533681
0.316523
0.33613
0.520964
0.533659
0.533847
0.533661
0.533498
0.54362
0.325078
0.541447
0.547939
0.533569
0.325357
0.325156
0.531142
0.539096
0.53364
0.536046
0.41586
0.533262
0.321798
0.330301
0.309599
0.328387
0.46816
0.547253
0.499676
0.323785
0.529048
0.328295
0.33846
0.483987
0.321278
0.49513
0.548265
0.533633
0.541103
0.316743
0.533628
0.532285
0.533569
0.538378
0.321481
0.328259
0.330286
0.450692
0.321043
0.32885
0.260076
0.251386
0.521589
0.323774
0.522847
0.547067
0.309526
0.324251
0.328813
0.35367
0.290626
0.519672
0.456248
0.488416
0.321402
0.534351
0.458767
0.330483
0.320041
0.533722
0.539072
0.532486
0.2984
0.533963
0.322491
0.532736
0.551801
0.540686
0.550915
0.332399
0.535077
0.326954
0.53347
0.550876
0.521579
0.325022
0.259833
0.548424
0.333809
0.508139
0.55132
0.28528
0.535406
0.543918
0.329154
0.528853
0.546121
0.321933
0.541029
0.352065
0.449216
0.532443
0.357308
0.53317
0.324664
0.5423
0.269233
0.533477
0.451361
0.548395
0.333956
0.279565
0.52375
0.316182
0.539545
0.477318
0.329044
0.533665
0.307376
0.31858
0.537691
0.433687
0.521761
0.328383
0.327432
0.541317
0.546874
0.322702
0.546003
0.332902
0.333371
0.535217
0.536174
0.357148
0.322435
0.538455
0.533695
0.534005
0.527773
0.540909
0.424068
0.258523
0.325939
0.302999
0.534003
0.30371
0.405109
0.289197
0.31984
0.27488
0.365008
0.110182
0.316924
0.52449
0.262084
0.54351
0.4726
0.532817
0.514344
0.541979
0.318651
0.327509
0.322063
0.266232
0.537421
0.460787
0.532732
0.473079
0.503956
0.482486
0.497066
0.484269
0.500561
0.539842
0.539657
0.533821
0.314345
0.357429
0.423744
0.324913
0.453211
0.453962
0.323952
0.535416
0.533661
0.332951
0.326742
0.328565
0.302073
0.492679
0.324791
0.331422
0.534858
0.331603
0.448407
0.32893
0.533491
0.527913
0.290712
0.329048
0.537261
0.354879
0.32887
0.300312
0.320389
0.330508
0.329001
0.32705
0.327524
0.338275
0.323728
0.4549
0.308565
0.521931
0.297139
0.358472
0.394293
0.335599
0.325137
0.334111
0.531437
0.342761
0.500274
0.369993
0.335029
0.475666
0.520214
0.350109
0.535049
0.483432
0.482294
0.329401
0.533727
0.304154
0.541686
0.533621
0.32754
0.32677
0.470875
0.267858
0.358488
0.453784
0.279946
0.532158
0.504968
0.308166
0.320912
0.322166
0.380349
0.318707
0.322741
0.322447
0.327385
0.552483
0.553036
0.358757
0.468231
0.375827
0.485625
0.275217
0.322678
0.413692
0.327673
0.533053
0.230655
0.290833
0.388762
0.529779
0.51152
0.438638
0.28385
0.326762
0.445889
0.549283
0.533791
0.442956
0.485847
0.467133
0.325902
0.527102
0.445186
0.520043
0.24349
0.292923
0.530168
0.547655
0.513487
0.550827
0.513107
0.493854
0.542425
0.52038
0.532789
0.312987
0.529555
0.266078
0.327161
0.327924
0.554572
0.530241
0.242291
0.5219
0.486066
0.325292
0.533578
0.538554
0.536997
0.331195
0.32254
0.54088
0.328655
0.311229
0.311843
0.326726
0.531133
0.323665
0.554587
0.309073
0.514934
0.544239
0.53555
0.546996
0.328344
0.308941
0.531555
0.556406
0.509872
0.552204
0.547716
0.390331
0.328937
0.329666
0.534054
0.411835
0.327937
0.354672
0.316163
0.53154
0.533132
0.243538
0.326924
0.520228
0.365078
0.525123
0.51549
0.326519
0.306719
0.506568
0.533681
0.328645
0.510614
0.515001
0.531012
0.313987
0.533616
0.310581
0.533722
0.519058
0.321234
0.28528
0.328347
0.533663
0.32804
0.322602
0.302905
0.533571
0.535379
0.323876
0.325932
0.327733
0.533701
0.322977
0.533825
0.328988
0.459669
0.550612
0.299625
0.328018
0.328241
0.390693
0.332248
0.502744
0.297708
0.324082
0.53349
0.323029
0.534492
0.505007
0.533725
0.303466
0.533625
0.545227
0.547149
0.534141
0.518445
0.535073
0.32888
0.533786
0.342239
0.52858
0.32129
0.544345
0.394098
0.322527
0.533592
0.542718
0.321128
0.486689
0.312842
0.322645
0.534812
0.531152
0.305387
0.32796
0.324457
0.335644
0.528765
0.544227
0.315129
0.301875
0.539507
0.538331
0.461121
0.54478
0.533231
0.322346
0.548493
0.334228
0.545108
0.303422
0.46393
0.378191
0.534934
0.522742
0.451932
0.268112
0.332953
0.532098
0.473367
0.400961
0.544367
0.328355
0.530851
0.546904
0.286525
0.355446
0.545639
0.28346
0.533581
0.521738
0.256314
0.537322
0.503798
0.306658
0.534329
0.329893
0.515985
0.299723
0.534535
0.505307
0.335148
0.533848
0.543294
0.541499
0.487027
0.528437
0.45714
0.322864
0.324575
0.298029
0.330841
0.533613
0.435865
0.537152
0.543794
0.307574
0.323226
0.531664
0.551321
0.537631
0.548305
0.323872
0.539804
0.547847
0.328183
0.30939
0.53971
0.53111
0.519351
0.325395
0.463395
0.310312
0.533588
0.503295
0.533786
0.520681
0.328165
0.528103
0.522754
0.545371
0.530169
0.533334
0.338826
0.540614
0.324502
0.485191
0.548979
0.362349
0.506172
0.533797
0.543817
0.312902
0.314416
0.458052
0.508224
0.329727
0.3239
0.317464
0.323838
0.516395
0.53049
0.533494
0.250533
0.322962
0.536113
0.53185
0.322556
0.324605
0.363738
0.516714
0.532429
0.527214
0.537799
0.324319
0.330253
0.53362
0.34465
0.323181
0.300201
0.532899
0.318939
0.327005
0.449261
0.530134
0.490268
0.533914
0.532843
0.331177
0.32225
0.317801
0.36948
0.342366
0.319747
0.521821
0.537387
0.515935
0.533935
0.335031
0.302007
0.55058
0.328911
0.533307
0.504892
0.533734
0.305372
0.318851
0.511369
0.533547
0.436144
0.32167
0.524401
0.533944
0.44582
0.542182
0.547641
0.533622
0.486074
0.324379
0.532943
0.533535
0.478558
0.53386
0.533659
0.494809
0.533706
0.537808
0.324519
0.318934
0.305168
0.533733
0.392982
0.330294
0.531527
0.539943
0.292871
0.492743
0.288676
0.496798
0.363933
0.318273
0.551597
0.543727
0.329006
0.432523
0.53371
0.329044
0.522942
0.335158
0.334502
0.479205
0.474171
0.394204
0.532347
0.317082
0.542773
0.322273
0.31865
0.534451
0.327606
0.469257
0.319021
0.492044
0.46514
0.533699
0.513522
0.324022
0.32353
0.473553
0.332518
0.537346
0.356637
0.459771
0.533703
0.54517
0.343742
0.478804
0.488907
0.547708
0.535999
0.271982
0.322216
0.424464
0.487187
0.548151
0.294465
0.532396
0.437646
0.321704
0.309698
0.522832
0.517403
0.533685
0.533643
0.458047
0.531576
0.533709
0.523474
0.319079
0.513711
0.361691
0.538009
0.530613
0.242955
0.497184
0.545155
0.319058
0.319452
0.332177
0.533661
0.32212
0.479072
0.537969
0.51491
0.307421
0.524123
0.331537
0.46296
0.533828
0.533505
0.520462
0.533679
0.482423
0.527116
0.408065
0.528157
0.298089
0.533137
0.535448
0.31695
0.533707
0.531637
0.328971
0.325206
0.327837
0.541081
0.324439
0.533608
0.314355
0.548428
0.326638
0.378654
0.324555
0.541216
0.547661
0.414237
0.213989
0.482334
0.533432
0.317691
0.460319
0.553388
0.324365
0.45739
0.533558
0.550295
0.533435
0.325953
0.36587
0.53871
0.532077
0.486421
0.324755
0.311804
0.526073
0.533663
0.533677
0.533688
0.426385
0.533647
0.422679
0.536118
0.324771
0.330593
0.533691
0.545356
0.533587
0.334562
0.533053
0.432449
0.465903
0.305383
0.327605
0.54631
0.557353
0.434581
0.263279
0.533382
0.533711
0.322273
0.4761
0.537613
0.322073
0.356114
0.325153
0.471482
0.326192
0.311716
0.527989
0.362775
0.548397
0.497531
0.322519
0.328844
0.551212
0.317447
0.325147
0.533548
0.331649
0.276148
0.460372
0.51465
0.533678
0.322991
0.261319
0.323123
0.506192
0.334016
0.534251
0.321947
0.532261
0.4868
0.529397
0.491188
0.526973
0.501535
0.532577
0.546653
0.536531
0.32289
0.322195
0.52088
0.533774
0.399096
0.48114
0.435562
0.533756
0.477193
0.290221
0.535988
0.552552
0.526767
0.325252
0.528778
0.302931
0.53363
0.392928
0.540413
0.534112
0.318262
0.537322
0.328822
0.332876
0.5078
0.299151
0.532624
0.533694
0.53768
0.30283
0.534806
0.324819
0.305716
0.31891
0.32344
0.470654
0.32285
0.490494
0.533771
0.266049
0.331517
0.385068
0.455238
0.492
0.487975
0.305696
0.335179
0.32263
0.3246
0.213636
0.491568
0.497676
0.330931
0.533464
0.537548
0.325252
0.552498
0.531285
0.533785
0.324887
0.533603
0.527342
0.540865
0.537976
0.318699
0.534704
0.542291
0.5293
0.523504
0.533316
0.327463
0.324191
0.533502
0.42309
0.320116
0.53435
0.330321
0.448742
0.486452
0.514227
0.517422
0.308002
0.479666
0.311889
0.324983
0.536082
0.541082
0.54431
0.540966
0.511102
0.306025
0.547703
0.323043
0.398237
0.549362
0.533601
0.538308
0.325308
0.324911
0.548546
0.324668
0.540383
0.507922
0.336498
0.325353
0.535175
0.321032
0.534053
0.539969
0.508577
0.320571
0.318479
0.394432
0.402724
0.482432
0.369277
0.533353
0.487986
0.52416
0.533616
0.532997
0.326036
0.327292
0.541966
0.533316
0.483808
0.362552
0.331068
0.524736
0.322343
0.533115
0.482589
0.264882
0.536976
0.323686
0.506005
0.295818
0.545073
0.316226
0.532731
0.533625
0.278472
0.519823
0.507775
0.267752
0.533495
0.531474
0.434034
0.335645
0.286968
0.36408
0.545663
0.470084
0.32081
0.459843
0.534979
0.533535
0.299802
0.473228
0.519465
0.364766
0.533337
0.533557
0.236268
0.536311
0.533571
0.293913
0.464764
0.303502
0.495058
0.311627
0.334039
0.547306
0.317684
0.326559
0.324221
0.535185
0.512255
0.316671
0.533264
0.283872
0.515882
0.324905
0.515324
0.289822
0.533726
0.533845
0.50185
0.533621
0.435452
0.533652
0.533759
0.301354
0.498959
0.506095
0.377272
0.532481
0.389744
0.316014
0.547435
0.309074
0.447393
0.286235
0.532657
0.322212
0.331328
0.543807
0.532875
0.309919
0.537142
0.53747
0.533644
0.547942
0.533685
0.324377
0.551902
0.327669
0.327345
0.519437
0.538661
0.551248
0.522112
0.316473
0.31093
0.322439
0.515659
0.533735
0.286068
0.523457
0.336193
0.308546
0.305953
0.520762
0.303668
0.549057
0.536842
0.498094
0.530378
0.535913
0.44605
0.496328
0.343909
0.331427
0.310022
0.533679
0.533648
0.334476
0.49109
0.469128
0.497783
0.326296
0.310357
0.491089
0.220257
0.485531
0.461579
0.328698
0.533511
0.517842
0.329875
0.533134
0.324703
0.536965
0.549214
0.527384
0.32316
0.372102
0.531432
0.238448
0.351311
0.530438
0.245268
0.533501
0.535935
0.494752
0.537759
0.260183
0.533635
0.535564
0.531987
0.287312
0.542432
0.323969
0.332304
0.523609
0.532612
0.533569
0.186927
0.534342
0.498673
0.533602
0.336104
0.330889
0.328629
0.539727
0.322308
0.322332
0.306657
0.459851
0.323109
0.245939
0.35021
0.534223
0.327912
0.53358
0.533662
0.533407
0.301975
0.535574
0.511394
0.533468
0.329002
0.521734
0.323093
0.310586
0.534718
0.324214
0.487769
0.533947
0.533695
0.324668
0.260045
0.321368
0.44181
0.533683
0.185005
0.527235
0.535088
0.538716
0.325555
0.323704
0.272108
0.469328
0.330218
0.533687
0.476511
0.533672
0.526943
0.322844
0.488109
0.326809
0.437008
0.509375
0.551145
0.443021
0.372651
0.521503
0.486928
0.542726
0.307134
0.292401
0.323387
0.539942
0.416412
0.533609
0.327734
0.313882
0.540822
0.535335
0.533519
0.32328
0.534012
0.440449
0.442826
0.472204
0.330929
0.326251
0.234868
0.532628
0.533815
0.5223
0.483888
0.271177
0.538438
0.516695
0.533814
0.533474
0.538367
0.552351
0.533996
0.537593
0.54382
0.326573
0.537017
0.541726
0.533151
0.538223
0.532283
0.449723
0.326397
0.335107
0.481487
0.322977
0.263428
0.533304
0.324094
0.501123
0.535788
0.512512
0.527416
0.328677
0.534748
0.316032
0.332545
0.534035
0.532979
0.534061
0.298158
0.545208
0.532453
0.479347
0.532607
0.325488
0.5332
0.548881
0.518114
0.318034
0.541706
0.325081
0.557083
0.302097
0.32647
0.406633
0.35383
0.551471
0.542087
0.533471
0.307922
0.533247
0.318373
0.323945
0.507957
0.388165
0.325439
0.532869
0.322751
0.40601
0.521885
0.496018
0.516731
0.387199
0.469806
0.513098
0.533784
0.447601
0.544307
0.421942
0.551913
0.480541
0.506506
0.333736
0.323642
0.353298
0.54098
0.328366
0.519947
0.537437
0.470896
0.533833
0.404669
0.531892
0.524698
0.326167
0.536543
0.475935
0.381517
0.478821
0.548398
0.504025
0.53353
0.324734
0.324877
0.529215
0.418836
0.424445
0.538315
0.533246
0.533668
0.54771
0.548881
0.484833
0.48579
0.551099
0.322353
0.323409
0.322612
0.298776
0.533684
0.361036
0.419617
0.536705
0.528639
0.327534
0.528247
0.555844
0.297219
0.295596
0.533602
0.538338
0.332071
0.307979
0.313544
0.533645
0.493318
0.32141
0.326207
0.328859
0.332423
0.27229
0.322514
0.553367
0.534014
0.530104
0.309601
0.51343
0.472998
0.480725
0.30083
0.326489
0.506268
0.533699
0.327918
0.533529
0.329828
0.54349
0.327396
0.532813
0.301097
0.516614
0.547038
0.304955
0.444209
0.322707
0.552185
0.331931
0.476086
0.330518
0.396905
0.323821
0.469074
0.317812
0.533614
0.533609
0.47902
0.526087
0.288977
0.515629
0.533415
0.546002
0.471048
0.516641
0.326974
0.305399
0.332942
0.546182
0.229605
0.544863
0.430322
0.538442
0.550253
0.359507
0.54049
0.324115
0.334754
0.322321
0.400573
0.405004
0.532601
0.320288
0.328973
0.534326
0.300253
0.319582
0.431416
0.291095
0.327846
0.335804
0.552921
0.514024
0.479703
0.329187
0.512882
0.53275
0.332135
0.256175
0.523044
0.533033
0.439757
0.408552
0.326378
0.28661
0.313167
0.529268
0.477862
0.40957
0.534277
0.324994
0.445532
0.323298
0.533623
0.544907
0.327699
0.327308
0.483345
0.425922
0.54674
0.543809
0.546033
0.537575
0.549448
0.308943
0.325038
0.320282
0.32152
0.420725
0.533688
0.515414
0.322327
0.303667
0.353987
0.356438
0.533571
0.495105
0.324566
0.243646
0.535769
0.329414
0.512008
0.542294
0.508462
0.533312
0.430319
0.319001
0.308481
0.481192
0.32796
0.328478
0.316027
0.533542
0.532203
0.289575
0.328272
0.533609
0.316735
0.533987
0.546209
0.318969
0.31967
0.327302
0.535449
0.3293
0.53369
0.534357
0.471261
0.30325
0.419449
0.54171
0.525045
0.324701
0.522519
0.483213
0.374731
0.539114
0.555716
0.325318
0.317366
0.510455
0.321369
0.321211
0.518842
0.274116
0.532839
0.532212
0.545554
0.489126
0.545152
0.535663
0.53377
0.322159
0.325733
0.49217
0.531261
0.37189
0.552211
0.256946
0.537565
0.518054
0.446702
0.508302
0.305986
0.360583
0.528961
0.542563
0.477871
0.547312
0.534797
0.533603
0.54707
0.533612
0.520417
0.510068
0.53498
0.533701
0.533761
0.280882
0.501214
0.299786
0.534863
0.537143
0.539452
0.500418
0.537339
0.318595
0.317862
0.242054
0.324499
0.506663
0.319926
0.32482
0.529292
0.32515
0.537053
0.313762
0.519062
0.535088
0.316105
0.302499
0.258721
0.5401
0.328798
0.531986
0.537046
0.320804
0.504022
0.438569
0.272314
0.331479
0.325052
0.538126
0.317539
0.535702
0.401756
0.323367
0.531623
0.532955
0.545992
0.329678
0.450431
0.326653
0.515001
0.533744
0.535557
0.32652
0.53044
0.538429
0.488866
0.3203
0.539985
0.331127
0.325235
0.529108
0.357192
0.549177
0.315281
0.326946
0.351825
0.495842
0.329303
0.231488
0.301137
0.376115
0.533574
0.536561
0.329514
0.468041
0.534861
0.442815
0.329526
0.263249
0.440456
0.330909
0.32401
0.529822
0.325906
0.33038
0.542216
0.553919
0.296913
0.541394
0.310368
0.533599
0.330918
0.509221
0.53375
0.538381
0.533562
0.323426
0.323715
0.322254
0.533796
0.511971
0.467839
0.426063
0.294384
0.240444
0.533286
0.322476
0.533252
0.30331
0.533753
0.524144
0.298532
0.293802
0.327555
0.328003
0.296986
0.482213
0.50877
0.30126
0.536242
0.499335
0.319076
0.322315
0.553861
0.325106
0.534804
0.338863
0.538058
0.513024
0.535498
0.533584
0.325152
0.548921
0.533397
0.555105
0.320042
0.475348
0.47285
0.261385
0.540982
0.498985
0.547608
0.513666
0.549492
0.527902
0.550709
0.533116
0.531683
0.309699
0.545163
0.327863
0.360459
0.530193
0.324222
0.520551
0.474682
0.328467
0.490072
0.318049
0.316488
0.522742
0.46671
0.553493
0.326626
0.51342
0.486601
0.325572
0.306843
0.508549
0.53288
0.299
0.307464
0.537431
0.553324
0.312761
0.502915
0.547788
0.516251
0.305018
0.331311
0.31648
0.514247
0.31396
0.523119
0.539922
0.533301
0.473116
0.535376
0.326394
0.518813
0.486412
0.54686
0.440489
0.327753
0.321972
0.331359
0.543951
0.537992
0.336754
0.511315
0.256691
0.503306
0.536428
0.328574
0.482253
0.523985
0.48791
0.308065
0.326747
0.293738
0.539641
0.549094
0.484589
0.408114
0.535405
0.328952
0.496982
0.53362
0.530615
0.30796
0.494376
0.328681
0.48073
0.333546
0.530539
0.522743
0.329469
0.539428
0.334372
0.533699
0.500167
0.533674
0.540126
0.325158
0.533327
0.533236
0.532944
0.531296
0.383607
0.533618
0.325708
0.533368
0.329293
0.301906
0.326958
0.295532
0.329958
0.303947
0.549793
0.290249
0.322144
0.514709
0.539805
0.510683
0.322488
0.534387
0.533627
0.533344
0.276996
0.451945
0.535436
0.320739
0.303936
0.323042
0.492286
0.403589
0.317792
0.457901
0.334742
0.533674
0.398123
0.327347
0.375153
0.509434
0.291279
0.533219
0.323768
0.368149
0.296829
0.531828
0.303425
0.509998
0.533606
0.462307
0.327789
0.324664
0.526285
0.552456
0.307879
0.305682
0.533663
0.32442
0.541338
0.311023
0.442011
0.331872
0.535578
0.324407
0.551329
0.301723
0.536231
0.53616
0.543216
0.533707
0.32775
0.328578
0.321963
0.496672
0.528576
0.494559
0.407172
0.329229
0.539336
0.267297
0.509865
0.455232
0.315583
0.32732
0.543382
0.530379
0.329102
0.533647
0.530141
0.543359
0.545562
0.323605
0.499021
0.329099
0.543457
0.315424
0.533547
0.5049
0.512269
0.551797
0.319884
0.556818
0.318385
0.32441
0.533902
0.533708
0.431046
0.529925
0.533672
0.325404
0.542925
0.528934
0.549226
0.306478
0.337454
0.531191
0.322374
0.537895
0.537135
0.522739
0.534258
0.227653
0.353
0.509252
0.328887
0.51795
0.552961
0.372303
0.520005
0.215889
0.482978
0.543137
0.529891
0.520134
0.325132
0.332585
0.532819
0.520974
0.328231
0.263908
0.323563
0.328131
0.322284
0.33456
0.291253
0.321354
0.532262
0.327706
0.296984
0.536568
0.429486
0.533606
0.313323
0.327877
0.535245
0.368591
0.373438
0.54755
0.293388
0.51789
0.533753
0.480684
0.517117
0.325356
0.536877
0.53381
0.321165
0.324291
0.316121
0.471993
0.480059
0.549346
0.533991
0.531301
0.520026
0.292196
0.537755
0.533805
0.507934
0.326213
0.535954
0.448963
0.286723
0.342094
0.323537
0.323677
0.32424
0.464099
0.522905
0.521915
0.324178
0.308228
0.547719
0.28396
0.537123
0.533221
0.523044
0.530109
0.535135
0.320806
0.325841
0.335851
0.444517
0.319382
0.534245
0.320322
0.534654
0.533451
0.536745
0.299413
0.353911
0.323909
0.535772
0.307053
0.322711
0.533032
0.516874
0.484438
0.533868
0.504105
0.540946
0.324827
0.49271
0.545163
0.420768
0.53474
0.538723
0.541929
0.364801
0.338352
0.550347
0.395066
0.47923
0.326406
0.502453
0.523442
0.317665
0.313534
0.513293
0.402121
0.543079
0.53709
0.318108
0.328957
0.533573
0.299413
0.324627
0.524807
0.50944
0.327251
0.527216
0.533737
0.501995
0.302066
0.465139
0.325738
0.527221
0.544655
0.540836
0.519572
0.533696
0.252687
0.283611
0.529536
0.320548
0.480338
0.324229
0.536053
0.334068
0.507096
0.544784
0.533689
0.325827
0.533678
0.533581
0.323386
0.503018
0.315461
0.553941
0.326302
0.303428
0.315999
0.526442
0.529839