# vtk DataFile Version 1.0
unstructured grid
ascii
DATASET UNSTRUCTURED_GRID
points 13672 float
0.0796578 -0.059106 0
0.00128732 0.00159165 0
0.00227961 -0.00102548 0
0.0791586 -0.0598787 0
-0.0546216 0.01 0
0.000495206 0.025 0
0.0800549 -0.035 0
0.135172 -0.08 0
-0.0546216 -0.0451168 0
0.000495206 -0.0301168 0
0.0800549 -0.0901168 0
0.135172 -0.135117 0
-0.0546216 -0.0451168 -0.00551168
0.000495206 -0.0301168 -0.00551168
0.0800549 -0.0901168 -0.00551168
0.135172 -0.135117 -0.00551168
0.135172 -0.08 -0.00551168
0.0800549 -0.035 -0.00551168
0.000495206 0.025 -0.00551168
-0.0546216 0.01 -0.00551168
0.00128732 0.00159165 -0.00551168
0.00227961 -0.00102548 -0.00551168
0.0791586 -0.0598787 -0.00551168
0.0796578 -0.059106 -0.00551168
0.00165953 -0.000990923 0
0.00119576 -0.000874076 0
0.000866021 -0.000641801 0
0.000645147 -0.000349912 0
0.00052235 -1.7281e-05 0
0.00049972 0.000348016 0
0.000601632 0.000737716 0
0.000861774 0.0011403 0
0.00157235 0.00183217 0
0.00188647 0.00206725 0
0.00222612 0.00230203 0
0.00258713 0.00254351 0
0.00296826 0.00279524 0
0.00337118 0.00305664 0
0.00379785 0.00332658 0
0.00425045 0.00360349 0
0.00473139 0.00388521 0
0.0052432 0.00416895 0
0.0057881 0.00445204 0
0.00636753 0.00473281 0
0.00698281 0.00500961 0
0.00763526 0.00528058 0
0.00832616 0.00554366 0
0.00905691 0.00579603 0
0.00982918 0.00603333 0
0.0106445 0.00625033 0
0.0115038 0.00644128 0
0.0124073 0.00660297 0
0.0133543 0.00673414 0
0.0143444 0.00683382 0
0.0153769 0.00690031 0
0.0164512 0.00693173 0
0.0175666 0.00692547 0
0.0187219 0.00687822 0
0.0199156 0.00678477 0
0.0211454 0.00663864 0
0.0224084 0.00643275 0
0.0237018 0.00616676 0
0.0250249 0.00584739 0
0.026375 0.00547298 0
0.0277479 0.00503752 0
0.0291386 0.00453545 0
0.0305433 0.0039653 0
0.0319572 0.0033256 0
0.0333681 0.00260019 0
0.034775 0.00179799 0
0.0361793 0.000930615 0
0.0375798 3.12222e-06 0
0.0389689 -0.000988429 0
0.0403357 -0.00205109 0
0.041675 -0.00318283 0
0.0429849 -0.00437751 0
0.0442643 -0.00562904 0
0.0455126 -0.00693089 0
0.0467314 -0.00827518 0
0.0479204 -0.00965638 0
0.0490661 -0.0110799 0
0.0501515 -0.0125519 0
0.0511696 -0.0140695 0
0.0521492 -0.0156071 0
0.0531202 -0.0171411 0
0.0540851 -0.0186663 0
0.0550431 -0.0201798 0
0.0559923 -0.0216793 0
0.0569311 -0.0231626 0
0.0578582 -0.0246273 0
0.0587723 -0.0260715 0
0.0596721 -0.027493 0
0.0605563 -0.02889 0
0.0614241 -0.0302609 0
0.0622742 -0.0316042 0
0.063106 -0.0329183 0
0.0639186 -0.034202 0
0.0647113 -0.0354543 0
0.0654835 -0.0366743 0
0.0662345 -0.0378613 0
0.0669642 -0.0390145 0
0.0676726 -0.0401333 0
0.0683597 -0.0412172 0
0.0690246 -0.0422665 0
0.0696662 -0.0432819 0
0.0702841 -0.0442636 0
0.0708793 -0.0452111 0
0.0714538 -0.0461237 0
0.072009 -0.047001 0
0.0725452 -0.0478434 0
0.0730611 -0.0486524 0
0.073556 -0.0494294 0
0.0740291 -0.0501756 0
0.0744812 -0.0508916 0
0.0749138 -0.0515773 0
0.0753285 -0.0522331 0
0.0757266 -0.0528592 0
0.076109 -0.0534564 0
0.0764753 -0.0540264 0
0.0768243 -0.054571 0
0.0771553 -0.0550919 0
0.0774679 -0.0555901 0
0.0777617 -0.0560669 0
0.0780369 -0.056523 0
0.0782958 -0.0569578 0
0.0785421 -0.0573703 0
0.0787786 -0.0577603 0
0.0790073 -0.0581279 0
0.0792295 -0.058474 0
0.0794462 -0.0587995 0
0.0798803 -0.0594162 0
0.0800272 -0.0596588 0
0.0800357 -0.0598891 0
0.0799275 -0.0600784 0
0.0797205 -0.0601773 0
0.0794593 -0.0601051 0
0.0789155 -0.0596491 0
0.0786707 -0.0593963 0
0.0784111 -0.0591319 0
0.0781372 -0.0588542 0
0.0778566 -0.0585548 0
0.0775715 -0.0582308 0
0.0772803 -0.0578828 0
0.0769832 -0.0575099 0
0.0766822 -0.0571097 0
0.0763801 -0.0566796 0
0.0760759 -0.0562196 0
0.0757623 -0.0557337 0
0.0754359 -0.0552232 0
0.0750951 -0.0546879 0
0.0747379 -0.054128 0
0.0743626 -0.0535435 0
0.0739688 -0.0529338 0
0.0735559 -0.0522981 0
0.0731238 -0.0516357 0
0.0726718 -0.050946 0
0.0721991 -0.0502288 0
0.0717046 -0.049484 0
0.0711872 -0.0487117 0
0.0706461 -0.047912 0
0.0700804 -0.0470849 0
0.0694892 -0.0462308 0
0.0688718 -0.0453499 0
0.0682271 -0.0444431 0
0.0675544 -0.043511 0
0.0668527 -0.0425546 0
0.0661215 -0.0415748 0
0.06536 -0.040573 0
0.0645676 -0.0395504 0
0.0637439 -0.0385087 0
0.0628887 -0.0374493 0
0.062002 -0.0363741 0
0.0610838 -0.0352847 0
0.0601345 -0.0341831 0
0.0591547 -0.033071 0
0.0581456 -0.0319502 0
0.0571083 -0.0308224 0
0.0560444 -0.0296893 0
0.0549562 -0.028552 0
0.053845 -0.0274126 0
0.0527113 -0.0262746 0
0.051554 -0.0251427 0
0.0503724 -0.0240222 0
0.0491675 -0.0229164 0
0.047941 -0.0218282 0
0.0466955 -0.0207597 0
0.0454337 -0.0197126 0
0.0441592 -0.0186878 0
0.0428751 -0.0176863 0
0.0415841 -0.0167097 0
0.0402878 -0.0157609 0
0.0389879 -0.0148428 0
0.0376864 -0.0139575 0
0.0363853 -0.013107 0
0.0350871 -0.0122931 0
0.0337942 -0.0115164 0
0.0325095 -0.0107772 0
0.0312357 -0.0100756 0
0.0299758 -0.00941024 0
0.0287337 -0.00877784 0
0.0275126 -0.00817571 0
0.0263139 -0.00760375 0
0.0251376 -0.00706528 0
0.0239829 -0.0065649 0
0.0228537 -0.00609619 0
0.0217522 -0.00565563 0
0.0206795 -0.00524226 0
0.0196364 -0.00485507 0
0.0186233 -0.00449318 0
0.0176408 -0.00415577 0
0.016689 -0.00384204 0
0.0157682 -0.00355115 0
0.0148783 -0.00328218 0
0.0140192 -0.00303468 0
0.0131906 -0.00280795 0
0.0123925 -0.00260016 0
0.0116246 -0.00241012 0
0.0108864 -0.00223769 0
0.0101774 -0.00208212 0
0.00949701 -0.00194206 0
0.00884483 -0.0018163 0
0.0082202 -0.0017039 0
0.00762247 -0.00160391 0
0.00705097 -0.00151528 0
0.006505 -0.00143697 0
0.0059838 -0.00136806 0
0.00548662 -0.00130772 0
0.00501265 -0.00125519 0
0.00456114 -0.00120954 0
0.00413136 -0.00116914 0
0.00372257 -0.00113251 0
0.00333398 -0.00109853 0
0.00296466 -0.00106798 0
0.00261363 -0.0010431 0
-0.052721 -0.0445996 0
-0.0508204 -0.0440823 0
-0.0489199 -0.0435651 0
-0.0470193 -0.0430478 0
-0.0451187 -0.0425306 0
-0.0432181 -0.0420134 0
-0.0413175 -0.0414961 0
-0.039417 -0.0409789 0
-0.0375164 -0.0404616 0
-0.0356158 -0.0399444 0
-0.0337152 -0.0394271 0
-0.0318146 -0.0389099 0
-0.0299141 -0.0383927 0
-0.0280135 -0.0378754 0
-0.0261129 -0.0373582 0
-0.0242123 -0.0368409 0
-0.0223117 -0.0363237 0
-0.0204112 -0.0358065 0
-0.0185106 -0.0352892 0
-0.01661 -0.034772 0
-0.0147094 -0.0342547 0
-0.0128088 -0.0337375 0
-0.0109083 -0.0332202 0
-0.00900769 -0.032703 0
-0.00710711 -0.0321858 0
-0.00520653 -0.0316685 0
-0.00330595 -0.0311513 0
-0.00140537 -0.030634 0
0.00190689 -0.0299614 0
0.00332271 -0.0298498 0
0.00474133 -0.0297825 0
0.00616136 -0.0297597 0
0.0075814 -0.0297814 0
0.00900007 -0.0298477 0
0.010416 -0.0299583 0
0.0118278 -0.0301127 0
0.0132342 -0.0303103 0
0.0146339 -0.0305504 0
0.0160259 -0.0308322 0
0.0174091 -0.0311546 0
0.0187824 -0.0315166 0
0.020145 -0.031917 0
0.0214961 -0.0323546 0
0.0228351 -0.032828 0
0.0241613 -0.0333361 0
0.0254744 -0.0338774 0
0.0267738 -0.0344507 0
0.0280592 -0.0350545 0
0.0293306 -0.0356877 0
0.0305875 -0.0363488 0
0.0318301 -0.0370367 0
0.0330581 -0.0377501 0
0.0342717 -0.0384879 0
0.0354708 -0.0392489 0
0.0366556 -0.0400321 0
0.0378262 -0.0408363 0
0.0389828 -0.0416607 0
0.0401254 -0.0425042 0
0.0412543 -0.0433659 0
0.0423698 -0.0442451 0
0.043472 -0.0451408 0
0.0445612 -0.0460523 0
0.0456375 -0.0469789 0
0.0467013 -0.0479199 0
0.0477529 -0.0488746 0
0.0487923 -0.0498424 0
0.04982 -0.0508227 0
0.0508362 -0.051815 0
0.051841 -0.0528187 0
0.0528348 -0.0538333 0
0.0538178 -0.0548584 0
0.0547903 -0.0558935 0
0.0557524 -0.0569382 0
0.0567045 -0.0579922 0
0.0576467 -0.0590549 0
0.0585792 -0.0601261 0
0.0595024 -0.0612055 0
0.0604163 -0.0622926 0
0.0613212 -0.0633873 0
0.0622174 -0.0644891 0
0.0631049 -0.0655979 0
0.0639841 -0.0667134 0
0.064855 -0.0678353 0
0.0657179 -0.0689633 0
0.0665729 -0.0700974 0
0.0674202 -0.0712372 0
0.06826 -0.0723826 0
0.0690925 -0.0735333 0
0.0699178 -0.0746892 0
0.070736 -0.0758501 0
0.0715473 -0.0770159 0
0.0723518 -0.0781863 0
0.0731498 -0.0793612 0
0.0739412 -0.0805405 0
0.0747264 -0.081724 0
0.0755053 -0.0829116 0
0.0762781 -0.0841033 0
0.0770449 -0.0852987 0
0.0778059 -0.0864979 0
0.0785611 -0.0877007 0
0.0793108 -0.088907 0
0.0814681 -0.0912706 0
0.0828814 -0.0924245 0
0.0842946 -0.0935783 0
0.0857079 -0.0947322 0
0.0871211 -0.095886 0
0.0885344 -0.0970399 0
0.0899476 -0.0981937 0
0.0913609 -0.0993476 0
0.0927741 -0.100501 0
0.0941874 -0.101655 0
0.0956006 -0.102809 0
0.0970139 -0.103963 0
0.0984272 -0.105117 0
0.0998404 -0.106271 0
0.101254 -0.107424 0
0.102667 -0.108578 0
0.10408 -0.109732 0
0.105493 -0.110886 0
0.106907 -0.11204 0
0.10832 -0.113194 0
0.109733 -0.114348 0
0.111146 -0.115501 0
0.11256 -0.116655 0
0.113973 -0.117809 0
0.115386 -0.118963 0
0.116799 -0.120117 0
0.118213 -0.121271 0
0.119626 -0.122424 0
0.121039 -0.123578 0
0.122452 -0.124732 0
0.123866 -0.125886 0
0.125279 -0.12704 0
0.126692 -0.128194 0
0.128105 -0.129348 0
0.129519 -0.130501 0
0.130932 -0.131655 0
0.132345 -0.132809 0
0.133758 -0.133963 0
0.135172 -0.133216 0
0.135172 -0.131316 0
0.135172 -0.129415 0
0.135172 -0.127514 0
0.135172 -0.125614 0
0.135172 -0.123713 0
0.135172 -0.121813 0
0.135172 -0.119912 0
0.135172 -0.118012 0
0.135172 -0.116111 0
0.135172 -0.11421 0
0.135172 -0.11231 0
0.135172 -0.110409 0
0.135172 -0.108509 0
0.135172 -0.106608 0
0.135172 -0.104708 0
0.135172 -0.102807 0
0.135172 -0.100906 0
0.135172 -0.0990058 0
0.135172 -0.0971052 0
0.135172 -0.0952046 0
0.135172 -0.0933041 0
0.135172 -0.0914035 0
0.135172 -0.0895029 0
0.135172 -0.0876023 0
0.135172 -0.0857017 0
0.135172 -0.0838012 0
0.135172 -0.0819006 0
0.133758 -0.0788462 0
0.132345 -0.0776923 0
0.130932 -0.0765385 0
0.129519 -0.0753846 0
0.128105 -0.0742308 0
0.126692 -0.0730769 0
0.125279 -0.0719231 0
0.123866 -0.0707692 0
0.122452 -0.0696154 0
0.121039 -0.0684615 0
0.119626 -0.0673077 0
0.118213 -0.0661538 0
0.116799 -0.065 0
0.115386 -0.0638462 0
0.113973 -0.0626923 0
0.11256 -0.0615385 0
0.111146 -0.0603846 0
0.109733 -0.0592308 0
0.10832 -0.0580769 0
0.106907 -0.0569231 0
0.105493 -0.0557692 0
0.10408 -0.0546154 0
0.102667 -0.0534615 0
0.101254 -0.0523077 0
0.0998404 -0.0511538 0
0.0984272 -0.05 0
0.0970139 -0.0488462 0
0.0956006 -0.0476923 0
[...]
CELL_DATA 13116
SCALARS rho float
LOOKUP_TABLE default
0.453943
0.587568
0.335258
0.606278
0.612644
0.523983
0.338889
0.623699
0.424618
0.61403
0.339042
0.363141
0.612674
0.36311
0.330426
0.523673
0.430419
0.602882
0.539356
0.358025
0.455851
0.323083
0.376735
0.605918
0.50241
0.613916
0.614035
0.356939
0.496308
0.544445
0.532546
0.361777
0.450626
0.349416
0.3344
0.455609
0.571322
0.589868
0.52711
0.58865
0.520462
0.622984
0.336574
0.346258
0.557389
0.544856
0.575779
0.556565
0.335137
0.418395
0.61227
0.348276
0.350425
0.423571
0.449619
0.480037
0.354445
0.603187
0.430554
0.338158
0.365766
0.613305
0.5818
0.52757
0.531483
0.368164
0.528807
0.575016
0.547904
0.530778
0.32859
0.477198
0.319171
0.369087
0.534949
0.306053
0.558146
0.608668
0.349522
0.598508
0.587243
0.606553
0.606734
0.5816
0.59442
0.348466
0.363022
0.568005
0.606654
0.338842
0.374017
0.589336
0.609725
0.616374
0.550733
0.495696
0.504739
0.533519
0.53402
0.489646
0.576904
0.520156
0.522964
0.331326
0.569097
0.355558
0.275004
0.378074
0.369897
0.506765
0.405558
0.593366
0.493343
0.58875
0.599373
0.537251
0.36257
0.305077
0.602116
0.563494
0.574637
0.318064
0.55135
0.372546
0.619176
0.343288
0.361844
0.404907
0.368432
0.419679
0.600997
0.604422
0.396986
0.330827
0.378559
0.492182
0.539796
0.578622
0.575687
0.567498
0.541362
0.578722
0.403753
0.543438
0.569945
0.35811
0.332469
0.602546
0.610778
0.610323
0.435834
0.57718
0.553051
0.313528
0.612008
0.592332
0.377991
0.583861
0.533378
0.567707
0.604858
0.34035
0.606096
0.378119
0.313465
0.614189
0.615609
0.602189
0.335592
0.362299
0.327545
0.539611
0.333958
0.389626
0.53437
0.375984
0.322759
0.32085
0.589692
0.524146
0.335864
0.33779
0.426008
0.570911
0.52369
0.428746
0.333832
0.521578
0.565291
0.360541
0.545328
0.600465
0.530028
0.375932
0.589989
0.524086
0.611597
0.522903
0.606484
0.302635
0.331446
0.5125
0.399861
0.373275
0.608592
0.588885
0.356431
0.505529
0.343745
0.32947
0.307434
0.520807
0.378535
0.347116
0.33453
0.313079
0.287236
0.527103
0.618164
0.337237
0.353805
0.526539
0.399755
0.335257
0.446023
0.61363
0.567325
0.359973
0.53105
0.301087
0.633066
0.365481
0.530393
0.466694
0.534212
0.595284
0.529484
0.347789
0.338923
0.566618
0.535676
0.524347
0.538981
0.529199
0.624072
0.323516
0.598979
0.612669
0.533807
0.329969
0.335802
0.580444
0.597701
0.531104
0.597104
0.44205
0.588425
0.339281
0.363001
0.303504
0.343451
0.554183
0.611296
0.557317
0.360359
0.566493
0.358742
0.336401
0.570727
0.322485
0.608678
0.616715
0.53658
0.603042
0.345715
0.536794
0.592396
0.533725
0.576249
0.352414
0.366788
0.378412
0.487764
0.318144
0.331863
0.254478
0.349452
0.596817
0.345579
0.600695
0.613375
0.355142
0.351061
0.358964
0.353617
0.347216
0.566879
0.507278
0.582577
0.322738
0.521046
0.47668
0.368011
0.337864
0.526326
0.596374
0.521611
0.33403
0.523693
0.331717
0.603953
0.62115
0.602973
0.620517
0.37792
0.527378
0.338068
0.521362
0.613972
0.565406
0.35264
0.254254
0.613038
0.363735
0.591121
0.613399
0.307929
0.58973
0.606281
0.361439
0.572188
0.609554
0.346701
0.602918
0.350356
0.46485
0.633758
0.355903
0.584591
0.361568
0.603121
0.263789
0.528388
0.525409
0.61299
0.362675
0.276353
0.593171
0.315269
0.608759
0.572529
0.330814
0.53975
0.319124
0.313196
0.60527
0.446885
0.574798
0.366443
0.378379
0.59778
0.613561
0.333661
0.612473
0.365642
0.357306
0.552301
0.629407
0.370874
0.335324
0.581759
0.531918
0.523658
0.578885
0.605957
0.43628
0.324046
0.339491
0.339227
0.523993
0.339073
0.424483
0.287179
0.367677
0.271775
0.379731
0.107412
0.3166
0.591651
0.349414
0.607068
0.496768
0.531406
0.558521
0.601782
0.313447
0.365732
0.309173
0.322252
0.606748
0.489419
0.523343
0.497192
0.571059
0.518211
0.60428
0.530299
0.541679
0.605857
0.597611
0.525174
0.309348
0.362378
0.450458
0.321121
0.503977
0.47884
0.352077
0.534137
0.53632
0.37976
0.355734
0.34929
0.334727
0.521693
0.325414
0.376225
0.522678
0.364263
0.466832
0.345343
0.523182
0.591846
0.352055
0.329464
0.605667
0.354638
0.344505
0.338076
0.332955
0.370087
0.364471
0.355168
0.325482
0.336354
0.342401
0.517461
0.312057
0.599287
0.279843
0.365749
0.399072
0.350204
0.338814
0.352354
0.571158
0.342152
0.53344
0.382894
0.364522
0.508394
0.606463
0.347665
0.589137
0.521295
0.520723
0.362192
0.534086
0.305108
0.605411
0.533006
0.377654
0.339024
0.562311
0.321733
0.357037
0.528974
0.275138
0.582639
0.574518
0.348639
0.321597
0.332186
0.385634
0.335102
0.345934
0.331188
0.338153
0.613564
0.611928
0.358991
0.492821
0.377959
0.586501
0.276373
0.319362
0.428681
0.377472
0.601526
0.229184
0.287901
0.392994
0.561138
0.613297
0.452981
0.300568
0.339926
0.460264
0.622784
0.529921
0.456905
0.567503
0.551705
0.345758
0.59082
0.462445
0.564978
0.353095
0.345161
0.587734
0.612007
0.556803
0.613992
0.602137
0.618714
0.603469
0.564312
0.528503
0.328078
0.568552
0.261577
0.345339
0.346077
0.606751
0.586849
0.295187
0.596959
0.512668
0.351854
0.52858
0.593877
0.601926
0.356476
0.320376
0.608557
0.343518
0.340188
0.350836
0.346227
0.601857
0.345206
0.605534
0.311148
0.587012
0.60879
0.532846
0.613314
0.343308
0.345993
0.591381
0.63308
0.565477
0.613962
0.612453
0.394065
0.360976
0.374234
0.521164
0.425305
0.350082
0.354532
0.368651
0.622337
0.523943
0.353051
0.32344
0.599024
0.364519
0.588138
0.554541
0.367537
0.302089
0.56182
0.536094
0.376881
0.611508
0.617393
0.58753
0.31126
0.538938
0.359985
0.534538
0.563545
0.335733
0.287286
0.330677
0.53416
0.365903
0.350314
0.305417
0.527811
0.603383
0.351183
0.360027
0.34435
0.528193
0.319443
0.524112
0.35823
0.480786
0.613678
0.282882
0.377506
0.377243
0.394451
0.371343
0.613694
0.330271
0.320224
0.524537
0.334085
0.520949
0.587502
0.533995
0.335739
0.600295
0.608772
0.611313
0.52065
0.630987
0.548034
0.35664
0.530332
0.339194
0.60003
0.355591
0.622889
0.404026
0.33626
0.531923
0.609017
0.318665
0.531279
0.37306
0.326931
0.521586
0.571133
0.371994
0.357054
0.349271
0.352778
0.625967
0.606171
0.311715
0.347087
0.608459
0.578032
0.482825
0.608345
0.522033
0.340956
0.613113
0.333048
0.610425
0.307917
0.491265
0.380215
0.525651
0.576339
0.469614
0.275017
0.363476
0.526311
0.496219
0.426663
0.607788
0.342208
0.593256
0.611657
0.282569
0.360321
0.609486
0.32195
0.531286
0.567686
0.250834
0.582561
0.548619
0.307166
0.601221
0.378008
0.602645
0.31735
0.52076
0.580589
0.367823
0.527395
0.60663
0.609735
0.51417
0.595658
0.475298
0.338188
0.332972
0.296267
0.371397
0.540942
0.448985
0.559234
0.61048
0.333846
0.32342
0.59995
0.613874
0.606158
0.616868
0.354901
0.597677
0.612712
0.35637
0.31403
0.603189
0.577299
0.599377
0.3333
0.482369
0.352585
0.599566
0.587887
0.529655
0.59612
0.348943
0.600927
0.601575
0.608494
0.577277
0.520335
0.335318
0.605917
0.328823
0.551345
0.613241
0.361883
0.575423
0.529252
0.60787
0.326212
0.323418
0.476632
0.548635
0.344278
0.336513
0.31946
0.341132
0.587513
0.592796
0.529397
0.349484
0.342193
0.544838
0.582784
0.347371
0.325324
0.363671
0.573889
0.52381
0.581679
0.598086
0.329955
0.344342
0.53846
0.370324
0.344596
0.320358
0.520813
0.352369
0.341072
0.472764
0.59627
0.588339
0.525758
0.52063
0.365762
0.332444
0.321771
0.384395
0.341552
0.368636
0.574158
0.596524
0.598243
0.522288
0.34008
0.337183
0.613902
0.346679
0.520606
0.580654
0.532666
0.372015
0.332768
0.600765
0.532181
0.469461
0.346821
0.59008
0.525137
0.468817
0.607585
0.618496
0.537742
0.566318
0.354946
0.520672
0.531458
0.531673
0.599183
0.540937
0.593486
0.537501
0.570274
0.320804
0.31688
0.339628
0.531998
0.40338
0.347504
0.600405
0.608514
0.364285
0.538413
0.353938
0.546433
0.376148
0.342893
0.613241
0.605189
0.349209
0.444367
0.531896
0.37085
0.61436
0.369958
0.353992
0.514267
0.501393
0.398986
0.524444
0.31912
0.606168
0.320401
0.32501
0.520925
0.349938
0.499826
0.369959
0.538463
0.492411
0.537836
0.6138
0.338236
0.319752
0.536334
0.339427
0.606396
0.358455
0.488502
0.523833
0.60816
0.351035
0.503941
0.589598
0.612034
0.539707
0.266311
0.338833
0.435411
0.590548
0.612475
0.288254
0.52243
0.470937
0.308604
0.370445
0.567283
0.574132
0.53844
0.534487
0.529965
0.591377
0.527012
0.580272
0.370917
0.555738
0.361456
0.592028
0.57579
0.355869
0.642116
0.61233
0.314626
0.344732
0.361587
0.540824
0.341229
0.513326
0.603543
0.556822
0.366689
0.593889
0.373302
0.482033
0.528185
0.530006
0.572198
0.528231
0.512919
0.586181
0.42244
0.599814
0.320439
0.521303
0.530079
0.322799
0.536545
0.595205
0.379425
0.339875
0.367752
0.604027
0.33819
0.536777
0.321838
0.623819
0.338486
0.380734
0.366037
0.604694
0.615037
0.44055
0.307498
0.513377
0.526761
0.325894
0.482139
0.611175
0.365573
0.482305
0.532982
0.613635
0.520474
0.379155
0.375551
0.60781
0.540796
0.552233
0.337496
0.319581
0.586161
0.539088
0.536236
0.539517
0.449168
0.604726
0.444176
0.582269
0.338513
0.374003
0.53925
0.612074
0.527526
0.368431
0.520818
0.458562
0.501122
0.30595
0.323632
0.612668
0.617095
0.450347
0.31223
0.5238
0.535969
0.337163
0.503622
0.597878
0.336394
0.36026
0.337562
0.571279
0.323036
0.329606
0.576318
0.365827
0.612866
0.544735
0.337029
0.362083
0.614748
0.314545
0.324737
0.532168
0.360911
0.276987
0.486207
0.631263
0.603396
0.339356
0.356032
0.333827
0.588079
0.355859
0.602643
0.330639
0.601924
0.626048
0.564772
0.575844
0.599171
0.586323
0.521793
0.613061
0.60267
0.345765
0.324706
0.592422
0.526863
0.404408
0.576824
0.453072
0.527499
0.530396
0.351846
0.553742
0.612356
0.596562
0.328082
0.601573
0.315852
0.58433
0.396888
0.599454
0.520705
0.342613
0.606931
0.346532
0.335044
0.581985
0.319354
0.584073
0.540813
0.625031
0.328162
0.521686
0.338716
0.376346
0.36665
0.332863
0.526428
0.335923
0.543758
0.528758
0.315823
0.375786
0.387992
0.473616
0.530275
0.558398
0.333505
0.366494
0.33405
0.366227
0.316836
0.531376
0.598767
0.353628
0.528505
0.603345
0.337507
0.612005
0.581676
0.528412
0.326158
0.534963
0.594364
0.606827
0.598309
0.33319
0.604599
0.608833
0.601637
0.567487
0.524815
0.335466
0.368789
0.572671
0.433482
0.333699
0.521262
0.375138
0.464512
0.528107
0.601591
0.602179
0.373543
0.57458
0.302405
0.326625
0.591477
0.6096
0.609755
0.597965
0.563829
0.377949
0.613163
0.34131
0.403463
0.614111
0.534205
0.607103
0.328586
0.364078
0.61304
0.359977
0.607716
0.544624
0.336385
0.334507
0.562176
0.370866
0.520515
0.608017
0.564511
0.370592
0.316836
0.401225
0.416555
0.518889
0.371677
0.523738
0.559967
0.597229
0.541258
0.60195
0.345276
0.333011
0.608807
0.524871
0.547168
0.36209
0.372758
0.58789
0.334886
0.522622
0.508642
0.320805
0.606821
0.346745
0.625641
0.330543
0.611084
0.343297
0.593414
0.524857
0.317209
0.618557
0.548324
0.276882
0.529452
0.536179
0.451651
0.350879
0.28066
0.365808
0.60937
0.540318
0.321334
0.477928
0.603365
0.524744
0.367539
0.511869
0.596758
0.364349
0.523776
0.521314
0.362097
0.594948
0.533271
0.333254
0.49523
0.335097
0.546008
0.318226
0.354914
0.611487
0.329839
0.342817
0.338138
0.524915
0.591112
0.316402
0.526266
0.28014
0.579009
0.338853
0.593053
0.28943
0.523334
0.570514
0.556445
0.52962
0.4478
0.524971
0.528337
0.350619
0.532726
0.560232
0.396411
0.601627
0.393533
0.329299
0.613137
0.331392
0.465828
0.354221
0.522185
0.348301
0.3758
0.60527
0.520856
0.348147
0.584413
0.596206
0.540868
0.616961
0.53459
0.353833
0.612532
0.346721
0.378687
0.611898
0.599642
0.623396
0.597123
0.366561
0.316594
0.334182
0.590143
0.528864
0.280127
0.632866
0.369057
0.319381
0.30523
0.604043
0.30741
0.613537
0.603709
0.531103
0.574112
0.601372
0.470767
0.552989
0.341576
0.333736
0.346257
0.534604
0.535131
0.369696
0.531162
0.568236
0.552933
0.378883
0.320513
0.563344
0.217983
0.555316
0.511776
0.346998
0.52625
0.58928
0.34513
0.602214
0.325614
0.554908
0.61407
0.599986
0.336861
0.372701
0.582595
0.308795
0.349958
0.56133
0.333177
0.525637
0.535329
0.606716
0.596234
0.336591
0.532291
0.590787
0.538158
0.28174
0.60359
0.321429
0.348942
0.594001
0.523349
0.528704
0.184619
0.520591
0.531502
0.535053
0.36723
0.361649
0.342717
0.588715
0.33828
0.332529
0.306233
0.510046
0.328245
0.354767
0.347741
0.601862
0.346461
0.529527
0.527556
0.57963
0.328724
0.580932
0.554814
0.528701
0.325083
0.565312
0.331834
0.330897
0.521244
0.350484
0.529517
0.601203
0.538185
0.3447
0.254138
0.319325
0.455754
0.539133
0.182332
0.588963
0.523316
0.598076
0.334214
0.341353
0.266714
0.544649
0.348308
0.541301
0.500499
0.52688
0.582519
0.349967
0.532455
0.359646
0.491926
0.546702
0.614101
0.488508
0.393074
0.566152
0.551316
0.609756
0.332965
0.279581
0.361818
0.598618
0.430556
0.53411
0.345045
0.312859
0.605051
0.58516
0.530574
0.348736
0.58533
0.454318
0.457499
0.543234
0.373279
0.349906
0.362578
0.525315
0.52895
0.565695
0.583833
0.265158
0.627534
0.558294
0.528862
0.529136
0.623306
0.612688
0.524521
0.599771
0.608933
0.3769
0.57888
0.60008
0.522788
0.593007
0.524486
0.486883
0.351277
0.35872
0.537315
0.334035
0.310618
0.591775
0.325814
0.5342
0.540719
0.587023
0.59529
0.38168
0.59434
0.363565
0.372175
0.524026
0.604282
0.523531
0.330213
0.611116
0.525113
0.540374
0.520845
0.322064
0.523472
0.613212
0.587639
0.303804
0.602681
0.333727
0.607918
0.311551
0.350487
0.435402
0.353493
0.613229
0.604649
0.520473
0.305464
0.524014
0.318494
0.328693
0.604858
0.391276
0.337372
0.520633
0.358988
0.412423
0.571728
0.570917
0.599235
0.390458
0.490834
0.55874
0.521416
0.485194
0.609993
0.432252
0.640769
0.581342
0.549185
0.339165
0.34558
0.352656
0.597708
0.379475
0.565848
0.588266
0.501156
0.521195
0.427534
0.584113
0.582035
0.328651
0.578335
0.569184
0.403073
0.570844
0.613121
0.613799
0.526053
0.331563
0.321244
0.600997
0.433966
0.447466
0.573876
0.588273
0.526991
0.612105
0.613614
0.520373
0.558482
0.614046
0.333878
0.360104
0.347739
0.328674
0.536575
0.361708
0.440804
0.60617
0.587174
0.378134
0.597128
0.60419
0.332583
0.292871
0.536217
0.580824
0.371342
0.346886
0.348454
0.541303
0.612209
0.30789
0.343042
0.349046
0.359106
0.33238
0.334889
0.635323
0.565615
0.59734
0.326242
0.588367
0.508495
0.505588
0.336958
0.35787
0.604929
0.539523
0.3432
0.523471
0.345148
0.604922
0.37731
0.583832
0.347979
0.597821
0.61371
0.326396
0.459022
0.342916
0.612611
0.363651
0.513381
0.374478
0.405858
0.329912
0.505067
0.326045
0.530116
0.53
0.503793
0.598455
0.336597
0.593851
0.526692
0.612278
0.505461
0.579619
0.357511
0.324875
0.367542
0.609666
0.226138
0.612389
0.443441
0.599106
0.613605
0.370386
0.606222
0.327975
0.370376
0.332141
0.409423
0.435793
0.589981
0.323422
0.331545
0.521335
0.295999
0.371455
0.467681
0.292095
0.342154
0.358668
0.624044
0.553259
0.518066
0.376262
0.591176
0.526306
0.33688
0.251173
0.598355
0.520971
0.49365
0.415701
0.32297
0.280847
0.314895
0.623319
0.535798
0.423185
0.589074
0.341774
0.468593
0.346297
0.531695
0.612355
0.35421
0.359122
0.542892
0.460933
0.613245
0.609195
0.610162
0.596559
0.613955
0.311738
0.321447
0.361149
0.352663
0.447733
0.532696
0.555213
0.353619
0.339166
0.355544
0.36044
0.530154
0.568749
0.338427
0.348586
0.535981
0.37599
0.557878
0.606534
0.590726
0.524523
0.456964
0.340169
0.355024
0.554121
0.353043
0.333189
0.310959
0.526665
0.547071
0.367655
0.34801
0.53959
0.325203
0.524902
0.609726
0.341793
0.314591
0.341897
0.541394
0.362289
0.540893
0.598589
0.50285
0.344122
0.429124
0.609155
0.593221
0.34356
0.596928
0.53842
0.389329
0.603613
0.633374
0.330736
0.32961
0.601104
0.326064
0.354656
0.595999
0.268846
0.567777
0.584077
0.608577
0.542307
0.612063
0.53339
0.525608
0.337115
0.321059
0.55501
0.602451
0.372458
0.612451
0.341847
0.567159
0.599782
0.467261
0.551502
0.324318
0.360309
0.595608
0.610302
0.577895
0.613559
0.523711
0.537548
0.617627
0.540324
0.628888
0.606481
0.620528
0.539119
0.525159
0.277322
0.607973
0.349868
0.558888
0.57418
0.602284
0.584205
0.594967
0.314618
0.316604
0.292087
0.34429
0.587652
0.355075
0.325845
0.589428
0.333876
0.599035
0.315408
0.596889
0.604347
0.328921
0.2986
0.321806
0.590515
0.369765
0.589293
0.606589
0.318104
0.603018
0.453497
0.28791
0.361053
0.329193
0.593973
0.331027
0.578508
0.424636
0.342839
0.529452
0.520538
0.610005
0.346239
0.474782
0.371627
0.589923
0.526068
0.54295
0.338854
0.60234
0.574378
0.58431
0.322682
0.59038
0.343592
0.343694
0.59344
0.357446
0.613387
0.334676
0.339941
0.350042
0.587294
0.362984
0.230555
0.311536
0.387422
0.534328
0.606005
0.34959
0.501962
0.532011
0.456778
0.331543
0.344604
0.455662
0.341588
0.349156
0.574268
0.344104
0.347117
0.606216
0.612532
0.328754
0.60091
0.309481
0.536661
0.353788
0.607464
0.530608
0.596533
0.526845
0.319857
0.346109
0.371397
0.524897
0.603438
0.48851
0.44006
0.290102
0.235996
0.521768
0.337751
0.566959
0.298496
0.530005
0.576784
0.348448
0.347887
0.347522
0.349074
0.352692
0.542976
0.587899
0.347602
0.583761
0.540412
0.342562
0.334119
0.609871
0.336906
0.600804
0.335553
0.596696
0.557828
0.578536
0.533768
0.324183
0.613431
0.565374
0.623778
0.33158
0.543913
0.495705
0.3114
0.595391
0.554248
0.643053
0.592879
0.613761
0.598672
0.619745
0.522234
0.533562
0.332057
0.608625
0.34825
0.363469
0.564115
0.372002
0.596547
0.555167
0.332936
0.583188
0.330873
0.375489
0.608017
0.540344
0.612855
0.334364
0.593111
0.516854
0.352292
0.33291
0.618564
0.524574
0.294469
0.305871
0.602105
0.611603
0.333217
0.545235
0.613608
0.55593
0.35365
0.343779
0.370065
0.559011
0.342517
0.596608
0.598389
0.521489
0.510703
0.602453
0.331685
0.602356
0.513632
0.613632
0.48623
0.3719
0.338437
0.349398
0.605929
0.607358
0.33319
0.555528
0.356015
0.558807
0.55889
0.343045
0.536107
0.596238
0.524454
0.32742
0.364691
0.332008
0.607249
0.61334
0.51441
0.415191
0.592965
0.344476
0.534602
0.536062
0.602577
0.326094
0.524064
0.33318
0.566002
0.354787
0.595139
0.611383
0.375476
0.604565
0.34007
0.539307
0.546332
0.541351
0.600309
0.333087
0.522516
0.520897
0.542666
0.593298
0.385891
0.536322
0.343625
0.522609
0.346161
0.340124
0.348627
0.351873
0.342657
0.335028
0.614392
0.284203
0.331986
0.565238
0.606081
0.59028
0.312308
0.591604
0.58802
0.525251
0.319154
0.495418
0.531634
0.318414
0.307592
0.344199
0.529941
0.409644
0.341502
0.49703
0.339988
0.533949
0.403337
0.359482
0.37669
0.552391
0.318008
0.525116
0.340218
0.38602
0.293393
0.620635
0.304309
0.56231
0.535698
0.555649
0.329613
0.352132
0.626446
0.612648
0.30582
0.376306
0.524068
0.346291
0.601981
0.325828
0.457038
0.348911
0.530582
0.320609
0.613875
0.34049
0.561884
0.598492
0.61126
0.536769
0.342416
0.377566
0.308917
0.616022
0.588503
0.586348
0.439332
0.329647
0.605138
0.33938
0.601547
0.523972
0.330084
0.337183
0.607259
0.59091
0.372819
0.531793
0.631426
0.608343
0.60867
0.340682
0.537073
0.346051
0.609073
0.346667
0.528099
0.602008
0.633844
0.614874
0.343002
0.610715
0.329612
0.325119
0.523526
0.536362
0.44825
0.60019
0.536778
0.339957
0.603654
0.619156
0.620235
0.374826
0.337706
0.58626
0.356655
0.575074
0.593714
0.59469
0.61812
0.224234
0.353908
0.550102
0.37659
0.60044
0.611119
0.376752
0.610481
0.345221
0.555347
0.60414
0.579877
0.616837
0.364127
0.378066
0.591751
0.597609
0.330364
0.341378
0.31938
0.377534
0.332296
0.337248
0.349486
0.333707
0.595887
0.344574
0.348675
0.601281
0.446722
0.539381
0.311528
0.345706
0.537685
0.370917
0.387911
0.612195
0.292232
0.560714
0.529611
0.506868
0.593905
0.368422
0.606046
0.527586
0.317547
0.343271
0.330139
0.552127
0.506435
0.613613
0.523072
0.603192
0.595955
0.274615
0.603613
0.527099
0.625066
0.350659
0.536566
0.505518
0.274312
0.341434
0.346153
0.367105
0.336312
0.490518
0.573115
0.593154
0.349206
0.304827
0.613753
0.355036
0.606038
0.521568
0.596805
0.579983
0.58462
0.31776
0.369534
0.342905
0.469323
0.347361
0.54957
0.340094
0.521635
0.523944
0.575323
0.334017
0.354418
0.33045
0.60008
0.304628
0.344054
0.594953
0.593923
0.531611
0.523719
0.619905
0.601516
0.338458
0.522367
0.611306
0.430279
0.599745
0.606552
0.604028
0.364364
0.335701
0.620911
0.399753
0.518466
0.341285
0.575046
0.592542
0.303497
0.342352
0.586994
0.410279
0.61058
0.605677
0.331955
0.354911
0.533145
0.301948
0.318697
0.590765
0.617686
0.335383
0.583443
0.53313
0.584967
0.337185
0.491439
0.340187
0.586524
0.612071
0.601659
0.589549
0.532506
0.351499
0.2953
0.600259
0.328065
0.505356
0.341157
0.585294
0.353238
0.552792
0.610932
0.53316
0.338416
0.540999
0.535121
0.346925
0.574501
0.322649
0.622743
0.340133
0.352603
0.348008
0.591387
0.557982
0.251861
0.352536
0.604355
0.613848