# vtk DataFile Version 1.0
unstructured grid
ascii
DATASET UNSTRUCTURED_GRID
points 13672 float
0.0796578 -0.059106 0
0.00128732 0.00159165 0
0.00227961 -0.00102548 0
0.0791586 -0.0598787 0
-0.0546216 0.01 0
0.000495206 0.025 0
0.0800549 -0.035 0
0.135172 -0.08 0
-0.0546216 -0.0451168 0
0.000495206 -0.0301168 0
0.0800549 -0.0901168 0
0.135172 -0.135117 0
-0.0546216 -0.0451168 -0.00551168
0.000495206 -0.0301168 -0.00551168
0.0800549 -0.0901168 -0.00551168
0.135172 -0.135117 -0.00551168
0.135172 -0.08 -0.00551168
0.0800549 -0.035 -0.00551168
0.000495206 0.025 -0.00551168
-0.0546216 0.01 -0.00551168
0.00128732 0.00159165 -0.00551168
0.00227961 -0.00102548 -0.00551168
0.0791586 -0.0598787 -0.00551168
0.0796578 -0.059106 -0.00551168
0.00165953 -0.000990923 0
0.00119576 -0.000874076 0
0.000866021 -0.000641801 0
0.000645147 -0.000349912 0
0.00052235 -1.7281e-05 0
0.00049972 0.000348016 0
0.000601632 0.000737716 0
0.000861774 0.0011403 0
0.00157235 0.00183217 0
0.00188647 0.00206725 0
0.00222612 0.00230203 0
0.00258713 0.00254351 0
0.00296826 0.00279524 0
0.00337118 0.00305664 0
0.00379785 0.00332658 0
0.00425045 0.00360349 0
0.00473139 0.00388521 0
0.0052432 0.00416895 0
0.0057881 0.00445204 0
0.00636753 0.00473281 0
0.00698281 0.00500961 0
0.00763526 0.00528058 0
0.00832616 0.00554366 0
0.00905691 0.00579603 0
0.00982918 0.00603333 0
0.0106445 0.00625033 0
0.0115038 0.00644128 0
0.0124073 0.00660297 0
0.0133543 0.00673414 0
0.0143444 0.00683382 0
0.0153769 0.00690031 0
0.0164512 0.00693173 0
0.0175666 0.00692547 0
0.0187219 0.00687822 0
0.0199156 0.00678477 0
0.0211454 0.00663864 0
0.0224084 0.00643275 0
0.0237018 0.00616676 0
0.0250249 0.00584739 0
0.026375 0.00547298 0
0.0277479 0.00503752 0
0.0291386 0.00453545 0
0.0305433 0.0039653 0
0.0319572 0.0033256 0
0.0333681 0.00260019 0
0.034775 0.00179799 0
0.0361793 0.000930615 0
0.0375798 3.12222e-06 0
0.0389689 -0.000988429 0
0.0403357 -0.00205109 0
0.041675 -0.00318283 0
0.0429849 -0.00437751 0
0.0442643 -0.00562904 0
0.0455126 -0.00693089 0
0.0467314 -0.00827518 0
0.0479204 -0.00965638 0
0.0490661 -0.0110799 0
0.0501515 -0.0125519 0
0.0511696 -0.0140695 0
0.0521492 -0.0156071 0
0.0531202 -0.0171411 0
0.0540851 -0.0186663 0
0.0550431 -0.0201798 0
0.0559923 -0.0216793 0
0.0569311 -0.0231626 0
0.0578582 -0.0246273 0
0.0587723 -0.0260715 0
0.0596721 -0.027493 0
0.0605563 -0.02889 0
0.0614241 -0.0302609 0
0.0622742 -0.0316042 0
0.063106 -0.0329183 0
0.0639186 -0.034202 0
0.0647113 -0.0354543 0
0.0654835 -0.0366743 0
0.0662345 -0.0378613 0
0.0669642 -0.0390145 0
0.0676726 -0.0401333 0
0.0683597 -0.0412172 0
0.0690246 -0.0422665 0
0.0696662 -0.0432819 0
0.0702841 -0.0442636 0
0.0708793 -0.0452111 0
0.0714538 -0.0461237 0
0.072009 -0.047001 0
0.0725452 -0.0478434 0
0.0730611 -0.0486524 0
0.073556 -0.0494294 0
0.0740291 -0.0501756 0
0.0744812 -0.0508916 0
0.0749138 -0.0515773 0
0.0753285 -0.0522331 0
0.0757266 -0.0528592 0
0.076109 -0.0534564 0
0.0764753 -0.0540264 0
0.0768243 -0.054571 0
0.0771553 -0.0550919 0
0.0774679 -0.0555901 0
0.0777617 -0.0560669 0
0.0780369 -0.056523 0
0.0782958 -0.0569578 0
0.0785421 -0.0573703 0
0.0787786 -0.0577603 0
0.0790073 -0.0581279 0
0.0792295 -0.058474 0
0.0794462 -0.0587995 0
0.0798803 -0.0594162 0
0.0800272 -0.0596588 0
0.0800357 -0.0598891 0
0.0799275 -0.0600784 0
0.0797205 -0.0601773 0
0.0794593 -0.0601051 0
0.0789155 -0.0596491 0
0.0786707 -0.0593963 0
0.0784111 -0.0591319 0
0.0781372 -0.0588542 0
0.0778566 -0.0585548 0
0.0775715 -0.0582308 0
0.0772803 -0.0578828 0
0.0769832 -0.0575099 0
0.0766822 -0.0571097 0
0.0763801 -0.0566796 0
0.0760759 -0.0562196 0
0.0757623 -0.0557337 0
0.0754359 -0.0552232 0
0.0750951 -0.0546879 0
0.0747379 -0.054128 0
0.0743626 -0.0535435 0
0.0739688 -0.0529338 0
0.0735559 -0.0522981 0
0.0731238 -0.0516357 0
0.0726718 -0.050946 0
0.0721991 -0.0502288 0
0.0717046 -0.049484 0
0.0711872 -0.0487117 0
0.0706461 -0.047912 0
0.0700804 -0.0470849 0
0.0694892 -0.0462308 0
0.0688718 -0.0453499 0
0.0682271 -0.0444431 0
0.0675544 -0.043511 0
0.0668527 -0.0425546 0
0.0661215 -0.0415748 0
0.06536 -0.040573 0
0.0645676 -0.0395504 0
0.0637439 -0.0385087 0
0.0628887 -0.0374493 0
0.062002 -0.0363741 0
0.0610838 -0.0352847 0
0.0601345 -0.0341831 0
0.0591547 -0.033071 0
0.0581456 -0.0319502 0
0.0571083 -0.0308224 0
0.0560444 -0.0296893 0
0.0549562 -0.028552 0
0.053845 -0.0274126 0
0.0527113 -0.0262746 0
0.051554 -0.0251427 0
0.0503724 -0.0240222 0
0.0491675 -0.0229164 0
0.047941 -0.0218282 0
0.0466955 -0.0207597 0
0.0454337 -0.0197126 0
0.0441592 -0.0186878 0
0.0428751 -0.0176863 0
0.0415841 -0.0167097 0
0.0402878 -0.0157609 0
0.0389879 -0.0148428 0
0.0376864 -0.0139575 0
0.0363853 -0.013107 0
0.0350871 -0.0122931 0
0.0337942 -0.0115164 0
0.0325095 -0.0107772 0
0.0312357 -0.0100756 0
0.0299758 -0.00941024 0
0.0287337 -0.00877784 0
0.0275126 -0.00817571 0
0.0263139 -0.00760375 0
0.0251376 -0.00706528 0
0.0239829 -0.0065649 0
0.0228537 -0.00609619 0
0.0217522 -0.00565563 0
0.0206795 -0.00524226 0
0.0196364 -0.00485507 0
0.0186233 -0.00449318 0
0.0176408 -0.00415577 0
0.016689 -0.00384204 0
0.0157682 -0.00355115 0
0.0148783 -0.00328218 0
0.0140192 -0.00303468 0
0.0131906 -0.00280795 0
0.0123925 -0.00260016 0
0.0116246 -0.00241012 0
0.0108864 -0.00223769 0
0.0101774 -0.00208212 0
0.00949701 -0.00194206 0
0.00884483 -0.0018163 0
0.0082202 -0.0017039 0
0.00762247 -0.00160391 0
0.00705097 -0.00151528 0
0.006505 -0.00143697 0
0.0059838 -0.00136806 0
0.00548662 -0.00130772 0
0.00501265 -0.00125519 0
0.00456114 -0.00120954 0
0.00413136 -0.00116914 0
0.00372257 -0.00113251 0
0.00333398 -0.00109853 0
0.00296466 -0.00106798 0
0.00261363 -0.0010431 0
-0.052721 -0.0445996 0
-0.0508204 -0.0440823 0
-0.0489199 -0.0435651 0
-0.0470193 -0.0430478 0
-0.0451187 -0.0425306 0
-0.0432181 -0.0420134 0
-0.0413175 -0.0414961 0
-0.039417 -0.0409789 0
-0.0375164 -0.0404616 0
-0.0356158 -0.0399444 0
-0.0337152 -0.0394271 0
-0.0318146 -0.0389099 0
-0.0299141 -0.0383927 0
-0.0280135 -0.0378754 0
-0.0261129 -0.0373582 0
-0.0242123 -0.0368409 0
-0.0223117 -0.0363237 0
-0.0204112 -0.0358065 0
-0.0185106 -0.0352892 0
-0.01661 -0.034772 0
-0.0147094 -0.0342547 0
-0.0128088 -0.0337375 0
-0.0109083 -0.0332202 0
-0.00900769 -0.032703 0
-0.00710711 -0.0321858 0
-0.00520653 -0.0316685 0
-0.00330595 -0.0311513 0
-0.00140537 -0.030634 0
0.00190689 -0.0299614 0
0.00332271 -0.0298498 0
0.00474133 -0.0297825 0
0.00616136 -0.0297597 0
0.0075814 -0.0297814 0
0.00900007 -0.0298477 0
0.010416 -0.0299583 0
0.0118278 -0.0301127 0
0.0132342 -0.0303103 0
0.0146339 -0.0305504 0
0.0160259 -0.0308322 0
0.0174091 -0.0311546 0
0.0187824 -0.0315166 0
0.020145 -0.031917 0
0.0214961 -0.0323546 0
0.0228351 -0.032828 0
0.0241613 -0.0333361 0
0.0254744 -0.0338774 0
0.0267738 -0.0344507 0
0.0280592 -0.0350545 0
0.0293306 -0.0356877 0
0.0305875 -0.0363488 0
0.0318301 -0.0370367 0
0.0330581 -0.0377501 0
0.0342717 -0.0384879 0
0.0354708 -0.0392489 0
0.0366556 -0.0400321 0
0.0378262 -0.0408363 0
0.0389828 -0.0416607 0
0.0401254 -0.0425042 0
0.0412543 -0.0433659 0
0.0423698 -0.0442451 0
0.043472 -0.0451408 0
0.0445612 -0.0460523 0
0.0456375 -0.0469789 0
0.0467013 -0.0479199 0
0.0477529 -0.0488746 0
0.0487923 -0.0498424 0
0.04982 -0.0508227 0
0.0508362 -0.051815 0
0.051841 -0.0528187 0
0.0528348 -0.0538333 0
0.0538178 -0.0548584 0
0.0547903 -0.0558935 0
0.0557524 -0.0569382 0
0.0567045 -0.0579922 0
0.0576467 -0.0590549 0
0.0585792 -0.0601261 0
0.0595024 -0.0612055 0
0.0604163 -0.0622926 0
0.0613212 -0.0633873 0
0.0622174 -0.0644891 0
0.0631049 -0.0655979 0
0.0639841 -0.0667134 0
0.064855 -0.0678353 0
0.0657179 -0.0689633 0
0.0665729 -0.0700974 0
0.0674202 -0.0712372 0
0.06826 -0.0723826 0
0.0690925 -0.0735333 0
0.0699178 -0.0746892 0
0.070736 -0.0758501 0
0.0715473 -0.0770159 0
0.0723518 -0.0781863 0
0.0731498 -0.0793612 0
0.0739412 -0.0805405 0
0.0747264 -0.081724 0
0.0755053 -0.0829116 0
0.0762781 -0.0841033 0
0.0770449 -0.0852987 0
0.0778059 -0.0864979 0
0.0785611 -0.0877007 0
0.0793108 -0.088907 0
0.0814681 -0.0912706 0
0.0828814 -0.0924245 0
0.0842946 -0.0935783 0
0.0857079 -0.0947322 0
0.0871211 -0.095886 0
0.0885344 -0.0970399 0
0.0899476 -0.0981937 0
0.0913609 -0.0993476 0
0.0927741 -0.100501 0
0.0941874 -0.101655 0
0.0956006 -0.102809 0
0.0970139 -0.103963 0
0.0984272 -0.105117 0
0.0998404 -0.106271 0
0.101254 -0.107424 0
0.102667 -0.108578 0
0.10408 -0.109732 0
0.105493 -0.110886 0
0.106907 -0.11204 0
0.10832 -0.113194 0
0.109733 -0.114348 0
0.111146 -0.115501 0
0.11256 -0.116655 0
0.113973 -0.117809 0
0.115386 -0.118963 0
0.116799 -0.120117 0
0.118213 -0.121271 0
0.119626 -0.122424 0
0.121039 -0.123578 0
0.122452 -0.124732 0
0.123866 -0.125886 0
0.125279 -0.12704 0
0.126692 -0.128194 0
0.128105 -0.129348 0
0.129519 -0.130501 0
0.130932 -0.131655 0
0.132345 -0.132809 0
0.133758 -0.133963 0
0.135172 -0.133216 0
0.135172 -0.131316 0
0.135172 -0.129415 0
0.135172 -0.127514 0
0.135172 -0.125614 0
0.135172 -0.123713 0
0.135172 -0.121813 0
0.135172 -0.119912 0
0.135172 -0.118012 0
0.135172 -0.116111 0
0.135172 -0.11421 0
0.135172 -0.11231 0
0.135172 -0.110409 0
0.135172 -0.108509 0
0.135172 -0.106608 0
0.135172 -0.104708 0
0.135172 -0.102807 0
0.135172 -0.100906 0
0.135172 -0.0990058 0
0.135172 -0.0971052 0
0.135172 -0.0952046 0
0.135172 -0.0933041 0
0.135172 -0.0914035 0
0.135172 -0.0895029 0
0.135172 -0.0876023 0
0.135172 -0.0857017 0
0.135172 -0.0838012 0
0.135172 -0.0819006 0
0.133758 -0.0788462 0
0.132345 -0.0776923 0
0.130932 -0.0765385 0
0.129519 -0.0753846 0
0.128105 -0.0742308 0
0.126692 -0.0730769 0
0.125279 -0.0719231 0
0.123866 -0.0707692 0
0.122452 -0.0696154 0
0.121039 -0.0684615 0
0.119626 -0.0673077 0
0.118213 -0.0661538 0
0.116799 -0.065 0
0.115386 -0.0638462 0
0.113973 -0.0626923 0
0.11256 -0.0615385 0
0.111146 -0.0603846 0
0.109733 -0.0592308 0
0.10832 -0.0580769 0
0.106907 -0.0569231 0
0.105493 -0.0557692 0
0.10408 -0.0546154 0
0.102667 -0.0534615 0
0.101254 -0.0523077 0
0.0998404 -0.0511538 0
0.0984272 -0.05 0
0.0970139 -0.0488462 0
0.0956006 -0.0476923 0
[...]
CELL_DATA 13116
SCALARS rho float
LOOKUP_TABLE default
0.42744
0.514916
0.292632
0.556014
0.546739
0.533871
0.319389
0.549741
0.410656
0.550551
0.318214
0.295288
0.54698
0.329425
0.317248
0.533926
0.402363
0.543197
0.531814
0.327232
0.431481
0.325349
0.326204
0.544708
0.474541
0.495009
0.550586
0.328445
0.473588
0.503399
0.533377
0.326209
0.432791
0.349374
0.317821
0.429566
0.518176
0.526968
0.533745
0.534134
0.533069
0.552531
0.331245
0.289591
0.530634
0.53166
0.496813
0.534382
0.320564
0.407728
0.54568
0.34466
0.32105
0.3967
0.4317
0.455851
0.292376
0.541942
0.418138
0.317146
0.329899
0.551808
0.507295
0.533723
0.533467
0.332773
0.535696
0.523581
0.536517
0.533495
0.320129
0.45726
0.321905
0.324504
0.533285
0.305139
0.501244
0.542692
0.319997
0.540753
0.528698
0.499442
0.544772
0.534025
0.523071
0.351435
0.32632
0.521407
0.518917
0.32423
0.31025
0.516341
0.546814
0.523368
0.505791
0.466109
0.476561
0.533455
0.533299
0.466368
0.529157
0.458271
0.532638
0.313611
0.482812
0.333173
0.281282
0.368454
0.328566
0.481633
0.391075
0.494204
0.46464
0.531533
0.541249
0.535864
0.329026
0.302914
0.539949
0.536914
0.523908
0.319956
0.536827
0.337185
0.518455
0.342506
0.326782
0.397675
0.322262
0.409022
0.54018
0.533748
0.392701
0.326122
0.377128
0.455077
0.533228
0.53883
0.528441
0.536692
0.488119
0.499557
0.39641
0.488814
0.503143
0.325357
0.318479
0.492672
0.544783
0.542502
0.424579
0.533569
0.534344
0.311291
0.547748
0.52423
0.325505
0.533647
0.533459
0.521658
0.543989
0.318139
0.543445
0.325716
0.316163
0.550237
0.516093
0.542813
0.3181
0.36338
0.330047
0.533191
0.319044
0.384399
0.535132
0.327318
0.321548
0.323063
0.490881
0.533579
0.304738
0.337557
0.407212
0.518533
0.533612
0.416283
0.297713
0.532882
0.472809
0.360259
0.495967
0.490881
0.533484
0.329018
0.48658
0.533888
0.547992
0.532524
0.517821
0.317569
0.313228
0.485697
0.393515
0.327864
0.540647
0.530151
0.351551
0.474234
0.326855
0.323494
0.302561
0.534743
0.324824
0.32534
0.323398
0.31059
0.28614
0.533317
0.515775
0.341088
0.291942
0.535535
0.386183
0.305658
0.434181
0.551032
0.501197
0.332318
0.535272
0.306627
0.556371
0.315422
0.533453
0.449348
0.533433
0.528441
0.533506
0.315157
0.336624
0.521629
0.533328
0.533805
0.533246
0.533334
0.544266
0.323178
0.541827
0.548415
0.533288
0.322238
0.322075
0.531482
0.539466
0.533424
0.536421
0.416336
0.533899
0.317809
0.328622
0.309408
0.327474
0.468784
0.547811
0.500216
0.322605
0.529375
0.318174
0.339097
0.484572
0.319837
0.496061
0.548726
0.533279
0.541681
0.315584
0.53327
0.532851
0.533291
0.5387
0.317637
0.327956
0.327651
0.451215
0.319884
0.326023
0.260577
0.247488
0.522025
0.321817
0.523349
0.547494
0.302199
0.319282
0.318856
0.354282
0.289533
0.520306
0.456801
0.489041
0.319962
0.534469
0.459478
0.328932
0.317597
0.533633
0.539438
0.532629
0.296467
0.533941
0.322873
0.533189
0.552339
0.541121
0.551442
0.329918
0.535272
0.325702
0.533538
0.551308
0.522281
0.321967
0.260333
0.54889
0.330961
0.508644
0.551737
0.285681
0.536092
0.544523
0.326367
0.529184
0.546728
0.321011
0.541413
0.352762
0.449925
0.533503
0.358008
0.533897
0.32358
0.542933
0.269763
0.533335
0.451976
0.548949
0.332331
0.280057
0.524175
0.314829
0.539991
0.477988
0.329592
0.533233
0.305777
0.317566
0.538105
0.434364
0.522351
0.328151
0.325196
0.541696
0.547302
0.318413
0.546419
0.332359
0.331977
0.535499
0.53705
0.357497
0.321491
0.538785
0.533456
0.53399
0.528135
0.541428
0.424706
0.257701
0.324793
0.301724
0.533977
0.302462
0.405563
0.289484
0.318076
0.275357
0.365401
0.110393
0.315517
0.524897
0.259956
0.544064
0.47325
0.533039
0.514978
0.542363
0.317639
0.327147
0.322227
0.26496
0.537855
0.461333
0.532897
0.473731
0.504474
0.483058
0.497868
0.484813
0.501152
0.540346
0.540329
0.533764
0.3141
0.357899
0.424233
0.323588
0.453774
0.454518
0.322987
0.535639
0.533314
0.330477
0.324715
0.323479
0.300314
0.493382
0.320858
0.328987
0.535005
0.325628
0.449033
0.324224
0.533493
0.528441
0.286557
0.326529
0.537678
0.355503
0.323719
0.298383
0.319515
0.328393
0.328389
0.325056
0.325448
0.338907
0.319615
0.45549
0.307276
0.522412
0.297735
0.357519
0.394987
0.332921
0.323834
0.329912
0.531789
0.343401
0.500958
0.370417
0.329943
0.476233
0.520783
0.350807
0.535734
0.483999
0.482852
0.327712
0.533433
0.304628
0.542227
0.533362
0.325855
0.32452
0.471533
0.267424
0.359198
0.454403
0.280477
0.532885
0.505481
0.303171
0.318874
0.318998
0.380915
0.316328
0.321626
0.318958
0.326129
0.552898
0.553421
0.359407
0.468852
0.37649
0.486339
0.275385
0.320549
0.414215
0.326134
0.533458
0.231074
0.291351
0.389437
0.530079
0.512288
0.439312
0.284315
0.324407
0.446613
0.549856
0.533601
0.443673
0.486408
0.467752
0.32157
0.527631
0.44582
0.520712
0.243159
0.29211
0.530752
0.548235
0.514122
0.551293
0.513659
0.495045
0.543051
0.521068
0.532997
0.312251
0.529864
0.266597
0.3261
0.325438
0.554889
0.530599
0.242704
0.522349
0.486766
0.322269
0.533431
0.538912
0.537519
0.328025
0.320488
0.541298
0.323547
0.308009
0.310375
0.322373
0.531558
0.322431
0.554873
0.307781
0.515433
0.544663
0.535764
0.547428
0.32323
0.303782
0.531925
0.557277
0.510421
0.55262
0.548197
0.391039
0.325926
0.328238
0.534112
0.412373
0.323059
0.355295
0.314563
0.532299
0.5333
0.243193
0.32527
0.520711
0.365799
0.525517
0.516219
0.320686
0.30732
0.507114
0.533337
0.326698
0.511347
0.515794
0.531377
0.312696
0.533206
0.301198
0.533416
0.519722
0.31989
0.285478
0.325649
0.53337
0.324529
0.319053
0.303325
0.533444
0.535869
0.319972
0.324458
0.323422
0.533563
0.321827
0.533789
0.325549
0.460307
0.551069
0.3002
0.32581
0.325637
0.391402
0.330729
0.503646
0.295927
0.321543
0.533451
0.32047
0.534585
0.505521
0.533433
0.301405
0.534025
0.545792
0.547702
0.534221
0.51964
0.535342
0.323537
0.533585
0.34292
0.529
0.318263
0.544974
0.394629
0.318697
0.533358
0.543207
0.319529
0.48724
0.308731
0.319361
0.53495
0.531498
0.303607
0.323847
0.320471
0.330884
0.529654
0.544858
0.313855
0.299321
0.539956
0.538656
0.461754
0.545341
0.533371
0.318635
0.549045
0.334836
0.54554
0.303756
0.464499
0.378882
0.535111
0.523333
0.452598
0.268288
0.331244
0.532297
0.474056
0.401413
0.544929
0.32746
0.531392
0.547406
0.287103
0.355917
0.546192
0.283757
0.533365
0.522407
0.256808
0.537683
0.504379
0.305915
0.534831
0.327239
0.516517
0.298593
0.534636
0.505815
0.333689
0.533725
0.543852
0.541933
0.487723
0.528945
0.457837
0.318312
0.324958
0.297329
0.327068
0.533151
0.436561
0.537437
0.544265
0.306274
0.321105
0.53216
0.551773
0.538054
0.548777
0.321168
0.54048
0.548318
0.326362
0.308446
0.540099
0.531442
0.519837
0.324321
0.464113
0.297487
0.534098
0.503821
0.533604
0.521143
0.323122
0.528557
0.523245
0.545977
0.530544
0.53342
0.339516
0.541129
0.323432
0.485732
0.549455
0.363046
0.506683
0.533625
0.544241
0.313197
0.314646
0.458738
0.508857
0.325187
0.323738
0.315997
0.319849
0.516888
0.531033
0.533327
0.24692
0.31898
0.536365
0.532556
0.322165
0.322073
0.364421
0.517266
0.532596
0.52759
0.538386
0.323389
0.326033
0.533221
0.334837
0.318963
0.298704
0.532966
0.307114
0.323416
0.449812
0.530529
0.490931
0.533838
0.532953
0.330884
0.319134
0.316331
0.369878
0.343005
0.314046
0.52242
0.537991
0.516417
0.534097
0.333645
0.29933
0.551051
0.326449
0.533377
0.5054
0.533475
0.303601
0.317547
0.511922
0.533308
0.436648
0.320782
0.524812
0.533885
0.446363
0.542645
0.548154
0.533242
0.486629
0.321697
0.533042
0.533315
0.4791
0.534379
0.533197
0.495478
0.533326
0.538116
0.321896
0.316913
0.301924
0.53349
0.393495
0.327163
0.532016
0.5404
0.29016
0.493304
0.282986
0.497354
0.364344
0.316448
0.552028
0.544365
0.323935
0.433235
0.533471
0.324878
0.523625
0.33184
0.333234
0.479767
0.474782
0.394898
0.532525
0.315611
0.543328
0.320296
0.31761
0.534536
0.322724
0.469818
0.317326
0.492597
0.465712
0.533312
0.51427
0.322473
0.32108
0.474107
0.332934
0.537772
0.357185
0.460317
0.533686
0.545781
0.344193
0.479479
0.489606
0.548261
0.536242
0.272519
0.319065
0.425147
0.487938
0.548709
0.294235
0.532557
0.438146
0.32184
0.308018
0.523543
0.51796
0.533284
0.533342
0.458649
0.532142
0.533602
0.524041
0.317388
0.514365
0.362372
0.538399
0.530945
0.241105
0.499292
0.54559
0.317598
0.318134
0.328255
0.533202
0.31858
0.479641
0.538481
0.515571
0.302873
0.52453
0.32821
0.463671
0.533685
0.533323
0.521058
0.533539
0.483034
0.527678
0.408577
0.52858
0.29691
0.533183
0.535656
0.317294
0.533351
0.532167
0.326496
0.323996
0.32287
0.541516
0.324572
0.533253
0.312864
0.549038
0.324443
0.379346
0.322318
0.541761
0.54811
0.41472
0.213446
0.482935
0.533331
0.31673
0.460945
0.553767
0.315777
0.457953
0.533298
0.550748
0.533521
0.324274
0.366328
0.539142
0.532319
0.486959
0.325581
0.312039
0.526454
0.533247
0.533332
0.533261
0.42688
0.534102
0.423162
0.536484
0.325406
0.327548
0.53327
0.545805
0.533466
0.330612
0.533116
0.432943
0.466439
0.304341
0.328256
0.546729
0.557955
0.435193
0.26324
0.533561
0.533369
0.318443
0.476715
0.538201
0.318091
0.354505
0.323678
0.472209
0.324563
0.310722
0.528342
0.363311
0.548949
0.498092
0.318726
0.32743
0.551641
0.315845
0.321476
0.533308
0.329876
0.276318
0.460945
0.515927
0.534094
0.319035
0.253843
0.319019
0.506701
0.332502
0.534661
0.318123
0.532739
0.488359
0.529707
0.491745
0.527441
0.502066
0.532736
0.547086
0.536929
0.321687
0.320843
0.521371
0.533669
0.399802
0.481798
0.436139
0.533634
0.47774
0.286489
0.536266
0.552952
0.527175
0.32258
0.529235
0.302289
0.533976
0.393641
0.541065
0.534205
0.316253
0.537769
0.324191
0.333372
0.508304
0.297747
0.533335
0.533235
0.538418
0.301072
0.534948
0.321267
0.303846
0.317205
0.322827
0.471207
0.320192
0.491034
0.533612
0.265938
0.329158
0.385772
0.45591
0.492583
0.488511
0.303756
0.333513
0.318375
0.322361
0.212551
0.492144
0.498374
0.32671
0.53332
0.538059
0.323774
0.552888
0.531997
0.533634
0.32312
0.533292
0.52785
0.541365
0.53841
0.315906
0.535126
0.542776
0.529753
0.524238
0.533267
0.324297
0.322143
0.533817
0.423785
0.318742
0.534417
0.327821
0.449443
0.48701
0.514766
0.517938
0.305976
0.480319
0.31182
0.322675
0.536757
0.541519
0.544809
0.541338
0.511666
0.304129
0.548143
0.321142
0.398943
0.549785
0.53331
0.538737
0.322623
0.323563
0.549019
0.323003
0.540797
0.50861
0.337083
0.322637
0.535484
0.319266
0.534147
0.540387
0.509128
0.318865
0.316571
0.395041
0.40322
0.482997
0.369868
0.533337
0.488524
0.524617
0.533146
0.533482
0.322928
0.32443
0.542379
0.533265
0.484347
0.363249
0.327974
0.525268
0.319981
0.53327
0.483272
0.26088
0.537415
0.319785
0.507212
0.294939
0.545549
0.314994
0.533106
0.533569
0.277729
0.520606
0.508407
0.267239
0.533327
0.531706
0.4346
0.332703
0.286783
0.364668
0.546225
0.470653
0.318514
0.460559
0.535464
0.533491
0.294945
0.473767
0.51992
0.365483
0.533319
0.533628
0.235379
0.536681
0.533303
0.292843
0.465312
0.301922
0.495605
0.310054
0.332778
0.547888
0.317118
0.323074
0.322688
0.535366
0.512741
0.316376
0.533454
0.283643
0.51641
0.321267
0.515798
0.29003
0.533724
0.534155
0.502391
0.533444
0.436168
0.533592
0.533609
0.291981
0.499619
0.506648
0.377662
0.532966
0.390446
0.316105
0.547879
0.308187
0.448016
0.279021
0.53282
0.321787
0.32886
0.544455
0.533007
0.304353
0.537502
0.538085
0.533183
0.54842
0.533379
0.321661
0.552273
0.324084
0.325125
0.520096
0.539242
0.551845
0.522582
0.313912
0.309398
0.318245
0.516143
0.533571
0.285847
0.524644
0.333546
0.306954
0.304897
0.521307
0.304039
0.549494
0.537246
0.498762
0.53074
0.536309
0.446578
0.496867
0.344565
0.330455
0.304523
0.533373
0.53333
0.330623
0.491667
0.469845
0.498324
0.324544
0.310689
0.491621
0.220662
0.486071
0.462127
0.325868
0.53342
0.518332
0.327403
0.533549
0.320667
0.537242
0.549742
0.527848
0.321131
0.372816
0.532123
0.238848
0.351999
0.530756
0.245575
0.533426
0.536168
0.495651
0.538382
0.260703
0.533391
0.536234
0.532226
0.287879
0.54282
0.322344
0.330826
0.524022
0.532781
0.533415
0.18727
0.534447
0.499349
0.533289
0.334414
0.330371
0.323455
0.540085
0.318505
0.319253
0.305861
0.460405
0.318954
0.242016
0.350906
0.534626
0.325617
0.533405
0.533536
0.533782
0.300197
0.535908
0.51202
0.533321
0.329655
0.52245
0.318758
0.30973
0.534847
0.319325
0.488327
0.534447
0.5333
0.321013
0.260551
0.31976
0.442518
0.533264
0.185349
0.527607
0.535258
0.539331
0.324199
0.321843
0.272639
0.46991
0.324768
0.533216
0.477193
0.533564
0.527309
0.318642
0.488663
0.321964
0.437583
0.510068
0.551604
0.443573
0.372993
0.522193
0.487466
0.54314
0.305763
0.292977
0.313172
0.540594
0.416957
0.533317
0.324841
0.314437
0.541353
0.535676
0.533321
0.318541
0.534408
0.441153
0.44352
0.472769
0.329468
0.322263
0.234217
0.532804
0.533651
0.523027
0.484587
0.271707
0.539226
0.517381
0.533653
0.533315
0.539064
0.552757
0.533953
0.538151
0.544328
0.32503
0.537338
0.542106
0.533159
0.538582
0.532467
0.450251
0.324129
0.3332
0.482026
0.322781
0.263483
0.533722
0.320683
0.501817
0.536024
0.513006
0.527817
0.326568
0.535185
0.314217
0.32907
0.534006
0.533426
0.534226
0.296331
0.545619
0.532632
0.479888
0.532739
0.324034
0.533188
0.549352
0.518615
0.31828
0.54232
0.321584
0.557528
0.300922
0.324231
0.407101
0.354458
0.551906
0.542655
0.533545
0.307101
0.53322
0.318067
0.320486
0.508609
0.388883
0.324972
0.532999
0.321084
0.406721
0.522506
0.496544
0.517225
0.387906
0.470516
0.51371
0.533826
0.448121
0.544799
0.422631
0.553332
0.48126
0.507112
0.332547
0.319961
0.353949
0.541352
0.325929
0.520599
0.537818
0.471464
0.533885
0.405107
0.53257
0.525265
0.323954
0.536897
0.476587
0.381909
0.479459
0.548852
0.504906
0.53345
0.323606
0.322298
0.52964
0.419377
0.424932
0.538635
0.5336
0.533867
0.548282
0.549431
0.485407
0.486332
0.551556
0.319838
0.322006
0.322242
0.296622
0.533328
0.361669
0.420095
0.537142
0.529211
0.325638
0.528651
0.556156
0.295356
0.296126
0.53326
0.538668
0.330572
0.306957
0.312693
0.533174
0.494362
0.321634
0.32316
0.326185
0.33096
0.272527
0.321682
0.554337
0.534314
0.53061
0.308141
0.51392
0.473544
0.481422
0.293304
0.324601
0.506942
0.533271
0.323696
0.533522
0.327419
0.544129
0.325859
0.5332
0.298557
0.51709
0.547462
0.303278
0.444907
0.319714
0.552556
0.33016
0.476633
0.328004
0.397471
0.319821
0.469614
0.316879
0.533425
0.533425
0.479706
0.526557
0.282426
0.516103
0.533318
0.546418
0.471592
0.517166
0.325095
0.305566
0.328142
0.54678
0.230033
0.545301
0.430974
0.539027
0.5507
0.359919
0.540994
0.320817
0.331354
0.319251
0.401165
0.405469
0.532964
0.318882
0.326163
0.534386
0.300855
0.31797
0.431928
0.291497
0.323575
0.333877
0.553532
0.514726
0.480259
0.326689
0.513368
0.532944
0.331235
0.256678
0.52352
0.533113
0.440344
0.409259
0.327029
0.28718
0.311705
0.530083
0.478407
0.410097
0.534936
0.323794
0.446075
0.31951
0.533395
0.545334
0.325664
0.325768
0.483883
0.426416
0.54717
0.54431
0.546574
0.537993
0.549873
0.307556
0.323722
0.309929
0.31761
0.421205
0.533429
0.516124
0.318806
0.300333
0.354533
0.354862
0.533779
0.495633
0.323156
0.243257
0.535998
0.327471
0.512616
0.542824
0.508964
0.533273
0.430808
0.315732
0.301441
0.481743
0.325907
0.328926
0.315773
0.533447
0.532483
0.284339
0.325668
0.53318
0.315746
0.534165
0.546806
0.315127
0.318255
0.325023
0.53569
0.329024
0.533229
0.534885
0.471823
0.302369
0.420142
0.542128
0.525445
0.32117
0.522951
0.483753
0.369453
0.539507
0.556845
0.322052
0.316196
0.511017
0.320216
0.318092
0.519303
0.274659
0.533146
0.532902
0.54617
0.48967
0.545604
0.535877
0.533694
0.318112
0.32639
0.492703
0.531691
0.372604
0.55261
0.256813
0.537866
0.51854
0.447282
0.508916
0.306163
0.361254
0.529359
0.543011
0.478578
0.547736
0.534969
0.533226
0.547573
0.533166
0.521503
0.510716
0.535668
0.533283
0.533696
0.280481
0.502013
0.291032
0.535168
0.537457
0.540004
0.50095
0.537976
0.317062
0.316509
0.242445
0.320949
0.50717
0.313358
0.323066
0.529849
0.324095
0.537611
0.312309
0.519519
0.535505
0.315413
0.303098
0.257043
0.540456
0.324339
0.532348
0.537497
0.319227
0.504702
0.439224
0.272914
0.32906
0.3242
0.538837
0.316229
0.53606
0.402202
0.320192
0.531831
0.533097
0.546544
0.327104
0.450982
0.324612
0.515488
0.533661
0.535806
0.323244
0.530874
0.538748
0.489503
0.320791
0.540341
0.328482
0.321031
0.529557
0.357832
0.549676
0.315201
0.323295
0.352509
0.496429
0.326068
0.231178
0.30005
0.376596
0.533282
0.536992
0.329039
0.468582
0.535066
0.443531
0.329957
0.258717
0.441117
0.327118
0.319716
0.530151
0.321709
0.325686
0.54265
0.554322
0.295278
0.542057
0.309038
0.533246
0.326781
0.509905
0.533544
0.539021
0.533455
0.321823
0.319729
0.320458
0.533746
0.512549
0.468544
0.426667
0.294965
0.240901
0.533315
0.318393
0.533557
0.303908
0.533559
0.524749
0.295751
0.289302
0.322813
0.325845
0.290344
0.482751
0.509267
0.29891
0.536578
0.499926
0.315047
0.31945
0.55422
0.324783
0.535202
0.339533
0.53868
0.513644
0.535825
0.533304
0.322108
0.54946
0.533714
0.555704
0.319764
0.475902
0.473535
0.260542
0.541351
0.499528
0.549047
0.514146
0.549917
0.528392
0.551223
0.53314
0.531907
0.308433
0.545739
0.323013
0.360984
0.53051
0.322329
0.520994
0.475267
0.325506
0.490686
0.317401
0.311053
0.52334
0.467295
0.553901
0.323969
0.513901
0.487237
0.317093
0.305456
0.509482
0.53306
0.299579
0.306495
0.537954
0.553706
0.310675
0.503508
0.54821
0.516978
0.296826
0.328721
0.314781
0.514871
0.312679
0.523545
0.540584
0.533339
0.473658
0.535777
0.324316
0.519326
0.487098
0.547284
0.441044
0.325519
0.318195
0.330351
0.544577
0.538433
0.337427
0.511929
0.249989
0.503848
0.53672
0.327686
0.482792
0.524405
0.488491
0.306557
0.326276
0.29001
0.540056
0.549587
0.485215
0.40882
0.535768
0.324197
0.497589
0.533281
0.531055
0.306362
0.49508
0.325704
0.481316
0.332294
0.530925
0.523376
0.326951
0.539827
0.33478
0.533276
0.500735
0.533202
0.540547
0.325564
0.533335
0.53338
0.533203
0.531676
0.384327
0.533274
0.324099
0.533531
0.328356
0.299987
0.325737
0.289572
0.32581
0.302392
0.550215
0.290836
0.318854
0.515294
0.540207
0.511176
0.322389
0.535001
0.534282
0.533286
0.274245
0.45248
0.535647
0.3191
0.302969
0.319188
0.492879
0.404298
0.313705
0.458431
0.333622
0.533385
0.398829
0.326998
0.375844
0.51005
0.285639
0.533396
0.322308
0.36851
0.297379
0.53256
0.303897
0.51056
0.533277
0.462983
0.328235
0.320924
0.527234
0.552852
0.306938
0.303811
0.533639
0.320244
0.541954
0.309602
0.44269
0.330916
0.535787
0.32316
0.551743
0.299694
0.536531
0.536543
0.543658
0.533346
0.325988
0.325934
0.322102
0.497749
0.529134
0.495151
0.407646
0.326714
0.539842
0.262365
0.510445
0.455842
0.315576
0.324399
0.543923
0.530752
0.326805
0.533413
0.531156
0.543872
0.546181
0.322123
0.499634
0.324416
0.543953
0.314095
0.533408
0.505542
0.513672
0.552223
0.315766
0.557277
0.317993
0.322624
0.534068
0.533357
0.43161
0.530336
0.533315
0.324034
0.543577
0.529658
0.549757
0.304796
0.338044
0.531811
0.315785
0.53821
0.537553
0.523164
0.53492
0.228079
0.353558
0.509889
0.32635
0.518451
0.553325
0.372839
0.520644
0.215662
0.483525
0.543786
0.530589
0.520882
0.324701
0.330083
0.533188
0.521416
0.325533
0.262834
0.322326
0.325893
0.319212
0.333542
0.287114
0.32037
0.532644
0.326696
0.293101
0.537091
0.430041
0.533183
0.313896
0.324996
0.535471
0.369178
0.373854
0.548048
0.29387
0.518568
0.53357
0.48135
0.517591
0.319035
0.537304
0.533681
0.319471
0.320157
0.31618
0.472585
0.480716
0.54978
0.533995
0.531739
0.520492
0.292812
0.538156
0.533689
0.509085
0.323514
0.536184
0.449548
0.287345
0.34273
0.321617
0.321582
0.32233
0.464679
0.523528
0.522401
0.319741
0.308842
0.548142
0.282376
0.537591
0.53338
0.523467
0.530811
0.535479
0.319358
0.323749
0.334042
0.445042
0.318163
0.534509
0.319298
0.534793
0.53343
0.537063
0.298331
0.354503
0.324372
0.53616
0.306071
0.318913
0.533477
0.517346
0.484983
0.533853
0.505148
0.54156
0.321722
0.493401
0.545634
0.421477
0.535131
0.539203
0.542509
0.365518
0.338991
0.550887
0.39577
0.479776
0.323164
0.502964
0.523862
0.317919
0.311935
0.51379
0.402739
0.543534
0.537564
0.316776
0.327005
0.533309
0.299773
0.324348
0.525224
0.510344
0.324077
0.527577
0.533465
0.502519
0.299627
0.465721
0.32276
0.527627
0.545079
0.541441
0.52007
0.533443
0.248538
0.283457
0.530012
0.319974
0.481026
0.321291
0.536395
0.3314
0.507688
0.545263
0.533419
0.32312
0.533215
0.533268
0.319461
0.503533
0.314475
0.554528
0.323321
0.298816
0.315177
0.526962
0.530135
0.257004