# vtk DataFile Version 1.0
unstructured grid
ascii
DATASET UNSTRUCTURED_GRID
points 13672 float
0.0796578 -0.059106 0
0.00128732 0.00159165 0
0.00227961 -0.00102548 0
0.0791586 -0.0598787 0
-0.0546216 0.01 0
0.000495206 0.025 0
0.0800549 -0.035 0
0.135172 -0.08 0
-0.0546216 -0.0451168 0
0.000495206 -0.0301168 0
0.0800549 -0.0901168 0
0.135172 -0.135117 0
-0.0546216 -0.0451168 -0.00551168
0.000495206 -0.0301168 -0.00551168
0.0800549 -0.0901168 -0.00551168
0.135172 -0.135117 -0.00551168
0.135172 -0.08 -0.00551168
0.0800549 -0.035 -0.00551168
0.000495206 0.025 -0.00551168
-0.0546216 0.01 -0.00551168
0.00128732 0.00159165 -0.00551168
0.00227961 -0.00102548 -0.00551168
0.0791586 -0.0598787 -0.00551168
0.0796578 -0.059106 -0.00551168
0.00165953 -0.000990923 0
0.00119576 -0.000874076 0
0.000866021 -0.000641801 0
0.000645147 -0.000349912 0
0.00052235 -1.7281e-05 0
0.00049972 0.000348016 0
0.000601632 0.000737716 0
0.000861774 0.0011403 0
0.00157235 0.00183217 0
0.00188647 0.00206725 0
0.00222612 0.00230203 0
0.00258713 0.00254351 0
0.00296826 0.00279524 0
0.00337118 0.00305664 0
0.00379785 0.00332658 0
0.00425045 0.00360349 0
0.00473139 0.00388521 0
0.0052432 0.00416895 0
0.0057881 0.00445204 0
0.00636753 0.00473281 0
0.00698281 0.00500961 0
0.00763526 0.00528058 0
0.00832616 0.00554366 0
0.00905691 0.00579603 0
0.00982918 0.00603333 0
0.0106445 0.00625033 0
0.0115038 0.00644128 0
0.0124073 0.00660297 0
0.0133543 0.00673414 0
0.0143444 0.00683382 0
0.0153769 0.00690031 0
0.0164512 0.00693173 0
0.0175666 0.00692547 0
0.0187219 0.00687822 0
0.0199156 0.00678477 0
0.0211454 0.00663864 0
0.0224084 0.00643275 0
0.0237018 0.00616676 0
0.0250249 0.00584739 0
0.026375 0.00547298 0
0.0277479 0.00503752 0
0.0291386 0.00453545 0
0.0305433 0.0039653 0
0.0319572 0.0033256 0
0.0333681 0.00260019 0
0.034775 0.00179799 0
0.0361793 0.000930615 0
0.0375798 3.12222e-06 0
0.0389689 -0.000988429 0
0.0403357 -0.00205109 0
0.041675 -0.00318283 0
0.0429849 -0.00437751 0
0.0442643 -0.00562904 0
0.0455126 -0.00693089 0
0.0467314 -0.00827518 0
0.0479204 -0.00965638 0
0.0490661 -0.0110799 0
0.0501515 -0.0125519 0
0.0511696 -0.0140695 0
0.0521492 -0.0156071 0
0.0531202 -0.0171411 0
0.0540851 -0.0186663 0
0.0550431 -0.0201798 0
0.0559923 -0.0216793 0
0.0569311 -0.0231626 0
0.0578582 -0.0246273 0
0.0587723 -0.0260715 0
0.0596721 -0.027493 0
0.0605563 -0.02889 0
0.0614241 -0.0302609 0
0.0622742 -0.0316042 0
0.063106 -0.0329183 0
0.0639186 -0.034202 0
0.0647113 -0.0354543 0
0.0654835 -0.0366743 0
0.0662345 -0.0378613 0
0.0669642 -0.0390145 0
0.0676726 -0.0401333 0
0.0683597 -0.0412172 0
0.0690246 -0.0422665 0
0.0696662 -0.0432819 0
0.0702841 -0.0442636 0
0.0708793 -0.0452111 0
0.0714538 -0.0461237 0
0.072009 -0.047001 0
0.0725452 -0.0478434 0
0.0730611 -0.0486524 0
0.073556 -0.0494294 0
0.0740291 -0.0501756 0
0.0744812 -0.0508916 0
0.0749138 -0.0515773 0
0.0753285 -0.0522331 0
0.0757266 -0.0528592 0
0.076109 -0.0534564 0
0.0764753 -0.0540264 0
0.0768243 -0.054571 0
0.0771553 -0.0550919 0
0.0774679 -0.0555901 0
0.0777617 -0.0560669 0
0.0780369 -0.056523 0
0.0782958 -0.0569578 0
0.0785421 -0.0573703 0
0.0787786 -0.0577603 0
0.0790073 -0.0581279 0
0.0792295 -0.058474 0
0.0794462 -0.0587995 0
0.0798803 -0.0594162 0
0.0800272 -0.0596588 0
0.0800357 -0.0598891 0
0.0799275 -0.0600784 0
0.0797205 -0.0601773 0
0.0794593 -0.0601051 0
0.0789155 -0.0596491 0
0.0786707 -0.0593963 0
0.0784111 -0.0591319 0
0.0781372 -0.0588542 0
0.0778566 -0.0585548 0
0.0775715 -0.0582308 0
0.0772803 -0.0578828 0
0.0769832 -0.0575099 0
0.0766822 -0.0571097 0
0.0763801 -0.0566796 0
0.0760759 -0.0562196 0
0.0757623 -0.0557337 0
0.0754359 -0.0552232 0
0.0750951 -0.0546879 0
0.0747379 -0.054128 0
0.0743626 -0.0535435 0
0.0739688 -0.0529338 0
0.0735559 -0.0522981 0
0.0731238 -0.0516357 0
0.0726718 -0.050946 0
0.0721991 -0.0502288 0
0.0717046 -0.049484 0
0.0711872 -0.0487117 0
0.0706461 -0.047912 0
0.0700804 -0.0470849 0
0.0694892 -0.0462308 0
0.0688718 -0.0453499 0
0.0682271 -0.0444431 0
0.0675544 -0.043511 0
0.0668527 -0.0425546 0
0.0661215 -0.0415748 0
0.06536 -0.040573 0
0.0645676 -0.0395504 0
0.0637439 -0.0385087 0
0.0628887 -0.0374493 0
0.062002 -0.0363741 0
0.0610838 -0.0352847 0
0.0601345 -0.0341831 0
0.0591547 -0.033071 0
0.0581456 -0.0319502 0
0.0571083 -0.0308224 0
0.0560444 -0.0296893 0
0.0549562 -0.028552 0
0.053845 -0.0274126 0
0.0527113 -0.0262746 0
0.051554 -0.0251427 0
0.0503724 -0.0240222 0
0.0491675 -0.0229164 0
0.047941 -0.0218282 0
0.0466955 -0.0207597 0
0.0454337 -0.0197126 0
0.0441592 -0.0186878 0
0.0428751 -0.0176863 0
0.0415841 -0.0167097 0
0.0402878 -0.0157609 0
0.0389879 -0.0148428 0
0.0376864 -0.0139575 0
0.0363853 -0.013107 0
0.0350871 -0.0122931 0
0.0337942 -0.0115164 0
0.0325095 -0.0107772 0
0.0312357 -0.0100756 0
0.0299758 -0.00941024 0
0.0287337 -0.00877784 0
0.0275126 -0.00817571 0
0.0263139 -0.00760375 0
0.0251376 -0.00706528 0
0.0239829 -0.0065649 0
0.0228537 -0.00609619 0
0.0217522 -0.00565563 0
0.0206795 -0.00524226 0
0.0196364 -0.00485507 0
0.0186233 -0.00449318 0
0.0176408 -0.00415577 0
0.016689 -0.00384204 0
0.0157682 -0.00355115 0
0.0148783 -0.00328218 0
0.0140192 -0.00303468 0
0.0131906 -0.00280795 0
0.0123925 -0.00260016 0
0.0116246 -0.00241012 0
0.0108864 -0.00223769 0
0.0101774 -0.00208212 0
0.00949701 -0.00194206 0
0.00884483 -0.0018163 0
0.0082202 -0.0017039 0
0.00762247 -0.00160391 0
0.00705097 -0.00151528 0
0.006505 -0.00143697 0
0.0059838 -0.00136806 0
0.00548662 -0.00130772 0
0.00501265 -0.00125519 0
0.00456114 -0.00120954 0
0.00413136 -0.00116914 0
0.00372257 -0.00113251 0
0.00333398 -0.00109853 0
0.00296466 -0.00106798 0
0.00261363 -0.0010431 0
-0.052721 -0.0445996 0
-0.0508204 -0.0440823 0
-0.0489199 -0.0435651 0
-0.0470193 -0.0430478 0
-0.0451187 -0.0425306 0
-0.0432181 -0.0420134 0
-0.0413175 -0.0414961 0
-0.039417 -0.0409789 0
-0.0375164 -0.0404616 0
-0.0356158 -0.0399444 0
-0.0337152 -0.0394271 0
-0.0318146 -0.0389099 0
-0.0299141 -0.0383927 0
-0.0280135 -0.0378754 0
-0.0261129 -0.0373582 0
-0.0242123 -0.0368409 0
-0.0223117 -0.0363237 0
-0.0204112 -0.0358065 0
-0.0185106 -0.0352892 0
-0.01661 -0.034772 0
-0.0147094 -0.0342547 0
-0.0128088 -0.0337375 0
-0.0109083 -0.0332202 0
-0.00900769 -0.032703 0
-0.00710711 -0.0321858 0
-0.00520653 -0.0316685 0
-0.00330595 -0.0311513 0
-0.00140537 -0.030634 0
0.00190689 -0.0299614 0
0.00332271 -0.0298498 0
0.00474133 -0.0297825 0
0.00616136 -0.0297597 0
0.0075814 -0.0297814 0
0.00900007 -0.0298477 0
0.010416 -0.0299583 0
0.0118278 -0.0301127 0
0.0132342 -0.0303103 0
0.0146339 -0.0305504 0
0.0160259 -0.0308322 0
0.0174091 -0.0311546 0
0.0187824 -0.0315166 0
0.020145 -0.031917 0
0.0214961 -0.0323546 0
0.0228351 -0.032828 0
0.0241613 -0.0333361 0
0.0254744 -0.0338774 0
0.0267738 -0.0344507 0
0.0280592 -0.0350545 0
0.0293306 -0.0356877 0
0.0305875 -0.0363488 0
0.0318301 -0.0370367 0
0.0330581 -0.0377501 0
0.0342717 -0.0384879 0
0.0354708 -0.0392489 0
0.0366556 -0.0400321 0
0.0378262 -0.0408363 0
0.0389828 -0.0416607 0
0.0401254 -0.0425042 0
0.0412543 -0.0433659 0
0.0423698 -0.0442451 0
0.043472 -0.0451408 0
0.0445612 -0.0460523 0
0.0456375 -0.0469789 0
0.0467013 -0.0479199 0
0.0477529 -0.0488746 0
0.0487923 -0.0498424 0
0.04982 -0.0508227 0
0.0508362 -0.051815 0
0.051841 -0.0528187 0
0.0528348 -0.0538333 0
0.0538178 -0.0548584 0
0.0547903 -0.0558935 0
0.0557524 -0.0569382 0
0.0567045 -0.0579922 0
0.0576467 -0.0590549 0
0.0585792 -0.0601261 0
0.0595024 -0.0612055 0
0.0604163 -0.0622926 0
0.0613212 -0.0633873 0
0.0622174 -0.0644891 0
0.0631049 -0.0655979 0
0.0639841 -0.0667134 0
0.064855 -0.0678353 0
0.0657179 -0.0689633 0
0.0665729 -0.0700974 0
0.0674202 -0.0712372 0
0.06826 -0.0723826 0
0.0690925 -0.0735333 0
0.0699178 -0.0746892 0
0.070736 -0.0758501 0
0.0715473 -0.0770159 0
0.0723518 -0.0781863 0
0.0731498 -0.0793612 0
0.0739412 -0.0805405 0
0.0747264 -0.081724 0
0.0755053 -0.0829116 0
0.0762781 -0.0841033 0
0.0770449 -0.0852987 0
0.0778059 -0.0864979 0
0.0785611 -0.0877007 0
0.0793108 -0.088907 0
0.0814681 -0.0912706 0
0.0828814 -0.0924245 0
0.0842946 -0.0935783 0
0.0857079 -0.0947322 0
0.0871211 -0.095886 0
0.0885344 -0.0970399 0
0.0899476 -0.0981937 0
0.0913609 -0.0993476 0
0.0927741 -0.100501 0
0.0941874 -0.101655 0
0.0956006 -0.102809 0
0.0970139 -0.103963 0
0.0984272 -0.105117 0
0.0998404 -0.106271 0
0.101254 -0.107424 0
0.102667 -0.108578 0
0.10408 -0.109732 0
0.105493 -0.110886 0
0.106907 -0.11204 0
0.10832 -0.113194 0
0.109733 -0.114348 0
0.111146 -0.115501 0
0.11256 -0.116655 0
0.113973 -0.117809 0
0.115386 -0.118963 0
0.116799 -0.120117 0
0.118213 -0.121271 0
0.119626 -0.122424 0
0.121039 -0.123578 0
0.122452 -0.124732 0
0.123866 -0.125886 0
0.125279 -0.12704 0
0.126692 -0.128194 0
0.128105 -0.129348 0
0.129519 -0.130501 0
0.130932 -0.131655 0
0.132345 -0.132809 0
0.133758 -0.133963 0
0.135172 -0.133216 0
0.135172 -0.131316 0
0.135172 -0.129415 0
0.135172 -0.127514 0
0.135172 -0.125614 0
0.135172 -0.123713 0
0.135172 -0.121813 0
0.135172 -0.119912 0
0.135172 -0.118012 0
0.135172 -0.116111 0
0.135172 -0.11421 0
0.135172 -0.11231 0
0.135172 -0.110409 0
0.135172 -0.108509 0
0.135172 -0.106608 0
0.135172 -0.104708 0
0.135172 -0.102807 0
0.135172 -0.100906 0
0.135172 -0.0990058 0
0.135172 -0.0971052 0
0.135172 -0.0952046 0
0.135172 -0.0933041 0
0.135172 -0.0914035 0
0.135172 -0.0895029 0
0.135172 -0.0876023 0
0.135172 -0.0857017 0
0.135172 -0.0838012 0
0.135172 -0.0819006 0
0.133758 -0.0788462 0
0.132345 -0.0776923 0
0.130932 -0.0765385 0
0.129519 -0.0753846 0
0.128105 -0.0742308 0
0.126692 -0.0730769 0
0.125279 -0.0719231 0
0.123866 -0.0707692 0
0.122452 -0.0696154 0
0.121039 -0.0684615 0
0.119626 -0.0673077 0
0.118213 -0.0661538 0
0.116799 -0.065 0
0.115386 -0.0638462 0
0.113973 -0.0626923 0
0.11256 -0.0615385 0
0.111146 -0.0603846 0
0.109733 -0.0592308 0
0.10832 -0.0580769 0
0.106907 -0.0569231 0
0.105493 -0.0557692 0
0.10408 -0.0546154 0
0.102667 -0.0534615 0
0.101254 -0.0523077 0
0.0998404 -0.0511538 0
0.0984272 -0.05 0
0.0970139 -0.0488462 0
0.0956006 -0.0476923 0
[...]
CELL_DATA 13116
SCALARS rho float
LOOKUP_TABLE default
0.484348
0.567333
0.34896
0.572041
0.581931
0.528067
0.338769
0.558442
0.459713
0.609611
0.336273
0.353281
0.579656
0.34979
0.340777
0.527999
0.452142
0.647664
0.523947
0.352974
0.48923
0.332088
0.359867
0.645573
0.547443
0.58281
0.612279
0.342612
0.544774
0.590737
0.529926
0.355377
0.488893
0.382396
0.336674
0.487283
0.610274
0.524737
0.528574
0.529356
0.525726
0.562199
0.3642
0.365596
0.523359
0.523769
0.553567
0.524965
0.344782
0.454808
0.543124
0.378846
0.347698
0.444437
0.487632
0.520974
0.368919
0.633048
0.468398
0.347956
0.35124
0.585879
0.560556
0.52869
0.529767
0.360535
0.527302
0.619914
0.526896
0.529579
0.339527
0.521453
0.327382
0.366607
0.530656
0.332494
0.57917
0.546349
0.340754
0.644638
0.619647
0.562493
0.637865
0.525674
0.525532
0.384645
0.346249
0.617803
0.535515
0.326483
0.367071
0.566193
0.642768
0.544739
0.594106
0.536032
0.550505
0.530319
0.53035
0.534933
0.630058
0.523254
0.525308
0.339812
0.548512
0.358439
0.299941
0.408293
0.361219
0.556908
0.436764
0.557841
0.533908
0.626729
0.645245
0.527514
0.34727
0.326311
0.536151
0.528302
0.620657
0.325953
0.527024
0.367869
0.551504
0.371918
0.34688
0.440906
0.365679
0.456267
0.535309
0.565177
0.43297
0.339855
0.413448
0.520714
0.532352
0.528818
0.628963
0.528362
0.562668
0.554131
0.4394
0.563195
0.56975
0.346651
0.335121
0.569031
0.588986
0.539461
0.475551
0.524995
0.525022
0.330778
0.605449
0.524743
0.359848
0.63681
0.530266
0.618358
0.6428
0.337344
0.626632
0.362478
0.323437
0.570783
0.549458
0.647289
0.337337
0.397738
0.356936
0.532267
0.34438
0.424391
0.527274
0.357438
0.333522
0.329074
0.556633
0.527624
0.366428
0.365975
0.457043
0.611149
0.52754
0.466119
0.367694
0.526302
0.549083
0.394903
0.577183
0.567864
0.529359
0.354473
0.56118
0.527777
0.625613
0.525827
0.536496
0.336556
0.339687
0.563067
0.435166
0.362788
0.577956
0.525359
0.387212
0.547632
0.353113
0.322981
0.343636
0.527188
0.360851
0.357802
0.323656
0.332792
0.307424
0.528353
0.551688
0.373856
0.369072
0.527244
0.430252
0.364131
0.487762
0.595474
0.568437
0.344517
0.527371
0.330764
0.586646
0.358238
0.529288
0.510086
0.530532
0.528266
0.529226
0.349341
0.364331
0.61835
0.530913
0.527757
0.532057
0.528932
0.554869
0.334153
0.53362
0.598055
0.5303
0.330765
0.345182
0.524177
0.532888
0.529479
0.531309
0.470283
0.634881
0.335756
0.359651
0.333139
0.353192
0.541533
0.626485
0.577814
0.344507
0.523498
0.364851
0.368074
0.547996
0.321768
0.571144
0.551818
0.5312
0.630092
0.350843
0.531271
0.623387
0.530295
0.528511
0.340481
0.350131
0.358522
0.51546
0.324962
0.340495
0.276355
0.305087
0.532192
0.348199
0.528974
0.564583
0.363787
0.361706
0.3642
0.38595
0.345446
0.616116
0.521254
0.552409
0.321644
0.526662
0.523354
0.359203
0.346486
0.528468
0.532136
0.526051
0.367395
0.527734
0.349479
0.560599
0.561675
0.535308
0.55933
0.358226
0.527297
0.348774
0.527219
0.615353
0.619452
0.341688
0.276107
0.594846
0.360672
0.546358
0.5838
0.297836
0.639609
0.638233
0.35998
0.523576
0.640497
0.352643
0.536139
0.383701
0.509691
0.568595
0.3904
0.637208
0.345802
0.642654
0.288045
0.528688
0.522388
0.630883
0.348387
0.298246
0.525114
0.323052
0.566422
0.552599
0.357106
0.532333
0.360361
0.323719
0.543544
0.488366
0.61741
0.350584
0.361603
0.533259
0.567234
0.335449
0.549705
0.350328
0.358989
0.527608
0.560516
0.394028
0.332145
0.528735
0.52976
0.528
0.523686
0.60941
0.475724
0.338507
0.350576
0.368279
0.528078
0.367698
0.455112
0.301872
0.339838
0.292749
0.405525
0.116285
0.323043
0.524648
0.293005
0.623912
0.544475
0.524776
0.608249
0.535074
0.323761
0.350143
0.343879
0.326247
0.55604
0.529194
0.525304
0.545098
0.571369
0.56059
0.56169
0.561585
0.587339
0.601277
0.644429
0.528328
0.339551
0.393058
0.480457
0.329782
0.518173
0.519286
0.34738
0.527394
0.531128
0.3606
0.348254
0.334215
0.367392
0.574499
0.335954
0.354542
0.527202
0.364099
0.509662
0.32935
0.527754
0.605888
0.343427
0.338688
0.545784
0.387316
0.330733
0.368329
0.328413
0.360772
0.353963
0.348621
0.33419
0.367781
0.334084
0.52153
0.333056
0.527961
0.309674
0.36296
0.435052
0.340269
0.326443
0.342315
0.526178
0.373739
0.586501
0.410941
0.363232
0.550593
0.534581
0.383961
0.639005
0.561984
0.560226
0.357835
0.530473
0.32772
0.619413
0.530074
0.359485
0.345529
0.547105
0.322306
0.392031
0.525623
0.298939
0.635681
0.568781
0.365741
0.330979
0.342903
0.419949
0.344689
0.351292
0.34198
0.348774
0.570533
0.579356
0.393113
0.538695
0.41256
0.55878
0.295226
0.326288
0.464624
0.359037
0.536788
0.24659
0.311552
0.428787
0.523013
0.55017
0.495248
0.296074
0.345171
0.504782
0.557121
0.529335
0.500644
0.548264
0.539864
0.334106
0.606672
0.505031
0.617077
0.262147
0.346405
0.62633
0.633894
0.606905
0.601787
0.538009
0.582855
0.641759
0.617576
0.524869
0.323445
0.523194
0.285692
0.353825
0.354655
0.58034
0.524947
0.255718
0.527136
0.564304
0.341783
0.528986
0.530967
0.608798
0.342169
0.326249
0.55001
0.333054
0.348135
0.356786
0.334228
0.541485
0.351799
0.580667
0.331296
0.569021
0.539748
0.526776
0.571917
0.331226
0.364877
0.527038
0.589781
0.59584
0.571988
0.599865
0.430377
0.3597
0.357733
0.526997
0.461416
0.335632
0.386941
0.338335
0.550424
0.526435
0.26256
0.332343
0.528585
0.401692
0.523463
0.610037
0.366463
0.331339
0.590901
0.531068
0.362771
0.550637
0.553795
0.525452
0.321627
0.532022
0.368623
0.530631
0.615431
0.334892
0.307176
0.339307
0.530506
0.359855
0.342581
0.326972
0.528785
0.589836
0.34265
0.356355
0.32897
0.528959
0.32732
0.527719
0.346514
0.525872
0.597841
0.313472
0.362483
0.360808
0.430733
0.357292
0.563945
0.366854
0.330286
0.527988
0.3436
0.527295
0.551139
0.530477
0.362346
0.534652
0.628343
0.623199
0.526872
0.568601
0.527496
0.347853
0.52943
0.376162
0.537895
0.342074
0.552567
0.439269
0.339048
0.529826
0.596495
0.323825
0.565798
0.36513
0.338123
0.527152
0.52595
0.345705
0.346512
0.341225
0.344821
0.556248
0.647077
0.321873
0.366684
0.568445
0.529066
0.527969
0.626721
0.526684
0.337294
0.62468
0.362832
0.541395
0.328315
0.533416
0.415267
0.527219
0.61863
0.514027
0.286818
0.349761
0.525593
0.545199
0.451134
0.627427
0.352085
0.614146
0.607398
0.312367
0.391131
0.624647
0.29638
0.529651
0.619597
0.272481
0.529764
0.591963
0.340471
0.597797
0.358398
0.534986
0.357868
0.52721
0.560706
0.354157
0.528726
0.625495
0.55948
0.565862
0.593354
0.521353
0.351069
0.35167
0.295254
0.364037
0.532753
0.491102
0.527568
0.588291
0.3564
0.330814
0.590496
0.601828
0.548123
0.550956
0.343231
0.644949
0.59596
0.3526
0.312758
0.537555
0.523844
0.529187
0.322227
0.530037
0.34199
0.602339
0.549042
0.529217
0.553519
0.334175
0.556604
0.529747
0.63822
0.52586
0.526386
0.372528
0.60564
0.322997
0.5525
0.60034
0.397621
0.570938
0.529123
0.538788
0.33891
0.342298
0.522625
0.598876
0.334376
0.333325
0.322291
0.330343
0.573112
0.614901
0.529082
0.301367
0.334547
0.526788
0.634917
0.351689
0.333189
0.398575
0.604339
0.525939
0.523799
0.632519
0.322737
0.335965
0.531847
0.365552
0.361051
0.363527
0.526539
0.34095
0.329267
0.512687
0.530208
0.556974
0.528406
0.526558
0.350096
0.343154
0.322166
0.410629
0.373787
0.361243
0.617996
0.635471
0.535097
0.525954
0.333519
0.361492
0.603031
0.343688
0.526448
0.558
0.53004
0.345811
0.33063
0.538691
0.529827
0.495942
0.352441
0.524001
0.528264
0.507884
0.53789
0.550299
0.531598
0.548685
0.343448
0.526659
0.529617
0.550542
0.60533
0.532771
0.553528
0.53157
0.527855
0.33055
0.327914
0.359313
0.529831
0.437624
0.340003
0.587169
0.57413
0.351029
0.574886
0.344626
0.579691
0.403408
0.350453
0.594298
0.64738
0.334466
0.486065
0.529777
0.367938
0.541927
0.357611
0.357882
0.555686
0.547546
0.435002
0.525104
0.323194
0.622802
0.333076
0.316527
0.527326
0.335688
0.541237
0.341681
0.573573
0.534938
0.531675
0.549173
0.348671
0.329661
0.541227
0.365835
0.550696
0.392189
0.527905
0.528013
0.639108
0.379714
0.553566
0.559146
0.624296
0.527404
0.291085
0.340715
0.475498
0.562419
0.632195
0.314198
0.525374
0.497712
0.34298
0.343353
0.621482
0.606765
0.53188
0.530592
0.527647
0.623643
0.528646
0.616441
0.350942
0.607261
0.396178
0.531496
0.523415
0.267407
0.59623
0.566565
0.326177
0.350596
0.361395
0.532733
0.337361
0.555612
0.606659
0.609032
0.328533
0.526183
0.359067
0.529458
0.528946
0.529186
0.616187
0.528956
0.559997
0.618829
0.457691
0.537394
0.358304
0.526696
0.526763
0.347465
0.531247
0.611606
0.360278
0.350493
0.367207
0.535743
0.331164
0.531286
0.331388
0.556942
0.345601
0.41577
0.352494
0.620726
0.548792
0.468727
0.223724
0.559852
0.528262
0.320991
0.526904
0.581186
0.358586
0.523804
0.530046
0.595898
0.52631
0.359122
0.406227
0.5556
0.524173
0.554109
0.329326
0.339043
0.5234
0.532091
0.531127
0.532261
0.482968
0.566899
0.47761
0.529436
0.330335
0.36146
0.532167
0.577283
0.528724
0.361512
0.526437
0.491222
0.536712
0.338778
0.356619
0.551176
0.575799
0.490967
0.316986
0.525431
0.531066
0.337633
0.550388
0.632423
0.337445
0.357696
0.34823
0.555376
0.331601
0.330016
0.52341
0.398772
0.624985
0.581754
0.33895
0.357625
0.56554
0.325248
0.335235
0.5298
0.358501
0.296326
0.528265
0.570388
0.541412
0.331067
0.348554
0.333407
0.549577
0.358284
0.53888
0.340835
0.581163
0.585079
0.522997
0.550068
0.566491
0.550083
0.526122
0.569531
0.537412
0.35144
0.321591
0.573506
0.528671
0.441138
0.553021
0.492848
0.528817
0.548844
0.343175
0.527814
0.586201
0.530888
0.329716
0.560995
0.346602
0.526
0.43358
0.643697
0.526628
0.35045
0.563425
0.331742
0.364467
0.563451
0.362023
0.636094
0.532741
0.553814
0.366707
0.527159
0.329579
0.359099
0.33842
0.323407
0.539314
0.346125
0.567603
0.528946
0.319184
0.354448
0.424045
0.518853
0.574582
0.553022
0.359755
0.358631
0.33539
0.352512
0.222428
0.573984
0.556704
0.340028
0.528821
0.604099
0.348246
0.595992
0.634208
0.528859
0.326076
0.530705
0.59454
0.600516
0.533259
0.343436
0.54574
0.592566
0.558407
0.622614
0.527822
0.343458
0.343853
0.524873
0.473501
0.332865
0.527416
0.354107
0.509039
0.566147
0.535561
0.533027
0.360159
0.551912
0.333161
0.32908
0.640048
0.562204
0.602153
0.533137
0.600396
0.361536
0.579048
0.350415
0.440066
0.568634
0.530418
0.552833
0.32969
0.356304
0.597396
0.354873
0.54789
0.598337
0.365508
0.345586
0.527788
0.344007
0.526723
0.54978
0.593239
0.343159
0.328045
0.437153
0.450581
0.560504
0.405397
0.527772
0.552536
0.527174
0.532871
0.586957
0.344371
0.342469
0.547489
0.527766
0.552253
0.397647
0.362712
0.604184
0.345629
0.526558
0.559184
0.341371
0.55775
0.337812
0.569448
0.348304
0.592317
0.349389
0.52854
0.527805
0.279784
0.549043
0.598187
0.263681
0.529035
0.524163
0.490909
0.34059
0.305486
0.399728
0.626715
0.536748
0.328267
0.524923
0.586056
0.528081
0.319384
0.547006
0.5411
0.401716
0.527644
0.527333
0.250222
0.530348
0.530162
0.349555
0.534931
0.367937
0.576391
0.341623
0.358154
0.634867
0.323719
0.32812
0.348601
0.52724
0.551079
0.345585
0.525236
0.303108
0.593349
0.329324
0.551014
0.303355
0.527907
0.524938
0.58394
0.529045
0.490246
0.527786
0.528795
0.344042
0.584523
0.590803
0.419913
0.584562
0.429622
0.344611
0.579982
0.356201
0.508448
0.345034
0.525396
0.350829
0.354077
0.648109
0.526513
0.363738
0.529954
0.636554
0.532738
0.549666
0.530646
0.343551
0.604427
0.360408
0.361462
0.541344
0.631258
0.560776
0.52686
0.355523
0.342916
0.334056
0.562732
0.528895
0.304282
0.569025
0.357449
0.35851
0.335051
0.531839
0.328396
0.582054
0.539637
0.583202
0.525704
0.53558
0.508739
0.573723
0.374558
0.331672
0.3648
0.530639
0.530787
0.361001
0.573207
0.553099
0.576982
0.359683
0.336892
0.554206
0.235146
0.550817
0.528379
0.357738
0.5281
0.571751
0.344683
0.539097
0.336065
0.527537
0.632084
0.564312
0.347138
0.409019
0.634096
0.251518
0.38349
0.524759
0.259383
0.527942
0.527328
0.57048
0.638441
0.332198
0.529969
0.639194
0.524197
0.308474
0.536193
0.33128
0.344688
0.525793
0.525978
0.528769
0.198965
0.526808
0.584071
0.530683
0.358944
0.34696
0.330539
0.530817
0.337914
0.342745
0.339603
0.5266
0.338008
0.280292
0.384015
0.536653
0.352092
0.529017
0.528515
0.528075
0.366406
0.526589
0.603714
0.528903
0.358168
0.619826
0.335081
0.349439
0.527299
0.362156
0.56807
0.59458
0.531787
0.358699
0.276578
0.324084
0.499177
0.532124
0.196886
0.524842
0.527226
0.638179
0.324949
0.350303
0.290976
0.538148
0.33215
0.53292
0.549949
0.528359
0.523024
0.339712
0.568253
0.351034
0.497603
0.600667
0.603301
0.504927
0.412844
0.619333
0.555583
0.548752
0.365407
0.304969
0.36741
0.643414
0.467412
0.530381
0.357861
0.339131
0.615158
0.527049
0.529334
0.363131
0.528992
0.497383
0.500846
0.538679
0.359406
0.360679
0.248721
0.526091
0.529101
0.620702
0.557414
0.28894
0.557885
0.611856
0.529102
0.52898
0.551554
0.587819
0.528105
0.623157
0.60616
0.357221
0.527559
0.534176
0.52736
0.53058
0.525782
0.514313
0.346439
0.360533
0.552884
0.328466
0.315272
0.529698
0.337092
0.587737
0.526721
0.56188
0.529086
0.362386
0.53099
0.335414
0.358744
0.528053
0.558112
0.525991
0.36632
0.544805
0.525085
0.548157
0.526253
0.330982
0.527457
0.59796
0.578972
0.33757
0.639452
0.330928
0.573542
0.357568
0.346794
0.457905
0.386308
0.595099
0.629779
0.5264
0.335879
0.527598
0.348036
0.339946
0.54642
0.427955
0.326556
0.525794
0.355032
0.450315
0.619199
0.556427
0.532302
0.426643
0.539587
0.606191
0.527013
0.51109
0.599824
0.472024
0.603758
0.558318
0.596337
0.331246
0.339121
0.385701
0.532885
0.360276
0.616787
0.5307
0.54347
0.526941
0.454739
0.634529
0.617458
0.328402
0.529273
0.550529
0.425752
0.550248
0.588572
0.561356
0.52837
0.324016
0.332439
0.541141
0.470826
0.480499
0.52877
0.526755
0.525372
0.636443
0.628
0.563858
0.549985
0.611118
0.344565
0.357038
0.351482
0.347494
0.531218
0.395564
0.473711
0.553902
0.622097
0.361583
0.531083
0.576701
0.367654
0.317235
0.531109
0.528527
0.357286
0.331605
0.352331
0.532897
0.582228
0.34269
0.343695
0.356799
0.359324
0.297192
0.331572
0.584672
0.524897
0.594953
0.357511
0.561126
0.546846
0.556176
0.349467
0.347542
0.548822
0.532266
0.328843
0.527909
0.345128
0.643983
0.358476
0.528161
0.366698
0.533038
0.554509
0.365254
0.502683
0.352587
0.602891
0.361431
0.551272
0.354025
0.441961
0.333046
0.541361
0.32065
0.529189
0.529357
0.553804
0.567552
0.345178
0.549239
0.528339
0.548356
0.544074
0.594218
0.348006
0.330338
0.363599
0.636508
0.243787
0.567996
0.484016
0.632049
0.593484
0.397575
0.602617
0.33931
0.356787
0.343222
0.446134
0.455328
0.527019
0.321171
0.340627
0.527451
0.326771
0.348522
0.490062
0.312901
0.328804
0.360872
0.565394
0.607763
0.556599
0.363045
0.554308
0.526144
0.332137
0.274463
0.527635
0.526809
0.501885
0.453768
0.358438
0.307805
0.329894
0.551777
0.548
0.458904
0.63711
0.351572
0.50764
0.33776
0.529809
0.559845
0.350478
0.35798
0.553815
0.481833
0.564644
0.603754
0.62069
0.532479
0.574216
0.341117
0.329987
0.368032
0.340199
0.476542
0.529992
0.609987
0.340364
0.364926
0.389336
0.357785
0.525237
0.556208
0.325534
0.262938
0.526793
0.363615
0.604542
0.615422
0.549287
0.527755
0.488672
0.349165
0.364571
0.546575
0.351355
0.356698
0.341676
0.528529
0.525849
0.308139
0.355567
0.532242
0.32186
0.52699
0.63862
0.35761
0.326075
0.346687
0.526284
0.346565
0.532769
0.610035
0.544109
0.317977
0.468497
0.550703
0.525776
0.340312
0.531199
0.55602
0.386236
0.538144
0.602478
0.331027
0.328112
0.541529
0.321314
0.341582
0.542833
0.294529
0.524296
0.63514
0.644453
0.565908
0.579089
0.527128
0.528061
0.336804
0.354751
0.562583
0.544133
0.408836
0.597493
0.274199
0.527671
0.531739
0.508465
0.599114
0.330986
0.394978
0.529428
0.570227
0.555613
0.552397
0.52651
0.531535
0.548744
0.532518
0.563379
0.546053
0.548177
0.532128
0.527946
0.276708
0.561083
0.344095
0.527588
0.527333
0.62313
0.550174
0.639323
0.325826
0.321566
0.255542
0.339939
0.551932
0.363016
0.326119
0.618955
0.322057
0.623806
0.32921
0.540483
0.543364
0.322939
0.328876
0.338402
0.530982
0.367666
0.526466
0.565669
0.323774
0.548087
0.495403
0.294251
0.347874
0.324382
0.643932
0.328876
0.528968
0.451765
0.35407
0.524847
0.525699
0.62309
0.343222
0.514435
0.351914
0.561198
0.528458
0.527511
0.329239
0.54688
0.528616
0.552647
0.346351
0.530787
0.342731
0.334266
0.528204
0.391377
0.608818
0.344574
0.329141
0.384665
0.548822
0.356563
0.225084
0.352207
0.419863
0.530483
0.551562
0.347495
0.539733
0.526207
0.500508
0.361015
0.353068
0.498038
0.337433
0.338
0.523039
0.331459
0.33406
0.53702
0.574103
0.365739
0.645817
0.329455
0.53123
0.340045
0.546344
0.529549
0.640518
0.528235
0.330656
0.336001
0.345274
0.528228
0.540582
0.536736
0.479355
0.318615
0.255285
0.526962
0.336505
0.524491
0.327523
0.529244
0.62147
0.367381
0.362482
0.333689
0.353205
0.358759
0.551559
0.552641
0.366915
0.527434
0.585497
0.353266
0.344897
0.579223
0.325598
0.534877
0.370707
0.638559
0.606144
0.526346
0.530337
0.335281
0.626363
0.527058
0.569246
0.325002
0.541782
0.54443
0.319457
0.532387
0.57827
0.599839
0.54952
0.576025
0.529645
0.557821
0.527177
0.524251
0.341817
0.630881
0.333824
0.396286
0.524584
0.347294
0.528513
0.543182
0.342439
0.551226
0.324137
0.368363
0.535207
0.535022
0.57224
0.328842
0.547444
0.566054
0.340021
0.365625
0.559097
0.526313
0.321591
0.337345
0.611085
0.577526
0.334985
0.590878
0.559907
0.611313
0.366298
0.343078
0.355206
0.607911
0.347048
0.531132
0.643955
0.526816
0.546927
0.537199
0.326939
0.531926
0.564989
0.553907
0.501747
0.349328
0.337577
0.355848
0.642522
0.559341
0.368509
0.603525
0.349108
0.585496
0.528061
0.352888
0.555046
0.530051
0.568505
0.360416
0.349192
0.348782
0.547357
0.60586
0.562909
0.453245
0.528936
0.329268
0.581968
0.53103
0.549461
0.361122
0.577169
0.342162
0.546855
0.357898
0.529003
0.5386
0.363089
0.539779
0.36771
0.532182
0.586064
0.532934
0.534137
0.352261
0.527071
0.525694
0.526323
0.527976
0.422999
0.531127
0.349494
0.525566
0.354194
0.367761
0.354554
0.360401
0.33599
0.368219
0.566423
0.312513
0.342471
0.607604
0.542196
0.55241
0.346182
0.634346
0.636237
0.527996
0.282318
0.516446
0.52726
0.326108
0.345225
0.336063
0.575066
0.447244
0.360234
0.525346
0.333904
0.530448
0.439953
0.347049
0.411787
0.600767
0.33993
0.526559
0.3502
0.407976
0.318764
0.547663
0.326632
0.599127
0.530894
0.543077
0.359766
0.33947
0.557347
0.581656
0.33633
0.358861
0.528012
0.360934
0.639856
0.351698
0.500052
0.35582
0.527157
0.329026
0.571943
0.367864
0.528186
0.532491
0.568007
0.531312
0.348792
0.358517
0.343272
0.577647
0.619117
0.551083
0.457461
0.338731
0.602904
0.351866
0.540832
0.524543
0.344559
0.347496
0.618897
0.526432
0.353385
0.529687
0.564743
0.608268
0.642188
0.350479
0.585057
0.330744
0.600228
0.349035
0.528578
0.549893
0.576379
0.568026
0.35393
0.572508
0.321777
0.326083
0.527017
0.531185
0.487127
0.53639
0.531301
0.327145
0.647677
0.545643
0.555416
0.355247
0.367048
0.631377
0.362313
0.528062
0.531771
0.526338
0.544934
0.24195
0.387139
0.600629
0.362176
0.531476
0.594256
0.409547
0.538926
0.226221
0.548672
0.647693
0.631934
0.546484
0.346182
0.358622
0.527734
0.533622
0.339731
0.309544
0.32868
0.362876
0.342718
0.335035
0.343128
0.330159
0.530103
0.353843
0.367341
0.609708
0.485165
0.532173
0.338585
0.357653
0.52628
0.404751
0.415484
0.605902
0.314709
0.613669
0.529157
0.556539
0.554363
0.368641
0.549762
0.528638
0.32472
0.334068
0.344845
0.540922
0.555688
0.580289
0.527876
0.551204
0.555836
0.304106
0.539044
0.528494
0.567891
0.342715
0.527175
0.513406
0.298903
0.372936
0.347958
0.352943
0.346868
0.533385
0.620698
0.574497
0.336842
0.336506
0.55673
0.321459
0.577565
0.525544
0.528545
0.63232
0.526711
0.325413
0.352933
0.334611
0.506762
0.352686
0.52516
0.329428
0.527296
0.527864
0.527092
0.34919
0.388567
0.351749
0.533739
0.330528
0.336122
0.530461
0.551158
0.561606
0.528016
0.567221
0.639029
0.342123
0.574805
0.59006
0.470088
0.533307
0.588002
0.631906
0.40153
0.367919
0.55744
0.43626
0.55571
0.327525
0.5619
0.524759
0.337334
0.346802
0.565886
0.44706
0.576999
0.580667
0.329056
0.354077
0.530152
0.326819
0.353197
0.524543
0.55711
0.343276
0.523236
0.530189
0.553006
0.345513
0.534727
0.343416
0.525039
0.557478
0.637476
0.578029
0.530053
0.292075
0.300404
0.575603
0.320502
0.555645
0.35211
0.527488
0.342146
0.596916
0.594166
0.530229
0.328386
0.532806
0.530735
0.338549
0.564788
0.313654
0.566424
0.328432
0.365491
0.354084
0.600842
0.523325
0.274558
0.252604
0.570731