# vtk DataFile Version 1.0
unstructured grid
ascii
DATASET UNSTRUCTURED_GRID
points 13672 float
0.0796578 -0.059106 0
0.00128732 0.00159165 0
0.00227961 -0.00102548 0
0.0791586 -0.0598787 0
-0.0546216 0.01 0
0.000495206 0.025 0
0.0800549 -0.035 0
0.135172 -0.08 0
-0.0546216 -0.0451168 0
0.000495206 -0.0301168 0
0.0800549 -0.0901168 0
0.135172 -0.135117 0
-0.0546216 -0.0451168 -0.00551168
0.000495206 -0.0301168 -0.00551168
0.0800549 -0.0901168 -0.00551168
0.135172 -0.135117 -0.00551168
0.135172 -0.08 -0.00551168
0.0800549 -0.035 -0.00551168
0.000495206 0.025 -0.00551168
-0.0546216 0.01 -0.00551168
0.00128732 0.00159165 -0.00551168
0.00227961 -0.00102548 -0.00551168
0.0791586 -0.0598787 -0.00551168
0.0796578 -0.059106 -0.00551168
0.00165953 -0.000990923 0
0.00119576 -0.000874076 0
0.000866021 -0.000641801 0
0.000645147 -0.000349912 0
0.00052235 -1.7281e-05 0
0.00049972 0.000348016 0
0.000601632 0.000737716 0
0.000861774 0.0011403 0
0.00157235 0.00183217 0
0.00188647 0.00206725 0
0.00222612 0.00230203 0
0.00258713 0.00254351 0
0.00296826 0.00279524 0
0.00337118 0.00305664 0
0.00379785 0.00332658 0
0.00425045 0.00360349 0
0.00473139 0.00388521 0
0.0052432 0.00416895 0
0.0057881 0.00445204 0
0.00636753 0.00473281 0
0.00698281 0.00500961 0
0.00763526 0.00528058 0
0.00832616 0.00554366 0
0.00905691 0.00579603 0
0.00982918 0.00603333 0
0.0106445 0.00625033 0
0.0115038 0.00644128 0
0.0124073 0.00660297 0
0.0133543 0.00673414 0
0.0143444 0.00683382 0
0.0153769 0.00690031 0
0.0164512 0.00693173 0
0.0175666 0.00692547 0
0.0187219 0.00687822 0
0.0199156 0.00678477 0
0.0211454 0.00663864 0
0.0224084 0.00643275 0
0.0237018 0.00616676 0
0.0250249 0.00584739 0
0.026375 0.00547298 0
0.0277479 0.00503752 0
0.0291386 0.00453545 0
0.0305433 0.0039653 0
0.0319572 0.0033256 0
0.0333681 0.00260019 0
0.034775 0.00179799 0
0.0361793 0.000930615 0
0.0375798 3.12222e-06 0
0.0389689 -0.000988429 0
0.0403357 -0.00205109 0
0.041675 -0.00318283 0
0.0429849 -0.00437751 0
0.0442643 -0.00562904 0
0.0455126 -0.00693089 0
0.0467314 -0.00827518 0
0.0479204 -0.00965638 0
0.0490661 -0.0110799 0
0.0501515 -0.0125519 0
0.0511696 -0.0140695 0
0.0521492 -0.0156071 0
0.0531202 -0.0171411 0
0.0540851 -0.0186663 0
0.0550431 -0.0201798 0
0.0559923 -0.0216793 0
0.0569311 -0.0231626 0
0.0578582 -0.0246273 0
0.0587723 -0.0260715 0
0.0596721 -0.027493 0
0.0605563 -0.02889 0
0.0614241 -0.0302609 0
0.0622742 -0.0316042 0
0.063106 -0.0329183 0
0.0639186 -0.034202 0
0.0647113 -0.0354543 0
0.0654835 -0.0366743 0
0.0662345 -0.0378613 0
0.0669642 -0.0390145 0
0.0676726 -0.0401333 0
0.0683597 -0.0412172 0
0.0690246 -0.0422665 0
0.0696662 -0.0432819 0
0.0702841 -0.0442636 0
0.0708793 -0.0452111 0
0.0714538 -0.0461237 0
0.072009 -0.047001 0
0.0725452 -0.0478434 0
0.0730611 -0.0486524 0
0.073556 -0.0494294 0
0.0740291 -0.0501756 0
0.0744812 -0.0508916 0
0.0749138 -0.0515773 0
0.0753285 -0.0522331 0
0.0757266 -0.0528592 0
0.076109 -0.0534564 0
0.0764753 -0.0540264 0
0.0768243 -0.054571 0
0.0771553 -0.0550919 0
0.0774679 -0.0555901 0
0.0777617 -0.0560669 0
0.0780369 -0.056523 0
0.0782958 -0.0569578 0
0.0785421 -0.0573703 0
0.0787786 -0.0577603 0
0.0790073 -0.0581279 0
0.0792295 -0.058474 0
0.0794462 -0.0587995 0
0.0798803 -0.0594162 0
0.0800272 -0.0596588 0
0.0800357 -0.0598891 0
0.0799275 -0.0600784 0
0.0797205 -0.0601773 0
0.0794593 -0.0601051 0
0.0789155 -0.0596491 0
0.0786707 -0.0593963 0
0.0784111 -0.0591319 0
0.0781372 -0.0588542 0
0.0778566 -0.0585548 0
0.0775715 -0.0582308 0
0.0772803 -0.0578828 0
0.0769832 -0.0575099 0
0.0766822 -0.0571097 0
0.0763801 -0.0566796 0
0.0760759 -0.0562196 0
0.0757623 -0.0557337 0
0.0754359 -0.0552232 0
0.0750951 -0.0546879 0
0.0747379 -0.054128 0
0.0743626 -0.0535435 0
0.0739688 -0.0529338 0
0.0735559 -0.0522981 0
0.0731238 -0.0516357 0
0.0726718 -0.050946 0
0.0721991 -0.0502288 0
0.0717046 -0.049484 0
0.0711872 -0.0487117 0
0.0706461 -0.047912 0
0.0700804 -0.0470849 0
0.0694892 -0.0462308 0
0.0688718 -0.0453499 0
0.0682271 -0.0444431 0
0.0675544 -0.043511 0
0.0668527 -0.0425546 0
0.0661215 -0.0415748 0
0.06536 -0.040573 0
0.0645676 -0.0395504 0
0.0637439 -0.0385087 0
0.0628887 -0.0374493 0
0.062002 -0.0363741 0
0.0610838 -0.0352847 0
0.0601345 -0.0341831 0
0.0591547 -0.033071 0
0.0581456 -0.0319502 0
0.0571083 -0.0308224 0
0.0560444 -0.0296893 0
0.0549562 -0.028552 0
0.053845 -0.0274126 0
0.0527113 -0.0262746 0
0.051554 -0.0251427 0
0.0503724 -0.0240222 0
0.0491675 -0.0229164 0
0.047941 -0.0218282 0
0.0466955 -0.0207597 0
0.0454337 -0.0197126 0
0.0441592 -0.0186878 0
0.0428751 -0.0176863 0
0.0415841 -0.0167097 0
0.0402878 -0.0157609 0
0.0389879 -0.0148428 0
0.0376864 -0.0139575 0
0.0363853 -0.013107 0
0.0350871 -0.0122931 0
0.0337942 -0.0115164 0
0.0325095 -0.0107772 0
0.0312357 -0.0100756 0
0.0299758 -0.00941024 0
0.0287337 -0.00877784 0
0.0275126 -0.00817571 0
0.0263139 -0.00760375 0
0.0251376 -0.00706528 0
0.0239829 -0.0065649 0
0.0228537 -0.00609619 0
0.0217522 -0.00565563 0
0.0206795 -0.00524226 0
0.0196364 -0.00485507 0
0.0186233 -0.00449318 0
0.0176408 -0.00415577 0
0.016689 -0.00384204 0
0.0157682 -0.00355115 0
0.0148783 -0.00328218 0
0.0140192 -0.00303468 0
0.0131906 -0.00280795 0
0.0123925 -0.00260016 0
0.0116246 -0.00241012 0
0.0108864 -0.00223769 0
0.0101774 -0.00208212 0
0.00949701 -0.00194206 0
0.00884483 -0.0018163 0
0.0082202 -0.0017039 0
0.00762247 -0.00160391 0
0.00705097 -0.00151528 0
0.006505 -0.00143697 0
0.0059838 -0.00136806 0
0.00548662 -0.00130772 0
0.00501265 -0.00125519 0
0.00456114 -0.00120954 0
0.00413136 -0.00116914 0
0.00372257 -0.00113251 0
0.00333398 -0.00109853 0
0.00296466 -0.00106798 0
0.00261363 -0.0010431 0
-0.052721 -0.0445996 0
-0.0508204 -0.0440823 0
-0.0489199 -0.0435651 0
-0.0470193 -0.0430478 0
-0.0451187 -0.0425306 0
-0.0432181 -0.0420134 0
-0.0413175 -0.0414961 0
-0.039417 -0.0409789 0
-0.0375164 -0.0404616 0
-0.0356158 -0.0399444 0
-0.0337152 -0.0394271 0
-0.0318146 -0.0389099 0
-0.0299141 -0.0383927 0
-0.0280135 -0.0378754 0
-0.0261129 -0.0373582 0
-0.0242123 -0.0368409 0
-0.0223117 -0.0363237 0
-0.0204112 -0.0358065 0
-0.0185106 -0.0352892 0
-0.01661 -0.034772 0
-0.0147094 -0.0342547 0
-0.0128088 -0.0337375 0
-0.0109083 -0.0332202 0
-0.00900769 -0.032703 0
-0.00710711 -0.0321858 0
-0.00520653 -0.0316685 0
-0.00330595 -0.0311513 0
-0.00140537 -0.030634 0
0.00190689 -0.0299614 0
0.00332271 -0.0298498 0
0.00474133 -0.0297825 0
0.00616136 -0.0297597 0
0.0075814 -0.0297814 0
0.00900007 -0.0298477 0
0.010416 -0.0299583 0
0.0118278 -0.0301127 0
0.0132342 -0.0303103 0
0.0146339 -0.0305504 0
0.0160259 -0.0308322 0
0.0174091 -0.0311546 0
0.0187824 -0.0315166 0
0.020145 -0.031917 0
0.0214961 -0.0323546 0
0.0228351 -0.032828 0
0.0241613 -0.0333361 0
0.0254744 -0.0338774 0
0.0267738 -0.0344507 0
0.0280592 -0.0350545 0
0.0293306 -0.0356877 0
0.0305875 -0.0363488 0
0.0318301 -0.0370367 0
0.0330581 -0.0377501 0
0.0342717 -0.0384879 0
0.0354708 -0.0392489 0
0.0366556 -0.0400321 0
0.0378262 -0.0408363 0
0.0389828 -0.0416607 0
0.0401254 -0.0425042 0
0.0412543 -0.0433659 0
0.0423698 -0.0442451 0
0.043472 -0.0451408 0
0.0445612 -0.0460523 0
0.0456375 -0.0469789 0
0.0467013 -0.0479199 0
0.0477529 -0.0488746 0
0.0487923 -0.0498424 0
0.04982 -0.0508227 0
0.0508362 -0.051815 0
0.051841 -0.0528187 0
0.0528348 -0.0538333 0
0.0538178 -0.0548584 0
0.0547903 -0.0558935 0
0.0557524 -0.0569382 0
0.0567045 -0.0579922 0
0.0576467 -0.0590549 0
0.0585792 -0.0601261 0
0.0595024 -0.0612055 0
0.0604163 -0.0622926 0
0.0613212 -0.0633873 0
0.0622174 -0.0644891 0
0.0631049 -0.0655979 0
0.0639841 -0.0667134 0
0.064855 -0.0678353 0
0.0657179 -0.0689633 0
0.0665729 -0.0700974 0
0.0674202 -0.0712372 0
0.06826 -0.0723826 0
0.0690925 -0.0735333 0
0.0699178 -0.0746892 0
0.070736 -0.0758501 0
0.0715473 -0.0770159 0
0.0723518 -0.0781863 0
0.0731498 -0.0793612 0
0.0739412 -0.0805405 0
0.0747264 -0.081724 0
0.0755053 -0.0829116 0
0.0762781 -0.0841033 0
0.0770449 -0.0852987 0
0.0778059 -0.0864979 0
0.0785611 -0.0877007 0
0.0793108 -0.088907 0
0.0814681 -0.0912706 0
0.0828814 -0.0924245 0
0.0842946 -0.0935783 0
0.0857079 -0.0947322 0
0.0871211 -0.095886 0
0.0885344 -0.0970399 0
0.0899476 -0.0981937 0
0.0913609 -0.0993476 0
0.0927741 -0.100501 0
0.0941874 -0.101655 0
0.0956006 -0.102809 0
0.0970139 -0.103963 0
0.0984272 -0.105117 0
0.0998404 -0.106271 0
0.101254 -0.107424 0
0.102667 -0.108578 0
0.10408 -0.109732 0
0.105493 -0.110886 0
0.106907 -0.11204 0
0.10832 -0.113194 0
0.109733 -0.114348 0
0.111146 -0.115501 0
0.11256 -0.116655 0
0.113973 -0.117809 0
0.115386 -0.118963 0
0.116799 -0.120117 0
0.118213 -0.121271 0
0.119626 -0.122424 0
0.121039 -0.123578 0
0.122452 -0.124732 0
0.123866 -0.125886 0
0.125279 -0.12704 0
0.126692 -0.128194 0
0.128105 -0.129348 0
0.129519 -0.130501 0
0.130932 -0.131655 0
0.132345 -0.132809 0
0.133758 -0.133963 0
0.135172 -0.133216 0
0.135172 -0.131316 0
0.135172 -0.129415 0
0.135172 -0.127514 0
0.135172 -0.125614 0
0.135172 -0.123713 0
0.135172 -0.121813 0
0.135172 -0.119912 0
0.135172 -0.118012 0
0.135172 -0.116111 0
0.135172 -0.11421 0
0.135172 -0.11231 0
0.135172 -0.110409 0
0.135172 -0.108509 0
0.135172 -0.106608 0
0.135172 -0.104708 0
0.135172 -0.102807 0
0.135172 -0.100906 0
0.135172 -0.0990058 0
0.135172 -0.0971052 0
0.135172 -0.0952046 0
0.135172 -0.0933041 0
0.135172 -0.0914035 0
0.135172 -0.0895029 0
0.135172 -0.0876023 0
0.135172 -0.0857017 0
0.135172 -0.0838012 0
0.135172 -0.0819006 0
0.133758 -0.0788462 0
0.132345 -0.0776923 0
0.130932 -0.0765385 0
0.129519 -0.0753846 0
0.128105 -0.0742308 0
0.126692 -0.0730769 0
0.125279 -0.0719231 0
0.123866 -0.0707692 0
0.122452 -0.0696154 0
0.121039 -0.0684615 0
0.119626 -0.0673077 0
0.118213 -0.0661538 0
0.116799 -0.065 0
0.115386 -0.0638462 0
0.113973 -0.0626923 0
0.11256 -0.0615385 0
0.111146 -0.0603846 0
0.109733 -0.0592308 0
0.10832 -0.0580769 0
0.106907 -0.0569231 0
0.105493 -0.0557692 0
0.10408 -0.0546154 0
0.102667 -0.0534615 0
0.101254 -0.0523077 0
0.0998404 -0.0511538 0
0.0984272 -0.05 0
0.0970139 -0.0488462 0
0.0956006 -0.0476923 0
[...]
CELL_DATA 13116
SCALARS rho float
LOOKUP_TABLE default
0.454964
0.569193
0.329627
0.598306
0.599037
0.527159
0.335506
0.61538
0.427211
0.59924
0.332633
0.380819
0.599393
0.371697
0.34429
0.527339
0.434117
0.585057
0.5874
0.335857
0.456272
0.335728
0.382914
0.588461
0.49485
0.600125
0.599156
0.349761
0.488586
0.530817
0.536641
0.395327
0.449762
0.356811
0.332961
0.456242
0.553313
0.598383
0.53019
0.611705
0.547926
0.613546
0.347646
0.339653
0.596623
0.590722
0.561403
0.597639
0.347224
0.419898
0.611431
0.357633
0.351416
0.4283
0.449078
0.475697
0.345302
0.585857
0.430521
0.353612
0.373917
0.600889
0.564934
0.53084
0.53624
0.352976
0.579854
0.557373
0.596037
0.535385
0.342083
0.471705
0.33214
0.359785
0.539931
0.316266
0.541575
0.602577
0.339093
0.580699
0.568118
0.594073
0.589582
0.602113
0.599074
0.345373
0.345261
0.551537
0.602581
0.337025
0.408644
0.571002
0.59274
0.610202
0.535866
0.489611
0.496923
0.53851
0.53876
0.483257
0.55975
0.512245
0.563983
0.339982
0.557852
0.377395
0.274057
0.386939
0.366179
0.497926
0.412238
0.58139
0.487586
0.570177
0.581564
0.590853
0.355532
0.305343
0.604254
0.605794
0.557045
0.330474
0.597754
0.405896
0.609572
0.347618
0.346514
0.405968
0.361132
0.420781
0.60451
0.588168
0.395051
0.343384
0.377565
0.48699
0.546358
0.608407
0.558666
0.60723
0.527826
0.564027
0.405369
0.529545
0.552673
0.381193
0.331241
0.590154
0.595833
0.614242
0.43294
0.601235
0.596598
0.318075
0.596765
0.60114
0.386687
0.566017
0.538147
0.551322
0.58749
0.334853
0.589179
0.382679
0.325699
0.602973
0.606298
0.584391
0.33362
0.360843
0.327181
0.546114
0.347629
0.392569
0.587984
0.386398
0.334905
0.333611
0.578087
0.526228
0.333919
0.340116
0.430516
0.552929
0.525978
0.429267
0.324807
0.554858
0.556062
0.365017
0.530926
0.588366
0.534503
0.395661
0.578755
0.526557
0.595437
0.563094
0.601095
0.309772
0.340156
0.503188
0.401189
0.368267
0.593403
0.598428
0.365584
0.498013
0.361026
0.332721
0.318153
0.544051
0.389285
0.336261
0.33731
0.318268
0.287074
0.529692
0.608177
0.333824
0.344043
0.575209
0.406842
0.334924
0.441367
0.600034
0.550446
0.354199
0.583924
0.29918
0.61888
0.398914
0.533887
0.462013
0.539366
0.608698
0.533824
0.363861
0.344005
0.550406
0.540778
0.526619
0.545388
0.53247
0.617386
0.33598
0.611103
0.598045
0.538652
0.327467
0.348016
0.600016
0.605114
0.534873
0.60177
0.444795
0.570552
0.33353
0.377341
0.307355
0.361332
0.545509
0.59509
0.540907
0.341364
0.600834
0.34023
0.335174
0.559284
0.320569
0.595699
0.610485
0.54196
0.58563
0.360694
0.542252
0.573642
0.538585
0.607518
0.340572
0.339812
0.395501
0.483397
0.330956
0.343943
0.253601
0.355556
0.589972
0.351157
0.604285
0.602626
0.332826
0.334545
0.338439
0.355421
0.334811
0.550404
0.499787
0.571113
0.320336
0.548661
0.470265
0.384952
0.352842
0.529658
0.60575
0.555906
0.324861
0.526664
0.340997
0.58836
0.611914
0.613765
0.61195
0.397052
0.577553
0.352944
0.533378
0.599842
0.549469
0.338664
0.253356
0.598823
0.341866
0.577618
0.601145
0.287623
0.571954
0.589104
0.338001
0.602519
0.592559
0.363954
0.606229
0.346344
0.459084
0.621111
0.352027
0.566693
0.340134
0.585575
0.26221
0.531385
0.519512
0.596808
0.358199
0.275719
0.600402
0.318847
0.595164
0.562461
0.332786
0.546027
0.319406
0.327471
0.598252
0.44265
0.556825
0.340854
0.386033
0.611293
0.602274
0.330233
0.606394
0.360025
0.376906
0.600631
0.619547
0.381128
0.336034
0.607357
0.536044
0.527279
0.603268
0.588871
0.433654
0.301699
0.356592
0.334131
0.527148
0.335275
0.429181
0.281986
0.402274
0.271163
0.389078
0.106884
0.318079
0.599749
0.384248
0.590324
0.489058
0.580611
0.543123
0.609846
0.327915
0.33805
0.316523
0.32606
0.594601
0.484285
0.565194
0.489435
0.5535
0.508751
0.592003
0.518524
0.528455
0.588727
0.579761
0.528138
0.313673
0.370585
0.45205
0.334131
0.49703
0.474844
0.350594
0.587807
0.541619
0.398539
0.337224
0.338891
0.324728
0.511216
0.33281
0.395328
0.560742
0.349646
0.462367
0.3369
0.52753
0.572074
0.340615
0.342051
0.597297
0.355863
0.336327
0.325866
0.336806
0.367021
0.337777
0.337005
0.337739
0.33536
0.337946
0.509995
0.31791
0.601949
0.285851
0.397727
0.395594
0.37915
0.335801
0.382233
0.606087
0.342404
0.5216
0.391657
0.347515
0.500373
0.603858
0.344643
0.57131
0.511311
0.510875
0.336148
0.539017
0.305351
0.588337
0.53717
0.380277
0.346032
0.553356
0.323405
0.353136
0.522494
0.274415
0.56487
0.556951
0.333661
0.333907
0.34401
0.389153
0.350344
0.358641
0.344812
0.352935
0.603347
0.601101
0.360831
0.485947
0.377342
0.575273
0.276169
0.32661
0.4306
0.378994
0.596004
0.228267
0.287385
0.391178
0.597204
0.603195
0.448418
0.282984
0.345381
0.454643
0.614726
0.533925
0.451412
0.555236
0.543255
0.337717
0.57092
0.458162
0.549029
0.356785
0.331339
0.569102
0.595446
0.54176
0.600018
0.593718
0.604534
0.586019
0.548515
0.576743
0.336483
0.600049
0.259753
0.361883
0.335735
0.597709
0.59965
0.332791
0.599009
0.503181
0.338019
0.532352
0.605811
0.583814
0.349571
0.324943
0.600336
0.335803
0.33641
0.376196
0.338375
0.59193
0.359735
0.596879
0.318406
0.568348
0.611372
0.584069
0.601237
0.336299
0.33502
0.599163
0.618517
0.547748
0.603363
0.597646
0.390133
0.337037
0.37417
0.531589
0.427056
0.338407
0.355526
0.407161
0.616181
0.566685
0.357013
0.335677
0.599156
0.360547
0.599504
0.539918
0.359879
0.300275
0.544571
0.541351
0.377576
0.601105
0.606827
0.59881
0.319319
0.545298
0.350155
0.539853
0.547749
0.336727
0.28733
0.342994
0.539515
0.359406
0.340681
0.305746
0.531408
0.58532
0.33939
0.374807
0.338448
0.531971
0.332371
0.526599
0.380363
0.47489
0.599949
0.288777
0.381078
0.383058
0.390546
0.372755
0.600855
0.324003
0.328613
0.527528
0.343428
0.539518
0.57312
0.539209
0.337114
0.596985
0.592138
0.595146
0.534385
0.617679
0.59842
0.388297
0.534551
0.335901
0.591392
0.339057
0.616846
0.408236
0.334515
0.536627
0.593052
0.321898
0.51941
0.407792
0.34004
0.554008
0.605511
0.411918
0.384248
0.338735
0.38644
0.61694
0.588663
0.319302
0.332303
0.594427
0.609465
0.476779
0.591732
0.556386
0.334067
0.597091
0.332931
0.61128
0.308916
0.485522
0.377726
0.57326
0.558175
0.464128
0.274673
0.359019
0.574031
0.488402
0.431366
0.591092
0.359705
0.574001
0.596261
0.27987
0.368881
0.593079
0.29615
0.53578
0.551391
0.249779
0.611225
0.534163
0.319227
0.582551
0.395351
0.596318
0.322376
0.539933
0.563918
0.366958
0.530801
0.589824
0.598418
0.504559
0.575811
0.469024
0.346649
0.341041
0.323436
0.363871
0.547667
0.444178
0.602481
0.595415
0.338148
0.333494
0.580851
0.600226
0.596751
0.611149
0.338872
0.579777
0.59823
0.336248
0.341578
0.603477
0.600003
0.597873
0.37738
0.475424
0.341938
0.580619
0.574297
0.533385
0.580096
0.338848
0.58493
0.603703
0.591425
0.606405
0.535025
0.331788
0.588821
0.330662
0.537772
0.598782
0.360661
0.557543
0.53289
0.611744
0.340092
0.326574
0.470426
0.534641
0.335064
0.336213
0.3191
0.337523
0.568411
0.573358
0.533042
0.355357
0.337168
0.593771
0.565264
0.363923
0.335273
0.363132
0.555136
0.566657
0.603249
0.580224
0.333618
0.33532
0.544415
0.403671
0.336527
0.321084
0.530643
0.34295
0.33719
0.469548
0.595679
0.576653
0.52873
0.542408
0.35373
0.343745
0.320221
0.393543
0.341529
0.402532
0.556352
0.578694
0.58981
0.562336
0.380103
0.336086
0.599773
0.334442
0.531815
0.564366
0.537148
0.411827
0.337873
0.591577
0.536595
0.468135
0.363672
0.600293
0.527994
0.466151
0.61398
0.613459
0.543477
0.553881
0.338701
0.539234
0.535677
0.519898
0.580224
0.547579
0.581756
0.543442
0.605293
0.329396
0.329662
0.33641
0.536295
0.408019
0.33489
0.581425
0.593713
0.3811
0.525323
0.340506
0.53182
0.385826
0.355388
0.600307
0.587623
0.337789
0.439472
0.536002
0.362981
0.609822
0.361098
0.37526
0.50537
0.493725
0.395544
0.569036
0.318621
0.58922
0.33268
0.373351
0.536293
0.338637
0.493157
0.407523
0.525345
0.486399
0.543701
0.604219
0.353291
0.329373
0.525074
0.350186
0.595869
0.365419
0.483621
0.527378
0.591
0.361194
0.495475
0.577968
0.595928
0.592713
0.264705
0.335253
0.431391
0.578973
0.596281
0.290607
0.56216
0.469407
0.315963
0.409895
0.551105
0.555401
0.544709
0.539949
0.522471
0.572543
0.530487
0.561427
0.406172
0.540918
0.361275
0.612841
0.599539
0.361771
0.623859
0.600415
0.327052
0.361539
0.33982
0.547417
0.335068
0.504598
0.585729
0.541894
0.37657
0.595721
0.372182
0.475273
0.531765
0.533601
0.554637
0.532099
0.503904
0.56697
0.425726
0.591166
0.323626
0.528829
0.580171
0.334954
0.542351
0.575922
0.396742
0.356145
0.359862
0.613687
0.336951
0.542603
0.320544
0.615964
0.345962
0.378096
0.393373
0.587535
0.610238
0.44333
0.371731
0.504437
0.529193
0.328609
0.476296
0.600438
0.399156
0.477692
0.537547
0.599906
0.536901
0.385519
0.3849
0.596356
0.588526
0.53837
0.336246
0.322074
0.600664
0.545176
0.541512
0.545792
0.450412
0.588484
0.446045
0.611229
0.335307
0.371274
0.545456
0.598583
0.5311
0.356509
0.530934
0.45858
0.494522
0.317313
0.321714
0.605906
0.606766
0.44766
0.310333
0.567857
0.541621
0.334611
0.495727
0.579875
0.333736
0.392518
0.351947
0.562199
0.335132
0.338618
0.602402
0.372377
0.59682
0.530506
0.33462
0.336807
0.604843
0.32678
0.332092
0.536525
0.382147
0.276869
0.481019
0.617384
0.594938
0.336558
0.336423
0.330303
0.573703
0.377687
0.596038
0.338498
0.583527
0.610942
0.598987
0.563051
0.581161
0.572684
0.5582
0.601117
0.59937
0.359017
0.323803
0.573172
0.530276
0.400421
0.566253
0.451082
0.531081
0.518889
0.341131
0.601904
0.600616
0.59278
0.326308
0.584852
0.319469
0.601441
0.392825
0.58175
0.540375
0.355055
0.592873
0.338754
0.344929
0.56467
0.321101
0.566466
0.547442
0.618097
0.322317
0.555195
0.336866
0.414804
0.401067
0.337767
0.515989
0.349582
0.529658
0.531997
0.316131
0.395114
0.384527
0.467795
0.518869
0.544463
0.336838
0.347052
0.330869
0.392811
0.371985
0.519683
0.586818
0.346653
0.531769
0.585435
0.351937
0.599836
0.564198
0.531624
0.323577
0.540404
0.57439
0.590054
0.613781
0.348364
0.594408
0.592961
0.585516
0.551216
0.527245
0.346949
0.396855
0.601355
0.429239
0.336934
0.533666
0.394356
0.458856
0.516884
0.594247
0.597244
0.410061
0.564284
0.306886
0.324717
0.573715
0.597492
0.593962
0.610244
0.54661
0.416271
0.600265
0.355799
0.399406
0.603149
0.538896
0.596298
0.326651
0.381223
0.598644
0.371101
0.600283
0.531335
0.337585
0.344296
0.604956
0.406789
0.538762
0.599477
0.546873
0.407025
0.329043
0.401934
0.420495
0.509338
0.375313
0.527072
0.546118
0.604058
0.548066
0.583358
0.343178
0.343508
0.602074
0.527222
0.533845
0.360381
0.366664
0.567946
0.348672
0.560837
0.499617
0.307087
0.593927
0.337829
0.611928
0.325363
0.596141
0.35914
0.598978
0.526942
0.372195
0.610054
0.53425
0.329443
0.532749
0.585431
0.45011
0.378701
0.282637
0.370361
0.592842
0.53021
0.330782
0.47152
0.585428
0.527656
0.376165
0.503453
0.584537
0.360222
0.526938
0.533851
0.368143
0.602145
0.53814
0.328732
0.489304
0.324066
0.531484
0.318039
0.374746
0.594873
0.338602
0.337177
0.352796
0.571007
0.575733
0.321254
0.57344
0.281462
0.559433
0.337822
0.577515
0.283783
0.527072
0.601088
0.540107
0.532853
0.442673
0.527018
0.531468
0.343054
0.520995
0.543283
0.404609
0.582998
0.389891
0.335389
0.60006
0.329266
0.461533
0.339871
0.561671
0.360541
0.395632
0.587542
0.548725
0.335257
0.611603
0.578309
0.547492
0.611921
0.54007
0.338535
0.599815
0.335979
0.387323
0.606244
0.581879
0.61428
0.601314
0.39956
0.318658
0.3314
0.572305
0.532197
0.281948
0.61955
0.355811
0.320295
0.316538
0.603485
0.308125
0.600693
0.598617
0.519578
0.605895
0.599164
0.468357
0.537339
0.339232
0.364788
0.334366
0.540102
0.540719
0.358569
0.519485
0.559637
0.537185
0.385071
0.336367
0.548957
0.216983
0.541881
0.503498
0.335903
0.528375
0.570239
0.335042
0.594811
0.33289
0.600917
0.598113
0.582381
0.351123
0.369149
0.565115
0.346164
0.346067
0.601223
0.35182
0.527576
0.588172
0.593912
0.578405
0.283168
0.537153
0.573014
0.586507
0.280028
0.609006
0.333651
0.374164
0.597285
0.565002
0.53164
0.183847
0.541855
0.519818
0.54001
0.34866
0.362657
0.336037
0.611015
0.334184
0.342181
0.318811
0.502025
0.336725
0.360008
0.344874
0.597139
0.335964
0.532741
0.530158
0.609672
0.322987
0.602975
0.539839
0.53207
0.323197
0.549187
0.330106
0.330592
0.549926
0.33457
0.518078
0.58252
0.544138
0.33666
0.253022
0.321309
0.450482
0.545537
0.18151
0.598396
0.565203
0.580384
0.337846
0.35552
0.26524
0.534937
0.3374
0.548041
0.49241
0.529242
0.60074
0.338623
0.520428
0.391141
0.488123
0.533068
0.60022
0.483885
0.401607
0.550083
0.537295
0.602549
0.324448
0.281783
0.348565
0.580915
0.43152
0.53879
0.335872
0.313118
0.58783
0.603127
0.534459
0.33455
0.611272
0.448999
0.452252
0.532622
0.372566
0.336162
0.368747
0.571103
0.532688
0.549685
0.57292
0.264106
0.619054
0.543231
0.532609
0.532489
0.617795
0.600652
0.527262
0.581759
0.592815
0.37955
0.605194
0.610175
0.526346
0.605316
0.569325
0.482684
0.337022
0.380757
0.524735
0.335605
0.301557
0.612126
0.337043
0.522152
0.59126
0.569403
0.593854
0.396868
0.612834
0.395369
0.368236
0.526881
0.589304
0.566696
0.324189
0.607972
0.570295
0.527971
0.549239
0.334751
0.526082
0.598879
0.568059
0.31044
0.58527
0.331504
0.599865
0.319496
0.336469
0.438786
0.353738
0.600189
0.587526
0.531645
0.318632
0.526475
0.323639
0.341195
0.594574
0.387268
0.335999
0.550054
0.379977
0.408255
0.554627
0.55584
0.593473
0.386809
0.48343
0.543092
0.52802
0.481173
0.594348
0.42833
0.623652
0.570782
0.53493
0.379671
0.337937
0.352425
0.609988
0.395787
0.549756
0.6123
0.494158
0.530234
0.432187
0.566592
0.563055
0.325185
0.610053
0.559394
0.410245
0.560488
0.599385
0.601283
0.529056
0.336783
0.331248
0.590732
0.434794
0.449047
0.608014
0.601361
0.575165
0.595576
0.597582
0.51061
0.54523
0.599926
0.346252
0.381756
0.363318
0.315106
0.542021
0.364277
0.443268
0.59403
0.56813
0.38225
0.594177
0.596485
0.325647
0.292404
0.541889
0.6067
0.372449
0.378759
0.37719
0.548066
0.598622
0.315305
0.341924
0.336544
0.378304
0.329073
0.335481
0.62075
0.60016
0.577749
0.321247
0.570805
0.500596
0.496847
0.345507
0.337195
0.594106
0.545939
0.337024
0.526978
0.334762
0.587387
0.379383
0.610472
0.328996
0.590381
0.605962
0.322818
0.453737
0.353029
0.600025
0.384347
0.504696
0.39343
0.408371
0.329915
0.497735
0.329514
0.533486
0.53425
0.495268
0.580151
0.344743
0.57883
0.529513
0.606987
0.498112
0.560016
0.337178
0.340242
0.354776
0.592799
0.225325
0.60014
0.439925
0.581324
0.600058
0.379987
0.589262
0.340107
0.365223
0.344326
0.410648
0.438809
0.600066
0.322344
0.343883
0.530898
0.293202
0.407258
0.466166
0.291717
0.337115
0.380595
0.613751
0.538805
0.508573
0.375406
0.575132
0.573839
0.376195
0.249429
0.60327
0.535544
0.489076
0.411527
0.319478
0.279088
0.317189
0.616047
0.523803
0.425534
0.571283
0.359095
0.466116
0.337667
0.536374
0.601822
0.337016
0.371413
0.529653
0.460749
0.602221
0.593199
0.593956
0.613584
0.602154
0.318928
0.334284
0.349435
0.339738
0.449552
0.537028
0.540458
0.339621
0.336613
0.362987
0.392638
0.579959
0.553725
0.338028
0.352816
0.587212
0.374559
0.542255
0.589748
0.576495
0.526971
0.457324
0.335172
0.332341
0.54189
0.336627
0.343287
0.315682
0.529849
0.595767
0.376381
0.336859
0.545953
0.3268
0.571109
0.592899
0.335849
0.327235
0.347253
0.590768
0.357058
0.547527
0.579799
0.495724
0.377827
0.425111
0.60085
0.597216
0.336919
0.591339
0.525474
0.422872
0.60244
0.617992
0.327958
0.338248
0.591097
0.326368
0.34023
0.582888
0.266873
0.599681
0.5665
0.591373
0.528496
0.598275
0.586014
0.527814
0.331816
0.318484
0.539879
0.59128
0.368953
0.599968
0.33937
0.604461
0.595225
0.463919
0.536902
0.339435
0.360539
0.595156
0.596985
0.567921
0.606626
0.566489
0.543519
0.613492
0.546893
0.616828
0.596557
0.616464
0.545419
0.527361
0.301995
0.595589
0.342823
0.603659
0.604285
0.584744
0.570445
0.577102
0.326805
0.318204
0.32668
0.337356
0.572697
0.333021
0.323066
0.57027
0.377629
0.580891
0.317472
0.58487
0.595461
0.338144
0.295821
0.304756
0.610261
0.361327
0.599757
0.592019
0.321151
0.592213
0.449267
0.270108
0.35437
0.370729
0.575722
0.336434
0.610162
0.429563
0.351806
0.578805
0.551155
0.593694
0.33465
0.47141
0.397988
0.57228
0.529361
0.59579
0.337146
0.589802
0.607522
0.572855
0.324299
0.609982
0.334578
0.337606
0.609231
0.359933
0.598398
0.343639
0.337282
0.3479
0.575151
0.357272
0.273862
0.319736
0.395312
0.539365
0.594621
0.368278
0.495201
0.582542
0.451221
0.342071
0.312779
0.451208
0.334828
0.339368
0.599466
0.338337
0.335471
0.613337
0.602453
0.32387
0.583106
0.31632
0.542419
0.346955
0.597611
0.535061
0.57877
0.529253
0.332509
0.337214
0.40603
0.528038
0.594405
0.481189
0.438386
0.287728
0.235129
0.526014
0.331828
0.599728
0.296611
0.53381
0.558958
0.329835
0.341483
0.339135
0.336112
0.344354
0.530067
0.572405
0.329332
0.603833
0.527319
0.350851
0.347302
0.599713
0.335638
0.598154
0.332848
0.578974
0.542365
0.603002
0.538811
0.335455
0.597601
0.605641
0.612815
0.338559
0.532565
0.487755
0.307953
0.610433
0.538292
0.625442
0.5779
0.601726
0.609235
0.611412
0.527122
0.582782
0.338555
0.591896
0.338903
0.370511
0.60207
0.404293
0.593737
0.544883
0.345239
0.571493
0.337772
0.410241
0.607354
0.531131
0.602856
0.33336
0.578695
0.50721
0.345602
0.3239
0.606426
0.569164
0.293733
0.318625
0.584145
0.601147
0.336295
0.531444
0.604204
0.541108
0.33605
0.334728
0.40436
0.543448
0.358042
0.591292
0.580563
0.527723
0.502501
0.598254
0.33323
0.59922
0.504111
0.60586
0.481887
0.392523
0.334782
0.368078
0.588564
0.594518
0.330335
0.540394
0.335184
0.541977
0.603964
0.360988
0.523501
0.592297
0.513979
0.321772
0.340078
0.314703
0.599554
0.598437
0.505058
0.411108
0.602498
0.336975
0.522591
0.54126
0.589126
0.321768
0.513304
0.345389
0.554997
0.374776
0.597209
0.608386
0.373407
0.60189
0.351173
0.545606
0.531949
0.548095
0.61363
0.339345
0.525837
0.553696
0.594129
0.597973
0.38179
0.541603
0.354488
0.563436
0.364756
0.335969
0.36611
0.34406
0.335037
0.323951
0.603938
0.282149
0.341738
0.54812
0.601965
0.574839
0.319216
0.573595
0.570233
0.527743
0.350009
0.48965
0.584655
0.329973
0.318977
0.336811
0.518529
0.40552
0.335702
0.491016
0.379472
0.5393
0.399307
0.349313
0.37437
0.537748
0.312829
0.570709
0.35565
0.395446
0.292842
0.615935
0.304511
0.545266
0.540861
0.548449
0.340047
0.339433
0.616681
0.6012
0.319517
0.41491
0.527235
0.336493
0.584536
0.322017
0.452125
0.36824
0.582347
0.333695
0.603008
0.335389
0.604623
0.600864
0.598482
0.542421
0.352402
0.389316
0.316109
0.602236
0.569251
0.574088
0.442123
0.342244
0.587837
0.311165
0.591924
0.516739
0.337113
0.346708
0.590544
0.598474
0.393789
0.535798
0.619758
0.592057
0.591465
0.356203
0.524698
0.338018
0.593112
0.363874
0.530947
0.590656
0.618811
0.604613
0.351602
0.60194
0.338049
0.32401
0.56613
0.541868
0.447228
0.593315
0.54221
0.336754
0.585934
0.614414
0.612924
0.413415
0.339495
0.568276
0.333639
0.606442
0.613174
0.595572
0.615874
0.223342
0.360331
0.53594
0.377645
0.59673
0.599528
0.381567
0.606196
0.377785
0.542615
0.586453
0.562452
0.609358
0.340916
0.397522
0.599694
0.589811
0.342876
0.346549
0.333091
0.380012
0.342514
0.368476
0.340128
0.336107
0.598169
0.362174
0.332728
0.583007
0.446121
0.545734
0.311553
0.336506
0.588192
0.37487
0.396688
0.596987
0.291869
0.54527
0.533163
0.498048
0.577621
0.359471
0.595474
0.530555
0.323004
0.33817
0.336608
0.542338
0.497805
0.601027
0.527096
0.589472
0.579473
0.280445
0.599868
0.529946
0.611654
0.336899
0.589141
0.49918
0.275827
0.341899
0.350744
0.395271
0.348197
0.48466
0.555895
0.573793
0.340162
0.301907
0.605301
0.379867
0.589691
0.558552
0.595156
0.562622
0.603073
0.330125
0.396136
0.380903
0.467272
0.362937
0.595173
0.377823
0.554802
0.52691
0.603975
0.31814
0.359828
0.334962
0.600135
0.316528
0.336294
0.612301
0.578317
0.519578
0.527342
0.606607
0.583994
0.334762
0.511784
0.59656
0.425787
0.599148
0.589867
0.586795
0.360288
0.333222
0.612863
0.395955
0.508955
0.337903
0.55847
0.598452
0.310265
0.357416
0.568827
0.410035
0.596432
0.588966
0.336048
0.336388
0.53799
0.313729
0.325882
0.602143
0.606044
0.34712
0.600703
0.537901
0.570611
0.336553
0.485378
0.335783
0.60539
0.60209
0.584181
0.569963
0.537472
0.357754
0.286919
0.581585
0.337018
0.496672
0.350642
0.60399
0.376951
0.537647
0.595796
0.53833
0.337258
0.547641
0.540373
0.338297
0.557559
0.372508
0.612476
0.337609
0.331396
0.374075
0.571373
0.597308
0.250303
0.363758
0.591786
0.602229
0.366218