# vtk DataFile Version 1.0
unstructured grid
ascii
DATASET UNSTRUCTURED_GRID
points 13672 float
0.0796578 -0.059106 0
0.00128732 0.00159165 0
0.00227961 -0.00102548 0
0.0791586 -0.0598787 0
-0.0546216 0.01 0
0.000495206 0.025 0
0.0800549 -0.035 0
0.135172 -0.08 0
-0.0546216 -0.0451168 0
0.000495206 -0.0301168 0
0.0800549 -0.0901168 0
0.135172 -0.135117 0
-0.0546216 -0.0451168 -0.00551168
0.000495206 -0.0301168 -0.00551168
0.0800549 -0.0901168 -0.00551168
0.135172 -0.135117 -0.00551168
0.135172 -0.08 -0.00551168
0.0800549 -0.035 -0.00551168
0.000495206 0.025 -0.00551168
-0.0546216 0.01 -0.00551168
0.00128732 0.00159165 -0.00551168
0.00227961 -0.00102548 -0.00551168
0.0791586 -0.0598787 -0.00551168
0.0796578 -0.059106 -0.00551168
0.00165953 -0.000990923 0
0.00119576 -0.000874076 0
0.000866021 -0.000641801 0
0.000645147 -0.000349912 0
0.00052235 -1.7281e-05 0
0.00049972 0.000348016 0
0.000601632 0.000737716 0
0.000861774 0.0011403 0
0.00157235 0.00183217 0
0.00188647 0.00206725 0
0.00222612 0.00230203 0
0.00258713 0.00254351 0
0.00296826 0.00279524 0
0.00337118 0.00305664 0
0.00379785 0.00332658 0
0.00425045 0.00360349 0
0.00473139 0.00388521 0
0.0052432 0.00416895 0
0.0057881 0.00445204 0
0.00636753 0.00473281 0
0.00698281 0.00500961 0
0.00763526 0.00528058 0
0.00832616 0.00554366 0
0.00905691 0.00579603 0
0.00982918 0.00603333 0
0.0106445 0.00625033 0
0.0115038 0.00644128 0
0.0124073 0.00660297 0
0.0133543 0.00673414 0
0.0143444 0.00683382 0
0.0153769 0.00690031 0
0.0164512 0.00693173 0
0.0175666 0.00692547 0
0.0187219 0.00687822 0
0.0199156 0.00678477 0
0.0211454 0.00663864 0
0.0224084 0.00643275 0
0.0237018 0.00616676 0
0.0250249 0.00584739 0
0.026375 0.00547298 0
0.0277479 0.00503752 0
0.0291386 0.00453545 0
0.0305433 0.0039653 0
0.0319572 0.0033256 0
0.0333681 0.00260019 0
0.034775 0.00179799 0
0.0361793 0.000930615 0
0.0375798 3.12222e-06 0
0.0389689 -0.000988429 0
0.0403357 -0.00205109 0
0.041675 -0.00318283 0
0.0429849 -0.00437751 0
0.0442643 -0.00562904 0
0.0455126 -0.00693089 0
0.0467314 -0.00827518 0
0.0479204 -0.00965638 0
0.0490661 -0.0110799 0
0.0501515 -0.0125519 0
0.0511696 -0.0140695 0
0.0521492 -0.0156071 0
0.0531202 -0.0171411 0
0.0540851 -0.0186663 0
0.0550431 -0.0201798 0
0.0559923 -0.0216793 0
0.0569311 -0.0231626 0
0.0578582 -0.0246273 0
0.0587723 -0.0260715 0
0.0596721 -0.027493 0
0.0605563 -0.02889 0
0.0614241 -0.0302609 0
0.0622742 -0.0316042 0
0.063106 -0.0329183 0
0.0639186 -0.034202 0
0.0647113 -0.0354543 0
0.0654835 -0.0366743 0
0.0662345 -0.0378613 0
0.0669642 -0.0390145 0
0.0676726 -0.0401333 0
0.0683597 -0.0412172 0
0.0690246 -0.0422665 0
0.0696662 -0.0432819 0
0.0702841 -0.0442636 0
0.0708793 -0.0452111 0
0.0714538 -0.0461237 0
0.072009 -0.047001 0
0.0725452 -0.0478434 0
0.0730611 -0.0486524 0
0.073556 -0.0494294 0
0.0740291 -0.0501756 0
0.0744812 -0.0508916 0
0.0749138 -0.0515773 0
0.0753285 -0.0522331 0
0.0757266 -0.0528592 0
0.076109 -0.0534564 0
0.0764753 -0.0540264 0
0.0768243 -0.054571 0
0.0771553 -0.0550919 0
0.0774679 -0.0555901 0
0.0777617 -0.0560669 0
0.0780369 -0.056523 0
0.0782958 -0.0569578 0
0.0785421 -0.0573703 0
0.0787786 -0.0577603 0
0.0790073 -0.0581279 0
0.0792295 -0.058474 0
0.0794462 -0.0587995 0
0.0798803 -0.0594162 0
0.0800272 -0.0596588 0
0.0800357 -0.0598891 0
0.0799275 -0.0600784 0
0.0797205 -0.0601773 0
0.0794593 -0.0601051 0
0.0789155 -0.0596491 0
0.0786707 -0.0593963 0
0.0784111 -0.0591319 0
0.0781372 -0.0588542 0
0.0778566 -0.0585548 0
0.0775715 -0.0582308 0
0.0772803 -0.0578828 0
0.0769832 -0.0575099 0
0.0766822 -0.0571097 0
0.0763801 -0.0566796 0
0.0760759 -0.0562196 0
0.0757623 -0.0557337 0
0.0754359 -0.0552232 0
0.0750951 -0.0546879 0
0.0747379 -0.054128 0
0.0743626 -0.0535435 0
0.0739688 -0.0529338 0
0.0735559 -0.0522981 0
0.0731238 -0.0516357 0
0.0726718 -0.050946 0
0.0721991 -0.0502288 0
0.0717046 -0.049484 0
0.0711872 -0.0487117 0
0.0706461 -0.047912 0
0.0700804 -0.0470849 0
0.0694892 -0.0462308 0
0.0688718 -0.0453499 0
0.0682271 -0.0444431 0
0.0675544 -0.043511 0
0.0668527 -0.0425546 0
0.0661215 -0.0415748 0
0.06536 -0.040573 0
0.0645676 -0.0395504 0
0.0637439 -0.0385087 0
0.0628887 -0.0374493 0
0.062002 -0.0363741 0
0.0610838 -0.0352847 0
0.0601345 -0.0341831 0
0.0591547 -0.033071 0
0.0581456 -0.0319502 0
0.0571083 -0.0308224 0
0.0560444 -0.0296893 0
0.0549562 -0.028552 0
0.053845 -0.0274126 0
0.0527113 -0.0262746 0
0.051554 -0.0251427 0
0.0503724 -0.0240222 0
0.0491675 -0.0229164 0
0.047941 -0.0218282 0
0.0466955 -0.0207597 0
0.0454337 -0.0197126 0
0.0441592 -0.0186878 0
0.0428751 -0.0176863 0
0.0415841 -0.0167097 0
0.0402878 -0.0157609 0
0.0389879 -0.0148428 0
0.0376864 -0.0139575 0
0.0363853 -0.013107 0
0.0350871 -0.0122931 0
0.0337942 -0.0115164 0
0.0325095 -0.0107772 0
0.0312357 -0.0100756 0
0.0299758 -0.00941024 0
0.0287337 -0.00877784 0
0.0275126 -0.00817571 0
0.0263139 -0.00760375 0
0.0251376 -0.00706528 0
0.0239829 -0.0065649 0
0.0228537 -0.00609619 0
0.0217522 -0.00565563 0
0.0206795 -0.00524226 0
0.0196364 -0.00485507 0
0.0186233 -0.00449318 0
0.0176408 -0.00415577 0
0.016689 -0.00384204 0
0.0157682 -0.00355115 0
0.0148783 -0.00328218 0
0.0140192 -0.00303468 0
0.0131906 -0.00280795 0
0.0123925 -0.00260016 0
0.0116246 -0.00241012 0
0.0108864 -0.00223769 0
0.0101774 -0.00208212 0
0.00949701 -0.00194206 0
0.00884483 -0.0018163 0
0.0082202 -0.0017039 0
0.00762247 -0.00160391 0
0.00705097 -0.00151528 0
0.006505 -0.00143697 0
0.0059838 -0.00136806 0
0.00548662 -0.00130772 0
0.00501265 -0.00125519 0
0.00456114 -0.00120954 0
0.00413136 -0.00116914 0
0.00372257 -0.00113251 0
0.00333398 -0.00109853 0
0.00296466 -0.00106798 0
0.00261363 -0.0010431 0
-0.052721 -0.0445996 0
-0.0508204 -0.0440823 0
-0.0489199 -0.0435651 0
-0.0470193 -0.0430478 0
-0.0451187 -0.0425306 0
-0.0432181 -0.0420134 0
-0.0413175 -0.0414961 0
-0.039417 -0.0409789 0
-0.0375164 -0.0404616 0
-0.0356158 -0.0399444 0
-0.0337152 -0.0394271 0
-0.0318146 -0.0389099 0
-0.0299141 -0.0383927 0
-0.0280135 -0.0378754 0
-0.0261129 -0.0373582 0
-0.0242123 -0.0368409 0
-0.0223117 -0.0363237 0
-0.0204112 -0.0358065 0
-0.0185106 -0.0352892 0
-0.01661 -0.034772 0
-0.0147094 -0.0342547 0
-0.0128088 -0.0337375 0
-0.0109083 -0.0332202 0
-0.00900769 -0.032703 0
-0.00710711 -0.0321858 0
-0.00520653 -0.0316685 0
-0.00330595 -0.0311513 0
-0.00140537 -0.030634 0
0.00190689 -0.0299614 0
0.00332271 -0.0298498 0
0.00474133 -0.0297825 0
0.00616136 -0.0297597 0
0.0075814 -0.0297814 0
0.00900007 -0.0298477 0
0.010416 -0.0299583 0
0.0118278 -0.0301127 0
0.0132342 -0.0303103 0
0.0146339 -0.0305504 0
0.0160259 -0.0308322 0
0.0174091 -0.0311546 0
0.0187824 -0.0315166 0
0.020145 -0.031917 0
0.0214961 -0.0323546 0
0.0228351 -0.032828 0
0.0241613 -0.0333361 0
0.0254744 -0.0338774 0
0.0267738 -0.0344507 0
0.0280592 -0.0350545 0
0.0293306 -0.0356877 0
0.0305875 -0.0363488 0
0.0318301 -0.0370367 0
0.0330581 -0.0377501 0
0.0342717 -0.0384879 0
0.0354708 -0.0392489 0
0.0366556 -0.0400321 0
0.0378262 -0.0408363 0
0.0389828 -0.0416607 0
0.0401254 -0.0425042 0
0.0412543 -0.0433659 0
0.0423698 -0.0442451 0
0.043472 -0.0451408 0
0.0445612 -0.0460523 0
0.0456375 -0.0469789 0
0.0467013 -0.0479199 0
0.0477529 -0.0488746 0
0.0487923 -0.0498424 0
0.04982 -0.0508227 0
0.0508362 -0.051815 0
0.051841 -0.0528187 0
0.0528348 -0.0538333 0
0.0538178 -0.0548584 0
0.0547903 -0.0558935 0
0.0557524 -0.0569382 0
0.0567045 -0.0579922 0
0.0576467 -0.0590549 0
0.0585792 -0.0601261 0
0.0595024 -0.0612055 0
0.0604163 -0.0622926 0
0.0613212 -0.0633873 0
0.0622174 -0.0644891 0
0.0631049 -0.0655979 0
0.0639841 -0.0667134 0
0.064855 -0.0678353 0
0.0657179 -0.0689633 0
0.0665729 -0.0700974 0
0.0674202 -0.0712372 0
0.06826 -0.0723826 0
0.0690925 -0.0735333 0
0.0699178 -0.0746892 0
0.070736 -0.0758501 0
0.0715473 -0.0770159 0
0.0723518 -0.0781863 0
0.0731498 -0.0793612 0
0.0739412 -0.0805405 0
0.0747264 -0.081724 0
0.0755053 -0.0829116 0
0.0762781 -0.0841033 0
0.0770449 -0.0852987 0
0.0778059 -0.0864979 0
0.0785611 -0.0877007 0
0.0793108 -0.088907 0
0.0814681 -0.0912706 0
0.0828814 -0.0924245 0
0.0842946 -0.0935783 0
0.0857079 -0.0947322 0
0.0871211 -0.095886 0
0.0885344 -0.0970399 0
0.0899476 -0.0981937 0
0.0913609 -0.0993476 0
0.0927741 -0.100501 0
0.0941874 -0.101655 0
0.0956006 -0.102809 0
0.0970139 -0.103963 0
0.0984272 -0.105117 0
0.0998404 -0.106271 0
0.101254 -0.107424 0
0.102667 -0.108578 0
0.10408 -0.109732 0
0.105493 -0.110886 0
0.106907 -0.11204 0
0.10832 -0.113194 0
0.109733 -0.114348 0
0.111146 -0.115501 0
0.11256 -0.116655 0
0.113973 -0.117809 0
0.115386 -0.118963 0
0.116799 -0.120117 0
0.118213 -0.121271 0
0.119626 -0.122424 0
0.121039 -0.123578 0
0.122452 -0.124732 0
0.123866 -0.125886 0
0.125279 -0.12704 0
0.126692 -0.128194 0
0.128105 -0.129348 0
0.129519 -0.130501 0
0.130932 -0.131655 0
0.132345 -0.132809 0
0.133758 -0.133963 0
0.135172 -0.133216 0
0.135172 -0.131316 0
0.135172 -0.129415 0
0.135172 -0.127514 0
0.135172 -0.125614 0
0.135172 -0.123713 0
0.135172 -0.121813 0
0.135172 -0.119912 0
0.135172 -0.118012 0
0.135172 -0.116111 0
0.135172 -0.11421 0
0.135172 -0.11231 0
0.135172 -0.110409 0
0.135172 -0.108509 0
0.135172 -0.106608 0
0.135172 -0.104708 0
0.135172 -0.102807 0
0.135172 -0.100906 0
0.135172 -0.0990058 0
0.135172 -0.0971052 0
0.135172 -0.0952046 0
0.135172 -0.0933041 0
0.135172 -0.0914035 0
0.135172 -0.0895029 0
0.135172 -0.0876023 0
0.135172 -0.0857017 0
0.135172 -0.0838012 0
0.135172 -0.0819006 0
0.133758 -0.0788462 0
0.132345 -0.0776923 0
0.130932 -0.0765385 0
0.129519 -0.0753846 0
0.128105 -0.0742308 0
0.126692 -0.0730769 0
0.125279 -0.0719231 0
0.123866 -0.0707692 0
0.122452 -0.0696154 0
0.121039 -0.0684615 0
0.119626 -0.0673077 0
0.118213 -0.0661538 0
0.116799 -0.065 0
0.115386 -0.0638462 0
0.113973 -0.0626923 0
0.11256 -0.0615385 0
0.111146 -0.0603846 0
0.109733 -0.0592308 0
0.10832 -0.0580769 0
0.106907 -0.0569231 0
0.105493 -0.0557692 0
0.10408 -0.0546154 0
0.102667 -0.0534615 0
0.101254 -0.0523077 0
0.0998404 -0.0511538 0
0.0984272 -0.05 0
0.0970139 -0.0488462 0
0.0956006 -0.0476923 0
[...]
CELL_DATA 13116
SCALARS rho float
LOOKUP_TABLE default
0.4275
0.514883
0.292789
0.556171
0.546862
0.533968
0.320347
0.549724
0.410751
0.550683
0.318998
0.295418
0.547104
0.329434
0.318175
0.534021
0.402413
0.54334
0.531862
0.327768
0.431555
0.325687
0.326626
0.544844
0.47464
0.494622
0.550718
0.328297
0.473673
0.503525
0.53351
0.325391
0.432868
0.34947
0.318722
0.429625
0.518285
0.52697
0.533853
0.534138
0.533139
0.552537
0.331436
0.289961
0.53067
0.531705
0.496679
0.534433
0.32145
0.407798
0.545738
0.344811
0.321811
0.396771
0.431779
0.455932
0.29284
0.542083
0.418196
0.317899
0.330066
0.551951
0.507217
0.533834
0.533596
0.333379
0.535764
0.52373
0.536581
0.533621
0.320907
0.457327
0.322127
0.325328
0.533429
0.305347
0.501232
0.542785
0.32123
0.540906
0.52882
0.499173
0.544906
0.534071
0.523035
0.351392
0.326381
0.521575
0.518798
0.323585
0.31008
0.516313
0.546945
0.523206
0.505898
0.466185
0.476663
0.533595
0.533438
0.466456
0.529337
0.458096
0.532702
0.313901
0.48262
0.333596
0.281254
0.368612
0.3288
0.481736
0.391209
0.49399
0.464719
0.531675
0.541399
0.535928
0.328863
0.302967
0.540026
0.536967
0.524061
0.320245
0.536891
0.336049
0.518225
0.342546
0.326829
0.39772
0.322731
0.409087
0.540257
0.533816
0.392686
0.326796
0.377112
0.455075
0.533398
0.538894
0.528622
0.536744
0.488069
0.499432
0.396465
0.488759
0.503076
0.325086
0.319239
0.492374
0.544906
0.542521
0.424596
0.533615
0.534395
0.311711
0.54788
0.524198
0.325843
0.533821
0.533598
0.52183
0.544127
0.319013
0.54358
0.326091
0.316394
0.550361
0.515882
0.542959
0.319009
0.363349
0.330025
0.533359
0.319939
0.38446
0.535201
0.327658
0.321916
0.323291
0.490663
0.533673
0.30532
0.337571
0.407326
0.518646
0.533703
0.416349
0.298419
0.532958
0.47258
0.360306
0.495985
0.490586
0.533606
0.329237
0.486324
0.533981
0.548122
0.532595
0.517702
0.317752
0.313541
0.485813
0.39356
0.328505
0.540752
0.530175
0.351699
0.474322
0.327509
0.32396
0.302815
0.534817
0.325178
0.325934
0.323347
0.311
0.286223
0.533426
0.51553
0.341045
0.292414
0.535605
0.386325
0.306254
0.434181
0.551172
0.501126
0.332034
0.535339
0.30659
0.556252
0.314696
0.533576
0.449399
0.533576
0.528403
0.533626
0.315615
0.336689
0.521803
0.533477
0.533899
0.533412
0.533452
0.544203
0.323546
0.541891
0.548548
0.533426
0.32242
0.322976
0.531516
0.53954
0.53355
0.536483
0.4164
0.534062
0.318577
0.328909
0.309728
0.328134
0.46857
0.547941
0.500193
0.323005
0.529396
0.319188
0.339067
0.484388
0.320404
0.495737
0.548789
0.533433
0.541821
0.316073
0.533424
0.532983
0.533428
0.538764
0.318816
0.328048
0.327951
0.45121
0.320075
0.326792
0.260547
0.247842
0.521998
0.322938
0.523282
0.547606
0.302699
0.319388
0.31977
0.354297
0.289663
0.520469
0.456682
0.488845
0.320556
0.53454
0.459515
0.329054
0.31842
0.53374
0.53951
0.532703
0.297162
0.534032
0.323024
0.533253
0.552373
0.541148
0.551478
0.330182
0.535341
0.326461
0.533626
0.551458
0.522465
0.322882
0.260303
0.549023
0.331372
0.508545
0.551879
0.28579
0.536261
0.544659
0.326611
0.529203
0.546857
0.321711
0.541492
0.35272
0.449945
0.533203
0.357963
0.53407
0.323958
0.543074
0.269726
0.533449
0.451764
0.549077
0.33213
0.280054
0.524145
0.315189
0.540087
0.477759
0.329617
0.533403
0.306449
0.317673
0.538181
0.434375
0.522486
0.328232
0.32556
0.541758
0.547416
0.31916
0.546511
0.332291
0.332407
0.535553
0.536851
0.357706
0.322432
0.538851
0.533588
0.534084
0.528141
0.541554
0.42473
0.257943
0.325489
0.302321
0.534072
0.303077
0.405678
0.289627
0.318181
0.275354
0.365576
0.110375
0.315937
0.524878
0.259979
0.544198
0.473338
0.53309
0.515138
0.542433
0.317746
0.327261
0.322476
0.265226
0.537941
0.461409
0.532959
0.473821
0.504417
0.483143
0.497607
0.484818
0.501275
0.540466
0.540483
0.533865
0.31446
0.358043
0.42429
0.323822
0.453647
0.454599
0.323562
0.535706
0.533467
0.330773
0.325359
0.324793
0.30102
0.493506
0.321583
0.329207
0.535077
0.326623
0.449089
0.325186
0.533589
0.528532
0.287038
0.327141
0.537755
0.355509
0.324871
0.299086
0.320367
0.328612
0.328533
0.325697
0.325971
0.338879
0.320442
0.455305
0.307594
0.522352
0.297823
0.35753
0.394952
0.332541
0.323206
0.329357
0.53181
0.343379
0.501106
0.37058
0.330759
0.476318
0.520678
0.350764
0.535904
0.484069
0.482917
0.327841
0.533575
0.304658
0.54236
0.533496
0.326175
0.325503
0.471306
0.267595
0.359153
0.454188
0.280455
0.533061
0.505415
0.303362
0.31925
0.31992
0.380983
0.317138
0.322453
0.31989
0.326902
0.553024
0.553572
0.359412
0.468941
0.37648
0.486101
0.275505
0.320784
0.414304
0.326434
0.533509
0.231031
0.291346
0.389419
0.530111
0.51207
0.439332
0.284414
0.325418
0.446621
0.549857
0.533723
0.443678
0.486238
0.467539
0.322628
0.527719
0.445871
0.520888
0.243292
0.292208
0.530894
0.548361
0.514283
0.551431
0.513543
0.494601
0.543192
0.521248
0.533051
0.312887
0.529892
0.266555
0.326727
0.326175
0.555072
0.530626
0.242698
0.522303
0.486874
0.323177
0.533546
0.538982
0.537639
0.327916
0.320669
0.541389
0.324878
0.307819
0.310727
0.323432
0.5316
0.323309
0.55507
0.308093
0.515403
0.544722
0.535829
0.547548
0.324389
0.303911
0.53196
0.557155
0.510472
0.552747
0.54833
0.390996
0.326197
0.3285
0.53419
0.412456
0.324373
0.355299
0.314655
0.53214
0.533375
0.243306
0.325624
0.520646
0.365754
0.525506
0.516391
0.321193
0.307283
0.50715
0.53349
0.327077
0.511143
0.515572
0.531409
0.31291
0.533369
0.301859
0.53356
0.519898
0.32093
0.285599
0.326376
0.533511
0.324723
0.320315
0.303379
0.533556
0.535966
0.321234
0.324726
0.324254
0.533677
0.322042
0.533882
0.325259
0.460375
0.551208
0.300291
0.326203
0.326029
0.39136
0.330936
0.503347
0.296546
0.321905
0.533552
0.321359
0.534663
0.50541
0.533574
0.302282
0.534078
0.545925
0.547832
0.534296
0.519239
0.535399
0.323005
0.533709
0.342878
0.529024
0.319222
0.544923
0.394724
0.319665
0.533487
0.54333
0.3197
0.487266
0.308651
0.320128
0.535023
0.531519
0.303697
0.323503
0.321705
0.330347
0.529425
0.544996
0.314068
0.299713
0.540055
0.538716
0.461826
0.545475
0.53345
0.319522
0.549171
0.334816
0.5456
0.303849
0.464583
0.378849
0.535183
0.523468
0.452643
0.268396
0.331118
0.532361
0.474135
0.40149
0.545063
0.328152
0.531506
0.547538
0.287064
0.356064
0.546325
0.283883
0.533491
0.522583
0.256775
0.537723
0.504487
0.306002
0.534932
0.327542
0.516418
0.298825
0.534711
0.505727
0.333688
0.533835
0.543987
0.542032
0.487835
0.529017
0.457876
0.319334
0.325098
0.297386
0.327816
0.533326
0.436565
0.5375
0.544387
0.307037
0.321695
0.532242
0.551915
0.538134
0.548832
0.321973
0.540634
0.548451
0.326997
0.308487
0.540178
0.531476
0.519768
0.324555
0.464155
0.299263
0.534201
0.503699
0.533724
0.521127
0.324429
0.528591
0.523181
0.546108
0.530552
0.533494
0.339478
0.541253
0.323935
0.485602
0.54959
0.363017
0.506626
0.533743
0.544296
0.313421
0.314815
0.458784
0.509014
0.326597
0.324297
0.316619
0.320411
0.516875
0.531144
0.533445
0.247262
0.319779
0.536428
0.532733
0.322623
0.322769
0.364402
0.517343
0.532666
0.527589
0.538531
0.32382
0.327435
0.533383
0.333694
0.319216
0.299229
0.53305
0.308738
0.323729
0.449892
0.530559
0.49072
0.53394
0.533033
0.330842
0.320056
0.317067
0.370052
0.342982
0.313701
0.52256
0.538141
0.516343
0.534159
0.333784
0.299952
0.551188
0.327307
0.533455
0.505308
0.533611
0.303689
0.318533
0.511803
0.533438
0.436659
0.321471
0.52479
0.533985
0.446443
0.542667
0.548179
0.5334
0.486462
0.3225
0.533125
0.533442
0.479024
0.534485
0.533372
0.495272
0.533486
0.538181
0.32227
0.317208
0.302245
0.533622
0.393601
0.328258
0.532094
0.540504
0.290291
0.493346
0.283791
0.49738
0.364524
0.317125
0.552174
0.544505
0.325319
0.433227
0.533602
0.325465
0.523474
0.332246
0.333735
0.479849
0.474882
0.394862
0.532585
0.316229
0.543462
0.320603
0.317806
0.534615
0.324037
0.469901
0.317434
0.492633
0.4658
0.533473
0.514066
0.323217
0.321426
0.473958
0.333115
0.537852
0.357278
0.46039
0.533783
0.545912
0.344356
0.479577
0.489378
0.54839
0.536306
0.272483
0.31896
0.425144
0.487684
0.548838
0.294534
0.532621
0.438162
0.322102
0.308112
0.523725
0.518045
0.533447
0.533484
0.458444
0.532275
0.533711
0.524159
0.317525
0.514533
0.362354
0.538431
0.530976
0.241224
0.498412
0.545703
0.317775
0.318687
0.328699
0.533377
0.319467
0.479726
0.5386
0.515744
0.303075
0.524516
0.328737
0.463717
0.533798
0.533443
0.521197
0.533653
0.483145
0.527796
0.408677
0.528599
0.297146
0.533267
0.535721
0.317525
0.533505
0.532278
0.326832
0.324692
0.323406
0.541546
0.323327
0.533405
0.31362
0.549013
0.325397
0.379312
0.322558
0.541895
0.548176
0.414778
0.213435
0.483047
0.533438
0.317314
0.461019
0.553924
0.314879
0.458041
0.533432
0.550887
0.533595
0.32459
0.366489
0.53923
0.532367
0.486836
0.324559
0.312196
0.52645
0.533413
0.533484
0.53343
0.426962
0.534174
0.423256
0.536516
0.324204
0.328144
0.533438
0.545925
0.533578
0.331318
0.533198
0.433009
0.466482
0.304516
0.328221
0.546823
0.55798
0.435243
0.263372
0.533621
0.53352
0.31935
0.476818
0.538344
0.319005
0.354369
0.324443
0.471953
0.324929
0.311454
0.528352
0.363412
0.549076
0.498146
0.319695
0.327533
0.551752
0.316037
0.322127
0.533439
0.330116
0.276439
0.461028
0.515479
0.53415
0.319576
0.255017
0.319533
0.506597
0.33291
0.53472
0.319102
0.532816
0.487724
0.529734
0.491583
0.527477
0.501937
0.532809
0.547204
0.536997
0.322553
0.321498
0.521377
0.533777
0.399764
0.481579
0.436204
0.533745
0.477654
0.286918
0.536324
0.553104
0.527184
0.322721
0.529275
0.302368
0.534023
0.393599
0.541215
0.534279
0.316962
0.537857
0.325263
0.333479
0.508231
0.298181
0.53351
0.53341
0.538289
0.301784
0.535022
0.321424
0.303934
0.317306
0.322991
0.471086
0.321057
0.491006
0.533727
0.266079
0.329374
0.385733
0.455958
0.492687
0.488376
0.304677
0.333742
0.319112
0.322602
0.212552
0.492234
0.498161
0.326744
0.533434
0.538175
0.324541
0.553049
0.532174
0.533748
0.323322
0.533436
0.527919
0.541487
0.538423
0.316766
0.535192
0.542897
0.529798
0.524418
0.533368
0.325212
0.322275
0.533863
0.423772
0.31978
0.534497
0.328031
0.449466
0.487062
0.51466
0.517851
0.306081
0.480102
0.312104
0.322798
0.536921
0.541619
0.544937
0.541405
0.511748
0.304215
0.54827
0.321906
0.398902
0.549906
0.53345
0.538823
0.322757
0.323676
0.549152
0.323247
0.540886
0.508774
0.337079
0.323411
0.535531
0.319383
0.534219
0.540476
0.509168
0.318974
0.316838
0.395074
0.403328
0.48308
0.36992
0.533435
0.488385
0.524572
0.533322
0.533566
0.324172
0.325218
0.542472
0.533366
0.484227
0.363215
0.328643
0.525347
0.320816
0.533345
0.483377
0.261565
0.537498
0.32089
0.506779
0.295077
0.545675
0.31552
0.533149
0.533666
0.277903
0.520401
0.508558
0.267346
0.533445
0.531756
0.434671
0.332255
0.287053
0.364726
0.546358
0.470474
0.319104
0.460599
0.535557
0.533593
0.295137
0.473801
0.519885
0.365439
0.533418
0.533716
0.235412
0.536744
0.533439
0.293017
0.465386
0.302591
0.495618
0.310751
0.333269
0.548015
0.317759
0.323343
0.323436
0.535437
0.512672
0.316778
0.533513
0.283918
0.516439
0.321464
0.515749
0.290195
0.533819
0.534204
0.502408
0.533563
0.436162
0.53369
0.533723
0.292781
0.499766
0.506688
0.377817
0.533046
0.390407
0.316377
0.548004
0.308672
0.448071
0.28008
0.532882
0.322277
0.329074
0.544593
0.533085
0.30442
0.537541
0.538236
0.533358
0.548468
0.533523
0.322478
0.55244
0.324529
0.32548
0.519946
0.539384
0.551841
0.522527
0.313995
0.310012
0.3189
0.516109
0.533688
0.286128
0.524259
0.333831
0.307636
0.305086
0.521214
0.304116
0.549625
0.537317
0.498905
0.530753
0.536373
0.446655
0.496835
0.344524
0.330501
0.304629
0.533516
0.533475
0.331319
0.49175
0.469592
0.498311
0.324868
0.3109
0.491491
0.220622
0.485931
0.462024
0.326501
0.533525
0.518325
0.328203
0.533601
0.321417
0.537305
0.549874
0.527883
0.321917
0.372772
0.5323
0.238842
0.351955
0.530784
0.245594
0.533528
0.536233
0.495341
0.538534
0.260778
0.533522
0.536398
0.532274
0.287842
0.542894
0.322633
0.33063
0.524
0.532853
0.53353
0.187237
0.53452
0.499493
0.533434
0.334628
0.330151
0.324617
0.540143
0.319408
0.320179
0.305964
0.460295
0.319873
0.242275
0.350865
0.534683
0.326363
0.533524
0.533646
0.533801
0.300905
0.535965
0.51217
0.533436
0.329621
0.522631
0.319507
0.31022
0.534923
0.319432
0.488385
0.534544
0.533463
0.321364
0.26052
0.31993
0.442526
0.533431
0.185317
0.527614
0.535329
0.539481
0.324227
0.32261
0.272603
0.469716
0.326155
0.533394
0.477283
0.533669
0.527313
0.319874
0.488698
0.321627
0.437428
0.510235
0.551744
0.443476
0.373167
0.522373
0.48735
0.543235
0.306407
0.293062
0.314249
0.540746
0.417035
0.533458
0.325447
0.314441
0.541483
0.535733
0.533444
0.318701
0.534421
0.441159
0.443535
0.472592
0.329722
0.322533
0.234248
0.532874
0.533768
0.523209
0.484354
0.271677
0.539075
0.517558
0.533769
0.533432
0.538957
0.552908
0.534048
0.538285
0.544457
0.325332
0.537401
0.542174
0.533253
0.53865
0.532534
0.450239
0.324883
0.333488
0.481938
0.323292
0.26361
0.533723
0.321407
0.501964
0.536088
0.512955
0.52783
0.326905
0.535183
0.314323
0.329624
0.5341
0.53349
0.534289
0.296964
0.545703
0.532692
0.479765
0.532816
0.324293
0.533283
0.549486
0.518618
0.318491
0.542463
0.321726
0.557634
0.301242
0.324981
0.407149
0.354455
0.552051
0.542793
0.533621
0.307212
0.533318
0.318481
0.321321
0.508436
0.388838
0.324216
0.533067
0.321313
0.406687
0.522664
0.496422
0.517146
0.387865
0.470578
0.513855
0.533906
0.448106
0.544926
0.422623
0.552925
0.481014
0.507248
0.332734
0.321051
0.353934
0.54142
0.326268
0.520771
0.537851
0.471549
0.533963
0.405211
0.532744
0.525384
0.324059
0.536935
0.476366
0.382044
0.479245
0.548984
0.50462
0.533556
0.32388
0.322701
0.52967
0.419456
0.425017
0.538696
0.533645
0.533925
0.54841
0.549558
0.485504
0.486184
0.551699
0.320702
0.322116
0.322688
0.297126
0.533483
0.361687
0.420191
0.537221
0.529339
0.325991
0.528668
0.556337
0.295977
0.296121
0.533409
0.538734
0.330777
0.307179
0.312984
0.533351
0.493985
0.321865
0.324294
0.326837
0.331345
0.272643
0.322587
0.554151
0.534364
0.53069
0.308868
0.513871
0.473602
0.481517
0.294459
0.325209
0.506755
0.53344
0.324354
0.533619
0.328206
0.544267
0.326156
0.533211
0.299029
0.517021
0.547558
0.303993
0.444924
0.320578
0.552722
0.330344
0.476689
0.328216
0.397538
0.320407
0.469657
0.317448
0.533546
0.533546
0.4798
0.526589
0.283393
0.516052
0.533426
0.546506
0.471655
0.517202
0.325708
0.305884
0.329062
0.546909
0.229997
0.545413
0.430996
0.53917
0.550839
0.360098
0.541117
0.321597
0.331744
0.320163
0.401215
0.405504
0.533005
0.319577
0.326936
0.534468
0.300813
0.318085
0.431908
0.291543
0.324241
0.334165
0.553529
0.514901
0.480313
0.327184
0.513304
0.533012
0.331456
0.256639
0.523465
0.533198
0.440186
0.409227
0.326986
0.287144
0.312206
0.52989
0.478293
0.410187
0.535102
0.324437
0.446153
0.320585
0.533523
0.545441
0.326341
0.326075
0.483779
0.426413
0.547283
0.544439
0.546706
0.538012
0.55
0.30796
0.323957
0.310913
0.318793
0.421262
0.533564
0.516299
0.319838
0.300801
0.354629
0.354729
0.533835
0.495512
0.322698
0.243411
0.536062
0.32786
0.512754
0.542956
0.508868
0.533374
0.43087
0.315661
0.301967
0.481581
0.326595
0.329053
0.316143
0.533554
0.532529
0.284537
0.326348
0.533348
0.316342
0.534238
0.546936
0.31521
0.318434
0.326154
0.535751
0.328839
0.533405
0.535
0.471903
0.302558
0.420129
0.542223
0.525434
0.322222
0.522927
0.483676
0.368807
0.539584
0.556595
0.322249
0.317093
0.51089
0.320879
0.319047
0.519266
0.27462
0.53319
0.533077
0.546301
0.489631
0.545724
0.535944
0.533794
0.318916
0.326354
0.492615
0.531735
0.372559
0.552768
0.256995
0.537931
0.518467
0.447354
0.509054
0.306472
0.361243
0.52938
0.543121
0.478336
0.547828
0.535035
0.533383
0.5476
0.533337
0.521157
0.510549
0.535553
0.53345
0.533794
0.28055
0.50176
0.291789
0.535215
0.537521
0.540139
0.500819
0.538132
0.317253
0.316804
0.242447
0.322011
0.507069
0.313517
0.323272
0.52997
0.324329
0.537745
0.31282
0.519479
0.535571
0.316084
0.303052
0.257394
0.54052
0.324951
0.532387
0.537586
0.3194
0.504508
0.439254
0.272984
0.328956
0.324428
0.538996
0.317205
0.536093
0.402302
0.321031
0.531889
0.533162
0.546675
0.328024
0.451061
0.324793
0.515447
0.533767
0.535869
0.323409
0.530916
0.538811
0.489303
0.320833
0.540405
0.329386
0.321933
0.529531
0.357845
0.549809
0.315627
0.323637
0.352472
0.496261
0.326221
0.231239
0.300257
0.376729
0.533422
0.537069
0.329028
0.46864
0.535127
0.443535
0.330129
0.259497
0.441147
0.328588
0.320926
0.530178
0.322526
0.327114
0.542687
0.554457
0.295806
0.542204
0.30935
0.533397
0.326802
0.50972
0.533669
0.539175
0.533562
0.322043
0.320774
0.320574
0.533847
0.512417
0.468603
0.426715
0.294921
0.240867
0.533399
0.31917
0.533603
0.303871
0.533682
0.524897
0.296373
0.289717
0.324014
0.326584
0.290881
0.482637
0.509183
0.299376
0.536639
0.500039
0.31595
0.320347
0.554385
0.324192
0.53526
0.339491
0.538833
0.513794
0.535881
0.533442
0.322683
0.549589
0.533753
0.555716
0.32028
0.475738
0.473611
0.260773
0.541417
0.499521
0.548616
0.514082
0.550047
0.528344
0.551267
0.533232
0.53196
0.309231
0.545871
0.324244
0.361094
0.530538
0.322459
0.520952
0.475074
0.326345
0.490497
0.318081
0.310847
0.523228
0.4671
0.554031
0.323958
0.513833
0.487358
0.317835
0.306101
0.509181
0.533131
0.299554
0.306651
0.538077
0.553857
0.311776
0.503631
0.548319
0.517152
0.297647
0.329577
0.314921
0.515026
0.313203
0.523528
0.540736
0.533422
0.473699
0.535839
0.324398
0.519243
0.487212
0.54738
0.440942
0.325702
0.319088
0.330943
0.544713
0.538521
0.337385
0.512077
0.251029
0.503863
0.536777
0.328356
0.482722
0.524393
0.488589
0.307279
0.326478
0.290782
0.540143
0.54972
0.485335
0.408789
0.535825
0.32518
0.497716
0.533431
0.531098
0.307109
0.495209
0.326539
0.481128
0.332781
0.530956
0.523248
0.327475
0.539906
0.334976
0.533444
0.500813
0.53338
0.540577
0.325681
0.533424
0.533445
0.533256
0.531711
0.384282
0.533425
0.325147
0.533593
0.328975
0.300606
0.326312
0.290074
0.327209
0.303059
0.550333
0.290798
0.319796
0.515411
0.540289
0.511098
0.322729
0.535156
0.53445
0.533389
0.274292
0.452417
0.535716
0.319478
0.303127
0.320157
0.492986
0.404262
0.313855
0.458416
0.333803
0.533525
0.398788
0.327041
0.375812
0.510197
0.286724
0.533468
0.323033
0.368693
0.297367
0.532413
0.303927
0.510639
0.533425
0.462747
0.328395
0.321996
0.526969
0.553001
0.307062
0.303901
0.533738
0.320561
0.542099
0.31033
0.442712
0.33152
0.535855
0.323387
0.551871
0.30029
0.536585
0.536606
0.543767
0.533502
0.327059
0.326251
0.322359
0.497361
0.529253
0.494977
0.40767
0.327323
0.539963
0.263211
0.510309
0.455636
0.315911
0.325266
0.544056
0.53078
0.327013
0.533544
0.530873
0.544002
0.546311
0.322838
0.499767
0.325476
0.54408
0.314549
0.533521
0.505366
0.513158
0.552338
0.316682
0.557379
0.31846
0.322772
0.534143
0.533511
0.431681
0.530367
0.533469
0.323374
0.543718
0.529505
0.549781
0.304881
0.338047
0.531971
0.315939
0.538275
0.537568
0.523137
0.534814
0.228042
0.353642
0.510048
0.326824
0.518372
0.553494
0.372927
0.520505
0.215644
0.483369
0.543926
0.530768
0.520694
0.324858
0.330354
0.533231
0.521382
0.326208
0.263093
0.3225
0.326292
0.320133
0.333587
0.287546
0.321314
0.532686
0.327332
0.293791
0.537211
0.430116
0.53335
0.313891
0.325613
0.535533
0.369234
0.374019
0.548181
0.293884
0.518745
0.53369
0.481453
0.517552
0.319724
0.537382
0.533791
0.319632
0.321035
0.316473
0.472384
0.480822
0.549911
0.534087
0.531789
0.52047
0.292894
0.538231
0.533796
0.508681
0.32435
0.53625
0.449383
0.287416
0.342712
0.322713
0.321794
0.323163
0.464765
0.523688
0.522416
0.320975
0.308798
0.548244
0.282532
0.537687
0.533442
0.523441
0.530991
0.535533
0.319669
0.323948
0.334087
0.445118
0.318669
0.534562
0.319552
0.534869
0.533529
0.537124
0.298574
0.354557
0.324454
0.536223
0.306235
0.319859
0.533466
0.517304
0.484979
0.533948
0.504787
0.541704
0.321762
0.493529
0.54576
0.421455
0.535188
0.53931
0.542648
0.365474
0.33895
0.550911
0.395732
0.479823
0.323205
0.502877
0.523835
0.318128
0.312533
0.513744
0.402767
0.543649
0.537661
0.317762
0.32765
0.533444
0.299966
0.324775
0.5252
0.510058
0.325001
0.527584
0.533603
0.502394
0.300413
0.46581
0.322867
0.527613
0.545183
0.541585
0.520079
0.533576
0.248889
0.283708
0.53007
0.32039
0.481123
0.322168
0.536453
0.330909
0.507803
0.545389
0.533556
0.323008
0.533391
0.533412
0.320598
0.50345
0.314658
0.554543
0.323346
0.299334
0.31554
0.527039
0.530167
0.256966