# vtk DataFile Version 1.0
unstructured grid
ascii
DATASET UNSTRUCTURED_GRID
points 13672 float
0.0796578 -0.059106 0
0.00128732 0.00159165 0
0.00227961 -0.00102548 0
0.0791586 -0.0598787 0
-0.0546216 0.01 0
0.000495206 0.025 0
0.0800549 -0.035 0
0.135172 -0.08 0
-0.0546216 -0.0451168 0
0.000495206 -0.0301168 0
0.0800549 -0.0901168 0
0.135172 -0.135117 0
-0.0546216 -0.0451168 -0.00551168
0.000495206 -0.0301168 -0.00551168
0.0800549 -0.0901168 -0.00551168
0.135172 -0.135117 -0.00551168
0.135172 -0.08 -0.00551168
0.0800549 -0.035 -0.00551168
0.000495206 0.025 -0.00551168
-0.0546216 0.01 -0.00551168
0.00128732 0.00159165 -0.00551168
0.00227961 -0.00102548 -0.00551168
0.0791586 -0.0598787 -0.00551168
0.0796578 -0.059106 -0.00551168
0.00165953 -0.000990923 0
0.00119576 -0.000874076 0
0.000866021 -0.000641801 0
0.000645147 -0.000349912 0
0.00052235 -1.7281e-05 0
0.00049972 0.000348016 0
0.000601632 0.000737716 0
0.000861774 0.0011403 0
0.00157235 0.00183217 0
0.00188647 0.00206725 0
0.00222612 0.00230203 0
0.00258713 0.00254351 0
0.00296826 0.00279524 0
0.00337118 0.00305664 0
0.00379785 0.00332658 0
0.00425045 0.00360349 0
0.00473139 0.00388521 0
0.0052432 0.00416895 0
0.0057881 0.00445204 0
0.00636753 0.00473281 0
0.00698281 0.00500961 0
0.00763526 0.00528058 0
0.00832616 0.00554366 0
0.00905691 0.00579603 0
0.00982918 0.00603333 0
0.0106445 0.00625033 0
0.0115038 0.00644128 0
0.0124073 0.00660297 0
0.0133543 0.00673414 0
0.0143444 0.00683382 0
0.0153769 0.00690031 0
0.0164512 0.00693173 0
0.0175666 0.00692547 0
0.0187219 0.00687822 0
0.0199156 0.00678477 0
0.0211454 0.00663864 0
0.0224084 0.00643275 0
0.0237018 0.00616676 0
0.0250249 0.00584739 0
0.026375 0.00547298 0
0.0277479 0.00503752 0
0.0291386 0.00453545 0
0.0305433 0.0039653 0
0.0319572 0.0033256 0
0.0333681 0.00260019 0
0.034775 0.00179799 0
0.0361793 0.000930615 0
0.0375798 3.12222e-06 0
0.0389689 -0.000988429 0
0.0403357 -0.00205109 0
0.041675 -0.00318283 0
0.0429849 -0.00437751 0
0.0442643 -0.00562904 0
0.0455126 -0.00693089 0
0.0467314 -0.00827518 0
0.0479204 -0.00965638 0
0.0490661 -0.0110799 0
0.0501515 -0.0125519 0
0.0511696 -0.0140695 0
0.0521492 -0.0156071 0
0.0531202 -0.0171411 0
0.0540851 -0.0186663 0
0.0550431 -0.0201798 0
0.0559923 -0.0216793 0
0.0569311 -0.0231626 0
0.0578582 -0.0246273 0
0.0587723 -0.0260715 0
0.0596721 -0.027493 0
0.0605563 -0.02889 0
0.0614241 -0.0302609 0
0.0622742 -0.0316042 0
0.063106 -0.0329183 0
0.0639186 -0.034202 0
0.0647113 -0.0354543 0
0.0654835 -0.0366743 0
0.0662345 -0.0378613 0
0.0669642 -0.0390145 0
0.0676726 -0.0401333 0
0.0683597 -0.0412172 0
0.0690246 -0.0422665 0
0.0696662 -0.0432819 0
0.0702841 -0.0442636 0
0.0708793 -0.0452111 0
0.0714538 -0.0461237 0
0.072009 -0.047001 0
0.0725452 -0.0478434 0
0.0730611 -0.0486524 0
0.073556 -0.0494294 0
0.0740291 -0.0501756 0
0.0744812 -0.0508916 0
0.0749138 -0.0515773 0
0.0753285 -0.0522331 0
0.0757266 -0.0528592 0
0.076109 -0.0534564 0
0.0764753 -0.0540264 0
0.0768243 -0.054571 0
0.0771553 -0.0550919 0
0.0774679 -0.0555901 0
0.0777617 -0.0560669 0
0.0780369 -0.056523 0
0.0782958 -0.0569578 0
0.0785421 -0.0573703 0
0.0787786 -0.0577603 0
0.0790073 -0.0581279 0
0.0792295 -0.058474 0
0.0794462 -0.0587995 0
0.0798803 -0.0594162 0
0.0800272 -0.0596588 0
0.0800357 -0.0598891 0
0.0799275 -0.0600784 0
0.0797205 -0.0601773 0
0.0794593 -0.0601051 0
0.0789155 -0.0596491 0
0.0786707 -0.0593963 0
0.0784111 -0.0591319 0
0.0781372 -0.0588542 0
0.0778566 -0.0585548 0
0.0775715 -0.0582308 0
0.0772803 -0.0578828 0
0.0769832 -0.0575099 0
0.0766822 -0.0571097 0
0.0763801 -0.0566796 0
0.0760759 -0.0562196 0
0.0757623 -0.0557337 0
0.0754359 -0.0552232 0
0.0750951 -0.0546879 0
0.0747379 -0.054128 0
0.0743626 -0.0535435 0
0.0739688 -0.0529338 0
0.0735559 -0.0522981 0
0.0731238 -0.0516357 0
0.0726718 -0.050946 0
0.0721991 -0.0502288 0
0.0717046 -0.049484 0
0.0711872 -0.0487117 0
0.0706461 -0.047912 0
0.0700804 -0.0470849 0
0.0694892 -0.0462308 0
0.0688718 -0.0453499 0
0.0682271 -0.0444431 0
0.0675544 -0.043511 0
0.0668527 -0.0425546 0
0.0661215 -0.0415748 0
0.06536 -0.040573 0
0.0645676 -0.0395504 0
0.0637439 -0.0385087 0
0.0628887 -0.0374493 0
0.062002 -0.0363741 0
0.0610838 -0.0352847 0
0.0601345 -0.0341831 0
0.0591547 -0.033071 0
0.0581456 -0.0319502 0
0.0571083 -0.0308224 0
0.0560444 -0.0296893 0
0.0549562 -0.028552 0
0.053845 -0.0274126 0
0.0527113 -0.0262746 0
0.051554 -0.0251427 0
0.0503724 -0.0240222 0
0.0491675 -0.0229164 0
0.047941 -0.0218282 0
0.0466955 -0.0207597 0
0.0454337 -0.0197126 0
0.0441592 -0.0186878 0
0.0428751 -0.0176863 0
0.0415841 -0.0167097 0
0.0402878 -0.0157609 0
0.0389879 -0.0148428 0
0.0376864 -0.0139575 0
0.0363853 -0.013107 0
0.0350871 -0.0122931 0
0.0337942 -0.0115164 0
0.0325095 -0.0107772 0
0.0312357 -0.0100756 0
0.0299758 -0.00941024 0
0.0287337 -0.00877784 0
0.0275126 -0.00817571 0
0.0263139 -0.00760375 0
0.0251376 -0.00706528 0
0.0239829 -0.0065649 0
0.0228537 -0.00609619 0
0.0217522 -0.00565563 0
0.0206795 -0.00524226 0
0.0196364 -0.00485507 0
0.0186233 -0.00449318 0
0.0176408 -0.00415577 0
0.016689 -0.00384204 0
0.0157682 -0.00355115 0
0.0148783 -0.00328218 0
0.0140192 -0.00303468 0
0.0131906 -0.00280795 0
0.0123925 -0.00260016 0
0.0116246 -0.00241012 0
0.0108864 -0.00223769 0
0.0101774 -0.00208212 0
0.00949701 -0.00194206 0
0.00884483 -0.0018163 0
0.0082202 -0.0017039 0
0.00762247 -0.00160391 0
0.00705097 -0.00151528 0
0.006505 -0.00143697 0
0.0059838 -0.00136806 0
0.00548662 -0.00130772 0
0.00501265 -0.00125519 0
0.00456114 -0.00120954 0
0.00413136 -0.00116914 0
0.00372257 -0.00113251 0
0.00333398 -0.00109853 0
0.00296466 -0.00106798 0
0.00261363 -0.0010431 0
-0.052721 -0.0445996 0
-0.0508204 -0.0440823 0
-0.0489199 -0.0435651 0
-0.0470193 -0.0430478 0
-0.0451187 -0.0425306 0
-0.0432181 -0.0420134 0
-0.0413175 -0.0414961 0
-0.039417 -0.0409789 0
-0.0375164 -0.0404616 0
-0.0356158 -0.0399444 0
-0.0337152 -0.0394271 0
-0.0318146 -0.0389099 0
-0.0299141 -0.0383927 0
-0.0280135 -0.0378754 0
-0.0261129 -0.0373582 0
-0.0242123 -0.0368409 0
-0.0223117 -0.0363237 0
-0.0204112 -0.0358065 0
-0.0185106 -0.0352892 0
-0.01661 -0.034772 0
-0.0147094 -0.0342547 0
-0.0128088 -0.0337375 0
-0.0109083 -0.0332202 0
-0.00900769 -0.032703 0
-0.00710711 -0.0321858 0
-0.00520653 -0.0316685 0
-0.00330595 -0.0311513 0
-0.00140537 -0.030634 0
0.00190689 -0.0299614 0
0.00332271 -0.0298498 0
0.00474133 -0.0297825 0
0.00616136 -0.0297597 0
0.0075814 -0.0297814 0
0.00900007 -0.0298477 0
0.010416 -0.0299583 0
0.0118278 -0.0301127 0
0.0132342 -0.0303103 0
0.0146339 -0.0305504 0
0.0160259 -0.0308322 0
0.0174091 -0.0311546 0
0.0187824 -0.0315166 0
0.020145 -0.031917 0
0.0214961 -0.0323546 0
0.0228351 -0.032828 0
0.0241613 -0.0333361 0
0.0254744 -0.0338774 0
0.0267738 -0.0344507 0
0.0280592 -0.0350545 0
0.0293306 -0.0356877 0
0.0305875 -0.0363488 0
0.0318301 -0.0370367 0
0.0330581 -0.0377501 0
0.0342717 -0.0384879 0
0.0354708 -0.0392489 0
0.0366556 -0.0400321 0
0.0378262 -0.0408363 0
0.0389828 -0.0416607 0
0.0401254 -0.0425042 0
0.0412543 -0.0433659 0
0.0423698 -0.0442451 0
0.043472 -0.0451408 0
0.0445612 -0.0460523 0
0.0456375 -0.0469789 0
0.0467013 -0.0479199 0
0.0477529 -0.0488746 0
0.0487923 -0.0498424 0
0.04982 -0.0508227 0
0.0508362 -0.051815 0
0.051841 -0.0528187 0
0.0528348 -0.0538333 0
0.0538178 -0.0548584 0
0.0547903 -0.0558935 0
0.0557524 -0.0569382 0
0.0567045 -0.0579922 0
0.0576467 -0.0590549 0
0.0585792 -0.0601261 0
0.0595024 -0.0612055 0
0.0604163 -0.0622926 0
0.0613212 -0.0633873 0
0.0622174 -0.0644891 0
0.0631049 -0.0655979 0
0.0639841 -0.0667134 0
0.064855 -0.0678353 0
0.0657179 -0.0689633 0
0.0665729 -0.0700974 0
0.0674202 -0.0712372 0
0.06826 -0.0723826 0
0.0690925 -0.0735333 0
0.0699178 -0.0746892 0
0.070736 -0.0758501 0
0.0715473 -0.0770159 0
0.0723518 -0.0781863 0
0.0731498 -0.0793612 0
0.0739412 -0.0805405 0
0.0747264 -0.081724 0
0.0755053 -0.0829116 0
0.0762781 -0.0841033 0
0.0770449 -0.0852987 0
0.0778059 -0.0864979 0
0.0785611 -0.0877007 0
0.0793108 -0.088907 0
0.0814681 -0.0912706 0
0.0828814 -0.0924245 0
0.0842946 -0.0935783 0
0.0857079 -0.0947322 0
0.0871211 -0.095886 0
0.0885344 -0.0970399 0
0.0899476 -0.0981937 0
0.0913609 -0.0993476 0
0.0927741 -0.100501 0
0.0941874 -0.101655 0
0.0956006 -0.102809 0
0.0970139 -0.103963 0
0.0984272 -0.105117 0
0.0998404 -0.106271 0
0.101254 -0.107424 0
0.102667 -0.108578 0
0.10408 -0.109732 0
0.105493 -0.110886 0
0.106907 -0.11204 0
0.10832 -0.113194 0
0.109733 -0.114348 0
0.111146 -0.115501 0
0.11256 -0.116655 0
0.113973 -0.117809 0
0.115386 -0.118963 0
0.116799 -0.120117 0
0.118213 -0.121271 0
0.119626 -0.122424 0
0.121039 -0.123578 0
0.122452 -0.124732 0
0.123866 -0.125886 0
0.125279 -0.12704 0
0.126692 -0.128194 0
0.128105 -0.129348 0
0.129519 -0.130501 0
0.130932 -0.131655 0
0.132345 -0.132809 0
0.133758 -0.133963 0
0.135172 -0.133216 0
0.135172 -0.131316 0
0.135172 -0.129415 0
0.135172 -0.127514 0
0.135172 -0.125614 0
0.135172 -0.123713 0
0.135172 -0.121813 0
0.135172 -0.119912 0
0.135172 -0.118012 0
0.135172 -0.116111 0
0.135172 -0.11421 0
0.135172 -0.11231 0
0.135172 -0.110409 0
0.135172 -0.108509 0
0.135172 -0.106608 0
0.135172 -0.104708 0
0.135172 -0.102807 0
0.135172 -0.100906 0
0.135172 -0.0990058 0
0.135172 -0.0971052 0
0.135172 -0.0952046 0
0.135172 -0.0933041 0
0.135172 -0.0914035 0
0.135172 -0.0895029 0
0.135172 -0.0876023 0
0.135172 -0.0857017 0
0.135172 -0.0838012 0
0.135172 -0.0819006 0
0.133758 -0.0788462 0
0.132345 -0.0776923 0
0.130932 -0.0765385 0
0.129519 -0.0753846 0
0.128105 -0.0742308 0
0.126692 -0.0730769 0
0.125279 -0.0719231 0
0.123866 -0.0707692 0
0.122452 -0.0696154 0
0.121039 -0.0684615 0
0.119626 -0.0673077 0
0.118213 -0.0661538 0
0.116799 -0.065 0
0.115386 -0.0638462 0
0.113973 -0.0626923 0
0.11256 -0.0615385 0
0.111146 -0.0603846 0
0.109733 -0.0592308 0
0.10832 -0.0580769 0
0.106907 -0.0569231 0
0.105493 -0.0557692 0
0.10408 -0.0546154 0
0.102667 -0.0534615 0
0.101254 -0.0523077 0
0.0998404 -0.0511538 0
0.0984272 -0.05 0
0.0970139 -0.0488462 0
0.0956006 -0.0476923 0
[...]
CELL_DATA 13116
SCALARS rho float
LOOKUP_TABLE default
0.511894
0.639603
0.319827
0.665525
0.663316
0.653951
0.33327
0.671469
0.475986
0.662282
0.332971
0.3394
0.663548
0.331095
0.319654
0.662265
0.495716
0.650555
0.683441
0.377082
0.511754
0.321492
0.322731
0.653277
0.553965
0.66006
0.662181
0.306285
0.543099
0.59637
0.563311
0.326608
0.501205
0.400976
0.3242
0.512353
0.621389
0.668829
0.594033
0.676568
0.688125
0.670648
0.39463
0.326437
0.680128
0.682538
0.632729
0.680903
0.322889
0.465801
0.67182
0.403093
0.337391
0.490086
0.500565
0.531993
0.327499
0.652108
0.477155
0.324067
0.329789
0.664472
0.635483
0.584279
0.565123
0.339259
0.68676
0.625726
0.683195
0.5671
0.318767
0.524487
0.319657
0.331254
0.562286
0.324123
0.610146
0.667695
0.354943
0.647321
0.636668
0.656617
0.654401
0.675557
0.666135
0.371292
0.351006
0.619498
0.664457
0.356043
0.325147
0.64133
0.656446
0.668006
0.602095
0.548915
0.556338
0.563235
0.56252
0.539192
0.627807
0.589707
0.688545
0.374711
0.631543
0.332177
0.305104
0.433482
0.313361
0.554441
0.461099
0.648684
0.546485
0.63853
0.648007
0.685155
0.341465
0.338356
0.670801
0.681109
0.625187
0.319195
0.682373
0.326162
0.666566
0.385768
0.349702
0.448286
0.318838
0.466389
0.671012
0.657428
0.430629
0.320319
0.410676
0.549655
0.561363
0.678159
0.626719
0.680941
0.595776
0.634906
0.448507
0.597966
0.622958
0.326963
0.32167
0.654368
0.66104
0.67353
0.476618
0.67631
0.681863
0.326043
0.660781
0.668238
0.31926
0.633879
0.563044
0.619194
0.652776
0.340767
0.654829
0.318704
0.316695
0.665954
0.664821
0.650067
0.327251
0.390661
0.358944
0.561371
0.321732
0.434774
0.686889
0.322003
0.321116
0.320161
0.646648
0.646404
0.380924
0.374659
0.48273
0.620711
0.653522
0.476447
0.347972
0.689922
0.632105
0.40537
0.59731
0.653399
0.567573
0.31408
0.647465
0.646476
0.658998
0.689179
0.663442
0.339899
0.374817
0.561368
0.443238
0.329221
0.660366
0.670337
0.410243
0.558694
0.326391
0.336742
0.33233
0.688705
0.316379
0.377558
0.356009
0.328833
0.323224
0.592274
0.665683
0.359527
0.327718
0.687471
0.455508
0.380273
0.484073
0.663426
0.620847
0.306387
0.687063
0.326947
0.671993
0.325923
0.566657
0.512118
0.562998
0.672401
0.57298
0.329166
0.382479
0.61804
0.562076
0.643571
0.56166
0.57305
0.672372
0.320672
0.674454
0.661877
0.56282
0.317675
0.323007
0.674181
0.672244
0.565075
0.671092
0.502046
0.638808
0.336976
0.337928
0.338963
0.326268
0.623613
0.658796
0.609306
0.359118
0.677683
0.346488
0.364875
0.632611
0.321727
0.657515
0.670337
0.561857
0.651952
0.327235
0.561813
0.641992
0.56291
0.678338
0.362709
0.356426
0.314964
0.546169
0.318024
0.322717
0.284632
0.332356
0.659086
0.332333
0.667792
0.666013
0.35941
0.3797
0.349025
0.390714
0.30875
0.618176
0.571293
0.641695
0.326501
0.688636
0.518101
0.348709
0.321372
0.609857
0.672984
0.689771
0.349222
0.655373
0.381496
0.65781
0.670142
0.674609
0.670313
0.313722
0.687774
0.32451
0.685019
0.663173
0.61677
0.373559
0.284615
0.662528
0.347952
0.646614
0.664665
0.313549
0.639915
0.654095
0.355588
0.677035
0.656372
0.32827
0.671389
0.36655
0.504438
0.671789
0.374428
0.634517
0.361329
0.651307
0.291602
0.5778
0.602613
0.659745
0.30737
0.30978
0.667621
0.321868
0.66228
0.636358
0.369444
0.561135
0.342494
0.321838
0.666209
0.486749
0.62501
0.355653
0.317566
0.674709
0.665782
0.323404
0.668961
0.336849
0.33293
0.682799
0.671923
0.432114
0.341864
0.677046
0.563306
0.661949
0.674601
0.655467
0.478173
0.303237
0.324565
0.382203
0.654189
0.38133
0.481376
0.317323
0.314537
0.305601
0.439723
0.12202
0.32348
0.667992
0.344323
0.65561
0.544409
0.685507
0.610163
0.673261
0.320915
0.358704
0.345428
0.308752
0.662647
0.542716
0.688139
0.544857
0.623801
0.571009
0.655469
0.583815
0.59391
0.655746
0.646555
0.63141
0.344218
0.415765
0.508746
0.319787
0.568683
0.531212
0.339898
0.686087
0.56194
0.314137
0.378229
0.366997
0.353256
0.569855
0.314788
0.314603
0.689553
0.339645
0.51334
0.360211
0.667015
0.641212
0.303927
0.320541
0.665407
0.3899
0.355126
0.351546
0.350961
0.312416
0.360291
0.377941
0.321367
0.365784
0.348787
0.58796
0.307928
0.666609
0.322207
0.327279
0.428754
0.327725
0.356076
0.327415
0.678698
0.37415
0.583771
0.439864
0.342575
0.561278
0.665703
0.370313
0.6393
0.574012
0.573925
0.360759
0.562821
0.337468
0.654521
0.562807
0.311724
0.328621
0.630165
0.308802
0.375374
0.604798
0.307097
0.632754
0.627363
0.379182
0.32059
0.321072
0.431308
0.323653
0.329959
0.319983
0.324679
0.666507
0.665361
0.396114
0.542143
0.41144
0.644967
0.311325
0.307224
0.479592
0.311757
0.665792
0.262236
0.319559
0.426157
0.678524
0.662764
0.493881
0.3131
0.329562
0.498123
0.671297
0.569912
0.494639
0.628542
0.621901
0.356613
0.640059
0.508015
0.616609
0.319976
0.31089
0.637502
0.658624
0.608681
0.663238
0.65841
0.662513
0.65168
0.615895
0.686201
0.370828
0.677624
0.287196
0.327374
0.371201
0.664861
0.67202
0.298706
0.665317
0.559784
0.372569
0.579141
0.673702
0.651563
0.305895
0.30729
0.66645
0.350742
0.346924
0.329636
0.359075
0.661896
0.328797
0.664699
0.308521
0.638473
0.672368
0.686078
0.664998
0.350663
0.381797
0.670648
0.671876
0.615796
0.666399
0.661541
0.420324
0.35634
0.310418
0.682818
0.474953
0.367897
0.389845
0.316684
0.67108
0.68904
0.322672
0.32202
0.664378
0.383128
0.669006
0.604918
0.318736
0.329127
0.612507
0.562079
0.316795
0.661576
0.664935
0.671067
0.315433
0.561584
0.327388
0.562991
0.615226
0.340579
0.322759
0.322399
0.56322
0.313337
0.352866
0.338892
0.584309
0.653802
0.354289
0.3363
0.359402
0.580785
0.318994
0.650831
0.327338
0.527973
0.663311
0.324295
0.318381
0.321257
0.421013
0.309195
0.660503
0.344687
0.311263
0.64546
0.322198
0.688539
0.642679
0.563152
0.366463
0.666792
0.656695
0.658879
0.685164
0.669587
0.683546
0.327187
0.566235
0.361831
0.66163
0.365737
0.672273
0.453264
0.327675
0.56411
0.659002
0.309446
0.584125
0.324854
0.318435
0.689421
0.678566
0.319997
0.32671
0.354001
0.327659
0.670603
0.653308
0.314113
0.377326
0.661562
0.6787
0.530364
0.656515
0.689873
0.340002
0.660106
0.364826
0.671939
0.343081
0.543428
0.408344
0.688622
0.626354
0.513395
0.304205
0.30774
0.687617
0.542106
0.490195
0.656055
0.325461
0.642659
0.660407
0.308444
0.413765
0.657498
0.312222
0.564673
0.619151
0.280418
0.678313
0.600339
0.320097
0.651138
0.314736
0.660751
0.331353
0.687889
0.634368
0.30852
0.592783
0.655269
0.664495
0.561829
0.645289
0.517651
0.325791
0.380246
0.327837
0.332487
0.560813
0.487319
0.681194
0.660839
0.377126
0.318217
0.650053
0.663548
0.664695
0.670581
0.374297
0.646531
0.662072
0.379001
0.296433
0.670046
0.675186
0.663269
0.330506
0.523962
0.300782
0.64932
0.643658
0.569737
0.650221
0.366528
0.65507
0.667335
0.655665
0.676635
0.685275
0.357471
0.655534
0.334721
0.609847
0.662286
0.390437
0.627928
0.572108
0.672754
0.380748
0.360221
0.51983
0.60059
0.35033
0.341265
0.325318
0.347027
0.63876
0.642012
0.572024
0.33212
0.344011
0.6835
0.633514
0.329194
0.318877
0.394922
0.623496
0.689156
0.67341
0.647524
0.340806
0.349768
0.561454
0.32618
0.378878
0.340934
0.683193
0.299488
0.35237
0.52491
0.666405
0.645622
0.621634
0.689029
0.34223
0.320855
0.337831
0.444341
0.373522
0.325243
0.624513
0.64618
0.656877
0.688433
0.329737
0.359287
0.663015
0.361797
0.682938
0.634819
0.563253
0.319782
0.349821
0.656843
0.563589
0.52915
0.32854
0.668569
0.632095
0.521216
0.673691
0.671451
0.561619
0.627178
0.374874
0.688301
0.564735
0.588611
0.648719
0.560804
0.64899
0.562077
0.679058
0.310646
0.31623
0.357668
0.564128
0.453908
0.359766
0.650714
0.660738
0.338378
0.590534
0.299626
0.598065
0.433981
0.326567
0.663966
0.652568
0.366845
0.480661
0.563618
0.324796
0.668057
0.335715
0.331201
0.567429
0.552092
0.428627
0.687835
0.328558
0.654898
0.318002
0.33199
0.687243
0.368234
0.552892
0.317356
0.590889
0.544492
0.561781
0.66359
0.323731
0.308699
0.598498
0.397536
0.663954
0.409435
0.541799
0.657735
0.655316
0.406699
0.551641
0.646568
0.659349
0.684699
0.293888
0.340099
0.472506
0.647316
0.659402
0.325066
0.688611
0.530675
0.344641
0.318628
0.618451
0.623713
0.561839
0.563083
0.602876
0.640952
0.597966
0.629986
0.320727
0.607583
0.393288
0.676881
0.675152
0.334352
0.671125
0.66478
0.318657
0.325709
0.350108
0.560842
0.344378
0.566194
0.653323
0.608606
0.34297
0.664923
0.328747
0.524507
0.582087
0.567701
0.622824
0.581033
0.56433
0.635504
0.474232
0.661317
0.329624
0.680064
0.686393
0.383665
0.562401
0.644688
0.313678
0.324813
0.322432
0.674447
0.343698
0.562294
0.338054
0.67172
0.327305
0.408689
0.324135
0.653887
0.670465
0.500168
0.320578
0.565378
0.602513
0.359048
0.530203
0.665114
0.326154
0.534627
0.563082
0.663318
0.68661
0.311966
0.430983
0.663782
0.683737
0.610295
0.348748
0.355304
0.670671
0.561303
0.562022
0.561254
0.504524
0.657655
0.499759
0.678469
0.349288
0.327521
0.561352
0.663176
0.593444
0.337623
0.683135
0.514737
0.555767
0.327573
0.351435
0.668533
0.668428
0.496299
0.305706
0.687752
0.562575
0.331187
0.554392
0.64723
0.328979
0.327828
0.323861
0.637238
0.321618
0.37046
0.675035
0.415562
0.659944
0.596418
0.328759
0.359895
0.66718
0.316198
0.313855
0.563693
0.336738
0.311863
0.538073
0.669151
0.664449
0.34265
0.299554
0.326021
0.643273
0.332683
0.665458
0.319205
0.652823
0.665672
0.677883
0.634741
0.651275
0.642283
0.68924
0.664988
0.668003
0.328977
0.330216
0.643352
0.600099
0.433419
0.638767
0.50156
0.59196
0.587519
0.303457
0.682847
0.664698
0.66313
0.315796
0.654871
0.312641
0.674153
0.423072
0.648246
0.687183
0.326271
0.660969
0.362346
0.393977
0.634948
0.337407
0.634686
0.560915
0.672097
0.346134
0.689429
0.341917
0.322412
0.313952
0.35634
0.587004
0.321659
0.59747
0.576595
0.307126
0.313791
0.414375
0.517346
0.582751
0.617001
0.367329
0.344503
0.325692
0.324204
0.326856
0.583808
0.652336
0.304188
0.578995
0.653189
0.323832
0.66429
0.632397
0.582228
0.31502
0.56283
0.64389
0.656713
0.67561
0.322666
0.663552
0.659061
0.655554
0.618101
0.639276
0.324367
0.313054
0.677912
0.469095
0.345787
0.685778
0.319167
0.504809
0.580823
0.659228
0.661867
0.322928
0.637578
0.338096
0.314626
0.641549
0.663824
0.659156
0.674366
0.614304
0.323334
0.664041
0.323173
0.432012
0.666113
0.5624
0.663944
0.316137
0.346917
0.662298
0.336954
0.666676
0.595691
0.370587
0.323584
0.681111
0.317881
0.687398
0.666164
0.614889
0.317642
0.316182
0.442792
0.468971
0.571936
0.415584
0.658189
0.618779
0.668921
0.560717
0.652401
0.338415
0.323561
0.66741
0.637796
0.605675
0.389486
0.329597
0.637065
0.322811
0.689555
0.556275
0.302505
0.662131
0.358332
0.666421
0.318369
0.660994
0.328888
0.669938
0.637625
0.336508
0.667192
0.599904
0.336453
0.570433
0.684557
0.501134
0.327528
0.318223
0.410892
0.65721
0.606624
0.314708
0.519686
0.654038
0.638624
0.343427
0.566152
0.653924
0.382209
0.65589
0.685787
0.332754
0.671629
0.563289
0.319972
0.548649
0.35851
0.598406
0.338503
0.331445
0.658212
0.362779
0.35842
0.323709
0.688136
0.645463
0.35156
0.68723
0.317464
0.628679
0.342852
0.647247
0.316268
0.662183
0.678236
0.607982
0.569454
0.483984
0.631453
0.57954
0.310811
0.583721
0.6109
0.459081
0.652162
0.42082
0.36883
0.663926
0.373267
0.512285
0.300136
0.688254
0.330783
0.314618
0.652391
0.6896
0.381619
0.678225
0.645686
0.560823
0.670986
0.563078
0.375308
0.664061
0.381576
0.317395
0.665862
0.648942
0.670949
0.666595
0.324418
0.338109
0.327181
0.642579
0.574191
0.317745
0.670531
0.339047
0.343248
0.32778
0.666045
0.342059
0.664186
0.667094
0.581707
0.677543
0.668171
0.524089
0.605592
0.36693
0.329141
0.381626
0.563071
0.56291
0.335426
0.583374
0.635756
0.605011
0.312279
0.382328
0.621221
0.246373
0.614828
0.573216
0.378796
0.604941
0.640586
0.354895
0.664515
0.315209
0.68198
0.660745
0.652478
0.322873
0.39525
0.633458
0.302529
0.367579
0.67969
0.307714
0.61433
0.68519
0.6565
0.645767
0.303336
0.564133
0.640935
0.684002
0.311042
0.672433
0.321153
0.328889
0.665691
0.688802
0.575186
0.209027
0.687639
0.581647
0.562234
0.343897
0.336839
0.351701
0.676547
0.332931
0.320861
0.320158
0.571725
0.317234
0.33343
0.370876
0.666622
0.369564
0.570062
0.588397
0.678197
0.349021
0.675795
0.606403
0.575005
0.353242
0.616049
0.320096
0.373622
0.689636
0.379291
0.582319
0.651236
0.56165
0.373273
0.282491
0.307225
0.494211
0.561596
0.205902
0.669216
0.688575
0.647437
0.34433
0.323495
0.295337
0.612266
0.363323
0.560736
0.547378
0.595625
0.672011
0.360891
0.585188
0.32655
0.568189
0.597619
0.663403
0.55404
0.459093
0.617559
0.608751
0.667427
0.358778
0.318821
0.338536
0.647628
0.479917
0.562431
0.373203
0.348064
0.654415
0.674991
0.566556
0.381841
0.677295
0.492406
0.497035
0.608573
0.311618
0.381834
0.330838
0.688881
0.574137
0.616562
0.643567
0.293564
0.672134
0.60984
0.575703
0.572743
0.672322
0.664589
0.642482
0.649175
0.658209
0.310533
0.677686
0.673723
0.66579
0.673689
0.68831
0.545075
0.375219
0.335222
0.594074
0.34875
0.303973
0.676266
0.317194
0.583908
0.684621
0.63971
0.664492
0.313823
0.675712
0.311404
0.33071
0.649941
0.658717
0.688402
0.34406
0.670213
0.687724
0.59971
0.689471
0.319999
0.654859
0.662427
0.638187
0.34093
0.651237
0.327029
0.66639
0.33544
0.373582
0.500129
0.38667
0.663848
0.653502
0.684114
0.321663
0.648041
0.353734
0.318049
0.657873
0.416206
0.35307
0.688672
0.33451
0.442342
0.622782
0.627468
0.659572
0.416914
0.534712
0.610163
0.678217
0.544283
0.659547
0.468808
0.673404
0.642288
0.601074
0.329837
0.352254
0.384022
0.67432
0.314121
0.617549
0.677466
0.55369
0.682156
0.48771
0.634974
0.631553
0.312428
0.678854
0.634224
0.466821
0.634501
0.663131
0.660878
0.61359
0.343886
0.31275
0.660894
0.483765
0.50346
0.678965
0.673238
0.686778
0.65868
0.660356
0.57328
0.618523
0.663167
0.321714
0.345695
0.329903
0.302719
0.561965
0.401019
0.496544
0.662322
0.636594
0.315014
0.664558
0.665025
0.344307
0.323582
0.562435
0.677062
0.309469
0.331876
0.329504
0.560702
0.659248
0.344595
0.336492
0.380144
0.333546
0.310405
0.344509
0.672417
0.679149
0.647047
0.352911
0.640964
0.562021
0.55202
0.325082
0.376937
0.657252
0.561403
0.356738
0.659275
0.357236
0.652515
0.311177
0.677534
0.366642
0.657665
0.668314
0.349065
0.498841
0.325943
0.66425
0.339227
0.567213
0.320817
0.452307
0.317756
0.559135
0.360414
0.567405
0.568869
0.550685
0.650264
0.324045
0.648399
0.601115
0.669304
0.559298
0.629338
0.377699
0.378358
0.337766
0.656674
0.256869
0.664627
0.484696
0.648431
0.663504
0.427615
0.656066
0.318847
0.332995
0.320499
0.453777
0.50286
0.671658
0.333339
0.322552
0.68362
0.321378
0.319737
0.530393
0.325718
0.354186
0.334887
0.670599
0.604257
0.571203
0.32492
0.64486
0.687866
0.330857
0.276155
0.667728
0.686987
0.566958
0.446797
0.345544
0.309774
0.333504
0.6706
0.594507
0.473566
0.639388
0.325799
0.520838
0.355923
0.564698
0.666009
0.379329
0.336852
0.600108
0.525591
0.665799
0.658616
0.658232
0.6761
0.665376
0.333254
0.32014
0.335793
0.363921
0.506837
0.562933
0.606029
0.371186
0.374091
0.407238
0.327928
0.686327
0.625503
0.354895
0.324144
0.685131
0.317257
0.609229
0.655726
0.645603
0.640084
0.513961
0.347327
0.358884
0.616064
0.379273
0.38662
0.346108
0.603698
0.682731
0.343143
0.37823
0.561215
0.360889
0.688681
0.656728
0.36383
0.318652
0.331201
0.684215
0.339198
0.560868
0.648088
0.555823
0.333346
0.46458
0.666505
0.666463
0.343855
0.660412
0.594291
0.330629
0.669447
0.671843
0.319095
0.355504
0.656168
0.340071
0.36726
0.652444
0.293348
0.678398
0.634816
0.655427
0.596032
0.662982
0.686256
0.617835
0.331116
0.347902
0.610313
0.661183
0.394921
0.664156
0.308336
0.679664
0.660986
0.517081
0.603163
0.378572
0.39337
0.665828
0.662783
0.640681
0.668707
0.688004
0.56197
0.67164
0.560984
0.669371
0.659159
0.672013
0.561536
0.631528
0.323927
0.657654
0.310918
0.681627
0.678162
0.651695
0.64052
0.644565
0.316495
0.317699
0.297225
0.344948
0.642298
0.37122
0.311942
0.63889
0.331092
0.648453
0.329355
0.654017
0.664481
0.363644
0.32492
0.302561
0.675904
0.32444
0.671604
0.660201
0.307109
0.656029
0.495856
0.307875
0.308149
0.331681
0.642866
0.353383
0.678712
0.484742
0.326594
0.686543
0.688097
0.657944
0.35722
0.527287
0.321421
0.64237
0.622577
0.684657
0.34557
0.659792
0.678652
0.642943
0.357898
0.675857
0.349119
0.354266
0.673448
0.396304
0.661716
0.372677
0.349075
0.375493
0.644325
0.311989
0.330064
0.327894
0.440852
0.562763
0.663004
0.329683
0.555989
0.686636
0.4942
0.394222
0.29974
0.498018
0.342202
0.364756
0.675311
0.354861
0.36061
0.673869
0.666288
0.34088
0.649163
0.323437
0.562225
0.304038
0.659732
0.565973
0.645947
0.602279
0.320133
0.357108
0.318331
0.642145
0.658391
0.532089
0.485477
0.317638
0.268057
0.671204
0.330117
0.678648
0.324106
0.567786
0.627283
0.356723
0.32148
0.362082
0.376947
0.318766
0.601236
0.642345
0.36741
0.675611
0.592269
0.326624
0.321685
0.665068
0.354309
0.667574
0.360956
0.646256
0.609278
0.676601
0.563141
0.314889
0.660529
0.680863
0.670165
0.358179
0.607319
0.541112
0.302828
0.674778
0.606226
0.673673
0.647337
0.665049
0.671867
0.670124
0.672687
0.684857
0.371904
0.656411
0.364334
0.414555
0.679384
0.318854
0.661562
0.621235
0.322563
0.641813
0.358365
0.325281
0.667851
0.609142
0.666443
0.33022
0.64794
0.567675
0.303779
0.360551
0.663874
0.688564
0.325506
0.325889
0.65183
0.665524
0.347021
0.597198
0.667036
0.606444
0.347915
0.351528
0.32285
0.610505
0.327425
0.660664
0.64722
0.676942
0.564585
0.667343
0.331345
0.663398
0.561708
0.668304
0.552787
0.312135
0.334432
0.329048
0.653533
0.66227
0.358461
0.607219
0.30048
0.609847
0.681881
0.325975
0.591935
0.661891
0.576901
0.358141
0.35961
0.302792
0.66644
0.661795
0.565343
0.446443
0.672694
0.358424
0.586776
0.56199
0.659023
0.351328
0.572427
0.322616
0.629438
0.331635
0.66804
0.667781
0.325118
0.66877
0.398454
0.561403
0.597895
0.560707
0.675079
0.377225
0.665958
0.68832
0.684367
0.66915
0.408901
0.561947
0.329518
0.688318
0.327716
0.381992
0.326968
0.31916
0.34567
0.356672
0.666602
0.310452
0.320252
0.615622
0.668515
0.64444
0.347739
0.641613
0.638395
0.630891
0.335386
0.556529
0.686563
0.317725
0.323519
0.351502
0.582086
0.438991
0.366579
0.553996
0.32995
0.563265
0.431902
0.345294
0.404596
0.604207
0.304018
0.688881
0.324558
0.450287
0.323681
0.671207
0.33608
0.612789
0.562069
0.628104
0.39191
0.371439
0.67017
0.665097
0.322577
0.322356
0.649966
0.381544
0.650719
0.352868
0.497909
0.328808
0.68658
0.319763
0.66607
0.382974
0.681344
0.670003
0.663837
0.562129
0.329002
0.318289
0.344984
0.661185
0.6379
0.643414
0.507421
0.320565
0.655014
0.3012
0.656699
0.596877
0.369342
0.324357
0.656069
0.669999
0.32194
0.56343
0.671272
0.657622
0.655539
0.324963
0.589191
0.36209
0.6587
0.328868
0.58304
0.654995
0.6696
0.667015
0.326772
0.666834
0.363148
0.31437
0.689255
0.562223
0.497554
0.663602
0.56188
0.357039
0.651285
0.67053
0.67087
0.321576
0.374032
0.636628
0.368941
0.678534
0.67639
0.663982
0.671944
0.253954
0.403467
0.602092
0.323275
0.661849
0.664487
0.4245
0.666228
0.33717
0.616301
0.651604
0.630658
0.667033
0.357184
0.3135
0.670901
0.658579
0.320312
0.318711
0.320633
0.319548
0.320563
0.32939
0.307523
0.347037
0.668828
0.327009
0.347628
0.650865
0.496711
0.561324
0.346117
0.376174
0.68526
0.415324
0.446183
0.660868
0.32568
0.612219
0.571962
0.554959
0.647439
0.327241
0.663769
0.589052
0.311129
0.351765
0.369889
0.619377
0.555295
0.664465
0.667212
0.659314
0.649395
0.319568
0.667837
0.600189
0.666291
0.371553
0.685192
0.575869
0.315217
0.374084
0.334035
0.32386
0.323394
0.542122
0.624083
0.643961
0.364919
0.331146
0.667782
0.337305
0.657791
0.688152
0.663454
0.630896
0.67502
0.317631
0.323043
0.328684
0.522972
0.328172
0.682473
0.329754
0.689551
0.651292
0.678059
0.30627
0.401321
0.37243
0.669273
0.324617
0.35061
0.675324
0.648074
0.585356
0.660862
0.66362
0.650323
0.341321
0.571167
0.661315
0.464031
0.668697
0.657355
0.652818
0.382683
0.359833
0.670681
0.428074
0.572031
0.356203
0.629355
0.666491
0.341026
0.325647
0.639018
0.451544
0.662006
0.657081
0.351164
0.379809
0.563374
0.375026
0.354543
0.669579
0.663764
0.324278
0.672069
0.563275
0.640389
0.340158
0.542913
0.344958
0.672907
0.666307
0.650537
0.640092
0.564082
0.333067
0.312098
0.651364
0.362056
0.552261
0.325547
0.675376
0.328394
0.604065
0.660732
0.56354
0.345521
0.560816
0.562555
0.35733
0.628247
0.332711
0.670163
0.352334
0.360934
0.328481
0.640658
0.679348
0.278657
0.316737
0.655312
0.665482
0.399566