# vtk DataFile Version 1.0
unstructured grid
ascii
DATASET UNSTRUCTURED_GRID
points 13672 float
0.0796578 -0.059106 0
0.00128732 0.00159165 0
0.00227961 -0.00102548 0
0.0791586 -0.0598787 0
-0.0546216 0.01 0
0.000495206 0.025 0
0.0800549 -0.035 0
0.135172 -0.08 0
-0.0546216 -0.0451168 0
0.000495206 -0.0301168 0
0.0800549 -0.0901168 0
0.135172 -0.135117 0
-0.0546216 -0.0451168 -0.00551168
0.000495206 -0.0301168 -0.00551168
0.0800549 -0.0901168 -0.00551168
0.135172 -0.135117 -0.00551168
0.135172 -0.08 -0.00551168
0.0800549 -0.035 -0.00551168
0.000495206 0.025 -0.00551168
-0.0546216 0.01 -0.00551168
0.00128732 0.00159165 -0.00551168
0.00227961 -0.00102548 -0.00551168
0.0791586 -0.0598787 -0.00551168
0.0796578 -0.059106 -0.00551168
0.00165953 -0.000990923 0
0.00119576 -0.000874076 0
0.000866021 -0.000641801 0
0.000645147 -0.000349912 0
0.00052235 -1.7281e-05 0
0.00049972 0.000348016 0
0.000601632 0.000737716 0
0.000861774 0.0011403 0
0.00157235 0.00183217 0
0.00188647 0.00206725 0
0.00222612 0.00230203 0
0.00258713 0.00254351 0
0.00296826 0.00279524 0
0.00337118 0.00305664 0
0.00379785 0.00332658 0
0.00425045 0.00360349 0
0.00473139 0.00388521 0
0.0052432 0.00416895 0
0.0057881 0.00445204 0
0.00636753 0.00473281 0
0.00698281 0.00500961 0
0.00763526 0.00528058 0
0.00832616 0.00554366 0
0.00905691 0.00579603 0
0.00982918 0.00603333 0
0.0106445 0.00625033 0
0.0115038 0.00644128 0
0.0124073 0.00660297 0
0.0133543 0.00673414 0
0.0143444 0.00683382 0
0.0153769 0.00690031 0
0.0164512 0.00693173 0
0.0175666 0.00692547 0
0.0187219 0.00687822 0
0.0199156 0.00678477 0
0.0211454 0.00663864 0
0.0224084 0.00643275 0
0.0237018 0.00616676 0
0.0250249 0.00584739 0
0.026375 0.00547298 0
0.0277479 0.00503752 0
0.0291386 0.00453545 0
0.0305433 0.0039653 0
0.0319572 0.0033256 0
0.0333681 0.00260019 0
0.034775 0.00179799 0
0.0361793 0.000930615 0
0.0375798 3.12222e-06 0
0.0389689 -0.000988429 0
0.0403357 -0.00205109 0
0.041675 -0.00318283 0
0.0429849 -0.00437751 0
0.0442643 -0.00562904 0
0.0455126 -0.00693089 0
0.0467314 -0.00827518 0
0.0479204 -0.00965638 0
0.0490661 -0.0110799 0
0.0501515 -0.0125519 0
0.0511696 -0.0140695 0
0.0521492 -0.0156071 0
0.0531202 -0.0171411 0
0.0540851 -0.0186663 0
0.0550431 -0.0201798 0
0.0559923 -0.0216793 0
0.0569311 -0.0231626 0
0.0578582 -0.0246273 0
0.0587723 -0.0260715 0
0.0596721 -0.027493 0
0.0605563 -0.02889 0
0.0614241 -0.0302609 0
0.0622742 -0.0316042 0
0.063106 -0.0329183 0
0.0639186 -0.034202 0
0.0647113 -0.0354543 0
0.0654835 -0.0366743 0
0.0662345 -0.0378613 0
0.0669642 -0.0390145 0
0.0676726 -0.0401333 0
0.0683597 -0.0412172 0
0.0690246 -0.0422665 0
0.0696662 -0.0432819 0
0.0702841 -0.0442636 0
0.0708793 -0.0452111 0
0.0714538 -0.0461237 0
0.072009 -0.047001 0
0.0725452 -0.0478434 0
0.0730611 -0.0486524 0
0.073556 -0.0494294 0
0.0740291 -0.0501756 0
0.0744812 -0.0508916 0
0.0749138 -0.0515773 0
0.0753285 -0.0522331 0
0.0757266 -0.0528592 0
0.076109 -0.0534564 0
0.0764753 -0.0540264 0
0.0768243 -0.054571 0
0.0771553 -0.0550919 0
0.0774679 -0.0555901 0
0.0777617 -0.0560669 0
0.0780369 -0.056523 0
0.0782958 -0.0569578 0
0.0785421 -0.0573703 0
0.0787786 -0.0577603 0
0.0790073 -0.0581279 0
0.0792295 -0.058474 0
0.0794462 -0.0587995 0
0.0798803 -0.0594162 0
0.0800272 -0.0596588 0
0.0800357 -0.0598891 0
0.0799275 -0.0600784 0
0.0797205 -0.0601773 0
0.0794593 -0.0601051 0
0.0789155 -0.0596491 0
0.0786707 -0.0593963 0
0.0784111 -0.0591319 0
0.0781372 -0.0588542 0
0.0778566 -0.0585548 0
0.0775715 -0.0582308 0
0.0772803 -0.0578828 0
0.0769832 -0.0575099 0
0.0766822 -0.0571097 0
0.0763801 -0.0566796 0
0.0760759 -0.0562196 0
0.0757623 -0.0557337 0
0.0754359 -0.0552232 0
0.0750951 -0.0546879 0
0.0747379 -0.054128 0
0.0743626 -0.0535435 0
0.0739688 -0.0529338 0
0.0735559 -0.0522981 0
0.0731238 -0.0516357 0
0.0726718 -0.050946 0
0.0721991 -0.0502288 0
0.0717046 -0.049484 0
0.0711872 -0.0487117 0
0.0706461 -0.047912 0
0.0700804 -0.0470849 0
0.0694892 -0.0462308 0
0.0688718 -0.0453499 0
0.0682271 -0.0444431 0
0.0675544 -0.043511 0
0.0668527 -0.0425546 0
0.0661215 -0.0415748 0
0.06536 -0.040573 0
0.0645676 -0.0395504 0
0.0637439 -0.0385087 0
0.0628887 -0.0374493 0
0.062002 -0.0363741 0
0.0610838 -0.0352847 0
0.0601345 -0.0341831 0
0.0591547 -0.033071 0
0.0581456 -0.0319502 0
0.0571083 -0.0308224 0
0.0560444 -0.0296893 0
0.0549562 -0.028552 0
0.053845 -0.0274126 0
0.0527113 -0.0262746 0
0.051554 -0.0251427 0
0.0503724 -0.0240222 0
0.0491675 -0.0229164 0
0.047941 -0.0218282 0
0.0466955 -0.0207597 0
0.0454337 -0.0197126 0
0.0441592 -0.0186878 0
0.0428751 -0.0176863 0
0.0415841 -0.0167097 0
0.0402878 -0.0157609 0
0.0389879 -0.0148428 0
0.0376864 -0.0139575 0
0.0363853 -0.013107 0
0.0350871 -0.0122931 0
0.0337942 -0.0115164 0
0.0325095 -0.0107772 0
0.0312357 -0.0100756 0
0.0299758 -0.00941024 0
0.0287337 -0.00877784 0
0.0275126 -0.00817571 0
0.0263139 -0.00760375 0
0.0251376 -0.00706528 0
0.0239829 -0.0065649 0
0.0228537 -0.00609619 0
0.0217522 -0.00565563 0
0.0206795 -0.00524226 0
0.0196364 -0.00485507 0
0.0186233 -0.00449318 0
0.0176408 -0.00415577 0
0.016689 -0.00384204 0
0.0157682 -0.00355115 0
0.0148783 -0.00328218 0
0.0140192 -0.00303468 0
0.0131906 -0.00280795 0
0.0123925 -0.00260016 0
0.0116246 -0.00241012 0
0.0108864 -0.00223769 0
0.0101774 -0.00208212 0
0.00949701 -0.00194206 0
0.00884483 -0.0018163 0
0.0082202 -0.0017039 0
0.00762247 -0.00160391 0
0.00705097 -0.00151528 0
0.006505 -0.00143697 0
0.0059838 -0.00136806 0
0.00548662 -0.00130772 0
0.00501265 -0.00125519 0
0.00456114 -0.00120954 0
0.00413136 -0.00116914 0
0.00372257 -0.00113251 0
0.00333398 -0.00109853 0
0.00296466 -0.00106798 0
0.00261363 -0.0010431 0
-0.052721 -0.0445996 0
-0.0508204 -0.0440823 0
-0.0489199 -0.0435651 0
-0.0470193 -0.0430478 0
-0.0451187 -0.0425306 0
-0.0432181 -0.0420134 0
-0.0413175 -0.0414961 0
-0.039417 -0.0409789 0
-0.0375164 -0.0404616 0
-0.0356158 -0.0399444 0
-0.0337152 -0.0394271 0
-0.0318146 -0.0389099 0
-0.0299141 -0.0383927 0
-0.0280135 -0.0378754 0
-0.0261129 -0.0373582 0
-0.0242123 -0.0368409 0
-0.0223117 -0.0363237 0
-0.0204112 -0.0358065 0
-0.0185106 -0.0352892 0
-0.01661 -0.034772 0
-0.0147094 -0.0342547 0
-0.0128088 -0.0337375 0
-0.0109083 -0.0332202 0
-0.00900769 -0.032703 0
-0.00710711 -0.0321858 0
-0.00520653 -0.0316685 0
-0.00330595 -0.0311513 0
-0.00140537 -0.030634 0
0.00190689 -0.0299614 0
0.00332271 -0.0298498 0
0.00474133 -0.0297825 0
0.00616136 -0.0297597 0
0.0075814 -0.0297814 0
0.00900007 -0.0298477 0
0.010416 -0.0299583 0
0.0118278 -0.0301127 0
0.0132342 -0.0303103 0
0.0146339 -0.0305504 0
0.0160259 -0.0308322 0
0.0174091 -0.0311546 0
0.0187824 -0.0315166 0
0.020145 -0.031917 0
0.0214961 -0.0323546 0
0.0228351 -0.032828 0
0.0241613 -0.0333361 0
0.0254744 -0.0338774 0
0.0267738 -0.0344507 0
0.0280592 -0.0350545 0
0.0293306 -0.0356877 0
0.0305875 -0.0363488 0
0.0318301 -0.0370367 0
0.0330581 -0.0377501 0
0.0342717 -0.0384879 0
0.0354708 -0.0392489 0
0.0366556 -0.0400321 0
0.0378262 -0.0408363 0
0.0389828 -0.0416607 0
0.0401254 -0.0425042 0
0.0412543 -0.0433659 0
0.0423698 -0.0442451 0
0.043472 -0.0451408 0
0.0445612 -0.0460523 0
0.0456375 -0.0469789 0
0.0467013 -0.0479199 0
0.0477529 -0.0488746 0
0.0487923 -0.0498424 0
0.04982 -0.0508227 0
0.0508362 -0.051815 0
0.051841 -0.0528187 0
0.0528348 -0.0538333 0
0.0538178 -0.0548584 0
0.0547903 -0.0558935 0
0.0557524 -0.0569382 0
0.0567045 -0.0579922 0
0.0576467 -0.0590549 0
0.0585792 -0.0601261 0
0.0595024 -0.0612055 0
0.0604163 -0.0622926 0
0.0613212 -0.0633873 0
0.0622174 -0.0644891 0
0.0631049 -0.0655979 0
0.0639841 -0.0667134 0
0.064855 -0.0678353 0
0.0657179 -0.0689633 0
0.0665729 -0.0700974 0
0.0674202 -0.0712372 0
0.06826 -0.0723826 0
0.0690925 -0.0735333 0
0.0699178 -0.0746892 0
0.070736 -0.0758501 0
0.0715473 -0.0770159 0
0.0723518 -0.0781863 0
0.0731498 -0.0793612 0
0.0739412 -0.0805405 0
0.0747264 -0.081724 0
0.0755053 -0.0829116 0
0.0762781 -0.0841033 0
0.0770449 -0.0852987 0
0.0778059 -0.0864979 0
0.0785611 -0.0877007 0
0.0793108 -0.088907 0
0.0814681 -0.0912706 0
0.0828814 -0.0924245 0
0.0842946 -0.0935783 0
0.0857079 -0.0947322 0
0.0871211 -0.095886 0
0.0885344 -0.0970399 0
0.0899476 -0.0981937 0
0.0913609 -0.0993476 0
0.0927741 -0.100501 0
0.0941874 -0.101655 0
0.0956006 -0.102809 0
0.0970139 -0.103963 0
0.0984272 -0.105117 0
0.0998404 -0.106271 0
0.101254 -0.107424 0
0.102667 -0.108578 0
0.10408 -0.109732 0
0.105493 -0.110886 0
0.106907 -0.11204 0
0.10832 -0.113194 0
0.109733 -0.114348 0
0.111146 -0.115501 0
0.11256 -0.116655 0
0.113973 -0.117809 0
0.115386 -0.118963 0
0.116799 -0.120117 0
0.118213 -0.121271 0
0.119626 -0.122424 0
0.121039 -0.123578 0
0.122452 -0.124732 0
0.123866 -0.125886 0
0.125279 -0.12704 0
0.126692 -0.128194 0
0.128105 -0.129348 0
0.129519 -0.130501 0
0.130932 -0.131655 0
0.132345 -0.132809 0
0.133758 -0.133963 0
0.135172 -0.133216 0
0.135172 -0.131316 0
0.135172 -0.129415 0
0.135172 -0.127514 0
0.135172 -0.125614 0
0.135172 -0.123713 0
0.135172 -0.121813 0
0.135172 -0.119912 0
0.135172 -0.118012 0
0.135172 -0.116111 0
0.135172 -0.11421 0
0.135172 -0.11231 0
0.135172 -0.110409 0
0.135172 -0.108509 0
0.135172 -0.106608 0
0.135172 -0.104708 0
0.135172 -0.102807 0
0.135172 -0.100906 0
0.135172 -0.0990058 0
0.135172 -0.0971052 0
0.135172 -0.0952046 0
0.135172 -0.0933041 0
0.135172 -0.0914035 0
0.135172 -0.0895029 0
0.135172 -0.0876023 0
0.135172 -0.0857017 0
0.135172 -0.0838012 0
0.135172 -0.0819006 0
0.133758 -0.0788462 0
0.132345 -0.0776923 0
0.130932 -0.0765385 0
0.129519 -0.0753846 0
0.128105 -0.0742308 0
0.126692 -0.0730769 0
0.125279 -0.0719231 0
0.123866 -0.0707692 0
0.122452 -0.0696154 0
0.121039 -0.0684615 0
0.119626 -0.0673077 0
0.118213 -0.0661538 0
0.116799 -0.065 0
0.115386 -0.0638462 0
0.113973 -0.0626923 0
0.11256 -0.0615385 0
0.111146 -0.0603846 0
0.109733 -0.0592308 0
0.10832 -0.0580769 0
0.106907 -0.0569231 0
0.105493 -0.0557692 0
0.10408 -0.0546154 0
0.102667 -0.0534615 0
0.101254 -0.0523077 0
0.0998404 -0.0511538 0
0.0984272 -0.05 0
0.0970139 -0.0488462 0
0.0956006 -0.0476923 0
[...]
CELL_DATA 13116
SCALARS rho float
LOOKUP_TABLE default
0.427591
0.514273
0.286684
0.553527
0.544361
0.535489
0.337018
0.546928
0.409273
0.54778
0.341864
0.29192
0.544606
0.312574
0.322614
0.535484
0.404337
0.539791
0.532031
0.309849
0.431037
0.317009
0.314129
0.541421
0.4722
0.494304
0.547799
0.31345
0.470655
0.500847
0.536272
0.306543
0.431032
0.346424
0.334337
0.429443
0.515811
0.526652
0.535859
0.533241
0.53391
0.549572
0.331039
0.287955
0.530692
0.531818
0.497468
0.534116
0.323956
0.405611
0.543712
0.343179
0.308607
0.398991
0.430006
0.453991
0.291176
0.538954
0.415876
0.322255
0.31412
0.549298
0.507189
0.535908
0.536234
0.315351
0.535789
0.520738
0.536244
0.536171
0.322432
0.454657
0.31284
0.313381
0.536495
0.30463
0.500284
0.540862
0.330482
0.537345
0.526147
0.499292
0.54163
0.53342
0.52279
0.347711
0.312534
0.518256
0.518312
0.329667
0.298029
0.515636
0.543664
0.522033
0.50345
0.464439
0.474124
0.536477
0.536401
0.463855
0.525524
0.460544
0.533314
0.330047
0.484409
0.324392
0.279164
0.368006
0.314738
0.478612
0.390828
0.494862
0.462932
0.528707
0.537825
0.535763
0.312583
0.309533
0.538517
0.536348
0.520955
0.310036
0.536456
0.314353
0.517031
0.340701
0.312149
0.395067
0.311353
0.406837
0.538751
0.532095
0.3893
0.322977
0.373525
0.455069
0.537003
0.537957
0.524816
0.536132
0.487691
0.500064
0.393924
0.488471
0.502786
0.308236
0.333647
0.492808
0.542364
0.540699
0.42166
0.533069
0.534157
0.30926
0.545058
0.523925
0.313646
0.529919
0.536452
0.518422
0.54075
0.342726
0.540557
0.313927
0.305974
0.547849
0.515033
0.539414
0.335345
0.359568
0.327629
0.536938
0.325958
0.381851
0.53526
0.315058
0.319113
0.314443
0.491781
0.535292
0.304052
0.335752
0.407215
0.516054
0.535249
0.414162
0.294874
0.533668
0.474967
0.356978
0.494653
0.491212
0.536063
0.317226
0.48755
0.535533
0.545039
0.533197
0.517313
0.311873
0.330801
0.4827
0.390887
0.315303
0.538515
0.529627
0.350287
0.472337
0.327154
0.329964
0.302257
0.535456
0.313023
0.30798
0.331911
0.308473
0.294135
0.53551
0.51451
0.337451
0.291402
0.535724
0.386033
0.305539
0.431008
0.548431
0.500948
0.316652
0.535395
0.303663
0.552246
0.299998
0.536059
0.446631
0.536541
0.527703
0.536014
0.315393
0.335773
0.518283
0.536622
0.535506
0.536929
0.535813
0.541671
0.320015
0.540413
0.545801
0.536363
0.331229
0.324747
0.531062
0.538172
0.536134
0.535312
0.417019
0.53067
0.34245
0.324163
0.311949
0.32708
0.471269
0.544858
0.499304
0.311943
0.529288
0.307196
0.336124
0.486081
0.318072
0.495761
0.546437
0.536686
0.53872
0.3174
0.536698
0.530157
0.536352
0.537846
0.318835
0.314434
0.315533
0.451404
0.310351
0.320855
0.258648
0.253424
0.52165
0.31201
0.522801
0.545241
0.295815
0.300795
0.306843
0.351244
0.281483
0.517217
0.458165
0.490213
0.31836
0.535196
0.456355
0.322595
0.322748
0.535662
0.538187
0.533418
0.294652
0.53551
0.325532
0.531619
0.549553
0.539568
0.548754
0.317911
0.535486
0.327025
0.534688
0.54874
0.518762
0.3141
0.258395
0.546309
0.31441
0.5088
0.549249
0.280647
0.532577
0.541387
0.311183
0.529083
0.543567
0.309096
0.5399
0.349113
0.446796
0.530212
0.354294
0.530181
0.313021
0.539666
0.267246
0.535704
0.455265
0.545973
0.316382
0.280859
0.523876
0.313117
0.538034
0.479794
0.329561
0.537007
0.30269
0.3109
0.536551
0.431333
0.519659
0.314569
0.313481
0.540302
0.545051
0.334861
0.544376
0.314183
0.325484
0.535194
0.534137
0.359156
0.324231
0.537854
0.536268
0.535535
0.527927
0.538847
0.421909
0.252047
0.32689
0.300613
0.535579
0.302147
0.405659
0.285363
0.307455
0.276142
0.366544
0.109386
0.313462
0.524625
0.255149
0.541184
0.470436
0.533296
0.511938
0.540852
0.310755
0.313422
0.31795
0.259868
0.536121
0.459734
0.533513
0.470913
0.50404
0.481086
0.497909
0.483843
0.498712
0.537909
0.53689
0.535584
0.317623
0.356529
0.424478
0.316167
0.45523
0.452746
0.308288
0.535658
0.536685
0.318251
0.309947
0.331475
0.296573
0.490157
0.327114
0.317112
0.535512
0.313738
0.446436
0.335742
0.535042
0.526305
0.27875
0.321924
0.53612
0.352264
0.338971
0.295032
0.324464
0.314659
0.313912
0.31049
0.316572
0.336016
0.341009
0.457852
0.296935
0.522001
0.290778
0.34321
0.391512
0.310937
0.329538
0.308699
0.531404
0.34076
0.497728
0.370724
0.314043
0.474305
0.520126
0.34704
0.532232
0.482191
0.481216
0.310258
0.53652
0.308458
0.539466
0.536305
0.313001
0.327185
0.47379
0.262022
0.355396
0.457498
0.279056
0.529173
0.50514
0.295756
0.317098
0.326989
0.37841
0.321484
0.310028
0.324876
0.326985
0.550409
0.550977
0.355986
0.466274
0.372964
0.487428
0.284066
0.321353
0.41268
0.313017
0.532323
0.229061
0.291593
0.385952
0.530078
0.511501
0.436349
0.278826
0.327144
0.443385
0.547131
0.53613
0.440474
0.487754
0.470304
0.33717
0.525524
0.443177
0.517358
0.25045
0.283824
0.527959
0.545177
0.511068
0.548619
0.513492
0.493951
0.539823
0.517616
0.53334
0.321809
0.52982
0.263949
0.327201
0.311768
0.552559
0.530129
0.243713
0.522045
0.483614
0.315019
0.535813
0.537755
0.535053
0.313289
0.321651
0.539494
0.340888
0.311056
0.299975
0.335694
0.530401
0.311508
0.552621
0.297426
0.514654
0.542829
0.535809
0.545129
0.342326
0.296492
0.531238
0.553147
0.508702
0.550141
0.545563
0.387448
0.310267
0.314216
0.535219
0.410625
0.326631
0.352146
0.304178
0.53013
0.53386
0.250099
0.316707
0.520382
0.361976
0.525273
0.512629
0.310782
0.304456
0.505587
0.536685
0.314689
0.510727
0.51468
0.530772
0.311247
0.536875
0.299276
0.536567
0.51642
0.323215
0.29463
0.319318
0.536477
0.3119
0.317819
0.309961
0.53572
0.533762
0.322324
0.320384
0.333372
0.535862
0.312635
0.535455
0.308284
0.45761
0.548441
0.293329
0.314204
0.313983
0.387818
0.315988
0.502955
0.295363
0.322178
0.53524
0.32868
0.53544
0.505787
0.536512
0.31275
0.53289
0.542821
0.54477
0.535187
0.516891
0.535124
0.305865
0.536176
0.339294
0.528096
0.311419
0.542385
0.392745
0.334837
0.536192
0.540751
0.320163
0.485964
0.297275
0.322224
0.535514
0.531155
0.293814
0.307065
0.33038
0.310899
0.527218
0.541575
0.312524
0.294881
0.537963
0.537813
0.459106
0.542405
0.5341
0.343384
0.546091
0.332434
0.543605
0.313121
0.462512
0.375193
0.535446
0.520616
0.449743
0.276378
0.315663
0.532761
0.471023
0.403015
0.541991
0.326776
0.528979
0.54471
0.284031
0.354536
0.543275
0.279705
0.536113
0.519033
0.254749
0.536772
0.502088
0.298834
0.532653
0.31527
0.516246
0.296377
0.535442
0.505776
0.317914
0.535887
0.540959
0.539963
0.48458
0.527052
0.454761
0.316573
0.327493
0.287131
0.314615
0.537053
0.433431
0.536917
0.541869
0.312474
0.311117
0.530204
0.549125
0.536417
0.546451
0.309878
0.537013
0.545734
0.309286
0.298483
0.538614
0.531094
0.519544
0.31284
0.460945
0.289734
0.531875
0.504218
0.536092
0.520428
0.330971
0.527317
0.522735
0.542826
0.530117
0.534456
0.33586
0.538582
0.328921
0.486401
0.546807
0.359197
0.506254
0.536052
0.542448
0.317676
0.327608
0.455751
0.505871
0.336724
0.327581
0.3135
0.339169
0.51599
0.528627
0.535834
0.253031
0.34278
0.536127
0.528944
0.30789
0.312298
0.360681
0.515235
0.533236
0.527343
0.53541
0.330705
0.334862
0.536843
0.31192
0.303762
0.298145
0.534184
0.297376
0.337594
0.44807
0.529735
0.491874
0.535735
0.53391
0.314125
0.327246
0.31314
0.370933
0.340317
0.300019
0.51965
0.534925
0.516276
0.534612
0.320925
0.310555
0.548368
0.320287
0.534513
0.505433
0.536379
0.293761
0.323032
0.511868
0.536179
0.43725
0.308828
0.524548
0.535681
0.444749
0.540851
0.545749
0.536778
0.487902
0.31015
0.534059
0.536096
0.479203
0.532066
0.537101
0.49612
0.536843
0.537384
0.323053
0.314901
0.309924
0.536312
0.391912
0.323193
0.530129
0.53832
0.286514
0.491742
0.275036
0.495917
0.364862
0.323291
0.549457
0.54105
0.327008
0.430006
0.536275
0.313583
0.522356
0.315107
0.325185
0.477945
0.472271
0.39139
0.533101
0.312669
0.540464
0.319375
0.307275
0.535443
0.325784
0.467998
0.306968
0.49119
0.463684
0.536866
0.513407
0.327233
0.321191
0.475299
0.332789
0.536123
0.354494
0.458764
0.535308
0.542609
0.343561
0.476481
0.490526
0.545315
0.536089
0.26996
0.311203
0.422032
0.488803
0.545726
0.297499
0.533236
0.438712
0.317845
0.298079
0.519962
0.515845
0.536907
0.536493
0.46137
0.52947
0.535732
0.521585
0.307183
0.511193
0.358644
0.537285
0.530643
0.244311
0.494735
0.543382
0.315496
0.319663
0.311765
0.537096
0.343021
0.477691
0.536056
0.51232
0.292084
0.524213
0.314759
0.460549
0.535959
0.535906
0.518336
0.535854
0.480462
0.525179
0.407225
0.527697
0.294498
0.534494
0.535743
0.317966
0.536754
0.529831
0.314381
0.3268
0.312345
0.539929
0.337341
0.536673
0.309539
0.546245
0.327595
0.375678
0.31096
0.538996
0.5459
0.415389
0.210204
0.480469
0.535473
0.317105
0.45836
0.551309
0.299841
0.456053
0.53627
0.548149
0.534547
0.31142
0.365809
0.537355
0.532504
0.48755
0.330823
0.324283
0.526224
0.536945
0.536686
0.537006
0.426333
0.53243
0.422672
0.535654
0.331516
0.315087
0.536988
0.54348
0.535703
0.315423
0.534335
0.432625
0.465435
0.30257
0.325058
0.544638
0.554645
0.432698
0.257511
0.534028
0.536702
0.336874
0.474132
0.535229
0.336177
0.339529
0.327285
0.474226
0.315386
0.320744
0.528173
0.360823
0.545995
0.496397
0.335492
0.311279
0.549194
0.314546
0.326508
0.536181
0.322796
0.284742
0.458948
0.513157
0.532816
0.340985
0.249318
0.336945
0.50691
0.323887
0.533386
0.328188
0.530916
0.486521
0.52968
0.492816
0.52611
0.50256
0.533416
0.544802
0.535594
0.310722
0.320981
0.520226
0.535763
0.396341
0.483348
0.433982
0.535826
0.477898
0.278724
0.535915
0.550457
0.526545
0.328594
0.52791
0.293407
0.53329
0.390067
0.53772
0.535098
0.323564
0.535937
0.333633
0.332173
0.508062
0.297165
0.529714
0.537128
0.535903
0.297811
0.535493
0.339476
0.294045
0.306546
0.330269
0.472021
0.326659
0.490378
0.535973
0.260268
0.317323
0.382123
0.45301
0.490349
0.489269
0.314883
0.3161
0.335623
0.311004
0.208411
0.490081
0.498722
0.312441
0.535707
0.535665
0.327414
0.550403
0.52836
0.535947
0.326293
0.536502
0.525995
0.538901
0.53709
0.321018
0.533703
0.540367
0.528416
0.520549
0.535139
0.322079
0.311073
0.533392
0.420564
0.321808
0.535436
0.316221
0.446365
0.485451
0.514594
0.517648
0.296143
0.482029
0.311401
0.327661
0.533314
0.539542
0.54222
0.539983
0.509603
0.294272
0.545745
0.326656
0.395459
0.547426
0.536424
0.536998
0.330036
0.318144
0.546399
0.320982
0.53905
0.505287
0.334987
0.317462
0.535029
0.308832
0.535043
0.538642
0.507497
0.308397
0.315587
0.392211
0.402086
0.481134
0.366856
0.535015
0.489358
0.524173
0.537082
0.531547
0.321939
0.318123
0.540553
0.53515
0.484966
0.359414
0.315563
0.523236
0.327006
0.533922
0.480231
0.255119
0.535685
0.339153
0.5053
0.288574
0.543065
0.317497
0.532252
0.535386
0.269005
0.519189
0.505444
0.258481
0.535832
0.532011
0.432581
0.310353
0.290015
0.361578
0.543265
0.472575
0.308351
0.457432
0.533417
0.535303
0.284168
0.472726
0.519488
0.361717
0.535014
0.534748
0.235161
0.535586
0.536317
0.287467
0.463736
0.297593
0.49444
0.306598
0.326009
0.544825
0.327715
0.33262
0.327341
0.535648
0.512565
0.324074
0.533863
0.289244
0.514904
0.338996
0.515437
0.28664
0.535254
0.533728
0.501124
0.535949
0.432923
0.535427
0.535919
0.287536
0.49654
0.505039
0.379481
0.531067
0.38687
0.333112
0.545478
0.306606
0.445438
0.271735
0.533457
0.307496
0.317052
0.541102
0.533822
0.295442
0.536606
0.534944
0.537082
0.546107
0.53654
0.310446
0.549893
0.304897
0.313283
0.519154
0.536292
0.548903
0.522199
0.302967
0.306372
0.337594
0.515528
0.535966
0.28953
0.521538
0.315433
0.303694
0.304755
0.520718
0.312427
0.547036
0.535827
0.49563
0.530373
0.535036
0.445212
0.496099
0.34114
0.318899
0.295833
0.53654
0.536562
0.3154
0.489643
0.472089
0.497342
0.311915
0.313264
0.492285
0.218694
0.486974
0.463058
0.308149
0.53547
0.517379
0.317572
0.532326
0.327425
0.536788
0.546845
0.526541
0.327475
0.36901
0.528584
0.239864
0.348393
0.530631
0.249227
0.535384
0.536072
0.49548
0.535202
0.254604
0.536264
0.532811
0.532445
0.285242
0.541235
0.3179
0.310083
0.523744
0.533384
0.535808
0.185648
0.535244
0.496176
0.536511
0.315871
0.312579
0.340729
0.538944
0.337917
0.328512
0.299168
0.461382
0.328009
0.245808
0.34713
0.533424
0.313139
0.535911
0.535744
0.533121
0.29707
0.535144
0.509095
0.535728
0.32643
0.518856
0.332587
0.308251
0.535478
0.301131
0.486711
0.532319
0.536893
0.306273
0.258417
0.3205
0.439363
0.536967
0.1837
0.527277
0.535612
0.536188
0.336641
0.327283
0.270197
0.472035
0.33414
0.537164
0.474173
0.535665
0.527107
0.328058
0.487281
0.306248
0.440778
0.50671
0.548934
0.445194
0.375794
0.518717
0.487908
0.541258
0.30142
0.286301
0.306757
0.537251
0.415098
0.536428
0.309443
0.314398
0.538685
0.534885
0.53599
0.301106
0.533588
0.438016
0.44045
0.474536
0.315436
0.302338
0.235061
0.533365
0.536037
0.519381
0.485873
0.269623
0.536469
0.513968
0.536027
0.53578
0.536651
0.550251
0.535643
0.535389
0.541699
0.311841
0.536574
0.54064
0.534717
0.537445
0.533008
0.450438
0.313272
0.325265
0.48218
0.324339
0.257571
0.532847
0.324109
0.498524
0.535915
0.512545
0.527195
0.314085
0.534104
0.303493
0.31501
0.535606
0.53189
0.534707
0.294888
0.543683
0.533193
0.480606
0.533582
0.31729
0.534859
0.546728
0.51748
0.313397
0.539155
0.337105
0.554739
0.300905
0.314488
0.408895
0.351359
0.549329
0.539726
0.534635
0.300923
0.534974
0.325985
0.325167
0.508452
0.385229
0.329736
0.533824
0.314593
0.403282
0.519514
0.497049
0.517041
0.384271
0.467385
0.510893
0.535055
0.448558
0.542251
0.419456
0.547474
0.482669
0.504437
0.31979
0.339493
0.35069
0.539989
0.313757
0.517356
0.536794
0.469497
0.535048
0.406084
0.529103
0.522765
0.32903
0.536087
0.47853
0.383993
0.481244
0.546332
0.504214
0.535467
0.334373
0.322453
0.528627
0.417625
0.424566
0.537817
0.532895
0.53418
0.545241
0.54647
0.483321
0.487349
0.548885
0.327933
0.315455
0.30785
0.286736
0.536736
0.358317
0.419714
0.535448
0.52658
0.313593
0.527946
0.553795
0.295124
0.296368
0.536614
0.537742
0.315792
0.297033
0.301306
0.537121
0.493778
0.316842
0.327616
0.30794
0.324718
0.268556
0.323809
0.54999
0.533934
0.528631
0.304173
0.513432
0.472108
0.478316
0.292197
0.309673
0.506796
0.537019
0.336959
0.535114
0.317465
0.540839
0.312761
0.532525
0.294313
0.516942
0.545305
0.299697
0.441827
0.323643
0.550161
0.323325
0.475258
0.316236
0.395146
0.331369
0.468462
0.318095
0.535999
0.535999
0.476648
0.525263
0.281636
0.515762
0.53546
0.544388
0.470153
0.515618
0.309971
0.315589
0.314607
0.543662
0.228165
0.543098
0.428136
0.536049
0.548128
0.360207
0.53852
0.32413
0.314846
0.327458
0.398609
0.407758
0.532235
0.316749
0.32142
0.53545
0.29766
0.307686
0.433168
0.297834
0.338511
0.325883
0.55043
0.511277
0.478732
0.314933
0.5131
0.533379
0.32065
0.254113
0.523061
0.534246
0.443047
0.405872
0.323586
0.284469
0.309227
0.527884
0.478952
0.408477
0.531579
0.326304
0.444452
0.341021
0.53619
0.543213
0.310381
0.324239
0.484203
0.428089
0.544923
0.541724
0.543701
0.536781
0.547475
0.305485
0.315853
0.305527
0.317731
0.42169
0.536347
0.51261
0.313166
0.304537
0.351826
0.339616
0.534049
0.496125
0.332775
0.250449
0.535935
0.315204
0.509881
0.540116
0.509061
0.535095
0.430684
0.310731
0.295525
0.483058
0.31108
0.328864
0.319129
0.535554
0.532439
0.273648
0.308312
0.536932
0.315601
0.534582
0.543689
0.307043
0.31561
0.322072
0.535575
0.312292
0.537132
0.532465
0.470015
0.293178
0.416922
0.540268
0.525117
0.338841
0.522545
0.483722
0.349522
0.538033
0.551904
0.332268
0.324956
0.510972
0.319978
0.31238
0.518855
0.271889
0.532831
0.529379
0.542962
0.489065
0.543274
0.535913
0.535597
0.339041
0.322996
0.492718
0.530471
0.368779
0.550106
0.263332
0.5372
0.518304
0.445137
0.506153
0.315503
0.357596
0.528651
0.540849
0.480268
0.545569
0.535332
0.536742
0.545247
0.536997
0.518989
0.510418
0.533536
0.536984
0.535536
0.271129
0.501782
0.286905
0.534768
0.536722
0.53724
0.501488
0.534717
0.315424
0.315198
0.244442
0.339099
0.507297
0.298888
0.325044
0.527328
0.312655
0.534858
0.309876
0.519121
0.534101
0.326004
0.299907
0.251503
0.539273
0.313491
0.531677
0.535645
0.319713
0.504706
0.436422
0.266473
0.313975
0.314259
0.535203
0.325373
0.535298
0.403192
0.322236
0.532281
0.533836
0.543632
0.320311
0.44932
0.313643
0.514919
0.535642
0.535662
0.340547
0.529666
0.537916
0.49062
0.322545
0.539166
0.318003
0.338408
0.528832
0.354521
0.546923
0.338641
0.340184
0.348869
0.497224
0.312688
0.223281
0.29744
0.375738
0.536412
0.535357
0.309451
0.467273
0.53523
0.440317
0.328687
0.252944
0.438279
0.331765
0.331339
0.529938
0.336913
0.328372
0.54097
0.551797
0.29474
0.538654
0.307553
0.536659
0.312433
0.509559
0.53618
0.535742
0.535588
0.318127
0.340555
0.309898
0.535531
0.512365
0.465446
0.424205
0.291909
0.238927
0.534701
0.33976
0.533214
0.301008
0.536114
0.521866
0.29288
0.287326
0.333438
0.312905
0.287865
0.483286
0.509264
0.29465
0.53575
0.497519
0.316355
0.326634
0.551807
0.327938
0.533996
0.335954
0.535499
0.510748
0.535126
0.536369
0.323351
0.54654
0.533363
0.552481
0.329211
0.477371
0.470507
0.254879
0.540015
0.498478
0.543443
0.513919
0.547503
0.527562
0.54859
0.534605
0.532242
0.317781
0.542724
0.33258
0.358607
0.530401
0.311672
0.520747
0.477246
0.323254
0.491789
0.326877
0.298513
0.522416
0.469549
0.551387
0.337094
0.513724
0.484408
0.30607
0.300817
0.508317
0.533572
0.29771
0.302835
0.535463
0.551258
0.318993
0.501028
0.545971
0.513388
0.296489
0.317528
0.304599
0.511912
0.316118
0.523115
0.53719
0.534666
0.472465
0.534502
0.335675
0.518964
0.483996
0.545133
0.442843
0.313953
0.339223
0.325921
0.541342
0.536617
0.333844
0.509109
0.245847
0.50253
0.536254
0.327024
0.482702
0.523959
0.486295
0.302229
0.314139
0.280808
0.538358
0.546855
0.482486
0.40543
0.534815
0.337585
0.494986
0.53662
0.529778
0.302378
0.491831
0.322871
0.483026
0.325595
0.530182
0.522313
0.315255
0.53828
0.334585
0.537003
0.498778
0.537154
0.539104
0.328497
0.534842
0.53407
0.533229
0.53092
0.380632
0.536635
0.315177
0.534094
0.326082
0.30041
0.325643
0.287525
0.33698
0.298147
0.547855
0.287902
0.327909
0.512814
0.538616
0.511072
0.321002
0.531906
0.530939
0.535213
0.263448
0.453325
0.535729
0.308824
0.298179
0.342041
0.490528
0.400846
0.30695
0.458353
0.322028
0.536469
0.395322
0.310514
0.372152
0.50721
0.277384
0.533894
0.326598
0.370728
0.296624
0.530481
0.307448
0.508546
0.536575
0.465857
0.326729
0.317167
0.524773
0.550391
0.301522
0.294033
0.53531
0.302813
0.538789
0.305636
0.439694
0.325909
0.535867
0.31486
0.549307
0.298905
0.536032
0.535358
0.541515
0.536775
0.320079
0.31402
0.31808
0.496849
0.52664
0.496002
0.410122
0.321767
0.537406
0.256399
0.510398
0.458525
0.334603
0.321252
0.541121
0.530144
0.315277
0.536213
0.528158
0.541231
0.542975
0.326544
0.496957
0.33346
0.541409
0.313099
0.53573
0.50559
0.51063
0.549752
0.318039
0.55442
0.328009
0.325359
0.534573
0.536735
0.429629
0.529404
0.536731
0.329725
0.540207
0.527822
0.547177
0.29492
0.335954
0.528706
0.299895
0.537428
0.536381
0.522875
0.532927
0.226151
0.350666
0.506848
0.314711
0.518175
0.550907
0.370553
0.519747
0.213058
0.484696
0.540421
0.527044
0.519563
0.312812
0.318102
0.532385
0.521049
0.322912
0.262454
0.315529
0.314251
0.328239
0.321843
0.28016
0.322861
0.531772
0.327212
0.293786
0.534628
0.428167
0.536909
0.313276
0.307681
0.535469
0.366175
0.374525
0.545346
0.296535
0.515187
0.536063
0.478368
0.51707
0.31018
0.535682
0.53587
0.319639
0.340472
0.334035
0.474728
0.477812
0.547328
0.535439
0.530418
0.519797
0.285995
0.536699
0.535811
0.507223
0.315646
0.5361
0.451851
0.280533
0.340108
0.311754
0.310522
0.327791
0.462577
0.520489
0.5212
0.332035
0.305567
0.545929
0.275388
0.535577
0.533985
0.523135
0.527239
0.534699
0.309166
0.312585
0.318607
0.44378
0.319185
0.534356
0.30799
0.535374
0.53512
0.536344
0.288313
0.351302
0.327785
0.534968
0.304101
0.342797
0.532491
0.516888
0.484125
0.535429
0.503885
0.538412
0.311616
0.490222
0.543171
0.418176
0.534
0.536995
0.539519
0.361752
0.335708
0.548194
0.392247
0.478426
0.332804
0.502995
0.523596
0.312993
0.316839
0.513207
0.399924
0.541283
0.535498
0.322427
0.308697
0.5363
0.299204
0.326873
0.524916
0.50922
0.322317
0.527373
0.536436
0.502928
0.313027
0.463556
0.311926
0.527233
0.542997
0.538335
0.51888
0.536339
0.254402
0.285577
0.528402
0.326503
0.477963
0.323122
0.535556
0.309329
0.505257
0.54278
0.536402
0.34051
0.537128
0.536494
0.338595
0.503424
0.304319
0.55143
0.337775
0.294183
0.303361
0.524999
0.530168
0.254513
0.242513
0.493108
0.547093