# vtk DataFile Version 1.0
unstructured grid
ascii
DATASET UNSTRUCTURED_GRID
points 13672 float
0.0796578 -0.059106 0
0.00128732 0.00159165 0
0.00227961 -0.00102548 0
0.0791586 -0.0598787 0
-0.0546216 0.01 0
0.000495206 0.025 0
0.0800549 -0.035 0
0.135172 -0.08 0
-0.0546216 -0.0451168 0
0.000495206 -0.0301168 0
0.0800549 -0.0901168 0
0.135172 -0.135117 0
-0.0546216 -0.0451168 -0.00551168
0.000495206 -0.0301168 -0.00551168
0.0800549 -0.0901168 -0.00551168
0.135172 -0.135117 -0.00551168
0.135172 -0.08 -0.00551168
0.0800549 -0.035 -0.00551168
0.000495206 0.025 -0.00551168
-0.0546216 0.01 -0.00551168
0.00128732 0.00159165 -0.00551168
0.00227961 -0.00102548 -0.00551168
0.0791586 -0.0598787 -0.00551168
0.0796578 -0.059106 -0.00551168
0.00165953 -0.000990923 0
0.00119576 -0.000874076 0
0.000866021 -0.000641801 0
0.000645147 -0.000349912 0
0.00052235 -1.7281e-05 0
0.00049972 0.000348016 0
0.000601632 0.000737716 0
0.000861774 0.0011403 0
0.00157235 0.00183217 0
0.00188647 0.00206725 0
0.00222612 0.00230203 0
0.00258713 0.00254351 0
0.00296826 0.00279524 0
0.00337118 0.00305664 0
0.00379785 0.00332658 0
0.00425045 0.00360349 0
0.00473139 0.00388521 0
0.0052432 0.00416895 0
0.0057881 0.00445204 0
0.00636753 0.00473281 0
0.00698281 0.00500961 0
0.00763526 0.00528058 0
0.00832616 0.00554366 0
0.00905691 0.00579603 0
0.00982918 0.00603333 0
0.0106445 0.00625033 0
0.0115038 0.00644128 0
0.0124073 0.00660297 0
0.0133543 0.00673414 0
0.0143444 0.00683382 0
0.0153769 0.00690031 0
0.0164512 0.00693173 0
0.0175666 0.00692547 0
0.0187219 0.00687822 0
0.0199156 0.00678477 0
0.0211454 0.00663864 0
0.0224084 0.00643275 0
0.0237018 0.00616676 0
0.0250249 0.00584739 0
0.026375 0.00547298 0
0.0277479 0.00503752 0
0.0291386 0.00453545 0
0.0305433 0.0039653 0
0.0319572 0.0033256 0
0.0333681 0.00260019 0
0.034775 0.00179799 0
0.0361793 0.000930615 0
0.0375798 3.12222e-06 0
0.0389689 -0.000988429 0
0.0403357 -0.00205109 0
0.041675 -0.00318283 0
0.0429849 -0.00437751 0
0.0442643 -0.00562904 0
0.0455126 -0.00693089 0
0.0467314 -0.00827518 0
0.0479204 -0.00965638 0
0.0490661 -0.0110799 0
0.0501515 -0.0125519 0
0.0511696 -0.0140695 0
0.0521492 -0.0156071 0
0.0531202 -0.0171411 0
0.0540851 -0.0186663 0
0.0550431 -0.0201798 0
0.0559923 -0.0216793 0
0.0569311 -0.0231626 0
0.0578582 -0.0246273 0
0.0587723 -0.0260715 0
0.0596721 -0.027493 0
0.0605563 -0.02889 0
0.0614241 -0.0302609 0
0.0622742 -0.0316042 0
0.063106 -0.0329183 0
0.0639186 -0.034202 0
0.0647113 -0.0354543 0
0.0654835 -0.0366743 0
0.0662345 -0.0378613 0
0.0669642 -0.0390145 0
0.0676726 -0.0401333 0
0.0683597 -0.0412172 0
0.0690246 -0.0422665 0
0.0696662 -0.0432819 0
0.0702841 -0.0442636 0
0.0708793 -0.0452111 0
0.0714538 -0.0461237 0
0.072009 -0.047001 0
0.0725452 -0.0478434 0
0.0730611 -0.0486524 0
0.073556 -0.0494294 0
0.0740291 -0.0501756 0
0.0744812 -0.0508916 0
0.0749138 -0.0515773 0
0.0753285 -0.0522331 0
0.0757266 -0.0528592 0
0.076109 -0.0534564 0
0.0764753 -0.0540264 0
0.0768243 -0.054571 0
0.0771553 -0.0550919 0
0.0774679 -0.0555901 0
0.0777617 -0.0560669 0
0.0780369 -0.056523 0
0.0782958 -0.0569578 0
0.0785421 -0.0573703 0
0.0787786 -0.0577603 0
0.0790073 -0.0581279 0
0.0792295 -0.058474 0
0.0794462 -0.0587995 0
0.0798803 -0.0594162 0
0.0800272 -0.0596588 0
0.0800357 -0.0598891 0
0.0799275 -0.0600784 0
0.0797205 -0.0601773 0
0.0794593 -0.0601051 0
0.0789155 -0.0596491 0
0.0786707 -0.0593963 0
0.0784111 -0.0591319 0
0.0781372 -0.0588542 0
0.0778566 -0.0585548 0
0.0775715 -0.0582308 0
0.0772803 -0.0578828 0
0.0769832 -0.0575099 0
0.0766822 -0.0571097 0
0.0763801 -0.0566796 0
0.0760759 -0.0562196 0
0.0757623 -0.0557337 0
0.0754359 -0.0552232 0
0.0750951 -0.0546879 0
0.0747379 -0.054128 0
0.0743626 -0.0535435 0
0.0739688 -0.0529338 0
0.0735559 -0.0522981 0
0.0731238 -0.0516357 0
0.0726718 -0.050946 0
0.0721991 -0.0502288 0
0.0717046 -0.049484 0
0.0711872 -0.0487117 0
0.0706461 -0.047912 0
0.0700804 -0.0470849 0
0.0694892 -0.0462308 0
0.0688718 -0.0453499 0
0.0682271 -0.0444431 0
0.0675544 -0.043511 0
0.0668527 -0.0425546 0
0.0661215 -0.0415748 0
0.06536 -0.040573 0
0.0645676 -0.0395504 0
0.0637439 -0.0385087 0
0.0628887 -0.0374493 0
0.062002 -0.0363741 0
0.0610838 -0.0352847 0
0.0601345 -0.0341831 0
0.0591547 -0.033071 0
0.0581456 -0.0319502 0
0.0571083 -0.0308224 0
0.0560444 -0.0296893 0
0.0549562 -0.028552 0
0.053845 -0.0274126 0
0.0527113 -0.0262746 0
0.051554 -0.0251427 0
0.0503724 -0.0240222 0
0.0491675 -0.0229164 0
0.047941 -0.0218282 0
0.0466955 -0.0207597 0
0.0454337 -0.0197126 0
0.0441592 -0.0186878 0
0.0428751 -0.0176863 0
0.0415841 -0.0167097 0
0.0402878 -0.0157609 0
0.0389879 -0.0148428 0
0.0376864 -0.0139575 0
0.0363853 -0.013107 0
0.0350871 -0.0122931 0
0.0337942 -0.0115164 0
0.0325095 -0.0107772 0
0.0312357 -0.0100756 0
0.0299758 -0.00941024 0
0.0287337 -0.00877784 0
0.0275126 -0.00817571 0
0.0263139 -0.00760375 0
0.0251376 -0.00706528 0
0.0239829 -0.0065649 0
0.0228537 -0.00609619 0
0.0217522 -0.00565563 0
0.0206795 -0.00524226 0
0.0196364 -0.00485507 0
0.0186233 -0.00449318 0
0.0176408 -0.00415577 0
0.016689 -0.00384204 0
0.0157682 -0.00355115 0
0.0148783 -0.00328218 0
0.0140192 -0.00303468 0
0.0131906 -0.00280795 0
0.0123925 -0.00260016 0
0.0116246 -0.00241012 0
0.0108864 -0.00223769 0
0.0101774 -0.00208212 0
0.00949701 -0.00194206 0
0.00884483 -0.0018163 0
0.0082202 -0.0017039 0
0.00762247 -0.00160391 0
0.00705097 -0.00151528 0
0.006505 -0.00143697 0
0.0059838 -0.00136806 0
0.00548662 -0.00130772 0
0.00501265 -0.00125519 0
0.00456114 -0.00120954 0
0.00413136 -0.00116914 0
0.00372257 -0.00113251 0
0.00333398 -0.00109853 0
0.00296466 -0.00106798 0
0.00261363 -0.0010431 0
-0.052721 -0.0445996 0
-0.0508204 -0.0440823 0
-0.0489199 -0.0435651 0
-0.0470193 -0.0430478 0
-0.0451187 -0.0425306 0
-0.0432181 -0.0420134 0
-0.0413175 -0.0414961 0
-0.039417 -0.0409789 0
-0.0375164 -0.0404616 0
-0.0356158 -0.0399444 0
-0.0337152 -0.0394271 0
-0.0318146 -0.0389099 0
-0.0299141 -0.0383927 0
-0.0280135 -0.0378754 0
-0.0261129 -0.0373582 0
-0.0242123 -0.0368409 0
-0.0223117 -0.0363237 0
-0.0204112 -0.0358065 0
-0.0185106 -0.0352892 0
-0.01661 -0.034772 0
-0.0147094 -0.0342547 0
-0.0128088 -0.0337375 0
-0.0109083 -0.0332202 0
-0.00900769 -0.032703 0
-0.00710711 -0.0321858 0
-0.00520653 -0.0316685 0
-0.00330595 -0.0311513 0
-0.00140537 -0.030634 0
0.00190689 -0.0299614 0
0.00332271 -0.0298498 0
0.00474133 -0.0297825 0
0.00616136 -0.0297597 0
0.0075814 -0.0297814 0
0.00900007 -0.0298477 0
0.010416 -0.0299583 0
0.0118278 -0.0301127 0
0.0132342 -0.0303103 0
0.0146339 -0.0305504 0
0.0160259 -0.0308322 0
0.0174091 -0.0311546 0
0.0187824 -0.0315166 0
0.020145 -0.031917 0
0.0214961 -0.0323546 0
0.0228351 -0.032828 0
0.0241613 -0.0333361 0
0.0254744 -0.0338774 0
0.0267738 -0.0344507 0
0.0280592 -0.0350545 0
0.0293306 -0.0356877 0
0.0305875 -0.0363488 0
0.0318301 -0.0370367 0
0.0330581 -0.0377501 0
0.0342717 -0.0384879 0
0.0354708 -0.0392489 0
0.0366556 -0.0400321 0
0.0378262 -0.0408363 0
0.0389828 -0.0416607 0
0.0401254 -0.0425042 0
0.0412543 -0.0433659 0
0.0423698 -0.0442451 0
0.043472 -0.0451408 0
0.0445612 -0.0460523 0
0.0456375 -0.0469789 0
0.0467013 -0.0479199 0
0.0477529 -0.0488746 0
0.0487923 -0.0498424 0
0.04982 -0.0508227 0
0.0508362 -0.051815 0
0.051841 -0.0528187 0
0.0528348 -0.0538333 0
0.0538178 -0.0548584 0
0.0547903 -0.0558935 0
0.0557524 -0.0569382 0
0.0567045 -0.0579922 0
0.0576467 -0.0590549 0
0.0585792 -0.0601261 0
0.0595024 -0.0612055 0
0.0604163 -0.0622926 0
0.0613212 -0.0633873 0
0.0622174 -0.0644891 0
0.0631049 -0.0655979 0
0.0639841 -0.0667134 0
0.064855 -0.0678353 0
0.0657179 -0.0689633 0
0.0665729 -0.0700974 0
0.0674202 -0.0712372 0
0.06826 -0.0723826 0
0.0690925 -0.0735333 0
0.0699178 -0.0746892 0
0.070736 -0.0758501 0
0.0715473 -0.0770159 0
0.0723518 -0.0781863 0
0.0731498 -0.0793612 0
0.0739412 -0.0805405 0
0.0747264 -0.081724 0
0.0755053 -0.0829116 0
0.0762781 -0.0841033 0
0.0770449 -0.0852987 0
0.0778059 -0.0864979 0
0.0785611 -0.0877007 0
0.0793108 -0.088907 0
0.0814681 -0.0912706 0
0.0828814 -0.0924245 0
0.0842946 -0.0935783 0
0.0857079 -0.0947322 0
0.0871211 -0.095886 0
0.0885344 -0.0970399 0
0.0899476 -0.0981937 0
0.0913609 -0.0993476 0
0.0927741 -0.100501 0
0.0941874 -0.101655 0
0.0956006 -0.102809 0
0.0970139 -0.103963 0
0.0984272 -0.105117 0
0.0998404 -0.106271 0
0.101254 -0.107424 0
0.102667 -0.108578 0
0.10408 -0.109732 0
0.105493 -0.110886 0
0.106907 -0.11204 0
0.10832 -0.113194 0
0.109733 -0.114348 0
0.111146 -0.115501 0
0.11256 -0.116655 0
0.113973 -0.117809 0
0.115386 -0.118963 0
0.116799 -0.120117 0
0.118213 -0.121271 0
0.119626 -0.122424 0
0.121039 -0.123578 0
0.122452 -0.124732 0
0.123866 -0.125886 0
0.125279 -0.12704 0
0.126692 -0.128194 0
0.128105 -0.129348 0
0.129519 -0.130501 0
0.130932 -0.131655 0
0.132345 -0.132809 0
0.133758 -0.133963 0
0.135172 -0.133216 0
0.135172 -0.131316 0
0.135172 -0.129415 0
0.135172 -0.127514 0
0.135172 -0.125614 0
0.135172 -0.123713 0
0.135172 -0.121813 0
0.135172 -0.119912 0
0.135172 -0.118012 0
0.135172 -0.116111 0
0.135172 -0.11421 0
0.135172 -0.11231 0
0.135172 -0.110409 0
0.135172 -0.108509 0
0.135172 -0.106608 0
0.135172 -0.104708 0
0.135172 -0.102807 0
0.135172 -0.100906 0
0.135172 -0.0990058 0
0.135172 -0.0971052 0
0.135172 -0.0952046 0
0.135172 -0.0933041 0
0.135172 -0.0914035 0
0.135172 -0.0895029 0
0.135172 -0.0876023 0
0.135172 -0.0857017 0
0.135172 -0.0838012 0
0.135172 -0.0819006 0
0.133758 -0.0788462 0
0.132345 -0.0776923 0
0.130932 -0.0765385 0
0.129519 -0.0753846 0
0.128105 -0.0742308 0
0.126692 -0.0730769 0
0.125279 -0.0719231 0
0.123866 -0.0707692 0
0.122452 -0.0696154 0
0.121039 -0.0684615 0
0.119626 -0.0673077 0
0.118213 -0.0661538 0
0.116799 -0.065 0
0.115386 -0.0638462 0
0.113973 -0.0626923 0
0.11256 -0.0615385 0
0.111146 -0.0603846 0
0.109733 -0.0592308 0
0.10832 -0.0580769 0
0.106907 -0.0569231 0
0.105493 -0.0557692 0
0.10408 -0.0546154 0
0.102667 -0.0534615 0
0.101254 -0.0523077 0
0.0998404 -0.0511538 0
0.0984272 -0.05 0
0.0970139 -0.0488462 0
0.0956006 -0.0476923 0
[...]
CELL_DATA 13116
SCALARS rho float
LOOKUP_TABLE default
0.423572
0.512153
0.289035
0.552216
0.543215
0.532615
0.321584
0.547175
0.406805
0.546789
0.322219
0.292861
0.543462
0.324412
0.319113
0.532641
0.398445
0.539275
0.529888
0.3216
0.427611
0.321638
0.326154
0.540827
0.470629
0.495425
0.546818
0.320092
0.469558
0.499512
0.532812
0.333181
0.428927
0.345822
0.322291
0.425708
0.51445
0.524848
0.532732
0.53224
0.531409
0.549719
0.327619
0.289792
0.528687
0.529706
0.494639
0.532182
0.321964
0.40392
0.542905
0.341064
0.315122
0.392728
0.427837
0.451965
0.294089
0.538135
0.41431
0.314671
0.32556
0.548085
0.50474
0.532747
0.532824
0.328904
0.533776
0.519717
0.53437
0.532797
0.320722
0.453319
0.317266
0.322981
0.53292
0.302592
0.497879
0.539602
0.317501
0.536795
0.525003
0.49906
0.540936
0.531636
0.521252
0.348003
0.321049
0.517432
0.517629
0.32812
0.316737
0.513582
0.542982
0.522306
0.501975
0.462247
0.472645
0.532968
0.53286
0.462426
0.525067
0.455391
0.530923
0.310001
0.481177
0.326995
0.278394
0.364628
0.322748
0.477576
0.38718
0.493308
0.460781
0.52774
0.5373
0.533909
0.323377
0.299804
0.537124
0.534826
0.520017
0.315674
0.534637
0.350421
0.517791
0.339103
0.321476
0.393933
0.319556
0.405213
0.537354
0.530647
0.389004
0.325842
0.373516
0.451339
0.533268
0.536443
0.524352
0.534622
0.48473
0.497369
0.392678
0.485475
0.500213
0.323511
0.322782
0.492488
0.541235
0.540122
0.420729
0.531227
0.532182
0.307084
0.544046
0.522448
0.325508
0.529545
0.532956
0.517656
0.540109
0.321074
0.539682
0.324485
0.311527
0.546728
0.515355
0.538887
0.322115
0.359847
0.326792
0.533216
0.319881
0.38071
0.53327
0.327926
0.319249
0.318628
0.489982
0.532352
0.300181
0.334216
0.403279
0.514774
0.532349
0.412454
0.293268
0.531278
0.471607
0.356733
0.492375
0.490679
0.532726
0.329699
0.485993
0.532628
0.544203
0.530872
0.516514
0.315357
0.309597
0.481645
0.389797
0.326039
0.53728
0.527814
0.347926
0.470369
0.321609
0.319789
0.299836
0.533058
0.324096
0.3195
0.322541
0.306482
0.283208
0.532339
0.515225
0.337735
0.293524
0.533648
0.382282
0.301031
0.430252
0.547289
0.498254
0.323019
0.533408
0.303555
0.554096
0.325145
0.532713
0.445413
0.533003
0.526786
0.532706
0.310256
0.333243
0.517604
0.533016
0.53257
0.533217
0.532517
0.542165
0.320671
0.539235
0.544732
0.532835
0.322184
0.32345
0.529198
0.536725
0.532743
0.533737
0.412435
0.529961
0.321773
0.323867
0.30728
0.322108
0.467161
0.544017
0.496872
0.317599
0.527534
0.319584
0.335769
0.482912
0.314298
0.496058
0.545764
0.533046
0.537881
0.310953
0.533053
0.529131
0.532831
0.536313
0.313717
0.32255
0.328207
0.447458
0.315014
0.326592
0.257902
0.244682
0.519809
0.315606
0.5218
0.544123
0.303315
0.317637
0.320265
0.350806
0.285208
0.516345
0.45344
0.487809
0.314324
0.532761
0.455419
0.325266
0.316755
0.532573
0.536726
0.531021
0.292118
0.532646
0.319435
0.53013
0.549384
0.538787
0.54852
0.330402
0.533421
0.321456
0.532074
0.547521
0.518168
0.315863
0.257661
0.545217
0.326747
0.506642
0.548032
0.283223
0.53207
0.540681
0.322829
0.527328
0.542892
0.313752
0.538574
0.349323
0.445905
0.532796
0.354533
0.529808
0.318457
0.539046
0.267035
0.532453
0.449716
0.545164
0.323059
0.277157
0.522349
0.310687
0.536749
0.476889
0.326279
0.533264
0.300819
0.312883
0.535137
0.430453
0.518542
0.322699
0.324299
0.539134
0.543916
0.32288
0.543308
0.326323
0.32619
0.53354
0.535786
0.353488
0.315573
0.536314
0.532837
0.532697
0.526302
0.537798
0.420858
0.255784
0.320477
0.297354
0.532712
0.297976
0.401633
0.287305
0.317933
0.272511
0.361477
0.109276
0.310861
0.52299
0.258008
0.540312
0.469252
0.531114
0.511013
0.539666
0.312922
0.321687
0.320346
0.263048
0.534736
0.457476
0.531141
0.469726
0.501512
0.479206
0.497432
0.481189
0.497274
0.536786
0.536358
0.532608
0.311854
0.354215
0.420359
0.319338
0.450424
0.450636
0.317386
0.533719
0.533055
0.330516
0.318837
0.32103
0.295594
0.489259
0.322289
0.329742
0.533242
0.323771
0.445116
0.327589
0.532208
0.524955
0.285296
0.325679
0.534697
0.352023
0.325198
0.293942
0.313745
0.322562
0.323416
0.319148
0.323204
0.335581
0.321944
0.452636
0.303287
0.520787
0.294716
0.353667
0.391276
0.329252
0.327616
0.329223
0.529971
0.340024
0.496868
0.36653
0.326969
0.472372
0.519427
0.347371
0.531706
0.480184
0.479054
0.32346
0.532989
0.301507
0.538515
0.532831
0.322326
0.321233
0.470229
0.265061
0.355699
0.452211
0.277594
0.528785
0.502636
0.303087
0.316783
0.320567
0.377232
0.315593
0.314678
0.320961
0.321782
0.549335
0.54967
0.355894
0.464903
0.372882
0.485552
0.272626
0.318972
0.410375
0.322195
0.530718
0.228854
0.28836
0.385757
0.528115
0.511606
0.435379
0.281636
0.321118
0.442583
0.547195
0.532821
0.439671
0.484435
0.466041
0.322118
0.524147
0.441899
0.516676
0.240796
0.287431
0.526961
0.544431
0.510149
0.547532
0.512215
0.495827
0.539172
0.516987
0.53111
0.307174
0.527902
0.263949
0.32098
0.318856
0.550967
0.528302
0.240169
0.520572
0.482657
0.316006
0.532566
0.536253
0.533937
0.319952
0.319096
0.538197
0.319632
0.301016
0.304367
0.322929
0.52878
0.315283
0.550896
0.303663
0.512601
0.541941
0.533764
0.543975
0.324256
0.303245
0.529471
0.554957
0.506869
0.54905
0.544511
0.387339
0.322466
0.323001
0.532583
0.408534
0.31792
0.351816
0.314099
0.531013
0.531616
0.240756
0.3217
0.519061
0.362241
0.523571
0.512053
0.318818
0.304251
0.503586
0.533062
0.32442
0.510576
0.515113
0.528982
0.310029
0.533172
0.304647
0.533013
0.515686
0.314026
0.28259
0.325781
0.532942
0.319292
0.314799
0.300214
0.532518
0.532487
0.316509
0.319856
0.325554
0.532655
0.317153
0.53254
0.323642
0.456355
0.547321
0.297298
0.32458
0.325511
0.387697
0.324277
0.503472
0.291947
0.319879
0.532274
0.320098
0.532966
0.503481
0.532986
0.296502
0.531293
0.542003
0.543919
0.532625
0.519781
0.533407
0.326249
0.532837
0.339557
0.526386
0.313406
0.54278
0.390851
0.321677
0.532756
0.539642
0.317235
0.483559
0.313251
0.320064
0.533203
0.52968
0.303434
0.323569
0.317994
0.332071
0.528753
0.540978
0.311197
0.297004
0.536685
0.536347
0.4578
0.541561
0.53175
0.321499
0.545267
0.331539
0.542762
0.300633
0.460617
0.375261
0.533297
0.519526
0.448624
0.265595
0.322409
0.53059
0.469996
0.397461
0.54115
0.322156
0.527792
0.543698
0.284261
0.352244
0.542417
0.281559
0.532711
0.518377
0.254185
0.535537
0.500559
0.301228
0.53139
0.327861
0.515015
0.296125
0.53299
0.503297
0.325232
0.53274
0.540091
0.5387
0.483621
0.525608
0.453815
0.318464
0.32154
0.293998
0.32522
0.533289
0.432623
0.535211
0.540735
0.301195
0.319429
0.528836
0.547997
0.535022
0.545873
0.315674
0.536503
0.54465
0.320569
0.306027
0.537226
0.529202
0.518176
0.31915
0.460031
0.302703
0.530622
0.501929
0.532799
0.518528
0.320724
0.525677
0.521662
0.542141
0.528752
0.531858
0.336156
0.537523
0.319395
0.482913
0.545739
0.359509
0.503806
0.532787
0.541566
0.309661
0.311361
0.454721
0.504876
0.318037
0.318237
0.310499
0.322147
0.513973
0.527431
0.53253
0.2442
0.321775
0.534233
0.528483
0.315445
0.32143
0.360877
0.51368
0.530943
0.525767
0.534579
0.320163
0.318196
0.533145
0.347185
0.314661
0.294848
0.531506
0.310126
0.332292
0.445937
0.528003
0.489933
0.532718
0.531413
0.324946
0.320593
0.310658
0.365932
0.339634
0.321004
0.518584
0.534135
0.514568
0.53228
0.329261
0.294938
0.54729
0.317505
0.531858
0.502918
0.532916
0.303431
0.311696
0.51047
0.532726
0.432825
0.313548
0.522949
0.532713
0.442491
0.540245
0.545451
0.533104
0.484569
0.316172
0.531523
0.532677
0.475745
0.530867
0.53333
0.49452
0.533169
0.535763
0.320461
0.314125
0.297447
0.532879
0.389696
0.317822
0.528733
0.537062
0.2877
0.489608
0.283546
0.493745
0.360424
0.313429
0.548255
0.540474
0.318303
0.429293
0.53285
0.323009
0.522511
0.32847
0.326776
0.475925
0.470839
0.391188
0.530769
0.310152
0.539579
0.318014
0.313319
0.53294
0.317772
0.465951
0.316871
0.488927
0.461823
0.533181
0.513498
0.319413
0.319253
0.471195
0.329301
0.53472
0.353643
0.456459
0.532436
0.541941
0.340543
0.475432
0.48878
0.54448
0.534223
0.269756
0.308906
0.42127
0.487306
0.544914
0.29227
0.530857
0.434317
0.319977
0.307629
0.519424
0.514344
0.533207
0.532943
0.45626
0.528418
0.532598
0.520331
0.316312
0.51034
0.358839
0.536217
0.528742
0.238449
0.502157
0.542216
0.314356
0.313467
0.325029
0.533326
0.321066
0.475788
0.534918
0.511526
0.299485
0.522435
0.326951
0.459601
0.532764
0.532568
0.517224
0.532638
0.479093
0.523997
0.404724
0.525986
0.294513
0.531756
0.533677
0.313637
0.533115
0.528602
0.326097
0.319845
0.320958
0.539147
0.327634
0.53304
0.307348
0.546547
0.321329
0.375722
0.319953
0.538041
0.545156
0.41084
0.211424
0.479004
0.532326
0.312495
0.457
0.549972
0.326331
0.454062
0.532779
0.547013
0.531944
0.320999
0.362503
0.536012
0.530363
0.484111
0.324808
0.308799
0.524516
0.533221
0.533065
0.53327
0.422991
0.530992
0.419265
0.534438
0.326254
0.326124
0.533258
0.542325
0.532518
0.327519
0.531641
0.429075
0.462639
0.30168
0.324989
0.543582
0.554802
0.431317
0.260532
0.531718
0.533085
0.322008
0.472769
0.534393
0.321975
0.350895
0.320289
0.471421
0.321011
0.305499
0.526484
0.359693
0.545165
0.494399
0.321566
0.32308
0.54821
0.31291
0.322208
0.532725
0.325366
0.273553
0.457052
0.516379
0.531261
0.321742
0.258445
0.3224
0.504624
0.326451
0.531837
0.321011
0.529501
0.490333
0.527771
0.48992
0.524461
0.500194
0.531095
0.543651
0.534089
0.31461
0.315375
0.518412
0.532651
0.396052
0.480703
0.432274
0.532669
0.4744
0.284835
0.534244
0.54917
0.524758
0.321631
0.526305
0.297044
0.531536
0.389916
0.537131
0.532567
0.31342
0.534584
0.324728
0.33
0.505687
0.294324
0.529257
0.533356
0.536808
0.296287
0.533196
0.322464
0.303786
0.31701
0.320567
0.467998
0.320493
0.487599
0.532736
0.263308
0.329784
0.3821
0.451918
0.488717
0.485887
0.29865
0.328571
0.322859
0.319993
0.210634
0.488314
0.497546
0.319525
0.532454
0.534515
0.320399
0.549055
0.527914
0.532731
0.318987
0.532933
0.524523
0.537796
0.536289
0.316339
0.532197
0.539236
0.526812
0.520082
0.532124
0.326154
0.322454
0.53152
0.419909
0.312827
0.532873
0.328437
0.445438
0.483257
0.513269
0.516379
0.305944
0.479177
0.309926
0.321041
0.532761
0.538272
0.541174
0.538725
0.508
0.304142
0.544592
0.318554
0.395203
0.54631
0.532882
0.535635
0.32159
0.320034
0.545331
0.318591
0.537727
0.504511
0.333766
0.323316
0.533505
0.318837
0.532521
0.537305
0.505602
0.318397
0.313912
0.391321
0.39937
0.47916
0.366271
0.53211
0.485986
0.522951
0.53331
0.530183
0.31875
0.325388
0.539285
0.532123
0.481395
0.359718
0.325986
0.521798
0.319527
0.531624
0.4792
0.261724
0.534301
0.319424
0.507771
0.290948
0.541966
0.310517
0.530563
0.532396
0.274103
0.519792
0.504433
0.263965
0.532529
0.529848
0.430736
0.329475
0.284816
0.361103
0.542437
0.468124
0.316861
0.456484
0.532117
0.532326
0.291768
0.470012
0.517589
0.361933
0.532089
0.532158
0.232945
0.534008
0.532811
0.289561
0.461459
0.297279
0.492045
0.304715
0.326594
0.54408
0.311817
0.326918
0.319577
0.533516
0.510414
0.313643
0.531583
0.281534
0.513084
0.322527
0.513376
0.28801
0.53243
0.531854
0.498898
0.532644
0.432204
0.532423
0.532702
0.294015
0.495572
0.503081
0.373643
0.529688
0.386752
0.312651
0.544337
0.304002
0.444104
0.281256
0.531086
0.315283
0.329728
0.540555
0.531421
0.304421
0.535374
0.534213
0.533312
0.545573
0.532986
0.316042
0.548442
0.319438
0.324209
0.518992
0.535448
0.549119
0.52092
0.313854
0.304433
0.322609
0.513457
0.532707
0.283929
0.524575
0.329277
0.301901
0.302453
0.519881
0.300917
0.545888
0.534352
0.494706
0.528948
0.533508
0.442718
0.493517
0.341217
0.326846
0.304319
0.532981
0.532984
0.327539
0.487843
0.46902
0.494899
0.321555
0.307202
0.48907
0.218522
0.48343
0.458729
0.319991
0.532366
0.515413
0.317804
0.530753
0.32235
0.535059
0.545965
0.524897
0.319744
0.369219
0.52807
0.236363
0.34858
0.528949
0.243003
0.532324
0.534163
0.495541
0.534487
0.257604
0.532815
0.532245
0.530294
0.28497
0.54004
0.31903
0.325757
0.522038
0.531105
0.532549
0.185442
0.532776
0.495274
0.532931
0.329381
0.324692
0.324746
0.537668
0.322079
0.320543
0.301319
0.457021
0.321963
0.239108
0.347467
0.531853
0.318477
0.532604
0.532571
0.531895
0.295464
0.533444
0.508074
0.532468
0.326375
0.518321
0.322784
0.305492
0.53314
0.317596
0.484568
0.531034
0.533196
0.315583
0.257879
0.317306
0.438532
0.533247
0.183528
0.525461
0.533433
0.535456
0.32301
0.319192
0.26988
0.467672
0.322939
0.533379
0.473136
0.532543
0.525351
0.316045
0.484968
0.324738
0.43435
0.505959
0.547834
0.440036
0.368885
0.518115
0.484546
0.540018
0.301071
0.29001
0.315481
0.536655
0.413126
0.532884
0.318728
0.311248
0.53768
0.533185
0.532613
0.316576
0.532494
0.437184
0.439551
0.470276
0.323942
0.318811
0.231797
0.531128
0.532791
0.51888
0.48374
0.26891
0.537689
0.513293
0.532787
0.532495
0.537346
0.548976
0.532728
0.534429
0.540671
0.320973
0.534904
0.539448
0.531867
0.535932
0.530785
0.446502
0.317526
0.328063
0.478764
0.317342
0.260766
0.531852
0.321416
0.497709
0.533949
0.510362
0.525401
0.324725
0.533255
0.314337
0.3272
0.532741
0.530394
0.532394
0.292256
0.542625
0.530861
0.476861
0.531156
0.32012
0.531945
0.545648
0.515578
0.316243
0.538456
0.322161
0.553971
0.297966
0.317555
0.403173
0.350986
0.548131
0.538871
0.531996
0.302659
0.532018
0.315303
0.321875
0.507579
0.385182
0.327066
0.531346
0.316896
0.40292
0.518591
0.494097
0.515512
0.384221
0.466427
0.509805
0.53236
0.444374
0.541179
0.418762
0.552358
0.480493
0.503209
0.327484
0.319414
0.350484
0.538718
0.325407
0.516598
0.535679
0.467591
0.532386
0.401146
0.528549
0.521561
0.320857
0.534822
0.475365
0.37791
0.478153
0.545214
0.504654
0.532389
0.321211
0.320618
0.526948
0.415529
0.421037
0.536323
0.531146
0.531947
0.544481
0.545652
0.481541
0.483846
0.547769
0.319791
0.318823
0.31557
0.293738
0.533091
0.358143
0.416193
0.534057
0.525482
0.323525
0.526188
0.55225
0.291553
0.29309
0.533002
0.536195
0.324125
0.30224
0.306762
0.53334
0.494703
0.319676
0.320175
0.320339
0.325482
0.270307
0.315726
0.552418
0.532044
0.527253
0.303086
0.511294
0.469741
0.477328
0.293297
0.31882
0.506003
0.533282
0.330398
0.532262
0.318053
0.540237
0.321894
0.531346
0.295903
0.515221
0.54428
0.298313
0.440924
0.318567
0.548723
0.326199
0.47284
0.328177
0.393718
0.322788
0.465827
0.312754
0.532665
0.532669
0.47564
0.523589
0.282236
0.513728
0.532313
0.543341
0.467779
0.513821
0.31928
0.301875
0.32569
0.54295
0.227742
0.541929
0.427087
0.535226
0.546978
0.35606
0.537411
0.321615
0.328289
0.320739
0.397403
0.401552
0.530495
0.313258
0.326734
0.532861
0.297879
0.317139
0.428163
0.28849
0.33042
0.328715
0.550715
0.5106
0.476474
0.325432
0.510984
0.531228
0.326888
0.254109
0.521898
0.531638
0.437108
0.405453
0.323819
0.284272
0.306971
0.529009
0.475258
0.40626
0.530958
0.319376
0.442204
0.319456
0.532772
0.542044
0.319677
0.321013
0.48077
0.422568
0.543789
0.540671
0.542817
0.535868
0.546332
0.303739
0.319449
0.312798
0.313666
0.417335
0.532875
0.511991
0.314092
0.296801
0.351008
0.351116
0.53184
0.493121
0.325532
0.241002
0.533948
0.324848
0.508727
0.53913
0.506889
0.532101
0.426948
0.307988
0.302349
0.479305
0.319891
0.325478
0.313541
0.532434
0.530671
0.281298
0.31944
0.533203
0.311443
0.532429
0.542979
0.309535
0.314855
0.32018
0.533589
0.323432
0.533357
0.531313
0.467961
0.29831
0.416286
0.538994
0.523363
0.320909
0.520741
0.480457
0.372044
0.536624
0.555096
0.322309
0.310471
0.509605
0.315384
0.313251
0.516932
0.271907
0.530912
0.528854
0.542319
0.486249
0.542122
0.533906
0.532566
0.322525
0.323136
0.489665
0.528876
0.369009
0.548789
0.254623
0.535547
0.516833
0.443399
0.505004
0.302488
0.357731
0.526896
0.539645
0.477765
0.544583
0.533095
0.533079
0.544894
0.53325
0.521346
0.509667
0.534104
0.53326
0.532535
0.277143
0.501535
0.292957
0.533215
0.535046
0.536279
0.499017
0.534053
0.314001
0.312598
0.239918
0.320511
0.505018
0.314175
0.318921
0.526176
0.318907
0.533889
0.30751
0.517227
0.53259
0.310104
0.300119
0.25584
0.537947
0.322512
0.529902
0.534292
0.316937
0.503794
0.435304
0.269739
0.320729
0.31996
0.534809
0.310415
0.53404
0.398262
0.318843
0.530077
0.531399
0.542775
0.317618
0.447101
0.323551
0.512844
0.532583
0.533844
0.332176
0.52805
0.536392
0.488356
0.317532
0.53782
0.318197
0.322683
0.52785
0.354329
0.545925
0.311386
0.332186
0.349066
0.495007
0.319958
0.228339
0.297442
0.372816
0.532869
0.533946
0.32305
0.464764
0.533093
0.439534
0.326413
0.260078
0.437186
0.318037
0.317772
0.528026
0.323308
0.318273
0.540174
0.550661
0.291679
0.538119
0.305743
0.533024
0.319505
0.508991
0.532825
0.535098
0.532441
0.318355
0.320279
0.32005
0.532571
0.51123
0.464473
0.422816
0.29205
0.238464
0.531928
0.322747
0.531307
0.300868
0.532787
0.520889
0.292668
0.289885
0.322051
0.31946
0.291789
0.479696
0.506972
0.296096
0.534076
0.496061
0.313767
0.320322
0.550381
0.325429
0.532438
0.336201
0.534789
0.509716
0.533393
0.532848
0.321588
0.545681
0.531836
0.552713
0.314655
0.473267
0.469489
0.258543
0.53877
0.496094
0.548399
0.511845
0.546345
0.526767
0.548249
0.531803
0.530039
0.303197
0.541941
0.321901
0.357368
0.528699
0.321942
0.519036
0.473289
0.326592
0.489387
0.311941
0.318298
0.522031
0.464969
0.55028
0.322039
0.511653
0.483252
0.314806
0.30078
0.509297
0.531371
0.296524
0.303239
0.53435
0.549965
0.305069
0.499637
0.544881
0.512817
0.298072
0.318487
0.313468
0.510926
0.308385
0.521291
0.536633
0.531919
0.469887
0.532972
0.321188
0.517782
0.483015
0.544101
0.437518
0.326099
0.321835
0.324179
0.540708
0.535272
0.334105
0.508005
0.254144
0.500377
0.534648
0.322297
0.479447
0.522142
0.484624
0.301521
0.321039
0.288831
0.537003
0.545847
0.481242
0.405014
0.533178
0.327433
0.493666
0.533005
0.528192
0.301165
0.490954
0.326764
0.479584
0.32615
0.528441
0.522146
0.325467
0.536901
0.331097
0.533268
0.496988
0.53337
0.53823
0.322181
0.532
0.531647
0.531397
0.529176
0.38065
0.533017
0.31745
0.531734
0.322558
0.295974
0.32048
0.290963
0.317911
0.297755
0.546764
0.287891
0.320732
0.511504
0.53725
0.508897
0.320623
0.531125
0.530304
0.532173
0.272289
0.448879
0.533722
0.315592
0.29946
0.320572
0.488995
0.400515
0.309087
0.454725
0.329282
0.532941
0.39509
0.321682
0.372235
0.506124
0.286923
0.531701
0.318703
0.364441
0.294333
0.531221
0.300782
0.506893
0.532971
0.461822
0.324754
0.315589
0.526554
0.549109
0.302965
0.303749
0.53241
0.316334
0.538079
0.304526
0.438741
0.324648
0.533837
0.318722
0.548174
0.295874
0.534479
0.533808
0.540317
0.533126
0.32012
0.326468
0.32024
0.498146
0.525462
0.493751
0.403711
0.325782
0.536275
0.263973
0.509118
0.453307
0.31203
0.325373
0.540192
0.528359
0.326117
0.532787
0.530441
0.540213
0.542332
0.318525
0.495697
0.325414
0.540337
0.309157
0.532498
0.50448
0.514488
0.548744
0.31442
0.553712
0.313364
0.319169
0.532364
0.533103
0.427744
0.527712
0.533091
0.32864
0.539665
0.528435
0.546974
0.304436
0.334701
0.527914
0.316438
0.535824
0.535464
0.521148
0.533347
0.225815
0.350011
0.50591
0.325362
0.516833
0.549463
0.369177
0.519482
0.213559
0.481048
0.539887
0.526515
0.519977
0.319473
0.330535
0.530673
0.519238
0.325334
0.261311
0.317919
0.324729
0.320545
0.32991
0.285806
0.314398
0.530083
0.321481
0.291111
0.533506
0.426178
0.533189
0.310707
0.318858
0.533422
0.365584
0.369918
0.544334
0.290847
0.514499
0.532766
0.477317
0.515074
0.318942
0.53427
0.532708
0.317617
0.32202
0.312694
0.470607
0.476694
0.546178
0.532655
0.52884
0.517895
0.289703
0.535257
0.532679
0.509466
0.316538
0.534159
0.446423
0.284224
0.339359
0.315463
0.319515
0.319931
0.460776
0.519613
0.519408
0.317555
0.30581
0.54488
0.279187
0.534279
0.531605
0.521409
0.526731
0.532997
0.315257
0.322077
0.329482
0.441178
0.313316
0.532361
0.313837
0.533078
0.532208
0.534651
0.293957
0.351006
0.321035
0.533412
0.303219
0.320545
0.531637
0.514874
0.481388
0.532578
0.505346
0.537689
0.31178
0.489304
0.542065
0.417601
0.532413
0.535784
0.538703
0.361968
0.3357
0.548058
0.392043
0.476014
0.325896
0.500314
0.52196
0.315873
0.307955
0.51108
0.398983
0.540104
0.534226
0.310907
0.321207
0.532805
0.296403
0.322149
0.523429
0.510066
0.325964
0.525585
0.532946
0.500519
0.294543
0.461818
0.312698
0.525877
0.541817
0.537589
0.517029
0.532881
0.245506
0.281636
0.526875
0.316368
0.47695
0.320781
0.533892
0.327966
0.503849
0.541681
0.53291
0.331728
0.533352
0.53292
0.318658
0.500817
0.310396
0.551585
0.331998
0.297727
0.308632
0.523543
0.528241
0.254435