# vtk DataFile Version 1.0
unstructured grid
ascii
DATASET UNSTRUCTURED_GRID
points 13672 float
0.0796578 -0.059106 0
0.00128732 0.00159165 0
0.00227961 -0.00102548 0
0.0791586 -0.0598787 0
-0.0546216 0.01 0
0.000495206 0.025 0
0.0800549 -0.035 0
0.135172 -0.08 0
-0.0546216 -0.0451168 0
0.000495206 -0.0301168 0
0.0800549 -0.0901168 0
0.135172 -0.135117 0
-0.0546216 -0.0451168 -0.00551168
0.000495206 -0.0301168 -0.00551168
0.0800549 -0.0901168 -0.00551168
0.135172 -0.135117 -0.00551168
0.135172 -0.08 -0.00551168
0.0800549 -0.035 -0.00551168
0.000495206 0.025 -0.00551168
-0.0546216 0.01 -0.00551168
0.00128732 0.00159165 -0.00551168
0.00227961 -0.00102548 -0.00551168
0.0791586 -0.0598787 -0.00551168
0.0796578 -0.059106 -0.00551168
0.00165953 -0.000990923 0
0.00119576 -0.000874076 0
0.000866021 -0.000641801 0
0.000645147 -0.000349912 0
0.00052235 -1.7281e-05 0
0.00049972 0.000348016 0
0.000601632 0.000737716 0
0.000861774 0.0011403 0
0.00157235 0.00183217 0
0.00188647 0.00206725 0
0.00222612 0.00230203 0
0.00258713 0.00254351 0
0.00296826 0.00279524 0
0.00337118 0.00305664 0
0.00379785 0.00332658 0
0.00425045 0.00360349 0
0.00473139 0.00388521 0
0.0052432 0.00416895 0
0.0057881 0.00445204 0
0.00636753 0.00473281 0
0.00698281 0.00500961 0
0.00763526 0.00528058 0
0.00832616 0.00554366 0
0.00905691 0.00579603 0
0.00982918 0.00603333 0
0.0106445 0.00625033 0
0.0115038 0.00644128 0
0.0124073 0.00660297 0
0.0133543 0.00673414 0
0.0143444 0.00683382 0
0.0153769 0.00690031 0
0.0164512 0.00693173 0
0.0175666 0.00692547 0
0.0187219 0.00687822 0
0.0199156 0.00678477 0
0.0211454 0.00663864 0
0.0224084 0.00643275 0
0.0237018 0.00616676 0
0.0250249 0.00584739 0
0.026375 0.00547298 0
0.0277479 0.00503752 0
0.0291386 0.00453545 0
0.0305433 0.0039653 0
0.0319572 0.0033256 0
0.0333681 0.00260019 0
0.034775 0.00179799 0
0.0361793 0.000930615 0
0.0375798 3.12222e-06 0
0.0389689 -0.000988429 0
0.0403357 -0.00205109 0
0.041675 -0.00318283 0
0.0429849 -0.00437751 0
0.0442643 -0.00562904 0
0.0455126 -0.00693089 0
0.0467314 -0.00827518 0
0.0479204 -0.00965638 0
0.0490661 -0.0110799 0
0.0501515 -0.0125519 0
0.0511696 -0.0140695 0
0.0521492 -0.0156071 0
0.0531202 -0.0171411 0
0.0540851 -0.0186663 0
0.0550431 -0.0201798 0
0.0559923 -0.0216793 0
0.0569311 -0.0231626 0
0.0578582 -0.0246273 0
0.0587723 -0.0260715 0
0.0596721 -0.027493 0
0.0605563 -0.02889 0
0.0614241 -0.0302609 0
0.0622742 -0.0316042 0
0.063106 -0.0329183 0
0.0639186 -0.034202 0
0.0647113 -0.0354543 0
0.0654835 -0.0366743 0
0.0662345 -0.0378613 0
0.0669642 -0.0390145 0
0.0676726 -0.0401333 0
0.0683597 -0.0412172 0
0.0690246 -0.0422665 0
0.0696662 -0.0432819 0
0.0702841 -0.0442636 0
0.0708793 -0.0452111 0
0.0714538 -0.0461237 0
0.072009 -0.047001 0
0.0725452 -0.0478434 0
0.0730611 -0.0486524 0
0.073556 -0.0494294 0
0.0740291 -0.0501756 0
0.0744812 -0.0508916 0
0.0749138 -0.0515773 0
0.0753285 -0.0522331 0
0.0757266 -0.0528592 0
0.076109 -0.0534564 0
0.0764753 -0.0540264 0
0.0768243 -0.054571 0
0.0771553 -0.0550919 0
0.0774679 -0.0555901 0
0.0777617 -0.0560669 0
0.0780369 -0.056523 0
0.0782958 -0.0569578 0
0.0785421 -0.0573703 0
0.0787786 -0.0577603 0
0.0790073 -0.0581279 0
0.0792295 -0.058474 0
0.0794462 -0.0587995 0
0.0798803 -0.0594162 0
0.0800272 -0.0596588 0
0.0800357 -0.0598891 0
0.0799275 -0.0600784 0
0.0797205 -0.0601773 0
0.0794593 -0.0601051 0
0.0789155 -0.0596491 0
0.0786707 -0.0593963 0
0.0784111 -0.0591319 0
0.0781372 -0.0588542 0
0.0778566 -0.0585548 0
0.0775715 -0.0582308 0
0.0772803 -0.0578828 0
0.0769832 -0.0575099 0
0.0766822 -0.0571097 0
0.0763801 -0.0566796 0
0.0760759 -0.0562196 0
0.0757623 -0.0557337 0
0.0754359 -0.0552232 0
0.0750951 -0.0546879 0
0.0747379 -0.054128 0
0.0743626 -0.0535435 0
0.0739688 -0.0529338 0
0.0735559 -0.0522981 0
0.0731238 -0.0516357 0
0.0726718 -0.050946 0
0.0721991 -0.0502288 0
0.0717046 -0.049484 0
0.0711872 -0.0487117 0
0.0706461 -0.047912 0
0.0700804 -0.0470849 0
0.0694892 -0.0462308 0
0.0688718 -0.0453499 0
0.0682271 -0.0444431 0
0.0675544 -0.043511 0
0.0668527 -0.0425546 0
0.0661215 -0.0415748 0
0.06536 -0.040573 0
0.0645676 -0.0395504 0
0.0637439 -0.0385087 0
0.0628887 -0.0374493 0
0.062002 -0.0363741 0
0.0610838 -0.0352847 0
0.0601345 -0.0341831 0
0.0591547 -0.033071 0
0.0581456 -0.0319502 0
0.0571083 -0.0308224 0
0.0560444 -0.0296893 0
0.0549562 -0.028552 0
0.053845 -0.0274126 0
0.0527113 -0.0262746 0
0.051554 -0.0251427 0
0.0503724 -0.0240222 0
0.0491675 -0.0229164 0
0.047941 -0.0218282 0
0.0466955 -0.0207597 0
0.0454337 -0.0197126 0
0.0441592 -0.0186878 0
0.0428751 -0.0176863 0
0.0415841 -0.0167097 0
0.0402878 -0.0157609 0
0.0389879 -0.0148428 0
0.0376864 -0.0139575 0
0.0363853 -0.013107 0
0.0350871 -0.0122931 0
0.0337942 -0.0115164 0
0.0325095 -0.0107772 0
0.0312357 -0.0100756 0
0.0299758 -0.00941024 0
0.0287337 -0.00877784 0
0.0275126 -0.00817571 0
0.0263139 -0.00760375 0
0.0251376 -0.00706528 0
0.0239829 -0.0065649 0
0.0228537 -0.00609619 0
0.0217522 -0.00565563 0
0.0206795 -0.00524226 0
0.0196364 -0.00485507 0
0.0186233 -0.00449318 0
0.0176408 -0.00415577 0
0.016689 -0.00384204 0
0.0157682 -0.00355115 0
0.0148783 -0.00328218 0
0.0140192 -0.00303468 0
0.0131906 -0.00280795 0
0.0123925 -0.00260016 0
0.0116246 -0.00241012 0
0.0108864 -0.00223769 0
0.0101774 -0.00208212 0
0.00949701 -0.00194206 0
0.00884483 -0.0018163 0
0.0082202 -0.0017039 0
0.00762247 -0.00160391 0
0.00705097 -0.00151528 0
0.006505 -0.00143697 0
0.0059838 -0.00136806 0
0.00548662 -0.00130772 0
0.00501265 -0.00125519 0
0.00456114 -0.00120954 0
0.00413136 -0.00116914 0
0.00372257 -0.00113251 0
0.00333398 -0.00109853 0
0.00296466 -0.00106798 0
0.00261363 -0.0010431 0
-0.052721 -0.0445996 0
-0.0508204 -0.0440823 0
-0.0489199 -0.0435651 0
-0.0470193 -0.0430478 0
-0.0451187 -0.0425306 0
-0.0432181 -0.0420134 0
-0.0413175 -0.0414961 0
-0.039417 -0.0409789 0
-0.0375164 -0.0404616 0
-0.0356158 -0.0399444 0
-0.0337152 -0.0394271 0
-0.0318146 -0.0389099 0
-0.0299141 -0.0383927 0
-0.0280135 -0.0378754 0
-0.0261129 -0.0373582 0
-0.0242123 -0.0368409 0
-0.0223117 -0.0363237 0
-0.0204112 -0.0358065 0
-0.0185106 -0.0352892 0
-0.01661 -0.034772 0
-0.0147094 -0.0342547 0
-0.0128088 -0.0337375 0
-0.0109083 -0.0332202 0
-0.00900769 -0.032703 0
-0.00710711 -0.0321858 0
-0.00520653 -0.0316685 0
-0.00330595 -0.0311513 0
-0.00140537 -0.030634 0
0.00190689 -0.0299614 0
0.00332271 -0.0298498 0
0.00474133 -0.0297825 0
0.00616136 -0.0297597 0
0.0075814 -0.0297814 0
0.00900007 -0.0298477 0
0.010416 -0.0299583 0
0.0118278 -0.0301127 0
0.0132342 -0.0303103 0
0.0146339 -0.0305504 0
0.0160259 -0.0308322 0
0.0174091 -0.0311546 0
0.0187824 -0.0315166 0
0.020145 -0.031917 0
0.0214961 -0.0323546 0
0.0228351 -0.032828 0
0.0241613 -0.0333361 0
0.0254744 -0.0338774 0
0.0267738 -0.0344507 0
0.0280592 -0.0350545 0
0.0293306 -0.0356877 0
0.0305875 -0.0363488 0
0.0318301 -0.0370367 0
0.0330581 -0.0377501 0
0.0342717 -0.0384879 0
0.0354708 -0.0392489 0
0.0366556 -0.0400321 0
0.0378262 -0.0408363 0
0.0389828 -0.0416607 0
0.0401254 -0.0425042 0
0.0412543 -0.0433659 0
0.0423698 -0.0442451 0
0.043472 -0.0451408 0
0.0445612 -0.0460523 0
0.0456375 -0.0469789 0
0.0467013 -0.0479199 0
0.0477529 -0.0488746 0
0.0487923 -0.0498424 0
0.04982 -0.0508227 0
0.0508362 -0.051815 0
0.051841 -0.0528187 0
0.0528348 -0.0538333 0
0.0538178 -0.0548584 0
0.0547903 -0.0558935 0
0.0557524 -0.0569382 0
0.0567045 -0.0579922 0
0.0576467 -0.0590549 0
0.0585792 -0.0601261 0
0.0595024 -0.0612055 0
0.0604163 -0.0622926 0
0.0613212 -0.0633873 0
0.0622174 -0.0644891 0
0.0631049 -0.0655979 0
0.0639841 -0.0667134 0
0.064855 -0.0678353 0
0.0657179 -0.0689633 0
0.0665729 -0.0700974 0
0.0674202 -0.0712372 0
0.06826 -0.0723826 0
0.0690925 -0.0735333 0
0.0699178 -0.0746892 0
0.070736 -0.0758501 0
0.0715473 -0.0770159 0
0.0723518 -0.0781863 0
0.0731498 -0.0793612 0
0.0739412 -0.0805405 0
0.0747264 -0.081724 0
0.0755053 -0.0829116 0
0.0762781 -0.0841033 0
0.0770449 -0.0852987 0
0.0778059 -0.0864979 0
0.0785611 -0.0877007 0
0.0793108 -0.088907 0
0.0814681 -0.0912706 0
0.0828814 -0.0924245 0
0.0842946 -0.0935783 0
0.0857079 -0.0947322 0
0.0871211 -0.095886 0
0.0885344 -0.0970399 0
0.0899476 -0.0981937 0
0.0913609 -0.0993476 0
0.0927741 -0.100501 0
0.0941874 -0.101655 0
0.0956006 -0.102809 0
0.0970139 -0.103963 0
0.0984272 -0.105117 0
0.0998404 -0.106271 0
0.101254 -0.107424 0
0.102667 -0.108578 0
0.10408 -0.109732 0
0.105493 -0.110886 0
0.106907 -0.11204 0
0.10832 -0.113194 0
0.109733 -0.114348 0
0.111146 -0.115501 0
0.11256 -0.116655 0
0.113973 -0.117809 0
0.115386 -0.118963 0
0.116799 -0.120117 0
0.118213 -0.121271 0
0.119626 -0.122424 0
0.121039 -0.123578 0
0.122452 -0.124732 0
0.123866 -0.125886 0
0.125279 -0.12704 0
0.126692 -0.128194 0
0.128105 -0.129348 0
0.129519 -0.130501 0
0.130932 -0.131655 0
0.132345 -0.132809 0
0.133758 -0.133963 0
0.135172 -0.133216 0
0.135172 -0.131316 0
0.135172 -0.129415 0
0.135172 -0.127514 0
0.135172 -0.125614 0
0.135172 -0.123713 0
0.135172 -0.121813 0
0.135172 -0.119912 0
0.135172 -0.118012 0
0.135172 -0.116111 0
0.135172 -0.11421 0
0.135172 -0.11231 0
0.135172 -0.110409 0
0.135172 -0.108509 0
0.135172 -0.106608 0
0.135172 -0.104708 0
0.135172 -0.102807 0
0.135172 -0.100906 0
0.135172 -0.0990058 0
0.135172 -0.0971052 0
0.135172 -0.0952046 0
0.135172 -0.0933041 0
0.135172 -0.0914035 0
0.135172 -0.0895029 0
0.135172 -0.0876023 0
0.135172 -0.0857017 0
0.135172 -0.0838012 0
0.135172 -0.0819006 0
0.133758 -0.0788462 0
0.132345 -0.0776923 0
0.130932 -0.0765385 0
0.129519 -0.0753846 0
0.128105 -0.0742308 0
0.126692 -0.0730769 0
0.125279 -0.0719231 0
0.123866 -0.0707692 0
0.122452 -0.0696154 0
0.121039 -0.0684615 0
0.119626 -0.0673077 0
0.118213 -0.0661538 0
0.116799 -0.065 0
0.115386 -0.0638462 0
0.113973 -0.0626923 0
0.11256 -0.0615385 0
0.111146 -0.0603846 0
0.109733 -0.0592308 0
0.10832 -0.0580769 0
0.106907 -0.0569231 0
0.105493 -0.0557692 0
0.10408 -0.0546154 0
0.102667 -0.0534615 0
0.101254 -0.0523077 0
0.0998404 -0.0511538 0
0.0984272 -0.05 0
0.0970139 -0.0488462 0
0.0956006 -0.0476923 0
[...]
CELL_DATA 13116
SCALARS rho float
LOOKUP_TABLE default
0.5977
0.5977
0.5977
0.5977
0.5977
0.657632
0.590867
0.5977
0.5977
0.5977
0.56298
0.5977
0.5977
0.597699
0.5977
0.653346
0.5977
0.5977
0.59773
0.547803
0.5977
0.5977
0.5977
0.5977
0.5977
0.5977
0.5977
0.5977
0.5977
0.5977
0.683595
0.5977
0.5977
0.5977
0.593874
0.5977
0.5977
0.5977
0.681288
0.5977
0.60102
0.5977
0.5977
0.5977
0.597704
0.597715
0.5977
0.597703
0.5977
0.5977
0.5977
0.5977
0.597341
0.5977
0.5977
0.5977
0.5977
0.5977
0.5977
0.5977
0.597699
0.5977
0.5977
0.682261
0.683867
0.597667
0.597887
0.5977
0.597714
0.683758
0.5977
0.5977
0.5977
0.597699
0.683474
0.597686
0.5977
0.5977
0.571914
0.5977
0.5977
0.5977
0.5977
0.5977
0.5977
0.5977
0.595896
0.5977
0.5977
0.391184
0.5977
0.5977
0.5977
0.5977
0.5977
0.5977
0.5977
0.683873
0.683494
0.5977
0.5977
0.5977
0.598756
0.5977
0.5977
0.5977
0.5977
0.5977
0.5977
0.5977
0.5977
0.5977
0.5977
0.5977
0.5977
0.597761
0.597534
0.5977
0.5977
0.597703
0.5977
0.5977
0.597708
0.5977
0.5977
0.5977
0.596532
0.5977
0.5977
0.5977
0.5977
0.5977
0.5977
0.5977
0.5977
0.5977
0.695731
0.5977
0.5977
0.597703
0.5977
0.5977
0.5977
0.5977
0.5977
0.5977
0.593165
0.5977
0.5977
0.5977
0.5977
0.5977
0.597705
0.596465
0.5977
0.5977
0.5977
0.5977
0.684108
0.5977
0.5977
0.565086
0.5977
0.5977
0.5977
0.5977
0.5977
0.5977
0.592903
0.5977
0.5977
0.694428
0.5977
0.5977
0.597868
0.5977
0.5977
0.5977
0.5977
0.66222
0.507792
0.5977
0.5977
0.5977
0.656522
0.5977
0.596409
0.600164
0.5977
0.5977
0.5977
0.5977
0.683914
0.5977
0.5977
0.659942
0.5977
0.598863
0.5977
0.5977
0.5977
0.5977
0.5977
0.5977
0.5977
0.5977
0.5977
0.5977
0.5977
0.520379
0.597677
0.602493
0.5977
0.449123
0.424415
0.596937
0.5977
0.680698
0.5977
0.5977
0.5977
0.598021
0.5977
0.502971
0.5977
0.5977
0.5977
0.5977
0.597902
0.5977
0.5977
0.5977
0.683546
0.5977
0.683837
0.5977
0.683767
0.5977
0.5977
0.5977
0.683585
0.663554
0.690908
0.68341
0.5977
0.5977
0.5977
0.5977
0.683784
0.583033
0.5977
0.5977
0.5977
0.683659
0.5977
0.5977
0.5977
0.55683
0.5977
0.5977
0.5977
0.5977
0.5977
0.5977
0.58863
0.597701
0.597393
0.5977
0.5977
0.583121
0.5977
0.5977
0.683588
0.5977
0.5977
0.684016
0.5977
0.683843
0.5977
0.559134
0.593758
0.5977
0.5977
0.5977
0.5977
0.5977
0.5977
0.5977
0.597583
0.5977
0.5977
0.59387
0.538447
0.597178
0.5977
0.5977
0.5977
0.5977
0.5977
0.578376
0.602041
0.5977
0.5977
0.5977
0.678501
0.5977
0.599947
0.596887
0.655317
0.5977
0.5977
0.5977
0.5977
0.5977
0.5977
0.598072
0.597698
0.614358
0.5977
0.5977
0.462416
0.5977
0.5977
0.597154
0.5977
0.5977
0.5977
0.5977
0.5977
0.595918
0.597701
0.5977
0.597697
0.5977
0.5977
0.5977
0.5977
0.5977
0.5977
0.588346
0.5977
0.5977
0.682801
0.5977
0.5977
0.5977
0.5977
0.5977
0.595857
0.5977
0.5977
0.5977
0.693638
0.596015
0.5977
0.5977
0.5977
0.5977
0.594946
0.5977
0.5977
0.5977
0.590039
0.5977
0.59767
0.5977
0.597709
0.5977
0.5977
0.367812
0.5977
0.683789
0.653099
0.5977
0.5977
0.5977
0.5977
0.5977
0.509536
0.657928
0.501552
0.5977
0.5977
0.5977
0.5977
0.5977
0.5977
0.594852
0.5977
0.5977
0.5977
0.5977
0.59779
0.5977
0.5977
0.5977
0.592343
0.5977
0.5977
0.5977
0.5977
0.598576
0.5977
0.5977
0.5977
0.5977
0.5977
0.5977
0.5977
0.5977
0.67118
0.5977
0.5977
0.5977
0.5977
0.5977
0.5977
0.597278
0.597814
0.683667
0.5977
0.514989
0.440064
0.594328
0.5977
0.597666
0.5977
0.599455
0.597659
0.5977
0.389464
0.646315
0.5977
0.5977
0.5977
0.5977
0.5977
0.375623
0.594413
0.378946
0.5977
0.5926
0.505369
0.5977
0.5977
0.500003
0.5977
0.5977
0.5977
0.5977
0.5977
0.5977
0.5977
0.398283
0.5977
0.597701
0.5977
0.5977
0.5977
0.597628
0.5977
0.5977
0.5977
0.5977
0.5977
0.5977
0.592072
0.684031
0.5977
0.5977
0.683585
0.5977
0.597533
0.5977
0.5977
0.5977
0.5977
0.5977
0.5977
0.5977
0.53938
0.5977
0.597699
0.5977
0.5977
0.597681
0.5977
0.597697
0.5977
0.5977
0.5977
0.5977
0.5977
0.5977
0.5977
0.597618
0.5977
0.5977
0.5977
0.5977
0.5977
0.5977
0.597702
0.5977
0.5977
0.5977
0.59742
0.5977
0.5977
0.683899
0.5977
0.5977
0.5977
0.483771
0.5977
0.5977
0.5977
0.5977
0.5977
0.5977
0.5977
0.5977
0.5977
0.5977
0.5977
0.5977
0.5977
0.597861
0.440761
0.597701
0.5977
0.5977
0.41885
0.5977
0.5977
0.5977
0.5977
0.5977
0.451384
0.683095
0.5977
0.5977
0.5977
0.597567
0.5977
0.371699
0.37101
0.5977
0.474867
0.5977
0.597693
0.5977
0.5977
0.5977
0.5977
0.597816
0.5977
0.371073
0.512619
0.5977
0.5977
0.5977
0.5977
0.5977
0.5977
0.595013
0.5977
0.616161
0.5977
0.433506
0.5977
0.5977
0.5977
0.598624
0.5977
0.5977
0.5977
0.5977
0.5977
0.5977
0.5977
0.5977
0.5977
0.683509
0.5977
0.5977
0.5977
0.5977
0.597625
0.690888
0.5977
0.683708
0.5977
0.367399
0.5977
0.5977
0.684018
0.5977
0.586386
0.5977
0.682404
0.5977
0.58387
0.5977
0.428868
0.683024
0.5977
0.660786
0.5977
0.5977
0.5977
0.5977
0.5977
0.5977
0.5977
0.5977
0.5977
0.597411
0.59769
0.664666
0.597685
0.606306
0.5977
0.683716
0.403051
0.5977
0.5977
0.5977
0.609351
0.5977
0.597717
0.5977
0.68392
0.5977
0.5977
0.563012
0.5977
0.5977
0.595243
0.683894
0.5977
0.596836
0.5977
0.5977
0.5977
0.600062
0.597701
0.5977
0.5977
0.577005
0.5977
0.5977
0.5977
0.59758
0.559519
0.5977
0.5977
0.5977
0.5977
0.600188
0.558264
0.5977
0.5977
0.5977
0.5977
0.5977
0.5977
0.598343
0.5977
0.5977
0.5977
0.5977
0.59804
0.5977
0.5977
0.5977
0.5977
0.5977
0.5977
0.5977
0.5977
0.5977
0.5977
0.683857
0.5977
0.5977
0.5977
0.5977
0.5977
0.5977
0.5977
0.5977
0.597699
0.604956
0.5977
0.5977
0.681675
0.5977
0.5977
0.5977
0.5977
0.5977
0.5977
0.5977
0.5977
0.597699
0.702372
0.5977
0.597703
0.5977
0.449945
0.5977
0.5977
0.5977
0.5977
0.5977
0.513495
0.5977
0.5977
0.538297
0.5977
0.5977
0.5977
0.5977
0.5977
0.5977
0.5977
0.5977
0.5977
0.684051
0.5977
0.446988
0.5977
0.5977
0.5977
0.5977
0.607974
0.5977
0.5977
0.524296
0.5977
0.5977
0.5977
0.5977
0.683909
0.5977
0.5977
0.5977
0.5977
0.5977
0.372258
0.367754
0.587503
0.49551
0.5977
0.5977
0.683332
0.5977
0.522799
0.597719
0.5977
0.597695
0.5977
0.5977
0.5977
0.598757
0.5977
0.5977
0.509449
0.37179
0.687617
0.5977
0.450942
0.597554
0.61387
0.5977
0.371783
0.5977
0.5977
0.5977
0.675706
0.603867
0.597564
0.597698
0.583138
0.5977
0.5977
0.5977
0.5977
0.5977
0.5977
0.59872
0.5977
0.385635
0.5977
0.391208
0.61239
0.5977
0.684138
0.5977
0.377721
0.5977
0.683896
0.5977
0.597695
0.5977
0.671262
0.5977
0.5977
0.5977
0.68528
0.5977
0.504887
0.605766
0.683869
0.5977
0.5977
0.702114
0.5977
0.684716
0.5977
0.597686
0.5977
0.383722
0.684154
0.5977
0.387143
0.5977
0.5977
0.5977
0.5977
0.5977
0.5977
0.5977
0.5977
0.5977
0.5977
0.423111
0.5977
0.683928
0.5977
0.5977
0.597691
0.5977
0.5977
0.5977
0.5977
0.598282
0.590979
0.5977
0.5977
0.5977
0.608528
0.441641
0.5977
0.5977
0.5977
0.5977
0.685238
0.5977
0.5977
0.597695
0.5977
0.5977
0.5977
0.5977
0.5977
0.655741
0.5977
0.5977
0.5977
0.5977
0.5977
0.597741
0.5977
0.367255
0.5977
0.5977
0.5977
0.5977
0.598794
0.5977
0.5977
0.5977
0.5977
0.5977
0.688501
0.684005
0.5977
0.5977
0.680878
0.5977
0.5977
0.5977
0.5977
0.5977
0.5977
0.5977
0.5977
0.5977
0.5977
0.5977
0.596999
0.699012
0.562176
0.5977
0.5977
0.5977
0.5977
0.5977
0.5977
0.5977
0.682721
0.683711
0.5977
0.683116
0.5977
0.5977
0.5977
0.5977
0.5977
0.62197
0.597861
0.5977
0.683994
0.5977
0.5977
0.5977
0.5977
0.5977
0.367313
0.684161
0.582743
0.5977
0.597581
0.5977
0.5977
0.5977
0.5977
0.5977
0.5977
0.5977
0.679632
0.530904
0.5977
0.5977
0.5977
0.5977
0.683805
0.5977
0.607467
0.5977
0.5977
0.5977
0.597731
0.5977
0.37046
0.5977
0.5977
0.68913
0.683586
0.69327
0.5977
0.5977
0.5977
0.5977
0.370721
0.5977
0.690195
0.5977
0.682022
0.597685
0.615081
0.5977
0.5977
0.597699
0.5977
0.5977
0.5977
0.5977
0.5977
0.598223
0.683744
0.589701
0.5977
0.5977
0.590997
0.5977
0.597699
0.5977
0.5977
0.433493
0.5977
0.5977
0.5977
0.5977
0.594155
0.593843
0.5977
0.5977
0.597669
0.683828
0.5977
0.5977
0.5977
0.5977
0.5977
0.518744
0.5977
0.570049
0.5977
0.5977
0.5977
0.59768
0.5977
0.5977
0.597701
0.5977
0.5977
0.5977
0.599208
0.5977
0.5977
0.597687
0.559192
0.5977
0.680634
0.5977
0.5977
0.5977
0.681859
0.5977
0.5977
0.597711
0.5977
0.5977
0.588119
0.5977
0.5977
0.5977
0.5977
0.5977
0.605804
0.5977
0.5977
0.436357
0.5977
0.5977
0.597618
0.5977
0.701055
0.5977
0.595663
0.599742
0.49332
0.5977
0.5977
0.421937
0.5977
0.5977
0.5977
0.683358
0.5977
0.5977
0.5977
0.5977
0.5977
0.5977
0.404765
0.597469
0.587957
0.5977
0.5977
0.5977
0.5977
0.5977
0.682911
0.5977
0.597698
0.5977
0.5977
0.683158
0.57497
0.683774
0.5977
0.5977
0.5977
0.5977
0.5977
0.5977
0.5977
0.5977
0.668159
0.5977
0.5977
0.5977
0.5977
0.370936
0.613905
0.5977
0.5977
0.5977
0.5977
0.5977
0.5977
0.5977
0.5977
0.588458
0.5977
0.5977
0.5977
0.5977
0.5977
0.5977
0.5977
0.5977
0.5977
0.5977
0.683432
0.5977
0.583366
0.5977
0.5977
0.5977
0.5977
0.5977
0.5977
0.5977
0.597703
0.5977
0.606043
0.5977
0.5977
0.5977
0.5977
0.5977
0.5977
0.5977
0.5977
0.655137
0.5977
0.5977
0.703516
0.5977
0.596142
0.5977
0.5977
0.668663
0.5977
0.5977
0.597699
0.5977
0.5977
0.599306
0.5977
0.5977
0.5977
0.526164
0.5977
0.5977
0.5977
0.5977
0.5977
0.668982
0.5977
0.5977
0.5977
0.5977
0.683561
0.597759
0.5977
0.5977
0.5977
0.5977
0.5977
0.5977
0.5977
0.5977
0.5977
0.666602
0.5977
0.5977
0.5977
0.5977
0.655575
0.613177
0.5977
0.5977
0.683758
0.5977
0.5977
0.590397
0.5977
0.593951
0.5977
0.5977
0.416896
0.424611
0.5977
0.598229
0.5977
0.5977
0.598008
0.5977
0.5977
0.483311
0.5977
0.5977
0.649673
0.5977
0.5977
0.683429
0.5977
0.670003
0.682878
0.5977
0.5977
0.5977
0.5977
0.5977
0.5977
0.5977
0.5977
0.533183
0.5977
0.5977
0.598707
0.597684
0.5977
0.5977
0.60091
0.531272
0.5977
0.5977
0.70078
0.5977
0.683884
0.494103
0.5977
0.479367
0.5977
0.5977
0.5977
0.5977
0.5977
0.5977
0.595477
0.574517
0.5977
0.683285
0.5977
0.5977
0.597664
0.595516
0.597693
0.5977
0.5977
0.5977
0.5977
0.5977
0.5977
0.5977
0.5977
0.5977
0.5977
0.5977
0.519083
0.683924
0.683928
0.597693
0.5977
0.5977
0.5977
0.5977
0.5977
0.5977
0.5977
0.5977
0.5977
0.458402
0.677685
0.5977
0.37984
0.5977
0.597647
0.597705
0.5977
0.5977
0.5977
0.5977
0.5977
0.5977
0.5977
0.597702
0.5977
0.674555
0.597759
0.5977
0.5977
0.5977
0.684108
0.5977
0.59774
0.5977
0.5977
0.5977
0.5977
0.5977
0.598594
0.68289
0.5977
0.60422
0.5977
0.683424
0.59757
0.597662
0.371859
0.5977
0.586274
0.597685
0.5977
0.5977
0.597674
0.5977
0.5977
0.5977
0.412439
0.683431
0.681389
0.5977
0.596399
0.5977
0.5977
0.68297
0.5977
0.5977
0.594356
0.532151
0.600916
0.531888
0.5977
0.5977
0.687086
0.4239
0.5977
0.596378
0.5977
0.692454
0.5977
0.5977
0.598522
0.5977
0.490383
0.5977
0.5977
0.5977
0.403127
0.703264
0.5977
0.679764
0.5977
0.554846
0.5977
0.5977
0.5977
0.5977
0.5977
0.5977
0.5977
0.5977
0.5977
0.5977
0.580668
0.5977
0.597687
0.5977
0.5977
0.683323
0.426298
0.5977
0.5977
0.5977
0.683781
0.519752
0.5977
0.5977
0.5977
0.5977
0.5977
0.514166
0.5977
0.598446
0.68346
0.5977
0.5977
0.5977
0.5977
0.5977
0.683368
0.68332
0.5977
0.5977
0.665157
0.5977
0.5977
0.5977
0.5977
0.5977
0.642915
0.5977
0.598313
0.5977
0.451809
0.5977
0.5977
0.373439
0.5977
0.5977
0.597699
0.5977
0.597741
0.5977
0.5977
0.5977
0.5977
0.5977
0.597699
0.659372
0.5977
0.5986
0.597232
0.5977
0.598242
0.5977
0.601102
0.5977
0.653454
0.5977
0.5977
0.5977
0.5977
0.55524
0.5977
0.597675
0.439382
0.5977
0.5977
0.5977
0.5977
0.611166
0.5977
0.659821
0.5977
0.5977
0.5977
0.5977
0.378237
0.600754
0.5977
0.5977
0.5977
0.5977
0.5977
0.5977
0.5977
0.5977
0.623778
0.5977
0.5977
0.5977
0.5977
0.5977
0.5977
0.5977
0.5693
0.5977
0.5977
0.5977
0.5977
0.5977
0.5977
0.618901
0.5977
0.5977
0.5977
0.575635
0.5977
0.5977
0.5977
0.5977
0.5977
0.5977
0.676726
0.489058
0.597697
0.5977
0.5977
0.5977
0.5977
0.5977
0.597919
0.5977
0.5977
0.5977
0.5977
0.5977
0.597698
0.5977
0.597692
0.5977
0.683886
0.5977
0.5977
0.5977
0.5977
0.5977
0.5977
0.5977
0.597445
0.5977
0.683827
0.5977
0.5977
0.5977
0.5977
0.704011
0.5977
0.5977
0.595975
0.472128
0.5977
0.5977
0.369243
0.5977
0.597701
0.5977
0.583858
0.5977
0.5977
0.5977
0.5977
0.533262
0.5977
0.694392
0.378781
0.651303
0.383169
0.5977
0.5977
0.5977
0.585062
0.5977
0.5977
0.5954
0.5977
0.5977
0.5977
0.5977
0.5977
0.5977
0.5977
0.593745
0.5977
0.521913
0.683521
0.6839
0.5977
0.5977
0.5977
0.5977
0.67948
0.5977
0.5977
0.5977
0.525017
0.5977
0.597687
0.5977
0.5977
0.5977
0.5977
0.5977
0.5977
0.5977
0.5977
0.5977
0.597698
0.597698
0.5977
0.5977
0.5977
0.575506
0.5977
0.616458
0.5977
0.5977
0.5977
0.5977
0.374324
0.5977
0.5977
0.5977
0.5977
0.5977
0.5977
0.598093
0.5977
0.5977
0.5977
0.610624
0.5977
0.5977
0.5977
0.5977
0.59575
0.5977
0.5977
0.5977
0.5977
0.5977
0.5977
0.541114
0.684082
0.5977
0.503763
0.5977
0.5977
0.5977
0.5977
0.5977
0.5977
0.5977
0.5977
0.597361
0.5977
0.597693
0.55473
0.5977
0.683735
0.5977
0.524942
0.422876
0.5977
0.5977
0.597845
0.5977
0.430703
0.5977
0.597759
0.5977
0.5977
0.5977
0.5977
0.665483
0.5977
0.371507
0.592152
0.5977
0.491856
0.5977
0.5977
0.679528
0.597713
0.5977
0.451552
0.695549
0.533834
0.598347
0.5977
0.39457
0.5977
0.597526
0.597732
0.597581
0.701217
0.5977
0.5977
0.5977
0.5977
0.5977
0.5977
0.585193
0.5977
0.5977
0.5977
0.5977
0.5977
0.579615
0.389241
0.5977
0.553549
0.556074
0.5977
0.5977
0.597701
0.5977
0.5977
0.5977
0.5977
0.597824
0.674026
0.57923
0.5977
0.5977
0.5977
0.5977
0.5977
0.5977
0.597701
0.5977
0.5977
0.5977
0.5977
0.5977
0.5977
0.5977
0.5977
0.5977
0.598399
0.684936
0.5977
0.699667
0.5977
0.5977
0.5977
0.689827
0.671018
0.5977
0.5977
0.5977
0.597704
0.5977
0.5977
0.5977
0.5977
0.5977
0.596023
0.5977
0.581682
0.5977
0.575994
0.580434
0.5977
0.5977
0.5977
0.594711
0.5977
0.5977
0.418594
0.5977
0.5977
0.5977
0.5977
0.5977
0.5977
0.597047
0.5977
0.5977
0.5977
0.5977
0.5977
0.5977
0.382319
0.5977
0.5977
0.5977
0.597884
0.600002
0.5977
0.382381
0.5977
0.5977
0.5977
0.677228
0.597741
0.367782
0.5977
0.5977
0.5977
0.5977
0.5977
0.37345
0.482358
0.5977
0.5977
0.5977
0.5977
0.369311
0.5977
0.5977
0.5977
0.5977
0.5977
0.5977
0.683805
0.5977
0.597698
0.5977
0.597884
0.5977
0.5977
0.5977
0.5977
0.368094
0.512233
0.5977
0.471787
0.388146
0.5977
0.5977
0.597544
0.5977
0.597457
0.684066
0.5977
0.5977
0.683641
0.5977
0.67971
0.5977
0.519464
0.5977
0.668538
0.5977
0.5977
0.5977
0.5977
0.5977
0.631019
0.574741
0.597701
0.5977
0.684071
0.5977
0.594686
0.5977
0.459542
0.45242
0.5977
0.5977
0.5977
0.583015
0.5977
0.5977
0.5977
0.5977
0.5977
0.386374
0.5977
0.5977
0.5977
0.5977
0.5977
0.683686
0.597699
0.5977
0.597703
0.5977
0.403951
0.5977
0.5977
0.5977
0.5977
0.5977
0.5977
0.5977
0.5977
0.5977
0.5977
0.63368
0.597781
0.432312
0.5977
0.45651
0.5977
0.597702
0.5977
0.5977
0.5977
0.5977
0.5977
0.402509
0.5977
0.5977
0.5977
0.5977
0.528658
0.5977
0.5977
0.5977
0.583735
0.5977
0.598386
0.5977
0.5977
0.5977
0.5977
0.371747
0.5977
0.5977
0.5977
0.597244
0.375457
0.5977
0.5977
0.5977
0.5977
0.5977
0.625435
0.5977
0.5977
0.525215
0.5977
0.5977
0.5977
0.5977
0.5977
0.583275
0.5977
0.5977
0.5977
0.5977
0.5977
0.5977
0.5977
0.597705
0.5977
0.5977
0.5977
0.5977
0.588914
0.592321
0.5977
0.5977
0.5977
0.5977
0.5977
0.5977
0.383036
0.5977
0.683447
0.5977
0.591201
0.5977
0.5977
0.5977
0.5977
0.5977
0.5977
0.5977
0.5977
0.5977
0.692796
0.5977
0.703427
0.5977
0.5977
0.64132
0.599572
0.597734
0.5977
0.5977
0.683674
0.597666
0.598622
0.5977
0.4841
0.5977
0.5977
0.369205
0.58817
0.5977
0.5977
0.597693
0.5977
0.5977
0.5977
0.5977
0.5977
0.5977
0.671297
0.5977
0.5977
0.597868
0.5977
0.5977
0.523555
0.5977
0.5977
0.400772
0.5977
0.5977
0.684005
0.5977
0.597159
0.5977
0.5977
0.5977
0.5984
0.5977
0.5977
0.5977
0.5977
0.5977
0.5977
0.683452
0.5977
0.5977
0.468695
0.5977
0.5977
0.5977
0.5977
0.659005
0.474672
0.5977
0.58241
0.5977
0.5977
0.597862
0.5977
0.5977
0.49246
0.597704
0.5977
0.5977
0.684449
0.597658
0.5977
0.5977
0.5977
0.5977
0.5977
0.5977
0.5977
0.5977
0.5977
0.5977
0.5977
0.5977
0.5977
0.5977
0.5977
0.5977
0.683702
0.5977
0.5977
0.5977
0.5977
0.5977
0.426332
0.5977
0.5977
0.682371
0.5977
0.5977
0.5977
0.5977
0.5977
0.426769
0.584524
0.598774
0.683975
0.5977
0.5977
0.683791
0.390622
0.5977
0.5977
0.5977
0.5977
0.5977
0.5977
0.581822
0.5977
0.5977
0.5977
0.5977
0.5977
0.5977
0.5977
0.5977
0.5977
0.5977
0.5977
0.5977
0.5977
0.5977
0.5977
0.5977
0.5977
0.592408
0.5977
0.5977
0.5977
0.5977
0.5977
0.5977
0.5977
0.597691
0.5977
0.5977
0.372017
0.5977
0.5977
0.597288
0.5977
0.5977
0.692159
0.5977
0.436452
0.597765
0.5977
0.5977
0.5977
0.5977
0.5977
0.683876
0.5977
0.5977
0.5977
0.5977
0.68197
0.597565
0.494601
0.5977
0.5977
0.5977
0.5977
0.645122
0.5977
0.5977
0.5977
0.5977
0.680873
0.5977
0.434168
0.597761
0.5977
0.5977
0.5977
0.597506
0.5977
0.597694
0.5977
0.5977
0.5977
0.504638
0.5977
0.5977
0.5977
0.5977
0.598801
0.5977
0.5977
0.5977
0.5977
0.5977
0.5977
0.5977
0.5977
0.597708
0.5977
0.600155
0.658463
0.5977
0.5977
0.5977
0.5977
0.5977
0.5977
0.530931
0.5977
0.5977
0.5977
0.653988
0.5977
0.5977
0.367864
0.5977
0.5977
0.5977
0.5977
0.5977
0.5977
0.5977
0.5977
0.5977
0.5977
0.5977
0.432602
0.5977
0.5977
0.5977
0.5977
0.5977
0.5977
0.5977
0.5977
0.378359
0.525737
0.683731
0.5977
0.5977
0.5977
0.5977
0.5977
0.5977
0.684093
0.5977
0.367364
0.5977
0.369856
0.5977
0.5977
0.5977
0.5977
0.683891
0.5977
0.5977
0.5977
0.486381
0.5977
0.5977
0.5977
0.5977
0.5977
0.5977
0.683951
0.367807
0.701852
0.683788
0.54668
0.5977
0.5977
0.5977
0.371874
0.591755
0.5977
0.5977
0.597703
0.5977
0.5977
0.5977
0.5977
0.5977
0.5977
0.370093
0.5977
0.455792
0.5977
0.526741
0.5977
0.5977
0.5977
0.5977
0.589598
0.683596
0.597664
0.536462
0.5977
0.5977
0.5977
0.5977
0.5977
0.5977
0.683807
0.5977
0.5977
0.5977
0.5977
0.5977
0.514161
0.5977
0.683638
0.5977
0.371026
0.5977
0.5977
0.5977
0.5977
0.5977
0.5977
0.5977
0.5977
0.5977
0.5977
0.5977
0.5977
0.5977
0.5977
0.462296
0.5977
0.5977
0.506144
0.5977
0.5977
0.5977
0.5977
0.5977
0.5977
0.5977
0.5977
0.5977
0.549047
0.5977
0.481491
0.5977
0.5977
0.543844
0.5977
0.680711
0.5977
0.5977
0.5977
0.5977
0.5977
0.5977
0.5977
0.5977
0.605213
0.5977
0.5977
0.5977
0.5977
0.5977
0.597908
0.5977
0.597699
0.5977
0.5977
0.5977
0.5977
0.432917
0.5977
0.5977
0.5977
0.5977
0.5977
0.5977
0.5977
0.5977
0.564102
0.5977
0.367692
0.5977
0.5977
0.597726
0.5977
0.5977
0.5977
0.5977
0.691934
0.5977
0.5977
0.5977
0.597699
0.597582
0.5977
0.5977
0.5977
0.597712
0.683488
0.5977
0.5977
0.644362
0.5977
0.692464
0.5977
0.5977
0.5977
0.5977
0.5977
0.691998
0.5977
0.5977
0.5977
0.5977
0.5977
0.5977
0.683803
0.5977
0.683622
0.5977
0.54793
0.684025
0.5977
0.5977
0.555196
0.370161
0.597606
0.5977
0.385477
0.597694
0.5977
0.5977
0.58341
0.5977
0.597709
0.5977
0.600383
0.5977
0.689201
0.5977
0.5977
0.5977
0.597703
0.5977
0.5977
0.597696
0.5977
0.5977
0.420511
0.5977
0.5977
0.5977
0.470887
0.683688
0.5977
0.5977
0.591604
0.5977
0.5977
0.38708
0.5977
0.5977
0.5977
0.5977
0.5977
0.5977
0.5977
0.5977
0.686639
0.5977
0.385734
0.5977
0.5977
0.5977
0.5977
0.5977
0.5977
0.480922
0.5977
0.683628
0.5977
0.5977
0.5977
0.5977
0.5977
0.5977
0.5977
0.5977
0.5977
0.455404
0.597333
0.5977
0.5977
0.5977
0.5977
0.5977
0.5977
0.5977
0.5977
0.5977
0.5977
0.462293
0.396152
0.5977
0.5977
0.703858
0.5977
0.5977
0.5977
0.5977
0.5977
0.5977
0.5977
0.454133
0.5977
0.5977
0.5977
0.5977
0.431096
0.5977
0.597699
0.5977
0.5977
0.5977
0.5977
0.410526
0.528996
0.5977
0.5977
0.663982
0.5977
0.446134
0.5977
0.426603
0.5977
0.597704
0.5977
0.544589
0.5977
0.680436
0.5977
0.5977
0.5977
0.5977
0.669931
0.5977
0.5977
0.5977
0.551935
0.5977
0.5977
0.701906
0.591167
0.5977
0.5977
0.5977
0.5977
0.5977
0.6835
0.683642
0.5977
0.5977
0.5977
0.5977
0.683364
0.597628
0.3879
0.5977
0.5977
0.5977
0.415755
0.655753
0.5977
0.5977
0.5977
0.5977
0.5977
0.5977
0.585843
0.683652
0.5977
0.574033
0.598448
0.5977
0.5977
0.5977
0.5977
0.5977
0.5977
0.546925
0.602508
0.5977
0.5977
0.389582
0.682974
0.5977
0.5977
0.5977
0.5977
0.597701
0.5977
0.5977
0.597431
0.5977
0.5977
0.5977
0.676309
0.5977
0.597701
0.5977
0.5977
0.5977
0.5977
0.5977
0.597696
0.547156
0.5977
0.5977
0.5977
0.649359
0.5977
0.5977
0.5977
0.5977
0.609716
0.5977
0.5977
0.5977
0.375826
0.691962
0.470039
0.5977
0.5977
0.5977
0.5977
0.5977
0.5977
0.5977
0.5977
0.596657
0.5977
0.692111
0.593368
0.689048
0.5977
0.5977
0.597695
0.600573
0.5977
0.5977
0.5977
0.597698
0.5977
0.459596
0.5977
0.675889
0.5977
0.5977
0.5977
0.5977
0.5977
0.5977
0.5977
0.5977
0.5977