# vtk DataFile Version 1.0
unstructured grid
ascii
DATASET UNSTRUCTURED_GRID
points 13672 float
0.0796578 -0.059106 0
0.00128732 0.00159165 0
0.00227961 -0.00102548 0
0.0791586 -0.0598787 0
-0.0546216 0.01 0
0.000495206 0.025 0
0.0800549 -0.035 0
0.135172 -0.08 0
-0.0546216 -0.0451168 0
0.000495206 -0.0301168 0
0.0800549 -0.0901168 0
0.135172 -0.135117 0
-0.0546216 -0.0451168 -0.00551168
0.000495206 -0.0301168 -0.00551168
0.0800549 -0.0901168 -0.00551168
0.135172 -0.135117 -0.00551168
0.135172 -0.08 -0.00551168
0.0800549 -0.035 -0.00551168
0.000495206 0.025 -0.00551168
-0.0546216 0.01 -0.00551168
0.00128732 0.00159165 -0.00551168
0.00227961 -0.00102548 -0.00551168
0.0791586 -0.0598787 -0.00551168
0.0796578 -0.059106 -0.00551168
0.00165953 -0.000990923 0
0.00119576 -0.000874076 0
0.000866021 -0.000641801 0
0.000645147 -0.000349912 0
0.00052235 -1.7281e-05 0
0.00049972 0.000348016 0
0.000601632 0.000737716 0
0.000861774 0.0011403 0
0.00157235 0.00183217 0
0.00188647 0.00206725 0
0.00222612 0.00230203 0
0.00258713 0.00254351 0
0.00296826 0.00279524 0
0.00337118 0.00305664 0
0.00379785 0.00332658 0
0.00425045 0.00360349 0
0.00473139 0.00388521 0
0.0052432 0.00416895 0
0.0057881 0.00445204 0
0.00636753 0.00473281 0
0.00698281 0.00500961 0
0.00763526 0.00528058 0
0.00832616 0.00554366 0
0.00905691 0.00579603 0
0.00982918 0.00603333 0
0.0106445 0.00625033 0
0.0115038 0.00644128 0
0.0124073 0.00660297 0
0.0133543 0.00673414 0
0.0143444 0.00683382 0
0.0153769 0.00690031 0
0.0164512 0.00693173 0
0.0175666 0.00692547 0
0.0187219 0.00687822 0
0.0199156 0.00678477 0
0.0211454 0.00663864 0
0.0224084 0.00643275 0
0.0237018 0.00616676 0
0.0250249 0.00584739 0
0.026375 0.00547298 0
0.0277479 0.00503752 0
0.0291386 0.00453545 0
0.0305433 0.0039653 0
0.0319572 0.0033256 0
0.0333681 0.00260019 0
0.034775 0.00179799 0
0.0361793 0.000930615 0
0.0375798 3.12222e-06 0
0.0389689 -0.000988429 0
0.0403357 -0.00205109 0
0.041675 -0.00318283 0
0.0429849 -0.00437751 0
0.0442643 -0.00562904 0
0.0455126 -0.00693089 0
0.0467314 -0.00827518 0
0.0479204 -0.00965638 0
0.0490661 -0.0110799 0
0.0501515 -0.0125519 0
0.0511696 -0.0140695 0
0.0521492 -0.0156071 0
0.0531202 -0.0171411 0
0.0540851 -0.0186663 0
0.0550431 -0.0201798 0
0.0559923 -0.0216793 0
0.0569311 -0.0231626 0
0.0578582 -0.0246273 0
0.0587723 -0.0260715 0
0.0596721 -0.027493 0
0.0605563 -0.02889 0
0.0614241 -0.0302609 0
0.0622742 -0.0316042 0
0.063106 -0.0329183 0
0.0639186 -0.034202 0
0.0647113 -0.0354543 0
0.0654835 -0.0366743 0
0.0662345 -0.0378613 0
0.0669642 -0.0390145 0
0.0676726 -0.0401333 0
0.0683597 -0.0412172 0
0.0690246 -0.0422665 0
0.0696662 -0.0432819 0
0.0702841 -0.0442636 0
0.0708793 -0.0452111 0
0.0714538 -0.0461237 0
0.072009 -0.047001 0
0.0725452 -0.0478434 0
0.0730611 -0.0486524 0
0.073556 -0.0494294 0
0.0740291 -0.0501756 0
0.0744812 -0.0508916 0
0.0749138 -0.0515773 0
0.0753285 -0.0522331 0
0.0757266 -0.0528592 0
0.076109 -0.0534564 0
0.0764753 -0.0540264 0
0.0768243 -0.054571 0
0.0771553 -0.0550919 0
0.0774679 -0.0555901 0
0.0777617 -0.0560669 0
0.0780369 -0.056523 0
0.0782958 -0.0569578 0
0.0785421 -0.0573703 0
0.0787786 -0.0577603 0
0.0790073 -0.0581279 0
0.0792295 -0.058474 0
0.0794462 -0.0587995 0
0.0798803 -0.0594162 0
0.0800272 -0.0596588 0
0.0800357 -0.0598891 0
0.0799275 -0.0600784 0
0.0797205 -0.0601773 0
0.0794593 -0.0601051 0
0.0789155 -0.0596491 0
0.0786707 -0.0593963 0
0.0784111 -0.0591319 0
0.0781372 -0.0588542 0
0.0778566 -0.0585548 0
0.0775715 -0.0582308 0
0.0772803 -0.0578828 0
0.0769832 -0.0575099 0
0.0766822 -0.0571097 0
0.0763801 -0.0566796 0
0.0760759 -0.0562196 0
0.0757623 -0.0557337 0
0.0754359 -0.0552232 0
0.0750951 -0.0546879 0
0.0747379 -0.054128 0
0.0743626 -0.0535435 0
0.0739688 -0.0529338 0
0.0735559 -0.0522981 0
0.0731238 -0.0516357 0
0.0726718 -0.050946 0
0.0721991 -0.0502288 0
0.0717046 -0.049484 0
0.0711872 -0.0487117 0
0.0706461 -0.047912 0
0.0700804 -0.0470849 0
0.0694892 -0.0462308 0
0.0688718 -0.0453499 0
0.0682271 -0.0444431 0
0.0675544 -0.043511 0
0.0668527 -0.0425546 0
0.0661215 -0.0415748 0
0.06536 -0.040573 0
0.0645676 -0.0395504 0
0.0637439 -0.0385087 0
0.0628887 -0.0374493 0
0.062002 -0.0363741 0
0.0610838 -0.0352847 0
0.0601345 -0.0341831 0
0.0591547 -0.033071 0
0.0581456 -0.0319502 0
0.0571083 -0.0308224 0
0.0560444 -0.0296893 0
0.0549562 -0.028552 0
0.053845 -0.0274126 0
0.0527113 -0.0262746 0
0.051554 -0.0251427 0
0.0503724 -0.0240222 0
0.0491675 -0.0229164 0
0.047941 -0.0218282 0
0.0466955 -0.0207597 0
0.0454337 -0.0197126 0
0.0441592 -0.0186878 0
0.0428751 -0.0176863 0
0.0415841 -0.0167097 0
0.0402878 -0.0157609 0
0.0389879 -0.0148428 0
0.0376864 -0.0139575 0
0.0363853 -0.013107 0
0.0350871 -0.0122931 0
0.0337942 -0.0115164 0
0.0325095 -0.0107772 0
0.0312357 -0.0100756 0
0.0299758 -0.00941024 0
0.0287337 -0.00877784 0
0.0275126 -0.00817571 0
0.0263139 -0.00760375 0
0.0251376 -0.00706528 0
0.0239829 -0.0065649 0
0.0228537 -0.00609619 0
0.0217522 -0.00565563 0
0.0206795 -0.00524226 0
0.0196364 -0.00485507 0
0.0186233 -0.00449318 0
0.0176408 -0.00415577 0
0.016689 -0.00384204 0
0.0157682 -0.00355115 0
0.0148783 -0.00328218 0
0.0140192 -0.00303468 0
0.0131906 -0.00280795 0
0.0123925 -0.00260016 0
0.0116246 -0.00241012 0
0.0108864 -0.00223769 0
0.0101774 -0.00208212 0
0.00949701 -0.00194206 0
0.00884483 -0.0018163 0
0.0082202 -0.0017039 0
0.00762247 -0.00160391 0
0.00705097 -0.00151528 0
0.006505 -0.00143697 0
0.0059838 -0.00136806 0
0.00548662 -0.00130772 0
0.00501265 -0.00125519 0
0.00456114 -0.00120954 0
0.00413136 -0.00116914 0
0.00372257 -0.00113251 0
0.00333398 -0.00109853 0
0.00296466 -0.00106798 0
0.00261363 -0.0010431 0
-0.052721 -0.0445996 0
-0.0508204 -0.0440823 0
-0.0489199 -0.0435651 0
-0.0470193 -0.0430478 0
-0.0451187 -0.0425306 0
-0.0432181 -0.0420134 0
-0.0413175 -0.0414961 0
-0.039417 -0.0409789 0
-0.0375164 -0.0404616 0
-0.0356158 -0.0399444 0
-0.0337152 -0.0394271 0
-0.0318146 -0.0389099 0
-0.0299141 -0.0383927 0
-0.0280135 -0.0378754 0
-0.0261129 -0.0373582 0
-0.0242123 -0.0368409 0
-0.0223117 -0.0363237 0
-0.0204112 -0.0358065 0
-0.0185106 -0.0352892 0
-0.01661 -0.034772 0
-0.0147094 -0.0342547 0
-0.0128088 -0.0337375 0
-0.0109083 -0.0332202 0
-0.00900769 -0.032703 0
-0.00710711 -0.0321858 0
-0.00520653 -0.0316685 0
-0.00330595 -0.0311513 0
-0.00140537 -0.030634 0
0.00190689 -0.0299614 0
0.00332271 -0.0298498 0
0.00474133 -0.0297825 0
0.00616136 -0.0297597 0
0.0075814 -0.0297814 0
0.00900007 -0.0298477 0
0.010416 -0.0299583 0
0.0118278 -0.0301127 0
0.0132342 -0.0303103 0
0.0146339 -0.0305504 0
0.0160259 -0.0308322 0
0.0174091 -0.0311546 0
0.0187824 -0.0315166 0
0.020145 -0.031917 0
0.0214961 -0.0323546 0
0.0228351 -0.032828 0
0.0241613 -0.0333361 0
0.0254744 -0.0338774 0
0.0267738 -0.0344507 0
0.0280592 -0.0350545 0
0.0293306 -0.0356877 0
0.0305875 -0.0363488 0
0.0318301 -0.0370367 0
0.0330581 -0.0377501 0
0.0342717 -0.0384879 0
0.0354708 -0.0392489 0
0.0366556 -0.0400321 0
0.0378262 -0.0408363 0
0.0389828 -0.0416607 0
0.0401254 -0.0425042 0
0.0412543 -0.0433659 0
0.0423698 -0.0442451 0
0.043472 -0.0451408 0
0.0445612 -0.0460523 0
0.0456375 -0.0469789 0
0.0467013 -0.0479199 0
0.0477529 -0.0488746 0
0.0487923 -0.0498424 0
0.04982 -0.0508227 0
0.0508362 -0.051815 0
0.051841 -0.0528187 0
0.0528348 -0.0538333 0
0.0538178 -0.0548584 0
0.0547903 -0.0558935 0
0.0557524 -0.0569382 0
0.0567045 -0.0579922 0
0.0576467 -0.0590549 0
0.0585792 -0.0601261 0
0.0595024 -0.0612055 0
0.0604163 -0.0622926 0
0.0613212 -0.0633873 0
0.0622174 -0.0644891 0
0.0631049 -0.0655979 0
0.0639841 -0.0667134 0
0.064855 -0.0678353 0
0.0657179 -0.0689633 0
0.0665729 -0.0700974 0
0.0674202 -0.0712372 0
0.06826 -0.0723826 0
0.0690925 -0.0735333 0
0.0699178 -0.0746892 0
0.070736 -0.0758501 0
0.0715473 -0.0770159 0
0.0723518 -0.0781863 0
0.0731498 -0.0793612 0
0.0739412 -0.0805405 0
0.0747264 -0.081724 0
0.0755053 -0.0829116 0
0.0762781 -0.0841033 0
0.0770449 -0.0852987 0
0.0778059 -0.0864979 0
0.0785611 -0.0877007 0
0.0793108 -0.088907 0
0.0814681 -0.0912706 0
0.0828814 -0.0924245 0
0.0842946 -0.0935783 0
0.0857079 -0.0947322 0
0.0871211 -0.095886 0
0.0885344 -0.0970399 0
0.0899476 -0.0981937 0
0.0913609 -0.0993476 0
0.0927741 -0.100501 0
0.0941874 -0.101655 0
0.0956006 -0.102809 0
0.0970139 -0.103963 0
0.0984272 -0.105117 0
0.0998404 -0.106271 0
0.101254 -0.107424 0
0.102667 -0.108578 0
0.10408 -0.109732 0
0.105493 -0.110886 0
0.106907 -0.11204 0
0.10832 -0.113194 0
0.109733 -0.114348 0
0.111146 -0.115501 0
0.11256 -0.116655 0
0.113973 -0.117809 0
0.115386 -0.118963 0
0.116799 -0.120117 0
0.118213 -0.121271 0
0.119626 -0.122424 0
0.121039 -0.123578 0
0.122452 -0.124732 0
0.123866 -0.125886 0
0.125279 -0.12704 0
0.126692 -0.128194 0
0.128105 -0.129348 0
0.129519 -0.130501 0
0.130932 -0.131655 0
0.132345 -0.132809 0
0.133758 -0.133963 0
0.135172 -0.133216 0
0.135172 -0.131316 0
0.135172 -0.129415 0
0.135172 -0.127514 0
0.135172 -0.125614 0
0.135172 -0.123713 0
0.135172 -0.121813 0
0.135172 -0.119912 0
0.135172 -0.118012 0
0.135172 -0.116111 0
0.135172 -0.11421 0
0.135172 -0.11231 0
0.135172 -0.110409 0
0.135172 -0.108509 0
0.135172 -0.106608 0
0.135172 -0.104708 0
0.135172 -0.102807 0
0.135172 -0.100906 0
0.135172 -0.0990058 0
0.135172 -0.0971052 0
0.135172 -0.0952046 0
0.135172 -0.0933041 0
0.135172 -0.0914035 0
0.135172 -0.0895029 0
0.135172 -0.0876023 0
0.135172 -0.0857017 0
0.135172 -0.0838012 0
0.135172 -0.0819006 0
0.133758 -0.0788462 0
0.132345 -0.0776923 0
0.130932 -0.0765385 0
0.129519 -0.0753846 0
0.128105 -0.0742308 0
0.126692 -0.0730769 0
0.125279 -0.0719231 0
0.123866 -0.0707692 0
0.122452 -0.0696154 0
0.121039 -0.0684615 0
0.119626 -0.0673077 0
0.118213 -0.0661538 0
0.116799 -0.065 0
0.115386 -0.0638462 0
0.113973 -0.0626923 0
0.11256 -0.0615385 0
0.111146 -0.0603846 0
0.109733 -0.0592308 0
0.10832 -0.0580769 0
0.106907 -0.0569231 0
0.105493 -0.0557692 0
0.10408 -0.0546154 0
0.102667 -0.0534615 0
0.101254 -0.0523077 0
0.0998404 -0.0511538 0
0.0984272 -0.05 0
0.0970139 -0.0488462 0
0.0956006 -0.0476923 0
[...]
CELL_DATA 13116
SCALARS rho float
LOOKUP_TABLE default
0.510865
0.641816
0.399926
0.67586
0.676178
0.662061
0.382822
0.68819
0.487077
0.679612
0.391032
0.365269
0.676387
0.379858
0.380908
0.662185
0.478226
0.666673
0.66246
0.368896
0.515524
0.419778
0.386748
0.672125
0.571672
0.647464
0.679544
0.40779
0.572314
0.612361
0.660394
0.399439
0.516365
0.413728
0.396308
0.513535
0.638093
0.659357
0.661094
0.670944
0.662162
0.688527
0.388452
0.393315
0.662277
0.662452
0.621849
0.665136
0.375477
0.484725
0.679492
0.404673
0.378919
0.470212
0.515003
0.546716
0.392622
0.671154
0.498364
0.368516
0.378736
0.678962
0.63305
0.661021
0.660516
0.378556
0.66689
0.642938
0.667633
0.660563
0.38757
0.550064
0.416694
0.385028
0.660315
0.385798
0.618675
0.673331
0.367203
0.664309
0.654345
0.644673
0.674684
0.66509
0.657922
0.4214
0.375249
0.63615
0.659656
0.394702
0.411054
0.643721
0.675268
0.668914
0.617686
0.560777
0.574597
0.660477
0.660288
0.561576
0.644058
0.562698
0.662357
0.364073
0.607596
0.38958
0.33564
0.43303
0.399685
0.582979
0.461922
0.631281
0.558774
0.657008
0.66533
0.667921
0.378386
0.358916
0.671104
0.67035
0.643173
0.417849
0.668116
0.415626
0.667437
0.406889
0.376442
0.473059
0.396151
0.486465
0.671288
0.663682
0.469043
0.393401
0.450313
0.55025
0.660652
0.671053
0.643055
0.670195
0.600101
0.625434
0.471135
0.601414
0.624765
0.383004
0.399116
0.637349
0.674489
0.679167
0.508455
0.664484
0.664976
0.390547
0.677479
0.659446
0.390994
0.649265
0.660498
0.635922
0.672475
0.381444
0.673295
0.391579
0.417353
0.678896
0.663066
0.665657
0.393447
0.435104
0.393733
0.660595
0.378843
0.456081
0.66672
0.385764
0.403871
0.416827
0.62663
0.661256
0.379863
0.401757
0.482577
0.638399
0.661391
0.49575
0.378133
0.663149
0.597961
0.428535
0.608496
0.63464
0.660598
0.391156
0.624061
0.661648
0.678303
0.66305
0.658004
0.375813
0.362945
0.588044
0.467781
0.38446
0.670569
0.66157
0.413511
0.571846
0.380079
0.400922
0.382702
0.664256
0.39249
0.365179
0.395093
0.3895
0.337503
0.660662
0.665025
0.410114
0.390033
0.666438
0.455407
0.38038
0.521706
0.679167
0.621953
0.410898
0.666889
0.366948
0.70037
0.400379
0.660508
0.540083
0.660473
0.666605
0.660651
0.359988
0.398654
0.635144
0.660397
0.661464
0.660577
0.660469
0.68631
0.407486
0.674896
0.677775
0.660281
0.399153
0.378157
0.662732
0.670652
0.66044
0.667417
0.496263
0.656573
0.390325
0.383058
0.359208
0.380601
0.588091
0.67806
0.617449
0.371667
0.662849
0.374967
0.405377
0.609815
0.394433
0.644353
0.681967
0.660391
0.671187
0.361554
0.660399
0.659917
0.660299
0.670868
0.364541
0.369327
0.394754
0.544697
0.416357
0.385796
0.310866
0.286845
0.653861
0.379423
0.661653
0.677214
0.370824
0.371831
0.37393
0.422246
0.407634
0.634985
0.55713
0.620414
0.394615
0.663606
0.554486
0.385376
0.369418
0.661237
0.67075
0.662839
0.375433
0.661827
0.379525
0.663141
0.686695
0.677202
0.685981
0.396139
0.666408
0.378634
0.662835
0.677391
0.634899
0.364603
0.310584
0.678008
0.373578
0.63916
0.678955
0.337227
0.655313
0.674232
0.371382
0.662555
0.676161
0.382002
0.672778
0.421569
0.542128
0.688392
0.428231
0.64971
0.371664
0.671258
0.322275
0.660525
0.558666
0.678469
0.409706
0.333084
0.658993
0.392799
0.670124
0.606322
0.392157
0.66062
0.38379
0.407159
0.668712
0.521509
0.642463
0.370822
0.39184
0.674924
0.677013
0.397105
0.677451
0.377257
0.38776
0.668665
0.68671
0.416809
0.366161
0.670555
0.660466
0.662208
0.662286
0.67116
0.508331
0.40357
0.378664
0.377327
0.662087
0.377461
0.480682
0.341192
0.372745
0.327335
0.428449
0.134139
0.392016
0.658911
0.316515
0.674176
0.571421
0.663318
0.627073
0.674825
0.407314
0.367386
0.37986
0.320701
0.668064
0.554008
0.662515
0.572131
0.626383
0.584553
0.641856
0.592596
0.609046
0.670034
0.663402
0.661676
0.36368
0.42073
0.506701
0.415903
0.552834
0.5451
0.378827
0.667296
0.66042
0.398983
0.364877
0.373017
0.380067
0.598582
0.401733
0.39106
0.665095
0.378957
0.539294
0.384122
0.661982
0.655797
0.410964
0.396089
0.668193
0.423945
0.37623
0.379219
0.371422
0.399615
0.369227
0.365751
0.4084
0.405117
0.388055
0.558911
0.416565
0.65942
0.352521
0.410841
0.472614
0.378393
0.394519
0.383023
0.666782
0.41061
0.607961
0.434844
0.378027
0.574668
0.661131
0.420854
0.65489
0.586813
0.585476
0.368625
0.660474
0.361605
0.672032
0.660399
0.394782
0.377183
0.595061
0.320592
0.430106
0.562716
0.334364
0.648163
0.628562
0.374767
0.398536
0.383314
0.451419
0.368531
0.381552
0.384767
0.378978
0.679919
0.678468
0.429051
0.564981
0.449313
0.621493
0.323628
0.401079
0.492179
0.395167
0.664226
0.274523
0.346682
0.465268
0.661887
0.658681
0.527863
0.33583
0.376579
0.538032
0.687327
0.660722
0.53415
0.609337
0.58577
0.377473
0.654639
0.535411
0.633849
0.285318
0.407156
0.655636
0.678273
0.625699
0.679479
0.650998
0.652013
0.671582
0.633855
0.66309
0.383052
0.661933
0.318351
0.379508
0.364223
0.674294
0.662053
0.288828
0.657643
0.589963
0.365356
0.660723
0.670216
0.666815
0.407569
0.399703
0.671829
0.371447
0.365704
0.379684
0.377445
0.662092
0.381791
0.672768
0.41656
0.642108
0.678341
0.666381
0.676873
0.373469
0.372379
0.663063
0.700585
0.629655
0.679931
0.677656
0.468409
0.370153
0.397528
0.662581
0.489886
0.370739
0.423728
0.367798
0.679312
0.66418
0.286075
0.420351
0.657198
0.43956
0.659093
0.627818
0.394939
0.367576
0.625242
0.660431
0.393109
0.656258
0.663527
0.662625
0.390969
0.660533
0.390472
0.66046
0.632332
0.364782
0.335629
0.386202
0.6604
0.399697
0.371467
0.359416
0.660828
0.665361
0.37016
0.375909
0.392454
0.660925
0.416734
0.66151
0.383085
0.554252
0.679235
0.355731
0.390919
0.388918
0.468854
0.401055
0.65307
0.376707
0.401906
0.661475
0.379604
0.663881
0.634703
0.660474
0.365579
0.664825
0.676067
0.678114
0.662937
0.678906
0.668251
0.388929
0.660671
0.412307
0.659777
0.364665
0.686085
0.467905
0.387871
0.660389
0.672991
0.397326
0.594726
0.403314
0.390384
0.664823
0.666242
0.354777
0.384688
0.368563
0.387721
0.680225
0.670869
0.393425
0.376831
0.670015
0.671422
0.555986
0.67555
0.663808
0.383543
0.679237
0.399532
0.679233
0.358476
0.558574
0.453137
0.665849
0.644133
0.544884
0.315451
0.407601
0.663625
0.573234
0.476302
0.675055
0.380216
0.659022
0.677176
0.344507
0.418418
0.676461
0.334328
0.66043
0.636247
0.306504
0.672348
0.615423
0.403112
0.664008
0.393815
0.65393
0.391504
0.663929
0.631324
0.407851
0.66109
0.673883
0.672142
0.591141
0.657156
0.552191
0.375555
0.382427
0.341556
0.383942
0.660699
0.524697
0.669213
0.674023
0.375882
0.410752
0.661169
0.679029
0.668495
0.68254
0.361824
0.662469
0.677641
0.367151
0.35681
0.6711
0.662695
0.656062
0.365599
0.560595
0.411881
0.662996
0.633784
0.660726
0.650619
0.372254
0.658391
0.661056
0.676081
0.666025
0.662132
0.40865
0.670897
0.400169
0.601442
0.678601
0.434803
0.629995
0.660788
0.678151
0.365928
0.369254
0.553167
0.617841
0.370349
0.367633
0.392567
0.395237
0.643525
0.658424
0.660504
0.28632
0.388964
0.667427
0.648785
0.380529
0.398165
0.435919
0.639392
0.663312
0.662036
0.666482
0.400962
0.369842
0.66048
0.412486
0.365076
0.378882
0.661823
0.411794
0.382808
0.538814
0.661578
0.625554
0.661519
0.662762
0.376873
0.382675
0.392591
0.433936
0.410601
0.402789
0.641995
0.665183
0.650225
0.663585
0.377855
0.363183
0.679416
0.367893
0.66189
0.63099
0.660503
0.35484
0.368905
0.648679
0.660321
0.524468
0.381967
0.659181
0.661682
0.533963
0.679091
0.684166
0.660443
0.608858
0.363281
0.662677
0.66034
0.587771
0.663272
0.660727
0.632368
0.660521
0.66987
0.403143
0.393814
0.363442
0.660506
0.465846
0.3692
0.661095
0.670341
0.358918
0.602725
0.414914
0.609897
0.426789
0.366834
0.678851
0.669591
0.372226
0.520685
0.660493
0.389882
0.66847
0.378984
0.387998
0.579752
0.572388
0.472474
0.662491
0.392025
0.673358
0.400458
0.360758
0.663704
0.369846
0.565829
0.370791
0.602033
0.559828
0.660532
0.660286
0.377733
0.401629
0.584551
0.389015
0.668138
0.422992
0.553444
0.66199
0.675844
0.403538
0.580085
0.625674
0.678628
0.667941
0.325654
0.364386
0.509949
0.625358
0.678042
0.341326
0.662431
0.52627
0.379555
0.359666
0.636657
0.639841
0.660558
0.660376
0.566991
0.658745
0.66111
0.64725
0.369227
0.625303
0.433412
0.67374
0.662304
0.28326
0.680633
0.675425
0.397424
0.365427
0.372596
0.660719
0.380623
0.579681
0.667884
0.626443
0.352222
0.657148
0.382762
0.559925
0.660989
0.66043
0.639699
0.660875
0.583312
0.6529
0.485287
0.659425
0.391589
0.6616
0.666235
0.370914
0.660473
0.660144
0.396935
0.377792
0.392867
0.677322
0.374045
0.660391
0.390887
0.688246
0.377107
0.453751
0.377041
0.671459
0.68116
0.494422
0.254456
0.582927
0.660713
0.394286
0.554766
0.677864
0.400788
0.549588
0.660292
0.679081
0.66213
0.394552
0.430598
0.669449
0.662844
0.602903
0.380625
0.366375
0.659943
0.660565
0.660456
0.660633
0.509035
0.66402
0.50383
0.671604
0.380373
0.384293
0.660614
0.675408
0.660881
0.379807
0.661669
0.517538
0.563204
0.39215
0.393421
0.677591
0.687207
0.521122
0.32108
0.663174
0.660459
0.39083
0.575093
0.666155
0.391382
0.405127
0.378047
0.601364
0.420706
0.379583
0.662112
0.428832
0.679146
0.609524
0.386064
0.369454
0.680405
0.39296
0.402399
0.6603
0.385781
0.324687
0.553687
0.677292
0.66471
0.396222
0.419519
0.396783
0.63596
0.388893
0.665326
0.38965
0.662071
0.656829
0.662008
0.61808
0.656677
0.631626
0.663352
0.676631
0.667668
0.381337
0.39654
0.649175
0.661209
0.478851
0.611832
0.521419
0.661074
0.586027
0.410786
0.669107
0.678463
0.658405
0.399122
0.65905
0.408055
0.665031
0.471711
0.666751
0.662972
0.366827
0.667855
0.38338
0.395062
0.633977
0.3785
0.649673
0.660757
0.684357
0.380801
0.664935
0.400053
0.358174
0.37177
0.393116
0.578174
0.378237
0.603603
0.660788
0.321038
0.39173
0.46199
0.549271
0.597058
0.606811
0.366665
0.375281
0.39679
0.37703
0.252521
0.597272
0.637838
0.408371
0.660572
0.667495
0.378337
0.677052
0.648042
0.660835
0.397556
0.660332
0.655789
0.671121
0.67512
0.369929
0.66556
0.672574
0.659574
0.637618
0.661041
0.381167
0.378928
0.664762
0.50842
0.366233
0.663381
0.385316
0.541375
0.592418
0.65174
0.655015
0.369027
0.609206
0.36371
0.398392
0.658284
0.671666
0.67467
0.673883
0.629864
0.35947
0.677245
0.375124
0.477763
0.678697
0.660323
0.669053
0.398837
0.376689
0.678216
0.378528
0.671343
0.617696
0.401862
0.384009
0.669245
0.373003
0.663005
0.670865
0.628326
0.372638
0.393457
0.470183
0.477846
0.584634
0.438802
0.661572
0.607513
0.661449
0.660732
0.662794
0.375383
0.385366
0.673007
0.660962
0.598455
0.435053
0.384146
0.65169
0.378115
0.663949
0.585166
0.419119
0.667655
0.365113
0.666749
0.400857
0.675255
0.360949
0.664109
0.661143
0.318933
0.66844
0.617582
0.308266
0.66048
0.662492
0.519237
0.37905
0.333106
0.432637
0.676586
0.582724
0.414437
0.555947
0.664974
0.66149
0.342587
0.574135
0.650776
0.439172
0.661445
0.663031
0.2786
0.667652
0.66029
0.39866
0.559927
0.381237
0.608264
0.388194
0.387596
0.677831
0.382372
0.396414
0.377692
0.666069
0.641876
0.364664
0.663193
0.328961
0.640356
0.399412
0.64516
0.341377
0.662193
0.664954
0.618859
0.660533
0.524554
0.661102
0.660791
0.40397
0.60574
0.624349
0.443508
0.662243
0.467489
0.367835
0.677081
0.386083
0.537876
0.415067
0.662542
0.379962
0.390203
0.669397
0.663269
0.372887
0.672183
0.665192
0.660705
0.68281
0.660423
0.362734
0.676082
0.366651
0.392419
0.663784
0.667863
0.688615
0.659118
0.38354
0.388363
0.397149
0.643899
0.660683
0.331761
0.683231
0.377713
0.385523
0.387828
0.660862
0.359437
0.67814
0.667906
0.604837
0.665872
0.667106
0.53455
0.612687
0.412007
0.378417
0.37208
0.660404
0.660378
0.380087
0.597431
0.597629
0.613971
0.394527
0.363618
0.611667
0.262515
0.60329
0.564011
0.364962
0.660797
0.645409
0.367468
0.664228
0.401699
0.66909
0.678291
0.657302
0.378333
0.447134
0.649228
0.284175
0.42103
0.664581
0.291573
0.66089
0.667631
0.642361
0.664691
0.336341
0.660427
0.657933
0.662814
0.343993
0.675
0.410596
0.377599
0.657425
0.663509
0.66055
0.222842
0.6635
0.605744
0.660318
0.376238
0.378917
0.374951
0.673369
0.388151
0.382789
0.402223
0.561697
0.399192
0.281947
0.420895
0.665387
0.365786
0.660495
0.660774
0.66953
0.379198
0.666991
0.623436
0.660588
0.395025
0.63545
0.398922
0.387333
0.664751
0.37254
0.594198
0.663642
0.660544
0.364124
0.311091
0.396766
0.532572
0.660611
0.221209
0.659722
0.665747
0.666594
0.403015
0.376131
0.325602
0.584084
0.376777
0.660794
0.577204
0.660895
0.660491
0.363604
0.595747
0.391028
0.531378
0.619664
0.679207
0.53737
0.436508
0.635403
0.603071
0.673743
0.384765
0.346797
0.381279
0.665725
0.496152
0.660315
0.363852
0.374428
0.671037
0.666688
0.660363
0.371917
0.670647
0.530759
0.533633
0.586093
0.399295
0.369849
0.277276
0.663784
0.660856
0.635992
0.618381
0.324251
0.686463
0.628934
0.660877
0.660517
0.683832
0.678618
0.661814
0.667082
0.674247
0.394394
0.668618
0.674701
0.661502
0.669889
0.663514
0.543896
0.365236
0.392595
0.592745
0.372959
0.337003
0.67059
0.397903
0.609248
0.666853
0.640056
0.659036
0.3988
0.672554
0.369041
0.381146
0.662031
0.663461
0.663761
0.376146
0.677397
0.662508
0.591671
0.662842
0.415822
0.661272
0.67846
0.645118
0.375936
0.671041
0.399626
0.678764
0.382432
0.365596
0.484326
0.423016
0.678865
0.672242
0.662016
0.401831
0.661167
0.366225
0.393394
0.649314
0.466197
0.388853
0.66229
0.369652
0.487494
0.639347
0.619233
0.652471
0.464634
0.568849
0.626463
0.662139
0.541265
0.674596
0.506851
0.704753
0.614538
0.616644
0.374986
0.368435
0.422718
0.673856
0.39654
0.634314
0.67311
0.567874
0.662296
0.480074
0.651273
0.649174
0.39838
0.671645
0.603053
0.449531
0.606241
0.677828
0.653929
0.661153
0.401712
0.4025
0.660251
0.499035
0.5066
0.671288
0.664672
0.663695
0.677591
0.67906
0.586868
0.604889
0.678403
0.379324
0.372888
0.380576
0.417392
0.660439
0.430907
0.499664
0.667449
0.654494
0.393753
0.659842
0.673179
0.377427
0.352476
0.66037
0.670407
0.400835
0.353946
0.365076
0.660746
0.645625
0.379828
0.375484
0.366079
0.386719
0.321095
0.367679
0.700732
0.665093
0.65915
0.386989
0.641385
0.572411
0.582958
0.34878
0.36519
0.648265
0.660649
0.385483
0.661961
0.367597
0.672595
0.395037
0.669222
0.376921
0.650787
0.678259
0.382015
0.535481
0.373302
0.676255
0.388228
0.57695
0.382817
0.472049
0.400389
0.567849
0.394409
0.66049
0.660583
0.580568
0.655677
0.335736
0.645858
0.660784
0.677708
0.569581
0.641324
0.366532
0.353738
0.380349
0.67697
0.274172
0.675177
0.516684
0.667518
0.67895
0.421234
0.670688
0.392626
0.37924
0.383559
0.477337
0.482483
0.664081
0.39461
0.38563
0.663281
0.36072
0.370418
0.519294
0.345206
0.383738
0.393356
0.689704
0.625583
0.58226
0.387738
0.642304
0.664313
0.377319
0.306684
0.660788
0.662434
0.535175
0.490519
0.393406
0.343318
0.389595
0.678706
0.588522
0.486923
0.656856
0.377793
0.533927
0.367635
0.66046
0.675476
0.365658
0.381233
0.596536
0.510997
0.676916
0.674164
0.67683
0.674245
0.678493
0.386502
0.416411
0.383153
0.36325
0.502986
0.66043
0.627497
0.360928
0.365392
0.419803
0.405104
0.663715
0.617486
0.398568
0.284904
0.666791
0.393383
0.625665
0.672696
0.639018
0.66115
0.515191
0.365217
0.37244
0.598862
0.365882
0.38799
0.365452
0.661036
0.665731
0.33033
0.364197
0.660557
0.393349
0.665329
0.67634
0.364763
0.399096
0.377994
0.666321
0.378139
0.660758
0.663683
0.568518
0.347654
0.503803
0.672607
0.658187
0.372315
0.655
0.59479
0.436058
0.670409
0.699973
0.399173
0.37318
0.648015
0.396787
0.363992
0.649793
0.328276
0.664066
0.650452
0.674304
0.601746
0.675254
0.666867
0.661164
0.392505
0.391453
0.609437
0.662162
0.446862
0.677322
0.299877
0.669609
0.654102
0.53592
0.619451
0.354773
0.431966
0.660573
0.672928
0.610253
0.678771
0.664814
0.660417
0.683535
0.660633
0.677995
0.651939
0.680349
0.660623
0.661224
0.323275
0.64716
0.403504
0.668912
0.668745
0.669299
0.629554
0.663348
0.395513
0.393312
0.288158
0.370814
0.635991
0.372652
0.397443
0.656236
0.365396
0.666305
0.390625
0.650564
0.666026
0.381655
0.36306
0.410294
0.673135
0.389318
0.663431
0.667499
0.396823
0.645531
0.527344
0.323158
0.406707
0.369562
0.657474
0.370305
0.671108
0.47664
0.3728
0.662783
0.662457
0.676882
0.367866
0.540255
0.376351
0.643317
0.661345
0.668051
0.377223
0.661205
0.671042
0.621986
0.380661
0.672879
0.366798
0.38416
0.667179
0.426977
0.67917
0.362028
0.380616
0.422098
0.628534
0.401359
0.268952
0.392398
0.444472
0.660306
0.667313
0.378573
0.565177
0.665207
0.533969
0.388176
0.42105
0.529938
0.36675
0.361821
0.661761
0.390743
0.372336
0.677931
0.67968
0.376716
0.66679
0.388218
0.660363
0.408452
0.652413
0.660641
0.664962
0.660727
0.407193
0.370723
0.374337
0.661701
0.651032
0.566231
0.509956
0.352914
0.287487
0.66156
0.393966
0.664491
0.363533
0.660614
0.644919
0.374322
0.395092
0.375345
0.364368
0.398095
0.595338
0.637586
0.377921
0.66762
0.607709
0.366332
0.379396
0.677117
0.388997
0.66603
0.407268
0.6653
0.62599
0.666865
0.660315
0.401823
0.67881
0.667907
0.690584
0.381601
0.589189
0.572488
0.352874
0.674111
0.615728
0.706134
0.643868
0.678416
0.667186
0.68514
0.661643
0.662381
0.37645
0.676056
0.374538
0.425902
0.66419
0.376002
0.654488
0.593796
0.38355
0.621971
0.37984
0.412427
0.665244
0.579699
0.679836
0.401931
0.6439
0.589271
0.408189
0.383724
0.661106
0.664198
0.357541
0.397548
0.667198
0.678423
0.363046
0.612621
0.678062
0.628708
0.373149
0.36742
0.371382
0.627312
0.3576
0.655351
0.665555
0.66163
0.573918
0.666558
0.401824
0.656858
0.590199
0.678104
0.53406
0.385777
0.387741
0.383095
0.673544
0.668658
0.405057
0.623351
0.419598
0.621229
0.669721
0.380702
0.593132
0.656211
0.591359
0.385162
0.371984
0.417621
0.670571
0.679093
0.586401
0.489975
0.666812
0.383089
0.603004
0.660371
0.661321
0.385089
0.600792
0.384147
0.604555
0.386775
0.662107
0.666519
0.387144
0.670694
0.392206
0.66062
0.612327
0.660783
0.676407
0.384056
0.661347
0.662646
0.666055
0.662812
0.461082
0.660395
0.380586
0.662966
0.380828
0.373616
0.376966
0.396829
0.36878
0.382781
0.679186
0.347991
0.383656
0.632329
0.671023
0.640263
0.3772
0.660105
0.655641
0.661043
0.312206
0.548985
0.666849
0.419286
0.398597
0.373953
0.597463
0.484495
0.36346
0.555146
0.379205
0.66041
0.477615
0.377975
0.44962
0.620444
0.418801
0.664544
0.376545
0.431188
0.35448
0.678913
0.360693
0.627912
0.660338
0.584397
0.38659
0.364769
0.679409
0.67877
0.40051
0.357842
0.661854
0.366858
0.670326
0.388287
0.532316
0.383617
0.666712
0.416408
0.679428
0.373655
0.669892
0.66746
0.673668
0.660483
0.37995
0.390828
0.379611
0.651369
0.655076
0.62703
0.485168
0.397531
0.669451
0.419892
0.64819
0.561794
0.365202
0.384371
0.673956
0.662075
0.379523
0.660422
0.685131
0.67381
0.675483
0.376457
0.60579
0.385608
0.673805
0.358333
0.660564
0.644878
0.678358
0.680589
0.3669
0.680851
0.387007
0.397844
0.665016
0.660479
0.515265
0.661188
0.660468
0.39441
0.66747
0.675881
0.685319
0.356926
0.403002
0.654649
0.37245
0.66997
0.673928
0.656423
0.679109
0.271759
0.419309
0.619462
0.387771
0.654966
0.676136
0.440423
0.663682
0.257268
0.601017
0.668115
0.647026
0.667585
0.372086
0.396563
0.66423
0.653485
0.391958
0.307971
0.412143
0.39089
0.383134
0.381828
0.407138
0.368137
0.663634
0.380325
0.373863
0.666264
0.513135
0.660547
0.374254
0.364085
0.665909
0.43793
0.439153
0.677782
0.348881
0.630535
0.660668
0.582339
0.646833
0.388884
0.667715
0.66095
0.399072
0.385772
0.367275
0.590062
0.581322
0.678317
0.662447
0.661936
0.649945
0.346803
0.668893
0.660989
0.667198
0.366354
0.667374
0.548645
0.340231
0.409735
0.379345
0.376675
0.376903
0.558646
0.641117
0.650312
0.363641
0.37049
0.678428
0.336634
0.667393
0.662798
0.656502
0.646273
0.6666
0.418355
0.376511
0.377044
0.532566
0.364484
0.665047
0.361987
0.664975
0.661654
0.668333
0.414887
0.421564
0.384292
0.667027
0.392416
0.375489
0.671192
0.646772
0.593132
0.66214
0.659692
0.669911
0.364809
0.598428
0.675322
0.505783
0.666008
0.668959
0.672053
0.439169
0.405407
0.686355
0.473942
0.581789
0.398396
0.626459
0.657948
0.375595
0.356475
0.640688
0.480073
0.673372
0.667341
0.369159
0.368408
0.660319
0.349846
0.374912
0.660298
0.661053
0.380287
0.660427
0.660484
0.631086
0.362709
0.559929
0.366167
0.663379
0.675297
0.670043
0.647058
0.660474
0.288204
0.329766
0.659172
0.395838
0.582313
0.376403
0.667548
0.379493
0.620005
0.674992
0.660441
0.380365
0.660754
0.660318
0.363828
0.626793
0.358016
0.689247
0.38678
0.374078
0.376755
0.654187
0.662417
0.306838
0.283482
0.639029
0.678298