# vtk DataFile Version 1.0
unstructured grid
ascii
DATASET UNSTRUCTURED_GRID
points 13672 float
0.0796578 -0.059106 0
0.00128732 0.00159165 0
0.00227961 -0.00102548 0
0.0791586 -0.0598787 0
-0.0546216 0.01 0
0.000495206 0.025 0
0.0800549 -0.035 0
0.135172 -0.08 0
-0.0546216 -0.0451168 0
0.000495206 -0.0301168 0
0.0800549 -0.0901168 0
0.135172 -0.135117 0
-0.0546216 -0.0451168 -0.00551168
0.000495206 -0.0301168 -0.00551168
0.0800549 -0.0901168 -0.00551168
0.135172 -0.135117 -0.00551168
0.135172 -0.08 -0.00551168
0.0800549 -0.035 -0.00551168
0.000495206 0.025 -0.00551168
-0.0546216 0.01 -0.00551168
0.00128732 0.00159165 -0.00551168
0.00227961 -0.00102548 -0.00551168
0.0791586 -0.0598787 -0.00551168
0.0796578 -0.059106 -0.00551168
0.00165953 -0.000990923 0
0.00119576 -0.000874076 0
0.000866021 -0.000641801 0
0.000645147 -0.000349912 0
0.00052235 -1.7281e-05 0
0.00049972 0.000348016 0
0.000601632 0.000737716 0
0.000861774 0.0011403 0
0.00157235 0.00183217 0
0.00188647 0.00206725 0
0.00222612 0.00230203 0
0.00258713 0.00254351 0
0.00296826 0.00279524 0
0.00337118 0.00305664 0
0.00379785 0.00332658 0
0.00425045 0.00360349 0
0.00473139 0.00388521 0
0.0052432 0.00416895 0
0.0057881 0.00445204 0
0.00636753 0.00473281 0
0.00698281 0.00500961 0
0.00763526 0.00528058 0
0.00832616 0.00554366 0
0.00905691 0.00579603 0
0.00982918 0.00603333 0
0.0106445 0.00625033 0
0.0115038 0.00644128 0
0.0124073 0.00660297 0
0.0133543 0.00673414 0
0.0143444 0.00683382 0
0.0153769 0.00690031 0
0.0164512 0.00693173 0
0.0175666 0.00692547 0
0.0187219 0.00687822 0
0.0199156 0.00678477 0
0.0211454 0.00663864 0
0.0224084 0.00643275 0
0.0237018 0.00616676 0
0.0250249 0.00584739 0
0.026375 0.00547298 0
0.0277479 0.00503752 0
0.0291386 0.00453545 0
0.0305433 0.0039653 0
0.0319572 0.0033256 0
0.0333681 0.00260019 0
0.034775 0.00179799 0
0.0361793 0.000930615 0
0.0375798 3.12222e-06 0
0.0389689 -0.000988429 0
0.0403357 -0.00205109 0
0.041675 -0.00318283 0
0.0429849 -0.00437751 0
0.0442643 -0.00562904 0
0.0455126 -0.00693089 0
0.0467314 -0.00827518 0
0.0479204 -0.00965638 0
0.0490661 -0.0110799 0
0.0501515 -0.0125519 0
0.0511696 -0.0140695 0
0.0521492 -0.0156071 0
0.0531202 -0.0171411 0
0.0540851 -0.0186663 0
0.0550431 -0.0201798 0
0.0559923 -0.0216793 0
0.0569311 -0.0231626 0
0.0578582 -0.0246273 0
0.0587723 -0.0260715 0
0.0596721 -0.027493 0
0.0605563 -0.02889 0
0.0614241 -0.0302609 0
0.0622742 -0.0316042 0
0.063106 -0.0329183 0
0.0639186 -0.034202 0
0.0647113 -0.0354543 0
0.0654835 -0.0366743 0
0.0662345 -0.0378613 0
0.0669642 -0.0390145 0
0.0676726 -0.0401333 0
0.0683597 -0.0412172 0
0.0690246 -0.0422665 0
0.0696662 -0.0432819 0
0.0702841 -0.0442636 0
0.0708793 -0.0452111 0
0.0714538 -0.0461237 0
0.072009 -0.047001 0
0.0725452 -0.0478434 0
0.0730611 -0.0486524 0
0.073556 -0.0494294 0
0.0740291 -0.0501756 0
0.0744812 -0.0508916 0
0.0749138 -0.0515773 0
0.0753285 -0.0522331 0
0.0757266 -0.0528592 0
0.076109 -0.0534564 0
0.0764753 -0.0540264 0
0.0768243 -0.054571 0
0.0771553 -0.0550919 0
0.0774679 -0.0555901 0
0.0777617 -0.0560669 0
0.0780369 -0.056523 0
0.0782958 -0.0569578 0
0.0785421 -0.0573703 0
0.0787786 -0.0577603 0
0.0790073 -0.0581279 0
0.0792295 -0.058474 0
0.0794462 -0.0587995 0
0.0798803 -0.0594162 0
0.0800272 -0.0596588 0
0.0800357 -0.0598891 0
0.0799275 -0.0600784 0
0.0797205 -0.0601773 0
0.0794593 -0.0601051 0
0.0789155 -0.0596491 0
0.0786707 -0.0593963 0
0.0784111 -0.0591319 0
0.0781372 -0.0588542 0
0.0778566 -0.0585548 0
0.0775715 -0.0582308 0
0.0772803 -0.0578828 0
0.0769832 -0.0575099 0
0.0766822 -0.0571097 0
0.0763801 -0.0566796 0
0.0760759 -0.0562196 0
0.0757623 -0.0557337 0
0.0754359 -0.0552232 0
0.0750951 -0.0546879 0
0.0747379 -0.054128 0
0.0743626 -0.0535435 0
0.0739688 -0.0529338 0
0.0735559 -0.0522981 0
0.0731238 -0.0516357 0
0.0726718 -0.050946 0
0.0721991 -0.0502288 0
0.0717046 -0.049484 0
0.0711872 -0.0487117 0
0.0706461 -0.047912 0
0.0700804 -0.0470849 0
0.0694892 -0.0462308 0
0.0688718 -0.0453499 0
0.0682271 -0.0444431 0
0.0675544 -0.043511 0
0.0668527 -0.0425546 0
0.0661215 -0.0415748 0
0.06536 -0.040573 0
0.0645676 -0.0395504 0
0.0637439 -0.0385087 0
0.0628887 -0.0374493 0
0.062002 -0.0363741 0
0.0610838 -0.0352847 0
0.0601345 -0.0341831 0
0.0591547 -0.033071 0
0.0581456 -0.0319502 0
0.0571083 -0.0308224 0
0.0560444 -0.0296893 0
0.0549562 -0.028552 0
0.053845 -0.0274126 0
0.0527113 -0.0262746 0
0.051554 -0.0251427 0
0.0503724 -0.0240222 0
0.0491675 -0.0229164 0
0.047941 -0.0218282 0
0.0466955 -0.0207597 0
0.0454337 -0.0197126 0
0.0441592 -0.0186878 0
0.0428751 -0.0176863 0
0.0415841 -0.0167097 0
0.0402878 -0.0157609 0
0.0389879 -0.0148428 0
0.0376864 -0.0139575 0
0.0363853 -0.013107 0
0.0350871 -0.0122931 0
0.0337942 -0.0115164 0
0.0325095 -0.0107772 0
0.0312357 -0.0100756 0
0.0299758 -0.00941024 0
0.0287337 -0.00877784 0
0.0275126 -0.00817571 0
0.0263139 -0.00760375 0
0.0251376 -0.00706528 0
0.0239829 -0.0065649 0
0.0228537 -0.00609619 0
0.0217522 -0.00565563 0
0.0206795 -0.00524226 0
0.0196364 -0.00485507 0
0.0186233 -0.00449318 0
0.0176408 -0.00415577 0
0.016689 -0.00384204 0
0.0157682 -0.00355115 0
0.0148783 -0.00328218 0
0.0140192 -0.00303468 0
0.0131906 -0.00280795 0
0.0123925 -0.00260016 0
0.0116246 -0.00241012 0
0.0108864 -0.00223769 0
0.0101774 -0.00208212 0
0.00949701 -0.00194206 0
0.00884483 -0.0018163 0
0.0082202 -0.0017039 0
0.00762247 -0.00160391 0
0.00705097 -0.00151528 0
0.006505 -0.00143697 0
0.0059838 -0.00136806 0
0.00548662 -0.00130772 0
0.00501265 -0.00125519 0
0.00456114 -0.00120954 0
0.00413136 -0.00116914 0
0.00372257 -0.00113251 0
0.00333398 -0.00109853 0
0.00296466 -0.00106798 0
0.00261363 -0.0010431 0
-0.052721 -0.0445996 0
-0.0508204 -0.0440823 0
-0.0489199 -0.0435651 0
-0.0470193 -0.0430478 0
-0.0451187 -0.0425306 0
-0.0432181 -0.0420134 0
-0.0413175 -0.0414961 0
-0.039417 -0.0409789 0
-0.0375164 -0.0404616 0
-0.0356158 -0.0399444 0
-0.0337152 -0.0394271 0
-0.0318146 -0.0389099 0
-0.0299141 -0.0383927 0
-0.0280135 -0.0378754 0
-0.0261129 -0.0373582 0
-0.0242123 -0.0368409 0
-0.0223117 -0.0363237 0
-0.0204112 -0.0358065 0
-0.0185106 -0.0352892 0
-0.01661 -0.034772 0
-0.0147094 -0.0342547 0
-0.0128088 -0.0337375 0
-0.0109083 -0.0332202 0
-0.00900769 -0.032703 0
-0.00710711 -0.0321858 0
-0.00520653 -0.0316685 0
-0.00330595 -0.0311513 0
-0.00140537 -0.030634 0
0.00190689 -0.0299614 0
0.00332271 -0.0298498 0
0.00474133 -0.0297825 0
0.00616136 -0.0297597 0
0.0075814 -0.0297814 0
0.00900007 -0.0298477 0
0.010416 -0.0299583 0
0.0118278 -0.0301127 0
0.0132342 -0.0303103 0
0.0146339 -0.0305504 0
0.0160259 -0.0308322 0
0.0174091 -0.0311546 0
0.0187824 -0.0315166 0
0.020145 -0.031917 0
0.0214961 -0.0323546 0
0.0228351 -0.032828 0
0.0241613 -0.0333361 0
0.0254744 -0.0338774 0
0.0267738 -0.0344507 0
0.0280592 -0.0350545 0
0.0293306 -0.0356877 0
0.0305875 -0.0363488 0
0.0318301 -0.0370367 0
0.0330581 -0.0377501 0
0.0342717 -0.0384879 0
0.0354708 -0.0392489 0
0.0366556 -0.0400321 0
0.0378262 -0.0408363 0
0.0389828 -0.0416607 0
0.0401254 -0.0425042 0
0.0412543 -0.0433659 0
0.0423698 -0.0442451 0
0.043472 -0.0451408 0
0.0445612 -0.0460523 0
0.0456375 -0.0469789 0
0.0467013 -0.0479199 0
0.0477529 -0.0488746 0
0.0487923 -0.0498424 0
0.04982 -0.0508227 0
0.0508362 -0.051815 0
0.051841 -0.0528187 0
0.0528348 -0.0538333 0
0.0538178 -0.0548584 0
0.0547903 -0.0558935 0
0.0557524 -0.0569382 0
0.0567045 -0.0579922 0
0.0576467 -0.0590549 0
0.0585792 -0.0601261 0
0.0595024 -0.0612055 0
0.0604163 -0.0622926 0
0.0613212 -0.0633873 0
0.0622174 -0.0644891 0
0.0631049 -0.0655979 0
0.0639841 -0.0667134 0
0.064855 -0.0678353 0
0.0657179 -0.0689633 0
0.0665729 -0.0700974 0
0.0674202 -0.0712372 0
0.06826 -0.0723826 0
0.0690925 -0.0735333 0
0.0699178 -0.0746892 0
0.070736 -0.0758501 0
0.0715473 -0.0770159 0
0.0723518 -0.0781863 0
0.0731498 -0.0793612 0
0.0739412 -0.0805405 0
0.0747264 -0.081724 0
0.0755053 -0.0829116 0
0.0762781 -0.0841033 0
0.0770449 -0.0852987 0
0.0778059 -0.0864979 0
0.0785611 -0.0877007 0
0.0793108 -0.088907 0
0.0814681 -0.0912706 0
0.0828814 -0.0924245 0
0.0842946 -0.0935783 0
0.0857079 -0.0947322 0
0.0871211 -0.095886 0
0.0885344 -0.0970399 0
0.0899476 -0.0981937 0
0.0913609 -0.0993476 0
0.0927741 -0.100501 0
0.0941874 -0.101655 0
0.0956006 -0.102809 0
0.0970139 -0.103963 0
0.0984272 -0.105117 0
0.0998404 -0.106271 0
0.101254 -0.107424 0
0.102667 -0.108578 0
0.10408 -0.109732 0
0.105493 -0.110886 0
0.106907 -0.11204 0
0.10832 -0.113194 0
0.109733 -0.114348 0
0.111146 -0.115501 0
0.11256 -0.116655 0
0.113973 -0.117809 0
0.115386 -0.118963 0
0.116799 -0.120117 0
0.118213 -0.121271 0
0.119626 -0.122424 0
0.121039 -0.123578 0
0.122452 -0.124732 0
0.123866 -0.125886 0
0.125279 -0.12704 0
0.126692 -0.128194 0
0.128105 -0.129348 0
0.129519 -0.130501 0
0.130932 -0.131655 0
0.132345 -0.132809 0
0.133758 -0.133963 0
0.135172 -0.133216 0
0.135172 -0.131316 0
0.135172 -0.129415 0
0.135172 -0.127514 0
0.135172 -0.125614 0
0.135172 -0.123713 0
0.135172 -0.121813 0
0.135172 -0.119912 0
0.135172 -0.118012 0
0.135172 -0.116111 0
0.135172 -0.11421 0
0.135172 -0.11231 0
0.135172 -0.110409 0
0.135172 -0.108509 0
0.135172 -0.106608 0
0.135172 -0.104708 0
0.135172 -0.102807 0
0.135172 -0.100906 0
0.135172 -0.0990058 0
0.135172 -0.0971052 0
0.135172 -0.0952046 0
0.135172 -0.0933041 0
0.135172 -0.0914035 0
0.135172 -0.0895029 0
0.135172 -0.0876023 0
0.135172 -0.0857017 0
0.135172 -0.0838012 0
0.135172 -0.0819006 0
0.133758 -0.0788462 0
0.132345 -0.0776923 0
0.130932 -0.0765385 0
0.129519 -0.0753846 0
0.128105 -0.0742308 0
0.126692 -0.0730769 0
0.125279 -0.0719231 0
0.123866 -0.0707692 0
0.122452 -0.0696154 0
0.121039 -0.0684615 0
0.119626 -0.0673077 0
0.118213 -0.0661538 0
0.116799 -0.065 0
0.115386 -0.0638462 0
0.113973 -0.0626923 0
0.11256 -0.0615385 0
0.111146 -0.0603846 0
0.109733 -0.0592308 0
0.10832 -0.0580769 0
0.106907 -0.0569231 0
0.105493 -0.0557692 0
0.10408 -0.0546154 0
0.102667 -0.0534615 0
0.101254 -0.0523077 0
0.0998404 -0.0511538 0
0.0984272 -0.05 0
0.0970139 -0.0488462 0
0.0956006 -0.0476923 0
[...]
CELL_DATA 13116
SCALARS rho float
LOOKUP_TABLE default
0.597757
0.694219
0.466828
0.6911
0.694654
0.684158
0.384962
0.695219
0.596531
0.696293
0.373559
0.471648
0.69463
0.428153
0.446867
0.684202
0.597957
0.701819
0.685586
0.371122
0.597695
0.479948
0.449779
0.702115
0.597699
0.695849
0.696386
0.482302
0.597622
0.598935
0.686899
0.460979
0.597192
0.584371
0.389144
0.597732
0.636993
0.692988
0.683911
0.694645
0.684232
0.694762
0.595202
0.448645
0.688296
0.685938
0.694582
0.68626
0.471
0.594059
0.693884
0.593514
0.402702
0.597877
0.597252
0.597663
0.447318
0.698657
0.594733
0.458391
0.429556
0.694456
0.696093
0.683918
0.686203
0.414917
0.689322
0.627075
0.689418
0.685179
0.446488
0.597375
0.483211
0.432888
0.695899
0.422688
0.657342
0.692505
0.375373
0.695753
0.675344
0.69502
0.700702
0.686958
0.696286
0.549367
0.392398
0.603549
0.695821
0.367186
0.465517
0.694123
0.700583
0.696239
0.602947
0.597728
0.597701
0.691149
0.692861
0.597642
0.602365
0.676569
0.684657
0.57859
0.69209
0.462455
0.527684
0.596575
0.467236
0.597681
0.597266
0.693781
0.597717
0.674493
0.697424
0.690965
0.406685
0.54303
0.691257
0.692637
0.622092
0.491665
0.689794
0.465611
0.696445
0.569032
0.395204
0.588353
0.459174
0.593609
0.691365
0.689525
0.575133
0.474426
0.568285
0.599248
0.704361
0.691634
0.601441
0.692792
0.64052
0.695041
0.589469
0.647075
0.690085
0.438932
0.388282
0.694514
0.694941
0.694448
0.591473
0.686537
0.686005
0.396632
0.69639
0.696101
0.457003
0.608762
0.690989
0.602073
0.701567
0.373778
0.698309
0.457121
0.495112
0.694118
0.696125
0.701438
0.387602
0.559269
0.547678
0.70437
0.444399
0.587613
0.690283
0.449767
0.45902
0.482699
0.6934
0.683946
0.368514
0.55938
0.597564
0.632572
0.68397
0.595127
0.396048
0.686269
0.690983
0.579401
0.618316
0.69431
0.68468
0.465263
0.693272
0.684003
0.698287
0.686632
0.69576
0.566711
0.58011
0.597694
0.5872
0.435936
0.692941
0.688004
0.594046
0.597749
0.449741
0.36939
0.420578
0.685352
0.460726
0.367292
0.367233
0.399857
0.537384
0.683859
0.696355
0.545539
0.442374
0.688723
0.597157
0.368403
0.590999
0.695238
0.689195
0.482753
0.689991
0.535474
0.695086
0.46133
0.684495
0.596747
0.693679
0.695556
0.684272
0.4763
0.568184
0.600239
0.698925
0.683971
0.704302
0.68397
0.695852
0.461904
0.69284
0.695819
0.691768
0.380181
0.473908
0.686765
0.691077
0.685149
0.689393
0.597762
0.659482
0.372574
0.487689
0.556458
0.448217
0.690145
0.698309
0.658949
0.382421
0.693728
0.403673
0.547496
0.69236
0.380045
0.695258
0.694119
0.700331
0.698202
0.474452
0.701706
0.684232
0.691067
0.691407
0.372593
0.387436
0.465154
0.5991
0.48924
0.486752
0.519666
0.509732
0.695697
0.409086
0.695896
0.69396
0.388569
0.370172
0.400298
0.566603
0.484123
0.603863
0.634199
0.692889
0.377823
0.684718
0.596429
0.491059
0.457856
0.683967
0.691047
0.685889
0.398907
0.68404
0.577395
0.689313
0.694422
0.694167
0.694449
0.46661
0.689111
0.429672
0.68499
0.695698
0.598322
0.367452
0.518483
0.695553
0.399858
0.696093
0.69439
0.541267
0.647815
0.700635
0.392881
0.693756
0.700503
0.426762
0.691956
0.548158
0.594733
0.697668
0.55007
0.611709
0.382281
0.701158
0.522706
0.68388
0.685973
0.698283
0.481185
0.529026
0.696152
0.394277
0.692225
0.691713
0.557589
0.704285
0.394225
0.468326
0.690694
0.59246
0.634208
0.389976
0.457968
0.692915
0.693991
0.384268
0.693442
0.414845
0.466875
0.692719
0.697041
0.597318
0.367084
0.691129
0.686739
0.684174
0.69501
0.695423
0.592134
0.523808
0.442348
0.368484
0.684117
0.368284
0.597585
0.541909
0.465536
0.526748
0.59741
0.450937
0.391201
0.695908
0.468302
0.698289
0.597646
0.684636
0.599774
0.69271
0.470515
0.386207
0.569661
0.525881
0.691107
0.597712
0.684409
0.597647
0.689665
0.597921
0.694798
0.607052
0.598759
0.694302
0.692519
0.684039
0.559194
0.592333
0.597755
0.473214
0.632376
0.597669
0.401828
0.690427
0.701073
0.466865
0.368603
0.367362
0.389883
0.597698
0.416747
0.465175
0.686603
0.414213
0.596935
0.36722
0.684264
0.684835
0.493002
0.474629
0.69063
0.564443
0.36715
0.389942
0.367136
0.467627
0.386411
0.368231
0.491647
0.54905
0.368181
0.675949
0.507116
0.696024
0.552291
0.466319
0.570482
0.441576
0.367196
0.443264
0.694536
0.554426
0.597705
0.597178
0.411492
0.597769
0.695863
0.548445
0.644804
0.598284
0.598468
0.385523
0.693335
0.543181
0.69697
0.689097
0.468781
0.407718
0.690794
0.528669
0.54929
0.686618
0.527171
0.606948
0.69295
0.370254
0.454608
0.433724
0.587062
0.454989
0.418262
0.444077
0.42786
0.69352
0.693394
0.5683
0.597658
0.569674
0.692943
0.53091
0.412082
0.596651
0.469677
0.688471
0.508734
0.534002
0.57367
0.689125
0.695923
0.593859
0.540613
0.404554
0.593249
0.695095
0.684294
0.592671
0.692653
0.689956
0.367753
0.683911
0.596518
0.599527
0.516609
0.484525
0.672221
0.69902
0.599157
0.695517
0.695628
0.69642
0.701129
0.598603
0.684545
0.367347
0.690284
0.525547
0.455708
0.367192
0.6914
0.687652
0.513805
0.696314
0.597689
0.367355
0.684039
0.690818
0.693112
0.481274
0.409475
0.692107
0.367136
0.367037
0.450593
0.367631
0.688443
0.422822
0.69086
0.504703
0.693687
0.693659
0.687994
0.694207
0.367114
0.368544
0.687192
0.69458
0.646884
0.693669
0.695983
0.565338
0.390468
0.472287
0.684239
0.595832
0.367309
0.56387
0.465465
0.696563
0.688308
0.515864
0.484132
0.696138
0.551807
0.695317
0.597741
0.456012
0.535181
0.644626
0.698681
0.458647
0.695711
0.696187
0.687242
0.41307
0.704322
0.441181
0.694817
0.599308
0.367065
0.536078
0.487737
0.694462
0.468449
0.381045
0.544965
0.683985
0.691153
0.379696
0.485092
0.367307
0.684024
0.486384
0.68399
0.437049
0.597451
0.695339
0.554287
0.45488
0.45122
0.565935
0.473489
0.695833
0.405276
0.422866
0.684091
0.420325
0.68519
0.695755
0.692836
0.367178
0.688547
0.698956
0.698142
0.684356
0.697703
0.692429
0.451729
0.684754
0.547011
0.689017
0.373261
0.695681
0.594519
0.391993
0.68696
0.695009
0.39849
0.603618
0.4651
0.443547
0.686175
0.694569
0.465595
0.443244
0.376937
0.452267
0.696969
0.70234
0.410344
0.372877
0.692338
0.692159
0.597507
0.698716
0.687037
0.37272
0.697876
0.549823
0.693786
0.548287
0.597695
0.563813
0.688372
0.63824
0.596523
0.527746
0.477903
0.688394
0.597595
0.59778
0.69878
0.443136
0.686068
0.696527
0.53857
0.59258
0.698428
0.538679
0.685884
0.600404
0.517176
0.693415
0.601995
0.471695
0.690774
0.464311
0.695843
0.437416
0.685066
0.695981
0.477272
0.683935
0.698461
0.692651
0.597692
0.687277
0.596602
0.507387
0.575141
0.460246
0.431571
0.70435
0.591702
0.690857
0.694777
0.367424
0.507072
0.689148
0.695234
0.690848
0.694223
0.368525
0.69188
0.695679
0.370065
0.459133
0.691311
0.68665
0.696163
0.457198
0.596844
0.495931
0.690199
0.695306
0.684396
0.693884
0.367399
0.688943
0.695928
0.700531
0.695038
0.684109
0.546236
0.695039
0.36957
0.686564
0.695851
0.559586
0.692348
0.68413
0.693659
0.584812
0.560913
0.596798
0.598152
0.367153
0.367024
0.382424
0.368085
0.691862
0.685148
0.684136
0.511631
0.369135
0.689058
0.611502
0.424363
0.508764
0.563149
0.657793
0.687004
0.695347
0.69441
0.368796
0.367137
0.703885
0.465835
0.367305
0.409467
0.684298
0.494425
0.367121
0.597638
0.68801
0.69331
0.683996
0.685335
0.407351
0.431431
0.379964
0.597422
0.55444
0.463147
0.628804
0.692311
0.696426
0.684577
0.459753
0.367113
0.695652
0.36718
0.684089
0.696007
0.688874
0.465544
0.367125
0.695544
0.687114
0.598298
0.424697
0.695936
0.684023
0.597621
0.694368
0.694669
0.703326
0.692573
0.368246
0.685167
0.685769
0.638119
0.690303
0.704368
0.693939
0.702815
0.69094
0.421501
0.440885
0.367092
0.686849
0.594983
0.367192
0.689068
0.692709
0.470941
0.604808
0.497868
0.616476
0.59711
0.474911
0.694724
0.702545
0.367292
0.589245
0.68656
0.44632
0.696189
0.421198
0.46091
0.597885
0.597692
0.570439
0.68477
0.385428
0.697958
0.452531
0.463757
0.684971
0.367351
0.597731
0.464692
0.606625
0.597694
0.702979
0.695973
0.441572
0.426475
0.678484
0.595808
0.69081
0.586842
0.597716
0.6842
0.700784
0.596089
0.597673
0.693304
0.698098
0.690387
0.524174
0.367001
0.588052
0.693343
0.698481
0.543708
0.684763
0.598263
0.568169
0.46533
0.598477
0.655496
0.704218
0.695475
0.685994
0.682452
0.683959
0.660176
0.461836
0.598396
0.562674
0.693837
0.687015
0.509314
0.699182
0.693879
0.447348
0.468311
0.398903
0.704359
0.373453
0.597833
0.69356
0.598251
0.499532
0.695052
0.435487
0.596949
0.68396
0.684446
0.624756
0.684027
0.597708
0.674072
0.596704
0.689399
0.438683
0.684096
0.687591
0.594769
0.70165
0.687726
0.466236
0.443821
0.448966
0.694092
0.367006
0.702428
0.379837
0.695372
0.409588
0.563848
0.450191
0.696993
0.694
0.597767
0.500331
0.597712
0.683873
0.37006
0.597524
0.6931
0.462885
0.59767
0.688967
0.695321
0.684134
0.469583
0.596556
0.691532
0.6851
0.686322
0.36708
0.557825
0.694939
0.704088
0.699448
0.704332
0.597652
0.68979
0.597621
0.693803
0.367076
0.436903
0.704163
0.69442
0.683966
0.419178
0.684143
0.597712
0.598094
0.437779
0.542356
0.693508
0.691994
0.595958
0.526947
0.684449
0.699292
0.384186
0.597695
0.693533
0.384981
0.466192
0.432006
0.691288
0.489347
0.367316
0.694619
0.588177
0.697927
0.607545
0.389326
0.38811
0.693788
0.442088
0.417391
0.687056
0.474619
0.532883
0.59768
0.697815
0.688943
0.369034
0.506324
0.37531
0.696032
0.464641
0.689068
0.419133
0.689399
0.697428
0.69078
0.693446
0.688924
0.695048
0.686893
0.69414
0.689929
0.419997
0.373268
0.690421
0.683948
0.571238
0.692066
0.596857
0.683952
0.639169
0.490621
0.692138
0.693869
0.690724
0.383329
0.688828
0.487696
0.687227
0.565876
0.698197
0.6844
0.475889
0.691239
0.367337
0.583286
0.695907
0.412726
0.614162
0.704362
0.696518
0.393016
0.686633
0.368078
0.465452
0.465733
0.367227
0.654504
0.446711
0.636011
0.683976
0.528175
0.466048
0.564166
0.596757
0.59816
0.691226
0.36719
0.404456
0.382708
0.4486
0.498489
0.598578
0.694338
0.484762
0.683969
0.6931
0.429333
0.693847
0.608316
0.683891
0.37671
0.696479
0.686819
0.694735
0.694319
0.454628
0.689525
0.694706
0.688756
0.598155
0.683977
0.488408
0.465751
0.686302
0.586272
0.36711
0.684724
0.457296
0.59498
0.599955
0.695765
0.695969
0.465045
0.691962
0.555869
0.383439
0.664062
0.692632
0.69596
0.692515
0.630158
0.465513
0.694646
0.456311
0.570364
0.694092
0.693387
0.691301
0.380352
0.488263
0.695731
0.495275
0.69189
0.597728
0.555301
0.504507
0.693282
0.46395
0.684351
0.691762
0.648529
0.464436
0.443179
0.585816
0.596561
0.598022
0.580739
0.684138
0.691892
0.695972
0.704349
0.689811
0.394308
0.502146
0.692417
0.683956
0.681396
0.557904
0.432588
0.681815
0.440593
0.687558
0.597685
0.518758
0.690894
0.3693
0.697238
0.468603
0.695331
0.470552
0.687576
0.683922
0.468583
0.696413
0.598215
0.466493
0.684101
0.686014
0.596993
0.439564
0.540764
0.581192
0.698758
0.687188
0.510865
0.596556
0.690851
0.684072
0.500299
0.598834
0.695974
0.551253
0.684122
0.685105
0.507862
0.689561
0.690059
0.462869
0.597739
0.384161
0.622605
0.389126
0.461904
0.699223
0.367275
0.367281
0.438109
0.688279
0.696779
0.564001
0.684482
0.537364
0.679626
0.367801
0.6965
0.54337
0.684281
0.686573
0.641315
0.68407
0.589968
0.683918
0.683882
0.477293
0.597712
0.638799
0.59763
0.689466
0.566303
0.571815
0.694641
0.370039
0.596924
0.499524
0.684473
0.418641
0.464652
0.70267
0.686201
0.369668
0.693564
0.691159
0.704344
0.694328
0.696485
0.367897
0.694189
0.367607
0.459898
0.695982
0.695846
0.694928
0.696082
0.458726
0.392942
0.37649
0.694878
0.683966
0.537714
0.69784
0.414403
0.392879
0.426177
0.695899
0.547159
0.694732
0.690134
0.597707
0.694854
0.689581
0.59767
0.653961
0.548065
0.465436
0.368797
0.695537
0.697639
0.422154
0.598743
0.69103
0.644873
0.468125
0.586109
0.692791
0.50051
0.690337
0.628255
0.36733
0.683835
0.691702
0.36713
0.688678
0.414346
0.690775
0.697835
0.688978
0.442668
0.55682
0.61457
0.511767
0.549402
0.694016
0.51571
0.683863
0.689983
0.695002
0.691332
0.528401
0.687778
0.661606
0.685221
0.529709
0.692675
0.462018
0.434358
0.695856
0.687659
0.683871
0.481421
0.684641
0.597705
0.696373
0.407595
0.413967
0.367125
0.692735
0.38132
0.420222
0.468374
0.628648
0.418117
0.508592
0.549528
0.688887
0.367189
0.684043
0.683851
0.694443
0.39603
0.688657
0.599492
0.68402
0.543646
0.598181
0.390117
0.370014
0.686247
0.369714
0.599946
0.69046
0.703814
0.367187
0.519306
0.395522
0.592903
0.704353
0.484063
0.692239
0.68769
0.695574
0.36808
0.453128
0.523674
0.688972
0.367244
0.704369
0.597647
0.683864
0.694208
0.372178
0.60296
0.452606
0.656607
0.597735
0.695417
0.614116
0.597661
0.598918
0.684028
0.692687
0.378494
0.549406
0.420605
0.696648
0.596061
0.692764
0.367197
0.54686
0.695986
0.688559
0.684823
0.36886
0.69448
0.592523
0.593792
0.688047
0.470304
0.368637
0.508693
0.687993
0.684073
0.598059
0.69273
0.521864
0.696742
0.59802
0.684011
0.684094
0.696329
0.694055
0.684031
0.694311
0.696253
0.469979
0.689871
0.692687
0.684118
0.690598
0.687829
0.599242
0.367363
0.469406
0.653221
0.367115
0.527828
0.694779
0.435021
0.597703
0.688527
0.695686
0.689958
0.468118
0.694782
0.465857
0.429605
0.684069
0.689294
0.684702
0.402398
0.69333
0.684669
0.675036
0.685692
0.472202
0.684036
0.695739
0.689596
0.563744
0.700336
0.372557
0.69049
0.419741
0.367309
0.597965
0.56085
0.694781
0.698536
0.684118
0.46325
0.684013
0.566086
0.439189
0.695254
0.563479
0.36714
0.6843
0.478237
0.574227
0.613217
0.694436
0.6962
0.564952
0.597409
0.601987
0.684107
0.59963
0.695726
0.586907
0.695423
0.692361
0.599342
0.456743
0.37492
0.559028
0.692397
0.466298
0.600942
0.693803
0.59772
0.684144
0.597688
0.624488
0.664021
0.376842
0.693612
0.691449
0.597682
0.691782
0.695171
0.695866
0.684
0.36808
0.429069
0.688729
0.596424
0.597665
0.691972
0.68719
0.684715
0.699078
0.697915
0.597876
0.691727
0.695686
0.430442
0.476947
0.422169
0.508459
0.702116
0.571936
0.597612
0.690663
0.67369
0.463371
0.689347
0.690155
0.405884
0.536068
0.700963
0.690922
0.474096
0.460315
0.45111
0.704356
0.695643
0.568792
0.394062
0.367498
0.471324
0.531211
0.367085
0.695785
0.686498
0.688094
0.379903
0.695767
0.598024
0.597666
0.512925
0.369664
0.695159
0.704336
0.367174
0.684218
0.367145
0.701876
0.469763
0.694619
0.380365
0.696483
0.693684
0.392597
0.59409
0.497751
0.693981
0.475343
0.598315
0.454342
0.591999
0.389284
0.598184
0.369408
0.684352
0.684485
0.597664
0.689154
0.515806
0.696585
0.683926
0.693456
0.597924
0.679238
0.36917
0.587464
0.420078
0.700039
0.507195
0.693838
0.592732
0.695574
0.695185
0.596912
0.694742
0.440252
0.42638
0.430077
0.590552
0.598282
0.68718
0.377083
0.482296
0.684673
0.538698
0.463032
0.599568
0.536912
0.367152
0.467939
0.694703
0.59777
0.598514
0.444687
0.696738
0.689264
0.46454
0.522116
0.696
0.684818
0.650846
0.576632
0.54467
0.530042
0.393628
0.696724
0.662927
0.596225
0.656117
0.454392
0.597623
0.37066
0.686148
0.693533
0.368185
0.493299
0.670173
0.599123
0.69394
0.695984
0.697948
0.694193
0.694294
0.404948
0.477376
0.423372
0.372059
0.597778
0.688201
0.597783
0.369239
0.367181
0.587055
0.465879
0.68473
0.69405
0.367289
0.514754
0.688508
0.458721
0.602621
0.6968
0.696212
0.68403
0.597733
0.367046
0.385868
0.690634
0.367837
0.578438
0.562083
0.683982
0.693094
0.502312
0.367304
0.704323
0.37016
0.689209
0.70011
0.367123
0.449025
0.407175
0.687588
0.407974
0.704362
0.690753
0.597748
0.463787
0.585088
0.692415
0.694774
0.380603
0.695437
0.648642
0.463927
0.691096
0.693817
0.378485
0.367168
0.695421
0.372484
0.372092
0.695985
0.527272
0.685861
0.620046
0.701237
0.635709
0.694415
0.688949
0.683895
0.378044
0.542172
0.68071
0.688537
0.556062
0.694128
0.522765
0.690782
0.696224
0.597431
0.599622
0.586666
0.564833
0.688739
0.693506
0.692076
0.693682
0.6858
0.703275
0.694612
0.704354
0.697511
0.695388
0.696204
0.704246
0.683919
0.454749
0.695205
0.47515
0.693205
0.690051
0.696177
0.694971
0.68682
0.44371
0.394886
0.514083
0.378568
0.696147
0.37652
0.378792
0.68004
0.459645
0.693514
0.390988
0.696321
0.689555
0.367253
0.53798
0.521531
0.692331
0.443268
0.68706
0.69127
0.400002
0.694962
0.594665
0.536934
0.479015
0.465283
0.663019
0.367155
0.693913
0.597693
0.503423
0.687173
0.684262
0.698246
0.367151
0.597658
0.455582
0.695515
0.683994
0.691351
0.367074
0.688605
0.691689
0.693007
0.553204
0.69217
0.367104
0.367748
0.695443
0.570493
0.696426
0.584582
0.367101
0.551532
0.6939
0.470256
0.455042
0.440083
0.596773
0.694291
0.690521
0.427285
0.597895
0.686139
0.592486
0.591492
0.515688
0.594918
0.367082
0.368516
0.688155
0.367596
0.36722
0.69399
0.693062
0.409093
0.700088
0.406483
0.7021
0.485189
0.695439
0.684909
0.691981
0.683813
0.459041
0.368922
0.463481
0.684075
0.695489
0.597336
0.594919
0.534226
0.512538
0.684042
0.376577
0.685995
0.533829
0.684541
0.631383
0.390298
0.455114
0.367459
0.367305
0.462647
0.674229
0.696588
0.37947
0.689269
0.598817
0.508148
0.441229
0.692648
0.367151
0.689044
0.546409
0.693075
0.600716
0.688458
0.69314
0.433738
0.6977
0.693829
0.694363
0.367202
0.687045
0.59758
0.525344
0.692585
0.645409
0.696541
0.696791
0.694401
0.6956
0.694386
0.684183
0.685652
0.367298
0.699341
0.36745
0.589284
0.693987
0.462231
0.696503
0.690727
0.477926
0.693122
0.367206
0.465545
0.695925
0.688085
0.693202
0.369769
0.69679
0.597703
0.484967
0.379755
0.696417
0.688612
0.535571
0.449674
0.69359
0.693194
0.367121
0.599347
0.693824
0.597759
0.401721
0.36712
0.461511
0.600481
0.472368
0.694803
0.695543
0.684055
0.598527
0.689406
0.369624
0.695969
0.597693
0.693641
0.615612
0.466179
0.379892
0.457705
0.701514
0.691394
0.544762
0.600234
0.507736
0.646475
0.692352
0.445373
0.642585
0.694151
0.59794
0.383087
0.385847
0.510102
0.691562
0.696317
0.597702
0.576766
0.688811
0.367201
0.597931
0.699219
0.688671
0.385229
0.597699
0.481688
0.691888
0.464729
0.687753
0.695983
0.441624
0.691241
0.594915
0.704254
0.604759
0.704383
0.694047
0.570557
0.684019
0.684241
0.692384
0.68744
0.560377
0.701115
0.415532
0.684365
0.454739
0.36775
0.465589
0.459611
0.367123
0.382517
0.693998
0.531485
0.424297
0.618085
0.691461
0.696715
0.569312
0.678453
0.651541
0.684005
0.477255
0.606938
0.689598
0.500788
0.456531
0.369114
0.598031
0.572783
0.36714
0.599864
0.460622
0.692912
0.570399
0.399923
0.562631
0.599284
0.514445
0.688764
0.448084
0.597597
0.534605
0.696466
0.541105
0.627574
0.699352
0.689938
0.592221
0.367515
0.697078
0.693812
0.460719
0.465398
0.684159
0.367561
0.70007
0.379477
0.594481
0.456202
0.688964
0.478348
0.693911
0.367923
0.692801
0.689571
0.69351
0.702483
0.414585
0.45728
0.567861
0.696113
0.678394
0.693683
0.598543
0.478872
0.69423
0.5166
0.695362
0.683279
0.574624
0.504154
0.697515
0.687644
0.453255
0.686268
0.69751
0.696384
0.701041
0.450894
0.597955
0.367303
0.695684
0.47503
0.683782
0.694897
0.698111
0.69377
0.50615
0.691469
0.367324
0.38071
0.688547
0.70041
0.596881
0.688361
0.701619
0.367169
0.702226
0.696388
0.694616
0.465534
0.558066
0.656484
0.378899
0.690912
0.694277
0.696021
0.696126
0.504869
0.582364
0.598232
0.445302
0.696077
0.693208
0.587298
0.695956
0.501822
0.690794
0.70247
0.608003
0.696301
0.385874
0.466411
0.687398
0.696137
0.471156
0.521786
0.470458
0.453975
0.423298
0.46659
0.486303
0.367119
0.687647
0.453907
0.402405
0.692711
0.596977
0.70428
0.544669
0.36723
0.687104
0.58159
0.597347
0.696468
0.537815
0.598345
0.684133
0.597685
0.695932
0.442183
0.690553
0.683874
0.409483
0.368053
0.574022
0.690247
0.597688
0.69462
0.684306
0.688728
0.694538
0.550245
0.690574
0.683865
0.697155
0.367305
0.689515
0.659774
0.546643
0.555931
0.40643
0.451323
0.424179
0.597686
0.614979
0.689846
0.36821
0.540814
0.693758
0.469239
0.691691
0.684291
0.695967
0.606921
0.688275
0.496356
0.453627
0.453175
0.597675
0.471735
0.68607
0.454207
0.686936
0.684136
0.689509
0.502755
0.57884
0.56608
0.689401
0.439674
0.369704
0.694985
0.696149
0.609913
0.68421
0.69658
0.699326
0.367023
0.597699
0.695185
0.58357
0.688867
0.692888
0.698922
0.552055
0.543589
0.6946
0.569145
0.598874
0.367291
0.694975
0.696112
0.565228
0.472621
0.695142
0.587321
0.694015
0.69179
0.367146
0.369196
0.689965
0.592697
0.572659
0.695965
0.696326
0.484664
0.693574
0.689234
0.69521
0.366996
0.597684
0.367041
0.695619
0.693406
0.699082
0.689586
0.688213
0.51041
0.535515
0.688545
0.368119
0.59767
0.497376
0.689081
0.435352
0.603041
0.695322
0.69091
0.367068
0.704382
0.696726
0.371009
0.694378
0.46529
0.694364
0.367122
0.385598
0.444104
0.685002
0.690961
0.521237
0.512612
0.694715
0.694247
0.566644