# vtk DataFile Version 1.0
unstructured grid
ascii
DATASET UNSTRUCTURED_GRID
points 13672 float
0.0796578 -0.059106 0
0.00128732 0.00159165 0
0.00227961 -0.00102548 0
0.0791586 -0.0598787 0
-0.0546216 0.01 0
0.000495206 0.025 0
0.0800549 -0.035 0
0.135172 -0.08 0
-0.0546216 -0.0451168 0
0.000495206 -0.0301168 0
0.0800549 -0.0901168 0
0.135172 -0.135117 0
-0.0546216 -0.0451168 -0.00551168
0.000495206 -0.0301168 -0.00551168
0.0800549 -0.0901168 -0.00551168
0.135172 -0.135117 -0.00551168
0.135172 -0.08 -0.00551168
0.0800549 -0.035 -0.00551168
0.000495206 0.025 -0.00551168
-0.0546216 0.01 -0.00551168
0.00128732 0.00159165 -0.00551168
0.00227961 -0.00102548 -0.00551168
0.0791586 -0.0598787 -0.00551168
0.0796578 -0.059106 -0.00551168
0.00165953 -0.000990923 0
0.00119576 -0.000874076 0
0.000866021 -0.000641801 0
0.000645147 -0.000349912 0
0.00052235 -1.7281e-05 0
0.00049972 0.000348016 0
0.000601632 0.000737716 0
0.000861774 0.0011403 0
0.00157235 0.00183217 0
0.00188647 0.00206725 0
0.00222612 0.00230203 0
0.00258713 0.00254351 0
0.00296826 0.00279524 0
0.00337118 0.00305664 0
0.00379785 0.00332658 0
0.00425045 0.00360349 0
0.00473139 0.00388521 0
0.0052432 0.00416895 0
0.0057881 0.00445204 0
0.00636753 0.00473281 0
0.00698281 0.00500961 0
0.00763526 0.00528058 0
0.00832616 0.00554366 0
0.00905691 0.00579603 0
0.00982918 0.00603333 0
0.0106445 0.00625033 0
0.0115038 0.00644128 0
0.0124073 0.00660297 0
0.0133543 0.00673414 0
0.0143444 0.00683382 0
0.0153769 0.00690031 0
0.0164512 0.00693173 0
0.0175666 0.00692547 0
0.0187219 0.00687822 0
0.0199156 0.00678477 0
0.0211454 0.00663864 0
0.0224084 0.00643275 0
0.0237018 0.00616676 0
0.0250249 0.00584739 0
0.026375 0.00547298 0
0.0277479 0.00503752 0
0.0291386 0.00453545 0
0.0305433 0.0039653 0
0.0319572 0.0033256 0
0.0333681 0.00260019 0
0.034775 0.00179799 0
0.0361793 0.000930615 0
0.0375798 3.12222e-06 0
0.0389689 -0.000988429 0
0.0403357 -0.00205109 0
0.041675 -0.00318283 0
0.0429849 -0.00437751 0
0.0442643 -0.00562904 0
0.0455126 -0.00693089 0
0.0467314 -0.00827518 0
0.0479204 -0.00965638 0
0.0490661 -0.0110799 0
0.0501515 -0.0125519 0
0.0511696 -0.0140695 0
0.0521492 -0.0156071 0
0.0531202 -0.0171411 0
0.0540851 -0.0186663 0
0.0550431 -0.0201798 0
0.0559923 -0.0216793 0
0.0569311 -0.0231626 0
0.0578582 -0.0246273 0
0.0587723 -0.0260715 0
0.0596721 -0.027493 0
0.0605563 -0.02889 0
0.0614241 -0.0302609 0
0.0622742 -0.0316042 0
0.063106 -0.0329183 0
0.0639186 -0.034202 0
0.0647113 -0.0354543 0
0.0654835 -0.0366743 0
0.0662345 -0.0378613 0
0.0669642 -0.0390145 0
0.0676726 -0.0401333 0
0.0683597 -0.0412172 0
0.0690246 -0.0422665 0
0.0696662 -0.0432819 0
0.0702841 -0.0442636 0
0.0708793 -0.0452111 0
0.0714538 -0.0461237 0
0.072009 -0.047001 0
0.0725452 -0.0478434 0
0.0730611 -0.0486524 0
0.073556 -0.0494294 0
0.0740291 -0.0501756 0
0.0744812 -0.0508916 0
0.0749138 -0.0515773 0
0.0753285 -0.0522331 0
0.0757266 -0.0528592 0
0.076109 -0.0534564 0
0.0764753 -0.0540264 0
0.0768243 -0.054571 0
0.0771553 -0.0550919 0
0.0774679 -0.0555901 0
0.0777617 -0.0560669 0
0.0780369 -0.056523 0
0.0782958 -0.0569578 0
0.0785421 -0.0573703 0
0.0787786 -0.0577603 0
0.0790073 -0.0581279 0
0.0792295 -0.058474 0
0.0794462 -0.0587995 0
0.0798803 -0.0594162 0
0.0800272 -0.0596588 0
0.0800357 -0.0598891 0
0.0799275 -0.0600784 0
0.0797205 -0.0601773 0
0.0794593 -0.0601051 0
0.0789155 -0.0596491 0
0.0786707 -0.0593963 0
0.0784111 -0.0591319 0
0.0781372 -0.0588542 0
0.0778566 -0.0585548 0
0.0775715 -0.0582308 0
0.0772803 -0.0578828 0
0.0769832 -0.0575099 0
0.0766822 -0.0571097 0
0.0763801 -0.0566796 0
0.0760759 -0.0562196 0
0.0757623 -0.0557337 0
0.0754359 -0.0552232 0
0.0750951 -0.0546879 0
0.0747379 -0.054128 0
0.0743626 -0.0535435 0
0.0739688 -0.0529338 0
0.0735559 -0.0522981 0
0.0731238 -0.0516357 0
0.0726718 -0.050946 0
0.0721991 -0.0502288 0
0.0717046 -0.049484 0
0.0711872 -0.0487117 0
0.0706461 -0.047912 0
0.0700804 -0.0470849 0
0.0694892 -0.0462308 0
0.0688718 -0.0453499 0
0.0682271 -0.0444431 0
0.0675544 -0.043511 0
0.0668527 -0.0425546 0
0.0661215 -0.0415748 0
0.06536 -0.040573 0
0.0645676 -0.0395504 0
0.0637439 -0.0385087 0
0.0628887 -0.0374493 0
0.062002 -0.0363741 0
0.0610838 -0.0352847 0
0.0601345 -0.0341831 0
0.0591547 -0.033071 0
0.0581456 -0.0319502 0
0.0571083 -0.0308224 0
0.0560444 -0.0296893 0
0.0549562 -0.028552 0
0.053845 -0.0274126 0
0.0527113 -0.0262746 0
0.051554 -0.0251427 0
0.0503724 -0.0240222 0
0.0491675 -0.0229164 0
0.047941 -0.0218282 0
0.0466955 -0.0207597 0
0.0454337 -0.0197126 0
0.0441592 -0.0186878 0
0.0428751 -0.0176863 0
0.0415841 -0.0167097 0
0.0402878 -0.0157609 0
0.0389879 -0.0148428 0
0.0376864 -0.0139575 0
0.0363853 -0.013107 0
0.0350871 -0.0122931 0
0.0337942 -0.0115164 0
0.0325095 -0.0107772 0
0.0312357 -0.0100756 0
0.0299758 -0.00941024 0
0.0287337 -0.00877784 0
0.0275126 -0.00817571 0
0.0263139 -0.00760375 0
0.0251376 -0.00706528 0
0.0239829 -0.0065649 0
0.0228537 -0.00609619 0
0.0217522 -0.00565563 0
0.0206795 -0.00524226 0
0.0196364 -0.00485507 0
0.0186233 -0.00449318 0
0.0176408 -0.00415577 0
0.016689 -0.00384204 0
0.0157682 -0.00355115 0
0.0148783 -0.00328218 0
0.0140192 -0.00303468 0
0.0131906 -0.00280795 0
0.0123925 -0.00260016 0
0.0116246 -0.00241012 0
0.0108864 -0.00223769 0
0.0101774 -0.00208212 0
0.00949701 -0.00194206 0
0.00884483 -0.0018163 0
0.0082202 -0.0017039 0
0.00762247 -0.00160391 0
0.00705097 -0.00151528 0
0.006505 -0.00143697 0
0.0059838 -0.00136806 0
0.00548662 -0.00130772 0
0.00501265 -0.00125519 0
0.00456114 -0.00120954 0
0.00413136 -0.00116914 0
0.00372257 -0.00113251 0
0.00333398 -0.00109853 0
0.00296466 -0.00106798 0
0.00261363 -0.0010431 0
-0.052721 -0.0445996 0
-0.0508204 -0.0440823 0
-0.0489199 -0.0435651 0
-0.0470193 -0.0430478 0
-0.0451187 -0.0425306 0
-0.0432181 -0.0420134 0
-0.0413175 -0.0414961 0
-0.039417 -0.0409789 0
-0.0375164 -0.0404616 0
-0.0356158 -0.0399444 0
-0.0337152 -0.0394271 0
-0.0318146 -0.0389099 0
-0.0299141 -0.0383927 0
-0.0280135 -0.0378754 0
-0.0261129 -0.0373582 0
-0.0242123 -0.0368409 0
-0.0223117 -0.0363237 0
-0.0204112 -0.0358065 0
-0.0185106 -0.0352892 0
-0.01661 -0.034772 0
-0.0147094 -0.0342547 0
-0.0128088 -0.0337375 0
-0.0109083 -0.0332202 0
-0.00900769 -0.032703 0
-0.00710711 -0.0321858 0
-0.00520653 -0.0316685 0
-0.00330595 -0.0311513 0
-0.00140537 -0.030634 0
0.00190689 -0.0299614 0
0.00332271 -0.0298498 0
0.00474133 -0.0297825 0
0.00616136 -0.0297597 0
0.0075814 -0.0297814 0
0.00900007 -0.0298477 0
0.010416 -0.0299583 0
0.0118278 -0.0301127 0
0.0132342 -0.0303103 0
0.0146339 -0.0305504 0
0.0160259 -0.0308322 0
0.0174091 -0.0311546 0
0.0187824 -0.0315166 0
0.020145 -0.031917 0
0.0214961 -0.0323546 0
0.0228351 -0.032828 0
0.0241613 -0.0333361 0
0.0254744 -0.0338774 0
0.0267738 -0.0344507 0
0.0280592 -0.0350545 0
0.0293306 -0.0356877 0
0.0305875 -0.0363488 0
0.0318301 -0.0370367 0
0.0330581 -0.0377501 0
0.0342717 -0.0384879 0
0.0354708 -0.0392489 0
0.0366556 -0.0400321 0
0.0378262 -0.0408363 0
0.0389828 -0.0416607 0
0.0401254 -0.0425042 0
0.0412543 -0.0433659 0
0.0423698 -0.0442451 0
0.043472 -0.0451408 0
0.0445612 -0.0460523 0
0.0456375 -0.0469789 0
0.0467013 -0.0479199 0
0.0477529 -0.0488746 0
0.0487923 -0.0498424 0
0.04982 -0.0508227 0
0.0508362 -0.051815 0
0.051841 -0.0528187 0
0.0528348 -0.0538333 0
0.0538178 -0.0548584 0
0.0547903 -0.0558935 0
0.0557524 -0.0569382 0
0.0567045 -0.0579922 0
0.0576467 -0.0590549 0
0.0585792 -0.0601261 0
0.0595024 -0.0612055 0
0.0604163 -0.0622926 0
0.0613212 -0.0633873 0
0.0622174 -0.0644891 0
0.0631049 -0.0655979 0
0.0639841 -0.0667134 0
0.064855 -0.0678353 0
0.0657179 -0.0689633 0
0.0665729 -0.0700974 0
0.0674202 -0.0712372 0
0.06826 -0.0723826 0
0.0690925 -0.0735333 0
0.0699178 -0.0746892 0
0.070736 -0.0758501 0
0.0715473 -0.0770159 0
0.0723518 -0.0781863 0
0.0731498 -0.0793612 0
0.0739412 -0.0805405 0
0.0747264 -0.081724 0
0.0755053 -0.0829116 0
0.0762781 -0.0841033 0
0.0770449 -0.0852987 0
0.0778059 -0.0864979 0
0.0785611 -0.0877007 0
0.0793108 -0.088907 0
0.0814681 -0.0912706 0
0.0828814 -0.0924245 0
0.0842946 -0.0935783 0
0.0857079 -0.0947322 0
0.0871211 -0.095886 0
0.0885344 -0.0970399 0
0.0899476 -0.0981937 0
0.0913609 -0.0993476 0
0.0927741 -0.100501 0
0.0941874 -0.101655 0
0.0956006 -0.102809 0
0.0970139 -0.103963 0
0.0984272 -0.105117 0
0.0998404 -0.106271 0
0.101254 -0.107424 0
0.102667 -0.108578 0
0.10408 -0.109732 0
0.105493 -0.110886 0
0.106907 -0.11204 0
0.10832 -0.113194 0
0.109733 -0.114348 0
0.111146 -0.115501 0
0.11256 -0.116655 0
0.113973 -0.117809 0
0.115386 -0.118963 0
0.116799 -0.120117 0
0.118213 -0.121271 0
0.119626 -0.122424 0
0.121039 -0.123578 0
0.122452 -0.124732 0
0.123866 -0.125886 0
0.125279 -0.12704 0
0.126692 -0.128194 0
0.128105 -0.129348 0
0.129519 -0.130501 0
0.130932 -0.131655 0
0.132345 -0.132809 0
0.133758 -0.133963 0
0.135172 -0.133216 0
0.135172 -0.131316 0
0.135172 -0.129415 0
0.135172 -0.127514 0
0.135172 -0.125614 0
0.135172 -0.123713 0
0.135172 -0.121813 0
0.135172 -0.119912 0
0.135172 -0.118012 0
0.135172 -0.116111 0
0.135172 -0.11421 0
0.135172 -0.11231 0
0.135172 -0.110409 0
0.135172 -0.108509 0
0.135172 -0.106608 0
0.135172 -0.104708 0
0.135172 -0.102807 0
0.135172 -0.100906 0
0.135172 -0.0990058 0
0.135172 -0.0971052 0
0.135172 -0.0952046 0
0.135172 -0.0933041 0
0.135172 -0.0914035 0
0.135172 -0.0895029 0
0.135172 -0.0876023 0
0.135172 -0.0857017 0
0.135172 -0.0838012 0
0.135172 -0.0819006 0
0.133758 -0.0788462 0
0.132345 -0.0776923 0
0.130932 -0.0765385 0
0.129519 -0.0753846 0
0.128105 -0.0742308 0
0.126692 -0.0730769 0
0.125279 -0.0719231 0
0.123866 -0.0707692 0
0.122452 -0.0696154 0
0.121039 -0.0684615 0
0.119626 -0.0673077 0
0.118213 -0.0661538 0
0.116799 -0.065 0
0.115386 -0.0638462 0
0.113973 -0.0626923 0
0.11256 -0.0615385 0
0.111146 -0.0603846 0
0.109733 -0.0592308 0
0.10832 -0.0580769 0
0.106907 -0.0569231 0
0.105493 -0.0557692 0
0.10408 -0.0546154 0
0.102667 -0.0534615 0
0.101254 -0.0523077 0
0.0998404 -0.0511538 0
0.0984272 -0.05 0
0.0970139 -0.0488462 0
0.0956006 -0.0476923 0
[...]
CELL_DATA 13116
SCALARS rho float
LOOKUP_TABLE default
0.5977
0.600501
0.567621
0.650095
0.622536
0.683905
0.435102
0.671761
0.5977
0.610525
0.405325
0.572947
0.623954
0.518879
0.535838
0.683925
0.5977
0.597715
0.684048
0.397489
0.5977
0.571786
0.556984
0.597793
0.5977
0.647182
0.609871
0.593509
0.5977
0.5977
0.684053
0.566963
0.5977
0.597699
0.443396
0.5977
0.597701
0.673538
0.683918
0.682782
0.68405
0.668012
0.5977
0.546798
0.683635
0.683972
0.599973
0.683629
0.562953
0.5977
0.673761
0.5977
0.472015
0.5977
0.5977
0.5977
0.545677
0.597949
0.5977
0.550495
0.52168
0.629521
0.599956
0.683903
0.683768
0.495314
0.684235
0.5977
0.684106
0.683677
0.535017
0.5977
0.575123
0.526373
0.687318
0.501242
0.597704
0.656157
0.412011
0.597704
0.597724
0.636125
0.598006
0.680581
0.669699
0.596454
0.453182
0.5977
0.662568
0.367248
0.575329
0.6014
0.598294
0.669833
0.5977
0.5977
0.5977
0.684827
0.685607
0.5977
0.5977
0.597709
0.684122
0.597697
0.600589
0.559863
0.593485
0.5977
0.581079
0.5977
0.5977
0.617354
0.5977
0.597711
0.597705
0.684208
0.480127
0.59671
0.671114
0.684015
0.5977
0.582177
0.684057
0.575013
0.665172
0.597658
0.458551
0.5977
0.567859
0.5977
0.671657
0.616023
0.59767
0.566233
0.59761
0.5977
0.703949
0.683174
0.5977
0.684022
0.597701
0.60073
0.5977
0.597701
0.59788
0.536239
0.44116
0.631492
0.611737
0.679055
0.5977
0.681265
0.683766
0.457184
0.606488
0.674171
0.569116
0.5977
0.684929
0.5977
0.597797
0.406554
0.598561
0.569429
0.585079
0.641187
0.660824
0.597712
0.440155
0.597375
0.596796
0.703749
0.533083
0.5977
0.684226
0.556755
0.550052
0.574431
0.614289
0.684163
0.382734
0.597505
0.5977
0.5977
0.684171
0.5977
0.457119
0.684018
0.601979
0.597695
0.5977
0.629491
0.683661
0.582715
0.616882
0.684019
0.600602
0.684064
0.659874
0.597695
0.597698
0.5977
0.597699
0.532711
0.615206
0.673992
0.5977
0.5977
0.542134
0.386666
0.497861
0.684137
0.575576
0.371098
0.36889
0.462935
0.59625
0.68401
0.663108
0.595846
0.538413
0.684219
0.5977
0.381633
0.5977
0.61968
0.597832
0.594659
0.684212
0.594585
0.668558
0.568189
0.683967
0.5977
0.685839
0.679566
0.683654
0.56926
0.597655
0.5977
0.689971
0.684071
0.703132
0.683892
0.675826
0.553291
0.679992
0.61147
0.685079
0.422689
0.565671
0.679858
0.675279
0.683951
0.672343
0.5977
0.597701
0.401942
0.578045
0.597569
0.540537
0.599315
0.600416
0.597704
0.430891
0.683056
0.473257
0.596555
0.601011
0.42212
0.638927
0.667667
0.692613
0.597983
0.567453
0.695024
0.59775
0.684855
0.683245
0.403258
0.442661
0.582829
0.5977
0.58054
0.576848
0.591345
0.589437
0.646489
0.483023
0.672275
0.642451
0.443171
0.393022
0.467386
0.597623
0.586399
0.5977
0.5977
0.607754
0.416783
0.6841
0.5977
0.581405
0.549643
0.683769
0.676834
0.684078
0.462567
0.68401
0.597694
0.618489
0.666306
0.680718
0.667065
0.585353
0.684217
0.514624
0.683908
0.616218
0.5977
0.372817
0.59092
0.614758
0.467078
0.612515
0.631159
0.59719
0.5977
0.597981
0.453211
0.682769
0.598298
0.513222
0.672691
0.596135
0.5977
0.673782
0.596395
0.5977
0.430475
0.597752
0.591686
0.683944
0.597851
0.601262
0.594318
0.594363
0.673077
0.452425
0.62625
0.603899
0.597466
0.703437
0.45331
0.561378
0.651781
0.5977
0.5977
0.447712
0.570894
0.680376
0.640648
0.432887
0.661537
0.495612
0.563385
0.684152
0.675076
0.5977
0.366918
0.682429
0.683973
0.683935
0.681464
0.600317
0.5977
0.597149
0.532454
0.383076
0.683924
0.381264
0.5977
0.597147
0.580703
0.593851
0.5977
0.583887
0.446708
0.673497
0.576744
0.598899
0.5977
0.684077
0.5977
0.677723
0.563986
0.439169
0.597695
0.59602
0.632237
0.5977
0.684078
0.5977
0.597885
0.5977
0.633309
0.5977
0.5977
0.601636
0.597702
0.683848
0.597608
0.5977
0.5977
0.565557
0.5977
0.5977
0.470429
0.68421
0.692878
0.585902
0.384563
0.369832
0.444887
0.5977
0.491916
0.582446
0.684186
0.493467
0.5977
0.367045
0.683871
0.597995
0.593906
0.566493
0.648094
0.597588
0.366807
0.445153
0.367277
0.582308
0.439722
0.38175
0.581039
0.596735
0.380425
0.597709
0.593055
0.670777
0.597665
0.573879
0.5976
0.538997
0.367475
0.541899
0.68336
0.597242
0.5977
0.5977
0.488441
0.5977
0.666279
0.596386
0.5977
0.5977
0.5977
0.437751
0.6859
0.596687
0.598918
0.684442
0.58774
0.479324
0.601182
0.59642
0.596338
0.597899
0.59343
0.5977
0.598112
0.393272
0.544995
0.518632
0.597699
0.546367
0.498988
0.53237
0.512099
0.647389
0.640026
0.597641
0.5977
0.597631
0.612589
0.595356
0.483823
0.5977
0.588686
0.655567
0.589009
0.595338
0.597659
0.683299
0.654872
0.5977
0.597196
0.47405
0.5977
0.67135
0.683845
0.5977
0.599333
0.599008
0.376528
0.597942
0.5977
0.5977
0.591919
0.585674
0.597709
0.599686
0.5977
0.617098
0.645606
0.655274
0.597773
0.5977
0.684097
0.370525
0.682956
0.592309
0.548974
0.368249
0.644498
0.676858
0.59005
0.667493
0.5977
0.371029
0.68375
0.678242
0.599067
0.59276
0.479538
0.650038
0.366815
0.366882
0.548198
0.374877
0.641541
0.50642
0.645579
0.592044
0.599964
0.675753
0.684205
0.634326
0.366807
0.383797
0.673231
0.667653
0.597702
0.64603
0.609842
0.597455
0.448079
0.590985
0.684095
0.5977
0.369129
0.597568
0.580093
0.675365
0.684001
0.591566
0.57526
0.665166
0.596577
0.6752
0.5977
0.5637
0.594592
0.597701
0.690599
0.571435
0.651346
0.660924
0.674863
0.485397
0.703137
0.537251
0.686584
0.5977
0.366859
0.596133
0.577716
0.68613
0.581445
0.427166
0.59689
0.683762
0.602734
0.423749
0.576583
0.368903
0.683683
0.577864
0.684101
0.533164
0.5977
0.618624
0.597665
0.565886
0.559701
0.597474
0.59156
0.64693
0.473869
0.50114
0.683863
0.49923
0.684142
0.606506
0.685474
0.367798
0.659052
0.598915
0.60068
0.684087
0.670352
0.684188
0.5544
0.683816
0.596076
0.645053
0.405637
0.675673
0.5977
0.449311
0.683891
0.605783
0.460183
0.5977
0.574926
0.531207
0.684175
0.683307
0.579501
0.542592
0.416364
0.554534
0.673765
0.59779
0.480996
0.403467
0.622884
0.683519
0.5977
0.598968
0.683986
0.402687
0.602144
0.596967
0.674291
0.597177
0.5977
0.597467
0.684214
0.597701
0.5977
0.5948
0.592007
0.684029
0.5977
0.5977
0.598787
0.534092
0.597879
0.605376
0.594793
0.5977
0.599566
0.596945
0.6838
0.5977
0.590477
0.683436
0.5977
0.567954
0.600142
0.581531
0.65336
0.525394
0.684119
0.599692
0.593359
0.683883
0.598657
0.637012
0.5977
0.599035
0.5977
0.589209
0.597691
0.57624
0.524278
0.704298
0.5977
0.683987
0.611535
0.371459
0.590407
0.60087
0.620001
0.644091
0.668963
0.384019
0.597702
0.61277
0.392956
0.577557
0.668267
0.680869
0.662297
0.558461
0.5977
0.596121
0.599128
0.608403
0.68384
0.613112
0.370574
0.617028
0.671518
0.598185
0.682669
0.684058
0.595926
0.600641
0.387698
0.597749
0.612547
0.597406
0.598101
0.683865
0.67672
0.597699
0.597597
0.5977
0.5977
0.366839
0.366833
0.428117
0.379456
0.599527
0.597863
0.683857
0.590273
0.386978
0.684113
0.5977
0.509998
0.590881
0.597527
0.597705
0.684037
0.680701
0.597768
0.383042
0.366821
0.701129
0.574198
0.371251
0.480902
0.684081
0.596093
0.36683
0.5977
0.662139
0.612453
0.683878
0.684027
0.481755
0.515479
0.422194
0.5977
0.597214
0.570977
0.5977
0.597726
0.641357
0.684036
0.562402
0.367207
0.615619
0.367113
0.684071
0.600018
0.684312
0.579588
0.367212
0.64045
0.683983
0.5977
0.509807
0.674808
0.683889
0.5977
0.679326
0.672441
0.698819
0.599039
0.381825
0.684019
0.683847
0.5977
0.598771
0.704328
0.617936
0.697054
0.683514
0.498879
0.527216
0.367152
0.683948
0.5977
0.367022
0.601733
0.617735
0.571681
0.5977
0.595928
0.5977
0.5977
0.566967
0.624696
0.597752
0.36832
0.5977
0.683937
0.548885
0.67017
0.506707
0.557795
0.5977
0.5977
0.597601
0.684122
0.434719
0.59871
0.542324
0.565634
0.684132
0.369905
0.5977
0.578269
0.5977
0.5977
0.697856
0.657541
0.530587
0.506369
0.597712
0.5977
0.639957
0.5977
0.5977
0.683872
0.59809
0.5977
0.5977
0.614305
0.601102
0.684223
0.59206
0.366783
0.597699
0.615889
0.600703
0.597078
0.684115
0.5977
0.597693
0.57883
0.5977
0.597704
0.702333
0.686602
0.597801
0.59774
0.683737
0.597705
0.572163
0.5977
0.597526
0.682759
0.68099
0.588834
0.671605
0.634803
0.535725
0.561799
0.464566
0.704149
0.405297
0.5977
0.599947
0.5977
0.584168
0.66559
0.532371
0.5977
0.683872
0.683821
0.5977
0.683676
0.5977
0.597721
0.5977
0.64494
0.527963
0.684103
0.684202
0.5977
0.694273
0.598054
0.584984
0.534139
0.552445
0.680406
0.366727
0.695758
0.421948
0.672692
0.48244
0.59746
0.554655
0.598679
0.668409
0.5977
0.585305
0.5977
0.684051
0.3904
0.5977
0.639774
0.569738
0.5977
0.684282
0.618715
0.684095
0.589334
0.5977
0.636928
0.684037
0.597747
0.366878
0.597546
0.677614
0.702084
0.690634
0.703622
0.5977
0.6162
0.5977
0.683525
0.366833
0.534816
0.702445
0.623245
0.683769
0.502618
0.684095
0.5977
0.5977
0.524195
0.595845
0.659275
0.661239
0.5977
0.596736
0.684062
0.690674
0.432915
0.5977
0.597768
0.43495
0.573029
0.517822
0.606139
0.579552
0.369941
0.681717
0.5977
0.601877
0.5977
0.444261
0.44324
0.650784
0.528678
0.492801
0.683953
0.572127
0.595716
0.5977
0.669269
0.64805
0.386121
0.596932
0.410314
0.607177
0.562059
0.652194
0.496518
0.604374
0.664532
0.683065
0.601365
0.607702
0.606643
0.684019
0.634553
0.661073
0.501986
0.403084
0.600936
0.683771
0.597606
0.605992
0.5977
0.68375
0.5977
0.592963
0.684161
0.633533
0.654788
0.429966
0.615114
0.584247
0.678953
0.597467
0.59771
0.684071
0.567754
0.623623
0.369485
0.597699
0.59962
0.486343
0.5977
0.704242
0.676291
0.451269
0.684182
0.378979
0.578834
0.58136
0.368846
0.597701
0.536288
0.5977
0.68391
0.596737
0.584056
0.597436
0.5977
0.5977
0.597887
0.367852
0.476152
0.429243
0.552295
0.58479
0.5977
0.625037
0.594147
0.683921
0.60005
0.513751
0.630056
0.5977
0.683925
0.413871
0.687758
0.598777
0.602336
0.682141
0.545633
0.642226
0.606668
0.616485
0.5977
0.684066
0.577946
0.581951
0.682451
0.597698
0.367038
0.684111
0.568765
0.5977
0.5977
0.648615
0.657045
0.575702
0.604758
0.597566
0.430291
0.5977
0.633173
0.604425
0.679798
0.5977
0.579178
0.626654
0.548358
0.597589
0.642354
0.686015
0.638508
0.423078
0.580146
0.613085
0.582006
0.6518
0.5977
0.597348
0.588125
0.684033
0.577034
0.684113
0.648932
0.597702
0.578088
0.530309
0.597699
0.5977
0.5977
0.597696
0.683946
0.597964
0.674927
0.704313
0.602864
0.455288
0.586997
0.654747
0.684074
0.59772
0.597305
0.527221
0.597857
0.528591
0.683999
0.5977
0.596717
0.630438
0.388499
0.664027
0.568749
0.610385
0.563743
0.671028
0.68415
0.571331
0.667081
0.5977
0.575019
0.683862
0.684101
0.5977
0.535912
0.596881
0.597697
0.599225
0.597787
0.592476
0.5977
0.603574
0.68385
0.58456
0.5977
0.627285
0.596468
0.683969
0.683942
0.587857
0.673916
0.684533
0.563337
0.5977
0.433211
0.5977
0.442892
0.558222
0.599367
0.36863
0.368658
0.526079
0.684211
0.608579
0.597654
0.684066
0.596519
0.597787
0.376498
0.610785
0.597197
0.683887
0.682665
0.597701
0.683961
0.5977
0.684148
0.683929
0.585581
0.5977
0.597701
0.5977
0.603035
0.597499
0.597685
0.62592
0.391055
0.5977
0.596213
0.684103
0.500386
0.5815
0.597743
0.684017
0.390315
0.683403
0.597717
0.704191
0.670692
0.687246
0.378716
0.626922
0.375718
0.574058
0.66518
0.59782
0.669431
0.670942
0.565511
0.450155
0.413813
0.602759
0.683904
0.596587
0.671742
0.494246
0.450235
0.5066
0.667556
0.597089
0.627072
0.656745
0.5977
0.682998
0.662213
0.5977
0.597702
0.596436
0.574576
0.385618
0.686863
0.688294
0.508627
0.5977
0.605066
0.597701
0.587298
0.5977
0.598057
0.588241
0.59784
0.5977
0.372003
0.684085
0.600156
0.366941
0.649611
0.488215
0.684078
0.603093
0.61016
0.531436
0.59705
0.5977
0.589298
0.59628
0.683518
0.591025
0.684108
0.684228
0.63649
0.597713
0.59752
0.683932
0.5977
0.684065
0.593474
0.675731
0.553432
0.527556
0.668197
0.684004
0.683967
0.585977
0.684103
0.5977
0.688018
0.481987
0.493649
0.366812
0.682361
0.426682
0.498783
0.564436
0.5977
0.49443
0.588615
0.596567
0.657631
0.367914
0.68391
0.684058
0.683336
0.456929
0.681103
0.5977
0.683898
0.596052
0.5977
0.44513
0.390821
0.684171
0.390609
0.5977
0.600503
0.70061
0.36861
0.591102
0.45507
0.5977
0.703589
0.586506
0.674282
0.684199
0.597726
0.378394
0.544709
0.591974
0.597957
0.367334
0.704329
0.5977
0.684081
0.679169
0.401332
0.5977
0.556416
0.597701
0.5977
0.618452
0.5977
0.5977
0.5977
0.597731
0.654357
0.419357
0.597617
0.503664
0.597707
0.5977
0.685947
0.368724
0.596928
0.599251
0.680094
0.683803
0.386019
0.683122
0.5977
0.5977
0.597815
0.587301
0.384551
0.588308
0.684012
0.683864
0.5977
0.610602
0.591946
0.675702
0.5977
0.683859
0.683889
0.676912
0.631656
0.683949
0.59798
0.602452
0.589719
0.682569
0.678763
0.684066
0.678219
0.68402
0.5977
0.371257
0.567712
0.597701
0.367116
0.597158
0.682546
0.519479
0.5977
0.684168
0.601257
0.658991
0.587977
0.68229
0.581929
0.521921
0.683961
0.622031
0.68404
0.468785
0.667809
0.684106
0.597708
0.684072
0.564372
0.684083
0.613528
0.598922
0.597677
0.597786
0.401211
0.656202
0.497112
0.369767
0.5977
0.597483
0.62398
0.598184
0.68412
0.557841
0.684076
0.597667
0.525501
0.641073
0.597377
0.367014
0.684091
0.573798
0.597647
0.5977
0.598567
0.65082
0.597454
0.5977
0.5977
0.684155
0.5977
0.605693
0.597699
0.669981
0.6098
0.5977
0.558504
0.410255
0.597422
0.67958
0.584968
0.5977
0.683084
0.5977
0.684148
0.5977
0.5977
0.597707
0.414347
0.683619
0.602737
0.5977
0.602438
0.619045
0.648229
0.683825
0.378296
0.510477
0.640369
0.5977
0.5977
0.683566
0.677669
0.684032
0.599696
0.602456
0.5977
0.59799
0.616355
0.514337
0.577151
0.506347
0.594973
0.695408
0.59767
0.5977
0.632668
0.597716
0.579381
0.658513
0.650147
0.475129
0.595676
0.692645
0.682402
0.592046
0.560787
0.549546
0.704325
0.645095
0.597696
0.454278
0.374556
0.567389
0.596202
0.366957
0.669957
0.68312
0.599293
0.422782
0.602129
0.5977
0.5977
0.591626
0.390937
0.638665
0.703659
0.366894
0.683867
0.367
0.597776
0.589105
0.683097
0.42467
0.644225
0.657638
0.449971
0.5977
0.583877
0.62869
0.573089
0.5977
0.563601
0.5977
0.442945
0.5977
0.387017
0.683939
0.683692
0.5977
0.606644
0.592578
0.613253
0.683972
0.663414
0.5977
0.597787
0.388084
0.5977
0.50398
0.598505
0.587662
0.634051
0.5977
0.597791
0.620309
0.5977
0.601506
0.526854
0.516263
0.51339
0.5977
0.5977
0.675038
0.41458
0.573389
0.684093
0.59478
0.574786
0.5977
0.596033
0.366839
0.566308
0.667508
0.5977
0.5977
0.548334
0.607212
0.684006
0.567991
0.591606
0.672898
0.684021
0.597701
0.597669
0.595694
0.593462
0.451631
0.674319
0.597702
0.5977
0.5977
0.547054
0.5977
0.394852
0.68377
0.643514
0.381445
0.580861
0.597705
0.5977
0.640984
0.603431
0.600428
0.682431
0.636427
0.472058
0.569494
0.508312
0.40112
0.5977
0.684194
0.5977
0.388231
0.368692
0.5977
0.572325
0.684032
0.598339
0.369374
0.591377
0.684192
0.571132
0.5977
0.599629
0.61035
0.684033
0.5977
0.366852
0.43756
0.597936
0.378294
0.597695
0.597641
0.683804
0.683899
0.585442
0.371281
0.703897
0.39115
0.684141
0.598484
0.367294
0.53799
0.478863
0.684066
0.483093
0.704246
0.598364
0.5977
0.56494
0.597698
0.649649
0.66929
0.425356
0.650908
0.597701
0.577659
0.666129
0.667832
0.418577
0.36749
0.637678
0.400201
0.401458
0.622661
0.592691
0.682838
0.5977
0.598019
0.5977
0.622153
0.684235
0.68407
0.418237
0.595609
0.597723
0.637579
0.597008
0.628213
0.59389
0.68369
0.655173
0.5977
0.5977
0.5977
0.59758
0.662375
0.624228
0.608417
0.659764
0.68413
0.698287
0.67339
0.704228
0.670193
0.645141
0.677052
0.702655
0.684096
0.577202
0.638715
0.58357
0.684051
0.682953
0.59822
0.604882
0.597705
0.531163
0.453583
0.59029
0.420643
0.605898
0.415092
0.419186
0.597746
0.56108
0.597936
0.446243
0.628382
0.646756
0.368749
0.594659
0.596922
0.681632
0.543985
0.67517
0.620394
0.463132
0.636047
0.5977
0.5976
0.591946
0.568335
0.5977
0.367318
0.683618
0.5977
0.587168
0.684161
0.684043
0.599951
0.366976
0.5977
0.564457
0.602934
0.68381
0.684219
0.366813
0.63247
0.683406
0.609248
0.597351
0.681588
0.36685
0.376313
0.680568
0.597662
0.60841
0.5977
0.36681
0.596849
0.610244
0.583041
0.577434
0.529194
0.5977
0.686204
0.636647
0.515657
0.5977
0.684088
0.5977
0.5977
0.596733
0.5977
0.366777
0.383649
0.681347
0.374376
0.367011
0.679436
0.647869
0.480425
0.597709
0.47492
0.695093
0.594564
0.646519
0.683739
0.597707
0.684061
0.550132
0.386134
0.576742
0.683857
0.644278
0.5977
0.5977
0.594029
0.589082
0.684106
0.414218
0.682902
0.594221
0.683836
0.5977
0.446139
0.557308
0.372211
0.371324
0.56831
0.597708
0.605362
0.422233
0.680888
0.5977
0.589407
0.529077
0.641337
0.367185
0.661009
0.59616
0.597714
0.5977
0.681774
0.685664
0.517299
0.603042
0.683883
0.665476
0.36799
0.597767
0.5977
0.596964
0.680456
0.597701
0.671158
0.611975
0.633839
0.678849
0.66653
0.684065
0.684095
0.369771
0.598656
0.371893
0.5977
0.683451
0.574746
0.656567
0.598513
0.569508
0.607538
0.367907
0.576123
0.670974
0.597874
0.648337
0.389381
0.613658
0.5977
0.593332
0.422631
0.6573
0.683996
0.595314
0.540653
0.598978
0.642399
0.367122
0.5977
0.649694
0.5977
0.468968
0.366878
0.570829
0.5977
0.565174
0.651332
0.597705
0.684107
0.5977
0.659186
0.388414
0.66165
0.5977
0.657595
0.5977
0.583855
0.423089
0.552403
0.59784
0.629718
0.595883
0.5977
0.597016
0.597702
0.684092
0.53717
0.597701
0.654653
0.5977
0.430378
0.438735
0.595449
0.650939
0.609102
0.5977
0.59767
0.676214
0.36695
0.5977
0.690904
0.628722
0.434955
0.5977
0.572707
0.59996
0.56096
0.667236
0.67046
0.543193
0.663094
0.5977
0.703191
0.5977
0.704359
0.681416
0.597676
0.684122
0.684038
0.684027
0.669585
0.59721
0.693372
0.49396
0.684071
0.548592
0.376824
0.55971
0.564419
0.366827
0.429202
0.646349
0.593777
0.50477
0.5977
0.661567
0.607584
0.597691
0.597705
0.5977
0.684029
0.582452
0.5977
0.684234
0.587858
0.550976
0.387236
0.5977
0.597629
0.367526
0.5977
0.564015
0.68543
0.59759
0.467459
0.597432
0.5977
0.595628
0.684023
0.539035
0.5977
0.595207
0.67605
0.596455
0.5977
0.690861
0.601327
0.5977
0.373725
0.672886
0.63653
0.55513
0.578909
0.683863
0.375031
0.597767
0.421352
0.5977
0.551055
0.684228
0.570654
0.643028
0.37866
0.684037
0.669109
0.629986
0.696156
0.491906
0.569656
0.59769
0.649975
0.597738
0.608804
0.5977
0.570463
0.600966
0.596638
0.639286
0.597744
0.597692
0.587792
0.599382
0.672828
0.561446
0.683985
0.67349
0.601588
0.598062
0.542478
0.5977
0.368655
0.604066
0.568476
0.68399
0.632598
0.669743
0.649876
0.588479
0.655686
0.369289
0.423976
0.684119
0.692477
0.5977
0.650977
0.694203
0.367138
0.597723
0.674778
0.670037
0.579005
0.597452
0.597701
0.421213
0.683248
0.682575
0.663715
0.677337
0.58749
0.597698
0.5977
0.549825
0.657314
0.633836
0.5977
0.666424
0.58557
0.597914
0.597728
0.5977
0.66698
0.4389
0.585087
0.673445
0.64498
0.563172
0.59417
0.562877
0.563967
0.503375
0.573703
0.59063
0.367094
0.667852
0.547183
0.469945
0.598855
0.5977
0.703264
0.596667
0.369665
0.684098
0.597697
0.5977
0.606482
0.596094
0.5977
0.683872
0.5977
0.609713
0.540787
0.639759
0.683949
0.479283
0.3793
0.59769
0.598365
0.5977
0.629153
0.683946
0.628201
0.611787
0.597669
0.659662
0.683972
0.663492
0.369178
0.68422
0.597701
0.59764
0.59733
0.478356
0.556702
0.505862
0.5977
0.5977
0.601001
0.381271
0.595134
0.654239
0.570863
0.610294
0.68405
0.661547
0.5977
0.680088
0.585434
0.560667
0.554327
0.5977
0.5652
0.683853
0.554253
0.684178
0.683874
0.682729
0.593271
0.597694
0.597645
0.666692
0.526757
0.390282
0.681954
0.611569
0.5977
0.683902
0.656269
0.59777
0.366769
0.5977
0.612256
0.597696
0.665275
0.606364
0.598014
0.596557
0.5958
0.66904
0.597568
0.5977
0.36929
0.598536
0.670716
0.597685
0.565309
0.600513
0.597699
0.619099
0.607851
0.367225
0.388358
0.684529
0.5977
0.597695
0.676427
0.657117
0.57514
0.679085
0.684392
0.604362
0.36684
0.5977
0.3668
0.680362
0.645844
0.597793
0.599352
0.684033
0.589568
0.596385
0.604749
0.377581
0.5977
0.583794
0.680616
0.529488
0.5977
0.609912
0.684618
0.366785
0.704327
0.687794
0.396765
0.598305
0.567571
0.66587
0.366807
0.43665
0.539916
0.598123
0.683574
0.59134
0.589903
0.633953
0.637262
0.597609
0.597701
0.366831
0.5977
0.371987
0.603913
0.388796
0.5977
0.676625
0.594045
0.5977
0.431748
0.683693
0.49303
0.392436
0.607568
0.584666
0.597776
0.597694
0.537535
0.617786
0.684117
0.661881
0.5977
0.583183
0.5977
0.57724
0.384474
0.648825
0.683722
0.598851
0.366949
0.596207
0.5977
0.610998
0.5977
0.602131
0.5977
0.59892
0.594185
0.620133
0.630734
0.5977
0.661279
0.576115
0.59822
0.373073
0.571566
0.564589
0.382231
0.621489
0.668158
0.626847
0.602504
0.620509
0.593526
0.597707
0.584914
0.547802
0.397984
0.557876
0.376137
0.625241
0.673694
0.395674
0.531976
0.683748
0.587774
0.597554
0.599597