# vtk DataFile Version 1.0
unstructured grid
ascii
DATASET UNSTRUCTURED_GRID
points 13672 float
0.0796578 -0.059106 0
0.00128732 0.00159165 0
0.00227961 -0.00102548 0
0.0791586 -0.0598787 0
-0.0546216 0.01 0
0.000495206 0.025 0
0.0800549 -0.035 0
0.135172 -0.08 0
-0.0546216 -0.0451168 0
0.000495206 -0.0301168 0
0.0800549 -0.0901168 0
0.135172 -0.135117 0
-0.0546216 -0.0451168 -0.00551168
0.000495206 -0.0301168 -0.00551168
0.0800549 -0.0901168 -0.00551168
0.135172 -0.135117 -0.00551168
0.135172 -0.08 -0.00551168
0.0800549 -0.035 -0.00551168
0.000495206 0.025 -0.00551168
-0.0546216 0.01 -0.00551168
0.00128732 0.00159165 -0.00551168
0.00227961 -0.00102548 -0.00551168
0.0791586 -0.0598787 -0.00551168
0.0796578 -0.059106 -0.00551168
0.00165953 -0.000990923 0
0.00119576 -0.000874076 0
0.000866021 -0.000641801 0
0.000645147 -0.000349912 0
0.00052235 -1.7281e-05 0
0.00049972 0.000348016 0
0.000601632 0.000737716 0
0.000861774 0.0011403 0
0.00157235 0.00183217 0
0.00188647 0.00206725 0
0.00222612 0.00230203 0
0.00258713 0.00254351 0
0.00296826 0.00279524 0
0.00337118 0.00305664 0
0.00379785 0.00332658 0
0.00425045 0.00360349 0
0.00473139 0.00388521 0
0.0052432 0.00416895 0
0.0057881 0.00445204 0
0.00636753 0.00473281 0
0.00698281 0.00500961 0
0.00763526 0.00528058 0
0.00832616 0.00554366 0
0.00905691 0.00579603 0
0.00982918 0.00603333 0
0.0106445 0.00625033 0
0.0115038 0.00644128 0
0.0124073 0.00660297 0
0.0133543 0.00673414 0
0.0143444 0.00683382 0
0.0153769 0.00690031 0
0.0164512 0.00693173 0
0.0175666 0.00692547 0
0.0187219 0.00687822 0
0.0199156 0.00678477 0
0.0211454 0.00663864 0
0.0224084 0.00643275 0
0.0237018 0.00616676 0
0.0250249 0.00584739 0
0.026375 0.00547298 0
0.0277479 0.00503752 0
0.0291386 0.00453545 0
0.0305433 0.0039653 0
0.0319572 0.0033256 0
0.0333681 0.00260019 0
0.034775 0.00179799 0
0.0361793 0.000930615 0
0.0375798 3.12222e-06 0
0.0389689 -0.000988429 0
0.0403357 -0.00205109 0
0.041675 -0.00318283 0
0.0429849 -0.00437751 0
0.0442643 -0.00562904 0
0.0455126 -0.00693089 0
0.0467314 -0.00827518 0
0.0479204 -0.00965638 0
0.0490661 -0.0110799 0
0.0501515 -0.0125519 0
0.0511696 -0.0140695 0
0.0521492 -0.0156071 0
0.0531202 -0.0171411 0
0.0540851 -0.0186663 0
0.0550431 -0.0201798 0
0.0559923 -0.0216793 0
0.0569311 -0.0231626 0
0.0578582 -0.0246273 0
0.0587723 -0.0260715 0
0.0596721 -0.027493 0
0.0605563 -0.02889 0
0.0614241 -0.0302609 0
0.0622742 -0.0316042 0
0.063106 -0.0329183 0
0.0639186 -0.034202 0
0.0647113 -0.0354543 0
0.0654835 -0.0366743 0
0.0662345 -0.0378613 0
0.0669642 -0.0390145 0
0.0676726 -0.0401333 0
0.0683597 -0.0412172 0
0.0690246 -0.0422665 0
0.0696662 -0.0432819 0
0.0702841 -0.0442636 0
0.0708793 -0.0452111 0
0.0714538 -0.0461237 0
0.072009 -0.047001 0
0.0725452 -0.0478434 0
0.0730611 -0.0486524 0
0.073556 -0.0494294 0
0.0740291 -0.0501756 0
0.0744812 -0.0508916 0
0.0749138 -0.0515773 0
0.0753285 -0.0522331 0
0.0757266 -0.0528592 0
0.076109 -0.0534564 0
0.0764753 -0.0540264 0
0.0768243 -0.054571 0
0.0771553 -0.0550919 0
0.0774679 -0.0555901 0
0.0777617 -0.0560669 0
0.0780369 -0.056523 0
0.0782958 -0.0569578 0
0.0785421 -0.0573703 0
0.0787786 -0.0577603 0
0.0790073 -0.0581279 0
0.0792295 -0.058474 0
0.0794462 -0.0587995 0
0.0798803 -0.0594162 0
0.0800272 -0.0596588 0
0.0800357 -0.0598891 0
0.0799275 -0.0600784 0
0.0797205 -0.0601773 0
0.0794593 -0.0601051 0
0.0789155 -0.0596491 0
0.0786707 -0.0593963 0
0.0784111 -0.0591319 0
0.0781372 -0.0588542 0
0.0778566 -0.0585548 0
0.0775715 -0.0582308 0
0.0772803 -0.0578828 0
0.0769832 -0.0575099 0
0.0766822 -0.0571097 0
0.0763801 -0.0566796 0
0.0760759 -0.0562196 0
0.0757623 -0.0557337 0
0.0754359 -0.0552232 0
0.0750951 -0.0546879 0
0.0747379 -0.054128 0
0.0743626 -0.0535435 0
0.0739688 -0.0529338 0
0.0735559 -0.0522981 0
0.0731238 -0.0516357 0
0.0726718 -0.050946 0
0.0721991 -0.0502288 0
0.0717046 -0.049484 0
0.0711872 -0.0487117 0
0.0706461 -0.047912 0
0.0700804 -0.0470849 0
0.0694892 -0.0462308 0
0.0688718 -0.0453499 0
0.0682271 -0.0444431 0
0.0675544 -0.043511 0
0.0668527 -0.0425546 0
0.0661215 -0.0415748 0
0.06536 -0.040573 0
0.0645676 -0.0395504 0
0.0637439 -0.0385087 0
0.0628887 -0.0374493 0
0.062002 -0.0363741 0
0.0610838 -0.0352847 0
0.0601345 -0.0341831 0
0.0591547 -0.033071 0
0.0581456 -0.0319502 0
0.0571083 -0.0308224 0
0.0560444 -0.0296893 0
0.0549562 -0.028552 0
0.053845 -0.0274126 0
0.0527113 -0.0262746 0
0.051554 -0.0251427 0
0.0503724 -0.0240222 0
0.0491675 -0.0229164 0
0.047941 -0.0218282 0
0.0466955 -0.0207597 0
0.0454337 -0.0197126 0
0.0441592 -0.0186878 0
0.0428751 -0.0176863 0
0.0415841 -0.0167097 0
0.0402878 -0.0157609 0
0.0389879 -0.0148428 0
0.0376864 -0.0139575 0
0.0363853 -0.013107 0
0.0350871 -0.0122931 0
0.0337942 -0.0115164 0
0.0325095 -0.0107772 0
0.0312357 -0.0100756 0
0.0299758 -0.00941024 0
0.0287337 -0.00877784 0
0.0275126 -0.00817571 0
0.0263139 -0.00760375 0
0.0251376 -0.00706528 0
0.0239829 -0.0065649 0
0.0228537 -0.00609619 0
0.0217522 -0.00565563 0
0.0206795 -0.00524226 0
0.0196364 -0.00485507 0
0.0186233 -0.00449318 0
0.0176408 -0.00415577 0
0.016689 -0.00384204 0
0.0157682 -0.00355115 0
0.0148783 -0.00328218 0
0.0140192 -0.00303468 0
0.0131906 -0.00280795 0
0.0123925 -0.00260016 0
0.0116246 -0.00241012 0
0.0108864 -0.00223769 0
0.0101774 -0.00208212 0
0.00949701 -0.00194206 0
0.00884483 -0.0018163 0
0.0082202 -0.0017039 0
0.00762247 -0.00160391 0
0.00705097 -0.00151528 0
0.006505 -0.00143697 0
0.0059838 -0.00136806 0
0.00548662 -0.00130772 0
0.00501265 -0.00125519 0
0.00456114 -0.00120954 0
0.00413136 -0.00116914 0
0.00372257 -0.00113251 0
0.00333398 -0.00109853 0
0.00296466 -0.00106798 0
0.00261363 -0.0010431 0
-0.052721 -0.0445996 0
-0.0508204 -0.0440823 0
-0.0489199 -0.0435651 0
-0.0470193 -0.0430478 0
-0.0451187 -0.0425306 0
-0.0432181 -0.0420134 0
-0.0413175 -0.0414961 0
-0.039417 -0.0409789 0
-0.0375164 -0.0404616 0
-0.0356158 -0.0399444 0
-0.0337152 -0.0394271 0
-0.0318146 -0.0389099 0
-0.0299141 -0.0383927 0
-0.0280135 -0.0378754 0
-0.0261129 -0.0373582 0
-0.0242123 -0.0368409 0
-0.0223117 -0.0363237 0
-0.0204112 -0.0358065 0
-0.0185106 -0.0352892 0
-0.01661 -0.034772 0
-0.0147094 -0.0342547 0
-0.0128088 -0.0337375 0
-0.0109083 -0.0332202 0
-0.00900769 -0.032703 0
-0.00710711 -0.0321858 0
-0.00520653 -0.0316685 0
-0.00330595 -0.0311513 0
-0.00140537 -0.030634 0
0.00190689 -0.0299614 0
0.00332271 -0.0298498 0
0.00474133 -0.0297825 0
0.00616136 -0.0297597 0
0.0075814 -0.0297814 0
0.00900007 -0.0298477 0
0.010416 -0.0299583 0
0.0118278 -0.0301127 0
0.0132342 -0.0303103 0
0.0146339 -0.0305504 0
0.0160259 -0.0308322 0
0.0174091 -0.0311546 0
0.0187824 -0.0315166 0
0.020145 -0.031917 0
0.0214961 -0.0323546 0
0.0228351 -0.032828 0
0.0241613 -0.0333361 0
0.0254744 -0.0338774 0
0.0267738 -0.0344507 0
0.0280592 -0.0350545 0
0.0293306 -0.0356877 0
0.0305875 -0.0363488 0
0.0318301 -0.0370367 0
0.0330581 -0.0377501 0
0.0342717 -0.0384879 0
0.0354708 -0.0392489 0
0.0366556 -0.0400321 0
0.0378262 -0.0408363 0
0.0389828 -0.0416607 0
0.0401254 -0.0425042 0
0.0412543 -0.0433659 0
0.0423698 -0.0442451 0
0.043472 -0.0451408 0
0.0445612 -0.0460523 0
0.0456375 -0.0469789 0
0.0467013 -0.0479199 0
0.0477529 -0.0488746 0
0.0487923 -0.0498424 0
0.04982 -0.0508227 0
0.0508362 -0.051815 0
0.051841 -0.0528187 0
0.0528348 -0.0538333 0
0.0538178 -0.0548584 0
0.0547903 -0.0558935 0
0.0557524 -0.0569382 0
0.0567045 -0.0579922 0
0.0576467 -0.0590549 0
0.0585792 -0.0601261 0
0.0595024 -0.0612055 0
0.0604163 -0.0622926 0
0.0613212 -0.0633873 0
0.0622174 -0.0644891 0
0.0631049 -0.0655979 0
0.0639841 -0.0667134 0
0.064855 -0.0678353 0
0.0657179 -0.0689633 0
0.0665729 -0.0700974 0
0.0674202 -0.0712372 0
0.06826 -0.0723826 0
0.0690925 -0.0735333 0
0.0699178 -0.0746892 0
0.070736 -0.0758501 0
0.0715473 -0.0770159 0
0.0723518 -0.0781863 0
0.0731498 -0.0793612 0
0.0739412 -0.0805405 0
0.0747264 -0.081724 0
0.0755053 -0.0829116 0
0.0762781 -0.0841033 0
0.0770449 -0.0852987 0
0.0778059 -0.0864979 0
0.0785611 -0.0877007 0
0.0793108 -0.088907 0
0.0814681 -0.0912706 0
0.0828814 -0.0924245 0
0.0842946 -0.0935783 0
0.0857079 -0.0947322 0
0.0871211 -0.095886 0
0.0885344 -0.0970399 0
0.0899476 -0.0981937 0
0.0913609 -0.0993476 0
0.0927741 -0.100501 0
0.0941874 -0.101655 0
0.0956006 -0.102809 0
0.0970139 -0.103963 0
0.0984272 -0.105117 0
0.0998404 -0.106271 0
0.101254 -0.107424 0
0.102667 -0.108578 0
0.10408 -0.109732 0
0.105493 -0.110886 0
0.106907 -0.11204 0
0.10832 -0.113194 0
0.109733 -0.114348 0
0.111146 -0.115501 0
0.11256 -0.116655 0
0.113973 -0.117809 0
0.115386 -0.118963 0
0.116799 -0.120117 0
0.118213 -0.121271 0
0.119626 -0.122424 0
0.121039 -0.123578 0
0.122452 -0.124732 0
0.123866 -0.125886 0
0.125279 -0.12704 0
0.126692 -0.128194 0
0.128105 -0.129348 0
0.129519 -0.130501 0
0.130932 -0.131655 0
0.132345 -0.132809 0
0.133758 -0.133963 0
0.135172 -0.133216 0
0.135172 -0.131316 0
0.135172 -0.129415 0
0.135172 -0.127514 0
0.135172 -0.125614 0
0.135172 -0.123713 0
0.135172 -0.121813 0
0.135172 -0.119912 0
0.135172 -0.118012 0
0.135172 -0.116111 0
0.135172 -0.11421 0
0.135172 -0.11231 0
0.135172 -0.110409 0
0.135172 -0.108509 0
0.135172 -0.106608 0
0.135172 -0.104708 0
0.135172 -0.102807 0
0.135172 -0.100906 0
0.135172 -0.0990058 0
0.135172 -0.0971052 0
0.135172 -0.0952046 0
0.135172 -0.0933041 0
0.135172 -0.0914035 0
0.135172 -0.0895029 0
0.135172 -0.0876023 0
0.135172 -0.0857017 0
0.135172 -0.0838012 0
0.135172 -0.0819006 0
0.133758 -0.0788462 0
0.132345 -0.0776923 0
0.130932 -0.0765385 0
0.129519 -0.0753846 0
0.128105 -0.0742308 0
0.126692 -0.0730769 0
0.125279 -0.0719231 0
0.123866 -0.0707692 0
0.122452 -0.0696154 0
0.121039 -0.0684615 0
0.119626 -0.0673077 0
0.118213 -0.0661538 0
0.116799 -0.065 0
0.115386 -0.0638462 0
0.113973 -0.0626923 0
0.11256 -0.0615385 0
0.111146 -0.0603846 0
0.109733 -0.0592308 0
0.10832 -0.0580769 0
0.106907 -0.0569231 0
0.105493 -0.0557692 0
0.10408 -0.0546154 0
0.102667 -0.0534615 0
0.101254 -0.0523077 0
0.0998404 -0.0511538 0
0.0984272 -0.05 0
0.0970139 -0.0488462 0
0.0956006 -0.0476923 0
[...]
CELL_DATA 13116
SCALARS rho float
LOOKUP_TABLE default
0.505392
0.638837
0.398001
0.672362
0.672707
0.660524
0.380104
0.685607
0.482254
0.675755
0.38741
0.374123
0.67295
0.378715
0.381117
0.660608
0.473297
0.659416
0.65978
0.366161
0.510016
0.420935
0.384298
0.665458
0.566966
0.646
0.675624
0.404699
0.567968
0.606172
0.659882
0.394816
0.51168
0.408757
0.394076
0.50806
0.631683
0.656573
0.660012
0.668824
0.660001
0.685776
0.383084
0.391178
0.659615
0.659734
0.619541
0.662157
0.37584
0.480175
0.676815
0.399362
0.377549
0.46532
0.510183
0.541942
0.390409
0.665465
0.493956
0.369355
0.37786
0.67551
0.630394
0.659988
0.659905
0.376192
0.664517
0.635763
0.664968
0.659877
0.387923
0.545867
0.416892
0.382599
0.660027
0.386229
0.614359
0.670164
0.366037
0.656936
0.648432
0.643216
0.668969
0.661905
0.655676
0.418555
0.373518
0.629332
0.657922
0.395683
0.408842
0.640728
0.669326
0.667257
0.611281
0.555599
0.569808
0.66006
0.659919
0.557146
0.637916
0.559733
0.660075
0.359249
0.605573
0.387755
0.333406
0.427573
0.396871
0.578411
0.456455
0.62962
0.553616
0.650412
0.657992
0.665571
0.376807
0.356113
0.667981
0.667985
0.635912
0.417664
0.665431
0.410046
0.665901
0.402839
0.374883
0.468822
0.39332
0.482012
0.668204
0.660148
0.465601
0.393544
0.446804
0.544959
0.660828
0.668377
0.636966
0.667851
0.595826
0.623112
0.466791
0.597257
0.621665
0.381083
0.397935
0.635826
0.670826
0.676769
0.504669
0.661329
0.662037
0.390426
0.673585
0.657237
0.388505
0.643207
0.660059
0.629282
0.666047
0.377237
0.668287
0.389354
0.416419
0.675647
0.661539
0.658381
0.39075
0.431816
0.390846
0.660758
0.379119
0.451635
0.664429
0.383284
0.405295
0.417191
0.624954
0.659908
0.378852
0.398278
0.477165
0.631855
0.659987
0.491234
0.376788
0.661072
0.595977
0.424065
0.603188
0.633103
0.65982
0.388013
0.6224
0.660226
0.673761
0.660899
0.65625
0.370457
0.35805
0.583327
0.463559
0.381922
0.666946
0.658432
0.408208
0.566555
0.379663
0.3985
0.382841
0.662119
0.390272
0.362601
0.396455
0.389455
0.335049
0.659617
0.663515
0.407431
0.388025
0.66408
0.44997
0.37951
0.518212
0.675582
0.618835
0.407664
0.6646
0.364536
0.697575
0.396915
0.659802
0.536004
0.660121
0.664632
0.659816
0.359962
0.394627
0.628776
0.660157
0.660093
0.660683
0.659643
0.684032
0.408915
0.67223
0.674064
0.6599
0.39824
0.378479
0.659623
0.667604
0.659799
0.664158
0.490954
0.649037
0.386217
0.382644
0.356848
0.380072
0.586007
0.673467
0.613235
0.370151
0.660483
0.373131
0.402531
0.607824
0.393101
0.642913
0.679178
0.660239
0.665707
0.361519
0.660264
0.654033
0.659912
0.668156
0.363232
0.367147
0.391957
0.539487
0.416348
0.385516
0.308872
0.291031
0.651153
0.377903
0.659726
0.674003
0.368615
0.369625
0.37206
0.418367
0.404339
0.628165
0.553207
0.618616
0.393057
0.661428
0.550627
0.385781
0.370181
0.659999
0.667717
0.660753
0.37431
0.660345
0.374899
0.659647
0.683881
0.674835
0.683186
0.393148
0.664104
0.377708
0.660952
0.67342
0.629127
0.359967
0.308597
0.674378
0.371409
0.636907
0.675534
0.332805
0.648142
0.668449
0.369416
0.660162
0.670462
0.380878
0.669786
0.418938
0.538462
0.686562
0.425524
0.643568
0.370129
0.664651
0.320249
0.659616
0.55622
0.673748
0.406646
0.330767
0.656731
0.392681
0.666636
0.604417
0.38873
0.660749
0.382967
0.40758
0.665358
0.517866
0.635531
0.368774
0.389646
0.672302
0.673771
0.395921
0.674463
0.37566
0.386758
0.666379
0.684753
0.411447
0.368378
0.667744
0.659895
0.660639
0.659974
0.666836
0.504476
0.412829
0.378278
0.376113
0.66057
0.376312
0.475201
0.337228
0.369733
0.325091
0.423133
0.133333
0.391641
0.656513
0.32106
0.669368
0.567027
0.660673
0.620677
0.672086
0.407745
0.365366
0.375295
0.327787
0.66463
0.548969
0.660166
0.567747
0.623216
0.578929
0.640374
0.587291
0.602999
0.66593
0.656003
0.660296
0.361097
0.415528
0.501275
0.41644
0.548862
0.540179
0.37762
0.664951
0.660235
0.396044
0.362181
0.365699
0.378478
0.593681
0.401721
0.387948
0.662855
0.376641
0.535164
0.377272
0.660374
0.651226
0.407076
0.396603
0.664831
0.420193
0.372038
0.377523
0.374816
0.396809
0.366971
0.362979
0.413234
0.402228
0.379457
0.555855
0.41406
0.657401
0.346836
0.405258
0.469513
0.376123
0.395487
0.379897
0.66463
0.407404
0.602763
0.429426
0.375819
0.569328
0.659362
0.418004
0.647719
0.581039
0.579719
0.366278
0.6601
0.358815
0.667316
0.659923
0.392901
0.375757
0.593057
0.323941
0.427381
0.560281
0.332114
0.642165
0.625596
0.372708
0.399784
0.382972
0.44694
0.369153
0.380191
0.384783
0.377962
0.676674
0.675073
0.425115
0.560516
0.445721
0.619781
0.321483
0.401722
0.487324
0.393252
0.660875
0.272918
0.344214
0.461803
0.659202
0.657185
0.524171
0.331104
0.375101
0.534456
0.684701
0.659948
0.53063
0.607186
0.583672
0.368504
0.65002
0.531356
0.627568
0.28432
0.404032
0.648976
0.673302
0.619386
0.6758
0.649149
0.650654
0.665114
0.627829
0.660509
0.384155
0.659275
0.316402
0.379355
0.360817
0.670724
0.658931
0.286949
0.655468
0.585295
0.360698
0.659784
0.667196
0.66235
0.40448
0.400367
0.668547
0.369159
0.363933
0.38385
0.368234
0.65872
0.380423
0.669162
0.414533
0.639094
0.675675
0.663838
0.673559
0.370015
0.370709
0.659814
0.69776
0.624374
0.676676
0.673899
0.465437
0.368171
0.395255
0.660719
0.48521
0.364849
0.420042
0.364917
0.677468
0.662013
0.285061
0.421385
0.65517
0.436704
0.656598
0.62223
0.392178
0.365161
0.620138
0.660231
0.390974
0.654735
0.662004
0.65942
0.391578
0.660634
0.388136
0.660144
0.626146
0.366492
0.333258
0.386215
0.660062
0.396825
0.370161
0.356575
0.659792
0.661488
0.369149
0.375322
0.384591
0.659923
0.416896
0.660123
0.381138
0.550012
0.675615
0.350131
0.388716
0.386467
0.465873
0.3986
0.651685
0.375908
0.402609
0.660043
0.378587
0.661831
0.632437
0.660107
0.365363
0.661475
0.671172
0.673659
0.660955
0.677388
0.665966
0.38566
0.659936
0.409569
0.656532
0.363533
0.683738
0.462791
0.385184
0.659825
0.669122
0.397657
0.589122
0.404454
0.390811
0.662598
0.66408
0.353156
0.382484
0.367404
0.38372
0.678469
0.663984
0.393967
0.374627
0.666498
0.668869
0.551719
0.670714
0.661715
0.379192
0.674836
0.396544
0.676535
0.355563
0.553578
0.449952
0.663565
0.637213
0.540967
0.313413
0.404483
0.661417
0.568934
0.471232
0.670137
0.379525
0.653947
0.673222
0.342335
0.413165
0.671802
0.33053
0.659795
0.629822
0.304571
0.670013
0.609066
0.402616
0.659921
0.391093
0.652044
0.390825
0.661851
0.6287
0.40477
0.660023
0.668966
0.668769
0.58642
0.653215
0.548306
0.381972
0.377965
0.336776
0.381463
0.660961
0.521179
0.66658
0.670352
0.37625
0.414965
0.657288
0.675353
0.665105
0.679803
0.359214
0.655132
0.673967
0.364549
0.35168
0.667943
0.659622
0.654011
0.361666
0.556669
0.407683
0.658734
0.631646
0.659932
0.647636
0.364898
0.655036
0.659117
0.670518
0.663901
0.660192
0.405966
0.666676
0.397744
0.598549
0.674895
0.431455
0.626935
0.659949
0.675515
0.360913
0.365668
0.549234
0.612072
0.368388
0.369889
0.391472
0.387803
0.640348
0.653317
0.65968
0.290084
0.381209
0.664758
0.642312
0.380102
0.403798
0.432406
0.633981
0.661173
0.659763
0.660286
0.398796
0.368055
0.660505
0.406978
0.363008
0.378364
0.659991
0.407591
0.378207
0.533936
0.658323
0.623825
0.66024
0.660779
0.375082
0.382323
0.3909
0.428564
0.407432
0.400513
0.63496
0.658506
0.64802
0.661192
0.373307
0.361867
0.675709
0.364395
0.660024
0.62844
0.66
0.353212
0.371791
0.646823
0.659783
0.519229
0.380848
0.656836
0.66032
0.529152
0.676662
0.681557
0.660397
0.606661
0.36033
0.660722
0.659732
0.583629
0.658887
0.660968
0.630724
0.660471
0.667138
0.403778
0.394749
0.361448
0.659946
0.460685
0.365802
0.657294
0.666759
0.368246
0.596972
0.410215
0.604445
0.421376
0.368226
0.675285
0.662545
0.366731
0.517304
0.659921
0.387359
0.66681
0.376794
0.386454
0.574263
0.567782
0.46936
0.660134
0.39109
0.668541
0.401341
0.356328
0.661692
0.363848
0.560595
0.367991
0.596385
0.55504
0.660492
0.65876
0.37753
0.402422
0.581475
0.383678
0.664733
0.417996
0.548092
0.660441
0.670173
0.398138
0.575572
0.623988
0.674171
0.665498
0.323592
0.363268
0.506509
0.623667
0.673207
0.339696
0.66018
0.521025
0.375034
0.357714
0.630843
0.634182
0.660607
0.660072
0.564445
0.65275
0.659961
0.641016
0.369202
0.619294
0.429847
0.671438
0.659264
0.284234
0.679364
0.672109
0.398202
0.365633
0.370676
0.66095
0.376071
0.574162
0.66355
0.620626
0.356513
0.654488
0.380405
0.555963
0.660014
0.659675
0.6327
0.659883
0.578421
0.64698
0.479999
0.656188
0.390718
0.659873
0.663712
0.365546
0.660343
0.655335
0.394438
0.377585
0.390244
0.674914
0.374824
0.6603
0.389262
0.68571
0.375722
0.450596
0.378822
0.666636
0.678371
0.489114
0.253748
0.578035
0.659639
0.392383
0.550464
0.674419
0.397322
0.544811
0.659831
0.675485
0.660163
0.392971
0.425108
0.666036
0.660121
0.599943
0.384103
0.363003
0.657451
0.660632
0.660263
0.660739
0.503605
0.66049
0.498384
0.66935
0.383226
0.381746
0.660699
0.671955
0.659813
0.377494
0.659846
0.512098
0.557666
0.392218
0.39073
0.674575
0.683941
0.516934
0.345781
0.660693
0.660277
0.387657
0.570427
0.659953
0.388565
0.399554
0.377279
0.599409
0.420921
0.380812
0.659745
0.42381
0.674719
0.603668
0.383462
0.367382
0.677256
0.393794
0.40259
0.659762
0.384453
0.322509
0.548883
0.675858
0.66133
0.389805
0.41357
0.394654
0.633672
0.387257
0.661953
0.388853
0.658376
0.655686
0.659406
0.616009
0.653294
0.629509
0.661224
0.67332
0.664345
0.379911
0.39431
0.645895
0.660049
0.475808
0.610014
0.516968
0.659998
0.581935
0.406904
0.666753
0.674987
0.655346
0.398516
0.655653
0.406483
0.661818
0.468734
0.659511
0.660911
0.368616
0.664345
0.374061
0.390217
0.631248
0.37813
0.643208
0.66099
0.68232
0.37961
0.662702
0.39485
0.367015
0.368707
0.394771
0.574502
0.378572
0.599075
0.659917
0.338276
0.388507
0.458953
0.545315
0.591373
0.604159
0.366916
0.37297
0.395383
0.37876
0.252292
0.591468
0.636239
0.405118
0.659658
0.663244
0.37752
0.673433
0.64164
0.659926
0.396205
0.660073
0.651812
0.66707
0.672881
0.370694
0.662156
0.668763
0.656184
0.631912
0.659731
0.38089
0.375818
0.66165
0.505074
0.368879
0.66145
0.382633
0.537689
0.58662
0.649833
0.653068
0.380891
0.607365
0.361175
0.397971
0.65079
0.668261
0.670726
0.671184
0.623861
0.369588
0.67384
0.375856
0.474748
0.675473
0.659962
0.665644
0.398079
0.376688
0.674542
0.37833
0.668071
0.612275
0.398614
0.383972
0.666986
0.370261
0.660973
0.667555
0.623255
0.36982
0.394375
0.466081
0.472641
0.578979
0.434407
0.660073
0.604923
0.659416
0.661019
0.658994
0.373929
0.384763
0.669809
0.659662
0.595337
0.431827
0.381578
0.647125
0.377939
0.661829
0.580571
0.414765
0.66419
0.361575
0.665431
0.399084
0.671557
0.361142
0.66083
0.659878
0.315833
0.666853
0.611709
0.30435
0.659675
0.659939
0.514696
0.37662
0.33156
0.428114
0.671822
0.580176
0.416252
0.552037
0.661169
0.660075
0.347237
0.568538
0.648033
0.436355
0.659944
0.661142
0.278444
0.664435
0.659866
0.396896
0.55464
0.3794
0.60309
0.387383
0.386324
0.672753
0.384733
0.390907
0.377373
0.663746
0.63931
0.361455
0.660654
0.3275
0.636218
0.394194
0.642468
0.337841
0.660572
0.661857
0.613939
0.659755
0.521148
0.659841
0.659881
0.400907
0.600577
0.619118
0.438272
0.658484
0.464457
0.363515
0.673657
0.384296
0.5337
0.410352
0.660238
0.379298
0.387083
0.662295
0.661222
0.370864
0.669884
0.658356
0.660945
0.680106
0.660125
0.359579
0.672338
0.36485
0.390202
0.662143
0.66195
0.685917
0.657073
0.386547
0.387836
0.395178
0.64098
0.659827
0.330345
0.681628
0.375442
0.384688
0.388275
0.659048
0.356545
0.674723
0.66456
0.599688
0.663725
0.663777
0.529418
0.608468
0.409243
0.373248
0.370439
0.66011
0.66014
0.377714
0.591485
0.595651
0.609447
0.392891
0.358577
0.609096
0.260969
0.600622
0.559896
0.362611
0.659688
0.642226
0.364512
0.660849
0.401586
0.666494
0.673595
0.653929
0.378277
0.444198
0.642388
0.282347
0.418379
0.662338
0.289745
0.659714
0.665181
0.640885
0.657622
0.390744
0.6599
0.650406
0.660136
0.341775
0.672185
0.411615
0.377466
0.654928
0.661329
0.659686
0.221527
0.661382
0.600614
0.660035
0.373914
0.377667
0.371355
0.670818
0.384956
0.381752
0.401795
0.557576
0.398419
0.285027
0.418013
0.66203
0.361979
0.659712
0.659796
0.667377
0.37801
0.663885
0.617072
0.659685
0.392305
0.629671
0.398002
0.385557
0.662579
0.370397
0.588341
0.659645
0.660529
0.361264
0.309107
0.396993
0.529025
0.660721
0.219893
0.656919
0.663443
0.659805
0.400789
0.376694
0.323542
0.581681
0.370565
0.661068
0.572781
0.659845
0.657945
0.362317
0.590083
0.388157
0.528122
0.614193
0.675507
0.533085
0.431406
0.629311
0.599999
0.670566
0.382758
0.341412
0.379085
0.658419
0.491473
0.659948
0.361077
0.371495
0.66647
0.663541
0.659669
0.369982
0.668507
0.527249
0.530023
0.583581
0.396801
0.367725
0.276836
0.661624
0.659974
0.630308
0.61664
0.322141
0.684433
0.623131
0.659983
0.659669
0.681774
0.675132
0.660402
0.66177
0.670167
0.392585
0.665669
0.671985
0.659935
0.666831
0.661334
0.538677
0.361047
0.39114
0.588913
0.377216
0.373692
0.668503
0.398336
0.604054
0.664225
0.637245
0.655937
0.396937
0.670457
0.366047
0.378877
0.66055
0.659983
0.661343
0.375236
0.674505
0.660121
0.588407
0.660794
0.416463
0.6598
0.674792
0.641759
0.371243
0.664723
0.396863
0.675246
0.382332
0.361391
0.479331
0.41952
0.675286
0.666926
0.6601
0.401571
0.659757
0.362828
0.393521
0.647685
0.463244
0.391632
0.660145
0.368928
0.484402
0.632244
0.616723
0.650372
0.46162
0.564702
0.619892
0.660393
0.536127
0.670714
0.503438
0.702237
0.612747
0.610546
0.370808
0.366533
0.419351
0.671099
0.394117
0.627762
0.670821
0.562728
0.660491
0.474755
0.644018
0.64301
0.396943
0.669372
0.60112
0.444429
0.604316
0.674292
0.652535
0.659906
0.399667
0.403174
0.656959
0.49434
0.501128
0.668716
0.66144
0.661091
0.672443
0.67454
0.581432
0.60238
0.67454
0.378814
0.373111
0.380133
0.413018
0.660279
0.426801
0.494245
0.663989
0.648311
0.391807
0.656684
0.66956
0.376502
0.349923
0.660227
0.667555
0.398408
0.356479
0.371634
0.661025
0.644132
0.374956
0.373894
0.36353
0.385912
0.317637
0.37088
0.698081
0.662032
0.655149
0.385207
0.638574
0.566806
0.578459
0.360622
0.362581
0.646683
0.660775
0.379225
0.660391
0.364616
0.666049
0.393159
0.667096
0.37456
0.648542
0.675243
0.380859
0.531848
0.377586
0.672541
0.388264
0.571319
0.380425
0.46749
0.399924
0.562247
0.392689
0.659758
0.659805
0.576086
0.652319
0.346447
0.643194
0.659662
0.67476
0.563988
0.637119
0.363731
0.348376
0.377884
0.671639
0.27251
0.671839
0.512925
0.661473
0.675391
0.415776
0.666564
0.392975
0.37715
0.382978
0.473
0.477627
0.660828
0.392655
0.385225
0.661374
0.358439
0.368439
0.514385
0.342663
0.377927
0.39185
0.686924
0.62
0.576555
0.385331
0.639672
0.662115
0.372449
0.3048
0.658816
0.660546
0.531678
0.487402
0.390836
0.341101
0.389243
0.676924
0.584927
0.482064
0.649252
0.377801
0.528901
0.36417
0.659869
0.672239
0.362839
0.380829
0.593058
0.506152
0.673669
0.670156
0.672378
0.671991
0.675193
0.386489
0.416958
0.38093
0.361889
0.497579
0.659931
0.621875
0.358684
0.364331
0.414749
0.399586
0.66107
0.614946
0.398279
0.284064
0.664204
0.391102
0.619036
0.668207
0.636698
0.659759
0.509701
0.363368
0.370041
0.596392
0.363142
0.383256
0.362725
0.659866
0.66351
0.335309
0.361116
0.660702
0.391429
0.663135
0.670819
0.362078
0.399802
0.376455
0.663607
0.376596
0.660996
0.659061
0.563265
0.346832
0.500467
0.669351
0.655515
0.37042
0.652257
0.590799
0.430171
0.667202
0.697
0.398008
0.375991
0.646194
0.394389
0.362721
0.647025
0.326232
0.660986
0.643522
0.668067
0.597268
0.67177
0.66441
0.659961
0.389998
0.388858
0.60613
0.658772
0.443919
0.67369
0.298634
0.666885
0.652034
0.531399
0.613194
0.349476
0.428302
0.657382
0.669467
0.608454
0.67579
0.662382
0.660394
0.680943
0.660837
0.676471
0.650318
0.678371
0.660712
0.659974
0.318673
0.645691
0.400435
0.666659
0.665847
0.664179
0.627402
0.656015
0.396318
0.39336
0.28629
0.368972
0.63363
0.369998
0.396242
0.650544
0.361453
0.6609
0.390191
0.647857
0.662626
0.383646
0.360788
0.414504
0.670474
0.386773
0.660198
0.663971
0.397211
0.643954
0.523535
0.320751
0.40362
0.364779
0.650636
0.373184
0.668888
0.471337
0.378163
0.660453
0.660229
0.672328
0.364572
0.535367
0.37476
0.640462
0.660081
0.665708
0.374248
0.657838
0.668403
0.620229
0.37742
0.670171
0.364388
0.374963
0.665185
0.42291
0.675295
0.356546
0.376343
0.419124
0.626697
0.398555
0.265066
0.391854
0.439055
0.659975
0.66388
0.378829
0.5597
0.662614
0.530466
0.38301
0.414004
0.526128
0.365211
0.358385
0.658834
0.381531
0.36909
0.675455
0.676355
0.376081
0.659532
0.388469
0.660257
0.405196
0.650836
0.659933
0.657683
0.659679
0.407974
0.364566
0.371621
0.660284
0.649277
0.562152
0.505753
0.350714
0.285705
0.659925
0.391263
0.661412
0.361167
0.659866
0.637723
0.37225
0.39276
0.366586
0.3613
0.395366
0.592001
0.635112
0.375598
0.664537
0.601672
0.373674
0.379589
0.673654
0.392067
0.662681
0.40456
0.658272
0.619487
0.663774
0.659939
0.402432
0.674355
0.665714
0.687683
0.384472
0.586515
0.56824
0.392527
0.671444
0.611196
0.703718
0.641296
0.675086
0.665258
0.682319
0.659999
0.659799
0.377482
0.671013
0.366017
0.420806
0.661928
0.373371
0.652099
0.591588
0.383046
0.620162
0.382585
0.409914
0.663495
0.577266
0.676547
0.398428
0.641377
0.584412
0.404857
0.381753
0.659713
0.66203
0.355043
0.397438
0.662641
0.675037
0.364274
0.606431
0.67493
0.623105
0.371594
0.364995
0.376541
0.620814
0.357822
0.652568
0.658187
0.659941
0.568226
0.66321
0.398713
0.654943
0.585482
0.675062
0.529814
0.382568
0.384337
0.382241
0.667292
0.665192
0.402393
0.616992
0.413446
0.6164
0.667344
0.380097
0.589027
0.653357
0.585802
0.383493
0.370108
0.413102
0.66726
0.675273
0.581618
0.486839
0.663579
0.376608
0.597471
0.660174
0.657927
0.38365
0.59583
0.383712
0.602513
0.385533
0.658864
0.664802
0.384705
0.66746
0.386808
0.660717
0.606191
0.661061
0.674048
0.379888
0.6598
0.660366
0.663838
0.659538
0.458168
0.660218
0.379063
0.660569
0.380282
0.372657
0.376758
0.39422
0.367266
0.380982
0.676008
0.34574
0.38286
0.625655
0.667801
0.637753
0.373666
0.652928
0.648056
0.659749
0.313098
0.544344
0.664471
0.418607
0.398116
0.367437
0.591774
0.481424
0.361113
0.549915
0.374413
0.660051
0.474593
0.376643
0.446413
0.614262
0.414252
0.662385
0.376775
0.425945
0.351966
0.677063
0.357958
0.621914
0.660111
0.582368
0.381428
0.359876
0.677711
0.675363
0.400369
0.365809
0.660333
0.364982
0.663878
0.386422
0.528599
0.382644
0.664279
0.416768
0.67617
0.372656
0.667565
0.664183
0.67027
0.660351
0.378424
0.388212
0.37519
0.64999
0.64932
0.625182
0.480446
0.398585
0.665279
0.413702
0.646413
0.559021
0.360636
0.385477
0.669381
0.658882
0.377607
0.659841
0.683366
0.669644
0.669547
0.376817
0.600187
0.376799
0.669863
0.358218
0.659644
0.643237
0.676971
0.677407
0.373997
0.677443
0.388635
0.397077
0.662852
0.66031
0.510681
0.657902
0.660319
0.39487
0.660271
0.674096
0.682629
0.35995
0.399591
0.647224
0.369665
0.667194
0.671698
0.65388
0.677165
0.270119
0.414493
0.613577
0.385369
0.652978
0.672517
0.435828
0.662009
0.25627
0.598464
0.660944
0.640324
0.665994
0.370182
0.393578
0.660955
0.650819
0.392054
0.308629
0.412837
0.388667
0.382253
0.376628
0.403834
0.371488
0.660354
0.380033
0.372486
0.661742
0.508445
0.660679
0.3714
0.361235
0.663244
0.43346
0.433761
0.673891
0.346329
0.624604
0.659885
0.577764
0.644017
0.386418
0.664292
0.659947
0.399772
0.376776
0.362828
0.587829
0.576719
0.674924
0.66078
0.658532
0.646992
0.341245
0.665595
0.659939
0.665861
0.361792
0.664875
0.545224
0.334914
0.406471
0.377817
0.378683
0.376051
0.553865
0.633903
0.646987
0.359157
0.368147
0.675367
0.34188
0.663729
0.660437
0.653914
0.639931
0.663418
0.417847
0.376681
0.373216
0.527378
0.364464
0.662141
0.36137
0.662794
0.660147
0.665364
0.410988
0.417075
0.380418
0.66372
0.392775
0.369147
0.669141
0.644003
0.587964
0.660569
0.658366
0.663494
0.363683
0.593498
0.671669
0.502555
0.66268
0.665153
0.666534
0.436345
0.402782
0.683618
0.470896
0.576124
0.394442
0.623761
0.655563
0.370805
0.35744
0.637789
0.476059
0.669853
0.663629
0.372242
0.36575
0.659882
0.344849
0.371376
0.658071
0.659648
0.379955
0.657819
0.660028
0.628859
0.362071
0.555267
0.364602
0.66127
0.672079
0.663802
0.643704
0.659969
0.292335
0.328282
0.655605
0.39538
0.577808
0.380369
0.664431
0.377474
0.613526
0.671259
0.660003
0.377739
0.661
0.660063
0.361672
0.623993
0.353589
0.686386
0.38262
0.371672
0.380227
0.649907
0.659892
0.304953
0.281938
0.637525
0.675012