# vtk DataFile Version 1.0
unstructured grid
ascii
DATASET UNSTRUCTURED_GRID
points 13672 float
0.0796578 -0.059106 0
0.00128732 0.00159165 0
0.00227961 -0.00102548 0
0.0791586 -0.0598787 0
-0.0546216 0.01 0
0.000495206 0.025 0
0.0800549 -0.035 0
0.135172 -0.08 0
-0.0546216 -0.0451168 0
0.000495206 -0.0301168 0
0.0800549 -0.0901168 0
0.135172 -0.135117 0
-0.0546216 -0.0451168 -0.00551168
0.000495206 -0.0301168 -0.00551168
0.0800549 -0.0901168 -0.00551168
0.135172 -0.135117 -0.00551168
0.135172 -0.08 -0.00551168
0.0800549 -0.035 -0.00551168
0.000495206 0.025 -0.00551168
-0.0546216 0.01 -0.00551168
0.00128732 0.00159165 -0.00551168
0.00227961 -0.00102548 -0.00551168
0.0791586 -0.0598787 -0.00551168
0.0796578 -0.059106 -0.00551168
0.00165953 -0.000990923 0
0.00119576 -0.000874076 0
0.000866021 -0.000641801 0
0.000645147 -0.000349912 0
0.00052235 -1.7281e-05 0
0.00049972 0.000348016 0
0.000601632 0.000737716 0
0.000861774 0.0011403 0
0.00157235 0.00183217 0
0.00188647 0.00206725 0
0.00222612 0.00230203 0
0.00258713 0.00254351 0
0.00296826 0.00279524 0
0.00337118 0.00305664 0
0.00379785 0.00332658 0
0.00425045 0.00360349 0
0.00473139 0.00388521 0
0.0052432 0.00416895 0
0.0057881 0.00445204 0
0.00636753 0.00473281 0
0.00698281 0.00500961 0
0.00763526 0.00528058 0
0.00832616 0.00554366 0
0.00905691 0.00579603 0
0.00982918 0.00603333 0
0.0106445 0.00625033 0
0.0115038 0.00644128 0
0.0124073 0.00660297 0
0.0133543 0.00673414 0
0.0143444 0.00683382 0
0.0153769 0.00690031 0
0.0164512 0.00693173 0
0.0175666 0.00692547 0
0.0187219 0.00687822 0
0.0199156 0.00678477 0
0.0211454 0.00663864 0
0.0224084 0.00643275 0
0.0237018 0.00616676 0
0.0250249 0.00584739 0
0.026375 0.00547298 0
0.0277479 0.00503752 0
0.0291386 0.00453545 0
0.0305433 0.0039653 0
0.0319572 0.0033256 0
0.0333681 0.00260019 0
0.034775 0.00179799 0
0.0361793 0.000930615 0
0.0375798 3.12222e-06 0
0.0389689 -0.000988429 0
0.0403357 -0.00205109 0
0.041675 -0.00318283 0
0.0429849 -0.00437751 0
0.0442643 -0.00562904 0
0.0455126 -0.00693089 0
0.0467314 -0.00827518 0
0.0479204 -0.00965638 0
0.0490661 -0.0110799 0
0.0501515 -0.0125519 0
0.0511696 -0.0140695 0
0.0521492 -0.0156071 0
0.0531202 -0.0171411 0
0.0540851 -0.0186663 0
0.0550431 -0.0201798 0
0.0559923 -0.0216793 0
0.0569311 -0.0231626 0
0.0578582 -0.0246273 0
0.0587723 -0.0260715 0
0.0596721 -0.027493 0
0.0605563 -0.02889 0
0.0614241 -0.0302609 0
0.0622742 -0.0316042 0
0.063106 -0.0329183 0
0.0639186 -0.034202 0
0.0647113 -0.0354543 0
0.0654835 -0.0366743 0
0.0662345 -0.0378613 0
0.0669642 -0.0390145 0
0.0676726 -0.0401333 0
0.0683597 -0.0412172 0
0.0690246 -0.0422665 0
0.0696662 -0.0432819 0
0.0702841 -0.0442636 0
0.0708793 -0.0452111 0
0.0714538 -0.0461237 0
0.072009 -0.047001 0
0.0725452 -0.0478434 0
0.0730611 -0.0486524 0
0.073556 -0.0494294 0
0.0740291 -0.0501756 0
0.0744812 -0.0508916 0
0.0749138 -0.0515773 0
0.0753285 -0.0522331 0
0.0757266 -0.0528592 0
0.076109 -0.0534564 0
0.0764753 -0.0540264 0
0.0768243 -0.054571 0
0.0771553 -0.0550919 0
0.0774679 -0.0555901 0
0.0777617 -0.0560669 0
0.0780369 -0.056523 0
0.0782958 -0.0569578 0
0.0785421 -0.0573703 0
0.0787786 -0.0577603 0
0.0790073 -0.0581279 0
0.0792295 -0.058474 0
0.0794462 -0.0587995 0
0.0798803 -0.0594162 0
0.0800272 -0.0596588 0
0.0800357 -0.0598891 0
0.0799275 -0.0600784 0
0.0797205 -0.0601773 0
0.0794593 -0.0601051 0
0.0789155 -0.0596491 0
0.0786707 -0.0593963 0
0.0784111 -0.0591319 0
0.0781372 -0.0588542 0
0.0778566 -0.0585548 0
0.0775715 -0.0582308 0
0.0772803 -0.0578828 0
0.0769832 -0.0575099 0
0.0766822 -0.0571097 0
0.0763801 -0.0566796 0
0.0760759 -0.0562196 0
0.0757623 -0.0557337 0
0.0754359 -0.0552232 0
0.0750951 -0.0546879 0
0.0747379 -0.054128 0
0.0743626 -0.0535435 0
0.0739688 -0.0529338 0
0.0735559 -0.0522981 0
0.0731238 -0.0516357 0
0.0726718 -0.050946 0
0.0721991 -0.0502288 0
0.0717046 -0.049484 0
0.0711872 -0.0487117 0
0.0706461 -0.047912 0
0.0700804 -0.0470849 0
0.0694892 -0.0462308 0
0.0688718 -0.0453499 0
0.0682271 -0.0444431 0
0.0675544 -0.043511 0
0.0668527 -0.0425546 0
0.0661215 -0.0415748 0
0.06536 -0.040573 0
0.0645676 -0.0395504 0
0.0637439 -0.0385087 0
0.0628887 -0.0374493 0
0.062002 -0.0363741 0
0.0610838 -0.0352847 0
0.0601345 -0.0341831 0
0.0591547 -0.033071 0
0.0581456 -0.0319502 0
0.0571083 -0.0308224 0
0.0560444 -0.0296893 0
0.0549562 -0.028552 0
0.053845 -0.0274126 0
0.0527113 -0.0262746 0
0.051554 -0.0251427 0
0.0503724 -0.0240222 0
0.0491675 -0.0229164 0
0.047941 -0.0218282 0
0.0466955 -0.0207597 0
0.0454337 -0.0197126 0
0.0441592 -0.0186878 0
0.0428751 -0.0176863 0
0.0415841 -0.0167097 0
0.0402878 -0.0157609 0
0.0389879 -0.0148428 0
0.0376864 -0.0139575 0
0.0363853 -0.013107 0
0.0350871 -0.0122931 0
0.0337942 -0.0115164 0
0.0325095 -0.0107772 0
0.0312357 -0.0100756 0
0.0299758 -0.00941024 0
0.0287337 -0.00877784 0
0.0275126 -0.00817571 0
0.0263139 -0.00760375 0
0.0251376 -0.00706528 0
0.0239829 -0.0065649 0
0.0228537 -0.00609619 0
0.0217522 -0.00565563 0
0.0206795 -0.00524226 0
0.0196364 -0.00485507 0
0.0186233 -0.00449318 0
0.0176408 -0.00415577 0
0.016689 -0.00384204 0
0.0157682 -0.00355115 0
0.0148783 -0.00328218 0
0.0140192 -0.00303468 0
0.0131906 -0.00280795 0
0.0123925 -0.00260016 0
0.0116246 -0.00241012 0
0.0108864 -0.00223769 0
0.0101774 -0.00208212 0
0.00949701 -0.00194206 0
0.00884483 -0.0018163 0
0.0082202 -0.0017039 0
0.00762247 -0.00160391 0
0.00705097 -0.00151528 0
0.006505 -0.00143697 0
0.0059838 -0.00136806 0
0.00548662 -0.00130772 0
0.00501265 -0.00125519 0
0.00456114 -0.00120954 0
0.00413136 -0.00116914 0
0.00372257 -0.00113251 0
0.00333398 -0.00109853 0
0.00296466 -0.00106798 0
0.00261363 -0.0010431 0
-0.052721 -0.0445996 0
-0.0508204 -0.0440823 0
-0.0489199 -0.0435651 0
-0.0470193 -0.0430478 0
-0.0451187 -0.0425306 0
-0.0432181 -0.0420134 0
-0.0413175 -0.0414961 0
-0.039417 -0.0409789 0
-0.0375164 -0.0404616 0
-0.0356158 -0.0399444 0
-0.0337152 -0.0394271 0
-0.0318146 -0.0389099 0
-0.0299141 -0.0383927 0
-0.0280135 -0.0378754 0
-0.0261129 -0.0373582 0
-0.0242123 -0.0368409 0
-0.0223117 -0.0363237 0
-0.0204112 -0.0358065 0
-0.0185106 -0.0352892 0
-0.01661 -0.034772 0
-0.0147094 -0.0342547 0
-0.0128088 -0.0337375 0
-0.0109083 -0.0332202 0
-0.00900769 -0.032703 0
-0.00710711 -0.0321858 0
-0.00520653 -0.0316685 0
-0.00330595 -0.0311513 0
-0.00140537 -0.030634 0
0.00190689 -0.0299614 0
0.00332271 -0.0298498 0
0.00474133 -0.0297825 0
0.00616136 -0.0297597 0
0.0075814 -0.0297814 0
0.00900007 -0.0298477 0
0.010416 -0.0299583 0
0.0118278 -0.0301127 0
0.0132342 -0.0303103 0
0.0146339 -0.0305504 0
0.0160259 -0.0308322 0
0.0174091 -0.0311546 0
0.0187824 -0.0315166 0
0.020145 -0.031917 0
0.0214961 -0.0323546 0
0.0228351 -0.032828 0
0.0241613 -0.0333361 0
0.0254744 -0.0338774 0
0.0267738 -0.0344507 0
0.0280592 -0.0350545 0
0.0293306 -0.0356877 0
0.0305875 -0.0363488 0
0.0318301 -0.0370367 0
0.0330581 -0.0377501 0
0.0342717 -0.0384879 0
0.0354708 -0.0392489 0
0.0366556 -0.0400321 0
0.0378262 -0.0408363 0
0.0389828 -0.0416607 0
0.0401254 -0.0425042 0
0.0412543 -0.0433659 0
0.0423698 -0.0442451 0
0.043472 -0.0451408 0
0.0445612 -0.0460523 0
0.0456375 -0.0469789 0
0.0467013 -0.0479199 0
0.0477529 -0.0488746 0
0.0487923 -0.0498424 0
0.04982 -0.0508227 0
0.0508362 -0.051815 0
0.051841 -0.0528187 0
0.0528348 -0.0538333 0
0.0538178 -0.0548584 0
0.0547903 -0.0558935 0
0.0557524 -0.0569382 0
0.0567045 -0.0579922 0
0.0576467 -0.0590549 0
0.0585792 -0.0601261 0
0.0595024 -0.0612055 0
0.0604163 -0.0622926 0
0.0613212 -0.0633873 0
0.0622174 -0.0644891 0
0.0631049 -0.0655979 0
0.0639841 -0.0667134 0
0.064855 -0.0678353 0
0.0657179 -0.0689633 0
0.0665729 -0.0700974 0
0.0674202 -0.0712372 0
0.06826 -0.0723826 0
0.0690925 -0.0735333 0
0.0699178 -0.0746892 0
0.070736 -0.0758501 0
0.0715473 -0.0770159 0
0.0723518 -0.0781863 0
0.0731498 -0.0793612 0
0.0739412 -0.0805405 0
0.0747264 -0.081724 0
0.0755053 -0.0829116 0
0.0762781 -0.0841033 0
0.0770449 -0.0852987 0
0.0778059 -0.0864979 0
0.0785611 -0.0877007 0
0.0793108 -0.088907 0
0.0814681 -0.0912706 0
0.0828814 -0.0924245 0
0.0842946 -0.0935783 0
0.0857079 -0.0947322 0
0.0871211 -0.095886 0
0.0885344 -0.0970399 0
0.0899476 -0.0981937 0
0.0913609 -0.0993476 0
0.0927741 -0.100501 0
0.0941874 -0.101655 0
0.0956006 -0.102809 0
0.0970139 -0.103963 0
0.0984272 -0.105117 0
0.0998404 -0.106271 0
0.101254 -0.107424 0
0.102667 -0.108578 0
0.10408 -0.109732 0
0.105493 -0.110886 0
0.106907 -0.11204 0
0.10832 -0.113194 0
0.109733 -0.114348 0
0.111146 -0.115501 0
0.11256 -0.116655 0
0.113973 -0.117809 0
0.115386 -0.118963 0
0.116799 -0.120117 0
0.118213 -0.121271 0
0.119626 -0.122424 0
0.121039 -0.123578 0
0.122452 -0.124732 0
0.123866 -0.125886 0
0.125279 -0.12704 0
0.126692 -0.128194 0
0.128105 -0.129348 0
0.129519 -0.130501 0
0.130932 -0.131655 0
0.132345 -0.132809 0
0.133758 -0.133963 0
0.135172 -0.133216 0
0.135172 -0.131316 0
0.135172 -0.129415 0
0.135172 -0.127514 0
0.135172 -0.125614 0
0.135172 -0.123713 0
0.135172 -0.121813 0
0.135172 -0.119912 0
0.135172 -0.118012 0
0.135172 -0.116111 0
0.135172 -0.11421 0
0.135172 -0.11231 0
0.135172 -0.110409 0
0.135172 -0.108509 0
0.135172 -0.106608 0
0.135172 -0.104708 0
0.135172 -0.102807 0
0.135172 -0.100906 0
0.135172 -0.0990058 0
0.135172 -0.0971052 0
0.135172 -0.0952046 0
0.135172 -0.0933041 0
0.135172 -0.0914035 0
0.135172 -0.0895029 0
0.135172 -0.0876023 0
0.135172 -0.0857017 0
0.135172 -0.0838012 0
0.135172 -0.0819006 0
0.133758 -0.0788462 0
0.132345 -0.0776923 0
0.130932 -0.0765385 0
0.129519 -0.0753846 0
0.128105 -0.0742308 0
0.126692 -0.0730769 0
0.125279 -0.0719231 0
0.123866 -0.0707692 0
0.122452 -0.0696154 0
0.121039 -0.0684615 0
0.119626 -0.0673077 0
0.118213 -0.0661538 0
0.116799 -0.065 0
0.115386 -0.0638462 0
0.113973 -0.0626923 0
0.11256 -0.0615385 0
0.111146 -0.0603846 0
0.109733 -0.0592308 0
0.10832 -0.0580769 0
0.106907 -0.0569231 0
0.105493 -0.0557692 0
0.10408 -0.0546154 0
0.102667 -0.0534615 0
0.101254 -0.0523077 0
0.0998404 -0.0511538 0
0.0984272 -0.05 0
0.0970139 -0.0488462 0
0.0956006 -0.0476923 0
[...]
CELL_DATA 13116
SCALARS rho float
LOOKUP_TABLE default
0.596582
0.696065
0.353974
0.70429
0.703935
0.697052
0.334735
0.706477
0.545358
0.70291
0.33486
0.310336
0.704005
0.319453
0.345904
0.696681
0.594349
0.692571
0.707261
0.327202
0.589968
0.379361
0.326891
0.695827
0.603276
0.706611
0.702804
0.347178
0.58152
0.645634
0.709853
0.314852
0.562329
0.476881
0.339394
0.594852
0.672632
0.708691
0.701754
0.705141
0.703137
0.706269
0.488429
0.342994
0.707881
0.707599
0.697548
0.707591
0.35477
0.527976
0.705698
0.490777
0.31101
0.589843
0.563273
0.589067
0.340864
0.695913
0.535085
0.331717
0.320334
0.704107
0.695978
0.703274
0.710018
0.324631
0.701813
0.67202
0.704341
0.70896
0.349183
0.568742
0.382826
0.329667
0.710157
0.352497
0.673992
0.70575
0.329876
0.689212
0.685224
0.706543
0.697343
0.708376
0.708197
0.420105
0.322236
0.662141
0.707459
0.351264
0.316491
0.696933
0.698955
0.707272
0.654386
0.609591
0.604743
0.70999
0.710528
0.584481
0.665944
0.67515
0.704071
0.456896
0.699305
0.29922
0.374458
0.521178
0.339776
0.59213
0.545631
0.705175
0.606658
0.684869
0.689868
0.702244
0.321303
0.410203
0.706611
0.703597
0.670705
0.386647
0.704571
0.315715
0.707361
0.45313
0.322105
0.50664
0.338748
0.526933
0.706534
0.70305
0.478957
0.369399
0.46217
0.630501
0.708038
0.705162
0.664767
0.703618
0.666983
0.698309
0.508937
0.669007
0.686977
0.315505
0.339765
0.705997
0.70304
0.705733
0.523292
0.708476
0.707387
0.342561
0.702483
0.708109
0.329246
0.671845
0.709935
0.660921
0.695531
0.333669
0.698409
0.331386
0.386724
0.704692
0.707342
0.692072
0.337274
0.443049
0.417745
0.70821
0.339254
0.499197
0.70152
0.325634
0.367335
0.383945
0.704657
0.698604
0.333203
0.438265
0.565544
0.671323
0.698395
0.536454
0.331773
0.700584
0.700024
0.473266
0.661216
0.705828
0.709021
0.327026
0.704734
0.697802
0.701097
0.701738
0.707475
0.436712
0.458381
0.599662
0.502263
0.327469
0.703408
0.708571
0.496255
0.615886
0.29271
0.336026
0.349283
0.699737
0.330132
0.33697
0.345273
0.343541
0.401237
0.703573
0.707346
0.407749
0.338124
0.701494
0.540842
0.333838
0.523938
0.703658
0.685914
0.346909
0.701464
0.38737
0.707332
0.315569
0.708554
0.556089
0.709869
0.706626
0.707209
0.320413
0.451185
0.658508
0.709248
0.697948
0.708416
0.707343
0.706747
0.369887
0.705499
0.703083
0.710989
0.339464
0.358621
0.708815
0.706673
0.709248
0.707495
0.59165
0.681712
0.334097
0.323161
0.427918
0.288391
0.696408
0.700986
0.673997
0.324721
0.706961
0.32659
0.418666
0.69965
0.337541
0.706545
0.705724
0.708997
0.695946
0.325499
0.708962
0.688895
0.711092
0.705264
0.328875
0.32329
0.32935
0.628511
0.386
0.376203
0.355556
0.368302
0.706515
0.301245
0.707518
0.704834
0.326366
0.328332
0.326123
0.452311
0.357142
0.661693
0.658149
0.703219
0.336978
0.700991
0.554525
0.330423
0.335306
0.700499
0.70665
0.70115
0.332276
0.697316
0.459697
0.703349
0.706011
0.705458
0.705991
0.328936
0.701177
0.297592
0.698053
0.702764
0.65429
0.33521
0.354516
0.703377
0.324617
0.703228
0.704189
0.414481
0.680307
0.697104
0.32504
0.707309
0.698916
0.299511
0.706197
0.409718
0.541681
0.707888
0.419578
0.672763
0.325057
0.694082
0.359095
0.706187
0.685835
0.70132
0.346003
0.382448
0.708228
0.343517
0.704456
0.701569
0.434985
0.707625
0.335424
0.377259
0.706221
0.528785
0.673058
0.323297
0.330349
0.705425
0.704784
0.339785
0.705481
0.320931
0.287558
0.703031
0.707468
0.528301
0.363361
0.705856
0.709879
0.696641
0.70753
0.699784
0.525523
0.388213
0.294185
0.332456
0.696906
0.333334
0.565689
0.415678
0.322491
0.37802
0.534814
0.153986
0.341911
0.708439
0.31413
0.699031
0.584945
0.706625
0.653669
0.705677
0.377563
0.323968
0.440128
0.402709
0.704954
0.604313
0.704666
0.58474
0.68697
0.628068
0.706372
0.652612
0.643941
0.700361
0.68819
0.698335
0.431338
0.497098
0.59467
0.378627
0.65674
0.590072
0.313863
0.701893
0.708973
0.329743
0.329613
0.339189
0.330994
0.606137
0.351168
0.327384
0.700378
0.326613
0.558742
0.350063
0.69715
0.691272
0.357491
0.370125
0.706034
0.449787
0.355178
0.329924
0.355535
0.339216
0.324286
0.330434
0.384391
0.420623
0.334826
0.674381
0.384121
0.707774
0.420316
0.314652
0.471788
0.312781
0.34951
0.313709
0.704989
0.431999
0.621719
0.531056
0.325814
0.618443
0.707458
0.419228
0.67977
0.63392
0.63545
0.324584
0.709764
0.409332
0.698603
0.710347
0.335951
0.311095
0.699294
0.40476
0.420095
0.686975
0.376453
0.670682
0.69
0.328866
0.367285
0.336639
0.497005
0.338837
0.29781
0.340271
0.297493
0.704797
0.704381
0.456721
0.58703
0.464147
0.704156
0.392689
0.357294
0.54754
0.336802
0.706821
0.341873
0.391986
0.474719
0.7082
0.707283
0.535117
0.41362
0.315508
0.535009
0.706342
0.707109
0.532073
0.697181
0.695646
0.335207
0.690531
0.552679
0.656727
0.3733
0.359526
0.684096
0.700692
0.651818
0.703439
0.707131
0.706743
0.694591
0.65455
0.706235
0.342324
0.708268
0.352909
0.30053
0.341375
0.703994
0.708782
0.349237
0.708085
0.596047
0.336632
0.705793
0.70673
0.697581
0.346558
0.356677
0.705732
0.35788
0.357503
0.305651
0.335875
0.705666
0.296102
0.703859
0.383004
0.695059
0.705651
0.703174
0.704525
0.358617
0.330973
0.708328
0.707228
0.673048
0.704774
0.702911
0.461758
0.324975
0.338902
0.699133
0.539912
0.339782
0.449033
0.321802
0.707144
0.700905
0.372367
0.382553
0.707834
0.425876
0.708564
0.640839
0.337327
0.389194
0.671754
0.708983
0.33268
0.707222
0.707349
0.708493
0.35378
0.708561
0.336192
0.709834
0.655631
0.364028
0.400736
0.376788
0.710528
0.341348
0.327354
0.412195
0.704728
0.700127
0.328162
0.320267
0.342358
0.704853
0.384689
0.69764
0.316238
0.571408
0.703574
0.423277
0.330144
0.328052
0.4624
0.339798
0.707054
0.334676
0.360052
0.697876
0.320926
0.698851
0.701735
0.71002
0.346334
0.707051
0.699549
0.701089
0.699811
0.707803
0.702763
0.31467
0.708845
0.410677
0.706017
0.327561
0.706615
0.523956
0.335889
0.711085
0.702058
0.349786
0.649978
0.316984
0.354373
0.700237
0.705148
0.31976
0.315077
0.329521
0.31335
0.70742
0.69581
0.35215
0.328182
0.704147
0.70464
0.574065
0.699494
0.700043
0.333243
0.701676
0.423287
0.705692
0.41796
0.599346
0.455205
0.700793
0.674268
0.553581
0.387113
0.344029
0.702569
0.579226
0.586377
0.69917
0.289464
0.691053
0.702282
0.368377
0.496101
0.700217
0.412478
0.710876
0.659316
0.350932
0.704406
0.652838
0.369582
0.698238
0.328493
0.707456
0.34843
0.699356
0.695797
0.342808
0.70203
0.698707
0.705045
0.598285
0.695267
0.555543
0.384
0.45678
0.312318
0.328238
0.707245
0.526898
0.704434
0.703012
0.339797
0.394017
0.698233
0.70347
0.705756
0.705799
0.330221
0.687958
0.703198
0.327831
0.30536
0.706553
0.708874
0.707796
0.309524
0.559996
0.356757
0.696848
0.70262
0.707698
0.701716
0.33827
0.702687
0.70764
0.698377
0.705828
0.701538
0.406531
0.699943
0.336059
0.683294
0.7032
0.443316
0.689746
0.70661
0.705627
0.465299
0.436149
0.557982
0.643651
0.357281
0.364207
0.33732
0.33537
0.694545
0.690655
0.70828
0.369773
0.333815
0.704394
0.672347
0.302077
0.394941
0.449691
0.67742
0.701671
0.707658
0.692047
0.33672
0.357593
0.708323
0.315225
0.336917
0.338134
0.699719
0.355132
0.358443
0.584577
0.707507
0.704431
0.698726
0.699844
0.322224
0.332683
0.335968
0.538446
0.431193
0.316129
0.671876
0.690226
0.706681
0.703839
0.311285
0.350029
0.703351
0.347744
0.70097
0.696339
0.709951
0.319967
0.356038
0.706889
0.711249
0.616262
0.298894
0.708339
0.697996
0.582265
0.705681
0.706055
0.708635
0.696374
0.330931
0.699462
0.710698
0.664561
0.696184
0.70719
0.705263
0.708693
0.705317
0.358636
0.365671
0.350644
0.709399
0.526235
0.349246
0.698813
0.703669
0.309831
0.652837
0.358908
0.660717
0.52615
0.33999
0.703783
0.694961
0.341581
0.519394
0.709587
0.333971
0.707268
0.324033
0.296351
0.625748
0.598331
0.471911
0.704785
0.338561
0.698575
0.37018
0.309823
0.698678
0.338679
0.611539
0.32127
0.654288
0.598874
0.708397
0.707314
0.310947
0.361902
0.677725
0.492839
0.705528
0.484666
0.604819
0.697083
0.698036
0.499553
0.589542
0.704632
0.701324
0.702731
0.360898
0.363081
0.514172
0.704782
0.701122
0.414018
0.703852
0.61675
0.43849
0.31998
0.655821
0.676924
0.70851
0.710566
0.68519
0.688087
0.70183
0.679727
0.319577
0.648851
0.449015
0.704854
0.708916
0.356953
0.708133
0.704633
0.371384
0.315297
0.325298
0.70724
0.332438
0.623442
0.698872
0.648813
0.334332
0.708149
0.325082
0.560907
0.703681
0.709349
0.67043
0.705311
0.611114
0.684509
0.545808
0.705985
0.347073
0.699885
0.703138
0.47998
0.709098
0.692997
0.330482
0.301646
0.335388
0.705468
0.364139
0.70977
0.334377
0.706541
0.310355
0.455085
0.318173
0.698114
0.70569
0.590736
0.28204
0.613222
0.701865
0.334606
0.57496
0.704268
0.315387
0.590052
0.711079
0.703626
0.701513
0.335554
0.518822
0.705237
0.707357
0.683021
0.360103
0.431466
0.708562
0.707867
0.709008
0.707754
0.581569
0.7031
0.576697
0.704406
0.359758
0.326136
0.707873
0.703995
0.702705
0.325347
0.700416
0.593734
0.625497
0.35707
0.406082
0.705414
0.705508
0.546479
0.398698
0.705028
0.709306
0.335076
0.599836
0.691883
0.337786
0.314093
0.301775
0.701742
0.385578
0.343107
0.707667
0.49005
0.701617
0.656344
0.337124
0.32464
0.705023
0.368983
0.353064
0.710963
0.289784
0.39493
0.593146
0.707809
0.70626
0.334106
0.365709
0.336346
0.701718
0.299362
0.706527
0.341165
0.700242
0.706922
0.708051
0.699886
0.700511
0.702226
0.701143
0.704555
0.70688
0.295185
0.335476
0.696546
0.701459
0.47442
0.702324
0.556809
0.70254
0.664547
0.356002
0.703038
0.70413
0.707021
0.341406
0.702413
0.369757
0.708338
0.463527
0.690626
0.700495
0.340737
0.704232
0.34053
0.472018
0.695275
0.339952
0.673517
0.707376
0.707097
0.332529
0.700127
0.336317
0.319018
0.322862
0.345693
0.667796
0.331727
0.666212
0.70524
0.401207
0.327636
0.45744
0.557015
0.635842
0.688328
0.34623
0.324036
0.338012
0.318338
0.281989
0.639439
0.705934
0.348702
0.706069
0.698903
0.301298
0.703737
0.670938
0.703754
0.337966
0.710636
0.6944
0.700837
0.705259
0.341256
0.705789
0.70219
0.70268
0.654428
0.698802
0.371
0.323764
0.708353
0.510049
0.359879
0.698158
0.324516
0.542649
0.643434
0.707268
0.707598
0.317888
0.701967
0.427342
0.341482
0.682731
0.704855
0.701852
0.705595
0.668858
0.319396
0.704123
0.327262
0.473181
0.704751
0.710257
0.705362
0.339517
0.325941
0.703245
0.335695
0.705859
0.633519
0.431974
0.385094
0.70357
0.321521
0.700659
0.705801
0.673145
0.321831
0.367376
0.499745
0.542345
0.630031
0.480402
0.697533
0.689676
0.707678
0.707072
0.699719
0.3215
0.385786
0.705755
0.699272
0.679862
0.440953
0.326907
0.68861
0.330582
0.70048
0.593526
0.384658
0.704835
0.331659
0.707456
0.356893
0.702891
0.321556
0.707974
0.698722
0.310705
0.70736
0.643697
0.312698
0.708266
0.706483
0.558202
0.312627
0.409385
0.478313
0.699944
0.6855
0.39458
0.555909
0.700419
0.698297
0.333511
0.635076
0.704436
0.42363
0.697846
0.698045
0.344113
0.707452
0.711134
0.352422
0.610894
0.330196
0.662888
0.336678
0.288648
0.70042
0.346443
0.343418
0.31001
0.701116
0.70135
0.436787
0.70556
0.406031
0.684946
0.337275
0.701521
0.415667
0.697073
0.708168
0.669935
0.707468
0.522187
0.699113
0.704489
0.349195
0.623572
0.669987
0.5559
0.699696
0.463082
0.449077
0.7041
0.332237
0.558846
0.360543
0.704443
0.301226
0.326643
0.694676
0.700159
0.329345
0.704454
0.689413
0.707209
0.705859
0.710211
0.331766
0.703413
0.333488
0.331043
0.707371
0.693449
0.70635
0.707846
0.316497
0.338428
0.336568
0.697966
0.705869
0.406731
0.707909
0.323961
0.336111
0.354875
0.707523
0.416454
0.704097
0.70662
0.621062
0.705584
0.707029
0.589757
0.672219
0.418205
0.312921
0.330088
0.710227
0.710267
0.324894
0.640116
0.701276
0.670052
0.335157
0.467374
0.690584
0.314444
0.687281
0.657372
0.335584
0.701605
0.6955
0.352036
0.706371
0.348501
0.704108
0.701682
0.701223
0.32345
0.438976
0.672959
0.344886
0.411642
0.705422
0.361716
0.700757
0.702629
0.706403
0.689156
0.390339
0.710859
0.682306
0.707193
0.376309
0.705787
0.37147
0.31253
0.708329
0.701516
0.706225
0.256187
0.700401
0.620122
0.709964
0.324205
0.319895
0.357454
0.705053
0.335785
0.327435
0.367254
0.656838
0.343404
0.359021
0.420628
0.706904
0.342585
0.707623
0.703148
0.704738
0.333265
0.707647
0.65142
0.707345
0.408538
0.653127
0.342502
0.332696
0.699675
0.328917
0.643814
0.698465
0.708244
0.340781
0.352851
0.348655
0.532241
0.708234
0.253147
0.708696
0.700867
0.690979
0.337625
0.324185
0.362411
0.68969
0.345832
0.70716
0.584745
0.702158
0.708609
0.329637
0.64953
0.315494
0.661829
0.635249
0.703395
0.645293
0.558843
0.656267
0.681481
0.705639
0.330407
0.418332
0.329657
0.689951
0.542901
0.710121
0.340171
0.415042
0.698823
0.707788
0.70977
0.329827
0.70491
0.530876
0.536013
0.686451
0.339011
0.330257
0.345127
0.701504
0.705881
0.653007
0.703803
0.362424
0.707279
0.648222
0.705395
0.70767
0.706953
0.704084
0.697354
0.69458
0.701255
0.336252
0.706592
0.70562
0.698187
0.706863
0.70207
0.628472
0.336235
0.303668
0.669455
0.358225
0.395187
0.705308
0.354712
0.621122
0.703987
0.696969
0.707383
0.333079
0.705392
0.322911
0.324156
0.697075
0.703814
0.703824
0.333974
0.705622
0.704994
0.676502
0.700662
0.378285
0.698432
0.703283
0.693266
0.43493
0.694446
0.335572
0.704578
0.345326
0.337986
0.597215
0.4439
0.703753
0.697249
0.700988
0.368452
0.69856
0.43947
0.348178
0.706958
0.456987
0.355536
0.703155
0.300874
0.482611
0.66749
0.693736
0.707347
0.459324
0.570852
0.656558
0.69933
0.629285
0.702121
0.510562
0.708017
0.703359
0.648727
0.310533
0.330881
0.440523
0.705686
0.331181
0.659058
0.704695
0.610155
0.699547
0.577777
0.675399
0.680993
0.338274
0.704286
0.700812
0.564823
0.700841
0.70368
0.707097
0.700471
0.337729
0.360203
0.705556
0.547278
0.582507
0.704661
0.708357
0.705579
0.700664
0.701649
0.627818
0.690223
0.702957
0.327529
0.298826
0.303132
0.376674
0.708782
0.462925
0.574854
0.704993
0.684616
0.333363
0.707253
0.703964
0.333931
0.395732
0.710082
0.70601
0.340382
0.308336
0.306919
0.707041
0.706499
0.439309
0.323537
0.334078
0.284494
0.407414
0.361588
0.707567
0.707989
0.696176
0.331927
0.697644
0.626653
0.588408
0.389488
0.328119
0.706836
0.707935
0.354208
0.697387
0.350518
0.695158
0.33632
0.705002
0.327627
0.706847
0.705334
0.333637
0.537369
0.369729
0.703542
0.293964
0.631919
0.323713
0.516592
0.342513
0.627674
0.334986
0.708404
0.708794
0.587833
0.700065
0.392652
0.702197
0.702562
0.705512
0.623684
0.685046
0.328764
0.465527
0.326734
0.699262
0.317399
0.704618
0.529152
0.692873
0.703723
0.519911
0.70042
0.349913
0.32341
0.328915
0.513615
0.602245
0.708324
0.335778
0.371836
0.697899
0.377918
0.320595
0.622396
0.40021
0.356406
0.304014
0.706331
0.641304
0.634858
0.328777
0.700778
0.701773
0.311894
0.346732
0.7077
0.698929
0.659969
0.487394
0.396629
0.375292
0.340955
0.707286
0.671934
0.541499
0.681205
0.308218
0.582925
0.331132
0.710636
0.705041
0.330611
0.334575
0.674912
0.619058
0.704814
0.701559
0.700788
0.705098
0.704516
0.34432
0.381033
0.330805
0.329117
0.595082
0.709916
0.642819
0.329985
0.341658
0.483578
0.31397
0.705967
0.692528
0.343732
0.375355
0.703597
0.333887
0.656728
0.699545
0.702623
0.69883
0.59558
0.357046
0.326181
0.689863
0.331668
0.462936
0.434227
0.701612
0.703794
0.333583
0.336453
0.707964
0.334272
0.700716
0.699278
0.346937
0.371457
0.30582
0.704948
0.319936
0.707316
0.695264
0.614802
0.308944
0.506013
0.705608
0.708417
0.331825
0.706911
0.668454
0.315805
0.706624
0.707089
0.338691
0.35218
0.706783
0.335089
0.328033
0.703737
0.35709
0.708476
0.674619
0.697982
0.665934
0.703945
0.702444
0.699601
0.336165
0.401898
0.680142
0.705323
0.438788
0.703673
0.386306
0.705189
0.70759
0.570784
0.650192
0.465165
0.450821
0.707542
0.70419
0.702907
0.705397
0.702638
0.709301
0.706025
0.707543
0.707765
0.707107
0.706863
0.708072
0.698687
0.311636
0.706727
0.34785
0.703419
0.706298
0.696468
0.70145
0.68746
0.369254
0.345357
0.352258
0.331863
0.701016
0.326208
0.339049
0.687285
0.309353
0.694039
0.340036
0.704657
0.706096
0.346021
0.380922
0.387021
0.705387
0.332649
0.708387
0.703879
0.350365
0.70664
0.538913
0.401246
0.345315
0.31124
0.682893
0.354029
0.704381
0.576293
0.374871
0.704335
0.703711
0.700534
0.350824
0.587852
0.321522
0.698139
0.698926
0.702401
0.362858
0.704792
0.704952
0.703616
0.426006
0.705479
0.355768
0.335773
0.706395
0.458953
0.702809
0.459973
0.360619
0.426715
0.703853
0.342276
0.312183
0.351444
0.526641
0.710954
0.705298
0.3096
0.621961
0.704164
0.531691
0.482182
0.378661
0.540407
0.362225
0.331859
0.708929
0.336859
0.34927
0.705543
0.704707
0.336336
0.691215
0.347203
0.709777
0.348783
0.707113
0.709136
0.688695
0.701687
0.373734
0.332314
0.322269
0.697462
0.707135
0.568517
0.538033
0.374688
0.332768
0.69967
0.335914
0.708353
0.384135
0.707909
0.673406
0.328096
0.342976
0.337097
0.336247
0.344864
0.676482
0.700334
0.327982
0.707376
0.643642
0.381539
0.331392
0.704223
0.352873
0.707084
0.411825
0.689572
0.654766
0.707613
0.711169
0.356572
0.701746
0.703944
0.706247
0.348962
0.684655
0.578527
0.392921
0.705513
0.670373
0.708321
0.702183
0.704401
0.706672
0.705898
0.698266
0.706461
0.342829
0.699246
0.337244
0.490893
0.705715
0.322299
0.707646
0.694551
0.366225
0.703226
0.349167
0.316873
0.707238
0.688058
0.704765
0.335693
0.702671
0.610338
0.349435
0.330541
0.707333
0.701294
0.392947
0.362988
0.697608
0.704438
0.358658
0.647173
0.70506
0.64251
0.327835
0.354357
0.318668
0.654998
0.326717
0.70684
0.689302
0.699857
0.632567
0.706917
0.335771
0.707684
0.598668
0.705359
0.645308
0.326141
0.33478
0.282598
0.696262
0.704735
0.408733
0.653171
0.367585
0.671408
0.703371
0.287596
0.666376
0.707165
0.630715
0.332046
0.324241
0.377842
0.70595
0.702891
0.608617
0.487174
0.707788
0.352155
0.634587
0.709387
0.704395
0.332821
0.608697
0.370274
0.69838
0.283377
0.707914
0.707239
0.327975
0.706485
0.490952
0.707922
0.654754
0.707087
0.70533
0.451062
0.699155
0.703878
0.702923
0.708053
0.449547
0.709373
0.295213
0.70452
0.289352
0.334481
0.302728
0.343409
0.360103
0.330056
0.704883
0.3759
0.333585
0.66619
0.706349
0.701194
0.440287
0.685657
0.680249
0.699364
0.306304
0.643143
0.701821
0.390352
0.360911
0.332952
0.634058
0.47932
0.345424
0.634309
0.311923
0.710518
0.473159
0.320339
0.452127
0.649872
0.384838
0.700988
0.313743
0.548634
0.392846
0.707081
0.406781
0.667916
0.70965
0.69855
0.481159
0.334892
0.707495
0.704313
0.367085
0.318886
0.697504
0.334141
0.693926
0.332804
0.538608
0.282318
0.70214
0.380834
0.704686
0.333475
0.703473
0.707319
0.70454
0.708814
0.296354
0.327898
0.438628
0.706861
0.686597
0.703625
0.606568
0.374023
0.699898
0.38164
0.706862
0.681283
0.451469
0.382128
0.69954
0.70841
0.322623
0.710034
0.707741
0.700882
0.698118
0.315646
0.636078
0.342179
0.701694
0.319077
0.704556
0.706529
0.70793
0.704978
0.377921
0.704825
0.345
0.340159
0.700357
0.708966
0.556313
0.706574
0.708805
0.351239
0.693443
0.707099
0.706069
0.319568
0.436622
0.680615
0.325979
0.705556
0.705062
0.708074
0.706813
0.307961
0.47613
0.644834
0.327791
0.707639
0.703799
0.494004
0.707358
0.291005
0.689401
0.693837
0.669812
0.707343
0.323775
0.328542
0.708145
0.706474
0.365713
0.39587
0.379504
0.330601
0.329364
0.312762
0.354722
0.359127
0.707805
0.29356
0.329095
0.697103
0.557218
0.708179
0.411651
0.338656
0.704542
0.481264
0.537796
0.702498
0.399925
0.651356
0.706286
0.593734
0.701099
0.334074
0.705544
0.702695
0.354984
0.334846
0.451348
0.693772
0.594892
0.704192
0.696804
0.704412
0.701439
0.417443
0.706616
0.701118
0.707507
0.338825
0.702902
0.665418
0.41471
0.433121
0.305227
0.318723
0.309196
0.595479
0.668479
0.696633
0.332456
0.38421
0.705217
0.310068
0.702494
0.704421
0.70795
0.669666
0.707917
0.388083
0.320271
0.310584
0.590399
0.314394
0.707074
0.308392
0.699756
0.697699
0.706719
0.373908
0.471131
0.444828
0.707283
0.360234
0.332629
0.705593
0.701598
0.654689
0.696781
0.707277
0.693696
0.361838
0.608293
0.703076
0.503861
0.707359
0.701833
0.696497
0.424772
0.408603
0.706095
0.469729
0.63721
0.342611
0.692792
0.708344
0.436165
0.329969
0.696189
0.505817
0.703748
0.702035
0.355531
0.328888
0.711279
0.470946
0.444835
0.708063
0.707331
0.36676
0.708726
0.709768
0.701127
0.362942
0.594872
0.358992
0.707183
0.705151
0.694077
0.694332
0.710347
0.366472
0.405487
0.699918
0.337963
0.589126
0.371136
0.707529
0.313814
0.655192
0.702799
0.710608
0.362982
0.707227
0.710586
0.330756
0.691671
0.310484
0.706182
0.358572
0.327122
0.306119
0.691639
0.707404
0.35035
0.355809