# vtk DataFile Version 1.0
unstructured grid
ascii
DATASET UNSTRUCTURED_GRID
points 13672 float
0.0796578 -0.059106 0
0.00128732 0.00159165 0
0.00227961 -0.00102548 0
0.0791586 -0.0598787 0
-0.0546216 0.01 0
0.000495206 0.025 0
0.0800549 -0.035 0
0.135172 -0.08 0
-0.0546216 -0.0451168 0
0.000495206 -0.0301168 0
0.0800549 -0.0901168 0
0.135172 -0.135117 0
-0.0546216 -0.0451168 -0.00551168
0.000495206 -0.0301168 -0.00551168
0.0800549 -0.0901168 -0.00551168
0.135172 -0.135117 -0.00551168
0.135172 -0.08 -0.00551168
0.0800549 -0.035 -0.00551168
0.000495206 0.025 -0.00551168
-0.0546216 0.01 -0.00551168
0.00128732 0.00159165 -0.00551168
0.00227961 -0.00102548 -0.00551168
0.0791586 -0.0598787 -0.00551168
0.0796578 -0.059106 -0.00551168
0.00165953 -0.000990923 0
0.00119576 -0.000874076 0
0.000866021 -0.000641801 0
0.000645147 -0.000349912 0
0.00052235 -1.7281e-05 0
0.00049972 0.000348016 0
0.000601632 0.000737716 0
0.000861774 0.0011403 0
0.00157235 0.00183217 0
0.00188647 0.00206725 0
0.00222612 0.00230203 0
0.00258713 0.00254351 0
0.00296826 0.00279524 0
0.00337118 0.00305664 0
0.00379785 0.00332658 0
0.00425045 0.00360349 0
0.00473139 0.00388521 0
0.0052432 0.00416895 0
0.0057881 0.00445204 0
0.00636753 0.00473281 0
0.00698281 0.00500961 0
0.00763526 0.00528058 0
0.00832616 0.00554366 0
0.00905691 0.00579603 0
0.00982918 0.00603333 0
0.0106445 0.00625033 0
0.0115038 0.00644128 0
0.0124073 0.00660297 0
0.0133543 0.00673414 0
0.0143444 0.00683382 0
0.0153769 0.00690031 0
0.0164512 0.00693173 0
0.0175666 0.00692547 0
0.0187219 0.00687822 0
0.0199156 0.00678477 0
0.0211454 0.00663864 0
0.0224084 0.00643275 0
0.0237018 0.00616676 0
0.0250249 0.00584739 0
0.026375 0.00547298 0
0.0277479 0.00503752 0
0.0291386 0.00453545 0
0.0305433 0.0039653 0
0.0319572 0.0033256 0
0.0333681 0.00260019 0
0.034775 0.00179799 0
0.0361793 0.000930615 0
0.0375798 3.12222e-06 0
0.0389689 -0.000988429 0
0.0403357 -0.00205109 0
0.041675 -0.00318283 0
0.0429849 -0.00437751 0
0.0442643 -0.00562904 0
0.0455126 -0.00693089 0
0.0467314 -0.00827518 0
0.0479204 -0.00965638 0
0.0490661 -0.0110799 0
0.0501515 -0.0125519 0
0.0511696 -0.0140695 0
0.0521492 -0.0156071 0
0.0531202 -0.0171411 0
0.0540851 -0.0186663 0
0.0550431 -0.0201798 0
0.0559923 -0.0216793 0
0.0569311 -0.0231626 0
0.0578582 -0.0246273 0
0.0587723 -0.0260715 0
0.0596721 -0.027493 0
0.0605563 -0.02889 0
0.0614241 -0.0302609 0
0.0622742 -0.0316042 0
0.063106 -0.0329183 0
0.0639186 -0.034202 0
0.0647113 -0.0354543 0
0.0654835 -0.0366743 0
0.0662345 -0.0378613 0
0.0669642 -0.0390145 0
0.0676726 -0.0401333 0
0.0683597 -0.0412172 0
0.0690246 -0.0422665 0
0.0696662 -0.0432819 0
0.0702841 -0.0442636 0
0.0708793 -0.0452111 0
0.0714538 -0.0461237 0
0.072009 -0.047001 0
0.0725452 -0.0478434 0
0.0730611 -0.0486524 0
0.073556 -0.0494294 0
0.0740291 -0.0501756 0
0.0744812 -0.0508916 0
0.0749138 -0.0515773 0
0.0753285 -0.0522331 0
0.0757266 -0.0528592 0
0.076109 -0.0534564 0
0.0764753 -0.0540264 0
0.0768243 -0.054571 0
0.0771553 -0.0550919 0
0.0774679 -0.0555901 0
0.0777617 -0.0560669 0
0.0780369 -0.056523 0
0.0782958 -0.0569578 0
0.0785421 -0.0573703 0
0.0787786 -0.0577603 0
0.0790073 -0.0581279 0
0.0792295 -0.058474 0
0.0794462 -0.0587995 0
0.0798803 -0.0594162 0
0.0800272 -0.0596588 0
0.0800357 -0.0598891 0
0.0799275 -0.0600784 0
0.0797205 -0.0601773 0
0.0794593 -0.0601051 0
0.0789155 -0.0596491 0
0.0786707 -0.0593963 0
0.0784111 -0.0591319 0
0.0781372 -0.0588542 0
0.0778566 -0.0585548 0
0.0775715 -0.0582308 0
0.0772803 -0.0578828 0
0.0769832 -0.0575099 0
0.0766822 -0.0571097 0
0.0763801 -0.0566796 0
0.0760759 -0.0562196 0
0.0757623 -0.0557337 0
0.0754359 -0.0552232 0
0.0750951 -0.0546879 0
0.0747379 -0.054128 0
0.0743626 -0.0535435 0
0.0739688 -0.0529338 0
0.0735559 -0.0522981 0
0.0731238 -0.0516357 0
0.0726718 -0.050946 0
0.0721991 -0.0502288 0
0.0717046 -0.049484 0
0.0711872 -0.0487117 0
0.0706461 -0.047912 0
0.0700804 -0.0470849 0
0.0694892 -0.0462308 0
0.0688718 -0.0453499 0
0.0682271 -0.0444431 0
0.0675544 -0.043511 0
0.0668527 -0.0425546 0
0.0661215 -0.0415748 0
0.06536 -0.040573 0
0.0645676 -0.0395504 0
0.0637439 -0.0385087 0
0.0628887 -0.0374493 0
0.062002 -0.0363741 0
0.0610838 -0.0352847 0
0.0601345 -0.0341831 0
0.0591547 -0.033071 0
0.0581456 -0.0319502 0
0.0571083 -0.0308224 0
0.0560444 -0.0296893 0
0.0549562 -0.028552 0
0.053845 -0.0274126 0
0.0527113 -0.0262746 0
0.051554 -0.0251427 0
0.0503724 -0.0240222 0
0.0491675 -0.0229164 0
0.047941 -0.0218282 0
0.0466955 -0.0207597 0
0.0454337 -0.0197126 0
0.0441592 -0.0186878 0
0.0428751 -0.0176863 0
0.0415841 -0.0167097 0
0.0402878 -0.0157609 0
0.0389879 -0.0148428 0
0.0376864 -0.0139575 0
0.0363853 -0.013107 0
0.0350871 -0.0122931 0
0.0337942 -0.0115164 0
0.0325095 -0.0107772 0
0.0312357 -0.0100756 0
0.0299758 -0.00941024 0
0.0287337 -0.00877784 0
0.0275126 -0.00817571 0
0.0263139 -0.00760375 0
0.0251376 -0.00706528 0
0.0239829 -0.0065649 0
0.0228537 -0.00609619 0
0.0217522 -0.00565563 0
0.0206795 -0.00524226 0
0.0196364 -0.00485507 0
0.0186233 -0.00449318 0
0.0176408 -0.00415577 0
0.016689 -0.00384204 0
0.0157682 -0.00355115 0
0.0148783 -0.00328218 0
0.0140192 -0.00303468 0
0.0131906 -0.00280795 0
0.0123925 -0.00260016 0
0.0116246 -0.00241012 0
0.0108864 -0.00223769 0
0.0101774 -0.00208212 0
0.00949701 -0.00194206 0
0.00884483 -0.0018163 0
0.0082202 -0.0017039 0
0.00762247 -0.00160391 0
0.00705097 -0.00151528 0
0.006505 -0.00143697 0
0.0059838 -0.00136806 0
0.00548662 -0.00130772 0
0.00501265 -0.00125519 0
0.00456114 -0.00120954 0
0.00413136 -0.00116914 0
0.00372257 -0.00113251 0
0.00333398 -0.00109853 0
0.00296466 -0.00106798 0
0.00261363 -0.0010431 0
-0.052721 -0.0445996 0
-0.0508204 -0.0440823 0
-0.0489199 -0.0435651 0
-0.0470193 -0.0430478 0
-0.0451187 -0.0425306 0
-0.0432181 -0.0420134 0
-0.0413175 -0.0414961 0
-0.039417 -0.0409789 0
-0.0375164 -0.0404616 0
-0.0356158 -0.0399444 0
-0.0337152 -0.0394271 0
-0.0318146 -0.0389099 0
-0.0299141 -0.0383927 0
-0.0280135 -0.0378754 0
-0.0261129 -0.0373582 0
-0.0242123 -0.0368409 0
-0.0223117 -0.0363237 0
-0.0204112 -0.0358065 0
-0.0185106 -0.0352892 0
-0.01661 -0.034772 0
-0.0147094 -0.0342547 0
-0.0128088 -0.0337375 0
-0.0109083 -0.0332202 0
-0.00900769 -0.032703 0
-0.00710711 -0.0321858 0
-0.00520653 -0.0316685 0
-0.00330595 -0.0311513 0
-0.00140537 -0.030634 0
0.00190689 -0.0299614 0
0.00332271 -0.0298498 0
0.00474133 -0.0297825 0
0.00616136 -0.0297597 0
0.0075814 -0.0297814 0
0.00900007 -0.0298477 0
0.010416 -0.0299583 0
0.0118278 -0.0301127 0
0.0132342 -0.0303103 0
0.0146339 -0.0305504 0
0.0160259 -0.0308322 0
0.0174091 -0.0311546 0
0.0187824 -0.0315166 0
0.020145 -0.031917 0
0.0214961 -0.0323546 0
0.0228351 -0.032828 0
0.0241613 -0.0333361 0
0.0254744 -0.0338774 0
0.0267738 -0.0344507 0
0.0280592 -0.0350545 0
0.0293306 -0.0356877 0
0.0305875 -0.0363488 0
0.0318301 -0.0370367 0
0.0330581 -0.0377501 0
0.0342717 -0.0384879 0
0.0354708 -0.0392489 0
0.0366556 -0.0400321 0
0.0378262 -0.0408363 0
0.0389828 -0.0416607 0
0.0401254 -0.0425042 0
0.0412543 -0.0433659 0
0.0423698 -0.0442451 0
0.043472 -0.0451408 0
0.0445612 -0.0460523 0
0.0456375 -0.0469789 0
0.0467013 -0.0479199 0
0.0477529 -0.0488746 0
0.0487923 -0.0498424 0
0.04982 -0.0508227 0
0.0508362 -0.051815 0
0.051841 -0.0528187 0
0.0528348 -0.0538333 0
0.0538178 -0.0548584 0
0.0547903 -0.0558935 0
0.0557524 -0.0569382 0
0.0567045 -0.0579922 0
0.0576467 -0.0590549 0
0.0585792 -0.0601261 0
0.0595024 -0.0612055 0
0.0604163 -0.0622926 0
0.0613212 -0.0633873 0
0.0622174 -0.0644891 0
0.0631049 -0.0655979 0
0.0639841 -0.0667134 0
0.064855 -0.0678353 0
0.0657179 -0.0689633 0
0.0665729 -0.0700974 0
0.0674202 -0.0712372 0
0.06826 -0.0723826 0
0.0690925 -0.0735333 0
0.0699178 -0.0746892 0
0.070736 -0.0758501 0
0.0715473 -0.0770159 0
0.0723518 -0.0781863 0
0.0731498 -0.0793612 0
0.0739412 -0.0805405 0
0.0747264 -0.081724 0
0.0755053 -0.0829116 0
0.0762781 -0.0841033 0
0.0770449 -0.0852987 0
0.0778059 -0.0864979 0
0.0785611 -0.0877007 0
0.0793108 -0.088907 0
0.0814681 -0.0912706 0
0.0828814 -0.0924245 0
0.0842946 -0.0935783 0
0.0857079 -0.0947322 0
0.0871211 -0.095886 0
0.0885344 -0.0970399 0
0.0899476 -0.0981937 0
0.0913609 -0.0993476 0
0.0927741 -0.100501 0
0.0941874 -0.101655 0
0.0956006 -0.102809 0
0.0970139 -0.103963 0
0.0984272 -0.105117 0
0.0998404 -0.106271 0
0.101254 -0.107424 0
0.102667 -0.108578 0
0.10408 -0.109732 0
0.105493 -0.110886 0
0.106907 -0.11204 0
0.10832 -0.113194 0
0.109733 -0.114348 0
0.111146 -0.115501 0
0.11256 -0.116655 0
0.113973 -0.117809 0
0.115386 -0.118963 0
0.116799 -0.120117 0
0.118213 -0.121271 0
0.119626 -0.122424 0
0.121039 -0.123578 0
0.122452 -0.124732 0
0.123866 -0.125886 0
0.125279 -0.12704 0
0.126692 -0.128194 0
0.128105 -0.129348 0
0.129519 -0.130501 0
0.130932 -0.131655 0
0.132345 -0.132809 0
0.133758 -0.133963 0
0.135172 -0.133216 0
0.135172 -0.131316 0
0.135172 -0.129415 0
0.135172 -0.127514 0
0.135172 -0.125614 0
0.135172 -0.123713 0
0.135172 -0.121813 0
0.135172 -0.119912 0
0.135172 -0.118012 0
0.135172 -0.116111 0
0.135172 -0.11421 0
0.135172 -0.11231 0
0.135172 -0.110409 0
0.135172 -0.108509 0
0.135172 -0.106608 0
0.135172 -0.104708 0
0.135172 -0.102807 0
0.135172 -0.100906 0
0.135172 -0.0990058 0
0.135172 -0.0971052 0
0.135172 -0.0952046 0
0.135172 -0.0933041 0
0.135172 -0.0914035 0
0.135172 -0.0895029 0
0.135172 -0.0876023 0
0.135172 -0.0857017 0
0.135172 -0.0838012 0
0.135172 -0.0819006 0
0.133758 -0.0788462 0
0.132345 -0.0776923 0
0.130932 -0.0765385 0
0.129519 -0.0753846 0
0.128105 -0.0742308 0
0.126692 -0.0730769 0
0.125279 -0.0719231 0
0.123866 -0.0707692 0
0.122452 -0.0696154 0
0.121039 -0.0684615 0
0.119626 -0.0673077 0
0.118213 -0.0661538 0
0.116799 -0.065 0
0.115386 -0.0638462 0
0.113973 -0.0626923 0
0.11256 -0.0615385 0
0.111146 -0.0603846 0
0.109733 -0.0592308 0
0.10832 -0.0580769 0
0.106907 -0.0569231 0
0.105493 -0.0557692 0
0.10408 -0.0546154 0
0.102667 -0.0534615 0
0.101254 -0.0523077 0
0.0998404 -0.0511538 0
0.0984272 -0.05 0
0.0970139 -0.0488462 0
0.0956006 -0.0476923 0
[...]
CELL_DATA 13116
SCALARS rho float
LOOKUP_TABLE default
0.550867
0.660731
0.383569
0.716492
0.704899
0.677698
0.368333
0.707226
0.530245
0.710961
0.364847
0.377547
0.705157
0.39595
0.37425
0.677899
0.518126
0.703741
0.678913
0.367141
0.556416
0.390043
0.412729
0.705376
0.61364
0.630656
0.711059
0.451724
0.608447
0.651281
0.673312
0.403324
0.558975
0.45165
0.36462
0.553739
0.669514
0.674183
0.675893
0.68372
0.678788
0.711335
0.428137
0.40462
0.677832
0.678886
0.635347
0.683317
0.375718
0.526767
0.701198
0.445509
0.373604
0.510874
0.557557
0.588989
0.408165
0.701077
0.540163
0.37938
0.399594
0.711695
0.650068
0.67568
0.673776
0.395011
0.683883
0.677649
0.685859
0.674098
0.37473
0.589981
0.390152
0.407204
0.672199
0.376388
0.645034
0.697959
0.362438
0.700943
0.683156
0.637121
0.705053
0.683872
0.668763
0.446775
0.37229
0.675766
0.66329
0.387899
0.390209
0.662584
0.707481
0.669683
0.653834
0.602069
0.616426
0.672899
0.672595
0.602685
0.686924
0.587067
0.678761
0.404523
0.616069
0.409876
0.356694
0.475739
0.429701
0.619451
0.504619
0.630205
0.600166
0.68755
0.70156
0.684572
0.383839
0.387874
0.693375
0.686911
0.67835
0.389996
0.686494
0.418166
0.663178
0.442157
0.373863
0.513608
0.422219
0.528356
0.693648
0.686639
0.50397
0.383824
0.484715
0.58615
0.670004
0.690229
0.685964
0.686605
0.627813
0.638964
0.512079
0.628503
0.645813
0.394964
0.363647
0.627843
0.702676
0.696307
0.54682
0.68305
0.683046
0.391485
0.707259
0.670199
0.41653
0.692797
0.672993
0.676375
0.704444
0.364733
0.702608
0.416315
0.387462
0.709051
0.659742
0.703238
0.365817
0.466196
0.422109
0.670036
0.381136
0.496795
0.683167
0.41433
0.37672
0.390613
0.625814
0.676883
0.376308
0.434586
0.525209
0.670255
0.677109
0.537804
0.385801
0.679007
0.602325
0.466044
0.639276
0.625396
0.67446
0.420825
0.61987
0.677323
0.708471
0.678819
0.661769
0.410244
0.403927
0.625813
0.508169
0.407065
0.696621
0.678887
0.454266
0.612786
0.397747
0.390847
0.377598
0.680962
0.41729
0.370674
0.383959
0.390434
0.365719
0.675573
0.659481
0.432684
0.40626
0.683434
0.498305
0.376547
0.554144
0.711085
0.643284
0.457409
0.68332
0.388756
0.717196
0.392501
0.674251
0.579459
0.672593
0.675968
0.674702
0.373749
0.434239
0.676552
0.671943
0.677083
0.670363
0.674699
0.699299
0.379962
0.6952
0.707829
0.672673
0.37614
0.378644
0.680265
0.692384
0.673928
0.688247
0.536561
0.691828
0.364584
0.396722
0.397251
0.398544
0.597782
0.708273
0.643618
0.363234
0.676406
0.387775
0.432485
0.618417
0.394029
0.632412
0.705845
0.671498
0.700679
0.375442
0.671413
0.688747
0.672714
0.690031
0.35745
0.371806
0.421818
0.581206
0.390422
0.387432
0.329779
0.300487
0.668286
0.376265
0.66912
0.705165
0.377834
0.371635
0.385376
0.457012
0.370369
0.67419
0.586668
0.623676
0.393714
0.680546
0.586386
0.401037
0.377684
0.676339
0.692228
0.678665
0.382786
0.677585
0.416937
0.685735
0.711084
0.694106
0.70975
0.423495
0.683084
0.392374
0.678866
0.711233
0.677652
0.365765
0.329074
0.708291
0.384622
0.65045
0.711519
0.368459
0.695456
0.704774
0.378304
0.676186
0.707504
0.385329
0.695343
0.445934
0.5736
0.684993
0.453512
0.693071
0.364521
0.703186
0.340687
0.675043
0.577297
0.709557
0.451762
0.356118
0.670169
0.393265
0.695218
0.608997
0.424203
0.67011
0.387654
0.388713
0.691612
0.557134
0.675619
0.37328
0.416524
0.694946
0.704984
0.362525
0.702898
0.390709
0.40817
0.684558
0.689608
0.460839
0.383191
0.690414
0.673605
0.677929
0.675021
0.699078
0.54697
0.330076
0.394141
0.375274
0.677716
0.37542
0.523019
0.372739
0.402919
0.349805
0.471111
0.14178
0.393834
0.671162
0.333247
0.703312
0.610635
0.680216
0.667253
0.69621
0.389703
0.369738
0.415841
0.337664
0.691948
0.595779
0.679152
0.610274
0.647663
0.624201
0.634998
0.624712
0.648235
0.697276
0.700525
0.677007
0.403414
0.462385
0.546774
0.388338
0.582746
0.587215
0.37379
0.684023
0.671665
0.425712
0.363693
0.372721
0.385308
0.635218
0.37191
0.420935
0.681902
0.396596
0.579267
0.387768
0.67772
0.68157
0.352283
0.385358
0.691134
0.458291
0.386635
0.386011
0.379516
0.429774
0.372073
0.36477
0.39209
0.432808
0.371668
0.583444
0.370176
0.667842
0.385224
0.4468
0.502206
0.400466
0.38654
0.399454
0.6799
0.440874
0.648122
0.477796
0.393413
0.615376
0.66578
0.446098
0.695021
0.625109
0.623393
0.372514
0.672672
0.390205
0.70066
0.673143
0.422803
0.382211
0.600854
0.343126
0.455685
0.580318
0.355516
0.691735
0.648574
0.373801
0.372532
0.3799
0.492232
0.375965
0.381426
0.378615
0.392604
0.712481
0.713432
0.464082
0.606058
0.484067
0.619725
0.350858
0.383795
0.534956
0.423595
0.684762
0.290343
0.371204
0.499717
0.677292
0.654524
0.56314
0.367111
0.380758
0.568616
0.707408
0.674547
0.564582
0.621356
0.596609
0.372129
0.68049
0.574737
0.675464
0.307639
0.373655
0.686505
0.709006
0.666186
0.711579
0.656268
0.630819
0.703245
0.676206
0.679948
0.37778
0.67708
0.336248
0.397394
0.37089
0.715027
0.679277
0.307554
0.667801
0.625412
0.366626
0.675109
0.691324
0.693867
0.451192
0.383984
0.696243
0.380074
0.3701
0.383271
0.373434
0.682489
0.383999
0.714795
0.375905
0.661664
0.699618
0.684055
0.705389
0.386699
0.372259
0.681572
0.718558
0.658158
0.712172
0.707613
0.496114
0.377004
0.427585
0.67905
0.532615
0.370142
0.457539
0.397648
0.6825
0.680053
0.307577
0.390665
0.665627
0.464446
0.671989
0.668916
0.420019
0.389646
0.653636
0.671756
0.418774
0.653184
0.659378
0.68064
0.384913
0.670349
0.41
0.67243
0.674077
0.382619
0.364536
0.38857
0.672547
0.42842
0.363237
0.388904
0.675481
0.690664
0.362764
0.389927
0.382447
0.675406
0.391335
0.677153
0.394304
0.59415
0.711201
0.388318
0.415521
0.414134
0.49651
0.433478
0.642852
0.384306
0.380165
0.677005
0.381931
0.68044
0.646439
0.672677
0.374105
0.685431
0.70577
0.708051
0.679572
0.665659
0.684184
0.397064
0.674364
0.435167
0.678573
0.355751
0.700315
0.509886
0.368841
0.673536
0.700859
0.389848
0.628292
0.388409
0.372905
0.681665
0.679457
0.383565
0.395274
0.363333
0.405616
0.679094
0.705458
0.38741
0.375136
0.695288
0.689844
0.596049
0.705122
0.679733
0.365526
0.709669
0.42855
0.700971
0.389638
0.600303
0.484383
0.682588
0.676913
0.580687
0.341722
0.445965
0.679002
0.607685
0.517137
0.7046
0.397333
0.68607
0.706879
0.363214
0.459861
0.706108
0.365274
0.673842
0.677644
0.324453
0.688531
0.651959
0.38642
0.68963
0.42077
0.660066
0.384588
0.680567
0.648016
0.445014
0.675789
0.703104
0.697602
0.626898
0.681473
0.586001
0.364154
0.419414
0.371423
0.405524
0.669442
0.557364
0.687607
0.70195
0.375873
0.383958
0.685617
0.712049
0.691833
0.705841
0.360437
0.700733
0.707606
0.365677
0.385418
0.693738
0.68
0.664485
0.402512
0.592744
0.318204
0.688852
0.643941
0.674659
0.668392
0.371665
0.679029
0.668936
0.706589
0.678346
0.678579
0.43091
0.698562
0.391235
0.622608
0.709262
0.466233
0.650269
0.674855
0.698937
0.404501
0.404842
0.587246
0.659293
0.373839
0.385289
0.392425
0.376066
0.66385
0.685604
0.674646
0.301663
0.371676
0.685562
0.691231
0.385607
0.380868
0.468906
0.667431
0.678962
0.674374
0.696552
0.38987
0.373412
0.670625
0.414504
0.371398
0.383382
0.677949
0.315347
0.391933
0.581062
0.680156
0.625921
0.676693
0.678669
0.386849
0.38001
0.390804
0.476892
0.440046
0.393046
0.67594
0.696418
0.660272
0.680707
0.414763
0.372753
0.711331
0.370309
0.678305
0.647358
0.673299
0.383583
0.378376
0.653979
0.673407
0.562365
0.384437
0.670994
0.677038
0.576473
0.696493
0.704827
0.670975
0.621824
0.362081
0.678646
0.673722
0.615821
0.689436
0.669561
0.63194
0.671108
0.689024
0.380124
0.373536
0.371917
0.67357
0.508245
0.370612
0.685211
0.696144
0.371358
0.63646
0.324139
0.641231
0.470133
0.375868
0.712193
0.704922
0.371043
0.550746
0.673623
0.413599
0.669967
0.398416
0.408547
0.619764
0.614
0.502778
0.678853
0.392463
0.702358
0.374197
0.395477
0.680209
0.369147
0.607003
0.401314
0.635293
0.601921
0.670997
0.657208
0.390037
0.380402
0.607743
0.430224
0.691542
0.461952
0.594406
0.67762
0.7064
0.444725
0.61636
0.624057
0.708748
0.68517
0.344336
0.368196
0.543275
0.621699
0.709317
0.376109
0.678659
0.56433
0.415329
0.389171
0.679457
0.668536
0.670649
0.672379
0.586295
0.687837
0.675993
0.677125
0.399929
0.666892
0.466452
0.689789
0.679243
0.298466
0.638552
0.702805
0.381182
0.381316
0.38301
0.669609
0.365289
0.619773
0.694938
0.66859
0.361492
0.671102
0.40653
0.592302
0.675413
0.674381
0.674112
0.67535
0.625043
0.681724
0.527603
0.67797
0.385196
0.677769
0.683786
0.410282
0.671521
0.686846
0.422377
0.392964
0.41611
0.694717
0.390308
0.671326
0.38899
0.706197
0.383091
0.484485
0.402475
0.700121
0.704923
0.534425
0.268671
0.624802
0.675709
0.384372
0.595238
0.713906
0.392475
0.591804
0.673048
0.710725
0.678714
0.421446
0.473208
0.693636
0.679596
0.624295
0.38746
0.401252
0.673114
0.670409
0.671723
0.670253
0.550696
0.687133
0.54583
0.686767
0.388401
0.407313
0.670363
0.703547
0.675616
0.398246
0.677963
0.558255
0.601684
0.379162
0.417825
0.70344
0.719239
0.562039
0.33901
0.680261
0.671776
0.366413
0.616645
0.696311
0.365363
0.441959
0.390355
0.600892
0.391892
0.377117
0.675256
0.469759
0.709592
0.642744
0.368231
0.372884
0.710643
0.376542
0.372858
0.673406
0.406954
0.352653
0.595765
0.660626
0.685954
0.374209
0.30454
0.365043
0.648071
0.409201
0.686632
0.374525
0.685933
0.621991
0.676829
0.628025
0.677957
0.641601
0.67908
0.704901
0.68955
0.381941
0.39229
0.669957
0.676083
0.506587
0.614028
0.563458
0.675747
0.613987
0.355665
0.685644
0.71307
0.675496
0.381206
0.680113
0.380926
0.684052
0.498788
0.701178
0.679776
0.375771
0.692128
0.379429
0.431342
0.65158
0.382306
0.692274
0.669658
0.691181
0.386855
0.681774
0.382289
0.383925
0.401728
0.382676
0.604929
0.383853
0.631893
0.675033
0.342265
0.4209
0.491078
0.585202
0.63687
0.625671
0.375158
0.388036
0.362502
0.402293
0.266327
0.635964
0.63574
0.462787
0.675023
0.694317
0.390298
0.712963
0.690603
0.675189
0.39766
0.672143
0.680003
0.698601
0.690027
0.3739
0.687653
0.700172
0.680814
0.680354
0.676518
0.384843
0.409147
0.683126
0.540421
0.380039
0.679752
0.416509
0.573344
0.628532
0.657754
0.66196
0.385713
0.612128
0.40084
0.385422
0.696148
0.697144
0.703276
0.694543
0.660527
0.384252
0.706695
0.38713
0.505433
0.708375
0.672554
0.692997
0.381383
0.39257
0.70858
0.392906
0.695467
0.658831
0.433364
0.385682
0.68482
0.403875
0.679667
0.694991
0.656347
0.403348
0.37261
0.510073
0.520524
0.623962
0.477959
0.677206
0.625459
0.670692
0.669305
0.68718
0.373183
0.389951
0.697587
0.676468
0.6212
0.465658
0.406124
0.677332
0.384671
0.679788
0.621048
0.324134
0.691383
0.362501
0.648247
0.380825
0.703819
0.375465
0.683453
0.676586
0.347688
0.666047
0.658634
0.335294
0.674614
0.678553
0.561485
0.399193
0.36655
0.471489
0.706286
0.602198
0.377081
0.58788
0.689954
0.676965
0.351824
0.610969
0.665929
0.463531
0.677168
0.67902
0.294273
0.688518
0.672894
0.383476
0.600903
0.383982
0.638599
0.389161
0.408274
0.708605
0.378681
0.386142
0.389925
0.682993
0.656569
0.406479
0.68031
0.361809
0.664919
0.38132
0.660822
0.373138
0.67793
0.683549
0.64716
0.674569
0.554736
0.676563
0.675191
0.422011
0.646915
0.653264
0.486584
0.686417
0.496279
0.407249
0.706359
0.37983
0.578418
0.314463
0.679004
0.381392
0.420275
0.705159
0.679084
0.372496
0.688245
0.696732
0.669549
0.705275
0.672362
0.362826
0.71196
0.37061
0.417138
0.665021
0.697537
0.71031
0.668063
0.393366
0.38988
0.362897
0.662091
0.674932
0.364888
0.672733
0.394557
0.388914
0.377335
0.666445
0.389937
0.708559
0.69018
0.645812
0.678509
0.688607
0.576508
0.639196
0.438189
0.412139
0.372001
0.672339
0.672076
0.399297
0.635294
0.597791
0.641469
0.421587
0.401528
0.629526
0.277564
0.622527
0.593729
0.370236
0.675917
0.66575
0.370633
0.685113
0.371424
0.687175
0.71022
0.678381
0.387582
0.474147
0.69054
0.302433
0.445101
0.678175
0.311489
0.67617
0.684927
0.631848
0.697281
0.337237
0.673391
0.695404
0.679391
0.364292
0.697052
0.381571
0.39618
0.670213
0.679326
0.674925
0.23566
0.680319
0.645967
0.672164
0.389855
0.388374
0.386412
0.69229
0.365568
0.379296
0.386414
0.591474
0.373064
0.297306
0.447211
0.686374
0.370688
0.674576
0.675466
0.682913
0.385488
0.686586
0.663174
0.67497
0.420054
0.678023
0.363397
0.380347
0.681418
0.372334
0.630303
0.688994
0.670854
0.371867
0.32954
0.390604
0.563709
0.670338
0.233868
0.675026
0.682654
0.698359
0.38944
0.388281
0.344465
0.600534
0.377862
0.669439
0.61243
0.675777
0.67417
0.359015
0.630281
0.398353
0.561265
0.660927
0.711894
0.570116
0.480229
0.677698
0.625195
0.698667
0.384754
0.378952
0.40063
0.700589
0.538597
0.672579
0.37137
0.403312
0.699277
0.686417
0.674108
0.372018
0.683976
0.561886
0.566232
0.604881
0.430033
0.371001
0.293616
0.679421
0.675026
0.678603
0.61742
0.343871
0.69245
0.671234
0.675073
0.674762
0.691979
0.712879
0.677318
0.695587
0.702824
0.422885
0.688282
0.695746
0.677318
0.690869
0.679035
0.579941
0.367732
0.412546
0.61923
0.382303
0.3397
0.683124
0.374498
0.648634
0.6848
0.657851
0.676295
0.42404
0.685339
0.398538
0.403347
0.677632
0.685917
0.680956
0.384063
0.701491
0.679006
0.615588
0.678674
0.387493
0.677003
0.709037
0.666589
0.41089
0.702135
0.379668
0.718511
0.381199
0.368321
0.524287
0.455601
0.712091
0.701778
0.678565
0.386586
0.676811
0.408751
0.37716
0.649436
0.49307
0.38769
0.678742
0.389284
0.515539
0.676708
0.635678
0.661145
0.493097
0.601938
0.665032
0.678402
0.577025
0.703142
0.539912
0.713775
0.612921
0.656327
0.412754
0.364332
0.455005
0.694621
0.421697
0.674987
0.688862
0.609249
0.678642
0.521962
0.690908
0.678708
0.394557
0.687273
0.607313
0.491821
0.611215
0.708012
0.644577
0.676306
0.389096
0.379456
0.679697
0.541675
0.548098
0.689764
0.683664
0.681044
0.708939
0.710094
0.627403
0.622457
0.711809
0.382996
0.396104
0.384764
0.345376
0.671548
0.467229
0.541829
0.690907
0.684059
0.419387
0.677548
0.716504
0.385357
0.377596
0.671583
0.690259
0.433058
0.382688
0.386041
0.669359
0.629777
0.415277
0.375219
0.369775
0.40662
0.350549
0.38292
0.714535
0.683583
0.68375
0.386865
0.65899
0.611176
0.617685
0.334563
0.362211
0.6472
0.670223
0.390743
0.677607
0.370674
0.704796
0.423336
0.682147
0.379486
0.661171
0.704528
0.387075
0.567782
0.383576
0.712294
0.408778
0.615131
0.414612
0.513657
0.364541
0.605841
0.384081
0.674355
0.674455
0.616037
0.676763
0.330988
0.661088
0.67582
0.702811
0.608696
0.665994
0.363827
0.39467
0.399109
0.707505
0.289993
0.702445
0.554235
0.697326
0.710561
0.4644
0.698201
0.375977
0.400573
0.380846
0.518346
0.52193
0.682935
0.391651
0.386471
0.679621
0.380405
0.401701
0.555895
0.37208
0.391078
0.413535
0.712809
0.667163
0.619907
0.411019
0.657547
0.67989
0.413636
0.323887
0.669287
0.678437
0.564951
0.518988
0.414586
0.363383
0.391297
0.679504
0.614094
0.529678
0.693579
0.394648
0.576065
0.36316
0.673668
0.702132
0.365878
0.395409
0.621124
0.548861
0.704801
0.702671
0.70641
0.68935
0.708718
0.387275
0.389418
0.403091
0.356583
0.542715
0.673251
0.669159
0.357942
0.372664
0.45858
0.442464
0.681059
0.634681
0.385407
0.307485
0.684638
0.419479
0.663459
0.701258
0.651028
0.676744
0.555344
0.370024
0.379684
0.616348
0.366781
0.425111
0.40571
0.676009
0.680237
0.339227
0.370187
0.670047
0.383937
0.68137
0.707462
0.371961
0.383247
0.380629
0.684415
0.383983
0.669621
0.690423
0.609555
0.378177
0.535617
0.697424
0.672218
0.36853
0.669465
0.621669
0.45953
0.693027
0.718374
0.375171
0.376843
0.652747
0.38934
0.356393
0.665254
0.346657
0.681994
0.691497
0.706891
0.630043
0.703326
0.684231
0.676421
0.363374
0.414555
0.632454
0.682817
0.474006
0.712663
0.326294
0.688543
0.662831
0.577998
0.658806
0.395512
0.465777
0.678436
0.699555
0.609393
0.704801
0.682182
0.670959
0.703934
0.669733
0.66801
0.652255
0.687063
0.670406
0.676597
0.351418
0.640594
0.419735
0.684316
0.688327
0.697951
0.640271
0.697036
0.379533
0.39389
0.30723
0.367531
0.648868
0.374001
0.398166
0.6845
0.402251
0.694884
0.391931
0.665284
0.688067
0.37743
0.383084
0.326928
0.692969
0.412627
0.68206
0.691871
0.389596
0.644207
0.564527
0.353098
0.444676
0.404729
0.699076
0.377417
0.686089
0.518214
0.379616
0.678418
0.679036
0.70651
0.370653
0.582553
0.408769
0.661113
0.676474
0.684616
0.392115
0.681804
0.689992
0.624195
0.41239
0.692842
0.370295
0.372237
0.67741
0.462383
0.709879
0.406441
0.392029
0.449837
0.633575
0.431597
0.292283
0.380643
0.486345
0.672454
0.690535
0.390891
0.604742
0.682865
0.564649
0.426423
0.318635
0.566941
0.370997
0.361236
0.677983
0.377622
0.372039
0.696431
0.714452
0.38455
0.702499
0.385785
0.671369
0.462565
0.651181
0.674219
0.698407
0.675691
0.382442
0.365643
0.405434
0.677127
0.65471
0.599124
0.551044
0.372602
0.30415
0.677617
0.364056
0.682567
0.384831
0.674445
0.679179
0.382089
0.406078
0.372953
0.369116
0.413497
0.619406
0.65194
0.38002
0.687615
0.646527
0.364348
0.382045
0.714411
0.385746
0.687059
0.431442
0.697647
0.665157
0.68631
0.67269
0.376533
0.710024
0.682335
0.715957
0.379922
0.609261
0.607142
0.333623
0.694456
0.643124
0.707585
0.658335
0.708879
0.675981
0.709497
0.677562
0.678757
0.376526
0.70585
0.372978
0.466748
0.677836
0.4077
0.666346
0.606903
0.383367
0.625895
0.378227
0.391349
0.669362
0.597362
0.713839
0.391191
0.657864
0.630655
0.439934
0.384083
0.650948
0.679849
0.381476
0.384414
0.694527
0.713732
0.375686
0.651276
0.705909
0.670058
0.385229
0.370546
0.396004
0.666885
0.371958
0.670352
0.700743
0.677787
0.610995
0.687969
0.393244
0.663776
0.626427
0.704313
0.566777
0.415064
0.364899
0.403498
0.705131
0.692885
0.42846
0.662831
0.305203
0.649009
0.686464
0.398555
0.620606
0.671462
0.63151
0.386021
0.369897
0.333628
0.694439
0.709679
0.62782
0.519157
0.687001
0.387861
0.643993
0.671734
0.682196
0.387792
0.637756
0.384517
0.614288
0.40743
0.680491
0.669495
0.410132
0.693624
0.432781
0.670334
0.646615
0.669399
0.693196
0.420005
0.67734
0.679456
0.681003
0.681476
0.487318
0.671639
0.383103
0.679964
0.400136
0.373721
0.395098
0.410764
0.373114
0.385258
0.708844
0.368201
0.378413
0.666188
0.694244
0.6544
0.415268
0.692745
0.692703
0.67643
0.328572
0.581969
0.683875
0.388951
0.382963
0.365783
0.637455
0.512456
0.372213
0.590422
0.416219
0.672639
0.505978
0.375552
0.480606
0.66043
0.330457
0.680288
0.390091
0.474893
0.378474
0.682774
0.388621
0.659056
0.671881
0.589307
0.424177
0.36518
0.675829
0.712817
0.386993
0.383805
0.67746
0.371001
0.701736
0.386977
0.56775
0.40415
0.684021
0.389794
0.711057
0.373611
0.686275
0.68862
0.700268
0.671465
0.385214
0.417413
0.415648
0.634674
0.683558
0.631845
0.524742
0.386666
0.696669
0.321517
0.651951
0.583064
0.406517
0.386295
0.70291
0.679874
0.411721
0.673639
0.681588
0.702303
0.706967
0.390342
0.646801
0.380823
0.702081
0.372899
0.675152
0.645336
0.65765
0.711508
0.368775
0.718273
0.378987
0.395323
0.681046
0.67165
0.557613
0.680311
0.671495
0.388353
0.704109
0.678573
0.707236
0.384832
0.435001
0.688754
0.374778
0.6893
0.688663
0.669223
0.685906
0.287314
0.457155
0.66074
0.411271
0.662663
0.71331
0.481701
0.665734
0.271908
0.618764
0.704311
0.688703
0.666343
0.367678
0.423968
0.683426
0.66742
0.381833
0.332685
0.38848
0.415081
0.379736
0.416051
0.368614
0.380837
0.682968
0.398237
0.38519
0.693313
0.555566
0.670133
0.401809
0.371108
0.683836
0.477235
0.482181
0.707689
0.375408
0.672763
0.674623
0.620415
0.663455
0.411242
0.690886
0.675594
0.387255
0.372011
0.40734
0.60341
0.620259
0.708882
0.678305
0.683196
0.667485
0.378865
0.69137
0.675786
0.650722
0.36795
0.684921
0.576534
0.371793
0.440665
0.375334
0.402511
0.386319
0.60069
0.678073
0.671381
0.363116
0.390749
0.705625
0.356614
0.692492
0.679686
0.669704
0.688939
0.686131
0.389885
0.40629
0.411963
0.57447
0.379123
0.683152
0.395543
0.681555
0.677273
0.687806
0.361729
0.458462
0.418498
0.688194
0.380117
0.366014
0.68294
0.662984
0.62477
0.677826
0.645089
0.701181
0.368779
0.636096
0.703843
0.535174
0.68677
0.69507
0.701789
0.463625
0.429949
0.708895
0.502577
0.618995
0.385587
0.644649
0.669864
0.41041
0.368736
0.659092
0.519742
0.700522
0.692591
0.377744
0.367834
0.672966
0.387266
0.417459
0.671454
0.652074
0.383753
0.674553
0.673071
0.642427
0.36872
0.602044
0.369721
0.674536
0.701681
0.700861
0.668529
0.673311
0.301262
0.361922
0.681942
0.384408
0.617428
0.384278
0.687402
0.395541
0.656515
0.70349
0.673008
0.391906
0.669561
0.672087
0.361768
0.645614
0.391919
0.714241
0.391832
0.380314
0.386643
0.67927
0.677201
0.324104
0.302391
0.628381
0.708118