# vtk DataFile Version 1.0
unstructured grid
ascii
DATASET UNSTRUCTURED_GRID
points 13672 float
0.0796578 -0.059106 0
0.00128732 0.00159165 0
0.00227961 -0.00102548 0
0.0791586 -0.0598787 0
-0.0546216 0.01 0
0.000495206 0.025 0
0.0800549 -0.035 0
0.135172 -0.08 0
-0.0546216 -0.0451168 0
0.000495206 -0.0301168 0
0.0800549 -0.0901168 0
0.135172 -0.135117 0
-0.0546216 -0.0451168 -0.00551168
0.000495206 -0.0301168 -0.00551168
0.0800549 -0.0901168 -0.00551168
0.135172 -0.135117 -0.00551168
0.135172 -0.08 -0.00551168
0.0800549 -0.035 -0.00551168
0.000495206 0.025 -0.00551168
-0.0546216 0.01 -0.00551168
0.00128732 0.00159165 -0.00551168
0.00227961 -0.00102548 -0.00551168
0.0791586 -0.0598787 -0.00551168
0.0796578 -0.059106 -0.00551168
0.00165953 -0.000990923 0
0.00119576 -0.000874076 0
0.000866021 -0.000641801 0
0.000645147 -0.000349912 0
0.00052235 -1.7281e-05 0
0.00049972 0.000348016 0
0.000601632 0.000737716 0
0.000861774 0.0011403 0
0.00157235 0.00183217 0
0.00188647 0.00206725 0
0.00222612 0.00230203 0
0.00258713 0.00254351 0
0.00296826 0.00279524 0
0.00337118 0.00305664 0
0.00379785 0.00332658 0
0.00425045 0.00360349 0
0.00473139 0.00388521 0
0.0052432 0.00416895 0
0.0057881 0.00445204 0
0.00636753 0.00473281 0
0.00698281 0.00500961 0
0.00763526 0.00528058 0
0.00832616 0.00554366 0
0.00905691 0.00579603 0
0.00982918 0.00603333 0
0.0106445 0.00625033 0
0.0115038 0.00644128 0
0.0124073 0.00660297 0
0.0133543 0.00673414 0
0.0143444 0.00683382 0
0.0153769 0.00690031 0
0.0164512 0.00693173 0
0.0175666 0.00692547 0
0.0187219 0.00687822 0
0.0199156 0.00678477 0
0.0211454 0.00663864 0
0.0224084 0.00643275 0
0.0237018 0.00616676 0
0.0250249 0.00584739 0
0.026375 0.00547298 0
0.0277479 0.00503752 0
0.0291386 0.00453545 0
0.0305433 0.0039653 0
0.0319572 0.0033256 0
0.0333681 0.00260019 0
0.034775 0.00179799 0
0.0361793 0.000930615 0
0.0375798 3.12222e-06 0
0.0389689 -0.000988429 0
0.0403357 -0.00205109 0
0.041675 -0.00318283 0
0.0429849 -0.00437751 0
0.0442643 -0.00562904 0
0.0455126 -0.00693089 0
0.0467314 -0.00827518 0
0.0479204 -0.00965638 0
0.0490661 -0.0110799 0
0.0501515 -0.0125519 0
0.0511696 -0.0140695 0
0.0521492 -0.0156071 0
0.0531202 -0.0171411 0
0.0540851 -0.0186663 0
0.0550431 -0.0201798 0
0.0559923 -0.0216793 0
0.0569311 -0.0231626 0
0.0578582 -0.0246273 0
0.0587723 -0.0260715 0
0.0596721 -0.027493 0
0.0605563 -0.02889 0
0.0614241 -0.0302609 0
0.0622742 -0.0316042 0
0.063106 -0.0329183 0
0.0639186 -0.034202 0
0.0647113 -0.0354543 0
0.0654835 -0.0366743 0
0.0662345 -0.0378613 0
0.0669642 -0.0390145 0
0.0676726 -0.0401333 0
0.0683597 -0.0412172 0
0.0690246 -0.0422665 0
0.0696662 -0.0432819 0
0.0702841 -0.0442636 0
0.0708793 -0.0452111 0
0.0714538 -0.0461237 0
0.072009 -0.047001 0
0.0725452 -0.0478434 0
0.0730611 -0.0486524 0
0.073556 -0.0494294 0
0.0740291 -0.0501756 0
0.0744812 -0.0508916 0
0.0749138 -0.0515773 0
0.0753285 -0.0522331 0
0.0757266 -0.0528592 0
0.076109 -0.0534564 0
0.0764753 -0.0540264 0
0.0768243 -0.054571 0
0.0771553 -0.0550919 0
0.0774679 -0.0555901 0
0.0777617 -0.0560669 0
0.0780369 -0.056523 0
0.0782958 -0.0569578 0
0.0785421 -0.0573703 0
0.0787786 -0.0577603 0
0.0790073 -0.0581279 0
0.0792295 -0.058474 0
0.0794462 -0.0587995 0
0.0798803 -0.0594162 0
0.0800272 -0.0596588 0
0.0800357 -0.0598891 0
0.0799275 -0.0600784 0
0.0797205 -0.0601773 0
0.0794593 -0.0601051 0
0.0789155 -0.0596491 0
0.0786707 -0.0593963 0
0.0784111 -0.0591319 0
0.0781372 -0.0588542 0
0.0778566 -0.0585548 0
0.0775715 -0.0582308 0
0.0772803 -0.0578828 0
0.0769832 -0.0575099 0
0.0766822 -0.0571097 0
0.0763801 -0.0566796 0
0.0760759 -0.0562196 0
0.0757623 -0.0557337 0
0.0754359 -0.0552232 0
0.0750951 -0.0546879 0
0.0747379 -0.054128 0
0.0743626 -0.0535435 0
0.0739688 -0.0529338 0
0.0735559 -0.0522981 0
0.0731238 -0.0516357 0
0.0726718 -0.050946 0
0.0721991 -0.0502288 0
0.0717046 -0.049484 0
0.0711872 -0.0487117 0
0.0706461 -0.047912 0
0.0700804 -0.0470849 0
0.0694892 -0.0462308 0
0.0688718 -0.0453499 0
0.0682271 -0.0444431 0
0.0675544 -0.043511 0
0.0668527 -0.0425546 0
0.0661215 -0.0415748 0
0.06536 -0.040573 0
0.0645676 -0.0395504 0
0.0637439 -0.0385087 0
0.0628887 -0.0374493 0
0.062002 -0.0363741 0
0.0610838 -0.0352847 0
0.0601345 -0.0341831 0
0.0591547 -0.033071 0
0.0581456 -0.0319502 0
0.0571083 -0.0308224 0
0.0560444 -0.0296893 0
0.0549562 -0.028552 0
0.053845 -0.0274126 0
0.0527113 -0.0262746 0
0.051554 -0.0251427 0
0.0503724 -0.0240222 0
0.0491675 -0.0229164 0
0.047941 -0.0218282 0
0.0466955 -0.0207597 0
0.0454337 -0.0197126 0
0.0441592 -0.0186878 0
0.0428751 -0.0176863 0
0.0415841 -0.0167097 0
0.0402878 -0.0157609 0
0.0389879 -0.0148428 0
0.0376864 -0.0139575 0
0.0363853 -0.013107 0
0.0350871 -0.0122931 0
0.0337942 -0.0115164 0
0.0325095 -0.0107772 0
0.0312357 -0.0100756 0
0.0299758 -0.00941024 0
0.0287337 -0.00877784 0
0.0275126 -0.00817571 0
0.0263139 -0.00760375 0
0.0251376 -0.00706528 0
0.0239829 -0.0065649 0
0.0228537 -0.00609619 0
0.0217522 -0.00565563 0
0.0206795 -0.00524226 0
0.0196364 -0.00485507 0
0.0186233 -0.00449318 0
0.0176408 -0.00415577 0
0.016689 -0.00384204 0
0.0157682 -0.00355115 0
0.0148783 -0.00328218 0
0.0140192 -0.00303468 0
0.0131906 -0.00280795 0
0.0123925 -0.00260016 0
0.0116246 -0.00241012 0
0.0108864 -0.00223769 0
0.0101774 -0.00208212 0
0.00949701 -0.00194206 0
0.00884483 -0.0018163 0
0.0082202 -0.0017039 0
0.00762247 -0.00160391 0
0.00705097 -0.00151528 0
0.006505 -0.00143697 0
0.0059838 -0.00136806 0
0.00548662 -0.00130772 0
0.00501265 -0.00125519 0
0.00456114 -0.00120954 0
0.00413136 -0.00116914 0
0.00372257 -0.00113251 0
0.00333398 -0.00109853 0
0.00296466 -0.00106798 0
0.00261363 -0.0010431 0
-0.052721 -0.0445996 0
-0.0508204 -0.0440823 0
-0.0489199 -0.0435651 0
-0.0470193 -0.0430478 0
-0.0451187 -0.0425306 0
-0.0432181 -0.0420134 0
-0.0413175 -0.0414961 0
-0.039417 -0.0409789 0
-0.0375164 -0.0404616 0
-0.0356158 -0.0399444 0
-0.0337152 -0.0394271 0
-0.0318146 -0.0389099 0
-0.0299141 -0.0383927 0
-0.0280135 -0.0378754 0
-0.0261129 -0.0373582 0
-0.0242123 -0.0368409 0
-0.0223117 -0.0363237 0
-0.0204112 -0.0358065 0
-0.0185106 -0.0352892 0
-0.01661 -0.034772 0
-0.0147094 -0.0342547 0
-0.0128088 -0.0337375 0
-0.0109083 -0.0332202 0
-0.00900769 -0.032703 0
-0.00710711 -0.0321858 0
-0.00520653 -0.0316685 0
-0.00330595 -0.0311513 0
-0.00140537 -0.030634 0
0.00190689 -0.0299614 0
0.00332271 -0.0298498 0
0.00474133 -0.0297825 0
0.00616136 -0.0297597 0
0.0075814 -0.0297814 0
0.00900007 -0.0298477 0
0.010416 -0.0299583 0
0.0118278 -0.0301127 0
0.0132342 -0.0303103 0
0.0146339 -0.0305504 0
0.0160259 -0.0308322 0
0.0174091 -0.0311546 0
0.0187824 -0.0315166 0
0.020145 -0.031917 0
0.0214961 -0.0323546 0
0.0228351 -0.032828 0
0.0241613 -0.0333361 0
0.0254744 -0.0338774 0
0.0267738 -0.0344507 0
0.0280592 -0.0350545 0
0.0293306 -0.0356877 0
0.0305875 -0.0363488 0
0.0318301 -0.0370367 0
0.0330581 -0.0377501 0
0.0342717 -0.0384879 0
0.0354708 -0.0392489 0
0.0366556 -0.0400321 0
0.0378262 -0.0408363 0
0.0389828 -0.0416607 0
0.0401254 -0.0425042 0
0.0412543 -0.0433659 0
0.0423698 -0.0442451 0
0.043472 -0.0451408 0
0.0445612 -0.0460523 0
0.0456375 -0.0469789 0
0.0467013 -0.0479199 0
0.0477529 -0.0488746 0
0.0487923 -0.0498424 0
0.04982 -0.0508227 0
0.0508362 -0.051815 0
0.051841 -0.0528187 0
0.0528348 -0.0538333 0
0.0538178 -0.0548584 0
0.0547903 -0.0558935 0
0.0557524 -0.0569382 0
0.0567045 -0.0579922 0
0.0576467 -0.0590549 0
0.0585792 -0.0601261 0
0.0595024 -0.0612055 0
0.0604163 -0.0622926 0
0.0613212 -0.0633873 0
0.0622174 -0.0644891 0
0.0631049 -0.0655979 0
0.0639841 -0.0667134 0
0.064855 -0.0678353 0
0.0657179 -0.0689633 0
0.0665729 -0.0700974 0
0.0674202 -0.0712372 0
0.06826 -0.0723826 0
0.0690925 -0.0735333 0
0.0699178 -0.0746892 0
0.070736 -0.0758501 0
0.0715473 -0.0770159 0
0.0723518 -0.0781863 0
0.0731498 -0.0793612 0
0.0739412 -0.0805405 0
0.0747264 -0.081724 0
0.0755053 -0.0829116 0
0.0762781 -0.0841033 0
0.0770449 -0.0852987 0
0.0778059 -0.0864979 0
0.0785611 -0.0877007 0
0.0793108 -0.088907 0
0.0814681 -0.0912706 0
0.0828814 -0.0924245 0
0.0842946 -0.0935783 0
0.0857079 -0.0947322 0
0.0871211 -0.095886 0
0.0885344 -0.0970399 0
0.0899476 -0.0981937 0
0.0913609 -0.0993476 0
0.0927741 -0.100501 0
0.0941874 -0.101655 0
0.0956006 -0.102809 0
0.0970139 -0.103963 0
0.0984272 -0.105117 0
0.0998404 -0.106271 0
0.101254 -0.107424 0
0.102667 -0.108578 0
0.10408 -0.109732 0
0.105493 -0.110886 0
0.106907 -0.11204 0
0.10832 -0.113194 0
0.109733 -0.114348 0
0.111146 -0.115501 0
0.11256 -0.116655 0
0.113973 -0.117809 0
0.115386 -0.118963 0
0.116799 -0.120117 0
0.118213 -0.121271 0
0.119626 -0.122424 0
0.121039 -0.123578 0
0.122452 -0.124732 0
0.123866 -0.125886 0
0.125279 -0.12704 0
0.126692 -0.128194 0
0.128105 -0.129348 0
0.129519 -0.130501 0
0.130932 -0.131655 0
0.132345 -0.132809 0
0.133758 -0.133963 0
0.135172 -0.133216 0
0.135172 -0.131316 0
0.135172 -0.129415 0
0.135172 -0.127514 0
0.135172 -0.125614 0
0.135172 -0.123713 0
0.135172 -0.121813 0
0.135172 -0.119912 0
0.135172 -0.118012 0
0.135172 -0.116111 0
0.135172 -0.11421 0
0.135172 -0.11231 0
0.135172 -0.110409 0
0.135172 -0.108509 0
0.135172 -0.106608 0
0.135172 -0.104708 0
0.135172 -0.102807 0
0.135172 -0.100906 0
0.135172 -0.0990058 0
0.135172 -0.0971052 0
0.135172 -0.0952046 0
0.135172 -0.0933041 0
0.135172 -0.0914035 0
0.135172 -0.0895029 0
0.135172 -0.0876023 0
0.135172 -0.0857017 0
0.135172 -0.0838012 0
0.135172 -0.0819006 0
0.133758 -0.0788462 0
0.132345 -0.0776923 0
0.130932 -0.0765385 0
0.129519 -0.0753846 0
0.128105 -0.0742308 0
0.126692 -0.0730769 0
0.125279 -0.0719231 0
0.123866 -0.0707692 0
0.122452 -0.0696154 0
0.121039 -0.0684615 0
0.119626 -0.0673077 0
0.118213 -0.0661538 0
0.116799 -0.065 0
0.115386 -0.0638462 0
0.113973 -0.0626923 0
0.11256 -0.0615385 0
0.111146 -0.0603846 0
0.109733 -0.0592308 0
0.10832 -0.0580769 0
0.106907 -0.0569231 0
0.105493 -0.0557692 0
0.10408 -0.0546154 0
0.102667 -0.0534615 0
0.101254 -0.0523077 0
0.0998404 -0.0511538 0
0.0984272 -0.05 0
0.0970139 -0.0488462 0
0.0956006 -0.0476923 0
[...]
CELL_DATA 13116
SCALARS rho float
LOOKUP_TABLE default
0.550016
0.657355
0.35379
0.712202
0.700214
0.679036
0.387025
0.700409
0.528461
0.705496
0.381241
0.371885
0.700506
0.406846
0.380705
0.679153
0.518186
0.696421
0.677271
0.396287
0.555176
0.392424
0.398256
0.698281
0.609602
0.619271
0.705543
0.352528
0.60854
0.646125
0.677376
0.378594
0.556552
0.448175
0.383321
0.552663
0.664377
0.671153
0.678562
0.67952
0.678535
0.70459
0.427163
0.345612
0.675685
0.677116
0.632229
0.681254
0.386792
0.524299
0.696626
0.443386
0.389401
0.511287
0.555187
0.585907
0.343649
0.694774
0.537578
0.382036
0.409443
0.707098
0.646913
0.678482
0.677596
0.414403
0.68239
0.671668
0.683909
0.677721
0.38245
0.587605
0.388876
0.350649
0.676908
0.364796
0.641699
0.693983
0.381876
0.693528
0.677687
0.629096
0.698344
0.681192
0.665061
0.450659
0.395345
0.669206
0.657617
0.381065
0.36946
0.659176
0.700803
0.662208
0.648933
0.598873
0.612137
0.677413
0.677036
0.599243
0.679202
0.584999
0.678023
0.407991
0.612398
0.408055
0.359579
0.474861
0.353867
0.618822
0.503949
0.624457
0.597005
0.681562
0.694115
0.682594
0.403548
0.388812
0.689843
0.684067
0.672141
0.386979
0.684387
0.379495
0.654311
0.439437
0.396059
0.511038
0.339108
0.525918
0.690142
0.682595
0.504325
0.393171
0.484125
0.584461
0.676247
0.687312
0.678294
0.683719
0.625042
0.635797
0.509408
0.625769
0.64273
0.3958
0.382262
0.619348
0.697807
0.691329
0.54559
0.6805
0.681123
0.375777
0.701894
0.666458
0.393172
0.684855
0.677449
0.669585
0.697434
0.382864
0.696573
0.387846
0.383209
0.704554
0.65172
0.69596
0.384384
0.466321
0.422578
0.676193
0.386213
0.493957
0.681501
0.398493
0.38623
0.390221
0.620203
0.6786
0.384304
0.432809
0.524643
0.664907
0.678692
0.535264
0.362555
0.678164
0.597805
0.46215
0.635711
0.617165
0.677777
0.396075
0.613299
0.679083
0.702311
0.677745
0.656286
0.406396
0.407871
0.624001
0.505615
0.389849
0.692103
0.675973
0.45239
0.609156
0.39922
0.382066
0.361947
0.6808
0.39046
0.394412
0.37781
0.374242
0.367765
0.677862
0.650491
0.437374
0.343761
0.682136
0.497783
0.385442
0.557941
0.706173
0.6403
0.369792
0.681688
0.392231
0.706391
0.373667
0.677759
0.577477
0.677295
0.671324
0.67787
0.376523
0.432239
0.66958
0.676947
0.678936
0.676374
0.677645
0.692007
0.388929
0.691486
0.702713
0.677017
0.381269
0.389223
0.677613
0.689029
0.677631
0.685001
0.536046
0.684921
0.380329
0.399866
0.39974
0.400007
0.594134
0.702101
0.64029
0.3866
0.673601
0.358265
0.434378
0.614785
0.384157
0.622934
0.700909
0.676735
0.694428
0.378645
0.676691
0.683049
0.677023
0.687159
0.37852
0.399809
0.393133
0.579614
0.386396
0.39414
0.33327
0.305925
0.664942
0.389415
0.664371
0.700743
0.36887
0.393911
0.364114
0.454427
0.350053
0.667765
0.584987
0.619071
0.384505
0.680483
0.590639
0.402703
0.381168
0.678429
0.688918
0.677827
0.359549
0.679196
0.416035
0.681775
0.705008
0.689604
0.703854
0.396523
0.681705
0.397606
0.678875
0.706447
0.67062
0.386784
0.332902
0.70329
0.404757
0.646908
0.706967
0.365687
0.68783
0.698052
0.399501
0.673382
0.700735
0.392168
0.691717
0.452454
0.578373
0.672563
0.459262
0.685131
0.388735
0.696135
0.344868
0.677744
0.574491
0.70342
0.370242
0.35831
0.666532
0.379892
0.69095
0.604178
0.422727
0.676277
0.371231
0.383751
0.687857
0.558211
0.66994
0.400127
0.390565
0.69123
0.700553
0.382023
0.698658
0.411776
0.406055
0.681984
0.679486
0.462184
0.399779
0.687488
0.677609
0.679251
0.671855
0.693728
0.545772
0.326442
0.396674
0.381295
0.679196
0.382035
0.522558
0.371038
0.384345
0.352284
0.471725
0.143902
0.380519
0.667761
0.326723
0.697328
0.608096
0.678907
0.661013
0.692457
0.383902
0.397503
0.413225
0.335272
0.687938
0.592825
0.678439
0.608718
0.644548
0.620263
0.627328
0.621705
0.643277
0.692192
0.69302
0.678743
0.406446
0.460599
0.545922
0.390534
0.581014
0.584222
0.390782
0.68227
0.676848
0.396108
0.391765
0.382833
0.369821
0.633915
0.384363
0.396087
0.681257
0.365506
0.577033
0.381058
0.678552
0.676793
0.34157
0.39373
0.687353
0.455982
0.379692
0.36774
0.395173
0.357481
0.402083
0.392922
0.39292
0.43414
0.378456
0.581214
0.368171
0.663471
0.379925
0.410558
0.507178
0.397387
0.379529
0.392702
0.676555
0.440187
0.643487
0.477724
0.385904
0.611668
0.660272
0.449896
0.68741
0.621331
0.61985
0.399852
0.677325
0.390514
0.694934
0.677295
0.375626
0.394411
0.596486
0.340099
0.461023
0.577361
0.358578
0.683895
0.645466
0.384874
0.38213
0.386507
0.489505
0.379747
0.391592
0.385045
0.398136
0.707931
0.709163
0.461037
0.602413
0.483277
0.613809
0.354706
0.385027
0.532919
0.375256
0.681314
0.294734
0.372715
0.500043
0.674978
0.646726
0.564619
0.363825
0.39413
0.574169
0.700966
0.678037
0.570304
0.618182
0.593099
0.379747
0.675747
0.572957
0.668446
0.31285
0.353685
0.680574
0.702572
0.659949
0.706468
0.651488
0.617761
0.696275
0.669012
0.67879
0.390589
0.674658
0.340719
0.398301
0.39254
0.71126
0.676461
0.311024
0.663951
0.625484
0.387163
0.677831
0.688129
0.688643
0.35196
0.384351
0.692252
0.378993
0.380859
0.38274
0.381563
0.678942
0.392445
0.711301
0.371534
0.658199
0.695244
0.682659
0.7009
0.378604
0.386376
0.6786
0.708018
0.653967
0.707611
0.702438
0.502161
0.397238
0.374035
0.679742
0.530465
0.383704
0.45573
0.380878
0.674006
0.678824
0.31228
0.392419
0.661362
0.469814
0.668727
0.662974
0.338229
0.393066
0.649673
0.676922
0.380412
0.645909
0.651079
0.677732
0.374736
0.676294
0.340974
0.677219
0.667209
0.399632
0.367677
0.393959
0.67713
0.342312
0.382904
0.389319
0.677945
0.686037
0.382763
0.393265
0.380991
0.678105
0.388872
0.678927
0.396021
0.591479
0.706207
0.383122
0.387779
0.394521
0.502619
0.374342
0.633548
0.357021
0.385533
0.678337
0.38986
0.680501
0.643006
0.677305
0.380732
0.682028
0.699568
0.701949
0.679985
0.651866
0.681765
0.38669
0.677971
0.439641
0.675185
0.379202
0.693219
0.507599
0.385957
0.677333
0.695842
0.384034
0.624966
0.36962
0.381209
0.68117
0.676196
0.365887
0.392207
0.382831
0.389832
0.669
0.698436
0.377705
0.379094
0.690982
0.686851
0.593367
0.698988
0.678843
0.3825
0.703572
0.428885
0.696476
0.390721
0.596828
0.486429
0.681455
0.671173
0.581688
0.345453
0.363878
0.677477
0.609164
0.517238
0.698468
0.399826
0.680882
0.701476
0.367727
0.458018
0.700053
0.363595
0.677416
0.670577
0.328418
0.684998
0.647172
0.370433
0.684867
0.392924
0.655384
0.360119
0.680603
0.644883
0.375542
0.678485
0.69708
0.693397
0.62666
0.677024
0.588429
0.37205
0.418446
0.365085
0.371276
0.675973
0.561055
0.685214
0.697104
0.384661
0.384231
0.68113
0.707074
0.687958
0.700746
0.385302
0.693202
0.702563
0.394542
0.379013
0.690156
0.677448
0.660264
0.39803
0.596619
0.322939
0.68402
0.640336
0.678083
0.66497
0.381873
0.675308
0.664369
0.699835
0.674782
0.678843
0.435618
0.693289
0.382923
0.620067
0.704092
0.465908
0.647118
0.678157
0.694577
0.405061
0.406482
0.589594
0.653306
0.380362
0.397404
0.381878
0.377426
0.660344
0.680416
0.677577
0.306872
0.37933
0.683681
0.683474
0.393171
0.38246
0.467654
0.662792
0.677824
0.671071
0.690289
0.381881
0.381166
0.676395
0.378314
0.392327
0.358294
0.678102
0.323163
0.381056
0.57823
0.676956
0.620615
0.678813
0.678178
0.409638
0.386983
0.383328
0.477438
0.439689
0.372657
0.670095
0.6899
0.656469
0.680149
0.404819
0.381272
0.70617
0.387662
0.678735
0.644238
0.677557
0.365976
0.394325
0.649293
0.677232
0.561358
0.392044
0.667508
0.67895
0.573871
0.691616
0.699224
0.676519
0.61875
0.38708
0.678278
0.677325
0.613458
0.684455
0.676059
0.626365
0.676724
0.686372
0.386071
0.376049
0.382342
0.677655
0.506324
0.385656
0.680841
0.69171
0.365718
0.63269
0.327227
0.637523
0.470193
0.38291
0.70745
0.69783
0.382732
0.556745
0.677634
0.341959
0.662781
0.419466
0.407384
0.616102
0.609955
0.50707
0.677927
0.381359
0.696391
0.382736
0.391062
0.680401
0.382966
0.603567
0.384028
0.631736
0.598387
0.676669
0.649584
0.393201
0.384616
0.605496
0.429408
0.687654
0.458588
0.591526
0.678764
0.699595
0.443387
0.616023
0.618232
0.70263
0.683249
0.348421
0.37894
0.546352
0.615188
0.703141
0.380333
0.677878
0.56333
0.413036
0.372281
0.672197
0.663768
0.676517
0.677034
0.583617
0.682164
0.678301
0.671812
0.38533
0.660404
0.464976
0.685894
0.676694
0.301697
0.613085
0.698377
0.380309
0.382437
0.394616
0.676083
0.382757
0.615952
0.689826
0.661987
0.358403
0.667877
0.406985
0.595993
0.678335
0.677522
0.668373
0.678058
0.620428
0.676349
0.525815
0.674574
0.358006
0.678338
0.682478
0.410267
0.676874
0.681788
0.389925
0.395666
0.339263
0.690216
0.384262
0.676612
0.381795
0.699302
0.394623
0.487035
0.394394
0.694364
0.700162
0.533827
0.271398
0.620301
0.677922
0.393179
0.592325
0.709639
0.372946
0.588581
0.677134
0.705785
0.679013
0.376528
0.472123
0.689588
0.678009
0.621749
0.386177
0.402829
0.669951
0.676386
0.676894
0.676362
0.549377
0.683082
0.544721
0.683165
0.385477
0.400307
0.676413
0.698927
0.678012
0.404588
0.678326
0.557014
0.599109
0.366605
0.420374
0.699151
0.712346
0.559352
0.335326
0.679483
0.676974
0.385223
0.612392
0.690044
0.384474
0.419117
0.394972
0.59528
0.391837
0.388361
0.67223
0.466774
0.703479
0.638763
0.386068
0.400804
0.706031
0.376189
0.385066
0.677242
0.402976
0.355885
0.59235
0.64583
0.682366
0.377885
0.304424
0.380347
0.644658
0.407209
0.683081
0.38471
0.681661
0.604163
0.674374
0.62458
0.674141
0.638014
0.678011
0.700421
0.686032
0.391685
0.384907
0.666239
0.678421
0.513379
0.609175
0.560664
0.678296
0.61163
0.342462
0.683161
0.708646
0.672274
0.382439
0.676314
0.366018
0.681255
0.505533
0.69389
0.680033
0.383352
0.687979
0.382262
0.428661
0.648386
0.356269
0.68446
0.676144
0.682807
0.367092
0.681177
0.375336
0.365883
0.383617
0.380995
0.602806
0.388266
0.628932
0.678189
0.338696
0.396363
0.49545
0.585983
0.632374
0.623008
0.382028
0.421107
0.382065
0.394482
0.268421
0.631689
0.629569
0.349325
0.677675
0.689244
0.395243
0.708589
0.682779
0.678259
0.383771
0.676881
0.675601
0.693516
0.685557
0.378703
0.683944
0.695236
0.677022
0.673114
0.678034
0.393539
0.388517
0.680717
0.544554
0.397015
0.680167
0.396429
0.577707
0.624941
0.653105
0.657428
0.369264
0.607442
0.401673
0.383625
0.688625
0.69291
0.698033
0.690965
0.65592
0.366143
0.702063
0.38949
0.512239
0.703895
0.677051
0.689007
0.382076
0.395175
0.70348
0.396043
0.691544
0.653223
0.431971
0.390758
0.681914
0.386513
0.679918
0.691056
0.652219
0.386135
0.376925
0.50752
0.519051
0.620165
0.47482
0.678248
0.622749
0.666495
0.675927
0.68277
0.389656
0.393769
0.693603
0.678034
0.618759
0.466161
0.388365
0.672679
0.388948
0.67873
0.620943
0.322049
0.68735
0.379076
0.634659
0.356925
0.698856
0.378402
0.680366
0.678515
0.343455
0.657669
0.652704
0.330538
0.677598
0.676982
0.558746
0.396996
0.370464
0.468037
0.700112
0.599735
0.377907
0.592062
0.685428
0.678375
0.348679
0.608215
0.662546
0.469399
0.67824
0.678999
0.297156
0.685316
0.677089
0.353582
0.597852
0.37654
0.635165
0.376502
0.406959
0.702152
0.393695
0.380389
0.393599
0.68186
0.653226
0.410974
0.679389
0.36702
0.6609
0.375264
0.657477
0.372047
0.678881
0.68118
0.643561
0.677822
0.560611
0.678551
0.678233
0.340078
0.641723
0.649185
0.487561
0.682045
0.501414
0.410508
0.701698
0.389736
0.575748
0.319089
0.67829
0.391822
0.396049
0.697948
0.678302
0.386607
0.684711
0.690045
0.676042
0.700124
0.677111
0.386968
0.707812
0.395092
0.390165
0.658328
0.691337
0.703486
0.663835
0.380506
0.374946
0.380873
0.658715
0.678123
0.369532
0.658907
0.422931
0.373201
0.365669
0.661245
0.390741
0.703896
0.686569
0.640632
0.67509
0.685143
0.574164
0.636049
0.441301
0.403832
0.38645
0.677094
0.676944
0.408967
0.631053
0.592406
0.638155
0.377398
0.401682
0.626764
0.281754
0.61994
0.591946
0.395021
0.67814
0.662205
0.385948
0.681566
0.384217
0.684867
0.704371
0.674587
0.39098
0.478731
0.682918
0.306105
0.451462
0.675321
0.314934
0.678216
0.683146
0.622824
0.690469
0.332619
0.677358
0.687955
0.67783
0.367972
0.693271
0.388272
0.398422
0.666854
0.678125
0.677867
0.239265
0.680397
0.641431
0.676912
0.422447
0.405972
0.379095
0.688846
0.385127
0.38756
0.370199
0.589653
0.384045
0.30123
0.450067
0.682908
0.39145
0.677754
0.678194
0.679218
0.365045
0.683826
0.6572
0.677654
0.422205
0.67084
0.38208
0.391809
0.680971
0.394517
0.626641
0.684298
0.676605
0.391707
0.333251
0.384106
0.568793
0.676399
0.237403
0.672075
0.681685
0.691627
0.375785
0.390865
0.348528
0.597749
0.382074
0.676046
0.613148
0.678305
0.671164
0.378454
0.626826
0.385215
0.559612
0.655114
0.706838
0.568733
0.482179
0.670423
0.622628
0.694623
0.383916
0.373997
0.346671
0.693317
0.536237
0.67708
0.393119
0.402662
0.693737
0.683589
0.677449
0.393911
0.680013
0.567012
0.570066
0.60236
0.370657
0.395091
0.296704
0.678129
0.678214
0.671566
0.611804
0.347362
0.683423
0.664356
0.678218
0.677601
0.684125
0.708403
0.679113
0.689787
0.697476
0.373824
0.685585
0.692031
0.678108
0.687685
0.677679
0.578298
0.390817
0.40925
0.616843
0.395937
0.335577
0.678907
0.384192
0.644604
0.683132
0.654528
0.67312
0.386215
0.680864
0.379962
0.412114
0.679236
0.682011
0.680348
0.356778
0.697311
0.678101
0.613296
0.677945
0.390991
0.678075
0.703939
0.662894
0.407984
0.695343
0.378664
0.713278
0.361133
0.390847
0.524227
0.454651
0.707311
0.695628
0.679012
0.371943
0.678057
0.41333
0.385327
0.643457
0.499443
0.383415
0.678413
0.38595
0.52242
0.670435
0.632747
0.657051
0.498167
0.604747
0.65924
0.679259
0.575615
0.69799
0.543072
0.696245
0.607092
0.650877
0.404856
0.382945
0.453943
0.691053
0.389102
0.668229
0.68506
0.605648
0.679384
0.522128
0.683412
0.673345
0.38232
0.683816
0.60281
0.492902
0.606883
0.70316
0.635521
0.678158
0.376645
0.385894
0.676228
0.539421
0.546962
0.686853
0.680794
0.680025
0.702595
0.704011
0.623298
0.619768
0.706751
0.388918
0.390716
0.393189
0.347824
0.676851
0.463949
0.540851
0.686925
0.67843
0.382004
0.674326
0.712642
0.356521
0.378855
0.676685
0.687349
0.374415
0.378667
0.385154
0.675972
0.618762
0.412146
0.390939
0.395417
0.404036
0.349321
0.399359
0.702649
0.681316
0.679223
0.382354
0.655659
0.608102
0.618637
0.341155
0.390523
0.64098
0.676375
0.381243
0.678553
0.387052
0.697624
0.374994
0.678321
0.374586
0.657416
0.700136
0.370475
0.571856
0.39202
0.708149
0.404297
0.611986
0.398227
0.51097
0.382073
0.60307
0.393582
0.677733
0.677663
0.616373
0.672964
0.336395
0.657723
0.677891
0.698569
0.605671
0.661952
0.392316
0.397975
0.375508
0.700828
0.294138
0.698001
0.553924
0.69108
0.705695
0.464331
0.693078
0.384719
0.41852
0.387332
0.515602
0.522051
0.679996
0.384799
0.39405
0.680103
0.385108
0.38576
0.555042
0.37394
0.380815
0.410231
0.705709
0.661059
0.616512
0.389576
0.654203
0.678362
0.406322
0.328215
0.664897
0.678313
0.563132
0.525677
0.41927
0.367129
0.376308
0.670358
0.611817
0.527632
0.686315
0.395619
0.573493
0.37964
0.677425
0.697829
0.394229
0.398718
0.618706
0.548366
0.700368
0.697417
0.700501
0.685088
0.704192
0.369304
0.390793
0.344497
0.377942
0.542098
0.677474
0.662821
0.380531
0.383672
0.455139
0.416441
0.679933
0.631781
0.375166
0.313265
0.683053
0.370734
0.657801
0.695653
0.647559
0.678089
0.554276
0.382234
0.369471
0.613707
0.394976
0.423324
0.408592
0.678076
0.677707
0.336294
0.394204
0.67618
0.392651
0.680042
0.700829
0.387534
0.381855
0.393509
0.682763
0.403427
0.676123
0.685264
0.606093
0.373737
0.539817
0.693395
0.669024
0.387173
0.666116
0.619169
0.421386
0.689432
0.704887
0.38091
0.391902
0.647976
0.387224
0.379505
0.66186
0.351119
0.679693
0.68389
0.700036
0.627116
0.698678
0.682731
0.678639
0.382687
0.418065
0.62973
0.679202
0.478461
0.708209
0.331842
0.685979
0.658741
0.57489
0.653166
0.398542
0.463481
0.675254
0.695103
0.60385
0.700387
0.68141
0.676481
0.698457
0.676072
0.655586
0.646212
0.679452
0.676448
0.678683
0.3467
0.632791
0.340052
0.681458
0.685686
0.692155
0.636773
0.690018
0.378934
0.381377
0.310778
0.38657
0.645493
0.38708
0.383953
0.679106
0.397788
0.689102
0.377622
0.661891
0.684398
0.392081
0.387843
0.323805
0.689602
0.341504
0.679143
0.687683
0.383783
0.638008
0.564551
0.348143
0.353097
0.399834
0.691196
0.392279
0.682577
0.518277
0.387667
0.676954
0.678615
0.700474
0.386642
0.57975
0.395252
0.657733
0.678493
0.682512
0.380392
0.678177
0.687132
0.619372
0.411621
0.6895
0.383953
0.379532
0.672983
0.458988
0.704416
0.412065
0.380393
0.452006
0.629273
0.343373
0.288618
0.361977
0.484953
0.676939
0.686631
0.397805
0.601878
0.681703
0.570126
0.424623
0.317044
0.566982
0.379691
0.378711
0.675446
0.379011
0.382624
0.691929
0.709962
0.35468
0.695096
0.371464
0.676613
0.349086
0.644662
0.677842
0.691328
0.678139
0.387072
0.378858
0.388229
0.678749
0.649593
0.602195
0.548433
0.377259
0.308172
0.678454
0.382229
0.68027
0.388679
0.677984
0.673128
0.364855
0.343928
0.381397
0.394459
0.341825
0.617068
0.648636
0.375785
0.684794
0.641658
0.372347
0.387437
0.710332
0.381851
0.683624
0.435035
0.690841
0.65922
0.683646
0.677034
0.385486
0.704068
0.679329
0.708727
0.393736
0.606857
0.608483
0.330101
0.690899
0.639716
0.69
0.654963
0.70433
0.671097
0.703781
0.678153
0.677298
0.386048
0.699503
0.381623
0.463851
0.675017
0.390628
0.6628
0.60379
0.392962
0.621433
0.39329
0.369679
0.663315
0.594674
0.709321
0.377364
0.654483
0.625821
0.340671
0.382927
0.64101
0.678486
0.383115
0.370306
0.689265
0.709474
0.387511
0.646231
0.701516
0.663928
0.353822
0.385023
0.382609
0.660832
0.3757
0.667037
0.69332
0.678536
0.608126
0.684469
0.377403
0.659169
0.625821
0.699925
0.565391
0.392439
0.384393
0.403543
0.698143
0.688772
0.432388
0.657049
0.304162
0.645334
0.683829
0.4003
0.618118
0.668194
0.627181
0.380159
0.396265
0.33696
0.690564
0.70429
0.623261
0.525161
0.683933
0.380818
0.638859
0.676791
0.678506
0.377211
0.636086
0.393366
0.610806
0.406077
0.677365
0.662992
0.388966
0.689943
0.431856
0.676417
0.642297
0.676014
0.688876
0.418952
0.678417
0.679058
0.6787
0.678391
0.493674
0.676744
0.393616
0.679366
0.4008
0.381098
0.394713
0.341696
0.380097
0.378119
0.704362
0.37187
0.386586
0.660905
0.690506
0.651035
0.415063
0.68617
0.685498
0.678012
0.325133
0.580489
0.682332
0.38594
0.366085
0.379328
0.632778
0.51928
0.388142
0.588551
0.406089
0.677183
0.512128
0.395543
0.48256
0.654658
0.332778
0.678947
0.392719
0.476297
0.380423
0.674644
0.38957
0.654519
0.676819
0.584833
0.422044
0.384669
0.665011
0.708454
0.371103
0.365798
0.678675
0.39363
0.694919
0.383572
0.568989
0.404237
0.682581
0.390227
0.70657
0.381197
0.6835
0.685284
0.695859
0.67686
0.395546
0.393639
0.413352
0.623108
0.67819
0.627534
0.524769
0.39411
0.691577
0.320048
0.646931
0.580443
0.411121
0.393058
0.697117
0.676903
0.398276
0.67754
0.669811
0.696902
0.700073
0.392512
0.641495
0.382008
0.696914
0.374638
0.677919
0.639663
0.641214
0.706895
0.376851
0.712935
0.394198
0.383928
0.679877
0.676929
0.554979
0.676954
0.676798
0.381667
0.696881
0.670634
0.701356
0.368255
0.433342
0.68218
0.388275
0.686563
0.684398
0.665817
0.678616
0.29154
0.453662
0.654586
0.395856
0.658312
0.709179
0.479189
0.659278
0.275066
0.616128
0.697102
0.681046
0.658414
0.39264
0.396384
0.680404
0.664023
0.392092
0.335913
0.389062
0.388137
0.387451
0.407385
0.342991
0.397592
0.679809
0.399027
0.35474
0.688108
0.553004
0.676205
0.40191
0.393689
0.682379
0.473941
0.48235
0.702303
0.376264
0.665823
0.678036
0.618405
0.660072
0.340877
0.687005
0.678419
0.383929
0.378823
0.411027
0.60034
0.617593
0.704252
0.679322
0.679483
0.664065
0.373748
0.687753
0.678479
0.63783
0.38805
0.683221
0.574583
0.366505
0.439297
0.389279
0.392777
0.39308
0.597096
0.671725
0.667647
0.378196
0.395555
0.701225
0.351819
0.688067
0.679125
0.666334
0.681312
0.683299
0.386093
0.39519
0.402727
0.572241
0.381616
0.681313
0.39284
0.680902
0.678374
0.685181
0.358582
0.454637
0.416983
0.684824
0.369425
0.379655
0.678402
0.659622
0.621812
0.679033
0.633776
0.694412
0.380364
0.633886
0.698933
0.541525
0.68342
0.690393
0.695482
0.469426
0.433978
0.70285
0.50826
0.615849
0.378567
0.641645
0.66638
0.407402
0.373238
0.655718
0.517483
0.695931
0.688092
0.393546
0.396203
0.67711
0.386284
0.419523
0.667813
0.642505
0.393081
0.671624
0.677483
0.639001
0.377634
0.598404
0.381813
0.670794
0.697432
0.694226
0.664773
0.677448
0.305578
0.365815
0.677876
0.395158
0.618084
0.393005
0.68454
0.397863
0.651404
0.698491
0.677335
0.381957
0.676083
0.676826
0.379536
0.642563
0.387278
0.707328
0.382244
0.370214
0.387716
0.674717
0.674852
0.328492