# vtk DataFile Version 1.0
unstructured grid
ascii
DATASET UNSTRUCTURED_GRID
points 13672 float
0.0796578 -0.059106 0
0.00128732 0.00159165 0
0.00227961 -0.00102548 0
0.0791586 -0.0598787 0
-0.0546216 0.01 0
0.000495206 0.025 0
0.0800549 -0.035 0
0.135172 -0.08 0
-0.0546216 -0.0451168 0
0.000495206 -0.0301168 0
0.0800549 -0.0901168 0
0.135172 -0.135117 0
-0.0546216 -0.0451168 -0.00551168
0.000495206 -0.0301168 -0.00551168
0.0800549 -0.0901168 -0.00551168
0.135172 -0.135117 -0.00551168
0.135172 -0.08 -0.00551168
0.0800549 -0.035 -0.00551168
0.000495206 0.025 -0.00551168
-0.0546216 0.01 -0.00551168
0.00128732 0.00159165 -0.00551168
0.00227961 -0.00102548 -0.00551168
0.0791586 -0.0598787 -0.00551168
0.0796578 -0.059106 -0.00551168
0.00165953 -0.000990923 0
0.00119576 -0.000874076 0
0.000866021 -0.000641801 0
0.000645147 -0.000349912 0
0.00052235 -1.7281e-05 0
0.00049972 0.000348016 0
0.000601632 0.000737716 0
0.000861774 0.0011403 0
0.00157235 0.00183217 0
0.00188647 0.00206725 0
0.00222612 0.00230203 0
0.00258713 0.00254351 0
0.00296826 0.00279524 0
0.00337118 0.00305664 0
0.00379785 0.00332658 0
0.00425045 0.00360349 0
0.00473139 0.00388521 0
0.0052432 0.00416895 0
0.0057881 0.00445204 0
0.00636753 0.00473281 0
0.00698281 0.00500961 0
0.00763526 0.00528058 0
0.00832616 0.00554366 0
0.00905691 0.00579603 0
0.00982918 0.00603333 0
0.0106445 0.00625033 0
0.0115038 0.00644128 0
0.0124073 0.00660297 0
0.0133543 0.00673414 0
0.0143444 0.00683382 0
0.0153769 0.00690031 0
0.0164512 0.00693173 0
0.0175666 0.00692547 0
0.0187219 0.00687822 0
0.0199156 0.00678477 0
0.0211454 0.00663864 0
0.0224084 0.00643275 0
0.0237018 0.00616676 0
0.0250249 0.00584739 0
0.026375 0.00547298 0
0.0277479 0.00503752 0
0.0291386 0.00453545 0
0.0305433 0.0039653 0
0.0319572 0.0033256 0
0.0333681 0.00260019 0
0.034775 0.00179799 0
0.0361793 0.000930615 0
0.0375798 3.12222e-06 0
0.0389689 -0.000988429 0
0.0403357 -0.00205109 0
0.041675 -0.00318283 0
0.0429849 -0.00437751 0
0.0442643 -0.00562904 0
0.0455126 -0.00693089 0
0.0467314 -0.00827518 0
0.0479204 -0.00965638 0
0.0490661 -0.0110799 0
0.0501515 -0.0125519 0
0.0511696 -0.0140695 0
0.0521492 -0.0156071 0
0.0531202 -0.0171411 0
0.0540851 -0.0186663 0
0.0550431 -0.0201798 0
0.0559923 -0.0216793 0
0.0569311 -0.0231626 0
0.0578582 -0.0246273 0
0.0587723 -0.0260715 0
0.0596721 -0.027493 0
0.0605563 -0.02889 0
0.0614241 -0.0302609 0
0.0622742 -0.0316042 0
0.063106 -0.0329183 0
0.0639186 -0.034202 0
0.0647113 -0.0354543 0
0.0654835 -0.0366743 0
0.0662345 -0.0378613 0
0.0669642 -0.0390145 0
0.0676726 -0.0401333 0
0.0683597 -0.0412172 0
0.0690246 -0.0422665 0
0.0696662 -0.0432819 0
0.0702841 -0.0442636 0
0.0708793 -0.0452111 0
0.0714538 -0.0461237 0
0.072009 -0.047001 0
0.0725452 -0.0478434 0
0.0730611 -0.0486524 0
0.073556 -0.0494294 0
0.0740291 -0.0501756 0
0.0744812 -0.0508916 0
0.0749138 -0.0515773 0
0.0753285 -0.0522331 0
0.0757266 -0.0528592 0
0.076109 -0.0534564 0
0.0764753 -0.0540264 0
0.0768243 -0.054571 0
0.0771553 -0.0550919 0
0.0774679 -0.0555901 0
0.0777617 -0.0560669 0
0.0780369 -0.056523 0
0.0782958 -0.0569578 0
0.0785421 -0.0573703 0
0.0787786 -0.0577603 0
0.0790073 -0.0581279 0
0.0792295 -0.058474 0
0.0794462 -0.0587995 0
0.0798803 -0.0594162 0
0.0800272 -0.0596588 0
0.0800357 -0.0598891 0
0.0799275 -0.0600784 0
0.0797205 -0.0601773 0
0.0794593 -0.0601051 0
0.0789155 -0.0596491 0
0.0786707 -0.0593963 0
0.0784111 -0.0591319 0
0.0781372 -0.0588542 0
0.0778566 -0.0585548 0
0.0775715 -0.0582308 0
0.0772803 -0.0578828 0
0.0769832 -0.0575099 0
0.0766822 -0.0571097 0
0.0763801 -0.0566796 0
0.0760759 -0.0562196 0
0.0757623 -0.0557337 0
0.0754359 -0.0552232 0
0.0750951 -0.0546879 0
0.0747379 -0.054128 0
0.0743626 -0.0535435 0
0.0739688 -0.0529338 0
0.0735559 -0.0522981 0
0.0731238 -0.0516357 0
0.0726718 -0.050946 0
0.0721991 -0.0502288 0
0.0717046 -0.049484 0
0.0711872 -0.0487117 0
0.0706461 -0.047912 0
0.0700804 -0.0470849 0
0.0694892 -0.0462308 0
0.0688718 -0.0453499 0
0.0682271 -0.0444431 0
0.0675544 -0.043511 0
0.0668527 -0.0425546 0
0.0661215 -0.0415748 0
0.06536 -0.040573 0
0.0645676 -0.0395504 0
0.0637439 -0.0385087 0
0.0628887 -0.0374493 0
0.062002 -0.0363741 0
0.0610838 -0.0352847 0
0.0601345 -0.0341831 0
0.0591547 -0.033071 0
0.0581456 -0.0319502 0
0.0571083 -0.0308224 0
0.0560444 -0.0296893 0
0.0549562 -0.028552 0
0.053845 -0.0274126 0
0.0527113 -0.0262746 0
0.051554 -0.0251427 0
0.0503724 -0.0240222 0
0.0491675 -0.0229164 0
0.047941 -0.0218282 0
0.0466955 -0.0207597 0
0.0454337 -0.0197126 0
0.0441592 -0.0186878 0
0.0428751 -0.0176863 0
0.0415841 -0.0167097 0
0.0402878 -0.0157609 0
0.0389879 -0.0148428 0
0.0376864 -0.0139575 0
0.0363853 -0.013107 0
0.0350871 -0.0122931 0
0.0337942 -0.0115164 0
0.0325095 -0.0107772 0
0.0312357 -0.0100756 0
0.0299758 -0.00941024 0
0.0287337 -0.00877784 0
0.0275126 -0.00817571 0
0.0263139 -0.00760375 0
0.0251376 -0.00706528 0
0.0239829 -0.0065649 0
0.0228537 -0.00609619 0
0.0217522 -0.00565563 0
0.0206795 -0.00524226 0
0.0196364 -0.00485507 0
0.0186233 -0.00449318 0
0.0176408 -0.00415577 0
0.016689 -0.00384204 0
0.0157682 -0.00355115 0
0.0148783 -0.00328218 0
0.0140192 -0.00303468 0
0.0131906 -0.00280795 0
0.0123925 -0.00260016 0
0.0116246 -0.00241012 0
0.0108864 -0.00223769 0
0.0101774 -0.00208212 0
0.00949701 -0.00194206 0
0.00884483 -0.0018163 0
0.0082202 -0.0017039 0
0.00762247 -0.00160391 0
0.00705097 -0.00151528 0
0.006505 -0.00143697 0
0.0059838 -0.00136806 0
0.00548662 -0.00130772 0
0.00501265 -0.00125519 0
0.00456114 -0.00120954 0
0.00413136 -0.00116914 0
0.00372257 -0.00113251 0
0.00333398 -0.00109853 0
0.00296466 -0.00106798 0
0.00261363 -0.0010431 0
-0.052721 -0.0445996 0
-0.0508204 -0.0440823 0
-0.0489199 -0.0435651 0
-0.0470193 -0.0430478 0
-0.0451187 -0.0425306 0
-0.0432181 -0.0420134 0
-0.0413175 -0.0414961 0
-0.039417 -0.0409789 0
-0.0375164 -0.0404616 0
-0.0356158 -0.0399444 0
-0.0337152 -0.0394271 0
-0.0318146 -0.0389099 0
-0.0299141 -0.0383927 0
-0.0280135 -0.0378754 0
-0.0261129 -0.0373582 0
-0.0242123 -0.0368409 0
-0.0223117 -0.0363237 0
-0.0204112 -0.0358065 0
-0.0185106 -0.0352892 0
-0.01661 -0.034772 0
-0.0147094 -0.0342547 0
-0.0128088 -0.0337375 0
-0.0109083 -0.0332202 0
-0.00900769 -0.032703 0
-0.00710711 -0.0321858 0
-0.00520653 -0.0316685 0
-0.00330595 -0.0311513 0
-0.00140537 -0.030634 0
0.00190689 -0.0299614 0
0.00332271 -0.0298498 0
0.00474133 -0.0297825 0
0.00616136 -0.0297597 0
0.0075814 -0.0297814 0
0.00900007 -0.0298477 0
0.010416 -0.0299583 0
0.0118278 -0.0301127 0
0.0132342 -0.0303103 0
0.0146339 -0.0305504 0
0.0160259 -0.0308322 0
0.0174091 -0.0311546 0
0.0187824 -0.0315166 0
0.020145 -0.031917 0
0.0214961 -0.0323546 0
0.0228351 -0.032828 0
0.0241613 -0.0333361 0
0.0254744 -0.0338774 0
0.0267738 -0.0344507 0
0.0280592 -0.0350545 0
0.0293306 -0.0356877 0
0.0305875 -0.0363488 0
0.0318301 -0.0370367 0
0.0330581 -0.0377501 0
0.0342717 -0.0384879 0
0.0354708 -0.0392489 0
0.0366556 -0.0400321 0
0.0378262 -0.0408363 0
0.0389828 -0.0416607 0
0.0401254 -0.0425042 0
0.0412543 -0.0433659 0
0.0423698 -0.0442451 0
0.043472 -0.0451408 0
0.0445612 -0.0460523 0
0.0456375 -0.0469789 0
0.0467013 -0.0479199 0
0.0477529 -0.0488746 0
0.0487923 -0.0498424 0
0.04982 -0.0508227 0
0.0508362 -0.051815 0
0.051841 -0.0528187 0
0.0528348 -0.0538333 0
0.0538178 -0.0548584 0
0.0547903 -0.0558935 0
0.0557524 -0.0569382 0
0.0567045 -0.0579922 0
0.0576467 -0.0590549 0
0.0585792 -0.0601261 0
0.0595024 -0.0612055 0
0.0604163 -0.0622926 0
0.0613212 -0.0633873 0
0.0622174 -0.0644891 0
0.0631049 -0.0655979 0
0.0639841 -0.0667134 0
0.064855 -0.0678353 0
0.0657179 -0.0689633 0
0.0665729 -0.0700974 0
0.0674202 -0.0712372 0
0.06826 -0.0723826 0
0.0690925 -0.0735333 0
0.0699178 -0.0746892 0
0.070736 -0.0758501 0
0.0715473 -0.0770159 0
0.0723518 -0.0781863 0
0.0731498 -0.0793612 0
0.0739412 -0.0805405 0
0.0747264 -0.081724 0
0.0755053 -0.0829116 0
0.0762781 -0.0841033 0
0.0770449 -0.0852987 0
0.0778059 -0.0864979 0
0.0785611 -0.0877007 0
0.0793108 -0.088907 0
0.0814681 -0.0912706 0
0.0828814 -0.0924245 0
0.0842946 -0.0935783 0
0.0857079 -0.0947322 0
0.0871211 -0.095886 0
0.0885344 -0.0970399 0
0.0899476 -0.0981937 0
0.0913609 -0.0993476 0
0.0927741 -0.100501 0
0.0941874 -0.101655 0
0.0956006 -0.102809 0
0.0970139 -0.103963 0
0.0984272 -0.105117 0
0.0998404 -0.106271 0
0.101254 -0.107424 0
0.102667 -0.108578 0
0.10408 -0.109732 0
0.105493 -0.110886 0
0.106907 -0.11204 0
0.10832 -0.113194 0
0.109733 -0.114348 0
0.111146 -0.115501 0
0.11256 -0.116655 0
0.113973 -0.117809 0
0.115386 -0.118963 0
0.116799 -0.120117 0
0.118213 -0.121271 0
0.119626 -0.122424 0
0.121039 -0.123578 0
0.122452 -0.124732 0
0.123866 -0.125886 0
0.125279 -0.12704 0
0.126692 -0.128194 0
0.128105 -0.129348 0
0.129519 -0.130501 0
0.130932 -0.131655 0
0.132345 -0.132809 0
0.133758 -0.133963 0
0.135172 -0.133216 0
0.135172 -0.131316 0
0.135172 -0.129415 0
0.135172 -0.127514 0
0.135172 -0.125614 0
0.135172 -0.123713 0
0.135172 -0.121813 0
0.135172 -0.119912 0
0.135172 -0.118012 0
0.135172 -0.116111 0
0.135172 -0.11421 0
0.135172 -0.11231 0
0.135172 -0.110409 0
0.135172 -0.108509 0
0.135172 -0.106608 0
0.135172 -0.104708 0
0.135172 -0.102807 0
0.135172 -0.100906 0
0.135172 -0.0990058 0
0.135172 -0.0971052 0
0.135172 -0.0952046 0
0.135172 -0.0933041 0
0.135172 -0.0914035 0
0.135172 -0.0895029 0
0.135172 -0.0876023 0
0.135172 -0.0857017 0
0.135172 -0.0838012 0
0.135172 -0.0819006 0
0.133758 -0.0788462 0
0.132345 -0.0776923 0
0.130932 -0.0765385 0
0.129519 -0.0753846 0
0.128105 -0.0742308 0
0.126692 -0.0730769 0
0.125279 -0.0719231 0
0.123866 -0.0707692 0
0.122452 -0.0696154 0
0.121039 -0.0684615 0
0.119626 -0.0673077 0
0.118213 -0.0661538 0
0.116799 -0.065 0
0.115386 -0.0638462 0
0.113973 -0.0626923 0
0.11256 -0.0615385 0
0.111146 -0.0603846 0
0.109733 -0.0592308 0
0.10832 -0.0580769 0
0.106907 -0.0569231 0
0.105493 -0.0557692 0
0.10408 -0.0546154 0
0.102667 -0.0534615 0
0.101254 -0.0523077 0
0.0998404 -0.0511538 0
0.0984272 -0.05 0
0.0970139 -0.0488462 0
0.0956006 -0.0476923 0
[...]
CELL_DATA 13116
SCALARS rho float
LOOKUP_TABLE default
0.548944
0.656493
0.354902
0.710465
0.698507
0.678765
0.389483
0.69883
0.526917
0.703608
0.383481
0.371249
0.698805
0.408895
0.385244
0.678858
0.517408
0.694072
0.676676
0.398027
0.553919
0.394634
0.380583
0.696031
0.607685
0.618218
0.703644
0.351112
0.606398
0.644065
0.677594
0.373951
0.554962
0.446406
0.386012
0.551542
0.662547
0.670318
0.678411
0.678377
0.678183
0.702948
0.425362
0.347109
0.674983
0.676493
0.631782
0.680527
0.391318
0.522673
0.695196
0.441607
0.392048
0.510479
0.553609
0.584221
0.345023
0.692666
0.535947
0.386141
0.409115
0.705338
0.646257
0.678348
0.677737
0.373632
0.681618
0.669486
0.683085
0.677823
0.38715
0.585713
0.390445
0.344166
0.677291
0.367236
0.640724
0.69255
0.384325
0.691114
0.675787
0.628196
0.696185
0.680322
0.664181
0.44914
0.398857
0.666776
0.656623
0.380171
0.365636
0.658291
0.698668
0.661041
0.64705
0.597264
0.610182
0.677546
0.677393
0.597297
0.676489
0.584977
0.677586
0.406821
0.612062
0.410968
0.358436
0.473188
0.353375
0.616563
0.50245
0.623786
0.595382
0.67947
0.69171
0.681721
0.407944
0.387823
0.688591
0.683032
0.669898
0.387751
0.683526
0.372596
0.653129
0.437944
0.399708
0.5094
0.339652
0.524291
0.688887
0.681243
0.502688
0.39692
0.482482
0.583609
0.676725
0.686239
0.675581
0.68268
0.624316
0.635306
0.507786
0.625079
0.642048
0.396192
0.385072
0.618485
0.696063
0.689972
0.54388
0.679667
0.680428
0.37713
0.700024
0.665554
0.375444
0.68212
0.677568
0.667094
0.695196
0.385203
0.694547
0.370838
0.383501
0.702884
0.650622
0.693603
0.386949
0.464662
0.4212
0.676695
0.390393
0.4923
0.680684
0.385471
0.389841
0.392001
0.619573
0.678469
0.384029
0.431363
0.523293
0.663014
0.67854
0.53364
0.360293
0.677612
0.597457
0.460429
0.634513
0.616336
0.677886
0.382562
0.612634
0.678847
0.7003
0.677164
0.655326
0.404369
0.406744
0.621708
0.503988
0.364972
0.690504
0.675108
0.450631
0.607435
0.402961
0.38224
0.364161
0.680292
0.372461
0.395429
0.376182
0.375743
0.367079
0.677957
0.649338
0.435916
0.345139
0.681402
0.496261
0.385268
0.556136
0.704362
0.63965
0.368668
0.680882
0.390935
0.704523
0.370454
0.677849
0.575624
0.677463
0.670251
0.677948
0.379156
0.430793
0.667029
0.677255
0.678732
0.676825
0.677832
0.690516
0.392557
0.690221
0.700887
0.6774
0.383955
0.393735
0.676798
0.687828
0.677762
0.683899
0.535036
0.682541
0.382584
0.40118
0.398862
0.403751
0.593918
0.700085
0.639366
0.388841
0.672747
0.349074
0.43294
0.614428
0.384749
0.621983
0.699383
0.677123
0.692335
0.381546
0.677094
0.681069
0.677407
0.686101
0.380625
0.405514
0.376229
0.578802
0.387529
0.396834
0.332302
0.306493
0.6641
0.392933
0.663378
0.699129
0.360137
0.387646
0.352073
0.45287
0.350171
0.665384
0.584771
0.618554
0.384888
0.680045
0.588615
0.402686
0.385466
0.678332
0.687734
0.677305
0.357414
0.678937
0.414597
0.680457
0.703383
0.688306
0.702254
0.380833
0.680947
0.401207
0.678449
0.704574
0.667895
0.387934
0.331952
0.701485
0.367061
0.646251
0.705218
0.363978
0.685261
0.695889
0.378415
0.672536
0.698594
0.396662
0.690419
0.451169
0.57645
0.671003
0.457835
0.682414
0.39109
0.693869
0.343863
0.677894
0.57449
0.701405
0.369269
0.357259
0.665643
0.381411
0.689443
0.603761
0.421306
0.676757
0.370365
0.385815
0.686553
0.556423
0.667885
0.405583
0.372743
0.689971
0.698932
0.384677
0.697162
0.417938
0.408521
0.681006
0.677976
0.460654
0.398304
0.686416
0.677713
0.678948
0.670962
0.691875
0.544072
0.324599
0.400337
0.38014
0.678909
0.381122
0.521224
0.36947
0.378586
0.35129
0.470242
0.143545
0.381649
0.666894
0.32539
0.695316
0.606006
0.678382
0.658645
0.69116
0.385895
0.402928
0.411361
0.333621
0.686534
0.591251
0.678015
0.60661
0.64382
0.618535
0.626464
0.620629
0.641257
0.690417
0.690577
0.67855
0.405557
0.458859
0.544866
0.392937
0.58083
0.582567
0.393006
0.681437
0.677181
0.378844
0.393294
0.383887
0.366241
0.631468
0.388387
0.382247
0.680654
0.348378
0.575215
0.381838
0.678313
0.675173
0.340609
0.397153
0.68604
0.454426
0.380923
0.364089
0.394082
0.356966
0.403681
0.394367
0.394467
0.43268
0.380426
0.581208
0.367604
0.66253
0.377808
0.394906
0.505614
0.396889
0.378681
0.390519
0.675544
0.438606
0.640986
0.47616
0.352555
0.609948
0.659265
0.448355
0.684839
0.619729
0.61832
0.389666
0.677481
0.389411
0.692975
0.677541
0.370503
0.397566
0.596167
0.338383
0.459533
0.577334
0.357478
0.68116
0.644774
0.377077
0.385665
0.390508
0.48784
0.384029
0.395665
0.389438
0.401722
0.706246
0.707435
0.459359
0.600436
0.481636
0.613202
0.354302
0.388299
0.531365
0.371094
0.680197
0.294034
0.371574
0.49839
0.674247
0.645688
0.562795
0.362017
0.39725
0.572263
0.699393
0.678005
0.568441
0.617865
0.592907
0.38154
0.674146
0.571134
0.665873
0.312728
0.353864
0.67849
0.700513
0.657567
0.704629
0.650648
0.616611
0.69403
0.666353
0.678291
0.391066
0.673903
0.339765
0.401937
0.394308
0.709524
0.675621
0.310239
0.663066
0.623129
0.388301
0.677943
0.686984
0.686837
0.350658
0.387467
0.690827
0.380798
0.381349
0.386221
0.383179
0.677819
0.396931
0.709572
0.371037
0.65731
0.693854
0.681952
0.699247
0.380149
0.379485
0.67768
0.706142
0.652565
0.705922
0.7006
0.500647
0.375504
0.372295
0.679411
0.528875
0.384752
0.454185
0.376045
0.67265
0.678144
0.312051
0.394355
0.660456
0.468272
0.667871
0.660228
0.338998
0.391789
0.648375
0.677217
0.368406
0.644915
0.649967
0.676846
0.377468
0.676784
0.342256
0.677415
0.664654
0.399525
0.367173
0.396258
0.677411
0.342048
0.385242
0.388323
0.678015
0.684445
0.385076
0.394639
0.381978
0.678108
0.390335
0.678726
0.396463
0.589546
0.704386
0.381029
0.370746
0.376731
0.501092
0.373534
0.632526
0.356299
0.389284
0.678213
0.393158
0.680011
0.642409
0.677478
0.379635
0.680916
0.697523
0.699947
0.679617
0.650426
0.680815
0.384336
0.677958
0.43818
0.674171
0.381171
0.691721
0.505958
0.388534
0.677613
0.694071
0.386567
0.623726
0.366012
0.385878
0.680596
0.675201
0.361893
0.39138
0.385318
0.385586
0.667604
0.69619
0.380301
0.374891
0.689457
0.685765
0.59143
0.696955
0.678236
0.384747
0.701583
0.427468
0.695057
0.389874
0.595098
0.484823
0.680742
0.669113
0.579765
0.345054
0.362973
0.676795
0.606989
0.516301
0.696431
0.403625
0.679084
0.699597
0.366547
0.456261
0.69804
0.362087
0.677674
0.668005
0.327499
0.683858
0.645294
0.371779
0.683226
0.376449
0.654508
0.362212
0.680125
0.644267
0.37497
0.678351
0.695056
0.691889
0.624297
0.675555
0.58643
0.37426
0.417062
0.364452
0.352459
0.676514
0.559247
0.684269
0.695372
0.385128
0.384595
0.679621
0.705243
0.68661
0.699224
0.386816
0.690745
0.700751
0.396256
0.378296
0.68888
0.676661
0.65938
0.398437
0.594546
0.320922
0.682352
0.639745
0.678037
0.664049
0.383
0.674159
0.6634
0.69769
0.673774
0.678562
0.434109
0.691461
0.383051
0.61974
0.702253
0.464224
0.646384
0.678092
0.693203
0.403502
0.405634
0.5876
0.650941
0.382526
0.393491
0.381997
0.379247
0.659383
0.678631
0.677793
0.30735
0.381317
0.682882
0.680798
0.396527
0.383065
0.465972
0.661217
0.677224
0.670166
0.688151
0.381806
0.383558
0.676869
0.371977
0.391598
0.358947
0.677815
0.320921
0.381197
0.576604
0.675986
0.620016
0.678611
0.677714
0.414951
0.390951
0.382308
0.475953
0.438072
0.369071
0.667984
0.687688
0.655679
0.679704
0.401732
0.379259
0.704324
0.389756
0.678478
0.643638
0.677651
0.361904
0.394626
0.648486
0.677563
0.560563
0.39644
0.66663
0.678718
0.572284
0.690263
0.697714
0.676968
0.618441
0.388435
0.677834
0.67763
0.612914
0.682744
0.676593
0.625691
0.677059
0.685369
0.389823
0.379743
0.381027
0.677724
0.504697
0.387717
0.679371
0.690138
0.365152
0.631311
0.325526
0.636261
0.468586
0.386528
0.705653
0.695557
0.383805
0.554969
0.677724
0.341048
0.66163
0.400189
0.410666
0.614428
0.607957
0.505494
0.677462
0.381539
0.694383
0.386368
0.391759
0.679935
0.38402
0.601893
0.379133
0.630427
0.596624
0.677023
0.648531
0.396907
0.388391
0.605306
0.427659
0.686298
0.456819
0.589979
0.678524
0.697437
0.441633
0.613798
0.617601
0.70063
0.682397
0.347384
0.380955
0.544624
0.614532
0.701114
0.379743
0.677433
0.562511
0.411191
0.368218
0.66946
0.662131
0.676922
0.677357
0.583595
0.680187
0.678246
0.669934
0.381423
0.657912
0.463291
0.684701
0.675919
0.301593
0.611329
0.696764
0.383437
0.385594
0.363192
0.676611
0.385098
0.614231
0.688045
0.659441
0.359249
0.667037
0.386951
0.593919
0.678238
0.677758
0.666274
0.678077
0.618374
0.674478
0.524247
0.673572
0.36003
0.678126
0.681797
0.408446
0.677171
0.680037
0.37205
0.399375
0.339869
0.688909
0.382285
0.677057
0.379692
0.697737
0.397762
0.485437
0.391402
0.692393
0.698657
0.532825
0.270817
0.618278
0.677994
0.386461
0.590407
0.707899
0.369577
0.586851
0.677486
0.703972
0.678724
0.368583
0.470409
0.688165
0.677429
0.62139
0.382928
0.402016
0.669097
0.676839
0.677202
0.676812
0.548054
0.681716
0.543362
0.682039
0.382675
0.376885
0.676847
0.697246
0.678056
0.366352
0.678079
0.555816
0.597831
0.369032
0.418898
0.697635
0.710577
0.557634
0.333497
0.679031
0.67724
0.387687
0.610361
0.687916
0.38703
0.410241
0.398563
0.594825
0.393344
0.389312
0.671357
0.465013
0.701486
0.637302
0.388637
0.392875
0.704383
0.379432
0.389112
0.677569
0.403923
0.355459
0.590609
0.644385
0.681184
0.379811
0.302508
0.382707
0.644042
0.409946
0.681903
0.388472
0.680221
0.602861
0.67361
0.624172
0.672951
0.637453
0.677413
0.698776
0.684827
0.396143
0.385001
0.665162
0.67832
0.511837
0.608706
0.559006
0.678231
0.611135
0.3417
0.682191
0.706888
0.671358
0.385119
0.675125
0.36645
0.680347
0.504019
0.691528
0.679653
0.387062
0.686532
0.383381
0.426981
0.647705
0.357702
0.681778
0.676657
0.681361
0.364954
0.680572
0.377077
0.361936
0.377672
0.377812
0.602519
0.392522
0.628071
0.678129
0.336885
0.382847
0.493878
0.584026
0.630492
0.622668
0.381742
0.395439
0.38469
0.391479
0.267917
0.629929
0.628808
0.347728
0.677852
0.687484
0.398794
0.706803
0.680083
0.678179
0.385814
0.677276
0.674152
0.691732
0.684321
0.383228
0.682695
0.693488
0.675819
0.670319
0.678013
0.396573
0.380979
0.679922
0.542842
0.397103
0.679733
0.386614
0.575792
0.623503
0.652259
0.656542
0.365773
0.607002
0.400459
0.386319
0.686119
0.691395
0.696196
0.689718
0.654279
0.36211
0.700353
0.393526
0.510722
0.702238
0.677386
0.687608
0.384807
0.395181
0.701657
0.39672
0.690144
0.650632
0.430521
0.392493
0.680888
0.381539
0.679554
0.689655
0.650878
0.381133
0.380377
0.505882
0.517503
0.618481
0.473134
0.678102
0.622418
0.665536
0.676474
0.68127
0.392589
0.395122
0.69217
0.678019
0.618408
0.464511
0.363887
0.671126
0.392735
0.678092
0.618657
0.320253
0.685952
0.381467
0.633365
0.358113
0.697082
0.381346
0.679385
0.678404
0.343621
0.656489
0.650373
0.330289
0.677801
0.676391
0.557103
0.396585
0.369909
0.466325
0.698078
0.599628
0.378103
0.590003
0.683872
0.678251
0.34943
0.606978
0.66171
0.467903
0.678105
0.678555
0.296693
0.684217
0.677456
0.354972
0.596289
0.371408
0.634024
0.375592
0.409959
0.700083
0.392862
0.381138
0.397297
0.681154
0.6525
0.41028
0.678917
0.366737
0.659666
0.377042
0.656688
0.370589
0.678602
0.68038
0.6424
0.677908
0.558812
0.678433
0.678167
0.340032
0.639304
0.647842
0.4863
0.680572
0.499862
0.409641
0.699989
0.387324
0.573948
0.31719
0.677868
0.395067
0.38302
0.695655
0.677755
0.379018
0.683574
0.687793
0.676577
0.698615
0.677377
0.388265
0.706005
0.394361
0.372347
0.657258
0.689229
0.701861
0.662906
0.377794
0.374845
0.383343
0.657857
0.678087
0.369042
0.657402
0.406233
0.372188
0.368048
0.660251
0.389831
0.702163
0.68533
0.638206
0.674094
0.683968
0.572672
0.635191
0.439895
0.403055
0.379153
0.67737
0.677284
0.372045
0.629334
0.591987
0.637176
0.369488
0.400036
0.626385
0.281073
0.619636
0.591627
0.395965
0.678136
0.661217
0.388578
0.680412
0.388181
0.683943
0.702376
0.673406
0.394914
0.477158
0.680282
0.305364
0.450146
0.67441
0.314238
0.678184
0.682323
0.621905
0.688183
0.33074
0.677601
0.685462
0.677254
0.366827
0.691948
0.391429
0.399715
0.666004
0.677485
0.677955
0.238697
0.679973
0.638971
0.677286
0.398002
0.410867
0.380433
0.687662
0.387473
0.391035
0.371783
0.589366
0.38796
0.301203
0.448491
0.681763
0.393421
0.677878
0.678164
0.67813
0.363004
0.682877
0.654914
0.677836
0.420714
0.668088
0.385015
0.389025
0.68039
0.388453
0.625155
0.682689
0.676981
0.392356
0.332282
0.386534
0.566932
0.676835
0.236824
0.671248
0.681013
0.689375
0.37689
0.394945
0.347509
0.597631
0.383163
0.676589
0.610942
0.678245
0.670325
0.380742
0.625522
0.382405
0.559643
0.652492
0.704999
0.568476
0.481024
0.667763
0.622238
0.693167
0.377937
0.371958
0.345149
0.690945
0.534643
0.677401
0.394523
0.401342
0.691829
0.682625
0.677714
0.388354
0.678886
0.565187
0.568215
0.602228
0.369671
0.392429
0.296225
0.67747
0.678141
0.668788
0.611236
0.346311
0.681935
0.66171
0.678146
0.677805
0.682692
0.706638
0.678856
0.687795
0.695612
0.36902
0.684607
0.69075
0.677946
0.686554
0.677029
0.57752
0.3922
0.410897
0.616358
0.391982
0.333714
0.677773
0.388628
0.642077
0.68238
0.653743
0.672205
0.370984
0.679684
0.373175
0.393136
0.678956
0.680711
0.679887
0.356139
0.695862
0.677641
0.612988
0.67744
0.393606
0.677972
0.702112
0.661836
0.406087
0.693125
0.381002
0.711524
0.363027
0.392323
0.523436
0.453138
0.705509
0.693565
0.678736
0.373732
0.677987
0.412618
0.389788
0.642589
0.497916
0.381369
0.678052
0.386753
0.520838
0.668137
0.632299
0.656221
0.496606
0.602589
0.657035
0.678996
0.574897
0.696174
0.541343
0.694198
0.606541
0.648737
0.402728
0.385451
0.452409
0.689806
0.371329
0.665735
0.683889
0.60392
0.679101
0.520994
0.680841
0.671463
0.384673
0.6827
0.602431
0.491784
0.606501
0.701389
0.634496
0.67813
0.377554
0.389907
0.675167
0.537837
0.545669
0.685783
0.679873
0.679521
0.700537
0.702014
0.621483
0.619471
0.704884
0.392518
0.39011
0.39642
0.346737
0.677164
0.462274
0.539509
0.685551
0.676473
0.36996
0.673386
0.710904
0.355769
0.377669
0.677122
0.686289
0.373566
0.379681
0.387942
0.676522
0.617734
0.410194
0.393822
0.396356
0.406153
0.347868
0.397501
0.700788
0.680541
0.677706
0.377227
0.654862
0.606661
0.616357
0.342364
0.392258
0.640117
0.676815
0.381785
0.678328
0.389534
0.695358
0.370699
0.677233
0.370339
0.656618
0.698595
0.368256
0.569978
0.394837
0.706349
0.40469
0.610559
0.389716
0.509338
0.385136
0.601764
0.386729
0.677849
0.677827
0.614132
0.671794
0.336888
0.656935
0.67797
0.697081
0.604204
0.660677
0.393911
0.396383
0.352259
0.698711
0.293395
0.696389
0.552174
0.688954
0.703897
0.462694
0.691283
0.389319
0.407164
0.39119
0.513958
0.521374
0.679068
0.384327
0.397062
0.679674
0.383884
0.38133
0.554462
0.373029
0.381422
0.411905
0.704036
0.658372
0.615062
0.367675
0.653464
0.677635
0.404928
0.327292
0.663937
0.677923
0.56312
0.524084
0.417785
0.365971
0.377145
0.669004
0.611469
0.526052
0.683847
0.399112
0.571919
0.382003
0.677657
0.696266
0.39576
0.399949
0.618293
0.547784
0.698752
0.695575
0.69852
0.683873
0.702505
0.371013
0.392977
0.344162
0.380032
0.541088
0.677617
0.660113
0.382262
0.380453
0.453351
0.406175
0.679417
0.631339
0.375335
0.313219
0.682308
0.362891
0.655652
0.693725
0.646901
0.67803
0.553139
0.383594
0.361721
0.61348
0.396461
0.421761
0.407663
0.678084
0.6768
0.336991
0.395547
0.676693
0.385785
0.679304
0.698711
0.387884
0.384943
0.397005
0.682048
0.40808
0.676643
0.68348
0.604434
0.374296
0.538113
0.691944
0.668182
0.389742
0.665267
0.618614
0.410775
0.68816
0.702941
0.383565
0.392393
0.647178
0.385096
0.381353
0.661025
0.350093
0.678942
0.681271
0.69786
0.626314
0.696993
0.681974
0.678497
0.385085
0.416636
0.629197
0.678055
0.476891
0.706416
0.33172
0.685001
0.657892
0.573181
0.65099
0.396963
0.461805
0.674316
0.693499
0.603341
0.698854
0.680854
0.676953
0.696964
0.6766
0.654193
0.645315
0.678086
0.676866
0.678533
0.346262
0.631871
0.340196
0.680444
0.684713
0.690166
0.636236
0.687673
0.382134
0.383073
0.310045
0.389135
0.644872
0.375366
0.385923
0.677225
0.39823
0.687112
0.378386
0.66107
0.683158
0.392046
0.386648
0.321978
0.688414
0.340797
0.67823
0.686222
0.386314
0.637173
0.562748
0.346171
0.351927
0.400149
0.688612
0.392935
0.681467
0.517145
0.39022
0.676335
0.678239
0.698472
0.389066
0.57814
0.390238
0.656902
0.678371
0.681613
0.380405
0.67703
0.686069
0.618831
0.410374
0.688319
0.386808
0.381422
0.671909
0.457312
0.702527
0.410969
0.38065
0.45046
0.62871
0.342919
0.288318
0.364164
0.483324
0.67734
0.685285
0.400131
0.600465
0.681101
0.568274
0.422805
0.315237
0.565157
0.382596
0.380791
0.674682
0.380599
0.384217
0.690595
0.708255
0.35518
0.692719
0.373569
0.677067
0.34747
0.643739
0.677883
0.68898
0.678138
0.39016
0.381014
0.383204
0.678549
0.648747
0.600077
0.546758
0.37612
0.307346
0.678271
0.384539
0.679511
0.387434
0.677971
0.670942
0.360834
0.345333
0.38275
0.396219
0.342763
0.616708
0.647973
0.371693
0.683802
0.639704
0.375142
0.391565
0.708596
0.379594
0.682481
0.43357
0.688554
0.656961
0.682724
0.677405
0.389837
0.702086
0.678323
0.707002
0.390861
0.606693
0.606341
0.328274
0.689661
0.638694
0.688004
0.654217
0.702628
0.670008
0.702183
0.677946
0.676724
0.386963
0.697433
0.382882
0.462079
0.67412
0.385324
0.661966
0.603588
0.396725
0.620917
0.392644
0.365736
0.66223
0.594583
0.707623
0.379405
0.653749
0.623623
0.339422
0.37706
0.639883
0.677793
0.381824
0.372647
0.687436
0.707753
0.388327
0.644209
0.699922
0.661178
0.35002
0.387774
0.379282
0.658521
0.37845
0.666177
0.690918
0.678335
0.606826
0.683292
0.379433
0.658256
0.62348
0.698386
0.565159
0.38132
0.386851
0.407063
0.695923
0.687333
0.430932
0.654815
0.302282
0.644175
0.682827
0.404063
0.61753
0.66733
0.625336
0.375195
0.399972
0.335611
0.689187
0.702412
0.621103
0.523546
0.682902
0.381716
0.636751
0.677177
0.677335
0.373738
0.633615
0.396873
0.610499
0.409043
0.676418
0.661882
0.367302
0.688642
0.430041
0.676847
0.64066
0.676563
0.687604
0.417677
0.678267
0.678676
0.677813
0.67744
0.492159
0.677146
0.397901
0.678945
0.404444
0.378257
0.398087
0.342885
0.382592
0.372809
0.702716
0.370664
0.39032
0.658976
0.68918
0.65034
0.41355
0.683905
0.683028
0.678001
0.324484
0.580026
0.681544
0.386112
0.368108
0.381581
0.630844
0.51772
0.387905
0.58774
0.40272
0.677443
0.510589
0.398804
0.480943
0.65242
0.331317
0.67824
0.39655
0.47498
0.379192
0.673304
0.38848
0.652906
0.67721
0.584547
0.420226
0.385799
0.663615
0.706716
0.373026
0.361842
0.67846
0.392085
0.692687
0.37847
0.567141
0.407843
0.681826
0.392264
0.704883
0.377938
0.682476
0.684148
0.694267
0.677154
0.399534
0.377343
0.411528
0.622015
0.676323
0.626991
0.524158
0.39738
0.689795
0.318253
0.646117
0.580445
0.410257
0.395403
0.695148
0.676011
0.3916
0.677692
0.668308
0.695026
0.6979
0.396274
0.639332
0.383022
0.695095
0.377217
0.677996
0.638863
0.639718
0.705231
0.379633
0.711191
0.390824
0.386237
0.679173
0.677203
0.553348
0.675928
0.677136
0.380728
0.694561
0.66935
0.699798
0.364488
0.431849
0.679877
0.375308
0.685544
0.683194
0.66497
0.67728
0.29081
0.451917
0.652201
0.373481
0.657436
0.707406
0.47752
0.658211
0.274442
0.615878
0.694795
0.678373
0.657256
0.395976
0.380632
0.679443
0.663189
0.395969
0.335161
0.391459
0.370076
0.390998
0.406635
0.342534
0.396431
0.678813
0.402647
0.35169
0.686304
0.551391
0.676716
0.400551
0.39494
0.681705
0.472243
0.480844
0.700426
0.37519
0.663206
0.678013
0.616184
0.659236
0.340778
0.685665
0.678306
0.386827
0.380765
0.41016
0.600177
0.615387
0.702525
0.678988
0.678286
0.663162
0.371616
0.686494
0.678354
0.636558
0.389298
0.682425
0.574556
0.364449
0.437712
0.392628
0.389565
0.396446
0.595303
0.669409
0.666542
0.380105
0.394281
0.699655
0.351808
0.686526
0.678716
0.665491
0.678626
0.682349
0.386647
0.391065
0.399793
0.570779
0.384695
0.680628
0.394278
0.680278
0.678209
0.684232
0.357728
0.452931
0.415709
0.683684
0.371906
0.381888
0.677246
0.658801
0.620795
0.678753
0.632624
0.692191
0.382574
0.631459
0.697172
0.539849
0.682309
0.688751
0.69338
0.467921
0.432672
0.701264
0.506704
0.61448
0.379427
0.641056
0.665517
0.40549
0.376374
0.654902
0.515839
0.694276
0.686528
0.394144
0.397558
0.677469
0.384532
0.418314
0.666906
0.641392
0.396379
0.670798
0.677593
0.638457
0.376882
0.596589
0.384058
0.669828
0.695888
0.692033
0.663683
0.677622
0.306082
0.365176
0.676551
0.387919
0.615823
0.395601
0.683553
0.398839
0.649453
0.696714
0.677544
0.381614
0.676614
0.677249
0.381983
0.641948
0.38781
0.705638
0.3822
0.364199
0.391433
0.673199