# vtk DataFile Version 1.0
unstructured grid
ascii
DATASET UNSTRUCTURED_GRID
points 13672 float
0.0796578 -0.059106 0
0.00128732 0.00159165 0
0.00227961 -0.00102548 0
0.0791586 -0.0598787 0
-0.0546216 0.01 0
0.000495206 0.025 0
0.0800549 -0.035 0
0.135172 -0.08 0
-0.0546216 -0.0451168 0
0.000495206 -0.0301168 0
0.0800549 -0.0901168 0
0.135172 -0.135117 0
-0.0546216 -0.0451168 -0.00551168
0.000495206 -0.0301168 -0.00551168
0.0800549 -0.0901168 -0.00551168
0.135172 -0.135117 -0.00551168
0.135172 -0.08 -0.00551168
0.0800549 -0.035 -0.00551168
0.000495206 0.025 -0.00551168
-0.0546216 0.01 -0.00551168
0.00128732 0.00159165 -0.00551168
0.00227961 -0.00102548 -0.00551168
0.0791586 -0.0598787 -0.00551168
0.0796578 -0.059106 -0.00551168
0.00165953 -0.000990923 0
0.00119576 -0.000874076 0
0.000866021 -0.000641801 0
0.000645147 -0.000349912 0
0.00052235 -1.7281e-05 0
0.00049972 0.000348016 0
0.000601632 0.000737716 0
0.000861774 0.0011403 0
0.00157235 0.00183217 0
0.00188647 0.00206725 0
0.00222612 0.00230203 0
0.00258713 0.00254351 0
0.00296826 0.00279524 0
0.00337118 0.00305664 0
0.00379785 0.00332658 0
0.00425045 0.00360349 0
0.00473139 0.00388521 0
0.0052432 0.00416895 0
0.0057881 0.00445204 0
0.00636753 0.00473281 0
0.00698281 0.00500961 0
0.00763526 0.00528058 0
0.00832616 0.00554366 0
0.00905691 0.00579603 0
0.00982918 0.00603333 0
0.0106445 0.00625033 0
0.0115038 0.00644128 0
0.0124073 0.00660297 0
0.0133543 0.00673414 0
0.0143444 0.00683382 0
0.0153769 0.00690031 0
0.0164512 0.00693173 0
0.0175666 0.00692547 0
0.0187219 0.00687822 0
0.0199156 0.00678477 0
0.0211454 0.00663864 0
0.0224084 0.00643275 0
0.0237018 0.00616676 0
0.0250249 0.00584739 0
0.026375 0.00547298 0
0.0277479 0.00503752 0
0.0291386 0.00453545 0
0.0305433 0.0039653 0
0.0319572 0.0033256 0
0.0333681 0.00260019 0
0.034775 0.00179799 0
0.0361793 0.000930615 0
0.0375798 3.12222e-06 0
0.0389689 -0.000988429 0
0.0403357 -0.00205109 0
0.041675 -0.00318283 0
0.0429849 -0.00437751 0
0.0442643 -0.00562904 0
0.0455126 -0.00693089 0
0.0467314 -0.00827518 0
0.0479204 -0.00965638 0
0.0490661 -0.0110799 0
0.0501515 -0.0125519 0
0.0511696 -0.0140695 0
0.0521492 -0.0156071 0
0.0531202 -0.0171411 0
0.0540851 -0.0186663 0
0.0550431 -0.0201798 0
0.0559923 -0.0216793 0
0.0569311 -0.0231626 0
0.0578582 -0.0246273 0
0.0587723 -0.0260715 0
0.0596721 -0.027493 0
0.0605563 -0.02889 0
0.0614241 -0.0302609 0
0.0622742 -0.0316042 0
0.063106 -0.0329183 0
0.0639186 -0.034202 0
0.0647113 -0.0354543 0
0.0654835 -0.0366743 0
0.0662345 -0.0378613 0
0.0669642 -0.0390145 0
0.0676726 -0.0401333 0
0.0683597 -0.0412172 0
0.0690246 -0.0422665 0
0.0696662 -0.0432819 0
0.0702841 -0.0442636 0
0.0708793 -0.0452111 0
0.0714538 -0.0461237 0
0.072009 -0.047001 0
0.0725452 -0.0478434 0
0.0730611 -0.0486524 0
0.073556 -0.0494294 0
0.0740291 -0.0501756 0
0.0744812 -0.0508916 0
0.0749138 -0.0515773 0
0.0753285 -0.0522331 0
0.0757266 -0.0528592 0
0.076109 -0.0534564 0
0.0764753 -0.0540264 0
0.0768243 -0.054571 0
0.0771553 -0.0550919 0
0.0774679 -0.0555901 0
0.0777617 -0.0560669 0
0.0780369 -0.056523 0
0.0782958 -0.0569578 0
0.0785421 -0.0573703 0
0.0787786 -0.0577603 0
0.0790073 -0.0581279 0
0.0792295 -0.058474 0
0.0794462 -0.0587995 0
0.0798803 -0.0594162 0
0.0800272 -0.0596588 0
0.0800357 -0.0598891 0
0.0799275 -0.0600784 0
0.0797205 -0.0601773 0
0.0794593 -0.0601051 0
0.0789155 -0.0596491 0
0.0786707 -0.0593963 0
0.0784111 -0.0591319 0
0.0781372 -0.0588542 0
0.0778566 -0.0585548 0
0.0775715 -0.0582308 0
0.0772803 -0.0578828 0
0.0769832 -0.0575099 0
0.0766822 -0.0571097 0
0.0763801 -0.0566796 0
0.0760759 -0.0562196 0
0.0757623 -0.0557337 0
0.0754359 -0.0552232 0
0.0750951 -0.0546879 0
0.0747379 -0.054128 0
0.0743626 -0.0535435 0
0.0739688 -0.0529338 0
0.0735559 -0.0522981 0
0.0731238 -0.0516357 0
0.0726718 -0.050946 0
0.0721991 -0.0502288 0
0.0717046 -0.049484 0
0.0711872 -0.0487117 0
0.0706461 -0.047912 0
0.0700804 -0.0470849 0
0.0694892 -0.0462308 0
0.0688718 -0.0453499 0
0.0682271 -0.0444431 0
0.0675544 -0.043511 0
0.0668527 -0.0425546 0
0.0661215 -0.0415748 0
0.06536 -0.040573 0
0.0645676 -0.0395504 0
0.0637439 -0.0385087 0
0.0628887 -0.0374493 0
0.062002 -0.0363741 0
0.0610838 -0.0352847 0
0.0601345 -0.0341831 0
0.0591547 -0.033071 0
0.0581456 -0.0319502 0
0.0571083 -0.0308224 0
0.0560444 -0.0296893 0
0.0549562 -0.028552 0
0.053845 -0.0274126 0
0.0527113 -0.0262746 0
0.051554 -0.0251427 0
0.0503724 -0.0240222 0
0.0491675 -0.0229164 0
0.047941 -0.0218282 0
0.0466955 -0.0207597 0
0.0454337 -0.0197126 0
0.0441592 -0.0186878 0
0.0428751 -0.0176863 0
0.0415841 -0.0167097 0
0.0402878 -0.0157609 0
0.0389879 -0.0148428 0
0.0376864 -0.0139575 0
0.0363853 -0.013107 0
0.0350871 -0.0122931 0
0.0337942 -0.0115164 0
0.0325095 -0.0107772 0
0.0312357 -0.0100756 0
0.0299758 -0.00941024 0
0.0287337 -0.00877784 0
0.0275126 -0.00817571 0
0.0263139 -0.00760375 0
0.0251376 -0.00706528 0
0.0239829 -0.0065649 0
0.0228537 -0.00609619 0
0.0217522 -0.00565563 0
0.0206795 -0.00524226 0
0.0196364 -0.00485507 0
0.0186233 -0.00449318 0
0.0176408 -0.00415577 0
0.016689 -0.00384204 0
0.0157682 -0.00355115 0
0.0148783 -0.00328218 0
0.0140192 -0.00303468 0
0.0131906 -0.00280795 0
0.0123925 -0.00260016 0
0.0116246 -0.00241012 0
0.0108864 -0.00223769 0
0.0101774 -0.00208212 0
0.00949701 -0.00194206 0
0.00884483 -0.0018163 0
0.0082202 -0.0017039 0
0.00762247 -0.00160391 0
0.00705097 -0.00151528 0
0.006505 -0.00143697 0
0.0059838 -0.00136806 0
0.00548662 -0.00130772 0
0.00501265 -0.00125519 0
0.00456114 -0.00120954 0
0.00413136 -0.00116914 0
0.00372257 -0.00113251 0
0.00333398 -0.00109853 0
0.00296466 -0.00106798 0
0.00261363 -0.0010431 0
-0.052721 -0.0445996 0
-0.0508204 -0.0440823 0
-0.0489199 -0.0435651 0
-0.0470193 -0.0430478 0
-0.0451187 -0.0425306 0
-0.0432181 -0.0420134 0
-0.0413175 -0.0414961 0
-0.039417 -0.0409789 0
-0.0375164 -0.0404616 0
-0.0356158 -0.0399444 0
-0.0337152 -0.0394271 0
-0.0318146 -0.0389099 0
-0.0299141 -0.0383927 0
-0.0280135 -0.0378754 0
-0.0261129 -0.0373582 0
-0.0242123 -0.0368409 0
-0.0223117 -0.0363237 0
-0.0204112 -0.0358065 0
-0.0185106 -0.0352892 0
-0.01661 -0.034772 0
-0.0147094 -0.0342547 0
-0.0128088 -0.0337375 0
-0.0109083 -0.0332202 0
-0.00900769 -0.032703 0
-0.00710711 -0.0321858 0
-0.00520653 -0.0316685 0
-0.00330595 -0.0311513 0
-0.00140537 -0.030634 0
0.00190689 -0.0299614 0
0.00332271 -0.0298498 0
0.00474133 -0.0297825 0
0.00616136 -0.0297597 0
0.0075814 -0.0297814 0
0.00900007 -0.0298477 0
0.010416 -0.0299583 0
0.0118278 -0.0301127 0
0.0132342 -0.0303103 0
0.0146339 -0.0305504 0
0.0160259 -0.0308322 0
0.0174091 -0.0311546 0
0.0187824 -0.0315166 0
0.020145 -0.031917 0
0.0214961 -0.0323546 0
0.0228351 -0.032828 0
0.0241613 -0.0333361 0
0.0254744 -0.0338774 0
0.0267738 -0.0344507 0
0.0280592 -0.0350545 0
0.0293306 -0.0356877 0
0.0305875 -0.0363488 0
0.0318301 -0.0370367 0
0.0330581 -0.0377501 0
0.0342717 -0.0384879 0
0.0354708 -0.0392489 0
0.0366556 -0.0400321 0
0.0378262 -0.0408363 0
0.0389828 -0.0416607 0
0.0401254 -0.0425042 0
0.0412543 -0.0433659 0
0.0423698 -0.0442451 0
0.043472 -0.0451408 0
0.0445612 -0.0460523 0
0.0456375 -0.0469789 0
0.0467013 -0.0479199 0
0.0477529 -0.0488746 0
0.0487923 -0.0498424 0
0.04982 -0.0508227 0
0.0508362 -0.051815 0
0.051841 -0.0528187 0
0.0528348 -0.0538333 0
0.0538178 -0.0548584 0
0.0547903 -0.0558935 0
0.0557524 -0.0569382 0
0.0567045 -0.0579922 0
0.0576467 -0.0590549 0
0.0585792 -0.0601261 0
0.0595024 -0.0612055 0
0.0604163 -0.0622926 0
0.0613212 -0.0633873 0
0.0622174 -0.0644891 0
0.0631049 -0.0655979 0
0.0639841 -0.0667134 0
0.064855 -0.0678353 0
0.0657179 -0.0689633 0
0.0665729 -0.0700974 0
0.0674202 -0.0712372 0
0.06826 -0.0723826 0
0.0690925 -0.0735333 0
0.0699178 -0.0746892 0
0.070736 -0.0758501 0
0.0715473 -0.0770159 0
0.0723518 -0.0781863 0
0.0731498 -0.0793612 0
0.0739412 -0.0805405 0
0.0747264 -0.081724 0
0.0755053 -0.0829116 0
0.0762781 -0.0841033 0
0.0770449 -0.0852987 0
0.0778059 -0.0864979 0
0.0785611 -0.0877007 0
0.0793108 -0.088907 0
0.0814681 -0.0912706 0
0.0828814 -0.0924245 0
0.0842946 -0.0935783 0
0.0857079 -0.0947322 0
0.0871211 -0.095886 0
0.0885344 -0.0970399 0
0.0899476 -0.0981937 0
0.0913609 -0.0993476 0
0.0927741 -0.100501 0
0.0941874 -0.101655 0
0.0956006 -0.102809 0
0.0970139 -0.103963 0
0.0984272 -0.105117 0
0.0998404 -0.106271 0
0.101254 -0.107424 0
0.102667 -0.108578 0
0.10408 -0.109732 0
0.105493 -0.110886 0
0.106907 -0.11204 0
0.10832 -0.113194 0
0.109733 -0.114348 0
0.111146 -0.115501 0
0.11256 -0.116655 0
0.113973 -0.117809 0
0.115386 -0.118963 0
0.116799 -0.120117 0
0.118213 -0.121271 0
0.119626 -0.122424 0
0.121039 -0.123578 0
0.122452 -0.124732 0
0.123866 -0.125886 0
0.125279 -0.12704 0
0.126692 -0.128194 0
0.128105 -0.129348 0
0.129519 -0.130501 0
0.130932 -0.131655 0
0.132345 -0.132809 0
0.133758 -0.133963 0
0.135172 -0.133216 0
0.135172 -0.131316 0
0.135172 -0.129415 0
0.135172 -0.127514 0
0.135172 -0.125614 0
0.135172 -0.123713 0
0.135172 -0.121813 0
0.135172 -0.119912 0
0.135172 -0.118012 0
0.135172 -0.116111 0
0.135172 -0.11421 0
0.135172 -0.11231 0
0.135172 -0.110409 0
0.135172 -0.108509 0
0.135172 -0.106608 0
0.135172 -0.104708 0
0.135172 -0.102807 0
0.135172 -0.100906 0
0.135172 -0.0990058 0
0.135172 -0.0971052 0
0.135172 -0.0952046 0
0.135172 -0.0933041 0
0.135172 -0.0914035 0
0.135172 -0.0895029 0
0.135172 -0.0876023 0
0.135172 -0.0857017 0
0.135172 -0.0838012 0
0.135172 -0.0819006 0
0.133758 -0.0788462 0
0.132345 -0.0776923 0
0.130932 -0.0765385 0
0.129519 -0.0753846 0
0.128105 -0.0742308 0
0.126692 -0.0730769 0
0.125279 -0.0719231 0
0.123866 -0.0707692 0
0.122452 -0.0696154 0
0.121039 -0.0684615 0
0.119626 -0.0673077 0
0.118213 -0.0661538 0
0.116799 -0.065 0
0.115386 -0.0638462 0
0.113973 -0.0626923 0
0.11256 -0.0615385 0
0.111146 -0.0603846 0
0.109733 -0.0592308 0
0.10832 -0.0580769 0
0.106907 -0.0569231 0
0.105493 -0.0557692 0
0.10408 -0.0546154 0
0.102667 -0.0534615 0
0.101254 -0.0523077 0
0.0998404 -0.0511538 0
0.0984272 -0.05 0
0.0970139 -0.0488462 0
0.0956006 -0.0476923 0
[...]
CELL_DATA 13116
SCALARS rho float
LOOKUP_TABLE default
0.55223
0.660746
0.376197
0.716993
0.70523
0.678277
0.368669
0.706889
0.531033
0.71129
0.365139
0.37843
0.705492
0.396739
0.374675
0.678476
0.520006
0.703835
0.679119
0.369594
0.55751
0.391363
0.414351
0.705512
0.613798
0.628604
0.711384
0.458069
0.609798
0.651338
0.673944
0.405841
0.559546
0.452149
0.364895
0.555007
0.669705
0.67406
0.676531
0.683344
0.679188
0.711114
0.429123
0.398838
0.677868
0.679067
0.635281
0.683695
0.376755
0.527437
0.701233
0.446289
0.373839
0.512838
0.558135
0.589372
0.405755
0.701263
0.540809
0.379766
0.400469
0.712109
0.650078
0.676323
0.674551
0.395336
0.684182
0.677678
0.686227
0.674858
0.375348
0.590739
0.391099
0.408015
0.672944
0.373104
0.645539
0.698216
0.363185
0.700974
0.68329
0.635736
0.705224
0.68412
0.668379
0.448367
0.372785
0.675597
0.662473
0.388728
0.392083
0.662584
0.707681
0.668595
0.654039
0.602513
0.616522
0.673604
0.673325
0.603081
0.686642
0.587699
0.679036
0.405515
0.615771
0.410414
0.358019
0.476921
0.431982
0.62069
0.505883
0.629305
0.600576
0.687643
0.701592
0.684724
0.384199
0.389175
0.693612
0.686916
0.678333
0.391297
0.686838
0.421462
0.661787
0.442899
0.374253
0.514407
0.423228
0.529053
0.69389
0.686744
0.505582
0.385253
0.486197
0.587339
0.670846
0.69043
0.685674
0.686584
0.628541
0.638878
0.512806
0.6292
0.646075
0.396058
0.363524
0.626344
0.702985
0.696118
0.548033
0.683306
0.683447
0.390007
0.707577
0.669792
0.418326
0.692575
0.673658
0.676165
0.704579
0.36569
0.702836
0.418003
0.388637
0.709391
0.658469
0.703334
0.366089
0.467753
0.423594
0.670901
0.381425
0.497479
0.683315
0.415926
0.376988
0.391639
0.624936
0.677419
0.378228
0.435644
0.526527
0.670411
0.677649
0.538434
0.384562
0.67909
0.601753
0.466625
0.639871
0.623932
0.675218
0.422477
0.618763
0.677936
0.708722
0.678862
0.660984
0.410457
0.40495
0.626784
0.508976
0.408152
0.696862
0.67894
0.455061
0.613095
0.398
0.393216
0.373789
0.681507
0.419076
0.372889
0.385357
0.388762
0.367054
0.676123
0.658028
0.434031
0.404415
0.683771
0.499598
0.378437
0.55606
0.711469
0.643585
0.462985
0.683499
0.390118
0.716324
0.394562
0.674836
0.580374
0.673309
0.6754
0.675448
0.374711
0.435002
0.676281
0.672634
0.67768
0.671206
0.675311
0.698715
0.380314
0.695305
0.708172
0.673451
0.37014
0.379837
0.680407
0.692629
0.674526
0.688461
0.53812
0.691804
0.364803
0.39813
0.398316
0.398773
0.597506
0.708521
0.644127
0.36389
0.67617
0.387718
0.434071
0.618123
0.394976
0.630727
0.705903
0.672237
0.700863
0.37613
0.67216
0.688881
0.6735
0.69025
0.358712
0.372429
0.423587
0.582453
0.391237
0.389622
0.330986
0.302894
0.668095
0.376282
0.668498
0.705471
0.378417
0.374101
0.385388
0.45796
0.366149
0.674057
0.587733
0.623062
0.394951
0.681146
0.588347
0.402634
0.378224
0.676989
0.692474
0.678752
0.381253
0.678205
0.417582
0.68583
0.710998
0.693948
0.709672
0.4256
0.683345
0.392264
0.679157
0.711645
0.677442
0.36689
0.330243
0.708644
0.38473
0.650185
0.711931
0.369061
0.695339
0.704942
0.378475
0.675962
0.707688
0.385552
0.695572
0.447471
0.57558
0.683283
0.455118
0.692851
0.365303
0.703295
0.341822
0.675628
0.577455
0.709814
0.455865
0.357522
0.669796
0.392046
0.695446
0.608338
0.425266
0.6709
0.386284
0.387094
0.691812
0.558751
0.675705
0.373782
0.41827
0.695035
0.705293
0.362613
0.703123
0.391186
0.408914
0.68451
0.688366
0.462652
0.384694
0.690662
0.674215
0.678526
0.674716
0.69932
0.548163
0.330272
0.394224
0.377378
0.678328
0.377444
0.524386
0.373538
0.404555
0.351196
0.472773
0.142248
0.393446
0.670861
0.334301
0.70355
0.611363
0.680599
0.667087
0.696356
0.388203
0.370332
0.416178
0.338345
0.692143
0.596254
0.679515
0.611248
0.647924
0.624525
0.633674
0.625477
0.648325
0.697511
0.700536
0.677623
0.404504
0.463185
0.548186
0.388991
0.583819
0.58762
0.37413
0.684211
0.672369
0.427905
0.366183
0.371913
0.384706
0.636404
0.371901
0.422553
0.682359
0.396893
0.58008
0.386093
0.678152
0.681723
0.350015
0.386775
0.691325
0.45933
0.38373
0.385385
0.380973
0.432046
0.372773
0.367269
0.39399
0.434372
0.370659
0.584059
0.371782
0.667295
0.385267
0.448302
0.504083
0.401935
0.387348
0.401213
0.679565
0.442263
0.648454
0.479249
0.393579
0.615692
0.665006
0.447682
0.694906
0.625548
0.623901
0.37332
0.673343
0.391478
0.700896
0.673788
0.425019
0.381842
0.60035
0.343677
0.457308
0.580431
0.356854
0.691509
0.648756
0.376123
0.372652
0.380044
0.492948
0.376293
0.381535
0.379112
0.392481
0.712828
0.713894
0.465016
0.606409
0.485507
0.618782
0.352344
0.380707
0.535665
0.425895
0.684868
0.291337
0.372623
0.501334
0.67729
0.653253
0.564789
0.367593
0.380418
0.570643
0.707153
0.675214
0.566613
0.621251
0.596392
0.371413
0.680643
0.575696
0.675173
0.309226
0.369766
0.686599
0.709228
0.666001
0.71195
0.655629
0.628425
0.703367
0.675897
0.680335
0.379211
0.677038
0.337345
0.397784
0.372515
0.71565
0.679354
0.308779
0.667381
0.626843
0.367665
0.675814
0.691578
0.694061
0.457536
0.380362
0.696488
0.377114
0.370918
0.383688
0.372758
0.682538
0.384073
0.715488
0.377024
0.661703
0.699663
0.684497
0.705717
0.38338
0.3747
0.68169
0.717678
0.658524
0.712521
0.707951
0.497896
0.377266
0.430371
0.679663
0.533321
0.369944
0.458697
0.399304
0.68142
0.680084
0.309124
0.39219
0.665105
0.465987
0.671732
0.66909
0.42088
0.391028
0.654058
0.67245
0.420513
0.65201
0.658054
0.680744
0.3824
0.671215
0.410336
0.673171
0.673813
0.384042
0.365948
0.390723
0.673368
0.430036
0.36356
0.390114
0.676157
0.69083
0.363246
0.391251
0.381255
0.676112
0.392274
0.677745
0.395445
0.594848
0.711579
0.388389
0.417214
0.415889
0.49829
0.436544
0.641237
0.381921
0.378292
0.677514
0.38182
0.680977
0.646224
0.673418
0.375649
0.685559
0.706005
0.708303
0.680185
0.663442
0.684158
0.39867
0.67504
0.436535
0.678563
0.356969
0.699793
0.510594
0.368962
0.674336
0.701141
0.386545
0.628968
0.390122
0.373305
0.682157
0.679127
0.385096
0.39649
0.363859
0.407629
0.677692
0.705611
0.384972
0.377199
0.69552
0.689971
0.59672
0.70536
0.679831
0.366442
0.709927
0.430042
0.701021
0.390828
0.600595
0.486137
0.682895
0.676993
0.582216
0.343193
0.450688
0.678958
0.609311
0.518968
0.704834
0.397437
0.686226
0.707194
0.364318
0.460662
0.70636
0.366105
0.674624
0.677356
0.325577
0.688427
0.652176
0.383372
0.689794
0.422493
0.659451
0.378782
0.681132
0.64803
0.448447
0.676454
0.703339
0.697861
0.628268
0.681588
0.587761
0.368967
0.420042
0.37264
0.406391
0.670297
0.559263
0.68787
0.702251
0.377527
0.386764
0.685741
0.712446
0.692027
0.705857
0.362245
0.700746
0.707952
0.368407
0.3868
0.693978
0.68015
0.663977
0.40341
0.594686
0.318104
0.689017
0.643654
0.675291
0.668313
0.370943
0.679038
0.668351
0.706764
0.677958
0.679058
0.432224
0.698801
0.39375
0.623021
0.709609
0.467739
0.650453
0.675493
0.698965
0.405299
0.405875
0.588974
0.659115
0.3724
0.386766
0.392744
0.373779
0.663911
0.685753
0.675327
0.303969
0.370852
0.68595
0.691008
0.386157
0.384188
0.470263
0.667687
0.678988
0.674042
0.696692
0.392244
0.372154
0.671428
0.417839
0.373555
0.380064
0.678233
0.315214
0.391988
0.581499
0.680198
0.625126
0.677341
0.678814
0.387188
0.380145
0.391769
0.478539
0.44149
0.395102
0.675995
0.696524
0.659895
0.681261
0.415843
0.374131
0.711695
0.370758
0.678777
0.64736
0.673941
0.38515
0.379766
0.653359
0.67415
0.563823
0.384682
0.67066
0.677676
0.576973
0.696321
0.704695
0.671756
0.621771
0.363922
0.678818
0.67445
0.616658
0.689599
0.670385
0.631076
0.671872
0.689288
0.378274
0.371787
0.373224
0.6742
0.509027
0.370679
0.685331
0.696383
0.372224
0.637013
0.324825
0.641789
0.471633
0.376611
0.712613
0.705063
0.370497
0.552761
0.674236
0.414703
0.66893
0.398938
0.409043
0.620137
0.614212
0.504656
0.679121
0.392821
0.702586
0.373733
0.396351
0.680766
0.369015
0.607368
0.402777
0.635895
0.602197
0.671734
0.655992
0.390116
0.378511
0.608317
0.431354
0.691733
0.462462
0.594928
0.678141
0.706568
0.445794
0.617657
0.623132
0.709002
0.685421
0.34549
0.368571
0.54513
0.620631
0.709573
0.377621
0.678902
0.565758
0.415693
0.390617
0.679221
0.668775
0.671463
0.673215
0.586547
0.687969
0.676664
0.677279
0.401221
0.666659
0.467768
0.689637
0.679363
0.300365
0.634048
0.703109
0.378275
0.381968
0.383047
0.67043
0.366162
0.620086
0.695149
0.668348
0.364357
0.67091
0.407713
0.594226
0.676087
0.675035
0.674177
0.676058
0.625093
0.681865
0.528402
0.677945
0.378784
0.678163
0.684248
0.411379
0.67229
0.687006
0.424401
0.39309
0.417154
0.694581
0.391343
0.672186
0.389205
0.705819
0.38278
0.486265
0.403521
0.70035
0.705003
0.536
0.269777
0.624872
0.676242
0.385938
0.595826
0.714395
0.394555
0.592116
0.673796
0.711106
0.679221
0.423721
0.474366
0.693848
0.679873
0.624716
0.388789
0.402296
0.672873
0.671184
0.672417
0.671027
0.551764
0.687249
0.546897
0.686582
0.389583
0.408544
0.671132
0.703867
0.676285
0.398649
0.678336
0.5594
0.602479
0.376084
0.419313
0.703675
0.719108
0.562705
0.339314
0.680748
0.672534
0.366751
0.616799
0.696443
0.365713
0.443595
0.390254
0.600015
0.39352
0.378551
0.674988
0.47035
0.709848
0.643228
0.368403
0.373461
0.710924
0.373608
0.372672
0.674138
0.407852
0.354057
0.596071
0.658176
0.686067
0.37195
0.304919
0.363877
0.647864
0.409763
0.686764
0.37458
0.68605
0.618605
0.676757
0.627798
0.677982
0.64132
0.679118
0.705224
0.689742
0.382011
0.393999
0.669986
0.676754
0.508407
0.613349
0.563965
0.676435
0.614829
0.352774
0.685694
0.713531
0.675436
0.374343
0.680133
0.378688
0.684274
0.500534
0.701231
0.680385
0.37663
0.692317
0.37821
0.431797
0.651609
0.378071
0.692067
0.670467
0.690262
0.385596
0.68222
0.379553
0.385398
0.403458
0.38427
0.605756
0.384291
0.632584
0.675631
0.342618
0.422749
0.492891
0.58669
0.63706
0.625934
0.376664
0.388122
0.362587
0.403388
0.267525
0.636261
0.634746
0.447595
0.675654
0.694519
0.390198
0.713462
0.690354
0.675795
0.395746
0.67299
0.680122
0.698855
0.689768
0.374362
0.687787
0.700451
0.680847
0.680201
0.676988
0.387246
0.410874
0.683419
0.54235
0.381458
0.680325
0.417977
0.575294
0.629095
0.657144
0.661379
0.387083
0.611488
0.401813
0.37854
0.696072
0.697399
0.703572
0.694687
0.66083
0.385821
0.707043
0.387625
0.507251
0.708705
0.673259
0.693203
0.374377
0.393998
0.708927
0.394691
0.695708
0.658924
0.434564
0.389233
0.684705
0.405281
0.680268
0.695227
0.656725
0.404791
0.370761
0.510931
0.5214
0.62433
0.478681
0.677641
0.62567
0.670179
0.670162
0.687313
0.372947
0.392871
0.697841
0.676943
0.621717
0.467252
0.407145
0.677495
0.384842
0.679848
0.622404
0.324599
0.691562
0.363488
0.64587
0.376246
0.704136
0.376107
0.683593
0.677126
0.348535
0.664766
0.658486
0.336309
0.675237
0.6787
0.56198
0.400724
0.368028
0.472124
0.706526
0.60252
0.379977
0.589844
0.690116
0.677496
0.354738
0.611751
0.665763
0.465023
0.677606
0.679319
0.295799
0.688745
0.673694
0.376345
0.601395
0.383918
0.639212
0.388788
0.408889
0.708826
0.380177
0.385164
0.389949
0.683346
0.656424
0.407584
0.680772
0.363396
0.665151
0.378678
0.660697
0.374005
0.678423
0.683862
0.647669
0.675144
0.556749
0.677112
0.675781
0.397079
0.646994
0.653686
0.488515
0.686539
0.498111
0.40818
0.7067
0.381204
0.579084
0.315242
0.679341
0.381852
0.421866
0.705285
0.679182
0.3749
0.688123
0.696811
0.670381
0.705257
0.673168
0.364567
0.712472
0.373129
0.418909
0.664029
0.697695
0.710045
0.667548
0.394702
0.389047
0.362685
0.662064
0.675518
0.366467
0.670605
0.394864
0.387792
0.373993
0.665729
0.391139
0.708924
0.69037
0.645914
0.678143
0.688789
0.577124
0.639765
0.439821
0.413458
0.374551
0.673152
0.672916
0.399832
0.635635
0.59695
0.642036
0.423784
0.4023
0.629714
0.278503
0.622825
0.594788
0.37257
0.676441
0.665796
0.371046
0.685213
0.371421
0.687438
0.710504
0.678398
0.38781
0.47584
0.690325
0.303631
0.44661
0.677897
0.312819
0.676685
0.685214
0.630262
0.697351
0.337282
0.674198
0.695327
0.679645
0.365569
0.697226
0.381772
0.397396
0.66995
0.679339
0.675489
0.236458
0.680924
0.646289
0.672899
0.390006
0.388834
0.38341
0.692364
0.366264
0.379279
0.383352
0.592535
0.373197
0.299218
0.448821
0.686511
0.37203
0.675156
0.676022
0.682592
0.384175
0.686871
0.663068
0.675619
0.421558
0.677798
0.363273
0.381788
0.681872
0.374769
0.630831
0.689149
0.671597
0.373632
0.330704
0.387219
0.565703
0.671157
0.23465
0.674936
0.683045
0.698459
0.390763
0.388711
0.345637
0.600669
0.375731
0.67026
0.613926
0.67633
0.673972
0.360046
0.63091
0.40001
0.562225
0.660978
0.712279
0.571429
0.482419
0.677386
0.625656
0.698925
0.385023
0.379063
0.40094
0.700636
0.539208
0.673276
0.373209
0.404546
0.699512
0.686686
0.674792
0.374584
0.683643
0.563879
0.568132
0.605167
0.432688
0.373581
0.295105
0.679419
0.675691
0.678477
0.616536
0.345117
0.691435
0.670972
0.675747
0.675407
0.691163
0.713333
0.677949
0.695764
0.703111
0.425322
0.688589
0.695881
0.677688
0.691124
0.679021
0.581207
0.369171
0.413303
0.619987
0.383814
0.339879
0.68273
0.37485
0.64917
0.685218
0.657837
0.676257
0.426339
0.684953
0.40034
0.404271
0.678257
0.686014
0.681515
0.381897
0.701677
0.679304
0.616207
0.678779
0.388191
0.677412
0.709389
0.666678
0.411294
0.70227
0.37354
0.718752
0.376833
0.36967
0.526129
0.45692
0.712504
0.701988
0.679086
0.383445
0.677247
0.409849
0.377584
0.648511
0.494788
0.388807
0.67911
0.39022
0.517398
0.676645
0.635757
0.660679
0.494904
0.603775
0.664995
0.678979
0.578359
0.703443
0.541781
0.711618
0.611993
0.656325
0.413802
0.364978
0.456335
0.694779
0.423765
0.67475
0.6887
0.609555
0.679228
0.523633
0.690728
0.678853
0.389167
0.687131
0.606745
0.49382
0.610698
0.70837
0.643014
0.676897
0.391152
0.37833
0.679702
0.542327
0.54924
0.689916
0.683859
0.681541
0.709176
0.710355
0.627639
0.622654
0.712199
0.383003
0.397149
0.385304
0.347319
0.672253
0.468057
0.542969
0.691079
0.684177
0.421218
0.677528
0.717108
0.382934
0.379016
0.672438
0.690518
0.43602
0.383498
0.386613
0.670199
0.627798
0.415556
0.374784
0.372237
0.40742
0.351494
0.384417
0.713366
0.68392
0.683875
0.386967
0.65896
0.611777
0.619255
0.338824
0.364673
0.64622
0.671018
0.390017
0.678066
0.371154
0.704908
0.425642
0.681787
0.380474
0.660805
0.704758
0.386076
0.569708
0.386293
0.712811
0.409741
0.615747
0.416028
0.514343
0.363596
0.606582
0.385675
0.674938
0.67521
0.617471
0.67678
0.334393
0.660943
0.676389
0.703023
0.609274
0.666228
0.366335
0.395761
0.399565
0.707695
0.290974
0.702745
0.555596
0.697476
0.710946
0.465815
0.69845
0.376455
0.401302
0.380936
0.519076
0.523848
0.683092
0.392862
0.388478
0.68019
0.381579
0.40305
0.557461
0.37349
0.390338
0.414284
0.712549
0.667179
0.620482
0.412527
0.657423
0.679851
0.41464
0.324934
0.668735
0.678655
0.56593
0.520884
0.415821
0.364638
0.390553
0.678265
0.614813
0.530399
0.693509
0.395093
0.576589
0.364078
0.674464
0.702421
0.368511
0.397058
0.621761
0.550542
0.705107
0.702963
0.706678
0.689114
0.709071
0.384942
0.390289
0.403491
0.357874
0.54421
0.673873
0.669138
0.359508
0.374535
0.459073
0.444085
0.681535
0.634801
0.386177
0.309123
0.685055
0.421143
0.663468
0.701511
0.650799
0.677211
0.556579
0.370782
0.380453
0.616555
0.369407
0.42566
0.406743
0.676631
0.680027
0.342166
0.372296
0.670896
0.385429
0.681464
0.707663
0.373325
0.380364
0.380278
0.684869
0.384427
0.670432
0.690594
0.609949
0.379062
0.537547
0.697682
0.672034
0.368771
0.669277
0.622417
0.46241
0.693259
0.716858
0.369515
0.378256
0.652108
0.39104
0.357799
0.665098
0.347774
0.682274
0.69131
0.707068
0.630749
0.703641
0.684594
0.676999
0.363917
0.415985
0.632929
0.682867
0.475705
0.713147
0.327945
0.688818
0.662362
0.578396
0.658773
0.396575
0.466919
0.67844
0.699838
0.608512
0.705017
0.682731
0.671817
0.703808
0.670583
0.666056
0.651328
0.686194
0.67119
0.677173
0.352653
0.639263
0.396922
0.684195
0.688636
0.698157
0.64003
0.697067
0.376566
0.392506
0.308485
0.367963
0.648694
0.375816
0.396446
0.684644
0.403116
0.695055
0.391221
0.665105
0.688211
0.378877
0.384297
0.327208
0.693111
0.413615
0.682203
0.692058
0.386503
0.643221
0.565916
0.353117
0.449908
0.405682
0.698989
0.378791
0.685892
0.519909
0.383491
0.678446
0.679443
0.706764
0.370954
0.583031
0.41001
0.661074
0.677115
0.684727
0.392391
0.68184
0.690186
0.623517
0.413488
0.693001
0.370501
0.371347
0.676889
0.463201
0.710203
0.407587
0.392031
0.451487
0.633052
0.433689
0.293316
0.37626
0.48743
0.673259
0.690706
0.391884
0.60539
0.683385
0.566661
0.427149
0.319114
0.568336
0.370251
0.362267
0.678041
0.376051
0.3712
0.696346
0.714841
0.381517
0.702556
0.383277
0.672221
0.448446
0.650148
0.674945
0.69845
0.676229
0.381787
0.366029
0.406795
0.677728
0.653991
0.600984
0.551733
0.373803
0.305184
0.678065
0.364368
0.682868
0.386159
0.675053
0.679202
0.38223
0.399034
0.372143
0.371221
0.405797
0.620024
0.651808
0.381101
0.687902
0.646667
0.368998
0.382344
0.714942
0.386979
0.687215
0.432941
0.697726
0.665079
0.686613
0.673513
0.376589
0.710303
0.682108
0.715764
0.381498
0.609637
0.608729
0.33389
0.694588
0.643669
0.705238
0.658172
0.709242
0.675379
0.70946
0.677902
0.678943
0.377979
0.706068
0.372125
0.467333
0.677566
0.409011
0.666037
0.606851
0.385146
0.625322
0.379631
0.393301
0.668512
0.597558
0.714209
0.38835
0.657684
0.630731
0.394655
0.384446
0.649255
0.679845
0.382902
0.381764
0.694732
0.714191
0.376922
0.651369
0.706195
0.670175
0.384962
0.370814
0.397245
0.666772
0.372692
0.670185
0.700763
0.678242
0.611728
0.688134
0.392605
0.663177
0.627706
0.704544
0.568102
0.417041
0.365492
0.40393
0.705271
0.693084
0.429906
0.662774
0.305502
0.649486
0.686509
0.398765
0.621394
0.671315
0.631723
0.386045
0.370679
0.335368
0.694672
0.710009
0.62794
0.521067
0.687228
0.386136
0.643987
0.672471
0.682235
0.387464
0.63887
0.386494
0.614054
0.408023
0.680551
0.668572
0.411584
0.693856
0.433791
0.671112
0.646996
0.670226
0.693054
0.420696
0.677801
0.679929
0.680857
0.68157
0.488976
0.672386
0.383042
0.680456
0.400524
0.375918
0.395716
0.403412
0.371835
0.38526
0.709158
0.369463
0.378479
0.666343
0.694479
0.654244
0.415864
0.692794
0.692626
0.676931
0.330401
0.583253
0.68415
0.390566
0.380276
0.366258
0.637599
0.514298
0.373736
0.591574
0.417315
0.673452
0.507827
0.375962
0.48234
0.660342
0.332003
0.680309
0.390252
0.476894
0.37991
0.681751
0.389987
0.659379
0.672626
0.588714
0.424841
0.366101
0.67426
0.713264
0.384059
0.385299
0.677986
0.373461
0.701866
0.387216
0.569361
0.404556
0.684373
0.390638
0.711417
0.37593
0.686254
0.688824
0.700553
0.672186
0.385034
0.419202
0.416048
0.632596
0.683701
0.631322
0.526656
0.388297
0.696902
0.322047
0.651249
0.583429
0.407561
0.389877
0.703161
0.679945
0.413015
0.674248
0.679943
0.702581
0.707132
0.390644
0.646759
0.379571
0.702372
0.373751
0.67571
0.644474
0.654885
0.711805
0.373177
0.718529
0.380536
0.391418
0.681165
0.672359
0.558163
0.680335
0.672203
0.389173
0.704223
0.67752
0.707104
0.386391
0.43614
0.688752
0.376355
0.689563
0.688401
0.668961
0.685074
0.28827
0.457665
0.660522
0.412917
0.662126
0.713854
0.482422
0.664787
0.27298
0.618984
0.704425
0.688462
0.665144
0.368406
0.426047
0.683579
0.667209
0.383056
0.334442
0.388442
0.416825
0.379741
0.417363
0.358399
0.382312
0.683081
0.398583
0.384499
0.693504
0.556114
0.670989
0.403165
0.373082
0.684316
0.477888
0.483729
0.70801
0.376766
0.67248
0.675224
0.62133
0.663353
0.412129
0.691064
0.676199
0.384105
0.371103
0.4083
0.603376
0.621001
0.709248
0.678858
0.683252
0.667401
0.378873
0.69158
0.676388
0.648493
0.368844
0.685259
0.577396
0.371805
0.441942
0.375313
0.40366
0.386208
0.600957
0.677997
0.67142
0.363732
0.391957
0.705883
0.357473
0.692683
0.680156
0.669466
0.68871
0.686394
0.391167
0.407478
0.413203
0.575151
0.379749
0.683574
0.396279
0.68193
0.677739
0.688126
0.362737
0.459039
0.419275
0.688384
0.377445
0.366489
0.682493
0.662869
0.625545
0.678384
0.643104
0.701309
0.369205
0.637052
0.704162
0.537148
0.686934
0.695294
0.701982
0.465128
0.431497
0.708762
0.504423
0.619642
0.384658
0.644762
0.669547
0.410773
0.369625
0.659096
0.52069
0.700815
0.692782
0.379104
0.37055
0.673772
0.388085
0.418201
0.671066
0.650458
0.385986
0.674391
0.673742
0.642221
0.369821
0.602303
0.370186
0.674108
0.701966
0.701002
0.668598
0.674094
0.303635
0.363498
0.682014
0.386277
0.61893
0.387209
0.68768
0.396856
0.656677
0.703798
0.673803
0.392431
0.670378
0.672906
0.362753
0.645753
0.39284
0.714058
0.392211
0.381012
0.387088
0.679415
0.677113
0.325155