# vtk DataFile Version 1.0
unstructured grid
ascii
DATASET UNSTRUCTURED_GRID
points 13672 float
0.0796578 -0.059106 0
0.00128732 0.00159165 0
0.00227961 -0.00102548 0
0.0791586 -0.0598787 0
-0.0546216 0.01 0
0.000495206 0.025 0
0.0800549 -0.035 0
0.135172 -0.08 0
-0.0546216 -0.0451168 0
0.000495206 -0.0301168 0
0.0800549 -0.0901168 0
0.135172 -0.135117 0
-0.0546216 -0.0451168 -0.00551168
0.000495206 -0.0301168 -0.00551168
0.0800549 -0.0901168 -0.00551168
0.135172 -0.135117 -0.00551168
0.135172 -0.08 -0.00551168
0.0800549 -0.035 -0.00551168
0.000495206 0.025 -0.00551168
-0.0546216 0.01 -0.00551168
0.00128732 0.00159165 -0.00551168
0.00227961 -0.00102548 -0.00551168
0.0791586 -0.0598787 -0.00551168
0.0796578 -0.059106 -0.00551168
0.00165953 -0.000990923 0
0.00119576 -0.000874076 0
0.000866021 -0.000641801 0
0.000645147 -0.000349912 0
0.00052235 -1.7281e-05 0
0.00049972 0.000348016 0
0.000601632 0.000737716 0
0.000861774 0.0011403 0
0.00157235 0.00183217 0
0.00188647 0.00206725 0
0.00222612 0.00230203 0
0.00258713 0.00254351 0
0.00296826 0.00279524 0
0.00337118 0.00305664 0
0.00379785 0.00332658 0
0.00425045 0.00360349 0
0.00473139 0.00388521 0
0.0052432 0.00416895 0
0.0057881 0.00445204 0
0.00636753 0.00473281 0
0.00698281 0.00500961 0
0.00763526 0.00528058 0
0.00832616 0.00554366 0
0.00905691 0.00579603 0
0.00982918 0.00603333 0
0.0106445 0.00625033 0
0.0115038 0.00644128 0
0.0124073 0.00660297 0
0.0133543 0.00673414 0
0.0143444 0.00683382 0
0.0153769 0.00690031 0
0.0164512 0.00693173 0
0.0175666 0.00692547 0
0.0187219 0.00687822 0
0.0199156 0.00678477 0
0.0211454 0.00663864 0
0.0224084 0.00643275 0
0.0237018 0.00616676 0
0.0250249 0.00584739 0
0.026375 0.00547298 0
0.0277479 0.00503752 0
0.0291386 0.00453545 0
0.0305433 0.0039653 0
0.0319572 0.0033256 0
0.0333681 0.00260019 0
0.034775 0.00179799 0
0.0361793 0.000930615 0
0.0375798 3.12222e-06 0
0.0389689 -0.000988429 0
0.0403357 -0.00205109 0
0.041675 -0.00318283 0
0.0429849 -0.00437751 0
0.0442643 -0.00562904 0
0.0455126 -0.00693089 0
0.0467314 -0.00827518 0
0.0479204 -0.00965638 0
0.0490661 -0.0110799 0
0.0501515 -0.0125519 0
0.0511696 -0.0140695 0
0.0521492 -0.0156071 0
0.0531202 -0.0171411 0
0.0540851 -0.0186663 0
0.0550431 -0.0201798 0
0.0559923 -0.0216793 0
0.0569311 -0.0231626 0
0.0578582 -0.0246273 0
0.0587723 -0.0260715 0
0.0596721 -0.027493 0
0.0605563 -0.02889 0
0.0614241 -0.0302609 0
0.0622742 -0.0316042 0
0.063106 -0.0329183 0
0.0639186 -0.034202 0
0.0647113 -0.0354543 0
0.0654835 -0.0366743 0
0.0662345 -0.0378613 0
0.0669642 -0.0390145 0
0.0676726 -0.0401333 0
0.0683597 -0.0412172 0
0.0690246 -0.0422665 0
0.0696662 -0.0432819 0
0.0702841 -0.0442636 0
0.0708793 -0.0452111 0
0.0714538 -0.0461237 0
0.072009 -0.047001 0
0.0725452 -0.0478434 0
0.0730611 -0.0486524 0
0.073556 -0.0494294 0
0.0740291 -0.0501756 0
0.0744812 -0.0508916 0
0.0749138 -0.0515773 0
0.0753285 -0.0522331 0
0.0757266 -0.0528592 0
0.076109 -0.0534564 0
0.0764753 -0.0540264 0
0.0768243 -0.054571 0
0.0771553 -0.0550919 0
0.0774679 -0.0555901 0
0.0777617 -0.0560669 0
0.0780369 -0.056523 0
0.0782958 -0.0569578 0
0.0785421 -0.0573703 0
0.0787786 -0.0577603 0
0.0790073 -0.0581279 0
0.0792295 -0.058474 0
0.0794462 -0.0587995 0
0.0798803 -0.0594162 0
0.0800272 -0.0596588 0
0.0800357 -0.0598891 0
0.0799275 -0.0600784 0
0.0797205 -0.0601773 0
0.0794593 -0.0601051 0
0.0789155 -0.0596491 0
0.0786707 -0.0593963 0
0.0784111 -0.0591319 0
0.0781372 -0.0588542 0
0.0778566 -0.0585548 0
0.0775715 -0.0582308 0
0.0772803 -0.0578828 0
0.0769832 -0.0575099 0
0.0766822 -0.0571097 0
0.0763801 -0.0566796 0
0.0760759 -0.0562196 0
0.0757623 -0.0557337 0
0.0754359 -0.0552232 0
0.0750951 -0.0546879 0
0.0747379 -0.054128 0
0.0743626 -0.0535435 0
0.0739688 -0.0529338 0
0.0735559 -0.0522981 0
0.0731238 -0.0516357 0
0.0726718 -0.050946 0
0.0721991 -0.0502288 0
0.0717046 -0.049484 0
0.0711872 -0.0487117 0
0.0706461 -0.047912 0
0.0700804 -0.0470849 0
0.0694892 -0.0462308 0
0.0688718 -0.0453499 0
0.0682271 -0.0444431 0
0.0675544 -0.043511 0
0.0668527 -0.0425546 0
0.0661215 -0.0415748 0
0.06536 -0.040573 0
0.0645676 -0.0395504 0
0.0637439 -0.0385087 0
0.0628887 -0.0374493 0
0.062002 -0.0363741 0
0.0610838 -0.0352847 0
0.0601345 -0.0341831 0
0.0591547 -0.033071 0
0.0581456 -0.0319502 0
0.0571083 -0.0308224 0
0.0560444 -0.0296893 0
0.0549562 -0.028552 0
0.053845 -0.0274126 0
0.0527113 -0.0262746 0
0.051554 -0.0251427 0
0.0503724 -0.0240222 0
0.0491675 -0.0229164 0
0.047941 -0.0218282 0
0.0466955 -0.0207597 0
0.0454337 -0.0197126 0
0.0441592 -0.0186878 0
0.0428751 -0.0176863 0
0.0415841 -0.0167097 0
0.0402878 -0.0157609 0
0.0389879 -0.0148428 0
0.0376864 -0.0139575 0
0.0363853 -0.013107 0
0.0350871 -0.0122931 0
0.0337942 -0.0115164 0
0.0325095 -0.0107772 0
0.0312357 -0.0100756 0
0.0299758 -0.00941024 0
0.0287337 -0.00877784 0
0.0275126 -0.00817571 0
0.0263139 -0.00760375 0
0.0251376 -0.00706528 0
0.0239829 -0.0065649 0
0.0228537 -0.00609619 0
0.0217522 -0.00565563 0
0.0206795 -0.00524226 0
0.0196364 -0.00485507 0
0.0186233 -0.00449318 0
0.0176408 -0.00415577 0
0.016689 -0.00384204 0
0.0157682 -0.00355115 0
0.0148783 -0.00328218 0
0.0140192 -0.00303468 0
0.0131906 -0.00280795 0
0.0123925 -0.00260016 0
0.0116246 -0.00241012 0
0.0108864 -0.00223769 0
0.0101774 -0.00208212 0
0.00949701 -0.00194206 0
0.00884483 -0.0018163 0
0.0082202 -0.0017039 0
0.00762247 -0.00160391 0
0.00705097 -0.00151528 0
0.006505 -0.00143697 0
0.0059838 -0.00136806 0
0.00548662 -0.00130772 0
0.00501265 -0.00125519 0
0.00456114 -0.00120954 0
0.00413136 -0.00116914 0
0.00372257 -0.00113251 0
0.00333398 -0.00109853 0
0.00296466 -0.00106798 0
0.00261363 -0.0010431 0
-0.052721 -0.0445996 0
-0.0508204 -0.0440823 0
-0.0489199 -0.0435651 0
-0.0470193 -0.0430478 0
-0.0451187 -0.0425306 0
-0.0432181 -0.0420134 0
-0.0413175 -0.0414961 0
-0.039417 -0.0409789 0
-0.0375164 -0.0404616 0
-0.0356158 -0.0399444 0
-0.0337152 -0.0394271 0
-0.0318146 -0.0389099 0
-0.0299141 -0.0383927 0
-0.0280135 -0.0378754 0
-0.0261129 -0.0373582 0
-0.0242123 -0.0368409 0
-0.0223117 -0.0363237 0
-0.0204112 -0.0358065 0
-0.0185106 -0.0352892 0
-0.01661 -0.034772 0
-0.0147094 -0.0342547 0
-0.0128088 -0.0337375 0
-0.0109083 -0.0332202 0
-0.00900769 -0.032703 0
-0.00710711 -0.0321858 0
-0.00520653 -0.0316685 0
-0.00330595 -0.0311513 0
-0.00140537 -0.030634 0
0.00190689 -0.0299614 0
0.00332271 -0.0298498 0
0.00474133 -0.0297825 0
0.00616136 -0.0297597 0
0.0075814 -0.0297814 0
0.00900007 -0.0298477 0
0.010416 -0.0299583 0
0.0118278 -0.0301127 0
0.0132342 -0.0303103 0
0.0146339 -0.0305504 0
0.0160259 -0.0308322 0
0.0174091 -0.0311546 0
0.0187824 -0.0315166 0
0.020145 -0.031917 0
0.0214961 -0.0323546 0
0.0228351 -0.032828 0
0.0241613 -0.0333361 0
0.0254744 -0.0338774 0
0.0267738 -0.0344507 0
0.0280592 -0.0350545 0
0.0293306 -0.0356877 0
0.0305875 -0.0363488 0
0.0318301 -0.0370367 0
0.0330581 -0.0377501 0
0.0342717 -0.0384879 0
0.0354708 -0.0392489 0
0.0366556 -0.0400321 0
0.0378262 -0.0408363 0
0.0389828 -0.0416607 0
0.0401254 -0.0425042 0
0.0412543 -0.0433659 0
0.0423698 -0.0442451 0
0.043472 -0.0451408 0
0.0445612 -0.0460523 0
0.0456375 -0.0469789 0
0.0467013 -0.0479199 0
0.0477529 -0.0488746 0
0.0487923 -0.0498424 0
0.04982 -0.0508227 0
0.0508362 -0.051815 0
0.051841 -0.0528187 0
0.0528348 -0.0538333 0
0.0538178 -0.0548584 0
0.0547903 -0.0558935 0
0.0557524 -0.0569382 0
0.0567045 -0.0579922 0
0.0576467 -0.0590549 0
0.0585792 -0.0601261 0
0.0595024 -0.0612055 0
0.0604163 -0.0622926 0
0.0613212 -0.0633873 0
0.0622174 -0.0644891 0
0.0631049 -0.0655979 0
0.0639841 -0.0667134 0
0.064855 -0.0678353 0
0.0657179 -0.0689633 0
0.0665729 -0.0700974 0
0.0674202 -0.0712372 0
0.06826 -0.0723826 0
0.0690925 -0.0735333 0
0.0699178 -0.0746892 0
0.070736 -0.0758501 0
0.0715473 -0.0770159 0
0.0723518 -0.0781863 0
0.0731498 -0.0793612 0
0.0739412 -0.0805405 0
0.0747264 -0.081724 0
0.0755053 -0.0829116 0
0.0762781 -0.0841033 0
0.0770449 -0.0852987 0
0.0778059 -0.0864979 0
0.0785611 -0.0877007 0
0.0793108 -0.088907 0
0.0814681 -0.0912706 0
0.0828814 -0.0924245 0
0.0842946 -0.0935783 0
0.0857079 -0.0947322 0
0.0871211 -0.095886 0
0.0885344 -0.0970399 0
0.0899476 -0.0981937 0
0.0913609 -0.0993476 0
0.0927741 -0.100501 0
0.0941874 -0.101655 0
0.0956006 -0.102809 0
0.0970139 -0.103963 0
0.0984272 -0.105117 0
0.0998404 -0.106271 0
0.101254 -0.107424 0
0.102667 -0.108578 0
0.10408 -0.109732 0
0.105493 -0.110886 0
0.106907 -0.11204 0
0.10832 -0.113194 0
0.109733 -0.114348 0
0.111146 -0.115501 0
0.11256 -0.116655 0
0.113973 -0.117809 0
0.115386 -0.118963 0
0.116799 -0.120117 0
0.118213 -0.121271 0
0.119626 -0.122424 0
0.121039 -0.123578 0
0.122452 -0.124732 0
0.123866 -0.125886 0
0.125279 -0.12704 0
0.126692 -0.128194 0
0.128105 -0.129348 0
0.129519 -0.130501 0
0.130932 -0.131655 0
0.132345 -0.132809 0
0.133758 -0.133963 0
0.135172 -0.133216 0
0.135172 -0.131316 0
0.135172 -0.129415 0
0.135172 -0.127514 0
0.135172 -0.125614 0
0.135172 -0.123713 0
0.135172 -0.121813 0
0.135172 -0.119912 0
0.135172 -0.118012 0
0.135172 -0.116111 0
0.135172 -0.11421 0
0.135172 -0.11231 0
0.135172 -0.110409 0
0.135172 -0.108509 0
0.135172 -0.106608 0
0.135172 -0.104708 0
0.135172 -0.102807 0
0.135172 -0.100906 0
0.135172 -0.0990058 0
0.135172 -0.0971052 0
0.135172 -0.0952046 0
0.135172 -0.0933041 0
0.135172 -0.0914035 0
0.135172 -0.0895029 0
0.135172 -0.0876023 0
0.135172 -0.0857017 0
0.135172 -0.0838012 0
0.135172 -0.0819006 0
0.133758 -0.0788462 0
0.132345 -0.0776923 0
0.130932 -0.0765385 0
0.129519 -0.0753846 0
0.128105 -0.0742308 0
0.126692 -0.0730769 0
0.125279 -0.0719231 0
0.123866 -0.0707692 0
0.122452 -0.0696154 0
0.121039 -0.0684615 0
0.119626 -0.0673077 0
0.118213 -0.0661538 0
0.116799 -0.065 0
0.115386 -0.0638462 0
0.113973 -0.0626923 0
0.11256 -0.0615385 0
0.111146 -0.0603846 0
0.109733 -0.0592308 0
0.10832 -0.0580769 0
0.106907 -0.0569231 0
0.105493 -0.0557692 0
0.10408 -0.0546154 0
0.102667 -0.0534615 0
0.101254 -0.0523077 0
0.0998404 -0.0511538 0
0.0984272 -0.05 0
0.0970139 -0.0488462 0
0.0956006 -0.0476923 0
[...]
CELL_DATA 13116
SCALARS rho float
LOOKUP_TABLE default
0.634293
0.709022
0.336781
0.704922
0.705315
0.698162
0.329047
0.706173
0.586027
0.705197
0.333909
0.312948
0.705297
0.318003
0.325622
0.698015
0.631314
0.705131
0.699761
0.340022
0.628705
0.340587
0.321413
0.705373
0.642204
0.705228
0.705167
0.335889
0.623875
0.679487
0.708485
0.312068
0.604799
0.479566
0.328557
0.632612
0.700294
0.704348
0.699401
0.704354
0.696705
0.706133
0.50122
0.333919
0.701643
0.700136
0.70506
0.700603
0.33562
0.570898
0.705031
0.500712
0.322795
0.627374
0.605475
0.629147
0.333142
0.705502
0.580041
0.32714
0.319094
0.705237
0.707372
0.700806
0.709702
0.329729
0.700972
0.699287
0.701314
0.708176
0.326043
0.612345
0.341588
0.329219
0.70967
0.334393
0.700685
0.705091
0.332799
0.704617
0.705592
0.705287
0.705414
0.70258
0.70529
0.46285
0.329663
0.692807
0.705706
0.350591
0.314161
0.709136
0.705522
0.705959
0.686779
0.646978
0.643698
0.711156
0.709693
0.626141
0.695341
0.691748
0.698064
0.437105
0.702957
0.302285
0.40387
0.547933
0.330172
0.633292
0.580213
0.704698
0.644509
0.704695
0.70475
0.701838
0.326907
0.41213
0.704657
0.702941
0.698463
0.345323
0.701606
0.313982
0.706076
0.459223
0.329324
0.549034
0.330419
0.570576
0.704603
0.707991
0.525641
0.338352
0.500097
0.663882
0.707219
0.703127
0.694597
0.703024
0.694083
0.705521
0.550289
0.695356
0.705884
0.308795
0.32902
0.704788
0.705496
0.705045
0.572943
0.702136
0.700209
0.335693
0.7054
0.705077
0.322029
0.698805
0.710927
0.691959
0.705341
0.333477
0.70555
0.323971
0.346459
0.70526
0.705951
0.705049
0.328649
0.476988
0.439789
0.70729
0.323824
0.533516
0.701611
0.320048
0.332171
0.342101
0.704381
0.694779
0.344478
0.448234
0.604066
0.699383
0.694727
0.580818
0.337333
0.700775
0.70195
0.487463
0.691668
0.704656
0.707557
0.319467
0.704106
0.695901
0.705448
0.700908
0.705717
0.398262
0.438535
0.640025
0.543541
0.326114
0.706118
0.703833
0.508645
0.652926
0.313542
0.339346
0.334772
0.698443
0.322266
0.347708
0.34597
0.335556
0.397819
0.698142
0.706028
0.453046
0.332571
0.700673
0.574584
0.344602
0.57518
0.705261
0.705243
0.335713
0.701438
0.42533
0.707343
0.312544
0.705664
0.601803
0.711141
0.704977
0.705523
0.333568
0.453253
0.690199
0.709814
0.695509
0.70776
0.702224
0.706228
0.333426
0.704193
0.705356
0.709678
0.332892
0.337601
0.702532
0.704327
0.707034
0.704606
0.629507
0.703095
0.334279
0.342936
0.399167
0.309685
0.700706
0.705449
0.700434
0.332347
0.703676
0.334274
0.450731
0.703233
0.336716
0.705228
0.705398
0.709143
0.705549
0.334488
0.709051
0.705857
0.709697
0.703018
0.334665
0.333047
0.321036
0.662064
0.344425
0.344721
0.387629
0.365755
0.706326
0.317942
0.705375
0.705195
0.337388
0.341998
0.334552
0.470343
0.339864
0.692492
0.682857
0.704026
0.337407
0.697419
0.600677
0.340997
0.32732
0.699621
0.704161
0.700344
0.337081
0.695887
0.449664
0.707998
0.705914
0.704703
0.705841
0.320645
0.700963
0.311996
0.699754
0.704494
0.687155
0.343815
0.386759
0.705334
0.333264
0.706395
0.705245
0.377422
0.702417
0.705406
0.334995
0.70372
0.705508
0.296579
0.704514
0.457242
0.590019
0.707139
0.466048
0.699225
0.332902
0.70524
0.395493
0.700719
0.695576
0.705395
0.334901
0.399429
0.705114
0.335206
0.706059
0.702802
0.441695
0.70759
0.337506
0.336939
0.705788
0.578911
0.700071
0.332544
0.322958
0.704175
0.705203
0.330447
0.705026
0.324362
0.311617
0.702821
0.706767
0.558725
0.362774
0.703234
0.709243
0.697702
0.70423
0.705956
0.574866
0.359059
0.310602
0.344469
0.697568
0.344874
0.603956
0.380495
0.316902
0.396212
0.56664
0.172769
0.335975
0.704978
0.313808
0.705509
0.626606
0.69837
0.68641
0.70434
0.337555
0.334518
0.403102
0.363783
0.706383
0.642293
0.697508
0.626552
0.706272
0.663565
0.705163
0.683891
0.677971
0.706196
0.704454
0.698547
0.403106
0.51249
0.632382
0.338091
0.681431
0.630054
0.323365
0.701583
0.709529
0.321166
0.340956
0.344811
0.338282
0.645799
0.325346
0.319712
0.699504
0.331584
0.603932
0.351448
0.698355
0.708018
0.342224
0.337889
0.705982
0.468843
0.356097
0.338117
0.355186
0.329691
0.334944
0.341869
0.346164
0.45198
0.338796
0.690921
0.35092
0.705349
0.381469
0.313715
0.523188
0.303343
0.34915
0.305844
0.703936
0.454497
0.659602
0.56035
0.331712
0.655096
0.705642
0.460252
0.702234
0.668534
0.669824
0.336061
0.710872
0.414377
0.705711
0.70952
0.326195
0.320202
0.701702
0.365807
0.464911
0.696153
0.403285
0.69815
0.706826
0.342545
0.331433
0.322032
0.528397
0.327398
0.309348
0.323443
0.310185
0.705304
0.70517
0.476386
0.628278
0.501945
0.703929
0.389199
0.329417
0.588908
0.326845
0.706137
0.365237
0.40652
0.521001
0.702098
0.705871
0.584439
0.375939
0.321867
0.584619
0.706037
0.705618
0.582091
0.703249
0.700424
0.34025
0.708072
0.598879
0.6889
0.372106
0.340547
0.704519
0.705522
0.684969
0.705171
0.705776
0.705332
0.705267
0.687327
0.69811
0.346927
0.702602
0.397831
0.316929
0.350257
0.704706
0.703255
0.376904
0.705414
0.636728
0.344882
0.702727
0.703977
0.706608
0.335457
0.330106
0.705366
0.35879
0.360854
0.297486
0.341012
0.707226
0.303526
0.704566
0.349529
0.70924
0.704845
0.70028
0.705238
0.359085
0.344058
0.704061
0.707324
0.700981
0.705304
0.70537
0.512303
0.335585
0.328668
0.696205
0.582178
0.345843
0.472025
0.316511
0.706245
0.701721
0.372898
0.342775
0.705508
0.472241
0.7047
0.676242
0.329828
0.425036
0.700011
0.709698
0.325002
0.7058
0.705991
0.703764
0.332998
0.707679
0.331766
0.711023
0.688051
0.363551
0.394699
0.344265
0.710893
0.33133
0.330547
0.413291
0.701806
0.707471
0.330939
0.338556
0.345126
0.702993
0.3431
0.695181
0.310332
0.614696
0.705236
0.384062
0.32343
0.322147
0.513596
0.329617
0.705704
0.336516
0.327849
0.697821
0.319363
0.698471
0.706214
0.711226
0.352591
0.705851
0.705486
0.705459
0.696611
0.706779
0.702649
0.309387
0.708084
0.45627
0.706976
0.334923
0.706114
0.559516
0.327171
0.709571
0.705728
0.332257
0.682072
0.314194
0.326564
0.699179
0.703948
0.315616
0.308356
0.332024
0.30831
0.706504
0.705364
0.332797
0.341634
0.706133
0.703168
0.616949
0.705476
0.701196
0.333886
0.705415
0.444901
0.70497
0.411664
0.638346
0.499284
0.700641
0.700729
0.599834
0.384447
0.333399
0.701814
0.621869
0.62403
0.705489
0.310283
0.706963
0.705411
0.419281
0.509169
0.705472
0.377368
0.708891
0.690797
0.383714
0.703676
0.685504
0.338829
0.70758
0.320483
0.705746
0.335142
0.698141
0.706995
0.332234
0.700256
0.705524
0.705548
0.638802
0.709061
0.601368
0.358255
0.445616
0.314158
0.328315
0.706652
0.577651
0.70224
0.705554
0.347535
0.353504
0.708471
0.704991
0.706069
0.705465
0.339791
0.704424
0.705351
0.340397
0.310199
0.70482
0.702166
0.705589
0.307636
0.60498
0.342829
0.70763
0.705839
0.706026
0.708679
0.343934
0.708829
0.705408
0.705468
0.70427
0.695804
0.453433
0.706052
0.339385
0.70028
0.705338
0.474916
0.707189
0.704499
0.704797
0.450511
0.42268
0.603584
0.678162
0.358927
0.363438
0.337075
0.339152
0.709464
0.70709
0.703742
0.366184
0.337061
0.701107
0.699051
0.300039
0.355286
0.480285
0.703506
0.701169
0.70443
0.705386
0.34003
0.359389
0.708145
0.313762
0.347733
0.336219
0.697331
0.341877
0.35784
0.625129
0.705467
0.704372
0.698092
0.699946
0.327603
0.320953
0.338105
0.570863
0.457041
0.313303
0.699317
0.70508
0.70611
0.697388
0.310005
0.355837
0.705192
0.353508
0.695594
0.706895
0.71051
0.315683
0.35592
0.705797
0.70894
0.65131
0.300096
0.704929
0.697737
0.622877
0.704963
0.705654
0.708557
0.703112
0.340765
0.699801
0.70767
0.690861
0.707449
0.706796
0.704828
0.709189
0.702723
0.32731
0.329012
0.356382
0.709164
0.561869
0.354169
0.708607
0.706144
0.313816
0.68489
0.343903
0.691362
0.554233
0.337246
0.705083
0.705329
0.346934
0.571437
0.708844
0.328941
0.705916
0.327195
0.29879
0.661419
0.638091
0.52265
0.698325
0.336835
0.705591
0.331439
0.311265
0.698179
0.344833
0.64884
0.316135
0.686041
0.637898
0.708943
0.705887
0.316851
0.328048
0.695581
0.509948
0.706252
0.495814
0.642723
0.698392
0.705462
0.518142
0.631046
0.704284
0.705447
0.70155
0.397783
0.364444
0.566369
0.70425
0.705416
0.390193
0.698329
0.651926
0.401119
0.315594
0.688326
0.703111
0.7083
0.710622
0.695954
0.705764
0.700448
0.703802
0.314831
0.682619
0.476597
0.704118
0.702152
0.368359
0.706997
0.705267
0.332067
0.329173
0.33434
0.706879
0.333529
0.659532
0.7065
0.682653
0.357068
0.705237
0.323488
0.605965
0.701738
0.704898
0.698489
0.703406
0.649367
0.705481
0.585554
0.706985
0.335059
0.695715
0.70003
0.491994
0.709777
0.707368
0.321752
0.313591
0.329626
0.704692
0.363283
0.70899
0.338421
0.706195
0.319616
0.500423
0.312831
0.705716
0.705294
0.628321
0.34424
0.651207
0.696678
0.341157
0.617664
0.705085
0.312849
0.630425
0.709282
0.705288
0.695799
0.325625
0.5447
0.706032
0.699283
0.700642
0.358729
0.417805
0.704448
0.708012
0.709718
0.707797
0.620779
0.707814
0.616397
0.7038
0.358452
0.32448
0.707982
0.705349
0.700309
0.329298
0.696099
0.631881
0.660464
0.334507
0.441228
0.705066
0.705862
0.592727
0.362456
0.697449
0.710182
0.329304
0.639609
0.705458
0.329563
0.313469
0.315262
0.702294
0.345074
0.347813
0.704076
0.504712
0.705439
0.688039
0.32817
0.335551
0.705339
0.330738
0.325831
0.708502
0.306755
0.389904
0.633006
0.706731
0.706548
0.337302
0.348263
0.333546
0.706433
0.303415
0.706248
0.323078
0.708442
0.705482
0.702728
0.704262
0.709451
0.705668
0.701134
0.70524
0.705492
0.306502
0.338278
0.709909
0.700316
0.527471
0.703177
0.600805
0.70109
0.690348
0.341152
0.702529
0.705117
0.705983
0.332461
0.708892
0.342584
0.703137
0.514954
0.704836
0.696714
0.337496
0.706654
0.3446
0.471333
0.7076
0.335813
0.69963
0.706827
0.706396
0.337626
0.699586
0.339428
0.31528
0.31712
0.34633
0.69067
0.322842
0.694386
0.70237
0.363849
0.319848
0.50615
0.602726
0.670739
0.702243
0.352222
0.331471
0.33049
0.312968
0.341591
0.673688
0.705049
0.337126
0.701023
0.706665
0.313466
0.704723
0.698306
0.700882
0.335438
0.709901
0.709127
0.70602
0.704545
0.327159
0.706696
0.705775
0.708705
0.687292
0.695718
0.345917
0.317622
0.701537
0.562697
0.359417
0.697892
0.318005
0.59083
0.676699
0.705775
0.705701
0.314553
0.703063
0.397003
0.332751
0.703185
0.705665
0.705532
0.704088
0.698077
0.315485
0.705271
0.324613
0.525644
0.705247
0.709752
0.706072
0.333131
0.335561
0.705344
0.351955
0.705363
0.669922
0.446395
0.355261
0.70322
0.316178
0.696536
0.705499
0.701014
0.316405
0.329704
0.541557
0.581362
0.665325
0.503697
0.697436
0.702535
0.705197
0.706477
0.708201
0.325144
0.353484
0.705147
0.695751
0.699022
0.475304
0.32663
0.707935
0.321407
0.701439
0.634533
0.356178
0.706583
0.336984
0.706196
0.337495
0.705446
0.331655
0.704608
0.694916
0.313912
0.706073
0.678064
0.314557
0.70331
0.700022
0.602013
0.302103
0.386574
0.494656
0.705475
0.697784
0.354607
0.601887
0.70762
0.698109
0.356871
0.668889
0.707277
0.470584
0.697299
0.69984
0.36908
0.704437
0.709544
0.336147
0.648055
0.339248
0.692902
0.337495
0.304408
0.705518
0.348301
0.345542
0.316681
0.700482
0.707456
0.409137
0.697686
0.386486
0.707501
0.340108
0.707906
0.382413
0.698575
0.701551
0.698484
0.703394
0.573798
0.695234
0.701136
0.336452
0.661058
0.698822
0.592333
0.708398
0.513385
0.428933
0.705281
0.342682
0.603683
0.34494
0.69761
0.307663
0.319213
0.705309
0.700754
0.342857
0.703767
0.704913
0.70682
0.705465
0.710966
0.34126
0.70445
0.34551
0.323186
0.705852
0.705524
0.706157
0.705315
0.312499
0.336863
0.332848
0.708956
0.702577
0.385167
0.706983
0.329071
0.337606
0.334385
0.705585
0.412855
0.705277
0.705701
0.658881
0.704115
0.705469
0.629309
0.698779
0.457112
0.313904
0.34335
0.710804
0.710286
0.327921
0.674177
0.702033
0.697883
0.325396
0.455015
0.703419
0.338526
0.701561
0.683346
0.346668
0.696455
0.709625
0.356923
0.706521
0.32502
0.702066
0.705231
0.709285
0.320206
0.485599
0.699336
0.374241
0.460158
0.703687
0.377575
0.695808
0.701334
0.705119
0.704784
0.361752
0.71033
0.703089
0.699379
0.411914
0.704455
0.333652
0.301994
0.705208
0.701535
0.701407
0.285697
0.697294
0.658068
0.709616
0.330808
0.323292
0.357927
0.703771
0.330438
0.320548
0.338081
0.682556
0.323422
0.367123
0.460971
0.705929
0.35089
0.703276
0.698634
0.704029
0.337481
0.703008
0.684525
0.702479
0.44303
0.686195
0.329121
0.342628
0.699411
0.342549
0.677144
0.707755
0.708689
0.350129
0.386493
0.332888
0.582394
0.707796
0.279167
0.704272
0.700151
0.705008
0.340445
0.323568
0.397864
0.698879
0.349448
0.706495
0.626842
0.697666
0.704159
0.334845
0.681831
0.310361
0.682811
0.671393
0.705007
0.67327
0.59652
0.688613
0.700211
0.705112
0.340046
0.379763
0.332268
0.704752
0.586188
0.709521
0.349678
0.423851
0.705889
0.703234
0.705829
0.343116
0.70419
0.580819
0.585223
0.698377
0.329059
0.343481
0.368778
0.701673
0.704043
0.686216
0.703755
0.393526
0.706616
0.682289
0.703462
0.70271
0.706268
0.705126
0.696853
0.705951
0.705581
0.326236
0.702764
0.704257
0.696719
0.70396
0.701581
0.661874
0.345745
0.305157
0.693895
0.357142
0.362325
0.704455
0.325731
0.658994
0.700699
0.708555
0.705578
0.323509
0.704611
0.317166
0.324745
0.696861
0.707843
0.697584
0.336659
0.704908
0.698146
0.696484
0.700214
0.337906
0.696005
0.705336
0.709673
0.398054
0.70527
0.335168
0.705111
0.335467
0.347076
0.634061
0.470149
0.705098
0.705547
0.695615
0.337073
0.69597
0.411811
0.324471
0.705656
0.507559
0.354183
0.696939
0.323952
0.536165
0.696432
0.704934
0.705848
0.509299
0.614497
0.688591
0.695424
0.662385
0.705527
0.563194
0.707977
0.703358
0.682206
0.307913
0.332976
0.466536
0.704075
0.322257
0.690625
0.703997
0.647691
0.695628
0.615786
0.700512
0.704297
0.334797
0.703683
0.702505
0.602551
0.702822
0.705311
0.70574
0.698741
0.340648
0.327151
0.707354
0.590124
0.621655
0.703071
0.703416
0.698022
0.705503
0.705334
0.663599
0.702156
0.704687
0.319758
0.308854
0.304811
0.350334
0.709518
0.481562
0.614248
0.706639
0.705202
0.324682
0.705794
0.704621
0.336535
0.409651
0.709301
0.703186
0.330036
0.308991
0.299653
0.706525
0.70513
0.40147
0.325346
0.345785
0.317224
0.371861
0.360788
0.707472
0.701229
0.708702
0.339344
0.708579
0.661817
0.629896
0.360992
0.33953
0.705587
0.707686
0.354391
0.698383
0.355815
0.705308
0.326432
0.704171
0.339553
0.70606
0.705124
0.337911
0.586578
0.353146
0.704511
0.307264
0.666514
0.317596
0.555752
0.32956
0.662421
0.341527
0.704846
0.706418
0.629478
0.709579
0.362905
0.70772
0.698293
0.705014
0.659353
0.70752
0.340454
0.449225
0.330236
0.705488
0.355566
0.705287
0.578817
0.705449
0.705286
0.545947
0.706072
0.324938
0.324512
0.319387
0.555785
0.638654
0.703916
0.337915
0.34179
0.697932
0.42609
0.315529
0.655908
0.403708
0.356264
0.305777
0.706242
0.676585
0.669117
0.324625
0.707706
0.702097
0.312075
0.389404
0.705317
0.699311
0.681833
0.541042
0.44523
0.41255
0.336564
0.706344
0.694195
0.582572
0.702777
0.319092
0.623348
0.335614
0.709475
0.705202
0.342312
0.351588
0.696807
0.653154
0.705201
0.705587
0.705467
0.704382
0.705257
0.335569
0.339858
0.332255
0.335316
0.632674
0.709766
0.677866
0.338304
0.350408
0.491719
0.313358
0.698187
0.704631
0.344904
0.370155
0.700628
0.326125
0.688736
0.705674
0.706545
0.696685
0.633488
0.360539
0.337729
0.70101
0.343258
0.456029
0.40526
0.699419
0.703243
0.359717
0.34709
0.70735
0.341207
0.701631
0.705495
0.354085
0.332448
0.319853
0.700345
0.32493
0.706778
0.707045
0.651618
0.311169
0.559022
0.70529
0.704966
0.33048
0.706117
0.693786
0.314417
0.704972
0.707213
0.333209
0.352803
0.705792
0.338984
0.335225
0.707546
0.401945
0.701145
0.700137
0.705497
0.693754
0.705377
0.700771
0.69617
0.331881
0.442381
0.701304
0.707435
0.483989
0.704726
0.375967
0.702538
0.705792
0.613412
0.683444
0.448891
0.476836
0.705457
0.705586
0.7031
0.705143
0.698714
0.708463
0.705583
0.706997
0.706719
0.705714
0.70607
0.708037
0.69552
0.313933
0.705441
0.335647
0.70313
0.702681
0.705825
0.705585
0.704434
0.331333
0.334895
0.376482
0.331233
0.706586
0.33955
0.335126
0.706094
0.309052
0.706001
0.336365
0.707158
0.706457
0.348372
0.427447
0.35768
0.703784
0.328779
0.703764
0.706756
0.332401
0.705477
0.587265
0.368097
0.334359
0.312152
0.70328
0.354492
0.703817
0.614089
0.356303
0.700994
0.6969
0.705465
0.355769
0.627877
0.315705
0.70878
0.698713
0.702046
0.362102
0.707778
0.703052
0.704123
0.426742
0.70374
0.359391
0.340219
0.704845
0.4762
0.705356
0.436306
0.359933
0.462818
0.70489
0.332039
0.314262
0.334999
0.554901
0.709873
0.70654
0.301639
0.657627
0.699147
0.581642
0.485473
0.353671
0.588627
0.363248
0.33839
0.702287
0.341053
0.352854
0.704756
0.705267
0.336017
0.704923
0.335266
0.708937
0.337215
0.705704
0.708553
0.704588
0.696859
0.333484
0.337441
0.316544
0.698205
0.705791
0.612337
0.584686
0.419689
0.370636
0.695146
0.332578
0.701167
0.422467
0.706108
0.700041
0.337659
0.333315
0.342409
0.346786
0.333696
0.697291
0.707118
0.339946
0.703189
0.677612
0.359622
0.321318
0.705016
0.351746
0.705656
0.453482
0.704793
0.687199
0.702708
0.710146
0.326026
0.705273
0.703507
0.706279
0.349659
0.698465
0.620966
0.360559
0.704051
0.698311
0.708188
0.707397
0.705259
0.705102
0.705741
0.697142
0.69969
0.34839
0.705478
0.342795
0.505564
0.7037
0.316487
0.705755
0.701048
0.339595
0.704241
0.350072
0.314366
0.705646
0.698019
0.705291
0.337617
0.707253
0.649114
0.337545
0.339739
0.705994
0.70186
0.415532
0.335305
0.706458
0.705167
0.359608
0.680801
0.705178
0.677657
0.335362
0.35836
0.314248
0.68736
0.333548
0.706119
0.704642
0.695212
0.666836
0.705725
0.338025
0.705637
0.639164
0.705108
0.672941
0.318996
0.330912
0.31131
0.705388
0.706359
0.450983
0.685922
0.349311
0.6995
0.702724
0.307251
0.69252
0.705886
0.666147
0.339281
0.333445
0.351289
0.705503
0.705369
0.6475
0.540856
0.704036
0.35309
0.669988
0.709384
0.707991
0.338789
0.648081
0.34205
0.702646
0.308453
0.704901
0.705768
0.324803
0.705102
0.502874
0.707878
0.686882
0.706519
0.704558
0.442143
0.694886
0.696779
0.702899
0.704624
0.499181
0.709327
0.312632
0.697142
0.314226
0.345898
0.324422
0.333205
0.361316
0.339304
0.705262
0.414921
0.321176
0.69592
0.705113
0.707208
0.404848
0.704283
0.70244
0.696708
0.321642
0.672903
0.70111
0.349475
0.336076
0.337111
0.66917
0.532469
0.353109
0.666925
0.310636
0.711046
0.525466
0.327121
0.495319
0.683237
0.354134
0.701829
0.31946
0.584787
0.413235
0.706177
0.413359
0.697401
0.709446
0.70076
0.48334
0.342905
0.706541
0.705199
0.337024
0.315218
0.698435
0.346
0.705244
0.339304
0.58719
0.307651
0.700775
0.339951
0.70528
0.345353
0.702983
0.704928
0.705453
0.709655
0.314253
0.320729
0.402029
0.705488
0.70605
0.704741
0.642305
0.340507
0.706252
0.35478
0.705739
0.694055
0.428866
0.355607
0.705588
0.704066
0.316719
0.708781
0.706908
0.705607
0.705495
0.319855
0.671389
0.345505
0.705622
0.332815
0.699415
0.705513
0.706851
0.705348
0.358335
0.705305
0.347077
0.334213
0.701431
0.709899
0.599675
0.706516
0.709425
0.350663
0.705211
0.706084
0.705793
0.315509
0.45079
0.702875
0.339021
0.702834
0.704366
0.705447
0.705978
0.345191
0.483832
0.679225
0.323472
0.705699
0.704652
0.519243
0.705796
0.351475
0.701354
0.705245
0.69761
0.70601
0.332941
0.32041
0.704232
0.706375
0.336274
0.368527
0.337528
0.324115
0.320322
0.313762
0.33993
0.358459
0.704966
0.314897
0.335772
0.706697
0.600337
0.707451
0.425683
0.348685
0.699923
0.502659
0.569158
0.705395
0.406667
0.684729
0.703763
0.634592
0.708359
0.33027
0.706378
0.699737
0.330171
0.339164
0.431532
0.700571
0.635695
0.705271
0.698214
0.707903
0.70871
0.379309
0.705437
0.698228
0.706251
0.346804
0.701106
0.685738
0.376828
0.45425
0.320258
0.313373
0.317523
0.635021
0.697015
0.709964
0.338784
0.432332
0.705166
0.314027
0.706934
0.697038
0.705573
0.697558
0.703174
0.347285
0.314658
0.30597
0.629648
0.3299
0.700052
0.304461
0.700013
0.697954
0.702572
0.347892
0.480725
0.43866
0.705151
0.334261
0.336419
0.704676
0.708177
0.685501
0.69822
0.705936
0.705255
0.363595
0.647667
0.705423
0.557344
0.705307
0.706513
0.705502
0.472224
0.448222
0.705881
0.521486
0.67111
0.34458
0.706465
0.70518
0.399114
0.333913
0.708757
0.551499
0.705552
0.706986
0.355666
0.341774
0.709828
0.47275
0.411785
0.704925
0.705982
0.343269
0.704012
0.710504
0.70584
0.364302
0.634587
0.361703
0.704703
0.705187
0.705317
0.709839
0.710653
0.367441
0.382581
0.709206
0.342716
0.630564
0.352155
0.703233
0.305056
0.687399
0.705459
0.711302
0.362126
0.706771
0.709644
0.335287
0.706477
0.311997
0.706173
0.357744
0.338363
0.291011
0.708606
0.702739