# vtk DataFile Version 1.0
unstructured grid
ascii
DATASET UNSTRUCTURED_GRID
points 13672 float
0.0796578 -0.059106 0
0.00128732 0.00159165 0
0.00227961 -0.00102548 0
0.0791586 -0.0598787 0
-0.0546216 0.01 0
0.000495206 0.025 0
0.0800549 -0.035 0
0.135172 -0.08 0
-0.0546216 -0.0451168 0
0.000495206 -0.0301168 0
0.0800549 -0.0901168 0
0.135172 -0.135117 0
-0.0546216 -0.0451168 -0.00551168
0.000495206 -0.0301168 -0.00551168
0.0800549 -0.0901168 -0.00551168
0.135172 -0.135117 -0.00551168
0.135172 -0.08 -0.00551168
0.0800549 -0.035 -0.00551168
0.000495206 0.025 -0.00551168
-0.0546216 0.01 -0.00551168
0.00128732 0.00159165 -0.00551168
0.00227961 -0.00102548 -0.00551168
0.0791586 -0.0598787 -0.00551168
0.0796578 -0.059106 -0.00551168
0.00165953 -0.000990923 0
0.00119576 -0.000874076 0
0.000866021 -0.000641801 0
0.000645147 -0.000349912 0
0.00052235 -1.7281e-05 0
0.00049972 0.000348016 0
0.000601632 0.000737716 0
0.000861774 0.0011403 0
0.00157235 0.00183217 0
0.00188647 0.00206725 0
0.00222612 0.00230203 0
0.00258713 0.00254351 0
0.00296826 0.00279524 0
0.00337118 0.00305664 0
0.00379785 0.00332658 0
0.00425045 0.00360349 0
0.00473139 0.00388521 0
0.0052432 0.00416895 0
0.0057881 0.00445204 0
0.00636753 0.00473281 0
0.00698281 0.00500961 0
0.00763526 0.00528058 0
0.00832616 0.00554366 0
0.00905691 0.00579603 0
0.00982918 0.00603333 0
0.0106445 0.00625033 0
0.0115038 0.00644128 0
0.0124073 0.00660297 0
0.0133543 0.00673414 0
0.0143444 0.00683382 0
0.0153769 0.00690031 0
0.0164512 0.00693173 0
0.0175666 0.00692547 0
0.0187219 0.00687822 0
0.0199156 0.00678477 0
0.0211454 0.00663864 0
0.0224084 0.00643275 0
0.0237018 0.00616676 0
0.0250249 0.00584739 0
0.026375 0.00547298 0
0.0277479 0.00503752 0
0.0291386 0.00453545 0
0.0305433 0.0039653 0
0.0319572 0.0033256 0
0.0333681 0.00260019 0
0.034775 0.00179799 0
0.0361793 0.000930615 0
0.0375798 3.12222e-06 0
0.0389689 -0.000988429 0
0.0403357 -0.00205109 0
0.041675 -0.00318283 0
0.0429849 -0.00437751 0
0.0442643 -0.00562904 0
0.0455126 -0.00693089 0
0.0467314 -0.00827518 0
0.0479204 -0.00965638 0
0.0490661 -0.0110799 0
0.0501515 -0.0125519 0
0.0511696 -0.0140695 0
0.0521492 -0.0156071 0
0.0531202 -0.0171411 0
0.0540851 -0.0186663 0
0.0550431 -0.0201798 0
0.0559923 -0.0216793 0
0.0569311 -0.0231626 0
0.0578582 -0.0246273 0
0.0587723 -0.0260715 0
0.0596721 -0.027493 0
0.0605563 -0.02889 0
0.0614241 -0.0302609 0
0.0622742 -0.0316042 0
0.063106 -0.0329183 0
0.0639186 -0.034202 0
0.0647113 -0.0354543 0
0.0654835 -0.0366743 0
0.0662345 -0.0378613 0
0.0669642 -0.0390145 0
0.0676726 -0.0401333 0
0.0683597 -0.0412172 0
0.0690246 -0.0422665 0
0.0696662 -0.0432819 0
0.0702841 -0.0442636 0
0.0708793 -0.0452111 0
0.0714538 -0.0461237 0
0.072009 -0.047001 0
0.0725452 -0.0478434 0
0.0730611 -0.0486524 0
0.073556 -0.0494294 0
0.0740291 -0.0501756 0
0.0744812 -0.0508916 0
0.0749138 -0.0515773 0
0.0753285 -0.0522331 0
0.0757266 -0.0528592 0
0.076109 -0.0534564 0
0.0764753 -0.0540264 0
0.0768243 -0.054571 0
0.0771553 -0.0550919 0
0.0774679 -0.0555901 0
0.0777617 -0.0560669 0
0.0780369 -0.056523 0
0.0782958 -0.0569578 0
0.0785421 -0.0573703 0
0.0787786 -0.0577603 0
0.0790073 -0.0581279 0
0.0792295 -0.058474 0
0.0794462 -0.0587995 0
0.0798803 -0.0594162 0
0.0800272 -0.0596588 0
0.0800357 -0.0598891 0
0.0799275 -0.0600784 0
0.0797205 -0.0601773 0
0.0794593 -0.0601051 0
0.0789155 -0.0596491 0
0.0786707 -0.0593963 0
0.0784111 -0.0591319 0
0.0781372 -0.0588542 0
0.0778566 -0.0585548 0
0.0775715 -0.0582308 0
0.0772803 -0.0578828 0
0.0769832 -0.0575099 0
0.0766822 -0.0571097 0
0.0763801 -0.0566796 0
0.0760759 -0.0562196 0
0.0757623 -0.0557337 0
0.0754359 -0.0552232 0
0.0750951 -0.0546879 0
0.0747379 -0.054128 0
0.0743626 -0.0535435 0
0.0739688 -0.0529338 0
0.0735559 -0.0522981 0
0.0731238 -0.0516357 0
0.0726718 -0.050946 0
0.0721991 -0.0502288 0
0.0717046 -0.049484 0
0.0711872 -0.0487117 0
0.0706461 -0.047912 0
0.0700804 -0.0470849 0
0.0694892 -0.0462308 0
0.0688718 -0.0453499 0
0.0682271 -0.0444431 0
0.0675544 -0.043511 0
0.0668527 -0.0425546 0
0.0661215 -0.0415748 0
0.06536 -0.040573 0
0.0645676 -0.0395504 0
0.0637439 -0.0385087 0
0.0628887 -0.0374493 0
0.062002 -0.0363741 0
0.0610838 -0.0352847 0
0.0601345 -0.0341831 0
0.0591547 -0.033071 0
0.0581456 -0.0319502 0
0.0571083 -0.0308224 0
0.0560444 -0.0296893 0
0.0549562 -0.028552 0
0.053845 -0.0274126 0
0.0527113 -0.0262746 0
0.051554 -0.0251427 0
0.0503724 -0.0240222 0
0.0491675 -0.0229164 0
0.047941 -0.0218282 0
0.0466955 -0.0207597 0
0.0454337 -0.0197126 0
0.0441592 -0.0186878 0
0.0428751 -0.0176863 0
0.0415841 -0.0167097 0
0.0402878 -0.0157609 0
0.0389879 -0.0148428 0
0.0376864 -0.0139575 0
0.0363853 -0.013107 0
0.0350871 -0.0122931 0
0.0337942 -0.0115164 0
0.0325095 -0.0107772 0
0.0312357 -0.0100756 0
0.0299758 -0.00941024 0
0.0287337 -0.00877784 0
0.0275126 -0.00817571 0
0.0263139 -0.00760375 0
0.0251376 -0.00706528 0
0.0239829 -0.0065649 0
0.0228537 -0.00609619 0
0.0217522 -0.00565563 0
0.0206795 -0.00524226 0
0.0196364 -0.00485507 0
0.0186233 -0.00449318 0
0.0176408 -0.00415577 0
0.016689 -0.00384204 0
0.0157682 -0.00355115 0
0.0148783 -0.00328218 0
0.0140192 -0.00303468 0
0.0131906 -0.00280795 0
0.0123925 -0.00260016 0
0.0116246 -0.00241012 0
0.0108864 -0.00223769 0
0.0101774 -0.00208212 0
0.00949701 -0.00194206 0
0.00884483 -0.0018163 0
0.0082202 -0.0017039 0
0.00762247 -0.00160391 0
0.00705097 -0.00151528 0
0.006505 -0.00143697 0
0.0059838 -0.00136806 0
0.00548662 -0.00130772 0
0.00501265 -0.00125519 0
0.00456114 -0.00120954 0
0.00413136 -0.00116914 0
0.00372257 -0.00113251 0
0.00333398 -0.00109853 0
0.00296466 -0.00106798 0
0.00261363 -0.0010431 0
-0.052721 -0.0445996 0
-0.0508204 -0.0440823 0
-0.0489199 -0.0435651 0
-0.0470193 -0.0430478 0
-0.0451187 -0.0425306 0
-0.0432181 -0.0420134 0
-0.0413175 -0.0414961 0
-0.039417 -0.0409789 0
-0.0375164 -0.0404616 0
-0.0356158 -0.0399444 0
-0.0337152 -0.0394271 0
-0.0318146 -0.0389099 0
-0.0299141 -0.0383927 0
-0.0280135 -0.0378754 0
-0.0261129 -0.0373582 0
-0.0242123 -0.0368409 0
-0.0223117 -0.0363237 0
-0.0204112 -0.0358065 0
-0.0185106 -0.0352892 0
-0.01661 -0.034772 0
-0.0147094 -0.0342547 0
-0.0128088 -0.0337375 0
-0.0109083 -0.0332202 0
-0.00900769 -0.032703 0
-0.00710711 -0.0321858 0
-0.00520653 -0.0316685 0
-0.00330595 -0.0311513 0
-0.00140537 -0.030634 0
0.00190689 -0.0299614 0
0.00332271 -0.0298498 0
0.00474133 -0.0297825 0
0.00616136 -0.0297597 0
0.0075814 -0.0297814 0
0.00900007 -0.0298477 0
0.010416 -0.0299583 0
0.0118278 -0.0301127 0
0.0132342 -0.0303103 0
0.0146339 -0.0305504 0
0.0160259 -0.0308322 0
0.0174091 -0.0311546 0
0.0187824 -0.0315166 0
0.020145 -0.031917 0
0.0214961 -0.0323546 0
0.0228351 -0.032828 0
0.0241613 -0.0333361 0
0.0254744 -0.0338774 0
0.0267738 -0.0344507 0
0.0280592 -0.0350545 0
0.0293306 -0.0356877 0
0.0305875 -0.0363488 0
0.0318301 -0.0370367 0
0.0330581 -0.0377501 0
0.0342717 -0.0384879 0
0.0354708 -0.0392489 0
0.0366556 -0.0400321 0
0.0378262 -0.0408363 0
0.0389828 -0.0416607 0
0.0401254 -0.0425042 0
0.0412543 -0.0433659 0
0.0423698 -0.0442451 0
0.043472 -0.0451408 0
0.0445612 -0.0460523 0
0.0456375 -0.0469789 0
0.0467013 -0.0479199 0
0.0477529 -0.0488746 0
0.0487923 -0.0498424 0
0.04982 -0.0508227 0
0.0508362 -0.051815 0
0.051841 -0.0528187 0
0.0528348 -0.0538333 0
0.0538178 -0.0548584 0
0.0547903 -0.0558935 0
0.0557524 -0.0569382 0
0.0567045 -0.0579922 0
0.0576467 -0.0590549 0
0.0585792 -0.0601261 0
0.0595024 -0.0612055 0
0.0604163 -0.0622926 0
0.0613212 -0.0633873 0
0.0622174 -0.0644891 0
0.0631049 -0.0655979 0
0.0639841 -0.0667134 0
0.064855 -0.0678353 0
0.0657179 -0.0689633 0
0.0665729 -0.0700974 0
0.0674202 -0.0712372 0
0.06826 -0.0723826 0
0.0690925 -0.0735333 0
0.0699178 -0.0746892 0
0.070736 -0.0758501 0
0.0715473 -0.0770159 0
0.0723518 -0.0781863 0
0.0731498 -0.0793612 0
0.0739412 -0.0805405 0
0.0747264 -0.081724 0
0.0755053 -0.0829116 0
0.0762781 -0.0841033 0
0.0770449 -0.0852987 0
0.0778059 -0.0864979 0
0.0785611 -0.0877007 0
0.0793108 -0.088907 0
0.0814681 -0.0912706 0
0.0828814 -0.0924245 0
0.0842946 -0.0935783 0
0.0857079 -0.0947322 0
0.0871211 -0.095886 0
0.0885344 -0.0970399 0
0.0899476 -0.0981937 0
0.0913609 -0.0993476 0
0.0927741 -0.100501 0
0.0941874 -0.101655 0
0.0956006 -0.102809 0
0.0970139 -0.103963 0
0.0984272 -0.105117 0
0.0998404 -0.106271 0
0.101254 -0.107424 0
0.102667 -0.108578 0
0.10408 -0.109732 0
0.105493 -0.110886 0
0.106907 -0.11204 0
0.10832 -0.113194 0
0.109733 -0.114348 0
0.111146 -0.115501 0
0.11256 -0.116655 0
0.113973 -0.117809 0
0.115386 -0.118963 0
0.116799 -0.120117 0
0.118213 -0.121271 0
0.119626 -0.122424 0
0.121039 -0.123578 0
0.122452 -0.124732 0
0.123866 -0.125886 0
0.125279 -0.12704 0
0.126692 -0.128194 0
0.128105 -0.129348 0
0.129519 -0.130501 0
0.130932 -0.131655 0
0.132345 -0.132809 0
0.133758 -0.133963 0
0.135172 -0.133216 0
0.135172 -0.131316 0
0.135172 -0.129415 0
0.135172 -0.127514 0
0.135172 -0.125614 0
0.135172 -0.123713 0
0.135172 -0.121813 0
0.135172 -0.119912 0
0.135172 -0.118012 0
0.135172 -0.116111 0
0.135172 -0.11421 0
0.135172 -0.11231 0
0.135172 -0.110409 0
0.135172 -0.108509 0
0.135172 -0.106608 0
0.135172 -0.104708 0
0.135172 -0.102807 0
0.135172 -0.100906 0
0.135172 -0.0990058 0
0.135172 -0.0971052 0
0.135172 -0.0952046 0
0.135172 -0.0933041 0
0.135172 -0.0914035 0
0.135172 -0.0895029 0
0.135172 -0.0876023 0
0.135172 -0.0857017 0
0.135172 -0.0838012 0
0.135172 -0.0819006 0
0.133758 -0.0788462 0
0.132345 -0.0776923 0
0.130932 -0.0765385 0
0.129519 -0.0753846 0
0.128105 -0.0742308 0
0.126692 -0.0730769 0
0.125279 -0.0719231 0
0.123866 -0.0707692 0
0.122452 -0.0696154 0
0.121039 -0.0684615 0
0.119626 -0.0673077 0
0.118213 -0.0661538 0
0.116799 -0.065 0
0.115386 -0.0638462 0
0.113973 -0.0626923 0
0.11256 -0.0615385 0
0.111146 -0.0603846 0
0.109733 -0.0592308 0
0.10832 -0.0580769 0
0.106907 -0.0569231 0
0.105493 -0.0557692 0
0.10408 -0.0546154 0
0.102667 -0.0534615 0
0.101254 -0.0523077 0
0.0998404 -0.0511538 0
0.0984272 -0.05 0
0.0970139 -0.0488462 0
0.0956006 -0.0476923 0
[...]
CELL_DATA 13116
SCALARS rho float
LOOKUP_TABLE default
0.60991
0.702132
0.344403
0.704456
0.704499
0.6974
0.329158
0.706271
0.5554
0.703787
0.330422
0.307302
0.704531
0.316058
0.349267
0.697071
0.610328
0.696271
0.706836
0.328625
0.601821
0.373238
0.320675
0.698848
0.610562
0.705807
0.703708
0.342314
0.587839
0.653207
0.708348
0.312465
0.570432
0.487369
0.332233
0.607718
0.679394
0.710046
0.700706
0.704877
0.702127
0.706123
0.506324
0.334857
0.707529
0.707235
0.702427
0.707103
0.361524
0.535895
0.705417
0.506466
0.312705
0.606168
0.571783
0.596746
0.33305
0.698944
0.542229
0.340631
0.316731
0.704531
0.701967
0.702276
0.71064
0.322018
0.701688
0.678489
0.703585
0.709398
0.351283
0.575015
0.370552
0.324284
0.709206
0.340329
0.681582
0.705639
0.326945
0.693487
0.690628
0.705936
0.7
0.70862
0.708615
0.430009
0.321063
0.669159
0.706997
0.349862
0.313103
0.702852
0.70121
0.706648
0.661878
0.617674
0.612062
0.710292
0.709479
0.591243
0.672664
0.684008
0.703355
0.464922
0.702288
0.294079
0.387024
0.537942
0.332932
0.598699
0.561124
0.705368
0.614734
0.690035
0.694042
0.702231
0.319296
0.422275
0.706225
0.703478
0.677241
0.37217
0.703809
0.3125
0.70669
0.462216
0.320861
0.513543
0.331429
0.534409
0.706104
0.705705
0.485878
0.37157
0.470145
0.641073
0.708109
0.704527
0.671566
0.703517
0.675181
0.703124
0.516193
0.677135
0.69407
0.31312
0.332304
0.705389
0.704024
0.705465
0.52897
0.708736
0.706816
0.334696
0.703599
0.708079
0.322412
0.678119
0.709798
0.667993
0.698615
0.329465
0.700818
0.324142
0.369618
0.704893
0.706672
0.695861
0.330877
0.452198
0.428672
0.708093
0.344052
0.507259
0.701655
0.319748
0.364172
0.373078
0.704978
0.696613
0.335228
0.448203
0.579662
0.678116
0.696523
0.544053
0.329251
0.700768
0.701861
0.482037
0.669006
0.705258
0.7094
0.320902
0.704674
0.696666
0.702691
0.701642
0.707102
0.424706
0.466562
0.606455
0.50929
0.32204
0.70465
0.7102
0.512065
0.623723
0.310089
0.33481
0.338245
0.699474
0.323132
0.338491
0.344198
0.335119
0.413999
0.70177
0.706659
0.417628
0.330834
0.701384
0.556471
0.335796
0.529392
0.704276
0.69309
0.342186
0.701573
0.398746
0.707195
0.312937
0.706636
0.562152
0.710217
0.706046
0.707445
0.328761
0.460328
0.665674
0.7085
0.696496
0.708621
0.705483
0.706459
0.365984
0.705033
0.703968
0.71034
0.332689
0.365287
0.709774
0.706145
0.7075
0.707634
0.606381
0.687065
0.330178
0.330313
0.431096
0.303974
0.699744
0.702616
0.681623
0.32376
0.706254
0.325078
0.429073
0.70261
0.333234
0.70582
0.705548
0.708217
0.698983
0.335042
0.708198
0.693579
0.710572
0.704579
0.327163
0.323154
0.322677
0.639477
0.370615
0.379005
0.367666
0.382569
0.709632
0.305367
0.707043
0.704981
0.326746
0.330344
0.325072
0.461194
0.349074
0.668749
0.668754
0.704409
0.333385
0.700104
0.560017
0.332485
0.343209
0.700571
0.706055
0.701151
0.32932
0.696405
0.468823
0.706014
0.705889
0.705197
0.705855
0.322408
0.701243
0.306182
0.698707
0.703426
0.661605
0.335292
0.366462
0.70414
0.323803
0.706793
0.704582
0.404725
0.685769
0.699819
0.324923
0.706652
0.701178
0.2951
0.705695
0.419139
0.547027
0.707434
0.429107
0.678947
0.324187
0.697478
0.370361
0.704233
0.692163
0.702817
0.341099
0.395941
0.708425
0.335242
0.705395
0.70295
0.445141
0.707347
0.331439
0.362205
0.706761
0.534281
0.679546
0.322935
0.323286
0.704982
0.704959
0.332291
0.705297
0.31821
0.285647
0.703045
0.707058
0.546761
0.363233
0.70509
0.708751
0.696895
0.706936
0.701966
0.531276
0.370453
0.307899
0.334574
0.697
0.335431
0.580273
0.410935
0.317516
0.39148
0.553005
0.158443
0.334667
0.70892
0.310775
0.701261
0.5914
0.705983
0.661046
0.705191
0.361944
0.324192
0.432254
0.385921
0.706064
0.612535
0.703811
0.591178
0.694051
0.635852
0.705817
0.660807
0.651523
0.702495
0.692627
0.698486
0.435104
0.510738
0.608489
0.369969
0.667704
0.598012
0.314372
0.701916
0.70831
0.323045
0.330501
0.338371
0.329569
0.612957
0.34464
0.321186
0.700268
0.323781
0.564934
0.348703
0.697791
0.696297
0.351309
0.371005
0.706752
0.458723
0.354117
0.328922
0.355462
0.332394
0.324594
0.331422
0.37878
0.431057
0.333092
0.683384
0.366358
0.707551
0.399131
0.311708
0.47913
0.311441
0.348078
0.312144
0.704572
0.442061
0.629013
0.548511
0.323497
0.626261
0.706965
0.429148
0.685289
0.641796
0.643386
0.325257
0.709642
0.421514
0.701014
0.708983
0.328778
0.31643
0.701454
0.387341
0.429584
0.693008
0.38896
0.677044
0.696824
0.33104
0.36295
0.340051
0.505274
0.345834
0.296298
0.344347
0.303409
0.704944
0.704649
0.465272
0.593815
0.472025
0.704446
0.40625
0.34526
0.557287
0.329704
0.708388
0.350307
0.404877
0.481929
0.707996
0.706633
0.540648
0.401776
0.319668
0.540263
0.706142
0.706604
0.537333
0.701414
0.699267
0.333934
0.695745
0.558726
0.663972
0.387946
0.350505
0.689377
0.702437
0.659251
0.704108
0.70755
0.705929
0.697879
0.661871
0.705519
0.343259
0.708059
0.365049
0.31637
0.342356
0.704226
0.710124
0.365207
0.708453
0.602591
0.336661
0.70573
0.706098
0.700605
0.341593
0.344224
0.705863
0.357083
0.357865
0.306568
0.334696
0.708184
0.293292
0.704086
0.365318
0.701249
0.705331
0.702506
0.704818
0.357772
0.333108
0.709691
0.707123
0.680254
0.704935
0.703864
0.469555
0.3252
0.332249
0.698116
0.54863
0.339149
0.457996
0.317
0.706664
0.70112
0.387155
0.376304
0.70796
0.435076
0.709095
0.648317
0.330043
0.400501
0.67912
0.70847
0.325333
0.706622
0.706665
0.709901
0.341121
0.708481
0.329224
0.710345
0.662918
0.363961
0.413388
0.377788
0.711346
0.334666
0.324742
0.424097
0.704641
0.702949
0.325291
0.325562
0.340913
0.704882
0.371584
0.69616
0.313555
0.577715
0.704216
0.403774
0.323119
0.321514
0.470237
0.333475
0.706317
0.33017
0.349648
0.698265
0.326498
0.698835
0.705703
0.710567
0.347912
0.708362
0.701622
0.702689
0.698846
0.707205
0.702808
0.312865
0.708615
0.420652
0.709024
0.326481
0.70634
0.534584
0.330607
0.711447
0.703472
0.33869
0.657986
0.31354
0.354236
0.700072
0.704677
0.315391
0.313046
0.326456
0.311984
0.706905
0.698833
0.340027
0.330184
0.705214
0.704192
0.580426
0.70158
0.700409
0.329496
0.703065
0.433905
0.705395
0.429234
0.607027
0.463495
0.700886
0.680656
0.559342
0.401161
0.338652
0.702339
0.5854
0.60258
0.701352
0.30418
0.695685
0.703472
0.379436
0.510343
0.702091
0.407474
0.711134
0.666439
0.362228
0.704233
0.660365
0.354278
0.701541
0.321976
0.707711
0.33822
0.699087
0.701745
0.337275
0.701425
0.701028
0.705458
0.604925
0.699949
0.561138
0.391323
0.465721
0.309444
0.323129
0.707005
0.532303
0.703816
0.704036
0.34149
0.381588
0.701998
0.704059
0.706542
0.705617
0.33036
0.692431
0.704039
0.329176
0.303356
0.706257
0.709691
0.708125
0.308832
0.565486
0.351615
0.700475
0.705921
0.706845
0.706638
0.337416
0.706492
0.707239
0.700775
0.705263
0.70022
0.416478
0.702118
0.334828
0.690751
0.70403
0.452522
0.696592
0.705689
0.705302
0.475509
0.445146
0.563673
0.651198
0.356622
0.363965
0.333132
0.333695
0.700702
0.695415
0.707484
0.384003
0.33157
0.7036
0.678594
0.297719
0.384952
0.458552
0.68416
0.701604
0.707124
0.695924
0.335665
0.357021
0.70777
0.312182
0.338541
0.331906
0.699561
0.350315
0.357408
0.592609
0.70966
0.704943
0.698395
0.700119
0.320231
0.336615
0.333008
0.556404
0.44132
0.313196
0.678414
0.694401
0.708641
0.702693
0.309981
0.351217
0.704061
0.347698
0.699631
0.702148
0.709526
0.315539
0.356119
0.707519
0.710525
0.629097
0.294746
0.708561
0.697764
0.590447
0.705408
0.705841
0.707984
0.700901
0.331233
0.699821
0.709893
0.673266
0.699878
0.706996
0.705548
0.708945
0.70457
0.348889
0.356625
0.351707
0.708705
0.537297
0.348965
0.702539
0.70486
0.307189
0.66063
0.352968
0.668428
0.544168
0.34924
0.704284
0.698175
0.340809
0.524786
0.708516
0.326957
0.706649
0.320643
0.291149
0.633577
0.605398
0.479195
0.70407
0.333482
0.700952
0.363641
0.308289
0.698603
0.338019
0.619455
0.316674
0.662116
0.606387
0.708262
0.706664
0.322517
0.351723
0.685999
0.511118
0.706476
0.49548
0.613269
0.69763
0.700523
0.517739
0.596066
0.70486
0.702844
0.702474
0.372269
0.363131
0.519736
0.704818
0.702691
0.421384
0.703189
0.629216
0.430266
0.315621
0.663079
0.683612
0.708826
0.711292
0.691918
0.692914
0.701847
0.685816
0.315705
0.656326
0.457884
0.704655
0.709723
0.371817
0.707529
0.704932
0.358538
0.327519
0.324595
0.70705
0.328801
0.631272
0.701534
0.656281
0.339578
0.710009
0.319983
0.566524
0.703117
0.707956
0.677087
0.70539
0.61845
0.690047
0.556781
0.709104
0.337409
0.698968
0.702434
0.497944
0.709537
0.697357
0.3236
0.315012
0.328247
0.705195
0.363677
0.709827
0.332292
0.706318
0.316203
0.463403
0.315111
0.700659
0.705494
0.60584
0.291344
0.620637
0.699988
0.334823
0.581412
0.704551
0.312696
0.597642
0.710223
0.704268
0.700148
0.328355
0.536159
0.706015
0.706951
0.690497
0.359333
0.440853
0.708818
0.707517
0.708443
0.707559
0.593413
0.705618
0.588643
0.704271
0.358932
0.320779
0.707706
0.704569
0.70267
0.322108
0.699605
0.605559
0.634334
0.34382
0.416876
0.705271
0.705523
0.552795
0.378233
0.704022
0.709763
0.329285
0.606939
0.69581
0.331082
0.3113
0.31394
0.702588
0.377092
0.344186
0.707105
0.501017
0.703035
0.663993
0.331066
0.325028
0.7051
0.356706
0.345718
0.710031
0.282347
0.408209
0.600716
0.707184
0.707853
0.33198
0.357839
0.33115
0.705854
0.293691
0.707852
0.339849
0.703613
0.706144
0.7077
0.703364
0.704855
0.705549
0.701209
0.704844
0.707362
0.293188
0.333484
0.702179
0.701378
0.481644
0.703445
0.563882
0.702447
0.673422
0.349919
0.702977
0.704496
0.709927
0.33362
0.706151
0.356055
0.708752
0.471291
0.69467
0.699451
0.350242
0.705661
0.339306
0.482327
0.701418
0.332787
0.67966
0.707248
0.706711
0.329943
0.700113
0.33459
0.314825
0.31778
0.344758
0.677043
0.339015
0.674208
0.703692
0.38091
0.321391
0.465551
0.562782
0.643496
0.695051
0.347795
0.322632
0.331174
0.315214
0.290268
0.647112
0.705804
0.344047
0.704922
0.701621
0.310806
0.704124
0.677299
0.702251
0.333078
0.71088
0.699309
0.702753
0.705036
0.347365
0.707293
0.703592
0.70621
0.661722
0.698121
0.377532
0.318455
0.708389
0.515625
0.359867
0.698111
0.319076
0.548054
0.651327
0.707727
0.707832
0.314204
0.703266
0.429109
0.333744
0.687913
0.705403
0.703242
0.705064
0.676034
0.315104
0.704581
0.336254
0.480398
0.704926
0.709138
0.706163
0.332818
0.326649
0.704062
0.342625
0.705984
0.641007
0.442224
0.389115
0.703525
0.316921
0.699526
0.706047
0.68042
0.317116
0.357854
0.50654
0.553684
0.637874
0.488542
0.697946
0.696154
0.707258
0.706883
0.703037
0.321252
0.387882
0.705691
0.698383
0.687676
0.450172
0.321856
0.694231
0.336909
0.700763
0.600089
0.367884
0.706126
0.330035
0.706733
0.346484
0.703896
0.332915
0.709139
0.696627
0.308168
0.706708
0.651224
0.309724
0.706564
0.705888
0.565623
0.311015
0.41726
0.487048
0.7019
0.692459
0.377782
0.561461
0.703254
0.698634
0.338796
0.643592
0.708541
0.432672
0.698148
0.698701
0.358864
0.707431
0.710886
0.342968
0.619138
0.329843
0.670682
0.332394
0.286558
0.702249
0.346655
0.34191
0.320994
0.701068
0.706204
0.440893
0.704642
0.416068
0.691626
0.335534
0.706488
0.413431
0.697651
0.708039
0.677503
0.705206
0.527501
0.696986
0.702713
0.342999
0.630947
0.677392
0.573631
0.703132
0.47084
0.456639
0.704574
0.333835
0.565071
0.354249
0.703623
0.298624
0.320609
0.69795
0.700446
0.331441
0.704294
0.69371
0.707011
0.705656
0.711029
0.331991
0.703825
0.335234
0.32386
0.706759
0.697058
0.706184
0.70771
0.313809
0.332898
0.330953
0.703738
0.704068
0.415763
0.707361
0.321439
0.331913
0.341965
0.707069
0.427992
0.704555
0.707191
0.628381
0.705037
0.707615
0.598769
0.68
0.428388
0.310114
0.332185
0.711036
0.710953
0.32132
0.647811
0.702277
0.677775
0.327901
0.478403
0.696995
0.322481
0.694146
0.667616
0.33706
0.699178
0.701484
0.352161
0.708086
0.342433
0.703546
0.702989
0.705404
0.331761
0.447925
0.679152
0.360767
0.421102
0.704799
0.377121
0.698416
0.702347
0.705718
0.693475
0.372101
0.711547
0.687546
0.706754
0.387851
0.705304
0.365705
0.310195
0.709545
0.701527
0.703804
0.263395
0.699584
0.627378
0.708983
0.322414
0.317178
0.356502
0.704633
0.329805
0.331159
0.352599
0.667357
0.340569
0.373608
0.430678
0.708092
0.343355
0.705343
0.700747
0.704503
0.330134
0.707267
0.658865
0.706434
0.419373
0.660449
0.334152
0.334128
0.699737
0.330976
0.65165
0.701802
0.708066
0.34214
0.364536
0.338
0.537608
0.708439
0.259778
0.710157
0.700798
0.694987
0.336344
0.334046
0.373757
0.695495
0.34476
0.707023
0.591108
0.699774
0.708803
0.327704
0.657446
0.313358
0.672702
0.642744
0.70402
0.657439
0.576567
0.66352
0.68911
0.705558
0.330691
0.398449
0.325512
0.694111
0.551299
0.708951
0.34146
0.426639
0.701237
0.707564
0.708545
0.331836
0.704682
0.53614
0.541377
0.693206
0.332235
0.332228
0.360314
0.701536
0.705279
0.660356
0.704236
0.374597
0.706898
0.655693
0.704851
0.706437
0.706588
0.704475
0.696898
0.698065
0.702853
0.329153
0.705774
0.705129
0.69822
0.706262
0.70194
0.639841
0.336813
0.298109
0.677974
0.357828
0.375061
0.705009
0.351628
0.628341
0.703214
0.702922
0.710038
0.325883
0.705126
0.317788
0.319875
0.696749
0.706331
0.702703
0.329939
0.705337
0.704256
0.684755
0.700764
0.371232
0.698069
0.704081
0.699401
0.427486
0.697769
0.331663
0.704678
0.335872
0.338524
0.612921
0.453155
0.704271
0.699961
0.699561
0.353065
0.698133
0.443443
0.348917
0.706739
0.465058
0.354402
0.702247
0.3019
0.489396
0.674226
0.699694
0.7084
0.467316
0.576701
0.663875
0.697892
0.64087
0.703423
0.516236
0.707864
0.7038
0.65625
0.309691
0.327572
0.449976
0.705124
0.32417
0.666224
0.704519
0.61789
0.69819
0.593154
0.681379
0.68694
0.332919
0.704161
0.702513
0.582192
0.702755
0.70432
0.706369
0.700509
0.336605
0.351782
0.708555
0.555809
0.594881
0.704177
0.708994
0.704634
0.702411
0.703012
0.635518
0.696519
0.703623
0.332816
0.294579
0.29916
0.362381
0.708366
0.471243
0.587354
0.706319
0.690014
0.325978
0.709891
0.704144
0.329758
0.408462
0.710115
0.70522
0.334166
0.307585
0.30743
0.706907
0.705707
0.429686
0.322723
0.335675
0.287811
0.403003
0.361387
0.707386
0.707722
0.700473
0.331213
0.703483
0.634932
0.594758
0.394392
0.328934
0.706553
0.707994
0.352921
0.697955
0.350625
0.698323
0.329221
0.704707
0.328664
0.708788
0.705235
0.330665
0.542789
0.380297
0.703928
0.287174
0.640089
0.318551
0.524879
0.334055
0.636328
0.335354
0.706288
0.709023
0.594247
0.704627
0.396673
0.706961
0.701758
0.705307
0.632008
0.691633
0.329746
0.476274
0.323182
0.701421
0.327626
0.704939
0.534755
0.696589
0.704325
0.53781
0.702476
0.350103
0.319528
0.333242
0.52079
0.617845
0.709366
0.333068
0.374834
0.697935
0.388689
0.316321
0.635805
0.413105
0.355246
0.299442
0.706195
0.648806
0.642928
0.322332
0.705851
0.701799
0.309892
0.359015
0.70734
0.699359
0.671101
0.493862
0.406698
0.38687
0.334166
0.706771
0.680556
0.551254
0.68658
0.321599
0.591369
0.329042
0.711192
0.705156
0.331754
0.344364
0.68314
0.632817
0.704982
0.703064
0.702486
0.704887
0.704792
0.335426
0.372172
0.326088
0.327609
0.609317
0.70891
0.650313
0.329544
0.343354
0.494875
0.311282
0.705104
0.698712
0.342356
0.389446
0.702894
0.326501
0.664066
0.701685
0.706528
0.698657
0.608029
0.357342
0.326858
0.696081
0.332852
0.472296
0.437264
0.701579
0.703507
0.340483
0.337742
0.707591
0.334609
0.701025
0.701436
0.347927
0.358089
0.311419
0.704017
0.317817
0.707177
0.698998
0.622711
0.307498
0.511751
0.705687
0.709962
0.327431
0.709822
0.676876
0.312207
0.706464
0.706992
0.332377
0.352419
0.707372
0.333699
0.326929
0.7081
0.369159
0.708629
0.680664
0.700491
0.674034
0.704554
0.702073
0.697669
0.330348
0.412612
0.687785
0.707902
0.447705
0.704089
0.399679
0.70444
0.708402
0.577908
0.657686
0.47571
0.459694
0.709928
0.704859
0.703497
0.705275
0.70179
0.709111
0.705801
0.707233
0.707159
0.706804
0.706456
0.708149
0.696836
0.30879
0.706116
0.341513
0.703389
0.705455
0.699466
0.705078
0.692028
0.356283
0.336225
0.368159
0.327613
0.705482
0.327907
0.333418
0.692412
0.308474
0.697661
0.333723
0.708629
0.707409
0.346445
0.391586
0.369321
0.704844
0.325975
0.709524
0.705452
0.33902
0.706423
0.54454
0.379507
0.340032
0.309234
0.688047
0.354305
0.704253
0.592275
0.38509
0.703754
0.702728
0.70231
0.350771
0.595977
0.317164
0.703887
0.699082
0.702398
0.362241
0.707675
0.704365
0.704585
0.436725
0.704894
0.35577
0.334338
0.705837
0.467521
0.703787
0.467601
0.359771
0.436678
0.705449
0.335832
0.309209
0.340297
0.543201
0.710578
0.706532
0.305933
0.630444
0.703189
0.536895
0.496827
0.364391
0.546048
0.361933
0.330811
0.709552
0.335491
0.348454
0.705252
0.704865
0.330761
0.695155
0.337138
0.709606
0.344232
0.706678
0.709365
0.693064
0.699221
0.365425
0.330703
0.317492
0.69778
0.707296
0.574291
0.544438
0.385629
0.343812
0.698302
0.330459
0.708377
0.39546
0.706726
0.679757
0.3277
0.335187
0.33606
0.337418
0.337329
0.684637
0.70528
0.329068
0.706851
0.651235
0.390689
0.337353
0.70449
0.351699
0.708013
0.422035
0.693815
0.662128
0.707172
0.711253
0.351783
0.703054
0.70379
0.706152
0.348865
0.691865
0.584598
0.373313
0.705
0.678039
0.708119
0.706816
0.704725
0.706101
0.705765
0.698419
0.705893
0.344179
0.701404
0.336303
0.502545
0.705044
0.317577
0.709394
0.699044
0.370847
0.704617
0.349235
0.313338
0.706642
0.694247
0.704911
0.333356
0.707082
0.61757
0.344624
0.3305
0.706593
0.701416
0.405274
0.34849
0.700561
0.704677
0.35917
0.654744
0.705096
0.649999
0.326198
0.354345
0.315113
0.662325
0.337083
0.709853
0.693565
0.698508
0.641082
0.707737
0.333723
0.707687
0.605352
0.70525
0.657627
0.320245
0.329227
0.298901
0.69918
0.705856
0.41892
0.660584
0.359095
0.678916
0.70326
0.30215
0.674885
0.710017
0.638382
0.33096
0.323941
0.363274
0.706192
0.703845
0.61581
0.493687
0.707866
0.350846
0.642178
0.708514
0.707359
0.331039
0.615589
0.374742
0.701701
0.282729
0.709806
0.706625
0.321884
0.706398
0.508506
0.707889
0.662331
0.706954
0.705076
0.460083
0.697681
0.702766
0.702843
0.709642
0.457862
0.708526
0.297335
0.703448
0.30719
0.33657
0.316788
0.33585
0.35962
0.329845
0.705004
0.387547
0.33582
0.67325
0.706254
0.705963
0.43561
0.690539
0.68573
0.699032
0.309907
0.654444
0.70173
0.375086
0.34752
0.330929
0.64168
0.486265
0.346616
0.644676
0.310342
0.71136
0.480375
0.318921
0.460561
0.657358
0.36745
0.70121
0.326251
0.566761
0.405333
0.706607
0.419077
0.675151
0.70875
0.700563
0.496344
0.334709
0.706953
0.704628
0.351985
0.314705
0.69798
0.335933
0.697359
0.331731
0.5441
0.293206
0.701861
0.370402
0.704882
0.335581
0.703408
0.707576
0.705008
0.708797
0.300209
0.321381
0.431849
0.70606
0.69186
0.705207
0.621898
0.374654
0.702185
0.366137
0.707222
0.688931
0.45841
0.38851
0.701647
0.710058
0.317856
0.708554
0.707252
0.702605
0.700591
0.326879
0.64367
0.34084
0.703174
0.328195
0.70209
0.70654
0.70731
0.705075
0.387867
0.704914
0.345078
0.333568
0.700714
0.708888
0.563968
0.709129
0.708251
0.34981
0.696971
0.706577
0.705891
0.315268
0.446607
0.686134
0.32749
0.704778
0.704862
0.709669
0.706393
0.316734
0.485738
0.652388
0.321474
0.708034
0.704134
0.503154
0.706757
0.303922
0.695794
0.697287
0.676247
0.706694
0.323394
0.322081
0.709189
0.709545
0.368214
0.401706
0.368564
0.323533
0.332787
0.310049
0.34845
0.358998
0.709219
0.310552
0.326999
0.700275
0.565238
0.707837
0.423398
0.340002
0.703608
0.489666
0.555284
0.703606
0.412862
0.658753
0.704836
0.600361
0.706237
0.327354
0.706614
0.701166
0.342719
0.333247
0.458966
0.698453
0.60163
0.704607
0.697228
0.707192
0.706464
0.395009
0.706894
0.699538
0.706783
0.338904
0.702477
0.675772
0.392343
0.44321
0.309099
0.31544
0.318043
0.602879
0.675132
0.702139
0.331411
0.394659
0.705179
0.30756
0.704471
0.703365
0.709818
0.676119
0.707786
0.372318
0.316397
0.310049
0.599733
0.32491
0.706389
0.30833
0.699968
0.698148
0.705912
0.360318
0.480055
0.454123
0.707741
0.346121
0.330377
0.705257
0.706603
0.66289
0.697252
0.706506
0.697181
0.361883
0.615226
0.70401
0.509607
0.708151
0.703725
0.699385
0.433875
0.418816
0.705933
0.477208
0.645356
0.341083
0.699212
0.709059
0.428165
0.339586
0.702265
0.512164
0.70454
0.704141
0.355728
0.33047
0.711214
0.486822
0.443955
0.707881
0.706602
0.373403
0.709088
0.709661
0.705049
0.363209
0.602164
0.359107
0.706565
0.705223
0.697492
0.700275
0.711087
0.381097
0.414009
0.703907
0.338108
0.595529
0.380884
0.707097
0.311436
0.662625
0.703848
0.711453
0.362366
0.707072
0.710214
0.328607
0.698266
0.308602
0.706077
0.357514
0.327654
0.306558
0.696878
0.706829
0.362184
0.371133
0.705476
0.704823