# vtk DataFile Version 1.0
unstructured grid
ascii
DATASET UNSTRUCTURED_GRID
points 13672 float
0.0796578 -0.059106 0
0.00128732 0.00159165 0
0.00227961 -0.00102548 0
0.0791586 -0.0598787 0
-0.0546216 0.01 0
0.000495206 0.025 0
0.0800549 -0.035 0
0.135172 -0.08 0
-0.0546216 -0.0451168 0
0.000495206 -0.0301168 0
0.0800549 -0.0901168 0
0.135172 -0.135117 0
-0.0546216 -0.0451168 -0.00551168
0.000495206 -0.0301168 -0.00551168
0.0800549 -0.0901168 -0.00551168
0.135172 -0.135117 -0.00551168
0.135172 -0.08 -0.00551168
0.0800549 -0.035 -0.00551168
0.000495206 0.025 -0.00551168
-0.0546216 0.01 -0.00551168
0.00128732 0.00159165 -0.00551168
0.00227961 -0.00102548 -0.00551168
0.0791586 -0.0598787 -0.00551168
0.0796578 -0.059106 -0.00551168
0.00165953 -0.000990923 0
0.00119576 -0.000874076 0
0.000866021 -0.000641801 0
0.000645147 -0.000349912 0
0.00052235 -1.7281e-05 0
0.00049972 0.000348016 0
0.000601632 0.000737716 0
0.000861774 0.0011403 0
0.00157235 0.00183217 0
0.00188647 0.00206725 0
0.00222612 0.00230203 0
0.00258713 0.00254351 0
0.00296826 0.00279524 0
0.00337118 0.00305664 0
0.00379785 0.00332658 0
0.00425045 0.00360349 0
0.00473139 0.00388521 0
0.0052432 0.00416895 0
0.0057881 0.00445204 0
0.00636753 0.00473281 0
0.00698281 0.00500961 0
0.00763526 0.00528058 0
0.00832616 0.00554366 0
0.00905691 0.00579603 0
0.00982918 0.00603333 0
0.0106445 0.00625033 0
0.0115038 0.00644128 0
0.0124073 0.00660297 0
0.0133543 0.00673414 0
0.0143444 0.00683382 0
0.0153769 0.00690031 0
0.0164512 0.00693173 0
0.0175666 0.00692547 0
0.0187219 0.00687822 0
0.0199156 0.00678477 0
0.0211454 0.00663864 0
0.0224084 0.00643275 0
0.0237018 0.00616676 0
0.0250249 0.00584739 0
0.026375 0.00547298 0
0.0277479 0.00503752 0
0.0291386 0.00453545 0
0.0305433 0.0039653 0
0.0319572 0.0033256 0
0.0333681 0.00260019 0
0.034775 0.00179799 0
0.0361793 0.000930615 0
0.0375798 3.12222e-06 0
0.0389689 -0.000988429 0
0.0403357 -0.00205109 0
0.041675 -0.00318283 0
0.0429849 -0.00437751 0
0.0442643 -0.00562904 0
0.0455126 -0.00693089 0
0.0467314 -0.00827518 0
0.0479204 -0.00965638 0
0.0490661 -0.0110799 0
0.0501515 -0.0125519 0
0.0511696 -0.0140695 0
0.0521492 -0.0156071 0
0.0531202 -0.0171411 0
0.0540851 -0.0186663 0
0.0550431 -0.0201798 0
0.0559923 -0.0216793 0
0.0569311 -0.0231626 0
0.0578582 -0.0246273 0
0.0587723 -0.0260715 0
0.0596721 -0.027493 0
0.0605563 -0.02889 0
0.0614241 -0.0302609 0
0.0622742 -0.0316042 0
0.063106 -0.0329183 0
0.0639186 -0.034202 0
0.0647113 -0.0354543 0
0.0654835 -0.0366743 0
0.0662345 -0.0378613 0
0.0669642 -0.0390145 0
0.0676726 -0.0401333 0
0.0683597 -0.0412172 0
0.0690246 -0.0422665 0
0.0696662 -0.0432819 0
0.0702841 -0.0442636 0
0.0708793 -0.0452111 0
0.0714538 -0.0461237 0
0.072009 -0.047001 0
0.0725452 -0.0478434 0
0.0730611 -0.0486524 0
0.073556 -0.0494294 0
0.0740291 -0.0501756 0
0.0744812 -0.0508916 0
0.0749138 -0.0515773 0
0.0753285 -0.0522331 0
0.0757266 -0.0528592 0
0.076109 -0.0534564 0
0.0764753 -0.0540264 0
0.0768243 -0.054571 0
0.0771553 -0.0550919 0
0.0774679 -0.0555901 0
0.0777617 -0.0560669 0
0.0780369 -0.056523 0
0.0782958 -0.0569578 0
0.0785421 -0.0573703 0
0.0787786 -0.0577603 0
0.0790073 -0.0581279 0
0.0792295 -0.058474 0
0.0794462 -0.0587995 0
0.0798803 -0.0594162 0
0.0800272 -0.0596588 0
0.0800357 -0.0598891 0
0.0799275 -0.0600784 0
0.0797205 -0.0601773 0
0.0794593 -0.0601051 0
0.0789155 -0.0596491 0
0.0786707 -0.0593963 0
0.0784111 -0.0591319 0
0.0781372 -0.0588542 0
0.0778566 -0.0585548 0
0.0775715 -0.0582308 0
0.0772803 -0.0578828 0
0.0769832 -0.0575099 0
0.0766822 -0.0571097 0
0.0763801 -0.0566796 0
0.0760759 -0.0562196 0
0.0757623 -0.0557337 0
0.0754359 -0.0552232 0
0.0750951 -0.0546879 0
0.0747379 -0.054128 0
0.0743626 -0.0535435 0
0.0739688 -0.0529338 0
0.0735559 -0.0522981 0
0.0731238 -0.0516357 0
0.0726718 -0.050946 0
0.0721991 -0.0502288 0
0.0717046 -0.049484 0
0.0711872 -0.0487117 0
0.0706461 -0.047912 0
0.0700804 -0.0470849 0
0.0694892 -0.0462308 0
0.0688718 -0.0453499 0
0.0682271 -0.0444431 0
0.0675544 -0.043511 0
0.0668527 -0.0425546 0
0.0661215 -0.0415748 0
0.06536 -0.040573 0
0.0645676 -0.0395504 0
0.0637439 -0.0385087 0
0.0628887 -0.0374493 0
0.062002 -0.0363741 0
0.0610838 -0.0352847 0
0.0601345 -0.0341831 0
0.0591547 -0.033071 0
0.0581456 -0.0319502 0
0.0571083 -0.0308224 0
0.0560444 -0.0296893 0
0.0549562 -0.028552 0
0.053845 -0.0274126 0
0.0527113 -0.0262746 0
0.051554 -0.0251427 0
0.0503724 -0.0240222 0
0.0491675 -0.0229164 0
0.047941 -0.0218282 0
0.0466955 -0.0207597 0
0.0454337 -0.0197126 0
0.0441592 -0.0186878 0
0.0428751 -0.0176863 0
0.0415841 -0.0167097 0
0.0402878 -0.0157609 0
0.0389879 -0.0148428 0
0.0376864 -0.0139575 0
0.0363853 -0.013107 0
0.0350871 -0.0122931 0
0.0337942 -0.0115164 0
0.0325095 -0.0107772 0
0.0312357 -0.0100756 0
0.0299758 -0.00941024 0
0.0287337 -0.00877784 0
0.0275126 -0.00817571 0
0.0263139 -0.00760375 0
0.0251376 -0.00706528 0
0.0239829 -0.0065649 0
0.0228537 -0.00609619 0
0.0217522 -0.00565563 0
0.0206795 -0.00524226 0
0.0196364 -0.00485507 0
0.0186233 -0.00449318 0
0.0176408 -0.00415577 0
0.016689 -0.00384204 0
0.0157682 -0.00355115 0
0.0148783 -0.00328218 0
0.0140192 -0.00303468 0
0.0131906 -0.00280795 0
0.0123925 -0.00260016 0
0.0116246 -0.00241012 0
0.0108864 -0.00223769 0
0.0101774 -0.00208212 0
0.00949701 -0.00194206 0
0.00884483 -0.0018163 0
0.0082202 -0.0017039 0
0.00762247 -0.00160391 0
0.00705097 -0.00151528 0
0.006505 -0.00143697 0
0.0059838 -0.00136806 0
0.00548662 -0.00130772 0
0.00501265 -0.00125519 0
0.00456114 -0.00120954 0
0.00413136 -0.00116914 0
0.00372257 -0.00113251 0
0.00333398 -0.00109853 0
0.00296466 -0.00106798 0
0.00261363 -0.0010431 0
-0.052721 -0.0445996 0
-0.0508204 -0.0440823 0
-0.0489199 -0.0435651 0
-0.0470193 -0.0430478 0
-0.0451187 -0.0425306 0
-0.0432181 -0.0420134 0
-0.0413175 -0.0414961 0
-0.039417 -0.0409789 0
-0.0375164 -0.0404616 0
-0.0356158 -0.0399444 0
-0.0337152 -0.0394271 0
-0.0318146 -0.0389099 0
-0.0299141 -0.0383927 0
-0.0280135 -0.0378754 0
-0.0261129 -0.0373582 0
-0.0242123 -0.0368409 0
-0.0223117 -0.0363237 0
-0.0204112 -0.0358065 0
-0.0185106 -0.0352892 0
-0.01661 -0.034772 0
-0.0147094 -0.0342547 0
-0.0128088 -0.0337375 0
-0.0109083 -0.0332202 0
-0.00900769 -0.032703 0
-0.00710711 -0.0321858 0
-0.00520653 -0.0316685 0
-0.00330595 -0.0311513 0
-0.00140537 -0.030634 0
0.00190689 -0.0299614 0
0.00332271 -0.0298498 0
0.00474133 -0.0297825 0
0.00616136 -0.0297597 0
0.0075814 -0.0297814 0
0.00900007 -0.0298477 0
0.010416 -0.0299583 0
0.0118278 -0.0301127 0
0.0132342 -0.0303103 0
0.0146339 -0.0305504 0
0.0160259 -0.0308322 0
0.0174091 -0.0311546 0
0.0187824 -0.0315166 0
0.020145 -0.031917 0
0.0214961 -0.0323546 0
0.0228351 -0.032828 0
0.0241613 -0.0333361 0
0.0254744 -0.0338774 0
0.0267738 -0.0344507 0
0.0280592 -0.0350545 0
0.0293306 -0.0356877 0
0.0305875 -0.0363488 0
0.0318301 -0.0370367 0
0.0330581 -0.0377501 0
0.0342717 -0.0384879 0
0.0354708 -0.0392489 0
0.0366556 -0.0400321 0
0.0378262 -0.0408363 0
0.0389828 -0.0416607 0
0.0401254 -0.0425042 0
0.0412543 -0.0433659 0
0.0423698 -0.0442451 0
0.043472 -0.0451408 0
0.0445612 -0.0460523 0
0.0456375 -0.0469789 0
0.0467013 -0.0479199 0
0.0477529 -0.0488746 0
0.0487923 -0.0498424 0
0.04982 -0.0508227 0
0.0508362 -0.051815 0
0.051841 -0.0528187 0
0.0528348 -0.0538333 0
0.0538178 -0.0548584 0
0.0547903 -0.0558935 0
0.0557524 -0.0569382 0
0.0567045 -0.0579922 0
0.0576467 -0.0590549 0
0.0585792 -0.0601261 0
0.0595024 -0.0612055 0
0.0604163 -0.0622926 0
0.0613212 -0.0633873 0
0.0622174 -0.0644891 0
0.0631049 -0.0655979 0
0.0639841 -0.0667134 0
0.064855 -0.0678353 0
0.0657179 -0.0689633 0
0.0665729 -0.0700974 0
0.0674202 -0.0712372 0
0.06826 -0.0723826 0
0.0690925 -0.0735333 0
0.0699178 -0.0746892 0
0.070736 -0.0758501 0
0.0715473 -0.0770159 0
0.0723518 -0.0781863 0
0.0731498 -0.0793612 0
0.0739412 -0.0805405 0
0.0747264 -0.081724 0
0.0755053 -0.0829116 0
0.0762781 -0.0841033 0
0.0770449 -0.0852987 0
0.0778059 -0.0864979 0
0.0785611 -0.0877007 0
0.0793108 -0.088907 0
0.0814681 -0.0912706 0
0.0828814 -0.0924245 0
0.0842946 -0.0935783 0
0.0857079 -0.0947322 0
0.0871211 -0.095886 0
0.0885344 -0.0970399 0
0.0899476 -0.0981937 0
0.0913609 -0.0993476 0
0.0927741 -0.100501 0
0.0941874 -0.101655 0
0.0956006 -0.102809 0
0.0970139 -0.103963 0
0.0984272 -0.105117 0
0.0998404 -0.106271 0
0.101254 -0.107424 0
0.102667 -0.108578 0
0.10408 -0.109732 0
0.105493 -0.110886 0
0.106907 -0.11204 0
0.10832 -0.113194 0
0.109733 -0.114348 0
0.111146 -0.115501 0
0.11256 -0.116655 0
0.113973 -0.117809 0
0.115386 -0.118963 0
0.116799 -0.120117 0
0.118213 -0.121271 0
0.119626 -0.122424 0
0.121039 -0.123578 0
0.122452 -0.124732 0
0.123866 -0.125886 0
0.125279 -0.12704 0
0.126692 -0.128194 0
0.128105 -0.129348 0
0.129519 -0.130501 0
0.130932 -0.131655 0
0.132345 -0.132809 0
0.133758 -0.133963 0
0.135172 -0.133216 0
0.135172 -0.131316 0
0.135172 -0.129415 0
0.135172 -0.127514 0
0.135172 -0.125614 0
0.135172 -0.123713 0
0.135172 -0.121813 0
0.135172 -0.119912 0
0.135172 -0.118012 0
0.135172 -0.116111 0
0.135172 -0.11421 0
0.135172 -0.11231 0
0.135172 -0.110409 0
0.135172 -0.108509 0
0.135172 -0.106608 0
0.135172 -0.104708 0
0.135172 -0.102807 0
0.135172 -0.100906 0
0.135172 -0.0990058 0
0.135172 -0.0971052 0
0.135172 -0.0952046 0
0.135172 -0.0933041 0
0.135172 -0.0914035 0
0.135172 -0.0895029 0
0.135172 -0.0876023 0
0.135172 -0.0857017 0
0.135172 -0.0838012 0
0.135172 -0.0819006 0
0.133758 -0.0788462 0
0.132345 -0.0776923 0
0.130932 -0.0765385 0
0.129519 -0.0753846 0
0.128105 -0.0742308 0
0.126692 -0.0730769 0
0.125279 -0.0719231 0
0.123866 -0.0707692 0
0.122452 -0.0696154 0
0.121039 -0.0684615 0
0.119626 -0.0673077 0
0.118213 -0.0661538 0
0.116799 -0.065 0
0.115386 -0.0638462 0
0.113973 -0.0626923 0
0.11256 -0.0615385 0
0.111146 -0.0603846 0
0.109733 -0.0592308 0
0.10832 -0.0580769 0
0.106907 -0.0569231 0
0.105493 -0.0557692 0
0.10408 -0.0546154 0
0.102667 -0.0534615 0
0.101254 -0.0523077 0
0.0998404 -0.0511538 0
0.0984272 -0.05 0
0.0970139 -0.0488462 0
0.0956006 -0.0476923 0
[...]
CELL_DATA 13116
SCALARS rho float
LOOKUP_TABLE default
0.552267
0.660741
0.357693
0.715269
0.702851
0.679158
0.378313
0.70361
0.531045
0.708423
0.373705
0.375919
0.703139
0.399527
0.374497
0.679302
0.520328
0.699513
0.678962
0.386572
0.557543
0.391898
0.413847
0.701341
0.613296
0.623014
0.708484
0.356261
0.612989
0.649487
0.676561
0.39655
0.559724
0.451125
0.374528
0.554977
0.667451
0.673704
0.678208
0.681659
0.679566
0.707877
0.428454
0.350605
0.677613
0.678879
0.636132
0.68304
0.381001
0.527588
0.699138
0.445216
0.38141
0.513282
0.558255
0.589298
0.351556
0.697622
0.541159
0.378047
0.403131
0.70991
0.650567
0.678074
0.676783
0.406685
0.683567
0.674692
0.68538
0.676988
0.376049
0.591979
0.389832
0.411648
0.675783
0.361255
0.645168
0.696367
0.373124
0.696626
0.680556
0.632573
0.701313
0.683319
0.667739
0.453895
0.384269
0.672426
0.660529
0.387465
0.383347
0.662518
0.703815
0.665257
0.652206
0.602121
0.615847
0.676307
0.676046
0.603353
0.682624
0.58941
0.679263
0.407577
0.616441
0.407563
0.362119
0.476385
0.418765
0.623257
0.505642
0.628004
0.600226
0.684427
0.697212
0.683934
0.392384
0.391322
0.692077
0.685741
0.67522
0.389706
0.685921
0.405478
0.657617
0.442798
0.385105
0.514819
0.382518
0.529333
0.692358
0.68526
0.508882
0.389069
0.48867
0.587452
0.674295
0.689142
0.681716
0.685403
0.628658
0.639637
0.512982
0.629424
0.646426
0.394908
0.373049
0.622926
0.700443
0.693836
0.550237
0.682592
0.682844
0.379172
0.704687
0.669028
0.414583
0.688295
0.676384
0.672878
0.700462
0.374815
0.699392
0.415503
0.386671
0.707264
0.654937
0.699038
0.375619
0.470776
0.42632
0.674276
0.380577
0.497338
0.682715
0.413573
0.379944
0.390825
0.623796
0.67876
0.385659
0.436477
0.52654
0.668019
0.678901
0.538666
0.373672
0.679242
0.60182
0.46586
0.639097
0.620726
0.677182
0.416802
0.616921
0.679118
0.705272
0.678957
0.659226
0.409103
0.407213
0.628341
0.509367
0.41417
0.694668
0.678426
0.454132
0.612484
0.395645
0.395909
0.35978
0.681511
0.414317
0.385364
0.3881
0.377086
0.36955
0.677837
0.653824
0.439833
0.352842
0.683242
0.499415
0.385896
0.562318
0.709006
0.644027
0.37638
0.682885
0.394855
0.710826
0.386135
0.677178
0.582015
0.676105
0.67374
0.677334
0.375551
0.435124
0.672937
0.675672
0.678963
0.674541
0.677343
0.695175
0.383023
0.693637
0.70548
0.676058
0.372544
0.383947
0.679867
0.691182
0.67697
0.687261
0.538121
0.687924
0.372791
0.400608
0.39994
0.396351
0.598385
0.70506
0.643812
0.376458
0.675634
0.398363
0.438012
0.618787
0.394015
0.626549
0.703626
0.675344
0.697272
0.376651
0.675277
0.685849
0.676076
0.688984
0.370132
0.385229
0.417559
0.582571
0.388607
0.393154
0.335275
0.30742
0.667911
0.381258
0.66703
0.703333
0.386384
0.389354
0.396371
0.458478
0.354546
0.670997
0.588824
0.622794
0.395739
0.681252
0.594955
0.405351
0.376998
0.678305
0.691049
0.678951
0.369769
0.679275
0.417697
0.684439
0.708135
0.69193
0.706897
0.419702
0.682816
0.391736
0.679556
0.709264
0.674209
0.378691
0.33472
0.706051
0.396746
0.650405
0.709768
0.368459
0.691008
0.701026
0.389766
0.675456
0.703778
0.385468
0.693942
0.454679
0.582572
0.67669
0.461894
0.688537
0.378151
0.699147
0.346617
0.677548
0.579108
0.706399
0.383986
0.360931
0.669133
0.381691
0.693462
0.608089
0.42626
0.674391
0.380799
0.382773
0.690266
0.562902
0.672954
0.386098
0.414633
0.69337
0.703142
0.37323
0.701146
0.398658
0.406607
0.683542
0.683181
0.46315
0.392691
0.689382
0.676787
0.67937
0.674061
0.696424
0.550289
0.329562
0.392232
0.385542
0.679257
0.38536
0.524399
0.373446
0.399475
0.354746
0.472873
0.144488
0.385385
0.670344
0.33256
0.700141
0.612543
0.680416
0.664344
0.694656
0.383449
0.382926
0.41533
0.338355
0.690429
0.595982
0.679677
0.613133
0.648187
0.623629
0.630796
0.625075
0.646629
0.694851
0.696142
0.678725
0.406429
0.462578
0.548138
0.388985
0.584883
0.587514
0.383044
0.683525
0.675481
0.421737
0.382869
0.377216
0.380073
0.638329
0.375744
0.416888
0.682124
0.408524
0.581412
0.379429
0.678947
0.67964
0.346032
0.390178
0.68978
0.460112
0.376264
0.37924
0.388752
0.420773
0.385908
0.383852
0.39443
0.437949
0.37311
0.585696
0.373061
0.666158
0.383471
0.442993
0.510803
0.400273
0.386074
0.398909
0.678488
0.444409
0.647644
0.479075
0.405092
0.615021
0.663113
0.453125
0.69061
0.624659
0.623125
0.386381
0.676176
0.393429
0.697685
0.676439
0.419242
0.386236
0.600587
0.343173
0.463814
0.581974
0.360983
0.687324
0.649138
0.389402
0.375461
0.380019
0.492774
0.374923
0.384037
0.379109
0.392157
0.710773
0.712008
0.465358
0.606559
0.487783
0.617481
0.355717
0.377919
0.535636
0.420264
0.683816
0.295992
0.375642
0.504673
0.676995
0.649971
0.56923
0.36679
0.385696
0.578245
0.704083
0.677355
0.574309
0.622273
0.597402
0.374684
0.678627
0.577447
0.671841
0.313402
0.358184
0.68345
0.705593
0.663302
0.709359
0.65459
0.621624
0.699273
0.672542
0.680232
0.385841
0.676727
0.342312
0.395397
0.383175
0.714185
0.678845
0.31276
0.666675
0.62994
0.378907
0.677519
0.690218
0.691339
0.355658
0.377169
0.694659
0.373341
0.3767
0.380109
0.376595
0.681595
0.385092
0.714209
0.376094
0.661585
0.697665
0.683898
0.703511
0.374862
0.387586
0.680999
0.712343
0.657192
0.710447
0.705207
0.505225
0.388768
0.424202
0.680226
0.533431
0.377016
0.459868
0.394686
0.677258
0.679977
0.313183
0.392756
0.664148
0.472545
0.671262
0.666979
0.380336
0.395708
0.65298
0.675559
0.417337
0.649131
0.654335
0.680127
0.371275
0.674489
0.361841
0.675985
0.67062
0.391697
0.368874
0.393604
0.675989
0.370041
0.373684
0.391888
0.677735
0.688707
0.373731
0.393766
0.378763
0.677745
0.390357
0.678995
0.394921
0.59593
0.709061
0.386572
0.415046
0.414112
0.505697
0.428465
0.637071
0.364861
0.377864
0.678569
0.383166
0.681104
0.646633
0.676139
0.381539
0.684488
0.702461
0.704886
0.680575
0.656026
0.683262
0.394386
0.67724
0.442263
0.677917
0.370273
0.696347
0.510257
0.377348
0.676577
0.698488
0.379024
0.628309
0.382493
0.374007
0.681993
0.678129
0.379853
0.39415
0.373761
0.402507
0.672562
0.701479
0.374524
0.387938
0.693502
0.688658
0.597747
0.701859
0.679863
0.374955
0.706559
0.432701
0.698963
0.392671
0.60026
0.490661
0.682479
0.674181
0.586248
0.346528
0.385092
0.678838
0.613633
0.519135
0.701328
0.395351
0.683664
0.704267
0.369501
0.459952
0.702929
0.366014
0.67676
0.673926
0.330112
0.686927
0.650438
0.372367
0.687569
0.416539
0.658371
0.360394
0.681241
0.648593
0.426018
0.678101
0.699896
0.695871
0.631078
0.67989
0.592999
0.375729
0.420233
0.371192
0.412937
0.673858
0.565412
0.686821
0.699728
0.383746
0.388834
0.683888
0.709973
0.690409
0.703496
0.37686
0.696339
0.705312
0.385359
0.385343
0.692419
0.679654
0.663109
0.399953
0.601027
0.325643
0.686737
0.643955
0.677447
0.668116
0.376387
0.678149
0.667034
0.702851
0.676856
0.679632
0.438014
0.695972
0.397241
0.624152
0.706909
0.470441
0.650732
0.677562
0.696977
0.405797
0.407541
0.594072
0.656788
0.373076
0.394164
0.393203
0.372743
0.663641
0.683229
0.677246
0.308261
0.373807
0.685137
0.686795
0.387504
0.387392
0.472251
0.665889
0.679043
0.673339
0.693109
0.396796
0.373511
0.674714
0.402461
0.385347
0.363049
0.678914
0.325468
0.385305
0.581461
0.679527
0.624243
0.67864
0.67914
0.396273
0.38045
0.398921
0.478628
0.443967
0.386275
0.673138
0.692772
0.659582
0.68123
0.411789
0.380559
0.70906
0.378297
0.67946
0.647961
0.676591
0.379965
0.387118
0.652457
0.676518
0.563988
0.385222
0.670061
0.678854
0.577
0.69409
0.702073
0.674961
0.622862
0.37872
0.679186
0.676712
0.617159
0.687184
0.673984
0.629884
0.675109
0.688129
0.378363
0.369333
0.379895
0.676768
0.508789
0.376752
0.683591
0.694259
0.36954
0.636043
0.330868
0.640896
0.471445
0.379159
0.710313
0.700877
0.37614
0.560591
0.6768
0.409179
0.66578
0.407612
0.406266
0.619411
0.613906
0.510921
0.679254
0.392681
0.699197
0.375793
0.393415
0.680961
0.376487
0.606879
0.397773
0.635075
0.60188
0.67504
0.652783
0.388448
0.377257
0.60969
0.430668
0.690119
0.461392
0.59466
0.678993
0.702615
0.444828
0.620461
0.621848
0.705589
0.684601
0.350262
0.373367
0.550719
0.618851
0.706122
0.380431
0.679123
0.565959
0.415079
0.385555
0.675798
0.666851
0.674765
0.675866
0.58821
0.68498
0.678096
0.674765
0.39605
0.663904
0.469537
0.687964
0.678914
0.303937
0.619197
0.700927
0.374274
0.380708
0.394434
0.674024
0.374761
0.619293
0.692498
0.665518
0.364356
0.670601
0.412348
0.600409
0.677865
0.677126
0.671419
0.677702
0.624221
0.679232
0.528309
0.677339
0.358809
0.679015
0.683691
0.41126
0.67538
0.684559
0.417564
0.391226
0.397324
0.692551
0.392482
0.675153
0.395532
0.702496
0.386775
0.491157
0.39968
0.697115
0.702813
0.535931
0.273185
0.623987
0.677931
0.39852
0.596625
0.712523
0.385979
0.591997
0.676304
0.708614
0.679782
0.417703
0.473654
0.69206
0.679681
0.625789
0.392322
0.403984
0.672396
0.674604
0.675528
0.674507
0.551739
0.68572
0.546986
0.6851
0.392385
0.413699
0.674591
0.701528
0.677822
0.408769
0.679091
0.559423
0.602188
0.364044
0.423662
0.701665
0.715855
0.563499
0.338491
0.680716
0.675555
0.37642
0.616348
0.692879
0.375651
0.439027
0.389318
0.599136
0.393363
0.384516
0.674415
0.469513
0.706466
0.642092
0.377313
0.385932
0.708807
0.369536
0.376442
0.67653
0.405985
0.356992
0.595837
0.650135
0.684884
0.372522
0.306936
0.372296
0.648249
0.407093
0.685561
0.37701
0.684381
0.608563
0.676428
0.628501
0.677038
0.641681
0.679178
0.70302
0.688396
0.383928
0.399034
0.669396
0.678181
0.516389
0.612986
0.564291
0.677979
0.61537
0.346944
0.684691
0.711497
0.675015
0.374096
0.67914
0.369855
0.683443
0.50835
0.696949
0.680703
0.379502
0.690516
0.378531
0.430822
0.652026
0.358223
0.687793
0.674087
0.686123
0.377616
0.682021
0.371738
0.379896
0.398622
0.390919
0.606753
0.383295
0.632467
0.67769
0.341828
0.417219
0.499105
0.590573
0.635767
0.627104
0.382138
0.39966
0.37314
0.399754
0.270526
0.635047
0.633011
0.352731
0.677475
0.691923
0.389603
0.711469
0.686141
0.677786
0.380141
0.675694
0.678487
0.696165
0.687806
0.373569
0.686458
0.697865
0.679803
0.676859
0.678309
0.391921
0.405439
0.682729
0.548729
0.389174
0.68064
0.413117
0.581962
0.628258
0.656165
0.660356
0.381309
0.61129
0.402702
0.375457
0.691753
0.695393
0.700734
0.693078
0.659069
0.380382
0.704728
0.385877
0.515197
0.706582
0.676035
0.691474
0.373355
0.397137
0.706264
0.397816
0.693935
0.657163
0.43588
0.39329
0.683602
0.400136
0.6806
0.693463
0.655503
0.399845
0.3698
0.511499
0.521362
0.623475
0.478436
0.678624
0.626853
0.669049
0.67376
0.685478
0.380392
0.395925
0.695994
0.678297
0.622783
0.470547
0.414065
0.675616
0.383717
0.679818
0.625344
0.325332
0.689868
0.371711
0.638662
0.360233
0.701516
0.376267
0.682744
0.678585
0.346726
0.660885
0.656218
0.335139
0.677275
0.678609
0.562208
0.3996
0.370701
0.47152
0.703013
0.604148
0.383189
0.596415
0.688091
0.678562
0.354725
0.611392
0.665689
0.471847
0.678621
0.679669
0.299348
0.687537
0.676187
0.357164
0.601034
0.38389
0.638564
0.388893
0.406319
0.705165
0.387684
0.379937
0.388531
0.682901
0.656672
0.410098
0.680701
0.366801
0.664111
0.371597
0.660821
0.374179
0.679177
0.683142
0.646925
0.677362
0.564508
0.678591
0.67779
0.344957
0.645713
0.652495
0.488867
0.684774
0.504877
0.410241
0.704361
0.388579
0.580058
0.322125
0.679523
0.385286
0.416232
0.701035
0.679332
0.38854
0.68664
0.692953
0.673966
0.702872
0.67589
0.37873
0.710618
0.386963
0.414777
0.661321
0.694147
0.706762
0.66651
0.389239
0.38471
0.372404
0.662061
0.67763
0.36958
0.663165
0.404934
0.383587
0.362193
0.664031
0.392964
0.706615
0.688961
0.64472
0.6771
0.687513
0.57707
0.639612
0.444712
0.411155
0.387981
0.675873
0.675677
0.409943
0.634438
0.596272
0.641643
0.41722
0.402529
0.630804
0.282946
0.624069
0.595665
0.385856
0.67813
0.665453
0.377529
0.6841
0.375609
0.686427
0.707289
0.677471
0.386282
0.48206
0.686181
0.307696
0.453708
0.677197
0.316655
0.678276
0.684454
0.626425
0.693409
0.335829
0.676502
0.691065
0.679487
0.370222
0.69551
0.38344
0.397429
0.669552
0.679342
0.677556
0.240252
0.681097
0.645575
0.67577
0.401263
0.395178
0.375593
0.690839
0.376768
0.380747
0.371569
0.593407
0.376047
0.303136
0.453701
0.68536
0.382097
0.677342
0.677931
0.6812
0.375362
0.685856
0.660567
0.677427
0.425672
0.674538
0.372964
0.389731
0.68175
0.389776
0.629942
0.687007
0.674937
0.383905
0.335136
0.37934
0.57292
0.674549
0.23839
0.674587
0.682668
0.694544
0.381
0.386926
0.35039
0.602185
0.376598
0.673921
0.61759
0.678118
0.673538
0.370172
0.630154
0.394732
0.563897
0.659059
0.709743
0.572286
0.483359
0.673932
0.626629
0.69703
0.389149
0.377398
0.403929
0.696368
0.539326
0.676063
0.384088
0.406175
0.696459
0.685669
0.676964
0.389364
0.682073
0.571077
0.574372
0.606737
0.428119
0.388504
0.298735
0.679357
0.677647
0.675288
0.615494
0.349489
0.686902
0.668002
0.677664
0.677325
0.687328
0.711253
0.679075
0.692544
0.700186
0.418726
0.687467
0.694205
0.678639
0.689785
0.678968
0.581268
0.381717
0.410956
0.620634
0.391852
0.338752
0.681065
0.37653
0.648815
0.684497
0.657994
0.675807
0.419942
0.683095
0.395329
0.411099
0.679264
0.684657
0.681435
0.365028
0.699747
0.679427
0.617332
0.679014
0.388852
0.678517
0.706736
0.666117
0.410452
0.69829
0.371446
0.716546
0.360341
0.381536
0.526395
0.458753
0.710175
0.698455
0.679711
0.372302
0.67843
0.412329
0.378416
0.646682
0.502313
0.390383
0.679473
0.388867
0.525517
0.673539
0.636689
0.660065
0.501618
0.609247
0.662482
0.679732
0.578577
0.700676
0.547466
0.701844
0.610828
0.654205
0.40983
0.374142
0.458185
0.693175
0.417065
0.671519
0.687085
0.609047
0.679895
0.523894
0.68659
0.676277
0.375867
0.685705
0.606778
0.494334
0.610848
0.705892
0.638994
0.67819
0.386173
0.378326
0.678954
0.542469
0.549239
0.688639
0.683037
0.681349
0.705586
0.707008
0.626669
0.623918
0.709662
0.382841
0.395838
0.38735
0.352833
0.675418
0.468074
0.543029
0.689443
0.681317
0.416482
0.676998
0.715688
0.364735
0.381905
0.675321
0.689252
0.428306
0.380064
0.383155
0.673827
0.62248
0.414525
0.381569
0.386234
0.40534
0.351725
0.392543
0.707188
0.683217
0.682027
0.391422
0.659098
0.611285
0.623101
0.345261
0.381539
0.64425
0.674489
0.382287
0.678894
0.378211
0.700698
0.419865
0.680356
0.385957
0.66049
0.702697
0.380698
0.576158
0.391167
0.710977
0.407988
0.615199
0.411916
0.514211
0.372491
0.606199
0.398127
0.677223
0.677139
0.620834
0.675904
0.339744
0.661046
0.677922
0.701054
0.608814
0.665113
0.383383
0.397478
0.410505
0.703857
0.295439
0.700553
0.558537
0.693892
0.708509
0.46558
0.695734
0.377555
0.408523
0.381013
0.519271
0.524365
0.682323
0.399524
0.392169
0.680546
0.387002
0.397988
0.557859
0.376262
0.382029
0.411783
0.709122
0.664917
0.619782
0.41508
0.65765
0.679648
0.411723
0.329734
0.667523
0.679135
0.567371
0.528901
0.421441
0.369351
0.383385
0.673721
0.615755
0.530384
0.689398
0.392894
0.576594
0.372079
0.676666
0.700341
0.385005
0.399868
0.622618
0.551057
0.702956
0.700111
0.703359
0.687268
0.706896
0.37136
0.390129
0.396595
0.3696
0.544258
0.676557
0.66669
0.372516
0.383127
0.457877
0.439038
0.681317
0.635745
0.38103
0.313564
0.684371
0.418846
0.661052
0.69839
0.651081
0.678397
0.556611
0.376732
0.388764
0.617956
0.385552
0.425378
0.408532
0.678023
0.679356
0.342262
0.385047
0.674287
0.39784
0.681153
0.703845
0.381507
0.376121
0.384827
0.684197
0.392486
0.674057
0.687987
0.609421
0.376221
0.543971
0.695808
0.671688
0.377983
0.669043
0.622911
0.450678
0.69172
0.70966
0.372225
0.385277
0.651176
0.403019
0.370836
0.665049
0.352803
0.681688
0.687134
0.703073
0.630697
0.701284
0.683948
0.678542
0.374297
0.420922
0.633568
0.681868
0.481807
0.711085
0.331987
0.687697
0.661683
0.578537
0.656503
0.398186
0.468065
0.677873
0.697634
0.607598
0.702957
0.682455
0.674907
0.701259
0.674065
0.659516
0.64939
0.682529
0.67462
0.678645
0.351859
0.63621
0.344894
0.683122
0.687522
0.694906
0.6405
0.69301
0.372358
0.381689
0.312445
0.377477
0.649104
0.389957
0.380746
0.681938
0.399703
0.691862
0.384744
0.665053
0.686889
0.386074
0.389771
0.326947
0.691611
0.407314
0.681485
0.690231
0.378944
0.64132
0.569145
0.351496
0.362596
0.403087
0.694473
0.385636
0.684487
0.520049
0.389025
0.678424
0.679713
0.703357
0.377635
0.582963
0.405281
0.661127
0.678386
0.683896
0.38659
0.680881
0.688929
0.623054
0.414678
0.69151
0.376006
0.374295
0.675317
0.463208
0.707298
0.410262
0.38479
0.455842
0.632908
0.364717
0.292765
0.361598
0.486648
0.675901
0.689129
0.39401
0.605002
0.682948
0.574169
0.426347
0.320263
0.571629
0.372208
0.371651
0.677664
0.375072
0.374982
0.694308
0.712872
0.359827
0.698196
0.370437
0.675184
0.352587
0.647865
0.677096
0.694325
0.678029
0.382205
0.372353
0.401717
0.678781
0.652724
0.606638
0.55245
0.379145
0.309648
0.679012
0.37418
0.682242
0.391078
0.677329
0.676137
0.380907
0.349211
0.376343
0.384598
0.347307
0.621031
0.652198
0.386977
0.686811
0.645034
0.375054
0.381778
0.713214
0.389421
0.686036
0.438111
0.69377
0.662516
0.685637
0.676046
0.377927
0.707041
0.68108
0.712283
0.389376
0.611159
0.612942
0.333255
0.692995
0.643175
0.695509
0.658355
0.707042
0.67357
0.706777
0.678758
0.678885
0.38362
0.702424
0.376578
0.466453
0.676915
0.403783
0.66569
0.608091
0.389408
0.62515
0.386997
0.384094
0.666132
0.599155
0.712214
0.373369
0.657873
0.629832
0.343915
0.388291
0.644524
0.679701
0.386267
0.368913
0.691956
0.71233
0.382436
0.649554
0.704118
0.667882
0.386094
0.376773
0.392188
0.664128
0.373635
0.669936
0.696413
0.679131
0.611295
0.686877
0.374654
0.662026
0.630212
0.702481
0.569008
0.411628
0.375602
0.401308
0.701176
0.691281
0.435229
0.660349
0.306685
0.64871
0.685426
0.396431
0.62181
0.671044
0.630598
0.388792
0.383526
0.341531
0.692961
0.70715
0.627235
0.528646
0.686139
0.379082
0.642361
0.675492
0.681223
0.38793
0.640475
0.390662
0.6149
0.405584
0.679883
0.665886
0.415189
0.692263
0.43317
0.674574
0.645598
0.67388
0.691138
0.421024
0.678882
0.680136
0.680216
0.680853
0.496379
0.675418
0.385605
0.680522
0.398034
0.385187
0.393348
0.347306
0.372708
0.385731
0.707063
0.37417
0.379705
0.664057
0.692836
0.654537
0.416085
0.689074
0.688574
0.678229
0.330513
0.583819
0.683524
0.389714
0.366414
0.37261
0.636243
0.52233
0.382312
0.591656
0.413476
0.676058
0.515371
0.385957
0.486756
0.657985
0.337109
0.680119
0.388341
0.477406
0.383388
0.677815
0.392387
0.657705
0.675579
0.588887
0.423811
0.37721
0.668694
0.71128
0.371353
0.379856
0.678889
0.386742
0.697872
0.393122
0.573651
0.401836
0.683765
0.389974
0.709349
0.385844
0.685146
0.687581
0.698384
0.675365
0.38761
0.414825
0.415389
0.626876
0.681049
0.631202
0.527217
0.391446
0.694235
0.323333
0.650127
0.585078
0.410138
0.394534
0.699902
0.679359
0.409005
0.676787
0.673762
0.699613
0.703126
0.388744
0.645014
0.378726
0.699589
0.373885
0.677688
0.642973
0.645794
0.709704
0.379045
0.71617
0.388794
0.378133
0.680931
0.675492
0.558372
0.679606
0.675366
0.388177
0.699954
0.673739
0.70433
0.381476
0.437233
0.685128
0.390233
0.688365
0.686566
0.668606
0.681614
0.292769
0.456799
0.658036
0.414407
0.661228
0.712061
0.482105
0.662219
0.276673
0.620334
0.700163
0.684408
0.661562
0.380825
0.41985
0.682751
0.66703
0.387111
0.337281
0.387401
0.415118
0.380769
0.414852
0.347616
0.390418
0.68224
0.396112
0.375793
0.690805
0.556253
0.674341
0.405437
0.384821
0.68373
0.477483
0.483651
0.705108
0.379146
0.669383
0.677437
0.622852
0.663377
0.397731
0.689489
0.67804
0.377887
0.373578
0.410465
0.604682
0.621994
0.706976
0.679555
0.682166
0.667255
0.377202
0.690105
0.678158
0.641748
0.379321
0.684523
0.578871
0.369989
0.443599
0.380879
0.399552
0.38684
0.600692
0.67481
0.670744
0.3717
0.397519
0.703819
0.355107
0.690662
0.680275
0.66915
0.684661
0.685404
0.38929
0.403207
0.409078
0.575089
0.379516
0.682977
0.392755
0.681743
0.678691
0.687055
0.363362
0.45814
0.419613
0.687159
0.366105
0.372841
0.680662
0.662923
0.625218
0.679208
0.637489
0.697357
0.374323
0.638238
0.701585
0.545091
0.685799
0.692995
0.698337
0.471929
0.436842
0.705906
0.511632
0.619074
0.378165
0.645414
0.669041
0.40986
0.370958
0.659173
0.521644
0.698493
0.6907
0.386325
0.387129
0.676223
0.387563
0.4193
0.670309
0.645972
0.390728
0.673996
0.676435
0.642719
0.375249
0.602049
0.37561
0.673097
0.699924
0.697134
0.667961
0.676498
0.307608
0.366308
0.680698
0.397645
0.622515
0.392464
0.686591
0.397177
0.654694
0.701158
0.676303
0.388825
0.674003
0.675661
0.371561
0.646317
0.390138
0.710742
0.387406
0.386614
0.384046
0.67762
0.676804