# vtk DataFile Version 1.0
unstructured grid
ascii
DATASET UNSTRUCTURED_GRID
points 13672 float
0.0796578 -0.059106 0
0.00128732 0.00159165 0
0.00227961 -0.00102548 0
0.0791586 -0.0598787 0
-0.0546216 0.01 0
0.000495206 0.025 0
0.0800549 -0.035 0
0.135172 -0.08 0
-0.0546216 -0.0451168 0
0.000495206 -0.0301168 0
0.0800549 -0.0901168 0
0.135172 -0.135117 0
-0.0546216 -0.0451168 -0.00551168
0.000495206 -0.0301168 -0.00551168
0.0800549 -0.0901168 -0.00551168
0.135172 -0.135117 -0.00551168
0.135172 -0.08 -0.00551168
0.0800549 -0.035 -0.00551168
0.000495206 0.025 -0.00551168
-0.0546216 0.01 -0.00551168
0.00128732 0.00159165 -0.00551168
0.00227961 -0.00102548 -0.00551168
0.0791586 -0.0598787 -0.00551168
0.0796578 -0.059106 -0.00551168
0.00165953 -0.000990923 0
0.00119576 -0.000874076 0
0.000866021 -0.000641801 0
0.000645147 -0.000349912 0
0.00052235 -1.7281e-05 0
0.00049972 0.000348016 0
0.000601632 0.000737716 0
0.000861774 0.0011403 0
0.00157235 0.00183217 0
0.00188647 0.00206725 0
0.00222612 0.00230203 0
0.00258713 0.00254351 0
0.00296826 0.00279524 0
0.00337118 0.00305664 0
0.00379785 0.00332658 0
0.00425045 0.00360349 0
0.00473139 0.00388521 0
0.0052432 0.00416895 0
0.0057881 0.00445204 0
0.00636753 0.00473281 0
0.00698281 0.00500961 0
0.00763526 0.00528058 0
0.00832616 0.00554366 0
0.00905691 0.00579603 0
0.00982918 0.00603333 0
0.0106445 0.00625033 0
0.0115038 0.00644128 0
0.0124073 0.00660297 0
0.0133543 0.00673414 0
0.0143444 0.00683382 0
0.0153769 0.00690031 0
0.0164512 0.00693173 0
0.0175666 0.00692547 0
0.0187219 0.00687822 0
0.0199156 0.00678477 0
0.0211454 0.00663864 0
0.0224084 0.00643275 0
0.0237018 0.00616676 0
0.0250249 0.00584739 0
0.026375 0.00547298 0
0.0277479 0.00503752 0
0.0291386 0.00453545 0
0.0305433 0.0039653 0
0.0319572 0.0033256 0
0.0333681 0.00260019 0
0.034775 0.00179799 0
0.0361793 0.000930615 0
0.0375798 3.12222e-06 0
0.0389689 -0.000988429 0
0.0403357 -0.00205109 0
0.041675 -0.00318283 0
0.0429849 -0.00437751 0
0.0442643 -0.00562904 0
0.0455126 -0.00693089 0
0.0467314 -0.00827518 0
0.0479204 -0.00965638 0
0.0490661 -0.0110799 0
0.0501515 -0.0125519 0
0.0511696 -0.0140695 0
0.0521492 -0.0156071 0
0.0531202 -0.0171411 0
0.0540851 -0.0186663 0
0.0550431 -0.0201798 0
0.0559923 -0.0216793 0
0.0569311 -0.0231626 0
0.0578582 -0.0246273 0
0.0587723 -0.0260715 0
0.0596721 -0.027493 0
0.0605563 -0.02889 0
0.0614241 -0.0302609 0
0.0622742 -0.0316042 0
0.063106 -0.0329183 0
0.0639186 -0.034202 0
0.0647113 -0.0354543 0
0.0654835 -0.0366743 0
0.0662345 -0.0378613 0
0.0669642 -0.0390145 0
0.0676726 -0.0401333 0
0.0683597 -0.0412172 0
0.0690246 -0.0422665 0
0.0696662 -0.0432819 0
0.0702841 -0.0442636 0
0.0708793 -0.0452111 0
0.0714538 -0.0461237 0
0.072009 -0.047001 0
0.0725452 -0.0478434 0
0.0730611 -0.0486524 0
0.073556 -0.0494294 0
0.0740291 -0.0501756 0
0.0744812 -0.0508916 0
0.0749138 -0.0515773 0
0.0753285 -0.0522331 0
0.0757266 -0.0528592 0
0.076109 -0.0534564 0
0.0764753 -0.0540264 0
0.0768243 -0.054571 0
0.0771553 -0.0550919 0
0.0774679 -0.0555901 0
0.0777617 -0.0560669 0
0.0780369 -0.056523 0
0.0782958 -0.0569578 0
0.0785421 -0.0573703 0
0.0787786 -0.0577603 0
0.0790073 -0.0581279 0
0.0792295 -0.058474 0
0.0794462 -0.0587995 0
0.0798803 -0.0594162 0
0.0800272 -0.0596588 0
0.0800357 -0.0598891 0
0.0799275 -0.0600784 0
0.0797205 -0.0601773 0
0.0794593 -0.0601051 0
0.0789155 -0.0596491 0
0.0786707 -0.0593963 0
0.0784111 -0.0591319 0
0.0781372 -0.0588542 0
0.0778566 -0.0585548 0
0.0775715 -0.0582308 0
0.0772803 -0.0578828 0
0.0769832 -0.0575099 0
0.0766822 -0.0571097 0
0.0763801 -0.0566796 0
0.0760759 -0.0562196 0
0.0757623 -0.0557337 0
0.0754359 -0.0552232 0
0.0750951 -0.0546879 0
0.0747379 -0.054128 0
0.0743626 -0.0535435 0
0.0739688 -0.0529338 0
0.0735559 -0.0522981 0
0.0731238 -0.0516357 0
0.0726718 -0.050946 0
0.0721991 -0.0502288 0
0.0717046 -0.049484 0
0.0711872 -0.0487117 0
0.0706461 -0.047912 0
0.0700804 -0.0470849 0
0.0694892 -0.0462308 0
0.0688718 -0.0453499 0
0.0682271 -0.0444431 0
0.0675544 -0.043511 0
0.0668527 -0.0425546 0
0.0661215 -0.0415748 0
0.06536 -0.040573 0
0.0645676 -0.0395504 0
0.0637439 -0.0385087 0
0.0628887 -0.0374493 0
0.062002 -0.0363741 0
0.0610838 -0.0352847 0
0.0601345 -0.0341831 0
0.0591547 -0.033071 0
0.0581456 -0.0319502 0
0.0571083 -0.0308224 0
0.0560444 -0.0296893 0
0.0549562 -0.028552 0
0.053845 -0.0274126 0
0.0527113 -0.0262746 0
0.051554 -0.0251427 0
0.0503724 -0.0240222 0
0.0491675 -0.0229164 0
0.047941 -0.0218282 0
0.0466955 -0.0207597 0
0.0454337 -0.0197126 0
0.0441592 -0.0186878 0
0.0428751 -0.0176863 0
0.0415841 -0.0167097 0
0.0402878 -0.0157609 0
0.0389879 -0.0148428 0
0.0376864 -0.0139575 0
0.0363853 -0.013107 0
0.0350871 -0.0122931 0
0.0337942 -0.0115164 0
0.0325095 -0.0107772 0
0.0312357 -0.0100756 0
0.0299758 -0.00941024 0
0.0287337 -0.00877784 0
0.0275126 -0.00817571 0
0.0263139 -0.00760375 0
0.0251376 -0.00706528 0
0.0239829 -0.0065649 0
0.0228537 -0.00609619 0
0.0217522 -0.00565563 0
0.0206795 -0.00524226 0
0.0196364 -0.00485507 0
0.0186233 -0.00449318 0
0.0176408 -0.00415577 0
0.016689 -0.00384204 0
0.0157682 -0.00355115 0
0.0148783 -0.00328218 0
0.0140192 -0.00303468 0
0.0131906 -0.00280795 0
0.0123925 -0.00260016 0
0.0116246 -0.00241012 0
0.0108864 -0.00223769 0
0.0101774 -0.00208212 0
0.00949701 -0.00194206 0
0.00884483 -0.0018163 0
0.0082202 -0.0017039 0
0.00762247 -0.00160391 0
0.00705097 -0.00151528 0
0.006505 -0.00143697 0
0.0059838 -0.00136806 0
0.00548662 -0.00130772 0
0.00501265 -0.00125519 0
0.00456114 -0.00120954 0
0.00413136 -0.00116914 0
0.00372257 -0.00113251 0
0.00333398 -0.00109853 0
0.00296466 -0.00106798 0
0.00261363 -0.0010431 0
-0.052721 -0.0445996 0
-0.0508204 -0.0440823 0
-0.0489199 -0.0435651 0
-0.0470193 -0.0430478 0
-0.0451187 -0.0425306 0
-0.0432181 -0.0420134 0
-0.0413175 -0.0414961 0
-0.039417 -0.0409789 0
-0.0375164 -0.0404616 0
-0.0356158 -0.0399444 0
-0.0337152 -0.0394271 0
-0.0318146 -0.0389099 0
-0.0299141 -0.0383927 0
-0.0280135 -0.0378754 0
-0.0261129 -0.0373582 0
-0.0242123 -0.0368409 0
-0.0223117 -0.0363237 0
-0.0204112 -0.0358065 0
-0.0185106 -0.0352892 0
-0.01661 -0.034772 0
-0.0147094 -0.0342547 0
-0.0128088 -0.0337375 0
-0.0109083 -0.0332202 0
-0.00900769 -0.032703 0
-0.00710711 -0.0321858 0
-0.00520653 -0.0316685 0
-0.00330595 -0.0311513 0
-0.00140537 -0.030634 0
0.00190689 -0.0299614 0
0.00332271 -0.0298498 0
0.00474133 -0.0297825 0
0.00616136 -0.0297597 0
0.0075814 -0.0297814 0
0.00900007 -0.0298477 0
0.010416 -0.0299583 0
0.0118278 -0.0301127 0
0.0132342 -0.0303103 0
0.0146339 -0.0305504 0
0.0160259 -0.0308322 0
0.0174091 -0.0311546 0
0.0187824 -0.0315166 0
0.020145 -0.031917 0
0.0214961 -0.0323546 0
0.0228351 -0.032828 0
0.0241613 -0.0333361 0
0.0254744 -0.0338774 0
0.0267738 -0.0344507 0
0.0280592 -0.0350545 0
0.0293306 -0.0356877 0
0.0305875 -0.0363488 0
0.0318301 -0.0370367 0
0.0330581 -0.0377501 0
0.0342717 -0.0384879 0
0.0354708 -0.0392489 0
0.0366556 -0.0400321 0
0.0378262 -0.0408363 0
0.0389828 -0.0416607 0
0.0401254 -0.0425042 0
0.0412543 -0.0433659 0
0.0423698 -0.0442451 0
0.043472 -0.0451408 0
0.0445612 -0.0460523 0
0.0456375 -0.0469789 0
0.0467013 -0.0479199 0
0.0477529 -0.0488746 0
0.0487923 -0.0498424 0
0.04982 -0.0508227 0
0.0508362 -0.051815 0
0.051841 -0.0528187 0
0.0528348 -0.0538333 0
0.0538178 -0.0548584 0
0.0547903 -0.0558935 0
0.0557524 -0.0569382 0
0.0567045 -0.0579922 0
0.0576467 -0.0590549 0
0.0585792 -0.0601261 0
0.0595024 -0.0612055 0
0.0604163 -0.0622926 0
0.0613212 -0.0633873 0
0.0622174 -0.0644891 0
0.0631049 -0.0655979 0
0.0639841 -0.0667134 0
0.064855 -0.0678353 0
0.0657179 -0.0689633 0
0.0665729 -0.0700974 0
0.0674202 -0.0712372 0
0.06826 -0.0723826 0
0.0690925 -0.0735333 0
0.0699178 -0.0746892 0
0.070736 -0.0758501 0
0.0715473 -0.0770159 0
0.0723518 -0.0781863 0
0.0731498 -0.0793612 0
0.0739412 -0.0805405 0
0.0747264 -0.081724 0
0.0755053 -0.0829116 0
0.0762781 -0.0841033 0
0.0770449 -0.0852987 0
0.0778059 -0.0864979 0
0.0785611 -0.0877007 0
0.0793108 -0.088907 0
0.0814681 -0.0912706 0
0.0828814 -0.0924245 0
0.0842946 -0.0935783 0
0.0857079 -0.0947322 0
0.0871211 -0.095886 0
0.0885344 -0.0970399 0
0.0899476 -0.0981937 0
0.0913609 -0.0993476 0
0.0927741 -0.100501 0
0.0941874 -0.101655 0
0.0956006 -0.102809 0
0.0970139 -0.103963 0
0.0984272 -0.105117 0
0.0998404 -0.106271 0
0.101254 -0.107424 0
0.102667 -0.108578 0
0.10408 -0.109732 0
0.105493 -0.110886 0
0.106907 -0.11204 0
0.10832 -0.113194 0
0.109733 -0.114348 0
0.111146 -0.115501 0
0.11256 -0.116655 0
0.113973 -0.117809 0
0.115386 -0.118963 0
0.116799 -0.120117 0
0.118213 -0.121271 0
0.119626 -0.122424 0
0.121039 -0.123578 0
0.122452 -0.124732 0
0.123866 -0.125886 0
0.125279 -0.12704 0
0.126692 -0.128194 0
0.128105 -0.129348 0
0.129519 -0.130501 0
0.130932 -0.131655 0
0.132345 -0.132809 0
0.133758 -0.133963 0
0.135172 -0.133216 0
0.135172 -0.131316 0
0.135172 -0.129415 0
0.135172 -0.127514 0
0.135172 -0.125614 0
0.135172 -0.123713 0
0.135172 -0.121813 0
0.135172 -0.119912 0
0.135172 -0.118012 0
0.135172 -0.116111 0
0.135172 -0.11421 0
0.135172 -0.11231 0
0.135172 -0.110409 0
0.135172 -0.108509 0
0.135172 -0.106608 0
0.135172 -0.104708 0
0.135172 -0.102807 0
0.135172 -0.100906 0
0.135172 -0.0990058 0
0.135172 -0.0971052 0
0.135172 -0.0952046 0
0.135172 -0.0933041 0
0.135172 -0.0914035 0
0.135172 -0.0895029 0
0.135172 -0.0876023 0
0.135172 -0.0857017 0
0.135172 -0.0838012 0
0.135172 -0.0819006 0
0.133758 -0.0788462 0
0.132345 -0.0776923 0
0.130932 -0.0765385 0
0.129519 -0.0753846 0
0.128105 -0.0742308 0
0.126692 -0.0730769 0
0.125279 -0.0719231 0
0.123866 -0.0707692 0
0.122452 -0.0696154 0
0.121039 -0.0684615 0
0.119626 -0.0673077 0
0.118213 -0.0661538 0
0.116799 -0.065 0
0.115386 -0.0638462 0
0.113973 -0.0626923 0
0.11256 -0.0615385 0
0.111146 -0.0603846 0
0.109733 -0.0592308 0
0.10832 -0.0580769 0
0.106907 -0.0569231 0
0.105493 -0.0557692 0
0.10408 -0.0546154 0
0.102667 -0.0534615 0
0.101254 -0.0523077 0
0.0998404 -0.0511538 0
0.0984272 -0.05 0
0.0970139 -0.0488462 0
0.0956006 -0.0476923 0
[...]
CELL_DATA 13116
SCALARS rho float
LOOKUP_TABLE default
0.520297
0.644994
0.403649
0.68233
0.681721
0.66458
0.383665
0.692361
0.494715
0.68585
0.395046
0.357001
0.681911
0.380539
0.378172
0.664747
0.486617
0.677273
0.666209
0.372787
0.525063
0.415496
0.389878
0.681381
0.578238
0.648417
0.685834
0.410777
0.576707
0.621768
0.661459
0.401872
0.523409
0.42089
0.396596
0.523017
0.646377
0.662685
0.663085
0.673898
0.665639
0.693113
0.397972
0.397223
0.665844
0.666201
0.624631
0.669042
0.372837
0.491099
0.683687
0.413891
0.380637
0.47865
0.522424
0.554051
0.396512
0.678809
0.504327
0.366577
0.379543
0.684882
0.63602
0.662941
0.661868
0.382898
0.670151
0.65269
0.671257
0.662021
0.38496
0.55484
0.417169
0.388894
0.66107
0.385904
0.624042
0.677992
0.36942
0.67492
0.661569
0.646037
0.682576
0.669011
0.660723
0.425222
0.378176
0.646074
0.6618
0.389807
0.391236
0.646909
0.683533
0.670946
0.627138
0.569404
0.581204
0.661447
0.661172
0.566861
0.652829
0.566521
0.66588
0.371617
0.610196
0.391268
0.338714
0.442832
0.403071
0.5875
0.471628
0.63314
0.567293
0.665319
0.675867
0.671112
0.380697
0.362675
0.675361
0.673596
0.653094
0.418009
0.671754
0.421884
0.669122
0.411985
0.379144
0.478529
0.399909
0.492578
0.675536
0.667947
0.473259
0.391497
0.454656
0.558663
0.660745
0.674751
0.651653
0.673426
0.605733
0.628212
0.47685
0.6068
0.62831
0.384361
0.398609
0.6387
0.680121
0.682793
0.512886
0.668404
0.668884
0.390943
0.683604
0.662258
0.393873
0.658252
0.661466
0.645581
0.681283
0.385849
0.680281
0.394066
0.417191
0.684385
0.664741
0.676366
0.394037
0.439266
0.397552
0.660718
0.376319
0.462101
0.669848
0.389141
0.401033
0.416862
0.628536
0.663734
0.378683
0.40617
0.492179
0.646912
0.663953
0.502018
0.381404
0.666213
0.600487
0.434365
0.615863
0.63603
0.662201
0.395151
0.625833
0.664155
0.685063
0.666215
0.660154
0.382857
0.370758
0.592778
0.473211
0.388023
0.675687
0.665217
0.422581
0.580469
0.380194
0.401415
0.383372
0.667445
0.394826
0.36729
0.390193
0.389898
0.34097
0.662652
0.666626
0.413793
0.393843
0.669699
0.465102
0.378852
0.525628
0.685181
0.625543
0.414028
0.670012
0.370269
0.704999
0.397865
0.661894
0.544703
0.661343
0.669269
0.662332
0.360025
0.403821
0.644272
0.66102
0.663923
0.660788
0.662106
0.689749
0.404705
0.678798
0.683752
0.661237
0.39983
0.375564
0.666497
0.674798
0.661714
0.671479
0.505486
0.666908
0.395016
0.383321
0.363645
0.380839
0.590906
0.684859
0.622702
0.374228
0.666004
0.379595
0.409171
0.61238
0.395876
0.6455
0.686509
0.660899
0.678561
0.361675
0.660888
0.667229
0.661277
0.674582
0.367149
0.373601
0.397958
0.553072
0.416844
0.385803
0.313648
0.284501
0.656898
0.381453
0.664141
0.682434
0.375555
0.374266
0.378737
0.427015
0.412486
0.644906
0.562363
0.622619
0.396175
0.666974
0.558502
0.384926
0.367092
0.663432
0.674865
0.665969
0.37861
0.664406
0.386202
0.66731
0.691422
0.68072
0.690642
0.399697
0.669577
0.37914
0.665679
0.683783
0.642169
0.370658
0.313352
0.683925
0.378493
0.641794
0.684825
0.342979
0.666114
0.682183
0.376179
0.665735
0.684113
0.382338
0.677055
0.425042
0.546074
0.690667
0.431804
0.658914
0.374486
0.680247
0.325114
0.662297
0.562054
0.685417
0.412741
0.336272
0.661847
0.392857
0.674964
0.608672
0.396508
0.660722
0.385861
0.407313
0.673074
0.525613
0.651639
0.37501
0.394229
0.678768
0.682258
0.396926
0.682204
0.379525
0.38865
0.671789
0.689352
0.426902
0.364046
0.674394
0.661615
0.664776
0.66534
0.677214
0.512851
0.341474
0.378512
0.376821
0.664605
0.376718
0.4904
0.346252
0.376665
0.330434
0.438346
0.135263
0.392504
0.661896
0.312939
0.681003
0.576101
0.667112
0.636414
0.67888
0.407504
0.371508
0.386231
0.318852
0.672579
0.562437
0.666135
0.576693
0.629968
0.593699
0.643289
0.60035
0.618357
0.67574
0.674133
0.664027
0.368528
0.429296
0.516079
0.415395
0.558163
0.552866
0.380415
0.67049
0.66096
0.402311
0.368894
0.383097
0.383369
0.603325
0.399752
0.39507
0.668307
0.383422
0.544065
0.390785
0.664586
0.661205
0.415633
0.394092
0.672536
0.428584
0.38217
0.382851
0.366826
0.40291
0.37409
0.369567
0.401275
0.408933
0.396656
0.562853
0.419542
0.661994
0.360028
0.417621
0.476463
0.382689
0.389538
0.387383
0.669725
0.414707
0.613383
0.444809
0.382629
0.583393
0.663361
0.424686
0.665651
0.596188
0.594838
0.373601
0.661334
0.365345
0.678602
0.661413
0.396779
0.378464
0.59767
0.321957
0.433719
0.566057
0.337458
0.656949
0.631896
0.376723
0.395996
0.380947
0.45754
0.366351
0.382867
0.38219
0.379607
0.6856
0.684452
0.43393
0.570312
0.45373
0.62341
0.326799
0.399331
0.499772
0.397199
0.668133
0.276794
0.350062
0.469474
0.665433
0.660267
0.53196
0.342021
0.378039
0.541948
0.691575
0.66225
0.538031
0.612098
0.588634
0.388258
0.660063
0.540015
0.64274
0.28745
0.411958
0.664052
0.685453
0.634875
0.685599
0.653233
0.652721
0.680367
0.641984
0.666859
0.378888
0.665421
0.3211
0.379473
0.366996
0.680809
0.665751
0.291458
0.660361
0.594476
0.370958
0.662557
0.674274
0.672688
0.410649
0.39788
0.676486
0.375084
0.366687
0.368373
0.388752
0.665908
0.383153
0.679384
0.419155
0.645385
0.682461
0.669911
0.682244
0.378888
0.373256
0.666853
0.705397
0.636295
0.685598
0.683664
0.472216
0.374897
0.399937
0.665662
0.49683
0.378499
0.428279
0.371622
0.681745
0.667239
0.288208
0.415795
0.659744
0.443364
0.662179
0.63379
0.398665
0.370915
0.631702
0.660994
0.395496
0.6579
0.665164
0.666371
0.390353
0.660758
0.394356
0.661294
0.641059
0.363234
0.339061
0.386683
0.661345
0.403206
0.373613
0.363228
0.662789
0.670345
0.372055
0.376329
0.397033
0.66283
0.417265
0.664003
0.384578
0.55902
0.685291
0.363121
0.393427
0.39192
0.472647
0.403694
0.654251
0.379542
0.400141
0.663909
0.378667
0.66696
0.637364
0.661396
0.36377
0.668774
0.683089
0.684782
0.666137
0.680358
0.671365
0.39162
0.662143
0.416037
0.663332
0.366937
0.68967
0.475881
0.387478
0.66169
0.678713
0.396093
0.603114
0.383634
0.387675
0.668049
0.669207
0.357903
0.386108
0.370592
0.392777
0.682409
0.680544
0.392746
0.379128
0.674903
0.674985
0.560831
0.682489
0.666811
0.388695
0.685893
0.403448
0.683433
0.362448
0.566391
0.457158
0.669018
0.653208
0.549071
0.3185
0.410783
0.666776
0.577488
0.485203
0.682052
0.380559
0.665201
0.683338
0.347528
0.427161
0.683262
0.339281
0.661836
0.645459
0.309211
0.675632
0.624909
0.404868
0.669175
0.39697
0.656243
0.393827
0.66708
0.634295
0.411061
0.663056
0.68081
0.677029
0.595706
0.661774
0.556262
0.360976
0.388735
0.34719
0.387719
0.660638
0.528635
0.672799
0.679614
0.372732
0.401205
0.66587
0.68519
0.672929
0.687002
0.366281
0.673336
0.68357
0.370827
0.362441
0.675417
0.666466
0.658609
0.37138
0.564645
0.416497
0.668315
0.636342
0.66227
0.653783
0.382411
0.662095
0.663558
0.683838
0.668926
0.665398
0.412298
0.67683
0.40078
0.604989
0.68464
0.439021
0.633392
0.662407
0.682198
0.373944
0.374177
0.557274
0.625983
0.372301
0.365565
0.393887
0.401378
0.646923
0.664605
0.662168
0.284469
0.397654
0.671056
0.658485
0.379503
0.391866
0.440267
0.645974
0.666437
0.665035
0.674538
0.400879
0.371481
0.660752
0.418166
0.366315
0.381019
0.664836
0.416366
0.384161
0.546478
0.665248
0.627553
0.663766
0.665779
0.379729
0.380295
0.394427
0.443896
0.414656
0.393616
0.651447
0.673906
0.65284
0.66722
0.384303
0.362824
0.685549
0.370408
0.665075
0.633923
0.66156
0.357972
0.364924
0.650911
0.66153
0.533031
0.382288
0.662127
0.664029
0.541592
0.682748
0.688348
0.660812
0.611681
0.367855
0.665661
0.661663
0.593306
0.66878
0.660682
0.634237
0.660921
0.67359
0.401331
0.392389
0.364034
0.661652
0.474072
0.371824
0.665667
0.675375
0.350796
0.61127
0.420516
0.617542
0.436809
0.365126
0.684929
0.679589
0.379225
0.52453
0.661648
0.393504
0.670524
0.382537
0.389596
0.588814
0.578212
0.476345
0.666069
0.39325
0.680131
0.398844
0.366634
0.666763
0.378019
0.574406
0.374557
0.61036
0.567101
0.660877
0.661949
0.376943
0.399852
0.588421
0.398759
0.672564
0.430351
0.562381
0.664517
0.68372
0.413308
0.584559
0.627554
0.685318
0.67127
0.328533
0.365274
0.513925
0.627156
0.685095
0.344486
0.665903
0.534895
0.385721
0.363048
0.644087
0.64679
0.660843
0.661274
0.570408
0.666168
0.663201
0.654972
0.371731
0.63368
0.437821
0.677045
0.666049
0.283059
0.680922
0.680641
0.396591
0.365243
0.377361
0.660685
0.385364
0.588687
0.673653
0.634249
0.347481
0.660262
0.386192
0.563982
0.662829
0.661967
0.649223
0.66277
0.589944
0.660114
0.493879
0.662966
0.394234
0.664587
0.669754
0.380385
0.661017
0.666005
0.399484
0.377497
0.396528
0.680909
0.371452
0.660935
0.392828
0.6923
0.378245
0.457736
0.375171
0.678107
0.685668
0.503626
0.255871
0.589743
0.66275
0.394041
0.55975
0.683974
0.398257
0.556782
0.661364
0.685084
0.665426
0.396135
0.440458
0.674058
0.666649
0.606501
0.374846
0.371021
0.663077
0.660749
0.661008
0.660767
0.518466
0.6683
0.513268
0.674759
0.374889
0.387764
0.660778
0.680848
0.66288
0.383844
0.664764
0.527
0.5725
0.392892
0.397074
0.682423
0.693117
0.526296
0.317959
0.666905
0.661081
0.391792
0.580927
0.67419
0.392213
0.41232
0.378034
0.603669
0.416854
0.375455
0.66523
0.436425
0.68582
0.618003
0.386026
0.37426
0.685819
0.391866
0.400396
0.661498
0.386351
0.327919
0.560991
0.678511
0.668706
0.402642
0.426483
0.399167
0.638617
0.390366
0.669361
0.387024
0.666542
0.656854
0.665432
0.620679
0.660411
0.634171
0.66645
0.681973
0.671848
0.382797
0.398248
0.652722
0.663304
0.482629
0.614054
0.527516
0.663066
0.591476
0.415577
0.672316
0.684522
0.661784
0.399228
0.662825
0.411133
0.668937
0.4755
0.676802
0.666269
0.364783
0.672474
0.392569
0.40208
0.637024
0.380439
0.659435
0.660724
0.687215
0.383655
0.668132
0.403075
0.358059
0.375733
0.388099
0.582929
0.375833
0.609621
0.662454
0.320773
0.395718
0.465862
0.553486
0.606108
0.610039
0.364239
0.379968
0.396957
0.375228
0.253482
0.606565
0.63959
0.411583
0.662366
0.673151
0.378315
0.683311
0.657546
0.662562
0.398963
0.661152
0.660393
0.676873
0.678363
0.367059
0.669692
0.678193
0.66337
0.6445
0.663407
0.37872
0.382961
0.668685
0.512334
0.363184
0.666367
0.389022
0.545331
0.601542
0.654059
0.657417
0.361479
0.611497
0.368035
0.398171
0.669166
0.676561
0.680637
0.677813
0.637711
0.358528
0.682821
0.373318
0.481545
0.684117
0.661172
0.673609
0.39929
0.376651
0.684193
0.378833
0.675931
0.623608
0.40602
0.382086
0.672368
0.376722
0.666284
0.675457
0.634674
0.376428
0.39202
0.475381
0.486438
0.593879
0.444557
0.664099
0.610671
0.664092
0.660631
0.667454
0.377374
0.385275
0.677674
0.663324
0.602289
0.439171
0.387776
0.657014
0.376625
0.666976
0.589659
0.396502
0.672149
0.371053
0.667651
0.404553
0.680999
0.360853
0.667954
0.663489
0.323451
0.670258
0.626006
0.313009
0.662091
0.666125
0.525621
0.383435
0.336092
0.43867
0.683494
0.58604
0.405843
0.559988
0.669841
0.663899
0.337752
0.583235
0.653774
0.442948
0.663987
0.665864
0.279511
0.671706
0.661346
0.402288
0.568807
0.38458
0.615371
0.389755
0.388788
0.685112
0.376982
0.398079
0.377051
0.6693
0.644726
0.370435
0.666963
0.33186
0.645085
0.402299
0.64808
0.345953
0.66479
0.668899
0.625182
0.662051
0.528416
0.663436
0.66252
0.40788
0.611553
0.631066
0.453188
0.66683
0.471327
0.37432
0.68266
0.38623
0.542843
0.420763
0.666109
0.379776
0.394226
0.679546
0.666284
0.374574
0.675439
0.674146
0.660661
0.687179
0.661288
0.367456
0.682408
0.367865
0.394777
0.665766
0.675604
0.693072
0.661732
0.375428
0.389585
0.398788
0.647005
0.662318
0.334565
0.684907
0.381617
0.387503
0.38789
0.66316
0.363346
0.683839
0.672149
0.61051
0.668798
0.67123
0.543147
0.618014
0.415736
0.384636
0.373097
0.661267
0.661169
0.384054
0.60684
0.600012
0.619795
0.396131
0.371738
0.614774
0.26469
0.606563
0.569592
0.366982
0.662896
0.648819
0.369514
0.668179
0.399712
0.672615
0.685217
0.661015
0.376669
0.450973
0.659447
0.28674
0.424527
0.667629
0.294193
0.663101
0.670976
0.643604
0.674084
0.315592
0.661673
0.668768
0.666578
0.34709
0.679174
0.408529
0.379414
0.660441
0.666643
0.662224
0.224683
0.6668
0.611169
0.661052
0.380896
0.380629
0.380186
0.677027
0.389915
0.381237
0.403818
0.567267
0.397742
0.281747
0.424741
0.669392
0.368855
0.66203
0.662633
0.672496
0.382075
0.670926
0.632814
0.662369
0.398703
0.64259
0.398121
0.387216
0.667884
0.37469
0.60337
0.668679
0.660849
0.366151
0.31386
0.395692
0.53647
0.660797
0.223044
0.663081
0.668978
0.675582
0.40256
0.374467
0.32848
0.587257
0.385055
0.660704
0.58157
0.66288
0.663704
0.366177
0.604415
0.391376
0.535654
0.625686
0.685371
0.543374
0.445966
0.643743
0.60681
0.678466
0.387537
0.353945
0.385738
0.675923
0.50301
0.661164
0.365903
0.378294
0.677361
0.670648
0.661807
0.373618
0.673632
0.534655
0.537598
0.589353
0.401981
0.37184
0.278484
0.666873
0.662554
0.642741
0.620382
0.327186
0.689303
0.636284
0.662597
0.66221
0.686753
0.684665
0.664248
0.673999
0.680324
0.396342
0.672513
0.678703
0.664175
0.673951
0.666651
0.552151
0.369924
0.392525
0.597683
0.367696
0.320761
0.673511
0.395595
0.614532
0.670457
0.64311
0.662484
0.400438
0.675522
0.372928
0.38459
0.664545
0.667604
0.667404
0.378968
0.681916
0.666127
0.595733
0.665928
0.414729
0.663851
0.684453
0.648763
0.382071
0.679557
0.403186
0.685342
0.383749
0.369952
0.492808
0.42739
0.684951
0.679515
0.665255
0.403008
0.66366
0.372341
0.390591
0.651173
0.469996
0.382475
0.665732
0.370126
0.491308
0.649477
0.622209
0.65502
0.468471
0.572997
0.63616
0.665146
0.549288
0.680488
0.510811
0.708532
0.616568
0.625889
0.381146
0.370807
0.426974
0.677828
0.398951
0.643809
0.676363
0.576156
0.665363
0.489582
0.661984
0.656765
0.400072
0.674832
0.605505
0.458854
0.608685
0.683633
0.655165
0.663375
0.401295
0.400809
0.663871
0.506058
0.516119
0.674854
0.668562
0.667493
0.684954
0.685826
0.595648
0.608001
0.684713
0.37781
0.372976
0.379643
0.422604
0.660944
0.436035
0.509132
0.671902
0.662119
0.39567
0.663351
0.679936
0.380489
0.355944
0.660999
0.674267
0.403415
0.354899
0.360282
0.660652
0.646652
0.386373
0.377191
0.368583
0.387114
0.325772
0.364401
0.704982
0.669033
0.663925
0.389497
0.644427
0.581764
0.587334
0.332802
0.36931
0.650022
0.660783
0.389754
0.664521
0.369617
0.681565
0.397042
0.67216
0.38083
0.653443
0.683144
0.384658
0.539433
0.368204
0.682571
0.386782
0.586272
0.386315
0.478447
0.399287
0.577147
0.393789
0.66193
0.662196
0.584976
0.659349
0.323263
0.64876
0.662876
0.682394
0.578935
0.646129
0.37064
0.362854
0.38467
0.684487
0.276496
0.680395
0.520996
0.675419
0.684907
0.431395
0.676487
0.389846
0.382478
0.381329
0.483095
0.490527
0.667923
0.39645
0.385697
0.666233
0.363899
0.374122
0.526987
0.348702
0.387893
0.393397
0.694367
0.631816
0.591569
0.390762
0.645201
0.667398
0.383562
0.309332
0.66334
0.665365
0.539772
0.494339
0.396909
0.346397
0.390345
0.680977
0.593097
0.494421
0.66759
0.377472
0.541995
0.372993
0.661802
0.68053
0.369418
0.381737
0.600877
0.518698
0.682162
0.680155
0.683444
0.677488
0.684041
0.387144
0.416016
0.387481
0.365965
0.512276
0.661458
0.633809
0.365172
0.364668
0.427321
0.412378
0.667537
0.620516
0.395129
0.286893
0.670353
0.396044
0.635399
0.679073
0.641705
0.663592
0.524669
0.366176
0.377246
0.602
0.369306
0.394691
0.370569
0.663164
0.668773
0.325318
0.367259
0.660676
0.393276
0.668359
0.684086
0.366214
0.398487
0.379867
0.67004
0.38044
0.660716
0.669523
0.577208
0.35126
0.507707
0.677331
0.66136
0.374021
0.65809
0.59997
0.441997
0.674728
0.705107
0.400299
0.368408
0.650192
0.39806
0.366561
0.652809
0.331134
0.667975
0.660835
0.682958
0.607714
0.680709
0.670253
0.663385
0.39429
0.395008
0.613432
0.666012
0.450726
0.68356
0.302286
0.673302
0.656636
0.542174
0.628836
0.363682
0.436467
0.664143
0.678096
0.612363
0.683603
0.668353
0.660835
0.687664
0.660657
0.679542
0.653797
0.683097
0.660809
0.663521
0.328722
0.648579
0.407426
0.672009
0.672606
0.676144
0.632163
0.673236
0.394582
0.392952
0.290788
0.372798
0.638714
0.376766
0.398624
0.663165
0.371165
0.673281
0.391403
0.653553
0.670173
0.376644
0.366257
0.350469
0.67693
0.393003
0.667245
0.672134
0.395587
0.647286
0.531623
0.329367
0.409822
0.375572
0.668144
0.365879
0.674217
0.486126
0.365871
0.666153
0.66599
0.683598
0.370254
0.548075
0.37943
0.646395
0.663566
0.671235
0.377519
0.664989
0.674691
0.624107
0.384875
0.676717
0.368504
0.39343
0.669903
0.432009
0.68538
0.371472
0.382172
0.426001
0.630779
0.4048
0.273493
0.394427
0.454104
0.661205
0.671698
0.37823
0.574479
0.668887
0.537854
0.396589
0.427071
0.534178
0.368091
0.368128
0.66542
0.397805
0.375532
0.681667
0.685597
0.379329
0.677142
0.388267
0.660915
0.411642
0.654177
0.662107
0.674793
0.662716
0.40636
0.380496
0.378051
0.664091
0.653126
0.570338
0.515265
0.356
0.289977
0.664453
0.396188
0.6684
0.366801
0.66207
0.654603
0.378692
0.398985
0.386433
0.367434
0.402107
0.599493
0.640381
0.381616
0.671589
0.617056
0.355068
0.376946
0.683316
0.382522
0.670072
0.410958
0.674641
0.635573
0.670802
0.661314
0.399729
0.685522
0.670923
0.695558
0.375973
0.59258
0.576734
0.321681
0.677984
0.621543
0.709706
0.646721
0.684018
0.669795
0.689836
0.664397
0.666076
0.372571
0.683238
0.385684
0.433726
0.667265
0.379687
0.657319
0.596718
0.3825
0.624195
0.374386
0.392783
0.667474
0.582926
0.685662
0.404854
0.646733
0.595051
0.411671
0.386586
0.662352
0.667259
0.360958
0.398577
0.673204
0.684419
0.361063
0.622066
0.683206
0.634784
0.377478
0.369033
0.368889
0.636844
0.357563
0.658469
0.675892
0.664595
0.583173
0.670655
0.404024
0.659251
0.59479
0.683009
0.539951
0.389832
0.38983
0.3841
0.682129
0.673279
0.408721
0.632804
0.426774
0.627345
0.672975
0.38099
0.598534
0.659412
0.600262
0.387823
0.375604
0.423349
0.675114
0.685248
0.59212
0.493804
0.670813
0.389618
0.611331
0.660958
0.665159
0.387682
0.605612
0.383146
0.607221
0.387993
0.665803
0.668683
0.390231
0.67508
0.401748
0.660781
0.621275
0.660688
0.679887
0.389701
0.66412
0.666235
0.669084
0.666578
0.464902
0.660958
0.382416
0.666643
0.381539
0.372742
0.377176
0.400797
0.370201
0.386016
0.684563
0.351125
0.381636
0.641466
0.675448
0.643076
0.382961
0.669544
0.666395
0.663362
0.312237
0.555711
0.670114
0.418448
0.400362
0.383579
0.606418
0.488306
0.364492
0.563353
0.385645
0.66138
0.481406
0.380146
0.453668
0.629654
0.421061
0.667573
0.375646
0.44095
0.357888
0.681374
0.364372
0.635859
0.660983
0.587085
0.395061
0.371769
0.681434
0.684714
0.401468
0.358012
0.664357
0.368013
0.678998
0.39059
0.53642
0.384738
0.670068
0.416331
0.685051
0.372931
0.673102
0.671549
0.6788
0.660972
0.381723
0.393969
0.385699
0.652268
0.662063
0.629278
0.492892
0.394866
0.675185
0.427829
0.650308
0.565455
0.372373
0.379613
0.680511
0.665771
0.382752
0.661592
0.687272
0.679939
0.683713
0.375451
0.61412
0.393306
0.679692
0.358467
0.662338
0.646745
0.679374
0.686092
0.357677
0.687135
0.382285
0.398357
0.668026
0.661019
0.52184
0.664838
0.660955
0.389923
0.677918
0.678199
0.689723
0.35911
0.407318
0.664595
0.376996
0.673736
0.677116
0.65944
0.681801
0.274049
0.426018
0.62777
0.390705
0.657422
0.682463
0.446925
0.665731
0.25896
0.604206
0.678449
0.656923
0.66945
0.375176
0.400107
0.668094
0.656488
0.390118
0.30878
0.411962
0.393474
0.381338
0.388146
0.411279
0.364348
0.667443
0.380349
0.377943
0.672154
0.520037
0.660696
0.378021
0.366423
0.669607
0.443856
0.449088
0.683923
0.352384
0.638436
0.662183
0.586998
0.649864
0.392666
0.672108
0.66283
0.397337
0.394934
0.374094
0.593044
0.586091
0.684005
0.665098
0.665824
0.653081
0.354131
0.673176
0.662943
0.668186
0.371044
0.670797
0.553092
0.347315
0.413875
0.381439
0.375097
0.376984
0.565752
0.65131
0.653895
0.371372
0.373736
0.683452
0.3343
0.672255
0.666449
0.659539
0.655623
0.670564
0.418322
0.377582
0.382894
0.541333
0.364555
0.66895
0.365392
0.668069
0.664168
0.672225
0.419848
0.427462
0.389312
0.671112
0.392839
0.384691
0.674059
0.649774
0.60061
0.66469
0.660668
0.678495
0.365487
0.603287
0.68102
0.509614
0.670025
0.674184
0.679551
0.442938
0.409025
0.690884
0.477755
0.591016
0.39869
0.629537
0.660882
0.381915
0.355584
0.64383
0.485054
0.678685
0.672276
0.364752
0.371751
0.661406
0.358567
0.381708
0.663161
0.662362
0.377852
0.663703
0.661484
0.633738
0.363088
0.566623
0.367049
0.666204
0.680294
0.678381
0.650713
0.661661
0.285877
0.332477
0.663283
0.393102
0.586709
0.370206
0.671515
0.383042
0.629534
0.680748
0.66153
0.379216
0.6607
0.661094
0.367566
0.629977
0.363851
0.694122
0.386309
0.378634
0.368692
0.659165
0.665805
0.309483
0.285798
0.640301