# vtk DataFile Version 1.0
unstructured grid
ascii
DATASET UNSTRUCTURED_GRID
points 13672 float
0.0796578 -0.059106 0
0.00128732 0.00159165 0
0.00227961 -0.00102548 0
0.0791586 -0.0598787 0
-0.0546216 0.01 0
0.000495206 0.025 0
0.0800549 -0.035 0
0.135172 -0.08 0
-0.0546216 -0.0451168 0
0.000495206 -0.0301168 0
0.0800549 -0.0901168 0
0.135172 -0.135117 0
-0.0546216 -0.0451168 -0.00551168
0.000495206 -0.0301168 -0.00551168
0.0800549 -0.0901168 -0.00551168
0.135172 -0.135117 -0.00551168
0.135172 -0.08 -0.00551168
0.0800549 -0.035 -0.00551168
0.000495206 0.025 -0.00551168
-0.0546216 0.01 -0.00551168
0.00128732 0.00159165 -0.00551168
0.00227961 -0.00102548 -0.00551168
0.0791586 -0.0598787 -0.00551168
0.0796578 -0.059106 -0.00551168
0.00165953 -0.000990923 0
0.00119576 -0.000874076 0
0.000866021 -0.000641801 0
0.000645147 -0.000349912 0
0.00052235 -1.7281e-05 0
0.00049972 0.000348016 0
0.000601632 0.000737716 0
0.000861774 0.0011403 0
0.00157235 0.00183217 0
0.00188647 0.00206725 0
0.00222612 0.00230203 0
0.00258713 0.00254351 0
0.00296826 0.00279524 0
0.00337118 0.00305664 0
0.00379785 0.00332658 0
0.00425045 0.00360349 0
0.00473139 0.00388521 0
0.0052432 0.00416895 0
0.0057881 0.00445204 0
0.00636753 0.00473281 0
0.00698281 0.00500961 0
0.00763526 0.00528058 0
0.00832616 0.00554366 0
0.00905691 0.00579603 0
0.00982918 0.00603333 0
0.0106445 0.00625033 0
0.0115038 0.00644128 0
0.0124073 0.00660297 0
0.0133543 0.00673414 0
0.0143444 0.00683382 0
0.0153769 0.00690031 0
0.0164512 0.00693173 0
0.0175666 0.00692547 0
0.0187219 0.00687822 0
0.0199156 0.00678477 0
0.0211454 0.00663864 0
0.0224084 0.00643275 0
0.0237018 0.00616676 0
0.0250249 0.00584739 0
0.026375 0.00547298 0
0.0277479 0.00503752 0
0.0291386 0.00453545 0
0.0305433 0.0039653 0
0.0319572 0.0033256 0
0.0333681 0.00260019 0
0.034775 0.00179799 0
0.0361793 0.000930615 0
0.0375798 3.12222e-06 0
0.0389689 -0.000988429 0
0.0403357 -0.00205109 0
0.041675 -0.00318283 0
0.0429849 -0.00437751 0
0.0442643 -0.00562904 0
0.0455126 -0.00693089 0
0.0467314 -0.00827518 0
0.0479204 -0.00965638 0
0.0490661 -0.0110799 0
0.0501515 -0.0125519 0
0.0511696 -0.0140695 0
0.0521492 -0.0156071 0
0.0531202 -0.0171411 0
0.0540851 -0.0186663 0
0.0550431 -0.0201798 0
0.0559923 -0.0216793 0
0.0569311 -0.0231626 0
0.0578582 -0.0246273 0
0.0587723 -0.0260715 0
0.0596721 -0.027493 0
0.0605563 -0.02889 0
0.0614241 -0.0302609 0
0.0622742 -0.0316042 0
0.063106 -0.0329183 0
0.0639186 -0.034202 0
0.0647113 -0.0354543 0
0.0654835 -0.0366743 0
0.0662345 -0.0378613 0
0.0669642 -0.0390145 0
0.0676726 -0.0401333 0
0.0683597 -0.0412172 0
0.0690246 -0.0422665 0
0.0696662 -0.0432819 0
0.0702841 -0.0442636 0
0.0708793 -0.0452111 0
0.0714538 -0.0461237 0
0.072009 -0.047001 0
0.0725452 -0.0478434 0
0.0730611 -0.0486524 0
0.073556 -0.0494294 0
0.0740291 -0.0501756 0
0.0744812 -0.0508916 0
0.0749138 -0.0515773 0
0.0753285 -0.0522331 0
0.0757266 -0.0528592 0
0.076109 -0.0534564 0
0.0764753 -0.0540264 0
0.0768243 -0.054571 0
0.0771553 -0.0550919 0
0.0774679 -0.0555901 0
0.0777617 -0.0560669 0
0.0780369 -0.056523 0
0.0782958 -0.0569578 0
0.0785421 -0.0573703 0
0.0787786 -0.0577603 0
0.0790073 -0.0581279 0
0.0792295 -0.058474 0
0.0794462 -0.0587995 0
0.0798803 -0.0594162 0
0.0800272 -0.0596588 0
0.0800357 -0.0598891 0
0.0799275 -0.0600784 0
0.0797205 -0.0601773 0
0.0794593 -0.0601051 0
0.0789155 -0.0596491 0
0.0786707 -0.0593963 0
0.0784111 -0.0591319 0
0.0781372 -0.0588542 0
0.0778566 -0.0585548 0
0.0775715 -0.0582308 0
0.0772803 -0.0578828 0
0.0769832 -0.0575099 0
0.0766822 -0.0571097 0
0.0763801 -0.0566796 0
0.0760759 -0.0562196 0
0.0757623 -0.0557337 0
0.0754359 -0.0552232 0
0.0750951 -0.0546879 0
0.0747379 -0.054128 0
0.0743626 -0.0535435 0
0.0739688 -0.0529338 0
0.0735559 -0.0522981 0
0.0731238 -0.0516357 0
0.0726718 -0.050946 0
0.0721991 -0.0502288 0
0.0717046 -0.049484 0
0.0711872 -0.0487117 0
0.0706461 -0.047912 0
0.0700804 -0.0470849 0
0.0694892 -0.0462308 0
0.0688718 -0.0453499 0
0.0682271 -0.0444431 0
0.0675544 -0.043511 0
0.0668527 -0.0425546 0
0.0661215 -0.0415748 0
0.06536 -0.040573 0
0.0645676 -0.0395504 0
0.0637439 -0.0385087 0
0.0628887 -0.0374493 0
0.062002 -0.0363741 0
0.0610838 -0.0352847 0
0.0601345 -0.0341831 0
0.0591547 -0.033071 0
0.0581456 -0.0319502 0
0.0571083 -0.0308224 0
0.0560444 -0.0296893 0
0.0549562 -0.028552 0
0.053845 -0.0274126 0
0.0527113 -0.0262746 0
0.051554 -0.0251427 0
0.0503724 -0.0240222 0
0.0491675 -0.0229164 0
0.047941 -0.0218282 0
0.0466955 -0.0207597 0
0.0454337 -0.0197126 0
0.0441592 -0.0186878 0
0.0428751 -0.0176863 0
0.0415841 -0.0167097 0
0.0402878 -0.0157609 0
0.0389879 -0.0148428 0
0.0376864 -0.0139575 0
0.0363853 -0.013107 0
0.0350871 -0.0122931 0
0.0337942 -0.0115164 0
0.0325095 -0.0107772 0
0.0312357 -0.0100756 0
0.0299758 -0.00941024 0
0.0287337 -0.00877784 0
0.0275126 -0.00817571 0
0.0263139 -0.00760375 0
0.0251376 -0.00706528 0
0.0239829 -0.0065649 0
0.0228537 -0.00609619 0
0.0217522 -0.00565563 0
0.0206795 -0.00524226 0
0.0196364 -0.00485507 0
0.0186233 -0.00449318 0
0.0176408 -0.00415577 0
0.016689 -0.00384204 0
0.0157682 -0.00355115 0
0.0148783 -0.00328218 0
0.0140192 -0.00303468 0
0.0131906 -0.00280795 0
0.0123925 -0.00260016 0
0.0116246 -0.00241012 0
0.0108864 -0.00223769 0
0.0101774 -0.00208212 0
0.00949701 -0.00194206 0
0.00884483 -0.0018163 0
0.0082202 -0.0017039 0
0.00762247 -0.00160391 0
0.00705097 -0.00151528 0
0.006505 -0.00143697 0
0.0059838 -0.00136806 0
0.00548662 -0.00130772 0
0.00501265 -0.00125519 0
0.00456114 -0.00120954 0
0.00413136 -0.00116914 0
0.00372257 -0.00113251 0
0.00333398 -0.00109853 0
0.00296466 -0.00106798 0
0.00261363 -0.0010431 0
-0.052721 -0.0445996 0
-0.0508204 -0.0440823 0
-0.0489199 -0.0435651 0
-0.0470193 -0.0430478 0
-0.0451187 -0.0425306 0
-0.0432181 -0.0420134 0
-0.0413175 -0.0414961 0
-0.039417 -0.0409789 0
-0.0375164 -0.0404616 0
-0.0356158 -0.0399444 0
-0.0337152 -0.0394271 0
-0.0318146 -0.0389099 0
-0.0299141 -0.0383927 0
-0.0280135 -0.0378754 0
-0.0261129 -0.0373582 0
-0.0242123 -0.0368409 0
-0.0223117 -0.0363237 0
-0.0204112 -0.0358065 0
-0.0185106 -0.0352892 0
-0.01661 -0.034772 0
-0.0147094 -0.0342547 0
-0.0128088 -0.0337375 0
-0.0109083 -0.0332202 0
-0.00900769 -0.032703 0
-0.00710711 -0.0321858 0
-0.00520653 -0.0316685 0
-0.00330595 -0.0311513 0
-0.00140537 -0.030634 0
0.00190689 -0.0299614 0
0.00332271 -0.0298498 0
0.00474133 -0.0297825 0
0.00616136 -0.0297597 0
0.0075814 -0.0297814 0
0.00900007 -0.0298477 0
0.010416 -0.0299583 0
0.0118278 -0.0301127 0
0.0132342 -0.0303103 0
0.0146339 -0.0305504 0
0.0160259 -0.0308322 0
0.0174091 -0.0311546 0
0.0187824 -0.0315166 0
0.020145 -0.031917 0
0.0214961 -0.0323546 0
0.0228351 -0.032828 0
0.0241613 -0.0333361 0
0.0254744 -0.0338774 0
0.0267738 -0.0344507 0
0.0280592 -0.0350545 0
0.0293306 -0.0356877 0
0.0305875 -0.0363488 0
0.0318301 -0.0370367 0
0.0330581 -0.0377501 0
0.0342717 -0.0384879 0
0.0354708 -0.0392489 0
0.0366556 -0.0400321 0
0.0378262 -0.0408363 0
0.0389828 -0.0416607 0
0.0401254 -0.0425042 0
0.0412543 -0.0433659 0
0.0423698 -0.0442451 0
0.043472 -0.0451408 0
0.0445612 -0.0460523 0
0.0456375 -0.0469789 0
0.0467013 -0.0479199 0
0.0477529 -0.0488746 0
0.0487923 -0.0498424 0
0.04982 -0.0508227 0
0.0508362 -0.051815 0
0.051841 -0.0528187 0
0.0528348 -0.0538333 0
0.0538178 -0.0548584 0
0.0547903 -0.0558935 0
0.0557524 -0.0569382 0
0.0567045 -0.0579922 0
0.0576467 -0.0590549 0
0.0585792 -0.0601261 0
0.0595024 -0.0612055 0
0.0604163 -0.0622926 0
0.0613212 -0.0633873 0
0.0622174 -0.0644891 0
0.0631049 -0.0655979 0
0.0639841 -0.0667134 0
0.064855 -0.0678353 0
0.0657179 -0.0689633 0
0.0665729 -0.0700974 0
0.0674202 -0.0712372 0
0.06826 -0.0723826 0
0.0690925 -0.0735333 0
0.0699178 -0.0746892 0
0.070736 -0.0758501 0
0.0715473 -0.0770159 0
0.0723518 -0.0781863 0
0.0731498 -0.0793612 0
0.0739412 -0.0805405 0
0.0747264 -0.081724 0
0.0755053 -0.0829116 0
0.0762781 -0.0841033 0
0.0770449 -0.0852987 0
0.0778059 -0.0864979 0
0.0785611 -0.0877007 0
0.0793108 -0.088907 0
0.0814681 -0.0912706 0
0.0828814 -0.0924245 0
0.0842946 -0.0935783 0
0.0857079 -0.0947322 0
0.0871211 -0.095886 0
0.0885344 -0.0970399 0
0.0899476 -0.0981937 0
0.0913609 -0.0993476 0
0.0927741 -0.100501 0
0.0941874 -0.101655 0
0.0956006 -0.102809 0
0.0970139 -0.103963 0
0.0984272 -0.105117 0
0.0998404 -0.106271 0
0.101254 -0.107424 0
0.102667 -0.108578 0
0.10408 -0.109732 0
0.105493 -0.110886 0
0.106907 -0.11204 0
0.10832 -0.113194 0
0.109733 -0.114348 0
0.111146 -0.115501 0
0.11256 -0.116655 0
0.113973 -0.117809 0
0.115386 -0.118963 0
0.116799 -0.120117 0
0.118213 -0.121271 0
0.119626 -0.122424 0
0.121039 -0.123578 0
0.122452 -0.124732 0
0.123866 -0.125886 0
0.125279 -0.12704 0
0.126692 -0.128194 0
0.128105 -0.129348 0
0.129519 -0.130501 0
0.130932 -0.131655 0
0.132345 -0.132809 0
0.133758 -0.133963 0
0.135172 -0.133216 0
0.135172 -0.131316 0
0.135172 -0.129415 0
0.135172 -0.127514 0
0.135172 -0.125614 0
0.135172 -0.123713 0
0.135172 -0.121813 0
0.135172 -0.119912 0
0.135172 -0.118012 0
0.135172 -0.116111 0
0.135172 -0.11421 0
0.135172 -0.11231 0
0.135172 -0.110409 0
0.135172 -0.108509 0
0.135172 -0.106608 0
0.135172 -0.104708 0
0.135172 -0.102807 0
0.135172 -0.100906 0
0.135172 -0.0990058 0
0.135172 -0.0971052 0
0.135172 -0.0952046 0
0.135172 -0.0933041 0
0.135172 -0.0914035 0
0.135172 -0.0895029 0
0.135172 -0.0876023 0
0.135172 -0.0857017 0
0.135172 -0.0838012 0
0.135172 -0.0819006 0
0.133758 -0.0788462 0
0.132345 -0.0776923 0
0.130932 -0.0765385 0
0.129519 -0.0753846 0
0.128105 -0.0742308 0
0.126692 -0.0730769 0
0.125279 -0.0719231 0
0.123866 -0.0707692 0
0.122452 -0.0696154 0
0.121039 -0.0684615 0
0.119626 -0.0673077 0
0.118213 -0.0661538 0
0.116799 -0.065 0
0.115386 -0.0638462 0
0.113973 -0.0626923 0
0.11256 -0.0615385 0
0.111146 -0.0603846 0
0.109733 -0.0592308 0
0.10832 -0.0580769 0
0.106907 -0.0569231 0
0.105493 -0.0557692 0
0.10408 -0.0546154 0
0.102667 -0.0534615 0
0.101254 -0.0523077 0
0.0998404 -0.0511538 0
0.0984272 -0.05 0
0.0970139 -0.0488462 0
0.0956006 -0.0476923 0
[...]
CELL_DATA 13116
SCALARS rho float
LOOKUP_TABLE default
0.465087
0.571648
0.39219
0.590803
0.592077
0.652468
0.382645
0.602184
0.441565
0.591765
0.37453
0.414406
0.592276
0.405675
0.391486
0.650918
0.4436
0.584617
0.611856
0.357569
0.467642
0.370246
0.414074
0.586298
0.512434
0.590375
0.591682
0.390453
0.509614
0.544631
0.678632
0.422039
0.465809
0.373038
0.384017
0.46657
0.561898
0.595859
0.664077
0.605058
0.629932
0.600869
0.357387
0.400606
0.607212
0.61034
0.563429
0.607696
0.381867
0.436539
0.600711
0.368799
0.39146
0.437901
0.464671
0.491973
0.402356
0.584472
0.447907
0.394622
0.406528
0.592829
0.567427
0.665289
0.674319
0.393291
0.617666
0.566293
0.61154
0.672666
0.389978
0.491887
0.366364
0.403487
0.684291
0.37973
0.549376
0.595305
0.375408
0.582261
0.572829
0.586529
0.586695
0.601385
0.594186
0.36562
0.380161
0.563333
0.594046
0.373874
0.4259
0.573075
0.58843
0.598791
0.547837
0.504103
0.514619
0.680088
0.682252
0.502739
0.570703
0.521285
0.623627
0.352515
0.559738
0.412542
0.29699
0.396828
0.40498
0.51876
0.422431
0.577437
0.502341
0.574716
0.582781
0.614546
0.391902
0.326379
0.597733
0.609336
0.566289
0.360518
0.610472
0.423893
0.59789
0.367261
0.382886
0.424029
0.406453
0.43781
0.597971
0.586051
0.415314
0.37906
0.397393
0.497174
0.695347
0.605753
0.570013
0.609137
0.536222
0.565615
0.423085
0.537783
0.557829
0.413002
0.383496
0.583562
0.590157
0.602956
0.4532
0.602126
0.608981
0.377483
0.590546
0.596147
0.415422
0.575022
0.679933
0.56345
0.585714
0.374465
0.58625
0.413847
0.357995
0.594359
0.595672
0.584217
0.383773
0.380696
0.348412
0.694888
0.395777
0.409643
0.616795
0.415371
0.376892
0.368797
0.57499
0.656722
0.358708
0.36056
0.441211
0.561761
0.655005
0.446225
0.375819
0.626582
0.558192
0.382867
0.540423
0.582308
0.670738
0.41794
0.575372
0.655409
0.589808
0.623166
0.592941
0.322687
0.352303
0.523655
0.419431
0.406474
0.589003
0.596583
0.376746
0.512963
0.404351
0.367576
0.37967
0.631594
0.415417
0.355924
0.370781
0.378221
0.307575
0.664817
0.596882
0.354494
0.401521
0.61928
0.417107
0.358723
0.462848
0.592312
0.555913
0.391883
0.617488
0.320977
0.603654
0.422818
0.673677
0.482354
0.681719
0.601034
0.669342
0.389031
0.363477
0.563229
0.686121
0.656818
0.693339
0.670263
0.603655
0.378043
0.602556
0.591277
0.681234
0.37697
0.38311
0.600199
0.599046
0.675512
0.597261
0.454363
0.576015
0.373871
0.398995
0.322588
0.405144
0.549824
0.589628
0.548543
0.374663
0.60482
0.382446
0.356661
0.560926
0.3713
0.58756
0.599449
0.688272
0.584284
0.387976
0.688702
0.576685
0.680749
0.605876
0.370725
0.37263
0.416878
0.493578
0.363256
0.373698
0.276394
0.375548
0.587431
0.395331
0.596572
0.594398
0.367875
0.358018
0.37913
0.375142
0.381629
0.562189
0.509293
0.56982
0.370048
0.630682
0.491731
0.407799
0.393376
0.660343
0.599793
0.626223
0.374501
0.653469
0.357224
0.586237
0.599866
0.603673
0.600001
0.41702
0.61925
0.401335
0.638329
0.591341
0.563666
0.358306
0.276133
0.591734
0.381052
0.576427
0.593009
0.329449
0.577719
0.586431
0.373941
0.604096
0.588355
0.404979
0.598709
0.364864
0.48057
0.605399
0.371098
0.575289
0.373866
0.58469
0.283959
0.668267
0.528374
0.590439
0.393862
0.298544
0.595532
0.377242
0.590322
0.563161
0.354183
0.695319
0.375466
0.372059
0.593179
0.463738
0.565349
0.374746
0.41471
0.602862
0.594185
0.380655
0.597209
0.395991
0.411374
0.611103
0.604648
0.389974
0.364185
0.604256
0.677323
0.651164
0.60188
0.585985
0.453832
0.347814
0.403293
0.358201
0.652949
0.358101
0.439549
0.3156
0.420397
0.294075
0.397784
0.272842
0.375203
0.595657
0.411049
0.586854
0.509566
0.615634
0.556595
0.601191
0.371776
0.371398
0.328708
0.34031
0.590264
0.498827
0.623169
0.510165
0.558714
0.522759
0.585083
0.528529
0.542433
0.585893
0.581827
0.656781
0.328411
0.383437
0.461879
0.373083
0.506585
0.490639
0.39104
0.615909
0.687592
0.417365
0.354188
0.365493
0.372783
0.531552
0.389651
0.41779
0.625468
0.392887
0.482486
0.374129
0.648883
0.575017
0.377882
0.376793
0.592466
0.375533
0.372849
0.372939
0.364397
0.405154
0.369571
0.354688
0.365495
0.356992
0.370405
0.519172
0.354791
0.595117
0.303707
0.418878
0.416587
0.414462
0.374994
0.415993
0.606406
0.363168
0.5406
0.400812
0.390046
0.515091
0.595179
0.364771
0.577312
0.524206
0.52347
0.367531
0.6817
0.326645
0.585684
0.679493
0.409996
0.394649
0.556105
0.338904
0.372117
0.530747
0.297692
0.574279
0.561341
0.359482
0.375732
0.395335
0.405957
0.392645
0.401107
0.393861
0.401517
0.594414
0.592831
0.380113
0.505337
0.397221
0.572774
0.2973
0.384908
0.445237
0.408932
0.59241
0.246535
0.309824
0.41152
0.6054
0.593413
0.469634
0.324248
0.392895
0.476095
0.601804
0.671112
0.472944
0.557973
0.548063
0.368553
0.574222
0.478606
0.562315
0.374518
0.381283
0.573985
0.589844
0.555682
0.592182
0.587678
0.593441
0.584858
0.562515
0.617325
0.359681
0.604435
0.280145
0.403715
0.355926
0.590032
0.598179
0.387335
0.59359
0.523976
0.35732
0.666736
0.600414
0.582838
0.390816
0.383546
0.593942
0.371311
0.357705
0.414649
0.367326
0.589272
0.402868
0.589216
0.355113
0.570953
0.60108
0.616389
0.593485
0.370567
0.357592
0.596665
0.603045
0.555947
0.594436
0.591048
0.410751
0.372488
0.404841
0.641231
0.442688
0.363517
0.375526
0.422509
0.602772
0.622027
0.375523
0.368826
0.59297
0.37964
0.596363
0.556806
0.406694
0.32208
0.552929
0.686988
0.412451
0.591967
0.595937
0.597136
0.380606
0.693279
0.40383
0.682348
0.561299
0.362571
0.307683
0.371191
0.681063
0.402729
0.379618
0.326449
0.664844
0.583863
0.378579
0.393655
0.372466
0.665516
0.365789
0.65583
0.412437
0.495133
0.59223
0.305959
0.413712
0.414378
0.411286
0.402555
0.591349
0.376782
0.386077
0.654664
0.395828
0.634287
0.572837
0.680956
0.353515
0.593246
0.588003
0.589659
0.637815
0.602979
0.612049
0.419378
0.67223
0.356559
0.589101
0.369617
0.60335
0.422371
0.386252
0.675571
0.588511
0.380362
0.529932
0.425635
0.389462
0.627278
0.606217
0.426796
0.415729
0.377214
0.419482
0.602948
0.586381
0.380946
0.361687
0.589778
0.606606
0.496873
0.587734
0.6262
0.374302
0.59067
0.354097
0.600777
0.328661
0.50156
0.397969
0.621066
0.566325
0.48541
0.315473
0.395863
0.618548
0.509712
0.440601
0.587373
0.404487
0.576541
0.590261
0.29928
0.381226
0.588489
0.339891
0.673897
0.564058
0.272143
0.606613
0.546408
0.379642
0.582032
0.417436
0.589881
0.391362
0.633909
0.566393
0.398089
0.664309
0.586618
0.592369
0.525289
0.577498
0.490422
0.364712
0.357811
0.373866
0.404306
0.698217
0.465578
0.609113
0.589932
0.357125
0.353746
0.580921
0.592059
0.591942
0.599858
0.358779
0.581897
0.591393
0.354957
0.358896
0.597
0.601262
0.59191
0.417038
0.496789
0.376344
0.580813
0.573421
0.670931
0.580117
0.365916
0.583996
0.596086
0.587734
0.604399
0.637497
0.352357
0.585957
0.366819
0.544055
0.59166
0.380344
0.562029
0.669741
0.601473
0.353569
0.343709
0.491818
0.550008
0.369319
0.366168
0.371643
0.371535
0.571332
0.576133
0.6697
0.374642
0.371552
0.612074
0.574149
0.404191
0.354495
0.382891
0.562416
0.622395
0.60083
0.581141
0.367354
0.369261
0.692411
0.422913
0.355557
0.378621
0.639975
0.376897
0.374002
0.485326
0.592969
0.573947
0.659288
0.631744
0.390755
0.395104
0.369692
0.40243
0.36258
0.42378
0.565216
0.580441
0.585881
0.624139
0.418274
0.353837
0.592072
0.36184
0.640116
0.566621
0.678466
0.426487
0.362579
0.5861
0.677118
0.477885
0.40452
0.596217
0.657365
0.481723
0.603062
0.601336
0.690749
0.556863
0.358007
0.633508
0.675316
0.528597
0.580545
0.698094
0.577837
0.689741
0.606519
0.387112
0.379036
0.355592
0.6771
0.421848
0.364718
0.581336
0.589237
0.414042
0.536027
0.373971
0.541496
0.394666
0.385367
0.592245
0.58589
0.365974
0.461048
0.677071
0.407641
0.598692
0.399589
0.411494
0.519424
0.512377
0.416436
0.621194
0.372633
0.586251
0.377731
0.41418
0.636144
0.363923
0.507998
0.423319
0.535827
0.502934
0.690794
0.594226
0.400727
0.386341
0.532732
0.359361
0.591306
0.381032
0.497657
0.651498
0.587526
0.370222
0.516448
0.574832
0.590077
0.613896
0.286584
0.360196
0.452595
0.575493
0.590179
0.30838
0.623853
0.479432
0.328546
0.425123
0.564886
0.562808
0.691979
0.681982
0.53062
0.575968
0.662263
0.568083
0.423841
0.555696
0.380912
0.605411
0.601313
0.384501
0.606278
0.593149
0.37617
0.396174
0.379526
0.697785
0.375397
0.518913
0.584051
0.556885
0.400796
0.592523
0.407893
0.496751
0.666222
0.67189
0.563927
0.665801
0.52161
0.571946
0.439269
0.588912
0.39278
0.64367
0.617415
0.344602
0.687489
0.577788
0.416502
0.402127
0.407151
0.603465
0.369529
0.68782
0.369571
0.602599
0.394897
0.398445
0.418695
0.585215
0.599442
0.452573
0.402678
0.521814
0.663885
0.363603
0.496172
0.592218
0.422698
0.494462
0.679279
0.59228
0.636778
0.411178
0.394394
0.591372
0.612179
0.544747
0.372794
0.339635
0.597906
0.693796
0.687081
0.694758
0.462082
0.586229
0.457971
0.606762
0.374613
0.407776
0.694096
0.59187
0.663934
0.397693
0.640695
0.469751
0.506369
0.38392
0.343224
0.596805
0.595822
0.466783
0.335352
0.621416
0.686006
0.382708
0.514498
0.580941
0.382096
0.417366
0.400346
0.562862
0.365796
0.358589
0.602202
0.387258
0.590555
0.541158
0.384539
0.369252
0.595483
0.376006
0.389042
0.677322
0.413807
0.29773
0.497529
0.602666
0.591336
0.371947
0.369319
0.375618
0.573462
0.412525
0.592176
0.392628
0.582771
0.597714
0.604775
0.564145
0.58122
0.572075
0.6243
0.593453
0.594531
0.401265
0.367509
0.575172
0.662039
0.421604
0.565972
0.468697
0.663738
0.527402
0.378834
0.611227
0.592403
0.59049
0.377924
0.583922
0.373467
0.599945
0.413551
0.5827
0.634828
0.385073
0.589008
0.369409
0.363319
0.567267
0.379776
0.574909
0.69778
0.604018
0.374854
0.626435
0.371188
0.429077
0.419192
0.3697
0.524448
0.396424
0.538369
0.669167
0.336172
0.417007
0.404944
0.488941
0.533086
0.549719
0.353158
0.386363
0.380119
0.418212
0.40453
0.533007
0.581484
0.387066
0.667667
0.583878
0.400477
0.591374
0.573569
0.668178
0.372151
0.683358
0.576481
0.586699
0.6046
0.391114
0.590694
0.588468
0.584383
0.565361
0.657269
0.375563
0.418176
0.603913
0.450483
0.362405
0.638837
0.418869
0.480404
0.528523
0.588326
0.590833
0.426415
0.564598
0.321895
0.37721
0.578483
0.591762
0.588949
0.602201
0.555777
0.430129
0.592743
0.398386
0.420467
0.594519
0.682599
0.591423
0.376377
0.398233
0.591614
0.396812
0.594036
0.549114
0.358321
0.363911
0.609255
0.423118
0.635388
0.593508
0.554955
0.42296
0.376332
0.42042
0.433818
0.52301
0.393136
0.651909
0.551048
0.597264
0.698952
0.582624
0.38765
0.365201
0.594996
0.657748
0.540874
0.380193
0.405272
0.571982
0.397731
0.624254
0.520516
0.349241
0.589849
0.369916
0.598959
0.389568
0.590272
0.390061
0.595967
0.658942
0.410527
0.598384
0.549378
0.399346
0.670634
0.613493
0.467364
0.413681
0.302362
0.38765
0.588381
0.537144
0.350285
0.493003
0.583946
0.655462
0.400533
0.514848
0.583099
0.379207
0.652265
0.637801
0.389715
0.597805
0.679637
0.393399
0.503376
0.369499
0.54084
0.373714
0.410647
0.589528
0.363706
0.372334
0.400474
0.62086
0.57583
0.335277
0.619461
0.302607
0.564915
0.369495
0.577512
0.314832
0.649684
0.60429
0.54865
0.671835
0.464128
0.65951
0.668388
0.391052
0.539463
0.551895
0.413448
0.582389
0.410556
0.349759
0.592641
0.361021
0.481242
0.373403
0.62391
0.400868
0.418526
0.585877
0.628325
0.358018
0.606518
0.580322
0.697949
0.600411
0.682236
0.356301
0.591002
0.354621
0.41477
0.596164
0.582071
0.601374
0.594999
0.422573
0.375898
0.376975
0.57395
0.669978
0.302249
0.604227
0.394824
0.375474
0.380746
0.595282
0.32817
0.592887
0.593783
0.538332
0.605216
0.594597
0.482426
0.545186
0.360233
0.401158
0.357067
0.682373
0.683614
0.398681
0.53244
0.561008
0.545438
0.411695
0.351555
0.55354
0.23495
0.547544
0.512735
0.352765
0.663247
0.572773
0.363064
0.591368
0.389806
0.610108
0.590984
0.582114
0.398656
0.388994
0.573795
0.389832
0.364868
0.607117
0.382885
0.661567
0.614814
0.586271
0.580492
0.34503
0.676273
0.578002
0.612761
0.301995
0.60032
0.375657
0.410998
0.593405
0.62194
0.669635
0.199841
0.633225
0.538801
0.684598
0.388122
0.397641
0.370956
0.604589
0.379786
0.395209
0.38083
0.511155
0.39202
0.382316
0.36505
0.593154
0.357177
0.671656
0.666672
0.606294
0.375171
0.601906
0.553485
0.667916
0.344617
0.563598
0.382956
0.361334
0.628651
0.359133
0.529932
0.582023
0.691684
0.35735
0.275545
0.379186
0.472042
0.693675
0.197823
0.596207
0.622612
0.581521
0.369952
0.398862
0.287326
0.541056
0.369334
0.698906
0.513554
0.664864
0.599108
0.372247
0.531242
0.420197
0.499411
0.55059
0.592071
0.493788
0.410883
0.563633
0.543857
0.59515
0.367356
0.305857
0.3951
0.582264
0.447637
0.682638
0.355406
0.334697
0.585372
0.601001
0.673401
0.357593
0.605669
0.470457
0.47365
0.53914
0.405583
0.356416
0.389192
0.62095
0.668539
0.564217
0.571102
0.287018
0.604484
0.558584
0.668129
0.669302
0.60398
0.592441
0.655771
0.581772
0.588275
0.409112
0.604361
0.601677
0.649471
0.60031
0.620435
0.492482
0.353604
0.41407
0.532861
0.366769
0.337593
0.604755
0.389701
0.541266
0.613729
0.571446
0.591536
0.41577
0.604567
0.415715
0.404947
0.653967
0.586925
0.62321
0.376973
0.598485
0.620953
0.535467
0.628415
0.374752
0.652836
0.591732
0.571274
0.323883
0.584323
0.373449
0.59141
0.381168
0.353754
0.448265
0.374003
0.59221
0.585352
0.639484
0.380844
0.654633
0.337124
0.392576
0.587549
0.407749
0.373663
0.629224
0.405718
0.429461
0.564825
0.559344
0.588438
0.407362
0.504814
0.555611
0.644841
0.490974
0.589188
0.449599
0.605996
0.569373
0.548615
0.418232
0.376212
0.372614
0.602075
0.415917
0.562384
0.605924
0.5095
0.642631
0.441901
0.574385
0.56925
0.373131
0.607118
0.560814
0.419286
0.561684
0.592108
0.591719
0.659711
0.36843
0.386766
0.588497
0.450563
0.460367
0.606844
0.599062
0.61835
0.589846
0.590833
0.52528
0.550211
0.591612
0.397313
0.413868
0.403506
0.35883
0.688269
0.383229
0.454777
0.589982
0.572993
0.412825
0.591591
0.589063
0.37875
0.314559
0.686414
0.604203
0.401959
0.415535
0.415426
0.698978
0.589306
0.327552
0.388157
0.354149
0.411402
0.346348
0.365349
0.604852
0.605423
0.578847
0.368424
0.572518
0.513194
0.51791
0.360721
0.35644
0.587031
0.69469
0.374574
0.650605
0.362122
0.585704
0.409145
0.605644
0.365856
0.586496
0.596687
0.374834
0.475261
0.376185
0.591104
0.415221
0.517084
0.418312
0.424593
0.382693
0.509551
0.363387
0.672997
0.67044
0.516287
0.580464
0.359155
0.578466
0.662711
0.597606
0.511002
0.5655
0.355929
0.35124
0.396722
0.588455
0.246243
0.592994
0.460575
0.581777
0.592386
0.389109
0.586223
0.390857
0.402129
0.396138
0.428046
0.448637
0.597622
0.369137
0.375191
0.640401
0.313554
0.42388
0.47587
0.312987
0.373391
0.414058
0.600878
0.555548
0.520752
0.411015
0.575462
0.618989
0.415618
0.269702
0.596277
0.636547
0.499826
0.432783
0.339682
0.30106
0.375728
0.602528
0.531792
0.440331
0.576803
0.402659
0.481218
0.37278
0.674671
0.594183
0.353964
0.397877
0.537162
0.470755
0.594188
0.588512
0.588961
0.604878
0.593848
0.379531
0.371961
0.397657
0.370081
0.459227
0.679199
0.556933
0.365045
0.355858
0.378244
0.417733
0.616961
0.557637
0.373706
0.371609
0.614723
0.41128
0.554564
0.586491
0.575649
0.655874
0.468022
0.357672
0.368333
0.547183
0.353499
0.361427
0.330004
0.661505
0.610678
0.401044
0.354675
0.695097
0.363173
0.62093
0.588488
0.358304
0.376138
0.394669
0.613016
0.391981
0.697964
0.580305
0.510264
0.414133
0.446468
0.594133
0.593926
0.380757
0.588586
0.533698
0.434139
0.596301
0.602022
0.376366
0.360765
0.585559
0.366761
0.368645
0.581842
0.287703
0.604581
0.574563
0.587776
0.537042
0.591702
0.6164
0.661114
0.378361
0.339328
0.546612
0.588712
0.388684
0.591465
0.364494
0.607227
0.589808
0.481583
0.550403
0.351101
0.380185
0.592599
0.59116
0.567312
0.597124
0.622454
0.690009
0.601455
0.696803
0.602492
0.588973
0.603266
0.693658
0.659705
0.353079
0.587708
0.39214
0.609777
0.605011
0.583577
0.570387
0.57991
0.376062
0.377496
0.380992
0.378461
0.572738
0.361992
0.373285
0.574228
0.416754
0.581257
0.37499
0.583211
0.591482
0.361335
0.316389
0.348221
0.603696
0.406936
0.597529
0.5884
0.38013
0.585616
0.470125
0.323346
0.394173
0.413117
0.580121
0.359752
0.606969
0.438841
0.371998
0.616714
0.627954
0.588825
0.363646
0.486846
0.420099
0.573785
0.659345
0.613554
0.370808
0.587613
0.606349
0.571117
0.344311
0.603553
0.36271
0.369177
0.601946
0.379147
0.591431
0.352059
0.371854
0.368187
0.573254
0.400802
0.369344
0.38995
0.404921
0.68207
0.590481
0.406258
0.507886
0.617472
0.472659
0.355677
0.355655
0.472186
0.365481
0.36682
0.601716
0.371717
0.367458
0.602863
0.593708
0.378615
0.583547
0.379639
0.687894
0.386975
0.589656
0.67237
0.580895
0.664926
0.377727
0.370647
0.422623
0.655551
0.587877
0.502613
0.45709
0.308593
0.256512
0.647569
0.377511
0.604836
0.318472
0.672521
0.567424
0.370318
0.400652
0.367069
0.354216
0.400064
0.537525
0.572957
0.366246
0.601839
0.540959
0.36896
0.396191
0.591742
0.373562
0.593994
0.354248
0.580809
0.555328
0.602768
0.680509
0.38858
0.590814
0.608718
0.600143
0.36546
0.539243
0.508962
0.33908
0.602703
0.546566
0.607464
0.577475
0.593558
0.600771
0.599688
0.646678
0.614228
0.357457
0.587893
0.367384
0.385101
0.606711
0.422124
0.589856
0.549405
0.378719
0.570204
0.363593
0.426698
0.597631
0.537922
0.594028
0.370845
0.577963
0.525999
0.385945
0.367355
0.595356
0.620896
0.316628
0.385195
0.583069
0.592852
0.351882
0.544943
0.595397
0.557687
0.37836
0.362516
0.423805
0.556558
0.386308
0.588731
0.582158
0.645389
0.514084
0.59385
0.370274
0.592345
0.524828
0.59667
0.491882
0.415501
0.379475
0.407409
0.586289
0.5901
0.351792
0.553642
0.368585
0.550215
0.610151
0.40523
0.531893
0.589701
0.528441
0.370077
0.373369
0.358957
0.59369
0.591468
0.523914
0.432357
0.598683
0.372993
0.538045
0.686858
0.587059
0.371615
0.533455
0.377732
0.557555
0.410319
0.594417
0.597951
0.409876
0.595728
0.361215
0.694281
0.543225
0.698972
0.604029
0.357158
0.650373
0.627123
0.612683
0.595288
0.40189
0.687225
0.398969
0.623617
0.405905
0.357131
0.403796
0.400724
0.367374
0.369738
0.594997
0.303673
0.394669
0.558156
0.595576
0.574899
0.331765
0.577452
0.576146
0.658095
0.38087
0.499239
0.616891
0.355969
0.387325
0.369864
0.533079
0.426611
0.357181
0.50101
0.418166
0.680639
0.420338
0.386913
0.394501
0.551577
0.351908
0.621033
0.400899
0.404304
0.315519
0.602725
0.326046
0.554602
0.686176
0.552371
0.353118
0.360345
0.602661
0.592936
0.383405
0.429248
0.652707
0.355856
0.583951
0.368249
0.473273
0.408061
0.617186
0.370187
0.59426
0.356961
0.609629
0.596264
0.592114
0.688293
0.398324
0.416565
0.328722
0.592056
0.573542
0.572331
0.452154
0.376134
0.585338
0.354699
0.586071
0.525495
0.350057
0.367155
0.587001
0.596217
0.418359
0.677161
0.604583
0.587835
0.587821
0.400894
0.5402
0.371891
0.588479
0.389715
0.66824
0.584549
0.603529
0.595283
0.370749
0.593008
0.363453
0.375053
0.622728
0.68723
0.463921
0.590649
0.688318
0.374872
0.585047
0.601757
0.60075
0.427812
0.360256
0.574231
0.362882
0.605845
0.60513
0.591861
0.603015
0.244164
0.377348
0.551133
0.411813
0.590729
0.590972
0.39781
0.596339
0.400989
0.547924
0.585306
0.572154
0.598005
0.374535
0.417461
0.59687
0.58709
0.379136
0.358208
0.374328
0.413362
0.395606
0.403767
0.382887
0.364169
0.594997
0.404839
0.377769
0.582349
0.462419
0.6945
0.333532
0.354512
0.614719
0.392437
0.405703
0.590664
0.313539
0.559885
0.671432
0.518596
0.577837
0.406241
0.591106
0.666051
0.383
0.369971
0.350223
0.547359
0.518236
0.593093
0.64863
0.587281
0.57954
0.300551
0.594578
0.664861
0.598792
0.355972
0.614703
0.509117
0.303607
0.362659
0.394413
0.41951
0.398013
0.501531
0.565811
0.575716
0.368164
0.322108
0.596161
0.413487
0.586724
0.624833
0.591411
0.572419
0.60099
0.357984
0.419622
0.418177
0.480906
0.392827
0.609878
0.416561
0.626783
0.652725
0.60471
0.366461
0.377668
0.353932
0.595562
0.381418
0.371683
0.604083
0.578292
0.5294
0.651058
0.595322
0.583603
0.358862
0.53189
0.590512
0.447194
0.594957
0.586693
0.585001
0.37939
0.354763
0.6006
0.416859
0.520794
0.371834
0.562132
0.594299
0.323575
0.385603
0.571118
0.428988
0.590668
0.586239
0.358677
0.355623
0.678992
0.326451
0.337659
0.59737
0.595131
0.37701
0.599037
0.679442
0.570604
0.35417
0.502686
0.360127
0.600764
0.59442
0.583639
0.572761
0.676903
0.377966
0.323593
0.581521
0.364589
0.517736
0.37341
0.601567
0.411631
0.549697
0.590058
0.678661
0.370076
0.698142
0.684023
0.37155
0.561513
0.413634
0.600039
0.372726
0.368108
0.413369
0.574389
0.6065
0.270809
0.385335