# vtk DataFile Version 1.0
unstructured grid
ascii
DATASET UNSTRUCTURED_GRID
points 13672 float
0.0796578 -0.059106 0
0.00128732 0.00159165 0
0.00227961 -0.00102548 0
0.0791586 -0.0598787 0
-0.0546216 0.01 0
0.000495206 0.025 0
0.0800549 -0.035 0
0.135172 -0.08 0
-0.0546216 -0.0451168 0
0.000495206 -0.0301168 0
0.0800549 -0.0901168 0
0.135172 -0.135117 0
-0.0546216 -0.0451168 -0.00551168
0.000495206 -0.0301168 -0.00551168
0.0800549 -0.0901168 -0.00551168
0.135172 -0.135117 -0.00551168
0.135172 -0.08 -0.00551168
0.0800549 -0.035 -0.00551168
0.000495206 0.025 -0.00551168
-0.0546216 0.01 -0.00551168
0.00128732 0.00159165 -0.00551168
0.00227961 -0.00102548 -0.00551168
0.0791586 -0.0598787 -0.00551168
0.0796578 -0.059106 -0.00551168
0.00165953 -0.000990923 0
0.00119576 -0.000874076 0
0.000866021 -0.000641801 0
0.000645147 -0.000349912 0
0.00052235 -1.7281e-05 0
0.00049972 0.000348016 0
0.000601632 0.000737716 0
0.000861774 0.0011403 0
0.00157235 0.00183217 0
0.00188647 0.00206725 0
0.00222612 0.00230203 0
0.00258713 0.00254351 0
0.00296826 0.00279524 0
0.00337118 0.00305664 0
0.00379785 0.00332658 0
0.00425045 0.00360349 0
0.00473139 0.00388521 0
0.0052432 0.00416895 0
0.0057881 0.00445204 0
0.00636753 0.00473281 0
0.00698281 0.00500961 0
0.00763526 0.00528058 0
0.00832616 0.00554366 0
0.00905691 0.00579603 0
0.00982918 0.00603333 0
0.0106445 0.00625033 0
0.0115038 0.00644128 0
0.0124073 0.00660297 0
0.0133543 0.00673414 0
0.0143444 0.00683382 0
0.0153769 0.00690031 0
0.0164512 0.00693173 0
0.0175666 0.00692547 0
0.0187219 0.00687822 0
0.0199156 0.00678477 0
0.0211454 0.00663864 0
0.0224084 0.00643275 0
0.0237018 0.00616676 0
0.0250249 0.00584739 0
0.026375 0.00547298 0
0.0277479 0.00503752 0
0.0291386 0.00453545 0
0.0305433 0.0039653 0
0.0319572 0.0033256 0
0.0333681 0.00260019 0
0.034775 0.00179799 0
0.0361793 0.000930615 0
0.0375798 3.12222e-06 0
0.0389689 -0.000988429 0
0.0403357 -0.00205109 0
0.041675 -0.00318283 0
0.0429849 -0.00437751 0
0.0442643 -0.00562904 0
0.0455126 -0.00693089 0
0.0467314 -0.00827518 0
0.0479204 -0.00965638 0
0.0490661 -0.0110799 0
0.0501515 -0.0125519 0
0.0511696 -0.0140695 0
0.0521492 -0.0156071 0
0.0531202 -0.0171411 0
0.0540851 -0.0186663 0
0.0550431 -0.0201798 0
0.0559923 -0.0216793 0
0.0569311 -0.0231626 0
0.0578582 -0.0246273 0
0.0587723 -0.0260715 0
0.0596721 -0.027493 0
0.0605563 -0.02889 0
0.0614241 -0.0302609 0
0.0622742 -0.0316042 0
0.063106 -0.0329183 0
0.0639186 -0.034202 0
0.0647113 -0.0354543 0
0.0654835 -0.0366743 0
0.0662345 -0.0378613 0
0.0669642 -0.0390145 0
0.0676726 -0.0401333 0
0.0683597 -0.0412172 0
0.0690246 -0.0422665 0
0.0696662 -0.0432819 0
0.0702841 -0.0442636 0
0.0708793 -0.0452111 0
0.0714538 -0.0461237 0
0.072009 -0.047001 0
0.0725452 -0.0478434 0
0.0730611 -0.0486524 0
0.073556 -0.0494294 0
0.0740291 -0.0501756 0
0.0744812 -0.0508916 0
0.0749138 -0.0515773 0
0.0753285 -0.0522331 0
0.0757266 -0.0528592 0
0.076109 -0.0534564 0
0.0764753 -0.0540264 0
0.0768243 -0.054571 0
0.0771553 -0.0550919 0
0.0774679 -0.0555901 0
0.0777617 -0.0560669 0
0.0780369 -0.056523 0
0.0782958 -0.0569578 0
0.0785421 -0.0573703 0
0.0787786 -0.0577603 0
0.0790073 -0.0581279 0
0.0792295 -0.058474 0
0.0794462 -0.0587995 0
0.0798803 -0.0594162 0
0.0800272 -0.0596588 0
0.0800357 -0.0598891 0
0.0799275 -0.0600784 0
0.0797205 -0.0601773 0
0.0794593 -0.0601051 0
0.0789155 -0.0596491 0
0.0786707 -0.0593963 0
0.0784111 -0.0591319 0
0.0781372 -0.0588542 0
0.0778566 -0.0585548 0
0.0775715 -0.0582308 0
0.0772803 -0.0578828 0
0.0769832 -0.0575099 0
0.0766822 -0.0571097 0
0.0763801 -0.0566796 0
0.0760759 -0.0562196 0
0.0757623 -0.0557337 0
0.0754359 -0.0552232 0
0.0750951 -0.0546879 0
0.0747379 -0.054128 0
0.0743626 -0.0535435 0
0.0739688 -0.0529338 0
0.0735559 -0.0522981 0
0.0731238 -0.0516357 0
0.0726718 -0.050946 0
0.0721991 -0.0502288 0
0.0717046 -0.049484 0
0.0711872 -0.0487117 0
0.0706461 -0.047912 0
0.0700804 -0.0470849 0
0.0694892 -0.0462308 0
0.0688718 -0.0453499 0
0.0682271 -0.0444431 0
0.0675544 -0.043511 0
0.0668527 -0.0425546 0
0.0661215 -0.0415748 0
0.06536 -0.040573 0
0.0645676 -0.0395504 0
0.0637439 -0.0385087 0
0.0628887 -0.0374493 0
0.062002 -0.0363741 0
0.0610838 -0.0352847 0
0.0601345 -0.0341831 0
0.0591547 -0.033071 0
0.0581456 -0.0319502 0
0.0571083 -0.0308224 0
0.0560444 -0.0296893 0
0.0549562 -0.028552 0
0.053845 -0.0274126 0
0.0527113 -0.0262746 0
0.051554 -0.0251427 0
0.0503724 -0.0240222 0
0.0491675 -0.0229164 0
0.047941 -0.0218282 0
0.0466955 -0.0207597 0
0.0454337 -0.0197126 0
0.0441592 -0.0186878 0
0.0428751 -0.0176863 0
0.0415841 -0.0167097 0
0.0402878 -0.0157609 0
0.0389879 -0.0148428 0
0.0376864 -0.0139575 0
0.0363853 -0.013107 0
0.0350871 -0.0122931 0
0.0337942 -0.0115164 0
0.0325095 -0.0107772 0
0.0312357 -0.0100756 0
0.0299758 -0.00941024 0
0.0287337 -0.00877784 0
0.0275126 -0.00817571 0
0.0263139 -0.00760375 0
0.0251376 -0.00706528 0
0.0239829 -0.0065649 0
0.0228537 -0.00609619 0
0.0217522 -0.00565563 0
0.0206795 -0.00524226 0
0.0196364 -0.00485507 0
0.0186233 -0.00449318 0
0.0176408 -0.00415577 0
0.016689 -0.00384204 0
0.0157682 -0.00355115 0
0.0148783 -0.00328218 0
0.0140192 -0.00303468 0
0.0131906 -0.00280795 0
0.0123925 -0.00260016 0
0.0116246 -0.00241012 0
0.0108864 -0.00223769 0
0.0101774 -0.00208212 0
0.00949701 -0.00194206 0
0.00884483 -0.0018163 0
0.0082202 -0.0017039 0
0.00762247 -0.00160391 0
0.00705097 -0.00151528 0
0.006505 -0.00143697 0
0.0059838 -0.00136806 0
0.00548662 -0.00130772 0
0.00501265 -0.00125519 0
0.00456114 -0.00120954 0
0.00413136 -0.00116914 0
0.00372257 -0.00113251 0
0.00333398 -0.00109853 0
0.00296466 -0.00106798 0
0.00261363 -0.0010431 0
-0.052721 -0.0445996 0
-0.0508204 -0.0440823 0
-0.0489199 -0.0435651 0
-0.0470193 -0.0430478 0
-0.0451187 -0.0425306 0
-0.0432181 -0.0420134 0
-0.0413175 -0.0414961 0
-0.039417 -0.0409789 0
-0.0375164 -0.0404616 0
-0.0356158 -0.0399444 0
-0.0337152 -0.0394271 0
-0.0318146 -0.0389099 0
-0.0299141 -0.0383927 0
-0.0280135 -0.0378754 0
-0.0261129 -0.0373582 0
-0.0242123 -0.0368409 0
-0.0223117 -0.0363237 0
-0.0204112 -0.0358065 0
-0.0185106 -0.0352892 0
-0.01661 -0.034772 0
-0.0147094 -0.0342547 0
-0.0128088 -0.0337375 0
-0.0109083 -0.0332202 0
-0.00900769 -0.032703 0
-0.00710711 -0.0321858 0
-0.00520653 -0.0316685 0
-0.00330595 -0.0311513 0
-0.00140537 -0.030634 0
0.00190689 -0.0299614 0
0.00332271 -0.0298498 0
0.00474133 -0.0297825 0
0.00616136 -0.0297597 0
0.0075814 -0.0297814 0
0.00900007 -0.0298477 0
0.010416 -0.0299583 0
0.0118278 -0.0301127 0
0.0132342 -0.0303103 0
0.0146339 -0.0305504 0
0.0160259 -0.0308322 0
0.0174091 -0.0311546 0
0.0187824 -0.0315166 0
0.020145 -0.031917 0
0.0214961 -0.0323546 0
0.0228351 -0.032828 0
0.0241613 -0.0333361 0
0.0254744 -0.0338774 0
0.0267738 -0.0344507 0
0.0280592 -0.0350545 0
0.0293306 -0.0356877 0
0.0305875 -0.0363488 0
0.0318301 -0.0370367 0
0.0330581 -0.0377501 0
0.0342717 -0.0384879 0
0.0354708 -0.0392489 0
0.0366556 -0.0400321 0
0.0378262 -0.0408363 0
0.0389828 -0.0416607 0
0.0401254 -0.0425042 0
0.0412543 -0.0433659 0
0.0423698 -0.0442451 0
0.043472 -0.0451408 0
0.0445612 -0.0460523 0
0.0456375 -0.0469789 0
0.0467013 -0.0479199 0
0.0477529 -0.0488746 0
0.0487923 -0.0498424 0
0.04982 -0.0508227 0
0.0508362 -0.051815 0
0.051841 -0.0528187 0
0.0528348 -0.0538333 0
0.0538178 -0.0548584 0
0.0547903 -0.0558935 0
0.0557524 -0.0569382 0
0.0567045 -0.0579922 0
0.0576467 -0.0590549 0
0.0585792 -0.0601261 0
0.0595024 -0.0612055 0
0.0604163 -0.0622926 0
0.0613212 -0.0633873 0
0.0622174 -0.0644891 0
0.0631049 -0.0655979 0
0.0639841 -0.0667134 0
0.064855 -0.0678353 0
0.0657179 -0.0689633 0
0.0665729 -0.0700974 0
0.0674202 -0.0712372 0
0.06826 -0.0723826 0
0.0690925 -0.0735333 0
0.0699178 -0.0746892 0
0.070736 -0.0758501 0
0.0715473 -0.0770159 0
0.0723518 -0.0781863 0
0.0731498 -0.0793612 0
0.0739412 -0.0805405 0
0.0747264 -0.081724 0
0.0755053 -0.0829116 0
0.0762781 -0.0841033 0
0.0770449 -0.0852987 0
0.0778059 -0.0864979 0
0.0785611 -0.0877007 0
0.0793108 -0.088907 0
0.0814681 -0.0912706 0
0.0828814 -0.0924245 0
0.0842946 -0.0935783 0
0.0857079 -0.0947322 0
0.0871211 -0.095886 0
0.0885344 -0.0970399 0
0.0899476 -0.0981937 0
0.0913609 -0.0993476 0
0.0927741 -0.100501 0
0.0941874 -0.101655 0
0.0956006 -0.102809 0
0.0970139 -0.103963 0
0.0984272 -0.105117 0
0.0998404 -0.106271 0
0.101254 -0.107424 0
0.102667 -0.108578 0
0.10408 -0.109732 0
0.105493 -0.110886 0
0.106907 -0.11204 0
0.10832 -0.113194 0
0.109733 -0.114348 0
0.111146 -0.115501 0
0.11256 -0.116655 0
0.113973 -0.117809 0
0.115386 -0.118963 0
0.116799 -0.120117 0
0.118213 -0.121271 0
0.119626 -0.122424 0
0.121039 -0.123578 0
0.122452 -0.124732 0
0.123866 -0.125886 0
0.125279 -0.12704 0
0.126692 -0.128194 0
0.128105 -0.129348 0
0.129519 -0.130501 0
0.130932 -0.131655 0
0.132345 -0.132809 0
0.133758 -0.133963 0
0.135172 -0.133216 0
0.135172 -0.131316 0
0.135172 -0.129415 0
0.135172 -0.127514 0
0.135172 -0.125614 0
0.135172 -0.123713 0
0.135172 -0.121813 0
0.135172 -0.119912 0
0.135172 -0.118012 0
0.135172 -0.116111 0
0.135172 -0.11421 0
0.135172 -0.11231 0
0.135172 -0.110409 0
0.135172 -0.108509 0
0.135172 -0.106608 0
0.135172 -0.104708 0
0.135172 -0.102807 0
0.135172 -0.100906 0
0.135172 -0.0990058 0
0.135172 -0.0971052 0
0.135172 -0.0952046 0
0.135172 -0.0933041 0
0.135172 -0.0914035 0
0.135172 -0.0895029 0
0.135172 -0.0876023 0
0.135172 -0.0857017 0
0.135172 -0.0838012 0
0.135172 -0.0819006 0
0.133758 -0.0788462 0
0.132345 -0.0776923 0
0.130932 -0.0765385 0
0.129519 -0.0753846 0
0.128105 -0.0742308 0
0.126692 -0.0730769 0
0.125279 -0.0719231 0
0.123866 -0.0707692 0
0.122452 -0.0696154 0
0.121039 -0.0684615 0
0.119626 -0.0673077 0
0.118213 -0.0661538 0
0.116799 -0.065 0
0.115386 -0.0638462 0
0.113973 -0.0626923 0
0.11256 -0.0615385 0
0.111146 -0.0603846 0
0.109733 -0.0592308 0
0.10832 -0.0580769 0
0.106907 -0.0569231 0
0.105493 -0.0557692 0
0.10408 -0.0546154 0
0.102667 -0.0534615 0
0.101254 -0.0523077 0
0.0998404 -0.0511538 0
0.0984272 -0.05 0
0.0970139 -0.0488462 0
0.0956006 -0.0476923 0
[...]
CELL_DATA 13116
SCALARS rho float
LOOKUP_TABLE default
0.581629
0.689927
0.371822
0.70389
0.702524
0.696981
0.337189
0.70676
0.533776
0.701473
0.342254
0.317685
0.702666
0.325274
0.337824
0.696573
0.577127
0.688531
0.706121
0.328531
0.576416
0.372363
0.335728
0.692289
0.596997
0.706319
0.701342
0.359726
0.577667
0.638678
0.711732
0.321917
0.553525
0.463836
0.342149
0.580315
0.666037
0.705438
0.703392
0.705655
0.703228
0.706419
0.469211
0.35756
0.706532
0.706331
0.690821
0.706527
0.347042
0.519225
0.705903
0.473224
0.308919
0.572352
0.553864
0.581372
0.354658
0.69218
0.527756
0.322485
0.326739
0.703234
0.689544
0.704828
0.709654
0.332995
0.702103
0.665797
0.704729
0.70879
0.341738
0.564544
0.37907
0.340369
0.711157
0.366986
0.66642
0.704731
0.334631
0.684743
0.679414
0.705461
0.694059
0.706461
0.705811
0.416152
0.325823
0.655835
0.706724
0.353458
0.324133
0.690892
0.69607
0.707526
0.647315
0.601039
0.598514
0.710123
0.711592
0.579443
0.660071
0.663155
0.703953
0.443217
0.692821
0.307152
0.367522
0.503363
0.350077
0.587806
0.52898
0.702305
0.598177
0.679362
0.685473
0.702449
0.326087
0.402045
0.705697
0.703932
0.664489
0.384662
0.704939
0.323311
0.707581
0.444435
0.325774
0.499877
0.350117
0.518847
0.705733
0.69893
0.475731
0.361216
0.457883
0.617885
0.707968
0.705503
0.658852
0.703953
0.65789
0.691838
0.501354
0.660029
0.679754
0.320325
0.34354
0.704718
0.701015
0.706199
0.520103
0.706539
0.706431
0.355652
0.700616
0.706305
0.337821
0.666241
0.710541
0.654632
0.691918
0.340432
0.695187
0.340368
0.388915
0.704021
0.707277
0.687966
0.339538
0.438558
0.411856
0.708214
0.330203
0.490212
0.701597
0.33414
0.36103
0.379148
0.701472
0.700767
0.333899
0.431021
0.550027
0.664737
0.700393
0.528373
0.341744
0.700785
0.694269
0.463538
0.653182
0.704395
0.708805
0.33455
0.702045
0.699521
0.698828
0.702059
0.706492
0.428949
0.444202
0.594898
0.495426
0.337448
0.700706
0.705329
0.478754
0.608035
0.280559
0.341922
0.364266
0.700239
0.338384
0.337271
0.347795
0.356982
0.392033
0.705367
0.707477
0.4039
0.351161
0.701782
0.524048
0.334562
0.522265
0.702521
0.67852
0.35888
0.701561
0.381788
0.707467
0.322767
0.710957
0.552316
0.709936
0.706774
0.707158
0.318839
0.442232
0.652238
0.710377
0.699955
0.708239
0.709105
0.70722
0.363558
0.705777
0.701485
0.711397
0.347993
0.35056
0.706164
0.705981
0.71145
0.705687
0.575548
0.676379
0.341262
0.323786
0.418022
0.282095
0.688961
0.69867
0.666298
0.327768
0.706415
0.334696
0.413896
0.693321
0.347713
0.705774
0.705792
0.710043
0.692174
0.320545
0.709958
0.68362
0.71134
0.705576
0.333427
0.327152
0.336962
0.61547
0.385236
0.366865
0.349147
0.358163
0.702012
0.297456
0.7068
0.704021
0.331801
0.32899
0.333539
0.445397
0.376563
0.655316
0.645222
0.69883
0.34676
0.701717
0.552304
0.332506
0.327257
0.700659
0.706087
0.701444
0.342765
0.698788
0.447427
0.699227
0.7061
0.705944
0.706098
0.336318
0.70132
0.287246
0.697737
0.701625
0.648095
0.337651
0.348265
0.701945
0.331217
0.698095
0.70335
0.409568
0.675084
0.69376
0.330607
0.706548
0.69602
0.302615
0.705755
0.406291
0.539893
0.708407
0.416093
0.667202
0.32841
0.690212
0.352767
0.708073
0.675348
0.699189
0.35734
0.374431
0.706095
0.356056
0.70198
0.696505
0.427556
0.708067
0.346764
0.378203
0.70401
0.526572
0.66673
0.327471
0.338991
0.705739
0.703908
0.345565
0.705155
0.326757
0.299532
0.703265
0.70801
0.509215
0.363517
0.705975
0.711551
0.696725
0.706656
0.696479
0.522089
0.408831
0.281837
0.332927
0.697194
0.333697
0.549791
0.408626
0.33011
0.370163
0.515999
0.152008
0.354439
0.705937
0.322061
0.695986
0.580706
0.705724
0.64712
0.705812
0.379491
0.327631
0.430083
0.403305
0.702189
0.595494
0.704365
0.58059
0.679871
0.620247
0.705094
0.643484
0.636947
0.696969
0.683617
0.698465
0.42106
0.481384
0.579321
0.373109
0.643429
0.581878
0.313219
0.702065
0.709987
0.337131
0.331319
0.342461
0.339591
0.601265
0.347858
0.334945
0.700715
0.335868
0.554601
0.352597
0.696832
0.685578
0.377557
0.361987
0.703629
0.443331
0.356994
0.337897
0.355813
0.349039
0.328131
0.331924
0.376841
0.415658
0.340399
0.66215
0.397571
0.706412
0.422489
0.322159
0.46954
0.316922
0.351923
0.318365
0.705365
0.426327
0.615937
0.512762
0.334413
0.610594
0.706845
0.415278
0.674502
0.62569
0.627025
0.328487
0.710326
0.401293
0.695252
0.712047
0.343862
0.301156
0.693143
0.406306
0.416691
0.676758
0.369613
0.665033
0.683047
0.329541
0.361331
0.326623
0.487587
0.330127
0.300035
0.331549
0.290353
0.704355
0.703779
0.449916
0.581963
0.459629
0.700846
0.382794
0.361281
0.536378
0.344798
0.70363
0.338384
0.384312
0.471308
0.706602
0.706924
0.532846
0.409873
0.305132
0.533547
0.706602
0.708085
0.530653
0.68998
0.687898
0.339906
0.684728
0.548926
0.650431
0.362466
0.379398
0.678503
0.698293
0.645255
0.702266
0.704779
0.706822
0.690795
0.648286
0.705464
0.342777
0.706647
0.345649
0.289192
0.342177
0.703472
0.70577
0.338739
0.705786
0.59172
0.339003
0.7059
0.706188
0.693398
0.358868
0.362356
0.704216
0.359264
0.357971
0.309468
0.340299
0.701731
0.298854
0.70335
0.395342
0.688866
0.705878
0.703642
0.703498
0.359977
0.331171
0.705361
0.70731
0.666073
0.704294
0.701229
0.459562
0.329986
0.347173
0.700213
0.529989
0.342719
0.442984
0.329488
0.707721
0.701018
0.361706
0.375462
0.705908
0.422737
0.705991
0.634675
0.348472
0.383717
0.664593
0.709855
0.341738
0.706626
0.707347
0.705475
0.365516
0.708506
0.348601
0.709719
0.649297
0.36411
0.391325
0.367586
0.709911
0.352242
0.330059
0.403868
0.7049
0.695922
0.331532
0.32122
0.345977
0.705026
0.381515
0.699606
0.321182
0.567226
0.702416
0.423097
0.339171
0.337001
0.460133
0.348308
0.70662
0.346697
0.359868
0.697791
0.307295
0.699177
0.696172
0.709884
0.34589
0.704079
0.696745
0.698791
0.70075
0.7083
0.702961
0.320638
0.709527
0.4067
0.701775
0.331493
0.707067
0.511612
0.334935
0.710622
0.699495
0.359458
0.641256
0.324626
0.348167
0.700628
0.705485
0.327553
0.320174
0.333778
0.31908
0.707973
0.692279
0.363552
0.329899
0.701545
0.705052
0.569753
0.696654
0.700034
0.339912
0.699651
0.417523
0.705885
0.409054
0.591811
0.451941
0.700916
0.667996
0.550751
0.37668
0.354693
0.702914
0.575668
0.569077
0.696227
0.280214
0.685665
0.700322
0.362814
0.479858
0.697598
0.405443
0.710505
0.653091
0.345096
0.70484
0.645729
0.383031
0.693686
0.336141
0.705365
0.3647
0.699892
0.689252
0.352393
0.703094
0.695586
0.703265
0.593791
0.689774
0.553063
0.373148
0.44503
0.319603
0.338623
0.707532
0.525211
0.704842
0.700893
0.339642
0.389983
0.693313
0.70241
0.703293
0.705918
0.333014
0.683371
0.701637
0.329137
0.311071
0.705502
0.706334
0.705592
0.315325
0.557664
0.37655
0.692075
0.69738
0.7091
0.696265
0.341735
0.697857
0.706706
0.69534
0.706053
0.702105
0.402554
0.696603
0.342172
0.674144
0.701742
0.438566
0.682888
0.708079
0.705895
0.45005
0.426381
0.555328
0.637078
0.358623
0.364448
0.347859
0.340827
0.688376
0.685177
0.708869
0.35933
0.340098
0.70476
0.666709
0.305453
0.389364
0.444617
0.670782
0.701989
0.706673
0.687584
0.342172
0.358841
0.709002
0.322744
0.337083
0.351556
0.70009
0.374049
0.359894
0.576153
0.703895
0.700952
0.699504
0.700004
0.327551
0.321746
0.345639
0.519836
0.425684
0.32352
0.665558
0.68561
0.702865
0.703979
0.317668
0.350059
0.702116
0.349298
0.701674
0.68982
0.710888
0.32775
0.356147
0.704245
0.711701
0.60158
0.301919
0.706144
0.698671
0.573497
0.706135
0.706316
0.709444
0.688945
0.333433
0.699557
0.711231
0.654378
0.691385
0.707481
0.702344
0.708678
0.705596
0.35796
0.362982
0.350813
0.710622
0.513431
0.350915
0.69392
0.700986
0.316978
0.644739
0.380268
0.652842
0.507439
0.334016
0.702833
0.691282
0.344457
0.518096
0.711201
0.345121
0.707481
0.332472
0.305171
0.617761
0.592682
0.469652
0.704492
0.349918
0.69535
0.365435
0.316465
0.699077
0.341794
0.603398
0.328966
0.646105
0.591735
0.708761
0.707046
0.295001
0.361177
0.667077
0.473457
0.702901
0.471566
0.595581
0.696791
0.694922
0.480395
0.585325
0.701515
0.699136
0.70309
0.354555
0.363403
0.512409
0.701933
0.698911
0.404147
0.703805
0.602377
0.428591
0.327698
0.649663
0.670323
0.708334
0.709934
0.674559
0.682707
0.702032
0.673516
0.327155
0.642375
0.443721
0.705335
0.706348
0.348103
0.7087
0.7034
0.371344
0.308899
0.332012
0.707531
0.338743
0.615555
0.694978
0.6424
0.336925
0.704467
0.334224
0.558406
0.704681
0.710535
0.664042
0.705406
0.604934
0.678604
0.533237
0.701666
0.363127
0.70057
0.703604
0.460576
0.70895
0.68776
0.337954
0.28527
0.346768
0.705935
0.364672
0.709518
0.343231
0.706866
0.299971
0.451905
0.32486
0.694645
0.705749
0.574355
0.281175
0.606843
0.703773
0.339283
0.570406
0.703655
0.322676
0.582754
0.711717
0.702447
0.702115
0.343171
0.50064
0.702845
0.706151
0.674064
0.361013
0.421837
0.706287
0.708422
0.709935
0.708094
0.56805
0.699079
0.563112
0.704843
0.360767
0.335651
0.70819
0.702467
0.702886
0.33444
0.700963
0.580164
0.615244
0.371647
0.401164
0.705026
0.705389
0.541478
0.408346
0.704713
0.709175
0.338311
0.594211
0.687358
0.341533
0.321531
0.285282
0.697281
0.379282
0.343247
0.706665
0.476848
0.699554
0.648672
0.337888
0.329056
0.704641
0.369007
0.35042
0.711655
0.300298
0.384911
0.585867
0.708291
0.703025
0.340293
0.390353
0.344236
0.696154
0.307736
0.703523
0.333162
0.695592
0.707356
0.706631
0.693626
0.695324
0.69685
0.701406
0.703493
0.7047
0.297701
0.343393
0.690663
0.701812
0.472442
0.697704
0.549964
0.702898
0.654038
0.375358
0.703307
0.703381
0.702812
0.350109
0.697609
0.38703
0.706248
0.461398
0.686292
0.701348
0.334579
0.701171
0.344161
0.45892
0.688802
0.353938
0.667943
0.707546
0.707667
0.342576
0.700387
0.341879
0.326843
0.330436
0.347935
0.656459
0.320468
0.657636
0.707437
0.408728
0.335087
0.454809
0.554132
0.628557
0.67986
0.345764
0.331065
0.343561
0.324942
0.28217
0.631912
0.703781
0.362453
0.707091
0.694931
0.287877
0.702951
0.665249
0.705919
0.34747
0.71021
0.688777
0.697702
0.705791
0.333726
0.702612
0.699591
0.698
0.648298
0.699681
0.361509
0.331292
0.706652
0.508531
0.35998
0.698558
0.332444
0.540733
0.635025
0.70489
0.705542
0.325567
0.697096
0.417711
0.350575
0.677648
0.702896
0.699485
0.705807
0.661942
0.327287
0.70296
0.318061
0.47128
0.704093
0.711551
0.702922
0.348282
0.329296
0.701767
0.335012
0.704307
0.627361
0.425409
0.374591
0.70389
0.32923
0.701507
0.704066
0.666097
0.329541
0.364812
0.493581
0.52934
0.622053
0.47165
0.697491
0.681352
0.706712
0.707321
0.695108
0.316884
0.375778
0.704623
0.700317
0.670511
0.436632
0.336845
0.682578
0.31873
0.700548
0.589203
0.405221
0.701879
0.336911
0.707804
0.374882
0.700935
0.315205
0.705171
0.701106
0.317972
0.707602
0.637096
0.320225
0.709825
0.705754
0.55076
0.316538
0.399143
0.468422
0.697259
0.675328
0.395055
0.553593
0.696186
0.698243
0.336408
0.625291
0.699365
0.42068
0.697918
0.697688
0.336354
0.705837
0.711095
0.36987
0.601978
0.337228
0.654862
0.348069
0.30084
0.697933
0.347145
0.346922
0.293197
0.701366
0.695706
0.425808
0.705072
0.395698
0.678394
0.342712
0.695933
0.407597
0.696753
0.706657
0.662456
0.710124
0.520926
0.701597
0.706925
0.364557
0.617596
0.662779
0.537477
0.695
0.460736
0.437004
0.702889
0.334635
0.554427
0.382744
0.704202
0.304088
0.334231
0.690957
0.70028
0.32993
0.704892
0.684743
0.707511
0.706035
0.709687
0.33431
0.702587
0.333709
0.339565
0.707208
0.689176
0.706544
0.706307
0.323537
0.350671
0.344088
0.691999
0.708299
0.396501
0.708425
0.331822
0.347612
0.369408
0.706785
0.407792
0.703048
0.70435
0.615211
0.705845
0.704734
0.579653
0.664147
0.413901
0.320316
0.330429
0.709679
0.709679
0.333861
0.632447
0.696565
0.662173
0.342939
0.451811
0.6826
0.311066
0.678548
0.644968
0.336015
0.704212
0.68943
0.353133
0.703044
0.344772
0.704532
0.699771
0.696144
0.310891
0.435888
0.667319
0.334598
0.408134
0.705589
0.351614
0.703262
0.703
0.705449
0.684509
0.41217
0.710258
0.677169
0.706066
0.370356
0.705795
0.365684
0.316085
0.705127
0.701796
0.708914
0.253424
0.701181
0.614389
0.711074
0.331607
0.325128
0.358993
0.70545
0.340584
0.315276
0.381266
0.644109
0.336773
0.350092
0.41645
0.704031
0.343581
0.710154
0.70607
0.70519
0.343959
0.706487
0.644756
0.708095
0.403508
0.646963
0.346676
0.335421
0.699879
0.329462
0.635599
0.693872
0.708635
0.341122
0.346678
0.359087
0.53065
0.708122
0.251078
0.705395
0.701146
0.686549
0.342638
0.313281
0.356218
0.680216
0.348568
0.707327
0.580841
0.705061
0.706407
0.334575
0.641035
0.321811
0.648039
0.629069
0.702287
0.631013
0.540352
0.650042
0.672475
0.70463
0.336359
0.419959
0.340314
0.685532
0.533602
0.711497
0.340629
0.4076
0.695373
0.706414
0.710768
0.330226
0.705401
0.529375
0.534194
0.676554
0.347932
0.330577
0.336575
0.701772
0.706953
0.646839
0.700224
0.355926
0.707824
0.641899
0.706375
0.708723
0.707526
0.703297
0.698364
0.690247
0.698677
0.343944
0.706332
0.705805
0.698517
0.70621
0.702402
0.615047
0.337862
0.311658
0.659499
0.358723
0.41093
0.705821
0.348883
0.615452
0.70439
0.690832
0.703352
0.340508
0.70594
0.330333
0.332953
0.697926
0.699807
0.703991
0.345527
0.705482
0.704623
0.6664
0.700923
0.372197
0.699065
0.701851
0.687095
0.426028
0.690586
0.343556
0.704305
0.360542
0.339547
0.580236
0.438381
0.702773
0.693768
0.701756
0.380257
0.699248
0.4282
0.341038
0.7054
0.454654
0.357055
0.703218
0.304211
0.48092
0.661216
0.686453
0.704331
0.456838
0.567884
0.649893
0.700594
0.615642
0.699827
0.508791
0.708164
0.699673
0.641888
0.316404
0.336271
0.435104
0.705855
0.338712
0.652728
0.705161
0.602462
0.7007
0.561185
0.669833
0.674862
0.347609
0.704698
0.695325
0.546648
0.695225
0.702368
0.706692
0.700646
0.34253
0.357755
0.701307
0.537764
0.568486
0.705067
0.706049
0.705173
0.698268
0.699668
0.620368
0.681788
0.701809
0.314774
0.307762
0.30657
0.397084
0.709523
0.455492
0.560749
0.70199
0.678846
0.34175
0.703262
0.703545
0.3456
0.388081
0.709831
0.706058
0.34904
0.314371
0.311121
0.707251
0.70609
0.430005
0.318724
0.334442
0.291996
0.400035
0.361825
0.707769
0.706642
0.690912
0.339433
0.691586
0.617474
0.584469
0.378969
0.330051
0.70532
0.707978
0.356256
0.69713
0.351741
0.691492
0.344145
0.705466
0.332017
0.703052
0.704972
0.344093
0.535519
0.359814
0.702753
0.304002
0.622908
0.331628
0.507146
0.347488
0.617713
0.339112
0.710887
0.708594
0.583807
0.694758
0.382267
0.696713
0.703434
0.705259
0.614496
0.678542
0.330409
0.449144
0.336379
0.696447
0.312072
0.703324
0.52638
0.688535
0.702582
0.501214
0.697153
0.342811
0.331629
0.317479
0.50604
0.585262
0.705642
0.344819
0.362759
0.698224
0.372877
0.328278
0.607155
0.391744
0.358159
0.311557
0.706468
0.635076
0.626052
0.33867
0.695048
0.702023
0.318889
0.338377
0.706632
0.698966
0.64607
0.4858
0.392395
0.369259
0.353902
0.707843
0.661534
0.530284
0.675942
0.295109
0.5737
0.336725
0.710121
0.704016
0.331865
0.331331
0.665232
0.603523
0.703916
0.699051
0.698334
0.70562
0.703717
0.358274
0.375358
0.341932
0.33365
0.57936
0.711441
0.636594
0.333638
0.341448
0.469882
0.321355
0.70541
0.685053
0.346958
0.364792
0.70404
0.343276
0.649994
0.696437
0.697289
0.6993
0.581396
0.357614
0.331103
0.680958
0.332771
0.450739
0.423693
0.701819
0.704148
0.335851
0.3371
0.708321
0.338862
0.700657
0.696472
0.347438
0.371963
0.298245
0.705127
0.324336
0.707502
0.690493
0.60661
0.315546
0.504391
0.704247
0.704972
0.33538
0.702543
0.658762
0.323721
0.705322
0.70715
0.347213
0.352313
0.704147
0.342356
0.332124
0.698527
0.349988
0.706635
0.669052
0.694873
0.657064
0.702349
0.702867
0.702138
0.342737
0.397144
0.671729
0.701333
0.435749
0.702844
0.375297
0.705486
0.704826
0.564152
0.643399
0.449051
0.445024
0.70374
0.702265
0.698948
0.705115
0.70315
0.709285
0.706308
0.707888
0.708246
0.705767
0.707463
0.70813
0.701077
0.318772
0.70576
0.362665
0.703718
0.706195
0.692576
0.695806
0.682679
0.369959
0.357768
0.341669
0.336068
0.695287
0.328377
0.349008
0.681634
0.315435
0.689585
0.352374
0.699645
0.70309
0.346516
0.376078
0.406834
0.705692
0.343693
0.705618
0.700687
0.360476
0.704934
0.53614
0.417273
0.356749
0.318229
0.6779
0.35406
0.704807
0.559259
0.364258
0.704413
0.703651
0.698018
0.352169
0.579224
0.329121
0.692172
0.699032
0.702605
0.363642
0.700583
0.705327
0.699517
0.418001
0.70575
0.356706
0.340692
0.706629
0.451482
0.701214
0.444099
0.361767
0.422353
0.699484
0.353558
0.319512
0.367811
0.509095
0.71106
0.702376
0.312944
0.612415
0.704424
0.530328
0.465141
0.401684
0.537695
0.362881
0.336399
0.706445
0.341448
0.351426
0.705962
0.704283
0.349226
0.686986
0.361151
0.709714
0.362544
0.706041
0.709262
0.68408
0.704451
0.369318
0.337637
0.330007
0.697412
0.705095
0.565668
0.532529
0.36956
0.32753
0.700734
0.342964
0.706658
0.378585
0.709693
0.667252
0.335108
0.357054
0.34104
0.337062
0.359366
0.666753
0.6945
0.33232
0.70645
0.636532
0.370524
0.320915
0.703639
0.35458
0.704449
0.407577
0.684994
0.648122
0.706538
0.710847
0.351694
0.699822
0.704312
0.706309
0.349713
0.674721
0.575068
0.408771
0.705775
0.662642
0.70854
0.696694
0.703543
0.706863
0.705977
0.698508
0.705685
0.342684
0.696382
0.340991
0.477005
0.705784
0.330038
0.704014
0.686384
0.357531
0.698709
0.349692
0.324576
0.707187
0.678179
0.704352
0.342646
0.697283
0.604609
0.364066
0.337078
0.707331
0.701487
0.386128
0.376387
0.693519
0.703883
0.358472
0.640179
0.704489
0.636318
0.336383
0.355407
0.326185
0.648432
0.320593
0.702436
0.684824
0.700815
0.622831
0.704385
0.342457
0.70598
0.594103
0.704963
0.630836
0.333516
0.3401
0.285653
0.692785
0.701976
0.404585
0.646481
0.392788
0.664022
0.703684
0.281121
0.656569
0.702874
0.623344
0.340209
0.327967
0.398686
0.704183
0.701308
0.602929
0.485498
0.706048
0.354441
0.627771
0.710481
0.700118
0.341876
0.603684
0.361306
0.69154
0.295534
0.704506
0.707319
0.337841
0.705102
0.471994
0.708077
0.647347
0.707275
0.705818
0.440516
0.700426
0.703833
0.703213
0.704895
0.447148
0.710402
0.294274
0.704339
0.282414
0.334415
0.295536
0.357358
0.361076
0.336895
0.704343
0.369762
0.323139
0.659469
0.70502
0.695525
0.429527
0.680544
0.674916
0.699929
0.309974
0.629721
0.70209
0.38898
0.37644
0.338869
0.626889
0.477553
0.345756
0.621901
0.318539
0.709923
0.471237
0.32353
0.448743
0.64316
0.402248
0.701077
0.296792
0.529872
0.385833
0.707657
0.398962
0.660946
0.710689
0.692428
0.463589
0.337785
0.708029
0.703624
0.380458
0.326715
0.697295
0.334274
0.689979
0.340737
0.536325
0.291653
0.702524
0.375999
0.704117
0.333523
0.70378
0.705378
0.702894
0.709117
0.293461
0.336215
0.428695
0.70669
0.680853
0.699149
0.589782
0.365582
0.696365
0.403444
0.704504
0.669907
0.438561
0.371418
0.696546
0.705184
0.330374
0.711985
0.708282
0.698173
0.695035
0.301818
0.629312
0.345675
0.699166
0.316297
0.707227
0.704442
0.708428
0.704583
0.367161
0.704563
0.346068
0.350074
0.700255
0.709359
0.54828
0.702654
0.709692
0.353471
0.689527
0.707635
0.706262
0.327382
0.429845
0.675088
0.328726
0.705778
0.705579
0.704559
0.707413
0.304298
0.464504
0.638259
0.33731
0.705364
0.70309
0.483159
0.707183
0.288293
0.680604
0.68998
0.664053
0.707528
0.327302
0.335931
0.705453
0.701985
0.357823
0.385415
0.375534
0.339906
0.317591
0.320128
0.373186
0.359346
0.704786
0.283322
0.338321
0.692793
0.548594
0.70844
0.404629
0.33911
0.704788
0.471918
0.519542
0.700665
0.391576
0.645036
0.708358
0.589254
0.695474
0.345582
0.702784
0.7049
0.361363
0.340172
0.438813
0.685307
0.590221
0.703213
0.696657
0.700251
0.695929
0.422302
0.704694
0.703388
0.707819
0.340916
0.703331
0.652217
0.420921
0.427114
0.301043
0.325621
0.294918
0.588588
0.662268
0.690813
0.336969
0.379533
0.704784
0.317263
0.698981
0.704234
0.704241
0.663915
0.706425
0.387608
0.327597
0.315875
0.579787
0.31153
0.706295
0.313444
0.69979
0.697588
0.706376
0.393913
0.460847
0.435181
0.70512
0.373253
0.338707
0.706123
0.696032
0.64556
0.696565
0.707325
0.689684
0.362259
0.603213
0.701193
0.502562
0.704863
0.698507
0.692894
0.421735
0.40446
0.706259
0.467561
0.628205
0.3463
0.685853
0.705608
0.426997
0.324348
0.690007
0.50059
0.701769
0.698425
0.355562
0.329763
0.711077
0.452489
0.432682
0.706472
0.707285
0.357523
0.706344
0.710337
0.695364
0.363051
0.588299
0.359576
0.706703
0.704154
0.690096
0.688265
0.709911
0.356454
0.395194
0.694889
0.341028
0.585097
0.361053
0.706451
0.31781
0.648225
0.70077
0.710065
0.363749
0.707452
0.710698
0.336247
0.684677
0.317377
0.706259
0.36002
0.332461
0.308927
0.685819
0.706442
0.34261
0.346166
0.705035