# vtk DataFile Version 1.0
unstructured grid
ascii
DATASET UNSTRUCTURED_GRID
points 13672 float
0.0796578 -0.059106 0
0.00128732 0.00159165 0
0.00227961 -0.00102548 0
0.0791586 -0.0598787 0
-0.0546216 0.01 0
0.000495206 0.025 0
0.0800549 -0.035 0
0.135172 -0.08 0
-0.0546216 -0.0451168 0
0.000495206 -0.0301168 0
0.0800549 -0.0901168 0
0.135172 -0.135117 0
-0.0546216 -0.0451168 -0.00551168
0.000495206 -0.0301168 -0.00551168
0.0800549 -0.0901168 -0.00551168
0.135172 -0.135117 -0.00551168
0.135172 -0.08 -0.00551168
0.0800549 -0.035 -0.00551168
0.000495206 0.025 -0.00551168
-0.0546216 0.01 -0.00551168
0.00128732 0.00159165 -0.00551168
0.00227961 -0.00102548 -0.00551168
0.0791586 -0.0598787 -0.00551168
0.0796578 -0.059106 -0.00551168
0.00165953 -0.000990923 0
0.00119576 -0.000874076 0
0.000866021 -0.000641801 0
0.000645147 -0.000349912 0
0.00052235 -1.7281e-05 0
0.00049972 0.000348016 0
0.000601632 0.000737716 0
0.000861774 0.0011403 0
0.00157235 0.00183217 0
0.00188647 0.00206725 0
0.00222612 0.00230203 0
0.00258713 0.00254351 0
0.00296826 0.00279524 0
0.00337118 0.00305664 0
0.00379785 0.00332658 0
0.00425045 0.00360349 0
0.00473139 0.00388521 0
0.0052432 0.00416895 0
0.0057881 0.00445204 0
0.00636753 0.00473281 0
0.00698281 0.00500961 0
0.00763526 0.00528058 0
0.00832616 0.00554366 0
0.00905691 0.00579603 0
0.00982918 0.00603333 0
0.0106445 0.00625033 0
0.0115038 0.00644128 0
0.0124073 0.00660297 0
0.0133543 0.00673414 0
0.0143444 0.00683382 0
0.0153769 0.00690031 0
0.0164512 0.00693173 0
0.0175666 0.00692547 0
0.0187219 0.00687822 0
0.0199156 0.00678477 0
0.0211454 0.00663864 0
0.0224084 0.00643275 0
0.0237018 0.00616676 0
0.0250249 0.00584739 0
0.026375 0.00547298 0
0.0277479 0.00503752 0
0.0291386 0.00453545 0
0.0305433 0.0039653 0
0.0319572 0.0033256 0
0.0333681 0.00260019 0
0.034775 0.00179799 0
0.0361793 0.000930615 0
0.0375798 3.12222e-06 0
0.0389689 -0.000988429 0
0.0403357 -0.00205109 0
0.041675 -0.00318283 0
0.0429849 -0.00437751 0
0.0442643 -0.00562904 0
0.0455126 -0.00693089 0
0.0467314 -0.00827518 0
0.0479204 -0.00965638 0
0.0490661 -0.0110799 0
0.0501515 -0.0125519 0
0.0511696 -0.0140695 0
0.0521492 -0.0156071 0
0.0531202 -0.0171411 0
0.0540851 -0.0186663 0
0.0550431 -0.0201798 0
0.0559923 -0.0216793 0
0.0569311 -0.0231626 0
0.0578582 -0.0246273 0
0.0587723 -0.0260715 0
0.0596721 -0.027493 0
0.0605563 -0.02889 0
0.0614241 -0.0302609 0
0.0622742 -0.0316042 0
0.063106 -0.0329183 0
0.0639186 -0.034202 0
0.0647113 -0.0354543 0
0.0654835 -0.0366743 0
0.0662345 -0.0378613 0
0.0669642 -0.0390145 0
0.0676726 -0.0401333 0
0.0683597 -0.0412172 0
0.0690246 -0.0422665 0
0.0696662 -0.0432819 0
0.0702841 -0.0442636 0
0.0708793 -0.0452111 0
0.0714538 -0.0461237 0
0.072009 -0.047001 0
0.0725452 -0.0478434 0
0.0730611 -0.0486524 0
0.073556 -0.0494294 0
0.0740291 -0.0501756 0
0.0744812 -0.0508916 0
0.0749138 -0.0515773 0
0.0753285 -0.0522331 0
0.0757266 -0.0528592 0
0.076109 -0.0534564 0
0.0764753 -0.0540264 0
0.0768243 -0.054571 0
0.0771553 -0.0550919 0
0.0774679 -0.0555901 0
0.0777617 -0.0560669 0
0.0780369 -0.056523 0
0.0782958 -0.0569578 0
0.0785421 -0.0573703 0
0.0787786 -0.0577603 0
0.0790073 -0.0581279 0
0.0792295 -0.058474 0
0.0794462 -0.0587995 0
0.0798803 -0.0594162 0
0.0800272 -0.0596588 0
0.0800357 -0.0598891 0
0.0799275 -0.0600784 0
0.0797205 -0.0601773 0
0.0794593 -0.0601051 0
0.0789155 -0.0596491 0
0.0786707 -0.0593963 0
0.0784111 -0.0591319 0
0.0781372 -0.0588542 0
0.0778566 -0.0585548 0
0.0775715 -0.0582308 0
0.0772803 -0.0578828 0
0.0769832 -0.0575099 0
0.0766822 -0.0571097 0
0.0763801 -0.0566796 0
0.0760759 -0.0562196 0
0.0757623 -0.0557337 0
0.0754359 -0.0552232 0
0.0750951 -0.0546879 0
0.0747379 -0.054128 0
0.0743626 -0.0535435 0
0.0739688 -0.0529338 0
0.0735559 -0.0522981 0
0.0731238 -0.0516357 0
0.0726718 -0.050946 0
0.0721991 -0.0502288 0
0.0717046 -0.049484 0
0.0711872 -0.0487117 0
0.0706461 -0.047912 0
0.0700804 -0.0470849 0
0.0694892 -0.0462308 0
0.0688718 -0.0453499 0
0.0682271 -0.0444431 0
0.0675544 -0.043511 0
0.0668527 -0.0425546 0
0.0661215 -0.0415748 0
0.06536 -0.040573 0
0.0645676 -0.0395504 0
0.0637439 -0.0385087 0
0.0628887 -0.0374493 0
0.062002 -0.0363741 0
0.0610838 -0.0352847 0
0.0601345 -0.0341831 0
0.0591547 -0.033071 0
0.0581456 -0.0319502 0
0.0571083 -0.0308224 0
0.0560444 -0.0296893 0
0.0549562 -0.028552 0
0.053845 -0.0274126 0
0.0527113 -0.0262746 0
0.051554 -0.0251427 0
0.0503724 -0.0240222 0
0.0491675 -0.0229164 0
0.047941 -0.0218282 0
0.0466955 -0.0207597 0
0.0454337 -0.0197126 0
0.0441592 -0.0186878 0
0.0428751 -0.0176863 0
0.0415841 -0.0167097 0
0.0402878 -0.0157609 0
0.0389879 -0.0148428 0
0.0376864 -0.0139575 0
0.0363853 -0.013107 0
0.0350871 -0.0122931 0
0.0337942 -0.0115164 0
0.0325095 -0.0107772 0
0.0312357 -0.0100756 0
0.0299758 -0.00941024 0
0.0287337 -0.00877784 0
0.0275126 -0.00817571 0
0.0263139 -0.00760375 0
0.0251376 -0.00706528 0
0.0239829 -0.0065649 0
0.0228537 -0.00609619 0
0.0217522 -0.00565563 0
0.0206795 -0.00524226 0
0.0196364 -0.00485507 0
0.0186233 -0.00449318 0
0.0176408 -0.00415577 0
0.016689 -0.00384204 0
0.0157682 -0.00355115 0
0.0148783 -0.00328218 0
0.0140192 -0.00303468 0
0.0131906 -0.00280795 0
0.0123925 -0.00260016 0
0.0116246 -0.00241012 0
0.0108864 -0.00223769 0
0.0101774 -0.00208212 0
0.00949701 -0.00194206 0
0.00884483 -0.0018163 0
0.0082202 -0.0017039 0
0.00762247 -0.00160391 0
0.00705097 -0.00151528 0
0.006505 -0.00143697 0
0.0059838 -0.00136806 0
0.00548662 -0.00130772 0
0.00501265 -0.00125519 0
0.00456114 -0.00120954 0
0.00413136 -0.00116914 0
0.00372257 -0.00113251 0
0.00333398 -0.00109853 0
0.00296466 -0.00106798 0
0.00261363 -0.0010431 0
-0.052721 -0.0445996 0
-0.0508204 -0.0440823 0
-0.0489199 -0.0435651 0
-0.0470193 -0.0430478 0
-0.0451187 -0.0425306 0
-0.0432181 -0.0420134 0
-0.0413175 -0.0414961 0
-0.039417 -0.0409789 0
-0.0375164 -0.0404616 0
-0.0356158 -0.0399444 0
-0.0337152 -0.0394271 0
-0.0318146 -0.0389099 0
-0.0299141 -0.0383927 0
-0.0280135 -0.0378754 0
-0.0261129 -0.0373582 0
-0.0242123 -0.0368409 0
-0.0223117 -0.0363237 0
-0.0204112 -0.0358065 0
-0.0185106 -0.0352892 0
-0.01661 -0.034772 0
-0.0147094 -0.0342547 0
-0.0128088 -0.0337375 0
-0.0109083 -0.0332202 0
-0.00900769 -0.032703 0
-0.00710711 -0.0321858 0
-0.00520653 -0.0316685 0
-0.00330595 -0.0311513 0
-0.00140537 -0.030634 0
0.00190689 -0.0299614 0
0.00332271 -0.0298498 0
0.00474133 -0.0297825 0
0.00616136 -0.0297597 0
0.0075814 -0.0297814 0
0.00900007 -0.0298477 0
0.010416 -0.0299583 0
0.0118278 -0.0301127 0
0.0132342 -0.0303103 0
0.0146339 -0.0305504 0
0.0160259 -0.0308322 0
0.0174091 -0.0311546 0
0.0187824 -0.0315166 0
0.020145 -0.031917 0
0.0214961 -0.0323546 0
0.0228351 -0.032828 0
0.0241613 -0.0333361 0
0.0254744 -0.0338774 0
0.0267738 -0.0344507 0
0.0280592 -0.0350545 0
0.0293306 -0.0356877 0
0.0305875 -0.0363488 0
0.0318301 -0.0370367 0
0.0330581 -0.0377501 0
0.0342717 -0.0384879 0
0.0354708 -0.0392489 0
0.0366556 -0.0400321 0
0.0378262 -0.0408363 0
0.0389828 -0.0416607 0
0.0401254 -0.0425042 0
0.0412543 -0.0433659 0
0.0423698 -0.0442451 0
0.043472 -0.0451408 0
0.0445612 -0.0460523 0
0.0456375 -0.0469789 0
0.0467013 -0.0479199 0
0.0477529 -0.0488746 0
0.0487923 -0.0498424 0
0.04982 -0.0508227 0
0.0508362 -0.051815 0
0.051841 -0.0528187 0
0.0528348 -0.0538333 0
0.0538178 -0.0548584 0
0.0547903 -0.0558935 0
0.0557524 -0.0569382 0
0.0567045 -0.0579922 0
0.0576467 -0.0590549 0
0.0585792 -0.0601261 0
0.0595024 -0.0612055 0
0.0604163 -0.0622926 0
0.0613212 -0.0633873 0
0.0622174 -0.0644891 0
0.0631049 -0.0655979 0
0.0639841 -0.0667134 0
0.064855 -0.0678353 0
0.0657179 -0.0689633 0
0.0665729 -0.0700974 0
0.0674202 -0.0712372 0
0.06826 -0.0723826 0
0.0690925 -0.0735333 0
0.0699178 -0.0746892 0
0.070736 -0.0758501 0
0.0715473 -0.0770159 0
0.0723518 -0.0781863 0
0.0731498 -0.0793612 0
0.0739412 -0.0805405 0
0.0747264 -0.081724 0
0.0755053 -0.0829116 0
0.0762781 -0.0841033 0
0.0770449 -0.0852987 0
0.0778059 -0.0864979 0
0.0785611 -0.0877007 0
0.0793108 -0.088907 0
0.0814681 -0.0912706 0
0.0828814 -0.0924245 0
0.0842946 -0.0935783 0
0.0857079 -0.0947322 0
0.0871211 -0.095886 0
0.0885344 -0.0970399 0
0.0899476 -0.0981937 0
0.0913609 -0.0993476 0
0.0927741 -0.100501 0
0.0941874 -0.101655 0
0.0956006 -0.102809 0
0.0970139 -0.103963 0
0.0984272 -0.105117 0
0.0998404 -0.106271 0
0.101254 -0.107424 0
0.102667 -0.108578 0
0.10408 -0.109732 0
0.105493 -0.110886 0
0.106907 -0.11204 0
0.10832 -0.113194 0
0.109733 -0.114348 0
0.111146 -0.115501 0
0.11256 -0.116655 0
0.113973 -0.117809 0
0.115386 -0.118963 0
0.116799 -0.120117 0
0.118213 -0.121271 0
0.119626 -0.122424 0
0.121039 -0.123578 0
0.122452 -0.124732 0
0.123866 -0.125886 0
0.125279 -0.12704 0
0.126692 -0.128194 0
0.128105 -0.129348 0
0.129519 -0.130501 0
0.130932 -0.131655 0
0.132345 -0.132809 0
0.133758 -0.133963 0
0.135172 -0.133216 0
0.135172 -0.131316 0
0.135172 -0.129415 0
0.135172 -0.127514 0
0.135172 -0.125614 0
0.135172 -0.123713 0
0.135172 -0.121813 0
0.135172 -0.119912 0
0.135172 -0.118012 0
0.135172 -0.116111 0
0.135172 -0.11421 0
0.135172 -0.11231 0
0.135172 -0.110409 0
0.135172 -0.108509 0
0.135172 -0.106608 0
0.135172 -0.104708 0
0.135172 -0.102807 0
0.135172 -0.100906 0
0.135172 -0.0990058 0
0.135172 -0.0971052 0
0.135172 -0.0952046 0
0.135172 -0.0933041 0
0.135172 -0.0914035 0
0.135172 -0.0895029 0
0.135172 -0.0876023 0
0.135172 -0.0857017 0
0.135172 -0.0838012 0
0.135172 -0.0819006 0
0.133758 -0.0788462 0
0.132345 -0.0776923 0
0.130932 -0.0765385 0
0.129519 -0.0753846 0
0.128105 -0.0742308 0
0.126692 -0.0730769 0
0.125279 -0.0719231 0
0.123866 -0.0707692 0
0.122452 -0.0696154 0
0.121039 -0.0684615 0
0.119626 -0.0673077 0
0.118213 -0.0661538 0
0.116799 -0.065 0
0.115386 -0.0638462 0
0.113973 -0.0626923 0
0.11256 -0.0615385 0
0.111146 -0.0603846 0
0.109733 -0.0592308 0
0.10832 -0.0580769 0
0.106907 -0.0569231 0
0.105493 -0.0557692 0
0.10408 -0.0546154 0
0.102667 -0.0534615 0
0.101254 -0.0523077 0
0.0998404 -0.0511538 0
0.0984272 -0.05 0
0.0970139 -0.0488462 0
0.0956006 -0.0476923 0
[...]
CELL_DATA 13116
SCALARS rho float
LOOKUP_TABLE default
0.493836
0.623748
0.394538
0.659428
0.660299
0.657008
0.36257
0.674943
0.470327
0.661271
0.363905
0.388253
0.660697
0.369739
0.370821
0.656954
0.463395
0.642603
0.652482
0.36021
0.498053
0.415901
0.373701
0.646846
0.55065
0.633839
0.660815
0.390543
0.548598
0.588747
0.659182
0.378599
0.498116
0.396046
0.372438
0.496413
0.610998
0.646835
0.657612
0.659624
0.654459
0.674783
0.373514
0.386751
0.651569
0.652228
0.605779
0.65408
0.368561
0.466604
0.666587
0.389457
0.368892
0.45573
0.496812
0.527322
0.385437
0.646672
0.47963
0.366054
0.369247
0.662877
0.615881
0.657744
0.659041
0.36965
0.657247
0.616607
0.65701
0.658802
0.377039
0.528128
0.414665
0.375813
0.660111
0.38775
0.594787
0.659473
0.357709
0.639992
0.627752
0.631776
0.650458
0.652798
0.645773
0.402934
0.364744
0.612605
0.647878
0.372784
0.390401
0.625933
0.650573
0.657373
0.592751
0.540969
0.553214
0.65971
0.659722
0.539741
0.623412
0.5458
0.653995
0.349091
0.592275
0.380074
0.32106
0.417842
0.385631
0.55897
0.44626
0.617414
0.538968
0.630018
0.640909
0.657777
0.367829
0.34424
0.657791
0.659294
0.616918
0.413991
0.657278
0.390752
0.655858
0.388708
0.366159
0.454295
0.384171
0.468201
0.658104
0.64721
0.449021
0.381486
0.430676
0.53053
0.662347
0.659322
0.622383
0.659192
0.577513
0.609493
0.452602
0.578984
0.604715
0.371065
0.380102
0.623643
0.657703
0.66689
0.487548
0.652476
0.654169
0.390309
0.659341
0.647564
0.376577
0.629571
0.659632
0.612961
0.647186
0.357996
0.650674
0.37848
0.41197
0.66394
0.651354
0.641853
0.368968
0.415843
0.376633
0.662225
0.370694
0.438054
0.657058
0.372529
0.401019
0.415008
0.612624
0.65654
0.376804
0.384118
0.466627
0.611197
0.656475
0.477263
0.37506
0.655013
0.58256
0.410037
0.583743
0.620889
0.658519
0.375088
0.609852
0.656774
0.657236
0.654508
0.646064
0.354961
0.348201
0.564203
0.449047
0.373227
0.65409
0.648698
0.39797
0.551092
0.3744
0.387729
0.384442
0.656511
0.378784
0.35941
0.381766
0.389261
0.325074
0.657256
0.65343
0.392263
0.383715
0.657029
0.439936
0.377377
0.499344
0.66236
0.601787
0.392133
0.657284
0.350929
0.685659
0.381331
0.658404
0.518184
0.659982
0.655258
0.658354
0.357331
0.381107
0.612811
0.660431
0.656734
0.661961
0.657961
0.673766
0.404814
0.662486
0.660559
0.659673
0.390126
0.37119
0.650533
0.657736
0.658629
0.654132
0.480217
0.630793
0.361883
0.377884
0.35062
0.374588
0.572558
0.656799
0.593848
0.361445
0.651792
0.370145
0.38762
0.594731
0.390802
0.631075
0.668531
0.66081
0.647132
0.35868
0.660895
0.633891
0.659674
0.659082
0.355297
0.360966
0.378902
0.525694
0.413591
0.378222
0.297348
0.32439
0.640165
0.369704
0.649972
0.662611
0.365922
0.365933
0.369249
0.403207
0.39605
0.611144
0.538776
0.606079
0.390302
0.655861
0.530783
0.383001
0.365764
0.65742
0.657904
0.654733
0.373937
0.656747
0.363236
0.646987
0.672819
0.665166
0.672236
0.379471
0.657048
0.370756
0.655989
0.657852
0.613541
0.350617
0.297035
0.661163
0.367074
0.624722
0.663038
0.319221
0.633134
0.649825
0.365639
0.651444
0.651914
0.373793
0.659715
0.402832
0.518911
0.676307
0.409251
0.629961
0.361828
0.64573
0.308187
0.657662
0.542946
0.656494
0.391396
0.319045
0.646987
0.392303
0.654538
0.591179
0.374987
0.662305
0.382113
0.408171
0.654429
0.49954
0.615581
0.362532
0.378392
0.662625
0.662252
0.378359
0.663784
0.367426
0.380407
0.658085
0.674614
0.402883
0.374742
0.658575
0.658981
0.656987
0.650972
0.650883
0.487554
0.399118
0.372607
0.374237
0.657073
0.374295
0.46467
0.323792
0.359227
0.313517
0.414245
0.128179
0.391261
0.646774
0.348288
0.652283
0.548266
0.653769
0.603843
0.662243
0.408328
0.359757
0.36149
0.401863
0.652921
0.53485
0.654087
0.548806
0.60604
0.562721
0.628852
0.569084
0.585794
0.650708
0.63935
0.657283
0.355553
0.404842
0.490008
0.414529
0.534916
0.525755
0.368851
0.657404
0.66071
0.382128
0.356807
0.348626
0.376257
0.574261
0.391137
0.375057
0.656662
0.371383
0.517736
0.358933
0.656547
0.632277
0.393939
0.38583
0.653757
0.404925
0.361489
0.375228
0.381479
0.385399
0.361623
0.357591
0.412572
0.387302
0.351232
0.542085
0.406192
0.647553
0.330786
0.385577
0.451903
0.370786
0.372501
0.370877
0.655857
0.392488
0.584437
0.420143
0.370787
0.553757
0.649424
0.402458
0.632593
0.564526
0.563238
0.362043
0.659891
0.346552
0.65029
0.659357
0.382015
0.367388
0.579642
0.399394
0.411134
0.546793
0.319908
0.628468
0.609238
0.369493
0.395831
0.37144
0.433687
0.364384
0.372437
0.373544
0.370823
0.664767
0.662548
0.409948
0.543017
0.429672
0.607067
0.312898
0.399621
0.474944
0.382233
0.650066
0.262391
0.332063
0.445042
0.650956
0.646835
0.505623
0.317402
0.366694
0.51487
0.674059
0.658495
0.511181
0.593698
0.57024
0.347781
0.630748
0.513671
0.611608
0.281682
0.396794
0.628588
0.655704
0.602593
0.662027
0.638468
0.639142
0.64615
0.61199
0.653806
0.382339
0.650837
0.304439
0.374951
0.35497
0.657394
0.649445
0.276635
0.645476
0.565568
0.350957
0.658039
0.657537
0.645467
0.390498
0.398813
0.657553
0.362437
0.357582
0.37831
0.347987
0.647273
0.373029
0.65563
0.406807
0.623831
0.665595
0.656586
0.661787
0.362268
0.368321
0.650008
0.685676
0.603595
0.664758
0.660211
0.447869
0.364512
0.383214
0.656062
0.472399
0.349481
0.404697
0.357126
0.667574
0.655321
0.282504
0.416414
0.645135
0.420225
0.646941
0.605131
0.383455
0.351593
0.599576
0.660643
0.380445
0.644195
0.651702
0.649737
0.39156
0.661898
0.382252
0.660116
0.61012
0.372967
0.324151
0.381047
0.659969
0.386499
0.361452
0.344778
0.657778
0.646605
0.360845
0.369583
0.352342
0.658019
0.414598
0.656706
0.371079
0.531987
0.662192
0.334192
0.377972
0.375374
0.448188
0.385512
0.640686
0.376595
0.399409
0.656804
0.368038
0.656498
0.619658
0.659921
0.366072
0.650838
0.653925
0.657447
0.655981
0.667273
0.657822
0.372989
0.658609
0.394298
0.645251
0.356028
0.673481
0.450544
0.365811
0.659101
0.655055
0.396561
0.570979
0.388561
0.380043
0.656554
0.655375
0.368194
0.371836
0.358903
0.371256
0.668489
0.64573
0.394109
0.371167
0.654242
0.659869
0.533835
0.65359
0.655531
0.358411
0.658573
0.382162
0.666337
0.344549
0.538378
0.433197
0.656777
0.617115
0.522039
0.305066
0.389994
0.654453
0.549151
0.461481
0.652814
0.373547
0.634512
0.658738
0.329495
0.402588
0.655112
0.317964
0.658876
0.613943
0.293118
0.660854
0.590751
0.402155
0.643815
0.378416
0.641606
0.390253
0.656469
0.614152
0.38971
0.657771
0.651609
0.657288
0.56681
0.636313
0.528769
0.38054
0.36595
0.320201
0.37365
0.662862
0.502315
0.658114
0.65721
0.376125
0.412142
0.641539
0.66146
0.653884
0.669223
0.352894
0.639157
0.66063
0.359224
0.333876
0.657635
0.650713
0.643838
0.361141
0.536706
0.391971
0.641791
0.619215
0.65835
0.634611
0.347911
0.642179
0.649329
0.652153
0.65499
0.65529
0.390785
0.65112
0.388021
0.582759
0.661279
0.415526
0.610262
0.658246
0.665485
0.350448
0.355031
0.529782
0.595357
0.360341
0.373661
0.390111
0.354863
0.624492
0.633679
0.65815
0.320794
0.354036
0.656874
0.628106
0.373426
0.408119
0.416422
0.612869
0.654727
0.650666
0.640707
0.387238
0.361099
0.661656
0.388364
0.360955
0.379381
0.655174
0.391461
0.365913
0.519777
0.647869
0.6113
0.65742
0.655249
0.366959
0.370929
0.388628
0.41952
0.392443
0.384377
0.615388
0.638858
0.637056
0.655129
0.362498
0.359328
0.661833
0.352574
0.655288
0.614296
0.659346
0.368296
0.379437
0.636006
0.659079
0.506812
0.373622
0.647158
0.657262
0.515461
0.66679
0.671115
0.661323
0.593043
0.353734
0.65533
0.658813
0.566501
0.641611
0.662887
0.618859
0.661324
0.658327
0.400001
0.393312
0.356758
0.659085
0.448837
0.3534
0.641909
0.654152
0.390102
0.578402
0.39404
0.585017
0.41227
0.366524
0.661986
0.644624
0.350199
0.498228
0.659005
0.379761
0.657005
0.368936
0.379402
0.558487
0.550716
0.451839
0.653841
0.390082
0.65139
0.39878
0.349457
0.65652
0.348744
0.545506
0.360486
0.57779
0.539744
0.661442
0.648471
0.371233
0.399442
0.566164
0.374732
0.653332
0.405499
0.533726
0.656887
0.651701
0.388774
0.556117
0.611448
0.657877
0.65769
0.311404
0.359787
0.488255
0.610933
0.655687
0.333576
0.65411
0.508498
0.360881
0.364513
0.615402
0.613034
0.66173
0.660078
0.550751
0.632439
0.657639
0.620037
0.371972
0.602753
0.414018
0.662147
0.650358
0.295936
0.6689
0.660548
0.398227
0.363716
0.3672
0.662841
0.357255
0.55826
0.647172
0.604307
0.369074
0.644316
0.371279
0.536034
0.658036
0.658269
0.613361
0.658007
0.561499
0.626203
0.467883
0.644885
0.389618
0.655447
0.656575
0.356105
0.660907
0.636492
0.381537
0.37229
0.381964
0.665185
0.368721
0.660951
0.387247
0.675136
0.367427
0.433733
0.372768
0.64931
0.667826
0.478466
0.251271
0.561401
0.657162
0.38676
0.532844
0.66168
0.381634
0.529751
0.659352
0.662232
0.655189
0.382141
0.415355
0.654502
0.652845
0.583891
0.374881
0.352496
0.648026
0.661981
0.66071
0.662207
0.49194
0.647488
0.486799
0.660286
0.372474
0.372486
0.662091
0.659775
0.657712
0.370736
0.655133
0.500205
0.54281
0.393192
0.376252
0.663818
0.671407
0.500718
0.405413
0.654422
0.660675
0.365939
0.55312
0.640327
0.367266
0.380373
0.370302
0.5859
0.416285
0.380348
0.650805
0.411742
0.658397
0.584506
0.364738
0.363287
0.665747
0.393295
0.393921
0.659039
0.377559
0.314019
0.533751
0.665767
0.650199
0.359112
0.395836
0.375731
0.621001
0.380005
0.651026
0.373483
0.643822
0.645104
0.650934
0.602909
0.639414
0.616916
0.654862
0.661662
0.653775
0.372373
0.389373
0.630584
0.657677
0.457768
0.59709
0.502095
0.657857
0.565077
0.394113
0.658429
0.662122
0.644641
0.392477
0.642504
0.402575
0.652483
0.450922
0.641358
0.655706
0.367876
0.652121
0.349221
0.378029
0.616413
0.379643
0.629187
0.662859
0.672268
0.378266
0.656514
0.363178
0.38357
0.35785
0.383754
0.558743
0.37103
0.580249
0.658026
0.406598
0.375303
0.441648
0.526292
0.574749
0.588916
0.368494
0.367141
0.376591
0.372641
0.253472
0.574628
0.624531
0.390618
0.657819
0.647126
0.370335
0.659649
0.627394
0.657933
0.39152
0.660215
0.634487
0.65216
0.663447
0.364806
0.650795
0.654992
0.643272
0.616376
0.656624
0.372456
0.363937
0.653001
0.486708
0.377524
0.656562
0.371723
0.518227
0.569307
0.639244
0.64272
0.383953
0.594403
0.352382
0.393047
0.634439
0.656591
0.656378
0.661542
0.603141
0.386185
0.661683
0.37174
0.456865
0.663886
0.659802
0.654219
0.391582
0.372082
0.661137
0.375609
0.65716
0.594745
0.384258
0.377405
0.65846
0.362776
0.655868
0.656509
0.602599
0.361996
0.393101
0.451201
0.461074
0.562782
0.420509
0.656541
0.589917
0.649778
0.663017
0.643929
0.365286
0.378407
0.659037
0.656554
0.579083
0.415867
0.372845
0.627634
0.370163
0.655431
0.561012
0.400246
0.652312
0.351008
0.655181
0.396007
0.658243
0.358946
0.650842
0.656737
0.33171
0.656873
0.594819
0.292329
0.65808
0.652753
0.500148
0.370513
0.325299
0.414553
0.65488
0.565961
0.411456
0.532118
0.646618
0.656917
0.363883
0.552632
0.636192
0.419898
0.656382
0.656162
0.278776
0.654552
0.659513
0.393812
0.540091
0.377333
0.583706
0.386804
0.379542
0.654978
0.384112
0.356861
0.370887
0.656908
0.626447
0.357152
0.6542
0.322102
0.616708
0.361757
0.629608
0.325134
0.656767
0.653337
0.593785
0.658114
0.501987
0.656709
0.657851
0.391325
0.5827
0.598535
0.429398
0.643601
0.446959
0.353736
0.661433
0.380948
0.516607
0.394046
0.654228
0.372247
0.374325
0.644634
0.655285
0.367608
0.660818
0.638746
0.662849
0.6696
0.66015
0.353018
0.657749
0.362894
0.378854
0.652159
0.642653
0.67504
0.647283
0.378
0.387351
0.375276
0.626658
0.657953
0.324146
0.671497
0.368139
0.38365
0.389965
0.649177
0.345204
0.662406
0.653812
0.581562
0.654908
0.653267
0.516185
0.589341
0.393973
0.355628
0.368223
0.660142
0.660331
0.370614
0.574254
0.582175
0.589926
0.382065
0.3482
0.594137
0.250884
0.585423
0.54482
0.359807
0.657003
0.626736
0.354211
0.649792
0.3902
0.658119
0.656079
0.640318
0.371023
0.42733
0.62755
0.272194
0.402317
0.653831
0.280393
0.65683
0.657519
0.628906
0.638373
0.396615
0.659286
0.633768
0.652898
0.329079
0.662195
0.409244
0.373784
0.64489
0.654679
0.657773
0.212938
0.655995
0.58231
0.66014
0.368
0.368945
0.362314
0.66146
0.364323
0.369229
0.401486
0.542782
0.382756
0.30741
0.402412
0.651311
0.353393
0.658069
0.657504
0.658406
0.376526
0.654753
0.599916
0.657918
0.377768
0.613882
0.382117
0.381729
0.656643
0.366732
0.570857
0.643872
0.661579
0.357253
0.297514
0.395793
0.509677
0.662051
0.211361
0.647348
0.65681
0.640428
0.382252
0.372024
0.311358
0.567662
0.352837
0.663091
0.55313
0.657337
0.648685
0.354441
0.572294
0.37455
0.51574
0.596773
0.66152
0.520044
0.422873
0.613593
0.583635
0.65978
0.380517
0.326346
0.374856
0.64047
0.478092
0.659759
0.357239
0.358382
0.649763
0.654308
0.658456
0.367017
0.65944
0.508087
0.51094
0.56934
0.384683
0.364438
0.275537
0.654941
0.658217
0.614629
0.603874
0.310188
0.674297
0.606774
0.658216
0.658012
0.67178
0.662208
0.657117
0.643072
0.655287
0.381626
0.656701
0.662201
0.656062
0.657147
0.654589
0.524832
0.353029
0.381062
0.57174
0.382667
0.399402
0.659352
0.388683
0.585569
0.65663
0.622865
0.645424
0.384654
0.661195
0.354899
0.370286
0.657083
0.647539
0.655187
0.375134
0.664071
0.653813
0.572221
0.654945
0.413979
0.656186
0.661369
0.625218
0.356481
0.645646
0.380535
0.662092
0.383872
0.353077
0.46918
0.404163
0.661947
0.648699
0.655267
0.401528
0.656348
0.358697
0.381191
0.636867
0.445608
0.375737
0.654595
0.364574
0.466178
0.614525
0.602083
0.639788
0.444156
0.544679
0.602407
0.656028
0.522337
0.656604
0.485152
0.690196
0.599696
0.593524
0.363742
0.356784
0.40397
0.661354
0.381312
0.611476
0.661591
0.547417
0.655978
0.464688
0.628359
0.622036
0.391047
0.660382
0.587854
0.435519
0.591138
0.661536
0.641708
0.657264
0.384034
0.399213
0.645435
0.481223
0.489582
0.659735
0.651983
0.654462
0.6544
0.657744
0.565343
0.587676
0.659581
0.369398
0.371688
0.373258
0.401647
0.660834
0.411957
0.482995
0.65228
0.627619
0.380936
0.646065
0.656049
0.376579
0.337585
0.660723
0.65834
0.385334
0.375658
0.376699
0.663056
0.631833
0.360361
0.364762
0.360149
0.379805
0.312456
0.378406
0.686465
0.653657
0.638431
0.383516
0.624368
0.551338
0.558623
0.379409
0.356643
0.635768
0.662227
0.363228
0.656726
0.354113
0.647209
0.382076
0.65807
0.371463
0.63769
0.66437
0.379203
0.51258
0.379165
0.658117
0.380194
0.555487
0.370828
0.454245
0.388427
0.546946
0.386792
0.658277
0.65851
0.556433
0.638236
0.372873
0.630554
0.657223
0.664154
0.548673
0.617519
0.357616
0.338776
0.371746
0.65354
0.262018
0.660192
0.495298
0.642062
0.662314
0.406812
0.651329
0.381597
0.368985
0.371021
0.458858
0.467438
0.651123
0.389282
0.377395
0.656564
0.345007
0.3691
0.502237
0.331468
0.363815
0.381354
0.675779
0.603052
0.560256
0.375227
0.626487
0.655092
0.358239
0.293224
0.649141
0.655471
0.519082
0.469212
0.376233
0.328347
0.388984
0.667019
0.56851
0.469676
0.631999
0.373615
0.515204
0.35267
0.659085
0.661009
0.35786
0.377858
0.576189
0.494524
0.662271
0.655541
0.656252
0.662597
0.663313
0.38605
0.414883
0.376306
0.354211
0.486388
0.659272
0.605036
0.351515
0.363818
0.402405
0.380477
0.654305
0.600179
0.37299
0.282041
0.656717
0.38083
0.601153
0.651865
0.624206
0.656505
0.497851
0.356505
0.36677
0.581908
0.358506
0.370994
0.357236
0.657458
0.655366
0.355908
0.357095
0.662186
0.386405
0.656268
0.652435
0.355601
0.399962
0.368378
0.656046
0.367636
0.662894
0.641223
0.548175
0.372368
0.482132
0.65838
0.645504
0.359898
0.64139
0.573257
0.409189
0.656813
0.684061
0.388587
0.381045
0.635239
0.388766
0.355102
0.634973
0.313891
0.652517
0.628626
0.649308
0.578708
0.65946
0.65707
0.657037
0.36827
0.374394
0.588881
0.64713
0.427171
0.659851
0.293547
0.658156
0.641603
0.516116
0.595976
0.339782
0.412514
0.646928
0.65745
0.595492
0.664993
0.655941
0.661272
0.670564
0.662544
0.666444
0.639612
0.668476
0.662049
0.656912
0.302264
0.634415
0.391157
0.65817
0.656993
0.646058
0.614695
0.63722
0.396281
0.392974
0.276179
0.358857
0.620693
0.365731
0.392069
0.630129
0.361876
0.641949
0.390038
0.636085
0.651446
0.383008
0.347326
0.399804
0.661017
0.379215
0.65057
0.651559
0.396481
0.633027
0.505498
0.394697
0.389812
0.350923
0.63669
0.379744
0.659955
0.461424
0.381256
0.653487
0.654546
0.655918
0.353211
0.52141
0.3698
0.626347
0.657421
0.657787
0.366366
0.645945
0.659423
0.607808
0.364372
0.660675
0.355687
0.349112
0.655923
0.407854
0.660901
0.347799
0.366006
0.403516
0.614621
0.387795
0.251145
0.3918
0.429028
0.65991
0.652323
0.373051
0.54493
0.655698
0.511085
0.372331
0.398781
0.507852
0.360045
0.34943
0.650012
0.349473
0.354695
0.665618
0.664079
0.376952
0.642131
0.388444
0.660872
0.390557
0.640233
0.658761
0.638887
0.657164
0.407414
0.349842
0.36403
0.65716
0.638568
0.542204
0.49013
0.337533
0.274811
0.655789
0.368697
0.65292
0.347663
0.658371
0.618391
0.369658
0.38752
0.347345
0.356887
0.388477
0.575514
0.621993
0.372372
0.655365
0.584368
0.380301
0.370969
0.66088
0.378462
0.652114
0.389459
0.639
0.602197
0.654783
0.659736
0.395744
0.657705
0.657194
0.676244
0.384427
0.571778
0.548559
0.400812
0.66184
0.591534
0.691949
0.628668
0.663108
0.655867
0.671432
0.655854
0.652746
0.377807
0.653474
0.347377
0.408944
0.653438
0.365856
0.641636
0.577808
0.374304
0.607714
0.383525
0.391774
0.653747
0.563323
0.664422
0.381319
0.628977
0.566654
0.390936
0.37964
0.649347
0.655244
0.342226
0.39788
0.645554
0.662554
0.37061
0.588985
0.663767
0.606226
0.369932
0.355856
0.377748
0.603694
0.355877
0.641737
0.640456
0.655654
0.55226
0.652556
0.384201
0.644789
0.565983
0.664199
0.516944
0.369986
0.363365
0.377009
0.64847
0.653325
0.387424
0.599845
0.396087
0.596158
0.658851
0.374353
0.571438
0.642617
0.569415
0.381568
0.362521
0.401212
0.656305
0.661178
0.563977
0.468651
0.653864
0.359585
0.58075
0.660586
0.645832
0.381984
0.576535
0.375031
0.589195
0.379124
0.648661
0.654987
0.374767
0.656938
0.377158
0.662113
0.587094
0.663107
0.664458
0.36741
0.655882
0.6546
0.655918
0.649456
0.4408
0.660705
0.371117
0.654521
0.375597
0.371478
0.373385
0.387809
0.361593
0.379188
0.664537
0.332879
0.370264
0.605936
0.657205
0.624787
0.363423
0.63348
0.630939
0.656801
0.320895
0.530096
0.657136
0.413712
0.397734
0.350589
0.575051
0.463327
0.357058
0.535208
0.361615
0.659901
0.456733
0.367794
0.429773
0.5973
0.402903
0.655607
0.372136
0.417306
0.339254
0.667257
0.345664
0.601397
0.660411
0.569068
0.370829
0.349761
0.667737
0.662836
0.400196
0.383273
0.656869
0.362983
0.644748
0.384245
0.509919
0.377121
0.657016
0.414636
0.664313
0.371493
0.659017
0.653995
0.658473
0.660971
0.370396
0.375923
0.361293
0.638407
0.628746
0.612835
0.470199
0.388599
0.649726
0.399526
0.63558
0.545318
0.351638
0.377383
0.652862
0.649038
0.370328
0.658887
0.67324
0.654431
0.650862
0.372482
0.583379
0.35074
0.655532
0.355607
0.657549
0.632027
0.666828
0.665765
0.381021
0.664723
0.385044
0.393195
0.656219
0.660807
0.496582
0.646865
0.660926
0.371018
0.643175
0.664312
0.67193
0.379261
0.385246
0.628228
0.365109
0.658259
0.662353
0.64358
0.667377
0.259681
0.401351
0.596868
0.374837
0.642667
0.658706
0.423341
0.652091
0.257023
0.583706
0.64359
0.625392
0.65605
0.361575
0.379925
0.651113
0.639729
0.380318
0.324497
0.412747
0.378016
0.369751
0.35893
0.393377
0.380003
0.650205
0.375214
0.371628
0.644583
0.494615
0.662097
0.358102
0.357493
0.655935
0.419679
0.424498
0.659642
0.334543
0.608448
0.658268
0.558635
0.630868
0.379617
0.652877
0.657676
0.398973
0.350023
0.353311
0.57414
0.557813
0.662713
0.656827
0.646404
0.633775
0.32566
0.654981
0.657511
0.655571
0.351167
0.657273
0.531883
0.324616
0.391562
0.369449
0.373535
0.368738
0.538329
0.616018
0.631568
0.348311
0.354367
0.664365
0.379842
0.650406
0.654463
0.643482
0.62559
0.654089
0.41343
0.372024
0.366583
0.514375
0.361733
0.654392
0.369044
0.65664
0.656655
0.656431
0.401482
0.403485
0.367606
0.653407
0.394351
0.351744
0.65989
0.631156
0.569772
0.656943
0.647726
0.644286
0.359356
0.574377
0.65856
0.483962
0.652313
0.651166
0.648018
0.419854
0.387761
0.672798
0.453129
0.559846
0.359619
0.608548
0.645652
0.356034
0.35706
0.622931
0.460672
0.657469
0.65002
0.380034
0.360665
0.659504
0.335795
0.366594
0.648536
0.649309
0.371746
0.648589
0.659543
0.615841
0.360852
0.539539
0.358554
0.652109
0.66095
0.644616
0.627547
0.659398
0.314577
0.321169
0.641139
0.387645
0.558079
0.379367
0.65515
0.370774
0.595046
0.657763
0.659621
0.366741
0.66294
0.660235
0.353081
0.608325
0.346573
0.675074
0.366232
0.368243
0.376521
0.631372
0.651637
0.293353
0.274131