# vtk DataFile Version 1.0
unstructured grid
ascii
DATASET UNSTRUCTURED_GRID
points 13672 float
0.0796578 -0.059106 0
0.00128732 0.00159165 0
0.00227961 -0.00102548 0
0.0791586 -0.0598787 0
-0.0546216 0.01 0
0.000495206 0.025 0
0.0800549 -0.035 0
0.135172 -0.08 0
-0.0546216 -0.0451168 0
0.000495206 -0.0301168 0
0.0800549 -0.0901168 0
0.135172 -0.135117 0
-0.0546216 -0.0451168 -0.00551168
0.000495206 -0.0301168 -0.00551168
0.0800549 -0.0901168 -0.00551168
0.135172 -0.135117 -0.00551168
0.135172 -0.08 -0.00551168
0.0800549 -0.035 -0.00551168
0.000495206 0.025 -0.00551168
-0.0546216 0.01 -0.00551168
0.00128732 0.00159165 -0.00551168
0.00227961 -0.00102548 -0.00551168
0.0791586 -0.0598787 -0.00551168
0.0796578 -0.059106 -0.00551168
0.00165953 -0.000990923 0
0.00119576 -0.000874076 0
0.000866021 -0.000641801 0
0.000645147 -0.000349912 0
0.00052235 -1.7281e-05 0
0.00049972 0.000348016 0
0.000601632 0.000737716 0
0.000861774 0.0011403 0
0.00157235 0.00183217 0
0.00188647 0.00206725 0
0.00222612 0.00230203 0
0.00258713 0.00254351 0
0.00296826 0.00279524 0
0.00337118 0.00305664 0
0.00379785 0.00332658 0
0.00425045 0.00360349 0
0.00473139 0.00388521 0
0.0052432 0.00416895 0
0.0057881 0.00445204 0
0.00636753 0.00473281 0
0.00698281 0.00500961 0
0.00763526 0.00528058 0
0.00832616 0.00554366 0
0.00905691 0.00579603 0
0.00982918 0.00603333 0
0.0106445 0.00625033 0
0.0115038 0.00644128 0
0.0124073 0.00660297 0
0.0133543 0.00673414 0
0.0143444 0.00683382 0
0.0153769 0.00690031 0
0.0164512 0.00693173 0
0.0175666 0.00692547 0
0.0187219 0.00687822 0
0.0199156 0.00678477 0
0.0211454 0.00663864 0
0.0224084 0.00643275 0
0.0237018 0.00616676 0
0.0250249 0.00584739 0
0.026375 0.00547298 0
0.0277479 0.00503752 0
0.0291386 0.00453545 0
0.0305433 0.0039653 0
0.0319572 0.0033256 0
0.0333681 0.00260019 0
0.034775 0.00179799 0
0.0361793 0.000930615 0
0.0375798 3.12222e-06 0
0.0389689 -0.000988429 0
0.0403357 -0.00205109 0
0.041675 -0.00318283 0
0.0429849 -0.00437751 0
0.0442643 -0.00562904 0
0.0455126 -0.00693089 0
0.0467314 -0.00827518 0
0.0479204 -0.00965638 0
0.0490661 -0.0110799 0
0.0501515 -0.0125519 0
0.0511696 -0.0140695 0
0.0521492 -0.0156071 0
0.0531202 -0.0171411 0
0.0540851 -0.0186663 0
0.0550431 -0.0201798 0
0.0559923 -0.0216793 0
0.0569311 -0.0231626 0
0.0578582 -0.0246273 0
0.0587723 -0.0260715 0
0.0596721 -0.027493 0
0.0605563 -0.02889 0
0.0614241 -0.0302609 0
0.0622742 -0.0316042 0
0.063106 -0.0329183 0
0.0639186 -0.034202 0
0.0647113 -0.0354543 0
0.0654835 -0.0366743 0
0.0662345 -0.0378613 0
0.0669642 -0.0390145 0
0.0676726 -0.0401333 0
0.0683597 -0.0412172 0
0.0690246 -0.0422665 0
0.0696662 -0.0432819 0
0.0702841 -0.0442636 0
0.0708793 -0.0452111 0
0.0714538 -0.0461237 0
0.072009 -0.047001 0
0.0725452 -0.0478434 0
0.0730611 -0.0486524 0
0.073556 -0.0494294 0
0.0740291 -0.0501756 0
0.0744812 -0.0508916 0
0.0749138 -0.0515773 0
0.0753285 -0.0522331 0
0.0757266 -0.0528592 0
0.076109 -0.0534564 0
0.0764753 -0.0540264 0
0.0768243 -0.054571 0
0.0771553 -0.0550919 0
0.0774679 -0.0555901 0
0.0777617 -0.0560669 0
0.0780369 -0.056523 0
0.0782958 -0.0569578 0
0.0785421 -0.0573703 0
0.0787786 -0.0577603 0
0.0790073 -0.0581279 0
0.0792295 -0.058474 0
0.0794462 -0.0587995 0
0.0798803 -0.0594162 0
0.0800272 -0.0596588 0
0.0800357 -0.0598891 0
0.0799275 -0.0600784 0
0.0797205 -0.0601773 0
0.0794593 -0.0601051 0
0.0789155 -0.0596491 0
0.0786707 -0.0593963 0
0.0784111 -0.0591319 0
0.0781372 -0.0588542 0
0.0778566 -0.0585548 0
0.0775715 -0.0582308 0
0.0772803 -0.0578828 0
0.0769832 -0.0575099 0
0.0766822 -0.0571097 0
0.0763801 -0.0566796 0
0.0760759 -0.0562196 0
0.0757623 -0.0557337 0
0.0754359 -0.0552232 0
0.0750951 -0.0546879 0
0.0747379 -0.054128 0
0.0743626 -0.0535435 0
0.0739688 -0.0529338 0
0.0735559 -0.0522981 0
0.0731238 -0.0516357 0
0.0726718 -0.050946 0
0.0721991 -0.0502288 0
0.0717046 -0.049484 0
0.0711872 -0.0487117 0
0.0706461 -0.047912 0
0.0700804 -0.0470849 0
0.0694892 -0.0462308 0
0.0688718 -0.0453499 0
0.0682271 -0.0444431 0
0.0675544 -0.043511 0
0.0668527 -0.0425546 0
0.0661215 -0.0415748 0
0.06536 -0.040573 0
0.0645676 -0.0395504 0
0.0637439 -0.0385087 0
0.0628887 -0.0374493 0
0.062002 -0.0363741 0
0.0610838 -0.0352847 0
0.0601345 -0.0341831 0
0.0591547 -0.033071 0
0.0581456 -0.0319502 0
0.0571083 -0.0308224 0
0.0560444 -0.0296893 0
0.0549562 -0.028552 0
0.053845 -0.0274126 0
0.0527113 -0.0262746 0
0.051554 -0.0251427 0
0.0503724 -0.0240222 0
0.0491675 -0.0229164 0
0.047941 -0.0218282 0
0.0466955 -0.0207597 0
0.0454337 -0.0197126 0
0.0441592 -0.0186878 0
0.0428751 -0.0176863 0
0.0415841 -0.0167097 0
0.0402878 -0.0157609 0
0.0389879 -0.0148428 0
0.0376864 -0.0139575 0
0.0363853 -0.013107 0
0.0350871 -0.0122931 0
0.0337942 -0.0115164 0
0.0325095 -0.0107772 0
0.0312357 -0.0100756 0
0.0299758 -0.00941024 0
0.0287337 -0.00877784 0
0.0275126 -0.00817571 0
0.0263139 -0.00760375 0
0.0251376 -0.00706528 0
0.0239829 -0.0065649 0
0.0228537 -0.00609619 0
0.0217522 -0.00565563 0
0.0206795 -0.00524226 0
0.0196364 -0.00485507 0
0.0186233 -0.00449318 0
0.0176408 -0.00415577 0
0.016689 -0.00384204 0
0.0157682 -0.00355115 0
0.0148783 -0.00328218 0
0.0140192 -0.00303468 0
0.0131906 -0.00280795 0
0.0123925 -0.00260016 0
0.0116246 -0.00241012 0
0.0108864 -0.00223769 0
0.0101774 -0.00208212 0
0.00949701 -0.00194206 0
0.00884483 -0.0018163 0
0.0082202 -0.0017039 0
0.00762247 -0.00160391 0
0.00705097 -0.00151528 0
0.006505 -0.00143697 0
0.0059838 -0.00136806 0
0.00548662 -0.00130772 0
0.00501265 -0.00125519 0
0.00456114 -0.00120954 0
0.00413136 -0.00116914 0
0.00372257 -0.00113251 0
0.00333398 -0.00109853 0
0.00296466 -0.00106798 0
0.00261363 -0.0010431 0
-0.052721 -0.0445996 0
-0.0508204 -0.0440823 0
-0.0489199 -0.0435651 0
-0.0470193 -0.0430478 0
-0.0451187 -0.0425306 0
-0.0432181 -0.0420134 0
-0.0413175 -0.0414961 0
-0.039417 -0.0409789 0
-0.0375164 -0.0404616 0
-0.0356158 -0.0399444 0
-0.0337152 -0.0394271 0
-0.0318146 -0.0389099 0
-0.0299141 -0.0383927 0
-0.0280135 -0.0378754 0
-0.0261129 -0.0373582 0
-0.0242123 -0.0368409 0
-0.0223117 -0.0363237 0
-0.0204112 -0.0358065 0
-0.0185106 -0.0352892 0
-0.01661 -0.034772 0
-0.0147094 -0.0342547 0
-0.0128088 -0.0337375 0
-0.0109083 -0.0332202 0
-0.00900769 -0.032703 0
-0.00710711 -0.0321858 0
-0.00520653 -0.0316685 0
-0.00330595 -0.0311513 0
-0.00140537 -0.030634 0
0.00190689 -0.0299614 0
0.00332271 -0.0298498 0
0.00474133 -0.0297825 0
0.00616136 -0.0297597 0
0.0075814 -0.0297814 0
0.00900007 -0.0298477 0
0.010416 -0.0299583 0
0.0118278 -0.0301127 0
0.0132342 -0.0303103 0
0.0146339 -0.0305504 0
0.0160259 -0.0308322 0
0.0174091 -0.0311546 0
0.0187824 -0.0315166 0
0.020145 -0.031917 0
0.0214961 -0.0323546 0
0.0228351 -0.032828 0
0.0241613 -0.0333361 0
0.0254744 -0.0338774 0
0.0267738 -0.0344507 0
0.0280592 -0.0350545 0
0.0293306 -0.0356877 0
0.0305875 -0.0363488 0
0.0318301 -0.0370367 0
0.0330581 -0.0377501 0
0.0342717 -0.0384879 0
0.0354708 -0.0392489 0
0.0366556 -0.0400321 0
0.0378262 -0.0408363 0
0.0389828 -0.0416607 0
0.0401254 -0.0425042 0
0.0412543 -0.0433659 0
0.0423698 -0.0442451 0
0.043472 -0.0451408 0
0.0445612 -0.0460523 0
0.0456375 -0.0469789 0
0.0467013 -0.0479199 0
0.0477529 -0.0488746 0
0.0487923 -0.0498424 0
0.04982 -0.0508227 0
0.0508362 -0.051815 0
0.051841 -0.0528187 0
0.0528348 -0.0538333 0
0.0538178 -0.0548584 0
0.0547903 -0.0558935 0
0.0557524 -0.0569382 0
0.0567045 -0.0579922 0
0.0576467 -0.0590549 0
0.0585792 -0.0601261 0
0.0595024 -0.0612055 0
0.0604163 -0.0622926 0
0.0613212 -0.0633873 0
0.0622174 -0.0644891 0
0.0631049 -0.0655979 0
0.0639841 -0.0667134 0
0.064855 -0.0678353 0
0.0657179 -0.0689633 0
0.0665729 -0.0700974 0
0.0674202 -0.0712372 0
0.06826 -0.0723826 0
0.0690925 -0.0735333 0
0.0699178 -0.0746892 0
0.070736 -0.0758501 0
0.0715473 -0.0770159 0
0.0723518 -0.0781863 0
0.0731498 -0.0793612 0
0.0739412 -0.0805405 0
0.0747264 -0.081724 0
0.0755053 -0.0829116 0
0.0762781 -0.0841033 0
0.0770449 -0.0852987 0
0.0778059 -0.0864979 0
0.0785611 -0.0877007 0
0.0793108 -0.088907 0
0.0814681 -0.0912706 0
0.0828814 -0.0924245 0
0.0842946 -0.0935783 0
0.0857079 -0.0947322 0
0.0871211 -0.095886 0
0.0885344 -0.0970399 0
0.0899476 -0.0981937 0
0.0913609 -0.0993476 0
0.0927741 -0.100501 0
0.0941874 -0.101655 0
0.0956006 -0.102809 0
0.0970139 -0.103963 0
0.0984272 -0.105117 0
0.0998404 -0.106271 0
0.101254 -0.107424 0
0.102667 -0.108578 0
0.10408 -0.109732 0
0.105493 -0.110886 0
0.106907 -0.11204 0
0.10832 -0.113194 0
0.109733 -0.114348 0
0.111146 -0.115501 0
0.11256 -0.116655 0
0.113973 -0.117809 0
0.115386 -0.118963 0
0.116799 -0.120117 0
0.118213 -0.121271 0
0.119626 -0.122424 0
0.121039 -0.123578 0
0.122452 -0.124732 0
0.123866 -0.125886 0
0.125279 -0.12704 0
0.126692 -0.128194 0
0.128105 -0.129348 0
0.129519 -0.130501 0
0.130932 -0.131655 0
0.132345 -0.132809 0
0.133758 -0.133963 0
0.135172 -0.133216 0
0.135172 -0.131316 0
0.135172 -0.129415 0
0.135172 -0.127514 0
0.135172 -0.125614 0
0.135172 -0.123713 0
0.135172 -0.121813 0
0.135172 -0.119912 0
0.135172 -0.118012 0
0.135172 -0.116111 0
0.135172 -0.11421 0
0.135172 -0.11231 0
0.135172 -0.110409 0
0.135172 -0.108509 0
0.135172 -0.106608 0
0.135172 -0.104708 0
0.135172 -0.102807 0
0.135172 -0.100906 0
0.135172 -0.0990058 0
0.135172 -0.0971052 0
0.135172 -0.0952046 0
0.135172 -0.0933041 0
0.135172 -0.0914035 0
0.135172 -0.0895029 0
0.135172 -0.0876023 0
0.135172 -0.0857017 0
0.135172 -0.0838012 0
0.135172 -0.0819006 0
0.133758 -0.0788462 0
0.132345 -0.0776923 0
0.130932 -0.0765385 0
0.129519 -0.0753846 0
0.128105 -0.0742308 0
0.126692 -0.0730769 0
0.125279 -0.0719231 0
0.123866 -0.0707692 0
0.122452 -0.0696154 0
0.121039 -0.0684615 0
0.119626 -0.0673077 0
0.118213 -0.0661538 0
0.116799 -0.065 0
0.115386 -0.0638462 0
0.113973 -0.0626923 0
0.11256 -0.0615385 0
0.111146 -0.0603846 0
0.109733 -0.0592308 0
0.10832 -0.0580769 0
0.106907 -0.0569231 0
0.105493 -0.0557692 0
0.10408 -0.0546154 0
0.102667 -0.0534615 0
0.101254 -0.0523077 0
0.0998404 -0.0511538 0
0.0984272 -0.05 0
0.0970139 -0.0488462 0
0.0956006 -0.0476923 0
[...]
CELL_DATA 13116
SCALARS rho float
LOOKUP_TABLE default
0.549183
0.660748
0.392657
0.715723
0.704273
0.677017
0.368606
0.707468
0.529119
0.710301
0.365919
0.375749
0.704531
0.395107
0.373498
0.677236
0.516007
0.703023
0.678613
0.365683
0.554974
0.38861
0.41069
0.704683
0.613119
0.632994
0.710398
0.445676
0.606776
0.650829
0.672616
0.399764
0.558118
0.450784
0.365042
0.552142
0.669037
0.67421
0.675327
0.684044
0.678376
0.711428
0.426487
0.406792
0.677694
0.678605
0.635633
0.682764
0.374679
0.525834
0.701022
0.444132
0.37399
0.508641
0.556689
0.588283
0.408593
0.700393
0.539272
0.378467
0.398665
0.711005
0.650182
0.675099
0.672966
0.395104
0.683446
0.67716
0.685346
0.673299
0.373869
0.58887
0.389123
0.406262
0.671374
0.379777
0.644569
0.697443
0.362559
0.700258
0.682677
0.638816
0.704377
0.683369
0.669208
0.445447
0.372541
0.675381
0.664278
0.38678
0.387261
0.662597
0.706793
0.670896
0.653292
0.601271
0.615961
0.672194
0.671778
0.601917
0.686466
0.586616
0.678415
0.403176
0.616692
0.408192
0.355555
0.473957
0.427315
0.617821
0.50286
0.631455
0.599408
0.687001
0.700881
0.684256
0.383881
0.386463
0.692873
0.686757
0.677878
0.388357
0.685994
0.413303
0.664725
0.441157
0.374185
0.512553
0.420429
0.527409
0.693145
0.686259
0.502256
0.382395
0.4831
0.584775
0.669162
0.689846
0.685515
0.686481
0.627138
0.639255
0.511086
0.627881
0.645691
0.393432
0.364807
0.629683
0.702038
0.696407
0.545371
0.682555
0.682492
0.393181
0.706589
0.670661
0.414102
0.69225
0.672326
0.676007
0.703759
0.364542
0.701928
0.414087
0.385946
0.708467
0.661201
0.702509
0.366196
0.464603
0.420602
0.669174
0.380493
0.495834
0.68284
0.412186
0.37684
0.389545
0.627056
0.676414
0.374616
0.433333
0.523461
0.669784
0.676648
0.536913
0.387212
0.678674
0.60329
0.465158
0.638576
0.627214
0.673625
0.418364
0.621361
0.676832
0.707813
0.678561
0.662736
0.409448
0.402537
0.624379
0.5071
0.405799
0.696061
0.678615
0.45291
0.61212
0.396838
0.388982
0.381378
0.680418
0.414676
0.368712
0.382214
0.392262
0.364291
0.674877
0.66111
0.431677
0.406637
0.682972
0.4965
0.374834
0.5523
0.710402
0.643129
0.450753
0.682968
0.387641
0.718033
0.389399
0.673647
0.578226
0.671874
0.67658
0.673878
0.372348
0.433201
0.67622
0.671189
0.676606
0.669521
0.673956
0.699833
0.379966
0.694932
0.707158
0.671805
0.384152
0.37742
0.679904
0.691881
0.673292
0.687735
0.534681
0.691244
0.365713
0.395097
0.395853
0.397658
0.598408
0.707613
0.643165
0.363562
0.676587
0.388447
0.430994
0.61903
0.393931
0.634411
0.705638
0.670691
0.700005
0.374378
0.670597
0.688201
0.671837
0.689626
0.357049
0.372008
0.419103
0.579778
0.389431
0.385086
0.3288
0.298104
0.668435
0.376609
0.669854
0.704611
0.37808
0.369988
0.386039
0.455843
0.378031
0.673794
0.585706
0.624643
0.393431
0.680013
0.584465
0.39923
0.376642
0.675561
0.691729
0.678354
0.384457
0.677084
0.415957
0.685364
0.711031
0.694168
0.709688
0.421028
0.682669
0.392321
0.678305
0.710506
0.677131
0.365304
0.328157
0.707623
0.38519
0.650879
0.710834
0.367444
0.694864
0.704097
0.378929
0.676359
0.706835
0.384932
0.694879
0.444814
0.57173
0.686722
0.452281
0.692528
0.364698
0.702509
0.339841
0.674324
0.577407
0.7089
0.445394
0.354794
0.670588
0.394671
0.694683
0.610047
0.422955
0.66926
0.389342
0.391217
0.691109
0.555385
0.675135
0.373567
0.414107
0.694698
0.704422
0.363697
0.702467
0.390536
0.406289
0.684449
0.690856
0.458388
0.381329
0.689959
0.672981
0.677294
0.675308
0.698449
0.545522
0.329559
0.393567
0.373451
0.677091
0.373625
0.521216
0.371518
0.400798
0.348513
0.46886
0.141452
0.394615
0.671476
0.331378
0.70263
0.609515
0.679775
0.666917
0.695884
0.392001
0.369995
0.414888
0.336644
0.691445
0.594954
0.678759
0.608911
0.64753
0.623519
0.636645
0.623816
0.647759
0.696678
0.699849
0.67629
0.401966
0.461098
0.54504
0.387877
0.581783
0.586488
0.374183
0.68367
0.670896
0.423108
0.362062
0.374444
0.386297
0.63354
0.372398
0.418421
0.681377
0.396727
0.578124
0.38912
0.677028
0.681184
0.360432
0.383925
0.690636
0.457048
0.389284
0.387034
0.377664
0.427282
0.372312
0.363087
0.389844
0.431299
0.373463
0.583012
0.368602
0.668497
0.384726
0.444392
0.50058
0.3985
0.385411
0.397125
0.680164
0.4394
0.647193
0.475755
0.393775
0.614703
0.666705
0.444775
0.69443
0.624335
0.622568
0.372644
0.671987
0.388827
0.699996
0.672429
0.419881
0.382988
0.601742
0.342205
0.454417
0.580478
0.354363
0.691193
0.648522
0.372225
0.372868
0.379526
0.491214
0.375173
0.381479
0.377794
0.392603
0.711898
0.712712
0.462916
0.605338
0.48247
0.621047
0.349324
0.387464
0.533924
0.420665
0.684353
0.289641
0.369818
0.498005
0.677193
0.656015
0.561366
0.366207
0.381584
0.566785
0.707559
0.673913
0.562761
0.621736
0.597167
0.37343
0.680121
0.573463
0.675146
0.306105
0.379959
0.685965
0.708356
0.665868
0.7109
0.657114
0.633468
0.702564
0.675869
0.679517
0.376005
0.67703
0.335461
0.396289
0.369605
0.714136
0.678988
0.30651
0.668304
0.623603
0.366235
0.674246
0.690817
0.693306
0.445762
0.38802
0.695716
0.383461
0.369433
0.382048
0.374726
0.682165
0.383911
0.713834
0.374647
0.661662
0.699428
0.68352
0.704795
0.389721
0.370318
0.68119
0.719472
0.657689
0.711585
0.70694
0.494695
0.377555
0.424256
0.678557
0.531615
0.371174
0.456185
0.39553
0.683619
0.679777
0.306096
0.388975
0.66627
0.463274
0.672231
0.667957
0.418352
0.388502
0.653145
0.671007
0.416488
0.654593
0.660889
0.680287
0.387299
0.669482
0.409143
0.671685
0.673743
0.3808
0.363032
0.386221
0.671703
0.426595
0.363749
0.387561
0.674631
0.690193
0.36318
0.388388
0.38355
0.674603
0.390243
0.676683
0.392828
0.593099
0.710521
0.38778
0.413335
0.411923
0.495097
0.429854
0.644737
0.386579
0.383045
0.676249
0.382031
0.679886
0.646839
0.671935
0.372314
0.684998
0.705089
0.707393
0.679066
0.667984
0.684045
0.394639
0.673715
0.43412
0.678348
0.355565
0.700778
0.508849
0.369189
0.672642
0.700226
0.392859
0.627425
0.385686
0.372333
0.681128
0.67972
0.381511
0.393466
0.36369
0.402667
0.680552
0.70474
0.389758
0.373855
0.694747
0.689555
0.595022
0.704441
0.679373
0.365438
0.709025
0.427021
0.700777
0.388289
0.599679
0.482695
0.682136
0.676431
0.57896
0.340217
0.441647
0.678847
0.605825
0.51499
0.703916
0.396705
0.685589
0.706206
0.362438
0.458548
0.705429
0.364052
0.672949
0.677317
0.323593
0.688516
0.651404
0.389314
0.689161
0.418062
0.660861
0.390158
0.680022
0.648143
0.439677
0.675156
0.702418
0.697052
0.625117
0.681159
0.58415
0.359085
0.418494
0.369309
0.404578
0.668568
0.555519
0.687176
0.701319
0.374001
0.38077
0.68524
0.711351
0.691334
0.705684
0.35938
0.700045
0.706937
0.363803
0.383282
0.693228
0.679648
0.665119
0.400555
0.590808
0.32463
0.688383
0.644442
0.674074
0.668402
0.373266
0.678811
0.669633
0.705925
0.678704
0.678143
0.429942
0.697945
0.389368
0.622385
0.708592
0.464663
0.650204
0.674269
0.69877
0.403265
0.403573
0.585404
0.658984
0.375832
0.383549
0.392899
0.378913
0.663796
0.685145
0.673796
0.299361
0.373396
0.685037
0.690718
0.385077
0.377172
0.467421
0.667009
0.678716
0.674706
0.695899
0.387844
0.37523
0.66977
0.409603
0.36944
0.386393
0.677483
0.329662
0.391666
0.580311
0.679853
0.627076
0.676059
0.678269
0.386929
0.379676
0.390805
0.474662
0.438549
0.389906
0.675462
0.695763
0.660771
0.680189
0.41256
0.371257
0.710654
0.370305
0.677866
0.647504
0.672658
0.381526
0.376555
0.654816
0.672547
0.560697
0.384097
0.671352
0.676412
0.575656
0.696569
0.704845
0.670132
0.622141
0.360989
0.678208
0.672865
0.61506
0.688957
0.668686
0.633146
0.67032
0.688572
0.383049
0.37612
0.370571
0.672945
0.507111
0.370988
0.684845
0.695591
0.369583
0.635699
0.324636
0.640548
0.46799
0.375022
0.711483
0.704198
0.372393
0.548984
0.673005
0.411925
0.671127
0.398109
0.40695
0.61904
0.613405
0.501102
0.678518
0.392863
0.701686
0.375442
0.393512
0.679656
0.370112
0.606282
0.399133
0.634512
0.601302
0.670211
0.65863
0.389523
0.383243
0.607352
0.428379
0.691044
0.461058
0.593539
0.676905
0.705735
0.442956
0.614691
0.625351
0.708095
0.684771
0.343465
0.368066
0.541444
0.623147
0.70865
0.374309
0.678331
0.562685
0.414366
0.387061
0.678954
0.668105
0.669826
0.671514
0.586286
0.687299
0.675201
0.676656
0.397707
0.666585
0.464993
0.689839
0.678938
0.296598
0.643185
0.702226
0.384874
0.380035
0.383664
0.668736
0.365146
0.619102
0.694364
0.668251
0.357845
0.67124
0.405235
0.590359
0.674765
0.673582
0.673633
0.674533
0.624612
0.681257
0.526462
0.677771
0.39114
0.677307
0.683244
0.40852
0.670739
0.686375
0.419555
0.392355
0.414364
0.694751
0.389153
0.670444
0.389597
0.706491
0.383771
0.482808
0.400584
0.699455
0.704689
0.532534
0.26767
0.62434
0.675043
0.383435
0.594295
0.713153
0.389354
0.591168
0.672197
0.710043
0.678267
0.418228
0.471412
0.69312
0.679229
0.624061
0.385925
0.399997
0.67333
0.669573
0.670971
0.669422
0.549263
0.686734
0.544393
0.686847
0.387013
0.405952
0.669539
0.702929
0.674774
0.398109
0.677515
0.556775
0.600585
0.382554
0.416515
0.702996
0.719163
0.561096
0.338351
0.679777
0.671007
0.366732
0.616109
0.695674
0.365708
0.439309
0.390188
0.602192
0.38998
0.375322
0.675494
0.468782
0.708946
0.642054
0.368582
0.373182
0.710142
0.380164
0.373701
0.672559
0.404859
0.351167
0.595127
0.663203
0.685536
0.377626
0.304047
0.368688
0.648447
0.407468
0.686192
0.374462
0.685557
0.625609
0.676816
0.628531
0.677753
0.642111
0.678806
0.704311
0.689052
0.381969
0.391568
0.669867
0.675338
0.505161
0.61509
0.562687
0.67499
0.613228
0.36492
0.685435
0.712336
0.675371
0.389057
0.679876
0.383591
0.683558
0.497456
0.700502
0.679265
0.374814
0.691631
0.380861
0.430485
0.651667
0.385896
0.691735
0.6688
0.692099
0.388315
0.681248
0.38409
0.381753
0.399613
0.380779
0.604234
0.38298
0.631224
0.674493
0.341551
0.418467
0.489507
0.583503
0.636309
0.625611
0.373319
0.38853
0.363685
0.400409
0.265147
0.635323
0.637063
0.453791
0.674213
0.69376
0.390184
0.712181
0.690112
0.67465
0.398599
0.671251
0.679702
0.697983
0.69021
0.372991
0.687213
0.699548
0.680551
0.679707
0.67585
0.382315
0.406987
0.682614
0.53861
0.378193
0.679196
0.414127
0.571466
0.627698
0.658554
0.662702
0.383449
0.613153
0.39944
0.392174
0.695541
0.696591
0.702617
0.69422
0.660017
0.382088
0.706064
0.386087
0.504012
0.707803
0.671767
0.692486
0.389176
0.391031
0.707912
0.390982
0.694941
0.658082
0.432017
0.381733
0.6848
0.401634
0.679168
0.694464
0.655893
0.401133
0.37545
0.508973
0.51929
0.623246
0.476938
0.676505
0.625458
0.671287
0.66843
0.686776
0.374081
0.386676
0.697067
0.675809
0.620859
0.464057
0.404991
0.676987
0.384137
0.679474
0.619312
0.323436
0.690898
0.362002
0.650815
0.386926
0.703168
0.374408
0.683023
0.676108
0.345851
0.667469
0.658312
0.333415
0.673853
0.678313
0.560716
0.397257
0.364813
0.470535
0.705609
0.602098
0.373984
0.585947
0.689497
0.676199
0.348145
0.609924
0.666069
0.462441
0.676466
0.67846
0.292834
0.687997
0.672004
0.391938
0.60006
0.384619
0.637913
0.390178
0.406589
0.707947
0.376793
0.386693
0.389519
0.682518
0.656794
0.405039
0.679834
0.360036
0.664662
0.383154
0.660977
0.371867
0.677236
0.683016
0.646616
0.673967
0.552965
0.676085
0.674662
0.42923
0.646299
0.652747
0.484141
0.686034
0.494734
0.406059
0.705732
0.378927
0.57745
0.314555
0.678628
0.381226
0.417793
0.704443
0.678725
0.370796
0.688253
0.696087
0.668672
0.705161
0.671543
0.361724
0.711163
0.368389
0.414637
0.666173
0.696878
0.710458
0.668678
0.391085
0.391194
0.364848
0.662131
0.67439
0.363069
0.674931
0.394626
0.390425
0.380848
0.667304
0.388588
0.707914
0.689684
0.645178
0.678827
0.688116
0.575556
0.638686
0.436749
0.409792
0.370009
0.671512
0.671216
0.398962
0.634614
0.599059
0.640921
0.418594
0.400271
0.629539
0.276905
0.622434
0.592749
0.368206
0.675363
0.665688
0.370601
0.684712
0.371888
0.686753
0.709553
0.678175
0.386899
0.472751
0.690046
0.301429
0.444004
0.678371
0.310293
0.675636
0.6845
0.633755
0.696628
0.336838
0.672523
0.694808
0.679049
0.363272
0.696688
0.381784
0.394724
0.670473
0.679084
0.674312
0.2351
0.679789
0.645074
0.671351
0.390257
0.388178
0.389139
0.692061
0.365641
0.379265
0.389199
0.5905
0.373
0.295448
0.445794
0.685928
0.369771
0.673938
0.674942
0.68316
0.386975
0.68604
0.662811
0.67414
0.418697
0.677515
0.364634
0.379343
0.680887
0.370657
0.629499
0.688544
0.67006
0.370301
0.328626
0.393618
0.56187
0.669508
0.23332
0.675001
0.682157
0.69769
0.387714
0.387316
0.343571
0.600655
0.380693
0.668565
0.610631
0.675273
0.674324
0.358789
0.629444
0.395811
0.560456
0.660218
0.711204
0.56886
0.477555
0.677357
0.624913
0.69815
0.385168
0.378401
0.400689
0.699914
0.53771
0.671802
0.369763
0.401968
0.698635
0.685878
0.673285
0.370097
0.684242
0.56005
0.564375
0.60482
0.426801
0.369011
0.29223
0.679192
0.674399
0.677929
0.618692
0.342856
0.693459
0.67086
0.674428
0.673952
0.692786
0.71215
0.676755
0.694967
0.702159
0.419717
0.68775
0.695434
0.676714
0.690357
0.678837
0.578498
0.366908
0.410643
0.618584
0.380461
0.339156
0.683476
0.374256
0.647482
0.684265
0.657927
0.676132
0.420947
0.685681
0.396453
0.402471
0.677068
0.685539
0.680426
0.386106
0.701115
0.678652
0.615134
0.678333
0.38702
0.676388
0.708366
0.666485
0.409919
0.70145
0.387123
0.717998
0.385286
0.367549
0.5222
0.454131
0.711385
0.701094
0.678114
0.389508
0.676164
0.407291
0.376541
0.650622
0.491753
0.386318
0.678346
0.387262
0.514069
0.676265
0.635796
0.661752
0.491582
0.59999
0.664623
0.677942
0.575538
0.702486
0.538083
0.715399
0.614248
0.655909
0.410622
0.364409
0.453542
0.694277
0.418818
0.674649
0.688921
0.608591
0.678176
0.519902
0.690404
0.678241
0.397953
0.6873
0.608266
0.489391
0.612102
0.707353
0.646403
0.675498
0.387056
0.381534
0.679445
0.54074
0.546586
0.689447
0.683193
0.680526
0.708273
0.709445
0.626801
0.622477
0.711103
0.382775
0.393979
0.384332
0.343789
0.670788
0.466143
0.540309
0.69043
0.683568
0.416791
0.677347
0.715628
0.387664
0.376191
0.670696
0.689789
0.429206
0.380868
0.384623
0.668476
0.632052
0.414384
0.376251
0.367675
0.404632
0.349232
0.381075
0.715565
0.68304
0.683393
0.387422
0.65907
0.610251
0.615816
0.330175
0.36073
0.648455
0.669397
0.391111
0.6769
0.370598
0.704121
0.420179
0.682448
0.379315
0.661644
0.704091
0.388357
0.565917
0.380673
0.711497
0.406631
0.614205
0.412346
0.512689
0.367046
0.604797
0.383028
0.673731
0.673584
0.614273
0.676585
0.327456
0.661263
0.675038
0.702402
0.607787
0.665717
0.362291
0.393034
0.398951
0.706845
0.289287
0.701868
0.552655
0.696667
0.709879
0.462349
0.697584
0.375352
0.399957
0.380525
0.51737
0.519815
0.682502
0.391433
0.384345
0.679058
0.379571
0.39944
0.554218
0.370624
0.391442
0.411656
0.712937
0.666433
0.619026
0.409217
0.65774
0.679705
0.411533
0.32314
0.66994
0.67795
0.564116
0.517452
0.413698
0.362392
0.392484
0.680797
0.613518
0.528645
0.692994
0.39353
0.575228
0.362775
0.672793
0.701584
0.363977
0.393572
0.620636
0.547049
0.704241
0.70201
0.705733
0.689504
0.708107
0.389634
0.388639
0.402961
0.356162
0.540912
0.672601
0.668454
0.357131
0.37076
0.457679
0.43978
0.680547
0.634756
0.384154
0.305905
0.684108
0.417412
0.663026
0.700592
0.651409
0.676034
0.553783
0.369465
0.379772
0.616369
0.36481
0.424222
0.404294
0.675185
0.680307
0.335578
0.368457
0.669177
0.383109
0.681051
0.70679
0.370733
0.386915
0.381396
0.683847
0.383935
0.668757
0.689907
0.608802
0.37625
0.533814
0.696892
0.672345
0.368961
0.669599
0.621018
0.455467
0.692512
0.719655
0.382972
0.374985
0.653617
0.388557
0.355905
0.665389
0.34585
0.681516
0.690975
0.706201
0.629371
0.70271
0.68375
0.675941
0.363927
0.413376
0.632136
0.682495
0.472592
0.711894
0.324611
0.688084
0.663435
0.577305
0.658406
0.393924
0.464458
0.678197
0.69897
0.610684
0.704387
0.681624
0.670079
0.703948
0.668861
0.670067
0.653429
0.687943
0.669588
0.676123
0.34946
0.64222
0.426752
0.684297
0.687802
0.6973
0.640738
0.696394
0.38318
0.395266
0.306144
0.367819
0.649199
0.373207
0.398938
0.684009
0.400298
0.694272
0.393125
0.665455
0.687614
0.375588
0.382213
0.326354
0.692652
0.411076
0.681648
0.691377
0.392428
0.645483
0.562918
0.352703
0.440104
0.402677
0.698438
0.37561
0.686183
0.516127
0.375417
0.67825
0.678624
0.705838
0.370765
0.581748
0.406574
0.661182
0.675714
0.684338
0.39171
0.681507
0.689623
0.62523
0.411113
0.692503
0.370437
0.373855
0.677955
0.461318
0.709214
0.404747
0.391808
0.448305
0.634407
0.429564
0.290656
0.38551
0.484699
0.67157
0.690059
0.389972
0.603762
0.682297
0.562831
0.425109
0.317958
0.565328
0.372105
0.36079
0.677776
0.379196
0.373547
0.696406
0.71382
0.387125
0.701809
0.388233
0.670485
0.453484
0.652465
0.673486
0.697749
0.675141
0.383936
0.365897
0.403162
0.676403
0.655657
0.597176
0.550098
0.371732
0.303385
0.677156
0.365085
0.682064
0.383773
0.673871
0.67869
0.38258
0.408871
0.374476
0.367487
0.415657
0.618951
0.652194
0.37975
0.687067
0.646013
0.359357
0.381407
0.713617
0.384227
0.686594
0.430199
0.696981
0.664772
0.685757
0.671795
0.376871
0.709364
0.682444
0.715978
0.377942
0.609095
0.60532
0.333027
0.694151
0.642586
0.709693
0.658564
0.708251
0.676637
0.709386
0.676982
0.678481
0.374732
0.705175
0.374603
0.465747
0.67803
0.405393
0.666697
0.607246
0.381522
0.62681
0.376427
0.388307
0.670337
0.597413
0.713229
0.392187
0.658122
0.630137
0.452965
0.38441
0.65286
0.679618
0.380136
0.386962
0.693943
0.713017
0.373964
0.6508
0.705394
0.669154
0.386075
0.370647
0.393776
0.666515
0.370903
0.670441
0.700082
0.677334
0.609973
0.687494
0.392696
0.664525
0.624722
0.703871
0.565515
0.412827
0.365057
0.40215
0.704455
0.692378
0.427299
0.662436
0.304722
0.648509
0.686265
0.39774
0.619894
0.671512
0.630928
0.386599
0.369939
0.33221
0.693915
0.709012
0.627263
0.517555
0.686483
0.389258
0.64359
0.670924
0.681899
0.388636
0.636121
0.382446
0.61484
0.405733
0.68017
0.670547
0.408436
0.693111
0.431095
0.669512
0.645972
0.668519
0.693243
0.419059
0.676861
0.679007
0.680978
0.68111
0.48607
0.670821
0.383325
0.67949
0.398948
0.37167
0.393623
0.413138
0.374904
0.385834
0.708298
0.367203
0.37824
0.665699
0.693731
0.65466
0.414099
0.692136
0.692128
0.675696
0.326186
0.580669
0.683454
0.386958
0.385601
0.366001
0.636931
0.511001
0.370773
0.58911
0.414014
0.671805
0.504478
0.375815
0.478937
0.660066
0.329003
0.680026
0.389424
0.472325
0.377123
0.683838
0.387184
0.658534
0.671062
0.590317
0.422911
0.365004
0.677467
0.712107
0.389458
0.381648
0.676731
0.368814
0.70105
0.387448
0.566001
0.402833
0.683547
0.38899
0.710453
0.371495
0.686149
0.688113
0.699691
0.670706
0.385591
0.414867
0.414642
0.637023
0.683083
0.632686
0.522658
0.384961
0.696071
0.320793
0.652891
0.582918
0.405161
0.382323
0.702236
0.679563
0.409593
0.67299
0.68327
0.701638
0.706298
0.389493
0.646425
0.382178
0.701426
0.371497
0.674537
0.646482
0.66054
0.710987
0.364024
0.717755
0.377077
0.397828
0.680696
0.670903
0.556787
0.680027
0.670726
0.387304
0.703386
0.679692
0.707245
0.382698
0.433688
0.688195
0.374234
0.688842
0.688845
0.669484
0.686757
0.286638
0.456316
0.660461
0.409361
0.663349
0.712489
0.48063
0.666835
0.270996
0.618765
0.703596
0.688236
0.667684
0.367751
0.42151
0.682986
0.66761
0.380659
0.330706
0.389042
0.412906
0.379628
0.413665
0.394673
0.378984
0.682565
0.397158
0.386335
0.692756
0.554739
0.669262
0.400398
0.369434
0.683267
0.476289
0.480052
0.707016
0.374002
0.672429
0.674062
0.61907
0.663558
0.409876
0.690402
0.675069
0.390209
0.373632
0.406091
0.603738
0.619069
0.708243
0.677657
0.682872
0.667518
0.378436
0.69086
0.675271
0.653139
0.367678
0.684452
0.575827
0.371366
0.439268
0.375775
0.400493
0.386376
0.600093
0.677632
0.671266
0.363064
0.389888
0.705152
0.354802
0.691989
0.679231
0.669928
0.688438
0.685598
0.388218
0.404207
0.409703
0.573447
0.378007
0.68259
0.393843
0.681052
0.676548
0.687263
0.360976
0.457545
0.417475
0.687698
0.382853
0.36627
0.683363
0.663106
0.623896
0.677142
0.647306
0.7005
0.368612
0.634612
0.703197
0.533507
0.686297
0.694518
0.701104
0.462519
0.428663
0.7089
0.501049
0.618069
0.385911
0.644689
0.670208
0.409481
0.367544
0.659143
0.518551
0.699917
0.692087
0.375959
0.365882
0.672071
0.385778
0.416141
0.671883
0.653907
0.381417
0.674653
0.6724
0.642846
0.367461
0.60144
0.369546
0.674991
0.701139
0.700179
0.668422
0.672506
0.298882
0.36009
0.681656
0.382541
0.615604
0.381174
0.686861
0.393996
0.655993
0.702845
0.672193
0.391283
0.668689
0.671202
0.361382
0.645623
0.389922
0.714273
0.391275
0.380412
0.385528
0.678939
0.677205
0.323353