# vtk DataFile Version 1.0
unstructured grid
ascii
DATASET UNSTRUCTURED_GRID
points 13672 float
0.0796578 -0.059106 0
0.00128732 0.00159165 0
0.00227961 -0.00102548 0
0.0791586 -0.0598787 0
-0.0546216 0.01 0
0.000495206 0.025 0
0.0800549 -0.035 0
0.135172 -0.08 0
-0.0546216 -0.0451168 0
0.000495206 -0.0301168 0
0.0800549 -0.0901168 0
0.135172 -0.135117 0
-0.0546216 -0.0451168 -0.00551168
0.000495206 -0.0301168 -0.00551168
0.0800549 -0.0901168 -0.00551168
0.135172 -0.135117 -0.00551168
0.135172 -0.08 -0.00551168
0.0800549 -0.035 -0.00551168
0.000495206 0.025 -0.00551168
-0.0546216 0.01 -0.00551168
0.00128732 0.00159165 -0.00551168
0.00227961 -0.00102548 -0.00551168
0.0791586 -0.0598787 -0.00551168
0.0796578 -0.059106 -0.00551168
0.00165953 -0.000990923 0
0.00119576 -0.000874076 0
0.000866021 -0.000641801 0
0.000645147 -0.000349912 0
0.00052235 -1.7281e-05 0
0.00049972 0.000348016 0
0.000601632 0.000737716 0
0.000861774 0.0011403 0
0.00157235 0.00183217 0
0.00188647 0.00206725 0
0.00222612 0.00230203 0
0.00258713 0.00254351 0
0.00296826 0.00279524 0
0.00337118 0.00305664 0
0.00379785 0.00332658 0
0.00425045 0.00360349 0
0.00473139 0.00388521 0
0.0052432 0.00416895 0
0.0057881 0.00445204 0
0.00636753 0.00473281 0
0.00698281 0.00500961 0
0.00763526 0.00528058 0
0.00832616 0.00554366 0
0.00905691 0.00579603 0
0.00982918 0.00603333 0
0.0106445 0.00625033 0
0.0115038 0.00644128 0
0.0124073 0.00660297 0
0.0133543 0.00673414 0
0.0143444 0.00683382 0
0.0153769 0.00690031 0
0.0164512 0.00693173 0
0.0175666 0.00692547 0
0.0187219 0.00687822 0
0.0199156 0.00678477 0
0.0211454 0.00663864 0
0.0224084 0.00643275 0
0.0237018 0.00616676 0
0.0250249 0.00584739 0
0.026375 0.00547298 0
0.0277479 0.00503752 0
0.0291386 0.00453545 0
0.0305433 0.0039653 0
0.0319572 0.0033256 0
0.0333681 0.00260019 0
0.034775 0.00179799 0
0.0361793 0.000930615 0
0.0375798 3.12222e-06 0
0.0389689 -0.000988429 0
0.0403357 -0.00205109 0
0.041675 -0.00318283 0
0.0429849 -0.00437751 0
0.0442643 -0.00562904 0
0.0455126 -0.00693089 0
0.0467314 -0.00827518 0
0.0479204 -0.00965638 0
0.0490661 -0.0110799 0
0.0501515 -0.0125519 0
0.0511696 -0.0140695 0
0.0521492 -0.0156071 0
0.0531202 -0.0171411 0
0.0540851 -0.0186663 0
0.0550431 -0.0201798 0
0.0559923 -0.0216793 0
0.0569311 -0.0231626 0
0.0578582 -0.0246273 0
0.0587723 -0.0260715 0
0.0596721 -0.027493 0
0.0605563 -0.02889 0
0.0614241 -0.0302609 0
0.0622742 -0.0316042 0
0.063106 -0.0329183 0
0.0639186 -0.034202 0
0.0647113 -0.0354543 0
0.0654835 -0.0366743 0
0.0662345 -0.0378613 0
0.0669642 -0.0390145 0
0.0676726 -0.0401333 0
0.0683597 -0.0412172 0
0.0690246 -0.0422665 0
0.0696662 -0.0432819 0
0.0702841 -0.0442636 0
0.0708793 -0.0452111 0
0.0714538 -0.0461237 0
0.072009 -0.047001 0
0.0725452 -0.0478434 0
0.0730611 -0.0486524 0
0.073556 -0.0494294 0
0.0740291 -0.0501756 0
0.0744812 -0.0508916 0
0.0749138 -0.0515773 0
0.0753285 -0.0522331 0
0.0757266 -0.0528592 0
0.076109 -0.0534564 0
0.0764753 -0.0540264 0
0.0768243 -0.054571 0
0.0771553 -0.0550919 0
0.0774679 -0.0555901 0
0.0777617 -0.0560669 0
0.0780369 -0.056523 0
0.0782958 -0.0569578 0
0.0785421 -0.0573703 0
0.0787786 -0.0577603 0
0.0790073 -0.0581279 0
0.0792295 -0.058474 0
0.0794462 -0.0587995 0
0.0798803 -0.0594162 0
0.0800272 -0.0596588 0
0.0800357 -0.0598891 0
0.0799275 -0.0600784 0
0.0797205 -0.0601773 0
0.0794593 -0.0601051 0
0.0789155 -0.0596491 0
0.0786707 -0.0593963 0
0.0784111 -0.0591319 0
0.0781372 -0.0588542 0
0.0778566 -0.0585548 0
0.0775715 -0.0582308 0
0.0772803 -0.0578828 0
0.0769832 -0.0575099 0
0.0766822 -0.0571097 0
0.0763801 -0.0566796 0
0.0760759 -0.0562196 0
0.0757623 -0.0557337 0
0.0754359 -0.0552232 0
0.0750951 -0.0546879 0
0.0747379 -0.054128 0
0.0743626 -0.0535435 0
0.0739688 -0.0529338 0
0.0735559 -0.0522981 0
0.0731238 -0.0516357 0
0.0726718 -0.050946 0
0.0721991 -0.0502288 0
0.0717046 -0.049484 0
0.0711872 -0.0487117 0
0.0706461 -0.047912 0
0.0700804 -0.0470849 0
0.0694892 -0.0462308 0
0.0688718 -0.0453499 0
0.0682271 -0.0444431 0
0.0675544 -0.043511 0
0.0668527 -0.0425546 0
0.0661215 -0.0415748 0
0.06536 -0.040573 0
0.0645676 -0.0395504 0
0.0637439 -0.0385087 0
0.0628887 -0.0374493 0
0.062002 -0.0363741 0
0.0610838 -0.0352847 0
0.0601345 -0.0341831 0
0.0591547 -0.033071 0
0.0581456 -0.0319502 0
0.0571083 -0.0308224 0
0.0560444 -0.0296893 0
0.0549562 -0.028552 0
0.053845 -0.0274126 0
0.0527113 -0.0262746 0
0.051554 -0.0251427 0
0.0503724 -0.0240222 0
0.0491675 -0.0229164 0
0.047941 -0.0218282 0
0.0466955 -0.0207597 0
0.0454337 -0.0197126 0
0.0441592 -0.0186878 0
0.0428751 -0.0176863 0
0.0415841 -0.0167097 0
0.0402878 -0.0157609 0
0.0389879 -0.0148428 0
0.0376864 -0.0139575 0
0.0363853 -0.013107 0
0.0350871 -0.0122931 0
0.0337942 -0.0115164 0
0.0325095 -0.0107772 0
0.0312357 -0.0100756 0
0.0299758 -0.00941024 0
0.0287337 -0.00877784 0
0.0275126 -0.00817571 0
0.0263139 -0.00760375 0
0.0251376 -0.00706528 0
0.0239829 -0.0065649 0
0.0228537 -0.00609619 0
0.0217522 -0.00565563 0
0.0206795 -0.00524226 0
0.0196364 -0.00485507 0
0.0186233 -0.00449318 0
0.0176408 -0.00415577 0
0.016689 -0.00384204 0
0.0157682 -0.00355115 0
0.0148783 -0.00328218 0
0.0140192 -0.00303468 0
0.0131906 -0.00280795 0
0.0123925 -0.00260016 0
0.0116246 -0.00241012 0
0.0108864 -0.00223769 0
0.0101774 -0.00208212 0
0.00949701 -0.00194206 0
0.00884483 -0.0018163 0
0.0082202 -0.0017039 0
0.00762247 -0.00160391 0
0.00705097 -0.00151528 0
0.006505 -0.00143697 0
0.0059838 -0.00136806 0
0.00548662 -0.00130772 0
0.00501265 -0.00125519 0
0.00456114 -0.00120954 0
0.00413136 -0.00116914 0
0.00372257 -0.00113251 0
0.00333398 -0.00109853 0
0.00296466 -0.00106798 0
0.00261363 -0.0010431 0
-0.052721 -0.0445996 0
-0.0508204 -0.0440823 0
-0.0489199 -0.0435651 0
-0.0470193 -0.0430478 0
-0.0451187 -0.0425306 0
-0.0432181 -0.0420134 0
-0.0413175 -0.0414961 0
-0.039417 -0.0409789 0
-0.0375164 -0.0404616 0
-0.0356158 -0.0399444 0
-0.0337152 -0.0394271 0
-0.0318146 -0.0389099 0
-0.0299141 -0.0383927 0
-0.0280135 -0.0378754 0
-0.0261129 -0.0373582 0
-0.0242123 -0.0368409 0
-0.0223117 -0.0363237 0
-0.0204112 -0.0358065 0
-0.0185106 -0.0352892 0
-0.01661 -0.034772 0
-0.0147094 -0.0342547 0
-0.0128088 -0.0337375 0
-0.0109083 -0.0332202 0
-0.00900769 -0.032703 0
-0.00710711 -0.0321858 0
-0.00520653 -0.0316685 0
-0.00330595 -0.0311513 0
-0.00140537 -0.030634 0
0.00190689 -0.0299614 0
0.00332271 -0.0298498 0
0.00474133 -0.0297825 0
0.00616136 -0.0297597 0
0.0075814 -0.0297814 0
0.00900007 -0.0298477 0
0.010416 -0.0299583 0
0.0118278 -0.0301127 0
0.0132342 -0.0303103 0
0.0146339 -0.0305504 0
0.0160259 -0.0308322 0
0.0174091 -0.0311546 0
0.0187824 -0.0315166 0
0.020145 -0.031917 0
0.0214961 -0.0323546 0
0.0228351 -0.032828 0
0.0241613 -0.0333361 0
0.0254744 -0.0338774 0
0.0267738 -0.0344507 0
0.0280592 -0.0350545 0
0.0293306 -0.0356877 0
0.0305875 -0.0363488 0
0.0318301 -0.0370367 0
0.0330581 -0.0377501 0
0.0342717 -0.0384879 0
0.0354708 -0.0392489 0
0.0366556 -0.0400321 0
0.0378262 -0.0408363 0
0.0389828 -0.0416607 0
0.0401254 -0.0425042 0
0.0412543 -0.0433659 0
0.0423698 -0.0442451 0
0.043472 -0.0451408 0
0.0445612 -0.0460523 0
0.0456375 -0.0469789 0
0.0467013 -0.0479199 0
0.0477529 -0.0488746 0
0.0487923 -0.0498424 0
0.04982 -0.0508227 0
0.0508362 -0.051815 0
0.051841 -0.0528187 0
0.0528348 -0.0538333 0
0.0538178 -0.0548584 0
0.0547903 -0.0558935 0
0.0557524 -0.0569382 0
0.0567045 -0.0579922 0
0.0576467 -0.0590549 0
0.0585792 -0.0601261 0
0.0595024 -0.0612055 0
0.0604163 -0.0622926 0
0.0613212 -0.0633873 0
0.0622174 -0.0644891 0
0.0631049 -0.0655979 0
0.0639841 -0.0667134 0
0.064855 -0.0678353 0
0.0657179 -0.0689633 0
0.0665729 -0.0700974 0
0.0674202 -0.0712372 0
0.06826 -0.0723826 0
0.0690925 -0.0735333 0
0.0699178 -0.0746892 0
0.070736 -0.0758501 0
0.0715473 -0.0770159 0
0.0723518 -0.0781863 0
0.0731498 -0.0793612 0
0.0739412 -0.0805405 0
0.0747264 -0.081724 0
0.0755053 -0.0829116 0
0.0762781 -0.0841033 0
0.0770449 -0.0852987 0
0.0778059 -0.0864979 0
0.0785611 -0.0877007 0
0.0793108 -0.088907 0
0.0814681 -0.0912706 0
0.0828814 -0.0924245 0
0.0842946 -0.0935783 0
0.0857079 -0.0947322 0
0.0871211 -0.095886 0
0.0885344 -0.0970399 0
0.0899476 -0.0981937 0
0.0913609 -0.0993476 0
0.0927741 -0.100501 0
0.0941874 -0.101655 0
0.0956006 -0.102809 0
0.0970139 -0.103963 0
0.0984272 -0.105117 0
0.0998404 -0.106271 0
0.101254 -0.107424 0
0.102667 -0.108578 0
0.10408 -0.109732 0
0.105493 -0.110886 0
0.106907 -0.11204 0
0.10832 -0.113194 0
0.109733 -0.114348 0
0.111146 -0.115501 0
0.11256 -0.116655 0
0.113973 -0.117809 0
0.115386 -0.118963 0
0.116799 -0.120117 0
0.118213 -0.121271 0
0.119626 -0.122424 0
0.121039 -0.123578 0
0.122452 -0.124732 0
0.123866 -0.125886 0
0.125279 -0.12704 0
0.126692 -0.128194 0
0.128105 -0.129348 0
0.129519 -0.130501 0
0.130932 -0.131655 0
0.132345 -0.132809 0
0.133758 -0.133963 0
0.135172 -0.133216 0
0.135172 -0.131316 0
0.135172 -0.129415 0
0.135172 -0.127514 0
0.135172 -0.125614 0
0.135172 -0.123713 0
0.135172 -0.121813 0
0.135172 -0.119912 0
0.135172 -0.118012 0
0.135172 -0.116111 0
0.135172 -0.11421 0
0.135172 -0.11231 0
0.135172 -0.110409 0
0.135172 -0.108509 0
0.135172 -0.106608 0
0.135172 -0.104708 0
0.135172 -0.102807 0
0.135172 -0.100906 0
0.135172 -0.0990058 0
0.135172 -0.0971052 0
0.135172 -0.0952046 0
0.135172 -0.0933041 0
0.135172 -0.0914035 0
0.135172 -0.0895029 0
0.135172 -0.0876023 0
0.135172 -0.0857017 0
0.135172 -0.0838012 0
0.135172 -0.0819006 0
0.133758 -0.0788462 0
0.132345 -0.0776923 0
0.130932 -0.0765385 0
0.129519 -0.0753846 0
0.128105 -0.0742308 0
0.126692 -0.0730769 0
0.125279 -0.0719231 0
0.123866 -0.0707692 0
0.122452 -0.0696154 0
0.121039 -0.0684615 0
0.119626 -0.0673077 0
0.118213 -0.0661538 0
0.116799 -0.065 0
0.115386 -0.0638462 0
0.113973 -0.0626923 0
0.11256 -0.0615385 0
0.111146 -0.0603846 0
0.109733 -0.0592308 0
0.10832 -0.0580769 0
0.106907 -0.0569231 0
0.105493 -0.0557692 0
0.10408 -0.0546154 0
0.102667 -0.0534615 0
0.101254 -0.0523077 0
0.0998404 -0.0511538 0
0.0984272 -0.05 0
0.0970139 -0.0488462 0
0.0956006 -0.0476923 0
[...]
CELL_DATA 13116
SCALARS rho float
LOOKUP_TABLE default
0.467458
0.575535
0.38856
0.59365
0.594658
0.652859
0.386616
0.604563
0.443157
0.594405
0.377467
0.411368
0.594848
0.408456
0.390958
0.651126
0.446452
0.587356
0.613409
0.362024
0.469782
0.368071
0.411214
0.589061
0.514948
0.594204
0.59433
0.381601
0.51269
0.547262
0.679536
0.415716
0.467805
0.37436
0.38741
0.468868
0.565003
0.59887
0.664936
0.607412
0.629834
0.603283
0.358154
0.400689
0.609364
0.612077
0.568067
0.609286
0.380856
0.438314
0.602941
0.36955
0.39656
0.440708
0.466603
0.494263
0.402754
0.587329
0.449921
0.39268
0.408867
0.595442
0.571653
0.666222
0.675671
0.400079
0.618224
0.569125
0.612611
0.673971
0.389526
0.49473
0.36391
0.407349
0.685454
0.381384
0.553205
0.597648
0.381128
0.585039
0.575945
0.590648
0.589459
0.603522
0.597599
0.368333
0.387509
0.565877
0.59766
0.370269
0.416889
0.576905
0.591166
0.602001
0.550688
0.506538
0.517129
0.681438
0.683383
0.505435
0.573132
0.526179
0.624066
0.353057
0.564782
0.411461
0.299685
0.397842
0.396671
0.521751
0.423796
0.582027
0.504734
0.577707
0.58555
0.615514
0.398348
0.328826
0.599884
0.610873
0.56906
0.357694
0.611621
0.415778
0.601186
0.369298
0.39021
0.426042
0.401995
0.439682
0.600105
0.58905
0.418118
0.377351
0.399991
0.500329
0.697081
0.607346
0.572426
0.610733
0.540139
0.570181
0.424984
0.541771
0.562007
0.412446
0.386663
0.587836
0.592829
0.605193
0.456012
0.604252
0.610478
0.380187
0.5932
0.599449
0.40914
0.577525
0.681155
0.565942
0.588496
0.378281
0.589065
0.407983
0.354828
0.596883
0.599164
0.586959
0.387314
0.383309
0.351062
0.696562
0.395727
0.411321
0.617673
0.411727
0.376992
0.366548
0.579686
0.656814
0.355599
0.362915
0.442948
0.564804
0.654992
0.448133
0.378253
0.626899
0.563429
0.384525
0.543893
0.586652
0.672007
0.405988
0.580064
0.655619
0.592491
0.623765
0.596634
0.32244
0.352755
0.526529
0.42144
0.409228
0.591762
0.59928
0.37751
0.515451
0.404241
0.366477
0.381003
0.631238
0.40718
0.350937
0.367012
0.380729
0.30979
0.665535
0.600264
0.357279
0.403054
0.619686
0.418436
0.355164
0.466161
0.594929
0.560127
0.382893
0.618232
0.32366
0.606031
0.415776
0.674477
0.485219
0.683104
0.603987
0.670567
0.386036
0.365468
0.565657
0.68727
0.657065
0.695055
0.671127
0.606066
0.377779
0.604492
0.5939
0.682498
0.379288
0.381499
0.602613
0.601099
0.676347
0.599542
0.456756
0.578813
0.376792
0.397336
0.323361
0.405175
0.555149
0.592317
0.552404
0.382066
0.607359
0.390099
0.359478
0.56593
0.37324
0.591603
0.601801
0.689485
0.587152
0.385458
0.689921
0.579743
0.682024
0.607436
0.37738
0.380621
0.405682
0.496725
0.360602
0.371246
0.279047
0.372487
0.590913
0.399591
0.599954
0.596869
0.372706
0.359119
0.386778
0.377393
0.375737
0.564763
0.513533
0.574668
0.371698
0.630374
0.49507
0.404635
0.391246
0.661271
0.601793
0.626568
0.377133
0.65355
0.35852
0.589235
0.602297
0.60583
0.602414
0.404732
0.61976
0.403025
0.638209
0.594072
0.565991
0.36427
0.278802
0.594344
0.388868
0.580693
0.595614
0.327764
0.58041
0.589207
0.381719
0.606712
0.591084
0.407234
0.600803
0.367331
0.483938
0.607956
0.3737
0.57782
0.381733
0.587489
0.286637
0.669073
0.533821
0.593129
0.384567
0.301164
0.598846
0.380004
0.593006
0.568264
0.356679
0.696791
0.377738
0.370312
0.595699
0.46688
0.568282
0.382997
0.407955
0.604797
0.596663
0.383846
0.599526
0.401601
0.409646
0.612611
0.607194
0.391405
0.359718
0.60592
0.678286
0.65136
0.604714
0.588858
0.456586
0.343139
0.403744
0.355516
0.653284
0.3549
0.441297
0.314891
0.407994
0.296723
0.399259
0.251204
0.37799
0.598901
0.406697
0.589637
0.512521
0.61665
0.559094
0.603198
0.36993
0.379887
0.328319
0.338672
0.59297
0.501192
0.62358
0.513162
0.562846
0.525374
0.589289
0.531952
0.545083
0.588787
0.584598
0.657504
0.329094
0.384362
0.464233
0.371409
0.510822
0.492888
0.396539
0.61676
0.688793
0.405124
0.360061
0.368605
0.375117
0.534382
0.391901
0.40603
0.625418
0.39979
0.485276
0.373108
0.649054
0.578293
0.371093
0.374954
0.59504
0.377859
0.372158
0.375624
0.355226
0.396423
0.37782
0.359238
0.36289
0.359819
0.372786
0.524088
0.351133
0.598565
0.304125
0.412914
0.419739
0.413554
0.371358
0.414392
0.608757
0.365775
0.543155
0.402079
0.397393
0.517607
0.598698
0.367456
0.580002
0.526945
0.526283
0.374602
0.682954
0.329102
0.588539
0.680435
0.398921
0.398356
0.561382
0.337306
0.374712
0.536174
0.300469
0.576771
0.565522
0.360164
0.375997
0.396463
0.407564
0.391
0.404542
0.393793
0.403407
0.597009
0.595498
0.382298
0.508035
0.399772
0.577563
0.299672
0.387379
0.446873
0.397747
0.595108
0.249271
0.312418
0.414298
0.607698
0.597084
0.472812
0.322655
0.39679
0.479486
0.604172
0.672243
0.476352
0.562904
0.553407
0.371704
0.577521
0.481465
0.564715
0.37201
0.375818
0.576986
0.592535
0.55815
0.594817
0.591659
0.597021
0.587657
0.56486
0.61818
0.353456
0.606878
0.28274
0.403127
0.349463
0.592885
0.600791
0.376392
0.597079
0.526958
0.362082
0.667874
0.60237
0.585846
0.381933
0.386204
0.596376
0.371302
0.35964
0.413841
0.370298
0.592189
0.405698
0.592115
0.351434
0.574806
0.603242
0.617021
0.596002
0.370252
0.356502
0.599237
0.605437
0.559402
0.597016
0.59368
0.413881
0.379996
0.3937
0.640729
0.44439
0.366547
0.37794
0.410429
0.605523
0.622651
0.372866
0.366531
0.59656
0.382303
0.59951
0.559116
0.403127
0.324794
0.556471
0.688243
0.405866
0.595747
0.599404
0.599712
0.382947
0.694933
0.405403
0.683787
0.563706
0.35889
0.30993
0.36863
0.682569
0.39475
0.385615
0.328842
0.665926
0.586901
0.384668
0.392171
0.372283
0.666649
0.363294
0.65594
0.412358
0.497998
0.594852
0.30624
0.408561
0.410695
0.414427
0.391697
0.595157
0.379953
0.388007
0.655188
0.398184
0.633872
0.577233
0.682371
0.347394
0.595879
0.590745
0.592343
0.63732
0.605812
0.61345
0.415498
0.673406
0.359319
0.592132
0.376702
0.605741
0.423667
0.389983
0.676915
0.591273
0.383175
0.533184
0.416568
0.389475
0.627097
0.608603
0.415101
0.413949
0.382875
0.415715
0.605719
0.589133
0.383431
0.363202
0.592488
0.608202
0.499713
0.590487
0.626486
0.377681
0.593333
0.356764
0.602972
0.330855
0.503929
0.400823
0.621435
0.569267
0.488584
0.31381
0.386248
0.619578
0.512877
0.443122
0.590138
0.404941
0.579699
0.592927
0.301847
0.382079
0.591214
0.337996
0.675204
0.566485
0.2748
0.608478
0.549244
0.375757
0.585129
0.40654
0.593721
0.39312
0.633502
0.570681
0.388019
0.665289
0.589415
0.59491
0.528233
0.580804
0.493712
0.362066
0.359207
0.386715
0.408481
0.699812
0.468887
0.610411
0.592617
0.350685
0.351273
0.584101
0.594718
0.594542
0.60221
0.36649
0.58466
0.59401
0.358859
0.357812
0.59921
0.603628
0.595557
0.415172
0.500121
0.36909
0.583945
0.577882
0.671964
0.583706
0.369365
0.587199
0.599497
0.590473
0.606995
0.637066
0.355106
0.588835
0.36598
0.548615
0.594277
0.382894
0.566155
0.670763
0.603618
0.354283
0.345322
0.495078
0.552461
0.369411
0.363272
0.373941
0.373078
0.575117
0.579307
0.670774
0.371706
0.374107
0.613079
0.576678
0.406822
0.35206
0.38539
0.565752
0.623059
0.603755
0.584062
0.365981
0.369435
0.693788
0.415234
0.35034
0.381135
0.63974
0.369508
0.372631
0.487513
0.595782
0.578682
0.660039
0.631748
0.397574
0.396463
0.37157
0.40391
0.365248
0.4159
0.568098
0.583338
0.589769
0.624241
0.415238
0.350469
0.594706
0.359632
0.639668
0.570933
0.679602
0.414735
0.353256
0.590169
0.678294
0.480823
0.407012
0.59945
0.658005
0.483874
0.605256
0.60367
0.692049
0.561773
0.364986
0.633456
0.676462
0.532633
0.583663
0.699641
0.582406
0.691297
0.608005
0.389001
0.37962
0.352712
0.678184
0.423142
0.363195
0.584514
0.591979
0.411795
0.539226
0.366968
0.54491
0.395855
0.384144
0.594898
0.58864
0.368383
0.464446
0.678067
0.407618
0.601913
0.405229
0.410628
0.522047
0.514982
0.419565
0.621838
0.375153
0.589069
0.378444
0.413973
0.63571
0.367708
0.510441
0.411776
0.539111
0.505343
0.692224
0.597835
0.401169
0.388103
0.53737
0.360232
0.593954
0.382232
0.500002
0.651845
0.590269
0.371034
0.519468
0.579538
0.592749
0.614828
0.289247
0.362485
0.455809
0.580175
0.592882
0.309778
0.624279
0.482369
0.328156
0.413519
0.567207
0.566096
0.693657
0.683493
0.535887
0.579034
0.663277
0.57121
0.414419
0.558099
0.383365
0.607443
0.60372
0.380732
0.608827
0.595656
0.376791
0.393115
0.387663
0.699331
0.379365
0.521468
0.587027
0.559265
0.397758
0.595783
0.410115
0.500066
0.667283
0.67288
0.566804
0.666934
0.524139
0.575081
0.440749
0.591969
0.394483
0.643292
0.617928
0.345397
0.689057
0.58096
0.404836
0.402529
0.405921
0.605608
0.368281
0.689385
0.371527
0.604975
0.398416
0.401334
0.414372
0.588084
0.601764
0.454967
0.402114
0.524326
0.664505
0.36216
0.498949
0.594919
0.41556
0.496793
0.680458
0.594893
0.636314
0.399405
0.395311
0.593995
0.613658
0.549269
0.369422
0.341379
0.600953
0.695202
0.688273
0.696241
0.464063
0.589209
0.459866
0.608741
0.371383
0.409716
0.695591
0.59445
0.664957
0.404001
0.640315
0.47201
0.509157
0.384544
0.345936
0.599146
0.598493
0.469277
0.333548
0.621809
0.687531
0.386389
0.51711
0.583873
0.385683
0.412497
0.401783
0.568021
0.363273
0.351725
0.604987
0.388379
0.59322
0.544367
0.388314
0.377039
0.598006
0.37705
0.391203
0.678467
0.41036
0.300015
0.499877
0.605533
0.594075
0.373762
0.362525
0.378168
0.577798
0.411219
0.594846
0.394851
0.585901
0.600916
0.607208
0.568968
0.584526
0.5766
0.624764
0.595964
0.596991
0.404407
0.368065
0.578769
0.663033
0.424854
0.570972
0.470911
0.664798
0.531457
0.371981
0.612593
0.59507
0.593578
0.380359
0.587113
0.368911
0.602174
0.416712
0.585496
0.63438
0.383586
0.591793
0.370765
0.365047
0.571445
0.381943
0.577456
0.699415
0.606567
0.37723
0.626312
0.371681
0.417919
0.406631
0.365611
0.528759
0.396118
0.542192
0.670036
0.334482
0.404735
0.407958
0.492107
0.535724
0.554371
0.346579
0.394116
0.383296
0.414263
0.402497
0.535756
0.585888
0.378622
0.668626
0.586869
0.402096
0.594109
0.576068
0.669031
0.373834
0.68484
0.579818
0.58955
0.606782
0.389337
0.593436
0.591232
0.587534
0.567642
0.657674
0.372839
0.405533
0.605899
0.453759
0.354758
0.638408
0.411237
0.48376
0.531527
0.592257
0.594601
0.416439
0.569652
0.322528
0.37971
0.581219
0.594345
0.591672
0.60412
0.558993
0.418897
0.595302
0.397148
0.423713
0.597031
0.683665
0.594047
0.378662
0.396666
0.59423
0.39337
0.596464
0.551526
0.360826
0.361152
0.610987
0.412048
0.634894
0.59598
0.558465
0.411597
0.377227
0.422542
0.435276
0.525667
0.394886
0.652207
0.555735
0.60056
0.700569
0.585742
0.392595
0.362432
0.597358
0.658131
0.545358
0.382829
0.408604
0.575328
0.398208
0.624686
0.523519
0.345032
0.59259
0.374871
0.602137
0.385803
0.592935
0.38729
0.598491
0.659148
0.411175
0.601638
0.551849
0.402129
0.671545
0.614968
0.469497
0.41314
0.303672
0.389236
0.591108
0.54214
0.347868
0.49632
0.586986
0.656096
0.396861
0.517836
0.586744
0.381868
0.652563
0.637666
0.385658
0.600024
0.680972
0.390481
0.505821
0.371868
0.544395
0.376326
0.40951
0.592226
0.35636
0.371525
0.401256
0.621143
0.579878
0.335907
0.620071
0.304047
0.568545
0.369949
0.581393
0.314636
0.649934
0.606206
0.552282
0.672588
0.467524
0.659795
0.669196
0.383587
0.541991
0.555374
0.415373
0.585524
0.413653
0.350609
0.595202
0.359731
0.483946
0.366457
0.624256
0.404347
0.406967
0.588618
0.628501
0.358268
0.608436
0.583197
0.699499
0.602742
0.683745
0.363487
0.593759
0.351669
0.407274
0.599613
0.584984
0.603768
0.598437
0.41557
0.378579
0.379714
0.577788
0.670805
0.303636
0.606942
0.401458
0.377817
0.38242
0.598788
0.330417
0.595456
0.596288
0.540885
0.607726
0.597071
0.484571
0.549079
0.362989
0.404222
0.356083
0.683898
0.685168
0.404381
0.535215
0.566235
0.549211
0.400406
0.352627
0.558167
0.237445
0.552226
0.516826
0.348249
0.663743
0.576498
0.360658
0.594119
0.392153
0.611329
0.593692
0.585391
0.398792
0.391829
0.576357
0.381893
0.367425
0.609437
0.37934
0.661994
0.615622
0.590392
0.583354
0.338819
0.677675
0.58074
0.614201
0.304731
0.602367
0.375105
0.411843
0.596728
0.622611
0.670331
0.201998
0.632813
0.541384
0.685749
0.395749
0.402869
0.370693
0.606398
0.38356
0.397359
0.377283
0.51525
0.394106
0.378825
0.367723
0.595771
0.351616
0.672411
0.667298
0.608544
0.377195
0.603834
0.556015
0.668941
0.347315
0.565919
0.386177
0.359835
0.628417
0.360084
0.532916
0.585131
0.693119
0.349704
0.278152
0.382038
0.475422
0.695377
0.199904
0.599149
0.622727
0.584385
0.368512
0.397955
0.290054
0.546205
0.3697
0.70054
0.51664
0.665448
0.602039
0.378346
0.534435
0.415697
0.504241
0.552983
0.594725
0.497767
0.413062
0.56599
0.548316
0.597509
0.369309
0.305941
0.401324
0.585063
0.449434
0.683707
0.347613
0.337328
0.588257
0.603024
0.674442
0.35748
0.607937
0.473835
0.47697
0.544115
0.395344
0.356162
0.385724
0.621741
0.669628
0.5665
0.575964
0.289653
0.607
0.560917
0.669232
0.670291
0.606499
0.595102
0.656208
0.584745
0.591028
0.397349
0.606036
0.603649
0.649535
0.602275
0.621259
0.495623
0.3569
0.412076
0.537016
0.35964
0.334609
0.607186
0.39069
0.543846
0.614608
0.575424
0.594548
0.403734
0.606951
0.40291
0.408561
0.654304
0.589889
0.623395
0.379418
0.600724
0.621608
0.539934
0.628584
0.373342
0.653046
0.594346
0.574968
0.323791
0.587142
0.375009
0.594274
0.383212
0.354685
0.451097
0.376535
0.594857
0.588192
0.638975
0.377865
0.654941
0.337596
0.393002
0.591615
0.410835
0.369455
0.629176
0.401142
0.43275
0.567519
0.563908
0.592264
0.410425
0.508064
0.558248
0.644382
0.494203
0.591901
0.452817
0.608288
0.574297
0.551218
0.415415
0.381363
0.375175
0.603983
0.404506
0.564847
0.607925
0.511943
0.642105
0.444047
0.577006
0.572371
0.374944
0.609016
0.565972
0.421477
0.566787
0.594703
0.595502
0.660571
0.366789
0.388189
0.59152
0.45237
0.462372
0.608392
0.60138
0.61899
0.592551
0.593512
0.527868
0.554975
0.594314
0.398662
0.408862
0.40647
0.353978
0.68959
0.38528
0.456637
0.592713
0.576077
0.404004
0.594551
0.592
0.382602
0.317089
0.687925
0.605859
0.391159
0.414823
0.414298
0.700579
0.593207
0.327146
0.392817
0.351869
0.409161
0.34487
0.359485
0.60719
0.607225
0.582094
0.370515
0.576465
0.515912
0.520987
0.358232
0.362956
0.59113
0.696334
0.37313
0.650925
0.359465
0.58848
0.397732
0.608004
0.368556
0.590332
0.599062
0.377041
0.4786
0.37311
0.593858
0.411626
0.519913
0.412078
0.426215
0.385654
0.512354
0.361525
0.673777
0.671694
0.519347
0.583815
0.356834
0.582335
0.663526
0.599908
0.513656
0.569098
0.361864
0.351478
0.402965
0.591175
0.248531
0.595507
0.463532
0.584686
0.594995
0.390246
0.589096
0.391306
0.406607
0.397466
0.429943
0.451724
0.600073
0.370464
0.372798
0.640021
0.316228
0.413591
0.479164
0.315422
0.372158
0.412402
0.603306
0.557886
0.523602
0.410628
0.579479
0.619921
0.413759
0.272161
0.59965
0.636412
0.504497
0.436083
0.342422
0.303767
0.378479
0.605331
0.536116
0.441903
0.57955
0.401997
0.483318
0.377669
0.676028
0.59663
0.357824
0.394511
0.541479
0.474041
0.596658
0.591257
0.591669
0.607031
0.596386
0.381651
0.370079
0.403142
0.376814
0.461654
0.680199
0.559256
0.372489
0.347784
0.379379
0.412837
0.617773
0.562197
0.371203
0.368994
0.615489
0.405232
0.557244
0.589318
0.579904
0.656365
0.47034
0.359399
0.372624
0.552058
0.355688
0.362964
0.33056
0.662443
0.612534
0.39693
0.351921
0.696677
0.362026
0.621508
0.591215
0.351812
0.376584
0.398808
0.613969
0.397996
0.699589
0.583397
0.512746
0.414299
0.449732
0.596552
0.597113
0.385568
0.592004
0.537784
0.42519
0.598571
0.604477
0.378586
0.351438
0.589672
0.36667
0.376098
0.585524
0.290246
0.606559
0.577158
0.590522
0.540887
0.59429
0.617075
0.66159
0.381653
0.341899
0.550896
0.59165
0.391503
0.594187
0.362207
0.60865
0.593565
0.483895
0.55299
0.351442
0.382564
0.595481
0.593778
0.572318
0.599489
0.622597
0.691563
0.603776
0.698359
0.605374
0.592947
0.605899
0.695262
0.660053
0.370293
0.591765
0.384857
0.611473
0.606616
0.5865
0.574941
0.582744
0.376968
0.380332
0.370629
0.383273
0.577045
0.365371
0.375173
0.57736
0.415083
0.584245
0.377788
0.586894
0.594168
0.35424
0.31915
0.343865
0.605499
0.407565
0.600017
0.591218
0.382974
0.589788
0.473162
0.320478
0.384878
0.413006
0.582836
0.349453
0.608973
0.440975
0.368977
0.617939
0.627953
0.591537
0.361202
0.489052
0.413334
0.57767
0.660158
0.61468
0.370029
0.59062
0.607901
0.57593
0.346642
0.605342
0.362502
0.37166
0.604803
0.38123
0.594062
0.351602
0.370959
0.370862
0.577924
0.392381
0.376912
0.390998
0.405946
0.683406
0.593187
0.408553
0.510541
0.618092
0.476066
0.356856
0.350131
0.475261
0.366097
0.372556
0.604194
0.373122
0.367822
0.605007
0.596362
0.381798
0.586314
0.381862
0.689419
0.378511
0.593593
0.673633
0.583719
0.665439
0.377705
0.375104
0.411809
0.656142
0.591884
0.505893
0.459439
0.311293
0.25915
0.647269
0.380518
0.606758
0.321172
0.673481
0.570263
0.373344
0.398906
0.370106
0.351748
0.396058
0.541922
0.577157
0.368753
0.603742
0.543634
0.366093
0.396531
0.594477
0.368835
0.596541
0.357106
0.583665
0.557909
0.604637
0.681919
0.38948
0.593499
0.610709
0.6026
0.358462
0.544088
0.512147
0.336307
0.604595
0.550309
0.609716
0.58146
0.596109
0.603748
0.60209
0.646623
0.615585
0.350775
0.590635
0.370462
0.386157
0.60909
0.41204
0.593427
0.554564
0.376524
0.575023
0.356232
0.417392
0.600943
0.543088
0.596662
0.371108
0.581969
0.528598
0.377761
0.369353
0.598861
0.621625
0.31936
0.383978
0.586066
0.595525
0.344092
0.547619
0.597834
0.559985
0.385143
0.362417
0.415199
0.559112
0.383295
0.592089
0.584946
0.644981
0.516965
0.59639
0.37002
0.596021
0.527763
0.599031
0.49592
0.402868
0.383222
0.406717
0.589062
0.592807
0.354679
0.55623
0.36185
0.553864
0.611595
0.405453
0.535913
0.592993
0.531041
0.372293
0.381464
0.354019
0.596152
0.594093
0.526536
0.435638
0.600891
0.371923
0.540569
0.688032
0.590083
0.373906
0.536235
0.375436
0.562633
0.408965
0.597152
0.601231
0.410295
0.598039
0.361988
0.695882
0.546277
0.700574
0.606143
0.358807
0.650145
0.627101
0.614274
0.597937
0.404892
0.688388
0.402466
0.623839
0.405411
0.352823
0.401812
0.397472
0.368079
0.372372
0.5975
0.306245
0.39654
0.561117
0.597898
0.579026
0.331599
0.580331
0.578886
0.658691
0.374684
0.502943
0.617575
0.353167
0.385288
0.373845
0.535672
0.429876
0.349296
0.504253
0.415069
0.682126
0.423575
0.393634
0.397309
0.554123
0.348102
0.621741
0.400773
0.406163
0.318154
0.605472
0.32857
0.557835
0.687367
0.557809
0.354245
0.366045
0.605474
0.595576
0.380969
0.418077
0.653187
0.352676
0.586779
0.370066
0.476462
0.407524
0.617779
0.368095
0.596825
0.352987
0.611188
0.598608
0.594676
0.689725
0.401839
0.409583
0.328406
0.595774
0.576689
0.577044
0.455369
0.374177
0.588255
0.349626
0.590174
0.530674
0.350553
0.364332
0.589799
0.598888
0.412871
0.678042
0.60722
0.590607
0.590561
0.40053
0.542712
0.372361
0.59123
0.386478
0.668902
0.588774
0.606326
0.597822
0.367789
0.595775
0.357416
0.377156
0.623152
0.6886
0.465956
0.593572
0.689531
0.371712
0.58779
0.604636
0.603128
0.416485
0.362714
0.577063
0.366492
0.607392
0.607298
0.595258
0.605681
0.246074
0.378822
0.553568
0.410709
0.594478
0.59374
0.399249
0.599774
0.399035
0.552736
0.588047
0.574672
0.601294
0.382357
0.405176
0.599339
0.590634
0.377692
0.356181
0.372783
0.408863
0.397524
0.405926
0.376028
0.356474
0.597605
0.404365
0.38365
0.585375
0.464386
0.69608
0.336186
0.348392
0.615547
0.394106
0.407102
0.593314
0.315998
0.562244
0.672343
0.521534
0.581632
0.4077
0.593775
0.666848
0.385586
0.372528
0.350891
0.552553
0.521121
0.595658
0.648721
0.590281
0.583179
0.301263
0.597001
0.665568
0.601998
0.358864
0.61551
0.513801
0.30383
0.365217
0.398949
0.414586
0.400178
0.503939
0.568501
0.579272
0.373639
0.324909
0.598571
0.412688
0.589625
0.624971
0.594807
0.57492
0.603036
0.355123
0.413969
0.415372
0.483036
0.39019
0.611272
0.414937
0.626702
0.653161
0.606362
0.361644
0.379315
0.355832
0.597973
0.381644
0.375742
0.6066
0.582095
0.53291
0.651324
0.598818
0.586445
0.361991
0.534666
0.593158
0.450553
0.59745
0.589573
0.587843
0.382066
0.357642
0.602992
0.420033
0.523736
0.370871
0.566461
0.597631
0.323446
0.382674
0.575065
0.431289
0.593309
0.589166
0.34903
0.357836
0.680339
0.328146
0.337459
0.600578
0.598656
0.374315
0.601941
0.680682
0.575107
0.355881
0.505129
0.362403
0.603735
0.596849
0.586485
0.576404
0.678304
0.374815
0.323309
0.584756
0.361087
0.520803
0.370445
0.603507
0.412075
0.552515
0.592727
0.680098
0.369123
0.69972
0.685393
0.377002
0.565801
0.413725
0.602496
0.371121
0.371405
0.412969
0.577728
0.608799
0.273399
0.382536
0.588914