# vtk DataFile Version 1.0
unstructured grid
ascii
DATASET UNSTRUCTURED_GRID
points 13672 float
0.0796578 -0.059106 0
0.00128732 0.00159165 0
0.00227961 -0.00102548 0
0.0791586 -0.0598787 0
-0.0546216 0.01 0
0.000495206 0.025 0
0.0800549 -0.035 0
0.135172 -0.08 0
-0.0546216 -0.0451168 0
0.000495206 -0.0301168 0
0.0800549 -0.0901168 0
0.135172 -0.135117 0
-0.0546216 -0.0451168 -0.00551168
0.000495206 -0.0301168 -0.00551168
0.0800549 -0.0901168 -0.00551168
0.135172 -0.135117 -0.00551168
0.135172 -0.08 -0.00551168
0.0800549 -0.035 -0.00551168
0.000495206 0.025 -0.00551168
-0.0546216 0.01 -0.00551168
0.00128732 0.00159165 -0.00551168
0.00227961 -0.00102548 -0.00551168
0.0791586 -0.0598787 -0.00551168
0.0796578 -0.059106 -0.00551168
0.00165953 -0.000990923 0
0.00119576 -0.000874076 0
0.000866021 -0.000641801 0
0.000645147 -0.000349912 0
0.00052235 -1.7281e-05 0
0.00049972 0.000348016 0
0.000601632 0.000737716 0
0.000861774 0.0011403 0
0.00157235 0.00183217 0
0.00188647 0.00206725 0
0.00222612 0.00230203 0
0.00258713 0.00254351 0
0.00296826 0.00279524 0
0.00337118 0.00305664 0
0.00379785 0.00332658 0
0.00425045 0.00360349 0
0.00473139 0.00388521 0
0.0052432 0.00416895 0
0.0057881 0.00445204 0
0.00636753 0.00473281 0
0.00698281 0.00500961 0
0.00763526 0.00528058 0
0.00832616 0.00554366 0
0.00905691 0.00579603 0
0.00982918 0.00603333 0
0.0106445 0.00625033 0
0.0115038 0.00644128 0
0.0124073 0.00660297 0
0.0133543 0.00673414 0
0.0143444 0.00683382 0
0.0153769 0.00690031 0
0.0164512 0.00693173 0
0.0175666 0.00692547 0
0.0187219 0.00687822 0
0.0199156 0.00678477 0
0.0211454 0.00663864 0
0.0224084 0.00643275 0
0.0237018 0.00616676 0
0.0250249 0.00584739 0
0.026375 0.00547298 0
0.0277479 0.00503752 0
0.0291386 0.00453545 0
0.0305433 0.0039653 0
0.0319572 0.0033256 0
0.0333681 0.00260019 0
0.034775 0.00179799 0
0.0361793 0.000930615 0
0.0375798 3.12222e-06 0
0.0389689 -0.000988429 0
0.0403357 -0.00205109 0
0.041675 -0.00318283 0
0.0429849 -0.00437751 0
0.0442643 -0.00562904 0
0.0455126 -0.00693089 0
0.0467314 -0.00827518 0
0.0479204 -0.00965638 0
0.0490661 -0.0110799 0
0.0501515 -0.0125519 0
0.0511696 -0.0140695 0
0.0521492 -0.0156071 0
0.0531202 -0.0171411 0
0.0540851 -0.0186663 0
0.0550431 -0.0201798 0
0.0559923 -0.0216793 0
0.0569311 -0.0231626 0
0.0578582 -0.0246273 0
0.0587723 -0.0260715 0
0.0596721 -0.027493 0
0.0605563 -0.02889 0
0.0614241 -0.0302609 0
0.0622742 -0.0316042 0
0.063106 -0.0329183 0
0.0639186 -0.034202 0
0.0647113 -0.0354543 0
0.0654835 -0.0366743 0
0.0662345 -0.0378613 0
0.0669642 -0.0390145 0
0.0676726 -0.0401333 0
0.0683597 -0.0412172 0
0.0690246 -0.0422665 0
0.0696662 -0.0432819 0
0.0702841 -0.0442636 0
0.0708793 -0.0452111 0
0.0714538 -0.0461237 0
0.072009 -0.047001 0
0.0725452 -0.0478434 0
0.0730611 -0.0486524 0
0.073556 -0.0494294 0
0.0740291 -0.0501756 0
0.0744812 -0.0508916 0
0.0749138 -0.0515773 0
0.0753285 -0.0522331 0
0.0757266 -0.0528592 0
0.076109 -0.0534564 0
0.0764753 -0.0540264 0
0.0768243 -0.054571 0
0.0771553 -0.0550919 0
0.0774679 -0.0555901 0
0.0777617 -0.0560669 0
0.0780369 -0.056523 0
0.0782958 -0.0569578 0
0.0785421 -0.0573703 0
0.0787786 -0.0577603 0
0.0790073 -0.0581279 0
0.0792295 -0.058474 0
0.0794462 -0.0587995 0
0.0798803 -0.0594162 0
0.0800272 -0.0596588 0
0.0800357 -0.0598891 0
0.0799275 -0.0600784 0
0.0797205 -0.0601773 0
0.0794593 -0.0601051 0
0.0789155 -0.0596491 0
0.0786707 -0.0593963 0
0.0784111 -0.0591319 0
0.0781372 -0.0588542 0
0.0778566 -0.0585548 0
0.0775715 -0.0582308 0
0.0772803 -0.0578828 0
0.0769832 -0.0575099 0
0.0766822 -0.0571097 0
0.0763801 -0.0566796 0
0.0760759 -0.0562196 0
0.0757623 -0.0557337 0
0.0754359 -0.0552232 0
0.0750951 -0.0546879 0
0.0747379 -0.054128 0
0.0743626 -0.0535435 0
0.0739688 -0.0529338 0
0.0735559 -0.0522981 0
0.0731238 -0.0516357 0
0.0726718 -0.050946 0
0.0721991 -0.0502288 0
0.0717046 -0.049484 0
0.0711872 -0.0487117 0
0.0706461 -0.047912 0
0.0700804 -0.0470849 0
0.0694892 -0.0462308 0
0.0688718 -0.0453499 0
0.0682271 -0.0444431 0
0.0675544 -0.043511 0
0.0668527 -0.0425546 0
0.0661215 -0.0415748 0
0.06536 -0.040573 0
0.0645676 -0.0395504 0
0.0637439 -0.0385087 0
0.0628887 -0.0374493 0
0.062002 -0.0363741 0
0.0610838 -0.0352847 0
0.0601345 -0.0341831 0
0.0591547 -0.033071 0
0.0581456 -0.0319502 0
0.0571083 -0.0308224 0
0.0560444 -0.0296893 0
0.0549562 -0.028552 0
0.053845 -0.0274126 0
0.0527113 -0.0262746 0
0.051554 -0.0251427 0
0.0503724 -0.0240222 0
0.0491675 -0.0229164 0
0.047941 -0.0218282 0
0.0466955 -0.0207597 0
0.0454337 -0.0197126 0
0.0441592 -0.0186878 0
0.0428751 -0.0176863 0
0.0415841 -0.0167097 0
0.0402878 -0.0157609 0
0.0389879 -0.0148428 0
0.0376864 -0.0139575 0
0.0363853 -0.013107 0
0.0350871 -0.0122931 0
0.0337942 -0.0115164 0
0.0325095 -0.0107772 0
0.0312357 -0.0100756 0
0.0299758 -0.00941024 0
0.0287337 -0.00877784 0
0.0275126 -0.00817571 0
0.0263139 -0.00760375 0
0.0251376 -0.00706528 0
0.0239829 -0.0065649 0
0.0228537 -0.00609619 0
0.0217522 -0.00565563 0
0.0206795 -0.00524226 0
0.0196364 -0.00485507 0
0.0186233 -0.00449318 0
0.0176408 -0.00415577 0
0.016689 -0.00384204 0
0.0157682 -0.00355115 0
0.0148783 -0.00328218 0
0.0140192 -0.00303468 0
0.0131906 -0.00280795 0
0.0123925 -0.00260016 0
0.0116246 -0.00241012 0
0.0108864 -0.00223769 0
0.0101774 -0.00208212 0
0.00949701 -0.00194206 0
0.00884483 -0.0018163 0
0.0082202 -0.0017039 0
0.00762247 -0.00160391 0
0.00705097 -0.00151528 0
0.006505 -0.00143697 0
0.0059838 -0.00136806 0
0.00548662 -0.00130772 0
0.00501265 -0.00125519 0
0.00456114 -0.00120954 0
0.00413136 -0.00116914 0
0.00372257 -0.00113251 0
0.00333398 -0.00109853 0
0.00296466 -0.00106798 0
0.00261363 -0.0010431 0
-0.052721 -0.0445996 0
-0.0508204 -0.0440823 0
-0.0489199 -0.0435651 0
-0.0470193 -0.0430478 0
-0.0451187 -0.0425306 0
-0.0432181 -0.0420134 0
-0.0413175 -0.0414961 0
-0.039417 -0.0409789 0
-0.0375164 -0.0404616 0
-0.0356158 -0.0399444 0
-0.0337152 -0.0394271 0
-0.0318146 -0.0389099 0
-0.0299141 -0.0383927 0
-0.0280135 -0.0378754 0
-0.0261129 -0.0373582 0
-0.0242123 -0.0368409 0
-0.0223117 -0.0363237 0
-0.0204112 -0.0358065 0
-0.0185106 -0.0352892 0
-0.01661 -0.034772 0
-0.0147094 -0.0342547 0
-0.0128088 -0.0337375 0
-0.0109083 -0.0332202 0
-0.00900769 -0.032703 0
-0.00710711 -0.0321858 0
-0.00520653 -0.0316685 0
-0.00330595 -0.0311513 0
-0.00140537 -0.030634 0
0.00190689 -0.0299614 0
0.00332271 -0.0298498 0
0.00474133 -0.0297825 0
0.00616136 -0.0297597 0
0.0075814 -0.0297814 0
0.00900007 -0.0298477 0
0.010416 -0.0299583 0
0.0118278 -0.0301127 0
0.0132342 -0.0303103 0
0.0146339 -0.0305504 0
0.0160259 -0.0308322 0
0.0174091 -0.0311546 0
0.0187824 -0.0315166 0
0.020145 -0.031917 0
0.0214961 -0.0323546 0
0.0228351 -0.032828 0
0.0241613 -0.0333361 0
0.0254744 -0.0338774 0
0.0267738 -0.0344507 0
0.0280592 -0.0350545 0
0.0293306 -0.0356877 0
0.0305875 -0.0363488 0
0.0318301 -0.0370367 0
0.0330581 -0.0377501 0
0.0342717 -0.0384879 0
0.0354708 -0.0392489 0
0.0366556 -0.0400321 0
0.0378262 -0.0408363 0
0.0389828 -0.0416607 0
0.0401254 -0.0425042 0
0.0412543 -0.0433659 0
0.0423698 -0.0442451 0
0.043472 -0.0451408 0
0.0445612 -0.0460523 0
0.0456375 -0.0469789 0
0.0467013 -0.0479199 0
0.0477529 -0.0488746 0
0.0487923 -0.0498424 0
0.04982 -0.0508227 0
0.0508362 -0.051815 0
0.051841 -0.0528187 0
0.0528348 -0.0538333 0
0.0538178 -0.0548584 0
0.0547903 -0.0558935 0
0.0557524 -0.0569382 0
0.0567045 -0.0579922 0
0.0576467 -0.0590549 0
0.0585792 -0.0601261 0
0.0595024 -0.0612055 0
0.0604163 -0.0622926 0
0.0613212 -0.0633873 0
0.0622174 -0.0644891 0
0.0631049 -0.0655979 0
0.0639841 -0.0667134 0
0.064855 -0.0678353 0
0.0657179 -0.0689633 0
0.0665729 -0.0700974 0
0.0674202 -0.0712372 0
0.06826 -0.0723826 0
0.0690925 -0.0735333 0
0.0699178 -0.0746892 0
0.070736 -0.0758501 0
0.0715473 -0.0770159 0
0.0723518 -0.0781863 0
0.0731498 -0.0793612 0
0.0739412 -0.0805405 0
0.0747264 -0.081724 0
0.0755053 -0.0829116 0
0.0762781 -0.0841033 0
0.0770449 -0.0852987 0
0.0778059 -0.0864979 0
0.0785611 -0.0877007 0
0.0793108 -0.088907 0
0.0814681 -0.0912706 0
0.0828814 -0.0924245 0
0.0842946 -0.0935783 0
0.0857079 -0.0947322 0
0.0871211 -0.095886 0
0.0885344 -0.0970399 0
0.0899476 -0.0981937 0
0.0913609 -0.0993476 0
0.0927741 -0.100501 0
0.0941874 -0.101655 0
0.0956006 -0.102809 0
0.0970139 -0.103963 0
0.0984272 -0.105117 0
0.0998404 -0.106271 0
0.101254 -0.107424 0
0.102667 -0.108578 0
0.10408 -0.109732 0
0.105493 -0.110886 0
0.106907 -0.11204 0
0.10832 -0.113194 0
0.109733 -0.114348 0
0.111146 -0.115501 0
0.11256 -0.116655 0
0.113973 -0.117809 0
0.115386 -0.118963 0
0.116799 -0.120117 0
0.118213 -0.121271 0
0.119626 -0.122424 0
0.121039 -0.123578 0
0.122452 -0.124732 0
0.123866 -0.125886 0
0.125279 -0.12704 0
0.126692 -0.128194 0
0.128105 -0.129348 0
0.129519 -0.130501 0
0.130932 -0.131655 0
0.132345 -0.132809 0
0.133758 -0.133963 0
0.135172 -0.133216 0
0.135172 -0.131316 0
0.135172 -0.129415 0
0.135172 -0.127514 0
0.135172 -0.125614 0
0.135172 -0.123713 0
0.135172 -0.121813 0
0.135172 -0.119912 0
0.135172 -0.118012 0
0.135172 -0.116111 0
0.135172 -0.11421 0
0.135172 -0.11231 0
0.135172 -0.110409 0
0.135172 -0.108509 0
0.135172 -0.106608 0
0.135172 -0.104708 0
0.135172 -0.102807 0
0.135172 -0.100906 0
0.135172 -0.0990058 0
0.135172 -0.0971052 0
0.135172 -0.0952046 0
0.135172 -0.0933041 0
0.135172 -0.0914035 0
0.135172 -0.0895029 0
0.135172 -0.0876023 0
0.135172 -0.0857017 0
0.135172 -0.0838012 0
0.135172 -0.0819006 0
0.133758 -0.0788462 0
0.132345 -0.0776923 0
0.130932 -0.0765385 0
0.129519 -0.0753846 0
0.128105 -0.0742308 0
0.126692 -0.0730769 0
0.125279 -0.0719231 0
0.123866 -0.0707692 0
0.122452 -0.0696154 0
0.121039 -0.0684615 0
0.119626 -0.0673077 0
0.118213 -0.0661538 0
0.116799 -0.065 0
0.115386 -0.0638462 0
0.113973 -0.0626923 0
0.11256 -0.0615385 0
0.111146 -0.0603846 0
0.109733 -0.0592308 0
0.10832 -0.0580769 0
0.106907 -0.0569231 0
0.105493 -0.0557692 0
0.10408 -0.0546154 0
0.102667 -0.0534615 0
0.101254 -0.0523077 0
0.0998404 -0.0511538 0
0.0984272 -0.05 0
0.0970139 -0.0488462 0
0.0956006 -0.0476923 0
[...]
CELL_DATA 13116
SCALARS rho float
LOOKUP_TABLE default
0.545371
0.654795
0.357594
0.707815
0.695683
0.678166
0.394035
0.696951
0.523739
0.70056
0.387619
0.367193
0.695995
0.391974
0.392598
0.678236
0.513514
0.690578
0.675375
0.396392
0.550535
0.398588
0.37184
0.692588
0.605178
0.618941
0.700584
0.355781
0.604096
0.641282
0.677553
0.365083
0.552093
0.443383
0.391121
0.548035
0.659633
0.669114
0.678087
0.677289
0.677036
0.700881
0.421765
0.34983
0.673768
0.675184
0.630993
0.678858
0.398356
0.519726
0.693188
0.438195
0.39889
0.506525
0.550689
0.581512
0.347711
0.68935
0.533135
0.392545
0.384649
0.702489
0.644926
0.678064
0.677686
0.350691
0.680355
0.666385
0.681531
0.67773
0.394291
0.583358
0.3938
0.344784
0.677384
0.369619
0.638305
0.690116
0.389121
0.687606
0.672738
0.628601
0.692827
0.678514
0.663417
0.44629
0.407607
0.663685
0.656289
0.381538
0.357079
0.656578
0.695311
0.660654
0.644226
0.59447
0.60769
0.677696
0.677412
0.594914
0.673155
0.583262
0.676429
0.403785
0.611889
0.414426
0.356166
0.469453
0.357972
0.614217
0.498728
0.624051
0.59261
0.676279
0.6882
0.680466
0.413624
0.385505
0.68638
0.681678
0.666778
0.390827
0.681936
0.361511
0.653004
0.43519
0.408075
0.506572
0.342608
0.521385
0.686685
0.678785
0.499996
0.402684
0.479687
0.58044
0.677236
0.684508
0.672274
0.681355
0.621839
0.634486
0.504939
0.622681
0.640222
0.385364
0.390396
0.619049
0.693146
0.688336
0.541367
0.677914
0.678793
0.379115
0.69697
0.664796
0.37256
0.678651
0.677703
0.66398
0.691767
0.389321
0.6913
0.372256
0.386163
0.700212
0.650556
0.69011
0.391778
0.461763
0.418551
0.677176
0.397487
0.489339
0.679535
0.371848
0.394307
0.39553
0.619874
0.677785
0.380454
0.428644
0.519638
0.660076
0.67782
0.530775
0.359443
0.676668
0.597659
0.457522
0.631826
0.616927
0.677702
0.37552
0.613114
0.678227
0.697084
0.676183
0.655014
0.401443
0.40373
0.61933
0.501167
0.357565
0.687733
0.673512
0.447169
0.604724
0.409062
0.384811
0.366391
0.679221
0.372715
0.387731
0.378004
0.377851
0.365125
0.677428
0.649329
0.43305
0.347706
0.680167
0.492521
0.381604
0.55371
0.70142
0.637822
0.374145
0.679715
0.388394
0.702719
0.363194
0.677677
0.573244
0.677656
0.669488
0.677734
0.383524
0.428046
0.663933
0.677473
0.678119
0.67728
0.677462
0.689024
0.397135
0.688344
0.697899
0.677383
0.389109
0.40094
0.675186
0.685701
0.677636
0.681804
0.531276
0.679171
0.386606
0.402899
0.396749
0.409979
0.593796
0.696863
0.636967
0.393171
0.671783
0.344972
0.430235
0.614231
0.386801
0.622566
0.697216
0.677378
0.689034
0.386037
0.677357
0.677925
0.677382
0.684356
0.384393
0.405202
0.373358
0.575562
0.390723
0.402124
0.330305
0.308282
0.662939
0.401633
0.662809
0.696513
0.35226
0.368283
0.345968
0.450081
0.352462
0.662317
0.582175
0.618671
0.386823
0.678896
0.586228
0.402175
0.39251
0.677884
0.685638
0.676336
0.356584
0.678285
0.411668
0.678051
0.701225
0.686724
0.700121
0.376973
0.679774
0.407767
0.677621
0.701568
0.664759
0.389446
0.329965
0.698534
0.344857
0.645553
0.702392
0.361216
0.681772
0.692524
0.346991
0.671564
0.695241
0.40579
0.688232
0.4484
0.574035
0.670392
0.45503
0.678948
0.395531
0.690431
0.341766
0.677462
0.573678
0.698193
0.374611
0.355071
0.664848
0.383669
0.686802
0.604015
0.41862
0.677258
0.370712
0.388866
0.684184
0.553999
0.664847
0.409077
0.373057
0.688131
0.696293
0.38982
0.694805
0.401085
0.411974
0.679811
0.677046
0.456628
0.391507
0.684571
0.677699
0.678328
0.670059
0.688796
0.541564
0.322155
0.406621
0.377508
0.67832
0.378734
0.517529
0.366811
0.367466
0.349182
0.466262
0.142773
0.383659
0.666001
0.322116
0.69209
0.603684
0.676989
0.655697
0.689172
0.388962
0.402338
0.408639
0.331555
0.684017
0.588437
0.676789
0.604303
0.641948
0.615794
0.626874
0.61787
0.638497
0.687421
0.687058
0.678038
0.403453
0.455483
0.541229
0.396673
0.578201
0.579806
0.398999
0.680213
0.677444
0.377595
0.395459
0.385976
0.363728
0.628975
0.394799
0.375125
0.679522
0.34445
0.572837
0.383793
0.677608
0.67235
0.342303
0.402429
0.683658
0.45161
0.382901
0.361226
0.388191
0.361959
0.365474
0.396263
0.398558
0.42999
0.384386
0.579484
0.371226
0.661931
0.374791
0.372981
0.502987
0.387586
0.380331
0.380958
0.674583
0.435851
0.638378
0.472287
0.345179
0.607233
0.658855
0.445455
0.681356
0.616943
0.615519
0.352508
0.67766
0.387004
0.689792
0.67752
0.375738
0.403747
0.596289
0.335975
0.456627
0.576586
0.35524
0.67772
0.643068
0.368814
0.389959
0.397301
0.484839
0.390976
0.405201
0.39667
0.408303
0.70362
0.704674
0.456502
0.598044
0.47886
0.613587
0.352671
0.39245
0.528257
0.376273
0.678102
0.292531
0.369232
0.495709
0.673044
0.645736
0.560401
0.359191
0.403443
0.569782
0.69745
0.677907
0.565987
0.617352
0.592706
0.385439
0.671343
0.568752
0.662788
0.311733
0.356181
0.675318
0.697248
0.65464
0.701652
0.650339
0.617453
0.690607
0.663253
0.676934
0.385419
0.672735
0.337756
0.407578
0.391873
0.706769
0.674046
0.30851
0.66236
0.620709
0.389676
0.677591
0.684931
0.683809
0.35522
0.391621
0.688351
0.383118
0.37689
0.388289
0.386869
0.67574
0.40702
0.706825
0.37366
0.655505
0.691888
0.680538
0.696536
0.382432
0.370181
0.675898
0.704268
0.649884
0.70328
0.697595
0.497929
0.346384
0.377526
0.67846
0.52584
0.386334
0.451397
0.365545
0.671876
0.677181
0.311012
0.39829
0.659878
0.465307
0.666908
0.657265
0.341944
0.389267
0.645749
0.677491
0.372554
0.644953
0.649922
0.675141
0.380639
0.677207
0.344775
0.677623
0.661596
0.394989
0.365372
0.401033
0.677523
0.345494
0.390122
0.386
0.677608
0.681655
0.389819
0.396351
0.384937
0.677796
0.393683
0.678085
0.385666
0.587206
0.70143
0.378025
0.372122
0.372286
0.498384
0.378901
0.632928
0.356418
0.39411
0.677582
0.398991
0.679032
0.641702
0.677649
0.378742
0.678815
0.694262
0.696738
0.678591
0.650499
0.679637
0.376387
0.677889
0.435348
0.672337
0.384795
0.690155
0.502749
0.393371
0.677491
0.691095
0.390034
0.620942
0.357884
0.392928
0.679474
0.674253
0.35163
0.382191
0.390269
0.37532
0.667041
0.69275
0.383306
0.369069
0.686786
0.684148
0.589073
0.693705
0.677306
0.388807
0.698404
0.424789
0.693045
0.387634
0.592431
0.482042
0.679602
0.66606
0.577442
0.34348
0.368499
0.675808
0.604677
0.512349
0.693176
0.410241
0.676093
0.696527
0.364154
0.452859
0.694814
0.35947
0.677499
0.664886
0.325562
0.682467
0.642484
0.374442
0.680379
0.372912
0.654112
0.364731
0.679096
0.642992
0.380115
0.678054
0.691814
0.689283
0.621883
0.672907
0.584086
0.383402
0.414203
0.364069
0.348765
0.677099
0.556825
0.682677
0.692464
0.384299
0.389462
0.676932
0.702285
0.684179
0.697107
0.389332
0.687218
0.697782
0.395838
0.375724
0.686625
0.675094
0.65881
0.395748
0.592141
0.323767
0.679473
0.639205
0.677912
0.662431
0.385355
0.672043
0.66282
0.69434
0.672875
0.6775
0.431161
0.688405
0.385513
0.61812
0.699259
0.461304
0.644619
0.677938
0.691281
0.400243
0.40326
0.585274
0.648135
0.385013
0.385943
0.38345
0.382956
0.657456
0.67565
0.677436
0.308777
0.385111
0.681331
0.677367
0.403138
0.389146
0.463095
0.65844
0.676253
0.669295
0.684848
0.384275
0.386214
0.677252
0.361516
0.379924
0.360102
0.676883
0.324766
0.382807
0.57382
0.674186
0.62026
0.678173
0.676794
0.409088
0.397685
0.38315
0.471971
0.435332
0.361321
0.664922
0.684336
0.655018
0.678396
0.390653
0.374718
0.701333
0.391338
0.677459
0.642418
0.677731
0.351508
0.39102
0.6482
0.677413
0.557066
0.405364
0.665779
0.678227
0.569453
0.688598
0.695759
0.677294
0.61783
0.390686
0.676929
0.677424
0.610443
0.679818
0.677172
0.625917
0.67745
0.683639
0.394803
0.384133
0.375002
0.677757
0.501425
0.389567
0.676733
0.687402
0.361299
0.628545
0.328234
0.633564
0.464668
0.392519
0.702741
0.692098
0.385413
0.552504
0.67772
0.343559
0.661225
0.361976
0.415402
0.611688
0.605517
0.502855
0.67627
0.383002
0.691154
0.390735
0.391702
0.678974
0.385802
0.59915
0.368636
0.627677
0.594001
0.677425
0.648497
0.403284
0.393215
0.60354
0.424011
0.683849
0.453721
0.587113
0.677891
0.694075
0.43797
0.611485
0.617946
0.697431
0.681036
0.345242
0.37964
0.542145
0.614971
0.697883
0.377864
0.676298
0.559048
0.408503
0.358506
0.666283
0.659317
0.677355
0.677471
0.582598
0.677055
0.677844
0.666951
0.371636
0.654976
0.460401
0.683285
0.674412
0.301798
0.612783
0.694082
0.386842
0.390495
0.345518
0.677183
0.389214
0.611502
0.685044
0.656491
0.362127
0.665938
0.368448
0.591546
0.678002
0.677438
0.663236
0.677761
0.615861
0.671462
0.520983
0.671775
0.362591
0.677194
0.680394
0.404835
0.6775
0.677081
0.373139
0.405602
0.34257
0.687283
0.382471
0.677303
0.379754
0.695916
0.403807
0.482665
0.379162
0.689199
0.696494
0.529041
0.26971
0.615743
0.677445
0.382943
0.588034
0.705115
0.362113
0.584197
0.677402
0.701029
0.677653
0.373547
0.466652
0.685639
0.67606
0.619729
0.381795
0.399689
0.668116
0.677294
0.677474
0.677306
0.544656
0.679241
0.539958
0.680769
0.382057
0.3661
0.677328
0.694446
0.677642
0.350465
0.677106
0.552415
0.594855
0.371527
0.416099
0.695241
0.708236
0.555087
0.330902
0.677694
0.677537
0.392207
0.607937
0.684617
0.391782
0.39106
0.404927
0.595282
0.397129
0.386369
0.670419
0.461859
0.698298
0.634553
0.393399
0.352651
0.701826
0.382973
0.395322
0.67742
0.404184
0.353797
0.587952
0.64466
0.678988
0.383464
0.301219
0.387195
0.643279
0.413193
0.679703
0.394951
0.677626
0.604242
0.672481
0.623786
0.670749
0.63695
0.676451
0.696072
0.682591
0.406321
0.386868
0.663097
0.677941
0.509223
0.608951
0.556323
0.677899
0.608663
0.343399
0.680895
0.704051
0.669802
0.390167
0.672942
0.368956
0.678501
0.501304
0.688045
0.678572
0.393207
0.683948
0.386226
0.423896
0.646279
0.359465
0.678317
0.677231
0.680267
0.364389
0.679465
0.380742
0.351905
0.366754
0.378623
0.600229
0.399571
0.625551
0.677911
0.334303
0.375962
0.49111
0.581686
0.627769
0.621337
0.381734
0.35025
0.389679
0.379233
0.267052
0.627181
0.629055
0.352135
0.677423
0.684501
0.405073
0.703916
0.676664
0.677942
0.389581
0.677379
0.671526
0.688728
0.682955
0.390507
0.680392
0.69054
0.673609
0.667114
0.677332
0.402448
0.370141
0.678195
0.540347
0.393163
0.67883
0.372453
0.573407
0.620705
0.651896
0.656083
0.357731
0.607229
0.39813
0.391088
0.682632
0.688768
0.693158
0.687805
0.651475
0.351792
0.697549
0.400072
0.508103
0.699589
0.677434
0.685108
0.389849
0.394467
0.698682
0.397842
0.687695
0.647867
0.427848
0.398482
0.679694
0.370811
0.678472
0.687189
0.648234
0.370369
0.384273
0.503083
0.514179
0.615725
0.470216
0.677403
0.6212
0.66487
0.677085
0.678598
0.399196
0.399563
0.689723
0.677338
0.616596
0.461599
0.356802
0.668369
0.399334
0.677148
0.6163
0.318804
0.683441
0.386241
0.633893
0.360786
0.694136
0.385906
0.677478
0.677783
0.344065
0.65626
0.647568
0.330722
0.677443
0.675175
0.554376
0.38744
0.368061
0.463373
0.694829
0.598459
0.384204
0.587598
0.681124
0.677641
0.352229
0.604074
0.660461
0.464961
0.677395
0.677729
0.295978
0.682131
0.677405
0.357805
0.59346
0.366452
0.631369
0.376105
0.414326
0.696806
0.385847
0.38393
0.403677
0.67996
0.651385
0.408281
0.677557
0.365139
0.657203
0.380829
0.655412
0.368022
0.677932
0.67864
0.639827
0.677654
0.556326
0.677829
0.677906
0.342264
0.636707
0.64517
0.482233
0.677929
0.497155
0.40708
0.697181
0.378023
0.571523
0.319403
0.676667
0.402621
0.374681
0.692186
0.676827
0.369437
0.682213
0.684419
0.677154
0.696546
0.677544
0.390379
0.703092
0.380155
0.373052
0.656967
0.685936
0.699854
0.662279
0.370082
0.375842
0.387943
0.656237
0.67786
0.367251
0.657263
0.358877
0.372492
0.370211
0.659796
0.387563
0.699343
0.683044
0.635628
0.673182
0.681769
0.569708
0.63279
0.437217
0.402431
0.36952
0.677533
0.677451
0.353577
0.626567
0.592446
0.634684
0.374432
0.396725
0.625144
0.279616
0.618286
0.588977
0.388574
0.677586
0.659267
0.389941
0.678262
0.394614
0.682396
0.699193
0.671232
0.401478
0.474277
0.676874
0.303698
0.447424
0.673467
0.312609
0.677588
0.680965
0.622454
0.684784
0.328001
0.677551
0.681994
0.67592
0.364507
0.689875
0.395414
0.394915
0.665051
0.676515
0.677602
0.237472
0.678871
0.636387
0.677395
0.351196
0.406368
0.382525
0.685961
0.39189
0.397152
0.374522
0.586703
0.394582
0.30145
0.445591
0.679612
0.392709
0.677588
0.677778
0.677064
0.36253
0.680975
0.652019
0.677423
0.417909
0.664951
0.390632
0.37958
0.679331
0.369058
0.622368
0.679877
0.677399
0.384257
0.330275
0.389964
0.564503
0.677311
0.235584
0.669994
0.679835
0.685984
0.380397
0.401536
0.345395
0.596833
0.384941
0.67719
0.608629
0.677806
0.669292
0.385058
0.622742
0.374629
0.55736
0.64968
0.702028
0.565465
0.4769
0.664633
0.620464
0.690709
0.372133
0.368992
0.34538
0.687462
0.531706
0.677453
0.388739
0.398736
0.688692
0.680703
0.67744
0.36963
0.677777
0.562763
0.565816
0.6011
0.375119
0.374513
0.295375
0.676505
0.677968
0.665629
0.611613
0.344159
0.680836
0.658719
0.677965
0.677418
0.681531
0.703786
0.678308
0.684598
0.692536
0.37428
0.68275
0.688802
0.677155
0.684501
0.676051
0.574247
0.39349
0.411551
0.614046
0.385092
0.331065
0.676725
0.395261
0.639458
0.680883
0.652216
0.670623
0.37497
0.678554
0.3627
0.368018
0.678363
0.678332
0.678565
0.356624
0.693621
0.676426
0.611054
0.676487
0.397524
0.677209
0.699135
0.659717
0.403283
0.689728
0.385431
0.708997
0.364899
0.393628
0.519551
0.450353
0.702588
0.690284
0.677697
0.376423
0.677259
0.410621
0.39682
0.642589
0.495142
0.381677
0.676916
0.387068
0.518224
0.665031
0.631178
0.65566
0.493861
0.600221
0.654112
0.678072
0.571611
0.693161
0.538854
0.692968
0.60697
0.64591
0.392441
0.390119
0.449585
0.68786
0.372657
0.662656
0.682519
0.601233
0.678146
0.51715
0.677436
0.668463
0.389221
0.681397
0.60261
0.48774
0.60661
0.698491
0.634844
0.677598
0.380884
0.395143
0.673231
0.534861
0.542208
0.684153
0.678027
0.67811
0.697267
0.698831
0.618787
0.618336
0.701879
0.398787
0.388556
0.402927
0.351228
0.677473
0.459422
0.536039
0.683068
0.673387
0.374432
0.671723
0.708227
0.355793
0.375267
0.677317
0.684429
0.378842
0.379532
0.388658
0.67713
0.618439
0.407402
0.399733
0.389035
0.408921
0.345329
0.390317
0.699149
0.678822
0.675001
0.37443
0.65335
0.603809
0.613986
0.350195
0.395192
0.640184
0.677319
0.383639
0.677648
0.390747
0.691911
0.375928
0.676212
0.362273
0.655924
0.696186
0.367624
0.567583
0.400663
0.703449
0.404103
0.60771
0.372379
0.506349
0.390851
0.598829
0.382939
0.677625
0.677592
0.611797
0.669628
0.341848
0.655711
0.677419
0.69476
0.60135
0.658183
0.396552
0.392797
0.346397
0.695384
0.291813
0.693702
0.549707
0.685652
0.700974
0.458831
0.688263
0.396303
0.370548
0.397794
0.511076
0.517528
0.677235
0.385732
0.402559
0.678799
0.381422
0.371178
0.550978
0.370856
0.383329
0.412447
0.701962
0.655452
0.612231
0.364887
0.652267
0.676658
0.398584
0.325354
0.663323
0.677044
0.560726
0.521505
0.415043
0.363642
0.37881
0.668376
0.609313
0.522924
0.68042
0.404759
0.569043
0.386537
0.677552
0.693674
0.396762
0.401996
0.61622
0.544194
0.696112
0.692525
0.69533
0.682516
0.699783
0.373282
0.396668
0.345195
0.383863
0.537407
0.677657
0.657158
0.3853
0.37399
0.450234
0.386515
0.67799
0.630133
0.378098
0.312304
0.680846
0.367301
0.652739
0.690574
0.646123
0.677342
0.549673
0.379809
0.354161
0.612421
0.397207
0.418767
0.405543
0.677596
0.67581
0.339818
0.390918
0.677167
0.381976
0.678294
0.695382
0.380582
0.388343
0.404675
0.680492
0.413119
0.677221
0.680481
0.601681
0.374719
0.535618
0.689448
0.667075
0.394522
0.664089
0.616256
0.396464
0.685886
0.701266
0.38866
0.38882
0.646936
0.385714
0.384404
0.659738
0.347958
0.677291
0.677843
0.694469
0.6238
0.694182
0.68063
0.677982
0.389521
0.413845
0.627246
0.675934
0.473996
0.703516
0.330467
0.6833
0.657317
0.570572
0.648135
0.393437
0.458945
0.672624
0.690761
0.603778
0.696481
0.679533
0.677257
0.69504
0.677133
0.654133
0.645269
0.677089
0.677347
0.677975
0.34629
0.632198
0.342536
0.679273
0.682887
0.68696
0.635678
0.684246
0.385555
0.385574
0.308364
0.393938
0.644017
0.36131
0.389642
0.674181
0.395526
0.68392
0.380017
0.659883
0.680867
0.385695
0.384227
0.319762
0.686598
0.343189
0.676436
0.683619
0.389694
0.637293
0.560334
0.343309
0.356692
0.399448
0.685061
0.389872
0.680239
0.51326
0.397139
0.675268
0.677052
0.695259
0.390864
0.575319
0.375401
0.655345
0.677915
0.680364
0.382075
0.674919
0.684379
0.619001
0.407754
0.686479
0.388687
0.385535
0.67109
0.454472
0.699468
0.408022
0.38243
0.447613
0.628636
0.346434
0.28876
0.366766
0.479638
0.677363
0.682845
0.402257
0.597564
0.679661
0.565817
0.419488
0.313978
0.562759
0.385983
0.38492
0.673303
0.384263
0.385959
0.688875
0.705592
0.35622
0.689216
0.376024
0.677295
0.3519
0.643763
0.677812
0.685537
0.677651
0.39396
0.385294
0.372019
0.678011
0.648537
0.59773
0.544121
0.373792
0.305602
0.677375
0.388867
0.67783
0.384951
0.677857
0.66782
0.355769
0.348182
0.385827
0.396183
0.345493
0.614728
0.646943
0.363575
0.681866
0.636943
0.384584
0.398579
0.70582
0.380121
0.680328
0.430776
0.685151
0.654037
0.68085
0.677401
0.396007
0.698917
0.677264
0.70483
0.383769
0.605361
0.604037
0.32588
0.687785
0.636186
0.686953
0.653113
0.699876
0.669262
0.700013
0.677126
0.675484
0.385905
0.694149
0.38572
0.458897
0.673177
0.373403
0.661109
0.603097
0.403047
0.620981
0.386078
0.356958
0.661764
0.593684
0.704984
0.38357
0.652711
0.621162
0.342327
0.371369
0.640143
0.676827
0.379306
0.375442
0.684384
0.705018
0.389242
0.641421
0.697379
0.65819
0.347092
0.389443
0.37052
0.655584
0.382855
0.664931
0.687419
0.677409
0.60392
0.681091
0.3835
0.65778
0.62109
0.695966
0.562155
0.372863
0.391218
0.412582
0.692508
0.684771
0.428105
0.651921
0.30056
0.641623
0.681484
0.410427
0.615092
0.666045
0.622632
0.372266
0.404215
0.339474
0.686746
0.699368
0.61866
0.52096
0.680894
0.383735
0.634056
0.677378
0.675179
0.37222
0.631094
0.403063
0.610251
0.413418
0.674645
0.661445
0.364166
0.686326
0.426425
0.677337
0.637884
0.677168
0.686049
0.41493
0.677424
0.677447
0.676799
0.675623
0.489316
0.677357
0.407642
0.677652
0.410344
0.375727
0.403389
0.345757
0.3855
0.36766
0.700107
0.368249
0.396781
0.656063
0.686838
0.649303
0.411117
0.680571
0.679621
0.677359
0.32362
0.576968
0.680289
0.389053
0.370941
0.385887
0.62813
0.515099
0.379424
0.584628
0.391234
0.677552
0.507962
0.406848
0.478126
0.649567
0.334035
0.677271
0.402959
0.470868
0.376747
0.672507
0.386081
0.65012
0.677372
0.584822
0.416929
0.387529
0.663208
0.703924
0.375826
0.351805
0.677836
0.378291
0.68928
0.376052
0.564745
0.413611
0.680514
0.395852
0.702212
0.375038
0.681178
0.682007
0.69157
0.677499
0.408223
0.372156
0.408841
0.622687
0.673296
0.626947
0.520338
0.402689
0.686791
0.317196
0.645933
0.5792
0.407644
0.401929
0.691957
0.674335
0.373668
0.677623
0.667747
0.691935
0.694519
0.402549
0.636619
0.385744
0.692068
0.38137
0.677588
0.638901
0.640168
0.702649
0.388144
0.708648
0.382865
0.390223
0.678185
0.677522
0.550536
0.674041
0.677437
0.381962
0.691079
0.668698
0.697773
0.355124
0.429121
0.676585
0.359834
0.683776
0.681884
0.664004
0.676311
0.28925
0.44892
0.649375
0.369455
0.656927
0.704547
0.474457
0.657881
0.273201
0.614755
0.691321
0.674993
0.656994
0.402881
0.377078
0.677561
0.662083
0.401693
0.333704
0.395014
0.371085
0.39721
0.406166
0.34441
0.390075
0.676905
0.408483
0.349306
0.683278
0.548533
0.677171
0.397922
0.389111
0.680199
0.469304
0.47691
0.697366
0.372875
0.660184
0.677862
0.613848
0.657813
0.343125
0.683234
0.677999
0.39046
0.384737
0.407567
0.59968
0.613046
0.699721
0.678313
0.676081
0.661584
0.368561
0.684196
0.678004
0.636998
0.390461
0.681031
0.572357
0.361492
0.434967
0.400963
0.377595
0.402407
0.592693
0.666285
0.66443
0.383889
0.391751
0.697182
0.350627
0.683807
0.677448
0.664475
0.675241
0.680436
0.389703
0.37673
0.387895
0.567752
0.389306
0.679005
0.392693
0.679232
0.677538
0.682388
0.360496
0.450024
0.413028
0.681534
0.374371
0.386041
0.676223
0.65744
0.618064
0.678129
0.6331
0.688793
0.381402
0.628975
0.694249
0.53733
0.680199
0.685909
0.690068
0.464985
0.43006
0.699201
0.504045
0.611644
0.382448
0.639641
0.664653
0.40267
0.381756
0.653281
0.513107
0.691476
0.683777
0.390989
0.392714
0.67741
0.381301
0.416159
0.666115
0.641611
0.402437
0.669715
0.677717
0.637815
0.374412
0.594028
0.383066
0.669031
0.693323
0.688658
0.661544
0.67765
0.307992
0.363264
0.674123
0.383933
0.613479
0.401313
0.681614
0.391449
0.646608
0.693762
0.677612
0.383105
0.677197
0.677338
0.386732
0.640429
0.388009
0.703485
0.383783
0.357002
0.393872
0.670485
0.673001
0.32566
0.304013
0.619152