# vtk DataFile Version 1.0
unstructured grid
ascii
DATASET UNSTRUCTURED_GRID
points 13672 float
0.0796578 -0.059106 0
0.00128732 0.00159165 0
0.00227961 -0.00102548 0
0.0791586 -0.0598787 0
-0.0546216 0.01 0
0.000495206 0.025 0
0.0800549 -0.035 0
0.135172 -0.08 0
-0.0546216 -0.0451168 0
0.000495206 -0.0301168 0
0.0800549 -0.0901168 0
0.135172 -0.135117 0
-0.0546216 -0.0451168 -0.00551168
0.000495206 -0.0301168 -0.00551168
0.0800549 -0.0901168 -0.00551168
0.135172 -0.135117 -0.00551168
0.135172 -0.08 -0.00551168
0.0800549 -0.035 -0.00551168
0.000495206 0.025 -0.00551168
-0.0546216 0.01 -0.00551168
0.00128732 0.00159165 -0.00551168
0.00227961 -0.00102548 -0.00551168
0.0791586 -0.0598787 -0.00551168
0.0796578 -0.059106 -0.00551168
0.00165953 -0.000990923 0
0.00119576 -0.000874076 0
0.000866021 -0.000641801 0
0.000645147 -0.000349912 0
0.00052235 -1.7281e-05 0
0.00049972 0.000348016 0
0.000601632 0.000737716 0
0.000861774 0.0011403 0
0.00157235 0.00183217 0
0.00188647 0.00206725 0
0.00222612 0.00230203 0
0.00258713 0.00254351 0
0.00296826 0.00279524 0
0.00337118 0.00305664 0
0.00379785 0.00332658 0
0.00425045 0.00360349 0
0.00473139 0.00388521 0
0.0052432 0.00416895 0
0.0057881 0.00445204 0
0.00636753 0.00473281 0
0.00698281 0.00500961 0
0.00763526 0.00528058 0
0.00832616 0.00554366 0
0.00905691 0.00579603 0
0.00982918 0.00603333 0
0.0106445 0.00625033 0
0.0115038 0.00644128 0
0.0124073 0.00660297 0
0.0133543 0.00673414 0
0.0143444 0.00683382 0
0.0153769 0.00690031 0
0.0164512 0.00693173 0
0.0175666 0.00692547 0
0.0187219 0.00687822 0
0.0199156 0.00678477 0
0.0211454 0.00663864 0
0.0224084 0.00643275 0
0.0237018 0.00616676 0
0.0250249 0.00584739 0
0.026375 0.00547298 0
0.0277479 0.00503752 0
0.0291386 0.00453545 0
0.0305433 0.0039653 0
0.0319572 0.0033256 0
0.0333681 0.00260019 0
0.034775 0.00179799 0
0.0361793 0.000930615 0
0.0375798 3.12222e-06 0
0.0389689 -0.000988429 0
0.0403357 -0.00205109 0
0.041675 -0.00318283 0
0.0429849 -0.00437751 0
0.0442643 -0.00562904 0
0.0455126 -0.00693089 0
0.0467314 -0.00827518 0
0.0479204 -0.00965638 0
0.0490661 -0.0110799 0
0.0501515 -0.0125519 0
0.0511696 -0.0140695 0
0.0521492 -0.0156071 0
0.0531202 -0.0171411 0
0.0540851 -0.0186663 0
0.0550431 -0.0201798 0
0.0559923 -0.0216793 0
0.0569311 -0.0231626 0
0.0578582 -0.0246273 0
0.0587723 -0.0260715 0
0.0596721 -0.027493 0
0.0605563 -0.02889 0
0.0614241 -0.0302609 0
0.0622742 -0.0316042 0
0.063106 -0.0329183 0
0.0639186 -0.034202 0
0.0647113 -0.0354543 0
0.0654835 -0.0366743 0
0.0662345 -0.0378613 0
0.0669642 -0.0390145 0
0.0676726 -0.0401333 0
0.0683597 -0.0412172 0
0.0690246 -0.0422665 0
0.0696662 -0.0432819 0
0.0702841 -0.0442636 0
0.0708793 -0.0452111 0
0.0714538 -0.0461237 0
0.072009 -0.047001 0
0.0725452 -0.0478434 0
0.0730611 -0.0486524 0
0.073556 -0.0494294 0
0.0740291 -0.0501756 0
0.0744812 -0.0508916 0
0.0749138 -0.0515773 0
0.0753285 -0.0522331 0
0.0757266 -0.0528592 0
0.076109 -0.0534564 0
0.0764753 -0.0540264 0
0.0768243 -0.054571 0
0.0771553 -0.0550919 0
0.0774679 -0.0555901 0
0.0777617 -0.0560669 0
0.0780369 -0.056523 0
0.0782958 -0.0569578 0
0.0785421 -0.0573703 0
0.0787786 -0.0577603 0
0.0790073 -0.0581279 0
0.0792295 -0.058474 0
0.0794462 -0.0587995 0
0.0798803 -0.0594162 0
0.0800272 -0.0596588 0
0.0800357 -0.0598891 0
0.0799275 -0.0600784 0
0.0797205 -0.0601773 0
0.0794593 -0.0601051 0
0.0789155 -0.0596491 0
0.0786707 -0.0593963 0
0.0784111 -0.0591319 0
0.0781372 -0.0588542 0
0.0778566 -0.0585548 0
0.0775715 -0.0582308 0
0.0772803 -0.0578828 0
0.0769832 -0.0575099 0
0.0766822 -0.0571097 0
0.0763801 -0.0566796 0
0.0760759 -0.0562196 0
0.0757623 -0.0557337 0
0.0754359 -0.0552232 0
0.0750951 -0.0546879 0
0.0747379 -0.054128 0
0.0743626 -0.0535435 0
0.0739688 -0.0529338 0
0.0735559 -0.0522981 0
0.0731238 -0.0516357 0
0.0726718 -0.050946 0
0.0721991 -0.0502288 0
0.0717046 -0.049484 0
0.0711872 -0.0487117 0
0.0706461 -0.047912 0
0.0700804 -0.0470849 0
0.0694892 -0.0462308 0
0.0688718 -0.0453499 0
0.0682271 -0.0444431 0
0.0675544 -0.043511 0
0.0668527 -0.0425546 0
0.0661215 -0.0415748 0
0.06536 -0.040573 0
0.0645676 -0.0395504 0
0.0637439 -0.0385087 0
0.0628887 -0.0374493 0
0.062002 -0.0363741 0
0.0610838 -0.0352847 0
0.0601345 -0.0341831 0
0.0591547 -0.033071 0
0.0581456 -0.0319502 0
0.0571083 -0.0308224 0
0.0560444 -0.0296893 0
0.0549562 -0.028552 0
0.053845 -0.0274126 0
0.0527113 -0.0262746 0
0.051554 -0.0251427 0
0.0503724 -0.0240222 0
0.0491675 -0.0229164 0
0.047941 -0.0218282 0
0.0466955 -0.0207597 0
0.0454337 -0.0197126 0
0.0441592 -0.0186878 0
0.0428751 -0.0176863 0
0.0415841 -0.0167097 0
0.0402878 -0.0157609 0
0.0389879 -0.0148428 0
0.0376864 -0.0139575 0
0.0363853 -0.013107 0
0.0350871 -0.0122931 0
0.0337942 -0.0115164 0
0.0325095 -0.0107772 0
0.0312357 -0.0100756 0
0.0299758 -0.00941024 0
0.0287337 -0.00877784 0
0.0275126 -0.00817571 0
0.0263139 -0.00760375 0
0.0251376 -0.00706528 0
0.0239829 -0.0065649 0
0.0228537 -0.00609619 0
0.0217522 -0.00565563 0
0.0206795 -0.00524226 0
0.0196364 -0.00485507 0
0.0186233 -0.00449318 0
0.0176408 -0.00415577 0
0.016689 -0.00384204 0
0.0157682 -0.00355115 0
0.0148783 -0.00328218 0
0.0140192 -0.00303468 0
0.0131906 -0.00280795 0
0.0123925 -0.00260016 0
0.0116246 -0.00241012 0
0.0108864 -0.00223769 0
0.0101774 -0.00208212 0
0.00949701 -0.00194206 0
0.00884483 -0.0018163 0
0.0082202 -0.0017039 0
0.00762247 -0.00160391 0
0.00705097 -0.00151528 0
0.006505 -0.00143697 0
0.0059838 -0.00136806 0
0.00548662 -0.00130772 0
0.00501265 -0.00125519 0
0.00456114 -0.00120954 0
0.00413136 -0.00116914 0
0.00372257 -0.00113251 0
0.00333398 -0.00109853 0
0.00296466 -0.00106798 0
0.00261363 -0.0010431 0
-0.052721 -0.0445996 0
-0.0508204 -0.0440823 0
-0.0489199 -0.0435651 0
-0.0470193 -0.0430478 0
-0.0451187 -0.0425306 0
-0.0432181 -0.0420134 0
-0.0413175 -0.0414961 0
-0.039417 -0.0409789 0
-0.0375164 -0.0404616 0
-0.0356158 -0.0399444 0
-0.0337152 -0.0394271 0
-0.0318146 -0.0389099 0
-0.0299141 -0.0383927 0
-0.0280135 -0.0378754 0
-0.0261129 -0.0373582 0
-0.0242123 -0.0368409 0
-0.0223117 -0.0363237 0
-0.0204112 -0.0358065 0
-0.0185106 -0.0352892 0
-0.01661 -0.034772 0
-0.0147094 -0.0342547 0
-0.0128088 -0.0337375 0
-0.0109083 -0.0332202 0
-0.00900769 -0.032703 0
-0.00710711 -0.0321858 0
-0.00520653 -0.0316685 0
-0.00330595 -0.0311513 0
-0.00140537 -0.030634 0
0.00190689 -0.0299614 0
0.00332271 -0.0298498 0
0.00474133 -0.0297825 0
0.00616136 -0.0297597 0
0.0075814 -0.0297814 0
0.00900007 -0.0298477 0
0.010416 -0.0299583 0
0.0118278 -0.0301127 0
0.0132342 -0.0303103 0
0.0146339 -0.0305504 0
0.0160259 -0.0308322 0
0.0174091 -0.0311546 0
0.0187824 -0.0315166 0
0.020145 -0.031917 0
0.0214961 -0.0323546 0
0.0228351 -0.032828 0
0.0241613 -0.0333361 0
0.0254744 -0.0338774 0
0.0267738 -0.0344507 0
0.0280592 -0.0350545 0
0.0293306 -0.0356877 0
0.0305875 -0.0363488 0
0.0318301 -0.0370367 0
0.0330581 -0.0377501 0
0.0342717 -0.0384879 0
0.0354708 -0.0392489 0
0.0366556 -0.0400321 0
0.0378262 -0.0408363 0
0.0389828 -0.0416607 0
0.0401254 -0.0425042 0
0.0412543 -0.0433659 0
0.0423698 -0.0442451 0
0.043472 -0.0451408 0
0.0445612 -0.0460523 0
0.0456375 -0.0469789 0
0.0467013 -0.0479199 0
0.0477529 -0.0488746 0
0.0487923 -0.0498424 0
0.04982 -0.0508227 0
0.0508362 -0.051815 0
0.051841 -0.0528187 0
0.0528348 -0.0538333 0
0.0538178 -0.0548584 0
0.0547903 -0.0558935 0
0.0557524 -0.0569382 0
0.0567045 -0.0579922 0
0.0576467 -0.0590549 0
0.0585792 -0.0601261 0
0.0595024 -0.0612055 0
0.0604163 -0.0622926 0
0.0613212 -0.0633873 0
0.0622174 -0.0644891 0
0.0631049 -0.0655979 0
0.0639841 -0.0667134 0
0.064855 -0.0678353 0
0.0657179 -0.0689633 0
0.0665729 -0.0700974 0
0.0674202 -0.0712372 0
0.06826 -0.0723826 0
0.0690925 -0.0735333 0
0.0699178 -0.0746892 0
0.070736 -0.0758501 0
0.0715473 -0.0770159 0
0.0723518 -0.0781863 0
0.0731498 -0.0793612 0
0.0739412 -0.0805405 0
0.0747264 -0.081724 0
0.0755053 -0.0829116 0
0.0762781 -0.0841033 0
0.0770449 -0.0852987 0
0.0778059 -0.0864979 0
0.0785611 -0.0877007 0
0.0793108 -0.088907 0
0.0814681 -0.0912706 0
0.0828814 -0.0924245 0
0.0842946 -0.0935783 0
0.0857079 -0.0947322 0
0.0871211 -0.095886 0
0.0885344 -0.0970399 0
0.0899476 -0.0981937 0
0.0913609 -0.0993476 0
0.0927741 -0.100501 0
0.0941874 -0.101655 0
0.0956006 -0.102809 0
0.0970139 -0.103963 0
0.0984272 -0.105117 0
0.0998404 -0.106271 0
0.101254 -0.107424 0
0.102667 -0.108578 0
0.10408 -0.109732 0
0.105493 -0.110886 0
0.106907 -0.11204 0
0.10832 -0.113194 0
0.109733 -0.114348 0
0.111146 -0.115501 0
0.11256 -0.116655 0
0.113973 -0.117809 0
0.115386 -0.118963 0
0.116799 -0.120117 0
0.118213 -0.121271 0
0.119626 -0.122424 0
0.121039 -0.123578 0
0.122452 -0.124732 0
0.123866 -0.125886 0
0.125279 -0.12704 0
0.126692 -0.128194 0
0.128105 -0.129348 0
0.129519 -0.130501 0
0.130932 -0.131655 0
0.132345 -0.132809 0
0.133758 -0.133963 0
0.135172 -0.133216 0
0.135172 -0.131316 0
0.135172 -0.129415 0
0.135172 -0.127514 0
0.135172 -0.125614 0
0.135172 -0.123713 0
0.135172 -0.121813 0
0.135172 -0.119912 0
0.135172 -0.118012 0
0.135172 -0.116111 0
0.135172 -0.11421 0
0.135172 -0.11231 0
0.135172 -0.110409 0
0.135172 -0.108509 0
0.135172 -0.106608 0
0.135172 -0.104708 0
0.135172 -0.102807 0
0.135172 -0.100906 0
0.135172 -0.0990058 0
0.135172 -0.0971052 0
0.135172 -0.0952046 0
0.135172 -0.0933041 0
0.135172 -0.0914035 0
0.135172 -0.0895029 0
0.135172 -0.0876023 0
0.135172 -0.0857017 0
0.135172 -0.0838012 0
0.135172 -0.0819006 0
0.133758 -0.0788462 0
0.132345 -0.0776923 0
0.130932 -0.0765385 0
0.129519 -0.0753846 0
0.128105 -0.0742308 0
0.126692 -0.0730769 0
0.125279 -0.0719231 0
0.123866 -0.0707692 0
0.122452 -0.0696154 0
0.121039 -0.0684615 0
0.119626 -0.0673077 0
0.118213 -0.0661538 0
0.116799 -0.065 0
0.115386 -0.0638462 0
0.113973 -0.0626923 0
0.11256 -0.0615385 0
0.111146 -0.0603846 0
0.109733 -0.0592308 0
0.10832 -0.0580769 0
0.106907 -0.0569231 0
0.105493 -0.0557692 0
0.10408 -0.0546154 0
0.102667 -0.0534615 0
0.101254 -0.0523077 0
0.0998404 -0.0511538 0
0.0984272 -0.05 0
0.0970139 -0.0488462 0
0.0956006 -0.0476923 0
[...]
CELL_DATA 13116
SCALARS rho float
LOOKUP_TABLE default
0.601739
0.69485
0.426208
0.691909
0.696287
0.686074
0.37451
0.695019
0.589027
0.697346
0.368773
0.43166
0.696197
0.403021
0.423361
0.686305
0.608827
0.705445
0.691949
0.367186
0.598468
0.447645
0.417682
0.703078
0.597925
0.692872
0.697425
0.435424
0.595895
0.626423
0.689481
0.428445
0.592434
0.56047
0.377459
0.600437
0.690983
0.695127
0.684297
0.693364
0.686584
0.694774
0.578873
0.413645
0.693758
0.69251
0.688316
0.691439
0.444463
0.582101
0.694242
0.575048
0.385215
0.606298
0.592768
0.596811
0.412742
0.701853
0.583981
0.433421
0.403793
0.695462
0.691209
0.684303
0.688319
0.391495
0.691329
0.691467
0.691193
0.686721
0.423003
0.593664
0.44744
0.403605
0.698925
0.399795
0.690957
0.694567
0.368966
0.707336
0.701316
0.691628
0.701721
0.693843
0.692852
0.526501
0.377254
0.663232
0.692576
0.367186
0.425843
0.695302
0.701069
0.693825
0.654149
0.600029
0.598019
0.694433
0.696157
0.596228
0.67872
0.680914
0.688636
0.546026
0.686669
0.434361
0.502187
0.587088
0.42658
0.596948
0.591955
0.689683
0.59935
0.70316
0.70702
0.691916
0.386899
0.515753
0.693658
0.692571
0.689355
0.452215
0.691366
0.425299
0.693962
0.543654
0.379117
0.571769
0.42112
0.581215
0.693604
0.699001
0.555232
0.446179
0.546647
0.632586
0.704382
0.69246
0.672454
0.692627
0.684853
0.688817
0.573388
0.685877
0.690928
0.412273
0.377039
0.691062
0.697078
0.694182
0.577844
0.693822
0.691065
0.382477
0.697786
0.692882
0.422534
0.703211
0.694199
0.657973
0.703023
0.368675
0.700413
0.421734
0.45286
0.695149
0.693351
0.705701
0.376388
0.536543
0.523043
0.704378
0.421103
0.569732
0.691806
0.418104
0.43265
0.44807
0.689215
0.684261
0.367259
0.534021
0.595202
0.689499
0.684347
0.58491
0.3802
0.69089
0.686078
0.5565
0.68001
0.690803
0.685864
0.427659
0.689314
0.684777
0.699211
0.691345
0.692372
0.517436
0.547447
0.597378
0.569919
0.406464
0.696822
0.696926
0.576928
0.601143
0.424972
0.367631
0.397942
0.688965
0.424721
0.367044
0.367109
0.38454
0.5087
0.684086
0.693774
0.522256
0.409422
0.691128
0.591102
0.367261
0.577307
0.69631
0.690425
0.435819
0.691695
0.510891
0.6949
0.428123
0.685718
0.590457
0.696946
0.693187
0.685073
0.44916
0.542114
0.646763
0.701246
0.684521
0.704363
0.684528
0.695197
0.434853
0.693446
0.697185
0.695083
0.372479
0.446968
0.695761
0.693275
0.686932
0.694098
0.601887
0.707289
0.368331
0.459395
0.51756
0.423478
0.684782
0.699264
0.690481
0.371755
0.693377
0.383784
0.523824
0.686925
0.372636
0.692032
0.694505
0.70206
0.701717
0.447667
0.702953
0.702445
0.694381
0.692348
0.367734
0.373963
0.427725
0.630859
0.45
0.456053
0.493298
0.481135
0.694478
0.390321
0.692754
0.695267
0.375087
0.367177
0.38159
0.542722
0.437044
0.66239
0.675832
0.688268
0.37142
0.687789
0.589279
0.46001
0.432978
0.684739
0.69311
0.690598
0.381842
0.685034
0.548828
0.699002
0.69457
0.693876
0.694607
0.428367
0.69137
0.407721
0.688922
0.696542
0.623832
0.366957
0.492074
0.696864
0.381263
0.690682
0.695393
0.494773
0.711681
0.701805
0.37714
0.693459
0.701033
0.404175
0.693647
0.524934
0.584568
0.696276
0.527384
0.706435
0.371623
0.703829
0.496203
0.684253
0.68153
0.699125
0.434961
0.502833
0.692955
0.381233
0.696149
0.686993
0.531758
0.704338
0.379929
0.435031
0.695184
0.57981
0.692545
0.375477
0.422753
0.693431
0.695353
0.374529
0.694498
0.392524
0.438449
0.692568
0.695799
0.591467
0.367128
0.692399
0.689203
0.686174
0.69328
0.699065
0.579006
0.467956
0.418499
0.367179
0.685846
0.367181
0.595481
0.49825
0.427304
0.500463
0.592495
0.393107
0.379181
0.693332
0.419107
0.700094
0.596265
0.689608
0.637105
0.693557
0.436172
0.373441
0.522577
0.477416
0.696213
0.59905
0.687939
0.596271
0.691641
0.607771
0.691323
0.666962
0.624141
0.698621
0.708098
0.685304
0.520817
0.5744
0.601589
0.441794
0.674539
0.596996
0.384412
0.691765
0.702677
0.428513
0.366757
0.367119
0.376764
0.597566
0.398244
0.427746
0.690141
0.390563
0.591258
0.36721
0.686555
0.701237
0.442411
0.445837
0.695501
0.540569
0.367184
0.376591
0.367123
0.42693
0.373508
0.366771
0.456465
0.525358
0.367063
0.680394
0.457207
0.69259
0.498281
0.424748
0.5505
0.415134
0.367179
0.416302
0.693063
0.530313
0.598295
0.59058
0.388918
0.602121
0.69271
0.525445
0.711271
0.617083
0.620718
0.373028
0.696507
0.516288
0.699955
0.692219
0.428901
0.389903
0.685773
0.479447
0.526497
0.681859
0.501644
0.699908
0.691321
0.36735
0.428903
0.411957
0.568626
0.430448
0.39731
0.420884
0.406109
0.694309
0.694243
0.54476
0.596507
0.548145
0.688767
0.502018
0.394545
0.589568
0.429357
0.69713
0.477372
0.50781
0.553449
0.694118
0.692914
0.582587
0.493007
0.387483
0.581387
0.694974
0.685118
0.580285
0.686732
0.684541
0.366996
0.7012
0.589578
0.639529
0.487816
0.437638
0.702888
0.699758
0.630243
0.696539
0.691548
0.693711
0.703428
0.627647
0.689136
0.367034
0.694193
0.498746
0.430392
0.367125
0.692217
0.696492
0.487137
0.69266
0.597151
0.367002
0.684512
0.692919
0.699855
0.434796
0.392541
0.694848
0.367181
0.3671
0.423761
0.367022
0.698761
0.401088
0.691705
0.455649
0.69511
0.694068
0.690612
0.695631
0.367163
0.367048
0.69662
0.694479
0.692225
0.694491
0.697368
0.544761
0.375791
0.430656
0.686091
0.58674
0.367107
0.540379
0.42709
0.694962
0.69186
0.487508
0.450863
0.692397
0.529333
0.693685
0.601484
0.419008
0.510574
0.691047
0.70084
0.422472
0.692543
0.693478
0.696688
0.39424
0.704359
0.408719
0.697898
0.635724
0.367123
0.50691
0.456047
0.697606
0.427129
0.371521
0.517452
0.684442
0.699159
0.370893
0.456536
0.367166
0.684575
0.449461
0.684534
0.410735
0.594223
0.696399
0.501263
0.420266
0.418392
0.545425
0.43117
0.692792
0.385908
0.403001
0.685429
0.400476
0.688802
0.690019
0.696133
0.367106
0.696579
0.70012
0.699166
0.686663
0.69582
0.692469
0.422979
0.686072
0.523843
0.698782
0.367846
0.695126
0.582344
0.379147
0.689426
0.69774
0.384462
0.658507
0.426567
0.420453
0.689814
0.693051
0.425901
0.415941
0.369629
0.423616
0.695296
0.703169
0.392353
0.368201
0.69638
0.692601
0.594682
0.700034
0.691214
0.368294
0.698806
0.525376
0.694202
0.519473
0.597885
0.542399
0.691118
0.694282
0.589628
0.498706
0.433011
0.692268
0.595561
0.602559
0.700209
0.419043
0.701488
0.697951
0.513436
0.574375
0.699628
0.49513
0.687882
0.649885
0.490314
0.693053
0.650123
0.432597
0.699868
0.427235
0.691901
0.407591
0.688559
0.690552
0.432954
0.684366
0.700315
0.69545
0.597277
0.701162
0.589927
0.474347
0.546192
0.407073
0.403092
0.704344
0.578502
0.691848
0.697079
0.367105
0.465062
0.700438
0.696158
0.695654
0.694511
0.366766
0.708434
0.697065
0.36693
0.416876
0.693851
0.695424
0.692298
0.428041
0.590893
0.444055
0.700313
0.689749
0.685367
0.696504
0.367092
0.699933
0.692679
0.701231
0.69312
0.685437
0.522933
0.698933
0.367701
0.685942
0.697068
0.536661
0.692051
0.684773
0.69401
0.55471
0.530475
0.590693
0.613424
0.3672
0.367087
0.373906
0.36709
0.696411
0.701479
0.684778
0.482595
0.367218
0.691048
0.703369
0.401877
0.467351
0.540378
0.695798
0.69155
0.693194
0.703355
0.367447
0.367193
0.704155
0.425578
0.367066
0.388959
0.686797
0.442946
0.36715
0.59634
0.697953
0.689026
0.684859
0.689728
0.387091
0.409973
0.37251
0.592734
0.530623
0.427884
0.690841
0.704587
0.691927
0.687726
0.429269
0.367125
0.696699
0.367187
0.685201
0.690318
0.691876
0.425923
0.367113
0.691327
0.689738
0.617868
0.402429
0.693181
0.68512
0.596073
0.694165
0.694683
0.703891
0.686587
0.366786
0.689435
0.687756
0.682044
0.70046
0.704364
0.689784
0.703625
0.692067
0.401991
0.417252
0.367121
0.689265
0.583511
0.367208
0.700399
0.696682
0.433107
0.662149
0.445474
0.6789
0.589836
0.448547
0.695641
0.703787
0.367153
0.574555
0.688858
0.412623
0.693726
0.396389
0.433104
0.606684
0.597447
0.550397
0.689182
0.375631
0.700253
0.426969
0.430685
0.68844
0.367091
0.600184
0.427164
0.666454
0.597747
0.703696
0.69303
0.418222
0.405928
0.683373
0.581583
0.69593
0.565284
0.599328
0.686224
0.701484
0.583092
0.596752
0.68917
0.699043
0.691631
0.497941
0.367075
0.572648
0.689329
0.699292
0.508198
0.688943
0.617316
0.520852
0.426494
0.628525
0.695589
0.70434
0.698617
0.682096
0.70243
0.684566
0.698412
0.427239
0.619198
0.539619
0.693377
0.695465
0.481925
0.697543
0.69563
0.421181
0.442058
0.380815
0.704363
0.3685
0.604795
0.699323
0.616861
0.471745
0.694454
0.406875
0.591346
0.684362
0.685488
0.688104
0.684598
0.598508
0.70104
0.589629
0.698665
0.408052
0.685244
0.69043
0.576839
0.702948
0.701166
0.428161
0.419994
0.414163
0.693894
0.367076
0.703397
0.372339
0.695089
0.391422
0.542516
0.420623
0.700199
0.694455
0.602101
0.470125
0.598867
0.684065
0.367922
0.59484
0.693925
0.428376
0.596943
0.692026
0.696427
0.685472
0.429644
0.586706
0.695756
0.691335
0.686418
0.367129
0.527193
0.693748
0.704258
0.701579
0.704364
0.596939
0.698784
0.596248
0.693137
0.367127
0.407552
0.704296
0.696254
0.68439
0.394443
0.685638
0.599377
0.613429
0.40981
0.518367
0.694593
0.692405
0.587606
0.474001
0.687888
0.701391
0.374168
0.597535
0.703317
0.374716
0.423794
0.409826
0.686832
0.453877
0.367031
0.693414
0.567826
0.698864
0.668234
0.377352
0.37444
0.694567
0.417462
0.398767
0.689584
0.442069
0.503567
0.597226
0.695862
0.697163
0.367251
0.451695
0.36971
0.690351
0.436004
0.696601
0.399884
0.699974
0.695125
0.694026
0.687737
0.700324
0.689442
0.691419
0.695627
0.694933
0.398795
0.369233
0.698481
0.684596
0.551525
0.687479
0.590805
0.684482
0.681475
0.440766
0.692325
0.69473
0.697522
0.374361
0.700124
0.441734
0.694344
0.545428
0.706068
0.686833
0.449413
0.696793
0.367143
0.558195
0.691469
0.391248
0.70677
0.704374
0.695347
0.378706
0.690199
0.367139
0.425571
0.427375
0.367102
0.68137
0.423093
0.685349
0.684498
0.47587
0.428063
0.543222
0.590522
0.613677
0.68662
0.367106
0.384291
0.373553
0.41935
0.467697
0.621877
0.690469
0.436849
0.684334
0.69929
0.407561
0.694538
0.699584
0.684245
0.370778
0.699227
0.701227
0.698401
0.693671
0.430142
0.69696
0.69761
0.700045
0.621274
0.684524
0.458717
0.427545
0.693094
0.57014
0.367129
0.687942
0.423782
0.585161
0.638894
0.691682
0.692066
0.426767
0.687276
0.515837
0.374484
0.710452
0.69565
0.698035
0.693317
0.687322
0.425577
0.696025
0.431499
0.550557
0.695141
0.696568
0.695747
0.372628
0.456652
0.697019
0.467806
0.694767
0.600065
0.530326
0.470221
0.692768
0.427256
0.686602
0.69492
0.692232
0.427303
0.419008
0.568025
0.588952
0.610754
0.559361
0.685727
0.686646
0.692807
0.704346
0.699917
0.379875
0.467732
0.694623
0.684419
0.685863
0.535142
0.403905
0.700859
0.417703
0.691536
0.597033
0.463744
0.696543
0.367043
0.694934
0.42769
0.69724
0.444273
0.696233
0.684184
0.426903
0.693964
0.614715
0.410196
0.684819
0.691876
0.591412
0.413474
0.50512
0.558942
0.699871
0.683543
0.465291
0.589726
0.699152
0.685351
0.472533
0.627448
0.694429
0.528728
0.685593
0.689084
0.480982
0.693775
0.693163
0.42344
0.600699
0.373634
0.682401
0.377388
0.434359
0.699939
0.367103
0.367171
0.4152
0.691001
0.692206
0.526179
0.688287
0.503758
0.697728
0.3671
0.693456
0.50088
0.686678
0.692686
0.689391
0.684815
0.575679
0.684181
0.684277
0.432102
0.598858
0.689604
0.596088
0.700043
0.545722
0.538936
0.696074
0.367755
0.591193
0.446651
0.688062
0.397276
0.427459
0.704038
0.690758
0.367193
0.693112
0.705256
0.704346
0.69454
0.69946
0.366784
0.694799
0.366969
0.423949
0.693146
0.702666
0.694874
0.692595
0.426856
0.379818
0.370215
0.694892
0.684533
0.503224
0.696116
0.391465
0.379368
0.402211
0.692683
0.518933
0.695947
0.695141
0.598492
0.693107
0.695095
0.597218
0.688984
0.524843
0.412786
0.367009
0.698626
0.700302
0.396675
0.624667
0.686499
0.68863
0.428689
0.557026
0.687281
0.465343
0.68622
0.675709
0.366995
0.684027
0.696967
0.367181
0.697412
0.39628
0.691782
0.698724
0.700228
0.419469
0.534898
0.70404
0.485018
0.526337
0.69311
0.488722
0.684062
0.691484
0.691699
0.705743
0.471181
0.690565
0.710116
0.691401
0.50453
0.69369
0.434423
0.40934
0.693589
0.691852
0.68439
0.440207
0.687615
0.598276
0.69913
0.386457
0.392185
0.367167
0.693092
0.372505
0.400504
0.430218
0.675039
0.39918
0.481047
0.526442
0.696335
0.367144
0.684858
0.684097
0.693189
0.380485
0.692602
0.633174
0.684486
0.519747
0.620191
0.378305
0.367779
0.689969
0.367131
0.638735
0.699905
0.704136
0.367126
0.492818
0.382357
0.580716
0.704389
0.442234
0.695527
0.690741
0.70476
0.367207
0.428662
0.497541
0.683807
0.367193
0.704374
0.596266
0.684088
0.693997
0.3677
0.656203
0.42315
0.676314
0.600571
0.69636
0.666277
0.59705
0.633943
0.686485
0.694672
0.371061
0.496433
0.394855
0.706489
0.587565
0.695829
0.367107
0.520695
0.699639
0.692976
0.686175
0.36698
0.693287
0.580009
0.582483
0.683851
0.429181
0.366962
0.481717
0.691942
0.684643
0.617454
0.688464
0.495778
0.695616
0.612182
0.68449
0.68466
0.695238
0.69493
0.685162
0.701528
0.698441
0.429754
0.691957
0.69347
0.685634
0.692893
0.692018
0.632321
0.367011
0.438052
0.684078
0.367125
0.472689
0.69338
0.413205
0.598158
0.690825
0.6935
0.697585
0.429081
0.693569
0.427366
0.40251
0.68545
0.698768
0.68799
0.384164
0.694262
0.688971
0.684533
0.690335
0.441764
0.684995
0.696977
0.697765
0.517165
0.703214
0.368602
0.691188
0.396475
0.367071
0.609121
0.53746
0.695735
0.701066
0.685296
0.427574
0.684817
0.528294
0.416725
0.691564
0.542643
0.367168
0.686902
0.44699
0.5551
0.682067
0.688329
0.691949
0.54418
0.593887
0.650826
0.685177
0.635833
0.697821
0.570984
0.695111
0.688088
0.631114
0.427399
0.368895
0.535509
0.693304
0.428197
0.650613
0.693283
0.599475
0.685416
0.598213
0.707206
0.699289
0.370786
0.693066
0.686597
0.59789
0.686815
0.696502
0.69284
0.684723
0.367218
0.408061
0.699076
0.588834
0.597356
0.692507
0.694951
0.68867
0.699785
0.69881
0.606136
0.686258
0.696578
0.408959
0.438303
0.400064
0.45568
0.703208
0.548601
0.596071
0.696599
0.701582
0.425827
0.697987
0.691017
0.386106
0.509921
0.702541
0.692327
0.431462
0.430763
0.423908
0.704351
0.6926
0.520583
0.379886
0.366957
0.442315
0.488762
0.367123
0.695439
0.69222
0.700957
0.371973
0.693661
0.611274
0.596591
0.477482
0.366822
0.691498
0.704376
0.367189
0.686326
0.367185
0.703361
0.429514
0.693212
0.371245
0.692102
0.694668
0.378737
0.583116
0.468081
0.69459
0.441891
0.61811
0.422061
0.577473
0.377867
0.615581
0.367691
0.685434
0.685472
0.596573
0.700166
0.479689
0.693365
0.684254
0.694434
0.608263
0.698227
0.366803
0.556395
0.394911
0.70068
0.477545
0.695664
0.58024
0.703019
0.696299
0.58836
0.698631
0.417626
0.400432
0.408723
0.575277
0.616585
0.695939
0.371042
0.45243
0.687862
0.513959
0.427271
0.633859
0.509605
0.367177
0.437168
0.694698
0.602839
0.621771
0.412895
0.692493
0.692288
0.429038
0.494485
0.692723
0.688669
0.675653
0.557898
0.520905
0.504919
0.380444
0.695015
0.68361
0.587885
0.70929
0.429361
0.596137
0.367413
0.688305
0.695217
0.366789
0.46598
0.68532
0.62942
0.695342
0.698212
0.699211
0.69355
0.695406
0.387635
0.444965
0.396629
0.367562
0.602696
0.691105
0.603656
0.366897
0.367113
0.564928
0.42547
0.688958
0.688151
0.367133
0.4857
0.690818
0.422057
0.653223
0.69944
0.690726
0.684894
0.600479
0.367114
0.373608
0.685373
0.366818
0.550945
0.523202
0.684551
0.692889
0.474755
0.367029
0.704328
0.367945
0.691806
0.700708
0.367157
0.422062
0.389218
0.690492
0.387831
0.704372
0.700702
0.601104
0.431341
0.568493
0.694854
0.694486
0.371754
0.694667
0.68431
0.422253
0.694025
0.693745
0.371507
0.367102
0.691211
0.368895
0.367476
0.694435
0.500834
0.693311
0.707128
0.701729
0.684525
0.696321
0.691085
0.684194
0.370876
0.518388
0.688061
0.698881
0.534083
0.69482
0.492353
0.691941
0.692103
0.594062
0.634051
0.555577
0.541665
0.697946
0.696106
0.687732
0.694585
0.689306
0.703846
0.694614
0.704344
0.695565
0.691806
0.694875
0.704348
0.684244
0.41213
0.691853
0.430732
0.692731
0.691896
0.700859
0.689224
0.706934
0.41826
0.381733
0.48727
0.370652
0.690431
0.36919
0.371917
0.701665
0.429447
0.701686
0.378892
0.693973
0.696586
0.36706
0.51334
0.466227
0.693035
0.410418
0.69615
0.697041
0.385455
0.691244
0.58434
0.480027
0.433574
0.428768
0.712056
0.367113
0.693138
0.598394
0.472478
0.692102
0.686934
0.699424
0.367191
0.596763
0.423469
0.694267
0.684862
0.692047
0.367114
0.699273
0.692425
0.688497
0.526071
0.692977
0.36717
0.367032
0.693218
0.546822
0.697567
0.549295
0.367138
0.528434
0.689065
0.428103
0.406024
0.409701
0.588248
0.697489
0.696436
0.40373
0.60736
0.689634
0.579951
0.569625
0.460383
0.584953
0.367161
0.366879
0.69525
0.367067
0.367207
0.693955
0.693813
0.388409
0.706098
0.388857
0.7032
0.43708
0.691996
0.686308
0.706656
0.684011
0.431573
0.367021
0.427176
0.685481
0.691558
0.593402
0.584665
0.509051
0.484693
0.684752
0.370175
0.692936
0.509089
0.685729
0.693922
0.376364
0.417739
0.367043
0.367
0.422593
0.685231
0.691226
0.370943
0.692478
0.625098
0.475872
0.418326
0.693486
0.367159
0.695785
0.523059
0.705659
0.643536
0.692375
0.696343
0.412101
0.698629
0.692935
0.694451
0.367105
0.684213
0.595391
0.470609
0.693292
0.689214
0.695994
0.692457
0.695531
0.69325
0.694614
0.686117
0.691536
0.367043
0.700384
0.367057
0.569352
0.693148
0.426962
0.693004
0.685063
0.449495
0.688395
0.367107
0.425552
0.693206
0.683362
0.693953
0.367652
0.692183
0.598085
0.436889
0.37159
0.693703
0.692061
0.510198
0.418214
0.69986
0.694023
0.367101
0.63125
0.694931
0.602657
0.382689
0.36718
0.427359
0.64259
0.445953
0.695215
0.707071
0.684836
0.622529
0.695576
0.367631
0.692251
0.597309
0.694689
0.666683
0.427997
0.371721
0.431566
0.7026
0.696298
0.521324
0.63976
0.452838
0.690591
0.692428
0.42097
0.683497
0.695514
0.608113
0.373486
0.373253
0.456761
0.694869
0.697492
0.598002
0.558019
0.693815
0.367203
0.607633
0.701354
0.699419
0.374702
0.597639
0.452609
0.686353
0.436924
0.697568
0.693393
0.410606
0.69421
0.57822
0.704332
0.661214
0.704379
0.693742
0.542017
0.684556
0.6868
0.692687
0.697072
0.539199
0.702658
0.395394
0.687397
0.429187
0.367079
0.439163
0.420639
0.367188
0.372843
0.694947
0.506329
0.403996
0.680703
0.694272
0.691617
0.524376
0.705925
0.709042
0.684632
0.436455
0.661244
0.691425
0.458454
0.421468
0.367112
0.610567
0.553367
0.367152
0.638483
0.428788
0.696241
0.550565
0.382491
0.541018
0.630781
0.461427
0.691952
0.423941
0.595284
0.509101
0.694855
0.514412
0.68605
0.701467
0.684996
0.570308
0.366952
0.695318
0.69471
0.425443
0.425387
0.686002
0.367002
0.703527
0.371913
0.583953
0.430053
0.691125
0.444889
0.694809
0.367072
0.692609
0.694397
0.695816
0.703428
0.394833
0.422994
0.521521
0.693233
0.701451
0.688857
0.621053
0.449134
0.698851
0.461562
0.691281
0.681352
0.540464
0.471123
0.699656
0.697064
0.421604
0.688734
0.695992
0.698672
0.701588
0.426452
0.608287
0.367161
0.69807
0.447768
0.684111
0.691001
0.696227
0.69454
0.474765
0.692104
0.367114
0.372959
0.69161
0.702111
0.590843
0.698585
0.702972
0.367174
0.704809
0.694548
0.694674
0.42598
0.533197
0.705203
0.370211
0.692126
0.693537
0.693557
0.694709
0.473645
0.558944
0.615303
0.413576
0.692105
0.693866
0.568218
0.693112
0.472651
0.685681
0.704567
0.695425
0.693783
0.373333
0.428209
0.695935
0.694031
0.443446
0.485767
0.439043
0.419521
0.403063
0.415846
0.438016
0.367132
0.696805
0.428584
0.383243
0.700059
0.591274
0.704317
0.519088
0.367084
0.690225
0.560174
0.592067
0.697802
0.510885
0.620403
0.684884
0.597046
0.694406
0.409702
0.696122
0.684183
0.392457
0.367034
0.541262
0.684677
0.597146
0.695797
0.686827
0.699229
0.695997
0.495175
0.694673
0.684134
0.694803
0.367085
0.691268
0.677979
0.491468
0.531696
0.38823
0.421223
0.403435
0.597374
0.68525
0.699101
0.366869
0.51637
0.694765
0.42987
0.697762
0.687218
0.693784
0.695085
0.693137
0.454826
0.422604
0.424764
0.597401
0.445075
0.690753
0.426039
0.690506
0.685802
0.691842
0.451492
0.555214
0.53801
0.694805
0.41167
0.367245
0.693496
0.694137
0.67132
0.68633
0.693899
0.703488
0.367101
0.597663
0.697076
0.566563
0.695479
0.697825
0.701593
0.529636
0.519972
0.694668
0.549069
0.627599
0.367148
0.69013
0.693201
0.518214
0.446257
0.693939
0.570593
0.69646
0.69799
0.367121
0.366873
0.693104
0.569323
0.529976
0.692981
0.693573
0.455561
0.694264
0.69224
0.68938
0.367066
0.597272
0.367117
0.693029
0.69511
0.703132
0.698313
0.691036
0.482183
0.500542
0.700621
0.3673
0.596674
0.467273
0.692645
0.409905
0.654475
0.697304
0.694249
0.367113
0.70438
0.699542
0.367437
0.690359
0.429737
0.69446
0.367153
0.373692
0.418306
0.701229
0.693722
0.493754
0.485626
0.691346