# vtk DataFile Version 1.0
unstructured grid
ascii
DATASET UNSTRUCTURED_GRID
points 13672 float
0.0796578 -0.059106 0
0.00128732 0.00159165 0
0.00227961 -0.00102548 0
0.0791586 -0.0598787 0
-0.0546216 0.01 0
0.000495206 0.025 0
0.0800549 -0.035 0
0.135172 -0.08 0
-0.0546216 -0.0451168 0
0.000495206 -0.0301168 0
0.0800549 -0.0901168 0
0.135172 -0.135117 0
-0.0546216 -0.0451168 -0.00551168
0.000495206 -0.0301168 -0.00551168
0.0800549 -0.0901168 -0.00551168
0.135172 -0.135117 -0.00551168
0.135172 -0.08 -0.00551168
0.0800549 -0.035 -0.00551168
0.000495206 0.025 -0.00551168
-0.0546216 0.01 -0.00551168
0.00128732 0.00159165 -0.00551168
0.00227961 -0.00102548 -0.00551168
0.0791586 -0.0598787 -0.00551168
0.0796578 -0.059106 -0.00551168
0.00165953 -0.000990923 0
0.00119576 -0.000874076 0
0.000866021 -0.000641801 0
0.000645147 -0.000349912 0
0.00052235 -1.7281e-05 0
0.00049972 0.000348016 0
0.000601632 0.000737716 0
0.000861774 0.0011403 0
0.00157235 0.00183217 0
0.00188647 0.00206725 0
0.00222612 0.00230203 0
0.00258713 0.00254351 0
0.00296826 0.00279524 0
0.00337118 0.00305664 0
0.00379785 0.00332658 0
0.00425045 0.00360349 0
0.00473139 0.00388521 0
0.0052432 0.00416895 0
0.0057881 0.00445204 0
0.00636753 0.00473281 0
0.00698281 0.00500961 0
0.00763526 0.00528058 0
0.00832616 0.00554366 0
0.00905691 0.00579603 0
0.00982918 0.00603333 0
0.0106445 0.00625033 0
0.0115038 0.00644128 0
0.0124073 0.00660297 0
0.0133543 0.00673414 0
0.0143444 0.00683382 0
0.0153769 0.00690031 0
0.0164512 0.00693173 0
0.0175666 0.00692547 0
0.0187219 0.00687822 0
0.0199156 0.00678477 0
0.0211454 0.00663864 0
0.0224084 0.00643275 0
0.0237018 0.00616676 0
0.0250249 0.00584739 0
0.026375 0.00547298 0
0.0277479 0.00503752 0
0.0291386 0.00453545 0
0.0305433 0.0039653 0
0.0319572 0.0033256 0
0.0333681 0.00260019 0
0.034775 0.00179799 0
0.0361793 0.000930615 0
0.0375798 3.12222e-06 0
0.0389689 -0.000988429 0
0.0403357 -0.00205109 0
0.041675 -0.00318283 0
0.0429849 -0.00437751 0
0.0442643 -0.00562904 0
0.0455126 -0.00693089 0
0.0467314 -0.00827518 0
0.0479204 -0.00965638 0
0.0490661 -0.0110799 0
0.0501515 -0.0125519 0
0.0511696 -0.0140695 0
0.0521492 -0.0156071 0
0.0531202 -0.0171411 0
0.0540851 -0.0186663 0
0.0550431 -0.0201798 0
0.0559923 -0.0216793 0
0.0569311 -0.0231626 0
0.0578582 -0.0246273 0
0.0587723 -0.0260715 0
0.0596721 -0.027493 0
0.0605563 -0.02889 0
0.0614241 -0.0302609 0
0.0622742 -0.0316042 0
0.063106 -0.0329183 0
0.0639186 -0.034202 0
0.0647113 -0.0354543 0
0.0654835 -0.0366743 0
0.0662345 -0.0378613 0
0.0669642 -0.0390145 0
0.0676726 -0.0401333 0
0.0683597 -0.0412172 0
0.0690246 -0.0422665 0
0.0696662 -0.0432819 0
0.0702841 -0.0442636 0
0.0708793 -0.0452111 0
0.0714538 -0.0461237 0
0.072009 -0.047001 0
0.0725452 -0.0478434 0
0.0730611 -0.0486524 0
0.073556 -0.0494294 0
0.0740291 -0.0501756 0
0.0744812 -0.0508916 0
0.0749138 -0.0515773 0
0.0753285 -0.0522331 0
0.0757266 -0.0528592 0
0.076109 -0.0534564 0
0.0764753 -0.0540264 0
0.0768243 -0.054571 0
0.0771553 -0.0550919 0
0.0774679 -0.0555901 0
0.0777617 -0.0560669 0
0.0780369 -0.056523 0
0.0782958 -0.0569578 0
0.0785421 -0.0573703 0
0.0787786 -0.0577603 0
0.0790073 -0.0581279 0
0.0792295 -0.058474 0
0.0794462 -0.0587995 0
0.0798803 -0.0594162 0
0.0800272 -0.0596588 0
0.0800357 -0.0598891 0
0.0799275 -0.0600784 0
0.0797205 -0.0601773 0
0.0794593 -0.0601051 0
0.0789155 -0.0596491 0
0.0786707 -0.0593963 0
0.0784111 -0.0591319 0
0.0781372 -0.0588542 0
0.0778566 -0.0585548 0
0.0775715 -0.0582308 0
0.0772803 -0.0578828 0
0.0769832 -0.0575099 0
0.0766822 -0.0571097 0
0.0763801 -0.0566796 0
0.0760759 -0.0562196 0
0.0757623 -0.0557337 0
0.0754359 -0.0552232 0
0.0750951 -0.0546879 0
0.0747379 -0.054128 0
0.0743626 -0.0535435 0
0.0739688 -0.0529338 0
0.0735559 -0.0522981 0
0.0731238 -0.0516357 0
0.0726718 -0.050946 0
0.0721991 -0.0502288 0
0.0717046 -0.049484 0
0.0711872 -0.0487117 0
0.0706461 -0.047912 0
0.0700804 -0.0470849 0
0.0694892 -0.0462308 0
0.0688718 -0.0453499 0
0.0682271 -0.0444431 0
0.0675544 -0.043511 0
0.0668527 -0.0425546 0
0.0661215 -0.0415748 0
0.06536 -0.040573 0
0.0645676 -0.0395504 0
0.0637439 -0.0385087 0
0.0628887 -0.0374493 0
0.062002 -0.0363741 0
0.0610838 -0.0352847 0
0.0601345 -0.0341831 0
0.0591547 -0.033071 0
0.0581456 -0.0319502 0
0.0571083 -0.0308224 0
0.0560444 -0.0296893 0
0.0549562 -0.028552 0
0.053845 -0.0274126 0
0.0527113 -0.0262746 0
0.051554 -0.0251427 0
0.0503724 -0.0240222 0
0.0491675 -0.0229164 0
0.047941 -0.0218282 0
0.0466955 -0.0207597 0
0.0454337 -0.0197126 0
0.0441592 -0.0186878 0
0.0428751 -0.0176863 0
0.0415841 -0.0167097 0
0.0402878 -0.0157609 0
0.0389879 -0.0148428 0
0.0376864 -0.0139575 0
0.0363853 -0.013107 0
0.0350871 -0.0122931 0
0.0337942 -0.0115164 0
0.0325095 -0.0107772 0
0.0312357 -0.0100756 0
0.0299758 -0.00941024 0
0.0287337 -0.00877784 0
0.0275126 -0.00817571 0
0.0263139 -0.00760375 0
0.0251376 -0.00706528 0
0.0239829 -0.0065649 0
0.0228537 -0.00609619 0
0.0217522 -0.00565563 0
0.0206795 -0.00524226 0
0.0196364 -0.00485507 0
0.0186233 -0.00449318 0
0.0176408 -0.00415577 0
0.016689 -0.00384204 0
0.0157682 -0.00355115 0
0.0148783 -0.00328218 0
0.0140192 -0.00303468 0
0.0131906 -0.00280795 0
0.0123925 -0.00260016 0
0.0116246 -0.00241012 0
0.0108864 -0.00223769 0
0.0101774 -0.00208212 0
0.00949701 -0.00194206 0
0.00884483 -0.0018163 0
0.0082202 -0.0017039 0
0.00762247 -0.00160391 0
0.00705097 -0.00151528 0
0.006505 -0.00143697 0
0.0059838 -0.00136806 0
0.00548662 -0.00130772 0
0.00501265 -0.00125519 0
0.00456114 -0.00120954 0
0.00413136 -0.00116914 0
0.00372257 -0.00113251 0
0.00333398 -0.00109853 0
0.00296466 -0.00106798 0
0.00261363 -0.0010431 0
-0.052721 -0.0445996 0
-0.0508204 -0.0440823 0
-0.0489199 -0.0435651 0
-0.0470193 -0.0430478 0
-0.0451187 -0.0425306 0
-0.0432181 -0.0420134 0
-0.0413175 -0.0414961 0
-0.039417 -0.0409789 0
-0.0375164 -0.0404616 0
-0.0356158 -0.0399444 0
-0.0337152 -0.0394271 0
-0.0318146 -0.0389099 0
-0.0299141 -0.0383927 0
-0.0280135 -0.0378754 0
-0.0261129 -0.0373582 0
-0.0242123 -0.0368409 0
-0.0223117 -0.0363237 0
-0.0204112 -0.0358065 0
-0.0185106 -0.0352892 0
-0.01661 -0.034772 0
-0.0147094 -0.0342547 0
-0.0128088 -0.0337375 0
-0.0109083 -0.0332202 0
-0.00900769 -0.032703 0
-0.00710711 -0.0321858 0
-0.00520653 -0.0316685 0
-0.00330595 -0.0311513 0
-0.00140537 -0.030634 0
0.00190689 -0.0299614 0
0.00332271 -0.0298498 0
0.00474133 -0.0297825 0
0.00616136 -0.0297597 0
0.0075814 -0.0297814 0
0.00900007 -0.0298477 0
0.010416 -0.0299583 0
0.0118278 -0.0301127 0
0.0132342 -0.0303103 0
0.0146339 -0.0305504 0
0.0160259 -0.0308322 0
0.0174091 -0.0311546 0
0.0187824 -0.0315166 0
0.020145 -0.031917 0
0.0214961 -0.0323546 0
0.0228351 -0.032828 0
0.0241613 -0.0333361 0
0.0254744 -0.0338774 0
0.0267738 -0.0344507 0
0.0280592 -0.0350545 0
0.0293306 -0.0356877 0
0.0305875 -0.0363488 0
0.0318301 -0.0370367 0
0.0330581 -0.0377501 0
0.0342717 -0.0384879 0
0.0354708 -0.0392489 0
0.0366556 -0.0400321 0
0.0378262 -0.0408363 0
0.0389828 -0.0416607 0
0.0401254 -0.0425042 0
0.0412543 -0.0433659 0
0.0423698 -0.0442451 0
0.043472 -0.0451408 0
0.0445612 -0.0460523 0
0.0456375 -0.0469789 0
0.0467013 -0.0479199 0
0.0477529 -0.0488746 0
0.0487923 -0.0498424 0
0.04982 -0.0508227 0
0.0508362 -0.051815 0
0.051841 -0.0528187 0
0.0528348 -0.0538333 0
0.0538178 -0.0548584 0
0.0547903 -0.0558935 0
0.0557524 -0.0569382 0
0.0567045 -0.0579922 0
0.0576467 -0.0590549 0
0.0585792 -0.0601261 0
0.0595024 -0.0612055 0
0.0604163 -0.0622926 0
0.0613212 -0.0633873 0
0.0622174 -0.0644891 0
0.0631049 -0.0655979 0
0.0639841 -0.0667134 0
0.064855 -0.0678353 0
0.0657179 -0.0689633 0
0.0665729 -0.0700974 0
0.0674202 -0.0712372 0
0.06826 -0.0723826 0
0.0690925 -0.0735333 0
0.0699178 -0.0746892 0
0.070736 -0.0758501 0
0.0715473 -0.0770159 0
0.0723518 -0.0781863 0
0.0731498 -0.0793612 0
0.0739412 -0.0805405 0
0.0747264 -0.081724 0
0.0755053 -0.0829116 0
0.0762781 -0.0841033 0
0.0770449 -0.0852987 0
0.0778059 -0.0864979 0
0.0785611 -0.0877007 0
0.0793108 -0.088907 0
0.0814681 -0.0912706 0
0.0828814 -0.0924245 0
0.0842946 -0.0935783 0
0.0857079 -0.0947322 0
0.0871211 -0.095886 0
0.0885344 -0.0970399 0
0.0899476 -0.0981937 0
0.0913609 -0.0993476 0
0.0927741 -0.100501 0
0.0941874 -0.101655 0
0.0956006 -0.102809 0
0.0970139 -0.103963 0
0.0984272 -0.105117 0
0.0998404 -0.106271 0
0.101254 -0.107424 0
0.102667 -0.108578 0
0.10408 -0.109732 0
0.105493 -0.110886 0
0.106907 -0.11204 0
0.10832 -0.113194 0
0.109733 -0.114348 0
0.111146 -0.115501 0
0.11256 -0.116655 0
0.113973 -0.117809 0
0.115386 -0.118963 0
0.116799 -0.120117 0
0.118213 -0.121271 0
0.119626 -0.122424 0
0.121039 -0.123578 0
0.122452 -0.124732 0
0.123866 -0.125886 0
0.125279 -0.12704 0
0.126692 -0.128194 0
0.128105 -0.129348 0
0.129519 -0.130501 0
0.130932 -0.131655 0
0.132345 -0.132809 0
0.133758 -0.133963 0
0.135172 -0.133216 0
0.135172 -0.131316 0
0.135172 -0.129415 0
0.135172 -0.127514 0
0.135172 -0.125614 0
0.135172 -0.123713 0
0.135172 -0.121813 0
0.135172 -0.119912 0
0.135172 -0.118012 0
0.135172 -0.116111 0
0.135172 -0.11421 0
0.135172 -0.11231 0
0.135172 -0.110409 0
0.135172 -0.108509 0
0.135172 -0.106608 0
0.135172 -0.104708 0
0.135172 -0.102807 0
0.135172 -0.100906 0
0.135172 -0.0990058 0
0.135172 -0.0971052 0
0.135172 -0.0952046 0
0.135172 -0.0933041 0
0.135172 -0.0914035 0
0.135172 -0.0895029 0
0.135172 -0.0876023 0
0.135172 -0.0857017 0
0.135172 -0.0838012 0
0.135172 -0.0819006 0
0.133758 -0.0788462 0
0.132345 -0.0776923 0
0.130932 -0.0765385 0
0.129519 -0.0753846 0
0.128105 -0.0742308 0
0.126692 -0.0730769 0
0.125279 -0.0719231 0
0.123866 -0.0707692 0
0.122452 -0.0696154 0
0.121039 -0.0684615 0
0.119626 -0.0673077 0
0.118213 -0.0661538 0
0.116799 -0.065 0
0.115386 -0.0638462 0
0.113973 -0.0626923 0
0.11256 -0.0615385 0
0.111146 -0.0603846 0
0.109733 -0.0592308 0
0.10832 -0.0580769 0
0.106907 -0.0569231 0
0.105493 -0.0557692 0
0.10408 -0.0546154 0
0.102667 -0.0534615 0
0.101254 -0.0523077 0
0.0998404 -0.0511538 0
0.0984272 -0.05 0
0.0970139 -0.0488462 0
0.0956006 -0.0476923 0
[...]
CELL_DATA 13116
SCALARS rho float
LOOKUP_TABLE default
0.500896
0.634762
0.396691
0.669013
0.669235
0.659197
0.374809
0.682818
0.478033
0.671875
0.381345
0.382992
0.669524
0.376509
0.379576
0.659234
0.469157
0.652997
0.65721
0.364235
0.505539
0.420868
0.381163
0.659023
0.561949
0.643404
0.671654
0.400774
0.562165
0.60019
0.659481
0.389681
0.507268
0.404112
0.38912
0.503588
0.624654
0.65347
0.659083
0.666276
0.658058
0.682896
0.378883
0.389494
0.656915
0.657101
0.616424
0.659226
0.374908
0.475697
0.673949
0.395146
0.375345
0.461253
0.505754
0.537363
0.38858
0.659546
0.489419
0.369298
0.375933
0.672142
0.626757
0.65911
0.659513
0.374042
0.662038
0.628698
0.662226
0.659412
0.386593
0.540658
0.417129
0.380257
0.659893
0.387022
0.608771
0.666883
0.364013
0.650402
0.641691
0.640833
0.663154
0.658636
0.652942
0.414775
0.371274
0.623028
0.655535
0.392719
0.402651
0.63668
0.663328
0.664938
0.604918
0.550922
0.564665
0.659794
0.6597
0.551902
0.632366
0.55626
0.657971
0.355092
0.602814
0.385615
0.330457
0.423334
0.393547
0.572405
0.452162
0.627101
0.548933
0.643401
0.651455
0.66302
0.37447
0.35281
0.664677
0.665313
0.628851
0.417272
0.662647
0.403833
0.663621
0.398407
0.37272
0.464266
0.390292
0.477529
0.664947
0.656071
0.461166
0.392008
0.442411
0.540046
0.66117
0.665486
0.631408
0.6652
0.590592
0.619985
0.462242
0.592091
0.617307
0.378432
0.394442
0.633294
0.667106
0.674064
0.499876
0.658129
0.659174
0.390454
0.669667
0.654562
0.385184
0.637938
0.65975
0.623142
0.659706
0.371145
0.663044
0.386357
0.415532
0.672449
0.659254
0.652011
0.385291
0.427621
0.387202
0.661088
0.377735
0.447137
0.661975
0.380185
0.405786
0.417584
0.622424
0.658703
0.377313
0.394201
0.472894
0.624777
0.658734
0.486721
0.376101
0.659023
0.593208
0.419428
0.597174
0.630566
0.659283
0.384304
0.619819
0.658958
0.669087
0.658765
0.653837
0.365114
0.353922
0.577302
0.459008
0.379079
0.6631
0.655062
0.403934
0.561624
0.378552
0.394393
0.383439
0.660087
0.387196
0.360425
0.394903
0.389551
0.332244
0.658738
0.66124
0.403842
0.386473
0.661646
0.445716
0.377944
0.513232
0.672053
0.614463
0.40345
0.662158
0.361316
0.694603
0.392275
0.659188
0.530852
0.659923
0.662165
0.659223
0.359642
0.390304
0.622814
0.660051
0.658866
0.660958
0.658972
0.6814
0.409499
0.669324
0.670371
0.659698
0.396193
0.377579
0.656403
0.664382
0.659254
0.660698
0.486597
0.642037
0.379706
0.381933
0.354947
0.378863
0.583234
0.668731
0.607754
0.368091
0.657847
0.372183
0.398831
0.605111
0.391674
0.640445
0.676267
0.660237
0.659954
0.361185
0.660284
0.647492
0.65971
0.665234
0.361445
0.365404
0.388399
0.534725
0.416243
0.384811
0.306185
0.298084
0.6479
0.375655
0.65724
0.670796
0.367522
0.368093
0.371183
0.413866
0.401355
0.621804
0.548924
0.616039
0.391353
0.659412
0.545109
0.385738
0.369864
0.65901
0.664508
0.658724
0.374021
0.659022
0.370587
0.655617
0.680965
0.672142
0.680281
0.389473
0.661695
0.375913
0.659183
0.669316
0.623372
0.356093
0.305906
0.67078
0.369995
0.633948
0.672196
0.328205
0.642115
0.662561
0.368341
0.657509
0.664663
0.379025
0.666629
0.415172
0.53318
0.684129
0.421686
0.638281
0.368197
0.65817
0.317478
0.658861
0.553266
0.668831
0.402587
0.327842
0.654009
0.392564
0.662924
0.601697
0.384738
0.661059
0.382632
0.408315
0.661765
0.512898
0.628399
0.367073
0.386609
0.669431
0.670528
0.392443
0.671397
0.373405
0.38526
0.663802
0.682278
0.407418
0.371043
0.664753
0.659422
0.659265
0.657328
0.662203
0.499678
0.406149
0.377086
0.374676
0.659251
0.374794
0.470876
0.33294
0.366434
0.322232
0.419066
0.132177
0.391352
0.653693
0.327407
0.664362
0.561383
0.658201
0.614574
0.669143
0.408485
0.363842
0.370737
0.3464
0.660906
0.544457
0.658025
0.562044
0.618752
0.573671
0.637978
0.581616
0.59716
0.661494
0.649517
0.659146
0.359158
0.411212
0.496825
0.417002
0.54463
0.535591
0.375475
0.662439
0.660192
0.392302
0.360374
0.359061
0.377552
0.587422
0.400079
0.384268
0.660646
0.374799
0.53008
0.370811
0.658969
0.645559
0.402673
0.395562
0.661205
0.415762
0.368533
0.376572
0.377884
0.393459
0.365486
0.361055
0.416127
0.398487
0.369162
0.552347
0.41162
0.65484
0.341226
0.399049
0.465154
0.374337
0.392552
0.376833
0.662103
0.403417
0.596613
0.425277
0.374149
0.564356
0.656966
0.414233
0.64166
0.575645
0.574333
0.364946
0.659857
0.355482
0.662314
0.659565
0.390254
0.373366
0.590295
0.338188
0.423548
0.557297
0.32917
0.63689
0.621421
0.371179
0.400178
0.380578
0.442476
0.368699
0.378119
0.382884
0.376079
0.673502
0.671772
0.420584
0.555229
0.441276
0.617177
0.319078
0.401778
0.48301
0.390608
0.657179
0.270593
0.34114
0.457311
0.656446
0.6549
0.519106
0.326273
0.372672
0.529257
0.68189
0.659329
0.525502
0.604313
0.580905
0.359896
0.644246
0.526249
0.621631
0.283516
0.40137
0.641915
0.668157
0.613326
0.672143
0.646632
0.648168
0.658712
0.621974
0.658115
0.383444
0.656502
0.313694
0.378607
0.357539
0.66728
0.655627
0.284481
0.652777
0.579132
0.356654
0.659098
0.664006
0.657346
0.400566
0.400462
0.665115
0.367043
0.361447
0.383441
0.359662
0.654885
0.378426
0.665681
0.4122
0.634963
0.672808
0.661286
0.670257
0.367279
0.369339
0.656354
0.694755
0.617955
0.673492
0.670149
0.461218
0.367104
0.392259
0.659037
0.480864
0.359168
0.415645
0.361942
0.675062
0.659773
0.284237
0.421227
0.652583
0.432791
0.653716
0.616111
0.389236
0.36195
0.613879
0.660169
0.388073
0.652421
0.659706
0.65601
0.392134
0.660907
0.386079
0.659991
0.620238
0.368705
0.330624
0.386152
0.659928
0.393611
0.36801
0.353257
0.659011
0.65705
0.367178
0.374312
0.373441
0.65917
0.417096
0.65888
0.378476
0.544701
0.672039
0.344594
0.385716
0.383273
0.461618
0.39528
0.649364
0.37603
0.402653
0.658841
0.375831
0.65989
0.62942
0.659908
0.364416
0.657813
0.666117
0.66909
0.659154
0.675088
0.663408
0.3818
0.659359
0.405924
0.652795
0.361968
0.681072
0.458297
0.379693
0.659489
0.665101
0.397524
0.583335
0.399926
0.389612
0.66043
0.661559
0.355076
0.379523
0.365302
0.379533
0.676096
0.657486
0.394464
0.373014
0.662753
0.666063
0.546431
0.665711
0.659608
0.372861
0.670306
0.392802
0.673647
0.352294
0.548799
0.445702
0.661215
0.63005
0.535628
0.311121
0.400536
0.659146
0.563046
0.467076
0.665039
0.378123
0.647968
0.669225
0.339368
0.408843
0.667
0.326464
0.659393
0.62385
0.301931
0.667328
0.602792
0.402632
0.655151
0.387624
0.649519
0.390754
0.659895
0.625109
0.400787
0.659141
0.663841
0.665265
0.580243
0.64825
0.542839
0.385205
0.373667
0.33148
0.378896
0.6614
0.516181
0.663779
0.666605
0.375487
0.416075
0.652604
0.671689
0.661458
0.676928
0.35729
0.648836
0.670315
0.362816
0.346005
0.664607
0.656468
0.651389
0.358573
0.55107
0.402664
0.653709
0.628785
0.659265
0.64384
0.358251
0.650987
0.656624
0.664839
0.661383
0.658471
0.40236
0.662155
0.393781
0.594707
0.671214
0.42722
0.622619
0.659245
0.67266
0.356673
0.362015
0.543746
0.606268
0.36604
0.372379
0.390474
0.377407
0.635982
0.647262
0.659069
0.296727
0.371815
0.662027
0.636747
0.378656
0.40786
0.428029
0.627389
0.659033
0.657131
0.653823
0.394665
0.365923
0.6607
0.401084
0.361235
0.378613
0.658331
0.402487
0.373034
0.529407
0.654725
0.621251
0.65916
0.658883
0.372815
0.379893
0.38938
0.424449
0.403461
0.395752
0.627868
0.651736
0.6452
0.658998
0.368871
0.359816
0.672017
0.360163
0.658369
0.624978
0.659614
0.355192
0.374511
0.644291
0.659431
0.514628
0.378975
0.65406
0.659157
0.524747
0.673929
0.67875
0.660517
0.603741
0.358147
0.658862
0.659314
0.578725
0.653752
0.661399
0.628259
0.660585
0.664237
0.403649
0.39546
0.358716
0.659496
0.456249
0.361692
0.6527
0.662955
0.380036
0.590999
0.404834
0.598367
0.417244
0.369039
0.671775
0.656019
0.36111
0.512379
0.659449
0.384728
0.664498
0.374363
0.384566
0.569185
0.562555
0.465011
0.65795
0.39032
0.663495
0.401676
0.3522
0.659806
0.35819
0.55578
0.365127
0.590441
0.550306
0.660611
0.656466
0.376249
0.40262
0.577638
0.379599
0.661048
0.413406
0.543381
0.65911
0.664403
0.393959
0.569604
0.621419
0.669594
0.662895
0.320779
0.361896
0.501717
0.621045
0.668167
0.338197
0.658096
0.516429
0.370422
0.357648
0.625117
0.62744
0.660825
0.659973
0.561355
0.646093
0.659062
0.634001
0.3708
0.613364
0.425457
0.668784
0.656136
0.28638
0.677018
0.668775
0.398824
0.36557
0.369615
0.661373
0.369871
0.56903
0.658725
0.614781
0.361844
0.651398
0.37765
0.550334
0.659226
0.659095
0.625687
0.659142
0.573114
0.640198
0.475519
0.652453
0.39045
0.658342
0.661194
0.36135
0.660378
0.649622
0.391064
0.376577
0.387475
0.672191
0.373569
0.660395
0.387911
0.682944
0.373354
0.446349
0.378814
0.661505
0.675456
0.484753
0.253048
0.572821
0.658725
0.389402
0.54523
0.671078
0.392636
0.540118
0.659544
0.67194
0.658412
0.390527
0.420834
0.662387
0.657532
0.595988
0.384961
0.359501
0.654612
0.660874
0.66021
0.661021
0.499222
0.65642
0.493998
0.666725
0.382968
0.378777
0.660958
0.668491
0.659
0.375298
0.658219
0.507665
0.552734
0.392735
0.38721
0.671495
0.680739
0.512117
0.389618
0.658426
0.660258
0.381756
0.56509
0.653461
0.383043
0.393438
0.375556
0.596582
0.420567
0.380438
0.657072
0.419295
0.67016
0.597469
0.378096
0.366246
0.674148
0.394374
0.401365
0.6594
0.383015
0.320103
0.544177
0.67359
0.65758
0.380918
0.407064
0.390574
0.630631
0.385304
0.658247
0.385603
0.653977
0.653358
0.656664
0.613205
0.649076
0.626656
0.659094
0.670023
0.660777
0.377854
0.391603
0.641528
0.659128
0.471418
0.607382
0.512354
0.659159
0.577111
0.402605
0.664128
0.6716
0.651843
0.396894
0.651542
0.405281
0.658482
0.464465
0.652789
0.659033
0.369838
0.660512
0.364336
0.385726
0.627498
0.378538
0.637699
0.661408
0.679812
0.379056
0.660495
0.386356
0.379026
0.36532
0.39381
0.570149
0.377369
0.593589
0.659151
0.376282
0.38469
0.454725
0.539926
0.585923
0.600584
0.366369
0.371092
0.391575
0.378745
0.252392
0.585935
0.633793
0.400998
0.658946
0.658497
0.375717
0.669846
0.636086
0.65913
0.394226
0.660014
0.646738
0.66275
0.670268
0.370099
0.658386
0.664799
0.652114
0.626167
0.658615
0.379431
0.372289
0.658522
0.500341
0.371829
0.659659
0.379468
0.532406
0.580982
0.64728
0.650506
0.388268
0.604726
0.358731
0.396579
0.644292
0.664706
0.666686
0.668266
0.617082
0.383754
0.670473
0.375562
0.470421
0.672292
0.659741
0.661994
0.396289
0.37612
0.670898
0.37799
0.664634
0.606184
0.394671
0.383244
0.664409
0.367432
0.659133
0.664066
0.616983
0.366896
0.394961
0.461527
0.468294
0.57371
0.429836
0.658787
0.601441
0.656871
0.661488
0.654484
0.371557
0.384005
0.66649
0.658547
0.591241
0.427685
0.378733
0.641325
0.376442
0.65967
0.574507
0.408161
0.660407
0.358037
0.663185
0.397966
0.667822
0.361062
0.657315
0.658744
0.31473
0.664557
0.605853
0.300254
0.659033
0.657471
0.510116
0.374603
0.330069
0.423535
0.666913
0.576968
0.416137
0.54646
0.656804
0.658895
0.353405
0.563322
0.64463
0.432476
0.658654
0.65936
0.278556
0.661032
0.65964
0.395748
0.549933
0.378366
0.597137
0.386974
0.384605
0.667504
0.385257
0.380863
0.375974
0.661369
0.635957
0.359196
0.658323
0.326186
0.630633
0.385521
0.638977
0.333927
0.659153
0.658761
0.607894
0.659073
0.516189
0.658707
0.659073
0.397692
0.594627
0.612804
0.434219
0.654011
0.460191
0.359602
0.670263
0.382136
0.528685
0.404836
0.658137
0.377714
0.383408
0.655789
0.659205
0.369326
0.667241
0.651504
0.661374
0.677245
0.660019
0.357253
0.668549
0.363502
0.387166
0.659823
0.655732
0.683066
0.654502
0.385936
0.387634
0.390996
0.637067
0.659067
0.328934
0.679297
0.373111
0.384297
0.38913
0.656627
0.353248
0.671365
0.660961
0.593673
0.661201
0.660196
0.524991
0.603055
0.405559
0.367607
0.369207
0.66001
0.660098
0.375383
0.585801
0.592825
0.603786
0.390383
0.354343
0.605608
0.258732
0.597057
0.555383
0.360752
0.658704
0.637907
0.360773
0.657097
0.399748
0.663726
0.66865
0.649757
0.376904
0.44014
0.636518
0.279929
0.414613
0.659797
0.287441
0.658669
0.662598
0.638391
0.65071
0.400604
0.6596
0.643818
0.657583
0.338807
0.669184
0.41218
0.377281
0.651989
0.659112
0.65893
0.219619
0.659427
0.594531
0.659901
0.371988
0.375607
0.368364
0.668001
0.379197
0.378685
0.401887
0.553104
0.395531
0.290958
0.414201
0.658363
0.357986
0.659036
0.658917
0.664825
0.377403
0.660674
0.610954
0.658996
0.388754
0.623852
0.394937
0.383234
0.660451
0.36881
0.582629
0.654966
0.660678
0.35851
0.306417
0.396748
0.523891
0.661001
0.21799
0.653827
0.661114
0.653052
0.395867
0.376205
0.32073
0.578624
0.364633
0.661534
0.566833
0.6589
0.655097
0.360466
0.58436
0.38424
0.524647
0.608102
0.671812
0.528781
0.427463
0.623467
0.5959
0.667285
0.381429
0.336081
0.377512
0.651697
0.48703
0.659716
0.358477
0.367957
0.661575
0.660283
0.659152
0.368556
0.665962
0.522189
0.524896
0.580389
0.393589
0.366156
0.276541
0.659411
0.659257
0.624527
0.614028
0.319328
0.681926
0.61721
0.659265
0.659013
0.67926
0.671728
0.659167
0.655986
0.665955
0.390004
0.662603
0.669055
0.658563
0.663603
0.659113
0.533866
0.357489
0.38804
0.584176
0.381154
0.400189
0.66599
0.397295
0.597849
0.661566
0.633439
0.652439
0.394025
0.667932
0.36266
0.376295
0.659249
0.655992
0.659113
0.375068
0.67149
0.657917
0.584242
0.658812
0.416902
0.65852
0.671157
0.637151
0.366371
0.65838
0.39285
0.671884
0.382879
0.357655
0.475124
0.415265
0.671761
0.661362
0.658396
0.401793
0.658542
0.360485
0.391733
0.645297
0.459033
0.39096
0.658212
0.368013
0.479943
0.62557
0.6133
0.647675
0.457379
0.558892
0.613602
0.658836
0.531335
0.666743
0.498663
0.699322
0.610059
0.60465
0.367093
0.363771
0.415185
0.668121
0.390784
0.621665
0.668171
0.557889
0.658877
0.470523
0.637773
0.63604
0.394804
0.666744
0.598401
0.440417
0.601618
0.670803
0.650235
0.658907
0.39519
0.403163
0.653151
0.48996
0.496719
0.665896
0.658066
0.658678
0.667095
0.669842
0.576259
0.599029
0.6706
0.37666
0.373527
0.378655
0.408962
0.660264
0.422215
0.489911
0.660213
0.641418
0.389012
0.653125
0.666096
0.376484
0.346765
0.660272
0.664526
0.395112
0.363264
0.377168
0.661496
0.64151
0.370047
0.371269
0.361588
0.38453
0.314164
0.374476
0.695196
0.658992
0.650213
0.384034
0.634789
0.561744
0.5724
0.370895
0.360793
0.644314
0.661073
0.373031
0.659033
0.360851
0.659637
0.390489
0.664559
0.373148
0.6457
0.672179
0.38024
0.526657
0.38095
0.668799
0.386737
0.56615
0.377644
0.463037
0.397748
0.557191
0.389693
0.659124
0.659274
0.57009
0.648082
0.357327
0.639759
0.658754
0.671723
0.558968
0.631476
0.361742
0.344131
0.375713
0.666165
0.270147
0.668473
0.508034
0.655152
0.671888
0.411659
0.662141
0.391542
0.374677
0.380314
0.468479
0.47346
0.657387
0.39063
0.384389
0.659609
0.355334
0.368168
0.50991
0.339638
0.372408
0.388576
0.684024
0.61395
0.571235
0.38229
0.636215
0.65981
0.367476
0.302174
0.656312
0.658781
0.527994
0.482919
0.387371
0.338119
0.389106
0.674544
0.580494
0.477718
0.642463
0.377207
0.524397
0.360353
0.659513
0.668964
0.360916
0.380344
0.588599
0.501794
0.670429
0.666024
0.667806
0.669363
0.671945
0.386634
0.417476
0.379289
0.360167
0.493114
0.659536
0.615832
0.356736
0.362923
0.410155
0.393517
0.65861
0.611481
0.394231
0.283463
0.661585
0.388161
0.61264
0.663476
0.633646
0.658579
0.505205
0.36075
0.368706
0.593152
0.361234
0.378769
0.360723
0.658948
0.661017
0.342163
0.358658
0.661018
0.388591
0.660827
0.665168
0.358799
0.400451
0.374143
0.660917
0.37429
0.661422
0.653719
0.558456
0.350458
0.495746
0.66597
0.652446
0.367295
0.648995
0.585889
0.423565
0.663807
0.693825
0.395669
0.377961
0.643676
0.391381
0.36109
0.643573
0.323408
0.657916
0.637607
0.661878
0.591871
0.668265
0.661878
0.65888
0.384843
0.385411
0.601664
0.6549
0.439882
0.670082
0.297412
0.663996
0.649376
0.526694
0.607159
0.345239
0.423845
0.653827
0.665912
0.605793
0.672752
0.660056
0.660549
0.678144
0.661218
0.674185
0.647944
0.675899
0.660972
0.658852
0.313456
0.643322
0.39731
0.664084
0.662834
0.658674
0.624521
0.649047
0.396969
0.393283
0.283856
0.366027
0.630495
0.368322
0.394468
0.643997
0.358402
0.654992
0.389983
0.644504
0.65889
0.38383
0.357699
0.407505
0.667575
0.384153
0.656783
0.6601
0.397204
0.641595
0.518507
0.335157
0.399777
0.359888
0.645039
0.375529
0.666302
0.467114
0.382341
0.65814
0.658226
0.667647
0.36052
0.530895
0.373392
0.636645
0.65906
0.663142
0.370725
0.653936
0.665543
0.617678
0.373663
0.667231
0.361285
0.364757
0.662719
0.418306
0.671404
0.35233
0.371867
0.415229
0.624128
0.395354
0.260677
0.391949
0.434791
0.659831
0.660132
0.378016
0.554857
0.660118
0.525372
0.37868
0.407419
0.521041
0.363431
0.355428
0.655804
0.369652
0.36503
0.672695
0.673124
0.37632
0.652976
0.388817
0.660333
0.401063
0.648493
0.659422
0.650766
0.658742
0.408607
0.358905
0.368795
0.659098
0.646821
0.556411
0.50105
0.347695
0.283222
0.658483
0.385975
0.658339
0.357991
0.659221
0.630603
0.371097
0.390789
0.358619
0.358849
0.392862
0.587716
0.631827
0.374143
0.661343
0.595842
0.378772
0.378078
0.67031
0.392216
0.659052
0.400952
0.651392
0.613266
0.660598
0.659767
0.401976
0.669725
0.663183
0.684715
0.385688
0.583094
0.562425
0.408544
0.668547
0.605499
0.700889
0.637966
0.671816
0.662825
0.679403
0.658541
0.657334
0.377122
0.665815
0.358355
0.416297
0.659381
0.370641
0.64918
0.588686
0.381722
0.617586
0.383778
0.404031
0.661132
0.574207
0.673343
0.39345
0.638125
0.578772
0.400762
0.380505
0.657457
0.659781
0.351869
0.397804
0.657563
0.67175
0.365456
0.600447
0.671796
0.617035
0.37104
0.361826
0.38063
0.614615
0.357849
0.649272
0.651478
0.658448
0.562966
0.659584
0.394159
0.652425
0.579338
0.671972
0.525552
0.378902
0.378379
0.381015
0.661073
0.661451
0.398844
0.610889
0.407059
0.610377
0.664688
0.378791
0.584047
0.650022
0.580493
0.382441
0.368191
0.408736
0.663763
0.671459
0.576063
0.482339
0.660179
0.370658
0.591949
0.660127
0.653981
0.382794
0.589561
0.382439
0.599755
0.383917
0.655325
0.662455
0.38167
0.66404
0.382576
0.660987
0.599863
0.661534
0.671359
0.375655
0.658432
0.658313
0.66137
0.656003
0.454053
0.660195
0.376854
0.658394
0.379345
0.371409
0.376206
0.391855
0.36549
0.38002
0.67287
0.34273
0.380029
0.618758
0.664399
0.634452
0.370447
0.645858
0.641302
0.65867
0.315053
0.539667
0.661976
0.417766
0.398154
0.361027
0.58629
0.477009
0.358401
0.544971
0.369565
0.659896
0.470265
0.374477
0.442165
0.608292
0.410245
0.660131
0.376144
0.42192
0.34878
0.674663
0.354662
0.615191
0.660036
0.579602
0.3771
0.355808
0.675363
0.672046
0.400583
0.377959
0.659036
0.363483
0.657436
0.385027
0.523485
0.381299
0.66177
0.417192
0.67298
0.371469
0.664937
0.660689
0.666794
0.660371
0.376149
0.384783
0.370676
0.647538
0.642684
0.622579
0.476337
0.397929
0.660734
0.407723
0.643936
0.555757
0.356731
0.384877
0.664602
0.655452
0.375558
0.659359
0.680972
0.665319
0.663568
0.37633
0.594581
0.36707
0.665797
0.357828
0.658836
0.640814
0.674704
0.674277
0.379627
0.674161
0.388179
0.395615
0.660602
0.660287
0.506174
0.654181
0.660316
0.391121
0.653827
0.671725
0.679782
0.369339
0.395531
0.640086
0.367862
0.664249
0.669084
0.650865
0.674719
0.267775
0.40984
0.60771
0.382247
0.65039
0.668938
0.43144
0.659675
0.255081
0.595097
0.654463
0.634474
0.663702
0.367951
0.38992
0.657474
0.647593
0.390601
0.310581
0.413623
0.38568
0.379327
0.37096
0.400299
0.375078
0.656806
0.379116
0.372159
0.65664
0.503951
0.660983
0.36789
0.358725
0.660628
0.428869
0.429612
0.669982
0.343245
0.618718
0.659203
0.571858
0.640373
0.384023
0.660574
0.659063
0.400032
0.366566
0.358908
0.584937
0.570861
0.671596
0.659302
0.654588
0.643203
0.335757
0.662074
0.659007
0.663611
0.357464
0.662277
0.541491
0.329742
0.402436
0.375549
0.379122
0.374175
0.549061
0.627129
0.642567
0.35529
0.364951
0.67228
0.351991
0.659681
0.658301
0.650848
0.634366
0.660117
0.417115
0.376458
0.37003
0.522964
0.364114
0.659319
0.363364
0.660615
0.658859
0.662286
0.407656
0.412501
0.376275
0.66018
0.393618
0.362639
0.666643
0.640443
0.582344
0.659205
0.656089
0.657042
0.362133
0.587304
0.667987
0.497878
0.659095
0.66101
0.660792
0.432453
0.399249
0.680747
0.466563
0.570811
0.385768
0.620018
0.652725
0.365885
0.358282
0.633836
0.471464
0.666254
0.659518
0.375019
0.363878
0.659651
0.340907
0.369171
0.655403
0.657394
0.378474
0.654933
0.659706
0.625871
0.361234
0.550447
0.362424
0.658739
0.668813
0.657463
0.639158
0.659671
0.298574
0.326651
0.651226
0.39269
0.57177
0.382633
0.661191
0.375544
0.607123
0.667468
0.659769
0.373307
0.661438
0.659994
0.359256
0.620091
0.34942
0.683441
0.376303
0.370223
0.380553
0.644451
0.657235
0.302323
0.280021
0.634992
0.671775