# vtk DataFile Version 1.0
unstructured grid
ascii
DATASET UNSTRUCTURED_GRID
points 13672 float
0.0796578 -0.059106 0
0.00128732 0.00159165 0
0.00227961 -0.00102548 0
0.0791586 -0.0598787 0
-0.0546216 0.01 0
0.000495206 0.025 0
0.0800549 -0.035 0
0.135172 -0.08 0
-0.0546216 -0.0451168 0
0.000495206 -0.0301168 0
0.0800549 -0.0901168 0
0.135172 -0.135117 0
-0.0546216 -0.0451168 -0.00551168
0.000495206 -0.0301168 -0.00551168
0.0800549 -0.0901168 -0.00551168
0.135172 -0.135117 -0.00551168
0.135172 -0.08 -0.00551168
0.0800549 -0.035 -0.00551168
0.000495206 0.025 -0.00551168
-0.0546216 0.01 -0.00551168
0.00128732 0.00159165 -0.00551168
0.00227961 -0.00102548 -0.00551168
0.0791586 -0.0598787 -0.00551168
0.0796578 -0.059106 -0.00551168
0.00165953 -0.000990923 0
0.00119576 -0.000874076 0
0.000866021 -0.000641801 0
0.000645147 -0.000349912 0
0.00052235 -1.7281e-05 0
0.00049972 0.000348016 0
0.000601632 0.000737716 0
0.000861774 0.0011403 0
0.00157235 0.00183217 0
0.00188647 0.00206725 0
0.00222612 0.00230203 0
0.00258713 0.00254351 0
0.00296826 0.00279524 0
0.00337118 0.00305664 0
0.00379785 0.00332658 0
0.00425045 0.00360349 0
0.00473139 0.00388521 0
0.0052432 0.00416895 0
0.0057881 0.00445204 0
0.00636753 0.00473281 0
0.00698281 0.00500961 0
0.00763526 0.00528058 0
0.00832616 0.00554366 0
0.00905691 0.00579603 0
0.00982918 0.00603333 0
0.0106445 0.00625033 0
0.0115038 0.00644128 0
0.0124073 0.00660297 0
0.0133543 0.00673414 0
0.0143444 0.00683382 0
0.0153769 0.00690031 0
0.0164512 0.00693173 0
0.0175666 0.00692547 0
0.0187219 0.00687822 0
0.0199156 0.00678477 0
0.0211454 0.00663864 0
0.0224084 0.00643275 0
0.0237018 0.00616676 0
0.0250249 0.00584739 0
0.026375 0.00547298 0
0.0277479 0.00503752 0
0.0291386 0.00453545 0
0.0305433 0.0039653 0
0.0319572 0.0033256 0
0.0333681 0.00260019 0
0.034775 0.00179799 0
0.0361793 0.000930615 0
0.0375798 3.12222e-06 0
0.0389689 -0.000988429 0
0.0403357 -0.00205109 0
0.041675 -0.00318283 0
0.0429849 -0.00437751 0
0.0442643 -0.00562904 0
0.0455126 -0.00693089 0
0.0467314 -0.00827518 0
0.0479204 -0.00965638 0
0.0490661 -0.0110799 0
0.0501515 -0.0125519 0
0.0511696 -0.0140695 0
0.0521492 -0.0156071 0
0.0531202 -0.0171411 0
0.0540851 -0.0186663 0
0.0550431 -0.0201798 0
0.0559923 -0.0216793 0
0.0569311 -0.0231626 0
0.0578582 -0.0246273 0
0.0587723 -0.0260715 0
0.0596721 -0.027493 0
0.0605563 -0.02889 0
0.0614241 -0.0302609 0
0.0622742 -0.0316042 0
0.063106 -0.0329183 0
0.0639186 -0.034202 0
0.0647113 -0.0354543 0
0.0654835 -0.0366743 0
0.0662345 -0.0378613 0
0.0669642 -0.0390145 0
0.0676726 -0.0401333 0
0.0683597 -0.0412172 0
0.0690246 -0.0422665 0
0.0696662 -0.0432819 0
0.0702841 -0.0442636 0
0.0708793 -0.0452111 0
0.0714538 -0.0461237 0
0.072009 -0.047001 0
0.0725452 -0.0478434 0
0.0730611 -0.0486524 0
0.073556 -0.0494294 0
0.0740291 -0.0501756 0
0.0744812 -0.0508916 0
0.0749138 -0.0515773 0
0.0753285 -0.0522331 0
0.0757266 -0.0528592 0
0.076109 -0.0534564 0
0.0764753 -0.0540264 0
0.0768243 -0.054571 0
0.0771553 -0.0550919 0
0.0774679 -0.0555901 0
0.0777617 -0.0560669 0
0.0780369 -0.056523 0
0.0782958 -0.0569578 0
0.0785421 -0.0573703 0
0.0787786 -0.0577603 0
0.0790073 -0.0581279 0
0.0792295 -0.058474 0
0.0794462 -0.0587995 0
0.0798803 -0.0594162 0
0.0800272 -0.0596588 0
0.0800357 -0.0598891 0
0.0799275 -0.0600784 0
0.0797205 -0.0601773 0
0.0794593 -0.0601051 0
0.0789155 -0.0596491 0
0.0786707 -0.0593963 0
0.0784111 -0.0591319 0
0.0781372 -0.0588542 0
0.0778566 -0.0585548 0
0.0775715 -0.0582308 0
0.0772803 -0.0578828 0
0.0769832 -0.0575099 0
0.0766822 -0.0571097 0
0.0763801 -0.0566796 0
0.0760759 -0.0562196 0
0.0757623 -0.0557337 0
0.0754359 -0.0552232 0
0.0750951 -0.0546879 0
0.0747379 -0.054128 0
0.0743626 -0.0535435 0
0.0739688 -0.0529338 0
0.0735559 -0.0522981 0
0.0731238 -0.0516357 0
0.0726718 -0.050946 0
0.0721991 -0.0502288 0
0.0717046 -0.049484 0
0.0711872 -0.0487117 0
0.0706461 -0.047912 0
0.0700804 -0.0470849 0
0.0694892 -0.0462308 0
0.0688718 -0.0453499 0
0.0682271 -0.0444431 0
0.0675544 -0.043511 0
0.0668527 -0.0425546 0
0.0661215 -0.0415748 0
0.06536 -0.040573 0
0.0645676 -0.0395504 0
0.0637439 -0.0385087 0
0.0628887 -0.0374493 0
0.062002 -0.0363741 0
0.0610838 -0.0352847 0
0.0601345 -0.0341831 0
0.0591547 -0.033071 0
0.0581456 -0.0319502 0
0.0571083 -0.0308224 0
0.0560444 -0.0296893 0
0.0549562 -0.028552 0
0.053845 -0.0274126 0
0.0527113 -0.0262746 0
0.051554 -0.0251427 0
0.0503724 -0.0240222 0
0.0491675 -0.0229164 0
0.047941 -0.0218282 0
0.0466955 -0.0207597 0
0.0454337 -0.0197126 0
0.0441592 -0.0186878 0
0.0428751 -0.0176863 0
0.0415841 -0.0167097 0
0.0402878 -0.0157609 0
0.0389879 -0.0148428 0
0.0376864 -0.0139575 0
0.0363853 -0.013107 0
0.0350871 -0.0122931 0
0.0337942 -0.0115164 0
0.0325095 -0.0107772 0
0.0312357 -0.0100756 0
0.0299758 -0.00941024 0
0.0287337 -0.00877784 0
0.0275126 -0.00817571 0
0.0263139 -0.00760375 0
0.0251376 -0.00706528 0
0.0239829 -0.0065649 0
0.0228537 -0.00609619 0
0.0217522 -0.00565563 0
0.0206795 -0.00524226 0
0.0196364 -0.00485507 0
0.0186233 -0.00449318 0
0.0176408 -0.00415577 0
0.016689 -0.00384204 0
0.0157682 -0.00355115 0
0.0148783 -0.00328218 0
0.0140192 -0.00303468 0
0.0131906 -0.00280795 0
0.0123925 -0.00260016 0
0.0116246 -0.00241012 0
0.0108864 -0.00223769 0
0.0101774 -0.00208212 0
0.00949701 -0.00194206 0
0.00884483 -0.0018163 0
0.0082202 -0.0017039 0
0.00762247 -0.00160391 0
0.00705097 -0.00151528 0
0.006505 -0.00143697 0
0.0059838 -0.00136806 0
0.00548662 -0.00130772 0
0.00501265 -0.00125519 0
0.00456114 -0.00120954 0
0.00413136 -0.00116914 0
0.00372257 -0.00113251 0
0.00333398 -0.00109853 0
0.00296466 -0.00106798 0
0.00261363 -0.0010431 0
-0.052721 -0.0445996 0
-0.0508204 -0.0440823 0
-0.0489199 -0.0435651 0
-0.0470193 -0.0430478 0
-0.0451187 -0.0425306 0
-0.0432181 -0.0420134 0
-0.0413175 -0.0414961 0
-0.039417 -0.0409789 0
-0.0375164 -0.0404616 0
-0.0356158 -0.0399444 0
-0.0337152 -0.0394271 0
-0.0318146 -0.0389099 0
-0.0299141 -0.0383927 0
-0.0280135 -0.0378754 0
-0.0261129 -0.0373582 0
-0.0242123 -0.0368409 0
-0.0223117 -0.0363237 0
-0.0204112 -0.0358065 0
-0.0185106 -0.0352892 0
-0.01661 -0.034772 0
-0.0147094 -0.0342547 0
-0.0128088 -0.0337375 0
-0.0109083 -0.0332202 0
-0.00900769 -0.032703 0
-0.00710711 -0.0321858 0
-0.00520653 -0.0316685 0
-0.00330595 -0.0311513 0
-0.00140537 -0.030634 0
0.00190689 -0.0299614 0
0.00332271 -0.0298498 0
0.00474133 -0.0297825 0
0.00616136 -0.0297597 0
0.0075814 -0.0297814 0
0.00900007 -0.0298477 0
0.010416 -0.0299583 0
0.0118278 -0.0301127 0
0.0132342 -0.0303103 0
0.0146339 -0.0305504 0
0.0160259 -0.0308322 0
0.0174091 -0.0311546 0
0.0187824 -0.0315166 0
0.020145 -0.031917 0
0.0214961 -0.0323546 0
0.0228351 -0.032828 0
0.0241613 -0.0333361 0
0.0254744 -0.0338774 0
0.0267738 -0.0344507 0
0.0280592 -0.0350545 0
0.0293306 -0.0356877 0
0.0305875 -0.0363488 0
0.0318301 -0.0370367 0
0.0330581 -0.0377501 0
0.0342717 -0.0384879 0
0.0354708 -0.0392489 0
0.0366556 -0.0400321 0
0.0378262 -0.0408363 0
0.0389828 -0.0416607 0
0.0401254 -0.0425042 0
0.0412543 -0.0433659 0
0.0423698 -0.0442451 0
0.043472 -0.0451408 0
0.0445612 -0.0460523 0
0.0456375 -0.0469789 0
0.0467013 -0.0479199 0
0.0477529 -0.0488746 0
0.0487923 -0.0498424 0
0.04982 -0.0508227 0
0.0508362 -0.051815 0
0.051841 -0.0528187 0
0.0528348 -0.0538333 0
0.0538178 -0.0548584 0
0.0547903 -0.0558935 0
0.0557524 -0.0569382 0
0.0567045 -0.0579922 0
0.0576467 -0.0590549 0
0.0585792 -0.0601261 0
0.0595024 -0.0612055 0
0.0604163 -0.0622926 0
0.0613212 -0.0633873 0
0.0622174 -0.0644891 0
0.0631049 -0.0655979 0
0.0639841 -0.0667134 0
0.064855 -0.0678353 0
0.0657179 -0.0689633 0
0.0665729 -0.0700974 0
0.0674202 -0.0712372 0
0.06826 -0.0723826 0
0.0690925 -0.0735333 0
0.0699178 -0.0746892 0
0.070736 -0.0758501 0
0.0715473 -0.0770159 0
0.0723518 -0.0781863 0
0.0731498 -0.0793612 0
0.0739412 -0.0805405 0
0.0747264 -0.081724 0
0.0755053 -0.0829116 0
0.0762781 -0.0841033 0
0.0770449 -0.0852987 0
0.0778059 -0.0864979 0
0.0785611 -0.0877007 0
0.0793108 -0.088907 0
0.0814681 -0.0912706 0
0.0828814 -0.0924245 0
0.0842946 -0.0935783 0
0.0857079 -0.0947322 0
0.0871211 -0.095886 0
0.0885344 -0.0970399 0
0.0899476 -0.0981937 0
0.0913609 -0.0993476 0
0.0927741 -0.100501 0
0.0941874 -0.101655 0
0.0956006 -0.102809 0
0.0970139 -0.103963 0
0.0984272 -0.105117 0
0.0998404 -0.106271 0
0.101254 -0.107424 0
0.102667 -0.108578 0
0.10408 -0.109732 0
0.105493 -0.110886 0
0.106907 -0.11204 0
0.10832 -0.113194 0
0.109733 -0.114348 0
0.111146 -0.115501 0
0.11256 -0.116655 0
0.113973 -0.117809 0
0.115386 -0.118963 0
0.116799 -0.120117 0
0.118213 -0.121271 0
0.119626 -0.122424 0
0.121039 -0.123578 0
0.122452 -0.124732 0
0.123866 -0.125886 0
0.125279 -0.12704 0
0.126692 -0.128194 0
0.128105 -0.129348 0
0.129519 -0.130501 0
0.130932 -0.131655 0
0.132345 -0.132809 0
0.133758 -0.133963 0
0.135172 -0.133216 0
0.135172 -0.131316 0
0.135172 -0.129415 0
0.135172 -0.127514 0
0.135172 -0.125614 0
0.135172 -0.123713 0
0.135172 -0.121813 0
0.135172 -0.119912 0
0.135172 -0.118012 0
0.135172 -0.116111 0
0.135172 -0.11421 0
0.135172 -0.11231 0
0.135172 -0.110409 0
0.135172 -0.108509 0
0.135172 -0.106608 0
0.135172 -0.104708 0
0.135172 -0.102807 0
0.135172 -0.100906 0
0.135172 -0.0990058 0
0.135172 -0.0971052 0
0.135172 -0.0952046 0
0.135172 -0.0933041 0
0.135172 -0.0914035 0
0.135172 -0.0895029 0
0.135172 -0.0876023 0
0.135172 -0.0857017 0
0.135172 -0.0838012 0
0.135172 -0.0819006 0
0.133758 -0.0788462 0
0.132345 -0.0776923 0
0.130932 -0.0765385 0
0.129519 -0.0753846 0
0.128105 -0.0742308 0
0.126692 -0.0730769 0
0.125279 -0.0719231 0
0.123866 -0.0707692 0
0.122452 -0.0696154 0
0.121039 -0.0684615 0
0.119626 -0.0673077 0
0.118213 -0.0661538 0
0.116799 -0.065 0
0.115386 -0.0638462 0
0.113973 -0.0626923 0
0.11256 -0.0615385 0
0.111146 -0.0603846 0
0.109733 -0.0592308 0
0.10832 -0.0580769 0
0.106907 -0.0569231 0
0.105493 -0.0557692 0
0.10408 -0.0546154 0
0.102667 -0.0534615 0
0.101254 -0.0523077 0
0.0998404 -0.0511538 0
0.0984272 -0.05 0
0.0970139 -0.0488462 0
0.0956006 -0.0476923 0
[...]
CELL_DATA 13116
SCALARS rho float
LOOKUP_TABLE default
0.517425
0.633654
0.3638
0.657246
0.655015
0.69584
0.358548
0.662842
0.481944
0.654442
0.353372
0.370097
0.655261
0.369131
0.349401
0.693913
0.502062
0.64285
0.674749
0.415207
0.516802
0.35745
0.36261
0.645612
0.552526
0.651643
0.654344
0.351766
0.540767
0.592784
0.711206
0.362648
0.504436
0.411898
0.348487
0.517689
0.616465
0.660508
0.706754
0.666989
0.68334
0.66211
0.407584
0.369232
0.67116
0.673787
0.627101
0.671717
0.355115
0.471178
0.66303
0.415556
0.374475
0.496863
0.504096
0.532921
0.369647
0.64428
0.481267
0.351642
0.368296
0.656427
0.629928
0.708328
0.712806
0.380492
0.676891
0.619778
0.673638
0.712429
0.34802
0.524017
0.357613
0.372605
0.71122
0.370562
0.606988
0.658745
0.385839
0.639561
0.62992
0.64856
0.646743
0.666256
0.657734
0.380118
0.391271
0.613382
0.655925
0.393113
0.362184
0.635206
0.648673
0.659256
0.598714
0.549504
0.554626
0.712378
0.71141
0.53798
0.62029
0.587291
0.681005
0.388174
0.625455
0.364027
0.318356
0.444364
0.35705
0.551266
0.470035
0.64119
0.547139
0.631424
0.640261
0.675118
0.381227
0.351815
0.661537
0.671309
0.619187
0.356754
0.672832
0.362681
0.657939
0.396019
0.389849
0.454112
0.36159
0.471478
0.661774
0.648684
0.436379
0.355218
0.417797
0.55197
0.71021
0.668792
0.619245
0.671133
0.593998
0.629135
0.454595
0.595952
0.618573
0.363773
0.345088
0.646376
0.652688
0.664552
0.479449
0.667085
0.672744
0.374999
0.652862
0.65958
0.360037
0.62605
0.712057
0.612914
0.645118
0.362115
0.646948
0.360237
0.355464
0.657697
0.656285
0.642354
0.350562
0.39897
0.369543
0.710204
0.35333
0.442169
0.676731
0.361656
0.355337
0.357774
0.63927
0.696999
0.417049
0.384999
0.490084
0.615793
0.69541
0.480896
0.393318
0.681672
0.625604
0.414774
0.595329
0.645461
0.71229
0.354884
0.639933
0.696929
0.651304
0.680196
0.655001
0.359657
0.388576
0.557798
0.449442
0.369761
0.651528
0.661672
0.422194
0.558264
0.35896
0.385754
0.376928
0.682822
0.357947
0.412759
0.39602
0.377655
0.338355
0.706886
0.657108
0.368571
0.369986
0.677701
0.464857
0.416432
0.485859
0.655485
0.616653
0.351906
0.676973
0.338355
0.663468
0.362379
0.710713
0.512398
0.712251
0.663141
0.711389
0.354062
0.393125
0.611578
0.710915
0.697625
0.710659
0.710019
0.663601
0.355556
0.66538
0.653903
0.711887
0.340402
0.35552
0.665294
0.662945
0.710974
0.661621
0.508416
0.631378
0.35974
0.365483
0.355727
0.358829
0.617828
0.651098
0.60626
0.398892
0.66822
0.389071
0.374656
0.626478
0.370333
0.64936
0.661727
0.710641
0.644086
0.353024
0.710592
0.634594
0.712019
0.66896
0.397186
0.397756
0.356068
0.548799
0.356951
0.356399
0.297819
0.358238
0.651544
0.367791
0.658992
0.657593
0.40151
0.416941
0.391639
0.399949
0.353858
0.612321
0.571119
0.634736
0.379391
0.68295
0.517362
0.372602
0.349472
0.7049
0.663678
0.681606
0.393799
0.694949
0.393836
0.649069
0.661627
0.665492
0.661772
0.354815
0.677845
0.357393
0.686492
0.655098
0.609728
0.410379
0.297773
0.654539
0.390434
0.639927
0.656596
0.340158
0.632118
0.646423
0.397561
0.667684
0.648667
0.363145
0.662288
0.374522
0.504677
0.663081
0.382611
0.626679
0.401222
0.643624
0.303825
0.709157
0.598409
0.651925
0.352525
0.324139
0.659077
0.369425
0.653267
0.629622
0.380375
0.709721
0.390582
0.360896
0.656883
0.488506
0.619375
0.396858
0.359141
0.665616
0.657361
0.343616
0.660314
0.376357
0.364258
0.672726
0.66317
0.443177
0.373349
0.667709
0.711524
0.693913
0.665366
0.647183
0.480968
0.339578
0.357153
0.418007
0.695713
0.41717
0.488973
0.341268
0.355613
0.32005
0.450286
0.130306
0.375153
0.659524
0.374363
0.64775
0.542244
0.677152
0.604772
0.664253
0.360135
0.399994
0.363902
0.342798
0.653481
0.543791
0.680847
0.542568
0.619342
0.569934
0.647482
0.583055
0.59056
0.647295
0.638777
0.700802
0.360404
0.42683
0.514538
0.356926
0.568647
0.532466
0.377472
0.67603
0.71076
0.355353
0.41523
0.406239
0.398324
0.565518
0.346086
0.355328
0.680628
0.381686
0.513711
0.39796
0.692962
0.634074
0.349357
0.355983
0.6561
0.398988
0.390862
0.39688
0.383833
0.356218
0.401436
0.41494
0.356861
0.375622
0.38838
0.585581
0.347685
0.65797
0.34603
0.363249
0.434212
0.363406
0.394257
0.363252
0.668812
0.383915
0.578706
0.450487
0.384184
0.560716
0.65707
0.379216
0.631533
0.573194
0.5733
0.402428
0.711904
0.350884
0.64647
0.711254
0.355213
0.36182
0.623814
0.342328
0.383522
0.600418
0.320542
0.624955
0.622566
0.416652
0.353137
0.353137
0.43909
0.35162
0.365172
0.351727
0.357614
0.658267
0.657215
0.404952
0.540701
0.418644
0.637636
0.328221
0.336184
0.485103
0.355299
0.656643
0.271776
0.333369
0.432155
0.669593
0.65436
0.495079
0.339477
0.362686
0.49883
0.662674
0.711318
0.495609
0.622952
0.616261
0.397521
0.633101
0.508619
0.610132
0.359423
0.355573
0.630508
0.650873
0.603296
0.65532
0.650452
0.653924
0.643999
0.609151
0.678026
0.40605
0.668671
0.298245
0.359483
0.406307
0.656535
0.663299
0.353118
0.656943
0.556144
0.409534
0.710233
0.664357
0.643314
0.351548
0.334553
0.657375
0.385418
0.379282
0.362904
0.400006
0.653159
0.363632
0.656277
0.348281
0.63262
0.663512
0.676554
0.656634
0.385085
0.418047
0.661665
0.663277
0.6119
0.658167
0.653582
0.426149
0.398649
0.354427
0.687058
0.480228
0.40639
0.398895
0.357228
0.662245
0.679396
0.359779
0.35791
0.655981
0.390725
0.66051
0.598275
0.361501
0.34066
0.609007
0.710968
0.359223
0.65325
0.656404
0.662184
0.359386
0.710522
0.369686
0.712301
0.608892
0.372062
0.337894
0.356412
0.712653
0.357089
0.388461
0.352466
0.7092
0.645263
0.38888
0.363039
0.401248
0.709743
0.357016
0.696169
0.364264
0.527194
0.655385
0.347656
0.35997
0.361831
0.426788
0.353596
0.65223
0.389481
0.338278
0.698279
0.354377
0.683899
0.636291
0.712441
0.399887
0.657559
0.648969
0.651175
0.685588
0.660909
0.673425
0.362995
0.712011
0.370889
0.653299
0.402887
0.663512
0.460716
0.35453
0.712778
0.650609
0.342271
0.583227
0.362033
0.346608
0.681212
0.668697
0.35972
0.363143
0.385977
0.36301
0.661839
0.645621
0.356621
0.415579
0.652591
0.669271
0.529472
0.648752
0.681285
0.363188
0.652365
0.375152
0.663131
0.356621
0.543591
0.415213
0.678835
0.620582
0.513198
0.328716
0.352783
0.677807
0.539734
0.497299
0.648277
0.358239
0.635237
0.65249
0.317473
0.42509
0.649751
0.339839
0.712716
0.612545
0.293101
0.668755
0.597087
0.363366
0.642842
0.355837
0.652614
0.374552
0.683692
0.62889
0.353204
0.707437
0.647417
0.655552
0.558052
0.637802
0.517013
0.355985
0.392275
0.363674
0.373117
0.70929
0.488858
0.671647
0.652431
0.411373
0.353553
0.641936
0.655555
0.655429
0.661958
0.411302
0.638739
0.65407
0.416433
0.338582
0.660792
0.666329
0.654994
0.364092
0.522828
0.346675
0.641202
0.637078
0.711026
0.64328
0.405931
0.647029
0.658599
0.648014
0.666956
0.685943
0.366578
0.6472
0.387724
0.606343
0.654382
0.398769
0.623088
0.710597
0.663861
0.394317
0.373163
0.519052
0.595576
0.384736
0.372698
0.377868
0.389206
0.63278
0.634689
0.711005
0.35809
0.378572
0.67397
0.625806
0.364709
0.353456
0.403203
0.618623
0.679846
0.664262
0.639753
0.39196
0.383621
0.710153
0.362636
0.413659
0.386268
0.687183
0.345888
0.386928
0.526631
0.657696
0.63834
0.702467
0.683666
0.382224
0.352945
0.390615
0.454746
0.383307
0.362096
0.618826
0.638473
0.649319
0.680862
0.363934
0.392335
0.655115
0.397007
0.687009
0.62929
0.711964
0.359511
0.382719
0.649024
0.712085
0.533259
0.363495
0.65999
0.700448
0.523344
0.6647
0.662764
0.710361
0.621731
0.412185
0.684419
0.711986
0.587368
0.640665
0.709257
0.641516
0.711185
0.669638
0.339416
0.34616
0.390816
0.711787
0.461604
0.395092
0.642561
0.651853
0.369363
0.588968
0.345158
0.595975
0.444959
0.356583
0.655955
0.644886
0.40522
0.482658
0.711571
0.3666
0.65929
0.37587
0.363211
0.566707
0.550258
0.434113
0.679901
0.381338
0.64697
0.351562
0.365188
0.684583
0.406865
0.552977
0.357669
0.589373
0.544355
0.710677
0.655131
0.356287
0.335699
0.595791
0.410323
0.654715
0.419874
0.543136
0.695191
0.647667
0.419063
0.548681
0.639174
0.651651
0.674842
0.306185
0.371804
0.475171
0.639833
0.651579
0.342936
0.680967
0.534659
0.362817
0.358596
0.611309
0.618754
0.710902
0.712536
0.598929
0.633662
0.706866
0.624043
0.359738
0.601843
0.401761
0.667463
0.666372
0.361425
0.662184
0.65625
0.35569
0.351069
0.392331
0.709314
0.368853
0.56541
0.644952
0.602583
0.368298
0.656892
0.368405
0.52334
0.709237
0.711195
0.617307
0.709794
0.561912
0.628917
0.48063
0.653083
0.373001
0.688647
0.676979
0.396935
0.711642
0.637053
0.355459
0.357481
0.364826
0.665359
0.375563
0.711543
0.390123
0.663062
0.36034
0.4155
0.361772
0.645851
0.661824
0.506635
0.374501
0.563079
0.705261
0.405087
0.529454
0.656953
0.362542
0.535164
0.711901
0.655378
0.685643
0.35531
0.442036
0.654619
0.675138
0.606804
0.381495
0.368422
0.662026
0.709946
0.710885
0.709919
0.509881
0.648858
0.505416
0.668812
0.382375
0.367841
0.71007
0.65477
0.70779
0.378529
0.687348
0.519636
0.557064
0.371002
0.361807
0.659924
0.659977
0.498264
0.339583
0.679954
0.711854
0.354816
0.552308
0.639461
0.351293
0.363481
0.35652
0.630228
0.357604
0.405189
0.665829
0.425566
0.652214
0.594246
0.354591
0.40131
0.658862
0.351619
0.344946
0.711943
0.365252
0.328664
0.538388
0.660476
0.655283
0.379373
0.342556
0.34554
0.636885
0.364426
0.656209
0.350899
0.644458
0.656829
0.668845
0.628675
0.643563
0.635785
0.680434
0.656588
0.658594
0.364029
0.383327
0.636774
0.706438
0.438483
0.631887
0.503904
0.7079
0.586336
0.349189
0.672895
0.656606
0.655032
0.341119
0.646755
0.355562
0.664836
0.428692
0.640518
0.684549
0.356554
0.651897
0.403499
0.405647
0.629462
0.382461
0.626913
0.709465
0.663278
0.393083
0.680843
0.386771
0.361108
0.355062
0.395782
0.585588
0.353386
0.595523
0.709469
0.340688
0.354636
0.420595
0.516844
0.580483
0.61278
0.400583
0.386423
0.346607
0.361889
0.373899
0.581859
0.644599
0.350325
0.709607
0.644795
0.356427
0.656098
0.6247
0.7086
0.349047
0.712213
0.636598
0.648291
0.666313
0.35074
0.65436
0.650601
0.647298
0.610822
0.699332
0.35702
0.354197
0.668709
0.471954
0.3778
0.685762
0.358808
0.50505
0.57991
0.651228
0.653657
0.361073
0.63079
0.355121
0.338293
0.633799
0.654875
0.650996
0.665273
0.610318
0.361871
0.655819
0.353613
0.437189
0.657823
0.711233
0.654746
0.339149
0.368991
0.654347
0.365185
0.657547
0.589866
0.380896
0.355902
0.671165
0.357977
0.684688
0.657005
0.611123
0.357801
0.347522
0.44874
0.475929
0.570977
0.424029
0.695286
0.614366
0.660065
0.709151
0.644033
0.372819
0.356486
0.658431
0.699608
0.60262
0.397777
0.370406
0.63053
0.355111
0.680403
0.552937
0.340062
0.65298
0.391861
0.65782
0.362778
0.652765
0.354267
0.660756
0.698891
0.368356
0.658522
0.595101
0.368978
0.710548
0.675738
0.503772
0.363377
0.337419
0.419978
0.649491
0.602809
0.350551
0.518834
0.645482
0.699634
0.368101
0.566698
0.646808
0.389651
0.695742
0.686198
0.363673
0.662151
0.712315
0.363997
0.549491
0.403111
0.596335
0.389282
0.363328
0.650463
0.398091
0.400669
0.356246
0.678465
0.63905
0.366676
0.679202
0.336909
0.623487
0.389709
0.640695
0.339903
0.693694
0.668973
0.604989
0.71012
0.485725
0.699949
0.708823
0.355574
0.578982
0.607546
0.468395
0.643841
0.426654
0.382126
0.655685
0.413284
0.51286
0.345382
0.681035
0.366623
0.3553
0.644707
0.682157
0.418122
0.668655
0.637995
0.709287
0.662326
0.712494
0.412082
0.655804
0.41692
0.358938
0.657237
0.641117
0.662382
0.657984
0.361593
0.385859
0.34628
0.636375
0.709677
0.336949
0.661838
0.37993
0.391193
0.372194
0.657391
0.355651
0.656064
0.657714
0.577016
0.667778
0.658761
0.526787
0.602902
0.376263
0.364301
0.417965
0.7125
0.712355
0.376015
0.581624
0.628832
0.602365
0.35557
0.395887
0.616658
0.256394
0.610776
0.573105
0.414111
0.704382
0.634396
0.388929
0.655402
0.346784
0.672375
0.652814
0.64466
0.355162
0.402469
0.625843
0.356989
0.375536
0.669809
0.35733
0.702838
0.675354
0.648403
0.638065
0.338048
0.712907
0.633228
0.675404
0.323267
0.663462
0.35704
0.364645
0.657511
0.679393
0.709196
0.218661
0.683713
0.576794
0.711119
0.385348
0.375923
0.38705
0.667288
0.352934
0.352742
0.363326
0.571684
0.348829
0.360499
0.379813
0.65734
0.404589
0.710094
0.707037
0.668413
0.394579
0.666325
0.601534
0.710371
0.36362
0.608976
0.343849
0.413323
0.681713
0.416647
0.581198
0.642934
0.710485
0.40791
0.295299
0.342253
0.495203
0.710546
0.215565
0.660875
0.679166
0.639707
0.390855
0.354859
0.30776
0.607735
0.40176
0.709195
0.544665
0.705824
0.663303
0.394614
0.584143
0.362745
0.567319
0.591646
0.655429
0.555356
0.468294
0.610742
0.605443
0.658531
0.404837
0.34357
0.380281
0.639892
0.484611
0.71119
0.408139
0.3601
0.646244
0.665518
0.711507
0.418247
0.667647
0.493543
0.497866
0.604602
0.355504
0.417972
0.363608
0.679125
0.710506
0.609362
0.636331
0.306834
0.663361
0.603357
0.710343
0.710559
0.66348
0.656512
0.69806
0.641233
0.650077
0.354541
0.668247
0.664686
0.693046
0.66431
0.678703
0.547816
0.411491
0.36646
0.592297
0.381151
0.338665
0.666701
0.345959
0.578743
0.675093
0.633805
0.656253
0.356148
0.666268
0.352938
0.370719
0.696317
0.649907
0.68051
0.389465
0.661475
0.679853
0.597142
0.682272
0.356512
0.695643
0.654496
0.632145
0.359514
0.643527
0.352707
0.657962
0.380566
0.409835
0.506322
0.395695
0.655853
0.645644
0.686481
0.364323
0.697314
0.36901
0.349158
0.649836
0.42219
0.387603
0.683102
0.354633
0.44687
0.616822
0.622416
0.651677
0.422961
0.532825
0.605345
0.688719
0.547086
0.651347
0.471725
0.664639
0.635066
0.596965
0.363854
0.381751
0.393095
0.665216
0.355937
0.611316
0.667967
0.553408
0.687605
0.49516
0.627424
0.625425
0.340562
0.669181
0.627639
0.47549
0.627987
0.65506
0.652586
0.704302
0.391815
0.339539
0.65248
0.488335
0.509124
0.669523
0.663966
0.678471
0.650841
0.652545
0.571706
0.614044
0.65515
0.353857
0.368236
0.365649
0.343541
0.710852
0.409762
0.502582
0.65316
0.629814
0.357591
0.656211
0.656586
0.389022
0.337246
0.711713
0.667706
0.353791
0.364771
0.363102
0.709125
0.650875
0.363172
0.369814
0.415698
0.363505
0.343015
0.376189
0.663855
0.6699
0.639282
0.401053
0.634946
0.562417
0.548928
0.35483
0.414431
0.649238
0.710221
0.393062
0.69472
0.391645
0.644858
0.354856
0.667804
0.408342
0.650055
0.659767
0.39519
0.499524
0.356606
0.655965
0.367336
0.567299
0.36007
0.458753
0.342466
0.560099
0.406024
0.710502
0.712083
0.547725
0.642726
0.354265
0.641752
0.706116
0.660648
0.559813
0.624026
0.415073
0.392571
0.379051
0.649014
0.269284
0.656074
0.486778
0.640632
0.655536
0.439074
0.647668
0.348534
0.372625
0.352559
0.459474
0.508585
0.662505
0.383977
0.356306
0.686474
0.331058
0.359188
0.534105
0.34009
0.389876
0.366271
0.662079
0.597801
0.570956
0.365597
0.638511
0.67785
0.364846
0.287235
0.658972
0.685771
0.566352
0.451058
0.354743
0.321984
0.38379
0.661801
0.592515
0.479448
0.631792
0.358105
0.523171
0.387546
0.712842
0.657384
0.416052
0.364832
0.597672
0.529698
0.657353
0.650439
0.650457
0.666739
0.657154
0.380383
0.357391
0.377966
0.399932
0.51283
0.711499
0.599437
0.407934
0.407979
0.417969
0.363534
0.677904
0.620631
0.396951
0.356402
0.675577
0.35972
0.604657
0.647642
0.639035
0.699097
0.519098
0.379964
0.401661
0.611654
0.415789
0.398311
0.362431
0.705996
0.672534
0.368074
0.413483
0.709887
0.406814
0.678715
0.649013
0.397652
0.356082
0.365627
0.67486
0.378677
0.709389
0.640104
0.555815
0.365818
0.46776
0.657517
0.658305
0.372167
0.652762
0.592537
0.366217
0.660145
0.663001
0.340962
0.389014
0.648385
0.390381
0.403438
0.645447
0.3046
0.669324
0.627176
0.647712
0.594235
0.654558
0.676488
0.702373
0.350243
0.358186
0.60705
0.652454
0.402189
0.655987
0.348817
0.670219
0.652962
0.518327
0.59884
0.392661
0.401983
0.657332
0.654063
0.633554
0.660148
0.67952
0.711051
0.662926
0.709536
0.660693
0.651027
0.663116
0.710406
0.70015
0.361224
0.649546
0.355726
0.671617
0.668732
0.643683
0.634181
0.636874
0.352679
0.366114
0.349689
0.372429
0.636025
0.41114
0.348696
0.631875
0.364462
0.640545
0.379007
0.646906
0.655233
0.398923
0.334729
0.339243
0.6667
0.366481
0.662526
0.651173
0.341071
0.648095
0.497076
0.338833
0.353088
0.36529
0.634971
0.386284
0.668996
0.492379
0.35632
0.677187
0.682459
0.6502
0.391726
0.52901
0.360231
0.636215
0.702897
0.674599
0.37853
0.651218
0.669249
0.635881
0.369618
0.66665
0.382498
0.395283
0.664086
0.405361
0.653901
0.387545
0.383047
0.384433
0.637376
0.356153
0.365102
0.371777
0.451147
0.711964
0.653801
0.365717
0.556885
0.677605
0.495195
0.40727
0.339317
0.499028
0.374604
0.400298
0.666612
0.397496
0.397107
0.66486
0.658061
0.385801
0.641441
0.373594
0.711408
0.35014
0.651544
0.7124
0.638223
0.704941
0.356251
0.391697
0.358236
0.698851
0.650393
0.530391
0.488393
0.328016
0.280133
0.690801
0.349121
0.669518
0.33553
0.711066
0.621186
0.399803
0.364521
0.402965
0.412767
0.362102
0.59865
0.636151
0.409064
0.666133
0.589265
0.356013
0.353761
0.656895
0.389786
0.658227
0.37041
0.638543
0.604343
0.667144
0.712423
0.343534
0.652715
0.670819
0.661697
0.393259
0.60366
0.538843
0.338356
0.665665
0.603454
0.665044
0.640766
0.656861
0.662668
0.661588
0.691142
0.676164
0.406188
0.648717
0.404537
0.424933
0.66957
0.358533
0.653707
0.615959
0.355946
0.634912
0.393173
0.362337
0.65904
0.604864
0.658208
0.371668
0.641312
0.564377
0.350035
0.405989
0.655415
0.678765
0.338371
0.368972
0.643589
0.657358
0.379029
0.593694
0.658594
0.599729
0.39089
0.385241
0.360946
0.605305
0.352854
0.652982
0.639468
0.689382
0.56518
0.657972
0.374918
0.655036
0.557971
0.659738
0.554085
0.353158
0.35574
0.361192
0.645883
0.653148
0.367926
0.602474
0.343046
0.60667
0.672029
0.358651
0.590418
0.654098
0.575038
0.403612
0.400395
0.343463
0.657238
0.65396
0.56227
0.450716
0.663223
0.395581
0.583394
0.710813
0.650475
0.39939
0.567915
0.355941
0.623521
0.363331
0.659254
0.659007
0.365989
0.659496
0.411326
0.71019
0.595325
0.709138
0.665907
0.388892
0.69239
0.682134
0.674063
0.66021
0.415246
0.710767
0.364319
0.680917
0.360042
0.417077
0.355362
0.362395
0.379
0.401922
0.658291
0.322198
0.352156
0.611104
0.659285
0.638083
0.365254
0.634119
0.630846
0.7011
0.353331
0.558048
0.676623
0.354641
0.367167
0.38491
0.579663
0.443688
0.400469
0.555936
0.364151
0.712684
0.43709
0.384775
0.411715
0.599568
0.342961
0.678975
0.35707
0.460123
0.337091
0.662345
0.349428
0.608996
0.710933
0.621681
0.40516
0.409226
0.661434
0.656988
0.365581
0.361063
0.696843
0.41676
0.643001
0.400756
0.498799
0.361056
0.676789
0.357314
0.657855
0.417979
0.671475
0.660547
0.655134
0.711174
0.363365
0.358913
0.363245
0.652778
0.631021
0.636502
0.512685
0.355957
0.646592
0.340567
0.648837
0.593481
0.383039
0.356193
0.648096
0.66124
0.360753
0.711254
0.662546
0.649496
0.647853
0.357395
0.585512
0.402697
0.650454
0.351997
0.707976
0.647167
0.660901
0.658723
0.356208
0.658484
0.399585
0.344369
0.679558
0.711275
0.500635
0.654999
0.7107
0.39405
0.643599
0.661671
0.662261
0.360593
0.384329
0.629467
0.40929
0.669136
0.66697
0.655966
0.663019
0.266179
0.413739
0.59693
0.363987
0.653676
0.656206
0.433254
0.657566
0.373135
0.611957
0.643922
0.623136
0.658355
0.398031
0.35463
0.661705
0.651082
0.355103
0.351676
0.359103
0.361036
0.352453
0.364422
0.352712
0.37913
0.659726
0.359289
0.391026
0.642663
0.500102
0.710071
0.358111
0.41092
0.675968
0.423947
0.456408
0.652981
0.339814
0.605777
0.710318
0.551886
0.640858
0.369087
0.654528
0.707382
0.340267
0.391298
0.383445
0.614229
0.552292
0.65633
0.6922
0.650651
0.642568
0.344203
0.658465
0.705665
0.657711
0.408225
0.67544
0.574668
0.342093
0.38394
0.369921
0.361617
0.356005
0.541942
0.617969
0.637247
0.40099
0.34051
0.659292
0.368692
0.648946
0.681279
0.655515
0.623299
0.665569
0.355138
0.361221
0.363197
0.525977
0.353688
0.673355
0.36349
0.681005
0.696645
0.668609
0.34754
0.411246
0.384089
0.659839
0.36734
0.382175
0.66586
0.64145
0.58448
0.694302
0.655161
0.64258
0.373268
0.566819
0.653066
0.467186
0.659322
0.648646
0.644997
0.39019
0.369159
0.662106
0.433461
0.571897
0.399931
0.624326
0.658156
0.359844
0.352257
0.633161
0.45668
0.653418
0.648292
0.383912
0.416867
0.712462
0.389286
0.371148
0.660796
0.65531
0.356928
0.663416
0.712141
0.634131
0.371797
0.542487
0.37728
0.663668
0.657644
0.64278
0.633819
0.712844
0.359395
0.336858
0.643354
0.404408
0.549174
0.356556
0.665895
0.364583
0.600392
0.652484
0.712813
0.37838
0.709295
0.711757
0.388937
0.623337
0.365731
0.661682
0.386795
0.403216
0.362467
0.633702
0.670105
0.29003
0.360571
0.647259
0.657226
0.407752