# vtk DataFile Version 1.0
unstructured grid
ascii
DATASET UNSTRUCTURED_GRID
points 13672 float
0.0796578 -0.059106 0
0.00128732 0.00159165 0
0.00227961 -0.00102548 0
0.0791586 -0.0598787 0
-0.0546216 0.01 0
0.000495206 0.025 0
0.0800549 -0.035 0
0.135172 -0.08 0
-0.0546216 -0.0451168 0
0.000495206 -0.0301168 0
0.0800549 -0.0901168 0
0.135172 -0.135117 0
-0.0546216 -0.0451168 -0.00551168
0.000495206 -0.0301168 -0.00551168
0.0800549 -0.0901168 -0.00551168
0.135172 -0.135117 -0.00551168
0.135172 -0.08 -0.00551168
0.0800549 -0.035 -0.00551168
0.000495206 0.025 -0.00551168
-0.0546216 0.01 -0.00551168
0.00128732 0.00159165 -0.00551168
0.00227961 -0.00102548 -0.00551168
0.0791586 -0.0598787 -0.00551168
0.0796578 -0.059106 -0.00551168
0.00165953 -0.000990923 0
0.00119576 -0.000874076 0
0.000866021 -0.000641801 0
0.000645147 -0.000349912 0
0.00052235 -1.7281e-05 0
0.00049972 0.000348016 0
0.000601632 0.000737716 0
0.000861774 0.0011403 0
0.00157235 0.00183217 0
0.00188647 0.00206725 0
0.00222612 0.00230203 0
0.00258713 0.00254351 0
0.00296826 0.00279524 0
0.00337118 0.00305664 0
0.00379785 0.00332658 0
0.00425045 0.00360349 0
0.00473139 0.00388521 0
0.0052432 0.00416895 0
0.0057881 0.00445204 0
0.00636753 0.00473281 0
0.00698281 0.00500961 0
0.00763526 0.00528058 0
0.00832616 0.00554366 0
0.00905691 0.00579603 0
0.00982918 0.00603333 0
0.0106445 0.00625033 0
0.0115038 0.00644128 0
0.0124073 0.00660297 0
0.0133543 0.00673414 0
0.0143444 0.00683382 0
0.0153769 0.00690031 0
0.0164512 0.00693173 0
0.0175666 0.00692547 0
0.0187219 0.00687822 0
0.0199156 0.00678477 0
0.0211454 0.00663864 0
0.0224084 0.00643275 0
0.0237018 0.00616676 0
0.0250249 0.00584739 0
0.026375 0.00547298 0
0.0277479 0.00503752 0
0.0291386 0.00453545 0
0.0305433 0.0039653 0
0.0319572 0.0033256 0
0.0333681 0.00260019 0
0.034775 0.00179799 0
0.0361793 0.000930615 0
0.0375798 3.12222e-06 0
0.0389689 -0.000988429 0
0.0403357 -0.00205109 0
0.041675 -0.00318283 0
0.0429849 -0.00437751 0
0.0442643 -0.00562904 0
0.0455126 -0.00693089 0
0.0467314 -0.00827518 0
0.0479204 -0.00965638 0
0.0490661 -0.0110799 0
0.0501515 -0.0125519 0
0.0511696 -0.0140695 0
0.0521492 -0.0156071 0
0.0531202 -0.0171411 0
0.0540851 -0.0186663 0
0.0550431 -0.0201798 0
0.0559923 -0.0216793 0
0.0569311 -0.0231626 0
0.0578582 -0.0246273 0
0.0587723 -0.0260715 0
0.0596721 -0.027493 0
0.0605563 -0.02889 0
0.0614241 -0.0302609 0
0.0622742 -0.0316042 0
0.063106 -0.0329183 0
0.0639186 -0.034202 0
0.0647113 -0.0354543 0
0.0654835 -0.0366743 0
0.0662345 -0.0378613 0
0.0669642 -0.0390145 0
0.0676726 -0.0401333 0
0.0683597 -0.0412172 0
0.0690246 -0.0422665 0
0.0696662 -0.0432819 0
0.0702841 -0.0442636 0
0.0708793 -0.0452111 0
0.0714538 -0.0461237 0
0.072009 -0.047001 0
0.0725452 -0.0478434 0
0.0730611 -0.0486524 0
0.073556 -0.0494294 0
0.0740291 -0.0501756 0
0.0744812 -0.0508916 0
0.0749138 -0.0515773 0
0.0753285 -0.0522331 0
0.0757266 -0.0528592 0
0.076109 -0.0534564 0
0.0764753 -0.0540264 0
0.0768243 -0.054571 0
0.0771553 -0.0550919 0
0.0774679 -0.0555901 0
0.0777617 -0.0560669 0
0.0780369 -0.056523 0
0.0782958 -0.0569578 0
0.0785421 -0.0573703 0
0.0787786 -0.0577603 0
0.0790073 -0.0581279 0
0.0792295 -0.058474 0
0.0794462 -0.0587995 0
0.0798803 -0.0594162 0
0.0800272 -0.0596588 0
0.0800357 -0.0598891 0
0.0799275 -0.0600784 0
0.0797205 -0.0601773 0
0.0794593 -0.0601051 0
0.0789155 -0.0596491 0
0.0786707 -0.0593963 0
0.0784111 -0.0591319 0
0.0781372 -0.0588542 0
0.0778566 -0.0585548 0
0.0775715 -0.0582308 0
0.0772803 -0.0578828 0
0.0769832 -0.0575099 0
0.0766822 -0.0571097 0
0.0763801 -0.0566796 0
0.0760759 -0.0562196 0
0.0757623 -0.0557337 0
0.0754359 -0.0552232 0
0.0750951 -0.0546879 0
0.0747379 -0.054128 0
0.0743626 -0.0535435 0
0.0739688 -0.0529338 0
0.0735559 -0.0522981 0
0.0731238 -0.0516357 0
0.0726718 -0.050946 0
0.0721991 -0.0502288 0
0.0717046 -0.049484 0
0.0711872 -0.0487117 0
0.0706461 -0.047912 0
0.0700804 -0.0470849 0
0.0694892 -0.0462308 0
0.0688718 -0.0453499 0
0.0682271 -0.0444431 0
0.0675544 -0.043511 0
0.0668527 -0.0425546 0
0.0661215 -0.0415748 0
0.06536 -0.040573 0
0.0645676 -0.0395504 0
0.0637439 -0.0385087 0
0.0628887 -0.0374493 0
0.062002 -0.0363741 0
0.0610838 -0.0352847 0
0.0601345 -0.0341831 0
0.0591547 -0.033071 0
0.0581456 -0.0319502 0
0.0571083 -0.0308224 0
0.0560444 -0.0296893 0
0.0549562 -0.028552 0
0.053845 -0.0274126 0
0.0527113 -0.0262746 0
0.051554 -0.0251427 0
0.0503724 -0.0240222 0
0.0491675 -0.0229164 0
0.047941 -0.0218282 0
0.0466955 -0.0207597 0
0.0454337 -0.0197126 0
0.0441592 -0.0186878 0
0.0428751 -0.0176863 0
0.0415841 -0.0167097 0
0.0402878 -0.0157609 0
0.0389879 -0.0148428 0
0.0376864 -0.0139575 0
0.0363853 -0.013107 0
0.0350871 -0.0122931 0
0.0337942 -0.0115164 0
0.0325095 -0.0107772 0
0.0312357 -0.0100756 0
0.0299758 -0.00941024 0
0.0287337 -0.00877784 0
0.0275126 -0.00817571 0
0.0263139 -0.00760375 0
0.0251376 -0.00706528 0
0.0239829 -0.0065649 0
0.0228537 -0.00609619 0
0.0217522 -0.00565563 0
0.0206795 -0.00524226 0
0.0196364 -0.00485507 0
0.0186233 -0.00449318 0
0.0176408 -0.00415577 0
0.016689 -0.00384204 0
0.0157682 -0.00355115 0
0.0148783 -0.00328218 0
0.0140192 -0.00303468 0
0.0131906 -0.00280795 0
0.0123925 -0.00260016 0
0.0116246 -0.00241012 0
0.0108864 -0.00223769 0
0.0101774 -0.00208212 0
0.00949701 -0.00194206 0
0.00884483 -0.0018163 0
0.0082202 -0.0017039 0
0.00762247 -0.00160391 0
0.00705097 -0.00151528 0
0.006505 -0.00143697 0
0.0059838 -0.00136806 0
0.00548662 -0.00130772 0
0.00501265 -0.00125519 0
0.00456114 -0.00120954 0
0.00413136 -0.00116914 0
0.00372257 -0.00113251 0
0.00333398 -0.00109853 0
0.00296466 -0.00106798 0
0.00261363 -0.0010431 0
-0.052721 -0.0445996 0
-0.0508204 -0.0440823 0
-0.0489199 -0.0435651 0
-0.0470193 -0.0430478 0
-0.0451187 -0.0425306 0
-0.0432181 -0.0420134 0
-0.0413175 -0.0414961 0
-0.039417 -0.0409789 0
-0.0375164 -0.0404616 0
-0.0356158 -0.0399444 0
-0.0337152 -0.0394271 0
-0.0318146 -0.0389099 0
-0.0299141 -0.0383927 0
-0.0280135 -0.0378754 0
-0.0261129 -0.0373582 0
-0.0242123 -0.0368409 0
-0.0223117 -0.0363237 0
-0.0204112 -0.0358065 0
-0.0185106 -0.0352892 0
-0.01661 -0.034772 0
-0.0147094 -0.0342547 0
-0.0128088 -0.0337375 0
-0.0109083 -0.0332202 0
-0.00900769 -0.032703 0
-0.00710711 -0.0321858 0
-0.00520653 -0.0316685 0
-0.00330595 -0.0311513 0
-0.00140537 -0.030634 0
0.00190689 -0.0299614 0
0.00332271 -0.0298498 0
0.00474133 -0.0297825 0
0.00616136 -0.0297597 0
0.0075814 -0.0297814 0
0.00900007 -0.0298477 0
0.010416 -0.0299583 0
0.0118278 -0.0301127 0
0.0132342 -0.0303103 0
0.0146339 -0.0305504 0
0.0160259 -0.0308322 0
0.0174091 -0.0311546 0
0.0187824 -0.0315166 0
0.020145 -0.031917 0
0.0214961 -0.0323546 0
0.0228351 -0.032828 0
0.0241613 -0.0333361 0
0.0254744 -0.0338774 0
0.0267738 -0.0344507 0
0.0280592 -0.0350545 0
0.0293306 -0.0356877 0
0.0305875 -0.0363488 0
0.0318301 -0.0370367 0
0.0330581 -0.0377501 0
0.0342717 -0.0384879 0
0.0354708 -0.0392489 0
0.0366556 -0.0400321 0
0.0378262 -0.0408363 0
0.0389828 -0.0416607 0
0.0401254 -0.0425042 0
0.0412543 -0.0433659 0
0.0423698 -0.0442451 0
0.043472 -0.0451408 0
0.0445612 -0.0460523 0
0.0456375 -0.0469789 0
0.0467013 -0.0479199 0
0.0477529 -0.0488746 0
0.0487923 -0.0498424 0
0.04982 -0.0508227 0
0.0508362 -0.051815 0
0.051841 -0.0528187 0
0.0528348 -0.0538333 0
0.0538178 -0.0548584 0
0.0547903 -0.0558935 0
0.0557524 -0.0569382 0
0.0567045 -0.0579922 0
0.0576467 -0.0590549 0
0.0585792 -0.0601261 0
0.0595024 -0.0612055 0
0.0604163 -0.0622926 0
0.0613212 -0.0633873 0
0.0622174 -0.0644891 0
0.0631049 -0.0655979 0
0.0639841 -0.0667134 0
0.064855 -0.0678353 0
0.0657179 -0.0689633 0
0.0665729 -0.0700974 0
0.0674202 -0.0712372 0
0.06826 -0.0723826 0
0.0690925 -0.0735333 0
0.0699178 -0.0746892 0
0.070736 -0.0758501 0
0.0715473 -0.0770159 0
0.0723518 -0.0781863 0
0.0731498 -0.0793612 0
0.0739412 -0.0805405 0
0.0747264 -0.081724 0
0.0755053 -0.0829116 0
0.0762781 -0.0841033 0
0.0770449 -0.0852987 0
0.0778059 -0.0864979 0
0.0785611 -0.0877007 0
0.0793108 -0.088907 0
0.0814681 -0.0912706 0
0.0828814 -0.0924245 0
0.0842946 -0.0935783 0
0.0857079 -0.0947322 0
0.0871211 -0.095886 0
0.0885344 -0.0970399 0
0.0899476 -0.0981937 0
0.0913609 -0.0993476 0
0.0927741 -0.100501 0
0.0941874 -0.101655 0
0.0956006 -0.102809 0
0.0970139 -0.103963 0
0.0984272 -0.105117 0
0.0998404 -0.106271 0
0.101254 -0.107424 0
0.102667 -0.108578 0
0.10408 -0.109732 0
0.105493 -0.110886 0
0.106907 -0.11204 0
0.10832 -0.113194 0
0.109733 -0.114348 0
0.111146 -0.115501 0
0.11256 -0.116655 0
0.113973 -0.117809 0
0.115386 -0.118963 0
0.116799 -0.120117 0
0.118213 -0.121271 0
0.119626 -0.122424 0
0.121039 -0.123578 0
0.122452 -0.124732 0
0.123866 -0.125886 0
0.125279 -0.12704 0
0.126692 -0.128194 0
0.128105 -0.129348 0
0.129519 -0.130501 0
0.130932 -0.131655 0
0.132345 -0.132809 0
0.133758 -0.133963 0
0.135172 -0.133216 0
0.135172 -0.131316 0
0.135172 -0.129415 0
0.135172 -0.127514 0
0.135172 -0.125614 0
0.135172 -0.123713 0
0.135172 -0.121813 0
0.135172 -0.119912 0
0.135172 -0.118012 0
0.135172 -0.116111 0
0.135172 -0.11421 0
0.135172 -0.11231 0
0.135172 -0.110409 0
0.135172 -0.108509 0
0.135172 -0.106608 0
0.135172 -0.104708 0
0.135172 -0.102807 0
0.135172 -0.100906 0
0.135172 -0.0990058 0
0.135172 -0.0971052 0
0.135172 -0.0952046 0
0.135172 -0.0933041 0
0.135172 -0.0914035 0
0.135172 -0.0895029 0
0.135172 -0.0876023 0
0.135172 -0.0857017 0
0.135172 -0.0838012 0
0.135172 -0.0819006 0
0.133758 -0.0788462 0
0.132345 -0.0776923 0
0.130932 -0.0765385 0
0.129519 -0.0753846 0
0.128105 -0.0742308 0
0.126692 -0.0730769 0
0.125279 -0.0719231 0
0.123866 -0.0707692 0
0.122452 -0.0696154 0
0.121039 -0.0684615 0
0.119626 -0.0673077 0
0.118213 -0.0661538 0
0.116799 -0.065 0
0.115386 -0.0638462 0
0.113973 -0.0626923 0
0.11256 -0.0615385 0
0.111146 -0.0603846 0
0.109733 -0.0592308 0
0.10832 -0.0580769 0
0.106907 -0.0569231 0
0.105493 -0.0557692 0
0.10408 -0.0546154 0
0.102667 -0.0534615 0
0.101254 -0.0523077 0
0.0998404 -0.0511538 0
0.0984272 -0.05 0
0.0970139 -0.0488462 0
0.0956006 -0.0476923 0
[...]
CELL_DATA 13116
SCALARS rho float
LOOKUP_TABLE default
0.49899
0.632325
0.396135
0.667129
0.667352
0.658613
0.371532
0.681198
0.476125
0.669713
0.377264
0.385255
0.667666
0.374981
0.378111
0.658624
0.467466
0.650172
0.655994
0.363379
0.503606
0.420341
0.379355
0.65593
0.559272
0.641556
0.669437
0.398448
0.558845
0.597242
0.659334
0.387139
0.505116
0.401997
0.38561
0.501682
0.621047
0.651849
0.658668
0.664787
0.657145
0.681242
0.377218
0.388745
0.655578
0.655848
0.614386
0.65785
0.373881
0.473517
0.672344
0.393453
0.373872
0.459609
0.503632
0.535038
0.387741
0.656481
0.487122
0.368921
0.374492
0.670276
0.624498
0.658722
0.659375
0.372933
0.660799
0.625364
0.660873
0.659238
0.385155
0.537711
0.417046
0.379072
0.659885
0.387395
0.605493
0.665165
0.36252
0.647542
0.638139
0.639131
0.660161
0.657076
0.651353
0.412355
0.369803
0.620162
0.653985
0.389173
0.399794
0.634284
0.660274
0.663418
0.60175
0.548596
0.561924
0.659717
0.659647
0.549007
0.629921
0.554202
0.656971
0.353339
0.600904
0.384394
0.328561
0.421664
0.391657
0.569042
0.450445
0.625314
0.546602
0.639892
0.648575
0.6617
0.37293
0.350929
0.662987
0.663865
0.625551
0.416904
0.661264
0.400775
0.662087
0.396111
0.371254
0.461919
0.388697
0.475311
0.663275
0.653916
0.458517
0.390421
0.43984
0.537688
0.661399
0.663975
0.628945
0.663758
0.587578
0.617957
0.459946
0.589091
0.614599
0.376819
0.391793
0.631479
0.665096
0.672504
0.497094
0.656614
0.657836
0.390497
0.667518
0.653007
0.383209
0.635668
0.659652
0.620353
0.656589
0.367527
0.660245
0.384541
0.414961
0.670694
0.657704
0.649234
0.381595
0.425098
0.384989
0.66131
0.376464
0.444933
0.660722
0.378398
0.405473
0.4175
0.620624
0.65813
0.376829
0.391936
0.471151
0.621177
0.658139
0.484482
0.375863
0.658013
0.591262
0.417134
0.593883
0.628749
0.659077
0.382354
0.617974
0.658369
0.666538
0.657704
0.652269
0.362518
0.352214
0.573992
0.456662
0.377536
0.661055
0.653402
0.402193
0.559131
0.377722
0.392251
0.383782
0.659134
0.385345
0.359806
0.392728
0.38959
0.330666
0.658339
0.6597
0.401509
0.385771
0.660443
0.444022
0.377416
0.510127
0.670096
0.611742
0.400879
0.660916
0.359226
0.692849
0.389877
0.658923
0.527903
0.65988
0.66067
0.658991
0.359322
0.388099
0.62009
0.660065
0.658291
0.661151
0.658681
0.679825
0.409246
0.667741
0.668346
0.65965
0.394915
0.376587
0.654853
0.662739
0.659026
0.658992
0.484791
0.638899
0.375416
0.381314
0.354075
0.37799
0.581307
0.666153
0.604522
0.366633
0.65642
0.371784
0.396517
0.603232
0.391201
0.638673
0.674632
0.660304
0.656942
0.360834
0.660361
0.644075
0.659664
0.663716
0.360093
0.364436
0.38639
0.532476
0.416031
0.383972
0.304422
0.304609
0.646103
0.37425
0.655702
0.669057
0.367187
0.367583
0.370834
0.411428
0.400032
0.618883
0.546651
0.614224
0.390777
0.658472
0.541756
0.385507
0.369307
0.658591
0.662871
0.657727
0.374042
0.65841
0.368636
0.6535
0.6793
0.670599
0.678626
0.38741
0.660492
0.374756
0.658354
0.666986
0.620699
0.354453
0.304136
0.668805
0.369344
0.632093
0.670349
0.325912
0.639599
0.659541
0.367831
0.656078
0.66167
0.377846
0.664981
0.41266
0.529914
0.68257
0.419145
0.636018
0.366822
0.655023
0.315635
0.658526
0.551359
0.666144
0.400083
0.326033
0.65244
0.392542
0.660976
0.599777
0.382536
0.661291
0.382548
0.408598
0.659942
0.509887
0.624919
0.366083
0.384761
0.667861
0.66877
0.389807
0.669732
0.371996
0.384288
0.662413
0.680728
0.405903
0.372358
0.663218
0.659236
0.658653
0.65586
0.659684
0.496927
0.403855
0.37619
0.374277
0.658665
0.37434
0.469121
0.330731
0.364836
0.320448
0.417505
0.131388
0.39131
0.652111
0.331348
0.661675
0.558194
0.657051
0.611696
0.667552
0.408776
0.362986
0.368461
0.361922
0.658979
0.542227
0.657022
0.558813
0.61599
0.571024
0.636268
0.578581
0.594261
0.659083
0.646709
0.658649
0.358369
0.409416
0.494955
0.416987
0.542435
0.533302
0.373986
0.661157
0.66024
0.390193
0.359597
0.355991
0.37723
0.584033
0.398636
0.382319
0.659591
0.373933
0.527206
0.367834
0.658338
0.642376
0.400436
0.394265
0.65936
0.413311
0.366913
0.376248
0.379154
0.391537
0.364702
0.360267
0.416414
0.396163
0.363777
0.550306
0.410265
0.653283
0.338524
0.395898
0.462354
0.373534
0.38903
0.375354
0.660667
0.401064
0.593425
0.423671
0.373342
0.561842
0.655426
0.411826
0.63912
0.572939
0.57163
0.364366
0.659795
0.353554
0.659618
0.65944
0.38857
0.371902
0.588356
0.352625
0.421018
0.555356
0.327292
0.634604
0.618822
0.370707
0.399871
0.378744
0.440321
0.368082
0.37682
0.381213
0.374882
0.671738
0.66993
0.418124
0.552312
0.438708
0.615318
0.317729
0.401574
0.481031
0.388917
0.655334
0.268988
0.339262
0.454624
0.655073
0.653333
0.516041
0.323906
0.371187
0.526002
0.680269
0.659072
0.522279
0.602369
0.578986
0.356007
0.640996
0.523328
0.618906
0.28312
0.400234
0.638395
0.665391
0.610455
0.670103
0.645001
0.646399
0.655569
0.619264
0.657001
0.382811
0.6551
0.31187
0.377944
0.356369
0.665337
0.654011
0.282897
0.651185
0.575701
0.354945
0.658822
0.662389
0.654615
0.398262
0.400319
0.663334
0.36601
0.360218
0.382386
0.355872
0.652936
0.377199
0.663712
0.410913
0.632492
0.671212
0.66005
0.668468
0.366088
0.368969
0.654672
0.69298
0.614382
0.671725
0.668094
0.458451
0.366619
0.390395
0.658254
0.478816
0.356433
0.413187
0.36064
0.673538
0.658645
0.283846
0.420688
0.651002
0.430235
0.652134
0.613139
0.387705
0.359869
0.61036
0.660206
0.386312
0.650831
0.658142
0.654351
0.392271
0.661098
0.385089
0.659971
0.617499
0.369898
0.329176
0.385735
0.659913
0.391863
0.366479
0.351385
0.65869
0.65463
0.365698
0.373522
0.367364
0.658865
0.417006
0.658297
0.376848
0.541691
0.670052
0.341921
0.383912
0.381403
0.458827
0.393194
0.647714
0.376247
0.402338
0.658313
0.374005
0.658984
0.627495
0.659863
0.364179
0.655995
0.66341
0.666597
0.658316
0.673545
0.66204
0.379763
0.659123
0.40357
0.650878
0.360726
0.679495
0.456302
0.37622
0.659378
0.662921
0.397377
0.580303
0.397473
0.388238
0.659401
0.660135
0.359688
0.37781
0.363773
0.377483
0.674566
0.654434
0.394613
0.372498
0.660783
0.664568
0.543449
0.663026
0.658567
0.369001
0.667813
0.390553
0.67204
0.350523
0.546364
0.443055
0.660057
0.626543
0.532456
0.30982
0.398167
0.657989
0.559641
0.4654
0.662311
0.377158
0.644703
0.667033
0.337399
0.407058
0.664405
0.324377
0.65925
0.621141
0.30018
0.665825
0.599669
0.402683
0.652521
0.385679
0.64791
0.390746
0.658982
0.622861
0.398348
0.658759
0.661099
0.663431
0.576829
0.645439
0.539544
0.385547
0.371668
0.328788
0.377543
0.66169
0.513073
0.662349
0.664583
0.375196
0.41573
0.650006
0.669635
0.659595
0.675305
0.356296
0.646151
0.668315
0.362079
0.343142
0.662901
0.654953
0.649789
0.357926
0.547685
0.399987
0.650928
0.62693
0.658978
0.641704
0.355187
0.648826
0.655085
0.661889
0.659936
0.657661
0.400018
0.659701
0.391798
0.592294
0.669183
0.424699
0.619948
0.658941
0.671069
0.354889
0.36024
0.540461
0.603416
0.364786
0.373377
0.390205
0.371302
0.633388
0.643951
0.65882
0.302325
0.366705
0.660686
0.634372
0.377565
0.409165
0.425479
0.623747
0.657963
0.655652
0.650551
0.392379
0.364821
0.660866
0.398146
0.360798
0.378891
0.65754
0.399734
0.370888
0.527163
0.652936
0.619425
0.658687
0.657965
0.371427
0.378056
0.388935
0.422865
0.4011
0.393184
0.624457
0.648416
0.643487
0.657983
0.36693
0.359022
0.669958
0.358061
0.657587
0.622806
0.659476
0.359538
0.375794
0.642645
0.659309
0.51258
0.377767
0.65249
0.658644
0.522588
0.672363
0.677143
0.660645
0.601775
0.357112
0.657966
0.659158
0.575947
0.650915
0.661693
0.62652
0.660704
0.662755
0.403232
0.395522
0.357572
0.659322
0.454315
0.359577
0.65016
0.660941
0.384002
0.587871
0.402054
0.595074
0.415652
0.368985
0.669814
0.653014
0.358236
0.509249
0.659263
0.383393
0.662987
0.372991
0.383441
0.566627
0.559718
0.462227
0.656914
0.390137
0.660786
0.401496
0.350625
0.658929
0.355488
0.553364
0.363891
0.587308
0.547848
0.660741
0.654904
0.375245
0.402367
0.575313
0.378029
0.659158
0.411336
0.541102
0.658523
0.661425
0.392323
0.566244
0.619586
0.667091
0.661571
0.318914
0.361262
0.498743
0.619174
0.665425
0.337368
0.6571
0.514371
0.368088
0.358921
0.622475
0.623777
0.660993
0.659975
0.559381
0.64263
0.658687
0.630355
0.371857
0.610532
0.422928
0.667276
0.654624
0.288759
0.675385
0.666991
0.398983
0.365392
0.369136
0.661661
0.366316
0.566447
0.656091
0.611982
0.364398
0.649724
0.376078
0.546949
0.65889
0.658854
0.622319
0.658842
0.570294
0.636617
0.473559
0.650534
0.390353
0.657614
0.659978
0.359695
0.660454
0.646476
0.389097
0.37575
0.386039
0.670637
0.372315
0.660494
0.387535
0.681334
0.371905
0.443685
0.377993
0.658747
0.673827
0.482954
0.252665
0.57006
0.658306
0.388158
0.542302
0.66921
0.390221
0.537705
0.659454
0.669975
0.657589
0.388932
0.41915
0.6605
0.656316
0.593516
0.383742
0.35776
0.653067
0.661071
0.660252
0.661238
0.497343
0.654262
0.492128
0.665241
0.381199
0.377139
0.661163
0.666628
0.658665
0.374151
0.657445
0.505746
0.550341
0.393006
0.384976
0.669824
0.678912
0.509484
0.40358
0.65738
0.660306
0.377924
0.562197
0.650173
0.379366
0.39037
0.374405
0.594595
0.420067
0.380049
0.655609
0.41729
0.667656
0.594213
0.374698
0.365699
0.672426
0.394467
0.400204
0.659272
0.381987
0.31877
0.541753
0.672048
0.655691
0.375458
0.40392
0.387657
0.62871
0.384165
0.65639
0.383181
0.651574
0.651695
0.65526
0.611307
0.646758
0.624788
0.658032
0.668244
0.658992
0.37659
0.390555
0.639001
0.658739
0.468546
0.605512
0.509971
0.65881
0.574389
0.400457
0.662731
0.66971
0.650036
0.395916
0.649336
0.404722
0.656881
0.461653
0.649724
0.658158
0.369974
0.658511
0.359764
0.383693
0.625176
0.378886
0.635362
0.661692
0.678265
0.378893
0.659439
0.380863
0.382673
0.363662
0.39214
0.567669
0.376234
0.590458
0.65881
0.393803
0.382709
0.451997
0.536732
0.583168
0.598289
0.366286
0.370148
0.388704
0.37791
0.252582
0.583143
0.632068
0.398593
0.658642
0.655904
0.374524
0.667821
0.633701
0.658773
0.393325
0.660036
0.643849
0.660406
0.668753
0.36931
0.656471
0.662659
0.649944
0.623502
0.658102
0.378261
0.370482
0.657045
0.497359
0.373358
0.658831
0.377732
0.529153
0.57811
0.645651
0.648899
0.38898
0.602853
0.357432
0.395758
0.641524
0.662841
0.664488
0.666695
0.61349
0.386841
0.668641
0.375021
0.467585
0.670549
0.659689
0.660115
0.395221
0.37559
0.668895
0.37762
0.662857
0.603137
0.392397
0.382557
0.662993
0.366207
0.658277
0.662264
0.613446
0.365614
0.394987
0.459126
0.46642
0.571063
0.427568
0.658208
0.599194
0.655339
0.661793
0.652007
0.37003
0.383365
0.664756
0.658033
0.588719
0.425173
0.37719
0.63803
0.375221
0.658593
0.571115
0.405749
0.658447
0.356115
0.66162
0.397484
0.665794
0.360839
0.6556
0.658206
0.317163
0.663029
0.602976
0.298264
0.658758
0.65628
0.507788
0.373656
0.329212
0.421315
0.664269
0.574905
0.415409
0.543085
0.654432
0.658381
0.356591
0.560725
0.642711
0.429928
0.65807
0.658526
0.278695
0.659353
0.65958
0.395273
0.54762
0.378082
0.593857
0.386917
0.383538
0.664699
0.38497
0.37447
0.374923
0.660201
0.633942
0.35848
0.657246
0.325467
0.627343
0.379855
0.636929
0.331861
0.658523
0.657305
0.604469
0.65877
0.513041
0.658169
0.658708
0.396117
0.59154
0.60928
0.432663
0.651558
0.457426
0.357903
0.668419
0.381417
0.52588
0.402036
0.657149
0.376542
0.381468
0.652825
0.658215
0.368849
0.665757
0.648184
0.661665
0.675627
0.66002
0.356211
0.666393
0.363194
0.385317
0.658291
0.652538
0.681423
0.65295
0.384637
0.387612
0.387925
0.634756
0.658725
0.328091
0.677754
0.371849
0.384182
0.38954
0.655089
0.351433
0.669525
0.659152
0.590538
0.659763
0.658413
0.522906
0.599879
0.403198
0.364772
0.368897
0.660013
0.660128
0.374164
0.582939
0.590842
0.600516
0.388741
0.352569
0.60336
0.257192
0.594773
0.552977
0.360251
0.658241
0.635367
0.358914
0.655213
0.39818
0.66231
0.665919
0.647481
0.375773
0.437503
0.634024
0.278371
0.41211
0.658399
0.286
0.658174
0.661296
0.636602
0.647439
0.399548
0.659506
0.640993
0.656378
0.336867
0.66757
0.412145
0.376852
0.650354
0.657998
0.658587
0.218305
0.658518
0.591354
0.659895
0.371021
0.374115
0.366982
0.666467
0.375499
0.376553
0.401978
0.550746
0.393264
0.295042
0.41178
0.656537
0.356336
0.658737
0.658509
0.66336
0.377198
0.659116
0.608025
0.658706
0.386509
0.621139
0.392608
0.382408
0.659439
0.36828
0.579721
0.652388
0.660824
0.357626
0.304644
0.396568
0.520682
0.6612
0.216683
0.652229
0.659982
0.649785
0.392617
0.375556
0.318866
0.576606
0.361653
0.661844
0.563443
0.658459
0.653572
0.359093
0.581391
0.382058
0.522794
0.605076
0.669741
0.526688
0.425962
0.620782
0.593357
0.665562
0.381085
0.333515
0.376831
0.648661
0.484891
0.659658
0.357659
0.365899
0.658924
0.658706
0.658944
0.368133
0.664489
0.519022
0.521732
0.578322
0.391634
0.365675
0.276415
0.658294
0.658952
0.621832
0.612166
0.317498
0.680375
0.614395
0.658961
0.658737
0.677718
0.669827
0.65861
0.652918
0.663664
0.388349
0.661085
0.667469
0.657927
0.661976
0.657991
0.531599
0.356092
0.386274
0.581417
0.382584
0.402426
0.664513
0.396073
0.594627
0.660273
0.631147
0.650657
0.392193
0.666443
0.360958
0.374823
0.658663
0.653907
0.658079
0.375119
0.669848
0.656876
0.581727
0.657843
0.416827
0.657925
0.669156
0.634421
0.363921
0.655225
0.390317
0.669979
0.383236
0.356183
0.473393
0.412822
0.669794
0.658429
0.657594
0.401928
0.65798
0.359778
0.390024
0.643672
0.456259
0.388694
0.6573
0.36743
0.477033
0.62251
0.611094
0.646022
0.454623
0.555463
0.610606
0.658105
0.529073
0.664582
0.495687
0.69754
0.608148
0.601762
0.365715
0.361989
0.412748
0.666527
0.388824
0.618883
0.666667
0.555431
0.658122
0.468819
0.635125
0.632403
0.393744
0.665268
0.596484
0.43886
0.599719
0.668894
0.648608
0.65848
0.392336
0.402767
0.651194
0.48787
0.494847
0.6644
0.656443
0.657565
0.664236
0.66725
0.573624
0.596851
0.668373
0.375098
0.373583
0.377528
0.406993
0.660326
0.419805
0.488086
0.658271
0.637851
0.387257
0.65132
0.664137
0.376611
0.344854
0.660348
0.66298
0.39303
0.367917
0.378411
0.661808
0.639646
0.367616
0.369637
0.361024
0.383585
0.312606
0.376117
0.693479
0.657563
0.647442
0.383768
0.632523
0.559247
0.568963
0.375021
0.359931
0.642681
0.661289
0.370386
0.658429
0.358969
0.656515
0.388798
0.663091
0.372714
0.643994
0.670505
0.380017
0.523452
0.381684
0.666671
0.385455
0.563577
0.376117
0.460898
0.3961
0.554716
0.388376
0.658849
0.659072
0.566693
0.645734
0.362487
0.637747
0.658356
0.670069
0.5565
0.628166
0.360838
0.342451
0.374661
0.663283
0.268541
0.666673
0.505152
0.651928
0.669949
0.410095
0.659738
0.390024
0.373244
0.378361
0.466199
0.471732
0.655721
0.389945
0.383455
0.658794
0.353276
0.368809
0.507901
0.337879
0.370101
0.386732
0.682354
0.611009
0.568569
0.380534
0.634142
0.65863
0.365128
0.300406
0.654783
0.65794
0.526079
0.480008
0.385116
0.336165
0.389111
0.67302
0.577901
0.475732
0.639515
0.37662
0.522234
0.358237
0.659393
0.667217
0.36019
0.379978
0.585928
0.499867
0.668684
0.663775
0.665321
0.667848
0.670165
0.386642
0.417422
0.378557
0.358876
0.491244
0.659392
0.612911
0.355551
0.36259
0.408101
0.390455
0.657473
0.609252
0.390309
0.283165
0.66031
0.386415
0.609572
0.660912
0.631741
0.658046
0.503274
0.359442
0.368257
0.591033
0.360553
0.376718
0.359936
0.658561
0.659665
0.345935
0.357918
0.661241
0.387466
0.659661
0.662219
0.357417
0.400637
0.372752
0.659631
0.372749
0.661711
0.650788
0.556042
0.354893
0.492769
0.664205
0.650796
0.365351
0.647211
0.583046
0.420202
0.662081
0.691932
0.394198
0.378701
0.64202
0.390199
0.359823
0.641621
0.32152
0.656472
0.635104
0.658797
0.588796
0.666379
0.660627
0.658373
0.381202
0.383185
0.598919
0.652921
0.437269
0.668046
0.29669
0.662526
0.647745
0.524236
0.604229
0.343549
0.421314
0.652043
0.664028
0.603901
0.671088
0.658962
0.66068
0.676541
0.661476
0.672654
0.646331
0.674367
0.661169
0.658323
0.310762
0.641642
0.395773
0.662672
0.661337
0.655741
0.622639
0.645841
0.397142
0.393256
0.282303
0.364168
0.628527
0.367723
0.393678
0.640513
0.35784
0.651865
0.389996
0.642604
0.657001
0.383466
0.355644
0.405125
0.66602
0.382825
0.655132
0.658071
0.397127
0.639964
0.515536
0.355121
0.397506
0.357586
0.642729
0.376549
0.664838
0.465423
0.383367
0.656988
0.657289
0.665109
0.358499
0.528691
0.372758
0.634381
0.658626
0.661804
0.369309
0.651921
0.664045
0.615877
0.371582
0.665666
0.359731
0.359793
0.661238
0.415856
0.669248
0.350736
0.370086
0.412794
0.622366
0.393565
0.258417
0.392065
0.433084
0.659814
0.658209
0.377109
0.552494
0.658943
0.522165
0.37686
0.404708
0.51802
0.36257
0.353852
0.654318
0.363458
0.362705
0.671129
0.671317
0.376567
0.650046
0.388918
0.660425
0.398626
0.646894
0.659225
0.647572
0.658303
0.40873
0.356182
0.36756
0.658583
0.645197
0.553003
0.498528
0.34568
0.281555
0.657798
0.382233
0.65689
0.355919
0.658943
0.627238
0.370728
0.389887
0.355077
0.358076
0.391673
0.585132
0.629802
0.373678
0.659783
0.592933
0.380368
0.376744
0.66844
0.390541
0.657251
0.398624
0.648125
0.610308
0.659064
0.659734
0.401202
0.667164
0.661775
0.683014
0.385653
0.580919
0.559049
0.407112
0.666981
0.6022
0.699148
0.63598
0.670025
0.661336
0.677753
0.65786
0.65616
0.376865
0.663047
0.354938
0.414321
0.657986
0.369441
0.647499
0.58671
0.380561
0.615784
0.383837
0.401198
0.659616
0.572202
0.671555
0.390588
0.636182
0.575754
0.398446
0.38019
0.655886
0.658641
0.349896
0.397987
0.654799
0.669915
0.36624
0.597494
0.670091
0.614105
0.37088
0.36021
0.38141
0.611685
0.357687
0.647485
0.648479
0.657739
0.560363
0.657776
0.391625
0.650844
0.575946
0.670293
0.52349
0.377054
0.374591
0.380213
0.657979
0.659508
0.396543
0.607961
0.403946
0.606939
0.663266
0.37787
0.581186
0.64824
0.577796
0.382154
0.366961
0.406662
0.661966
0.669352
0.573074
0.479425
0.658519
0.367934
0.589145
0.660169
0.651934
0.382557
0.586192
0.381294
0.597847
0.382914
0.653578
0.660936
0.379935
0.662297
0.380898
0.661193
0.596608
0.661848
0.669821
0.373595
0.657781
0.657358
0.660047
0.654272
0.451336
0.66025
0.375501
0.657387
0.378629
0.371101
0.375746
0.390742
0.364592
0.379794
0.671145
0.340762
0.377943
0.61533
0.662654
0.632439
0.368853
0.64252
0.638377
0.658187
0.316371
0.537349
0.660725
0.417137
0.398196
0.357866
0.583515
0.474126
0.357423
0.542567
0.367335
0.659871
0.467432
0.37296
0.439535
0.605404
0.408223
0.658989
0.375462
0.420391
0.346812
0.673147
0.352734
0.611637
0.660061
0.577665
0.375291
0.354022
0.673835
0.670201
0.400659
0.381835
0.658466
0.363131
0.654258
0.384655
0.520393
0.380447
0.66053
0.417119
0.671217
0.371197
0.663511
0.658958
0.664949
0.660447
0.374762
0.382775
0.368388
0.645783
0.639158
0.620782
0.47461
0.396758
0.658262
0.405203
0.642298
0.553759
0.35513
0.383861
0.662018
0.653769
0.374455
0.659166
0.679428
0.662966
0.660529
0.375707
0.59175
0.362352
0.663589
0.357496
0.658466
0.639146
0.673153
0.672542
0.381392
0.672308
0.387351
0.394901
0.659477
0.660342
0.503925
0.6523
0.660386
0.387207
0.650955
0.670212
0.678152
0.374519
0.393243
0.636802
0.367194
0.662747
0.667575
0.649187
0.673199
0.266176
0.407668
0.604856
0.38042
0.648782
0.666912
0.429397
0.658147
0.254649
0.592916
0.651548
0.631957
0.662178
0.366527
0.387866
0.655784
0.645791
0.389063
0.3123
0.413837
0.383883
0.37722
0.368116
0.398586
0.37676
0.655066
0.378375
0.372141
0.653854
0.501746
0.661196
0.365809
0.357962
0.659384
0.426615
0.428002
0.667836
0.341415
0.615946
0.658905
0.568564
0.638258
0.382842
0.658674
0.658662
0.400007
0.361458
0.357246
0.582979
0.567613
0.669773
0.65864
0.652539
0.641048
0.333115
0.660296
0.65858
0.662043
0.355585
0.660983
0.539471
0.327366
0.400077
0.374119
0.37851
0.372953
0.546557
0.624038
0.640015
0.353358
0.362836
0.670595
0.358778
0.657522
0.657309
0.649148
0.631958
0.658521
0.416584
0.375953
0.368857
0.520914
0.363777
0.658001
0.365174
0.659565
0.658287
0.66077
0.406049
0.410274
0.374177
0.658426
0.394018
0.359365
0.665158
0.638381
0.579314
0.658603
0.654477
0.653848
0.361354
0.583972
0.665992
0.494868
0.657326
0.658777
0.657796
0.429897
0.396942
0.679106
0.463744
0.568145
0.379505
0.617659
0.651119
0.363431
0.358465
0.631457
0.468981
0.66433
0.657317
0.376291
0.36315
0.65959
0.33933
0.368488
0.653866
0.655828
0.377339
0.653408
0.6596
0.623933
0.360906
0.547901
0.361321
0.657264
0.667074
0.654286
0.636489
0.659578
0.302379
0.325646
0.648819
0.391023
0.568353
0.382808
0.65961
0.374505
0.60396
0.665409
0.659706
0.371216
0.661735
0.660013
0.357719
0.617642
0.347816
0.681753
0.373278
0.369722
0.379908
0.641341
0.65587
0.30055