# vtk DataFile Version 1.0
unstructured grid
ascii
DATASET UNSTRUCTURED_GRID
points 13672 float
0.0796578 -0.059106 0
0.00128732 0.00159165 0
0.00227961 -0.00102548 0
0.0791586 -0.0598787 0
-0.0546216 0.01 0
0.000495206 0.025 0
0.0800549 -0.035 0
0.135172 -0.08 0
-0.0546216 -0.0451168 0
0.000495206 -0.0301168 0
0.0800549 -0.0901168 0
0.135172 -0.135117 0
-0.0546216 -0.0451168 -0.00551168
0.000495206 -0.0301168 -0.00551168
0.0800549 -0.0901168 -0.00551168
0.135172 -0.135117 -0.00551168
0.135172 -0.08 -0.00551168
0.0800549 -0.035 -0.00551168
0.000495206 0.025 -0.00551168
-0.0546216 0.01 -0.00551168
0.00128732 0.00159165 -0.00551168
0.00227961 -0.00102548 -0.00551168
0.0791586 -0.0598787 -0.00551168
0.0796578 -0.059106 -0.00551168
0.00165953 -0.000990923 0
0.00119576 -0.000874076 0
0.000866021 -0.000641801 0
0.000645147 -0.000349912 0
0.00052235 -1.7281e-05 0
0.00049972 0.000348016 0
0.000601632 0.000737716 0
0.000861774 0.0011403 0
0.00157235 0.00183217 0
0.00188647 0.00206725 0
0.00222612 0.00230203 0
0.00258713 0.00254351 0
0.00296826 0.00279524 0
0.00337118 0.00305664 0
0.00379785 0.00332658 0
0.00425045 0.00360349 0
0.00473139 0.00388521 0
0.0052432 0.00416895 0
0.0057881 0.00445204 0
0.00636753 0.00473281 0
0.00698281 0.00500961 0
0.00763526 0.00528058 0
0.00832616 0.00554366 0
0.00905691 0.00579603 0
0.00982918 0.00603333 0
0.0106445 0.00625033 0
0.0115038 0.00644128 0
0.0124073 0.00660297 0
0.0133543 0.00673414 0
0.0143444 0.00683382 0
0.0153769 0.00690031 0
0.0164512 0.00693173 0
0.0175666 0.00692547 0
0.0187219 0.00687822 0
0.0199156 0.00678477 0
0.0211454 0.00663864 0
0.0224084 0.00643275 0
0.0237018 0.00616676 0
0.0250249 0.00584739 0
0.026375 0.00547298 0
0.0277479 0.00503752 0
0.0291386 0.00453545 0
0.0305433 0.0039653 0
0.0319572 0.0033256 0
0.0333681 0.00260019 0
0.034775 0.00179799 0
0.0361793 0.000930615 0
0.0375798 3.12222e-06 0
0.0389689 -0.000988429 0
0.0403357 -0.00205109 0
0.041675 -0.00318283 0
0.0429849 -0.00437751 0
0.0442643 -0.00562904 0
0.0455126 -0.00693089 0
0.0467314 -0.00827518 0
0.0479204 -0.00965638 0
0.0490661 -0.0110799 0
0.0501515 -0.0125519 0
0.0511696 -0.0140695 0
0.0521492 -0.0156071 0
0.0531202 -0.0171411 0
0.0540851 -0.0186663 0
0.0550431 -0.0201798 0
0.0559923 -0.0216793 0
0.0569311 -0.0231626 0
0.0578582 -0.0246273 0
0.0587723 -0.0260715 0
0.0596721 -0.027493 0
0.0605563 -0.02889 0
0.0614241 -0.0302609 0
0.0622742 -0.0316042 0
0.063106 -0.0329183 0
0.0639186 -0.034202 0
0.0647113 -0.0354543 0
0.0654835 -0.0366743 0
0.0662345 -0.0378613 0
0.0669642 -0.0390145 0
0.0676726 -0.0401333 0
0.0683597 -0.0412172 0
0.0690246 -0.0422665 0
0.0696662 -0.0432819 0
0.0702841 -0.0442636 0
0.0708793 -0.0452111 0
0.0714538 -0.0461237 0
0.072009 -0.047001 0
0.0725452 -0.0478434 0
0.0730611 -0.0486524 0
0.073556 -0.0494294 0
0.0740291 -0.0501756 0
0.0744812 -0.0508916 0
0.0749138 -0.0515773 0
0.0753285 -0.0522331 0
0.0757266 -0.0528592 0
0.076109 -0.0534564 0
0.0764753 -0.0540264 0
0.0768243 -0.054571 0
0.0771553 -0.0550919 0
0.0774679 -0.0555901 0
0.0777617 -0.0560669 0
0.0780369 -0.056523 0
0.0782958 -0.0569578 0
0.0785421 -0.0573703 0
0.0787786 -0.0577603 0
0.0790073 -0.0581279 0
0.0792295 -0.058474 0
0.0794462 -0.0587995 0
0.0798803 -0.0594162 0
0.0800272 -0.0596588 0
0.0800357 -0.0598891 0
0.0799275 -0.0600784 0
0.0797205 -0.0601773 0
0.0794593 -0.0601051 0
0.0789155 -0.0596491 0
0.0786707 -0.0593963 0
0.0784111 -0.0591319 0
0.0781372 -0.0588542 0
0.0778566 -0.0585548 0
0.0775715 -0.0582308 0
0.0772803 -0.0578828 0
0.0769832 -0.0575099 0
0.0766822 -0.0571097 0
0.0763801 -0.0566796 0
0.0760759 -0.0562196 0
0.0757623 -0.0557337 0
0.0754359 -0.0552232 0
0.0750951 -0.0546879 0
0.0747379 -0.054128 0
0.0743626 -0.0535435 0
0.0739688 -0.0529338 0
0.0735559 -0.0522981 0
0.0731238 -0.0516357 0
0.0726718 -0.050946 0
0.0721991 -0.0502288 0
0.0717046 -0.049484 0
0.0711872 -0.0487117 0
0.0706461 -0.047912 0
0.0700804 -0.0470849 0
0.0694892 -0.0462308 0
0.0688718 -0.0453499 0
0.0682271 -0.0444431 0
0.0675544 -0.043511 0
0.0668527 -0.0425546 0
0.0661215 -0.0415748 0
0.06536 -0.040573 0
0.0645676 -0.0395504 0
0.0637439 -0.0385087 0
0.0628887 -0.0374493 0
0.062002 -0.0363741 0
0.0610838 -0.0352847 0
0.0601345 -0.0341831 0
0.0591547 -0.033071 0
0.0581456 -0.0319502 0
0.0571083 -0.0308224 0
0.0560444 -0.0296893 0
0.0549562 -0.028552 0
0.053845 -0.0274126 0
0.0527113 -0.0262746 0
0.051554 -0.0251427 0
0.0503724 -0.0240222 0
0.0491675 -0.0229164 0
0.047941 -0.0218282 0
0.0466955 -0.0207597 0
0.0454337 -0.0197126 0
0.0441592 -0.0186878 0
0.0428751 -0.0176863 0
0.0415841 -0.0167097 0
0.0402878 -0.0157609 0
0.0389879 -0.0148428 0
0.0376864 -0.0139575 0
0.0363853 -0.013107 0
0.0350871 -0.0122931 0
0.0337942 -0.0115164 0
0.0325095 -0.0107772 0
0.0312357 -0.0100756 0
0.0299758 -0.00941024 0
0.0287337 -0.00877784 0
0.0275126 -0.00817571 0
0.0263139 -0.00760375 0
0.0251376 -0.00706528 0
0.0239829 -0.0065649 0
0.0228537 -0.00609619 0
0.0217522 -0.00565563 0
0.0206795 -0.00524226 0
0.0196364 -0.00485507 0
0.0186233 -0.00449318 0
0.0176408 -0.00415577 0
0.016689 -0.00384204 0
0.0157682 -0.00355115 0
0.0148783 -0.00328218 0
0.0140192 -0.00303468 0
0.0131906 -0.00280795 0
0.0123925 -0.00260016 0
0.0116246 -0.00241012 0
0.0108864 -0.00223769 0
0.0101774 -0.00208212 0
0.00949701 -0.00194206 0
0.00884483 -0.0018163 0
0.0082202 -0.0017039 0
0.00762247 -0.00160391 0
0.00705097 -0.00151528 0
0.006505 -0.00143697 0
0.0059838 -0.00136806 0
0.00548662 -0.00130772 0
0.00501265 -0.00125519 0
0.00456114 -0.00120954 0
0.00413136 -0.00116914 0
0.00372257 -0.00113251 0
0.00333398 -0.00109853 0
0.00296466 -0.00106798 0
0.00261363 -0.0010431 0
-0.052721 -0.0445996 0
-0.0508204 -0.0440823 0
-0.0489199 -0.0435651 0
-0.0470193 -0.0430478 0
-0.0451187 -0.0425306 0
-0.0432181 -0.0420134 0
-0.0413175 -0.0414961 0
-0.039417 -0.0409789 0
-0.0375164 -0.0404616 0
-0.0356158 -0.0399444 0
-0.0337152 -0.0394271 0
-0.0318146 -0.0389099 0
-0.0299141 -0.0383927 0
-0.0280135 -0.0378754 0
-0.0261129 -0.0373582 0
-0.0242123 -0.0368409 0
-0.0223117 -0.0363237 0
-0.0204112 -0.0358065 0
-0.0185106 -0.0352892 0
-0.01661 -0.034772 0
-0.0147094 -0.0342547 0
-0.0128088 -0.0337375 0
-0.0109083 -0.0332202 0
-0.00900769 -0.032703 0
-0.00710711 -0.0321858 0
-0.00520653 -0.0316685 0
-0.00330595 -0.0311513 0
-0.00140537 -0.030634 0
0.00190689 -0.0299614 0
0.00332271 -0.0298498 0
0.00474133 -0.0297825 0
0.00616136 -0.0297597 0
0.0075814 -0.0297814 0
0.00900007 -0.0298477 0
0.010416 -0.0299583 0
0.0118278 -0.0301127 0
0.0132342 -0.0303103 0
0.0146339 -0.0305504 0
0.0160259 -0.0308322 0
0.0174091 -0.0311546 0
0.0187824 -0.0315166 0
0.020145 -0.031917 0
0.0214961 -0.0323546 0
0.0228351 -0.032828 0
0.0241613 -0.0333361 0
0.0254744 -0.0338774 0
0.0267738 -0.0344507 0
0.0280592 -0.0350545 0
0.0293306 -0.0356877 0
0.0305875 -0.0363488 0
0.0318301 -0.0370367 0
0.0330581 -0.0377501 0
0.0342717 -0.0384879 0
0.0354708 -0.0392489 0
0.0366556 -0.0400321 0
0.0378262 -0.0408363 0
0.0389828 -0.0416607 0
0.0401254 -0.0425042 0
0.0412543 -0.0433659 0
0.0423698 -0.0442451 0
0.043472 -0.0451408 0
0.0445612 -0.0460523 0
0.0456375 -0.0469789 0
0.0467013 -0.0479199 0
0.0477529 -0.0488746 0
0.0487923 -0.0498424 0
0.04982 -0.0508227 0
0.0508362 -0.051815 0
0.051841 -0.0528187 0
0.0528348 -0.0538333 0
0.0538178 -0.0548584 0
0.0547903 -0.0558935 0
0.0557524 -0.0569382 0
0.0567045 -0.0579922 0
0.0576467 -0.0590549 0
0.0585792 -0.0601261 0
0.0595024 -0.0612055 0
0.0604163 -0.0622926 0
0.0613212 -0.0633873 0
0.0622174 -0.0644891 0
0.0631049 -0.0655979 0
0.0639841 -0.0667134 0
0.064855 -0.0678353 0
0.0657179 -0.0689633 0
0.0665729 -0.0700974 0
0.0674202 -0.0712372 0
0.06826 -0.0723826 0
0.0690925 -0.0735333 0
0.0699178 -0.0746892 0
0.070736 -0.0758501 0
0.0715473 -0.0770159 0
0.0723518 -0.0781863 0
0.0731498 -0.0793612 0
0.0739412 -0.0805405 0
0.0747264 -0.081724 0
0.0755053 -0.0829116 0
0.0762781 -0.0841033 0
0.0770449 -0.0852987 0
0.0778059 -0.0864979 0
0.0785611 -0.0877007 0
0.0793108 -0.088907 0
0.0814681 -0.0912706 0
0.0828814 -0.0924245 0
0.0842946 -0.0935783 0
0.0857079 -0.0947322 0
0.0871211 -0.095886 0
0.0885344 -0.0970399 0
0.0899476 -0.0981937 0
0.0913609 -0.0993476 0
0.0927741 -0.100501 0
0.0941874 -0.101655 0
0.0956006 -0.102809 0
0.0970139 -0.103963 0
0.0984272 -0.105117 0
0.0998404 -0.106271 0
0.101254 -0.107424 0
0.102667 -0.108578 0
0.10408 -0.109732 0
0.105493 -0.110886 0
0.106907 -0.11204 0
0.10832 -0.113194 0
0.109733 -0.114348 0
0.111146 -0.115501 0
0.11256 -0.116655 0
0.113973 -0.117809 0
0.115386 -0.118963 0
0.116799 -0.120117 0
0.118213 -0.121271 0
0.119626 -0.122424 0
0.121039 -0.123578 0
0.122452 -0.124732 0
0.123866 -0.125886 0
0.125279 -0.12704 0
0.126692 -0.128194 0
0.128105 -0.129348 0
0.129519 -0.130501 0
0.130932 -0.131655 0
0.132345 -0.132809 0
0.133758 -0.133963 0
0.135172 -0.133216 0
0.135172 -0.131316 0
0.135172 -0.129415 0
0.135172 -0.127514 0
0.135172 -0.125614 0
0.135172 -0.123713 0
0.135172 -0.121813 0
0.135172 -0.119912 0
0.135172 -0.118012 0
0.135172 -0.116111 0
0.135172 -0.11421 0
0.135172 -0.11231 0
0.135172 -0.110409 0
0.135172 -0.108509 0
0.135172 -0.106608 0
0.135172 -0.104708 0
0.135172 -0.102807 0
0.135172 -0.100906 0
0.135172 -0.0990058 0
0.135172 -0.0971052 0
0.135172 -0.0952046 0
0.135172 -0.0933041 0
0.135172 -0.0914035 0
0.135172 -0.0895029 0
0.135172 -0.0876023 0
0.135172 -0.0857017 0
0.135172 -0.0838012 0
0.135172 -0.0819006 0
0.133758 -0.0788462 0
0.132345 -0.0776923 0
0.130932 -0.0765385 0
0.129519 -0.0753846 0
0.128105 -0.0742308 0
0.126692 -0.0730769 0
0.125279 -0.0719231 0
0.123866 -0.0707692 0
0.122452 -0.0696154 0
0.121039 -0.0684615 0
0.119626 -0.0673077 0
0.118213 -0.0661538 0
0.116799 -0.065 0
0.115386 -0.0638462 0
0.113973 -0.0626923 0
0.11256 -0.0615385 0
0.111146 -0.0603846 0
0.109733 -0.0592308 0
0.10832 -0.0580769 0
0.106907 -0.0569231 0
0.105493 -0.0557692 0
0.10408 -0.0546154 0
0.102667 -0.0534615 0
0.101254 -0.0523077 0
0.0998404 -0.0511538 0
0.0984272 -0.05 0
0.0970139 -0.0488462 0
0.0956006 -0.0476923 0
[...]
CELL_DATA 13116
SCALARS rho float
LOOKUP_TABLE default
0.455519
0.578392
0.406592
0.596523
0.601232
0.65084
0.362401
0.617615
0.428791
0.600898
0.362996
0.378785
0.601484
0.376139
0.353034
0.650301
0.432946
0.589657
0.627907
0.38662
0.457416
0.352167
0.389939
0.592606
0.499887
0.602021
0.600745
0.41755
0.494401
0.537221
0.666656
0.372372
0.452977
0.357875
0.359737
0.457023
0.561251
0.607134
0.657139
0.620386
0.640638
0.615423
0.343261
0.40195
0.622344
0.626122
0.568846
0.623025
0.354469
0.423263
0.613543
0.355496
0.368438
0.426504
0.45202
0.47979
0.401889
0.590513
0.434587
0.35573
0.377851
0.601841
0.57372
0.657924
0.66433
0.386956
0.635287
0.564417
0.628331
0.663085
0.351733
0.477316
0.357407
0.394238
0.670557
0.367276
0.550613
0.605377
0.36802
0.585877
0.575588
0.597156
0.593735
0.613828
0.605741
0.357813
0.375741
0.558084
0.60647
0.363753
0.382008
0.580108
0.595939
0.613249
0.542896
0.493946
0.501936
0.668126
0.668978
0.488482
0.566036
0.518133
0.637434
0.339794
0.563076
0.374781
0.287971
0.3838
0.409332
0.503649
0.410059
0.585155
0.491826
0.576935
0.586663
0.63274
0.375733
0.316791
0.608512
0.626379
0.564031
0.363368
0.627194
0.380412
0.612629
0.352888
0.375011
0.410856
0.406246
0.424499
0.608909
0.594619
0.403751
0.354605
0.386429
0.490997
0.678827
0.620295
0.564948
0.625656
0.535948
0.571545
0.409757
0.537884
0.562104
0.372443
0.358875
0.592787
0.598818
0.617191
0.439729
0.614996
0.624495
0.371617
0.599369
0.608295
0.393601
0.572293
0.668001
0.557789
0.591871
0.363108
0.593324
0.397277
0.377582
0.604145
0.609441
0.589041
0.360579
0.371042
0.338487
0.678457
0.357341
0.396415
0.634354
0.387695
0.347071
0.355916
0.581791
0.652408
0.379093
0.348053
0.429453
0.560817
0.651582
0.432883
0.383434
0.639818
0.559527
0.368984
0.538792
0.590945
0.661721
0.389001
0.581709
0.652031
0.59839
0.637783
0.604918
0.314677
0.339886
0.508768
0.406211
0.391232
0.597609
0.607844
0.363431
0.502775
0.364881
0.366858
0.370506
0.642307
0.396163
0.381323
0.360909
0.371852
0.300129
0.657114
0.611224
0.346934
0.399899
0.636407
0.404564
0.37863
0.449216
0.601434
0.559813
0.418536
0.635168
0.312588
0.621039
0.375042
0.663103
0.467842
0.669315
0.615144
0.660762
0.356154
0.348574
0.556812
0.671889
0.65264
0.677419
0.660769
0.619985
0.34919
0.615575
0.600295
0.668491
0.361816
0.356575
0.612606
0.610323
0.664294
0.608026
0.444234
0.576652
0.362802
0.375484
0.315709
0.36474
0.549597
0.598138
0.549964
0.374048
0.620123
0.385317
0.34695
0.564609
0.370648
0.598386
0.61209
0.673358
0.59037
0.354531
0.6737
0.58034
0.668335
0.620682
0.370228
0.380484
0.39333
0.487005
0.365169
0.355578
0.26759
0.36874
0.597125
0.365678
0.609141
0.60426
0.387358
0.387361
0.385109
0.36281
0.41531
0.557051
0.505569
0.575418
0.370549
0.641786
0.477
0.383415
0.355712
0.655057
0.611328
0.639431
0.381595
0.651241
0.340366
0.594853
0.613521
0.618171
0.613601
0.392261
0.636458
0.360994
0.644929
0.599405
0.555696
0.377358
0.267302
0.600837
0.385018
0.584452
0.602099
0.348411
0.577811
0.593321
0.384429
0.618482
0.596021
0.366653
0.609788
0.358711
0.466335
0.624559
0.364389
0.572963
0.37568
0.590297
0.275873
0.659391
0.523434
0.599053
0.417157
0.289544
0.607392
0.369257
0.599255
0.566079
0.341092
0.678649
0.378599
0.367054
0.602891
0.449943
0.564243
0.379735
0.396495
0.61615
0.603963
0.36003
0.608105
0.378192
0.375771
0.628922
0.622736
0.376133
0.363346
0.61803
0.665648
0.650403
0.615769
0.593391
0.440151
0.410144
0.362086
0.380772
0.651106
0.380451
0.427944
0.350474
0.378704
0.284974
0.38461
0.115756
0.370098
0.607366
0.377034
0.594263
0.494805
0.6316
0.549591
0.613493
0.368643
0.380801
0.320643
0.351326
0.599312
0.488313
0.637033
0.495194
0.563005
0.514103
0.595071
0.525442
0.534815
0.593486
0.585042
0.65298
0.32099
0.36968
0.452177
0.353277
0.502472
0.478703
0.369454
0.633866
0.672961
0.395022
0.382055
0.372324
0.383672
0.516901
0.352597
0.389304
0.639869
0.388293
0.467998
0.369956
0.649179
0.580045
0.419893
0.353476
0.60199
0.363776
0.370795
0.384749
0.36377
0.409126
0.382971
0.382162
0.352713
0.346955
0.363632
0.515571
0.401611
0.607054
0.301421
0.374046
0.405808
0.36917
0.362379
0.369838
0.622496
0.352355
0.527294
0.388041
0.387308
0.505316
0.607734
0.357017
0.577254
0.51695
0.516524
0.386435
0.669199
0.316908
0.592729
0.667384
0.404733
0.361625
0.556886
0.351978
0.365443
0.526585
0.288064
0.571178
0.566361
0.386508
0.345253
0.356495
0.392671
0.35357
0.366089
0.355667
0.361036
0.603842
0.601185
0.367789
0.491264
0.385892
0.57862
0.305048
0.354388
0.432521
0.405597
0.602127
0.237824
0.300616
0.400018
0.620313
0.606453
0.455492
0.346878
0.362157
0.462262
0.61688
0.661936
0.459199
0.561578
0.547401
0.366126
0.579099
0.464029
0.555343
0.369995
0.414386
0.576002
0.598336
0.54808
0.601246
0.598244
0.606301
0.590645
0.554752
0.632993
0.370381
0.618554
0.272372
0.365999
0.379007
0.595434
0.609726
0.373841
0.604965
0.508929
0.376933
0.659083
0.612172
0.589509
0.417236
0.354554
0.603658
0.370728
0.37281
0.370802
0.367364
0.598651
0.365563
0.593838
0.400393
0.577696
0.613991
0.633387
0.603029
0.370063
0.384517
0.607648
0.620033
0.556486
0.603977
0.600005
0.401034
0.385071
0.408156
0.646077
0.429571
0.373886
0.363724
0.378983
0.619254
0.637742
0.370309
0.352847
0.604464
0.372575
0.608353
0.545978
0.40505
0.313611
0.553366
0.672598
0.4005
0.604387
0.609804
0.60868
0.364206
0.677283
0.400002
0.669837
0.554074
0.363982
0.30019
0.354398
0.668993
0.410445
0.368489
0.317112
0.657707
0.59148
0.369468
0.370355
0.366675
0.658375
0.358517
0.652249
0.372611
0.480524
0.601316
0.304841
0.396715
0.39223
0.401422
0.410195
0.603872
0.379757
0.350943
0.6518
0.357756
0.643653
0.580212
0.668888
0.373727
0.603201
0.595806
0.598235
0.64456
0.621023
0.630023
0.371018
0.662636
0.348921
0.598563
0.372325
0.619444
0.409426
0.360196
0.66504
0.596727
0.360341
0.526166
0.38125
0.350691
0.640609
0.622138
0.381592
0.371724
0.367877
0.369147
0.62008
0.592654
0.364845
0.386774
0.598625
0.621594
0.482355
0.595437
0.639948
0.363435
0.5996
0.343693
0.613757
0.319435
0.489901
0.388012
0.637611
0.56561
0.470558
0.346401
0.415225
0.635029
0.494364
0.429499
0.594907
0.363761
0.581218
0.598976
0.292042
0.367565
0.596536
0.354415
0.663912
0.55778
0.263617
0.622152
0.541066
0.393861
0.589062
0.392662
0.60084
0.38733
0.643265
0.572618
0.414303
0.657402
0.59384
0.601708
0.51025
0.58392
0.475677
0.358619
0.341885
0.310194
0.391432
0.680654
0.451889
0.625542
0.598554
0.375248
0.354911
0.588097
0.600794
0.601409
0.612861
0.377529
0.585054
0.600436
0.38565
0.322672
0.607576
0.614072
0.603126
0.367492
0.482096
0.420633
0.587359
0.580827
0.661631
0.588394
0.371598
0.592518
0.60831
0.595291
0.619837
0.64398
0.344934
0.593424
0.366778
0.54602
0.600785
0.370601
0.567044
0.660909
0.614562
0.333782
0.33375
0.476891
0.540823
0.371812
0.364146
0.372023
0.362861
0.5778
0.580769
0.660761
0.36853
0.363842
0.629036
0.57141
0.367355
0.352505
0.372344
0.563766
0.637491
0.614497
0.585689
0.366197
0.372264
0.676461
0.378444
0.3811
0.377635
0.644941
0.420365
0.368243
0.473184
0.603174
0.580509
0.654386
0.641966
0.378347
0.356551
0.373588
0.389271
0.351802
0.377487
0.563629
0.584219
0.595722
0.638091
0.364671
0.373543
0.60114
0.376038
0.645052
0.572898
0.66683
0.381577
0.365154
0.596262
0.665696
0.469975
0.366794
0.608302
0.65327
0.469606
0.617607
0.615571
0.675261
0.560415
0.378428
0.642732
0.664429
0.527473
0.586914
0.680613
0.585712
0.674939
0.621765
0.351448
0.34487
0.374463
0.665717
0.408819
0.375688
0.588693
0.597939
0.378504
0.532418
0.420258
0.539712
0.381437
0.358125
0.600932
0.591743
0.373438
0.447789
0.665585
0.399916
0.613121
0.384464
0.37316
0.510637
0.49895
0.405713
0.635851
0.371979
0.593406
0.345673
0.366382
0.644264
0.373373
0.497674
0.380101
0.532565
0.490953
0.675513
0.607426
0.360853
0.350738
0.532519
0.345695
0.600613
0.366561
0.487431
0.650397
0.594962
0.357207
0.501194
0.581491
0.59881
0.63172
0.278528
0.369166
0.439447
0.582164
0.598585
0.30917
0.637582
0.471423
0.320165
0.380217
0.557352
0.563912
0.676507
0.669558
0.527447
0.579393
0.656278
0.569264
0.380224
0.5471
0.370211
0.62027
0.614338
0.372536
0.626749
0.602622
0.352207
0.357295
0.38417
0.68043
0.363305
0.509752
0.591117
0.548081
0.37943
0.60317
0.386996
0.481808
0.658755
0.662019
0.561894
0.658462
0.509198
0.574626
0.426562
0.598443
0.389943
0.646594
0.634282
0.329325
0.673279
0.583077
0.396358
0.362277
0.402407
0.617711
0.36681
0.67354
0.376019
0.61836
0.361237
0.388509
0.376504
0.592042
0.611998
0.442633
0.381452
0.509661
0.656584
0.372962
0.481755
0.600069
0.374984
0.481871
0.667122
0.601427
0.643949
0.403826
0.381249
0.600607
0.627993
0.546762
0.364827
0.330259
0.610202
0.677549
0.672842
0.678299
0.45122
0.594745
0.446657
0.622388
0.364902
0.39005
0.677863
0.601007
0.657205
0.387291
0.645358
0.459902
0.498996
0.375346
0.334547
0.607598
0.606287
0.452892
0.387602
0.636173
0.672298
0.361697
0.50093
0.585465
0.361158
0.36946
0.360416
0.564637
0.353664
0.372081
0.616264
0.373491
0.599446
0.537963
0.36076
0.384719
0.605724
0.34857
0.352203
0.665708
0.377545
0.303467
0.485317
0.620744
0.600778
0.362487
0.419647
0.362094
0.580942
0.375125
0.60182
0.355424
0.590522
0.61251
0.619517
0.569238
0.58921
0.5792
0.638552
0.603006
0.604521
0.365856
0.370293
0.58224
0.656069
0.410835
0.569985
0.455308
0.657219
0.526329
0.419227
0.628709
0.600758
0.600403
0.361488
0.592391
0.406117
0.612073
0.403731
0.586838
0.643507
0.358649
0.597835
0.368969
0.343973
0.573647
0.377789
0.572577
0.680483
0.621097
0.38207
0.64034
0.36181
0.385027
0.377752
0.361367
0.523081
0.358618
0.537885
0.660221
0.373617
0.389048
0.395273
0.474127
0.524788
0.552607
0.372802
0.384121
0.360405
0.376689
0.379594
0.525812
0.590405
0.418657
0.659276
0.59097
0.360421
0.598884
0.57039
0.659622
0.364676
0.670387
0.582696
0.594456
0.619505
0.352359
0.599992
0.596719
0.592866
0.557496
0.652882
0.357726
0.380212
0.617363
0.437701
0.363394
0.645392
0.386032
0.466032
0.523173
0.598891
0.601867
0.382084
0.568022
0.314744
0.360856
0.579458
0.600946
0.597256
0.614818
0.554722
0.386484
0.602077
0.361782
0.409934
0.604379
0.66935
0.600717
0.361749
0.375565
0.600711
0.374727
0.60378
0.537213
0.346874
0.356215
0.626473
0.380898
0.643645
0.603099
0.555692
0.380683
0.34414
0.407488
0.421045
0.514762
0.379695
0.650406
0.55412
0.609683
0.681176
0.590212
0.36566
0.355982
0.604977
0.653086
0.542131
0.370826
0.391133
0.576456
0.358516
0.638942
0.505355
0.409691
0.598876
0.366291
0.614893
0.405328
0.598964
0.353588
0.606784
0.653658
0.374696
0.613101
0.540536
0.355452
0.661114
0.629635
0.454006
0.369346
0.329874
0.374
0.596384
0.536706
0.362925
0.47814
0.591664
0.652142
0.378792
0.508737
0.592075
0.372294
0.650569
0.644767
0.373944
0.60889
0.667487
0.404564
0.493568
0.383591
0.539485
0.375689
0.373603
0.597862
0.366887
0.365073
0.360753
0.637461
0.583657
0.32733
0.634742
0.333143
0.568891
0.362024
0.585615
0.348901
0.649454
0.618004
0.548771
0.6618
0.450891
0.653891
0.659578
0.415346
0.526694
0.551888
0.400617
0.59001
0.400529
0.338687
0.601956
0.378317
0.467033
0.420412
0.637509
0.367654
0.388409
0.591795
0.640593
0.386566
0.621787
0.583888
0.680496
0.613796
0.669799
0.377907
0.598258
0.382997
0.396902
0.60965
0.587158
0.616308
0.607007
0.376263
0.375268
0.361571
0.581225
0.660519
0.329444
0.623044
0.384401
0.378602
0.367273
0.607794
0.318986
0.602225
0.603642
0.525242
0.620842
0.604696
0.471316
0.546175
0.351572
0.345653
0.384742
0.669809
0.670697
0.387678
0.525666
0.561984
0.545912
0.403303
0.327853
0.557126
0.227011
0.549893
0.509555
0.381425
0.655981
0.579493
0.37552
0.600954
0.352782
0.626977
0.599574
0.590297
0.359677
0.380674
0.571271
0.374055
0.358313
0.623491
0.374388
0.654918
0.632744
0.596594
0.583916
0.411754
0.665656
0.578825
0.628764
0.293955
0.612286
0.348997
0.369021
0.604384
0.63737
0.660183
0.192945
0.642807
0.525546
0.670741
0.384756
0.375142
0.369866
0.618818
0.362688
0.356765
0.392197
0.507919
0.35391
0.370638
0.357133
0.602965
0.378857
0.661564
0.658302
0.622137
0.381928
0.61484
0.546323
0.659529
0.33593
0.555562
0.358287
0.378085
0.641377
0.387105
0.524406
0.589149
0.676085
0.379569
0.267176
0.36086
0.458123
0.677699
0.191173
0.607587
0.638433
0.585657
0.363439
0.362107
0.278969
0.540736
0.372327
0.681262
0.498171
0.657119
0.611855
0.368019
0.527199
0.372089
0.492043
0.539015
0.600922
0.488002
0.397441
0.556378
0.545782
0.605158
0.382239
0.323852
0.390849
0.586072
0.434456
0.669213
0.379399
0.324292
0.592431
0.613226
0.662993
0.385829
0.621174
0.456761
0.459628
0.539272
0.408741
0.386057
0.374285
0.636814
0.660204
0.555918
0.57627
0.278362
0.622146
0.549362
0.65998
0.66039
0.620781
0.600929
0.652391
0.587305
0.596346
0.404992
0.617853
0.614263
0.648989
0.612155
0.636343
0.486111
0.379301
0.377707
0.532713
0.362452
0.402865
0.619546
0.351883
0.527946
0.630636
0.57837
0.601643
0.401328
0.619758
0.37505
0.38635
0.651442
0.59567
0.637644
0.380854
0.60992
0.635638
0.535923
0.640448
0.352887
0.650436
0.600864
0.577466
0.315987
0.589964
0.36313
0.597552
0.374924
0.378902
0.437804
0.362828
0.600928
0.591928
0.644875
0.387036
0.651412
0.329245
0.353861
0.598353
0.398383
0.363317
0.640416
0.365598
0.418324
0.561429
0.564049
0.598906
0.397608
0.489647
0.549849
0.647181
0.484628
0.597569
0.436566
0.62536
0.57384
0.541408
0.366048
0.365614
0.362036
0.614668
0.396833
0.556142
0.621149
0.498825
0.646484
0.430652
0.572694
0.570836
0.363759
0.623212
0.563091
0.406903
0.564649
0.601277
0.604321
0.654529
0.363897
0.350763
0.597811
0.43757
0.449621
0.622376
0.610581
0.634092
0.598133
0.599661
0.516022
0.552922
0.600014
0.357824
0.371587
0.367614
0.410917
0.673389
0.370362
0.443457
0.599164
0.575491
0.400939
0.60161
0.593208
0.380818
0.305415
0.672566
0.618077
0.410352
0.372466
0.370275
0.681211
0.600491
0.319441
0.364112
0.382979
0.376762
0.352505
0.362768
0.623343
0.619779
0.585442
0.379717
0.579703
0.505548
0.502676
0.357348
0.382304
0.59782
0.678354
0.369027
0.649743
0.375775
0.591884
0.405325
0.620891
0.3871
0.59636
0.60746
0.381501
0.461055
0.362504
0.598371
0.38038
0.509993
0.384888
0.411488
0.357843
0.502495
0.3723
0.662606
0.661607
0.501046
0.5884
0.357122
0.586753
0.656053
0.608728
0.502808
0.569385
0.383139
0.331808
0.389415
0.596369
0.237154
0.602424
0.446736
0.586648
0.601542
0.376021
0.59381
0.352718
0.383794
0.35655
0.414951
0.438178
0.608954
0.37279
0.355061
0.645846
0.306052
0.380954
0.46824
0.304631
0.368746
0.377676
0.615587
0.544852
0.514132
0.393318
0.583272
0.635758
0.360596
0.262275
0.608684
0.644071
0.493325
0.421322
0.332423
0.293041
0.372223
0.619165
0.53159
0.427499
0.57725
0.363617
0.469369
0.365822
0.664606
0.603942
0.383111
0.374332
0.537948
0.462119
0.604005
0.596668
0.597236
0.619582
0.60345
0.373188
0.35419
0.39211
0.370354
0.449581
0.666952
0.546565
0.37399
0.377117
0.36367
0.369707
0.632873
0.562015
0.361628
0.36858
0.631933
0.401861
0.549089
0.593869
0.583591
0.652119
0.458351
0.372432
0.388299
0.549113
0.382728
0.34207
0.322439
0.655632
0.628425
0.379179
0.381492
0.678371
0.372935
0.63756
0.596239
0.37653
0.354231
0.363419
0.629644
0.375374
0.680596
0.586284
0.500399
0.373843
0.433714
0.603892
0.604831
0.364854
0.598496
0.53356
0.396021
0.60665
0.618036
0.362182
0.366091
0.595712
0.371829
0.372634
0.590629
0.280113
0.618601
0.572623
0.59495
0.536649
0.600803
0.633785
0.654911
0.362141
0.331679
0.548817
0.597971
0.380439
0.599192
0.368004
0.622802
0.600561
0.468225
0.543426
0.331455
0.369124
0.602885
0.600156
0.570853
0.608161
0.637453
0.674883
0.615636
0.679604
0.620218
0.60027
0.619408
0.677678
0.654152
0.292182
0.598707
0.414623
0.627237
0.619242
0.58973
0.577133
0.582714
0.350917
0.366381
0.371072
0.365169
0.580198
0.389283
0.364666
0.577607
0.368074
0.586601
0.372206
0.592278
0.600961
0.368077
0.308663
0.40958
0.617289
0.399369
0.6088
0.597094
0.360162
0.595931
0.455916
0.40427
0.415744
0.359328
0.58155
0.365119
0.623071
0.427685
0.361965
0.633021
0.639584
0.597041
0.375645
0.475006
0.381271
0.581177
0.654585
0.631432
0.367376
0.596667
0.621582
0.577031
0.333461
0.61698
0.373499
0.364521
0.6162
0.366303
0.600561
0.343119
0.367875
0.359459
0.580197
0.411818
0.302877
0.385523
0.392584
0.669341
0.599715
0.368831
0.499695
0.633619
0.459053
0.339711
0.413106
0.457883
0.369812
0.369469
0.614973
0.364976
0.373702
0.616758
0.602438
0.379979
0.588049
0.369376
0.673344
0.418671
0.601158
0.662902
0.584182
0.657086
0.35015
0.36596
0.381359
0.652463
0.598666
0.487543
0.44345
0.300663
0.247844
0.647916
0.362565
0.619046
0.309981
0.662387
0.565988
0.387023
0.405484
0.369335
0.381018
0.409108
0.538232
0.580331
0.387079
0.614438
0.533715
0.361491
0.357698
0.599054
0.361968
0.604048
0.345744
0.584366
0.548998
0.615977
0.6683
0.351594
0.599542
0.625371
0.614386
0.365375
0.539748
0.493871
0.402145
0.615895
0.547029
0.628207
0.585655
0.603054
0.6148
0.613031
0.647859
0.630361
0.37324
0.595623
0.370208
0.371171
0.622579
0.381877
0.600224
0.550404
0.355571
0.576081
0.366143
0.383369
0.611203
0.536875
0.603019
0.363618
0.586265
0.512641
0.4185
0.382245
0.609472
0.637014
0.306869
0.381207
0.589665
0.601091
0.366605
0.537955
0.605668
0.547201
0.384853
0.37425
0.379219
0.550057
0.352556
0.598616
0.585826
0.64726
0.507635
0.603726
0.364001
0.603784
0.509773
0.607455
0.485874
0.384572
0.362562
0.369088
0.592854
0.599159
0.343382
0.54699
0.41949
0.550852
0.627375
0.364447
0.531389
0.599686
0.519594
0.380595
0.37948
0.411619
0.603371
0.600633
0.51051
0.420835
0.60988
0.369741
0.52847
0.672467
0.596049
0.380598
0.518984
0.356286
0.560302
0.373461
0.604865
0.611803
0.393085
0.605984
0.346872
0.677971
0.539189
0.681312
0.618601
0.342419
0.649335
0.639319
0.630505
0.606024
0.393183
0.672895
0.364604
0.637559
0.366856
0.380223
0.366088
0.407778
0.370805
0.383533
0.605058
0.296218
0.356237
0.555737
0.605657
0.582667
0.323535
0.579609
0.576279
0.653411
0.337601
0.494238
0.634553
0.365344
0.389825
0.364479
0.524412
0.415688
0.376671
0.495442
0.363282
0.668652
0.409808
0.373958
0.384644
0.544203
0.407211
0.63723
0.362361
0.390614
0.305856
0.619118
0.31616
0.553419
0.67183
0.550859
0.337671
0.37553
0.619867
0.601627
0.386661
0.384991
0.650843
0.382924
0.589312
0.379121
0.45915
0.368792
0.63462
0.354747
0.603821
0.380775
0.626817
0.606835
0.601313
0.67372
0.36364
0.391814
0.320548
0.604605
0.576757
0.579092
0.441635
0.35426
0.592748
0.412238
0.596334
0.521805
0.339283
0.358243
0.594499
0.607255
0.382724
0.665455
0.623175
0.595736
0.59521
0.362663
0.53063
0.368544
0.596646
0.353638
0.659179
0.594621
0.622154
0.60541
0.362033
0.600738
0.366808
0.363723
0.638582
0.673044
0.450812
0.600247
0.673728
0.364573
0.590376
0.617506
0.614764
0.383749
0.347983
0.574661
0.389942
0.6204
0.62026
0.602629
0.619062
0.234933
0.362424
0.542102
0.392637
0.601803
0.597908
0.384232
0.609724
0.383022
0.550123
0.590789
0.568756
0.612486
0.377181
0.39244
0.607952
0.596774
0.353259
0.358834
0.355894
0.396926
0.356542
0.34906
0.418058
0.363245
0.60542
0.365633
0.383916
0.58887
0.449388
0.678027
0.323072
0.380392
0.631244
0.378936
0.39278
0.599534
0.304827
0.551528
0.661706
0.503746
0.585959
0.399001
0.600444
0.658183
0.355843
0.364164
0.339384
0.547711
0.503392
0.602467
0.649158
0.596188
0.587833
0.299913
0.604609
0.657392
0.614717
0.377282
0.632326
0.504342
0.329316
0.351661
0.366046
0.37728
0.359658
0.489219
0.562668
0.582801
0.369888
0.314405
0.606761
0.377507
0.595013
0.638071
0.601857
0.56885
0.613329
0.366349
0.379316
0.3668
0.469985
0.356773
0.625671
0.368923
0.640655
0.650687
0.618687
0.412246
0.363114
0.340243
0.605844
0.37279
0.364445
0.618959
0.586514
0.526703
0.650296
0.609544
0.588872
0.369506
0.517465
0.599298
0.434826
0.605146
0.594757
0.591308
0.372367
0.346026
0.614692
0.406402
0.51461
0.363849
0.567395
0.605829
0.315606
0.353362
0.577987
0.415973
0.599517
0.594381
0.36508
0.386368
0.667243
0.309173
0.329279
0.609785
0.609147
0.357338
0.611467
0.667561
0.577591
0.369234
0.490073
0.372115
0.614547
0.604244
0.58903
0.579244
0.666134
0.370095
0.358182
0.589301
0.369473
0.502467
0.360791
0.61398
0.370396
0.54469
0.598718
0.667285
0.366991
0.680741
0.67071
0.366265
0.566674
0.367237
0.61405
0.367511
0.388358
0.368916
0.579759
0.622107
0.262897
0.373059