# vtk DataFile Version 1.0
unstructured grid
ascii
DATASET UNSTRUCTURED_GRID
points 13672 float
0.0796578 -0.059106 0
0.00128732 0.00159165 0
0.00227961 -0.00102548 0
0.0791586 -0.0598787 0
-0.0546216 0.01 0
0.000495206 0.025 0
0.0800549 -0.035 0
0.135172 -0.08 0
-0.0546216 -0.0451168 0
0.000495206 -0.0301168 0
0.0800549 -0.0901168 0
0.135172 -0.135117 0
-0.0546216 -0.0451168 -0.00551168
0.000495206 -0.0301168 -0.00551168
0.0800549 -0.0901168 -0.00551168
0.135172 -0.135117 -0.00551168
0.135172 -0.08 -0.00551168
0.0800549 -0.035 -0.00551168
0.000495206 0.025 -0.00551168
-0.0546216 0.01 -0.00551168
0.00128732 0.00159165 -0.00551168
0.00227961 -0.00102548 -0.00551168
0.0791586 -0.0598787 -0.00551168
0.0796578 -0.059106 -0.00551168
0.00165953 -0.000990923 0
0.00119576 -0.000874076 0
0.000866021 -0.000641801 0
0.000645147 -0.000349912 0
0.00052235 -1.7281e-05 0
0.00049972 0.000348016 0
0.000601632 0.000737716 0
0.000861774 0.0011403 0
0.00157235 0.00183217 0
0.00188647 0.00206725 0
0.00222612 0.00230203 0
0.00258713 0.00254351 0
0.00296826 0.00279524 0
0.00337118 0.00305664 0
0.00379785 0.00332658 0
0.00425045 0.00360349 0
0.00473139 0.00388521 0
0.0052432 0.00416895 0
0.0057881 0.00445204 0
0.00636753 0.00473281 0
0.00698281 0.00500961 0
0.00763526 0.00528058 0
0.00832616 0.00554366 0
0.00905691 0.00579603 0
0.00982918 0.00603333 0
0.0106445 0.00625033 0
0.0115038 0.00644128 0
0.0124073 0.00660297 0
0.0133543 0.00673414 0
0.0143444 0.00683382 0
0.0153769 0.00690031 0
0.0164512 0.00693173 0
0.0175666 0.00692547 0
0.0187219 0.00687822 0
0.0199156 0.00678477 0
0.0211454 0.00663864 0
0.0224084 0.00643275 0
0.0237018 0.00616676 0
0.0250249 0.00584739 0
0.026375 0.00547298 0
0.0277479 0.00503752 0
0.0291386 0.00453545 0
0.0305433 0.0039653 0
0.0319572 0.0033256 0
0.0333681 0.00260019 0
0.034775 0.00179799 0
0.0361793 0.000930615 0
0.0375798 3.12222e-06 0
0.0389689 -0.000988429 0
0.0403357 -0.00205109 0
0.041675 -0.00318283 0
0.0429849 -0.00437751 0
0.0442643 -0.00562904 0
0.0455126 -0.00693089 0
0.0467314 -0.00827518 0
0.0479204 -0.00965638 0
0.0490661 -0.0110799 0
0.0501515 -0.0125519 0
0.0511696 -0.0140695 0
0.0521492 -0.0156071 0
0.0531202 -0.0171411 0
0.0540851 -0.0186663 0
0.0550431 -0.0201798 0
0.0559923 -0.0216793 0
0.0569311 -0.0231626 0
0.0578582 -0.0246273 0
0.0587723 -0.0260715 0
0.0596721 -0.027493 0
0.0605563 -0.02889 0
0.0614241 -0.0302609 0
0.0622742 -0.0316042 0
0.063106 -0.0329183 0
0.0639186 -0.034202 0
0.0647113 -0.0354543 0
0.0654835 -0.0366743 0
0.0662345 -0.0378613 0
0.0669642 -0.0390145 0
0.0676726 -0.0401333 0
0.0683597 -0.0412172 0
0.0690246 -0.0422665 0
0.0696662 -0.0432819 0
0.0702841 -0.0442636 0
0.0708793 -0.0452111 0
0.0714538 -0.0461237 0
0.072009 -0.047001 0
0.0725452 -0.0478434 0
0.0730611 -0.0486524 0
0.073556 -0.0494294 0
0.0740291 -0.0501756 0
0.0744812 -0.0508916 0
0.0749138 -0.0515773 0
0.0753285 -0.0522331 0
0.0757266 -0.0528592 0
0.076109 -0.0534564 0
0.0764753 -0.0540264 0
0.0768243 -0.054571 0
0.0771553 -0.0550919 0
0.0774679 -0.0555901 0
0.0777617 -0.0560669 0
0.0780369 -0.056523 0
0.0782958 -0.0569578 0
0.0785421 -0.0573703 0
0.0787786 -0.0577603 0
0.0790073 -0.0581279 0
0.0792295 -0.058474 0
0.0794462 -0.0587995 0
0.0798803 -0.0594162 0
0.0800272 -0.0596588 0
0.0800357 -0.0598891 0
0.0799275 -0.0600784 0
0.0797205 -0.0601773 0
0.0794593 -0.0601051 0
0.0789155 -0.0596491 0
0.0786707 -0.0593963 0
0.0784111 -0.0591319 0
0.0781372 -0.0588542 0
0.0778566 -0.0585548 0
0.0775715 -0.0582308 0
0.0772803 -0.0578828 0
0.0769832 -0.0575099 0
0.0766822 -0.0571097 0
0.0763801 -0.0566796 0
0.0760759 -0.0562196 0
0.0757623 -0.0557337 0
0.0754359 -0.0552232 0
0.0750951 -0.0546879 0
0.0747379 -0.054128 0
0.0743626 -0.0535435 0
0.0739688 -0.0529338 0
0.0735559 -0.0522981 0
0.0731238 -0.0516357 0
0.0726718 -0.050946 0
0.0721991 -0.0502288 0
0.0717046 -0.049484 0
0.0711872 -0.0487117 0
0.0706461 -0.047912 0
0.0700804 -0.0470849 0
0.0694892 -0.0462308 0
0.0688718 -0.0453499 0
0.0682271 -0.0444431 0
0.0675544 -0.043511 0
0.0668527 -0.0425546 0
0.0661215 -0.0415748 0
0.06536 -0.040573 0
0.0645676 -0.0395504 0
0.0637439 -0.0385087 0
0.0628887 -0.0374493 0
0.062002 -0.0363741 0
0.0610838 -0.0352847 0
0.0601345 -0.0341831 0
0.0591547 -0.033071 0
0.0581456 -0.0319502 0
0.0571083 -0.0308224 0
0.0560444 -0.0296893 0
0.0549562 -0.028552 0
0.053845 -0.0274126 0
0.0527113 -0.0262746 0
0.051554 -0.0251427 0
0.0503724 -0.0240222 0
0.0491675 -0.0229164 0
0.047941 -0.0218282 0
0.0466955 -0.0207597 0
0.0454337 -0.0197126 0
0.0441592 -0.0186878 0
0.0428751 -0.0176863 0
0.0415841 -0.0167097 0
0.0402878 -0.0157609 0
0.0389879 -0.0148428 0
0.0376864 -0.0139575 0
0.0363853 -0.013107 0
0.0350871 -0.0122931 0
0.0337942 -0.0115164 0
0.0325095 -0.0107772 0
0.0312357 -0.0100756 0
0.0299758 -0.00941024 0
0.0287337 -0.00877784 0
0.0275126 -0.00817571 0
0.0263139 -0.00760375 0
0.0251376 -0.00706528 0
0.0239829 -0.0065649 0
0.0228537 -0.00609619 0
0.0217522 -0.00565563 0
0.0206795 -0.00524226 0
0.0196364 -0.00485507 0
0.0186233 -0.00449318 0
0.0176408 -0.00415577 0
0.016689 -0.00384204 0
0.0157682 -0.00355115 0
0.0148783 -0.00328218 0
0.0140192 -0.00303468 0
0.0131906 -0.00280795 0
0.0123925 -0.00260016 0
0.0116246 -0.00241012 0
0.0108864 -0.00223769 0
0.0101774 -0.00208212 0
0.00949701 -0.00194206 0
0.00884483 -0.0018163 0
0.0082202 -0.0017039 0
0.00762247 -0.00160391 0
0.00705097 -0.00151528 0
0.006505 -0.00143697 0
0.0059838 -0.00136806 0
0.00548662 -0.00130772 0
0.00501265 -0.00125519 0
0.00456114 -0.00120954 0
0.00413136 -0.00116914 0
0.00372257 -0.00113251 0
0.00333398 -0.00109853 0
0.00296466 -0.00106798 0
0.00261363 -0.0010431 0
-0.052721 -0.0445996 0
-0.0508204 -0.0440823 0
-0.0489199 -0.0435651 0
-0.0470193 -0.0430478 0
-0.0451187 -0.0425306 0
-0.0432181 -0.0420134 0
-0.0413175 -0.0414961 0
-0.039417 -0.0409789 0
-0.0375164 -0.0404616 0
-0.0356158 -0.0399444 0
-0.0337152 -0.0394271 0
-0.0318146 -0.0389099 0
-0.0299141 -0.0383927 0
-0.0280135 -0.0378754 0
-0.0261129 -0.0373582 0
-0.0242123 -0.0368409 0
-0.0223117 -0.0363237 0
-0.0204112 -0.0358065 0
-0.0185106 -0.0352892 0
-0.01661 -0.034772 0
-0.0147094 -0.0342547 0
-0.0128088 -0.0337375 0
-0.0109083 -0.0332202 0
-0.00900769 -0.032703 0
-0.00710711 -0.0321858 0
-0.00520653 -0.0316685 0
-0.00330595 -0.0311513 0
-0.00140537 -0.030634 0
0.00190689 -0.0299614 0
0.00332271 -0.0298498 0
0.00474133 -0.0297825 0
0.00616136 -0.0297597 0
0.0075814 -0.0297814 0
0.00900007 -0.0298477 0
0.010416 -0.0299583 0
0.0118278 -0.0301127 0
0.0132342 -0.0303103 0
0.0146339 -0.0305504 0
0.0160259 -0.0308322 0
0.0174091 -0.0311546 0
0.0187824 -0.0315166 0
0.020145 -0.031917 0
0.0214961 -0.0323546 0
0.0228351 -0.032828 0
0.0241613 -0.0333361 0
0.0254744 -0.0338774 0
0.0267738 -0.0344507 0
0.0280592 -0.0350545 0
0.0293306 -0.0356877 0
0.0305875 -0.0363488 0
0.0318301 -0.0370367 0
0.0330581 -0.0377501 0
0.0342717 -0.0384879 0
0.0354708 -0.0392489 0
0.0366556 -0.0400321 0
0.0378262 -0.0408363 0
0.0389828 -0.0416607 0
0.0401254 -0.0425042 0
0.0412543 -0.0433659 0
0.0423698 -0.0442451 0
0.043472 -0.0451408 0
0.0445612 -0.0460523 0
0.0456375 -0.0469789 0
0.0467013 -0.0479199 0
0.0477529 -0.0488746 0
0.0487923 -0.0498424 0
0.04982 -0.0508227 0
0.0508362 -0.051815 0
0.051841 -0.0528187 0
0.0528348 -0.0538333 0
0.0538178 -0.0548584 0
0.0547903 -0.0558935 0
0.0557524 -0.0569382 0
0.0567045 -0.0579922 0
0.0576467 -0.0590549 0
0.0585792 -0.0601261 0
0.0595024 -0.0612055 0
0.0604163 -0.0622926 0
0.0613212 -0.0633873 0
0.0622174 -0.0644891 0
0.0631049 -0.0655979 0
0.0639841 -0.0667134 0
0.064855 -0.0678353 0
0.0657179 -0.0689633 0
0.0665729 -0.0700974 0
0.0674202 -0.0712372 0
0.06826 -0.0723826 0
0.0690925 -0.0735333 0
0.0699178 -0.0746892 0
0.070736 -0.0758501 0
0.0715473 -0.0770159 0
0.0723518 -0.0781863 0
0.0731498 -0.0793612 0
0.0739412 -0.0805405 0
0.0747264 -0.081724 0
0.0755053 -0.0829116 0
0.0762781 -0.0841033 0
0.0770449 -0.0852987 0
0.0778059 -0.0864979 0
0.0785611 -0.0877007 0
0.0793108 -0.088907 0
0.0814681 -0.0912706 0
0.0828814 -0.0924245 0
0.0842946 -0.0935783 0
0.0857079 -0.0947322 0
0.0871211 -0.095886 0
0.0885344 -0.0970399 0
0.0899476 -0.0981937 0
0.0913609 -0.0993476 0
0.0927741 -0.100501 0
0.0941874 -0.101655 0
0.0956006 -0.102809 0
0.0970139 -0.103963 0
0.0984272 -0.105117 0
0.0998404 -0.106271 0
0.101254 -0.107424 0
0.102667 -0.108578 0
0.10408 -0.109732 0
0.105493 -0.110886 0
0.106907 -0.11204 0
0.10832 -0.113194 0
0.109733 -0.114348 0
0.111146 -0.115501 0
0.11256 -0.116655 0
0.113973 -0.117809 0
0.115386 -0.118963 0
0.116799 -0.120117 0
0.118213 -0.121271 0
0.119626 -0.122424 0
0.121039 -0.123578 0
0.122452 -0.124732 0
0.123866 -0.125886 0
0.125279 -0.12704 0
0.126692 -0.128194 0
0.128105 -0.129348 0
0.129519 -0.130501 0
0.130932 -0.131655 0
0.132345 -0.132809 0
0.133758 -0.133963 0
0.135172 -0.133216 0
0.135172 -0.131316 0
0.135172 -0.129415 0
0.135172 -0.127514 0
0.135172 -0.125614 0
0.135172 -0.123713 0
0.135172 -0.121813 0
0.135172 -0.119912 0
0.135172 -0.118012 0
0.135172 -0.116111 0
0.135172 -0.11421 0
0.135172 -0.11231 0
0.135172 -0.110409 0
0.135172 -0.108509 0
0.135172 -0.106608 0
0.135172 -0.104708 0
0.135172 -0.102807 0
0.135172 -0.100906 0
0.135172 -0.0990058 0
0.135172 -0.0971052 0
0.135172 -0.0952046 0
0.135172 -0.0933041 0
0.135172 -0.0914035 0
0.135172 -0.0895029 0
0.135172 -0.0876023 0
0.135172 -0.0857017 0
0.135172 -0.0838012 0
0.135172 -0.0819006 0
0.133758 -0.0788462 0
0.132345 -0.0776923 0
0.130932 -0.0765385 0
0.129519 -0.0753846 0
0.128105 -0.0742308 0
0.126692 -0.0730769 0
0.125279 -0.0719231 0
0.123866 -0.0707692 0
0.122452 -0.0696154 0
0.121039 -0.0684615 0
0.119626 -0.0673077 0
0.118213 -0.0661538 0
0.116799 -0.065 0
0.115386 -0.0638462 0
0.113973 -0.0626923 0
0.11256 -0.0615385 0
0.111146 -0.0603846 0
0.109733 -0.0592308 0
0.10832 -0.0580769 0
0.106907 -0.0569231 0
0.105493 -0.0557692 0
0.10408 -0.0546154 0
0.102667 -0.0534615 0
0.101254 -0.0523077 0
0.0998404 -0.0511538 0
0.0984272 -0.05 0
0.0970139 -0.0488462 0
0.0956006 -0.0476923 0
[...]
CELL_DATA 13116
SCALARS rho float
LOOKUP_TABLE default
0.548302
0.660704
0.396971
0.71524
0.703878
0.676659
0.368867
0.707522
0.528422
0.709889
0.36707
0.374646
0.704136
0.394578
0.373051
0.67689
0.514961
0.702498
0.678447
0.365373
0.554177
0.387941
0.409378
0.704198
0.612668
0.634187
0.709985
0.443237
0.605778
0.650447
0.672229
0.397682
0.55755
0.450219
0.365466
0.551294
0.66869
0.674167
0.675041
0.684114
0.678174
0.711403
0.425499
0.407058
0.677583
0.678444
0.635828
0.682488
0.374153
0.525233
0.700864
0.44327
0.374331
0.507534
0.55612
0.587777
0.408399
0.699919
0.538687
0.377858
0.398082
0.710582
0.650234
0.674804
0.67257
0.395287
0.683185
0.676742
0.685071
0.672908
0.373404
0.588117
0.388713
0.405746
0.670945
0.381492
0.644343
0.697102
0.362933
0.69973
0.682303
0.639699
0.703916
0.683073
0.669391
0.444897
0.372929
0.674958
0.664753
0.386023
0.385341
0.662542
0.706333
0.671466
0.652908
0.600744
0.615533
0.671824
0.671351
0.601317
0.685921
0.58646
0.678219
0.402383
0.617109
0.407048
0.35507
0.472928
0.425927
0.616807
0.501875
0.632152
0.598896
0.686568
0.700362
0.684024
0.384011
0.385729
0.692542
0.686594
0.677457
0.387536
0.685718
0.410396
0.665473
0.440544
0.374589
0.511891
0.419132
0.526801
0.692815
0.685941
0.501362
0.3817
0.482245
0.584087
0.668741
0.689595
0.68497
0.686329
0.626835
0.639444
0.510453
0.627606
0.645636
0.392445
0.365785
0.630653
0.701628
0.69639
0.544523
0.68227
0.682223
0.394141
0.706167
0.670846
0.412657
0.691671
0.671963
0.675574
0.703279
0.364766
0.701472
0.412697
0.385189
0.708099
0.661916
0.701975
0.366564
0.463809
0.419861
0.668752
0.380084
0.49522
0.682594
0.410855
0.377085
0.38912
0.627758
0.676175
0.373944
0.432633
0.522499
0.66943
0.676419
0.536328
0.388061
0.678396
0.603899
0.46458
0.638219
0.628179
0.673216
0.416889
0.622189
0.676602
0.707388
0.678326
0.663207
0.408808
0.401722
0.62342
0.506429
0.405046
0.695674
0.678412
0.45208
0.611649
0.396205
0.388287
0.383202
0.680165
0.413204
0.367871
0.381126
0.393267
0.363556
0.674489
0.661907
0.431306
0.406503
0.682706
0.495489
0.374129
0.551409
0.709982
0.643064
0.44709
0.682719
0.387189
0.718395
0.387541
0.673305
0.577436
0.671496
0.676817
0.673471
0.371519
0.432566
0.675782
0.670775
0.676378
0.669104
0.673552
0.700037
0.380145
0.694725
0.70674
0.671369
0.388199
0.376798
0.679676
0.691556
0.672934
0.687398
0.533717
0.690749
0.366901
0.394263
0.395044
0.397035
0.598849
0.707187
0.642951
0.364089
0.676598
0.389
0.430304
0.619438
0.394178
0.635445
0.705465
0.670262
0.699536
0.373723
0.670165
0.687783
0.6714
0.689367
0.357229
0.372419
0.417647
0.579065
0.389015
0.383924
0.328405
0.29699
0.668454
0.376831
0.67018
0.704258
0.378535
0.369528
0.386614
0.45516
0.38443
0.673377
0.585278
0.62522
0.393608
0.679794
0.583522
0.398336
0.375984
0.67516
0.691409
0.678098
0.385409
0.676855
0.415342
0.685051
0.710932
0.694125
0.709586
0.41949
0.682406
0.392215
0.677936
0.710058
0.676516
0.365265
0.327799
0.707209
0.385718
0.65111
0.710414
0.366789
0.69433
0.703634
0.379528
0.676372
0.706386
0.384605
0.694572
0.444406
0.570843
0.687535
0.451808
0.691959
0.365147
0.702025
0.339529
0.673929
0.577575
0.708477
0.44217
0.354184
0.670754
0.395498
0.69431
0.610689
0.422261
0.668814
0.390342
0.392849
0.690756
0.554449
0.674745
0.373997
0.412673
0.694502
0.704063
0.364772
0.702178
0.390511
0.405113
0.684293
0.691426
0.457062
0.380167
0.689675
0.672629
0.676972
0.67538
0.698021
0.544666
0.329154
0.393142
0.372733
0.676778
0.372902
0.520232
0.370764
0.399257
0.347924
0.467645
0.14134
0.39521
0.671585
0.330253
0.702178
0.608736
0.679575
0.666526
0.69565
0.393517
0.370434
0.414156
0.336011
0.691082
0.594411
0.678568
0.60802
0.647463
0.623058
0.637512
0.623369
0.64737
0.696264
0.699318
0.675919
0.401118
0.460308
0.544137
0.387828
0.581355
0.585978
0.374595
0.683425
0.670477
0.421566
0.36161
0.375546
0.38701
0.632455
0.372899
0.41698
0.681107
0.396924
0.577368
0.389586
0.676619
0.680874
0.371519
0.38323
0.690283
0.456339
0.390371
0.387764
0.376482
0.425924
0.372786
0.362589
0.3887
0.430585
0.374611
0.582865
0.367967
0.668788
0.384276
0.44268
0.499873
0.397333
0.384635
0.395738
0.680192
0.438646
0.646404
0.474626
0.394127
0.614233
0.667142
0.444227
0.693894
0.623854
0.622076
0.373063
0.671613
0.388113
0.699547
0.672034
0.418365
0.383436
0.602313
0.341608
0.453921
0.580673
0.35387
0.690611
0.648493
0.371784
0.373259
0.379265
0.490568
0.374659
0.381486
0.377317
0.392527
0.711527
0.712269
0.462232
0.604763
0.481612
0.621798
0.348556
0.38936
0.533273
0.419077
0.68404
0.289398
0.369161
0.497116
0.677097
0.65676
0.56042
0.365594
0.382077
0.565954
0.707568
0.673585
0.561941
0.622016
0.597573
0.374246
0.679823
0.572654
0.674707
0.30538
0.384899
0.685537
0.707931
0.66548
0.710482
0.657545
0.634802
0.702081
0.67539
0.679321
0.375009
0.676954
0.335183
0.395537
0.369145
0.713596
0.678786
0.306067
0.66852
0.622512
0.366218
0.673809
0.690496
0.6929
0.443308
0.389972
0.695361
0.385194
0.369255
0.381121
0.375538
0.681886
0.38379
0.713256
0.374088
0.661608
0.699262
0.683254
0.70442
0.390985
0.369616
0.680925
0.719869
0.657411
0.711213
0.706519
0.494126
0.37813
0.422542
0.678352
0.530978
0.371924
0.455429
0.393998
0.684126
0.679519
0.305403
0.388168
0.666565
0.462831
0.672302
0.667077
0.417156
0.388033
0.652872
0.670596
0.415102
0.655301
0.661631
0.680043
0.388487
0.66906
0.408573
0.671301
0.6733
0.379646
0.362259
0.385055
0.671296
0.425167
0.364272
0.38685
0.674193
0.689834
0.36369
0.387591
0.383952
0.6742
0.389777
0.67646
0.391895
0.592374
0.710102
0.38731
0.411959
0.410548
0.494533
0.427972
0.645695
0.387733
0.384808
0.675822
0.382028
0.679617
0.647066
0.671555
0.37141
0.684679
0.704642
0.706969
0.678858
0.669111
0.683874
0.393147
0.673378
0.433725
0.678129
0.35588
0.700945
0.508207
0.369449
0.672208
0.699809
0.394238
0.62697
0.383886
0.372028
0.680863
0.679747
0.379955
0.392306
0.364163
0.400926
0.681234
0.70424
0.390937
0.373561
0.69437
0.689342
0.594306
0.703994
0.679078
0.365783
0.708613
0.426261
0.700609
0.387563
0.599216
0.481892
0.681863
0.676041
0.577998
0.339469
0.439346
0.678658
0.604781
0.513913
0.703465
0.396252
0.685218
0.705781
0.362172
0.457741
0.704988
0.363312
0.672512
0.676879
0.323266
0.688422
0.651013
0.390611
0.6888
0.416598
0.661253
0.392621
0.679771
0.648212
0.437266
0.67484
0.701961
0.696682
0.624024
0.680883
0.583181
0.356645
0.417924
0.36806
0.404057
0.668129
0.554621
0.686916
0.70091
0.37305
0.379189
0.684925
0.710921
0.690979
0.705536
0.359144
0.699504
0.70652
0.363244
0.381975
0.692891
0.679432
0.665415
0.399209
0.589843
0.33935
0.688021
0.644733
0.673763
0.668324
0.374294
0.67858
0.669943
0.705476
0.67879
0.677941
0.429591
0.697524
0.388711
0.622328
0.708176
0.463868
0.650161
0.673962
0.698615
0.402504
0.402847
0.584427
0.658593
0.377007
0.382494
0.393415
0.380389
0.663703
0.684787
0.673356
0.298274
0.37463
0.684761
0.690175
0.384772
0.375356
0.466634
0.666723
0.678483
0.674804
0.695422
0.387015
0.37634
0.669331
0.406707
0.368588
0.387823
0.677183
0.356146
0.391434
0.579791
0.679609
0.627738
0.675744
0.677966
0.387084
0.379441
0.391132
0.473456
0.437796
0.387996
0.675064
0.695274
0.661012
0.67998
0.411028
0.37056
0.710236
0.370491
0.677654
0.647586
0.672303
0.379966
0.37538
0.655251
0.67211
0.559863
0.383823
0.671483
0.676102
0.575104
0.696537
0.704786
0.669695
0.622386
0.360728
0.677887
0.672427
0.614726
0.68859
0.668233
0.633818
0.669909
0.688297
0.384864
0.377709
0.369984
0.672599
0.506419
0.371353
0.684535
0.695208
0.368481
0.635283
0.325741
0.640193
0.466797
0.374572
0.711048
0.703688
0.373282
0.548208
0.672657
0.410902
0.671671
0.397997
0.405867
0.618561
0.612892
0.500352
0.678333
0.393351
0.701235
0.376448
0.39217
0.679394
0.37082
0.605786
0.397605
0.634098
0.60083
0.66979
0.659334
0.389146
0.384964
0.607219
0.427275
0.690686
0.460469
0.592983
0.676508
0.705284
0.441898
0.613668
0.626081
0.707676
0.684522
0.34314
0.368174
0.54054
0.623954
0.708221
0.37332
0.678135
0.561859
0.413634
0.38551
0.678348
0.667806
0.669411
0.6711
0.586381
0.686885
0.674797
0.676297
0.396237
0.666171
0.464214
0.68978
0.678745
0.295731
0.645475
0.701854
0.386891
0.379175
0.384237
0.668284
0.365386
0.618639
0.693954
0.667795
0.355929
0.671257
0.404453
0.58938
0.674439
0.673158
0.673237
0.674124
0.624194
0.680893
0.525769
0.677567
0.39367
0.677047
0.682981
0.407479
0.670337
0.68601
0.418067
0.391918
0.413296
0.694694
0.388482
0.67002
0.390173
0.706571
0.384155
0.482024
0.399326
0.699002
0.704502
0.53157
0.267242
0.623909
0.67467
0.383225
0.593619
0.712692
0.387468
0.590689
0.671762
0.709623
0.678067
0.416739
0.470364
0.692757
0.679045
0.623994
0.385009
0.399288
0.673384
0.669131
0.670558
0.668981
0.548457
0.686408
0.543579
0.686794
0.386164
0.405124
0.669101
0.702535
0.674339
0.398112
0.67726
0.555969
0.599974
0.384374
0.415945
0.702701
0.719035
0.560461
0.337873
0.679574
0.670609
0.367061
0.615623
0.695205
0.366072
0.437491
0.390009
0.602963
0.38903
0.374316
0.675543
0.468155
0.708532
0.641666
0.36886
0.373657
0.709815
0.382106
0.374463
0.672125
0.403677
0.350407
0.594649
0.66446
0.685213
0.379646
0.303733
0.371598
0.648655
0.406321
0.685863
0.374404
0.685242
0.627415
0.676755
0.628865
0.677532
0.642414
0.678555
0.703937
0.688705
0.38194
0.39154
0.669732
0.674961
0.504597
0.615729
0.562149
0.674611
0.612898
0.376503
0.685245
0.711889
0.675223
0.392561
0.679634
0.385094
0.683256
0.496947
0.699992
0.679059
0.374312
0.691268
0.381514
0.429914
0.651701
0.387479
0.691182
0.668352
0.692502
0.389193
0.680972
0.384598
0.380158
0.39808
0.379626
0.603943
0.382439
0.630915
0.674202
0.341049
0.416993
0.488825
0.582549
0.635893
0.625635
0.372342
0.388975
0.364769
0.399164
0.264615
0.634893
0.637779
0.45004
0.673782
0.693359
0.390035
0.711706
0.689572
0.674363
0.398901
0.670824
0.679437
0.697564
0.690221
0.372427
0.686877
0.699134
0.680293
0.678994
0.675463
0.381072
0.405437
0.682334
0.537757
0.377007
0.678934
0.412695
0.570557
0.627226
0.658957
0.663061
0.381854
0.613777
0.398594
0.394937
0.695019
0.696217
0.702192
0.693988
0.659691
0.380478
0.70567
0.385401
0.503454
0.707442
0.671346
0.692124
0.392601
0.390287
0.707498
0.390039
0.694586
0.657356
0.431293
0.379769
0.684688
0.400126
0.678967
0.694105
0.655631
0.399627
0.37721
0.508296
0.518555
0.622777
0.476292
0.676091
0.625515
0.671537
0.667988
0.686447
0.374694
0.385038
0.696722
0.675429
0.620741
0.463273
0.404344
0.676712
0.383773
0.6792
0.618254
0.322978
0.69054
0.36199
0.652083
0.390584
0.702753
0.373736
0.682726
0.67586
0.344718
0.668151
0.657929
0.332328
0.673443
0.678161
0.560179
0.396125
0.363867
0.46992
0.705167
0.602133
0.372519
0.584994
0.689144
0.675773
0.346224
0.609361
0.666083
0.462046
0.676051
0.678095
0.292186
0.687658
0.671566
0.395928
0.599518
0.385212
0.63757
0.390941
0.40548
0.707517
0.375647
0.386685
0.389202
0.682247
0.656885
0.404204
0.67963
0.359097
0.664479
0.383698
0.661011
0.371097
0.676844
0.682727
0.646336
0.673628
0.552181
0.675838
0.674375
0.428822
0.645693
0.652458
0.482868
0.685716
0.494079
0.405374
0.70534
0.378705
0.576789
0.315198
0.678438
0.381192
0.416343
0.703933
0.678434
0.370282
0.688168
0.695596
0.668221
0.705034
0.671143
0.36138
0.710682
0.367427
0.413183
0.666726
0.696406
0.710462
0.668949
0.389603
0.392047
0.366578
0.662093
0.674092
0.362091
0.675983
0.394769
0.391353
0.382648
0.667704
0.387865
0.707514
0.689335
0.644561
0.678889
0.687774
0.574956
0.638452
0.436121
0.408284
0.369297
0.671109
0.670804
0.398851
0.634171
0.599819
0.640658
0.417045
0.399485
0.629596
0.276678
0.622447
0.592311
0.367334
0.675054
0.665583
0.370796
0.684399
0.372363
0.686497
0.709127
0.67795
0.386432
0.472175
0.689529
0.301009
0.443607
0.678368
0.309762
0.675341
0.684244
0.634748
0.696129
0.336474
0.672105
0.694292
0.678872
0.362867
0.696433
0.382115
0.393868
0.670557
0.678846
0.673968
0.234906
0.679569
0.644315
0.670924
0.390643
0.388119
0.390271
0.691874
0.365908
0.379199
0.390423
0.590065
0.372998
0.294591
0.445176
0.6856
0.369527
0.67358
0.674654
0.683182
0.387857
0.685718
0.662427
0.673703
0.418094
0.6769
0.36569
0.37906
0.680608
0.370163
0.629037
0.688193
0.669633
0.369671
0.328269
0.394983
0.561017
0.669089
0.233132
0.674932
0.681885
0.697193
0.386793
0.386684
0.343234
0.600817
0.382158
0.668111
0.609581
0.675
0.674345
0.359019
0.628996
0.394258
0.560104
0.65951
0.710778
0.56828
0.476183
0.67688
0.62482
0.697809
0.385651
0.377937
0.400812
0.6994
0.537128
0.671385
0.369115
0.401266
0.698197
0.685555
0.672855
0.369442
0.684281
0.5592
0.563466
0.604874
0.425221
0.368295
0.291608
0.678959
0.674079
0.677199
0.619425
0.342445
0.69391
0.670349
0.674102
0.673523
0.693132
0.711706
0.676485
0.694521
0.701727
0.418218
0.687441
0.695207
0.676342
0.690034
0.678624
0.57778
0.366674
0.409465
0.61831
0.379303
0.338725
0.683562
0.374209
0.646579
0.683993
0.657926
0.675965
0.41944
0.685767
0.394904
0.40198
0.676799
0.685223
0.680211
0.387159
0.700853
0.678466
0.614963
0.678059
0.386966
0.67602
0.70795
0.666361
0.409208
0.700965
0.390573
0.717637
0.387156
0.367333
0.521168
0.453341
0.710953
0.700628
0.677914
0.390804
0.675783
0.406435
0.376208
0.651237
0.491247
0.385446
0.678143
0.386107
0.513482
0.675846
0.635895
0.662047
0.490945
0.598966
0.664238
0.677744
0.574806
0.702063
0.537189
0.716052
0.615014
0.655526
0.409166
0.364683
0.452765
0.694035
0.417368
0.674227
0.688863
0.608118
0.67798
0.518835
0.689903
0.67788
0.398909
0.687222
0.608863
0.488153
0.612661
0.706944
0.647329
0.675063
0.386112
0.382966
0.679205
0.540136
0.545747
0.689223
0.682896
0.680307
0.707839
0.70903
0.626363
0.622552
0.710666
0.382589
0.392797
0.3841
0.343238
0.670373
0.465484
0.539457
0.690077
0.683181
0.415345
0.677156
0.715085
0.388833
0.375517
0.670268
0.6895
0.427283
0.379625
0.3836
0.668023
0.633219
0.413679
0.376889
0.366796
0.403433
0.348456
0.379919
0.716012
0.682754
0.683093
0.387952
0.659067
0.609707
0.614735
0.328084
0.360419
0.64911
0.668968
0.391137
0.67649
0.37077
0.703641
0.418647
0.682501
0.379582
0.661867
0.703799
0.389163
0.565011
0.379235
0.711015
0.405442
0.613672
0.410944
0.512073
0.368921
0.604214
0.382742
0.673379
0.673154
0.613227
0.676379
0.32575
0.661309
0.67461
0.702126
0.607243
0.665518
0.361948
0.392055
0.398959
0.706404
0.289035
0.701496
0.551754
0.69619
0.709459
0.4612
0.697163
0.375025
0.399633
0.380291
0.516753
0.518779
0.682215
0.391644
0.383293
0.678788
0.379282
0.397953
0.553406
0.369898
0.391473
0.41047
0.71293
0.665695
0.618515
0.40807
0.65781
0.67949
0.410055
0.322878
0.670225
0.677608
0.563751
0.516824
0.413385
0.362005
0.393266
0.681396
0.613285
0.527995
0.692485
0.39278
0.574675
0.362834
0.672369
0.70123
0.363342
0.392651
0.620442
0.546167
0.703883
0.70158
0.705297
0.689499
0.707726
0.390838
0.388398
0.402952
0.356336
0.539987
0.672234
0.667725
0.357053
0.36989
0.457081
0.437947
0.680328
0.634834
0.383292
0.305159
0.683839
0.416077
0.662642
0.700147
0.651612
0.675622
0.55295
0.369364
0.380162
0.616456
0.364103
0.42365
0.403454
0.674748
0.680223
0.333694
0.367761
0.668743
0.382963
0.680786
0.706343
0.370284
0.388927
0.381858
0.683573
0.384015
0.668307
0.68952
0.608295
0.374977
0.532969
0.696538
0.672356
0.369322
0.66961
0.620738
0.452878
0.692169
0.720194
0.38702
0.373806
0.654072
0.38848
0.356051
0.665399
0.345565
0.681258
0.690452
0.705733
0.629065
0.702316
0.683486
0.675698
0.364628
0.412894
0.632014
0.682213
0.472005
0.711426
0.32378
0.68781
0.663723
0.576794
0.658026
0.392971
0.463726
0.67799
0.698584
0.611438
0.704107
0.681381
0.669651
0.703887
0.668423
0.671059
0.654031
0.688324
0.669162
0.675885
0.348335
0.643063
0.4268
0.684183
0.687499
0.696845
0.64102
0.69589
0.385132
0.396043
0.305677
0.36814
0.64938
0.373212
0.3992
0.683628
0.398942
0.693828
0.393916
0.665491
0.687274
0.37448
0.381907
0.325931
0.692424
0.410147
0.681373
0.691013
0.393743
0.646155
0.562002
0.352333
0.438234
0.40128
0.697885
0.374451
0.686134
0.51505
0.373343
0.678089
0.67843
0.705403
0.371018
0.581204
0.405186
0.661166
0.675322
0.684119
0.39144
0.681236
0.689378
0.625839
0.410411
0.692265
0.370706
0.374841
0.678152
0.460676
0.708799
0.403729
0.391607
0.447606
0.634897
0.428116
0.289736
0.38797
0.483747
0.671134
0.689707
0.389497
0.603187
0.682045
0.562005
0.424273
0.317522
0.564412
0.372848
0.360834
0.677632
0.379872
0.374492
0.696319
0.713421
0.388326
0.701293
0.389462
0.670057
0.449423
0.653121
0.673121
0.697242
0.674836
0.385093
0.366352
0.401684
0.676022
0.656143
0.596162
0.549473
0.371423
0.303104
0.676911
0.366164
0.681796
0.383355
0.673556
0.678273
0.383114
0.409212
0.3754
0.366861
0.415675
0.618775
0.652318
0.379969
0.686742
0.645617
0.35692
0.381006
0.713132
0.383258
0.686262
0.429689
0.696478
0.664384
0.685439
0.671361
0.377265
0.708944
0.682387
0.715916
0.376715
0.609085
0.604295
0.332584
0.693927
0.642325
0.710613
0.658652
0.707861
0.676899
0.709258
0.676618
0.678317
0.373747
0.70473
0.375595
0.465101
0.678029
0.403928
0.666838
0.607525
0.380606
0.627358
0.375293
0.386324
0.670787
0.597537
0.712842
0.392233
0.65823
0.629628
0.451175
0.384869
0.653812
0.67938
0.37952
0.388286
0.693525
0.712576
0.37285
0.650415
0.705062
0.6683
0.386715
0.370897
0.392308
0.666123
0.370267
0.670422
0.699569
0.6771
0.609408
0.687156
0.392312
0.664881
0.623654
0.703576
0.564931
0.411279
0.365362
0.401232
0.703985
0.692014
0.426839
0.662048
0.304385
0.648249
0.686082
0.397164
0.619581
0.671471
0.6305
0.387149
0.370267
0.331684
0.693557
0.708596
0.626738
0.516876
0.686153
0.389756
0.643205
0.670496
0.681627
0.38929
0.635041
0.381419
0.615222
0.404632
0.679924
0.671037
0.407369
0.692766
0.430081
0.669079
0.645579
0.668063
0.693189
0.418486
0.676602
0.678813
0.680844
0.680845
0.485602
0.67039
0.38341
0.679292
0.398134
0.370794
0.392621
0.413264
0.375996
0.386387
0.70795
0.366813
0.378101
0.665334
0.693385
0.65478
0.413288
0.691653
0.691621
0.675278
0.324972
0.58006
0.683195
0.38595
0.387043
0.366486
0.636522
0.510422
0.370193
0.588461
0.412485
0.671402
0.503865
0.376168
0.478143
0.659688
0.328334
0.679776
0.388951
0.470975
0.376501
0.684317
0.386457
0.658206
0.670632
0.590962
0.422098
0.365161
0.678241
0.711672
0.390526
0.380056
0.676326
0.367871
0.700559
0.387943
0.56506
0.401929
0.683282
0.388725
0.710074
0.370606
0.685995
0.687773
0.699314
0.670298
0.385778
0.413402
0.413892
0.638215
0.682712
0.633185
0.521638
0.384123
0.695654
0.320339
0.653383
0.582935
0.404377
0.380345
0.701789
0.679336
0.40823
0.672623
0.68406
0.701203
0.705843
0.388915
0.646045
0.382775
0.700999
0.370634
0.674193
0.647092
0.661951
0.71065
0.361692
0.717404
0.375944
0.398745
0.680418
0.670499
0.556228
0.679779
0.670306
0.386604
0.702866
0.680203
0.70718
0.381126
0.432969
0.687723
0.374367
0.688563
0.688851
0.669571
0.687125
0.286403
0.455769
0.66008
0.408157
0.663678
0.711993
0.479947
0.667359
0.27062
0.618837
0.703084
0.687721
0.668326
0.368094
0.419956
0.68269
0.667657
0.380098
0.329675
0.389651
0.411544
0.379517
0.412125
0.410815
0.377808
0.682274
0.396415
0.387091
0.692351
0.554182
0.66883
0.399689
0.368763
0.683001
0.475685
0.478889
0.706594
0.373301
0.671959
0.673755
0.618168
0.663553
0.409076
0.690049
0.674795
0.391565
0.374654
0.405368
0.604013
0.618228
0.707846
0.677315
0.682586
0.667459
0.378031
0.690509
0.675004
0.654332
0.367713
0.684189
0.575531
0.370966
0.438533
0.376066
0.399174
0.386346
0.599631
0.677211
0.671113
0.36326
0.389587
0.704843
0.353686
0.69162
0.679036
0.669995
0.687893
0.685279
0.387363
0.402862
0.408229
0.572816
0.377281
0.68232
0.392639
0.680763
0.676127
0.686954
0.36086
0.456946
0.416864
0.687358
0.384299
0.366792
0.683489
0.663114
0.623468
0.676776
0.648414
0.700012
0.36871
0.633598
0.702786
0.532797
0.685966
0.694127
0.700633
0.462115
0.428135
0.708833
0.500412
0.617551
0.385782
0.64472
0.670336
0.408789
0.366853
0.659126
0.517826
0.699522
0.691716
0.374803
0.365249
0.671634
0.384811
0.41526
0.672046
0.654819
0.380267
0.674649
0.672038
0.643098
0.366821
0.600962
0.369651
0.675149
0.700787
0.699694
0.668288
0.672113
0.297765
0.359104
0.681388
0.381639
0.614534
0.379652
0.686537
0.393087
0.655605
0.702431
0.671796
0.390908
0.668235
0.670767
0.361452
0.645635
0.388574
0.714218
0.390902
0.3808
0.3847
0.678663
0.677144
0.323091
0.300672
0.631303