# vtk DataFile Version 1.0
unstructured grid
ascii
DATASET UNSTRUCTURED_GRID
points 13672 float
0.0796578 -0.059106 0
0.00128732 0.00159165 0
0.00227961 -0.00102548 0
0.0791586 -0.0598787 0
-0.0546216 0.01 0
0.000495206 0.025 0
0.0800549 -0.035 0
0.135172 -0.08 0
-0.0546216 -0.0451168 0
0.000495206 -0.0301168 0
0.0800549 -0.0901168 0
0.135172 -0.135117 0
-0.0546216 -0.0451168 -0.00551168
0.000495206 -0.0301168 -0.00551168
0.0800549 -0.0901168 -0.00551168
0.135172 -0.135117 -0.00551168
0.135172 -0.08 -0.00551168
0.0800549 -0.035 -0.00551168
0.000495206 0.025 -0.00551168
-0.0546216 0.01 -0.00551168
0.00128732 0.00159165 -0.00551168
0.00227961 -0.00102548 -0.00551168
0.0791586 -0.0598787 -0.00551168
0.0796578 -0.059106 -0.00551168
0.00165953 -0.000990923 0
0.00119576 -0.000874076 0
0.000866021 -0.000641801 0
0.000645147 -0.000349912 0
0.00052235 -1.7281e-05 0
0.00049972 0.000348016 0
0.000601632 0.000737716 0
0.000861774 0.0011403 0
0.00157235 0.00183217 0
0.00188647 0.00206725 0
0.00222612 0.00230203 0
0.00258713 0.00254351 0
0.00296826 0.00279524 0
0.00337118 0.00305664 0
0.00379785 0.00332658 0
0.00425045 0.00360349 0
0.00473139 0.00388521 0
0.0052432 0.00416895 0
0.0057881 0.00445204 0
0.00636753 0.00473281 0
0.00698281 0.00500961 0
0.00763526 0.00528058 0
0.00832616 0.00554366 0
0.00905691 0.00579603 0
0.00982918 0.00603333 0
0.0106445 0.00625033 0
0.0115038 0.00644128 0
0.0124073 0.00660297 0
0.0133543 0.00673414 0
0.0143444 0.00683382 0
0.0153769 0.00690031 0
0.0164512 0.00693173 0
0.0175666 0.00692547 0
0.0187219 0.00687822 0
0.0199156 0.00678477 0
0.0211454 0.00663864 0
0.0224084 0.00643275 0
0.0237018 0.00616676 0
0.0250249 0.00584739 0
0.026375 0.00547298 0
0.0277479 0.00503752 0
0.0291386 0.00453545 0
0.0305433 0.0039653 0
0.0319572 0.0033256 0
0.0333681 0.00260019 0
0.034775 0.00179799 0
0.0361793 0.000930615 0
0.0375798 3.12222e-06 0
0.0389689 -0.000988429 0
0.0403357 -0.00205109 0
0.041675 -0.00318283 0
0.0429849 -0.00437751 0
0.0442643 -0.00562904 0
0.0455126 -0.00693089 0
0.0467314 -0.00827518 0
0.0479204 -0.00965638 0
0.0490661 -0.0110799 0
0.0501515 -0.0125519 0
0.0511696 -0.0140695 0
0.0521492 -0.0156071 0
0.0531202 -0.0171411 0
0.0540851 -0.0186663 0
0.0550431 -0.0201798 0
0.0559923 -0.0216793 0
0.0569311 -0.0231626 0
0.0578582 -0.0246273 0
0.0587723 -0.0260715 0
0.0596721 -0.027493 0
0.0605563 -0.02889 0
0.0614241 -0.0302609 0
0.0622742 -0.0316042 0
0.063106 -0.0329183 0
0.0639186 -0.034202 0
0.0647113 -0.0354543 0
0.0654835 -0.0366743 0
0.0662345 -0.0378613 0
0.0669642 -0.0390145 0
0.0676726 -0.0401333 0
0.0683597 -0.0412172 0
0.0690246 -0.0422665 0
0.0696662 -0.0432819 0
0.0702841 -0.0442636 0
0.0708793 -0.0452111 0
0.0714538 -0.0461237 0
0.072009 -0.047001 0
0.0725452 -0.0478434 0
0.0730611 -0.0486524 0
0.073556 -0.0494294 0
0.0740291 -0.0501756 0
0.0744812 -0.0508916 0
0.0749138 -0.0515773 0
0.0753285 -0.0522331 0
0.0757266 -0.0528592 0
0.076109 -0.0534564 0
0.0764753 -0.0540264 0
0.0768243 -0.054571 0
0.0771553 -0.0550919 0
0.0774679 -0.0555901 0
0.0777617 -0.0560669 0
0.0780369 -0.056523 0
0.0782958 -0.0569578 0
0.0785421 -0.0573703 0
0.0787786 -0.0577603 0
0.0790073 -0.0581279 0
0.0792295 -0.058474 0
0.0794462 -0.0587995 0
0.0798803 -0.0594162 0
0.0800272 -0.0596588 0
0.0800357 -0.0598891 0
0.0799275 -0.0600784 0
0.0797205 -0.0601773 0
0.0794593 -0.0601051 0
0.0789155 -0.0596491 0
0.0786707 -0.0593963 0
0.0784111 -0.0591319 0
0.0781372 -0.0588542 0
0.0778566 -0.0585548 0
0.0775715 -0.0582308 0
0.0772803 -0.0578828 0
0.0769832 -0.0575099 0
0.0766822 -0.0571097 0
0.0763801 -0.0566796 0
0.0760759 -0.0562196 0
0.0757623 -0.0557337 0
0.0754359 -0.0552232 0
0.0750951 -0.0546879 0
0.0747379 -0.054128 0
0.0743626 -0.0535435 0
0.0739688 -0.0529338 0
0.0735559 -0.0522981 0
0.0731238 -0.0516357 0
0.0726718 -0.050946 0
0.0721991 -0.0502288 0
0.0717046 -0.049484 0
0.0711872 -0.0487117 0
0.0706461 -0.047912 0
0.0700804 -0.0470849 0
0.0694892 -0.0462308 0
0.0688718 -0.0453499 0
0.0682271 -0.0444431 0
0.0675544 -0.043511 0
0.0668527 -0.0425546 0
0.0661215 -0.0415748 0
0.06536 -0.040573 0
0.0645676 -0.0395504 0
0.0637439 -0.0385087 0
0.0628887 -0.0374493 0
0.062002 -0.0363741 0
0.0610838 -0.0352847 0
0.0601345 -0.0341831 0
0.0591547 -0.033071 0
0.0581456 -0.0319502 0
0.0571083 -0.0308224 0
0.0560444 -0.0296893 0
0.0549562 -0.028552 0
0.053845 -0.0274126 0
0.0527113 -0.0262746 0
0.051554 -0.0251427 0
0.0503724 -0.0240222 0
0.0491675 -0.0229164 0
0.047941 -0.0218282 0
0.0466955 -0.0207597 0
0.0454337 -0.0197126 0
0.0441592 -0.0186878 0
0.0428751 -0.0176863 0
0.0415841 -0.0167097 0
0.0402878 -0.0157609 0
0.0389879 -0.0148428 0
0.0376864 -0.0139575 0
0.0363853 -0.013107 0
0.0350871 -0.0122931 0
0.0337942 -0.0115164 0
0.0325095 -0.0107772 0
0.0312357 -0.0100756 0
0.0299758 -0.00941024 0
0.0287337 -0.00877784 0
0.0275126 -0.00817571 0
0.0263139 -0.00760375 0
0.0251376 -0.00706528 0
0.0239829 -0.0065649 0
0.0228537 -0.00609619 0
0.0217522 -0.00565563 0
0.0206795 -0.00524226 0
0.0196364 -0.00485507 0
0.0186233 -0.00449318 0
0.0176408 -0.00415577 0
0.016689 -0.00384204 0
0.0157682 -0.00355115 0
0.0148783 -0.00328218 0
0.0140192 -0.00303468 0
0.0131906 -0.00280795 0
0.0123925 -0.00260016 0
0.0116246 -0.00241012 0
0.0108864 -0.00223769 0
0.0101774 -0.00208212 0
0.00949701 -0.00194206 0
0.00884483 -0.0018163 0
0.0082202 -0.0017039 0
0.00762247 -0.00160391 0
0.00705097 -0.00151528 0
0.006505 -0.00143697 0
0.0059838 -0.00136806 0
0.00548662 -0.00130772 0
0.00501265 -0.00125519 0
0.00456114 -0.00120954 0
0.00413136 -0.00116914 0
0.00372257 -0.00113251 0
0.00333398 -0.00109853 0
0.00296466 -0.00106798 0
0.00261363 -0.0010431 0
-0.052721 -0.0445996 0
-0.0508204 -0.0440823 0
-0.0489199 -0.0435651 0
-0.0470193 -0.0430478 0
-0.0451187 -0.0425306 0
-0.0432181 -0.0420134 0
-0.0413175 -0.0414961 0
-0.039417 -0.0409789 0
-0.0375164 -0.0404616 0
-0.0356158 -0.0399444 0
-0.0337152 -0.0394271 0
-0.0318146 -0.0389099 0
-0.0299141 -0.0383927 0
-0.0280135 -0.0378754 0
-0.0261129 -0.0373582 0
-0.0242123 -0.0368409 0
-0.0223117 -0.0363237 0
-0.0204112 -0.0358065 0
-0.0185106 -0.0352892 0
-0.01661 -0.034772 0
-0.0147094 -0.0342547 0
-0.0128088 -0.0337375 0
-0.0109083 -0.0332202 0
-0.00900769 -0.032703 0
-0.00710711 -0.0321858 0
-0.00520653 -0.0316685 0
-0.00330595 -0.0311513 0
-0.00140537 -0.030634 0
0.00190689 -0.0299614 0
0.00332271 -0.0298498 0
0.00474133 -0.0297825 0
0.00616136 -0.0297597 0
0.0075814 -0.0297814 0
0.00900007 -0.0298477 0
0.010416 -0.0299583 0
0.0118278 -0.0301127 0
0.0132342 -0.0303103 0
0.0146339 -0.0305504 0
0.0160259 -0.0308322 0
0.0174091 -0.0311546 0
0.0187824 -0.0315166 0
0.020145 -0.031917 0
0.0214961 -0.0323546 0
0.0228351 -0.032828 0
0.0241613 -0.0333361 0
0.0254744 -0.0338774 0
0.0267738 -0.0344507 0
0.0280592 -0.0350545 0
0.0293306 -0.0356877 0
0.0305875 -0.0363488 0
0.0318301 -0.0370367 0
0.0330581 -0.0377501 0
0.0342717 -0.0384879 0
0.0354708 -0.0392489 0
0.0366556 -0.0400321 0
0.0378262 -0.0408363 0
0.0389828 -0.0416607 0
0.0401254 -0.0425042 0
0.0412543 -0.0433659 0
0.0423698 -0.0442451 0
0.043472 -0.0451408 0
0.0445612 -0.0460523 0
0.0456375 -0.0469789 0
0.0467013 -0.0479199 0
0.0477529 -0.0488746 0
0.0487923 -0.0498424 0
0.04982 -0.0508227 0
0.0508362 -0.051815 0
0.051841 -0.0528187 0
0.0528348 -0.0538333 0
0.0538178 -0.0548584 0
0.0547903 -0.0558935 0
0.0557524 -0.0569382 0
0.0567045 -0.0579922 0
0.0576467 -0.0590549 0
0.0585792 -0.0601261 0
0.0595024 -0.0612055 0
0.0604163 -0.0622926 0
0.0613212 -0.0633873 0
0.0622174 -0.0644891 0
0.0631049 -0.0655979 0
0.0639841 -0.0667134 0
0.064855 -0.0678353 0
0.0657179 -0.0689633 0
0.0665729 -0.0700974 0
0.0674202 -0.0712372 0
0.06826 -0.0723826 0
0.0690925 -0.0735333 0
0.0699178 -0.0746892 0
0.070736 -0.0758501 0
0.0715473 -0.0770159 0
0.0723518 -0.0781863 0
0.0731498 -0.0793612 0
0.0739412 -0.0805405 0
0.0747264 -0.081724 0
0.0755053 -0.0829116 0
0.0762781 -0.0841033 0
0.0770449 -0.0852987 0
0.0778059 -0.0864979 0
0.0785611 -0.0877007 0
0.0793108 -0.088907 0
0.0814681 -0.0912706 0
0.0828814 -0.0924245 0
0.0842946 -0.0935783 0
0.0857079 -0.0947322 0
0.0871211 -0.095886 0
0.0885344 -0.0970399 0
0.0899476 -0.0981937 0
0.0913609 -0.0993476 0
0.0927741 -0.100501 0
0.0941874 -0.101655 0
0.0956006 -0.102809 0
0.0970139 -0.103963 0
0.0984272 -0.105117 0
0.0998404 -0.106271 0
0.101254 -0.107424 0
0.102667 -0.108578 0
0.10408 -0.109732 0
0.105493 -0.110886 0
0.106907 -0.11204 0
0.10832 -0.113194 0
0.109733 -0.114348 0
0.111146 -0.115501 0
0.11256 -0.116655 0
0.113973 -0.117809 0
0.115386 -0.118963 0
0.116799 -0.120117 0
0.118213 -0.121271 0
0.119626 -0.122424 0
0.121039 -0.123578 0
0.122452 -0.124732 0
0.123866 -0.125886 0
0.125279 -0.12704 0
0.126692 -0.128194 0
0.128105 -0.129348 0
0.129519 -0.130501 0
0.130932 -0.131655 0
0.132345 -0.132809 0
0.133758 -0.133963 0
0.135172 -0.133216 0
0.135172 -0.131316 0
0.135172 -0.129415 0
0.135172 -0.127514 0
0.135172 -0.125614 0
0.135172 -0.123713 0
0.135172 -0.121813 0
0.135172 -0.119912 0
0.135172 -0.118012 0
0.135172 -0.116111 0
0.135172 -0.11421 0
0.135172 -0.11231 0
0.135172 -0.110409 0
0.135172 -0.108509 0
0.135172 -0.106608 0
0.135172 -0.104708 0
0.135172 -0.102807 0
0.135172 -0.100906 0
0.135172 -0.0990058 0
0.135172 -0.0971052 0
0.135172 -0.0952046 0
0.135172 -0.0933041 0
0.135172 -0.0914035 0
0.135172 -0.0895029 0
0.135172 -0.0876023 0
0.135172 -0.0857017 0
0.135172 -0.0838012 0
0.135172 -0.0819006 0
0.133758 -0.0788462 0
0.132345 -0.0776923 0
0.130932 -0.0765385 0
0.129519 -0.0753846 0
0.128105 -0.0742308 0
0.126692 -0.0730769 0
0.125279 -0.0719231 0
0.123866 -0.0707692 0
0.122452 -0.0696154 0
0.121039 -0.0684615 0
0.119626 -0.0673077 0
0.118213 -0.0661538 0
0.116799 -0.065 0
0.115386 -0.0638462 0
0.113973 -0.0626923 0
0.11256 -0.0615385 0
0.111146 -0.0603846 0
0.109733 -0.0592308 0
0.10832 -0.0580769 0
0.106907 -0.0569231 0
0.105493 -0.0557692 0
0.10408 -0.0546154 0
0.102667 -0.0534615 0
0.101254 -0.0523077 0
0.0998404 -0.0511538 0
0.0984272 -0.05 0
0.0970139 -0.0488462 0
0.0956006 -0.0476923 0
[...]
CELL_DATA 13116
SCALARS rho float
LOOKUP_TABLE default
0.546453
0.655377
0.356891
0.708497
0.696363
0.678401
0.392704
0.697409
0.52463
0.701289
0.386369
0.369145
0.696674
0.400471
0.390713
0.678483
0.514741
0.691305
0.6757
0.397819
0.551535
0.397617
0.370821
0.693323
0.605847
0.618656
0.701315
0.353284
0.604713
0.641936
0.677612
0.368497
0.552923
0.44415
0.389628
0.549091
0.660322
0.669448
0.678286
0.67758
0.677343
0.70139
0.422638
0.349159
0.674077
0.675511
0.631459
0.679277
0.396675
0.520565
0.693699
0.439031
0.396585
0.507758
0.55153
0.582286
0.347035
0.690067
0.533953
0.391021
0.39356
0.7032
0.645479
0.67825
0.677758
0.352198
0.680731
0.667048
0.681954
0.677818
0.392521
0.584036
0.392933
0.344241
0.677395
0.369135
0.639088
0.690713
0.387535
0.688322
0.673425
0.628499
0.693554
0.678961
0.66366
0.447221
0.405028
0.664317
0.656399
0.380778
0.360365
0.657153
0.69605
0.660725
0.644914
0.595268
0.608345
0.677725
0.67744
0.595568
0.673802
0.584177
0.676724
0.404645
0.612199
0.414221
0.356908
0.470407
0.355855
0.61481
0.49973
0.624085
0.5934
0.676964
0.688918
0.68083
0.413141
0.386279
0.686926
0.682052
0.667437
0.389902
0.682365
0.365584
0.652981
0.43599
0.405544
0.507393
0.341527
0.522219
0.68723
0.679396
0.500849
0.401328
0.480555
0.581489
0.677137
0.684961
0.672915
0.681722
0.622724
0.634944
0.505757
0.623554
0.640921
0.390228
0.388836
0.618901
0.693833
0.688752
0.542147
0.678347
0.679206
0.378661
0.697686
0.665028
0.370958
0.679326
0.677738
0.66461
0.692497
0.388093
0.692017
0.370398
0.385283
0.70088
0.650543
0.690835
0.390364
0.462668
0.419395
0.677093
0.395588
0.490167
0.679877
0.371471
0.393314
0.394641
0.619912
0.678034
0.382184
0.429469
0.520669
0.660761
0.67808
0.531601
0.359451
0.676916
0.597833
0.458311
0.632637
0.616782
0.677802
0.373871
0.613072
0.678502
0.697817
0.676436
0.655127
0.402121
0.404585
0.619911
0.501987
0.357048
0.68839
0.673924
0.448027
0.605472
0.407476
0.383944
0.365938
0.679581
0.370853
0.391793
0.377041
0.377371
0.365813
0.677577
0.649276
0.433984
0.347065
0.68054
0.493521
0.383366
0.554483
0.70214
0.638534
0.371552
0.680063
0.389216
0.703097
0.366214
0.677787
0.573948
0.677668
0.669698
0.677845
0.382709
0.428842
0.664552
0.67746
0.678386
0.677199
0.677577
0.689372
0.396114
0.688827
0.69861
0.677415
0.387601
0.399211
0.67559
0.686229
0.677728
0.68232
0.532411
0.679856
0.3854
0.402866
0.397347
0.408326
0.594134
0.697596
0.637762
0.391791
0.672045
0.345659
0.431108
0.614541
0.386242
0.622377
0.697766
0.677349
0.689749
0.385166
0.677326
0.678616
0.677416
0.684812
0.383131
0.411788
0.371399
0.576641
0.389835
0.40077
0.330975
0.307866
0.66331
0.398756
0.662983
0.697158
0.353944
0.373032
0.347109
0.450913
0.351694
0.662953
0.58326
0.618815
0.386279
0.679266
0.586939
0.402737
0.390767
0.678059
0.686161
0.676584
0.356596
0.67857
0.412468
0.678654
0.701766
0.687133
0.700655
0.374997
0.680129
0.405908
0.677861
0.702299
0.665373
0.388876
0.330633
0.699242
0.346908
0.645899
0.703098
0.361918
0.682462
0.693252
0.350733
0.671829
0.695978
0.403314
0.688778
0.449352
0.574783
0.670418
0.455977
0.679621
0.394161
0.691155
0.342468
0.677592
0.574326
0.698929
0.372137
0.355795
0.665093
0.38315
0.687435
0.604146
0.419436
0.677156
0.370558
0.388161
0.684763
0.554761
0.665517
0.41283
0.37125
0.688606
0.696942
0.388293
0.695397
0.414236
0.411584
0.680149
0.677199
0.457686
0.393494
0.685044
0.677773
0.678586
0.670312
0.689494
0.542337
0.322698
0.404892
0.378734
0.678575
0.379901
0.518571
0.367499
0.367998
0.349887
0.467317
0.143045
0.383183
0.666269
0.323599
0.692806
0.604307
0.677345
0.656317
0.689678
0.388246
0.409147
0.409264
0.331978
0.684627
0.589248
0.677108
0.60492
0.642644
0.616537
0.626785
0.618745
0.639156
0.68811
0.687773
0.678247
0.404041
0.456337
0.542328
0.395789
0.579306
0.580597
0.396964
0.680574
0.677417
0.375471
0.394662
0.385191
0.364035
0.629559
0.393146
0.373479
0.679886
0.344674
0.573538
0.383047
0.677813
0.673031
0.341427
0.401197
0.684239
0.452456
0.382268
0.361621
0.389973
0.359712
0.38252
0.395549
0.397414
0.430855
0.383141
0.580408
0.369738
0.662123
0.375508
0.379547
0.503861
0.391881
0.379484
0.384697
0.674849
0.436705
0.638949
0.473301
0.345854
0.607981
0.658982
0.446395
0.682046
0.61772
0.616313
0.360313
0.677677
0.387791
0.690501
0.67757
0.373654
0.4019
0.596503
0.336529
0.457595
0.577204
0.355977
0.678388
0.643727
0.370511
0.388992
0.395471
0.485669
0.38922
0.402227
0.394789
0.406433
0.704289
0.705378
0.457334
0.598695
0.479715
0.613602
0.35329
0.391496
0.529133
0.374197
0.678627
0.293067
0.369994
0.496556
0.673351
0.645707
0.561147
0.359902
0.40158
0.570561
0.69793
0.678029
0.566766
0.617782
0.593081
0.384138
0.672026
0.569461
0.663404
0.312173
0.355421
0.676002
0.697985
0.655255
0.702378
0.650492
0.617085
0.691331
0.663866
0.677283
0.387724
0.673037
0.338438
0.406229
0.393657
0.70748
0.674448
0.309109
0.662592
0.621307
0.389142
0.67771
0.685443
0.684497
0.352814
0.390648
0.688953
0.382492
0.378933
0.388835
0.385612
0.676275
0.403968
0.707537
0.372603
0.656112
0.692389
0.680944
0.6972
0.381776
0.371824
0.676348
0.704671
0.650617
0.703951
0.698307
0.498844
0.349975
0.37544
0.678796
0.5267
0.385737
0.452244
0.366662
0.672019
0.67745
0.311456
0.397284
0.660076
0.466285
0.667188
0.657862
0.34093
0.390084
0.646499
0.677464
0.370522
0.644944
0.649897
0.675573
0.379943
0.67714
0.344134
0.677628
0.66221
0.396687
0.366032
0.399784
0.677542
0.343859
0.388468
0.386771
0.677739
0.682317
0.388195
0.396318
0.383843
0.677935
0.392803
0.678354
0.390544
0.587871
0.702152
0.378739
0.370276
0.370855
0.499295
0.376773
0.63278
0.356318
0.392999
0.677763
0.397349
0.679375
0.642078
0.677668
0.378879
0.679339
0.694988
0.697469
0.678941
0.650313
0.679973
0.379548
0.677999
0.436273
0.672828
0.383565
0.690526
0.503618
0.391961
0.677554
0.691786
0.38923
0.621784
0.360994
0.391189
0.679838
0.674516
0.353834
0.386168
0.388644
0.37895
0.667099
0.693485
0.382651
0.371006
0.687424
0.684578
0.58974
0.69443
0.677566
0.387578
0.699137
0.425637
0.693557
0.38839
0.59318
0.48294
0.679955
0.666732
0.578136
0.34408
0.365878
0.676068
0.605299
0.513545
0.693898
0.408397
0.676778
0.697243
0.364934
0.453712
0.695539
0.360155
0.677573
0.665506
0.326218
0.682841
0.643171
0.373784
0.68105
0.371001
0.654275
0.364187
0.67945
0.643544
0.377963
0.678237
0.692531
0.689912
0.622471
0.673572
0.584782
0.38046
0.415002
0.364473
0.34838
0.676988
0.557596
0.683106
0.693148
0.385045
0.387746
0.677589
0.703011
0.684771
0.697644
0.388483
0.687933
0.69849
0.396642
0.377583
0.687181
0.675486
0.659013
0.397308
0.592846
0.321874
0.680148
0.639531
0.678045
0.662942
0.384484
0.672611
0.663003
0.695073
0.673125
0.677807
0.432112
0.689101
0.384692
0.618891
0.699976
0.462207
0.645278
0.678082
0.691771
0.401089
0.404022
0.58596
0.648737
0.384401
0.387468
0.383057
0.381782
0.658073
0.676337
0.677539
0.308463
0.383948
0.681754
0.678036
0.40151
0.387008
0.463976
0.659145
0.676506
0.669542
0.685551
0.383408
0.385624
0.677191
0.365447
0.384637
0.359827
0.677118
0.322306
0.382136
0.574621
0.674653
0.620329
0.678393
0.677032
0.41789
0.395872
0.382845
0.473029
0.436187
0.364427
0.665589
0.685039
0.655285
0.678768
0.39501
0.375825
0.702059
0.391068
0.677755
0.642959
0.677785
0.353638
0.392523
0.648358
0.677473
0.558205
0.402949
0.666034
0.678462
0.570272
0.689022
0.696251
0.677246
0.618294
0.389893
0.677164
0.677496
0.611386
0.680498
0.677049
0.625964
0.677387
0.684092
0.393637
0.383161
0.376873
0.677827
0.502308
0.389162
0.677384
0.688053
0.363154
0.629344
0.326595
0.634362
0.46568
0.391138
0.703463
0.692832
0.384812
0.553302
0.677795
0.342661
0.661307
0.366071
0.414681
0.612444
0.606162
0.50373
0.676573
0.382608
0.691869
0.389766
0.392187
0.679316
0.385134
0.59992
0.370035
0.628486
0.594733
0.677356
0.648489
0.401537
0.392108
0.604405
0.424904
0.684446
0.454512
0.587942
0.678104
0.694807
0.43887
0.612077
0.617967
0.698163
0.681427
0.345956
0.380934
0.542944
0.614947
0.69862
0.378453
0.676587
0.560173
0.409121
0.360404
0.666904
0.660018
0.677278
0.677485
0.583298
0.677744
0.678006
0.667635
0.374282
0.655583
0.461278
0.683661
0.674792
0.301878
0.611976
0.694734
0.386116
0.389517
0.347412
0.677061
0.387976
0.612248
0.68573
0.657093
0.361853
0.666266
0.368946
0.592237
0.678164
0.677536
0.663901
0.677897
0.616498
0.672147
0.521886
0.672261
0.362024
0.677447
0.680798
0.405704
0.67746
0.677766
0.370975
0.403913
0.341673
0.687702
0.382025
0.677279
0.379598
0.696359
0.402013
0.483565
0.384027
0.689908
0.697043
0.530184
0.270173
0.616388
0.677603
0.383219
0.588705
0.705825
0.365211
0.584947
0.67745
0.701746
0.677968
0.371437
0.4676
0.68625
0.676403
0.620499
0.381539
0.40045
0.668395
0.677207
0.677446
0.677205
0.545646
0.679852
0.54094
0.681112
0.381718
0.365661
0.677231
0.695118
0.67778
0.351162
0.677366
0.553434
0.59576
0.371024
0.416986
0.69584
0.70882
0.555845
0.331516
0.678054
0.677509
0.390878
0.608568
0.685321
0.390392
0.398001
0.403153
0.595322
0.396098
0.387992
0.670679
0.46267
0.699032
0.63532
0.392008
0.361574
0.702476
0.382211
0.393753
0.677481
0.4047
0.354419
0.588701
0.644399
0.679536
0.382344
0.301187
0.385835
0.643663
0.413025
0.680249
0.393177
0.678267
0.603607
0.672775
0.624138
0.671344
0.637277
0.676704
0.696733
0.683141
0.403198
0.386314
0.66371
0.678115
0.510103
0.609067
0.557108
0.678059
0.609621
0.342591
0.681261
0.704768
0.670233
0.388737
0.67352
0.36818
0.678958
0.502221
0.688763
0.678928
0.391793
0.684572
0.385178
0.42469
0.646852
0.359068
0.678992
0.677102
0.680494
0.364341
0.679824
0.379581
0.354464
0.367134
0.377819
0.601206
0.397732
0.626407
0.678068
0.334912
0.374286
0.492026
0.582378
0.628463
0.622016
0.38175
0.35399
0.388196
0.384099
0.26748
0.627903
0.629063
0.349708
0.677542
0.685186
0.403328
0.704642
0.677329
0.678108
0.388565
0.677389
0.672191
0.689419
0.683311
0.388704
0.680961
0.691226
0.674188
0.66774
0.677507
0.400955
0.369807
0.678623
0.54116
0.394717
0.679162
0.372204
0.574143
0.621511
0.652061
0.656259
0.360506
0.607363
0.398743
0.389799
0.683329
0.6894
0.693861
0.688295
0.652184
0.354315
0.698232
0.398456
0.508989
0.700251
0.677458
0.685714
0.38842
0.395058
0.699394
0.397866
0.688291
0.648442
0.428677
0.396683
0.680028
0.372334
0.678824
0.687788
0.648975
0.371734
0.383421
0.503906
0.515095
0.616478
0.471024
0.677587
0.621847
0.665073
0.676967
0.679248
0.397105
0.398244
0.690322
0.677516
0.617413
0.462513
0.356347
0.669055
0.397534
0.677411
0.616891
0.318912
0.68405
0.384694
0.633592
0.360101
0.694829
0.384987
0.677955
0.678018
0.344195
0.656273
0.648178
0.330845
0.677553
0.67548
0.555168
0.391659
0.368651
0.46417
0.695556
0.59918
0.381933
0.588307
0.681781
0.677823
0.351953
0.604963
0.66088
0.465939
0.67758
0.677975
0.296322
0.682646
0.677445
0.35709
0.594275
0.367209
0.632185
0.375904
0.413656
0.697543
0.387951
0.382884
0.401923
0.680327
0.651831
0.40886
0.677917
0.365706
0.657904
0.379631
0.655878
0.368695
0.678155
0.679071
0.640602
0.67778
0.557128
0.678066
0.678074
0.341453
0.637284
0.645924
0.483369
0.678577
0.498058
0.407856
0.697863
0.38049
0.572237
0.317851
0.676978
0.400295
0.373167
0.69292
0.677074
0.371196
0.68258
0.685123
0.677036
0.697071
0.677552
0.389612
0.703819
0.386072
0.371205
0.657038
0.686642
0.700346
0.66248
0.373248
0.375562
0.386574
0.656791
0.678013
0.367837
0.657135
0.363819
0.372339
0.369801
0.659939
0.388324
0.700034
0.683605
0.636204
0.673435
0.682311
0.570572
0.633608
0.438099
0.40299
0.371189
0.67754
0.677452
0.354336
0.627305
0.592498
0.635493
0.372365
0.397564
0.62578
0.280133
0.618984
0.590041
0.392496
0.677775
0.659878
0.390144
0.678801
0.392939
0.682818
0.699931
0.671818
0.399739
0.475224
0.677541
0.304281
0.448357
0.673726
0.31319
0.67779
0.681356
0.62229
0.685489
0.328669
0.677606
0.682688
0.676253
0.36527
0.6904
0.394517
0.398022
0.665342
0.676773
0.677743
0.237909
0.679235
0.636962
0.677403
0.354655
0.413001
0.381873
0.686406
0.390578
0.395448
0.373867
0.587781
0.392803
0.301517
0.446527
0.680146
0.393674
0.67771
0.677957
0.677354
0.36246
0.681446
0.652647
0.677537
0.418799
0.665567
0.389007
0.381918
0.67968
0.373829
0.623158
0.680545
0.677324
0.388113
0.330948
0.389162
0.56527
0.677219
0.236023
0.670337
0.680202
0.686693
0.379223
0.399881
0.346102
0.597433
0.384293
0.677053
0.609234
0.678002
0.669579
0.383622
0.623567
0.377822
0.558457
0.650261
0.702755
0.566644
0.478078
0.66525
0.621256
0.691312
0.373015
0.369706
0.345194
0.688178
0.532545
0.677477
0.392064
0.399555
0.689396
0.681178
0.677528
0.374445
0.678076
0.563535
0.566569
0.601798
0.372874
0.380603
0.295751
0.676764
0.678115
0.666247
0.611645
0.344872
0.681054
0.659317
0.678112
0.677529
0.681784
0.704504
0.678567
0.685298
0.693241
0.372156
0.683221
0.689299
0.677353
0.685012
0.676308
0.575341
0.393013
0.412106
0.614961
0.386308
0.331694
0.677007
0.393612
0.640032
0.681298
0.652774
0.671053
0.372772
0.678852
0.362634
0.369792
0.678632
0.678927
0.678942
0.356412
0.694187
0.676736
0.611923
0.676732
0.396606
0.677403
0.699849
0.660359
0.403941
0.690448
0.384099
0.709643
0.364532
0.393161
0.520775
0.451216
0.703312
0.691001
0.678011
0.37581
0.677445
0.41119
0.395031
0.642638
0.496073
0.381113
0.677216
0.38753
0.519101
0.66568
0.631749
0.655882
0.494774
0.600883
0.654751
0.678388
0.572724
0.693861
0.539657
0.693096
0.606987
0.646552
0.396684
0.388646
0.450463
0.688357
0.370523
0.663278
0.682884
0.60198
0.67847
0.518273
0.678107
0.669147
0.38792
0.681751
0.602782
0.488906
0.606806
0.699191
0.634714
0.677756
0.379774
0.39393
0.673744
0.535713
0.543217
0.684587
0.678484
0.678486
0.698006
0.699566
0.619499
0.618971
0.702611
0.397061
0.389445
0.401284
0.349123
0.677434
0.460238
0.537037
0.683673
0.674074
0.372371
0.672169
0.708919
0.355721
0.376042
0.677305
0.684905
0.376729
0.380094
0.389503
0.677002
0.618171
0.408041
0.39793
0.392958
0.408746
0.345999
0.392292
0.699469
0.67925
0.675666
0.374755
0.653898
0.604644
0.614596
0.347412
0.394164
0.640213
0.677215
0.382908
0.677851
0.390936
0.692642
0.373839
0.67649
0.364356
0.656194
0.69679
0.367599
0.568331
0.399174
0.704175
0.404807
0.608544
0.373094
0.507186
0.389216
0.599715
0.383252
0.677739
0.677688
0.6124
0.670222
0.339986
0.65616
0.677563
0.695344
0.602181
0.658879
0.395592
0.393725
0.34659
0.696119
0.292365
0.694353
0.550475
0.686357
0.701688
0.45982
0.688955
0.394562
0.375538
0.396002
0.511905
0.518777
0.677693
0.385284
0.401188
0.679124
0.382229
0.373183
0.552171
0.371592
0.382597
0.413046
0.702469
0.656041
0.613052
0.36353
0.652734
0.676926
0.401615
0.326012
0.663514
0.677272
0.561836
0.522369
0.415924
0.364406
0.378411
0.668469
0.610231
0.5238
0.681107
0.403362
0.569875
0.385083
0.677619
0.694308
0.396497
0.401791
0.61709
0.545415
0.696761
0.693227
0.696054
0.682872
0.700459
0.372765
0.395778
0.344866
0.382572
0.538526
0.677711
0.65775
0.384304
0.375398
0.451021
0.393305
0.678365
0.630734
0.377021
0.312724
0.681257
0.365235
0.653388
0.691283
0.646495
0.677517
0.550718
0.381958
0.355809
0.613061
0.397031
0.419567
0.406123
0.677746
0.676084
0.33949
0.393708
0.677087
0.382324
0.678593
0.696118
0.383813
0.387612
0.402325
0.680913
0.41313
0.677091
0.681167
0.602456
0.374918
0.536431
0.690056
0.667398
0.393076
0.664457
0.617162
0.401517
0.686444
0.70158
0.387157
0.39037
0.647084
0.385347
0.383416
0.660175
0.348674
0.677699
0.678516
0.695207
0.624673
0.694855
0.681023
0.678216
0.388197
0.414744
0.628038
0.676479
0.474946
0.704242
0.330974
0.683747
0.657535
0.571326
0.648775
0.394351
0.459807
0.673071
0.691415
0.603809
0.697078
0.679925
0.677219
0.695524
0.677035
0.654012
0.645322
0.677304
0.677251
0.678218
0.346419
0.632117
0.341733
0.679601
0.683353
0.687665
0.636033
0.68495
0.384826
0.384996
0.308955
0.392492
0.644429
0.364103
0.388634
0.674868
0.397117
0.68462
0.379625
0.660291
0.681433
0.38791
0.385027
0.320207
0.687068
0.342355
0.676885
0.684246
0.38892
0.637315
0.561078
0.344004
0.354223
0.400216
0.685767
0.391296
0.680574
0.514391
0.395213
0.67554
0.677368
0.695985
0.390691
0.576133
0.378795
0.655892
0.678099
0.680725
0.381395
0.675467
0.684825
0.619117
0.408573
0.686953
0.388754
0.384205
0.671315
0.455289
0.700194
0.408834
0.381725
0.448526
0.628825
0.344704
0.288689
0.366202
0.480589
0.677387
0.683441
0.402671
0.598422
0.680064
0.566599
0.420287
0.313994
0.563496
0.385283
0.383549
0.673655
0.383038
0.385439
0.689316
0.706276
0.355959
0.689938
0.375491
0.677275
0.349457
0.643783
0.67791
0.686244
0.677834
0.393113
0.383915
0.373586
0.678221
0.648659
0.598394
0.544905
0.374566
0.3062
0.677635
0.387563
0.678247
0.38576
0.677979
0.668485
0.356737
0.347456
0.384725
0.39663
0.344733
0.615591
0.647392
0.365714
0.682347
0.637618
0.381725
0.396695
0.706532
0.379458
0.680861
0.431683
0.685856
0.654671
0.681316
0.677433
0.39452
0.699652
0.677559
0.705362
0.385257
0.606107
0.604665
0.326404
0.688267
0.636985
0.687025
0.653544
0.700558
0.669465
0.700559
0.677332
0.675794
0.386821
0.694877
0.384693
0.459707
0.673436
0.375138
0.661397
0.603565
0.401511
0.621142
0.388108
0.360323
0.661885
0.594328
0.705661
0.382288
0.653126
0.621759
0.340703
0.372226
0.640005
0.677092
0.380109
0.374848
0.685075
0.705717
0.389084
0.642081
0.698014
0.658788
0.34757
0.389558
0.373472
0.65621
0.381943
0.665311
0.688135
0.677679
0.604797
0.681634
0.382265
0.657952
0.621672
0.696571
0.563343
0.371507
0.389932
0.411361
0.69324
0.685389
0.429022
0.652555
0.300742
0.642392
0.681859
0.408702
0.61601
0.666428
0.623336
0.372611
0.404262
0.337475
0.68734
0.700091
0.619262
0.521822
0.681389
0.382987
0.634696
0.677364
0.675738
0.372351
0.631677
0.401536
0.610598
0.41274
0.6751
0.66155
0.362914
0.686894
0.427303
0.677236
0.638616
0.677033
0.686453
0.415731
0.677673
0.677783
0.677084
0.676084
0.49027
0.677339
0.404617
0.678004
0.408907
0.376374
0.402304
0.344989
0.384847
0.368461
0.700763
0.369035
0.395015
0.656741
0.687412
0.649739
0.411692
0.681262
0.680303
0.677524
0.324378
0.578094
0.680663
0.388035
0.370299
0.384539
0.628814
0.515981
0.38286
0.585674
0.395805
0.677573
0.508848
0.404214
0.47903
0.650194
0.332441
0.677544
0.401247
0.471999
0.377535
0.672663
0.38687
0.650835
0.677366
0.584991
0.417719
0.386895
0.66321
0.704631
0.375185
0.354317
0.678042
0.383484
0.69
0.376291
0.565488
0.412288
0.680902
0.394978
0.702887
0.375742
0.68154
0.682534
0.692218
0.677452
0.405555
0.370662
0.409462
0.622409
0.673984
0.627133
0.521604
0.401432
0.687479
0.317123
0.646058
0.579986
0.40842
0.400066
0.692672
0.674764
0.376155
0.6777
0.667772
0.69264
0.695255
0.400906
0.637251
0.384723
0.692767
0.380632
0.677738
0.638963
0.639825
0.703306
0.385667
0.709299
0.384434
0.389168
0.678479
0.677484
0.55135
0.674534
0.677399
0.381244
0.691809
0.668821
0.69828
0.357289
0.42995
0.677263
0.362833
0.684235
0.682229
0.664307
0.676526
0.289796
0.4497
0.649974
0.36806
0.657119
0.705271
0.475284
0.657965
0.273683
0.615404
0.692051
0.675653
0.657026
0.40062
0.37507
0.678031
0.662446
0.400353
0.3341
0.394188
0.369265
0.395489
0.406674
0.34363
0.391999
0.677384
0.407037
0.34967
0.683966
0.549357
0.677096
0.398749
0.392431
0.680612
0.47011
0.477952
0.698084
0.373635
0.660789
0.677996
0.61444
0.658307
0.342403
0.683827
0.678188
0.389636
0.383471
0.408345
0.600163
0.613638
0.700412
0.678573
0.676646
0.662093
0.369291
0.684759
0.678205
0.636737
0.390022
0.681431
0.573407
0.362202
0.435813
0.39821
0.382063
0.400735
0.593422
0.666933
0.665044
0.382618
0.392577
0.697802
0.351405
0.684456
0.677791
0.664792
0.6759
0.680908
0.388731
0.381148
0.392464
0.568636
0.388442
0.679418
0.394026
0.679571
0.677727
0.682855
0.359254
0.450801
0.413826
0.682064
0.373886
0.384757
0.676494
0.657919
0.618945
0.678364
0.632873
0.689512
0.382704
0.629552
0.694939
0.538163
0.680721
0.686576
0.690786
0.46596
0.430932
0.699717
0.504936
0.612482
0.381348
0.640249
0.66492
0.40333
0.380557
0.653858
0.513924
0.692141
0.684431
0.392424
0.395801
0.677452
0.382067
0.416674
0.666351
0.641492
0.40093
0.670012
0.677757
0.638193
0.375075
0.594739
0.384302
0.66926
0.693951
0.689375
0.662181
0.677702
0.307542
0.363865
0.674749
0.384186
0.61408
0.399795
0.682095
0.395535
0.647286
0.694455
0.677649
0.382423
0.677068
0.677348
0.385185
0.64106
0.388352
0.704016
0.383078
0.358609
0.39427
0.671163
0.673286