# vtk DataFile Version 1.0
unstructured grid
ascii
DATASET UNSTRUCTURED_GRID
points 13672 float
0.0796578 -0.059106 0
0.00128732 0.00159165 0
0.00227961 -0.00102548 0
0.0791586 -0.0598787 0
-0.0546216 0.01 0
0.000495206 0.025 0
0.0800549 -0.035 0
0.135172 -0.08 0
-0.0546216 -0.0451168 0
0.000495206 -0.0301168 0
0.0800549 -0.0901168 0
0.135172 -0.135117 0
-0.0546216 -0.0451168 -0.00551168
0.000495206 -0.0301168 -0.00551168
0.0800549 -0.0901168 -0.00551168
0.135172 -0.135117 -0.00551168
0.135172 -0.08 -0.00551168
0.0800549 -0.035 -0.00551168
0.000495206 0.025 -0.00551168
-0.0546216 0.01 -0.00551168
0.00128732 0.00159165 -0.00551168
0.00227961 -0.00102548 -0.00551168
0.0791586 -0.0598787 -0.00551168
0.0796578 -0.059106 -0.00551168
0.00165953 -0.000990923 0
0.00119576 -0.000874076 0
0.000866021 -0.000641801 0
0.000645147 -0.000349912 0
0.00052235 -1.7281e-05 0
0.00049972 0.000348016 0
0.000601632 0.000737716 0
0.000861774 0.0011403 0
0.00157235 0.00183217 0
0.00188647 0.00206725 0
0.00222612 0.00230203 0
0.00258713 0.00254351 0
0.00296826 0.00279524 0
0.00337118 0.00305664 0
0.00379785 0.00332658 0
0.00425045 0.00360349 0
0.00473139 0.00388521 0
0.0052432 0.00416895 0
0.0057881 0.00445204 0
0.00636753 0.00473281 0
0.00698281 0.00500961 0
0.00763526 0.00528058 0
0.00832616 0.00554366 0
0.00905691 0.00579603 0
0.00982918 0.00603333 0
0.0106445 0.00625033 0
0.0115038 0.00644128 0
0.0124073 0.00660297 0
0.0133543 0.00673414 0
0.0143444 0.00683382 0
0.0153769 0.00690031 0
0.0164512 0.00693173 0
0.0175666 0.00692547 0
0.0187219 0.00687822 0
0.0199156 0.00678477 0
0.0211454 0.00663864 0
0.0224084 0.00643275 0
0.0237018 0.00616676 0
0.0250249 0.00584739 0
0.026375 0.00547298 0
0.0277479 0.00503752 0
0.0291386 0.00453545 0
0.0305433 0.0039653 0
0.0319572 0.0033256 0
0.0333681 0.00260019 0
0.034775 0.00179799 0
0.0361793 0.000930615 0
0.0375798 3.12222e-06 0
0.0389689 -0.000988429 0
0.0403357 -0.00205109 0
0.041675 -0.00318283 0
0.0429849 -0.00437751 0
0.0442643 -0.00562904 0
0.0455126 -0.00693089 0
0.0467314 -0.00827518 0
0.0479204 -0.00965638 0
0.0490661 -0.0110799 0
0.0501515 -0.0125519 0
0.0511696 -0.0140695 0
0.0521492 -0.0156071 0
0.0531202 -0.0171411 0
0.0540851 -0.0186663 0
0.0550431 -0.0201798 0
0.0559923 -0.0216793 0
0.0569311 -0.0231626 0
0.0578582 -0.0246273 0
0.0587723 -0.0260715 0
0.0596721 -0.027493 0
0.0605563 -0.02889 0
0.0614241 -0.0302609 0
0.0622742 -0.0316042 0
0.063106 -0.0329183 0
0.0639186 -0.034202 0
0.0647113 -0.0354543 0
0.0654835 -0.0366743 0
0.0662345 -0.0378613 0
0.0669642 -0.0390145 0
0.0676726 -0.0401333 0
0.0683597 -0.0412172 0
0.0690246 -0.0422665 0
0.0696662 -0.0432819 0
0.0702841 -0.0442636 0
0.0708793 -0.0452111 0
0.0714538 -0.0461237 0
0.072009 -0.047001 0
0.0725452 -0.0478434 0
0.0730611 -0.0486524 0
0.073556 -0.0494294 0
0.0740291 -0.0501756 0
0.0744812 -0.0508916 0
0.0749138 -0.0515773 0
0.0753285 -0.0522331 0
0.0757266 -0.0528592 0
0.076109 -0.0534564 0
0.0764753 -0.0540264 0
0.0768243 -0.054571 0
0.0771553 -0.0550919 0
0.0774679 -0.0555901 0
0.0777617 -0.0560669 0
0.0780369 -0.056523 0
0.0782958 -0.0569578 0
0.0785421 -0.0573703 0
0.0787786 -0.0577603 0
0.0790073 -0.0581279 0
0.0792295 -0.058474 0
0.0794462 -0.0587995 0
0.0798803 -0.0594162 0
0.0800272 -0.0596588 0
0.0800357 -0.0598891 0
0.0799275 -0.0600784 0
0.0797205 -0.0601773 0
0.0794593 -0.0601051 0
0.0789155 -0.0596491 0
0.0786707 -0.0593963 0
0.0784111 -0.0591319 0
0.0781372 -0.0588542 0
0.0778566 -0.0585548 0
0.0775715 -0.0582308 0
0.0772803 -0.0578828 0
0.0769832 -0.0575099 0
0.0766822 -0.0571097 0
0.0763801 -0.0566796 0
0.0760759 -0.0562196 0
0.0757623 -0.0557337 0
0.0754359 -0.0552232 0
0.0750951 -0.0546879 0
0.0747379 -0.054128 0
0.0743626 -0.0535435 0
0.0739688 -0.0529338 0
0.0735559 -0.0522981 0
0.0731238 -0.0516357 0
0.0726718 -0.050946 0
0.0721991 -0.0502288 0
0.0717046 -0.049484 0
0.0711872 -0.0487117 0
0.0706461 -0.047912 0
0.0700804 -0.0470849 0
0.0694892 -0.0462308 0
0.0688718 -0.0453499 0
0.0682271 -0.0444431 0
0.0675544 -0.043511 0
0.0668527 -0.0425546 0
0.0661215 -0.0415748 0
0.06536 -0.040573 0
0.0645676 -0.0395504 0
0.0637439 -0.0385087 0
0.0628887 -0.0374493 0
0.062002 -0.0363741 0
0.0610838 -0.0352847 0
0.0601345 -0.0341831 0
0.0591547 -0.033071 0
0.0581456 -0.0319502 0
0.0571083 -0.0308224 0
0.0560444 -0.0296893 0
0.0549562 -0.028552 0
0.053845 -0.0274126 0
0.0527113 -0.0262746 0
0.051554 -0.0251427 0
0.0503724 -0.0240222 0
0.0491675 -0.0229164 0
0.047941 -0.0218282 0
0.0466955 -0.0207597 0
0.0454337 -0.0197126 0
0.0441592 -0.0186878 0
0.0428751 -0.0176863 0
0.0415841 -0.0167097 0
0.0402878 -0.0157609 0
0.0389879 -0.0148428 0
0.0376864 -0.0139575 0
0.0363853 -0.013107 0
0.0350871 -0.0122931 0
0.0337942 -0.0115164 0
0.0325095 -0.0107772 0
0.0312357 -0.0100756 0
0.0299758 -0.00941024 0
0.0287337 -0.00877784 0
0.0275126 -0.00817571 0
0.0263139 -0.00760375 0
0.0251376 -0.00706528 0
0.0239829 -0.0065649 0
0.0228537 -0.00609619 0
0.0217522 -0.00565563 0
0.0206795 -0.00524226 0
0.0196364 -0.00485507 0
0.0186233 -0.00449318 0
0.0176408 -0.00415577 0
0.016689 -0.00384204 0
0.0157682 -0.00355115 0
0.0148783 -0.00328218 0
0.0140192 -0.00303468 0
0.0131906 -0.00280795 0
0.0123925 -0.00260016 0
0.0116246 -0.00241012 0
0.0108864 -0.00223769 0
0.0101774 -0.00208212 0
0.00949701 -0.00194206 0
0.00884483 -0.0018163 0
0.0082202 -0.0017039 0
0.00762247 -0.00160391 0
0.00705097 -0.00151528 0
0.006505 -0.00143697 0
0.0059838 -0.00136806 0
0.00548662 -0.00130772 0
0.00501265 -0.00125519 0
0.00456114 -0.00120954 0
0.00413136 -0.00116914 0
0.00372257 -0.00113251 0
0.00333398 -0.00109853 0
0.00296466 -0.00106798 0
0.00261363 -0.0010431 0
-0.052721 -0.0445996 0
-0.0508204 -0.0440823 0
-0.0489199 -0.0435651 0
-0.0470193 -0.0430478 0
-0.0451187 -0.0425306 0
-0.0432181 -0.0420134 0
-0.0413175 -0.0414961 0
-0.039417 -0.0409789 0
-0.0375164 -0.0404616 0
-0.0356158 -0.0399444 0
-0.0337152 -0.0394271 0
-0.0318146 -0.0389099 0
-0.0299141 -0.0383927 0
-0.0280135 -0.0378754 0
-0.0261129 -0.0373582 0
-0.0242123 -0.0368409 0
-0.0223117 -0.0363237 0
-0.0204112 -0.0358065 0
-0.0185106 -0.0352892 0
-0.01661 -0.034772 0
-0.0147094 -0.0342547 0
-0.0128088 -0.0337375 0
-0.0109083 -0.0332202 0
-0.00900769 -0.032703 0
-0.00710711 -0.0321858 0
-0.00520653 -0.0316685 0
-0.00330595 -0.0311513 0
-0.00140537 -0.030634 0
0.00190689 -0.0299614 0
0.00332271 -0.0298498 0
0.00474133 -0.0297825 0
0.00616136 -0.0297597 0
0.0075814 -0.0297814 0
0.00900007 -0.0298477 0
0.010416 -0.0299583 0
0.0118278 -0.0301127 0
0.0132342 -0.0303103 0
0.0146339 -0.0305504 0
0.0160259 -0.0308322 0
0.0174091 -0.0311546 0
0.0187824 -0.0315166 0
0.020145 -0.031917 0
0.0214961 -0.0323546 0
0.0228351 -0.032828 0
0.0241613 -0.0333361 0
0.0254744 -0.0338774 0
0.0267738 -0.0344507 0
0.0280592 -0.0350545 0
0.0293306 -0.0356877 0
0.0305875 -0.0363488 0
0.0318301 -0.0370367 0
0.0330581 -0.0377501 0
0.0342717 -0.0384879 0
0.0354708 -0.0392489 0
0.0366556 -0.0400321 0
0.0378262 -0.0408363 0
0.0389828 -0.0416607 0
0.0401254 -0.0425042 0
0.0412543 -0.0433659 0
0.0423698 -0.0442451 0
0.043472 -0.0451408 0
0.0445612 -0.0460523 0
0.0456375 -0.0469789 0
0.0467013 -0.0479199 0
0.0477529 -0.0488746 0
0.0487923 -0.0498424 0
0.04982 -0.0508227 0
0.0508362 -0.051815 0
0.051841 -0.0528187 0
0.0528348 -0.0538333 0
0.0538178 -0.0548584 0
0.0547903 -0.0558935 0
0.0557524 -0.0569382 0
0.0567045 -0.0579922 0
0.0576467 -0.0590549 0
0.0585792 -0.0601261 0
0.0595024 -0.0612055 0
0.0604163 -0.0622926 0
0.0613212 -0.0633873 0
0.0622174 -0.0644891 0
0.0631049 -0.0655979 0
0.0639841 -0.0667134 0
0.064855 -0.0678353 0
0.0657179 -0.0689633 0
0.0665729 -0.0700974 0
0.0674202 -0.0712372 0
0.06826 -0.0723826 0
0.0690925 -0.0735333 0
0.0699178 -0.0746892 0
0.070736 -0.0758501 0
0.0715473 -0.0770159 0
0.0723518 -0.0781863 0
0.0731498 -0.0793612 0
0.0739412 -0.0805405 0
0.0747264 -0.081724 0
0.0755053 -0.0829116 0
0.0762781 -0.0841033 0
0.0770449 -0.0852987 0
0.0778059 -0.0864979 0
0.0785611 -0.0877007 0
0.0793108 -0.088907 0
0.0814681 -0.0912706 0
0.0828814 -0.0924245 0
0.0842946 -0.0935783 0
0.0857079 -0.0947322 0
0.0871211 -0.095886 0
0.0885344 -0.0970399 0
0.0899476 -0.0981937 0
0.0913609 -0.0993476 0
0.0927741 -0.100501 0
0.0941874 -0.101655 0
0.0956006 -0.102809 0
0.0970139 -0.103963 0
0.0984272 -0.105117 0
0.0998404 -0.106271 0
0.101254 -0.107424 0
0.102667 -0.108578 0
0.10408 -0.109732 0
0.105493 -0.110886 0
0.106907 -0.11204 0
0.10832 -0.113194 0
0.109733 -0.114348 0
0.111146 -0.115501 0
0.11256 -0.116655 0
0.113973 -0.117809 0
0.115386 -0.118963 0
0.116799 -0.120117 0
0.118213 -0.121271 0
0.119626 -0.122424 0
0.121039 -0.123578 0
0.122452 -0.124732 0
0.123866 -0.125886 0
0.125279 -0.12704 0
0.126692 -0.128194 0
0.128105 -0.129348 0
0.129519 -0.130501 0
0.130932 -0.131655 0
0.132345 -0.132809 0
0.133758 -0.133963 0
0.135172 -0.133216 0
0.135172 -0.131316 0
0.135172 -0.129415 0
0.135172 -0.127514 0
0.135172 -0.125614 0
0.135172 -0.123713 0
0.135172 -0.121813 0
0.135172 -0.119912 0
0.135172 -0.118012 0
0.135172 -0.116111 0
0.135172 -0.11421 0
0.135172 -0.11231 0
0.135172 -0.110409 0
0.135172 -0.108509 0
0.135172 -0.106608 0
0.135172 -0.104708 0
0.135172 -0.102807 0
0.135172 -0.100906 0
0.135172 -0.0990058 0
0.135172 -0.0971052 0
0.135172 -0.0952046 0
0.135172 -0.0933041 0
0.135172 -0.0914035 0
0.135172 -0.0895029 0
0.135172 -0.0876023 0
0.135172 -0.0857017 0
0.135172 -0.0838012 0
0.135172 -0.0819006 0
0.133758 -0.0788462 0
0.132345 -0.0776923 0
0.130932 -0.0765385 0
0.129519 -0.0753846 0
0.128105 -0.0742308 0
0.126692 -0.0730769 0
0.125279 -0.0719231 0
0.123866 -0.0707692 0
0.122452 -0.0696154 0
0.121039 -0.0684615 0
0.119626 -0.0673077 0
0.118213 -0.0661538 0
0.116799 -0.065 0
0.115386 -0.0638462 0
0.113973 -0.0626923 0
0.11256 -0.0615385 0
0.111146 -0.0603846 0
0.109733 -0.0592308 0
0.10832 -0.0580769 0
0.106907 -0.0569231 0
0.105493 -0.0557692 0
0.10408 -0.0546154 0
0.102667 -0.0534615 0
0.101254 -0.0523077 0
0.0998404 -0.0511538 0
0.0984272 -0.05 0
0.0970139 -0.0488462 0
0.0956006 -0.0476923 0
[...]
CELL_DATA 13116
SCALARS rho float
LOOKUP_TABLE default
0.543658
0.658468
0.408434
0.70856
0.699347
0.674154
0.372173
0.705379
0.521875
0.704992
0.385422
0.36486
0.699586
0.388862
0.368941
0.674379
0.509616
0.6974
0.67629
0.368927
0.549425
0.388168
0.399129
0.699412
0.605002
0.639973
0.70507
0.425482
0.594669
0.644828
0.669098
0.383535
0.550928
0.44403
0.373811
0.546696
0.663751
0.672453
0.672167
0.682223
0.675645
0.708537
0.419251
0.404741
0.675472
0.676301
0.635604
0.680422
0.369756
0.517799
0.697667
0.437036
0.377827
0.501805
0.549868
0.58142
0.404643
0.69522
0.530917
0.371386
0.391668
0.705283
0.648812
0.671925
0.669851
0.395924
0.680713
0.671283
0.682667
0.670202
0.37081
0.577628
0.393623
0.400474
0.667903
0.390227
0.641084
0.693408
0.368331
0.694578
0.677459
0.642975
0.699342
0.680918
0.668205
0.441596
0.377901
0.668668
0.665095
0.379243
0.372569
0.660271
0.701567
0.672659
0.647838
0.595522
0.607858
0.66877
0.668335
0.591434
0.677917
0.585658
0.675723
0.395386
0.618267
0.396477
0.352216
0.4666
0.41411
0.605057
0.495983
0.634241
0.593595
0.681523
0.695311
0.681481
0.385312
0.37955
0.689395
0.684029
0.67189
0.388315
0.683278
0.393621
0.66798
0.432995
0.379566
0.503458
0.409632
0.519109
0.689629
0.682517
0.493511
0.377986
0.474608
0.580381
0.665534
0.686864
0.676771
0.68377
0.624029
0.639092
0.502269
0.62492
0.643571
0.383466
0.381573
0.634584
0.697182
0.694045
0.535011
0.680159
0.680163
0.400966
0.701484
0.669582
0.401743
0.683921
0.668833
0.668964
0.698569
0.37314
0.696859
0.401798
0.387764
0.70331
0.66407
0.696809
0.373365
0.457602
0.414353
0.665602
0.375612
0.487502
0.680019
0.400347
0.383986
0.393659
0.629921
0.673245
0.373155
0.425454
0.516875
0.664374
0.673527
0.528824
0.394328
0.675684
0.606084
0.457089
0.634468
0.632084
0.670599
0.405796
0.625186
0.673796
0.702759
0.675631
0.663526
0.401345
0.394772
0.611255
0.497922
0.398508
0.691638
0.67644
0.446021
0.60629
0.389778
0.388272
0.391101
0.677776
0.401818
0.365394
0.373744
0.400099
0.357478
0.671632
0.66473
0.429299
0.40297
0.68025
0.489455
0.372815
0.544102
0.70488
0.641009
0.429086
0.680187
0.384655
0.718153
0.374571
0.670159
0.567132
0.668425
0.675667
0.670862
0.365531
0.424904
0.66864
0.667568
0.673508
0.665954
0.670661
0.698977
0.386597
0.691715
0.701981
0.668486
0.40307
0.371992
0.677693
0.688518
0.669782
0.684697
0.528755
0.685375
0.385758
0.388888
0.386885
0.390703
0.600438
0.702556
0.639866
0.370956
0.674515
0.392402
0.425698
0.620477
0.399381
0.639888
0.701951
0.66709
0.694835
0.368362
0.667006
0.68296
0.668552
0.686677
0.363353
0.376734
0.406272
0.575268
0.395018
0.377981
0.326191
0.290987
0.666947
0.379705
0.669551
0.699879
0.383813
0.372076
0.390675
0.447489
0.422174
0.667195
0.583032
0.626803
0.398554
0.677421
0.57547
0.392715
0.369465
0.672641
0.688419
0.675399
0.391678
0.67411
0.408753
0.681711
0.707651
0.691712
0.706346
0.408412
0.679906
0.389895
0.675329
0.704633
0.666452
0.368693
0.325815
0.702396
0.389572
0.650629
0.705137
0.359798
0.688501
0.699023
0.384361
0.674324
0.701723
0.38034
0.691289
0.441922
0.563566
0.690855
0.448942
0.684472
0.371506
0.697332
0.337877
0.671036
0.578367
0.703742
0.426301
0.350224
0.669452
0.401789
0.690499
0.612911
0.415273
0.66555
0.397891
0.405044
0.6875
0.545507
0.669487
0.378232
0.401583
0.69152
0.699687
0.382401
0.69829
0.38961
0.394936
0.681725
0.692958
0.450043
0.370971
0.686932
0.669443
0.674437
0.67352
0.693549
0.535004
0.323564
0.388094
0.372158
0.674218
0.371966
0.514649
0.363161
0.388652
0.344165
0.46123
0.140742
0.401356
0.670131
0.321882
0.697588
0.597526
0.677469
0.660043
0.692476
0.405268
0.374795
0.406009
0.329688
0.687517
0.589071
0.676182
0.596569
0.645207
0.618044
0.640664
0.61982
0.641789
0.691895
0.694105
0.673408
0.392571
0.453884
0.539417
0.394994
0.579211
0.580049
0.379358
0.680877
0.667262
0.410142
0.365029
0.384482
0.3938
0.619885
0.384157
0.40585
0.678712
0.39709
0.567148
0.388907
0.674076
0.676551
0.435087
0.379929
0.687
0.44878
0.390809
0.394359
0.366765
0.413981
0.378169
0.365621
0.38423
0.425627
0.385533
0.582198
0.373238
0.668012
0.378051
0.428483
0.494971
0.389293
0.377815
0.386049
0.678042
0.432442
0.634049
0.468356
0.395893
0.608965
0.667222
0.440982
0.687996
0.619244
0.617626
0.37839
0.668456
0.382107
0.694965
0.668923
0.406423
0.38591
0.604353
0.335274
0.450935
0.581556
0.350944
0.682638
0.646524
0.374778
0.381565
0.376513
0.482716
0.368898
0.380769
0.37312
0.390495
0.706335
0.706505
0.454538
0.594999
0.473756
0.624333
0.342669
0.399032
0.526871
0.407122
0.681346
0.28813
0.364698
0.489398
0.675048
0.659088
0.551415
0.358716
0.385036
0.559482
0.705112
0.670652
0.555629
0.622538
0.599035
0.383014
0.675519
0.56235
0.667316
0.30061
0.419519
0.680458
0.7033
0.658853
0.705384
0.657724
0.641785
0.697381
0.667017
0.677154
0.367692
0.674916
0.333752
0.38834
0.367335
0.706696
0.676837
0.303457
0.667469
0.610741
0.369083
0.671276
0.687599
0.688469
0.425495
0.398434
0.691738
0.390629
0.368894
0.371146
0.384127
0.679172
0.381753
0.706019
0.378321
0.659282
0.696123
0.680921
0.699924
0.39157
0.370233
0.678769
0.719822
0.653245
0.706075
0.701772
0.490467
0.382968
0.410568
0.675786
0.523961
0.379843
0.447848
0.383474
0.685107
0.676806
0.300925
0.387473
0.665863
0.460274
0.670748
0.654097
0.408168
0.385393
0.64889
0.667364
0.403987
0.657339
0.663999
0.677978
0.395095
0.665963
0.403328
0.668263
0.665798
0.370505
0.355907
0.379323
0.668474
0.413835
0.370957
0.380518
0.671669
0.685799
0.370247
0.382318
0.385547
0.671654
0.394387
0.6736
0.383509
0.581874
0.705011
0.381025
0.401234
0.400145
0.49088
0.415282
0.649588
0.393662
0.397124
0.673282
0.381046
0.677182
0.646692
0.668558
0.363718
0.681987
0.700046
0.702365
0.676372
0.674696
0.681296
0.381388
0.670441
0.431548
0.675771
0.362418
0.699619
0.502171
0.372869
0.669552
0.695405
0.401023
0.623119
0.371574
0.371591
0.678472
0.677573
0.369492
0.382199
0.369698
0.388839
0.6835
0.699307
0.397612
0.376851
0.690502
0.686636
0.583853
0.6994
0.676388
0.376787
0.703972
0.420504
0.697403
0.380748
0.5933
0.475948
0.679368
0.670804
0.568155
0.333851
0.424184
0.676013
0.594237
0.508419
0.698866
0.39121
0.68062
0.701104
0.360786
0.451397
0.700385
0.356006
0.669889
0.669764
0.32149
0.685952
0.645941
0.398638
0.684615
0.40528
0.661149
0.400563
0.67736
0.646978
0.423704
0.672076
0.697353
0.692823
0.612028
0.676958
0.574108
0.345948
0.411434
0.358528
0.398953
0.664886
0.547141
0.68436
0.69651
0.366511
0.374022
0.68101
0.705632
0.687606
0.702162
0.362818
0.694184
0.701771
0.365948
0.372102
0.689666
0.677473
0.664771
0.38852
0.581466
0.443309
0.683743
0.644656
0.670742
0.666182
0.383254
0.675702
0.669228
0.700908
0.676845
0.67534
0.427679
0.693109
0.388969
0.621235
0.703324
0.457464
0.648018
0.670982
0.695552
0.396212
0.395121
0.575134
0.651239
0.382561
0.37389
0.399796
0.389273
0.661028
0.680208
0.670682
0.292158
0.387979
0.682404
0.683153
0.381908
0.368747
0.459563
0.662253
0.675791
0.673043
0.690601
0.38627
0.382003
0.666162
0.390426
0.364816
0.394338
0.674429
0.445263
0.387013
0.573791
0.677375
0.629695
0.673093
0.675255
0.387998
0.376898
0.39706
0.467036
0.431901
0.374891
0.669717
0.690335
0.66033
0.677733
0.399475
0.365092
0.705181
0.371849
0.674981
0.646452
0.669155
0.369519
0.36557
0.655495
0.6693
0.555612
0.380083
0.670065
0.673473
0.56904
0.694133
0.701981
0.666542
0.622771
0.364265
0.67518
0.669645
0.61226
0.68427
0.664961
0.635728
0.666721
0.685664
0.397788
0.389457
0.366035
0.669449
0.500329
0.374039
0.680701
0.691222
0.358737
0.631199
0.448029
0.636341
0.460127
0.37057
0.705655
0.698704
0.380731
0.542446
0.669481
0.402967
0.672641
0.395889
0.395775
0.613588
0.603826
0.495054
0.675918
0.399763
0.696645
0.390253
0.381512
0.676953
0.378751
0.600438
0.386723
0.630131
0.594315
0.666542
0.661374
0.384408
0.396709
0.606198
0.420609
0.687267
0.454199
0.588017
0.674019
0.700722
0.435439
0.602054
0.628444
0.703063
0.682028
0.341404
0.369169
0.533028
0.626835
0.703446
0.364497
0.675625
0.557611
0.405399
0.374891
0.668512
0.663239
0.666251
0.668286
0.586824
0.682013
0.672275
0.671352
0.384776
0.658632
0.457113
0.687367
0.67682
0.291072
0.659956
0.697594
0.397365
0.372037
0.388328
0.665008
0.373771
0.613551
0.689545
0.659426
0.34527
0.66971
0.397669
0.580764
0.671664
0.670337
0.667882
0.671581
0.616337
0.676073
0.52004
0.67528
0.401092
0.674271
0.680682
0.400907
0.667219
0.6815
0.40632
0.386765
0.405491
0.692204
0.381568
0.667075
0.39699
0.704622
0.386067
0.476365
0.387726
0.694389
0.70097
0.526667
0.264998
0.61624
0.671786
0.385741
0.583415
0.706724
0.374385
0.584118
0.668884
0.704569
0.675474
0.404733
0.463897
0.689169
0.67693
0.622742
0.377013
0.391751
0.671723
0.665879
0.667337
0.665709
0.543414
0.682921
0.538386
0.684448
0.378248
0.398106
0.66583
0.698112
0.671818
0.39682
0.674507
0.551299
0.595785
0.394854
0.412519
0.698749
0.714915
0.551394
0.331881
0.677351
0.667506
0.372975
0.606563
0.69038
0.372712
0.424284
0.38691
0.605951
0.387318
0.366362
0.673629
0.461627
0.703885
0.637432
0.372361
0.37903
0.705087
0.392219
0.387555
0.669276
0.39322
0.344261
0.588214
0.670996
0.68232
0.39251
0.303874
0.397751
0.64814
0.395778
0.682975
0.374592
0.681506
0.638283
0.674707
0.629418
0.674425
0.642449
0.675852
0.699498
0.685716
0.380718
0.395306
0.666861
0.672402
0.500839
0.617789
0.554543
0.672038
0.61056
0.43237
0.682674
0.706208
0.673227
0.403689
0.676633
0.399108
0.681035
0.493675
0.695025
0.6766
0.370121
0.687604
0.385855
0.42386
0.650158
0.393444
0.684202
0.665055
0.6928
0.395941
0.678542
0.387804
0.369424
0.387591
0.371926
0.602116
0.376764
0.627827
0.671136
0.335018
0.406028
0.48425
0.572601
0.63048
0.62485
0.363428
0.391861
0.382876
0.387781
0.261828
0.629914
0.639889
0.429181
0.671069
0.689008
0.387147
0.705779
0.682348
0.671327
0.401898
0.667995
0.675516
0.693176
0.688107
0.366556
0.683762
0.694768
0.677232
0.667858
0.672698
0.374353
0.39481
0.68026
0.531092
0.367293
0.676471
0.401419
0.562941
0.623
0.658966
0.662752
0.370583
0.615803
0.389984
0.403603
0.689558
0.692341
0.697664
0.690938
0.655132
0.369798
0.700994
0.37854
0.499782
0.702741
0.668273
0.688597
0.403506
0.385497
0.702688
0.384653
0.691023
0.645386
0.424564
0.370728
0.682166
0.389022
0.67652
0.690546
0.651617
0.388644
0.389916
0.499773
0.512714
0.61791
0.468227
0.673491
0.624919
0.670485
0.664732
0.682564
0.38034
0.377213
0.693048
0.672633
0.619289
0.457342
0.398511
0.672455
0.379568
0.676503
0.60652
0.317843
0.68702
0.367017
0.658624
0.407636
0.698232
0.368057
0.680384
0.672895
0.335553
0.670169
0.650943
0.323794
0.670586
0.675888
0.552843
0.388501
0.355493
0.462227
0.70057
0.602051
0.368758
0.576824
0.685182
0.673257
0.335736
0.605396
0.664521
0.4598
0.673421
0.675514
0.288716
0.684938
0.668776
0.40695
0.594519
0.392052
0.633918
0.398601
0.395606
0.702875
0.366245
0.385398
0.384931
0.679787
0.655661
0.395869
0.677429
0.351044
0.660813
0.386754
0.659454
0.363426
0.674348
0.680612
0.642629
0.670513
0.546317
0.672857
0.671297
0.418903
0.63471
0.648384
0.476357
0.681912
0.489708
0.398437
0.700713
0.381439
0.56717
0.448545
0.67603
0.380831
0.405268
0.698925
0.675741
0.372472
0.685695
0.690643
0.664956
0.701821
0.668248
0.363819
0.704761
0.365015
0.401971
0.667673
0.691648
0.707822
0.668071
0.377641
0.399539
0.391472
0.659979
0.670975
0.35369
0.681014
0.394846
0.398866
0.391777
0.667543
0.381217
0.702659
0.686241
0.633368
0.676857
0.684882
0.569705
0.63547
0.432246
0.397371
0.37002
0.668221
0.667936
0.396935
0.629351
0.602799
0.637381
0.404928
0.393214
0.628855
0.275488
0.621692
0.589933
0.364736
0.672049
0.662856
0.372275
0.681603
0.383355
0.683971
0.704223
0.674906
0.381048
0.468595
0.68303
0.298558
0.44121
0.676112
0.306508
0.672353
0.68177
0.638854
0.691132
0.330851
0.669426
0.688847
0.676726
0.36066
0.693147
0.391002
0.388075
0.669129
0.676118
0.670903
0.233884
0.677172
0.63224
0.667851
0.393106
0.387029
0.390703
0.68906
0.372358
0.378213
0.398098
0.587767
0.375927
0.289954
0.441302
0.682814
0.369316
0.670509
0.671567
0.681069
0.394496
0.683323
0.656183
0.671036
0.41435
0.666654
0.382163
0.381193
0.678179
0.372433
0.624748
0.684083
0.666381
0.366269
0.326305
0.401678
0.55424
0.665892
0.232129
0.67316
0.67945
0.692296
0.384462
0.380092
0.341412
0.601331
0.388445
0.664813
0.598487
0.671946
0.672587
0.364563
0.625036
0.381987
0.558184
0.647712
0.705561
0.565334
0.469233
0.668733
0.623391
0.694055
0.392031
0.371726
0.399871
0.694388
0.530247
0.668285
0.365996
0.395265
0.693658
0.683147
0.670036
0.370627
0.682249
0.552496
0.55577
0.604836
0.41313
0.369075
0.288214
0.676258
0.671208
0.665799
0.621886
0.34014
0.69457
0.661
0.671272
0.670783
0.693046
0.706088
0.673803
0.68984
0.697185
0.406021
0.684913
0.692089
0.673626
0.687194
0.675954
0.573997
0.367886
0.398656
0.616067
0.369751
0.332837
0.681705
0.378288
0.633742
0.681665
0.656078
0.673951
0.407346
0.68394
0.384545
0.397078
0.674164
0.681936
0.677979
0.393008
0.697184
0.676076
0.61344
0.675358
0.393795
0.673263
0.703098
0.663374
0.401181
0.696251
0.400734
0.711607
0.394082
0.368143
0.515888
0.446112
0.705602
0.695971
0.675289
0.398085
0.673033
0.398016
0.375016
0.652586
0.488065
0.377473
0.675618
0.37669
0.509537
0.670089
0.635184
0.661522
0.486753
0.589482
0.658392
0.675084
0.571012
0.697542
0.529866
0.717515
0.617754
0.649575
0.398032
0.368574
0.445805
0.69099
0.405657
0.667509
0.686475
0.602524
0.675366
0.513316
0.683951
0.672971
0.402155
0.684792
0.610893
0.481931
0.614467
0.702145
0.65099
0.672547
0.384394
0.396305
0.676682
0.533385
0.540705
0.686527
0.680679
0.678159
0.703104
0.704294
0.620921
0.622131
0.705337
0.380006
0.383055
0.381897
0.349698
0.667134
0.457588
0.534206
0.686636
0.678257
0.403794
0.675068
0.707827
0.394601
0.370845
0.667363
0.686796
0.414824
0.369271
0.373929
0.664751
0.638789
0.405619
0.381074
0.365478
0.393183
0.341243
0.370568
0.716434
0.680654
0.679109
0.394672
0.657213
0.60534
0.603596
0.318268
0.364927
0.650735
0.665715
0.388032
0.673973
0.372079
0.698923
0.406741
0.680491
0.385445
0.661097
0.699761
0.395931
0.557393
0.371562
0.705053
0.395003
0.609367
0.399635
0.504665
0.389648
0.600075
0.38473
0.670267
0.670587
0.601917
0.673317
0.316841
0.659832
0.67193
0.698299
0.6028
0.661721
0.366345
0.385164
0.397821
0.701803
0.287685
0.697268
0.542201
0.691419
0.704392
0.454739
0.69275
0.37442
0.395926
0.377601
0.508805
0.51345
0.680002
0.396776
0.377762
0.67631
0.377774
0.386786
0.549346
0.364399
0.388284
0.399602
0.710108
0.65381
0.614217
0.399184
0.656478
0.676798
0.398818
0.321515
0.669373
0.674906
0.561892
0.512554
0.411687
0.359893
0.400168
0.683025
0.611505
0.521481
0.687021
0.385637
0.569027
0.368093
0.669732
0.697114
0.365595
0.387196
0.618595
0.541636
0.699539
0.697051
0.700689
0.687299
0.702913
0.397756
0.394112
0.40085
0.362438
0.535269
0.669036
0.655925
0.362039
0.363933
0.450886
0.424403
0.678203
0.634039
0.377886
0.300226
0.681491
0.405116
0.656975
0.695573
0.651004
0.672945
0.548361
0.369415
0.385361
0.616304
0.365518
0.417228
0.394954
0.672236
0.677728
0.323642
0.365927
0.665565
0.385885
0.678144
0.701678
0.368045
0.399307
0.385882
0.681334
0.385035
0.665011
0.685056
0.603054
0.364761
0.526418
0.692816
0.670774
0.372306
0.668091
0.618354
0.436707
0.688972
0.720959
0.40275
0.363809
0.654453
0.391935
0.361982
0.663815
0.344067
0.67925
0.684108
0.700973
0.626133
0.697918
0.68107
0.672723
0.379662
0.410184
0.630077
0.679428
0.468361
0.705617
0.317735
0.685225
0.663103
0.569227
0.652076
0.386067
0.456349
0.675888
0.694463
0.614156
0.70011
0.679114
0.666634
0.701092
0.66521
0.675603
0.655275
0.68845
0.665916
0.672931
0.339624
0.646041
0.417812
0.681679
0.68495
0.692194
0.641025
0.690802
0.39511
0.401807
0.302892
0.371175
0.648748
0.377912
0.402288
0.678846
0.388198
0.689127
0.400849
0.664038
0.68419
0.365468
0.380329
0.320411
0.689512
0.402709
0.679203
0.687302
0.400475
0.647918
0.552289
0.346638
0.422941
0.390468
0.691966
0.364658
0.683777
0.509557
0.363327
0.675552
0.675995
0.700816
0.372668
0.575312
0.393444
0.659223
0.672805
0.681554
0.386994
0.678422
0.686657
0.627565
0.403522
0.689364
0.372419
0.383824
0.676772
0.453
0.70399
0.396239
0.387329
0.442976
0.63589
0.416123
0.282542
0.398798
0.477847
0.668283
0.68633
0.386974
0.598739
0.679848
0.5556
0.41793
0.312831
0.554673
0.376229
0.366559
0.675725
0.38528
0.379828
0.693641
0.707832
0.393394
0.696286
0.396341
0.667096
0.428889
0.654743
0.670329
0.692234
0.671787
0.399536
0.377616
0.390469
0.673517
0.656651
0.586894
0.540756
0.369812
0.301584
0.674117
0.384201
0.679764
0.381055
0.670439
0.672868
0.388937
0.406178
0.383825
0.365837
0.410112
0.617106
0.651315
0.38575
0.684227
0.640213
0.345628
0.376701
0.706899
0.374788
0.683482
0.42676
0.691521
0.658328
0.683085
0.668589
0.386721
0.704145
0.679982
0.712712
0.366812
0.608648
0.593816
0.32683
0.690913
0.638957
0.714518
0.657412
0.702991
0.675906
0.705859
0.673897
0.676026
0.36555
0.700167
0.384301
0.458628
0.675784
0.392501
0.665673
0.608345
0.375166
0.628773
0.365586
0.373389
0.671012
0.597926
0.707392
0.393743
0.657106
0.619774
0.42932
0.391294
0.657781
0.676688
0.375559
0.397743
0.689034
0.706766
0.363662
0.644908
0.700718
0.655531
0.390676
0.372478
0.380733
0.659887
0.365099
0.668798
0.694541
0.674329
0.605349
0.684278
0.392857
0.66451
0.611553
0.699571
0.561943
0.400606
0.372071
0.392902
0.699337
0.688386
0.424295
0.655966
0.301593
0.644588
0.683494
0.391203
0.617055
0.669801
0.625093
0.393998
0.374918
0.335944
0.690065
0.703789
0.616851
0.512165
0.683632
0.389057
0.636791
0.667365
0.678744
0.396172
0.622303
0.375605
0.616254
0.394758
0.677754
0.671579
0.398987
0.689498
0.42358
0.665813
0.64101
0.664775
0.690762
0.411705
0.673753
0.676436
0.678276
0.678636
0.482757
0.667276
0.384003
0.677007
0.390695
0.368726
0.384191
0.408436
0.381407
0.393091
0.703267
0.364714
0.376749
0.660202
0.69004
0.65374
0.404807
0.686545
0.686089
0.672611
0.317567
0.576911
0.68069
0.384495
0.398683
0.378614
0.630951
0.506543
0.36631
0.584912
0.400899
0.668571
0.499785
0.381078
0.47227
0.653465
0.326466
0.677091
0.383447
0.463964
0.372449
0.6851
0.380713
0.653662
0.667538
0.593482
0.416007
0.371277
0.681169
0.706092
0.397675
0.36939
0.673831
0.365388
0.695787
0.394516
0.555921
0.39362
0.680839
0.394359
0.705011
0.368855
0.683407
0.684977
0.695208
0.66708
0.387481
0.40245
0.405561
0.643962
0.677921
0.634279
0.516258
0.380071
0.691251
0.315732
0.653965
0.583106
0.397111
0.370814
0.697198
0.677293
0.396766
0.669459
0.687196
0.696663
0.701202
0.382813
0.639513
0.386014
0.696496
0.364131
0.671149
0.648455
0.669702
0.705802
0.350765
0.711725
0.367816
0.403474
0.677784
0.667285
0.549107
0.677374
0.667087
0.380094
0.697809
0.681141
0.70425
0.370609
0.425993
0.682397
0.379507
0.685924
0.686691
0.668213
0.687129
0.285144
0.449294
0.652817
0.398938
0.663217
0.705792
0.472063
0.668094
0.268638
0.618554
0.698088
0.680883
0.670014
0.373162
0.408766
0.680401
0.666256
0.377042
0.322116
0.401739
0.401134
0.378129
0.401015
0.424708
0.368232
0.679917
0.389299
0.391593
0.6879
0.54741
0.665679
0.394191
0.366076
0.680773
0.467956
0.472534
0.701881
0.367995
0.663474
0.670649
0.606331
0.661776
0.402447
0.686697
0.671792
0.398327
0.384615
0.398352
0.604957
0.606396
0.702971
0.674812
0.679599
0.665398
0.372099
0.687358
0.672008
0.660273
0.369638
0.681749
0.574099
0.365112
0.432036
0.379434
0.387586
0.384803
0.59296
0.671508
0.668086
0.369561
0.387999
0.700627
0.344179
0.687713
0.676717
0.668595
0.680509
0.682929
0.387417
0.391189
0.397279
0.567648
0.371226
0.68024
0.382373
0.678287
0.673578
0.684495
0.374863
0.449419
0.40971
0.684564
0.393607
0.379531
0.681839
0.66143
0.620026
0.674279
0.653579
0.695225
0.36946
0.620916
0.698277
0.527774
0.683271
0.690009
0.69596
0.459809
0.425117
0.705834
0.496131
0.613413
0.38448
0.643281
0.668995
0.401018
0.361653
0.657136
0.508926
0.695271
0.687768
0.364916
0.367293
0.668881
0.378541
0.406401
0.670655
0.658468
0.37382
0.672859
0.668922
0.642957
0.362664
0.593678
0.370517
0.673569
0.696723
0.694938
0.665264
0.669328
0.291807
0.350795
0.677909
0.377923
0.603236
0.371832
0.684071
0.386759
0.650345
0.697935
0.668986
0.386096
0.664948
0.667876
0.365668
0.644071
0.378029
0.711057
0.385989
0.386303
0.375829
0.674511
0.67498