# vtk DataFile Version 1.0
unstructured grid
ascii
DATASET UNSTRUCTURED_GRID
points 13672 float
0.0796578 -0.059106 0
0.00128732 0.00159165 0
0.00227961 -0.00102548 0
0.0791586 -0.0598787 0
-0.0546216 0.01 0
0.000495206 0.025 0
0.0800549 -0.035 0
0.135172 -0.08 0
-0.0546216 -0.0451168 0
0.000495206 -0.0301168 0
0.0800549 -0.0901168 0
0.135172 -0.135117 0
-0.0546216 -0.0451168 -0.00551168
0.000495206 -0.0301168 -0.00551168
0.0800549 -0.0901168 -0.00551168
0.135172 -0.135117 -0.00551168
0.135172 -0.08 -0.00551168
0.0800549 -0.035 -0.00551168
0.000495206 0.025 -0.00551168
-0.0546216 0.01 -0.00551168
0.00128732 0.00159165 -0.00551168
0.00227961 -0.00102548 -0.00551168
0.0791586 -0.0598787 -0.00551168
0.0796578 -0.059106 -0.00551168
0.00165953 -0.000990923 0
0.00119576 -0.000874076 0
0.000866021 -0.000641801 0
0.000645147 -0.000349912 0
0.00052235 -1.7281e-05 0
0.00049972 0.000348016 0
0.000601632 0.000737716 0
0.000861774 0.0011403 0
0.00157235 0.00183217 0
0.00188647 0.00206725 0
0.00222612 0.00230203 0
0.00258713 0.00254351 0
0.00296826 0.00279524 0
0.00337118 0.00305664 0
0.00379785 0.00332658 0
0.00425045 0.00360349 0
0.00473139 0.00388521 0
0.0052432 0.00416895 0
0.0057881 0.00445204 0
0.00636753 0.00473281 0
0.00698281 0.00500961 0
0.00763526 0.00528058 0
0.00832616 0.00554366 0
0.00905691 0.00579603 0
0.00982918 0.00603333 0
0.0106445 0.00625033 0
0.0115038 0.00644128 0
0.0124073 0.00660297 0
0.0133543 0.00673414 0
0.0143444 0.00683382 0
0.0153769 0.00690031 0
0.0164512 0.00693173 0
0.0175666 0.00692547 0
0.0187219 0.00687822 0
0.0199156 0.00678477 0
0.0211454 0.00663864 0
0.0224084 0.00643275 0
0.0237018 0.00616676 0
0.0250249 0.00584739 0
0.026375 0.00547298 0
0.0277479 0.00503752 0
0.0291386 0.00453545 0
0.0305433 0.0039653 0
0.0319572 0.0033256 0
0.0333681 0.00260019 0
0.034775 0.00179799 0
0.0361793 0.000930615 0
0.0375798 3.12222e-06 0
0.0389689 -0.000988429 0
0.0403357 -0.00205109 0
0.041675 -0.00318283 0
0.0429849 -0.00437751 0
0.0442643 -0.00562904 0
0.0455126 -0.00693089 0
0.0467314 -0.00827518 0
0.0479204 -0.00965638 0
0.0490661 -0.0110799 0
0.0501515 -0.0125519 0
0.0511696 -0.0140695 0
0.0521492 -0.0156071 0
0.0531202 -0.0171411 0
0.0540851 -0.0186663 0
0.0550431 -0.0201798 0
0.0559923 -0.0216793 0
0.0569311 -0.0231626 0
0.0578582 -0.0246273 0
0.0587723 -0.0260715 0
0.0596721 -0.027493 0
0.0605563 -0.02889 0
0.0614241 -0.0302609 0
0.0622742 -0.0316042 0
0.063106 -0.0329183 0
0.0639186 -0.034202 0
0.0647113 -0.0354543 0
0.0654835 -0.0366743 0
0.0662345 -0.0378613 0
0.0669642 -0.0390145 0
0.0676726 -0.0401333 0
0.0683597 -0.0412172 0
0.0690246 -0.0422665 0
0.0696662 -0.0432819 0
0.0702841 -0.0442636 0
0.0708793 -0.0452111 0
0.0714538 -0.0461237 0
0.072009 -0.047001 0
0.0725452 -0.0478434 0
0.0730611 -0.0486524 0
0.073556 -0.0494294 0
0.0740291 -0.0501756 0
0.0744812 -0.0508916 0
0.0749138 -0.0515773 0
0.0753285 -0.0522331 0
0.0757266 -0.0528592 0
0.076109 -0.0534564 0
0.0764753 -0.0540264 0
0.0768243 -0.054571 0
0.0771553 -0.0550919 0
0.0774679 -0.0555901 0
0.0777617 -0.0560669 0
0.0780369 -0.056523 0
0.0782958 -0.0569578 0
0.0785421 -0.0573703 0
0.0787786 -0.0577603 0
0.0790073 -0.0581279 0
0.0792295 -0.058474 0
0.0794462 -0.0587995 0
0.0798803 -0.0594162 0
0.0800272 -0.0596588 0
0.0800357 -0.0598891 0
0.0799275 -0.0600784 0
0.0797205 -0.0601773 0
0.0794593 -0.0601051 0
0.0789155 -0.0596491 0
0.0786707 -0.0593963 0
0.0784111 -0.0591319 0
0.0781372 -0.0588542 0
0.0778566 -0.0585548 0
0.0775715 -0.0582308 0
0.0772803 -0.0578828 0
0.0769832 -0.0575099 0
0.0766822 -0.0571097 0
0.0763801 -0.0566796 0
0.0760759 -0.0562196 0
0.0757623 -0.0557337 0
0.0754359 -0.0552232 0
0.0750951 -0.0546879 0
0.0747379 -0.054128 0
0.0743626 -0.0535435 0
0.0739688 -0.0529338 0
0.0735559 -0.0522981 0
0.0731238 -0.0516357 0
0.0726718 -0.050946 0
0.0721991 -0.0502288 0
0.0717046 -0.049484 0
0.0711872 -0.0487117 0
0.0706461 -0.047912 0
0.0700804 -0.0470849 0
0.0694892 -0.0462308 0
0.0688718 -0.0453499 0
0.0682271 -0.0444431 0
0.0675544 -0.043511 0
0.0668527 -0.0425546 0
0.0661215 -0.0415748 0
0.06536 -0.040573 0
0.0645676 -0.0395504 0
0.0637439 -0.0385087 0
0.0628887 -0.0374493 0
0.062002 -0.0363741 0
0.0610838 -0.0352847 0
0.0601345 -0.0341831 0
0.0591547 -0.033071 0
0.0581456 -0.0319502 0
0.0571083 -0.0308224 0
0.0560444 -0.0296893 0
0.0549562 -0.028552 0
0.053845 -0.0274126 0
0.0527113 -0.0262746 0
0.051554 -0.0251427 0
0.0503724 -0.0240222 0
0.0491675 -0.0229164 0
0.047941 -0.0218282 0
0.0466955 -0.0207597 0
0.0454337 -0.0197126 0
0.0441592 -0.0186878 0
0.0428751 -0.0176863 0
0.0415841 -0.0167097 0
0.0402878 -0.0157609 0
0.0389879 -0.0148428 0
0.0376864 -0.0139575 0
0.0363853 -0.013107 0
0.0350871 -0.0122931 0
0.0337942 -0.0115164 0
0.0325095 -0.0107772 0
0.0312357 -0.0100756 0
0.0299758 -0.00941024 0
0.0287337 -0.00877784 0
0.0275126 -0.00817571 0
0.0263139 -0.00760375 0
0.0251376 -0.00706528 0
0.0239829 -0.0065649 0
0.0228537 -0.00609619 0
0.0217522 -0.00565563 0
0.0206795 -0.00524226 0
0.0196364 -0.00485507 0
0.0186233 -0.00449318 0
0.0176408 -0.00415577 0
0.016689 -0.00384204 0
0.0157682 -0.00355115 0
0.0148783 -0.00328218 0
0.0140192 -0.00303468 0
0.0131906 -0.00280795 0
0.0123925 -0.00260016 0
0.0116246 -0.00241012 0
0.0108864 -0.00223769 0
0.0101774 -0.00208212 0
0.00949701 -0.00194206 0
0.00884483 -0.0018163 0
0.0082202 -0.0017039 0
0.00762247 -0.00160391 0
0.00705097 -0.00151528 0
0.006505 -0.00143697 0
0.0059838 -0.00136806 0
0.00548662 -0.00130772 0
0.00501265 -0.00125519 0
0.00456114 -0.00120954 0
0.00413136 -0.00116914 0
0.00372257 -0.00113251 0
0.00333398 -0.00109853 0
0.00296466 -0.00106798 0
0.00261363 -0.0010431 0
-0.052721 -0.0445996 0
-0.0508204 -0.0440823 0
-0.0489199 -0.0435651 0
-0.0470193 -0.0430478 0
-0.0451187 -0.0425306 0
-0.0432181 -0.0420134 0
-0.0413175 -0.0414961 0
-0.039417 -0.0409789 0
-0.0375164 -0.0404616 0
-0.0356158 -0.0399444 0
-0.0337152 -0.0394271 0
-0.0318146 -0.0389099 0
-0.0299141 -0.0383927 0
-0.0280135 -0.0378754 0
-0.0261129 -0.0373582 0
-0.0242123 -0.0368409 0
-0.0223117 -0.0363237 0
-0.0204112 -0.0358065 0
-0.0185106 -0.0352892 0
-0.01661 -0.034772 0
-0.0147094 -0.0342547 0
-0.0128088 -0.0337375 0
-0.0109083 -0.0332202 0
-0.00900769 -0.032703 0
-0.00710711 -0.0321858 0
-0.00520653 -0.0316685 0
-0.00330595 -0.0311513 0
-0.00140537 -0.030634 0
0.00190689 -0.0299614 0
0.00332271 -0.0298498 0
0.00474133 -0.0297825 0
0.00616136 -0.0297597 0
0.0075814 -0.0297814 0
0.00900007 -0.0298477 0
0.010416 -0.0299583 0
0.0118278 -0.0301127 0
0.0132342 -0.0303103 0
0.0146339 -0.0305504 0
0.0160259 -0.0308322 0
0.0174091 -0.0311546 0
0.0187824 -0.0315166 0
0.020145 -0.031917 0
0.0214961 -0.0323546 0
0.0228351 -0.032828 0
0.0241613 -0.0333361 0
0.0254744 -0.0338774 0
0.0267738 -0.0344507 0
0.0280592 -0.0350545 0
0.0293306 -0.0356877 0
0.0305875 -0.0363488 0
0.0318301 -0.0370367 0
0.0330581 -0.0377501 0
0.0342717 -0.0384879 0
0.0354708 -0.0392489 0
0.0366556 -0.0400321 0
0.0378262 -0.0408363 0
0.0389828 -0.0416607 0
0.0401254 -0.0425042 0
0.0412543 -0.0433659 0
0.0423698 -0.0442451 0
0.043472 -0.0451408 0
0.0445612 -0.0460523 0
0.0456375 -0.0469789 0
0.0467013 -0.0479199 0
0.0477529 -0.0488746 0
0.0487923 -0.0498424 0
0.04982 -0.0508227 0
0.0508362 -0.051815 0
0.051841 -0.0528187 0
0.0528348 -0.0538333 0
0.0538178 -0.0548584 0
0.0547903 -0.0558935 0
0.0557524 -0.0569382 0
0.0567045 -0.0579922 0
0.0576467 -0.0590549 0
0.0585792 -0.0601261 0
0.0595024 -0.0612055 0
0.0604163 -0.0622926 0
0.0613212 -0.0633873 0
0.0622174 -0.0644891 0
0.0631049 -0.0655979 0
0.0639841 -0.0667134 0
0.064855 -0.0678353 0
0.0657179 -0.0689633 0
0.0665729 -0.0700974 0
0.0674202 -0.0712372 0
0.06826 -0.0723826 0
0.0690925 -0.0735333 0
0.0699178 -0.0746892 0
0.070736 -0.0758501 0
0.0715473 -0.0770159 0
0.0723518 -0.0781863 0
0.0731498 -0.0793612 0
0.0739412 -0.0805405 0
0.0747264 -0.081724 0
0.0755053 -0.0829116 0
0.0762781 -0.0841033 0
0.0770449 -0.0852987 0
0.0778059 -0.0864979 0
0.0785611 -0.0877007 0
0.0793108 -0.088907 0
0.0814681 -0.0912706 0
0.0828814 -0.0924245 0
0.0842946 -0.0935783 0
0.0857079 -0.0947322 0
0.0871211 -0.095886 0
0.0885344 -0.0970399 0
0.0899476 -0.0981937 0
0.0913609 -0.0993476 0
0.0927741 -0.100501 0
0.0941874 -0.101655 0
0.0956006 -0.102809 0
0.0970139 -0.103963 0
0.0984272 -0.105117 0
0.0998404 -0.106271 0
0.101254 -0.107424 0
0.102667 -0.108578 0
0.10408 -0.109732 0
0.105493 -0.110886 0
0.106907 -0.11204 0
0.10832 -0.113194 0
0.109733 -0.114348 0
0.111146 -0.115501 0
0.11256 -0.116655 0
0.113973 -0.117809 0
0.115386 -0.118963 0
0.116799 -0.120117 0
0.118213 -0.121271 0
0.119626 -0.122424 0
0.121039 -0.123578 0
0.122452 -0.124732 0
0.123866 -0.125886 0
0.125279 -0.12704 0
0.126692 -0.128194 0
0.128105 -0.129348 0
0.129519 -0.130501 0
0.130932 -0.131655 0
0.132345 -0.132809 0
0.133758 -0.133963 0
0.135172 -0.133216 0
0.135172 -0.131316 0
0.135172 -0.129415 0
0.135172 -0.127514 0
0.135172 -0.125614 0
0.135172 -0.123713 0
0.135172 -0.121813 0
0.135172 -0.119912 0
0.135172 -0.118012 0
0.135172 -0.116111 0
0.135172 -0.11421 0
0.135172 -0.11231 0
0.135172 -0.110409 0
0.135172 -0.108509 0
0.135172 -0.106608 0
0.135172 -0.104708 0
0.135172 -0.102807 0
0.135172 -0.100906 0
0.135172 -0.0990058 0
0.135172 -0.0971052 0
0.135172 -0.0952046 0
0.135172 -0.0933041 0
0.135172 -0.0914035 0
0.135172 -0.0895029 0
0.135172 -0.0876023 0
0.135172 -0.0857017 0
0.135172 -0.0838012 0
0.135172 -0.0819006 0
0.133758 -0.0788462 0
0.132345 -0.0776923 0
0.130932 -0.0765385 0
0.129519 -0.0753846 0
0.128105 -0.0742308 0
0.126692 -0.0730769 0
0.125279 -0.0719231 0
0.123866 -0.0707692 0
0.122452 -0.0696154 0
0.121039 -0.0684615 0
0.119626 -0.0673077 0
0.118213 -0.0661538 0
0.116799 -0.065 0
0.115386 -0.0638462 0
0.113973 -0.0626923 0
0.11256 -0.0615385 0
0.111146 -0.0603846 0
0.109733 -0.0592308 0
0.10832 -0.0580769 0
0.106907 -0.0569231 0
0.105493 -0.0557692 0
0.10408 -0.0546154 0
0.102667 -0.0534615 0
0.101254 -0.0523077 0
0.0998404 -0.0511538 0
0.0984272 -0.05 0
0.0970139 -0.0488462 0
0.0956006 -0.0476923 0
[...]
CELL_DATA 13116
SCALARS rho float
LOOKUP_TABLE default
0.491921
0.620542
0.393882
0.656003
0.657326
0.656465
0.360424
0.672372
0.468084
0.657687
0.360332
0.385448
0.657753
0.368038
0.367617
0.656394
0.461846
0.640141
0.651288
0.359356
0.495969
0.413179
0.371874
0.643812
0.547779
0.630746
0.657179
0.387853
0.545423
0.586187
0.659227
0.375216
0.495468
0.39392
0.367905
0.494439
0.608167
0.645091
0.657311
0.657818
0.653549
0.672073
0.372392
0.386175
0.650196
0.650999
0.602149
0.652849
0.366216
0.463982
0.664359
0.388148
0.367294
0.454261
0.494229
0.524535
0.384763
0.643227
0.476811
0.36447
0.367504
0.659646
0.612465
0.657468
0.658937
0.368805
0.656118
0.614117
0.655769
0.65866
0.373135
0.52494
0.413074
0.37497
0.660265
0.387644
0.591295
0.657302
0.356602
0.637556
0.624604
0.628767
0.646983
0.651405
0.64373
0.399281
0.363389
0.610328
0.645513
0.367699
0.386591
0.622816
0.647167
0.655014
0.590123
0.538267
0.550354
0.659775
0.659821
0.536696
0.62126
0.542133
0.652976
0.347813
0.588568
0.378365
0.318108
0.416582
0.383522
0.555914
0.444786
0.614111
0.536263
0.627048
0.638428
0.656519
0.366324
0.341677
0.655952
0.657782
0.614448
0.41232
0.655991
0.386779
0.653396
0.385948
0.364757
0.451439
0.382776
0.465504
0.656268
0.644784
0.445493
0.377336
0.427225
0.527951
0.662772
0.657758
0.620222
0.657679
0.574053
0.60594
0.449852
0.575479
0.601032
0.368994
0.375018
0.620469
0.654635
0.664777
0.484149
0.651126
0.65297
0.390122
0.655906
0.64559
0.374223
0.627471
0.65971
0.6107
0.643999
0.356071
0.647093
0.376349
0.410418
0.66105
0.64883
0.639449
0.365105
0.412305
0.37336
0.662634
0.368308
0.435467
0.655895
0.370534
0.397965
0.413293
0.609274
0.656064
0.376962
0.381129
0.464961
0.608384
0.655971
0.47454
0.374872
0.654019
0.578929
0.407407
0.580614
0.617705
0.658321
0.371911
0.606508
0.656293
0.653536
0.653443
0.643644
0.352403
0.347038
0.561244
0.446195
0.372067
0.651356
0.647133
0.396559
0.548358
0.372971
0.38654
0.384561
0.655672
0.376233
0.35955
0.37727
0.389037
0.322928
0.656927
0.65095
0.38866
0.38313
0.655948
0.438504
0.377571
0.495673
0.659002
0.598072
0.389111
0.656125
0.347676
0.682519
0.377847
0.65833
0.514908
0.660086
0.653303
0.658127
0.356217
0.378515
0.610553
0.660653
0.656272
0.662328
0.657767
0.67134
0.401724
0.660601
0.657241
0.659731
0.387588
0.36872
0.649106
0.655991
0.658595
0.652505
0.478531
0.628344
0.358495
0.376184
0.348841
0.37315
0.568826
0.653102
0.590322
0.360105
0.650202
0.369692
0.38415
0.591064
0.390745
0.628009
0.66606
0.661074
0.643633
0.357462
0.661167
0.630672
0.659721
0.657534
0.354202
0.360104
0.375702
0.523199
0.412102
0.375085
0.294567
0.331721
0.637991
0.368179
0.647838
0.659924
0.365578
0.365404
0.368811
0.400109
0.394643
0.608836
0.535566
0.602618
0.390268
0.655017
0.527262
0.381343
0.363929
0.657004
0.656185
0.653728
0.373882
0.656239
0.361353
0.64465
0.670096
0.663178
0.669573
0.376024
0.655956
0.369245
0.655199
0.654036
0.611282
0.350157
0.294249
0.657889
0.366498
0.621705
0.659848
0.317274
0.630991
0.646373
0.365045
0.649843
0.648412
0.37227
0.657811
0.399133
0.515289
0.673766
0.40552
0.627872
0.360554
0.64263
0.305266
0.657417
0.539297
0.652743
0.388288
0.316292
0.645006
0.392087
0.652056
0.587582
0.372115
0.662744
0.381957
0.407499
0.652461
0.495985
0.61295
0.361639
0.376057
0.660748
0.659532
0.373491
0.661414
0.366065
0.378721
0.656675
0.672161
0.401986
0.374557
0.657013
0.658998
0.656438
0.649264
0.647488
0.484218
0.398219
0.371105
0.374311
0.656552
0.374419
0.463055
0.321337
0.356759
0.310789
0.413232
0.126938
0.391149
0.644857
0.355535
0.648684
0.545141
0.65265
0.601479
0.660307
0.407642
0.358945
0.35903
0.40525
0.650676
0.532179
0.653084
0.545678
0.602383
0.560002
0.625811
0.566017
0.583219
0.647469
0.63697
0.656814
0.354054
0.403253
0.48817
0.412641
0.531807
0.523018
0.367217
0.656212
0.660965
0.378623
0.356169
0.34753
0.376012
0.57135
0.387187
0.371902
0.655731
0.370746
0.51452
0.356279
0.655928
0.628936
0.391959
0.381583
0.651744
0.401753
0.359492
0.374973
0.381366
0.383229
0.36083
0.356943
0.409837
0.383856
0.3493
0.5385
0.404629
0.645419
0.328281
0.38156
0.448081
0.369442
0.367292
0.369122
0.654218
0.389177
0.581748
0.418995
0.370121
0.551021
0.647117
0.398816
0.630441
0.56179
0.560509
0.361446
0.660011
0.34383
0.646754
0.659423
0.379237
0.365923
0.575986
0.405357
0.407385
0.543102
0.317003
0.626368
0.605607
0.369111
0.393139
0.368663
0.43119
0.362536
0.37086
0.370341
0.369313
0.66174
0.659309
0.406888
0.539978
0.426282
0.603637
0.311005
0.398349
0.472607
0.379398
0.648279
0.259829
0.329215
0.441509
0.64955
0.644236
0.502093
0.315857
0.365278
0.511164
0.671514
0.658357
0.507467
0.589948
0.566492
0.346821
0.627402
0.510399
0.60934
0.281454
0.395517
0.625676
0.65201
0.600219
0.658542
0.635863
0.636277
0.64298
0.609712
0.652714
0.38269
0.649376
0.30153
0.373564
0.35509
0.653867
0.647927
0.274186
0.643356
0.562525
0.350389
0.657752
0.655876
0.64212
0.387855
0.397766
0.655368
0.361006
0.357166
0.376671
0.347132
0.64533
0.371484
0.652038
0.405168
0.620613
0.663464
0.655482
0.658979
0.360804
0.3681
0.648473
0.682474
0.600384
0.661735
0.656864
0.443945
0.363943
0.380257
0.65536
0.469935
0.348292
0.401486
0.355829
0.66524
0.654253
0.282391
0.413855
0.642922
0.416394
0.645105
0.60269
0.382196
0.348337
0.596316
0.660888
0.378332
0.641524
0.649128
0.648222
0.39103
0.662259
0.381468
0.660228
0.607837
0.37342
0.32222
0.378025
0.660018
0.384644
0.36015
0.342247
0.657445
0.643621
0.359635
0.367752
0.349654
0.657717
0.413028
0.656233
0.369021
0.528798
0.658787
0.331631
0.375942
0.373375
0.444263
0.382462
0.637843
0.376633
0.397596
0.656272
0.366019
0.655703
0.616408
0.659998
0.367444
0.649102
0.650287
0.653777
0.655229
0.664765
0.656457
0.370423
0.658489
0.390689
0.643313
0.354911
0.671085
0.448383
0.362968
0.65901
0.651868
0.396033
0.568029
0.384845
0.375919
0.655649
0.653751
0.367958
0.369616
0.357741
0.368949
0.666081
0.642868
0.393641
0.370774
0.651715
0.658285
0.53067
0.649958
0.654546
0.356208
0.654853
0.378886
0.664152
0.342313
0.535577
0.429491
0.655742
0.614451
0.518632
0.303182
0.38709
0.653274
0.545925
0.46005
0.649193
0.372078
0.631169
0.655276
0.326414
0.401056
0.651468
0.315937
0.658746
0.6117
0.290347
0.659151
0.588131
0.401626
0.64065
0.375314
0.639134
0.38998
0.655664
0.610665
0.38647
0.65747
0.648012
0.654895
0.563809
0.633136
0.525295
0.377175
0.363923
0.316925
0.372637
0.663366
0.498658
0.656733
0.654168
0.376803
0.410049
0.638501
0.657924
0.651814
0.666761
0.35229
0.636865
0.657353
0.358447
0.330298
0.655757
0.649309
0.641582
0.362342
0.533208
0.389694
0.638534
0.615988
0.658213
0.631992
0.346868
0.639822
0.647168
0.648617
0.653275
0.654496
0.387205
0.647794
0.387158
0.5789
0.657892
0.412021
0.606655
0.658081
0.663382
0.349006
0.353242
0.526349
0.592901
0.358583
0.372859
0.390101
0.351706
0.621262
0.630348
0.65793
0.328502
0.351794
0.655648
0.625993
0.371841
0.406246
0.412996
0.609645
0.653646
0.648911
0.637463
0.385855
0.35964
0.662014
0.38448
0.361255
0.379448
0.654372
0.389095
0.364484
0.517065
0.646176
0.607887
0.657014
0.65434
0.365688
0.368273
0.388614
0.418469
0.389102
0.38077
0.612824
0.635807
0.634544
0.654183
0.361223
0.360347
0.658337
0.351295
0.654523
0.610849
0.659393
0.36821
0.380208
0.63334
0.659038
0.504644
0.372082
0.645248
0.656816
0.512803
0.664715
0.668698
0.661642
0.589265
0.35311
0.654448
0.658727
0.563083
0.638312
0.66339
0.615653
0.66162
0.656862
0.398055
0.391688
0.357436
0.659098
0.446787
0.351698
0.638942
0.651503
0.387653
0.575491
0.391813
0.581942
0.411223
0.365116
0.658572
0.641887
0.34851
0.494464
0.659018
0.378716
0.654685
0.367842
0.377783
0.555772
0.547777
0.448028
0.652784
0.390048
0.647815
0.396971
0.351197
0.655748
0.347677
0.542774
0.359227
0.574855
0.536917
0.661774
0.645907
0.369588
0.397589
0.562381
0.373763
0.651209
0.40339
0.531072
0.656321
0.648199
0.387703
0.553035
0.608052
0.654183
0.656445
0.30846
0.359402
0.484593
0.607534
0.65194
0.331642
0.653079
0.506292
0.358349
0.364322
0.613154
0.6099
0.662068
0.660144
0.546993
0.629269
0.657265
0.617054
0.370273
0.600377
0.410646
0.660342
0.648939
0.298675
0.66645
0.657895
0.397556
0.362557
0.366676
0.663339
0.355501
0.555536
0.643854
0.601949
0.369355
0.642386
0.36988
0.532573
0.657781
0.658109
0.610832
0.657707
0.558669
0.623081
0.465746
0.642941
0.389306
0.654723
0.655485
0.355078
0.661136
0.633141
0.378257
0.370819
0.380794
0.663186
0.367983
0.661167
0.387218
0.672606
0.365965
0.430001
0.37044
0.645774
0.665423
0.476818
0.25075
0.558602
0.656817
0.386754
0.529709
0.658362
0.378126
0.526939
0.659368
0.658878
0.654391
0.379099
0.414144
0.652259
0.651667
0.580052
0.371792
0.350649
0.646251
0.662384
0.660964
0.662633
0.489889
0.645021
0.484789
0.658589
0.369976
0.371197
0.662502
0.656913
0.657363
0.369827
0.654355
0.49811
0.54018
0.393032
0.372829
0.661407
0.668069
0.497595
0.403891
0.65343
0.660872
0.362689
0.550194
0.637103
0.363741
0.376503
0.36872
0.582383
0.414119
0.380906
0.649134
0.409746
0.65468
0.581597
0.362104
0.36263
0.662888
0.392464
0.390504
0.659004
0.375774
0.312144
0.530927
0.663266
0.648303
0.355355
0.393874
0.370983
0.617827
0.378315
0.649186
0.369792
0.641006
0.642624
0.649447
0.599297
0.63679
0.613604
0.653815
0.658909
0.651973
0.37085
0.389272
0.627555
0.657309
0.453863
0.593539
0.4992
0.657528
0.561655
0.392148
0.657028
0.658791
0.642778
0.390644
0.640073
0.401497
0.651052
0.446969
0.638673
0.654914
0.366456
0.649729
0.347583
0.376025
0.612972
0.37981
0.627086
0.663357
0.669898
0.378086
0.655591
0.358546
0.381121
0.355336
0.380205
0.555225
0.368854
0.576867
0.65785
0.405669
0.372018
0.437794
0.522893
0.57209
0.58505
0.369917
0.366369
0.37171
0.370322
0.253799
0.571947
0.6214
0.388014
0.657554
0.643851
0.368744
0.656074
0.625272
0.657734
0.390779
0.660313
0.631264
0.648922
0.661539
0.362638
0.648799
0.651892
0.640904
0.614109
0.656134
0.369642
0.3611
0.651682
0.482974
0.378221
0.655834
0.369377
0.514635
0.566512
0.636718
0.640329
0.380862
0.590836
0.350111
0.391621
0.632169
0.654155
0.653046
0.659699
0.60018
0.383447
0.65872
0.370122
0.452951
0.661049
0.659924
0.652038
0.389675
0.370152
0.657814
0.374731
0.65503
0.592219
0.381117
0.374167
0.656958
0.361466
0.655084
0.654357
0.59932
0.360641
0.391762
0.44823
0.459049
0.560078
0.417876
0.655963
0.586062
0.647734
0.663539
0.64099
0.363898
0.375323
0.65686
0.656068
0.575278
0.412298
0.371705
0.624269
0.368142
0.654406
0.557963
0.399029
0.650048
0.350227
0.652634
0.395399
0.655088
0.357757
0.649276
0.65631
0.340401
0.65445
0.592336
0.290281
0.657896
0.651545
0.497332
0.369121
0.323346
0.41204
0.651229
0.562079
0.409453
0.528616
0.643716
0.6564
0.36519
0.549905
0.633747
0.416058
0.655797
0.655377
0.27876
0.652944
0.659521
0.39323
0.537416
0.377114
0.580556
0.386719
0.377893
0.651305
0.383906
0.353486
0.369271
0.655866
0.62348
0.356497
0.653176
0.320346
0.613251
0.357204
0.626777
0.322655
0.656166
0.652047
0.590485
0.657987
0.49822
0.656287
0.657653
0.389691
0.580027
0.595305
0.428327
0.640712
0.44309
0.352522
0.658466
0.381032
0.513417
0.391853
0.653221
0.370665
0.371259
0.641967
0.654314
0.367214
0.659116
0.635751
0.663348
0.667183
0.660234
0.352461
0.654014
0.362832
0.376418
0.649762
0.63931
0.672381
0.64518
0.374998
0.387184
0.370337
0.623606
0.657787
0.322177
0.668981
0.367163
0.383459
0.389852
0.646928
0.342853
0.659342
0.651948
0.578856
0.653239
0.651511
0.513663
0.585821
0.390385
0.352098
0.367946
0.660225
0.660439
0.36967
0.57153
0.578671
0.586495
0.379155
0.346798
0.590321
0.248439
0.581551
0.541625
0.359831
0.656654
0.623602
0.353119
0.647941
0.386044
0.656757
0.652277
0.637759
0.369097
0.423482
0.625416
0.269781
0.398624
0.652283
0.278244
0.656441
0.656312
0.62579
0.635527
0.396479
0.659216
0.631477
0.65171
0.326008
0.660222
0.406964
0.37214
0.642917
0.653597
0.657583
0.210864
0.655183
0.579594
0.660304
0.367216
0.367313
0.360521
0.659714
0.36144
0.366727
0.400988
0.539626
0.377977
0.311955
0.398783
0.649535
0.353124
0.657929
0.657256
0.656708
0.376375
0.653325
0.597487
0.657657
0.374343
0.611599
0.37726
0.381786
0.655756
0.366232
0.56807
0.640768
0.66193
0.357691
0.294715
0.395312
0.505998
0.662435
0.209306
0.645654
0.655808
0.637421
0.378623
0.370369
0.308415
0.56379
0.350697
0.663616
0.549979
0.657046
0.64698
0.353428
0.569426
0.371686
0.512553
0.594268
0.657974
0.517309
0.421849
0.611331
0.579814
0.65755
0.380348
0.32425
0.374348
0.637852
0.475514
0.65988
0.357564
0.355443
0.646288
0.652866
0.658327
0.366633
0.657688
0.504403
0.507325
0.565446
0.382021
0.364065
0.275194
0.653839
0.658018
0.612354
0.60042
0.307309
0.671866
0.604423
0.658005
0.657788
0.669447
0.658867
0.656652
0.639644
0.651889
0.378672
0.655255
0.660294
0.655429
0.655506
0.653459
0.522339
0.352574
0.379161
0.568164
0.380938
0.399064
0.657532
0.384736
0.582865
0.655465
0.619683
0.643639
0.38129
0.659327
0.352311
0.369005
0.656587
0.64526
0.654235
0.375142
0.661821
0.652764
0.568455
0.653973
0.411858
0.655603
0.658027
0.621954
0.353878
0.642404
0.376266
0.658557
0.383939
0.3526
0.467583
0.400859
0.658528
0.645165
0.6545
0.401073
0.6558
0.358193
0.377055
0.634105
0.441656
0.371265
0.653669
0.363155
0.46227
0.612196
0.598364
0.637375
0.440275
0.541322
0.599993
0.655362
0.519843
0.653318
0.481468
0.687023
0.596214
0.591043
0.363205
0.355655
0.400605
0.659518
0.378082
0.609208
0.659824
0.544646
0.655288
0.463194
0.626186
0.619007
0.389774
0.658715
0.584224
0.43438
0.587501
0.658378
0.638919
0.656827
0.381301
0.39704
0.643447
0.478682
0.487602
0.65817
0.650525
0.653432
0.650721
0.653977
0.562646
0.58381
0.655853
0.367293
0.37002
0.371644
0.400011
0.661101
0.409018
0.481075
0.650098
0.624559
0.378467
0.644276
0.652434
0.376487
0.334712
0.660905
0.656788
0.382271
0.374655
0.375139
0.663579
0.628693
0.357866
0.363357
0.360024
0.378115
0.316984
0.377801
0.683425
0.652384
0.635265
0.383439
0.621237
0.548643
0.55549
0.376997
0.355863
0.632948
0.662643
0.360998
0.656136
0.352961
0.644077
0.37919
0.656334
0.37111
0.635254
0.661869
0.378975
0.508967
0.376791
0.654406
0.378285
0.55278
0.368798
0.451717
0.384351
0.544273
0.386763
0.658179
0.658305
0.553311
0.635554
0.372941
0.627771
0.65684
0.661805
0.545993
0.614075
0.356851
0.337751
0.371022
0.64993
0.259487
0.657528
0.491858
0.638756
0.659005
0.40579
0.648056
0.377489
0.367793
0.368337
0.456081
0.465766
0.649619
0.389223
0.374211
0.655848
0.341776
0.367619
0.500041
0.328992
0.361766
0.379454
0.672996
0.600629
0.557521
0.373667
0.623474
0.653947
0.355759
0.29042
0.647044
0.65464
0.515971
0.465338
0.372796
0.325277
0.388853
0.664664
0.564886
0.467353
0.629668
0.372175
0.512579
0.351709
0.65898
0.658493
0.357305
0.376733
0.572478
0.492427
0.659608
0.652187
0.652627
0.660727
0.660376
0.385781
0.413006
0.375726
0.353161
0.484596
0.659333
0.602629
0.350803
0.364708
0.400369
0.376616
0.653251
0.596441
0.367284
0.282175
0.655569
0.3789
0.598694
0.648353
0.621126
0.655977
0.495821
0.355987
0.366396
0.578003
0.357993
0.368986
0.355801
0.65706
0.653944
0.358291
0.357174
0.662603
0.386488
0.65519
0.648873
0.355822
0.399304
0.366921
0.654888
0.366107
0.663397
0.637863
0.545444
0.373243
0.478402
0.65615
0.643627
0.358615
0.63928
0.569726
0.404841
0.654942
0.680596
0.385688
0.38169
0.632492
0.388631
0.354021
0.632474
0.310913
0.651222
0.626492
0.646047
0.575316
0.656577
0.655938
0.656664
0.364276
0.370952
0.585124
0.64513
0.423331
0.656272
0.292254
0.656718
0.639235
0.513204
0.593505
0.338708
0.409199
0.645209
0.654804
0.592019
0.662519
0.654971
0.661546
0.668185
0.663008
0.663971
0.636894
0.666187
0.662443
0.65651
0.299087
0.631459
0.389584
0.656684
0.655561
0.642573
0.61134
0.634538
0.395541
0.392719
0.273786
0.357644
0.617479
0.365188
0.391364
0.626906
0.363017
0.638547
0.389953
0.633626
0.649506
0.383182
0.344059
0.398744
0.659272
0.378207
0.649073
0.649116
0.39601
0.630188
0.502067
0.396288
0.387132
0.348561
0.634606
0.380591
0.658285
0.459997
0.378776
0.652301
0.65361
0.652274
0.351948
0.518722
0.368137
0.623287
0.656996
0.656497
0.365598
0.643865
0.657873
0.604391
0.361603
0.658944
0.354644
0.347762
0.654015
0.404875
0.657367
0.347306
0.364792
0.399934
0.611329
0.385769
0.248387
0.391548
0.427648
0.659987
0.650192
0.371402
0.542282
0.654651
0.507363
0.370847
0.397398
0.504407
0.359166
0.348826
0.648561
0.347478
0.352164
0.663575
0.660905
0.377001
0.639567
0.38812
0.661088
0.387911
0.637549
0.658629
0.636154
0.656858
0.406241
0.348965
0.362607
0.656668
0.635902
0.538824
0.487071
0.334344
0.272181
0.655132
0.364469
0.651621
0.344427
0.658269
0.615871
0.369421
0.3868
0.346409
0.356761
0.387474
0.571774
0.618844
0.372011
0.653909
0.581755
0.37837
0.368654
0.657542
0.37355
0.650378
0.385883
0.636113
0.599789
0.653385
0.659766
0.392584
0.653934
0.655665
0.673333
0.383674
0.567884
0.54531
0.399974
0.660011
0.588097
0.68883
0.625788
0.660136
0.653869
0.668809
0.655172
0.651591
0.3786
0.649848
0.346453
0.407028
0.651892
0.364286
0.639455
0.573964
0.371303
0.604277
0.383306
0.387935
0.651513
0.55946
0.661305
0.377647
0.626128
0.563823
0.388517
0.379472
0.646732
0.654142
0.339184
0.397621
0.642179
0.659322
0.372565
0.586429
0.661144
0.603816
0.369638
0.354695
0.375016
0.601311
0.354668
0.639667
0.637889
0.654968
0.549533
0.650768
0.38134
0.642461
0.562995
0.66173
0.514219
0.366816
0.360567
0.375573
0.645204
0.651013
0.383853
0.597427
0.39423
0.592814
0.657405
0.372895
0.567953
0.640618
0.566718
0.381398
0.361382
0.399598
0.654214
0.657699
0.561127
0.46479
0.652329
0.356955
0.578134
0.660816
0.643699
0.381813
0.573661
0.371984
0.585461
0.377495
0.647025
0.652699
0.373303
0.655019
0.376025
0.662521
0.584286
0.663633
0.662515
0.365175
0.65527
0.653668
0.654569
0.64787
0.436847
0.660946
0.369587
0.653558
0.374217
0.371715
0.372122
0.386917
0.360386
0.37897
0.661725
0.329775
0.367527
0.603288
0.655224
0.621723
0.361219
0.630734
0.628638
0.656328
0.322265
0.527319
0.656002
0.411908
0.39738
0.349557
0.572377
0.459418
0.357691
0.532557
0.359792
0.659941
0.452824
0.366291
0.426095
0.594861
0.401402
0.654515
0.370633
0.416341
0.336281
0.664969
0.34291
0.598464
0.660613
0.565536
0.369381
0.349287
0.665318
0.65961
0.39982
0.380898
0.656313
0.363026
0.641566
0.38415
0.50639
0.375673
0.655906
0.412875
0.661327
0.371645
0.657535
0.652321
0.655857
0.661239
0.368894
0.373424
0.358779
0.635459
0.625561
0.609455
0.468447
0.384399
0.646456
0.398206
0.632865
0.541649
0.350772
0.37407
0.649297
0.64747
0.368533
0.658894
0.670754
0.651003
0.647457
0.370985
0.580789
0.348608
0.652248
0.354433
0.657317
0.629093
0.664307
0.662848
0.378863
0.66135
0.384494
0.392397
0.655181
0.661055
0.493835
0.645013
0.661207
0.366462
0.640645
0.662028
0.66938
0.377142
0.382184
0.625696
0.364597
0.656771
0.660504
0.641553
0.665135
0.257166
0.399055
0.594436
0.373172
0.640311
0.655103
0.42108
0.649743
0.257709
0.579816
0.641004
0.623244
0.653644
0.360303
0.37648
0.649582
0.637487
0.376239
0.332202
0.411595
0.376041
0.367155
0.355384
0.39164
0.379903
0.648592
0.373794
0.371434
0.641225
0.491941
0.662497
0.35509
0.35775
0.654824
0.4171
0.423369
0.656192
0.331828
0.606127
0.658146
0.555596
0.628051
0.378716
0.650785
0.657423
0.398167
0.348384
0.352207
0.570311
0.554805
0.659671
0.656223
0.644247
0.631066
0.323398
0.653112
0.65723
0.653
0.350397
0.656089
0.528569
0.328285
0.388286
0.367902
0.371129
0.367173
0.53547
0.613678
0.628547
0.347635
0.351071
0.661801
0.38192
0.647704
0.653501
0.641421
0.623468
0.652645
0.411721
0.369976
0.365745
0.51191
0.360581
0.653214
0.368998
0.655712
0.656085
0.655008
0.399937
0.400966
0.365183
0.651708
0.394172
0.350574
0.658012
0.628395
0.56667
0.65638
0.64503
0.641094
0.358824
0.571511
0.655449
0.480134
0.650629
0.64822
0.644518
0.416015
0.38417
0.67019
0.449245
0.557113
0.355334
0.604934
0.643677
0.353458
0.355867
0.619694
0.457585
0.654668
0.647247
0.380956
0.359982
0.6595
0.334742
0.36549
0.646617
0.646702
0.369024
0.64691
0.659605
0.612445
0.361107
0.536655
0.357859
0.650272
0.658487
0.641353
0.624366
0.659358
0.319535
0.319068
0.638389
0.386997
0.554965
0.376799
0.653686
0.369261
0.592449
0.654583
0.659618
0.365683
0.663448
0.660362
0.35222
0.604685
0.348409
0.672224
0.364418
0.367889
0.374994
0.628042
0.650187
0.290545
0.272392