# vtk DataFile Version 1.0
unstructured grid
ascii
DATASET UNSTRUCTURED_GRID
points 13672 float
0.0796578 -0.059106 0
0.00128732 0.00159165 0
0.00227961 -0.00102548 0
0.0791586 -0.0598787 0
-0.0546216 0.01 0
0.000495206 0.025 0
0.0800549 -0.035 0
0.135172 -0.08 0
-0.0546216 -0.0451168 0
0.000495206 -0.0301168 0
0.0800549 -0.0901168 0
0.135172 -0.135117 0
-0.0546216 -0.0451168 -0.00551168
0.000495206 -0.0301168 -0.00551168
0.0800549 -0.0901168 -0.00551168
0.135172 -0.135117 -0.00551168
0.135172 -0.08 -0.00551168
0.0800549 -0.035 -0.00551168
0.000495206 0.025 -0.00551168
-0.0546216 0.01 -0.00551168
0.00128732 0.00159165 -0.00551168
0.00227961 -0.00102548 -0.00551168
0.0791586 -0.0598787 -0.00551168
0.0796578 -0.059106 -0.00551168
0.00165953 -0.000990923 0
0.00119576 -0.000874076 0
0.000866021 -0.000641801 0
0.000645147 -0.000349912 0
0.00052235 -1.7281e-05 0
0.00049972 0.000348016 0
0.000601632 0.000737716 0
0.000861774 0.0011403 0
0.00157235 0.00183217 0
0.00188647 0.00206725 0
0.00222612 0.00230203 0
0.00258713 0.00254351 0
0.00296826 0.00279524 0
0.00337118 0.00305664 0
0.00379785 0.00332658 0
0.00425045 0.00360349 0
0.00473139 0.00388521 0
0.0052432 0.00416895 0
0.0057881 0.00445204 0
0.00636753 0.00473281 0
0.00698281 0.00500961 0
0.00763526 0.00528058 0
0.00832616 0.00554366 0
0.00905691 0.00579603 0
0.00982918 0.00603333 0
0.0106445 0.00625033 0
0.0115038 0.00644128 0
0.0124073 0.00660297 0
0.0133543 0.00673414 0
0.0143444 0.00683382 0
0.0153769 0.00690031 0
0.0164512 0.00693173 0
0.0175666 0.00692547 0
0.0187219 0.00687822 0
0.0199156 0.00678477 0
0.0211454 0.00663864 0
0.0224084 0.00643275 0
0.0237018 0.00616676 0
0.0250249 0.00584739 0
0.026375 0.00547298 0
0.0277479 0.00503752 0
0.0291386 0.00453545 0
0.0305433 0.0039653 0
0.0319572 0.0033256 0
0.0333681 0.00260019 0
0.034775 0.00179799 0
0.0361793 0.000930615 0
0.0375798 3.12222e-06 0
0.0389689 -0.000988429 0
0.0403357 -0.00205109 0
0.041675 -0.00318283 0
0.0429849 -0.00437751 0
0.0442643 -0.00562904 0
0.0455126 -0.00693089 0
0.0467314 -0.00827518 0
0.0479204 -0.00965638 0
0.0490661 -0.0110799 0
0.0501515 -0.0125519 0
0.0511696 -0.0140695 0
0.0521492 -0.0156071 0
0.0531202 -0.0171411 0
0.0540851 -0.0186663 0
0.0550431 -0.0201798 0
0.0559923 -0.0216793 0
0.0569311 -0.0231626 0
0.0578582 -0.0246273 0
0.0587723 -0.0260715 0
0.0596721 -0.027493 0
0.0605563 -0.02889 0
0.0614241 -0.0302609 0
0.0622742 -0.0316042 0
0.063106 -0.0329183 0
0.0639186 -0.034202 0
0.0647113 -0.0354543 0
0.0654835 -0.0366743 0
0.0662345 -0.0378613 0
0.0669642 -0.0390145 0
0.0676726 -0.0401333 0
0.0683597 -0.0412172 0
0.0690246 -0.0422665 0
0.0696662 -0.0432819 0
0.0702841 -0.0442636 0
0.0708793 -0.0452111 0
0.0714538 -0.0461237 0
0.072009 -0.047001 0
0.0725452 -0.0478434 0
0.0730611 -0.0486524 0
0.073556 -0.0494294 0
0.0740291 -0.0501756 0
0.0744812 -0.0508916 0
0.0749138 -0.0515773 0
0.0753285 -0.0522331 0
0.0757266 -0.0528592 0
0.076109 -0.0534564 0
0.0764753 -0.0540264 0
0.0768243 -0.054571 0
0.0771553 -0.0550919 0
0.0774679 -0.0555901 0
0.0777617 -0.0560669 0
0.0780369 -0.056523 0
0.0782958 -0.0569578 0
0.0785421 -0.0573703 0
0.0787786 -0.0577603 0
0.0790073 -0.0581279 0
0.0792295 -0.058474 0
0.0794462 -0.0587995 0
0.0798803 -0.0594162 0
0.0800272 -0.0596588 0
0.0800357 -0.0598891 0
0.0799275 -0.0600784 0
0.0797205 -0.0601773 0
0.0794593 -0.0601051 0
0.0789155 -0.0596491 0
0.0786707 -0.0593963 0
0.0784111 -0.0591319 0
0.0781372 -0.0588542 0
0.0778566 -0.0585548 0
0.0775715 -0.0582308 0
0.0772803 -0.0578828 0
0.0769832 -0.0575099 0
0.0766822 -0.0571097 0
0.0763801 -0.0566796 0
0.0760759 -0.0562196 0
0.0757623 -0.0557337 0
0.0754359 -0.0552232 0
0.0750951 -0.0546879 0
0.0747379 -0.054128 0
0.0743626 -0.0535435 0
0.0739688 -0.0529338 0
0.0735559 -0.0522981 0
0.0731238 -0.0516357 0
0.0726718 -0.050946 0
0.0721991 -0.0502288 0
0.0717046 -0.049484 0
0.0711872 -0.0487117 0
0.0706461 -0.047912 0
0.0700804 -0.0470849 0
0.0694892 -0.0462308 0
0.0688718 -0.0453499 0
0.0682271 -0.0444431 0
0.0675544 -0.043511 0
0.0668527 -0.0425546 0
0.0661215 -0.0415748 0
0.06536 -0.040573 0
0.0645676 -0.0395504 0
0.0637439 -0.0385087 0
0.0628887 -0.0374493 0
0.062002 -0.0363741 0
0.0610838 -0.0352847 0
0.0601345 -0.0341831 0
0.0591547 -0.033071 0
0.0581456 -0.0319502 0
0.0571083 -0.0308224 0
0.0560444 -0.0296893 0
0.0549562 -0.028552 0
0.053845 -0.0274126 0
0.0527113 -0.0262746 0
0.051554 -0.0251427 0
0.0503724 -0.0240222 0
0.0491675 -0.0229164 0
0.047941 -0.0218282 0
0.0466955 -0.0207597 0
0.0454337 -0.0197126 0
0.0441592 -0.0186878 0
0.0428751 -0.0176863 0
0.0415841 -0.0167097 0
0.0402878 -0.0157609 0
0.0389879 -0.0148428 0
0.0376864 -0.0139575 0
0.0363853 -0.013107 0
0.0350871 -0.0122931 0
0.0337942 -0.0115164 0
0.0325095 -0.0107772 0
0.0312357 -0.0100756 0
0.0299758 -0.00941024 0
0.0287337 -0.00877784 0
0.0275126 -0.00817571 0
0.0263139 -0.00760375 0
0.0251376 -0.00706528 0
0.0239829 -0.0065649 0
0.0228537 -0.00609619 0
0.0217522 -0.00565563 0
0.0206795 -0.00524226 0
0.0196364 -0.00485507 0
0.0186233 -0.00449318 0
0.0176408 -0.00415577 0
0.016689 -0.00384204 0
0.0157682 -0.00355115 0
0.0148783 -0.00328218 0
0.0140192 -0.00303468 0
0.0131906 -0.00280795 0
0.0123925 -0.00260016 0
0.0116246 -0.00241012 0
0.0108864 -0.00223769 0
0.0101774 -0.00208212 0
0.00949701 -0.00194206 0
0.00884483 -0.0018163 0
0.0082202 -0.0017039 0
0.00762247 -0.00160391 0
0.00705097 -0.00151528 0
0.006505 -0.00143697 0
0.0059838 -0.00136806 0
0.00548662 -0.00130772 0
0.00501265 -0.00125519 0
0.00456114 -0.00120954 0
0.00413136 -0.00116914 0
0.00372257 -0.00113251 0
0.00333398 -0.00109853 0
0.00296466 -0.00106798 0
0.00261363 -0.0010431 0
-0.052721 -0.0445996 0
-0.0508204 -0.0440823 0
-0.0489199 -0.0435651 0
-0.0470193 -0.0430478 0
-0.0451187 -0.0425306 0
-0.0432181 -0.0420134 0
-0.0413175 -0.0414961 0
-0.039417 -0.0409789 0
-0.0375164 -0.0404616 0
-0.0356158 -0.0399444 0
-0.0337152 -0.0394271 0
-0.0318146 -0.0389099 0
-0.0299141 -0.0383927 0
-0.0280135 -0.0378754 0
-0.0261129 -0.0373582 0
-0.0242123 -0.0368409 0
-0.0223117 -0.0363237 0
-0.0204112 -0.0358065 0
-0.0185106 -0.0352892 0
-0.01661 -0.034772 0
-0.0147094 -0.0342547 0
-0.0128088 -0.0337375 0
-0.0109083 -0.0332202 0
-0.00900769 -0.032703 0
-0.00710711 -0.0321858 0
-0.00520653 -0.0316685 0
-0.00330595 -0.0311513 0
-0.00140537 -0.030634 0
0.00190689 -0.0299614 0
0.00332271 -0.0298498 0
0.00474133 -0.0297825 0
0.00616136 -0.0297597 0
0.0075814 -0.0297814 0
0.00900007 -0.0298477 0
0.010416 -0.0299583 0
0.0118278 -0.0301127 0
0.0132342 -0.0303103 0
0.0146339 -0.0305504 0
0.0160259 -0.0308322 0
0.0174091 -0.0311546 0
0.0187824 -0.0315166 0
0.020145 -0.031917 0
0.0214961 -0.0323546 0
0.0228351 -0.032828 0
0.0241613 -0.0333361 0
0.0254744 -0.0338774 0
0.0267738 -0.0344507 0
0.0280592 -0.0350545 0
0.0293306 -0.0356877 0
0.0305875 -0.0363488 0
0.0318301 -0.0370367 0
0.0330581 -0.0377501 0
0.0342717 -0.0384879 0
0.0354708 -0.0392489 0
0.0366556 -0.0400321 0
0.0378262 -0.0408363 0
0.0389828 -0.0416607 0
0.0401254 -0.0425042 0
0.0412543 -0.0433659 0
0.0423698 -0.0442451 0
0.043472 -0.0451408 0
0.0445612 -0.0460523 0
0.0456375 -0.0469789 0
0.0467013 -0.0479199 0
0.0477529 -0.0488746 0
0.0487923 -0.0498424 0
0.04982 -0.0508227 0
0.0508362 -0.051815 0
0.051841 -0.0528187 0
0.0528348 -0.0538333 0
0.0538178 -0.0548584 0
0.0547903 -0.0558935 0
0.0557524 -0.0569382 0
0.0567045 -0.0579922 0
0.0576467 -0.0590549 0
0.0585792 -0.0601261 0
0.0595024 -0.0612055 0
0.0604163 -0.0622926 0
0.0613212 -0.0633873 0
0.0622174 -0.0644891 0
0.0631049 -0.0655979 0
0.0639841 -0.0667134 0
0.064855 -0.0678353 0
0.0657179 -0.0689633 0
0.0665729 -0.0700974 0
0.0674202 -0.0712372 0
0.06826 -0.0723826 0
0.0690925 -0.0735333 0
0.0699178 -0.0746892 0
0.070736 -0.0758501 0
0.0715473 -0.0770159 0
0.0723518 -0.0781863 0
0.0731498 -0.0793612 0
0.0739412 -0.0805405 0
0.0747264 -0.081724 0
0.0755053 -0.0829116 0
0.0762781 -0.0841033 0
0.0770449 -0.0852987 0
0.0778059 -0.0864979 0
0.0785611 -0.0877007 0
0.0793108 -0.088907 0
0.0814681 -0.0912706 0
0.0828814 -0.0924245 0
0.0842946 -0.0935783 0
0.0857079 -0.0947322 0
0.0871211 -0.095886 0
0.0885344 -0.0970399 0
0.0899476 -0.0981937 0
0.0913609 -0.0993476 0
0.0927741 -0.100501 0
0.0941874 -0.101655 0
0.0956006 -0.102809 0
0.0970139 -0.103963 0
0.0984272 -0.105117 0
0.0998404 -0.106271 0
0.101254 -0.107424 0
0.102667 -0.108578 0
0.10408 -0.109732 0
0.105493 -0.110886 0
0.106907 -0.11204 0
0.10832 -0.113194 0
0.109733 -0.114348 0
0.111146 -0.115501 0
0.11256 -0.116655 0
0.113973 -0.117809 0
0.115386 -0.118963 0
0.116799 -0.120117 0
0.118213 -0.121271 0
0.119626 -0.122424 0
0.121039 -0.123578 0
0.122452 -0.124732 0
0.123866 -0.125886 0
0.125279 -0.12704 0
0.126692 -0.128194 0
0.128105 -0.129348 0
0.129519 -0.130501 0
0.130932 -0.131655 0
0.132345 -0.132809 0
0.133758 -0.133963 0
0.135172 -0.133216 0
0.135172 -0.131316 0
0.135172 -0.129415 0
0.135172 -0.127514 0
0.135172 -0.125614 0
0.135172 -0.123713 0
0.135172 -0.121813 0
0.135172 -0.119912 0
0.135172 -0.118012 0
0.135172 -0.116111 0
0.135172 -0.11421 0
0.135172 -0.11231 0
0.135172 -0.110409 0
0.135172 -0.108509 0
0.135172 -0.106608 0
0.135172 -0.104708 0
0.135172 -0.102807 0
0.135172 -0.100906 0
0.135172 -0.0990058 0
0.135172 -0.0971052 0
0.135172 -0.0952046 0
0.135172 -0.0933041 0
0.135172 -0.0914035 0
0.135172 -0.0895029 0
0.135172 -0.0876023 0
0.135172 -0.0857017 0
0.135172 -0.0838012 0
0.135172 -0.0819006 0
0.133758 -0.0788462 0
0.132345 -0.0776923 0
0.130932 -0.0765385 0
0.129519 -0.0753846 0
0.128105 -0.0742308 0
0.126692 -0.0730769 0
0.125279 -0.0719231 0
0.123866 -0.0707692 0
0.122452 -0.0696154 0
0.121039 -0.0684615 0
0.119626 -0.0673077 0
0.118213 -0.0661538 0
0.116799 -0.065 0
0.115386 -0.0638462 0
0.113973 -0.0626923 0
0.11256 -0.0615385 0
0.111146 -0.0603846 0
0.109733 -0.0592308 0
0.10832 -0.0580769 0
0.106907 -0.0569231 0
0.105493 -0.0557692 0
0.10408 -0.0546154 0
0.102667 -0.0534615 0
0.101254 -0.0523077 0
0.0998404 -0.0511538 0
0.0984272 -0.05 0
0.0970139 -0.0488462 0
0.0956006 -0.0476923 0
[...]
CELL_DATA 13116
SCALARS rho float
LOOKUP_TABLE default
0.5977
0.5977
0.597267
0.597733
0.597704
0.684058
0.504694
0.597963
0.5977
0.5977
0.460023
0.597578
0.597705
0.586513
0.593257
0.684026
0.5977
0.5977
0.646601
0.446804
0.5977
0.597488
0.596583
0.5977
0.5977
0.597717
0.5977
0.597699
0.5977
0.5977
0.683803
0.597398
0.5977
0.5977
0.515867
0.5977
0.5977
0.599781
0.683956
0.607339
0.680727
0.597864
0.5977
0.595146
0.626655
0.639419
0.5977
0.625558
0.597172
0.5977
0.59841
0.5977
0.549925
0.5977
0.5977
0.5977
0.594928
0.5977
0.5977
0.596077
0.587784
0.597706
0.5977
0.68394
0.683924
0.571715
0.667653
0.5977
0.642825
0.683938
0.593027
0.5977
0.597561
0.589624
0.684241
0.57635
0.5977
0.597842
0.470807
0.5977
0.5977
0.597712
0.5977
0.604526
0.59877
0.5977
0.528813
0.5977
0.597996
0.369914
0.597636
0.5977
0.5977
0.598076
0.5977
0.5977
0.5977
0.683747
0.683822
0.5977
0.5977
0.5977
0.676296
0.5977
0.5977
0.597014
0.597699
0.5977
0.597635
0.5977
0.5977
0.597703
0.5977
0.5977
0.5977
0.658063
0.55808
0.5977
0.598532
0.629398
0.5977
0.597657
0.637208
0.597632
0.597871
0.5977
0.535178
0.5977
0.597272
0.5977
0.598584
0.597705
0.5977
0.59731
0.5977
0.5977
0.702163
0.61139
0.5977
0.628689
0.5977
0.5977
0.5977
0.5977
0.5977
0.593102
0.512737
0.597706
0.597701
0.599394
0.5977
0.606332
0.631315
0.533444
0.5977
0.599562
0.597383
0.5977
0.683831
0.5977
0.5977
0.462206
0.5977
0.597379
0.597676
0.597721
0.597835
0.5977
0.511391
0.5977
0.5977
0.701366
0.592486
0.5977
0.667201
0.596573
0.595964
0.597547
0.597702
0.683996
0.418141
0.5977
0.5977
0.5977
0.68403
0.5977
0.533462
0.680315
0.5977
0.5977
0.5977
0.597705
0.684006
0.597685
0.597702
0.684067
0.5977
0.677084
0.597936
0.5977
0.5977
0.5977
0.5977
0.591806
0.597703
0.599901
0.5977
0.5977
0.594725
0.426283
0.573878
0.682321
0.597571
0.388293
0.378809
0.5401
0.5977
0.683892
0.597837
0.5977
0.593429
0.671593
0.5977
0.415468
0.5977
0.597702
0.5977
0.5977
0.668222
0.5977
0.597807
0.597445
0.683843
0.5977
0.683865
0.601271
0.684038
0.597457
0.5977
0.5977
0.685081
0.684063
0.699444
0.683855
0.598178
0.596353
0.600996
0.597701
0.683732
0.486402
0.597305
0.603754
0.599262
0.683842
0.598952
0.5977
0.5977
0.454159
0.597638
0.5977
0.594398
0.5977
0.5977
0.5977
0.498803
0.616873
0.551646
0.5977
0.5977
0.485672
0.59771
0.597955
0.686754
0.5977
0.597394
0.688632
0.5977
0.68375
0.612253
0.456817
0.515454
0.597679
0.5977
0.59764
0.597601
0.597698
0.597695
0.597841
0.561077
0.598785
0.597729
0.515692
0.43881
0.545549
0.5977
0.597678
0.5977
0.5977
0.597701
0.478033
0.68203
0.5977
0.597669
0.595963
0.684127
0.599766
0.679964
0.539871
0.684092
0.5977
0.597708
0.597851
0.600792
0.597876
0.597695
0.67216
0.584811
0.683591
0.597701
0.5977
0.394662
0.597698
0.597701
0.545069
0.597703
0.597707
0.5977
0.5977
0.5977
0.528866
0.614232
0.5977
0.583845
0.598649
0.5977
0.5977
0.597903
0.5977
0.5977
0.49816
0.5977
0.597698
0.683868
0.5977
0.5977
0.5977
0.5977
0.599338
0.527347
0.597712
0.5977
0.5977
0.700793
0.528964
0.597004
0.597837
0.5977
0.5977
0.521698
0.597441
0.601358
0.597725
0.501731
0.597884
0.571811
0.597225
0.641405
0.598011
0.5977
0.366749
0.6073
0.683692
0.683963
0.607327
0.5977
0.5977
0.5977
0.592274
0.419061
0.68396
0.414687
0.5977
0.5977
0.597683
0.5977
0.5977
0.597683
0.520317
0.599551
0.597641
0.5977
0.5977
0.658744
0.5977
0.599649
0.597161
0.5101
0.5977
0.5977
0.597725
0.5977
0.675396
0.5977
0.5977
0.5977
0.597709
0.5977
0.5977
0.5977
0.5977
0.684095
0.5977
0.5977
0.5977
0.597258
0.5977
0.5977
0.548298
0.66351
0.686515
0.597696
0.422948
0.384729
0.517878
0.5977
0.56941
0.597681
0.679717
0.57041
0.5977
0.369707
0.683902
0.5977
0.597699
0.597318
0.597802
0.5977
0.367411
0.518275
0.367981
0.59765
0.510979
0.416985
0.597649
0.5977
0.413601
0.5977
0.597698
0.59869
0.5977
0.597613
0.5977
0.593868
0.371344
0.594504
0.618007
0.5977
0.5977
0.5977
0.566084
0.5977
0.598144
0.5977
0.5977
0.5977
0.5977
0.508653
0.683942
0.5977
0.5977
0.683793
0.597692
0.557564
0.5977
0.5977
0.5977
0.5977
0.597699
0.5977
0.5977
0.439251
0.595199
0.586981
0.5977
0.595479
0.574497
0.592281
0.583425
0.597729
0.597715
0.5977
0.5977
0.5977
0.597701
0.5977
0.562169
0.5977
0.597695
0.597962
0.597695
0.5977
0.5977
0.620016
0.597782
0.5977
0.5977
0.552389
0.5977
0.597966
0.683898
0.5977
0.5977
0.5977
0.404657
0.5977
0.5977
0.5977
0.597698
0.597674
0.5977
0.5977
0.5977
0.597701
0.597781
0.59773
0.5977
0.5977
0.663828
0.384956
0.616098
0.597699
0.595882
0.376725
0.597721
0.601119
0.597697
0.598497
0.5977
0.389267
0.683949
0.600493
0.5977
0.597698
0.55804
0.597791
0.366928
0.367044
0.59575
0.400303
0.597782
0.579758
0.597723
0.597697
0.5977
0.598764
0.663253
0.597714
0.366876
0.420777
0.599557
0.597796
0.5977
0.597727
0.597701
0.5977
0.522201
0.597698
0.68394
0.5977
0.382129
0.5977
0.597681
0.598187
0.676808
0.597698
0.597568
0.598248
0.5977
0.600177
0.5977
0.597047
0.5977
0.5977
0.685529
0.597446
0.597767
0.597823
0.600028
0.563506
0.699337
0.593133
0.684031
0.5977
0.366676
0.5977
0.597613
0.683938
0.597639
0.493437
0.5977
0.683935
0.5977
0.488498
0.597621
0.380138
0.684082
0.597608
0.684079
0.592168
0.5977
0.597702
0.5977
0.59722
0.596827
0.5977
0.597699
0.597725
0.552204
0.576531
0.683876
0.575128
0.683167
0.597701
0.68384
0.372794
0.598051
0.5977
0.5977
0.683583
0.597837
0.647301
0.596471
0.683861
0.5977
0.597827
0.460707
0.598184
0.5977
0.523508
0.683762
0.5977
0.536765
0.5977
0.597628
0.591912
0.680591
0.618069
0.597684
0.594624
0.477369
0.596501
0.598009
0.5977
0.559395
0.456711
0.597708
0.614542
0.5977
0.5977
0.680573
0.455588
0.5977
0.5977
0.598504
0.5977
0.5977
0.5977
0.675326
0.5977
0.5977
0.5977
0.597698
0.670085
0.5977
0.5977
0.5977
0.592772
0.5977
0.5977
0.5977
0.5977
0.5977
0.5977
0.683804
0.5977
0.597697
0.61272
0.5977
0.597321
0.5977
0.59767
0.597865
0.589429
0.682976
0.5977
0.5977
0.683932
0.5977
0.597728
0.5977
0.5977
0.5977
0.597694
0.5977
0.597643
0.588717
0.704041
0.5977
0.629467
0.597701
0.388632
0.597695
0.5977
0.597702
0.597771
0.597982
0.422033
0.5977
0.597701
0.438944
0.597663
0.598289
0.605786
0.598116
0.596904
0.5977
0.5977
0.5977
0.597701
0.683857
0.597705
0.387457
0.597708
0.59871
0.5977
0.610877
0.683051
0.5977
0.5977
0.428581
0.5977
0.597701
0.5977
0.5977
0.683893
0.598978
0.5977
0.5977
0.5977
0.5977
0.367002
0.366667
0.494742
0.411118
0.5977
0.5977
0.683822
0.597697
0.427456
0.645247
0.5977
0.58195
0.597696
0.5977
0.5977
0.676835
0.605054
0.5977
0.419014
0.366945
0.695801
0.597618
0.388844
0.559367
0.683403
0.5977
0.367136
0.5977
0.598259
0.597701
0.683929
0.68257
0.559757
0.585407
0.485958
0.5977
0.5977
0.597536
0.5977
0.5977
0.597774
0.676697
0.597177
0.369166
0.597701
0.369692
0.683391
0.5977
0.683756
0.597684
0.367831
0.597753
0.683736
0.5977
0.581798
0.599885
0.683947
0.5977
0.599592
0.598093
0.692244
0.5977
0.417133
0.682897
0.683739
0.5977
0.5977
0.704086
0.597703
0.690105
0.615907
0.574806
0.590491
0.368851
0.683745
0.5977
0.369002
0.5977
0.597704
0.59755
0.5977
0.5977
0.5977
0.5977
0.597368
0.597703
0.5977
0.378393
0.5977
0.683711
0.595489
0.598126
0.579615
0.596855
0.5977
0.5977
0.5977
0.672718
0.504087
0.5977
0.594679
0.597351
0.683421
0.385193
0.5977
0.597662
0.5977
0.5977
0.691278
0.597808
0.591733
0.580038
0.5977
0.5977
0.597751
0.5977
0.5977
0.684082
0.5977
0.5977
0.5977
0.597701
0.5977
0.655327
0.597699
0.366638
0.5977
0.597701
0.5977
0.5977
0.676358
0.5977
0.5977
0.597674
0.5977
0.5977
0.697402
0.684001
0.5977
0.5977
0.68413
0.5977
0.59755
0.5977
0.5977
0.606487
0.606172
0.597695
0.597798
0.597717
0.593093
0.59712
0.54205
0.703197
0.459782
0.5977
0.5977
0.5977
0.597683
0.598499
0.59172
0.5977
0.683945
0.683766
0.5977
0.684077
0.5977
0.5977
0.5977
0.597827
0.590355
0.683668
0.665792
0.5977
0.687603
0.5977
0.59769
0.592795
0.595988
0.600559
0.366702
0.688526
0.485494
0.597998
0.560532
0.5977
0.596461
0.5977
0.598001
0.5977
0.597687
0.5977
0.683901
0.433533
0.5977
0.597714
0.597501
0.5977
0.683711
0.597702
0.683061
0.597698
0.5977
0.597735
0.64707
0.5977
0.36699
0.5977
0.601454
0.697478
0.685396
0.700978
0.5977
0.597705
0.5977
0.613571
0.366981
0.59243
0.698242
0.597705
0.68399
0.576977
0.683451
0.5977
0.5977
0.589064
0.5977
0.597843
0.597772
0.5977
0.5977
0.672893
0.685492
0.501331
0.5977
0.5977
0.504636
0.597596
0.586527
0.5977
0.597632
0.382435
0.608519
0.5977
0.5977
0.5977
0.517209
0.515906
0.597744
0.59095
0.570047
0.683706
0.597551
0.5977
0.5977
0.597813
0.597833
0.425278
0.5977
0.467863
0.597701
0.597157
0.597884
0.573193
0.597701
0.597759
0.617323
0.5977
0.597702
0.597701
0.678596
0.597715
0.598048
0.576795
0.45606
0.5977
0.684089
0.5977
0.5977
0.5977
0.684096
0.5977
0.597698
0.641403
0.597708
0.598003
0.496923
0.597706
0.597667
0.602275
0.5977
0.5977
0.683112
0.597397
0.597711
0.383061
0.5977
0.5977
0.564501
0.5977
0.703711
0.59818
0.526436
0.680213
0.409885
0.597679
0.597687
0.378252
0.5977
0.593387
0.5977
0.683871
0.5977
0.597692
0.5977
0.5977
0.5977
0.5977
0.373151
0.554609
0.496386
0.59617
0.597686
0.5977
0.597706
0.597699
0.683842
0.5977
0.584372
0.597706
0.5977
0.683899
0.47339
0.684217
0.5977
0.5977
0.603286
0.59535
0.597775
0.5977
0.597707
0.5977
0.683872
0.597621
0.597688
0.610956
0.5977
0.367038
0.683772
0.597401
0.5977
0.5977
0.59781
0.597938
0.597638
0.5977
0.5977
0.497471
0.5977
0.59772
0.5977
0.60095
0.5977
0.597682
0.597706
0.595793
0.5977
0.597724
0.683962
0.597742
0.486931
0.597661
0.597701
0.59767
0.59781
0.5977
0.5977
0.597691
0.630895
0.597644
0.683231
0.597789
0.5977
0.597657
0.591574
0.5977
0.5977
0.5977
0.5977
0.683844
0.5977
0.599464
0.704196
0.5977
0.530965
0.597687
0.597828
0.683876
0.5977
0.5977
0.58995
0.5977
0.59107
0.679199
0.5977
0.5977
0.597722
0.430318
0.597772
0.597324
0.597701
0.597231
0.598991
0.68396
0.597547
0.597932
0.5977
0.597622
0.683829
0.652869
0.5977
0.593058
0.5977
0.5977
0.5977
0.5977
0.597698
0.5977
0.5977
0.683931
0.597684
0.5977
0.597726
0.5977
0.683818
0.683603
0.597693
0.599211
0.683609
0.597034
0.5977
0.502425
0.5977
0.515344
0.596887
0.5977
0.376588
0.378806
0.59015
0.674428
0.597702
0.5977
0.669083
0.5977
0.5977
0.404081
0.597703
0.5977
0.684086
0.61193
0.5977
0.683803
0.5977
0.683966
0.683837
0.597673
0.5977
0.5977
0.5977
0.5977
0.5977
0.5977
0.597706
0.434753
0.5977
0.5977
0.676181
0.575589
0.597676
0.5977
0.68116
0.433445
0.612129
0.5977
0.703592
0.59805
0.684172
0.410421
0.597704
0.402188
0.597532
0.597987
0.5977
0.597895
0.598759
0.597319
0.524628
0.473459
0.5977
0.683815
0.5977
0.597855
0.570685
0.524728
0.579983
0.598254
0.5977
0.597705
0.597929
0.5977
0.614168
0.598111
0.5977
0.5977
0.5977
0.597623
0.424687
0.684087
0.684375
0.580906
0.5977
0.5977
0.5977
0.597692
0.5977
0.5977
0.597693
0.5977
0.5977
0.391776
0.683839
0.5977
0.367911
0.597857
0.566281
0.634942
0.5977
0.597703
0.59201
0.5977
0.5977
0.597696
0.5977
0.625228
0.597698
0.68386
0.658338
0.597709
0.5977
0.5977
0.683819
0.5977
0.649251
0.597699
0.599063
0.596363
0.590359
0.598701
0.676066
0.683822
0.597688
0.682873
0.5977
0.684467
0.560294
0.570168
0.367008
0.605514
0.49287
0.574859
0.597147
0.5977
0.571498
0.597694
0.5977
0.597996
0.374895
0.683819
0.683873
0.61379
0.533315
0.604443
0.5977
0.68384
0.5977
0.5977
0.518174
0.434188
0.681423
0.434053
0.5977
0.5977
0.694804
0.378418
0.597698
0.53092
0.5977
0.700676
0.59769
0.600035
0.676735
0.5977
0.408346
0.595212
0.597699
0.5977
0.37266
0.704156
0.5977
0.683894
0.602978
0.453102
0.5977
0.596676
0.5977
0.5977
0.597701
0.5977
0.5977
0.5977
0.5977
0.597817
0.482001
0.5977
0.577822
0.5977
0.5977
0.683922
0.379023
0.5977
0.5977
0.602912
0.683747
0.425462
0.609973
0.5977
0.5977
0.5977
0.597687
0.422199
0.597694
0.675297
0.683917
0.5977
0.597701
0.597699
0.59808
0.5977
0.683938
0.68382
0.598283
0.597707
0.684015
0.5977
0.5977
0.597698
0.609086
0.600168
0.683833
0.600561
0.673775
0.5977
0.38961
0.597425
0.5977
0.367277
0.5977
0.606412
0.587378
0.5977
0.653405
0.5977
0.598143
0.597697
0.60431
0.59769
0.587791
0.684023
0.597712
0.67617
0.546858
0.598074
0.672319
0.5977
0.681285
0.597201
0.683841
0.597701
0.5977
0.5977
0.5977
0.452741
0.597751
0.573232
0.3842
0.5977
0.5977
0.597703
0.5977
0.683444
0.596693
0.683859
0.5977
0.589894
0.597738
0.5977
0.367835
0.680666
0.597582
0.5977
0.5977
0.5977
0.597851
0.5977
0.5977
0.5977
0.684047
0.5977
0.5977
0.5977
0.597803
0.597701
0.5977
0.596903
0.467732
0.5977
0.600868
0.597688
0.5977
0.608783
0.5977
0.683972
0.5977
0.5977
0.5977
0.474314
0.615325
0.5977
0.5977
0.5977
0.597702
0.59773
0.683921
0.407933
0.582566
0.597783
0.5977
0.5977
0.615711
0.601276
0.666344
0.5977
0.5977
0.5977
0.5977
0.597701
0.584751
0.597639
0.579625
0.5977
0.68836
0.5977
0.5977
0.597728
0.5977
0.597628
0.598109
0.597733
0.55333
0.5977
0.686246
0.607411
0.597699
0.597075
0.59594
0.704285
0.597714
0.5977
0.529479
0.39896
0.597405
0.5977
0.366854
0.597819
0.616109
0.5977
0.487149
0.5977
0.5977
0.5977
0.597698
0.435359
0.597728
0.701253
0.368002
0.683937
0.368363
0.5977
0.597696
0.611285
0.490057
0.597797
0.597815
0.524463
0.5977
0.597676
0.597705
0.597573
0.5977
0.59715
0.5977
0.514954
0.5977
0.427175
0.683793
0.683946
0.5977
0.597701
0.597698
0.597705
0.683851
0.597921
0.5977
0.5977
0.429748
0.5977
0.577862
0.5977
0.597693
0.597716
0.5977
0.5977
0.597702
0.5977
0.5977
0.590413
0.585199
0.584182
0.5977
0.5977
0.600102
0.474332
0.597537
0.683807
0.5977
0.597608
0.5977
0.5977
0.367398
0.597371
0.597845
0.5977
0.5977
0.595418
0.597701
0.671752
0.597449
0.597698
0.598969
0.683411
0.5977
0.5977
0.5977
0.597699
0.526629
0.59809
0.5977
0.5977
0.5977
0.595601
0.5977
0.441672
0.683869
0.597738
0.416172
0.597662
0.5977
0.5977
0.597727
0.5977
0.5977
0.604415
0.597714
0.550355
0.597415
0.580799
0.452967
0.5977
0.683668
0.5977
0.42992
0.378155
0.5977
0.597579
0.663303
0.5977
0.38101
0.597698
0.656967
0.597428
0.5977
0.5977
0.597702
0.683852
0.5977
0.367071
0.508423
0.5977
0.409088
0.5977
0.5977
0.683927
0.642089
0.597687
0.389227
0.702109
0.435307
0.675881
0.5977
0.370502
0.593658
0.557062
0.649104
0.561097
0.703739
0.5977
0.5977
0.597319
0.5977
0.597783
0.598891
0.490723
0.597905
0.5977
0.597672
0.598178
0.597795
0.480464
0.369666
0.59774
0.450998
0.453844
0.597716
0.597699
0.614084
0.5977
0.5977
0.5977
0.597705
0.664455
0.683964
0.48026
0.5977
0.5977
0.597758
0.5977
0.597705
0.597699
0.619611
0.59792
0.5977
0.5977
0.5977
0.5977
0.598278
0.597707
0.5977
0.597838
0.675191
0.691103
0.598171
0.70351
0.597853
0.597753
0.59841
0.698282
0.683991
0.597653
0.597716
0.597658
0.634102
0.611112
0.5977
0.597701
0.5977
0.591768
0.528535
0.597697
0.484208
0.597701
0.475543
0.481336
0.5977
0.597095
0.5977
0.519527
0.597728
0.597809
0.377096
0.5977
0.5977
0.603777
0.594632
0.600187
0.597707
0.540326
0.597722
0.5977
0.5977
0.597697
0.59746
0.5977
0.368465
0.61502
0.5977
0.597689
0.66509
0.679677
0.5977
0.368222
0.5977
0.597226
0.5977
0.684134
0.654431
0.366724
0.597738
0.613732
0.597701
0.5977
0.603757
0.367188
0.403838
0.602431
0.5977
0.5977
0.5977
0.366852
0.5977
0.597701
0.597655
0.597654
0.590861
0.5977
0.683902
0.59774
0.58506
0.5977
0.665645
0.5977
0.5977
0.5977
0.5977
0.366637
0.420964
0.607468
0.398551
0.369241
0.599878
0.597728
0.558752
0.5977
0.553558
0.688004
0.5977
0.597753
0.683901
0.5977
0.683811
0.595963
0.4257
0.597636
0.684101
0.597764
0.5977
0.5977
0.597699
0.597696
0.683805
0.474018
0.614463
0.5977
0.683828
0.5977
0.519496
0.596522
0.392827
0.389597
0.597289
0.5977
0.597701
0.486272
0.603864
0.5977
0.597695
0.591231
0.597716
0.368964
0.598093
0.5977
0.5977
0.5977
0.606405
0.683714
0.586327
0.5977
0.628969
0.59781
0.372854
0.5977
0.5977
0.5977
0.601595
0.5977
0.597809
0.597704
0.597711
0.600514
0.597875
0.683811
0.655742
0.381911
0.5977
0.391732
0.5977
0.623708
0.597598
0.598012
0.5977
0.597437
0.597701
0.372496
0.597649
0.59835
0.5977
0.59773
0.431802
0.597705
0.5977
0.597699
0.487019
0.597763
0.675275
0.5977
0.594134
0.5977
0.597718
0.367339
0.5977
0.597754
0.5977
0.54698
0.367376
0.597519
0.5977
0.597298
0.597918
0.5977
0.683758
0.5977
0.598017
0.429652
0.598051
0.5977
0.597818
0.5977
0.597694
0.487332
0.596324
0.5977
0.597719
0.5977
0.5977
0.5977
0.5977
0.63472
0.593617
0.5977
0.597993
0.5977
0.498241
0.50973
0.5977
0.59781
0.5977
0.5977
0.5977
0.600032
0.368596
0.5977
0.685812
0.597726
0.504645
0.5977
0.597525
0.5977
0.597083
0.598616
0.598218
0.594486
0.598041
0.5977
0.700156
0.5977
0.70423
0.601774
0.5977
0.683852
0.679088
0.651918
0.598867
0.5977
0.68711
0.570636
0.676084
0.595828
0.404556
0.596992
0.597085
0.36675
0.496482
0.597733
0.5977
0.579068
0.5977
0.597984
0.597701
0.5977
0.5977
0.5977
0.683867
0.597677
0.5977
0.666878
0.597688
0.5959
0.428067
0.5977
0.5977
0.371906
0.5977
0.597269
0.683868
0.5977
0.545119
0.5977
0.5977
0.5977
0.675513
0.594055
0.5977
0.5977
0.59829
0.5977
0.5977
0.68563
0.5977
0.5977
0.397485
0.597958
0.597711
0.596418
0.59768
0.684062
0.400041
0.5977
0.484671
0.5977
0.596166
0.66671
0.597451
0.597722
0.409114
0.631992
0.59853
0.597713
0.689154
0.568979
0.597412
0.5977
0.597722
0.5977
0.597701
0.5977
0.597458
0.5977
0.5977
0.597743
0.5977
0.5977
0.59769
0.5977
0.599493
0.59702
0.683819
0.59792
0.5977
0.5977
0.594797
0.5977
0.379337
0.5977
0.597433
0.683811
0.597718
0.597806
0.597739
0.597693
0.59775
0.379805
0.488515
0.678207
0.686561
0.5977
0.597902
0.687542
0.369769
0.5977
0.598252
0.59796
0.597679
0.5977
0.5977
0.484632
0.612832
0.605138
0.598337
0.598518
0.597692
0.5977
0.5977
0.59567
0.597957
0.597708
0.5977
0.598053
0.597688
0.5977
0.5977
0.5977
0.597959
0.51002
0.597695
0.599531
0.597822
0.597162
0.597699
0.597113
0.597102
0.578086
0.597607
0.597694
0.367156
0.598608
0.59561
0.548035
0.5977
0.5977
0.700007
0.5977
0.383021
0.656361
0.5977
0.5977
0.5977
0.5977
0.5977
0.683852
0.5977
0.597703
0.593948
0.597752
0.683915
0.557555
0.410816
0.5977
0.5977
0.5977
0.597707
0.684015
0.597724
0.597704
0.5977
0.597974
0.683918
0.597774
0.382106
0.658023
0.5977
0.5977
0.5977
0.556538
0.59667
0.579765
0.5977
0.5977
0.5977
0.416059
0.5977
0.597782
0.597532
0.597702
0.676918
0.598218
0.5977
0.603046
0.597679
0.596988
0.596511
0.5977
0.597303
0.635445
0.596514
0.680707
0.683861
0.610538
0.597698
0.5977
0.5977
0.598352
0.590084
0.433521
0.604052
0.597704
0.5977
0.684063
0.597743
0.5977
0.366706
0.5977
0.597701
0.5977
0.598305
0.597701
0.5977
0.5977
0.5977
0.597917
0.5977
0.5977
0.381491
0.5977
0.598965
0.5977
0.597301
0.5977
0.5977
0.597704
0.597701
0.367893
0.430084
0.683632
0.5977
0.5977
0.600399
0.597768
0.597578
0.602933
0.683765
0.5977
0.36671
0.5977
0.366886
0.603409
0.597748
0.5977
0.5977
0.683849
0.597696
0.5977
0.597701
0.406173
0.5977
0.597675
0.603427
0.591014
0.5977
0.597701
0.683836
0.366734
0.703985
0.684263
0.445663
0.5977
0.597432
0.597822
0.367133
0.506998
0.594182
0.5977
0.624557
0.597698
0.597697
0.597707
0.597716
0.5977
0.5977
0.366811
0.5977
0.391088
0.597701
0.430913
0.5977
0.599361
0.5977
0.5977
0.500366
0.683966
0.570285
0.437361
0.5977
0.597693
0.5977
0.5977
0.593564
0.597702
0.683657
0.597796
0.5977
0.597663
0.5977
0.597661
0.422055
0.597832
0.683908
0.5977
0.367193
0.5977
0.5977
0.597701
0.5977
0.5977
0.5977
0.5977
0.5977
0.597702
0.597706
0.5977
0.597774
0.597651
0.5977
0.394104
0.597504
0.597267
0.417231
0.597702
0.598298
0.597704
0.5977
0.597711
0.597699
0.5977
0.597686
0.595714
0.447775
0.59662
0.403223
0.597712
0.598887
0.443728
0.591869
0.684034
0.597693
0.5977
0.5977
0.5977
0.5977
0.5977
0.5977
0.5977
0.682791
0.599855
0.597718
0.597709
0.5977
0.5977
0.666625
0.597637
0.588389
0.5977
0.5977
0.597662
0.597691
0.381552
0.5977
0.5977
0.5977
0.5977
0.596914
0.597698
0.5977
0.5977
0.460909
0.5977
0.366733
0.5977
0.5977
0.648517
0.597752
0.598544
0.597557
0.596863
0.699567
0.59782
0.5977
0.597805
0.586858
0.560702
0.5977
0.596684
0.597697
0.642452
0.685188
0.5977
0.5977
0.683949
0.597698
0.700295
0.5977
0.5977
0.597721
0.5977
0.5977
0.69993
0.597671
0.5977
0.5977
0.5977
0.5977
0.598965
0.685505
0.597707
0.685399
0.597762
0.446132
0.686754
0.60015
0.597705
0.452713
0.367154
0.561273
0.5977
0.368805
0.581661
0.598778
0.597701
0.487515
0.597634
0.635204
0.5977
0.680765
0.5977
0.69782
0.5977
0.59772
0.597749
0.623722
0.60274
0.5977
0.582378
0.597742
0.5977
0.377577
0.5977
0.598327