# vtk DataFile Version 1.0
unstructured grid
ascii
DATASET UNSTRUCTURED_GRID
points 13672 float
0.0796578 -0.059106 0
0.00128732 0.00159165 0
0.00227961 -0.00102548 0
0.0791586 -0.0598787 0
-0.0546216 0.01 0
0.000495206 0.025 0
0.0800549 -0.035 0
0.135172 -0.08 0
-0.0546216 -0.0451168 0
0.000495206 -0.0301168 0
0.0800549 -0.0901168 0
0.135172 -0.135117 0
-0.0546216 -0.0451168 -0.00551168
0.000495206 -0.0301168 -0.00551168
0.0800549 -0.0901168 -0.00551168
0.135172 -0.135117 -0.00551168
0.135172 -0.08 -0.00551168
0.0800549 -0.035 -0.00551168
0.000495206 0.025 -0.00551168
-0.0546216 0.01 -0.00551168
0.00128732 0.00159165 -0.00551168
0.00227961 -0.00102548 -0.00551168
0.0791586 -0.0598787 -0.00551168
0.0796578 -0.059106 -0.00551168
0.00165953 -0.000990923 0
0.00119576 -0.000874076 0
0.000866021 -0.000641801 0
0.000645147 -0.000349912 0
0.00052235 -1.7281e-05 0
0.00049972 0.000348016 0
0.000601632 0.000737716 0
0.000861774 0.0011403 0
0.00157235 0.00183217 0
0.00188647 0.00206725 0
0.00222612 0.00230203 0
0.00258713 0.00254351 0
0.00296826 0.00279524 0
0.00337118 0.00305664 0
0.00379785 0.00332658 0
0.00425045 0.00360349 0
0.00473139 0.00388521 0
0.0052432 0.00416895 0
0.0057881 0.00445204 0
0.00636753 0.00473281 0
0.00698281 0.00500961 0
0.00763526 0.00528058 0
0.00832616 0.00554366 0
0.00905691 0.00579603 0
0.00982918 0.00603333 0
0.0106445 0.00625033 0
0.0115038 0.00644128 0
0.0124073 0.00660297 0
0.0133543 0.00673414 0
0.0143444 0.00683382 0
0.0153769 0.00690031 0
0.0164512 0.00693173 0
0.0175666 0.00692547 0
0.0187219 0.00687822 0
0.0199156 0.00678477 0
0.0211454 0.00663864 0
0.0224084 0.00643275 0
0.0237018 0.00616676 0
0.0250249 0.00584739 0
0.026375 0.00547298 0
0.0277479 0.00503752 0
0.0291386 0.00453545 0
0.0305433 0.0039653 0
0.0319572 0.0033256 0
0.0333681 0.00260019 0
0.034775 0.00179799 0
0.0361793 0.000930615 0
0.0375798 3.12222e-06 0
0.0389689 -0.000988429 0
0.0403357 -0.00205109 0
0.041675 -0.00318283 0
0.0429849 -0.00437751 0
0.0442643 -0.00562904 0
0.0455126 -0.00693089 0
0.0467314 -0.00827518 0
0.0479204 -0.00965638 0
0.0490661 -0.0110799 0
0.0501515 -0.0125519 0
0.0511696 -0.0140695 0
0.0521492 -0.0156071 0
0.0531202 -0.0171411 0
0.0540851 -0.0186663 0
0.0550431 -0.0201798 0
0.0559923 -0.0216793 0
0.0569311 -0.0231626 0
0.0578582 -0.0246273 0
0.0587723 -0.0260715 0
0.0596721 -0.027493 0
0.0605563 -0.02889 0
0.0614241 -0.0302609 0
0.0622742 -0.0316042 0
0.063106 -0.0329183 0
0.0639186 -0.034202 0
0.0647113 -0.0354543 0
0.0654835 -0.0366743 0
0.0662345 -0.0378613 0
0.0669642 -0.0390145 0
0.0676726 -0.0401333 0
0.0683597 -0.0412172 0
0.0690246 -0.0422665 0
0.0696662 -0.0432819 0
0.0702841 -0.0442636 0
0.0708793 -0.0452111 0
0.0714538 -0.0461237 0
0.072009 -0.047001 0
0.0725452 -0.0478434 0
0.0730611 -0.0486524 0
0.073556 -0.0494294 0
0.0740291 -0.0501756 0
0.0744812 -0.0508916 0
0.0749138 -0.0515773 0
0.0753285 -0.0522331 0
0.0757266 -0.0528592 0
0.076109 -0.0534564 0
0.0764753 -0.0540264 0
0.0768243 -0.054571 0
0.0771553 -0.0550919 0
0.0774679 -0.0555901 0
0.0777617 -0.0560669 0
0.0780369 -0.056523 0
0.0782958 -0.0569578 0
0.0785421 -0.0573703 0
0.0787786 -0.0577603 0
0.0790073 -0.0581279 0
0.0792295 -0.058474 0
0.0794462 -0.0587995 0
0.0798803 -0.0594162 0
0.0800272 -0.0596588 0
0.0800357 -0.0598891 0
0.0799275 -0.0600784 0
0.0797205 -0.0601773 0
0.0794593 -0.0601051 0
0.0789155 -0.0596491 0
0.0786707 -0.0593963 0
0.0784111 -0.0591319 0
0.0781372 -0.0588542 0
0.0778566 -0.0585548 0
0.0775715 -0.0582308 0
0.0772803 -0.0578828 0
0.0769832 -0.0575099 0
0.0766822 -0.0571097 0
0.0763801 -0.0566796 0
0.0760759 -0.0562196 0
0.0757623 -0.0557337 0
0.0754359 -0.0552232 0
0.0750951 -0.0546879 0
0.0747379 -0.054128 0
0.0743626 -0.0535435 0
0.0739688 -0.0529338 0
0.0735559 -0.0522981 0
0.0731238 -0.0516357 0
0.0726718 -0.050946 0
0.0721991 -0.0502288 0
0.0717046 -0.049484 0
0.0711872 -0.0487117 0
0.0706461 -0.047912 0
0.0700804 -0.0470849 0
0.0694892 -0.0462308 0
0.0688718 -0.0453499 0
0.0682271 -0.0444431 0
0.0675544 -0.043511 0
0.0668527 -0.0425546 0
0.0661215 -0.0415748 0
0.06536 -0.040573 0
0.0645676 -0.0395504 0
0.0637439 -0.0385087 0
0.0628887 -0.0374493 0
0.062002 -0.0363741 0
0.0610838 -0.0352847 0
0.0601345 -0.0341831 0
0.0591547 -0.033071 0
0.0581456 -0.0319502 0
0.0571083 -0.0308224 0
0.0560444 -0.0296893 0
0.0549562 -0.028552 0
0.053845 -0.0274126 0
0.0527113 -0.0262746 0
0.051554 -0.0251427 0
0.0503724 -0.0240222 0
0.0491675 -0.0229164 0
0.047941 -0.0218282 0
0.0466955 -0.0207597 0
0.0454337 -0.0197126 0
0.0441592 -0.0186878 0
0.0428751 -0.0176863 0
0.0415841 -0.0167097 0
0.0402878 -0.0157609 0
0.0389879 -0.0148428 0
0.0376864 -0.0139575 0
0.0363853 -0.013107 0
0.0350871 -0.0122931 0
0.0337942 -0.0115164 0
0.0325095 -0.0107772 0
0.0312357 -0.0100756 0
0.0299758 -0.00941024 0
0.0287337 -0.00877784 0
0.0275126 -0.00817571 0
0.0263139 -0.00760375 0
0.0251376 -0.00706528 0
0.0239829 -0.0065649 0
0.0228537 -0.00609619 0
0.0217522 -0.00565563 0
0.0206795 -0.00524226 0
0.0196364 -0.00485507 0
0.0186233 -0.00449318 0
0.0176408 -0.00415577 0
0.016689 -0.00384204 0
0.0157682 -0.00355115 0
0.0148783 -0.00328218 0
0.0140192 -0.00303468 0
0.0131906 -0.00280795 0
0.0123925 -0.00260016 0
0.0116246 -0.00241012 0
0.0108864 -0.00223769 0
0.0101774 -0.00208212 0
0.00949701 -0.00194206 0
0.00884483 -0.0018163 0
0.0082202 -0.0017039 0
0.00762247 -0.00160391 0
0.00705097 -0.00151528 0
0.006505 -0.00143697 0
0.0059838 -0.00136806 0
0.00548662 -0.00130772 0
0.00501265 -0.00125519 0
0.00456114 -0.00120954 0
0.00413136 -0.00116914 0
0.00372257 -0.00113251 0
0.00333398 -0.00109853 0
0.00296466 -0.00106798 0
0.00261363 -0.0010431 0
-0.052721 -0.0445996 0
-0.0508204 -0.0440823 0
-0.0489199 -0.0435651 0
-0.0470193 -0.0430478 0
-0.0451187 -0.0425306 0
-0.0432181 -0.0420134 0
-0.0413175 -0.0414961 0
-0.039417 -0.0409789 0
-0.0375164 -0.0404616 0
-0.0356158 -0.0399444 0
-0.0337152 -0.0394271 0
-0.0318146 -0.0389099 0
-0.0299141 -0.0383927 0
-0.0280135 -0.0378754 0
-0.0261129 -0.0373582 0
-0.0242123 -0.0368409 0
-0.0223117 -0.0363237 0
-0.0204112 -0.0358065 0
-0.0185106 -0.0352892 0
-0.01661 -0.034772 0
-0.0147094 -0.0342547 0
-0.0128088 -0.0337375 0
-0.0109083 -0.0332202 0
-0.00900769 -0.032703 0
-0.00710711 -0.0321858 0
-0.00520653 -0.0316685 0
-0.00330595 -0.0311513 0
-0.00140537 -0.030634 0
0.00190689 -0.0299614 0
0.00332271 -0.0298498 0
0.00474133 -0.0297825 0
0.00616136 -0.0297597 0
0.0075814 -0.0297814 0
0.00900007 -0.0298477 0
0.010416 -0.0299583 0
0.0118278 -0.0301127 0
0.0132342 -0.0303103 0
0.0146339 -0.0305504 0
0.0160259 -0.0308322 0
0.0174091 -0.0311546 0
0.0187824 -0.0315166 0
0.020145 -0.031917 0
0.0214961 -0.0323546 0
0.0228351 -0.032828 0
0.0241613 -0.0333361 0
0.0254744 -0.0338774 0
0.0267738 -0.0344507 0
0.0280592 -0.0350545 0
0.0293306 -0.0356877 0
0.0305875 -0.0363488 0
0.0318301 -0.0370367 0
0.0330581 -0.0377501 0
0.0342717 -0.0384879 0
0.0354708 -0.0392489 0
0.0366556 -0.0400321 0
0.0378262 -0.0408363 0
0.0389828 -0.0416607 0
0.0401254 -0.0425042 0
0.0412543 -0.0433659 0
0.0423698 -0.0442451 0
0.043472 -0.0451408 0
0.0445612 -0.0460523 0
0.0456375 -0.0469789 0
0.0467013 -0.0479199 0
0.0477529 -0.0488746 0
0.0487923 -0.0498424 0
0.04982 -0.0508227 0
0.0508362 -0.051815 0
0.051841 -0.0528187 0
0.0528348 -0.0538333 0
0.0538178 -0.0548584 0
0.0547903 -0.0558935 0
0.0557524 -0.0569382 0
0.0567045 -0.0579922 0
0.0576467 -0.0590549 0
0.0585792 -0.0601261 0
0.0595024 -0.0612055 0
0.0604163 -0.0622926 0
0.0613212 -0.0633873 0
0.0622174 -0.0644891 0
0.0631049 -0.0655979 0
0.0639841 -0.0667134 0
0.064855 -0.0678353 0
0.0657179 -0.0689633 0
0.0665729 -0.0700974 0
0.0674202 -0.0712372 0
0.06826 -0.0723826 0
0.0690925 -0.0735333 0
0.0699178 -0.0746892 0
0.070736 -0.0758501 0
0.0715473 -0.0770159 0
0.0723518 -0.0781863 0
0.0731498 -0.0793612 0
0.0739412 -0.0805405 0
0.0747264 -0.081724 0
0.0755053 -0.0829116 0
0.0762781 -0.0841033 0
0.0770449 -0.0852987 0
0.0778059 -0.0864979 0
0.0785611 -0.0877007 0
0.0793108 -0.088907 0
0.0814681 -0.0912706 0
0.0828814 -0.0924245 0
0.0842946 -0.0935783 0
0.0857079 -0.0947322 0
0.0871211 -0.095886 0
0.0885344 -0.0970399 0
0.0899476 -0.0981937 0
0.0913609 -0.0993476 0
0.0927741 -0.100501 0
0.0941874 -0.101655 0
0.0956006 -0.102809 0
0.0970139 -0.103963 0
0.0984272 -0.105117 0
0.0998404 -0.106271 0
0.101254 -0.107424 0
0.102667 -0.108578 0
0.10408 -0.109732 0
0.105493 -0.110886 0
0.106907 -0.11204 0
0.10832 -0.113194 0
0.109733 -0.114348 0
0.111146 -0.115501 0
0.11256 -0.116655 0
0.113973 -0.117809 0
0.115386 -0.118963 0
0.116799 -0.120117 0
0.118213 -0.121271 0
0.119626 -0.122424 0
0.121039 -0.123578 0
0.122452 -0.124732 0
0.123866 -0.125886 0
0.125279 -0.12704 0
0.126692 -0.128194 0
0.128105 -0.129348 0
0.129519 -0.130501 0
0.130932 -0.131655 0
0.132345 -0.132809 0
0.133758 -0.133963 0
0.135172 -0.133216 0
0.135172 -0.131316 0
0.135172 -0.129415 0
0.135172 -0.127514 0
0.135172 -0.125614 0
0.135172 -0.123713 0
0.135172 -0.121813 0
0.135172 -0.119912 0
0.135172 -0.118012 0
0.135172 -0.116111 0
0.135172 -0.11421 0
0.135172 -0.11231 0
0.135172 -0.110409 0
0.135172 -0.108509 0
0.135172 -0.106608 0
0.135172 -0.104708 0
0.135172 -0.102807 0
0.135172 -0.100906 0
0.135172 -0.0990058 0
0.135172 -0.0971052 0
0.135172 -0.0952046 0
0.135172 -0.0933041 0
0.135172 -0.0914035 0
0.135172 -0.0895029 0
0.135172 -0.0876023 0
0.135172 -0.0857017 0
0.135172 -0.0838012 0
0.135172 -0.0819006 0
0.133758 -0.0788462 0
0.132345 -0.0776923 0
0.130932 -0.0765385 0
0.129519 -0.0753846 0
0.128105 -0.0742308 0
0.126692 -0.0730769 0
0.125279 -0.0719231 0
0.123866 -0.0707692 0
0.122452 -0.0696154 0
0.121039 -0.0684615 0
0.119626 -0.0673077 0
0.118213 -0.0661538 0
0.116799 -0.065 0
0.115386 -0.0638462 0
0.113973 -0.0626923 0
0.11256 -0.0615385 0
0.111146 -0.0603846 0
0.109733 -0.0592308 0
0.10832 -0.0580769 0
0.106907 -0.0569231 0
0.105493 -0.0557692 0
0.10408 -0.0546154 0
0.102667 -0.0534615 0
0.101254 -0.0523077 0
0.0998404 -0.0511538 0
0.0984272 -0.05 0
0.0970139 -0.0488462 0
0.0956006 -0.0476923 0
[...]
CELL_DATA 13116
SCALARS rho float
LOOKUP_TABLE default
0.5977
0.614012
0.547325
0.682439
0.663569
0.683995
0.420279
0.693138
0.5977
0.652061
0.394852
0.551912
0.665088
0.496599
0.513221
0.684001
0.5977
0.598107
0.684221
0.388338
0.5977
0.551999
0.534518
0.599438
0.5977
0.692671
0.650923
0.582815
0.5977
0.5977
0.684337
0.54397
0.5977
0.59767
0.427611
0.5977
0.597721
0.682332
0.683891
0.686243
0.684078
0.691752
0.5977
0.524576
0.684204
0.684241
0.612924
0.684156
0.541608
0.597699
0.68857
0.597699
0.453082
0.5977
0.5977
0.5977
0.523388
0.601002
0.5977
0.528087
0.499266
0.672481
0.612026
0.683869
0.684005
0.474374
0.684135
0.597707
0.684172
0.68383
0.512445
0.5977
0.556186
0.503924
0.688988
0.480002
0.597788
0.678965
0.400308
0.59783
0.598114
0.684834
0.601946
0.68375
0.681856
0.59217
0.435986
0.5977
0.685757
0.367095
0.552904
0.617405
0.605102
0.692908
0.5977
0.5977
0.5977
0.685647
0.686817
0.5977
0.5977
0.597927
0.684201
0.597628
0.618191
0.537462
0.584364
0.5977
0.563283
0.5977
0.5977
0.663568
0.5977
0.597925
0.597852
0.684159
0.460479
0.592547
0.682231
0.684551
0.597704
0.565543
0.684191
0.552669
0.694539
0.597176
0.440827
0.597685
0.547343
0.597699
0.68241
0.650082
0.597305
0.545388
0.596801
0.5977
0.704086
0.684519
0.5977
0.684606
0.597718
0.616134
0.597691
0.597729
0.599729
0.513221
0.425709
0.682811
0.648996
0.690281
0.597695
0.683862
0.684158
0.439778
0.64104
0.683001
0.547479
0.5977
0.685745
0.5977
0.59944
0.395813
0.606455
0.548195
0.569784
0.678378
0.692318
0.598041
0.424795
0.595438
0.592973
0.703946
0.510492
0.597683
0.684135
0.534191
0.527711
0.555304
0.659226
0.684043
0.377179
0.596072
0.5977
0.597714
0.684044
0.5977
0.439691
0.684066
0.62653
0.597594
0.597704
0.681251
0.683802
0.561385
0.666
0.684039
0.620834
0.684108
0.684536
0.597592
0.59765
0.5977
0.597679
0.510116
0.651405
0.682484
0.5977
0.5977
0.519371
0.38013
0.476884
0.684077
0.554679
0.369238
0.368094
0.444964
0.591014
0.684015
0.694253
0.590564
0.515947
0.684113
0.5977
0.376413
0.597693
0.664286
0.599292
0.584698
0.684115
0.587164
0.694073
0.545215
0.683974
0.5977
0.687066
0.686071
0.683785
0.548583
0.597142
0.5977
0.692065
0.684052
0.703556
0.683934
0.694738
0.53115
0.685773
0.651611
0.686015
0.409628
0.544698
0.683724
0.683072
0.684016
0.682176
0.5977
0.597731
0.392095
0.559422
0.596531
0.517746
0.611869
0.61966
0.597792
0.416437
0.684161
0.454158
0.592276
0.619919
0.409109
0.6881
0.6889
0.694634
0.601309
0.5465
0.69694
0.598501
0.685636
0.68444
0.392987
0.426671
0.562187
0.5977
0.563302
0.558257
0.580151
0.576332
0.672778
0.463117
0.684736
0.677158
0.427287
0.384856
0.448768
0.596872
0.571927
0.5977
0.597706
0.644011
0.404486
0.684054
0.5977
0.563959
0.527222
0.683918
0.68338
0.684113
0.444567
0.684041
0.597586
0.652959
0.690597
0.688798
0.690567
0.564695
0.68411
0.492607
0.684002
0.661099
0.5977
0.370181
0.579401
0.656976
0.448493
0.645211
0.673513
0.594642
0.597705
0.601633
0.436054
0.684131
0.605105
0.491183
0.683149
0.591421
0.597699
0.698402
0.592109
0.5977
0.41609
0.598738
0.581226
0.683974
0.599922
0.624731
0.58372
0.586067
0.682641
0.435591
0.662468
0.634273
0.595843
0.703799
0.436275
0.539994
0.676014
0.597697
0.597714
0.431208
0.549615
0.685919
0.676104
0.418392
0.683787
0.474691
0.541474
0.684362
0.697285
0.5977
0.366934
0.684296
0.684241
0.683989
0.684009
0.616157
0.597697
0.594398
0.509782
0.377387
0.683972
0.376121
0.5977
0.594427
0.5585
0.584909
0.5977
0.565948
0.430473
0.682515
0.556519
0.609058
0.5977
0.684159
0.5977
0.68541
0.542907
0.423738
0.597608
0.590636
0.66615
0.5977
0.684117
0.5977
0.59977
0.5977
0.682834
0.597701
0.5977
0.621586
0.597785
0.683964
0.596794
0.597698
0.5977
0.544689
0.597705
0.5977
0.451651
0.684128
0.695095
0.565558
0.378286
0.36839
0.428855
0.5977
0.471388
0.561223
0.684099
0.472632
0.5977
0.366985
0.683997
0.600805
0.584997
0.545696
0.674471
0.596616
0.366887
0.429083
0.367226
0.564744
0.424187
0.376241
0.563904
0.592858
0.375377
0.597921
0.583565
0.683291
0.597254
0.551611
0.596775
0.515906
0.367228
0.518776
0.684457
0.594759
0.5977
0.5977
0.468035
0.5977
0.686006
0.591942
0.597705
0.5977
0.5977
0.422406
0.687109
0.592475
0.608674
0.685039
0.570302
0.459823
0.622656
0.591858
0.591919
0.600471
0.584203
0.5977
0.601626
0.385087
0.522448
0.496429
0.597681
0.523815
0.47788
0.509786
0.490211
0.682076
0.678605
0.597017
0.5977
0.596955
0.657705
0.588453
0.463906
0.5977
0.571783
0.677
0.576412
0.588468
0.597207
0.684174
0.690554
0.597699
0.594674
0.454962
0.597698
0.692607
0.683815
0.597697
0.610591
0.609788
0.372618
0.600344
0.5977
0.5977
0.580832
0.570854
0.597895
0.615738
0.5977
0.66178
0.676685
0.69561
0.599052
0.5977
0.684149
0.369092
0.684138
0.582649
0.526366
0.367617
0.680088
0.68314
0.577467
0.681491
0.5977
0.369086
0.683847
0.683573
0.608754
0.581434
0.45998
0.676116
0.366912
0.366903
0.525116
0.371514
0.670437
0.484817
0.680359
0.581539
0.611725
0.687954
0.684134
0.672714
0.366893
0.37787
0.682293
0.69353
0.597749
0.681432
0.64855
0.595966
0.431527
0.575698
0.684072
0.5977
0.367994
0.596486
0.557776
0.695898
0.684063
0.580153
0.556306
0.681644
0.592666
0.682805
0.5977
0.542553
0.587131
0.59774
0.692526
0.550657
0.688556
0.693171
0.682703
0.465333
0.703538
0.514822
0.687992
0.5977
0.366881
0.590657
0.559403
0.687523
0.56397
0.413259
0.593211
0.683872
0.624189
0.410314
0.557485
0.367897
0.683832
0.559694
0.684064
0.510287
0.5977
0.663287
0.597269
0.54424
0.537406
0.596067
0.57702
0.691194
0.454803
0.479903
0.683979
0.478148
0.684092
0.633766
0.68656
0.367471
0.678307
0.609675
0.620942
0.684062
0.698584
0.684292
0.5312
0.683816
0.591166
0.671865
0.394941
0.694325
0.5977
0.432858
0.684113
0.635739
0.442526
0.5977
0.552372
0.508652
0.684096
0.684378
0.557135
0.51946
0.404023
0.531317
0.697118
0.59941
0.461288
0.393305
0.65958
0.68473
0.5977
0.609921
0.68405
0.392675
0.628605
0.593602
0.688198
0.594391
0.5977
0.59597
0.684105
0.597719
0.5977
0.587038
0.579467
0.684083
0.5977
0.5977
0.608519
0.511336
0.599865
0.637888
0.588036
0.597699
0.614085
0.593616
0.683919
0.5977
0.578693
0.685485
0.5977
0.547572
0.613941
0.560579
0.679237
0.503068
0.684074
0.610873
0.580975
0.683879
0.607289
0.670334
0.5977
0.607575
0.5977
0.576097
0.597533
0.555392
0.501928
0.704316
0.597695
0.684295
0.648241
0.369593
0.578371
0.616554
0.66509
0.672729
0.689647
0.377848
0.597769
0.653606
0.384717
0.556385
0.681546
0.683892
0.68072
0.535416
0.5977
0.58988
0.608648
0.638718
0.683824
0.64399
0.368818
0.649961
0.684234
0.603899
0.684532
0.684014
0.590801
0.617558
0.380887
0.59847
0.654368
0.59558
0.601521
0.683831
0.687998
0.597682
0.596682
0.5977
0.5977
0.366946
0.366862
0.414202
0.374725
0.609635
0.59969
0.683841
0.57779
0.380216
0.684161
0.5977
0.488127
0.579221
0.596241
0.597814
0.684086
0.683961
0.598811
0.377443
0.366929
0.702145
0.551834
0.369335
0.461188
0.684082
0.589623
0.366892
0.5977
0.679041
0.655482
0.683921
0.684056
0.461902
0.493406
0.409121
0.5977
0.594648
0.548166
0.597708
0.598214
0.671279
0.684048
0.539421
0.367115
0.659838
0.367064
0.684023
0.612447
0.684831
0.557198
0.367176
0.673999
0.684242
0.5977
0.488008
0.682891
0.683933
0.5977
0.689848
0.691434
0.70034
0.608781
0.376267
0.684047
0.683966
0.597713
0.606576
0.704347
0.663204
0.698771
0.684336
0.477843
0.504726
0.367072
0.68421
0.5977
0.367029
0.619779
0.654428
0.550372
0.5977
0.589656
0.597703
0.5977
0.546082
0.669189
0.598813
0.367571
0.597685
0.684188
0.526563
0.692172
0.48509
0.535321
0.5977
0.5977
0.596783
0.6842
0.419959
0.607476
0.519751
0.54306
0.684092
0.368428
0.5977
0.555819
0.597701
0.5977
0.699459
0.690882
0.507972
0.484845
0.597954
0.5977
0.670624
0.597684
0.5977
0.68401
0.602945
0.5977
0.5977
0.660234
0.623451
0.684185
0.581924
0.366829
0.597677
0.664074
0.621809
0.594057
0.684201
0.5977
0.597575
0.556384
0.5977
0.597793
0.703021
0.688113
0.599296
0.59837
0.683888
0.597813
0.549382
0.5977
0.596224
0.686517
0.683929
0.575288
0.700195
0.671435
0.513145
0.540108
0.446308
0.704247
0.39482
0.5977
0.613675
0.5977
0.568086
0.680191
0.509729
0.5977
0.683863
0.683884
0.597706
0.683825
0.5977
0.598081
0.5977
0.671782
0.505579
0.684098
0.684124
0.5977
0.696252
0.601419
0.564877
0.511425
0.530345
0.688705
0.366776
0.697599
0.40892
0.693522
0.462679
0.59594
0.531482
0.606979
0.688438
0.5977
0.569945
0.5977
0.684058
0.382934
0.5977
0.678402
0.546888
0.5977
0.684821
0.663072
0.684035
0.571951
0.5977
0.669303
0.684215
0.598432
0.366877
0.596329
0.683299
0.702864
0.692761
0.703942
0.5977
0.65051
0.5977
0.685511
0.366844
0.51217
0.703116
0.66337
0.6839
0.481252
0.68411
0.5977
0.5977
0.501833
0.590231
0.683259
0.688339
0.5977
0.592922
0.684087
0.692632
0.418446
0.5977
0.598796
0.420151
0.550738
0.495608
0.642902
0.5619
0.368755
0.684011
0.597689
0.62732
0.597701
0.428325
0.427254
0.683308
0.506187
0.472222
0.684246
0.55142
0.589432
0.5977
0.698737
0.673996
0.379618
0.592918
0.399056
0.634973
0.539854
0.675826
0.475613
0.628258
0.698133
0.684147
0.620304
0.634965
0.63514
0.684072
0.672495
0.679158
0.480624
0.39306
0.615653
0.68389
0.596823
0.640986
0.5977
0.683869
0.597713
0.583041
0.684331
0.675183
0.676267
0.415916
0.647588
0.568689
0.683474
0.596033
0.597968
0.684041
0.547013
0.659406
0.368187
0.597663
0.610448
0.466155
0.5977
0.70429
0.69611
0.434439
0.684095
0.374459
0.55646
0.559238
0.368097
0.597731
0.513631
0.597715
0.683882
0.592928
0.562955
0.59585
0.5977
0.5977
0.599943
0.367504
0.456728
0.415261
0.529153
0.569133
0.5977
0.672726
0.584373
0.683911
0.614075
0.491794
0.673093
0.5977
0.683893
0.402045
0.689359
0.606069
0.624495
0.688
0.523098
0.671373
0.63765
0.649605
0.5977
0.684014
0.559621
0.559975
0.684034
0.597658
0.367033
0.684087
0.546367
0.5977
0.5977
0.677277
0.679973
0.553145
0.636968
0.596514
0.416167
0.597716
0.667936
0.633222
0.685233
0.597713
0.556825
0.668217
0.525825
0.596713
0.678735
0.687315
0.67005
0.409958
0.562132
0.654726
0.564881
0.676628
0.5977
0.595225
0.574334
0.684582
0.55453
0.684069
0.675363
0.597755
0.55567
0.507745
0.597667
0.5977
0.5977
0.597611
0.683983
0.600661
0.684021
0.704323
0.623988
0.438048
0.572541
0.678308
0.68403
0.598069
0.595115
0.504677
0.59955
0.506029
0.684061
0.5977
0.592787
0.664772
0.381308
0.697668
0.548641
0.647422
0.542276
0.681772
0.684044
0.549685
0.694084
0.5977
0.554068
0.68391
0.684229
0.5977
0.512909
0.593286
0.597625
0.611937
0.599041
0.582318
0.5977
0.626737
0.683981
0.568655
0.5977
0.660392
0.59238
0.683983
0.684027
0.573728
0.682539
0.685155
0.542355
0.5977
0.418538
0.597706
0.427081
0.53585
0.613576
0.368048
0.367775
0.50355
0.684104
0.637044
0.597159
0.684105
0.591975
0.598819
0.372726
0.640877
0.594632
0.684014
0.68406
0.597729
0.683955
0.597689
0.684047
0.683899
0.570399
0.5977
0.597726
0.5977
0.624367
0.59618
0.597465
0.667356
0.383454
0.5977
0.590471
0.684155
0.479126
0.560022
0.598676
0.68407
0.38281
0.685607
0.598065
0.704257
0.69014
0.688958
0.374051
0.671056
0.372149
0.553198
0.689976
0.599469
0.692264
0.682994
0.542454
0.433551
0.401991
0.622074
0.683875
0.592215
0.69877
0.473459
0.433622
0.485026
0.68514
0.594007
0.669616
0.67774
0.5977
0.684412
0.679472
0.5977
0.597758
0.59203
0.552999
0.379193
0.688408
0.690149
0.486834
0.5977
0.639401
0.597734
0.569328
0.597688
0.60141
0.574862
0.599491
0.597704
0.369748
0.684046
0.612469
0.366987
0.674608
0.467964
0.684268
0.63284
0.639704
0.508823
0.594222
0.597701
0.576165
0.591834
0.684161
0.579158
0.684054
0.684168
0.686455
0.597991
0.596057
0.6843
0.597717
0.684216
0.584649
0.684985
0.53131
0.504832
0.681065
0.684065
0.683957
0.570377
0.684061
0.5977
0.689766
0.462071
0.472925
0.366893
0.685426
0.412958
0.477724
0.543518
0.597704
0.473729
0.574922
0.592461
0.677867
0.367443
0.683918
0.684001
0.685149
0.439508
0.683846
0.5977
0.683881
0.590783
0.5977
0.42915
0.383279
0.684093
0.383018
0.5977
0.615459
0.70175
0.367814
0.5798
0.437879
0.597698
0.70387
0.571396
0.682496
0.684098
0.598241
0.374127
0.522079
0.581696
0.600974
0.36709
0.704345
0.5977
0.684014
0.683568
0.391488
0.5977
0.533183
0.597736
0.5977
0.663511
0.597701
0.5977
0.5977
0.598223
0.678577
0.40664
0.596884
0.482255
0.597908
0.5977
0.687162
0.367878
0.593382
0.610497
0.68369
0.683884
0.379472
0.685817
0.597697
0.597699
0.599358
0.570978
0.378398
0.574445
0.684073
0.683829
0.5977
0.653578
0.581301
0.696662
0.5977
0.683833
0.683899
0.695567
0.67408
0.683974
0.601059
0.626426
0.572709
0.684087
0.685481
0.684008
0.683495
0.684076
0.5977
0.369249
0.546074
0.597736
0.367077
0.594482
0.686285
0.49725
0.5977
0.684151
0.617215
0.677897
0.569127
0.687347
0.559864
0.499566
0.68399
0.656727
0.684056
0.450173
0.685258
0.684178
0.597878
0.684099
0.543324
0.684021
0.655719
0.606559
0.597394
0.599186
0.391558
0.685045
0.476199
0.3684
0.5977
0.59597
0.668556
0.603275
0.684038
0.53613
0.684013
0.597284
0.503087
0.680357
0.595599
0.366968
0.684131
0.553658
0.597122
0.597701
0.605005
0.676425
0.595949
0.5977
0.5977
0.684056
0.5977
0.636726
0.597666
0.695654
0.652375
0.5977
0.535413
0.398901
0.595639
0.684978
0.565105
0.5977
0.686118
0.5977
0.684064
0.5977
0.597702
0.597852
0.402435
0.685323
0.629559
0.5977
0.627786
0.661927
0.69133
0.683944
0.374077
0.488696
0.669382
0.5977
0.5977
0.684619
0.683249
0.684102
0.61588
0.630185
0.5977
0.600931
0.661214
0.492346
0.557552
0.484719
0.58786
0.697414
0.597293
0.5977
0.666217
0.598012
0.559683
0.677771
0.682062
0.455967
0.589376
0.694683
0.684222
0.577896
0.537973
0.526428
0.704331
0.6917
0.597615
0.437228
0.371379
0.54603
0.5911
0.366955
0.695134
0.684112
0.60913
0.409555
0.620265
0.5977
0.5977
0.580461
0.383119
0.680511
0.703911
0.366929
0.684001
0.367022
0.599157
0.57212
0.685277
0.411133
0.672608
0.683536
0.433371
0.597699
0.567722
0.672272
0.55253
0.5977
0.540972
0.597697
0.4273
0.5977
0.380341
0.683959
0.683792
0.5977
0.63259
0.582343
0.644889
0.683944
0.684534
0.5977
0.598815
0.38095
0.597695
0.482539
0.606901
0.573939
0.67076
0.597698
0.599119
0.664624
0.5977
0.621246
0.504399
0.494117
0.491501
0.597694
0.5977
0.68269
0.40266
0.553879
0.684074
0.587989
0.552126
0.5977
0.590355
0.366903
0.544456
0.691858
0.5977
0.5977
0.525782
0.634106
0.684074
0.545415
0.581264
0.68394
0.684037
0.597723
0.59731
0.590234
0.584681
0.434822
0.696394
0.597765
0.5977
0.597716
0.524427
0.5977
0.386326
0.683958
0.675688
0.376034
0.563281
0.597825
0.5977
0.676002
0.629795
0.619034
0.687381
0.675706
0.453166
0.549281
0.486637
0.391274
0.5977
0.684662
0.5977
0.381068
0.367905
0.597685
0.549959
0.684114
0.603479
0.368311
0.579802
0.684148
0.550516
0.5977
0.613151
0.641297
0.683988
0.5977
0.36689
0.422318
0.600545
0.373817
0.597602
0.597051
0.683925
0.684122
0.569993
0.369306
0.704071
0.383473
0.684108
0.606773
0.367139
0.515424
0.459391
0.684123
0.463102
0.704296
0.603945
0.5977
0.542405
0.597641
0.676292
0.681264
0.411786
0.674789
0.597728
0.55583
0.68087
0.693337
0.406085
0.367384
0.673142
0.390734
0.391507
0.656157
0.583389
0.684109
0.597701
0.602283
0.597714
0.662147
0.684148
0.684021
0.405736
0.589744
0.598095
0.668208
0.594054
0.671914
0.584943
0.684306
0.678157
0.5977
0.5977
0.597692
0.59657
0.679139
0.662199
0.649051
0.684471
0.684074
0.699808
0.691371
0.704283
0.698226
0.682388
0.694971
0.70326
0.684038
0.55658
0.685796
0.567486
0.684475
0.684161
0.603272
0.630572
0.597845
0.508575
0.436626
0.577859
0.407658
0.631876
0.402939
0.406585
0.598415
0.538176
0.60061
0.430089
0.661454
0.673585
0.368113
0.587685
0.593525
0.685009
0.521497
0.682742
0.656258
0.445124
0.679168
0.597699
0.596657
0.579693
0.545901
0.597708
0.367271
0.685391
0.5977
0.572697
0.68422
0.68407
0.616484
0.367013
0.5977
0.54158
0.622734
0.683952
0.684198
0.366874
0.664722
0.684532
0.647868
0.595216
0.684854
0.366931
0.372497
0.685847
0.597206
0.647162
0.597691
0.366879
0.593329
0.646399
0.56622
0.557011
0.506702
0.5977
0.687497
0.668636
0.493482
0.5977
0.684089
0.597697
0.597698
0.592781
0.5977
0.366873
0.377628
0.683946
0.371224
0.36701
0.688775
0.6823
0.460783
0.597964
0.455692
0.696996
0.58516
0.68456
0.683816
0.597888
0.684015
0.527804
0.379525
0.55428
0.683984
0.677861
0.5977
0.5977
0.586235
0.576283
0.68406
0.402324
0.684106
0.58637
0.683845
0.59771
0.42996
0.535655
0.369794
0.369316
0.548058
0.597874
0.630099
0.409075
0.683822
0.5977
0.576409
0.506531
0.678987
0.367085
0.67904
0.591276
0.598016
0.5977
0.683935
0.686749
0.495199
0.632481
0.684449
0.691118
0.367684
0.598747
0.5977
0.593723
0.685364
0.597737
0.696929
0.643147
0.674274
0.686753
0.690074
0.684014
0.684212
0.368622
0.607805
0.369604
0.597693
0.684151
0.552245
0.677434
0.605733
0.549178
0.642561
0.36764
0.553735
0.688753
0.600101
0.682532
0.382164
0.645909
0.5977
0.583061
0.409427
0.694532
0.684064
0.588522
0.518132
0.608294
0.679717
0.367133
0.5977
0.68084
0.5977
0.450315
0.366957
0.547952
0.5977
0.543957
0.674908
0.597853
0.684054
0.5977
0.678482
0.381454
0.681686
0.5977
0.683148
0.597701
0.562447
0.409888
0.529829
0.600039
0.664511
0.590552
0.5977
0.593266
0.597742
0.684427
0.514351
0.597718
0.676298
0.5977
0.416111
0.423296
0.589052
0.676045
0.648432
0.5977
0.597321
0.682995
0.366961
0.5977
0.692908
0.661988
0.420117
0.5977
0.553036
0.614839
0.538833
0.68065
0.690546
0.520533
0.680071
0.5977
0.703595
0.5977
0.704369
0.68821
0.597352
0.684068
0.684033
0.684133
0.681356
0.594897
0.695488
0.473215
0.684077
0.525916
0.372989
0.537738
0.543578
0.366928
0.415108
0.680832
0.585386
0.483324
0.597704
0.679731
0.635213
0.597551
0.597839
0.597713
0.683988
0.564927
0.5977
0.684136
0.574102
0.528816
0.380351
0.5977
0.596989
0.367269
0.5977
0.541063
0.686564
0.596724
0.448907
0.595783
0.5977
0.589558
0.684075
0.516332
0.5977
0.588219
0.695451
0.591689
0.59771
0.692932
0.623795
0.597699
0.37074
0.697428
0.676804
0.533204
0.556547
0.684008
0.371726
0.598907
0.408391
0.597699
0.52838
0.684132
0.550666
0.679889
0.374237
0.684515
0.681406
0.666998
0.698038
0.471346
0.547839
0.597541
0.693742
0.598317
0.644009
0.5977
0.550351
0.618723
0.592498
0.675027
0.598509
0.597562
0.573754
0.611984
0.682209
0.538641
0.68416
0.698157
0.622853
0.602727
0.519788
0.5977
0.367739
0.631526
0.547623
0.683982
0.675274
0.699138
0.68307
0.574813
0.685325
0.368419
0.410685
0.684094
0.694496
0.5977
0.674785
0.696299
0.367007
0.598282
0.694812
0.691335
0.556612
0.595767
0.597734
0.408188
0.684315
0.687132
0.67973
0.694511
0.573676
0.597648
0.5977
0.527247
0.679507
0.675311
0.597683
0.689336
0.570333
0.600285
0.598394
0.5977
0.693233
0.423431
0.564329
0.682333
0.672109
0.541876
0.58572
0.541653
0.542267
0.482037
0.551943
0.578689
0.367073
0.680915
0.524504
0.451201
0.607418
0.5977
0.70365
0.592447
0.368396
0.684115
0.597628
0.5977
0.641339
0.590545
0.5977
0.683853
0.5977
0.638733
0.518318
0.670405
0.68392
0.459801
0.374581
0.597534
0.604643
0.5977
0.671252
0.68401
0.661747
0.642031
0.597273
0.678811
0.68395
0.697428
0.368059
0.684165
0.597744
0.597026
0.595159
0.458866
0.533557
0.484294
0.5977
0.597702
0.615974
0.375892
0.588829
0.682653
0.549256
0.642795
0.68405
0.678994
0.5977
0.683684
0.570311
0.537658
0.531123
0.5977
0.543879
0.684163
0.531145
0.684085
0.683982
0.68407
0.584048
0.597586
0.597058
0.680762
0.504292
0.382732
0.686993
0.642035
0.597701
0.684001
0.695378
0.598925
0.366826
0.5977
0.650629
0.597609
0.680317
0.63541
0.601689
0.592642
0.590264
0.691307
0.596578
0.5977
0.368144
0.604594
0.68188
0.597473
0.544121
0.614212
0.597678
0.657795
0.638067
0.367199
0.381188
0.685116
0.597699
0.597599
0.683405
0.694031
0.556021
0.683556
0.68494
0.628829
0.36687
0.5977
0.366857
0.684338
0.676506
0.599223
0.608796
0.684484
0.576552
0.591549
0.628516
0.373619
0.5977
0.567609
0.683786
0.506722
0.5977
0.646347
0.685431
0.366847
0.704356
0.689473
0.387773
0.603057
0.545146
0.691059
0.366868
0.421559
0.516844
0.601771
0.684209
0.580737
0.577143
0.684848
0.675882
0.596772
0.597748
0.36693
0.5977
0.369801
0.625851
0.381524
0.597708
0.687656
0.583097
0.597699
0.417249
0.683803
0.472313
0.384475
0.645701
0.563872
0.598699
0.597598
0.514458
0.660319
0.684475
0.695543
0.597707
0.567014
0.5977
0.556101
0.378419
0.675314
0.683825
0.606907
0.366948
0.590927
0.5977
0.651761
0.597691
0.627085
0.5977
0.60753
0.585618
0.664261
0.673571
0.5977
0.688735
0.554369
0.602905
0.370612
0.551606