# vtk DataFile Version 1.0
unstructured grid
ascii
DATASET UNSTRUCTURED_GRID
points 13672 float
0.0796578 -0.059106 0
0.00128732 0.00159165 0
0.00227961 -0.00102548 0
0.0791586 -0.0598787 0
-0.0546216 0.01 0
0.000495206 0.025 0
0.0800549 -0.035 0
0.135172 -0.08 0
-0.0546216 -0.0451168 0
0.000495206 -0.0301168 0
0.0800549 -0.0901168 0
0.135172 -0.135117 0
-0.0546216 -0.0451168 -0.00551168
0.000495206 -0.0301168 -0.00551168
0.0800549 -0.0901168 -0.00551168
0.135172 -0.135117 -0.00551168
0.135172 -0.08 -0.00551168
0.0800549 -0.035 -0.00551168
0.000495206 0.025 -0.00551168
-0.0546216 0.01 -0.00551168
0.00128732 0.00159165 -0.00551168
0.00227961 -0.00102548 -0.00551168
0.0791586 -0.0598787 -0.00551168
0.0796578 -0.059106 -0.00551168
0.00165953 -0.000990923 0
0.00119576 -0.000874076 0
0.000866021 -0.000641801 0
0.000645147 -0.000349912 0
0.00052235 -1.7281e-05 0
0.00049972 0.000348016 0
0.000601632 0.000737716 0
0.000861774 0.0011403 0
0.00157235 0.00183217 0
0.00188647 0.00206725 0
0.00222612 0.00230203 0
0.00258713 0.00254351 0
0.00296826 0.00279524 0
0.00337118 0.00305664 0
0.00379785 0.00332658 0
0.00425045 0.00360349 0
0.00473139 0.00388521 0
0.0052432 0.00416895 0
0.0057881 0.00445204 0
0.00636753 0.00473281 0
0.00698281 0.00500961 0
0.00763526 0.00528058 0
0.00832616 0.00554366 0
0.00905691 0.00579603 0
0.00982918 0.00603333 0
0.0106445 0.00625033 0
0.0115038 0.00644128 0
0.0124073 0.00660297 0
0.0133543 0.00673414 0
0.0143444 0.00683382 0
0.0153769 0.00690031 0
0.0164512 0.00693173 0
0.0175666 0.00692547 0
0.0187219 0.00687822 0
0.0199156 0.00678477 0
0.0211454 0.00663864 0
0.0224084 0.00643275 0
0.0237018 0.00616676 0
0.0250249 0.00584739 0
0.026375 0.00547298 0
0.0277479 0.00503752 0
0.0291386 0.00453545 0
0.0305433 0.0039653 0
0.0319572 0.0033256 0
0.0333681 0.00260019 0
0.034775 0.00179799 0
0.0361793 0.000930615 0
0.0375798 3.12222e-06 0
0.0389689 -0.000988429 0
0.0403357 -0.00205109 0
0.041675 -0.00318283 0
0.0429849 -0.00437751 0
0.0442643 -0.00562904 0
0.0455126 -0.00693089 0
0.0467314 -0.00827518 0
0.0479204 -0.00965638 0
0.0490661 -0.0110799 0
0.0501515 -0.0125519 0
0.0511696 -0.0140695 0
0.0521492 -0.0156071 0
0.0531202 -0.0171411 0
0.0540851 -0.0186663 0
0.0550431 -0.0201798 0
0.0559923 -0.0216793 0
0.0569311 -0.0231626 0
0.0578582 -0.0246273 0
0.0587723 -0.0260715 0
0.0596721 -0.027493 0
0.0605563 -0.02889 0
0.0614241 -0.0302609 0
0.0622742 -0.0316042 0
0.063106 -0.0329183 0
0.0639186 -0.034202 0
0.0647113 -0.0354543 0
0.0654835 -0.0366743 0
0.0662345 -0.0378613 0
0.0669642 -0.0390145 0
0.0676726 -0.0401333 0
0.0683597 -0.0412172 0
0.0690246 -0.0422665 0
0.0696662 -0.0432819 0
0.0702841 -0.0442636 0
0.0708793 -0.0452111 0
0.0714538 -0.0461237 0
0.072009 -0.047001 0
0.0725452 -0.0478434 0
0.0730611 -0.0486524 0
0.073556 -0.0494294 0
0.0740291 -0.0501756 0
0.0744812 -0.0508916 0
0.0749138 -0.0515773 0
0.0753285 -0.0522331 0
0.0757266 -0.0528592 0
0.076109 -0.0534564 0
0.0764753 -0.0540264 0
0.0768243 -0.054571 0
0.0771553 -0.0550919 0
0.0774679 -0.0555901 0
0.0777617 -0.0560669 0
0.0780369 -0.056523 0
0.0782958 -0.0569578 0
0.0785421 -0.0573703 0
0.0787786 -0.0577603 0
0.0790073 -0.0581279 0
0.0792295 -0.058474 0
0.0794462 -0.0587995 0
0.0798803 -0.0594162 0
0.0800272 -0.0596588 0
0.0800357 -0.0598891 0
0.0799275 -0.0600784 0
0.0797205 -0.0601773 0
0.0794593 -0.0601051 0
0.0789155 -0.0596491 0
0.0786707 -0.0593963 0
0.0784111 -0.0591319 0
0.0781372 -0.0588542 0
0.0778566 -0.0585548 0
0.0775715 -0.0582308 0
0.0772803 -0.0578828 0
0.0769832 -0.0575099 0
0.0766822 -0.0571097 0
0.0763801 -0.0566796 0
0.0760759 -0.0562196 0
0.0757623 -0.0557337 0
0.0754359 -0.0552232 0
0.0750951 -0.0546879 0
0.0747379 -0.054128 0
0.0743626 -0.0535435 0
0.0739688 -0.0529338 0
0.0735559 -0.0522981 0
0.0731238 -0.0516357 0
0.0726718 -0.050946 0
0.0721991 -0.0502288 0
0.0717046 -0.049484 0
0.0711872 -0.0487117 0
0.0706461 -0.047912 0
0.0700804 -0.0470849 0
0.0694892 -0.0462308 0
0.0688718 -0.0453499 0
0.0682271 -0.0444431 0
0.0675544 -0.043511 0
0.0668527 -0.0425546 0
0.0661215 -0.0415748 0
0.06536 -0.040573 0
0.0645676 -0.0395504 0
0.0637439 -0.0385087 0
0.0628887 -0.0374493 0
0.062002 -0.0363741 0
0.0610838 -0.0352847 0
0.0601345 -0.0341831 0
0.0591547 -0.033071 0
0.0581456 -0.0319502 0
0.0571083 -0.0308224 0
0.0560444 -0.0296893 0
0.0549562 -0.028552 0
0.053845 -0.0274126 0
0.0527113 -0.0262746 0
0.051554 -0.0251427 0
0.0503724 -0.0240222 0
0.0491675 -0.0229164 0
0.047941 -0.0218282 0
0.0466955 -0.0207597 0
0.0454337 -0.0197126 0
0.0441592 -0.0186878 0
0.0428751 -0.0176863 0
0.0415841 -0.0167097 0
0.0402878 -0.0157609 0
0.0389879 -0.0148428 0
0.0376864 -0.0139575 0
0.0363853 -0.013107 0
0.0350871 -0.0122931 0
0.0337942 -0.0115164 0
0.0325095 -0.0107772 0
0.0312357 -0.0100756 0
0.0299758 -0.00941024 0
0.0287337 -0.00877784 0
0.0275126 -0.00817571 0
0.0263139 -0.00760375 0
0.0251376 -0.00706528 0
0.0239829 -0.0065649 0
0.0228537 -0.00609619 0
0.0217522 -0.00565563 0
0.0206795 -0.00524226 0
0.0196364 -0.00485507 0
0.0186233 -0.00449318 0
0.0176408 -0.00415577 0
0.016689 -0.00384204 0
0.0157682 -0.00355115 0
0.0148783 -0.00328218 0
0.0140192 -0.00303468 0
0.0131906 -0.00280795 0
0.0123925 -0.00260016 0
0.0116246 -0.00241012 0
0.0108864 -0.00223769 0
0.0101774 -0.00208212 0
0.00949701 -0.00194206 0
0.00884483 -0.0018163 0
0.0082202 -0.0017039 0
0.00762247 -0.00160391 0
0.00705097 -0.00151528 0
0.006505 -0.00143697 0
0.0059838 -0.00136806 0
0.00548662 -0.00130772 0
0.00501265 -0.00125519 0
0.00456114 -0.00120954 0
0.00413136 -0.00116914 0
0.00372257 -0.00113251 0
0.00333398 -0.00109853 0
0.00296466 -0.00106798 0
0.00261363 -0.0010431 0
-0.052721 -0.0445996 0
-0.0508204 -0.0440823 0
-0.0489199 -0.0435651 0
-0.0470193 -0.0430478 0
-0.0451187 -0.0425306 0
-0.0432181 -0.0420134 0
-0.0413175 -0.0414961 0
-0.039417 -0.0409789 0
-0.0375164 -0.0404616 0
-0.0356158 -0.0399444 0
-0.0337152 -0.0394271 0
-0.0318146 -0.0389099 0
-0.0299141 -0.0383927 0
-0.0280135 -0.0378754 0
-0.0261129 -0.0373582 0
-0.0242123 -0.0368409 0
-0.0223117 -0.0363237 0
-0.0204112 -0.0358065 0
-0.0185106 -0.0352892 0
-0.01661 -0.034772 0
-0.0147094 -0.0342547 0
-0.0128088 -0.0337375 0
-0.0109083 -0.0332202 0
-0.00900769 -0.032703 0
-0.00710711 -0.0321858 0
-0.00520653 -0.0316685 0
-0.00330595 -0.0311513 0
-0.00140537 -0.030634 0
0.00190689 -0.0299614 0
0.00332271 -0.0298498 0
0.00474133 -0.0297825 0
0.00616136 -0.0297597 0
0.0075814 -0.0297814 0
0.00900007 -0.0298477 0
0.010416 -0.0299583 0
0.0118278 -0.0301127 0
0.0132342 -0.0303103 0
0.0146339 -0.0305504 0
0.0160259 -0.0308322 0
0.0174091 -0.0311546 0
0.0187824 -0.0315166 0
0.020145 -0.031917 0
0.0214961 -0.0323546 0
0.0228351 -0.032828 0
0.0241613 -0.0333361 0
0.0254744 -0.0338774 0
0.0267738 -0.0344507 0
0.0280592 -0.0350545 0
0.0293306 -0.0356877 0
0.0305875 -0.0363488 0
0.0318301 -0.0370367 0
0.0330581 -0.0377501 0
0.0342717 -0.0384879 0
0.0354708 -0.0392489 0
0.0366556 -0.0400321 0
0.0378262 -0.0408363 0
0.0389828 -0.0416607 0
0.0401254 -0.0425042 0
0.0412543 -0.0433659 0
0.0423698 -0.0442451 0
0.043472 -0.0451408 0
0.0445612 -0.0460523 0
0.0456375 -0.0469789 0
0.0467013 -0.0479199 0
0.0477529 -0.0488746 0
0.0487923 -0.0498424 0
0.04982 -0.0508227 0
0.0508362 -0.051815 0
0.051841 -0.0528187 0
0.0528348 -0.0538333 0
0.0538178 -0.0548584 0
0.0547903 -0.0558935 0
0.0557524 -0.0569382 0
0.0567045 -0.0579922 0
0.0576467 -0.0590549 0
0.0585792 -0.0601261 0
0.0595024 -0.0612055 0
0.0604163 -0.0622926 0
0.0613212 -0.0633873 0
0.0622174 -0.0644891 0
0.0631049 -0.0655979 0
0.0639841 -0.0667134 0
0.064855 -0.0678353 0
0.0657179 -0.0689633 0
0.0665729 -0.0700974 0
0.0674202 -0.0712372 0
0.06826 -0.0723826 0
0.0690925 -0.0735333 0
0.0699178 -0.0746892 0
0.070736 -0.0758501 0
0.0715473 -0.0770159 0
0.0723518 -0.0781863 0
0.0731498 -0.0793612 0
0.0739412 -0.0805405 0
0.0747264 -0.081724 0
0.0755053 -0.0829116 0
0.0762781 -0.0841033 0
0.0770449 -0.0852987 0
0.0778059 -0.0864979 0
0.0785611 -0.0877007 0
0.0793108 -0.088907 0
0.0814681 -0.0912706 0
0.0828814 -0.0924245 0
0.0842946 -0.0935783 0
0.0857079 -0.0947322 0
0.0871211 -0.095886 0
0.0885344 -0.0970399 0
0.0899476 -0.0981937 0
0.0913609 -0.0993476 0
0.0927741 -0.100501 0
0.0941874 -0.101655 0
0.0956006 -0.102809 0
0.0970139 -0.103963 0
0.0984272 -0.105117 0
0.0998404 -0.106271 0
0.101254 -0.107424 0
0.102667 -0.108578 0
0.10408 -0.109732 0
0.105493 -0.110886 0
0.106907 -0.11204 0
0.10832 -0.113194 0
0.109733 -0.114348 0
0.111146 -0.115501 0
0.11256 -0.116655 0
0.113973 -0.117809 0
0.115386 -0.118963 0
0.116799 -0.120117 0
0.118213 -0.121271 0
0.119626 -0.122424 0
0.121039 -0.123578 0
0.122452 -0.124732 0
0.123866 -0.125886 0
0.125279 -0.12704 0
0.126692 -0.128194 0
0.128105 -0.129348 0
0.129519 -0.130501 0
0.130932 -0.131655 0
0.132345 -0.132809 0
0.133758 -0.133963 0
0.135172 -0.133216 0
0.135172 -0.131316 0
0.135172 -0.129415 0
0.135172 -0.127514 0
0.135172 -0.125614 0
0.135172 -0.123713 0
0.135172 -0.121813 0
0.135172 -0.119912 0
0.135172 -0.118012 0
0.135172 -0.116111 0
0.135172 -0.11421 0
0.135172 -0.11231 0
0.135172 -0.110409 0
0.135172 -0.108509 0
0.135172 -0.106608 0
0.135172 -0.104708 0
0.135172 -0.102807 0
0.135172 -0.100906 0
0.135172 -0.0990058 0
0.135172 -0.0971052 0
0.135172 -0.0952046 0
0.135172 -0.0933041 0
0.135172 -0.0914035 0
0.135172 -0.0895029 0
0.135172 -0.0876023 0
0.135172 -0.0857017 0
0.135172 -0.0838012 0
0.135172 -0.0819006 0
0.133758 -0.0788462 0
0.132345 -0.0776923 0
0.130932 -0.0765385 0
0.129519 -0.0753846 0
0.128105 -0.0742308 0
0.126692 -0.0730769 0
0.125279 -0.0719231 0
0.123866 -0.0707692 0
0.122452 -0.0696154 0
0.121039 -0.0684615 0
0.119626 -0.0673077 0
0.118213 -0.0661538 0
0.116799 -0.065 0
0.115386 -0.0638462 0
0.113973 -0.0626923 0
0.11256 -0.0615385 0
0.111146 -0.0603846 0
0.109733 -0.0592308 0
0.10832 -0.0580769 0
0.106907 -0.0569231 0
0.105493 -0.0557692 0
0.10408 -0.0546154 0
0.102667 -0.0534615 0
0.101254 -0.0523077 0
0.0998404 -0.0511538 0
0.0984272 -0.05 0
0.0970139 -0.0488462 0
0.0956006 -0.0476923 0
[...]
CELL_DATA 13116
SCALARS rho float
LOOKUP_TABLE default
0.55292
0.67702
0.38325
0.698853
0.695525
0.699364
0.322388
0.70307
0.51069
0.69514
0.344804
0.343638
0.695826
0.350467
0.327364
0.698805
0.545069
0.679421
0.70045
0.348974
0.54966
0.36336
0.371535
0.683505
0.584473
0.69585
0.694988
0.398766
0.57413
0.626239
0.714031
0.348542
0.534509
0.438808
0.326673
0.552197
0.653849
0.696087
0.707782
0.704285
0.701122
0.702453
0.437835
0.382733
0.699923
0.700293
0.673282
0.700419
0.345748
0.500254
0.702769
0.443791
0.317188
0.539965
0.53388
0.564279
0.382902
0.682546
0.511294
0.319142
0.353151
0.69761
0.6747
0.709156
0.710923
0.366922
0.702654
0.65467
0.702646
0.710467
0.332744
0.557395
0.368075
0.376579
0.712171
0.368257
0.649593
0.69776
0.335411
0.675249
0.667813
0.693229
0.685307
0.698371
0.696766
0.41627
0.34392
0.645633
0.697963
0.364117
0.352517
0.678274
0.687903
0.700881
0.63399
0.581986
0.58648
0.711933
0.712648
0.570445
0.650893
0.637639
0.701105
0.415693
0.673302
0.331462
0.361669
0.47317
0.392114
0.583733
0.49973
0.687069
0.579333
0.668158
0.676063
0.70328
0.34839
0.38912
0.698658
0.704302
0.653526
0.37152
0.702675
0.351145
0.700135
0.425962
0.344647
0.484111
0.387532
0.500941
0.698966
0.687821
0.47038
0.356597
0.450313
0.591362
0.708263
0.703107
0.649723
0.704359
0.637077
0.674993
0.484147
0.639447
0.663335
0.344311
0.329697
0.691731
0.692866
0.704024
0.513633
0.698575
0.70067
0.363508
0.693311
0.698023
0.376901
0.657052
0.712822
0.644665
0.682956
0.341943
0.686014
0.381001
0.375121
0.698624
0.698855
0.678799
0.323045
0.432548
0.404481
0.708437
0.313852
0.470664
0.702743
0.368859
0.355065
0.368609
0.685604
0.703049
0.356206
0.417098
0.521538
0.652672
0.702361
0.510587
0.369628
0.700798
0.674612
0.442862
0.635213
0.691052
0.710411
0.37456
0.686511
0.702747
0.691293
0.701175
0.697222
0.396356
0.416157
0.589747
0.479484
0.372921
0.691042
0.695825
0.44949
0.590892
0.307636
0.35979
0.368932
0.701052
0.379348
0.350027
0.363015
0.364513
0.377822
0.708267
0.699562
0.405437
0.380845
0.702389
0.494634
0.35652
0.523052
0.696531
0.661577
0.400294
0.702659
0.379098
0.703025
0.349937
0.714154
0.546022
0.711584
0.702037
0.709147
0.331421
0.423125
0.642651
0.712235
0.703143
0.708547
0.711522
0.703775
0.357027
0.703116
0.694562
0.711941
0.346579
0.348224
0.697435
0.699439
0.714299
0.697081
0.545444
0.665977
0.345378
0.339533
0.391931
0.312384
0.667634
0.691042
0.64897
0.339744
0.700768
0.370465
0.410188
0.674139
0.358756
0.694013
0.702055
0.711453
0.682409
0.328314
0.71126
0.67231
0.711811
0.702898
0.340501
0.352163
0.379136
0.588414
0.372739
0.359791
0.345653
0.351885
0.69131
0.306343
0.699333
0.698135
0.366329
0.351227
0.369219
0.430956
0.388697
0.644905
0.6185
0.681595
0.360372
0.701395
0.552913
0.35004
0.324949
0.703451
0.699868
0.700887
0.371173
0.701716
0.422349
0.688127
0.702095
0.704314
0.702206
0.379056
0.702339
0.300864
0.698913
0.695818
0.639442
0.352617
0.345272
0.695315
0.365632
0.684172
0.697768
0.382622
0.665417
0.68491
0.364648
0.700455
0.687828
0.321629
0.70004
0.409084
0.541217
0.703503
0.418294
0.657959
0.343205
0.680973
0.347278
0.710741
0.650794
0.691929
0.400608
0.366251
0.69746
0.361331
0.692475
0.677795
0.413202
0.709073
0.367674
0.368642
0.694695
0.524529
0.655256
0.35304
0.379141
0.703327
0.697874
0.335893
0.700311
0.351545
0.329221
0.704001
0.703603
0.476785
0.366085
0.70211
0.714417
0.699157
0.700215
0.686603
0.51492
0.389607
0.307074
0.354809
0.699962
0.354696
0.520812
0.382654
0.364424
0.362769
0.483829
0.153876
0.362738
0.697083
0.349355
0.687046
0.575292
0.700949
0.636823
0.702372
0.36972
0.354065
0.398061
0.379593
0.692212
0.575898
0.701171
0.575766
0.663929
0.603376
0.692405
0.622652
0.624197
0.686797
0.674103
0.70129
0.394902
0.453849
0.550201
0.364369
0.616264
0.563743
0.323382
0.702984
0.711734
0.380876
0.347571
0.357667
0.368207
0.596559
0.330448
0.375123
0.701494
0.371689
0.547054
0.362741
0.698483
0.673778
0.394755
0.356872
0.694059
0.430257
0.363686
0.367819
0.363218
0.392344
0.356574
0.347851
0.365686
0.411074
0.355486
0.636317
0.383449
0.69811
0.390217
0.349319
0.471028
0.339908
0.36388
0.342131
0.70328
0.417624
0.609024
0.481581
0.370082
0.593472
0.698665
0.415088
0.664781
0.60756
0.608295
0.359963
0.712464
0.388914
0.685635
0.714021
0.392009
0.294113
0.673068
0.381824
0.418816
0.652497
0.363911
0.655869
0.667326
0.353236
0.35364
0.30192
0.467321
0.323041
0.317132
0.320552
0.303154
0.699404
0.698563
0.435392
0.573041
0.451025
0.684482
0.368733
0.350854
0.513901
0.393475
0.693423
0.335454
0.375308
0.465981
0.699511
0.697432
0.53115
0.38251
0.293981
0.535789
0.702944
0.711444
0.532921
0.6704
0.666268
0.355899
0.672891
0.542496
0.640985
0.351281
0.388456
0.667259
0.69067
0.63508
0.696298
0.693444
0.697678
0.681577
0.639301
0.701043
0.358986
0.699421
0.339564
0.306747
0.352902
0.698272
0.696585
0.330246
0.696625
0.588082
0.353506
0.708069
0.700018
0.682502
0.397806
0.353531
0.696146
0.36419
0.362034
0.332125
0.356577
0.690979
0.317316
0.698136
0.381555
0.675896
0.702898
0.702435
0.697205
0.364705
0.351167
0.695885
0.70279
0.652031
0.699281
0.694179
0.462868
0.363498
0.396701
0.700926
0.509238
0.357156
0.430999
0.36306
0.703076
0.701412
0.351502
0.365957
0.696687
0.425537
0.697177
0.627143
0.385528
0.381034
0.649659
0.711744
0.383096
0.69654
0.698986
0.696072
0.362402
0.708709
0.38055
0.711092
0.63982
0.366068
0.376615
0.359553
0.710436
0.392934
0.326708
0.389966
0.707294
0.684784
0.328832
0.336075
0.361128
0.707609
0.369809
0.70242
0.34538
0.560469
0.696414
0.390992
0.378379
0.373908
0.463558
0.397397
0.696062
0.372256
0.348525
0.699978
0.283348
0.700446
0.681185
0.711296
0.355368
0.694071
0.688365
0.691149
0.701082
0.702235
0.703802
0.346171
0.712396
0.40786
0.691083
0.340779
0.703692
0.487772
0.31364
0.711238
0.690476
0.354656
0.62146
0.353316
0.339548
0.701365
0.70303
0.359011
0.344668
0.3325
0.343955
0.702827
0.683519
0.360117
0.357957
0.691897
0.703801
0.562598
0.688155
0.700728
0.342845
0.692506
0.409735
0.702733
0.392572
0.575235
0.449822
0.701978
0.656547
0.548432
0.36243
0.398319
0.701619
0.573349
0.537316
0.687569
0.310305
0.674078
0.692865
0.361227
0.45187
0.689414
0.380071
0.711307
0.64357
0.342528
0.704648
0.632261
0.377654
0.682366
0.377249
0.694906
0.375118
0.700848
0.673853
0.399867
0.707013
0.686581
0.694865
0.589807
0.678038
0.55248
0.361174
0.420649
0.345285
0.374596
0.708087
0.525865
0.703152
0.692521
0.355503
0.37323
0.681774
0.696613
0.693656
0.702276
0.348084
0.673908
0.694742
0.348476
0.332293
0.698178
0.697843
0.695958
0.33961
0.558007
0.396494
0.680659
0.682186
0.712678
0.684711
0.357367
0.686604
0.6989
0.686923
0.702626
0.701032
0.40398
0.686621
0.360701
0.653042
0.695182
0.431692
0.667607
0.711925
0.703116
0.421729
0.40516
0.554282
0.62711
0.363567
0.366372
0.361069
0.356512
0.67573
0.673553
0.710694
0.351749
0.352255
0.702518
0.657284
0.324605
0.372282
0.43578
0.658071
0.701234
0.699966
0.677173
0.361296
0.363477
0.709916
0.350114
0.350034
0.371977
0.700209
0.395924
0.365252
0.557596
0.693724
0.684739
0.703194
0.70026
0.352061
0.298021
0.362465
0.48793
0.417728
0.351254
0.654218
0.675262
0.691423
0.70157
0.342609
0.35725
0.696047
0.357941
0.700959
0.674311
0.713489
0.359489
0.362889
0.692357
0.712484
0.572695
0.320554
0.697588
0.702151
0.554267
0.70403
0.702963
0.710486
0.669181
0.348818
0.700037
0.712283
0.63152
0.679982
0.708196
0.687255
0.709701
0.702653
0.346491
0.354227
0.357626
0.713556
0.488978
0.359116
0.682397
0.6913
0.342689
0.626758
0.394472
0.635363
0.475916
0.337606
0.697155
0.68242
0.358101
0.52059
0.714185
0.381975
0.700837
0.364648
0.329374
0.600281
0.58233
0.470661
0.701095
0.362421
0.686088
0.359099
0.341427
0.700391
0.356837
0.585374
0.361734
0.627809
0.576156
0.71012
0.697977
0.294861
0.351089
0.64358
0.441602
0.693066
0.446731
0.575178
0.698783
0.686435
0.448922
0.581424
0.685589
0.691714
0.70319
0.349116
0.365198
0.512061
0.686247
0.69154
0.382309
0.701091
0.573838
0.396496
0.359264
0.640969
0.657789
0.708861
0.710289
0.650171
0.671351
0.704828
0.661754
0.357584
0.63285
0.434042
0.704696
0.697872
0.346423
0.703174
0.696467
0.362944
0.315757
0.367087
0.708265
0.340986
0.598454
0.684298
0.633211
0.352699
0.69461
0.367582
0.558434
0.708484
0.712341
0.652652
0.707803
0.593705
0.666952
0.508943
0.690972
0.37599
0.700516
0.70232
0.428829
0.709951
0.676188
0.382044
0.300964
0.382475
0.704211
0.36669
0.709656
0.361997
0.703257
0.292923
0.450475
0.352469
0.684906
0.702038
0.543939
0.295575
0.594988
0.706715
0.361892
0.562367
0.698392
0.349862
0.56672
0.712493
0.696378
0.701043
0.392017
0.470251
0.693351
0.700514
0.653341
0.36572
0.401315
0.697856
0.709591
0.711788
0.709109
0.541615
0.68802
0.536719
0.704679
0.365653
0.370029
0.709234
0.695107
0.705471
0.369232
0.700562
0.55324
0.592483
0.370775
0.398647
0.700038
0.700694
0.530503
0.384442
0.701361
0.710308
0.325176
0.584303
0.676854
0.327777
0.348315
0.295471
0.678951
0.36801
0.358255
0.700044
0.452029
0.692337
0.632153
0.317629
0.361222
0.699813
0.360686
0.334491
0.712603
0.33064
0.369774
0.569878
0.701976
0.692682
0.353121
0.393957
0.345631
0.681553
0.332409
0.693383
0.304081
0.684175
0.699936
0.699653
0.675414
0.683862
0.681158
0.701088
0.697076
0.695455
0.31529
0.359978
0.678683
0.704893
0.475992
0.679638
0.534719
0.705917
0.630683
0.393493
0.703969
0.697954
0.692409
0.34704
0.686334
0.383219
0.697774
0.465493
0.676763
0.701199
0.338386
0.690897
0.359601
0.4335
0.674041
0.371121
0.658531
0.708126
0.703707
0.368237
0.701341
0.358153
0.357712
0.365288
0.362832
0.63199
0.310212
0.637968
0.711677
0.384315
0.376059
0.456375
0.551772
0.614016
0.659718
0.355777
0.364314
0.333996
0.35252
0.299934
0.616271
0.689851
0.398003
0.709503
0.684143
0.296537
0.697491
0.655905
0.710314
0.354707
0.710377
0.676991
0.687876
0.704616
0.329175
0.692244
0.69044
0.686741
0.639922
0.701955
0.355996
0.367295
0.699205
0.509339
0.364484
0.700076
0.367244
0.541596
0.61622
0.69389
0.69549
0.354949
0.678726
0.391087
0.34846
0.66785
0.694202
0.691039
0.702704
0.648622
0.358581
0.696551
0.314924
0.474792
0.698696
0.712934
0.693345
0.347648
0.348276
0.695104
0.348622
0.696128
0.619706
0.414029
0.361986
0.704292
0.362109
0.701197
0.695554
0.651658
0.362862
0.356086
0.479009
0.504458
0.604762
0.452466
0.699336
0.661358
0.699321
0.707878
0.683714
0.303271
0.363627
0.697381
0.70263
0.649123
0.431492
0.371918
0.670607
0.295183
0.701055
0.585335
0.388455
0.691693
0.348614
0.700288
0.382065
0.693053
0.323699
0.695628
0.703876
0.343873
0.700481
0.626831
0.346618
0.712025
0.700753
0.53435
0.339156
0.377445
0.447566
0.68904
0.65204
0.376579
0.554108
0.685009
0.700568
0.352595
0.603275
0.688001
0.424239
0.699864
0.698894
0.337155
0.697523
0.711505
0.381908
0.582137
0.366689
0.636863
0.36513
0.328068
0.690184
0.360955
0.361847
0.293361
0.702139
0.682618
0.398984
0.701299
0.376306
0.665338
0.359889
0.683543
0.381714
0.698669
0.699457
0.646211
0.713431
0.523464
0.704651
0.711286
0.393405
0.609713
0.647754
0.505078
0.683562
0.462983
0.411116
0.696361
0.359998
0.545737
0.394976
0.701141
0.322109
0.37349
0.682078
0.700597
0.352613
0.704693
0.674453
0.708225
0.70256
0.71038
0.349726
0.697109
0.348907
0.380899
0.699271
0.678876
0.702673
0.697884
0.350915
0.364686
0.343003
0.679422
0.712422
0.376356
0.702784
0.364052
0.366926
0.369443
0.698673
0.392302
0.69699
0.694966
0.607687
0.702725
0.695369
0.557966
0.645774
0.412426
0.346547
0.351194
0.710302
0.710024
0.367535
0.616219
0.677886
0.644417
0.390726
0.423451
0.663348
0.309357
0.657927
0.618903
0.349436
0.707428
0.67704
0.359583
0.692663
0.324413
0.70323
0.692846
0.68475
0.30058
0.437738
0.657729
0.327002
0.410769
0.702174
0.342219
0.7063
0.703025
0.693253
0.674347
0.390492
0.710913
0.667275
0.700561
0.36661
0.7018
0.358661
0.337838
0.695585
0.701351
0.712173
0.257431
0.701237
0.607362
0.712258
0.364896
0.348127
0.364536
0.703831
0.330672
0.287251
0.376962
0.617684
0.312423
0.347554
0.415491
0.694066
0.353939
0.713135
0.710085
0.704175
0.369861
0.699281
0.633989
0.710237
0.400446
0.638505
0.333255
0.360618
0.700999
0.351307
0.617397
0.682514
0.70994
0.352088
0.343429
0.356252
0.532373
0.708582
0.255055
0.696031
0.701907
0.676509
0.360762
0.311469
0.351112
0.65737
0.360419
0.70782
0.577735
0.709052
0.698145
0.341748
0.621861
0.348039
0.620042
0.62137
0.696433
0.602482
0.507448
0.64098
0.651716
0.697738
0.363985
0.38867
0.376024
0.675939
0.513889
0.712997
0.351804
0.395871
0.685466
0.698796
0.712326
0.350564
0.704357
0.530882
0.534623
0.653634
0.394969
0.349571
0.334755
0.701452
0.710601
0.638502
0.683447
0.351751
0.703726
0.633263
0.709974
0.71087
0.703822
0.697828
0.701852
0.679582
0.689959
0.392948
0.7011
0.702606
0.699979
0.699758
0.701464
0.58757
0.351607
0.337016
0.637101
0.364688
0.387699
0.704155
0.335905
0.608911
0.70248
0.677528
0.693063
0.387794
0.704379
0.365364
0.365233
0.701129
0.688785
0.701608
0.370881
0.701144
0.7011
0.64379
0.700683
0.364184
0.700835
0.695302
0.674631
0.395033
0.681177
0.350652
0.699368
0.371113
0.352521
0.54855
0.428614
0.697034
0.684338
0.701022
0.374202
0.701284
0.400983
0.328364
0.693673
0.458534
0.364906
0.701072
0.324038
0.484657
0.650458
0.668597
0.693523
0.459147
0.566987
0.63873
0.701072
0.58782
0.69144
0.508704
0.703603
0.682581
0.630186
0.340875
0.337069
0.426156
0.702483
0.383318
0.642856
0.704727
0.585566
0.700972
0.530787
0.660006
0.663143
0.352884
0.704669
0.676131
0.514162
0.676117
0.695856
0.696311
0.703288
0.360984
0.346288
0.690509
0.517681
0.541374
0.703674
0.697274
0.701401
0.69066
0.69262
0.604862
0.661405
0.695956
0.289504
0.336826
0.32538
0.387044
0.711279
0.439218
0.533799
0.691746
0.667343
0.385725
0.692934
0.698413
0.373041
0.378556
0.709978
0.70187
0.39827
0.338792
0.334067
0.707853
0.695256
0.39769
0.302186
0.348722
0.321983
0.376851
0.365518
0.70337
0.699813
0.679251
0.364389
0.678489
0.5969
0.581574
0.363711
0.346881
0.69331
0.708641
0.364102
0.69902
0.358919
0.682522
0.392932
0.704013
0.364302
0.691847
0.700109
0.368098
0.536281
0.354107
0.697313
0.33381
0.60262
0.365025
0.487055
0.33548
0.595482
0.361762
0.71389
0.710092
0.580498
0.68326
0.36574
0.68444
0.706177
0.700629
0.59396
0.665675
0.347157
0.419805
0.372101
0.688289
0.312465
0.696238
0.521793
0.678223
0.69655
0.469794
0.687187
0.331271
0.362524
0.294356
0.488889
0.553272
0.696413
0.360204
0.356932
0.699887
0.372566
0.360017
0.577354
0.379838
0.364714
0.336544
0.702398
0.627216
0.60627
0.375317
0.682003
0.701824
0.344542
0.329436
0.698847
0.699649
0.618048
0.488936
0.39339
0.36547
0.365104
0.702794
0.638457
0.507822
0.665859
0.299852
0.553712
0.345554
0.71093
0.697407
0.348143
0.341822
0.643353
0.573313
0.697798
0.690375
0.690327
0.704668
0.698075
0.366108
0.366185
0.376491
0.342404
0.549657
0.714086
0.62871
0.347375
0.35258
0.444476
0.348033
0.701301
0.666903
0.362648
0.354818
0.702539
0.384805
0.638482
0.687074
0.683278
0.701614
0.553642
0.361841
0.364794
0.659568
0.348376
0.426111
0.396648
0.704472
0.702924
0.352123
0.350234
0.708837
0.36214
0.701761
0.688347
0.355698
0.363245
0.297728
0.702054
0.345321
0.708088
0.679171
0.588426
0.340507
0.505185
0.696542
0.695366
0.325889
0.692018
0.636803
0.352653
0.697475
0.702527
0.347015
0.361507
0.691943
0.360764
0.34187
0.686984
0.344361
0.699186
0.659389
0.686491
0.636715
0.69484
0.702686
0.70605
0.338374
0.396066
0.65228
0.69051
0.4373
0.697332
0.360629
0.702685
0.694428
0.549533
0.631928
0.419904
0.433833
0.693538
0.693852
0.68144
0.700471
0.701909
0.709495
0.703067
0.708462
0.702075
0.694571
0.703607
0.708921
0.704529
0.343906
0.693943
0.391732
0.704182
0.701477
0.682361
0.679754
0.672575
0.361072
0.361019
0.332182
0.328596
0.680666
0.357575
0.354925
0.670052
0.339923
0.67881
0.362934
0.688232
0.692887
0.360278
0.376125
0.387969
0.703148
0.379843
0.696355
0.690287
0.356285
0.692449
0.532291
0.38965
0.39853
0.343738
0.668468
0.362092
0.704621
0.528381
0.355765
0.70125
0.70115
0.689981
0.359338
0.560184
0.3606
0.679419
0.701801
0.703472
0.366411
0.689637
0.703313
0.682608
0.403065
0.702925
0.361623
0.356867
0.702452
0.435326
0.694558
0.414195
0.365899
0.419412
0.683307
0.393186
0.345135
0.37384
0.479293
0.711412
0.692211
0.332918
0.591095
0.701956
0.532537
0.436166
0.388844
0.534369
0.365234
0.350332
0.698112
0.35782
0.360624
0.703915
0.699313
0.371761
0.677676
0.365952
0.709905
0.398326
0.695118
0.711417
0.67416
0.70788
0.362257
0.350267
0.36363
0.69993
0.693644
0.564927
0.519989
0.369201
0.327233
0.701104
0.34068
0.69938
0.376161
0.71337
0.656139
0.368332
0.38377
0.35714
0.350318
0.386881
0.644773
0.680487
0.36412
0.699585
0.623071
0.358898
0.306156
0.698406
0.364319
0.694732
0.407168
0.67492
0.637219
0.699574
0.711091
0.340032
0.692845
0.7039
0.70204
0.361912
0.652007
0.572663
0.386582
0.702974
0.645359
0.703976
0.683968
0.69781
0.702037
0.702056
0.699707
0.700743
0.357019
0.687996
0.35692
0.451467
0.701923
0.363292
0.693727
0.664936
0.353464
0.681566
0.361358
0.353369
0.700317
0.654852
0.699419
0.356632
0.684515
0.595899
0.396526
0.365257
0.69842
0.701564
0.37914
0.372897
0.682745
0.698719
0.363204
0.627516
0.699158
0.628636
0.37136
0.360917
0.355782
0.637855
0.327375
0.691932
0.675252
0.700844
0.601
0.694738
0.357396
0.696516
0.589854
0.699983
0.602035
0.372708
0.33256
0.318489
0.68396
0.692029
0.404891
0.635448
0.394411
0.648046
0.704142
0.312317
0.634385
0.692493
0.608221
0.366344
0.350971
0.387968
0.695586
0.694633
0.594029
0.488372
0.697683
0.363351
0.615766
0.711801
0.689102
0.366424
0.598687
0.356321
0.671635
0.326122
0.694574
0.700486
0.37369
0.69712
0.440968
0.708935
0.632109
0.707831
0.704405
0.41813
0.701251
0.701273
0.703034
0.695145
0.451247
0.711609
0.308317
0.701363
0.313172
0.352415
0.305328
0.385595
0.364564
0.365414
0.699187
0.365862
0.294014
0.647267
0.697165
0.682002
0.39844
0.66994
0.664801
0.702411
0.329673
0.602157
0.702744
0.373737
0.375411
0.35106
0.6128
0.481222
0.354651
0.59565
0.343878
0.710544
0.474562
0.34049
0.446251
0.632193
0.386621
0.701596
0.297996
0.497078
0.378468
0.703107
0.387641
0.647356
0.711834
0.672043
0.434148
0.353225
0.702566
0.698281
0.37571
0.35746
0.699463
0.349401
0.680487
0.364021
0.534701
0.321658
0.702638
0.366047
0.698949
0.352514
0.704295
0.696528
0.694974
0.710621
0.304079
0.374307
0.397229
0.696679
0.669234
0.682594
0.55798
0.359406
0.686052
0.389157
0.692453
0.644825
0.411347
0.360054
0.687502
0.695592
0.362539
0.714582
0.70324
0.689281
0.686653
0.301399
0.617759
0.360421
0.690373
0.327199
0.710502
0.691542
0.702258
0.699722
0.357147
0.699711
0.361178
0.352833
0.701385
0.711012
0.530716
0.692131
0.711406
0.363872
0.680497
0.702643
0.702606
0.358736
0.41725
0.664391
0.359485
0.702444
0.704701
0.69467
0.703517
0.307247
0.441151
0.628365
0.373309
0.695275
0.697712
0.460931
0.699435
0.30398
0.659552
0.680994
0.654579
0.70031
0.348048
0.378257
0.696098
0.691202
0.354101
0.367293
0.366729
0.378928
0.290445
0.346297
0.394087
0.364487
0.695013
0.309119
0.372234
0.681798
0.52999
0.708835
0.394718
0.351042
0.702082
0.451895
0.488252
0.693464
0.380086
0.636069
0.712381
0.584318
0.683338
0.381077
0.692794
0.709368
0.352536
0.3555
0.412336
0.663455
0.584649
0.697283
0.698757
0.689256
0.684256
0.39004
0.695789
0.707808
0.70015
0.354238
0.702886
0.625212
0.389593
0.417351
0.309155
0.353904
0.288798
0.573618
0.651567
0.678934
0.351315
0.379869
0.699777
0.343026
0.688338
0.701306
0.694226
0.654534
0.698664
0.373314
0.357577
0.33981
0.557263
0.325197
0.700912
0.337024
0.701048
0.699658
0.700974
0.387392
0.439239
0.414629
0.695968
0.369617
0.349412
0.704022
0.683911
0.624698
0.698679
0.698343
0.680046
0.364563
0.59786
0.6934
0.505299
0.695354
0.688171
0.683421
0.425073
0.404522
0.702475
0.470338
0.607903
0.362122
0.669626
0.696422
0.39547
0.330944
0.676764
0.488065
0.693406
0.68772
0.362619
0.348494
0.711438
0.421781
0.402383
0.698584
0.698303
0.353111
0.697912
0.712655
0.679459
0.364948
0.574248
0.363052
0.700783
0.697561
0.680414
0.676021
0.710989
0.350754
0.374974
0.683385
0.361784
0.581911
0.35477
0.699309
0.34031
0.635397
0.692736
0.710898
0.366521
0.708097
0.711011
0.344076
0.668479
0.342683
0.702075
0.3655
0.365924
0.330611
0.673945
0.700227
0.334071
0.339134
0.69243
0.698087