# vtk DataFile Version 1.0
unstructured grid
ascii
DATASET UNSTRUCTURED_GRID
points 13672 float
0.0796578 -0.059106 0
0.00128732 0.00159165 0
0.00227961 -0.00102548 0
0.0791586 -0.0598787 0
-0.0546216 0.01 0
0.000495206 0.025 0
0.0800549 -0.035 0
0.135172 -0.08 0
-0.0546216 -0.0451168 0
0.000495206 -0.0301168 0
0.0800549 -0.0901168 0
0.135172 -0.135117 0
-0.0546216 -0.0451168 -0.00551168
0.000495206 -0.0301168 -0.00551168
0.0800549 -0.0901168 -0.00551168
0.135172 -0.135117 -0.00551168
0.135172 -0.08 -0.00551168
0.0800549 -0.035 -0.00551168
0.000495206 0.025 -0.00551168
-0.0546216 0.01 -0.00551168
0.00128732 0.00159165 -0.00551168
0.00227961 -0.00102548 -0.00551168
0.0791586 -0.0598787 -0.00551168
0.0796578 -0.059106 -0.00551168
0.00165953 -0.000990923 0
0.00119576 -0.000874076 0
0.000866021 -0.000641801 0
0.000645147 -0.000349912 0
0.00052235 -1.7281e-05 0
0.00049972 0.000348016 0
0.000601632 0.000737716 0
0.000861774 0.0011403 0
0.00157235 0.00183217 0
0.00188647 0.00206725 0
0.00222612 0.00230203 0
0.00258713 0.00254351 0
0.00296826 0.00279524 0
0.00337118 0.00305664 0
0.00379785 0.00332658 0
0.00425045 0.00360349 0
0.00473139 0.00388521 0
0.0052432 0.00416895 0
0.0057881 0.00445204 0
0.00636753 0.00473281 0
0.00698281 0.00500961 0
0.00763526 0.00528058 0
0.00832616 0.00554366 0
0.00905691 0.00579603 0
0.00982918 0.00603333 0
0.0106445 0.00625033 0
0.0115038 0.00644128 0
0.0124073 0.00660297 0
0.0133543 0.00673414 0
0.0143444 0.00683382 0
0.0153769 0.00690031 0
0.0164512 0.00693173 0
0.0175666 0.00692547 0
0.0187219 0.00687822 0
0.0199156 0.00678477 0
0.0211454 0.00663864 0
0.0224084 0.00643275 0
0.0237018 0.00616676 0
0.0250249 0.00584739 0
0.026375 0.00547298 0
0.0277479 0.00503752 0
0.0291386 0.00453545 0
0.0305433 0.0039653 0
0.0319572 0.0033256 0
0.0333681 0.00260019 0
0.034775 0.00179799 0
0.0361793 0.000930615 0
0.0375798 3.12222e-06 0
0.0389689 -0.000988429 0
0.0403357 -0.00205109 0
0.041675 -0.00318283 0
0.0429849 -0.00437751 0
0.0442643 -0.00562904 0
0.0455126 -0.00693089 0
0.0467314 -0.00827518 0
0.0479204 -0.00965638 0
0.0490661 -0.0110799 0
0.0501515 -0.0125519 0
0.0511696 -0.0140695 0
0.0521492 -0.0156071 0
0.0531202 -0.0171411 0
0.0540851 -0.0186663 0
0.0550431 -0.0201798 0
0.0559923 -0.0216793 0
0.0569311 -0.0231626 0
0.0578582 -0.0246273 0
0.0587723 -0.0260715 0
0.0596721 -0.027493 0
0.0605563 -0.02889 0
0.0614241 -0.0302609 0
0.0622742 -0.0316042 0
0.063106 -0.0329183 0
0.0639186 -0.034202 0
0.0647113 -0.0354543 0
0.0654835 -0.0366743 0
0.0662345 -0.0378613 0
0.0669642 -0.0390145 0
0.0676726 -0.0401333 0
0.0683597 -0.0412172 0
0.0690246 -0.0422665 0
0.0696662 -0.0432819 0
0.0702841 -0.0442636 0
0.0708793 -0.0452111 0
0.0714538 -0.0461237 0
0.072009 -0.047001 0
0.0725452 -0.0478434 0
0.0730611 -0.0486524 0
0.073556 -0.0494294 0
0.0740291 -0.0501756 0
0.0744812 -0.0508916 0
0.0749138 -0.0515773 0
0.0753285 -0.0522331 0
0.0757266 -0.0528592 0
0.076109 -0.0534564 0
0.0764753 -0.0540264 0
0.0768243 -0.054571 0
0.0771553 -0.0550919 0
0.0774679 -0.0555901 0
0.0777617 -0.0560669 0
0.0780369 -0.056523 0
0.0782958 -0.0569578 0
0.0785421 -0.0573703 0
0.0787786 -0.0577603 0
0.0790073 -0.0581279 0
0.0792295 -0.058474 0
0.0794462 -0.0587995 0
0.0798803 -0.0594162 0
0.0800272 -0.0596588 0
0.0800357 -0.0598891 0
0.0799275 -0.0600784 0
0.0797205 -0.0601773 0
0.0794593 -0.0601051 0
0.0789155 -0.0596491 0
0.0786707 -0.0593963 0
0.0784111 -0.0591319 0
0.0781372 -0.0588542 0
0.0778566 -0.0585548 0
0.0775715 -0.0582308 0
0.0772803 -0.0578828 0
0.0769832 -0.0575099 0
0.0766822 -0.0571097 0
0.0763801 -0.0566796 0
0.0760759 -0.0562196 0
0.0757623 -0.0557337 0
0.0754359 -0.0552232 0
0.0750951 -0.0546879 0
0.0747379 -0.054128 0
0.0743626 -0.0535435 0
0.0739688 -0.0529338 0
0.0735559 -0.0522981 0
0.0731238 -0.0516357 0
0.0726718 -0.050946 0
0.0721991 -0.0502288 0
0.0717046 -0.049484 0
0.0711872 -0.0487117 0
0.0706461 -0.047912 0
0.0700804 -0.0470849 0
0.0694892 -0.0462308 0
0.0688718 -0.0453499 0
0.0682271 -0.0444431 0
0.0675544 -0.043511 0
0.0668527 -0.0425546 0
0.0661215 -0.0415748 0
0.06536 -0.040573 0
0.0645676 -0.0395504 0
0.0637439 -0.0385087 0
0.0628887 -0.0374493 0
0.062002 -0.0363741 0
0.0610838 -0.0352847 0
0.0601345 -0.0341831 0
0.0591547 -0.033071 0
0.0581456 -0.0319502 0
0.0571083 -0.0308224 0
0.0560444 -0.0296893 0
0.0549562 -0.028552 0
0.053845 -0.0274126 0
0.0527113 -0.0262746 0
0.051554 -0.0251427 0
0.0503724 -0.0240222 0
0.0491675 -0.0229164 0
0.047941 -0.0218282 0
0.0466955 -0.0207597 0
0.0454337 -0.0197126 0
0.0441592 -0.0186878 0
0.0428751 -0.0176863 0
0.0415841 -0.0167097 0
0.0402878 -0.0157609 0
0.0389879 -0.0148428 0
0.0376864 -0.0139575 0
0.0363853 -0.013107 0
0.0350871 -0.0122931 0
0.0337942 -0.0115164 0
0.0325095 -0.0107772 0
0.0312357 -0.0100756 0
0.0299758 -0.00941024 0
0.0287337 -0.00877784 0
0.0275126 -0.00817571 0
0.0263139 -0.00760375 0
0.0251376 -0.00706528 0
0.0239829 -0.0065649 0
0.0228537 -0.00609619 0
0.0217522 -0.00565563 0
0.0206795 -0.00524226 0
0.0196364 -0.00485507 0
0.0186233 -0.00449318 0
0.0176408 -0.00415577 0
0.016689 -0.00384204 0
0.0157682 -0.00355115 0
0.0148783 -0.00328218 0
0.0140192 -0.00303468 0
0.0131906 -0.00280795 0
0.0123925 -0.00260016 0
0.0116246 -0.00241012 0
0.0108864 -0.00223769 0
0.0101774 -0.00208212 0
0.00949701 -0.00194206 0
0.00884483 -0.0018163 0
0.0082202 -0.0017039 0
0.00762247 -0.00160391 0
0.00705097 -0.00151528 0
0.006505 -0.00143697 0
0.0059838 -0.00136806 0
0.00548662 -0.00130772 0
0.00501265 -0.00125519 0
0.00456114 -0.00120954 0
0.00413136 -0.00116914 0
0.00372257 -0.00113251 0
0.00333398 -0.00109853 0
0.00296466 -0.00106798 0
0.00261363 -0.0010431 0
-0.052721 -0.0445996 0
-0.0508204 -0.0440823 0
-0.0489199 -0.0435651 0
-0.0470193 -0.0430478 0
-0.0451187 -0.0425306 0
-0.0432181 -0.0420134 0
-0.0413175 -0.0414961 0
-0.039417 -0.0409789 0
-0.0375164 -0.0404616 0
-0.0356158 -0.0399444 0
-0.0337152 -0.0394271 0
-0.0318146 -0.0389099 0
-0.0299141 -0.0383927 0
-0.0280135 -0.0378754 0
-0.0261129 -0.0373582 0
-0.0242123 -0.0368409 0
-0.0223117 -0.0363237 0
-0.0204112 -0.0358065 0
-0.0185106 -0.0352892 0
-0.01661 -0.034772 0
-0.0147094 -0.0342547 0
-0.0128088 -0.0337375 0
-0.0109083 -0.0332202 0
-0.00900769 -0.032703 0
-0.00710711 -0.0321858 0
-0.00520653 -0.0316685 0
-0.00330595 -0.0311513 0
-0.00140537 -0.030634 0
0.00190689 -0.0299614 0
0.00332271 -0.0298498 0
0.00474133 -0.0297825 0
0.00616136 -0.0297597 0
0.0075814 -0.0297814 0
0.00900007 -0.0298477 0
0.010416 -0.0299583 0
0.0118278 -0.0301127 0
0.0132342 -0.0303103 0
0.0146339 -0.0305504 0
0.0160259 -0.0308322 0
0.0174091 -0.0311546 0
0.0187824 -0.0315166 0
0.020145 -0.031917 0
0.0214961 -0.0323546 0
0.0228351 -0.032828 0
0.0241613 -0.0333361 0
0.0254744 -0.0338774 0
0.0267738 -0.0344507 0
0.0280592 -0.0350545 0
0.0293306 -0.0356877 0
0.0305875 -0.0363488 0
0.0318301 -0.0370367 0
0.0330581 -0.0377501 0
0.0342717 -0.0384879 0
0.0354708 -0.0392489 0
0.0366556 -0.0400321 0
0.0378262 -0.0408363 0
0.0389828 -0.0416607 0
0.0401254 -0.0425042 0
0.0412543 -0.0433659 0
0.0423698 -0.0442451 0
0.043472 -0.0451408 0
0.0445612 -0.0460523 0
0.0456375 -0.0469789 0
0.0467013 -0.0479199 0
0.0477529 -0.0488746 0
0.0487923 -0.0498424 0
0.04982 -0.0508227 0
0.0508362 -0.051815 0
0.051841 -0.0528187 0
0.0528348 -0.0538333 0
0.0538178 -0.0548584 0
0.0547903 -0.0558935 0
0.0557524 -0.0569382 0
0.0567045 -0.0579922 0
0.0576467 -0.0590549 0
0.0585792 -0.0601261 0
0.0595024 -0.0612055 0
0.0604163 -0.0622926 0
0.0613212 -0.0633873 0
0.0622174 -0.0644891 0
0.0631049 -0.0655979 0
0.0639841 -0.0667134 0
0.064855 -0.0678353 0
0.0657179 -0.0689633 0
0.0665729 -0.0700974 0
0.0674202 -0.0712372 0
0.06826 -0.0723826 0
0.0690925 -0.0735333 0
0.0699178 -0.0746892 0
0.070736 -0.0758501 0
0.0715473 -0.0770159 0
0.0723518 -0.0781863 0
0.0731498 -0.0793612 0
0.0739412 -0.0805405 0
0.0747264 -0.081724 0
0.0755053 -0.0829116 0
0.0762781 -0.0841033 0
0.0770449 -0.0852987 0
0.0778059 -0.0864979 0
0.0785611 -0.0877007 0
0.0793108 -0.088907 0
0.0814681 -0.0912706 0
0.0828814 -0.0924245 0
0.0842946 -0.0935783 0
0.0857079 -0.0947322 0
0.0871211 -0.095886 0
0.0885344 -0.0970399 0
0.0899476 -0.0981937 0
0.0913609 -0.0993476 0
0.0927741 -0.100501 0
0.0941874 -0.101655 0
0.0956006 -0.102809 0
0.0970139 -0.103963 0
0.0984272 -0.105117 0
0.0998404 -0.106271 0
0.101254 -0.107424 0
0.102667 -0.108578 0
0.10408 -0.109732 0
0.105493 -0.110886 0
0.106907 -0.11204 0
0.10832 -0.113194 0
0.109733 -0.114348 0
0.111146 -0.115501 0
0.11256 -0.116655 0
0.113973 -0.117809 0
0.115386 -0.118963 0
0.116799 -0.120117 0
0.118213 -0.121271 0
0.119626 -0.122424 0
0.121039 -0.123578 0
0.122452 -0.124732 0
0.123866 -0.125886 0
0.125279 -0.12704 0
0.126692 -0.128194 0
0.128105 -0.129348 0
0.129519 -0.130501 0
0.130932 -0.131655 0
0.132345 -0.132809 0
0.133758 -0.133963 0
0.135172 -0.133216 0
0.135172 -0.131316 0
0.135172 -0.129415 0
0.135172 -0.127514 0
0.135172 -0.125614 0
0.135172 -0.123713 0
0.135172 -0.121813 0
0.135172 -0.119912 0
0.135172 -0.118012 0
0.135172 -0.116111 0
0.135172 -0.11421 0
0.135172 -0.11231 0
0.135172 -0.110409 0
0.135172 -0.108509 0
0.135172 -0.106608 0
0.135172 -0.104708 0
0.135172 -0.102807 0
0.135172 -0.100906 0
0.135172 -0.0990058 0
0.135172 -0.0971052 0
0.135172 -0.0952046 0
0.135172 -0.0933041 0
0.135172 -0.0914035 0
0.135172 -0.0895029 0
0.135172 -0.0876023 0
0.135172 -0.0857017 0
0.135172 -0.0838012 0
0.135172 -0.0819006 0
0.133758 -0.0788462 0
0.132345 -0.0776923 0
0.130932 -0.0765385 0
0.129519 -0.0753846 0
0.128105 -0.0742308 0
0.126692 -0.0730769 0
0.125279 -0.0719231 0
0.123866 -0.0707692 0
0.122452 -0.0696154 0
0.121039 -0.0684615 0
0.119626 -0.0673077 0
0.118213 -0.0661538 0
0.116799 -0.065 0
0.115386 -0.0638462 0
0.113973 -0.0626923 0
0.11256 -0.0615385 0
0.111146 -0.0603846 0
0.109733 -0.0592308 0
0.10832 -0.0580769 0
0.106907 -0.0569231 0
0.105493 -0.0557692 0
0.10408 -0.0546154 0
0.102667 -0.0534615 0
0.101254 -0.0523077 0
0.0998404 -0.0511538 0
0.0984272 -0.05 0
0.0970139 -0.0488462 0
0.0956006 -0.0476923 0
[...]
CELL_DATA 13116
SCALARS rho float
LOOKUP_TABLE default
0.466476
0.593201
0.387127
0.621987
0.627355
0.652588
0.355502
0.646686
0.444711
0.626976
0.354095
0.360952
0.627837
0.359951
0.348285
0.652294
0.43604
0.620494
0.641049
0.370483
0.471568
0.369925
0.360803
0.622121
0.527867
0.614612
0.626649
0.379248
0.525446
0.567237
0.660001
0.350748
0.472716
0.370637
0.354954
0.469143
0.587411
0.628345
0.65506
0.644985
0.646188
0.644452
0.351704
0.382748
0.638963
0.640391
0.578048
0.640099
0.347728
0.440562
0.642142
0.366456
0.361305
0.428891
0.471367
0.503014
0.380976
0.618672
0.453479
0.349448
0.359599
0.62821
0.586051
0.655505
0.659712
0.370627
0.646998
0.594794
0.644509
0.658998
0.347601
0.50402
0.390718
0.373658
0.662701
0.389437
0.566452
0.632414
0.355575
0.617795
0.601732
0.61081
0.622449
0.635371
0.627442
0.372374
0.362424
0.59206
0.628032
0.359295
0.358707
0.595402
0.623669
0.63652
0.570469
0.516704
0.530631
0.661532
0.661684
0.516543
0.603069
0.518168
0.645017
0.337853
0.5688
0.363275
0.296738
0.394009
0.37248
0.536581
0.421142
0.59573
0.514771
0.605398
0.618522
0.647015
0.362868
0.323018
0.634628
0.646529
0.595244
0.393616
0.64432
0.358084
0.634482
0.362873
0.362997
0.427662
0.373842
0.442042
0.635243
0.616663
0.420266
0.34717
0.401457
0.502541
0.668636
0.643546
0.602098
0.646381
0.548561
0.58158
0.426291
0.550023
0.57427
0.355766
0.354698
0.603965
0.62459
0.645462
0.460685
0.635789
0.6407
0.394293
0.625692
0.630478
0.360334
0.609098
0.661217
0.592506
0.621443
0.353776
0.620512
0.36356
0.395765
0.63121
0.630148
0.619978
0.355085
0.385503
0.348852
0.668393
0.353751
0.41172
0.647295
0.358424
0.351256
0.386992
0.591325
0.651953
0.389186
0.357408
0.440971
0.587809
0.651598
0.451318
0.385235
0.647353
0.563097
0.382913
0.557551
0.601529
0.658214
0.35342
0.590196
0.652133
0.625312
0.646287
0.625728
0.3267
0.33845
0.542318
0.422472
0.367909
0.622265
0.629445
0.374507
0.527621
0.360697
0.365841
0.389188
0.648353
0.361179
0.377645
0.358692
0.393671
0.306236
0.654705
0.632303
0.3614
0.381181
0.647176
0.415149
0.388855
0.472162
0.627711
0.571489
0.379796
0.647358
0.323769
0.65052
0.352636
0.657796
0.493242
0.662278
0.639476
0.657691
0.345792
0.356648
0.592486
0.663442
0.652226
0.667705
0.65672
0.648304
0.353824
0.642736
0.626619
0.661624
0.358661
0.349018
0.633414
0.636216
0.658489
0.632436
0.45277
0.608778
0.353361
0.365492
0.325521
0.360753
0.55161
0.625068
0.565261
0.359512
0.639288
0.375793
0.358614
0.570875
0.385713
0.611136
0.640689
0.6645
0.618354
0.34578
0.664732
0.607238
0.661593
0.643461
0.355601
0.363948
0.357448
0.497544
0.393856
0.347125
0.275081
0.363687
0.61668
0.361246
0.63213
0.63138
0.375762
0.379192
0.37536
0.375416
0.387349
0.590448
0.508952
0.583823
0.384586
0.647489
0.505106
0.371765
0.348244
0.654599
0.637054
0.646852
0.383268
0.651869
0.342885
0.616921
0.642237
0.645914
0.642354
0.356436
0.647445
0.359776
0.649786
0.623556
0.593487
0.364824
0.274812
0.627159
0.371966
0.598449
0.628542
0.340901
0.612149
0.622039
0.370971
0.638356
0.624016
0.362169
0.636812
0.374236
0.492382
0.651046
0.379801
0.60949
0.360703
0.620429
0.284688
0.655889
0.521066
0.625286
0.378164
0.296445
0.629339
0.392766
0.623911
0.571144
0.3496
0.668307
0.391396
0.393995
0.627932
0.472777
0.593069
0.364615
0.362284
0.643243
0.630777
0.355171
0.636038
0.362954
0.36479
0.646775
0.649934
0.38126
0.366835
0.641752
0.659433
0.652265
0.637002
0.618877
0.461049
0.398426
0.359434
0.388189
0.652559
0.388187
0.438998
0.327647
0.343072
0.291429
0.391148
0.118835
0.392585
0.629061
0.36175
0.621388
0.525232
0.642476
0.583273
0.640989
0.394261
0.363469
0.3333
0.390269
0.623649
0.51035
0.644722
0.525891
0.575651
0.539411
0.608039
0.54232
0.564247
0.618386
0.617354
0.653698
0.331432
0.381253
0.462501
0.378938
0.505245
0.501294
0.36146
0.647137
0.664179
0.358986
0.367533
0.359987
0.387244
0.552469
0.355155
0.353663
0.647864
0.374274
0.493046
0.359479
0.651759
0.6026
0.387018
0.346862
0.626654
0.376613
0.361896
0.386388
0.365986
0.371947
0.366029
0.368383
0.365951
0.358442
0.353646
0.515065
0.396467
0.62932
0.318333
0.35281
0.422578
0.355941
0.358599
0.354203
0.643544
0.36358
0.563579
0.396532
0.373777
0.530278
0.629886
0.371739
0.611581
0.540639
0.53913
0.369475
0.661949
0.323639
0.619233
0.660469
0.365784
0.359382
0.55993
0.392531
0.381216
0.52488
0.296084
0.608089
0.578679
0.38339
0.349755
0.355184
0.407455
0.347329
0.362016
0.352
0.359874
0.630846
0.627363
0.381414
0.519894
0.400834
0.5867
0.295365
0.374513
0.449311
0.366262
0.625214
0.243422
0.308133
0.416382
0.637875
0.625724
0.479307
0.340107
0.359402
0.487586
0.64595
0.65789
0.483904
0.567913
0.548998
0.355584
0.601407
0.488734
0.591343
0.350585
0.38829
0.604338
0.625349
0.582065
0.627255
0.616535
0.620255
0.620447
0.591804
0.642985
0.376834
0.637285
0.281327
0.360982
0.375235
0.620027
0.631084
0.263557
0.626502
0.543145
0.364814
0.656762
0.637448
0.614281
0.379077
0.374914
0.629734
0.363269
0.370476
0.360754
0.356656
0.620747
0.361994
0.617905
0.39612
0.592921
0.64252
0.645627
0.629668
0.363288
0.382906
0.629905
0.649545
0.577531
0.630925
0.626328
0.41753
0.37052
0.368089
0.64917
0.446653
0.361405
0.37647
0.345249
0.645378
0.647256
0.35545
0.37314
0.625923
0.388674
0.629882
0.584729
0.374059
0.324414
0.573149
0.663992
0.365864
0.622802
0.630011
0.630564
0.389607
0.667589
0.378622
0.662693
0.589868
0.367715
0.306197
0.346889
0.662439
0.374351
0.357307
0.323519
0.655981
0.61451
0.357426
0.358103
0.355908
0.656477
0.391261
0.652061
0.356096
0.508007
0.627484
0.314257
0.363791
0.361559
0.417995
0.370277
0.619701
0.385076
0.365918
0.652886
0.357376
0.649053
0.592611
0.662143
0.382155
0.626731
0.623257
0.625234
0.648548
0.644344
0.646867
0.351632
0.658286
0.363261
0.619693
0.357254
0.648152
0.424705
0.355735
0.660014
0.622093
0.383724
0.545236
0.357629
0.347694
0.647946
0.64307
0.351234
0.354227
0.355934
0.35062
0.645582
0.622012
0.391955
0.384821
0.623307
0.644733
0.509965
0.622757
0.647941
0.35397
0.62616
0.354172
0.642503
0.325297
0.514459
0.40326
0.647645
0.594413
0.497029
0.288187
0.376408
0.645448
0.525749
0.434502
0.622268
0.360464
0.605823
0.62526
0.303692
0.379028
0.623662
0.346638
0.659346
0.593651
0.271134
0.646125
0.56855
0.393177
0.612085
0.357204
0.620439
0.3906
0.648668
0.584428
0.374768
0.655526
0.621082
0.627547
0.544658
0.604933
0.503414
0.34957
0.345102
0.292793
0.370244
0.669882
0.475226
0.644654
0.624204
0.384509
0.387364
0.609787
0.626402
0.626207
0.641662
0.36232
0.617503
0.626742
0.370232
0.304557
0.633744
0.634329
0.624092
0.352287
0.511175
0.38589
0.610519
0.593086
0.657459
0.605699
0.359055
0.612653
0.630905
0.623671
0.641898
0.647761
0.360043
0.618866
0.367837
0.553075
0.627099
0.385163
0.579808
0.657103
0.643015
0.331878
0.33933
0.504751
0.574857
0.363339
0.367218
0.390614
0.353731
0.593547
0.6052
0.657239
0.363895
0.353338
0.644481
0.607562
0.36204
0.378133
0.386725
0.586651
0.64634
0.636199
0.614347
0.364864
0.364796
0.666764
0.356279
0.379363
0.387169
0.648678
0.385036
0.363072
0.495064
0.625295
0.589673
0.654092
0.648083
0.364103
0.355673
0.389669
0.396159
0.363321
0.354613
0.593207
0.613857
0.61395
0.645461
0.346472
0.379136
0.627159
0.367848
0.648198
0.584692
0.660403
0.351215
0.367592
0.61375
0.659927
0.478382
0.362174
0.630148
0.653503
0.490619
0.646038
0.644624
0.665873
0.566732
0.363616
0.64844
0.659195
0.537236
0.610575
0.669784
0.597045
0.665898
0.643292
0.364917
0.361951
0.377594
0.659691
0.423392
0.366453
0.610126
0.622635
0.361073
0.553475
0.387977
0.559344
0.389307
0.351146
0.626824
0.621497
0.360568
0.470474
0.65946
0.373034
0.636709
0.366434
0.363101
0.535039
0.52809
0.422449
0.644307
0.391594
0.620495
0.359342
0.347603
0.649211
0.360629
0.521605
0.347246
0.552618
0.516087
0.666099
0.627311
0.358137
0.365814
0.536976
0.353625
0.625089
0.379834
0.508906
0.65247
0.623556
0.366463
0.533621
0.590487
0.625675
0.646377
0.287608
0.366431
0.460668
0.590793
0.624855
0.309893
0.645094
0.480287
0.332754
0.349175
0.595242
0.587514
0.667053
0.662772
0.526674
0.606238
0.655298
0.595445
0.352108
0.582402
0.384443
0.645898
0.634345
0.365744
0.64765
0.629247
0.383043
0.348923
0.372537
0.669656
0.353606
0.534866
0.615624
0.584073
0.367786
0.624126
0.36385
0.510859
0.65634
0.657603
0.591383
0.656501
0.539346
0.600433
0.442261
0.619469
0.389631
0.649145
0.645696
0.335985
0.664873
0.606998
0.359928
0.359516
0.374279
0.645547
0.366708
0.665137
0.392649
0.647503
0.359418
0.403817
0.353842
0.618624
0.640777
0.450918
0.259868
0.539301
0.654371
0.383053
0.509025
0.625945
0.352589
0.505879
0.660702
0.627692
0.647697
0.364716
0.391609
0.625429
0.641146
0.554248
0.36403
0.335996
0.63169
0.667486
0.664119
0.668041
0.465652
0.616773
0.46095
0.646049
0.364438
0.365921
0.667748
0.627243
0.655725
0.37033
0.648488
0.473429
0.517105
0.392155
0.347051
0.635549
0.633928
0.475152
0.39897
0.644422
0.664236
0.35494
0.530684
0.614015
0.355145
0.348594
0.359123
0.568544
0.380933
0.377226
0.637013
0.386929
0.626067
0.560064
0.3557
0.368835
0.633251
0.377094
0.355982
0.659849
0.361996
0.296208
0.509767
0.643384
0.623937
0.352987
0.391911
0.354483
0.593857
0.363345
0.625475
0.35577
0.612064
0.627882
0.637788
0.577357
0.608658
0.590773
0.646825
0.629801
0.629181
0.362097
0.379208
0.59946
0.655217
0.428277
0.576306
0.476709
0.655839
0.535516
0.386472
0.646632
0.626722
0.62144
0.361422
0.612502
0.392754
0.634219
0.420577
0.618138
0.64796
0.351436
0.621788
0.357149
0.353465
0.586257
0.387555
0.608639
0.669672
0.648531
0.388741
0.648041
0.353322
0.357597
0.341797
0.360171
0.528885
0.354473
0.552183
0.656461
0.398195
0.35322
0.411374
0.501277
0.552418
0.559767
0.381965
0.369832
0.354837
0.35406
0.270202
0.551814
0.602848
0.380702
0.656279
0.615371
0.359206
0.623703
0.60688
0.656159
0.368829
0.663163
0.603381
0.619621
0.646074
0.346049
0.62343
0.622105
0.613462
0.596143
0.652737
0.347536
0.344546
0.637207
0.458646
0.367446
0.649681
0.354354
0.491966
0.54477
0.617732
0.622052
0.356321
0.573769
0.324989
0.363832
0.612943
0.626455
0.623187
0.641706
0.578846
0.359194
0.628659
0.355841
0.42716
0.631553
0.661815
0.625584
0.360617
0.359793
0.627062
0.366965
0.629798
0.574378
0.356707
0.347271
0.646438
0.348554
0.648
0.62873
0.575975
0.347967
0.364062
0.424089
0.435677
0.539408
0.393846
0.652145
0.561159
0.632537
0.670259
0.612073
0.359235
0.347287
0.631752
0.652656
0.549384
0.385324
0.368509
0.598369
0.355902
0.647572
0.53868
0.397362
0.622832
0.355082
0.634427
0.388464
0.624917
0.345521
0.629739
0.652607
0.35425
0.635591
0.57412
0.302357
0.657031
0.641934
0.474929
0.356093
0.30236
0.387919
0.623735
0.538991
0.393179
0.506588
0.614556
0.653145
0.367508
0.526943
0.609957
0.38844
0.651957
0.649877
0.344846
0.633432
0.661215
0.387071
0.515606
0.389045
0.557382
0.394249
0.363798
0.624995
0.367777
0.356901
0.358587
0.647438
0.59829
0.337931
0.643869
0.300999
0.587414
0.353334
0.601244
0.320161
0.651997
0.637794
0.566938
0.656985
0.474132
0.652612
0.655987
0.381518
0.561883
0.572299
0.405483
0.611756
0.416976
0.342748
0.628422
0.390637
0.491714
0.388501
0.644868
0.362237
0.35319
0.621763
0.647727
0.382008
0.645969
0.614079
0.669729
0.642731
0.662898
0.363596
0.622217
0.378341
0.362073
0.631743
0.615413
0.645418
0.629268
0.352823
0.394092
0.353983
0.596466
0.656407
0.301555
0.647661
0.36774
0.392681
0.390547
0.630248
0.325153
0.628802
0.628405
0.560598
0.642258
0.629209
0.49087
0.560645
0.364518
0.325967
0.382158
0.662913
0.66347
0.369434
0.551067
0.565224
0.561925
0.364713
0.328566
0.564995
0.232698
0.556425
0.514997
0.376562
0.653793
0.595731
0.370064
0.624099
0.354971
0.645105
0.624906
0.60984
0.356249
0.39632
0.606917
0.262545
0.373463
0.642271
0.283482
0.653241
0.646428
0.608859
0.614469
0.398952
0.660496
0.612213
0.641402
0.303746
0.640013
0.361817
0.359058
0.625593
0.646584
0.656086
0.197626
0.647961
0.561336
0.662773
0.370159
0.361707
0.361263
0.644382
0.355432
0.356624
0.392911
0.512898
0.354264
0.368721
0.371787
0.626611
0.373639
0.656921
0.655082
0.645075
0.386687
0.637258
0.579077
0.656542
0.348548
0.593715
0.355155
0.389713
0.648444
0.380078
0.546636
0.611985
0.666459
0.378508
0.275077
0.383062
0.482662
0.667847
0.196064
0.628805
0.647582
0.615697
0.35758
0.356626
0.287692
0.542707
0.360679
0.670241
0.530188
0.654496
0.63299
0.354962
0.547179
0.351516
0.488405
0.576416
0.626587
0.490394
0.39979
0.593357
0.553777
0.632135
0.391696
0.331376
0.377659
0.61754
0.45245
0.66172
0.377312
0.332833
0.618377
0.636087
0.658195
0.38061
0.645267
0.480955
0.484287
0.542203
0.369847
0.379167
0.335993
0.646543
0.65698
0.594489
0.583698
0.28671
0.6497
0.586604
0.656958
0.65685
0.64843
0.626896
0.652879
0.614133
0.622357
0.365392
0.640176
0.641616
0.651011
0.637199
0.645966
0.496237
0.368605
0.363235
0.541939
0.364831
0.399033
0.644329
0.351914
0.564602
0.644866
0.592654
0.623009
0.36376
0.645408
0.338476
0.365022
0.652526
0.617837
0.645459
0.384448
0.638109
0.64423
0.542439
0.647309
0.373275
0.651515
0.627219
0.594118
0.327972
0.619483
0.355098
0.62327
0.389372
0.369017
0.441539
0.375456
0.626813
0.619538
0.648106
0.393391
0.651998
0.34029
0.351949
0.615195
0.414936
0.360947
0.646162
0.350285
0.436673
0.593498
0.573115
0.618285
0.413936
0.520269
0.581401
0.649452
0.493586
0.623377
0.457427
0.654314
0.580387
0.57238
0.349866
0.354257
0.374872
0.641535
0.360228
0.591102
0.646109
0.523724
0.649166
0.438648
0.607484
0.597077
0.363764
0.646372
0.567585
0.411067
0.569884
0.627711
0.620699
0.654334
0.359272
0.361824
0.619004
0.45553
0.463261
0.644835
0.632956
0.643781
0.624773
0.625756
0.542609
0.559271
0.624835
0.356563
0.353144
0.36209
0.395347
0.664535
0.384013
0.457044
0.623339
0.602303
0.364539
0.623011
0.61747
0.384206
0.313264
0.664501
0.641544
0.370324
0.357553
0.359252
0.670255
0.612637
0.332168
0.358572
0.376556
0.364898
0.346858
0.36647
0.65277
0.638677
0.606992
0.393267
0.594268
0.526548
0.535733
0.349126
0.366042
0.614068
0.668189
0.360717
0.652142
0.369751
0.621771
0.365934
0.644316
0.383786
0.615015
0.635286
0.389359
0.486062
0.353741
0.622428
0.363421
0.530828
0.35488
0.427848
0.355268
0.521371
0.381751
0.657476
0.658178
0.533642
0.607418
0.349107
0.602621
0.654556
0.636831
0.523996
0.588316
0.367659
0.324431
0.372748
0.624286
0.242935
0.62881
0.468811
0.615195
0.627839
0.384017
0.618951
0.350764
0.364731
0.355563
0.432078
0.439964
0.631394
0.385681
0.346717
0.649892
0.318056
0.351057
0.473372
0.310921
0.36077
0.363319
0.644575
0.58284
0.535616
0.365475
0.597817
0.646488
0.339293
0.270975
0.631429
0.64899
0.491154
0.440036
0.346537
0.303066
0.393762
0.644832
0.538777
0.443989
0.610399
0.358946
0.490113
0.354364
0.659886
0.630824
0.370276
0.366235
0.546287
0.465928
0.631092
0.622515
0.624119
0.645735
0.630305
0.391786
0.381153
0.378186
0.3558
0.458861
0.660253
0.584789
0.358789
0.382923
0.376911
0.348828
0.643364
0.570928
0.357105
0.362226
0.645272
0.367411
0.579899
0.620105
0.597293
0.652496
0.470815
0.370573
0.377619
0.554139
0.370994
0.348366
0.333179
0.654925
0.644872
0.36914
0.375669
0.668238
0.385081
0.647751
0.623946
0.37687
0.385572
0.36025
0.643834
0.362361
0.669755
0.610734
0.524235
0.356624
0.454151
0.63032
0.626009
0.355559
0.618435
0.543811
0.373485
0.632535
0.646042
0.357919
0.367387
0.612628
0.380089
0.356897
0.608189
0.289913
0.63744
0.607911
0.62334
0.550333
0.626847
0.64636
0.653364
0.354763
0.34526
0.558933
0.619978
0.396017
0.624082
0.336897
0.643544
0.620497
0.491442
0.574858
0.325145
0.383251
0.624626
0.62601
0.576593
0.63631
0.646089
0.665963
0.644642
0.669101
0.643939
0.617937
0.64631
0.667719
0.652947
0.275947
0.613176
0.381204
0.646444
0.64105
0.616456
0.588228
0.614077
0.381243
0.390274
0.263471
0.35517
0.592999
0.378155
0.370166
0.603364
0.352568
0.613383
0.39424
0.610094
0.62471
0.370112
0.320274
0.398034
0.643101
0.373563
0.631043
0.62092
0.385334
0.61151
0.479545
0.400493
0.377321
0.336736
0.615772
0.367339
0.646235
0.435343
0.353494
0.643952
0.645723
0.624099
0.368881
0.496637
0.353355
0.59626
0.654435
0.646871
0.364702
0.618152
0.644179
0.585808
0.340366
0.642707
0.368546
0.355071
0.640505
0.379746
0.62689
0.345207
0.363065
0.37341
0.590928
0.375351
0.242434
0.391319
0.40405
0.662255
0.623832
0.360887
0.519901
0.644793
0.48367
0.349694
0.396272
0.481982
0.365075
0.356635
0.634642
0.354949
0.361369
0.644913
0.628988
0.385129
0.619429
0.39164
0.664932
0.380607
0.618963
0.658767
0.615516
0.654276
0.37292
0.354813
0.349145
0.653387
0.616628
0.517682
0.464164
0.3115
0.254441
0.649756
0.354664
0.637823
0.32085
0.657632
0.596376
0.380886
0.381462
0.357379
0.373398
0.380137
0.545677
0.59369
0.384791
0.637484
0.56239
0.353251
0.354991
0.624825
0.36072
0.62811
0.359268
0.614939
0.581291
0.637843
0.66183
0.354552
0.625461
0.645445
0.643366
0.365299
0.543603
0.524965
0.398377
0.642674
0.563547
0.657065
0.600869
0.629877
0.639382
0.641832
0.650417
0.642201
0.380419
0.623316
0.358303
0.384391
0.641688
0.350205
0.620472
0.55368
0.347186
0.584951
0.366853
0.359848
0.634752
0.538178
0.629769
0.356458
0.601613
0.545019
0.381401
0.390952
0.628295
0.64689
0.316241
0.393277
0.614602
0.627284
0.369845
0.567413
0.633263
0.585908
0.376885
0.368601
0.353476
0.582977
0.343261
0.618679
0.617698
0.649372
0.526708
0.62786
0.357496
0.624745
0.543954
0.635302
0.487439
0.348649
0.354707
0.362325
0.6222
0.623591
0.357116
0.578969
0.392562
0.569044
0.646528
0.360702
0.542012
0.62006
0.546746
0.39185
0.363299
0.395662
0.629045
0.627077
0.542273
0.439544
0.633684
0.359316
0.559294
0.663902
0.617527
0.39221
0.554878
0.347543
0.565485
0.363447
0.627004
0.635239
0.366264
0.632007
0.355366
0.667864
0.563572
0.670294
0.645966
0.346037
0.650336
0.645607
0.645818
0.628444
0.409623
0.66419
0.361421
0.644981
0.361316
0.386394
0.358363
0.380188
0.364238
0.390605
0.632411
0.306997
0.356167
0.583436
0.631612
0.596675
0.33565
0.610132
0.6095
0.653284
0.302186
0.50052
0.646974
0.394916
0.392189
0.354056
0.552794
0.433711
0.378887
0.506986
0.343938
0.662233
0.427025
0.363107
0.399779
0.576456
0.397104
0.647216
0.358654
0.394405
0.314294
0.645567
0.322705
0.57722
0.663499
0.55197
0.348021
0.362645
0.644923
0.627907
0.393262
0.357513
0.652613
0.379496
0.618977
0.392961
0.483633
0.362143
0.646644
0.384848
0.630815
0.386167
0.646652
0.631477
0.627277
0.664915
0.361027
0.358628
0.333142
0.61872
0.602338
0.589201
0.442555
0.347934
0.617585
0.396857
0.613451
0.520658
0.343233
0.348631
0.621203
0.629105
0.354756
0.659207
0.649104
0.621742
0.62372
0.358493
0.562115
0.356797
0.622442
0.342901
0.655487
0.609722
0.644422
0.632756
0.353644
0.627272
0.367643
0.370009
0.64796
0.664443
0.471066
0.621928
0.6647
0.360374
0.620818
0.643118
0.643597
0.355408
0.35804
0.605972
0.377502
0.642658
0.646101
0.623548
0.646037
0.240776
0.375375
0.576422
0.364231
0.622169
0.622398
0.397955
0.632151
0.279934
0.555696
0.621053
0.604869
0.635067
0.361231
0.356724
0.630731
0.616004
0.346451
0.351734
0.386748
0.364328
0.356304
0.329153
0.385123
0.366329
0.628214
0.360836
0.379242
0.613589
0.46916
0.668032
0.332127
0.377262
0.644297
0.393087
0.400669
0.625929
0.311699
0.588253
0.657263
0.536265
0.601947
0.37484
0.624793
0.655344
0.381807
0.353934
0.343216
0.550311
0.535626
0.629142
0.651733
0.617808
0.60466
0.344285
0.629896
0.654852
0.634528
0.365802
0.646061
0.503703
0.390561
0.36288
0.361107
0.353679
0.359151
0.514627
0.594937
0.600363
0.356375
0.326732
0.634585
0.359658
0.618641
0.645071
0.622455
0.6052
0.636023
0.394409
0.353857
0.351561
0.488855
0.348551
0.641258
0.35578
0.648396
0.652376
0.640283
0.394466
0.376404
0.345146
0.630242
0.39209
0.353752
0.644254
0.602686
0.542804
0.652363
0.627072
0.618413
0.366663
0.552835
0.625282
0.455411
0.629108
0.618884
0.619406
0.388452
0.35837
0.643658
0.423396
0.534983
0.356173
0.578479
0.627385
0.32759
0.34391
0.592426
0.433584
0.62524
0.618051
0.368055
0.373131
0.661149
0.316827
0.342189
0.632036
0.628217
0.34739
0.632552
0.661012
0.588824
0.367638
0.516027
0.367933
0.637331
0.631214
0.61825
0.596329
0.660742
0.364954
0.311749
0.609702
0.371266
0.53536
0.352255
0.637071
0.357199
0.573017
0.624485
0.66141
0.364062
0.669869
0.663141
0.354491
0.578065
0.347695
0.642956
0.361888
0.379754
0.360538
0.60113
0.639392
0.271208