# vtk DataFile Version 1.0
unstructured grid
ascii
DATASET UNSTRUCTURED_GRID
points 13672 float
0.0796578 -0.059106 0
0.00128732 0.00159165 0
0.00227961 -0.00102548 0
0.0791586 -0.0598787 0
-0.0546216 0.01 0
0.000495206 0.025 0
0.0800549 -0.035 0
0.135172 -0.08 0
-0.0546216 -0.0451168 0
0.000495206 -0.0301168 0
0.0800549 -0.0901168 0
0.135172 -0.135117 0
-0.0546216 -0.0451168 -0.00551168
0.000495206 -0.0301168 -0.00551168
0.0800549 -0.0901168 -0.00551168
0.135172 -0.135117 -0.00551168
0.135172 -0.08 -0.00551168
0.0800549 -0.035 -0.00551168
0.000495206 0.025 -0.00551168
-0.0546216 0.01 -0.00551168
0.00128732 0.00159165 -0.00551168
0.00227961 -0.00102548 -0.00551168
0.0791586 -0.0598787 -0.00551168
0.0796578 -0.059106 -0.00551168
0.00165953 -0.000990923 0
0.00119576 -0.000874076 0
0.000866021 -0.000641801 0
0.000645147 -0.000349912 0
0.00052235 -1.7281e-05 0
0.00049972 0.000348016 0
0.000601632 0.000737716 0
0.000861774 0.0011403 0
0.00157235 0.00183217 0
0.00188647 0.00206725 0
0.00222612 0.00230203 0
0.00258713 0.00254351 0
0.00296826 0.00279524 0
0.00337118 0.00305664 0
0.00379785 0.00332658 0
0.00425045 0.00360349 0
0.00473139 0.00388521 0
0.0052432 0.00416895 0
0.0057881 0.00445204 0
0.00636753 0.00473281 0
0.00698281 0.00500961 0
0.00763526 0.00528058 0
0.00832616 0.00554366 0
0.00905691 0.00579603 0
0.00982918 0.00603333 0
0.0106445 0.00625033 0
0.0115038 0.00644128 0
0.0124073 0.00660297 0
0.0133543 0.00673414 0
0.0143444 0.00683382 0
0.0153769 0.00690031 0
0.0164512 0.00693173 0
0.0175666 0.00692547 0
0.0187219 0.00687822 0
0.0199156 0.00678477 0
0.0211454 0.00663864 0
0.0224084 0.00643275 0
0.0237018 0.00616676 0
0.0250249 0.00584739 0
0.026375 0.00547298 0
0.0277479 0.00503752 0
0.0291386 0.00453545 0
0.0305433 0.0039653 0
0.0319572 0.0033256 0
0.0333681 0.00260019 0
0.034775 0.00179799 0
0.0361793 0.000930615 0
0.0375798 3.12222e-06 0
0.0389689 -0.000988429 0
0.0403357 -0.00205109 0
0.041675 -0.00318283 0
0.0429849 -0.00437751 0
0.0442643 -0.00562904 0
0.0455126 -0.00693089 0
0.0467314 -0.00827518 0
0.0479204 -0.00965638 0
0.0490661 -0.0110799 0
0.0501515 -0.0125519 0
0.0511696 -0.0140695 0
0.0521492 -0.0156071 0
0.0531202 -0.0171411 0
0.0540851 -0.0186663 0
0.0550431 -0.0201798 0
0.0559923 -0.0216793 0
0.0569311 -0.0231626 0
0.0578582 -0.0246273 0
0.0587723 -0.0260715 0
0.0596721 -0.027493 0
0.0605563 -0.02889 0
0.0614241 -0.0302609 0
0.0622742 -0.0316042 0
0.063106 -0.0329183 0
0.0639186 -0.034202 0
0.0647113 -0.0354543 0
0.0654835 -0.0366743 0
0.0662345 -0.0378613 0
0.0669642 -0.0390145 0
0.0676726 -0.0401333 0
0.0683597 -0.0412172 0
0.0690246 -0.0422665 0
0.0696662 -0.0432819 0
0.0702841 -0.0442636 0
0.0708793 -0.0452111 0
0.0714538 -0.0461237 0
0.072009 -0.047001 0
0.0725452 -0.0478434 0
0.0730611 -0.0486524 0
0.073556 -0.0494294 0
0.0740291 -0.0501756 0
0.0744812 -0.0508916 0
0.0749138 -0.0515773 0
0.0753285 -0.0522331 0
0.0757266 -0.0528592 0
0.076109 -0.0534564 0
0.0764753 -0.0540264 0
0.0768243 -0.054571 0
0.0771553 -0.0550919 0
0.0774679 -0.0555901 0
0.0777617 -0.0560669 0
0.0780369 -0.056523 0
0.0782958 -0.0569578 0
0.0785421 -0.0573703 0
0.0787786 -0.0577603 0
0.0790073 -0.0581279 0
0.0792295 -0.058474 0
0.0794462 -0.0587995 0
0.0798803 -0.0594162 0
0.0800272 -0.0596588 0
0.0800357 -0.0598891 0
0.0799275 -0.0600784 0
0.0797205 -0.0601773 0
0.0794593 -0.0601051 0
0.0789155 -0.0596491 0
0.0786707 -0.0593963 0
0.0784111 -0.0591319 0
0.0781372 -0.0588542 0
0.0778566 -0.0585548 0
0.0775715 -0.0582308 0
0.0772803 -0.0578828 0
0.0769832 -0.0575099 0
0.0766822 -0.0571097 0
0.0763801 -0.0566796 0
0.0760759 -0.0562196 0
0.0757623 -0.0557337 0
0.0754359 -0.0552232 0
0.0750951 -0.0546879 0
0.0747379 -0.054128 0
0.0743626 -0.0535435 0
0.0739688 -0.0529338 0
0.0735559 -0.0522981 0
0.0731238 -0.0516357 0
0.0726718 -0.050946 0
0.0721991 -0.0502288 0
0.0717046 -0.049484 0
0.0711872 -0.0487117 0
0.0706461 -0.047912 0
0.0700804 -0.0470849 0
0.0694892 -0.0462308 0
0.0688718 -0.0453499 0
0.0682271 -0.0444431 0
0.0675544 -0.043511 0
0.0668527 -0.0425546 0
0.0661215 -0.0415748 0
0.06536 -0.040573 0
0.0645676 -0.0395504 0
0.0637439 -0.0385087 0
0.0628887 -0.0374493 0
0.062002 -0.0363741 0
0.0610838 -0.0352847 0
0.0601345 -0.0341831 0
0.0591547 -0.033071 0
0.0581456 -0.0319502 0
0.0571083 -0.0308224 0
0.0560444 -0.0296893 0
0.0549562 -0.028552 0
0.053845 -0.0274126 0
0.0527113 -0.0262746 0
0.051554 -0.0251427 0
0.0503724 -0.0240222 0
0.0491675 -0.0229164 0
0.047941 -0.0218282 0
0.0466955 -0.0207597 0
0.0454337 -0.0197126 0
0.0441592 -0.0186878 0
0.0428751 -0.0176863 0
0.0415841 -0.0167097 0
0.0402878 -0.0157609 0
0.0389879 -0.0148428 0
0.0376864 -0.0139575 0
0.0363853 -0.013107 0
0.0350871 -0.0122931 0
0.0337942 -0.0115164 0
0.0325095 -0.0107772 0
0.0312357 -0.0100756 0
0.0299758 -0.00941024 0
0.0287337 -0.00877784 0
0.0275126 -0.00817571 0
0.0263139 -0.00760375 0
0.0251376 -0.00706528 0
0.0239829 -0.0065649 0
0.0228537 -0.00609619 0
0.0217522 -0.00565563 0
0.0206795 -0.00524226 0
0.0196364 -0.00485507 0
0.0186233 -0.00449318 0
0.0176408 -0.00415577 0
0.016689 -0.00384204 0
0.0157682 -0.00355115 0
0.0148783 -0.00328218 0
0.0140192 -0.00303468 0
0.0131906 -0.00280795 0
0.0123925 -0.00260016 0
0.0116246 -0.00241012 0
0.0108864 -0.00223769 0
0.0101774 -0.00208212 0
0.00949701 -0.00194206 0
0.00884483 -0.0018163 0
0.0082202 -0.0017039 0
0.00762247 -0.00160391 0
0.00705097 -0.00151528 0
0.006505 -0.00143697 0
0.0059838 -0.00136806 0
0.00548662 -0.00130772 0
0.00501265 -0.00125519 0
0.00456114 -0.00120954 0
0.00413136 -0.00116914 0
0.00372257 -0.00113251 0
0.00333398 -0.00109853 0
0.00296466 -0.00106798 0
0.00261363 -0.0010431 0
-0.052721 -0.0445996 0
-0.0508204 -0.0440823 0
-0.0489199 -0.0435651 0
-0.0470193 -0.0430478 0
-0.0451187 -0.0425306 0
-0.0432181 -0.0420134 0
-0.0413175 -0.0414961 0
-0.039417 -0.0409789 0
-0.0375164 -0.0404616 0
-0.0356158 -0.0399444 0
-0.0337152 -0.0394271 0
-0.0318146 -0.0389099 0
-0.0299141 -0.0383927 0
-0.0280135 -0.0378754 0
-0.0261129 -0.0373582 0
-0.0242123 -0.0368409 0
-0.0223117 -0.0363237 0
-0.0204112 -0.0358065 0
-0.0185106 -0.0352892 0
-0.01661 -0.034772 0
-0.0147094 -0.0342547 0
-0.0128088 -0.0337375 0
-0.0109083 -0.0332202 0
-0.00900769 -0.032703 0
-0.00710711 -0.0321858 0
-0.00520653 -0.0316685 0
-0.00330595 -0.0311513 0
-0.00140537 -0.030634 0
0.00190689 -0.0299614 0
0.00332271 -0.0298498 0
0.00474133 -0.0297825 0
0.00616136 -0.0297597 0
0.0075814 -0.0297814 0
0.00900007 -0.0298477 0
0.010416 -0.0299583 0
0.0118278 -0.0301127 0
0.0132342 -0.0303103 0
0.0146339 -0.0305504 0
0.0160259 -0.0308322 0
0.0174091 -0.0311546 0
0.0187824 -0.0315166 0
0.020145 -0.031917 0
0.0214961 -0.0323546 0
0.0228351 -0.032828 0
0.0241613 -0.0333361 0
0.0254744 -0.0338774 0
0.0267738 -0.0344507 0
0.0280592 -0.0350545 0
0.0293306 -0.0356877 0
0.0305875 -0.0363488 0
0.0318301 -0.0370367 0
0.0330581 -0.0377501 0
0.0342717 -0.0384879 0
0.0354708 -0.0392489 0
0.0366556 -0.0400321 0
0.0378262 -0.0408363 0
0.0389828 -0.0416607 0
0.0401254 -0.0425042 0
0.0412543 -0.0433659 0
0.0423698 -0.0442451 0
0.043472 -0.0451408 0
0.0445612 -0.0460523 0
0.0456375 -0.0469789 0
0.0467013 -0.0479199 0
0.0477529 -0.0488746 0
0.0487923 -0.0498424 0
0.04982 -0.0508227 0
0.0508362 -0.051815 0
0.051841 -0.0528187 0
0.0528348 -0.0538333 0
0.0538178 -0.0548584 0
0.0547903 -0.0558935 0
0.0557524 -0.0569382 0
0.0567045 -0.0579922 0
0.0576467 -0.0590549 0
0.0585792 -0.0601261 0
0.0595024 -0.0612055 0
0.0604163 -0.0622926 0
0.0613212 -0.0633873 0
0.0622174 -0.0644891 0
0.0631049 -0.0655979 0
0.0639841 -0.0667134 0
0.064855 -0.0678353 0
0.0657179 -0.0689633 0
0.0665729 -0.0700974 0
0.0674202 -0.0712372 0
0.06826 -0.0723826 0
0.0690925 -0.0735333 0
0.0699178 -0.0746892 0
0.070736 -0.0758501 0
0.0715473 -0.0770159 0
0.0723518 -0.0781863 0
0.0731498 -0.0793612 0
0.0739412 -0.0805405 0
0.0747264 -0.081724 0
0.0755053 -0.0829116 0
0.0762781 -0.0841033 0
0.0770449 -0.0852987 0
0.0778059 -0.0864979 0
0.0785611 -0.0877007 0
0.0793108 -0.088907 0
0.0814681 -0.0912706 0
0.0828814 -0.0924245 0
0.0842946 -0.0935783 0
0.0857079 -0.0947322 0
0.0871211 -0.095886 0
0.0885344 -0.0970399 0
0.0899476 -0.0981937 0
0.0913609 -0.0993476 0
0.0927741 -0.100501 0
0.0941874 -0.101655 0
0.0956006 -0.102809 0
0.0970139 -0.103963 0
0.0984272 -0.105117 0
0.0998404 -0.106271 0
0.101254 -0.107424 0
0.102667 -0.108578 0
0.10408 -0.109732 0
0.105493 -0.110886 0
0.106907 -0.11204 0
0.10832 -0.113194 0
0.109733 -0.114348 0
0.111146 -0.115501 0
0.11256 -0.116655 0
0.113973 -0.117809 0
0.115386 -0.118963 0
0.116799 -0.120117 0
0.118213 -0.121271 0
0.119626 -0.122424 0
0.121039 -0.123578 0
0.122452 -0.124732 0
0.123866 -0.125886 0
0.125279 -0.12704 0
0.126692 -0.128194 0
0.128105 -0.129348 0
0.129519 -0.130501 0
0.130932 -0.131655 0
0.132345 -0.132809 0
0.133758 -0.133963 0
0.135172 -0.133216 0
0.135172 -0.131316 0
0.135172 -0.129415 0
0.135172 -0.127514 0
0.135172 -0.125614 0
0.135172 -0.123713 0
0.135172 -0.121813 0
0.135172 -0.119912 0
0.135172 -0.118012 0
0.135172 -0.116111 0
0.135172 -0.11421 0
0.135172 -0.11231 0
0.135172 -0.110409 0
0.135172 -0.108509 0
0.135172 -0.106608 0
0.135172 -0.104708 0
0.135172 -0.102807 0
0.135172 -0.100906 0
0.135172 -0.0990058 0
0.135172 -0.0971052 0
0.135172 -0.0952046 0
0.135172 -0.0933041 0
0.135172 -0.0914035 0
0.135172 -0.0895029 0
0.135172 -0.0876023 0
0.135172 -0.0857017 0
0.135172 -0.0838012 0
0.135172 -0.0819006 0
0.133758 -0.0788462 0
0.132345 -0.0776923 0
0.130932 -0.0765385 0
0.129519 -0.0753846 0
0.128105 -0.0742308 0
0.126692 -0.0730769 0
0.125279 -0.0719231 0
0.123866 -0.0707692 0
0.122452 -0.0696154 0
0.121039 -0.0684615 0
0.119626 -0.0673077 0
0.118213 -0.0661538 0
0.116799 -0.065 0
0.115386 -0.0638462 0
0.113973 -0.0626923 0
0.11256 -0.0615385 0
0.111146 -0.0603846 0
0.109733 -0.0592308 0
0.10832 -0.0580769 0
0.106907 -0.0569231 0
0.105493 -0.0557692 0
0.10408 -0.0546154 0
0.102667 -0.0534615 0
0.101254 -0.0523077 0
0.0998404 -0.0511538 0
0.0984272 -0.05 0
0.0970139 -0.0488462 0
0.0956006 -0.0476923 0
[...]
CELL_DATA 13116
SCALARS rho float
LOOKUP_TABLE default
0.553458
0.661175
0.366852
0.716975
0.704775
0.678986
0.371468
0.705834
0.531718
0.710649
0.368022
0.377831
0.705052
0.398125
0.374634
0.679197
0.521855
0.702304
0.679162
0.37625
0.558479
0.392679
0.415733
0.704105
0.613718
0.625551
0.710726
0.409678
0.611779
0.650682
0.675203
0.406154
0.560171
0.452188
0.367653
0.556129
0.669174
0.67388
0.677824
0.682785
0.679647
0.710146
0.429313
0.373889
0.677793
0.679079
0.635802
0.68364
0.378816
0.52814
0.700779
0.446304
0.376074
0.51475
0.558742
0.589705
0.387364
0.700117
0.541585
0.379272
0.401865
0.711802
0.650642
0.677625
0.675753
0.397641
0.684285
0.67665
0.686246
0.676034
0.375792
0.591731
0.391612
0.410107
0.674193
0.3671
0.646184
0.697905
0.366563
0.699373
0.682567
0.633937
0.703963
0.683926
0.668056
0.451687
0.375977
0.674293
0.661505
0.389466
0.390958
0.662967
0.706475
0.667011
0.65355
0.602751
0.616327
0.675052
0.674524
0.603448
0.684919
0.589363
0.679303
0.406581
0.61594
0.410122
0.360643
0.477419
0.433965
0.622353
0.506674
0.628404
0.6008
0.686624
0.699984
0.684684
0.386427
0.391036
0.693348
0.686703
0.677211
0.391938
0.686818
0.419852
0.659713
0.443549
0.377195
0.515316
0.423482
0.529831
0.693635
0.686523
0.508153
0.387588
0.488408
0.588591
0.672423
0.690249
0.683966
0.686356
0.62956
0.639355
0.513566
0.630253
0.646889
0.396784
0.366036
0.624369
0.702438
0.695478
0.549847
0.683133
0.683434
0.386956
0.706895
0.669428
0.419447
0.690793
0.675115
0.674787
0.703193
0.368989
0.701821
0.419085
0.389088
0.709072
0.656675
0.701807
0.368795
0.470241
0.425929
0.67245
0.381129
0.498068
0.683314
0.41698
0.378124
0.392383
0.624091
0.67848
0.382049
0.436928
0.527555
0.66978
0.678699
0.539145
0.38165
0.679115
0.601485
0.466916
0.640269
0.622042
0.676259
0.422804
0.617534
0.679115
0.707755
0.678879
0.660092
0.409935
0.406068
0.627897
0.509879
0.410661
0.696421
0.67875
0.455132
0.613112
0.39746
0.398409
0.366694
0.682061
0.419977
0.377691
0.387713
0.385167
0.369026
0.676893
0.655893
0.437164
0.389157
0.683927
0.500407
0.38216
0.559686
0.711027
0.64446
0.451334
0.683516
0.392985
0.714256
0.394015
0.676111
0.581658
0.674769
0.674719
0.676468
0.375724
0.435681
0.674831
0.674021
0.678879
0.672753
0.676215
0.697413
0.381463
0.695001
0.707592
0.67459
0.366907
0.382003
0.680227
0.692385
0.675796
0.688214
0.539492
0.690356
0.367441
0.400129
0.399416
0.398189
0.597751
0.707548
0.644812
0.367689
0.675955
0.389355
0.43689
0.618295
0.398468
0.628393
0.705405
0.673609
0.699742
0.376784
0.67353
0.688006
0.674626
0.690077
0.362852
0.375848
0.424063
0.583781
0.391239
0.392545
0.333552
0.306465
0.668026
0.377493
0.667819
0.705116
0.381456
0.380461
0.387246
0.459049
0.360421
0.672829
0.589607
0.622676
0.399217
0.681797
0.592001
0.404861
0.377991
0.677764
0.692236
0.678806
0.377787
0.679343
0.417978
0.685631
0.71023
0.693409
0.708937
0.426358
0.683444
0.391887
0.67934
0.711229
0.676045
0.370683
0.332824
0.708118
0.386835
0.650283
0.711638
0.369231
0.693614
0.703676
0.380872
0.675758
0.70646
0.385525
0.695303
0.451233
0.579417
0.680231
0.458842
0.691056
0.369208
0.701866
0.344472
0.676495
0.578475
0.70887
0.460729
0.359971
0.669476
0.389126
0.69507
0.60791
0.426583
0.672397
0.384348
0.38502
0.691531
0.561464
0.674845
0.376947
0.419283
0.694727
0.704932
0.365796
0.702794
0.393384
0.408981
0.684318
0.686095
0.463913
0.387555
0.690479
0.675593
0.679341
0.674442
0.698575
0.549923
0.330135
0.393611
0.381637
0.679217
0.381495
0.525441
0.373999
0.404679
0.353678
0.473848
0.143421
0.392653
0.670604
0.334471
0.702558
0.61223
0.680765
0.665939
0.696058
0.386098
0.373688
0.415844
0.338841
0.691837
0.596573
0.679841
0.612514
0.648703
0.624442
0.632002
0.626131
0.647745
0.696873
0.698899
0.678398
0.405664
0.463435
0.549428
0.389688
0.585724
0.587962
0.376876
0.68422
0.673773
0.428908
0.372652
0.372582
0.383978
0.63779
0.37281
0.422844
0.682721
0.398983
0.581186
0.382198
0.678489
0.681379
0.348292
0.388969
0.691043
0.460594
0.378508
0.384483
0.3838
0.434085
0.376383
0.373659
0.395713
0.437057
0.370599
0.585704
0.37382
0.666752
0.384624
0.449277
0.507966
0.402903
0.388065
0.402449
0.679195
0.44432
0.648293
0.480083
0.395502
0.615691
0.66409
0.450969
0.693198
0.625581
0.624039
0.377091
0.674807
0.393294
0.699993
0.675036
0.426316
0.382538
0.600193
0.343889
0.460977
0.581359
0.359492
0.689756
0.649501
0.382036
0.373604
0.379884
0.493527
0.375818
0.382186
0.379239
0.392153
0.712558
0.713754
0.466046
0.606699
0.487607
0.617835
0.354687
0.377427
0.536293
0.427185
0.684646
0.293801
0.374965
0.503928
0.67718
0.65153
0.567588
0.367605
0.381381
0.57474
0.706217
0.676579
0.570752
0.621744
0.596738
0.371657
0.680336
0.577057
0.673712
0.311933
0.364128
0.685611
0.708166
0.664852
0.711456
0.655037
0.624744
0.701972
0.674411
0.680548
0.381894
0.676916
0.340008
0.397308
0.376305
0.715786
0.679165
0.311238
0.667027
0.628818
0.371192
0.676601
0.691351
0.693384
0.4039
0.376433
0.696165
0.373276
0.372933
0.382873
0.37317
0.682376
0.384234
0.715742
0.377888
0.662138
0.699243
0.684672
0.705341
0.377499
0.380284
0.681482
0.715574
0.658595
0.712246
0.707344
0.501898
0.379855
0.432308
0.68057
0.534017
0.371481
0.460186
0.399517
0.679582
0.680055
0.311789
0.393699
0.664623
0.469563
0.671493
0.668345
0.421466
0.393899
0.65428
0.673885
0.421627
0.650479
0.656163
0.680544
0.377184
0.672722
0.406054
0.674625
0.672421
0.386738
0.368075
0.393403
0.674676
0.431117
0.36654
0.391782
0.676877
0.690417
0.366516
0.393207
0.37922
0.677032
0.392586
0.67892
0.396409
0.595734
0.711114
0.387747
0.418463
0.41725
0.502312
0.439012
0.638973
0.375917
0.376955
0.67795
0.381871
0.681561
0.64644
0.674853
0.378398
0.685332
0.704962
0.707351
0.681002
0.659746
0.683993
0.399403
0.676408
0.439654
0.678442
0.36161
0.698557
0.51107
0.371123
0.675372
0.70053
0.380985
0.629393
0.389251
0.373532
0.682581
0.678782
0.385011
0.397103
0.367032
0.408319
0.675319
0.704222
0.380052
0.382623
0.695136
0.689767
0.59756
0.704336
0.679849
0.369578
0.709014
0.432352
0.700588
0.392429
0.600735
0.489267
0.68306
0.676112
0.584709
0.345529
0.457347
0.678898
0.611879
0.520607
0.703802
0.396835
0.685621
0.70649
0.367043
0.460858
0.705382
0.366624
0.6756
0.67586
0.328135
0.688072
0.65172
0.377867
0.689347
0.422902
0.658868
0.368997
0.681756
0.648618
0.453238
0.677664
0.702328
0.697499
0.630097
0.681405
0.590818
0.375379
0.420489
0.373617
0.408709
0.671871
0.562829
0.687786
0.701708
0.380476
0.389846
0.685457
0.712019
0.691733
0.705309
0.367498
0.699101
0.707397
0.375249
0.387888
0.693712
0.679987
0.663527
0.402961
0.598227
0.320974
0.688552
0.643755
0.676687
0.668479
0.371723
0.678993
0.667741
0.705522
0.677553
0.679718
0.435327
0.698088
0.399508
0.624223
0.709037
0.470076
0.651167
0.676873
0.698538
0.40578
0.407136
0.591946
0.658093
0.371028
0.389571
0.395439
0.371669
0.664307
0.685171
0.676122
0.307371
0.371147
0.685987
0.68925
0.386948
0.388091
0.47223
0.66749
0.678989
0.673745
0.695529
0.397622
0.371101
0.672863
0.416375
0.378146
0.372532
0.678545
0.318914
0.390554
0.581904
0.680013
0.624422
0.678405
0.678902
0.389539
0.380127
0.396337
0.479608
0.443705
0.394312
0.675056
0.695251
0.659697
0.681727
0.415393
0.376783
0.711175
0.372699
0.679464
0.647938
0.675383
0.385093
0.382424
0.652817
0.675168
0.565334
0.384867
0.670367
0.678698
0.577458
0.695703
0.703978
0.673155
0.622349
0.369233
0.678918
0.675415
0.61796
0.689071
0.671917
0.630237
0.673388
0.689154
0.377098
0.369856
0.375841
0.675632
0.509566
0.37189
0.685089
0.695966
0.371543
0.637204
0.327719
0.642093
0.472448
0.377955
0.712272
0.703635
0.3713
0.55697
0.675634
0.416768
0.667442
0.401266
0.408692
0.620156
0.614231
0.508406
0.679348
0.39538
0.701598
0.37412
0.396228
0.681408
0.370736
0.607493
0.402809
0.6362
0.602318
0.673229
0.654336
0.38956
0.376915
0.60978
0.431638
0.691445
0.462466
0.595297
0.678646
0.7053
0.44597
0.619448
0.622209
0.708058
0.685425
0.348153
0.369969
0.548531
0.619452
0.70861
0.379531
0.679139
0.567242
0.415457
0.390557
0.677744
0.668495
0.672998
0.674507
0.587691
0.687111
0.677485
0.676645
0.400948
0.66545
0.46962
0.68921
0.679204
0.30321
0.626353
0.702721
0.375023
0.381971
0.385021
0.671959
0.369219
0.620034
0.694507
0.667099
0.366695
0.670746
0.410004
0.597696
0.677324
0.675928
0.673279
0.676956
0.624782
0.681195
0.529047
0.677831
0.36796
0.678735
0.684452
0.411787
0.673785
0.686464
0.425071
0.39257
0.418869
0.694046
0.392762
0.673558
0.392197
0.704724
0.383421
0.489531
0.403386
0.69943
0.704545
0.537367
0.271885
0.624564
0.677032
0.390561
0.596538
0.714283
0.393989
0.592353
0.674885
0.71065
0.679919
0.425155
0.474761
0.69352
0.679942
0.625905
0.390887
0.403605
0.67264
0.672661
0.673844
0.672535
0.55268
0.687014
0.547828
0.68619
0.391417
0.410953
0.67264
0.703419
0.677005
0.40088
0.678851
0.560427
0.60309
0.370314
0.422176
0.703339
0.718143
0.563607
0.339231
0.681111
0.67402
0.369561
0.616716
0.695291
0.368629
0.444479
0.389737
0.599224
0.39488
0.381116
0.674747
0.470474
0.708926
0.6433
0.370777
0.376746
0.71059
0.370221
0.373517
0.67517
0.408355
0.356192
0.596266
0.654109
0.68584
0.370586
0.305681
0.365986
0.648084
0.409594
0.68653
0.375019
0.685817
0.613181
0.676625
0.628066
0.67799
0.641443
0.679114
0.704844
0.689484
0.382404
0.399135
0.670215
0.677675
0.512608
0.612872
0.564597
0.677399
0.616177
0.35008
0.685546
0.713328
0.675312
0.369222
0.680066
0.374818
0.684067
0.50464
0.699683
0.681152
0.378166
0.691991
0.376933
0.431649
0.652186
0.368626
0.690297
0.672012
0.68854
0.383148
0.682581
0.374078
0.385198
0.403666
0.387416
0.607338
0.384123
0.633436
0.677005
0.342579
0.423272
0.496594
0.589093
0.636706
0.626966
0.379258
0.390206
0.365735
0.403354
0.269557
0.636039
0.633658
0.358236
0.676399
0.693903
0.38982
0.713294
0.68858
0.677166
0.387518
0.674241
0.679977
0.69821
0.68919
0.374162
0.687549
0.699866
0.68076
0.678801
0.67753
0.390686
0.410955
0.683276
0.546076
0.384162
0.681033
0.418261
0.579
0.62929
0.656591
0.660838
0.38658
0.611088
0.40261
0.371667
0.694393
0.697029
0.702886
0.694408
0.660586
0.385631
0.706632
0.387284
0.511447
0.708381
0.674497
0.69289
0.368717
0.39623
0.708368
0.397268
0.695397
0.658258
0.436167
0.393454
0.68445
0.405267
0.681031
0.694914
0.656865
0.404874
0.36925
0.511954
0.522096
0.624297
0.479253
0.677992
0.62664
0.669669
0.671747
0.687021
0.37462
0.396256
0.697526
0.677522
0.623002
0.469864
0.409781
0.677268
0.384422
0.679838
0.624271
0.32515
0.691257
0.366383
0.642108
0.368586
0.703563
0.376567
0.683375
0.678231
0.348884
0.662867
0.657514
0.337148
0.676127
0.67875
0.562559
0.401941
0.369911
0.472483
0.705504
0.603735
0.383625
0.593483
0.689744
0.677966
0.357108
0.612338
0.665816
0.468627
0.677968
0.679512
0.298326
0.688504
0.674795
0.366879
0.601689
0.384869
0.6397
0.389808
0.408702
0.707745
0.383084
0.382539
0.389449
0.683542
0.656681
0.408871
0.681081
0.365637
0.665378
0.373608
0.660933
0.374595
0.678887
0.683726
0.648093
0.676354
0.560928
0.67825
0.677138
0.354023
0.646505
0.65384
0.490004
0.686276
0.501986
0.40929
0.706275
0.384591
0.579987
0.318199
0.679651
0.383154
0.422113
0.703823
0.679207
0.380866
0.687766
0.69547
0.671918
0.704683
0.674542
0.369562
0.712322
0.378643
0.41992
0.662706
0.696566
0.709034
0.66705
0.394403
0.388459
0.365595
0.662426
0.676876
0.368565
0.666971
0.397141
0.386534
0.367986
0.664912
0.392775
0.708532
0.690108
0.645478
0.677762
0.688538
0.57767
0.640558
0.442987
0.414271
0.380443
0.674516
0.674257
0.40231
0.635466
0.596243
0.642688
0.424845
0.40266
0.630637
0.280843
0.623917
0.596523
0.377711
0.677437
0.666142
0.372762
0.684995
0.372427
0.687372
0.70966
0.678387
0.387382
0.479457
0.688603
0.306088
0.450308
0.677641
0.315303
0.677667
0.685258
0.628102
0.695962
0.336799
0.675335
0.693672
0.679718
0.368324
0.696937
0.382555
0.39859
0.669738
0.679323
0.676591
0.238451
0.681619
0.646157
0.674167
0.392148
0.390794
0.378006
0.692085
0.369733
0.37945
0.377443
0.594297
0.373826
0.302176
0.451966
0.686274
0.375455
0.676279
0.677254
0.682148
0.381451
0.686677
0.662056
0.676357
0.424366
0.67639
0.365887
0.385287
0.682266
0.380974
0.630966
0.688738
0.673088
0.377431
0.333272
0.38133
0.569658
0.672712
0.236609
0.674767
0.683295
0.697107
0.390902
0.38832
0.348313
0.601596
0.373971
0.671805
0.616163
0.677551
0.673764
0.363639
0.63124
0.40044
0.564304
0.660232
0.711818
0.573446
0.484328
0.675864
0.626857
0.698604
0.387165
0.378516
0.402553
0.699085
0.539843
0.67453
0.377221
0.406267
0.698686
0.686477
0.675718
0.38076
0.683143
0.567835
0.571692
0.606319
0.434724
0.379721
0.297633
0.67938
0.67701
0.677144
0.615704
0.347745
0.689526
0.669656
0.677036
0.676204
0.689613
0.713106
0.679046
0.69482
0.702377
0.426837
0.688426
0.695586
0.678041
0.690894
0.678982
0.582559
0.373413
0.413549
0.621307
0.386772
0.339596
0.682167
0.375422
0.649301
0.685312
0.658279
0.676113
0.427601
0.684336
0.400506
0.40674
0.679299
0.685814
0.681966
0.37617
0.701343
0.679551
0.617618
0.678839
0.389134
0.677864
0.708839
0.667003
0.411078
0.70093
0.368636
0.718403
0.368442
0.373614
0.527928
0.458773
0.712145
0.700914
0.679838
0.377635
0.677721
0.411088
0.377887
0.647471
0.498793
0.390376
0.679524
0.39085
0.521661
0.675471
0.636505
0.660328
0.49875
0.606914
0.664043
0.67991
0.579844
0.702791
0.545237
0.70731
0.611089
0.655526
0.413259
0.367987
0.458229
0.694505
0.424486
0.673369
0.688285
0.609621
0.680133
0.525066
0.689041
0.678193
0.378203
0.686779
0.606471
0.495514
0.610506
0.707897
0.640835
0.677458
0.394245
0.377671
0.679582
0.543002
0.550216
0.689731
0.68364
0.681828
0.708134
0.709453
0.627439
0.623621
0.711732
0.382737
0.397841
0.386313
0.351022
0.6737
0.468864
0.543937
0.690789
0.683374
0.422118
0.677373
0.71726
0.376813
0.381315
0.673761
0.690335
0.438727
0.382983
0.385887
0.67175
0.624881
0.415142
0.376067
0.377735
0.407662
0.352228
0.387307
0.710854
0.683811
0.683616
0.388972
0.65937
0.612113
0.6216
0.344771
0.37124
0.645093
0.672564
0.387017
0.678439
0.373057
0.703468
0.427171
0.68131
0.384005
0.660608
0.704406
0.384511
0.573346
0.390054
0.712679
0.410298
0.616076
0.416345
0.514945
0.365463
0.607111
0.390188
0.676141
0.67614
0.619555
0.676818
0.33918
0.661137
0.676992
0.702693
0.609598
0.666414
0.372973
0.396672
0.401854
0.706506
0.293363
0.702348
0.557725
0.69632
0.710516
0.46654
0.697791
0.376911
0.403651
0.380806
0.519865
0.525873
0.682879
0.39766
0.39127
0.6809
0.384452
0.402934
0.559282
0.375661
0.387171
0.414455
0.711496
0.666278
0.620724
0.414611
0.657709
0.679775
0.414635
0.327493
0.668173
0.678796
0.567965
0.525139
0.41881
0.367388
0.389623
0.676192
0.616252
0.531038
0.691922
0.394709
0.577095
0.366889
0.675537
0.702066
0.374997
0.399388
0.62308
0.552481
0.704743
0.702265
0.705763
0.688586
0.708735
0.379943
0.391119
0.404768
0.362104
0.545559
0.675256
0.668149
0.364166
0.378121
0.459001
0.444887
0.681782
0.635608
0.386083
0.311939
0.685174
0.422316
0.662595
0.700661
0.650959
0.677649
0.557692
0.372737
0.383926
0.617558
0.375719
0.425859
0.407787
0.677247
0.679808
0.344592
0.377123
0.672407
0.389978
0.681461
0.706485
0.376255
0.377078
0.381014
0.684967
0.386755
0.671972
0.689971
0.610082
0.378879
0.541296
0.697358
0.671854
0.371411
0.669179
0.62365
0.462071
0.692988
0.713761
0.366644
0.380912
0.651544
0.396557
0.362453
0.665193
0.350475
0.682152
0.689597
0.705783
0.631659
0.703182
0.68472
0.678242
0.367368
0.418975
0.63402
0.682705
0.479294
0.712939
0.330592
0.6887
0.66199
0.57884
0.657903
0.397453
0.468425
0.678269
0.699415
0.607709
0.704662
0.683124
0.673225
0.703119
0.672123
0.662829
0.65026
0.684671
0.672728
0.678389
0.353772
0.637544
0.354857
0.683941
0.688489
0.697212
0.640231
0.695594
0.373109
0.388686
0.310956
0.370895
0.648967
0.381559
0.3885
0.683946
0.402666
0.694121
0.390551
0.665154
0.687969
0.381663
0.387231
0.327285
0.692861
0.41573
0.681992
0.691727
0.381198
0.642104
0.568117
0.352552
0.443883
0.40575
0.697221
0.381373
0.685518
0.521318
0.388493
0.678464
0.679867
0.705804
0.372578
0.583457
0.409881
0.661442
0.677901
0.684654
0.391609
0.681704
0.690017
0.623023
0.41487
0.692755
0.371809
0.371416
0.67627
0.464017
0.709532
0.408737
0.390393
0.454495
0.632791
0.433971
0.294302
0.36913
0.487826
0.674424
0.690426
0.393439
0.605814
0.683643
0.57073
0.427162
0.319796
0.570553
0.369734
0.365523
0.677891
0.374251
0.371154
0.695845
0.714636
0.372732
0.70098
0.377783
0.673569
0.358761
0.648896
0.676216
0.696955
0.677312
0.381689
0.368004
0.406808
0.678443
0.653274
0.604205
0.552654
0.376688
0.307627
0.678779
0.367594
0.68275
0.389045
0.676456
0.678145
0.383569
0.371689
0.372526
0.376224
0.371842
0.621384
0.652134
0.38483
0.687704
0.646158
0.374947
0.382207
0.71491
0.388892
0.686972
0.43606
0.696332
0.664071
0.686436
0.674658
0.37697
0.709446
0.681809
0.714768
0.38456
0.610895
0.611235
0.333838
0.694313
0.64426
0.700802
0.658376
0.708899
0.674631
0.708776
0.678212
0.679026
0.38055
0.704972
0.372548
0.467406
0.677325
0.408906
0.665839
0.607456
0.387893
0.625
0.382422
0.392042
0.6674
0.598591
0.713982
0.379184
0.657866
0.630403
0.34684
0.386657
0.64677
0.679789
0.385391
0.375703
0.694029
0.714061
0.379066
0.650756
0.705864
0.669326
0.385808
0.372271
0.396928
0.665703
0.373498
0.670089
0.69916
0.678962
0.61223
0.687882
0.385025
0.662591
0.629362
0.70419
0.570168
0.417522
0.368719
0.403467
0.703907
0.692753
0.433022
0.661827
0.305949
0.649892
0.68634
0.398195
0.622613
0.671206
0.631451
0.387577
0.374343
0.33899
0.69437
0.70936
0.627709
0.525203
0.686992
0.382083
0.643348
0.673805
0.682103
0.388115
0.640092
0.389406
0.614338
0.407883
0.680351
0.667312
0.413848
0.693576
0.434012
0.672638
0.646843
0.671768
0.692559
0.421291
0.678565
0.680403
0.680669
0.681362
0.492899
0.673717
0.383498
0.680879
0.400072
0.380261
0.395447
0.372092
0.370642
0.386428
0.708842
0.372219
0.378656
0.665707
0.69419
0.654507
0.416012
0.691483
0.691054
0.67742
0.331958
0.584986
0.684232
0.391703
0.373955
0.368349
0.637188
0.518526
0.376896
0.592814
0.416983
0.674768
0.511937
0.378835
0.485414
0.65939
0.335008
0.680262
0.389688
0.47842
0.382424
0.680028
0.392024
0.659182
0.673926
0.588452
0.424728
0.369622
0.671626
0.713071
0.377696
0.385106
0.678485
0.378788
0.700513
0.389695
0.57207
0.404031
0.684508
0.391273
0.711143
0.380599
0.686049
0.688575
0.700147
0.673678
0.385403
0.420169
0.415826
0.629497
0.683031
0.631064
0.528753
0.390624
0.696258
0.322818
0.650582
0.584746
0.408811
0.394306
0.702249
0.679747
0.413151
0.675544
0.677066
0.701821
0.705843
0.390205
0.646052
0.377845
0.701704
0.374463
0.676762
0.64357
0.650259
0.71149
0.378805
0.718132
0.38366
0.381419
0.681184
0.673844
0.558792
0.680177
0.673629
0.389979
0.702734
0.675825
0.706336
0.38636
0.437598
0.687435
0.381745
0.689409
0.687863
0.668767
0.683641
0.290642
0.457786
0.659415
0.414887
0.661648
0.713791
0.48289
0.663541
0.275165
0.619998
0.702942
0.686761
0.663399
0.371998
0.426733
0.68336
0.667138
0.38526
0.33673
0.388417
0.41817
0.379801
0.418117
0.352433
0.385178
0.682861
0.398069
0.38381
0.692837
0.556709
0.672496
0.405209
0.377475
0.684476
0.478345
0.484682
0.707325
0.37882
0.671108
0.676615
0.622413
0.663592
0.413309
0.690781
0.677545
0.379314
0.371077
0.409421
0.604022
0.621781
0.708875
0.679521
0.683103
0.66759
0.37824
0.691312
0.677719
0.644986
0.37199
0.685334
0.579296
0.371155
0.443747
0.376663
0.403566
0.386129
0.601098
0.676781
0.67162
0.366281
0.394905
0.705546
0.357298
0.692298
0.680578
0.669299
0.687008
0.686184
0.391701
0.40736
0.412931
0.575751
0.380078
0.683588
0.395666
0.682213
0.678117
0.687975
0.364182
0.459243
0.420015
0.688134
0.371885
0.368604
0.681846
0.663093
0.626267
0.679024
0.640125
0.699976
0.37068
0.638018
0.703608
0.541406
0.68669
0.69481
0.700843
0.468737
0.434716
0.707968
0.508431
0.620003
0.381561
0.645497
0.669287
0.410498
0.370669
0.659543
0.521918
0.70035
0.692379
0.381728
0.37725
0.674862
0.388195
0.418646
0.670717
0.648107
0.389283
0.674199
0.675197
0.642472
0.372029
0.60243
0.371772
0.673691
0.701622
0.699715
0.668869
0.67537
0.307015
0.365527
0.681914
0.390516
0.621133
0.391273
0.68747
0.398245
0.656096
0.70321
0.675102
0.392381
0.671912
0.674129
0.365883
0.646501
0.392881
0.713102
0.391655
0.384083
0.386405
0.679216
0.677
0.327727
0.306227
0.624664