# vtk DataFile Version 1.0
unstructured grid
ascii
DATASET UNSTRUCTURED_GRID
points 13672 float
0.0796578 -0.059106 0
0.00128732 0.00159165 0
0.00227961 -0.00102548 0
0.0791586 -0.0598787 0
-0.0546216 0.01 0
0.000495206 0.025 0
0.0800549 -0.035 0
0.135172 -0.08 0
-0.0546216 -0.0451168 0
0.000495206 -0.0301168 0
0.0800549 -0.0901168 0
0.135172 -0.135117 0
-0.0546216 -0.0451168 -0.00551168
0.000495206 -0.0301168 -0.00551168
0.0800549 -0.0901168 -0.00551168
0.135172 -0.135117 -0.00551168
0.135172 -0.08 -0.00551168
0.0800549 -0.035 -0.00551168
0.000495206 0.025 -0.00551168
-0.0546216 0.01 -0.00551168
0.00128732 0.00159165 -0.00551168
0.00227961 -0.00102548 -0.00551168
0.0791586 -0.0598787 -0.00551168
0.0796578 -0.059106 -0.00551168
0.00165953 -0.000990923 0
0.00119576 -0.000874076 0
0.000866021 -0.000641801 0
0.000645147 -0.000349912 0
0.00052235 -1.7281e-05 0
0.00049972 0.000348016 0
0.000601632 0.000737716 0
0.000861774 0.0011403 0
0.00157235 0.00183217 0
0.00188647 0.00206725 0
0.00222612 0.00230203 0
0.00258713 0.00254351 0
0.00296826 0.00279524 0
0.00337118 0.00305664 0
0.00379785 0.00332658 0
0.00425045 0.00360349 0
0.00473139 0.00388521 0
0.0052432 0.00416895 0
0.0057881 0.00445204 0
0.00636753 0.00473281 0
0.00698281 0.00500961 0
0.00763526 0.00528058 0
0.00832616 0.00554366 0
0.00905691 0.00579603 0
0.00982918 0.00603333 0
0.0106445 0.00625033 0
0.0115038 0.00644128 0
0.0124073 0.00660297 0
0.0133543 0.00673414 0
0.0143444 0.00683382 0
0.0153769 0.00690031 0
0.0164512 0.00693173 0
0.0175666 0.00692547 0
0.0187219 0.00687822 0
0.0199156 0.00678477 0
0.0211454 0.00663864 0
0.0224084 0.00643275 0
0.0237018 0.00616676 0
0.0250249 0.00584739 0
0.026375 0.00547298 0
0.0277479 0.00503752 0
0.0291386 0.00453545 0
0.0305433 0.0039653 0
0.0319572 0.0033256 0
0.0333681 0.00260019 0
0.034775 0.00179799 0
0.0361793 0.000930615 0
0.0375798 3.12222e-06 0
0.0389689 -0.000988429 0
0.0403357 -0.00205109 0
0.041675 -0.00318283 0
0.0429849 -0.00437751 0
0.0442643 -0.00562904 0
0.0455126 -0.00693089 0
0.0467314 -0.00827518 0
0.0479204 -0.00965638 0
0.0490661 -0.0110799 0
0.0501515 -0.0125519 0
0.0511696 -0.0140695 0
0.0521492 -0.0156071 0
0.0531202 -0.0171411 0
0.0540851 -0.0186663 0
0.0550431 -0.0201798 0
0.0559923 -0.0216793 0
0.0569311 -0.0231626 0
0.0578582 -0.0246273 0
0.0587723 -0.0260715 0
0.0596721 -0.027493 0
0.0605563 -0.02889 0
0.0614241 -0.0302609 0
0.0622742 -0.0316042 0
0.063106 -0.0329183 0
0.0639186 -0.034202 0
0.0647113 -0.0354543 0
0.0654835 -0.0366743 0
0.0662345 -0.0378613 0
0.0669642 -0.0390145 0
0.0676726 -0.0401333 0
0.0683597 -0.0412172 0
0.0690246 -0.0422665 0
0.0696662 -0.0432819 0
0.0702841 -0.0442636 0
0.0708793 -0.0452111 0
0.0714538 -0.0461237 0
0.072009 -0.047001 0
0.0725452 -0.0478434 0
0.0730611 -0.0486524 0
0.073556 -0.0494294 0
0.0740291 -0.0501756 0
0.0744812 -0.0508916 0
0.0749138 -0.0515773 0
0.0753285 -0.0522331 0
0.0757266 -0.0528592 0
0.076109 -0.0534564 0
0.0764753 -0.0540264 0
0.0768243 -0.054571 0
0.0771553 -0.0550919 0
0.0774679 -0.0555901 0
0.0777617 -0.0560669 0
0.0780369 -0.056523 0
0.0782958 -0.0569578 0
0.0785421 -0.0573703 0
0.0787786 -0.0577603 0
0.0790073 -0.0581279 0
0.0792295 -0.058474 0
0.0794462 -0.0587995 0
0.0798803 -0.0594162 0
0.0800272 -0.0596588 0
0.0800357 -0.0598891 0
0.0799275 -0.0600784 0
0.0797205 -0.0601773 0
0.0794593 -0.0601051 0
0.0789155 -0.0596491 0
0.0786707 -0.0593963 0
0.0784111 -0.0591319 0
0.0781372 -0.0588542 0
0.0778566 -0.0585548 0
0.0775715 -0.0582308 0
0.0772803 -0.0578828 0
0.0769832 -0.0575099 0
0.0766822 -0.0571097 0
0.0763801 -0.0566796 0
0.0760759 -0.0562196 0
0.0757623 -0.0557337 0
0.0754359 -0.0552232 0
0.0750951 -0.0546879 0
0.0747379 -0.054128 0
0.0743626 -0.0535435 0
0.0739688 -0.0529338 0
0.0735559 -0.0522981 0
0.0731238 -0.0516357 0
0.0726718 -0.050946 0
0.0721991 -0.0502288 0
0.0717046 -0.049484 0
0.0711872 -0.0487117 0
0.0706461 -0.047912 0
0.0700804 -0.0470849 0
0.0694892 -0.0462308 0
0.0688718 -0.0453499 0
0.0682271 -0.0444431 0
0.0675544 -0.043511 0
0.0668527 -0.0425546 0
0.0661215 -0.0415748 0
0.06536 -0.040573 0
0.0645676 -0.0395504 0
0.0637439 -0.0385087 0
0.0628887 -0.0374493 0
0.062002 -0.0363741 0
0.0610838 -0.0352847 0
0.0601345 -0.0341831 0
0.0591547 -0.033071 0
0.0581456 -0.0319502 0
0.0571083 -0.0308224 0
0.0560444 -0.0296893 0
0.0549562 -0.028552 0
0.053845 -0.0274126 0
0.0527113 -0.0262746 0
0.051554 -0.0251427 0
0.0503724 -0.0240222 0
0.0491675 -0.0229164 0
0.047941 -0.0218282 0
0.0466955 -0.0207597 0
0.0454337 -0.0197126 0
0.0441592 -0.0186878 0
0.0428751 -0.0176863 0
0.0415841 -0.0167097 0
0.0402878 -0.0157609 0
0.0389879 -0.0148428 0
0.0376864 -0.0139575 0
0.0363853 -0.013107 0
0.0350871 -0.0122931 0
0.0337942 -0.0115164 0
0.0325095 -0.0107772 0
0.0312357 -0.0100756 0
0.0299758 -0.00941024 0
0.0287337 -0.00877784 0
0.0275126 -0.00817571 0
0.0263139 -0.00760375 0
0.0251376 -0.00706528 0
0.0239829 -0.0065649 0
0.0228537 -0.00609619 0
0.0217522 -0.00565563 0
0.0206795 -0.00524226 0
0.0196364 -0.00485507 0
0.0186233 -0.00449318 0
0.0176408 -0.00415577 0
0.016689 -0.00384204 0
0.0157682 -0.00355115 0
0.0148783 -0.00328218 0
0.0140192 -0.00303468 0
0.0131906 -0.00280795 0
0.0123925 -0.00260016 0
0.0116246 -0.00241012 0
0.0108864 -0.00223769 0
0.0101774 -0.00208212 0
0.00949701 -0.00194206 0
0.00884483 -0.0018163 0
0.0082202 -0.0017039 0
0.00762247 -0.00160391 0
0.00705097 -0.00151528 0
0.006505 -0.00143697 0
0.0059838 -0.00136806 0
0.00548662 -0.00130772 0
0.00501265 -0.00125519 0
0.00456114 -0.00120954 0
0.00413136 -0.00116914 0
0.00372257 -0.00113251 0
0.00333398 -0.00109853 0
0.00296466 -0.00106798 0
0.00261363 -0.0010431 0
-0.052721 -0.0445996 0
-0.0508204 -0.0440823 0
-0.0489199 -0.0435651 0
-0.0470193 -0.0430478 0
-0.0451187 -0.0425306 0
-0.0432181 -0.0420134 0
-0.0413175 -0.0414961 0
-0.039417 -0.0409789 0
-0.0375164 -0.0404616 0
-0.0356158 -0.0399444 0
-0.0337152 -0.0394271 0
-0.0318146 -0.0389099 0
-0.0299141 -0.0383927 0
-0.0280135 -0.0378754 0
-0.0261129 -0.0373582 0
-0.0242123 -0.0368409 0
-0.0223117 -0.0363237 0
-0.0204112 -0.0358065 0
-0.0185106 -0.0352892 0
-0.01661 -0.034772 0
-0.0147094 -0.0342547 0
-0.0128088 -0.0337375 0
-0.0109083 -0.0332202 0
-0.00900769 -0.032703 0
-0.00710711 -0.0321858 0
-0.00520653 -0.0316685 0
-0.00330595 -0.0311513 0
-0.00140537 -0.030634 0
0.00190689 -0.0299614 0
0.00332271 -0.0298498 0
0.00474133 -0.0297825 0
0.00616136 -0.0297597 0
0.0075814 -0.0297814 0
0.00900007 -0.0298477 0
0.010416 -0.0299583 0
0.0118278 -0.0301127 0
0.0132342 -0.0303103 0
0.0146339 -0.0305504 0
0.0160259 -0.0308322 0
0.0174091 -0.0311546 0
0.0187824 -0.0315166 0
0.020145 -0.031917 0
0.0214961 -0.0323546 0
0.0228351 -0.032828 0
0.0241613 -0.0333361 0
0.0254744 -0.0338774 0
0.0267738 -0.0344507 0
0.0280592 -0.0350545 0
0.0293306 -0.0356877 0
0.0305875 -0.0363488 0
0.0318301 -0.0370367 0
0.0330581 -0.0377501 0
0.0342717 -0.0384879 0
0.0354708 -0.0392489 0
0.0366556 -0.0400321 0
0.0378262 -0.0408363 0
0.0389828 -0.0416607 0
0.0401254 -0.0425042 0
0.0412543 -0.0433659 0
0.0423698 -0.0442451 0
0.043472 -0.0451408 0
0.0445612 -0.0460523 0
0.0456375 -0.0469789 0
0.0467013 -0.0479199 0
0.0477529 -0.0488746 0
0.0487923 -0.0498424 0
0.04982 -0.0508227 0
0.0508362 -0.051815 0
0.051841 -0.0528187 0
0.0528348 -0.0538333 0
0.0538178 -0.0548584 0
0.0547903 -0.0558935 0
0.0557524 -0.0569382 0
0.0567045 -0.0579922 0
0.0576467 -0.0590549 0
0.0585792 -0.0601261 0
0.0595024 -0.0612055 0
0.0604163 -0.0622926 0
0.0613212 -0.0633873 0
0.0622174 -0.0644891 0
0.0631049 -0.0655979 0
0.0639841 -0.0667134 0
0.064855 -0.0678353 0
0.0657179 -0.0689633 0
0.0665729 -0.0700974 0
0.0674202 -0.0712372 0
0.06826 -0.0723826 0
0.0690925 -0.0735333 0
0.0699178 -0.0746892 0
0.070736 -0.0758501 0
0.0715473 -0.0770159 0
0.0723518 -0.0781863 0
0.0731498 -0.0793612 0
0.0739412 -0.0805405 0
0.0747264 -0.081724 0
0.0755053 -0.0829116 0
0.0762781 -0.0841033 0
0.0770449 -0.0852987 0
0.0778059 -0.0864979 0
0.0785611 -0.0877007 0
0.0793108 -0.088907 0
0.0814681 -0.0912706 0
0.0828814 -0.0924245 0
0.0842946 -0.0935783 0
0.0857079 -0.0947322 0
0.0871211 -0.095886 0
0.0885344 -0.0970399 0
0.0899476 -0.0981937 0
0.0913609 -0.0993476 0
0.0927741 -0.100501 0
0.0941874 -0.101655 0
0.0956006 -0.102809 0
0.0970139 -0.103963 0
0.0984272 -0.105117 0
0.0998404 -0.106271 0
0.101254 -0.107424 0
0.102667 -0.108578 0
0.10408 -0.109732 0
0.105493 -0.110886 0
0.106907 -0.11204 0
0.10832 -0.113194 0
0.109733 -0.114348 0
0.111146 -0.115501 0
0.11256 -0.116655 0
0.113973 -0.117809 0
0.115386 -0.118963 0
0.116799 -0.120117 0
0.118213 -0.121271 0
0.119626 -0.122424 0
0.121039 -0.123578 0
0.122452 -0.124732 0
0.123866 -0.125886 0
0.125279 -0.12704 0
0.126692 -0.128194 0
0.128105 -0.129348 0
0.129519 -0.130501 0
0.130932 -0.131655 0
0.132345 -0.132809 0
0.133758 -0.133963 0
0.135172 -0.133216 0
0.135172 -0.131316 0
0.135172 -0.129415 0
0.135172 -0.127514 0
0.135172 -0.125614 0
0.135172 -0.123713 0
0.135172 -0.121813 0
0.135172 -0.119912 0
0.135172 -0.118012 0
0.135172 -0.116111 0
0.135172 -0.11421 0
0.135172 -0.11231 0
0.135172 -0.110409 0
0.135172 -0.108509 0
0.135172 -0.106608 0
0.135172 -0.104708 0
0.135172 -0.102807 0
0.135172 -0.100906 0
0.135172 -0.0990058 0
0.135172 -0.0971052 0
0.135172 -0.0952046 0
0.135172 -0.0933041 0
0.135172 -0.0914035 0
0.135172 -0.0895029 0
0.135172 -0.0876023 0
0.135172 -0.0857017 0
0.135172 -0.0838012 0
0.135172 -0.0819006 0
0.133758 -0.0788462 0
0.132345 -0.0776923 0
0.130932 -0.0765385 0
0.129519 -0.0753846 0
0.128105 -0.0742308 0
0.126692 -0.0730769 0
0.125279 -0.0719231 0
0.123866 -0.0707692 0
0.122452 -0.0696154 0
0.121039 -0.0684615 0
0.119626 -0.0673077 0
0.118213 -0.0661538 0
0.116799 -0.065 0
0.115386 -0.0638462 0
0.113973 -0.0626923 0
0.11256 -0.0615385 0
0.111146 -0.0603846 0
0.109733 -0.0592308 0
0.10832 -0.0580769 0
0.106907 -0.0569231 0
0.105493 -0.0557692 0
0.10408 -0.0546154 0
0.102667 -0.0534615 0
0.101254 -0.0523077 0
0.0998404 -0.0511538 0
0.0984272 -0.05 0
0.0970139 -0.0488462 0
0.0956006 -0.0476923 0
[...]
CELL_DATA 13116
SCALARS rho float
LOOKUP_TABLE default
0.522017
0.645921
0.36218
0.669542
0.668022
0.703614
0.33829
0.674814
0.487855
0.666675
0.344858
0.378718
0.6682
0.378902
0.34091
0.702035
0.508011
0.656329
0.68493
0.405349
0.521512
0.360275
0.36877
0.658818
0.563161
0.66447
0.666557
0.353196
0.554351
0.60347
0.712688
0.367064
0.51245
0.417352
0.328695
0.522197
0.628383
0.672799
0.710621
0.679827
0.690208
0.674071
0.409409
0.368797
0.682417
0.684249
0.639787
0.683614
0.361857
0.479361
0.675489
0.417862
0.382519
0.502691
0.511622
0.541748
0.369468
0.658069
0.490467
0.352906
0.377729
0.668699
0.642109
0.712236
0.716582
0.383527
0.689909
0.63262
0.686403
0.716481
0.345564
0.53649
0.357921
0.375482
0.712344
0.369203
0.617653
0.672348
0.370172
0.653372
0.643672
0.661526
0.659898
0.679265
0.670289
0.39217
0.392569
0.626314
0.668618
0.377623
0.365393
0.647543
0.661483
0.671712
0.609088
0.557445
0.565456
0.714239
0.712759
0.549964
0.634376
0.600025
0.689224
0.392174
0.639003
0.372257
0.331768
0.446081
0.35922
0.564956
0.472439
0.654473
0.555157
0.645441
0.653993
0.688382
0.38738
0.364841
0.675349
0.68447
0.63202
0.354833
0.685695
0.366259
0.670375
0.405801
0.392302
0.463772
0.363796
0.480168
0.675507
0.663501
0.448586
0.362646
0.429571
0.55896
0.710224
0.681873
0.633331
0.684279
0.60394
0.641764
0.463769
0.606124
0.630205
0.373024
0.324693
0.659527
0.666167
0.676962
0.491733
0.679805
0.68434
0.369273
0.665597
0.67218
0.365282
0.640197
0.713588
0.625999
0.658426
0.348646
0.660507
0.364419
0.353167
0.670131
0.668833
0.655885
0.329568
0.410906
0.38171
0.710262
0.348081
0.450455
0.689953
0.368263
0.362449
0.359459
0.652678
0.699664
0.400555
0.396294
0.493476
0.627652
0.698395
0.489555
0.383177
0.692586
0.639693
0.422954
0.604822
0.658683
0.716845
0.36046
0.653436
0.701454
0.663845
0.691052
0.667713
0.362959
0.392065
0.571383
0.459176
0.374545
0.666028
0.674389
0.424226
0.566951
0.364767
0.37188
0.37172
0.693705
0.36259
0.410122
0.380326
0.37107
0.35211
0.709298
0.669592
0.380468
0.370249
0.690598
0.467253
0.399702
0.499376
0.667764
0.62824
0.353174
0.690167
0.351636
0.675004
0.366488
0.712526
0.524953
0.713874
0.675886
0.716065
0.361996
0.402736
0.624871
0.711632
0.701332
0.710964
0.71228
0.675622
0.361945
0.678216
0.666547
0.713558
0.334159
0.361255
0.677716
0.676636
0.71267
0.67573
0.512857
0.645409
0.350195
0.375761
0.364248
0.365036
0.631959
0.6637
0.616832
0.395379
0.680623
0.386295
0.386809
0.639974
0.365086
0.662303
0.674018
0.711252
0.657968
0.360032
0.711183
0.648889
0.713821
0.682059
0.384928
0.395064
0.361002
0.555694
0.355745
0.361401
0.313292
0.362534
0.663978
0.37778
0.671698
0.670363
0.392803
0.404805
0.388465
0.410885
0.353886
0.624986
0.581626
0.648223
0.371085
0.692287
0.531097
0.382387
0.347582
0.710921
0.677287
0.691905
0.384092
0.700125
0.399912
0.663832
0.673661
0.678037
0.673844
0.35972
0.690907
0.364266
0.696754
0.667249
0.623714
0.404761
0.3133
0.667099
0.388939
0.652523
0.66888
0.348213
0.646248
0.659648
0.393407
0.68003
0.661484
0.374062
0.675696
0.385542
0.518356
0.674904
0.394193
0.640859
0.39753
0.657116
0.31665
0.711449
0.612761
0.664224
0.353772
0.338812
0.671628
0.366144
0.667808
0.643496
0.391831
0.709678
0.379454
0.361851
0.671438
0.50168
0.631956
0.395116
0.363734
0.67843
0.670178
0.321225
0.673054
0.384179
0.373104
0.68596
0.675096
0.445294
0.370618
0.680897
0.71311
0.701757
0.677905
0.661404
0.493138
0.344308
0.362907
0.402788
0.70297
0.402052
0.492189
0.35023
0.360781
0.335053
0.45241
0.137905
0.370709
0.671981
0.383893
0.661159
0.555356
0.686554
0.61712
0.677144
0.36026
0.39586
0.366618
0.345408
0.668263
0.551501
0.688794
0.55589
0.630993
0.578671
0.660521
0.591734
0.601123
0.661784
0.652632
0.70756
0.368201
0.430259
0.518963
0.361192
0.579144
0.540837
0.384827
0.689262
0.711339
0.359845
0.407377
0.395528
0.385866
0.579371
0.331652
0.360919
0.692726
0.382388
0.526002
0.38451
0.700815
0.648117
0.350599
0.36299
0.670741
0.410138
0.38335
0.3858
0.380008
0.358533
0.396835
0.407722
0.357356
0.387855
0.374692
0.598423
0.348272
0.67066
0.351363
0.367549
0.446973
0.371893
0.378342
0.37125
0.681763
0.395867
0.592331
0.452257
0.384932
0.569378
0.66975
0.391162
0.645656
0.581528
0.581535
0.396082
0.713166
0.364218
0.660388
0.712714
0.357824
0.367731
0.637945
0.346205
0.394992
0.614738
0.334204
0.639137
0.634388
0.402964
0.358255
0.352072
0.447069
0.349267
0.376689
0.345434
0.36515
0.670507
0.669448
0.415616
0.552691
0.430369
0.651197
0.341156
0.340111
0.491316
0.357778
0.670978
0.287684
0.347942
0.444379
0.681115
0.667002
0.508413
0.34747
0.367067
0.512446
0.674686
0.714535
0.509248
0.636142
0.630411
0.383451
0.646958
0.521206
0.623503
0.353451
0.355299
0.644447
0.663371
0.615671
0.667539
0.663224
0.66664
0.657471
0.622838
0.687077
0.393822
0.680386
0.310173
0.365328
0.40946
0.668856
0.675816
0.344935
0.669531
0.569962
0.404654
0.714845
0.677946
0.65804
0.353009
0.34364
0.67141
0.382609
0.390553
0.370357
0.386036
0.667347
0.374913
0.668639
0.348016
0.644836
0.676055
0.688893
0.669474
0.380748
0.405646
0.674907
0.674795
0.622943
0.67042
0.666257
0.438564
0.393499
0.356586
0.694169
0.487462
0.398391
0.410386
0.361623
0.674429
0.691668
0.355908
0.360611
0.668654
0.402098
0.672911
0.612355
0.363901
0.354027
0.619741
0.711542
0.362985
0.665951
0.668925
0.675167
0.363369
0.710801
0.370457
0.713998
0.622147
0.370163
0.3509
0.360142
0.715134
0.35922
0.377764
0.365489
0.714114
0.660213
0.375545
0.373511
0.383012
0.715085
0.356645
0.699869
0.373657
0.539779
0.667646
0.35315
0.364476
0.367444
0.439294
0.355574
0.664956
0.381243
0.341396
0.704563
0.358267
0.694776
0.648907
0.714433
0.402143
0.671889
0.661984
0.663807
0.693499
0.672956
0.686684
0.369298
0.71527
0.382955
0.666808
0.392785
0.675553
0.466065
0.337109
0.71606
0.664494
0.348638
0.591771
0.365182
0.340378
0.692982
0.681617
0.362867
0.371358
0.370159
0.369082
0.673942
0.658827
0.359066
0.400556
0.667164
0.682308
0.541948
0.661862
0.69315
0.352115
0.664704
0.387269
0.675629
0.368803
0.552538
0.427402
0.691742
0.633296
0.52667
0.33519
0.354308
0.689524
0.553547
0.502088
0.661481
0.364644
0.649606
0.665284
0.331686
0.428035
0.662691
0.347538
0.716244
0.625987
0.308059
0.681695
0.607382
0.360621
0.657725
0.36098
0.665344
0.370384
0.694149
0.641069
0.354693
0.711934
0.660864
0.669615
0.571889
0.651962
0.530674
0.355608
0.39893
0.372147
0.376393
0.709035
0.502347
0.684702
0.666049
0.400888
0.350871
0.656638
0.667749
0.670097
0.674206
0.403268
0.652582
0.666732
0.406828
0.346706
0.674683
0.6785
0.667654
0.370261
0.536522
0.348277
0.656007
0.649854
0.71383
0.655906
0.39465
0.660927
0.671285
0.660959
0.679822
0.691649
0.378651
0.661503
0.374276
0.618226
0.666823
0.410569
0.6349
0.713663
0.676412
0.397149
0.382596
0.532709
0.607874
0.386143
0.369335
0.369919
0.374572
0.64516
0.64895
0.714224
0.361446
0.367465
0.686623
0.639918
0.376322
0.35055
0.414957
0.630534
0.691011
0.676839
0.653969
0.376046
0.38686
0.710428
0.366502
0.410206
0.378651
0.693961
0.347432
0.375913
0.534823
0.671147
0.65175
0.708117
0.693624
0.387728
0.353691
0.376314
0.456869
0.395475
0.365781
0.631421
0.652635
0.661881
0.689676
0.369511
0.401348
0.667353
0.402676
0.692261
0.641515
0.713577
0.362684
0.379882
0.661823
0.714316
0.53929
0.374745
0.672499
0.706501
0.531279
0.677138
0.67493
0.710792
0.634855
0.404927
0.694229
0.714428
0.597362
0.655429
0.709049
0.654762
0.711725
0.682734
0.339518
0.357771
0.400881
0.713497
0.466648
0.399825
0.657236
0.666388
0.377781
0.597918
0.346845
0.605472
0.446503
0.361023
0.668173
0.658174
0.396563
0.496211
0.713184
0.369212
0.67177
0.381001
0.371345
0.575289
0.561803
0.446793
0.688478
0.372457
0.660601
0.363681
0.371635
0.695027
0.397587
0.561325
0.362191
0.598395
0.553753
0.710934
0.667746
0.360327
0.347289
0.607713
0.412236
0.669443
0.425327
0.550466
0.703069
0.660652
0.420462
0.562389
0.652606
0.664146
0.687961
0.318855
0.378209
0.488392
0.653272
0.663931
0.354401
0.689379
0.540757
0.365566
0.362178
0.625302
0.630749
0.711349
0.714822
0.612767
0.647888
0.712561
0.63703
0.364267
0.614678
0.413372
0.680258
0.67841
0.368096
0.67409
0.669455
0.364096
0.359525
0.389417
0.709116
0.35537
0.574069
0.659659
0.615738
0.375956
0.669273
0.374723
0.53711
0.713548
0.713712
0.629749
0.715113
0.573104
0.642529
0.485766
0.666461
0.369715
0.693573
0.689128
0.399328
0.712594
0.651575
0.359625
0.361986
0.367028
0.677903
0.369687
0.712579
0.375889
0.67504
0.366392
0.427775
0.36887
0.659832
0.674179
0.510994
0.380645
0.574023
0.707421
0.384369
0.541697
0.669179
0.366574
0.544473
0.713753
0.66769
0.691539
0.357957
0.443387
0.669223
0.685138
0.618612
0.371783
0.37847
0.674392
0.710015
0.711468
0.709883
0.514444
0.663749
0.509944
0.681761
0.371966
0.373496
0.710069
0.667998
0.712811
0.381651
0.69286
0.524461
0.56407
0.368058
0.374115
0.672656
0.671955
0.509466
0.344475
0.688523
0.712984
0.334692
0.564032
0.653708
0.328583
0.368165
0.362179
0.644336
0.358152
0.39498
0.678279
0.430835
0.664592
0.603702
0.335204
0.395771
0.671149
0.362562
0.331443
0.71403
0.374654
0.341937
0.547595
0.67255
0.669843
0.367953
0.345057
0.338815
0.649442
0.373039
0.670764
0.348171
0.659235
0.669385
0.680627
0.641801
0.657375
0.648606
0.691679
0.669501
0.673045
0.375421
0.372022
0.649595
0.712203
0.451359
0.645654
0.513553
0.713356
0.596334
0.350327
0.686138
0.66882
0.66791
0.333662
0.660803
0.354221
0.67812
0.441157
0.654285
0.69268
0.362794
0.666758
0.387842
0.4112
0.641556
0.375547
0.641054
0.709203
0.675331
0.38199
0.693019
0.371555
0.363857
0.360317
0.38097
0.596376
0.34988
0.605446
0.711881
0.345392
0.360098
0.43291
0.530265
0.590163
0.625076
0.40159
0.387162
0.325391
0.369237
0.380491
0.591128
0.657739
0.351703
0.712611
0.659558
0.362514
0.668327
0.638824
0.711115
0.354936
0.714008
0.650593
0.662581
0.67896
0.349213
0.669096
0.664597
0.66151
0.624924
0.702706
0.362656
0.359951
0.681103
0.485202
0.375182
0.695699
0.36545
0.518765
0.588315
0.663982
0.666365
0.364239
0.6446
0.363078
0.334476
0.647887
0.669054
0.664421
0.678208
0.621383
0.364523
0.668547
0.354841
0.449972
0.670297
0.71248
0.669392
0.335175
0.379567
0.666877
0.374092
0.671654
0.603613
0.39265
0.354762
0.684308
0.362785
0.692466
0.671243
0.622054
0.362567
0.357165
0.458897
0.480834
0.579597
0.432801
0.701462
0.626778
0.672753
0.708828
0.65888
0.370993
0.355783
0.672136
0.702887
0.614219
0.409685
0.374892
0.643983
0.356078
0.692419
0.566725
0.344164
0.667821
0.380281
0.670164
0.360966
0.666022
0.361172
0.674495
0.701265
0.375971
0.670949
0.607119
0.377406
0.712949
0.685875
0.512982
0.372237
0.348876
0.427811
0.662419
0.615853
0.348715
0.532578
0.66043
0.705937
0.375576
0.574216
0.659229
0.400816
0.701739
0.696757
0.370879
0.6762
0.714413
0.362433
0.557139
0.388916
0.606016
0.37722
0.371514
0.663027
0.388369
0.381545
0.360771
0.691282
0.651397
0.373241
0.68799
0.348544
0.635573
0.374474
0.653034
0.349707
0.702077
0.681453
0.615397
0.711982
0.49924
0.702354
0.711185
0.356823
0.592119
0.618118
0.471551
0.658621
0.439122
0.388083
0.668471
0.39366
0.524767
0.347118
0.688967
0.378478
0.36103
0.658006
0.693158
0.405001
0.68158
0.652117
0.709083
0.674571
0.714706
0.404976
0.668031
0.409634
0.363245
0.669815
0.655288
0.674342
0.670656
0.366401
0.374571
0.33469
0.648709
0.711855
0.348592
0.673777
0.38386
0.378985
0.370244
0.670086
0.368232
0.66857
0.672244
0.590247
0.680659
0.67319
0.53353
0.613282
0.38844
0.370819
0.40559
0.714703
0.714325
0.380418
0.590662
0.643036
0.612594
0.358301
0.398569
0.629011
0.270235
0.623084
0.583057
0.410345
0.706274
0.646901
0.399324
0.669862
0.334885
0.685431
0.664934
0.658502
0.356942
0.414368
0.639926
0.351586
0.386844
0.68255
0.348557
0.704788
0.68841
0.661404
0.652149
0.343566
0.71629
0.647316
0.685341
0.337318
0.676411
0.363188
0.374626
0.669927
0.691034
0.711098
0.230723
0.692873
0.590253
0.712176
0.387045
0.384358
0.38095
0.680185
0.330422
0.355345
0.360732
0.581652
0.343977
0.367235
0.391851
0.671782
0.408844
0.711985
0.708996
0.681377
0.38336
0.679728
0.613364
0.713708
0.376025
0.623025
0.31875
0.392874
0.6937
0.404503
0.58979
0.657814
0.710664
0.409699
0.309828
0.35214
0.508877
0.710759
0.227375
0.673155
0.691776
0.653724
0.373915
0.355322
0.320538
0.621271
0.392044
0.708871
0.558428
0.707894
0.675578
0.382038
0.592742
0.368659
0.580024
0.605427
0.66762
0.564997
0.472258
0.624436
0.617063
0.672066
0.38796
0.349848
0.380467
0.653715
0.492337
0.712403
0.409752
0.372556
0.660406
0.679027
0.713933
0.406479
0.680533
0.507124
0.511426
0.617636
0.357796
0.406974
0.370691
0.690971
0.714242
0.623482
0.649967
0.320807
0.675324
0.617013
0.71429
0.713387
0.675564
0.668727
0.703781
0.655665
0.663599
0.357119
0.681462
0.677569
0.698553
0.677953
0.690276
0.554606
0.408524
0.375334
0.602728
0.375427
0.344107
0.679523
0.336113
0.592476
0.687574
0.646012
0.669174
0.359272
0.678999
0.358514
0.377
0.702566
0.664663
0.689653
0.380632
0.674202
0.688334
0.608565
0.692482
0.362073
0.699923
0.666964
0.644671
0.36388
0.65713
0.350239
0.670186
0.374126
0.408543
0.512114
0.407501
0.66808
0.659332
0.692075
0.361833
0.701329
0.375043
0.341826
0.662695
0.434468
0.375259
0.690152
0.366098
0.459854
0.629608
0.634803
0.664316
0.43536
0.546607
0.617067
0.694077
0.554124
0.664783
0.484965
0.675954
0.648822
0.608128
0.369775
0.365476
0.404937
0.678209
0.359963
0.624399
0.680819
0.562167
0.693511
0.498911
0.641464
0.638578
0.349126
0.682163
0.641579
0.479402
0.641785
0.667665
0.665296
0.709714
0.374835
0.342198
0.666241
0.495817
0.513496
0.682584
0.677315
0.687888
0.663299
0.664771
0.580997
0.626639
0.66731
0.357619
0.376637
0.377429
0.345669
0.711311
0.419808
0.50675
0.668
0.643585
0.36114
0.669311
0.668951
0.38177
0.351636
0.712955
0.680923
0.355685
0.371297
0.370358
0.70884
0.663753
0.365713
0.36593
0.409935
0.373603
0.346629
0.372263
0.675373
0.682204
0.65373
0.384242
0.647177
0.569963
0.562738
0.35132
0.40591
0.662122
0.710232
0.380232
0.702346
0.401011
0.658168
0.357399
0.680728
0.394974
0.662609
0.672388
0.382318
0.513189
0.360712
0.668191
0.376705
0.575106
0.367075
0.466419
0.320282
0.567265
0.385394
0.712353
0.71641
0.561473
0.656361
0.350122
0.654101
0.709686
0.673343
0.567344
0.636256
0.406652
0.393903
0.381439
0.661809
0.284052
0.669352
0.499507
0.654799
0.667868
0.44065
0.662015
0.34403
0.379531
0.35585
0.468554
0.515349
0.675891
0.371722
0.362368
0.696309
0.344263
0.363662
0.541351
0.354159
0.378471
0.374892
0.673994
0.611757
0.578873
0.370252
0.650812
0.69021
0.370463
0.299179
0.671663
0.695002
0.578543
0.464121
0.36706
0.336013
0.374758
0.673971
0.603421
0.485697
0.645878
0.363815
0.530687
0.375084
0.716497
0.670583
0.408703
0.374174
0.608693
0.536901
0.670219
0.663982
0.663338
0.67945
0.669634
0.372897
0.361117
0.377965
0.388974
0.517411
0.712876
0.613432
0.398277
0.407872
0.422935
0.368183
0.687442
0.632964
0.378498
0.355091
0.688082
0.36311
0.616132
0.66145
0.651565
0.70366
0.52385
0.391608
0.392342
0.624463
0.409206
0.404461
0.369557
0.711219
0.685465
0.375719
0.410846
0.709892
0.385827
0.691641
0.661791
0.406092
0.36299
0.373493
0.686941
0.386012
0.709119
0.654824
0.56407
0.372524
0.481032
0.671371
0.670652
0.352685
0.665191
0.602791
0.369842
0.674208
0.674535
0.335332
0.385153
0.661196
0.375195
0.392972
0.657867
0.316292
0.681334
0.64126
0.660665
0.604039
0.667856
0.689292
0.705068
0.333473
0.370733
0.618305
0.666724
0.414004
0.668206
0.341908
0.683289
0.665588
0.528201
0.610161
0.39431
0.413473
0.670498
0.667959
0.647421
0.672719
0.69045
0.711728
0.675119
0.709413
0.672777
0.663832
0.675317
0.710511
0.702915
0.370504
0.66245
0.35697
0.684788
0.681896
0.657921
0.646996
0.650949
0.360914
0.366522
0.339994
0.353524
0.64851
0.399717
0.354635
0.64589
0.370706
0.655009
0.371028
0.659298
0.669928
0.389578
0.348154
0.343606
0.679672
0.369163
0.67578
0.66607
0.351494
0.661038
0.510068
0.344833
0.354652
0.371412
0.648998
0.383781
0.681967
0.495996
0.358942
0.687928
0.689673
0.663067
0.400104
0.53698
0.366781
0.648485
0.709046
0.687876
0.371724
0.665414
0.682323
0.64935
0.381146
0.679665
0.393559
0.38021
0.676854
0.415644
0.66627
0.388286
0.374335
0.396482
0.650561
0.358036
0.374852
0.367985
0.452698
0.713646
0.668618
0.37705
0.56414
0.688744
0.508773
0.410313
0.34309
0.512147
0.379444
0.389154
0.678455
0.379967
0.39483
0.677377
0.670265
0.378318
0.655068
0.37074
0.712358
0.351483
0.664341
0.716293
0.652224
0.706724
0.365297
0.380272
0.36329
0.705853
0.66318
0.544176
0.499058
0.341382
0.296195
0.694818
0.336274
0.681621
0.348642
0.713285
0.634158
0.389449
0.36495
0.38953
0.410459
0.362661
0.609905
0.648538
0.394774
0.679618
0.599406
0.355874
0.353306
0.669143
0.377229
0.67264
0.382594
0.652597
0.616181
0.680394
0.71456
0.340499
0.664935
0.683903
0.673577
0.385161
0.616276
0.552557
0.343366
0.678575
0.613756
0.676329
0.653123
0.669333
0.675375
0.673697
0.697364
0.686073
0.397527
0.661709
0.391645
0.429769
0.682244
0.364068
0.666181
0.629593
0.362904
0.648317
0.385943
0.365361
0.671659
0.618417
0.67042
0.363965
0.653682
0.576727
0.351364
0.389244
0.667945
0.691016
0.35232
0.366692
0.658265
0.669589
0.380242
0.604293
0.671221
0.613815
0.385975
0.395792
0.365147
0.617426
0.359291
0.665453
0.653304
0.693748
0.572572
0.672458
0.365521
0.667738
0.571789
0.672413
0.563991
0.359041
0.335506
0.368697
0.659093
0.667905
0.380048
0.614184
0.345658
0.617209
0.68523
0.365167
0.600472
0.666589
0.584433
0.386699
0.397429
0.3459
0.671522
0.66636
0.574541
0.463784
0.677079
0.38324
0.594252
0.711601
0.66473
0.38406
0.581752
0.362272
0.637101
0.372228
0.672573
0.671557
0.370868
0.673596
0.413172
0.710187
0.605033
0.708844
0.678506
0.397019
0.695921
0.68956
0.687091
0.673631
0.42723
0.711545
0.37517
0.689028
0.36692
0.405078
0.365392
0.363177
0.382727
0.387165
0.670702
0.336105
0.353046
0.622551
0.673334
0.65045
0.368603
0.648263
0.644933
0.705195
0.365676
0.566652
0.689708
0.351971
0.364248
0.374074
0.589503
0.456572
0.407187
0.563138
0.36945
0.715254
0.449854
0.390171
0.423848
0.611241
0.345879
0.691459
0.360374
0.463267
0.351337
0.674555
0.362843
0.619873
0.711831
0.636198
0.407788
0.40201
0.673538
0.669225
0.363804
0.363829
0.704335
0.409577
0.656671
0.383121
0.512118
0.368596
0.689648
0.359363
0.670155
0.405348
0.684648
0.674791
0.668835
0.711695
0.373511
0.364541
0.366454
0.665514
0.644909
0.649724
0.519823
0.361927
0.661139
0.344403
0.661675
0.607075
0.387689
0.355893
0.661647
0.67418
0.367881
0.712868
0.674479
0.663098
0.660788
0.360903
0.596626
0.386294
0.66411
0.360189
0.70979
0.660109
0.672917
0.670983
0.35732
0.670646
0.387599
0.347665
0.692339
0.711875
0.509277
0.668696
0.711184
0.37756
0.657004
0.673965
0.674361
0.363489
0.39597
0.643378
0.398337
0.682255
0.679716
0.668386
0.675268
0.280224
0.420389
0.609345
0.369207
0.666357
0.668454
0.440254
0.670164
0.379391
0.624597
0.657296
0.6372
0.670818
0.395573
0.359563
0.675304
0.663488
0.363126
0.346884
0.363241
0.365308
0.355209
0.370758
0.353682
0.375559
0.673499
0.365482
0.385365
0.657402
0.508294
0.710144
0.3708
0.410437
0.687778
0.432309
0.458317
0.665641
0.354107
0.619273
0.712457
0.565323
0.653213
0.371006
0.669292
0.71019
0.345646
0.37735
0.388847
0.62791
0.565615
0.668808
0.700939
0.66507
0.65509
0.34965
0.672871
0.708425
0.670048
0.405774
0.688345
0.586797
0.348338
0.39585
0.379201
0.368446
0.361822
0.551581
0.630901
0.650233
0.38955
0.3534
0.671882
0.376436
0.663863
0.689106
0.667907
0.637405
0.679024
0.35261
0.367902
0.369482
0.532367
0.36269
0.68488
0.37014
0.69347
0.703323
0.681761
0.348679
0.419053
0.393483
0.67415
0.366105
0.3714
0.678616
0.653805
0.593354
0.702451
0.667702
0.656344
0.381198
0.580566
0.666302
0.480498
0.673612
0.66337
0.658685
0.401494
0.380784
0.674164
0.446156
0.579802
0.38022
0.636395
0.670632
0.363906
0.357549
0.645339
0.467433
0.667186
0.663208
0.38149
0.407148
0.714759
0.392355
0.374036
0.673388
0.66785
0.363652
0.675628
0.713809
0.646819
0.377147
0.552517
0.387674
0.676384
0.670874
0.65657
0.646502
0.716087
0.363546
0.346201
0.657667
0.385002
0.562986
0.360677
0.679403
0.374402
0.611021
0.665814
0.715747
0.371305
0.709047
0.713173
0.375532
0.635296
0.372189
0.673609
0.375175
0.392325
0.370574
0.647498
0.681906
0.302726
0.359755
0.660354
0.669756