# vtk DataFile Version 1.0
unstructured grid
ascii
DATASET UNSTRUCTURED_GRID
points 13672 float
0.0796578 -0.059106 0
0.00128732 0.00159165 0
0.00227961 -0.00102548 0
0.0791586 -0.0598787 0
-0.0546216 0.01 0
0.000495206 0.025 0
0.0800549 -0.035 0
0.135172 -0.08 0
-0.0546216 -0.0451168 0
0.000495206 -0.0301168 0
0.0800549 -0.0901168 0
0.135172 -0.135117 0
-0.0546216 -0.0451168 -0.00551168
0.000495206 -0.0301168 -0.00551168
0.0800549 -0.0901168 -0.00551168
0.135172 -0.135117 -0.00551168
0.135172 -0.08 -0.00551168
0.0800549 -0.035 -0.00551168
0.000495206 0.025 -0.00551168
-0.0546216 0.01 -0.00551168
0.00128732 0.00159165 -0.00551168
0.00227961 -0.00102548 -0.00551168
0.0791586 -0.0598787 -0.00551168
0.0796578 -0.059106 -0.00551168
0.00165953 -0.000990923 0
0.00119576 -0.000874076 0
0.000866021 -0.000641801 0
0.000645147 -0.000349912 0
0.00052235 -1.7281e-05 0
0.00049972 0.000348016 0
0.000601632 0.000737716 0
0.000861774 0.0011403 0
0.00157235 0.00183217 0
0.00188647 0.00206725 0
0.00222612 0.00230203 0
0.00258713 0.00254351 0
0.00296826 0.00279524 0
0.00337118 0.00305664 0
0.00379785 0.00332658 0
0.00425045 0.00360349 0
0.00473139 0.00388521 0
0.0052432 0.00416895 0
0.0057881 0.00445204 0
0.00636753 0.00473281 0
0.00698281 0.00500961 0
0.00763526 0.00528058 0
0.00832616 0.00554366 0
0.00905691 0.00579603 0
0.00982918 0.00603333 0
0.0106445 0.00625033 0
0.0115038 0.00644128 0
0.0124073 0.00660297 0
0.0133543 0.00673414 0
0.0143444 0.00683382 0
0.0153769 0.00690031 0
0.0164512 0.00693173 0
0.0175666 0.00692547 0
0.0187219 0.00687822 0
0.0199156 0.00678477 0
0.0211454 0.00663864 0
0.0224084 0.00643275 0
0.0237018 0.00616676 0
0.0250249 0.00584739 0
0.026375 0.00547298 0
0.0277479 0.00503752 0
0.0291386 0.00453545 0
0.0305433 0.0039653 0
0.0319572 0.0033256 0
0.0333681 0.00260019 0
0.034775 0.00179799 0
0.0361793 0.000930615 0
0.0375798 3.12222e-06 0
0.0389689 -0.000988429 0
0.0403357 -0.00205109 0
0.041675 -0.00318283 0
0.0429849 -0.00437751 0
0.0442643 -0.00562904 0
0.0455126 -0.00693089 0
0.0467314 -0.00827518 0
0.0479204 -0.00965638 0
0.0490661 -0.0110799 0
0.0501515 -0.0125519 0
0.0511696 -0.0140695 0
0.0521492 -0.0156071 0
0.0531202 -0.0171411 0
0.0540851 -0.0186663 0
0.0550431 -0.0201798 0
0.0559923 -0.0216793 0
0.0569311 -0.0231626 0
0.0578582 -0.0246273 0
0.0587723 -0.0260715 0
0.0596721 -0.027493 0
0.0605563 -0.02889 0
0.0614241 -0.0302609 0
0.0622742 -0.0316042 0
0.063106 -0.0329183 0
0.0639186 -0.034202 0
0.0647113 -0.0354543 0
0.0654835 -0.0366743 0
0.0662345 -0.0378613 0
0.0669642 -0.0390145 0
0.0676726 -0.0401333 0
0.0683597 -0.0412172 0
0.0690246 -0.0422665 0
0.0696662 -0.0432819 0
0.0702841 -0.0442636 0
0.0708793 -0.0452111 0
0.0714538 -0.0461237 0
0.072009 -0.047001 0
0.0725452 -0.0478434 0
0.0730611 -0.0486524 0
0.073556 -0.0494294 0
0.0740291 -0.0501756 0
0.0744812 -0.0508916 0
0.0749138 -0.0515773 0
0.0753285 -0.0522331 0
0.0757266 -0.0528592 0
0.076109 -0.0534564 0
0.0764753 -0.0540264 0
0.0768243 -0.054571 0
0.0771553 -0.0550919 0
0.0774679 -0.0555901 0
0.0777617 -0.0560669 0
0.0780369 -0.056523 0
0.0782958 -0.0569578 0
0.0785421 -0.0573703 0
0.0787786 -0.0577603 0
0.0790073 -0.0581279 0
0.0792295 -0.058474 0
0.0794462 -0.0587995 0
0.0798803 -0.0594162 0
0.0800272 -0.0596588 0
0.0800357 -0.0598891 0
0.0799275 -0.0600784 0
0.0797205 -0.0601773 0
0.0794593 -0.0601051 0
0.0789155 -0.0596491 0
0.0786707 -0.0593963 0
0.0784111 -0.0591319 0
0.0781372 -0.0588542 0
0.0778566 -0.0585548 0
0.0775715 -0.0582308 0
0.0772803 -0.0578828 0
0.0769832 -0.0575099 0
0.0766822 -0.0571097 0
0.0763801 -0.0566796 0
0.0760759 -0.0562196 0
0.0757623 -0.0557337 0
0.0754359 -0.0552232 0
0.0750951 -0.0546879 0
0.0747379 -0.054128 0
0.0743626 -0.0535435 0
0.0739688 -0.0529338 0
0.0735559 -0.0522981 0
0.0731238 -0.0516357 0
0.0726718 -0.050946 0
0.0721991 -0.0502288 0
0.0717046 -0.049484 0
0.0711872 -0.0487117 0
0.0706461 -0.047912 0
0.0700804 -0.0470849 0
0.0694892 -0.0462308 0
0.0688718 -0.0453499 0
0.0682271 -0.0444431 0
0.0675544 -0.043511 0
0.0668527 -0.0425546 0
0.0661215 -0.0415748 0
0.06536 -0.040573 0
0.0645676 -0.0395504 0
0.0637439 -0.0385087 0
0.0628887 -0.0374493 0
0.062002 -0.0363741 0
0.0610838 -0.0352847 0
0.0601345 -0.0341831 0
0.0591547 -0.033071 0
0.0581456 -0.0319502 0
0.0571083 -0.0308224 0
0.0560444 -0.0296893 0
0.0549562 -0.028552 0
0.053845 -0.0274126 0
0.0527113 -0.0262746 0
0.051554 -0.0251427 0
0.0503724 -0.0240222 0
0.0491675 -0.0229164 0
0.047941 -0.0218282 0
0.0466955 -0.0207597 0
0.0454337 -0.0197126 0
0.0441592 -0.0186878 0
0.0428751 -0.0176863 0
0.0415841 -0.0167097 0
0.0402878 -0.0157609 0
0.0389879 -0.0148428 0
0.0376864 -0.0139575 0
0.0363853 -0.013107 0
0.0350871 -0.0122931 0
0.0337942 -0.0115164 0
0.0325095 -0.0107772 0
0.0312357 -0.0100756 0
0.0299758 -0.00941024 0
0.0287337 -0.00877784 0
0.0275126 -0.00817571 0
0.0263139 -0.00760375 0
0.0251376 -0.00706528 0
0.0239829 -0.0065649 0
0.0228537 -0.00609619 0
0.0217522 -0.00565563 0
0.0206795 -0.00524226 0
0.0196364 -0.00485507 0
0.0186233 -0.00449318 0
0.0176408 -0.00415577 0
0.016689 -0.00384204 0
0.0157682 -0.00355115 0
0.0148783 -0.00328218 0
0.0140192 -0.00303468 0
0.0131906 -0.00280795 0
0.0123925 -0.00260016 0
0.0116246 -0.00241012 0
0.0108864 -0.00223769 0
0.0101774 -0.00208212 0
0.00949701 -0.00194206 0
0.00884483 -0.0018163 0
0.0082202 -0.0017039 0
0.00762247 -0.00160391 0
0.00705097 -0.00151528 0
0.006505 -0.00143697 0
0.0059838 -0.00136806 0
0.00548662 -0.00130772 0
0.00501265 -0.00125519 0
0.00456114 -0.00120954 0
0.00413136 -0.00116914 0
0.00372257 -0.00113251 0
0.00333398 -0.00109853 0
0.00296466 -0.00106798 0
0.00261363 -0.0010431 0
-0.052721 -0.0445996 0
-0.0508204 -0.0440823 0
-0.0489199 -0.0435651 0
-0.0470193 -0.0430478 0
-0.0451187 -0.0425306 0
-0.0432181 -0.0420134 0
-0.0413175 -0.0414961 0
-0.039417 -0.0409789 0
-0.0375164 -0.0404616 0
-0.0356158 -0.0399444 0
-0.0337152 -0.0394271 0
-0.0318146 -0.0389099 0
-0.0299141 -0.0383927 0
-0.0280135 -0.0378754 0
-0.0261129 -0.0373582 0
-0.0242123 -0.0368409 0
-0.0223117 -0.0363237 0
-0.0204112 -0.0358065 0
-0.0185106 -0.0352892 0
-0.01661 -0.034772 0
-0.0147094 -0.0342547 0
-0.0128088 -0.0337375 0
-0.0109083 -0.0332202 0
-0.00900769 -0.032703 0
-0.00710711 -0.0321858 0
-0.00520653 -0.0316685 0
-0.00330595 -0.0311513 0
-0.00140537 -0.030634 0
0.00190689 -0.0299614 0
0.00332271 -0.0298498 0
0.00474133 -0.0297825 0
0.00616136 -0.0297597 0
0.0075814 -0.0297814 0
0.00900007 -0.0298477 0
0.010416 -0.0299583 0
0.0118278 -0.0301127 0
0.0132342 -0.0303103 0
0.0146339 -0.0305504 0
0.0160259 -0.0308322 0
0.0174091 -0.0311546 0
0.0187824 -0.0315166 0
0.020145 -0.031917 0
0.0214961 -0.0323546 0
0.0228351 -0.032828 0
0.0241613 -0.0333361 0
0.0254744 -0.0338774 0
0.0267738 -0.0344507 0
0.0280592 -0.0350545 0
0.0293306 -0.0356877 0
0.0305875 -0.0363488 0
0.0318301 -0.0370367 0
0.0330581 -0.0377501 0
0.0342717 -0.0384879 0
0.0354708 -0.0392489 0
0.0366556 -0.0400321 0
0.0378262 -0.0408363 0
0.0389828 -0.0416607 0
0.0401254 -0.0425042 0
0.0412543 -0.0433659 0
0.0423698 -0.0442451 0
0.043472 -0.0451408 0
0.0445612 -0.0460523 0
0.0456375 -0.0469789 0
0.0467013 -0.0479199 0
0.0477529 -0.0488746 0
0.0487923 -0.0498424 0
0.04982 -0.0508227 0
0.0508362 -0.051815 0
0.051841 -0.0528187 0
0.0528348 -0.0538333 0
0.0538178 -0.0548584 0
0.0547903 -0.0558935 0
0.0557524 -0.0569382 0
0.0567045 -0.0579922 0
0.0576467 -0.0590549 0
0.0585792 -0.0601261 0
0.0595024 -0.0612055 0
0.0604163 -0.0622926 0
0.0613212 -0.0633873 0
0.0622174 -0.0644891 0
0.0631049 -0.0655979 0
0.0639841 -0.0667134 0
0.064855 -0.0678353 0
0.0657179 -0.0689633 0
0.0665729 -0.0700974 0
0.0674202 -0.0712372 0
0.06826 -0.0723826 0
0.0690925 -0.0735333 0
0.0699178 -0.0746892 0
0.070736 -0.0758501 0
0.0715473 -0.0770159 0
0.0723518 -0.0781863 0
0.0731498 -0.0793612 0
0.0739412 -0.0805405 0
0.0747264 -0.081724 0
0.0755053 -0.0829116 0
0.0762781 -0.0841033 0
0.0770449 -0.0852987 0
0.0778059 -0.0864979 0
0.0785611 -0.0877007 0
0.0793108 -0.088907 0
0.0814681 -0.0912706 0
0.0828814 -0.0924245 0
0.0842946 -0.0935783 0
0.0857079 -0.0947322 0
0.0871211 -0.095886 0
0.0885344 -0.0970399 0
0.0899476 -0.0981937 0
0.0913609 -0.0993476 0
0.0927741 -0.100501 0
0.0941874 -0.101655 0
0.0956006 -0.102809 0
0.0970139 -0.103963 0
0.0984272 -0.105117 0
0.0998404 -0.106271 0
0.101254 -0.107424 0
0.102667 -0.108578 0
0.10408 -0.109732 0
0.105493 -0.110886 0
0.106907 -0.11204 0
0.10832 -0.113194 0
0.109733 -0.114348 0
0.111146 -0.115501 0
0.11256 -0.116655 0
0.113973 -0.117809 0
0.115386 -0.118963 0
0.116799 -0.120117 0
0.118213 -0.121271 0
0.119626 -0.122424 0
0.121039 -0.123578 0
0.122452 -0.124732 0
0.123866 -0.125886 0
0.125279 -0.12704 0
0.126692 -0.128194 0
0.128105 -0.129348 0
0.129519 -0.130501 0
0.130932 -0.131655 0
0.132345 -0.132809 0
0.133758 -0.133963 0
0.135172 -0.133216 0
0.135172 -0.131316 0
0.135172 -0.129415 0
0.135172 -0.127514 0
0.135172 -0.125614 0
0.135172 -0.123713 0
0.135172 -0.121813 0
0.135172 -0.119912 0
0.135172 -0.118012 0
0.135172 -0.116111 0
0.135172 -0.11421 0
0.135172 -0.11231 0
0.135172 -0.110409 0
0.135172 -0.108509 0
0.135172 -0.106608 0
0.135172 -0.104708 0
0.135172 -0.102807 0
0.135172 -0.100906 0
0.135172 -0.0990058 0
0.135172 -0.0971052 0
0.135172 -0.0952046 0
0.135172 -0.0933041 0
0.135172 -0.0914035 0
0.135172 -0.0895029 0
0.135172 -0.0876023 0
0.135172 -0.0857017 0
0.135172 -0.0838012 0
0.135172 -0.0819006 0
0.133758 -0.0788462 0
0.132345 -0.0776923 0
0.130932 -0.0765385 0
0.129519 -0.0753846 0
0.128105 -0.0742308 0
0.126692 -0.0730769 0
0.125279 -0.0719231 0
0.123866 -0.0707692 0
0.122452 -0.0696154 0
0.121039 -0.0684615 0
0.119626 -0.0673077 0
0.118213 -0.0661538 0
0.116799 -0.065 0
0.115386 -0.0638462 0
0.113973 -0.0626923 0
0.11256 -0.0615385 0
0.111146 -0.0603846 0
0.109733 -0.0592308 0
0.10832 -0.0580769 0
0.106907 -0.0569231 0
0.105493 -0.0557692 0
0.10408 -0.0546154 0
0.102667 -0.0534615 0
0.101254 -0.0523077 0
0.0998404 -0.0511538 0
0.0984272 -0.05 0
0.0970139 -0.0488462 0
0.0956006 -0.0476923 0
[...]
CELL_DATA 13116
SCALARS rho float
LOOKUP_TABLE default
0.549829
0.657109
0.353978
0.711777
0.699824
0.67897
0.387659
0.699994
0.528107
0.705062
0.381823
0.371747
0.700117
0.407709
0.381796
0.679078
0.518096
0.695893
0.677137
0.396844
0.554923
0.392906
0.394747
0.697777
0.609095
0.618874
0.705106
0.352016
0.607935
0.645613
0.677449
0.377294
0.556157
0.447757
0.383998
0.552457
0.663946
0.670926
0.678515
0.679198
0.678463
0.704164
0.426802
0.345921
0.675512
0.676974
0.632032
0.681101
0.387858
0.523896
0.696268
0.44301
0.390049
0.511195
0.5548
0.585476
0.343918
0.694305
0.537159
0.382991
0.409994
0.706685
0.646694
0.678441
0.677639
0.405903
0.682195
0.671154
0.683715
0.677753
0.383584
0.587077
0.389184
0.347736
0.67702
0.365462
0.641457
0.693657
0.382526
0.692982
0.677252
0.628742
0.697861
0.681007
0.664783
0.450257
0.396152
0.668615
0.657279
0.380729
0.368358
0.658927
0.700325
0.661832
0.648477
0.598478
0.611619
0.677455
0.677143
0.598709
0.678543
0.584942
0.677932
0.407777
0.612196
0.408687
0.359282
0.474536
0.353538
0.618189
0.503665
0.624159
0.596604
0.681085
0.693573
0.682371
0.404605
0.388565
0.689562
0.683799
0.671609
0.387057
0.684184
0.37754
0.653919
0.439066
0.396935
0.510617
0.339135
0.525509
0.68986
0.68229
0.503875
0.394051
0.483683
0.584298
0.676377
0.687055
0.677633
0.683448
0.624865
0.635591
0.508997
0.625596
0.642527
0.396075
0.382971
0.618996
0.697415
0.690972
0.545112
0.680322
0.680976
0.376087
0.70147
0.666176
0.38886
0.684201
0.677489
0.668976
0.696934
0.383482
0.696123
0.382132
0.383163
0.70416
0.651344
0.69543
0.385038
0.465878
0.422217
0.676323
0.387218
0.493548
0.681292
0.396082
0.387147
0.390585
0.619912
0.678571
0.384228
0.43244
0.52439
0.66446
0.678656
0.534854
0.361816
0.678042
0.597584
0.461722
0.63543
0.61682
0.677815
0.393435
0.612994
0.679011
0.701857
0.677614
0.655955
0.405902
0.407671
0.623365
0.505198
0.382386
0.691748
0.67577
0.452022
0.608726
0.400098
0.381955
0.362542
0.680665
0.385547
0.394867
0.377179
0.374596
0.3676
0.677915
0.6501
0.437
0.344037
0.68195
0.497495
0.385413
0.557425
0.705753
0.640104
0.369304
0.681482
0.391896
0.705885
0.37275
0.677795
0.576956
0.677348
0.670998
0.6779
0.377087
0.431886
0.668951
0.677042
0.678875
0.676496
0.677719
0.6916
0.389843
0.691175
0.702297
0.677129
0.381936
0.390273
0.67743
0.688759
0.677679
0.684762
0.53589
0.684373
0.38092
0.40011
0.399568
0.400889
0.593958
0.701646
0.640059
0.387196
0.673362
0.354319
0.433999
0.614579
0.384201
0.622562
0.700528
0.676848
0.693962
0.379294
0.676808
0.682601
0.677135
0.686907
0.379097
0.401099
0.389452
0.579466
0.386575
0.39471
0.333018
0.305988
0.664695
0.390245
0.66405
0.700367
0.36623
0.392978
0.359244
0.454024
0.349968
0.667186
0.584937
0.618815
0.384482
0.680369
0.590061
0.402625
0.382161
0.678415
0.688652
0.677715
0.35886
0.679117
0.415716
0.681477
0.704593
0.689263
0.703446
0.393394
0.681512
0.398491
0.678786
0.706011
0.669935
0.38713
0.332656
0.702876
0.396712
0.646663
0.706556
0.365275
0.687234
0.697569
0.396533
0.673145
0.700255
0.393211
0.691418
0.45211
0.577824
0.672097
0.458884
0.684484
0.389365
0.695628
0.344609
0.677809
0.574396
0.702964
0.369791
0.358037
0.666256
0.380248
0.690616
0.603939
0.422366
0.676414
0.370844
0.384236
0.68757
0.557701
0.669457
0.401313
0.385341
0.690919
0.700176
0.382687
0.698302
0.413346
0.406574
0.681726
0.679047
0.461924
0.399692
0.68724
0.677647
0.67917
0.671595
0.693317
0.545299
0.325975
0.397559
0.380912
0.679117
0.381728
0.522313
0.370667
0.382985
0.352025
0.471473
0.143808
0.380751
0.667499
0.326323
0.69688
0.60751
0.678794
0.660426
0.692144
0.384362
0.39878
0.412777
0.334854
0.687628
0.59244
0.67835
0.608126
0.644336
0.619836
0.626981
0.62146
0.642775
0.691798
0.692466
0.678699
0.406273
0.460224
0.545744
0.391092
0.580972
0.583805
0.391334
0.682057
0.676949
0.392194
0.392214
0.383122
0.368804
0.63324
0.385369
0.393388
0.681102
0.358585
0.576525
0.381244
0.678516
0.676421
0.341221
0.39453
0.687063
0.455577
0.380005
0.366723
0.395131
0.357117
0.403176
0.393352
0.39319
0.433754
0.378955
0.581161
0.367863
0.663165
0.379396
0.406662
0.506745
0.397307
0.379195
0.392218
0.676269
0.439772
0.642814
0.47744
0.373735
0.611239
0.659936
0.449491
0.686812
0.620944
0.619485
0.399211
0.677376
0.390234
0.694499
0.677375
0.37273
0.395194
0.596275
0.339671
0.460631
0.577256
0.358293
0.683239
0.645254
0.383024
0.383042
0.387486
0.489099
0.380753
0.39254
0.3861
0.399016
0.707525
0.70875
0.460602
0.601871
0.482837
0.61352
0.354616
0.385882
0.532556
0.372881
0.681066
0.294546
0.372419
0.499587
0.674794
0.646358
0.564098
0.363384
0.394902
0.573626
0.700556
0.678028
0.569773
0.618001
0.592932
0.380192
0.675377
0.572445
0.667808
0.312821
0.353615
0.680097
0.702107
0.659356
0.706041
0.651183
0.617339
0.695773
0.668346
0.678683
0.390879
0.674463
0.340471
0.399139
0.393127
0.710841
0.676266
0.310818
0.663667
0.624827
0.387512
0.67788
0.687872
0.688241
0.35148
0.385162
0.691933
0.379472
0.381104
0.383554
0.38196
0.678685
0.39348
0.710883
0.371272
0.657952
0.694897
0.682488
0.700518
0.378996
0.384954
0.678394
0.707512
0.653633
0.707205
0.70202
0.50175
0.393923
0.372944
0.67965
0.530083
0.384011
0.455326
0.379687
0.673602
0.67866
0.312218
0.392814
0.661062
0.469411
0.668475
0.662259
0.338317
0.392736
0.649362
0.677014
0.375081
0.64555
0.650699
0.677532
0.375459
0.676421
0.34122
0.677278
0.666574
0.399814
0.367565
0.394433
0.677209
0.342148
0.383528
0.389071
0.677985
0.685681
0.383378
0.393531
0.381219
0.678116
0.389145
0.678868
0.396317
0.590938
0.705784
0.382601
0.382047
0.390473
0.502203
0.373746
0.633168
0.35673
0.386505
0.678333
0.390683
0.680369
0.642773
0.677357
0.380441
0.681783
0.699111
0.701497
0.679885
0.651404
0.681516
0.386139
0.677968
0.439262
0.674943
0.379746
0.692813
0.507223
0.386614
0.677418
0.695447
0.38468
0.624679
0.368575
0.382348
0.681021
0.675914
0.364846
0.392139
0.38349
0.388759
0.668576
0.697934
0.378391
0.377867
0.690643
0.686582
0.592827
0.698534
0.678702
0.38309
0.70312
0.428515
0.696122
0.39052
0.596385
0.485992
0.681274
0.67069
0.58114
0.345362
0.363456
0.677311
0.608548
0.517116
0.698014
0.40074
0.680475
0.701052
0.367427
0.457641
0.699602
0.363239
0.677498
0.669944
0.328181
0.684698
0.646717
0.3707
0.684499
0.389506
0.655076
0.360645
0.680474
0.644671
0.37516
0.678445
0.69663
0.693059
0.626001
0.676684
0.587857
0.372336
0.418136
0.364776
0.364586
0.676115
0.560538
0.684987
0.696716
0.384771
0.384131
0.680787
0.706647
0.68766
0.700363
0.385739
0.692644
0.702149
0.395052
0.378699
0.689871
0.67727
0.659968
0.398141
0.596028
0.322307
0.683645
0.640096
0.67807
0.664718
0.382173
0.675034
0.664055
0.699354
0.67449
0.678784
0.435234
0.692883
0.382795
0.619936
0.70367
0.465459
0.6469
0.678137
0.694233
0.404741
0.406303
0.589025
0.652704
0.380952
0.396697
0.381778
0.377889
0.660086
0.68001
0.677659
0.306925
0.379841
0.683493
0.682837
0.393964
0.382389
0.467206
0.662421
0.677686
0.670803
0.689811
0.381687
0.381823
0.676525
0.376515
0.392461
0.358404
0.678059
0.322454
0.381022
0.577822
0.676731
0.620334
0.678755
0.678084
0.410932
0.387956
0.38284
0.477184
0.439261
0.371618
0.669598
0.689403
0.656198
0.680046
0.40413
0.38089
0.705743
0.388273
0.678683
0.644026
0.677591
0.364919
0.394559
0.648994
0.677336
0.561233
0.393071
0.667241
0.678883
0.573477
0.691262
0.698835
0.676645
0.618575
0.387478
0.67819
0.677424
0.613325
0.684071
0.676208
0.626068
0.676824
0.686137
0.387038
0.377009
0.382187
0.67768
0.505959
0.386246
0.680506
0.69136
0.365599
0.632366
0.326668
0.637226
0.469902
0.383732
0.70703
0.697321
0.383044
0.55624
0.677667
0.341204
0.66241
0.417791
0.408098
0.61569
0.609416
0.506633
0.677828
0.381278
0.695944
0.383674
0.391182
0.680275
0.383267
0.603151
0.382791
0.63143
0.597931
0.676777
0.649216
0.394097
0.385593
0.605404
0.429066
0.687354
0.458174
0.591152
0.678718
0.699112
0.443042
0.615398
0.61794
0.702178
0.683036
0.348154
0.379515
0.545861
0.614886
0.702683
0.380229
0.677784
0.563196
0.412592
0.37122
0.671512
0.663383
0.676631
0.677124
0.583525
0.681716
0.678298
0.671376
0.384222
0.659775
0.46453
0.685577
0.676515
0.301608
0.612494
0.698008
0.381138
0.383139
0.38732
0.67623
0.383376
0.615526
0.68943
0.661342
0.358403
0.667635
0.403373
0.595402
0.678307
0.677608
0.667877
0.678074
0.619883
0.67592
0.525463
0.674331
0.358506
0.678308
0.682314
0.409904
0.676961
0.681392
0.385193
0.396561
0.339246
0.689875
0.383589
0.67673
0.380973
0.698888
0.395399
0.4866
0.393772
0.693926
0.699789
0.533675
0.271226
0.619769
0.677969
0.391258
0.591793
0.709223
0.371986
0.588135
0.677241
0.705365
0.678949
0.372481
0.47179
0.689273
0.677882
0.621613
0.385227
0.402655
0.669704
0.676516
0.67699
0.676495
0.549106
0.682775
0.544442
0.682862
0.384619
0.394659
0.676542
0.698546
0.678044
0.394812
0.678287
0.556778
0.598822
0.36725
0.41999
0.698791
0.711893
0.558884
0.334868
0.679384
0.677053
0.385862
0.611843
0.689568
0.385127
0.416974
0.395857
0.595025
0.392105
0.388681
0.671979
0.466366
0.703027
0.638417
0.386725
0.400621
0.705633
0.377054
0.386083
0.677345
0.403135
0.35579
0.591901
0.645359
0.682104
0.378385
0.303915
0.380953
0.644424
0.407796
0.682821
0.385644
0.681334
0.603691
0.674174
0.624373
0.673855
0.637778
0.677875
0.700042
0.685768
0.392711
0.384779
0.665964
0.6784
0.512954
0.608924
0.56023
0.678285
0.611508
0.342164
0.682911
0.70823
0.672043
0.383097
0.676034
0.366016
0.68106
0.505122
0.693358
0.679932
0.384196
0.687658
0.382537
0.42828
0.648166
0.35662
0.683824
0.676292
0.682393
0.366369
0.681021
0.375774
0.364834
0.382218
0.379904
0.602721
0.389277
0.628725
0.678173
0.338244
0.393664
0.495022
0.585426
0.631905
0.62286
0.381934
0.419544
0.382731
0.393858
0.268256
0.631258
0.629252
0.34877
0.67775
0.688853
0.396118
0.708167
0.682134
0.678236
0.38426
0.676989
0.675264
0.69312
0.685223
0.379763
0.683667
0.694847
0.676741
0.67241
0.678063
0.39419
0.386816
0.680548
0.544068
0.397218
0.680047
0.394347
0.577159
0.624602
0.652802
0.657123
0.368252
0.607198
0.401406
0.384288
0.688049
0.692572
0.697622
0.690664
0.655532
0.365076
0.701669
0.390422
0.511822
0.703504
0.677153
0.688698
0.382755
0.395122
0.703063
0.396124
0.691231
0.652541
0.431596
0.391001
0.68164
0.385223
0.679822
0.690744
0.651899
0.384866
0.377838
0.507094
0.518712
0.619753
0.4744
0.678243
0.622597
0.666191
0.67607
0.682432
0.390388
0.393961
0.693278
0.678064
0.618633
0.465721
0.380803
0.672317
0.389865
0.678579
0.620303
0.32157
0.68704
0.379692
0.634215
0.357139
0.698456
0.379062
0.680151
0.678491
0.343412
0.657282
0.652112
0.330348
0.677676
0.676846
0.558322
0.396945
0.370367
0.467616
0.699657
0.599632
0.377729
0.591476
0.68508
0.678368
0.348658
0.607936
0.662298
0.46901
0.678239
0.678904
0.296997
0.685077
0.677197
0.353853
0.597473
0.375267
0.634896
0.376082
0.407609
0.701686
0.393772
0.380542
0.394501
0.681681
0.652987
0.410862
0.679287
0.36699
0.660598
0.375706
0.657234
0.371707
0.678824
0.681011
0.643282
0.677859
0.5601
0.678524
0.678216
0.339954
0.641077
0.648865
0.48737
0.681711
0.500989
0.410353
0.701305
0.389459
0.575249
0.318498
0.678201
0.392581
0.393591
0.697434
0.678182
0.38502
0.68441
0.689538
0.676188
0.699742
0.677186
0.38735
0.707387
0.395237
0.384852
0.65797
0.690867
0.703063
0.663535
0.379773
0.374789
0.381507
0.658469
0.678116
0.369452
0.658436
0.422642
0.372764
0.366323
0.660915
0.390519
0.703493
0.686297
0.639981
0.674804
0.684886
0.573811
0.635835
0.440926
0.403463
0.384939
0.677172
0.677037
0.400389
0.630634
0.59216
0.637916
0.373299
0.401342
0.626602
0.281572
0.619801
0.591876
0.395437
0.678156
0.661943
0.386698
0.681309
0.385206
0.684643
0.703918
0.674304
0.39192
0.478311
0.682292
0.305911
0.451111
0.675067
0.314751
0.678224
0.682941
0.62246
0.689954
0.332148
0.67743
0.687382
0.677702
0.367677
0.692955
0.389068
0.398798
0.666599
0.677974
0.677907
0.239113
0.680284
0.640768
0.677022
0.421385
0.407219
0.379435
0.688551
0.385733
0.388425
0.37054
0.589591
0.385017
0.301166
0.449649
0.682656
0.392066
0.677804
0.678193
0.678914
0.364351
0.683622
0.656632
0.677729
0.421816
0.670145
0.382807
0.39149
0.68082
0.393627
0.626289
0.683937
0.676719
0.392111
0.333
0.384718
0.568262
0.676521
0.237249
0.671856
0.681514
0.691121
0.375998
0.391817
0.348265
0.597626
0.382378
0.676201
0.612526
0.678294
0.670927
0.37907
0.626523
0.384496
0.559596
0.654426
0.70641
0.568699
0.48202
0.66976
0.62249
0.694291
0.382473
0.373491
0.345975
0.692783
0.535845
0.677179
0.39366
0.402322
0.693313
0.683383
0.67754
0.393093
0.679699
0.566491
0.569537
0.60225
0.369976
0.394866
0.296548
0.677972
0.678192
0.670864
0.611525
0.34709
0.682997
0.663682
0.678197
0.677681
0.683718
0.707987
0.679036
0.689343
0.69706
0.371132
0.685368
0.69172
0.678101
0.687433
0.677525
0.57816
0.391224
0.409589
0.616714
0.395233
0.33511
0.678585
0.385295
0.643923
0.682954
0.654292
0.672893
0.380462
0.680532
0.378394
0.408927
0.679152
0.681718
0.680241
0.356491
0.696963
0.678004
0.613186
0.677838
0.391607
0.678083
0.70352
0.662622
0.407525
0.694848
0.379262
0.712839
0.361636
0.391284
0.524133
0.454253
0.706889
0.69517
0.678949
0.372355
0.678074
0.413214
0.386414
0.643128
0.499031
0.382759
0.67834
0.386072
0.521982
0.669886
0.632565
0.656765
0.497742
0.604133
0.6587
0.67919
0.575493
0.697584
0.542581
0.695665
0.606815
0.650346
0.404421
0.38361
0.453539
0.690753
0.384202
0.667616
0.684748
0.605211
0.679309
0.521948
0.682808
0.67291
0.382895
0.683518
0.602583
0.492746
0.606658
0.702753
0.635142
0.678176
0.376784
0.386923
0.675978
0.539035
0.546705
0.68659
0.680595
0.679915
0.702131
0.703557
0.622844
0.61962
0.706316
0.389805
0.390486
0.393958
0.347363
0.676948
0.463519
0.540582
0.686621
0.677982
0.376533
0.674098
0.712217
0.356226
0.378548
0.676802
0.687105
0.373817
0.378896
0.385829
0.676122
0.618371
0.411672
0.391672
0.395822
0.40447
0.348978
0.399191
0.702138
0.681152
0.678876
0.380816
0.655421
0.607763
0.617996
0.341236
0.391028
0.640649
0.676503
0.381345
0.678519
0.387774
0.697116
0.372553
0.678014
0.373521
0.657146
0.699768
0.36972
0.571319
0.392594
0.707724
0.404326
0.611652
0.396396
0.510571
0.382836
0.602773
0.391661
0.677779
0.67772
0.615743
0.67268
0.336373
0.657479
0.677944
0.698213
0.605325
0.661642
0.392781
0.397676
0.366871
0.700353
0.293942
0.697634
0.553431
0.690606
0.705278
0.464029
0.69268
0.385844
0.41791
0.38828
0.515185
0.521979
0.679793
0.384484
0.394712
0.679985
0.384795
0.384547
0.554967
0.373711
0.380931
0.410582
0.705274
0.660362
0.61617
0.382986
0.653965
0.678182
0.405956
0.327976
0.664588
0.678242
0.563112
0.525233
0.418897
0.36683
0.37645
0.669947
0.611711
0.527263
0.685745
0.396422
0.573107
0.380261
0.677496
0.69747
0.394678
0.398931
0.61858
0.548297
0.699993
0.697005
0.700057
0.684761
0.703797
0.36972
0.39128
0.344211
0.378511
0.541936
0.677524
0.66212
0.38101
0.383054
0.454724
0.413931
0.679822
0.631603
0.375111
0.313258
0.682875
0.366834
0.657277
0.695225
0.647317
0.678109
0.554063
0.382694
0.367131
0.613572
0.395415
0.422969
0.40841
0.678102
0.677462
0.336263
0.394689
0.676314
0.390711
0.679857
0.700354
0.387835
0.382671
0.394353
0.6826
0.404537
0.676272
0.684865
0.605682
0.37382
0.539334
0.693068
0.668784
0.387845
0.66587
0.619026
0.418623
0.689149
0.704354
0.381574
0.392177
0.647676
0.386353
0.380027
0.661613
0.350854
0.679532
0.683272
0.699549
0.626923
0.698296
0.682543
0.678599
0.383306
0.417696
0.629569
0.67894
0.478043
0.707787
0.331832
0.685749
0.658452
0.574439
0.652627
0.398243
0.463037
0.675031
0.694743
0.603583
0.700019
0.681274
0.676605
0.698072
0.67621
0.655141
0.645879
0.679056
0.676571
0.678641
0.346466
0.632435
0.339977
0.681187
0.685468
0.691714
0.636545
0.689487
0.379791
0.381783
0.310586
0.387241
0.645262
0.384405
0.384419
0.678677
0.397904
0.688658
0.377742
0.661643
0.684124
0.39231
0.387536
0.323337
0.689313
0.340851
0.678942
0.687359
0.384433
0.63768
0.56404
0.347649
0.35265
0.399828
0.690599
0.39258
0.682277
0.518101
0.388107
0.676807
0.678537
0.700025
0.38734
0.57935
0.394029
0.65749
0.67847
0.682282
0.380293
0.677912
0.686875
0.619107
0.411315
0.689216
0.384742
0.379998
0.672661
0.458555
0.703984
0.411889
0.380382
0.451595
0.629016
0.343159
0.288439
0.362533
0.484635
0.677054
0.686334
0.39838
0.601549
0.681563
0.569598
0.424231
0.316557
0.566464
0.38047
0.379247
0.675261
0.3794
0.383075
0.691585
0.709548
0.354749
0.694561
0.37201
0.676734
0.348524
0.64432
0.677855
0.690798
0.678153
0.387857
0.379415
0.386919
0.678705
0.649281
0.601592
0.547984
0.376965
0.307957
0.678425
0.382825
0.680109
0.388358
0.677984
0.672615
0.363841
0.344201
0.381741
0.394977
0.341958
0.616949
0.648405
0.374761
0.684579
0.641174
0.372779
0.388434
0.709917
0.381117
0.683374
0.434651
0.690327
0.658664
0.683449
0.67714
0.386578
0.703617
0.679054
0.70828
0.393312
0.60675
0.607875
0.329638
0.690597
0.639468
0.689429
0.65472
0.703932
0.670764
0.703376
0.678134
0.677168
0.386302
0.69904
0.381945
0.463444
0.674767
0.389229
0.662536
0.603634
0.39382
0.621179
0.393397
0.368548
0.662964
0.594562
0.708909
0.377873
0.65424
0.625229
0.340239
0.38151
0.640613
0.678318
0.38278
0.370899
0.688859
0.709061
0.387756
0.645731
0.701139
0.663215
0.35263
0.385794
0.381675
0.660261
0.376311
0.666794
0.692777
0.678501
0.60783
0.684212
0.377908
0.658859
0.625169
0.699559
0.56536
0.390146
0.385036
0.404334
0.697646
0.688453
0.43201
0.656497
0.303673
0.645055
0.683571
0.401193
0.617972
0.667955
0.62672
0.378707
0.397173
0.336456
0.690258
0.70386
0.622679
0.52471
0.683711
0.381036
0.638322
0.676904
0.678235
0.37609
0.635406
0.394149
0.610614
0.406717
0.677148
0.662633
0.382335
0.689654
0.431491
0.676544
0.641906
0.676168
0.688542
0.418662
0.678398
0.678975
0.678465
0.678177
0.493271
0.67686
0.394607
0.679274
0.40163
0.380293
0.395458
0.3419
0.380774
0.3768
0.70397
0.37156
0.387511
0.660446
0.69021
0.650798
0.414717
0.685655
0.684926
0.678043
0.324861
0.580412
0.682132
0.38585
0.366569
0.37991
0.632292
0.518849
0.388338
0.588395
0.40532
0.677257
0.511703
0.396309
0.482123
0.654102
0.332279
0.678774
0.39363
0.476097
0.380104
0.674245
0.389294
0.654137
0.676933
0.584624
0.421652
0.385002
0.66458
0.708042
0.371554
0.36475
0.678638
0.393607
0.69442
0.381989
0.568461
0.405049
0.682392
0.390672
0.706167
0.380282
0.683232
0.685037
0.6955
0.676951
0.396488
0.390178
0.412915
0.622703
0.677763
0.62728
0.52471
0.394855
0.691182
0.31956
0.646624
0.580368
0.41098
0.393457
0.696679
0.676697
0.396802
0.677594
0.669358
0.696484
0.699586
0.393393
0.640944
0.382254
0.696508
0.375191
0.677958
0.639347
0.640724
0.706493
0.377302
0.7125
0.39376
0.384494
0.679702
0.677015
0.554564
0.676715
0.676901
0.381317
0.696361
0.670243
0.700956
0.367252
0.432957
0.68165
0.385336
0.686325
0.684071
0.665561
0.678227
0.291348
0.453244
0.653982
0.390237
0.658013
0.708759
0.478793
0.658923
0.274889
0.615991
0.696585
0.680404
0.658034
0.393473
0.393189
0.680194
0.663773
0.39302
0.33574
0.389627
0.382067
0.388331
0.407015
0.342767
0.397558
0.679588
0.399862
0.353853
0.687707
0.5526
0.676338
0.401558
0.394183
0.682224
0.47352
0.482086
0.701877
0.375988
0.665163
0.678032
0.617785
0.659826
0.340504
0.686709
0.678385
0.384692
0.379313
0.410878
0.600194
0.616979
0.70385
0.679237
0.679209
0.663814
0.373216
0.687476
0.678441
0.637394
0.388431
0.683025
0.574549
0.365991
0.43888
0.390077
0.392041
0.393918
0.596629
0.671173
0.667369
0.378691
0.39523
0.700851
0.351784
0.687725
0.679036
0.666082
0.680667
0.683096
0.386108
0.394233
0.402107
0.571902
0.382309
0.681167
0.393218
0.680743
0.67836
0.684971
0.358225
0.454218
0.416683
0.684575
0.370092
0.380239
0.678071
0.659376
0.62158
0.678967
0.633365
0.693916
0.380992
0.633219
0.698536
0.541053
0.683178
0.690029
0.695014
0.469034
0.433633
0.702443
0.507831
0.615531
0.378747
0.641444
0.666115
0.40694
0.373926
0.655479
0.517047
0.69556
0.687744
0.393841
0.396634
0.677215
0.385916
0.419268
0.667534
0.642113
0.393808
0.671395
0.67752
0.638776
0.377542
0.597927
0.38245
0.670502
0.697078
0.693736
0.664496
0.677499
0.305611
0.365693
0.677568
0.39317
0.617448
0.393521
0.684327
0.398201
0.65093
0.698091
0.677395
0.381754
0.676233
0.676944
0.380179
0.642361
0.38734
0.706891
0.382155
0.368515
0.388608
0.674365
0.674652
0.328256
0.30587
0.619094
0.703217
0.469117
0.692339