# vtk DataFile Version 1.0
unstructured grid
ascii
DATASET UNSTRUCTURED_GRID
points 13672 float
0.0796578 -0.059106 0
0.00128732 0.00159165 0
0.00227961 -0.00102548 0
0.0791586 -0.0598787 0
-0.0546216 0.01 0
0.000495206 0.025 0
0.0800549 -0.035 0
0.135172 -0.08 0
-0.0546216 -0.0451168 0
0.000495206 -0.0301168 0
0.0800549 -0.0901168 0
0.135172 -0.135117 0
-0.0546216 -0.0451168 -0.00551168
0.000495206 -0.0301168 -0.00551168
0.0800549 -0.0901168 -0.00551168
0.135172 -0.135117 -0.00551168
0.135172 -0.08 -0.00551168
0.0800549 -0.035 -0.00551168
0.000495206 0.025 -0.00551168
-0.0546216 0.01 -0.00551168
0.00128732 0.00159165 -0.00551168
0.00227961 -0.00102548 -0.00551168
0.0791586 -0.0598787 -0.00551168
0.0796578 -0.059106 -0.00551168
0.00165953 -0.000990923 0
0.00119576 -0.000874076 0
0.000866021 -0.000641801 0
0.000645147 -0.000349912 0
0.00052235 -1.7281e-05 0
0.00049972 0.000348016 0
0.000601632 0.000737716 0
0.000861774 0.0011403 0
0.00157235 0.00183217 0
0.00188647 0.00206725 0
0.00222612 0.00230203 0
0.00258713 0.00254351 0
0.00296826 0.00279524 0
0.00337118 0.00305664 0
0.00379785 0.00332658 0
0.00425045 0.00360349 0
0.00473139 0.00388521 0
0.0052432 0.00416895 0
0.0057881 0.00445204 0
0.00636753 0.00473281 0
0.00698281 0.00500961 0
0.00763526 0.00528058 0
0.00832616 0.00554366 0
0.00905691 0.00579603 0
0.00982918 0.00603333 0
0.0106445 0.00625033 0
0.0115038 0.00644128 0
0.0124073 0.00660297 0
0.0133543 0.00673414 0
0.0143444 0.00683382 0
0.0153769 0.00690031 0
0.0164512 0.00693173 0
0.0175666 0.00692547 0
0.0187219 0.00687822 0
0.0199156 0.00678477 0
0.0211454 0.00663864 0
0.0224084 0.00643275 0
0.0237018 0.00616676 0
0.0250249 0.00584739 0
0.026375 0.00547298 0
0.0277479 0.00503752 0
0.0291386 0.00453545 0
0.0305433 0.0039653 0
0.0319572 0.0033256 0
0.0333681 0.00260019 0
0.034775 0.00179799 0
0.0361793 0.000930615 0
0.0375798 3.12222e-06 0
0.0389689 -0.000988429 0
0.0403357 -0.00205109 0
0.041675 -0.00318283 0
0.0429849 -0.00437751 0
0.0442643 -0.00562904 0
0.0455126 -0.00693089 0
0.0467314 -0.00827518 0
0.0479204 -0.00965638 0
0.0490661 -0.0110799 0
0.0501515 -0.0125519 0
0.0511696 -0.0140695 0
0.0521492 -0.0156071 0
0.0531202 -0.0171411 0
0.0540851 -0.0186663 0
0.0550431 -0.0201798 0
0.0559923 -0.0216793 0
0.0569311 -0.0231626 0
0.0578582 -0.0246273 0
0.0587723 -0.0260715 0
0.0596721 -0.027493 0
0.0605563 -0.02889 0
0.0614241 -0.0302609 0
0.0622742 -0.0316042 0
0.063106 -0.0329183 0
0.0639186 -0.034202 0
0.0647113 -0.0354543 0
0.0654835 -0.0366743 0
0.0662345 -0.0378613 0
0.0669642 -0.0390145 0
0.0676726 -0.0401333 0
0.0683597 -0.0412172 0
0.0690246 -0.0422665 0
0.0696662 -0.0432819 0
0.0702841 -0.0442636 0
0.0708793 -0.0452111 0
0.0714538 -0.0461237 0
0.072009 -0.047001 0
0.0725452 -0.0478434 0
0.0730611 -0.0486524 0
0.073556 -0.0494294 0
0.0740291 -0.0501756 0
0.0744812 -0.0508916 0
0.0749138 -0.0515773 0
0.0753285 -0.0522331 0
0.0757266 -0.0528592 0
0.076109 -0.0534564 0
0.0764753 -0.0540264 0
0.0768243 -0.054571 0
0.0771553 -0.0550919 0
0.0774679 -0.0555901 0
0.0777617 -0.0560669 0
0.0780369 -0.056523 0
0.0782958 -0.0569578 0
0.0785421 -0.0573703 0
0.0787786 -0.0577603 0
0.0790073 -0.0581279 0
0.0792295 -0.058474 0
0.0794462 -0.0587995 0
0.0798803 -0.0594162 0
0.0800272 -0.0596588 0
0.0800357 -0.0598891 0
0.0799275 -0.0600784 0
0.0797205 -0.0601773 0
0.0794593 -0.0601051 0
0.0789155 -0.0596491 0
0.0786707 -0.0593963 0
0.0784111 -0.0591319 0
0.0781372 -0.0588542 0
0.0778566 -0.0585548 0
0.0775715 -0.0582308 0
0.0772803 -0.0578828 0
0.0769832 -0.0575099 0
0.0766822 -0.0571097 0
0.0763801 -0.0566796 0
0.0760759 -0.0562196 0
0.0757623 -0.0557337 0
0.0754359 -0.0552232 0
0.0750951 -0.0546879 0
0.0747379 -0.054128 0
0.0743626 -0.0535435 0
0.0739688 -0.0529338 0
0.0735559 -0.0522981 0
0.0731238 -0.0516357 0
0.0726718 -0.050946 0
0.0721991 -0.0502288 0
0.0717046 -0.049484 0
0.0711872 -0.0487117 0
0.0706461 -0.047912 0
0.0700804 -0.0470849 0
0.0694892 -0.0462308 0
0.0688718 -0.0453499 0
0.0682271 -0.0444431 0
0.0675544 -0.043511 0
0.0668527 -0.0425546 0
0.0661215 -0.0415748 0
0.06536 -0.040573 0
0.0645676 -0.0395504 0
0.0637439 -0.0385087 0
0.0628887 -0.0374493 0
0.062002 -0.0363741 0
0.0610838 -0.0352847 0
0.0601345 -0.0341831 0
0.0591547 -0.033071 0
0.0581456 -0.0319502 0
0.0571083 -0.0308224 0
0.0560444 -0.0296893 0
0.0549562 -0.028552 0
0.053845 -0.0274126 0
0.0527113 -0.0262746 0
0.051554 -0.0251427 0
0.0503724 -0.0240222 0
0.0491675 -0.0229164 0
0.047941 -0.0218282 0
0.0466955 -0.0207597 0
0.0454337 -0.0197126 0
0.0441592 -0.0186878 0
0.0428751 -0.0176863 0
0.0415841 -0.0167097 0
0.0402878 -0.0157609 0
0.0389879 -0.0148428 0
0.0376864 -0.0139575 0
0.0363853 -0.013107 0
0.0350871 -0.0122931 0
0.0337942 -0.0115164 0
0.0325095 -0.0107772 0
0.0312357 -0.0100756 0
0.0299758 -0.00941024 0
0.0287337 -0.00877784 0
0.0275126 -0.00817571 0
0.0263139 -0.00760375 0
0.0251376 -0.00706528 0
0.0239829 -0.0065649 0
0.0228537 -0.00609619 0
0.0217522 -0.00565563 0
0.0206795 -0.00524226 0
0.0196364 -0.00485507 0
0.0186233 -0.00449318 0
0.0176408 -0.00415577 0
0.016689 -0.00384204 0
0.0157682 -0.00355115 0
0.0148783 -0.00328218 0
0.0140192 -0.00303468 0
0.0131906 -0.00280795 0
0.0123925 -0.00260016 0
0.0116246 -0.00241012 0
0.0108864 -0.00223769 0
0.0101774 -0.00208212 0
0.00949701 -0.00194206 0
0.00884483 -0.0018163 0
0.0082202 -0.0017039 0
0.00762247 -0.00160391 0
0.00705097 -0.00151528 0
0.006505 -0.00143697 0
0.0059838 -0.00136806 0
0.00548662 -0.00130772 0
0.00501265 -0.00125519 0
0.00456114 -0.00120954 0
0.00413136 -0.00116914 0
0.00372257 -0.00113251 0
0.00333398 -0.00109853 0
0.00296466 -0.00106798 0
0.00261363 -0.0010431 0
-0.052721 -0.0445996 0
-0.0508204 -0.0440823 0
-0.0489199 -0.0435651 0
-0.0470193 -0.0430478 0
-0.0451187 -0.0425306 0
-0.0432181 -0.0420134 0
-0.0413175 -0.0414961 0
-0.039417 -0.0409789 0
-0.0375164 -0.0404616 0
-0.0356158 -0.0399444 0
-0.0337152 -0.0394271 0
-0.0318146 -0.0389099 0
-0.0299141 -0.0383927 0
-0.0280135 -0.0378754 0
-0.0261129 -0.0373582 0
-0.0242123 -0.0368409 0
-0.0223117 -0.0363237 0
-0.0204112 -0.0358065 0
-0.0185106 -0.0352892 0
-0.01661 -0.034772 0
-0.0147094 -0.0342547 0
-0.0128088 -0.0337375 0
-0.0109083 -0.0332202 0
-0.00900769 -0.032703 0
-0.00710711 -0.0321858 0
-0.00520653 -0.0316685 0
-0.00330595 -0.0311513 0
-0.00140537 -0.030634 0
0.00190689 -0.0299614 0
0.00332271 -0.0298498 0
0.00474133 -0.0297825 0
0.00616136 -0.0297597 0
0.0075814 -0.0297814 0
0.00900007 -0.0298477 0
0.010416 -0.0299583 0
0.0118278 -0.0301127 0
0.0132342 -0.0303103 0
0.0146339 -0.0305504 0
0.0160259 -0.0308322 0
0.0174091 -0.0311546 0
0.0187824 -0.0315166 0
0.020145 -0.031917 0
0.0214961 -0.0323546 0
0.0228351 -0.032828 0
0.0241613 -0.0333361 0
0.0254744 -0.0338774 0
0.0267738 -0.0344507 0
0.0280592 -0.0350545 0
0.0293306 -0.0356877 0
0.0305875 -0.0363488 0
0.0318301 -0.0370367 0
0.0330581 -0.0377501 0
0.0342717 -0.0384879 0
0.0354708 -0.0392489 0
0.0366556 -0.0400321 0
0.0378262 -0.0408363 0
0.0389828 -0.0416607 0
0.0401254 -0.0425042 0
0.0412543 -0.0433659 0
0.0423698 -0.0442451 0
0.043472 -0.0451408 0
0.0445612 -0.0460523 0
0.0456375 -0.0469789 0
0.0467013 -0.0479199 0
0.0477529 -0.0488746 0
0.0487923 -0.0498424 0
0.04982 -0.0508227 0
0.0508362 -0.051815 0
0.051841 -0.0528187 0
0.0528348 -0.0538333 0
0.0538178 -0.0548584 0
0.0547903 -0.0558935 0
0.0557524 -0.0569382 0
0.0567045 -0.0579922 0
0.0576467 -0.0590549 0
0.0585792 -0.0601261 0
0.0595024 -0.0612055 0
0.0604163 -0.0622926 0
0.0613212 -0.0633873 0
0.0622174 -0.0644891 0
0.0631049 -0.0655979 0
0.0639841 -0.0667134 0
0.064855 -0.0678353 0
0.0657179 -0.0689633 0
0.0665729 -0.0700974 0
0.0674202 -0.0712372 0
0.06826 -0.0723826 0
0.0690925 -0.0735333 0
0.0699178 -0.0746892 0
0.070736 -0.0758501 0
0.0715473 -0.0770159 0
0.0723518 -0.0781863 0
0.0731498 -0.0793612 0
0.0739412 -0.0805405 0
0.0747264 -0.081724 0
0.0755053 -0.0829116 0
0.0762781 -0.0841033 0
0.0770449 -0.0852987 0
0.0778059 -0.0864979 0
0.0785611 -0.0877007 0
0.0793108 -0.088907 0
0.0814681 -0.0912706 0
0.0828814 -0.0924245 0
0.0842946 -0.0935783 0
0.0857079 -0.0947322 0
0.0871211 -0.095886 0
0.0885344 -0.0970399 0
0.0899476 -0.0981937 0
0.0913609 -0.0993476 0
0.0927741 -0.100501 0
0.0941874 -0.101655 0
0.0956006 -0.102809 0
0.0970139 -0.103963 0
0.0984272 -0.105117 0
0.0998404 -0.106271 0
0.101254 -0.107424 0
0.102667 -0.108578 0
0.10408 -0.109732 0
0.105493 -0.110886 0
0.106907 -0.11204 0
0.10832 -0.113194 0
0.109733 -0.114348 0
0.111146 -0.115501 0
0.11256 -0.116655 0
0.113973 -0.117809 0
0.115386 -0.118963 0
0.116799 -0.120117 0
0.118213 -0.121271 0
0.119626 -0.122424 0
0.121039 -0.123578 0
0.122452 -0.124732 0
0.123866 -0.125886 0
0.125279 -0.12704 0
0.126692 -0.128194 0
0.128105 -0.129348 0
0.129519 -0.130501 0
0.130932 -0.131655 0
0.132345 -0.132809 0
0.133758 -0.133963 0
0.135172 -0.133216 0
0.135172 -0.131316 0
0.135172 -0.129415 0
0.135172 -0.127514 0
0.135172 -0.125614 0
0.135172 -0.123713 0
0.135172 -0.121813 0
0.135172 -0.119912 0
0.135172 -0.118012 0
0.135172 -0.116111 0
0.135172 -0.11421 0
0.135172 -0.11231 0
0.135172 -0.110409 0
0.135172 -0.108509 0
0.135172 -0.106608 0
0.135172 -0.104708 0
0.135172 -0.102807 0
0.135172 -0.100906 0
0.135172 -0.0990058 0
0.135172 -0.0971052 0
0.135172 -0.0952046 0
0.135172 -0.0933041 0
0.135172 -0.0914035 0
0.135172 -0.0895029 0
0.135172 -0.0876023 0
0.135172 -0.0857017 0
0.135172 -0.0838012 0
0.135172 -0.0819006 0
0.133758 -0.0788462 0
0.132345 -0.0776923 0
0.130932 -0.0765385 0
0.129519 -0.0753846 0
0.128105 -0.0742308 0
0.126692 -0.0730769 0
0.125279 -0.0719231 0
0.123866 -0.0707692 0
0.122452 -0.0696154 0
0.121039 -0.0684615 0
0.119626 -0.0673077 0
0.118213 -0.0661538 0
0.116799 -0.065 0
0.115386 -0.0638462 0
0.113973 -0.0626923 0
0.11256 -0.0615385 0
0.111146 -0.0603846 0
0.109733 -0.0592308 0
0.10832 -0.0580769 0
0.106907 -0.0569231 0
0.105493 -0.0557692 0
0.10408 -0.0546154 0
0.102667 -0.0534615 0
0.101254 -0.0523077 0
0.0998404 -0.0511538 0
0.0984272 -0.05 0
0.0970139 -0.0488462 0
0.0956006 -0.0476923 0
[...]
CELL_DATA 13116
SCALARS rho float
LOOKUP_TABLE default
0.509874
0.617041
0.360244
0.639137
0.636477
0.679966
0.374204
0.646283
0.472137
0.635652
0.364243
0.379512
0.636741
0.386372
0.350758
0.677966
0.496288
0.621826
0.654784
0.420536
0.507757
0.34842
0.377348
0.625102
0.537299
0.636523
0.635536
0.364451
0.526107
0.575205
0.704761
0.377703
0.492987
0.402457
0.368146
0.509843
0.599044
0.641645
0.693938
0.650109
0.665119
0.645351
0.398553
0.367999
0.651677
0.653849
0.612376
0.651608
0.353016
0.460942
0.645586
0.406485
0.388464
0.491
0.492814
0.519605
0.370435
0.62445
0.470599
0.352165
0.38511
0.638061
0.61426
0.695314
0.700134
0.39145
0.658573
0.600343
0.654908
0.699222
0.349879
0.510375
0.347425
0.380028
0.706116
0.357225
0.593238
0.640254
0.389322
0.618272
0.611707
0.63364
0.626673
0.646115
0.640682
0.373192
0.402447
0.592894
0.640393
0.377695
0.377153
0.618375
0.628798
0.643847
0.581771
0.536032
0.539147
0.703321
0.705512
0.523353
0.598178
0.575448
0.661895
0.379333
0.61093
0.373666
0.308863
0.436886
0.368438
0.53581
0.462825
0.626338
0.53363
0.612175
0.618997
0.65687
0.396057
0.341711
0.642699
0.653458
0.599512
0.347121
0.654096
0.376705
0.642729
0.386948
0.401952
0.444319
0.369706
0.461254
0.642973
0.630315
0.427704
0.350388
0.409661
0.542883
0.707952
0.650405
0.59717
0.653339
0.58219
0.614186
0.444687
0.583998
0.604129
0.381507
0.365977
0.631354
0.634025
0.647588
0.468685
0.646848
0.652669
0.360675
0.633937
0.642563
0.374932
0.603698
0.703823
0.592194
0.62467
0.372827
0.62744
0.373614
0.347201
0.63954
0.641121
0.621272
0.370304
0.391397
0.361646
0.707904
0.35719
0.432606
0.658317
0.37765
0.350815
0.348054
0.624385
0.685628
0.410848
0.376466
0.482338
0.598169
0.683636
0.470196
0.391643
0.662685
0.610594
0.405393
0.581884
0.630412
0.698225
0.373126
0.624915
0.684255
0.631979
0.661195
0.63948
0.348763
0.37977
0.541758
0.439625
0.380443
0.633103
0.64178
0.41364
0.543747
0.366338
0.348066
0.363298
0.665389
0.372895
0.408477
0.371966
0.359861
0.326327
0.695437
0.641928
0.361879
0.370751
0.659388
0.457565
0.408429
0.475064
0.636918
0.602452
0.365907
0.658574
0.330149
0.647469
0.377666
0.702584
0.499551
0.703859
0.646778
0.697099
0.35402
0.384066
0.590676
0.706804
0.685708
0.707328
0.699883
0.647403
0.350792
0.647461
0.635129
0.704471
0.358788
0.353031
0.645117
0.644029
0.703454
0.642161
0.501873
0.610447
0.3661
0.368723
0.345257
0.367399
0.603101
0.631749
0.592783
0.405024
0.650158
0.39754
0.36731
0.61189
0.364059
0.634385
0.644365
0.707337
0.624379
0.352692
0.707395
0.615807
0.704113
0.650469
0.396131
0.408483
0.373141
0.540067
0.347387
0.349658
0.2881
0.354405
0.633466
0.382909
0.642898
0.639332
0.411285
0.422477
0.400848
0.391254
0.35714
0.592201
0.56165
0.619911
0.363077
0.665528
0.50492
0.379
0.349518
0.689267
0.64476
0.662675
0.392563
0.681803
0.384557
0.630608
0.644656
0.648405
0.644764
0.372592
0.65946
0.369566
0.668211
0.636421
0.588406
0.401472
0.287913
0.635849
0.401077
0.62403
0.638265
0.337113
0.610116
0.626349
0.408799
0.64959
0.628796
0.37959
0.643731
0.369039
0.49307
0.647807
0.376504
0.604341
0.408083
0.623051
0.294959
0.69858
0.584255
0.632805
0.366776
0.313049
0.641921
0.359437
0.634783
0.614699
0.371544
0.708585
0.379568
0.348657
0.638014
0.477412
0.60068
0.408269
0.373248
0.64776
0.639066
0.366067
0.642292
0.391644
0.372345
0.654783
0.647611
0.436332
0.372056
0.648989
0.703911
0.678403
0.647731
0.628403
0.469989
0.339684
0.366621
0.415549
0.680623
0.412813
0.481537
0.334699
0.373753
0.308813
0.443837
0.125096
0.359576
0.641928
0.382289
0.628274
0.527463
0.657177
0.585081
0.646197
0.348466
0.410983
0.353728
0.344473
0.634878
0.530698
0.661647
0.527709
0.604694
0.555075
0.632546
0.570899
0.573186
0.628755
0.617364
0.685207
0.350367
0.417728
0.507421
0.34851
0.559437
0.519356
0.391082
0.657711
0.707116
0.372888
0.413875
0.391697
0.397412
0.549104
0.359974
0.373438
0.662541
0.390146
0.500697
0.381788
0.676148
0.616626
0.357636
0.349815
0.637261
0.390686
0.378739
0.397726
0.381423
0.368154
0.412668
0.412858
0.347985
0.368051
0.372966
0.573741
0.34693
0.641626
0.333211
0.375847
0.425989
0.380442
0.37724
0.380424
0.651489
0.376017
0.560822
0.443868
0.393975
0.546172
0.641421
0.372447
0.609602
0.558928
0.559328
0.413656
0.704475
0.340844
0.627281
0.705045
0.370163
0.376519
0.608825
0.344329
0.377578
0.586234
0.310693
0.602618
0.607648
0.421416
0.350123
0.361324
0.429672
0.351423
0.381954
0.355611
0.370677
0.640331
0.639052
0.396409
0.52595
0.410221
0.622686
0.318014
0.356023
0.474993
0.370231
0.637267
0.260282
0.323003
0.42346
0.650178
0.63928
0.483534
0.334637
0.377006
0.487808
0.645989
0.699183
0.484683
0.608642
0.60158
0.381599
0.615782
0.495864
0.589201
0.355308
0.35764
0.611347
0.631501
0.583627
0.636708
0.634854
0.63867
0.623518
0.588046
0.658184
0.387368
0.64951
0.290313
0.365038
0.399425
0.638218
0.643325
0.347802
0.640165
0.540566
0.399642
0.695553
0.645352
0.624886
0.364071
0.357258
0.638788
0.377053
0.381632
0.376601
0.383635
0.634042
0.380077
0.6379
0.34644
0.616136
0.645967
0.657994
0.638262
0.376571
0.4199
0.641678
0.647211
0.596493
0.640193
0.634763
0.418745
0.409712
0.369404
0.671522
0.469983
0.392614
0.390446
0.375152
0.646632
0.660407
0.355683
0.348587
0.639656
0.384864
0.642535
0.578339
0.369199
0.332055
0.594187
0.706782
0.371827
0.638191
0.641264
0.642168
0.351515
0.707437
0.372363
0.703875
0.58815
0.371994
0.327321
0.348772
0.702985
0.367467
0.39274
0.34232
0.694114
0.627188
0.392649
0.365838
0.380818
0.694517
0.347405
0.684235
0.382239
0.513365
0.636796
0.335004
0.373136
0.375922
0.419229
0.368614
0.637303
0.38591
0.354865
0.682406
0.367249
0.666557
0.620756
0.703295
0.395632
0.638134
0.629387
0.631858
0.669344
0.645791
0.655378
0.379688
0.699892
0.36395
0.634075
0.401827
0.647197
0.451541
0.37211
0.701003
0.631926
0.359753
0.570369
0.377369
0.350572
0.663278
0.65135
0.376718
0.380673
0.389912
0.379045
0.646416
0.625063
0.353612
0.421927
0.63414
0.651183
0.51553
0.629205
0.662245
0.369862
0.633232
0.367238
0.645626
0.346818
0.529651
0.407588
0.660436
0.601852
0.500401
0.324849
0.36634
0.658885
0.525275
0.491567
0.628702
0.367831
0.617202
0.633522
0.308404
0.416116
0.6303
0.340761
0.700311
0.591452
0.283662
0.651279
0.580185
0.353068
0.624847
0.373064
0.636823
0.364433
0.666551
0.613501
0.368105
0.693683
0.627887
0.63704
0.542222
0.620363
0.504354
0.349844
0.383151
0.36934
0.382549
0.70895
0.477979
0.653161
0.633792
0.399982
0.347054
0.624136
0.63699
0.63668
0.644706
0.406406
0.617251
0.635333
0.420334
0.338224
0.641975
0.646137
0.638669
0.37767
0.510175
0.356741
0.623244
0.62168
0.699717
0.625417
0.391379
0.628549
0.642471
0.628078
0.649853
0.669327
0.359621
0.628507
0.345817
0.593602
0.635633
0.391202
0.608005
0.698799
0.64635
0.385337
0.364136
0.506148
0.576457
0.378165
0.370668
0.364378
0.369912
0.616128
0.616776
0.698559
0.354172
0.369082
0.655182
0.603541
0.381731
0.34709
0.395134
0.602195
0.660828
0.6468
0.619922
0.347539
0.378619
0.708047
0.376364
0.410116
0.378785
0.670202
0.35665
0.375184
0.513916
0.638023
0.623498
0.688104
0.665007
0.396545
0.36224
0.364965
0.448234
0.375243
0.377347
0.599862
0.618265
0.632841
0.662148
0.377665
0.3917
0.636461
0.388754
0.670999
0.613925
0.703618
0.376629
0.381814
0.633467
0.702855
0.525991
0.380187
0.642532
0.685957
0.51094
0.647662
0.645828
0.707734
0.607516
0.406938
0.66589
0.701994
0.576414
0.622658
0.708949
0.62664
0.706481
0.650981
0.355486
0.347846
0.390163
0.703143
0.452478
0.386475
0.624738
0.633429
0.378954
0.575129
0.354227
0.582225
0.438199
0.354993
0.637486
0.624171
0.390913
0.472324
0.703625
0.373983
0.643848
0.38867
0.372646
0.552116
0.534909
0.425967
0.66054
0.361579
0.627563
0.350412
0.377131
0.667562
0.393219
0.538997
0.375682
0.575774
0.530141
0.707264
0.639998
0.364137
0.352863
0.583987
0.401688
0.636006
0.410319
0.530384
0.678748
0.627659
0.411253
0.533372
0.624296
0.632385
0.65655
0.297433
0.373672
0.464914
0.624923
0.632407
0.332052
0.661893
0.526991
0.35253
0.375891
0.589852
0.602086
0.706954
0.703369
0.585416
0.614934
0.69135
0.606104
0.377295
0.581913
0.393749
0.650214
0.646265
0.359706
0.647131
0.637826
0.348844
0.353147
0.40298
0.708942
0.37675
0.550698
0.626509
0.582396
0.372812
0.638562
0.381694
0.510417
0.695529
0.700709
0.598417
0.694602
0.545867
0.610861
0.47118
0.6339
0.364056
0.673106
0.658421
0.386843
0.70562
0.619107
0.372199
0.365348
0.371312
0.648208
0.370221
0.705808
0.371499
0.64658
0.375087
0.407829
0.379626
0.626621
0.644376
0.500483
0.376949
0.546995
0.694119
0.370902
0.515472
0.638739
0.377401
0.521334
0.703969
0.636792
0.668931
0.370734
0.434541
0.636023
0.655037
0.593953
0.373142
0.359372
0.643967
0.708343
0.70685
0.708263
0.500829
0.630487
0.496208
0.651484
0.373065
0.37971
0.708119
0.63624
0.692724
0.388962
0.671037
0.510807
0.545319
0.357095
0.354007
0.641882
0.642775
0.486316
0.340121
0.660639
0.705164
0.372142
0.536742
0.619734
0.370428
0.375854
0.367349
0.614928
0.348189
0.38925
0.647971
0.41626
0.633056
0.579654
0.372096
0.413052
0.641002
0.347939
0.358963
0.703173
0.375139
0.3183
0.524554
0.6454
0.636133
0.366344
0.349755
0.360326
0.621161
0.373652
0.637009
0.363284
0.626476
0.641407
0.649843
0.614063
0.625504
0.620556
0.661429
0.638208
0.639432
0.380432
0.356596
0.619566
0.691137
0.430272
0.616959
0.491993
0.692765
0.575687
0.357167
0.654878
0.638298
0.635801
0.360298
0.62835
0.352347
0.644762
0.421235
0.619486
0.667768
0.354961
0.633422
0.385382
0.395885
0.613834
0.374757
0.604589
0.708835
0.647488
0.388293
0.662755
0.36037
0.378007
0.373172
0.372463
0.575046
0.357018
0.583095
0.698945
0.341774
0.37276
0.413163
0.503958
0.564323
0.599273
0.395799
0.397787
0.366345
0.379842
0.376414
0.566259
0.629692
0.362698
0.69728
0.626432
0.368256
0.637658
0.602417
0.697792
0.355505
0.704211
0.619269
0.629665
0.649352
0.350423
0.635422
0.631972
0.628835
0.589412
0.686044
0.350515
0.372566
0.64845
0.462068
0.378487
0.669101
0.376787
0.493256
0.566205
0.635465
0.637699
0.3772
0.615858
0.344934
0.360472
0.612087
0.636367
0.63212
0.647164
0.593979
0.378937
0.637351
0.355684
0.42918
0.639672
0.705859
0.636107
0.357622
0.373486
0.635617
0.366997
0.638909
0.570754
0.372686
0.348956
0.653476
0.376138
0.667964
0.638352
0.596023
0.376018
0.350005
0.439166
0.466727
0.556234
0.414781
0.679426
0.600704
0.643602
0.709116
0.626095
0.384048
0.348986
0.639914
0.686612
0.590204
0.39043
0.380678
0.613472
0.361449
0.661371
0.537405
0.341818
0.6344
0.387145
0.642711
0.357614
0.634039
0.354089
0.640905
0.688067
0.378359
0.643254
0.576263
0.377062
0.700164
0.656081
0.491812
0.380573
0.328886
0.410801
0.629968
0.58984
0.346388
0.506238
0.627419
0.683694
0.373187
0.554657
0.629056
0.384053
0.68001
0.667853
0.365824
0.642711
0.703368
0.359533
0.53631
0.401217
0.582958
0.367158
0.371698
0.631009
0.381124
0.379101
0.364955
0.66016
0.622483
0.357721
0.659654
0.328756
0.607651
0.360844
0.623644
0.333457
0.677014
0.648778
0.590869
0.70161
0.475383
0.689142
0.698422
0.362774
0.561085
0.592699
0.462383
0.625922
0.41901
0.373268
0.637204
0.400614
0.500041
0.354259
0.6619
0.38349
0.373644
0.623967
0.663227
0.422872
0.651246
0.617612
0.709001
0.645146
0.70342
0.405842
0.637277
0.416043
0.373301
0.641875
0.621401
0.645693
0.641514
0.377993
0.368201
0.362544
0.619453
0.699783
0.328468
0.646717
0.392097
0.377484
0.357128
0.641604
0.345614
0.637625
0.63866
0.559331
0.650534
0.6395
0.51506
0.589953
0.369096
0.373575
0.42055
0.703475
0.70399
0.387204
0.56637
0.613467
0.58911
0.370709
0.386666
0.602741
0.246717
0.597441
0.563671
0.410146
0.694094
0.617512
0.385214
0.636179
0.360633
0.653938
0.633915
0.626472
0.361477
0.395777
0.603734
0.354587
0.369647
0.652018
0.359276
0.692298
0.657024
0.633429
0.617486
0.332758
0.701088
0.611604
0.655378
0.313859
0.645326
0.350095
0.382387
0.639684
0.660402
0.700199
0.210077
0.666655
0.559147
0.706336
0.396934
0.391974
0.376069
0.64941
0.372432
0.365366
0.352658
0.562487
0.361451
0.358139
0.372857
0.638013
0.397596
0.70152
0.697378
0.651264
0.389743
0.646596
0.582489
0.697494
0.355723
0.587772
0.36583
0.398043
0.663715
0.420942
0.567101
0.624981
0.707556
0.402498
0.286416
0.360219
0.484087
0.707486
0.20743
0.641803
0.660928
0.619252
0.352843
0.357738
0.298853
0.594098
0.386028
0.709152
0.529766
0.695772
0.644984
0.39336
0.570865
0.379578
0.556214
0.572352
0.636836
0.547156
0.462005
0.589523
0.592768
0.640077
0.397841
0.331824
0.386199
0.6188
0.473922
0.705882
0.402127
0.351225
0.627288
0.645752
0.701387
0.421582
0.650639
0.482613
0.486506
0.591493
0.369352
0.421202
0.366002
0.660123
0.697571
0.588057
0.621361
0.298084
0.647652
0.582836
0.697089
0.698828
0.647579
0.638179
0.684295
0.622128
0.631127
0.36982
0.648997
0.646651
0.677567
0.645218
0.659727
0.539555
0.403691
0.375814
0.581063
0.378023
0.337214
0.649902
0.354386
0.560968
0.656365
0.617358
0.636854
0.372492
0.649537
0.370704
0.383578
0.682268
0.63136
0.661754
0.386085
0.643531
0.660437
0.585397
0.663436
0.34912
0.681367
0.635775
0.615515
0.348917
0.623163
0.354241
0.640124
0.36967
0.401188
0.500496
0.387528
0.63736
0.625992
0.670374
0.352274
0.683293
0.359976
0.355089
0.634732
0.415009
0.376222
0.664695
0.364935
0.438429
0.596856
0.607932
0.635402
0.415456
0.519181
0.586421
0.674091
0.539002
0.632523
0.461585
0.649084
0.620012
0.578762
0.377984
0.386185
0.385228
0.647024
0.372305
0.590613
0.650689
0.539148
0.672443
0.488616
0.605534
0.607429
0.353592
0.651752
0.612712
0.469604
0.613198
0.636467
0.637638
0.6888
0.351702
0.352512
0.633355
0.477708
0.500398
0.651354
0.643908
0.658915
0.631524
0.633505
0.556201
0.600377
0.63649
0.363942
0.378222
0.382892
0.346342
0.707037
0.401035
0.493855
0.634548
0.611369
0.371445
0.636751
0.638307
0.386802
0.327226
0.705377
0.648891
0.368756
0.377399
0.377058
0.709173
0.635754
0.353004
0.381656
0.413588
0.372187
0.345682
0.37463
0.648035
0.649725
0.621683
0.386561
0.618368
0.549448
0.533903
0.348811
0.414927
0.634225
0.707903
0.37824
0.678137
0.386528
0.624337
0.36999
0.650772
0.414697
0.633404
0.641787
0.389159
0.487999
0.352211
0.637479
0.377232
0.554115
0.377894
0.449106
0.36339
0.548085
0.370564
0.702296
0.69814
0.532651
0.624756
0.34869
0.624657
0.69254
0.642684
0.54674
0.608026
0.415416
0.383871
0.388071
0.629249
0.258891
0.637639
0.475613
0.620817
0.636985
0.432088
0.629034
0.353755
0.386397
0.362871
0.449679
0.502449
0.642506
0.365506
0.34986
0.669962
0.322502
0.377025
0.527206
0.329365
0.37614
0.375797
0.645384
0.57782
0.557626
0.377138
0.621913
0.658976
0.377303
0.279226
0.642653
0.667543
0.555868
0.442337
0.347332
0.312499
0.362146
0.646304
0.581323
0.469481
0.61036
0.363781
0.511068
0.385412
0.700385
0.639022
0.414998
0.366175
0.585907
0.522854
0.639051
0.631554
0.631133
0.6497
0.638895
0.362683
0.348473
0.382408
0.397445
0.506018
0.704603
0.579285
0.402937
0.403021
0.408448
0.376026
0.658177
0.606284
0.371976
0.352839
0.656944
0.371646
0.586077
0.628528
0.623127
0.684496
0.510788
0.381459
0.410453
0.598228
0.413526
0.389055
0.352387
0.69066
0.654487
0.373085
0.40909
0.7084
0.372272
0.659906
0.629246
0.393988
0.349059
0.380405
0.65575
0.393917
0.708944
0.621905
0.541861
0.377595
0.457897
0.638986
0.639912
0.382191
0.634558
0.581182
0.381682
0.641258
0.646881
0.358247
0.384187
0.632973
0.359713
0.401339
0.62778
0.297036
0.648981
0.605112
0.627589
0.582234
0.636023
0.658116
0.691367
0.368761
0.349634
0.594106
0.633439
0.395631
0.637521
0.348883
0.651547
0.636664
0.505444
0.580415
0.383825
0.393642
0.637732
0.635561
0.618424
0.642247
0.661151
0.70665
0.645974
0.70868
0.645574
0.635901
0.647256
0.707629
0.689108
0.364631
0.634618
0.362325
0.653864
0.649588
0.62446
0.619001
0.616008
0.3489
0.359514
0.344397
0.381649
0.620274
0.420521
0.357133
0.613659
0.377582
0.621488
0.363484
0.6293
0.636234
0.382674
0.32597
0.340304
0.648569
0.373366
0.642479
0.632739
0.358906
0.633079
0.485302
0.329503
0.365776
0.377086
0.613025
0.38421
0.651681
0.486261
0.351299
0.658054
0.663848
0.630803
0.386017
0.516344
0.378476
0.619431
0.687455
0.656404
0.371165
0.632307
0.650921
0.621037
0.361077
0.648424
0.381236
0.378108
0.647605
0.396508
0.635032
0.379286
0.373007
0.377265
0.622463
0.366525
0.370106
0.360554
0.444118
0.70443
0.635111
0.383353
0.544309
0.658678
0.484393
0.396874
0.341949
0.487119
0.37371
0.393184
0.646798
0.377181
0.385066
0.647623
0.640122
0.381311
0.620332
0.358155
0.706046
0.362737
0.636444
0.699389
0.617281
0.69531
0.349257
0.385013
0.376599
0.683145
0.635029
0.516914
0.477093
0.318543
0.269262
0.676535
0.366006
0.64921
0.32741
0.7011
0.601706
0.406031
0.365446
0.386372
0.407314
0.365495
0.586767
0.620048
0.414633
0.646577
0.572419
0.350642
0.359766
0.638667
0.377714
0.638874
0.363267
0.617897
0.585249
0.647381
0.703406
0.352455
0.633696
0.653216
0.644934
0.379605
0.5909
0.52458
0.33843
0.647615
0.589929
0.649724
0.624025
0.638554
0.646442
0.644476
0.675034
0.656408
0.393066
0.629042
0.388918
0.415454
0.651746
0.376933
0.636374
0.601793
0.350986
0.620114
0.381546
0.377552
0.643383
0.591359
0.640294
0.348072
0.624656
0.547809
0.36141
0.398202
0.640395
0.659804
0.329124
0.355067
0.625049
0.639236
0.382203
0.576211
0.640487
0.579569
0.397729
0.382705
0.377964
0.585883
0.351813
0.634557
0.618274
0.674638
0.552957
0.638725
0.347127
0.639065
0.542054
0.64172
0.545835
0.37131
0.372043
0.368798
0.625551
0.634618
0.360922
0.58355
0.349637
0.592474
0.654082
0.367958
0.57919
0.63549
0.559349
0.393136
0.410611
0.346627
0.638543
0.635113
0.545866
0.441937
0.643553
0.379967
0.566068
0.70698
0.631679
0.387364
0.551285
0.350732
0.609023
0.371257
0.639458
0.643471
0.377135
0.640671
0.4022
0.707998
0.579793
0.709144
0.648765
0.379838
0.678944
0.663499
0.655824
0.640326
0.408542
0.706974
0.380127
0.661867
0.367393
0.413413
0.361075
0.365248
0.375684
0.398335
0.640243
0.31355
0.363546
0.593429
0.640522
0.621782
0.355459
0.613757
0.609426
0.686932
0.354315
0.549727
0.658306
0.346886
0.355273
0.37902
0.563373
0.435431
0.396329
0.546877
0.377822
0.702791
0.429087
0.398088
0.404156
0.580741
0.344832
0.660026
0.362794
0.453695
0.327592
0.646691
0.339685
0.592889
0.706709
0.60623
0.394931
0.398882
0.646088
0.63876
0.352842
0.37795
0.680511
0.415373
0.622584
0.381655
0.487165
0.369528
0.658448
0.347912
0.639785
0.415929
0.653659
0.641179
0.636653
0.706453
0.378956
0.374822
0.353042
0.637701
0.612921
0.621692
0.506402
0.349725
0.628054
0.342839
0.633478
0.580495
0.374315
0.349916
0.628828
0.641318
0.37882
0.704151
0.647243
0.630508
0.627801
0.362374
0.567868
0.384486
0.631634
0.352633
0.698687
0.632164
0.645855
0.640856
0.351075
0.640768
0.378513
0.358477
0.660677
0.706231
0.489156
0.635604
0.707182
0.379081
0.622689
0.646078
0.645331
0.377611
0.375759
0.609018
0.419666
0.650418
0.649954
0.638177
0.647157
0.256034
0.404318
0.577589
0.376368
0.637577
0.637794
0.42385
0.642124
0.377553
0.598535
0.623059
0.601088
0.64306
0.407722
0.372523
0.641774
0.63323
0.350401
0.348938
0.348771
0.373714
0.364472
0.37413
0.360044
0.378566
0.639942
0.366344
0.395686
0.624271
0.4887
0.708113
0.349088
0.406099
0.656958
0.41469
0.44998
0.634044
0.328913
0.585129
0.700402
0.536388
0.62361
0.374923
0.635792
0.696111
0.356532
0.375742
0.374524
0.600134
0.536617
0.637936
0.67594
0.631877
0.624886
0.331049
0.639484
0.694551
0.642653
0.39768
0.657036
0.563974
0.329129
0.375815
0.384648
0.379567
0.368401
0.527777
0.597845
0.619954
0.392394
0.33214
0.641285
0.378825
0.630663
0.662325
0.63763
0.60112
0.645731
0.34672
0.379335
0.377981
0.514609
0.355131
0.653379
0.377249
0.662717
0.680515
0.649252
0.350143
0.401929
0.374962
0.640466
0.35453
0.379381
0.649229
0.624196
0.572419
0.678131
0.640149
0.622251
0.375099
0.550149
0.634373
0.457698
0.639852
0.630299
0.625188
0.384413
0.362798
0.645198
0.425489
0.55887
0.375574
0.609378
0.640663
0.349083
0.350712
0.61676
0.446852
0.634878
0.630043
0.383459
0.420272
0.702954
0.377583
0.361937
0.643674
0.640289
0.350689
0.644861
0.703491
0.618943
0.374713
0.528119
0.379021
0.646751
0.639285
0.622569
0.616968
0.701291
0.355908
0.335711
0.625422
0.367463
0.534029
0.351462
0.646284
0.382318
0.583068
0.633756
0.70201
0.370706
0.708985
0.705058
0.387705
0.60848
0.377491
0.644868
0.374479
0.411568
0.377296
0.616507
0.651251
0.281309