# vtk DataFile Version 1.0
unstructured grid
ascii
DATASET UNSTRUCTURED_GRID
points 13672 float
0.0796578 -0.059106 0
0.00128732 0.00159165 0
0.00227961 -0.00102548 0
0.0791586 -0.0598787 0
-0.0546216 0.01 0
0.000495206 0.025 0
0.0800549 -0.035 0
0.135172 -0.08 0
-0.0546216 -0.0451168 0
0.000495206 -0.0301168 0
0.0800549 -0.0901168 0
0.135172 -0.135117 0
-0.0546216 -0.0451168 -0.00551168
0.000495206 -0.0301168 -0.00551168
0.0800549 -0.0901168 -0.00551168
0.135172 -0.135117 -0.00551168
0.135172 -0.08 -0.00551168
0.0800549 -0.035 -0.00551168
0.000495206 0.025 -0.00551168
-0.0546216 0.01 -0.00551168
0.00128732 0.00159165 -0.00551168
0.00227961 -0.00102548 -0.00551168
0.0791586 -0.0598787 -0.00551168
0.0796578 -0.059106 -0.00551168
0.00165953 -0.000990923 0
0.00119576 -0.000874076 0
0.000866021 -0.000641801 0
0.000645147 -0.000349912 0
0.00052235 -1.7281e-05 0
0.00049972 0.000348016 0
0.000601632 0.000737716 0
0.000861774 0.0011403 0
0.00157235 0.00183217 0
0.00188647 0.00206725 0
0.00222612 0.00230203 0
0.00258713 0.00254351 0
0.00296826 0.00279524 0
0.00337118 0.00305664 0
0.00379785 0.00332658 0
0.00425045 0.00360349 0
0.00473139 0.00388521 0
0.0052432 0.00416895 0
0.0057881 0.00445204 0
0.00636753 0.00473281 0
0.00698281 0.00500961 0
0.00763526 0.00528058 0
0.00832616 0.00554366 0
0.00905691 0.00579603 0
0.00982918 0.00603333 0
0.0106445 0.00625033 0
0.0115038 0.00644128 0
0.0124073 0.00660297 0
0.0133543 0.00673414 0
0.0143444 0.00683382 0
0.0153769 0.00690031 0
0.0164512 0.00693173 0
0.0175666 0.00692547 0
0.0187219 0.00687822 0
0.0199156 0.00678477 0
0.0211454 0.00663864 0
0.0224084 0.00643275 0
0.0237018 0.00616676 0
0.0250249 0.00584739 0
0.026375 0.00547298 0
0.0277479 0.00503752 0
0.0291386 0.00453545 0
0.0305433 0.0039653 0
0.0319572 0.0033256 0
0.0333681 0.00260019 0
0.034775 0.00179799 0
0.0361793 0.000930615 0
0.0375798 3.12222e-06 0
0.0389689 -0.000988429 0
0.0403357 -0.00205109 0
0.041675 -0.00318283 0
0.0429849 -0.00437751 0
0.0442643 -0.00562904 0
0.0455126 -0.00693089 0
0.0467314 -0.00827518 0
0.0479204 -0.00965638 0
0.0490661 -0.0110799 0
0.0501515 -0.0125519 0
0.0511696 -0.0140695 0
0.0521492 -0.0156071 0
0.0531202 -0.0171411 0
0.0540851 -0.0186663 0
0.0550431 -0.0201798 0
0.0559923 -0.0216793 0
0.0569311 -0.0231626 0
0.0578582 -0.0246273 0
0.0587723 -0.0260715 0
0.0596721 -0.027493 0
0.0605563 -0.02889 0
0.0614241 -0.0302609 0
0.0622742 -0.0316042 0
0.063106 -0.0329183 0
0.0639186 -0.034202 0
0.0647113 -0.0354543 0
0.0654835 -0.0366743 0
0.0662345 -0.0378613 0
0.0669642 -0.0390145 0
0.0676726 -0.0401333 0
0.0683597 -0.0412172 0
0.0690246 -0.0422665 0
0.0696662 -0.0432819 0
0.0702841 -0.0442636 0
0.0708793 -0.0452111 0
0.0714538 -0.0461237 0
0.072009 -0.047001 0
0.0725452 -0.0478434 0
0.0730611 -0.0486524 0
0.073556 -0.0494294 0
0.0740291 -0.0501756 0
0.0744812 -0.0508916 0
0.0749138 -0.0515773 0
0.0753285 -0.0522331 0
0.0757266 -0.0528592 0
0.076109 -0.0534564 0
0.0764753 -0.0540264 0
0.0768243 -0.054571 0
0.0771553 -0.0550919 0
0.0774679 -0.0555901 0
0.0777617 -0.0560669 0
0.0780369 -0.056523 0
0.0782958 -0.0569578 0
0.0785421 -0.0573703 0
0.0787786 -0.0577603 0
0.0790073 -0.0581279 0
0.0792295 -0.058474 0
0.0794462 -0.0587995 0
0.0798803 -0.0594162 0
0.0800272 -0.0596588 0
0.0800357 -0.0598891 0
0.0799275 -0.0600784 0
0.0797205 -0.0601773 0
0.0794593 -0.0601051 0
0.0789155 -0.0596491 0
0.0786707 -0.0593963 0
0.0784111 -0.0591319 0
0.0781372 -0.0588542 0
0.0778566 -0.0585548 0
0.0775715 -0.0582308 0
0.0772803 -0.0578828 0
0.0769832 -0.0575099 0
0.0766822 -0.0571097 0
0.0763801 -0.0566796 0
0.0760759 -0.0562196 0
0.0757623 -0.0557337 0
0.0754359 -0.0552232 0
0.0750951 -0.0546879 0
0.0747379 -0.054128 0
0.0743626 -0.0535435 0
0.0739688 -0.0529338 0
0.0735559 -0.0522981 0
0.0731238 -0.0516357 0
0.0726718 -0.050946 0
0.0721991 -0.0502288 0
0.0717046 -0.049484 0
0.0711872 -0.0487117 0
0.0706461 -0.047912 0
0.0700804 -0.0470849 0
0.0694892 -0.0462308 0
0.0688718 -0.0453499 0
0.0682271 -0.0444431 0
0.0675544 -0.043511 0
0.0668527 -0.0425546 0
0.0661215 -0.0415748 0
0.06536 -0.040573 0
0.0645676 -0.0395504 0
0.0637439 -0.0385087 0
0.0628887 -0.0374493 0
0.062002 -0.0363741 0
0.0610838 -0.0352847 0
0.0601345 -0.0341831 0
0.0591547 -0.033071 0
0.0581456 -0.0319502 0
0.0571083 -0.0308224 0
0.0560444 -0.0296893 0
0.0549562 -0.028552 0
0.053845 -0.0274126 0
0.0527113 -0.0262746 0
0.051554 -0.0251427 0
0.0503724 -0.0240222 0
0.0491675 -0.0229164 0
0.047941 -0.0218282 0
0.0466955 -0.0207597 0
0.0454337 -0.0197126 0
0.0441592 -0.0186878 0
0.0428751 -0.0176863 0
0.0415841 -0.0167097 0
0.0402878 -0.0157609 0
0.0389879 -0.0148428 0
0.0376864 -0.0139575 0
0.0363853 -0.013107 0
0.0350871 -0.0122931 0
0.0337942 -0.0115164 0
0.0325095 -0.0107772 0
0.0312357 -0.0100756 0
0.0299758 -0.00941024 0
0.0287337 -0.00877784 0
0.0275126 -0.00817571 0
0.0263139 -0.00760375 0
0.0251376 -0.00706528 0
0.0239829 -0.0065649 0
0.0228537 -0.00609619 0
0.0217522 -0.00565563 0
0.0206795 -0.00524226 0
0.0196364 -0.00485507 0
0.0186233 -0.00449318 0
0.0176408 -0.00415577 0
0.016689 -0.00384204 0
0.0157682 -0.00355115 0
0.0148783 -0.00328218 0
0.0140192 -0.00303468 0
0.0131906 -0.00280795 0
0.0123925 -0.00260016 0
0.0116246 -0.00241012 0
0.0108864 -0.00223769 0
0.0101774 -0.00208212 0
0.00949701 -0.00194206 0
0.00884483 -0.0018163 0
0.0082202 -0.0017039 0
0.00762247 -0.00160391 0
0.00705097 -0.00151528 0
0.006505 -0.00143697 0
0.0059838 -0.00136806 0
0.00548662 -0.00130772 0
0.00501265 -0.00125519 0
0.00456114 -0.00120954 0
0.00413136 -0.00116914 0
0.00372257 -0.00113251 0
0.00333398 -0.00109853 0
0.00296466 -0.00106798 0
0.00261363 -0.0010431 0
-0.052721 -0.0445996 0
-0.0508204 -0.0440823 0
-0.0489199 -0.0435651 0
-0.0470193 -0.0430478 0
-0.0451187 -0.0425306 0
-0.0432181 -0.0420134 0
-0.0413175 -0.0414961 0
-0.039417 -0.0409789 0
-0.0375164 -0.0404616 0
-0.0356158 -0.0399444 0
-0.0337152 -0.0394271 0
-0.0318146 -0.0389099 0
-0.0299141 -0.0383927 0
-0.0280135 -0.0378754 0
-0.0261129 -0.0373582 0
-0.0242123 -0.0368409 0
-0.0223117 -0.0363237 0
-0.0204112 -0.0358065 0
-0.0185106 -0.0352892 0
-0.01661 -0.034772 0
-0.0147094 -0.0342547 0
-0.0128088 -0.0337375 0
-0.0109083 -0.0332202 0
-0.00900769 -0.032703 0
-0.00710711 -0.0321858 0
-0.00520653 -0.0316685 0
-0.00330595 -0.0311513 0
-0.00140537 -0.030634 0
0.00190689 -0.0299614 0
0.00332271 -0.0298498 0
0.00474133 -0.0297825 0
0.00616136 -0.0297597 0
0.0075814 -0.0297814 0
0.00900007 -0.0298477 0
0.010416 -0.0299583 0
0.0118278 -0.0301127 0
0.0132342 -0.0303103 0
0.0146339 -0.0305504 0
0.0160259 -0.0308322 0
0.0174091 -0.0311546 0
0.0187824 -0.0315166 0
0.020145 -0.031917 0
0.0214961 -0.0323546 0
0.0228351 -0.032828 0
0.0241613 -0.0333361 0
0.0254744 -0.0338774 0
0.0267738 -0.0344507 0
0.0280592 -0.0350545 0
0.0293306 -0.0356877 0
0.0305875 -0.0363488 0
0.0318301 -0.0370367 0
0.0330581 -0.0377501 0
0.0342717 -0.0384879 0
0.0354708 -0.0392489 0
0.0366556 -0.0400321 0
0.0378262 -0.0408363 0
0.0389828 -0.0416607 0
0.0401254 -0.0425042 0
0.0412543 -0.0433659 0
0.0423698 -0.0442451 0
0.043472 -0.0451408 0
0.0445612 -0.0460523 0
0.0456375 -0.0469789 0
0.0467013 -0.0479199 0
0.0477529 -0.0488746 0
0.0487923 -0.0498424 0
0.04982 -0.0508227 0
0.0508362 -0.051815 0
0.051841 -0.0528187 0
0.0528348 -0.0538333 0
0.0538178 -0.0548584 0
0.0547903 -0.0558935 0
0.0557524 -0.0569382 0
0.0567045 -0.0579922 0
0.0576467 -0.0590549 0
0.0585792 -0.0601261 0
0.0595024 -0.0612055 0
0.0604163 -0.0622926 0
0.0613212 -0.0633873 0
0.0622174 -0.0644891 0
0.0631049 -0.0655979 0
0.0639841 -0.0667134 0
0.064855 -0.0678353 0
0.0657179 -0.0689633 0
0.0665729 -0.0700974 0
0.0674202 -0.0712372 0
0.06826 -0.0723826 0
0.0690925 -0.0735333 0
0.0699178 -0.0746892 0
0.070736 -0.0758501 0
0.0715473 -0.0770159 0
0.0723518 -0.0781863 0
0.0731498 -0.0793612 0
0.0739412 -0.0805405 0
0.0747264 -0.081724 0
0.0755053 -0.0829116 0
0.0762781 -0.0841033 0
0.0770449 -0.0852987 0
0.0778059 -0.0864979 0
0.0785611 -0.0877007 0
0.0793108 -0.088907 0
0.0814681 -0.0912706 0
0.0828814 -0.0924245 0
0.0842946 -0.0935783 0
0.0857079 -0.0947322 0
0.0871211 -0.095886 0
0.0885344 -0.0970399 0
0.0899476 -0.0981937 0
0.0913609 -0.0993476 0
0.0927741 -0.100501 0
0.0941874 -0.101655 0
0.0956006 -0.102809 0
0.0970139 -0.103963 0
0.0984272 -0.105117 0
0.0998404 -0.106271 0
0.101254 -0.107424 0
0.102667 -0.108578 0
0.10408 -0.109732 0
0.105493 -0.110886 0
0.106907 -0.11204 0
0.10832 -0.113194 0
0.109733 -0.114348 0
0.111146 -0.115501 0
0.11256 -0.116655 0
0.113973 -0.117809 0
0.115386 -0.118963 0
0.116799 -0.120117 0
0.118213 -0.121271 0
0.119626 -0.122424 0
0.121039 -0.123578 0
0.122452 -0.124732 0
0.123866 -0.125886 0
0.125279 -0.12704 0
0.126692 -0.128194 0
0.128105 -0.129348 0
0.129519 -0.130501 0
0.130932 -0.131655 0
0.132345 -0.132809 0
0.133758 -0.133963 0
0.135172 -0.133216 0
0.135172 -0.131316 0
0.135172 -0.129415 0
0.135172 -0.127514 0
0.135172 -0.125614 0
0.135172 -0.123713 0
0.135172 -0.121813 0
0.135172 -0.119912 0
0.135172 -0.118012 0
0.135172 -0.116111 0
0.135172 -0.11421 0
0.135172 -0.11231 0
0.135172 -0.110409 0
0.135172 -0.108509 0
0.135172 -0.106608 0
0.135172 -0.104708 0
0.135172 -0.102807 0
0.135172 -0.100906 0
0.135172 -0.0990058 0
0.135172 -0.0971052 0
0.135172 -0.0952046 0
0.135172 -0.0933041 0
0.135172 -0.0914035 0
0.135172 -0.0895029 0
0.135172 -0.0876023 0
0.135172 -0.0857017 0
0.135172 -0.0838012 0
0.135172 -0.0819006 0
0.133758 -0.0788462 0
0.132345 -0.0776923 0
0.130932 -0.0765385 0
0.129519 -0.0753846 0
0.128105 -0.0742308 0
0.126692 -0.0730769 0
0.125279 -0.0719231 0
0.123866 -0.0707692 0
0.122452 -0.0696154 0
0.121039 -0.0684615 0
0.119626 -0.0673077 0
0.118213 -0.0661538 0
0.116799 -0.065 0
0.115386 -0.0638462 0
0.113973 -0.0626923 0
0.11256 -0.0615385 0
0.111146 -0.0603846 0
0.109733 -0.0592308 0
0.10832 -0.0580769 0
0.106907 -0.0569231 0
0.105493 -0.0557692 0
0.10408 -0.0546154 0
0.102667 -0.0534615 0
0.101254 -0.0523077 0
0.0998404 -0.0511538 0
0.0984272 -0.05 0
0.0970139 -0.0488462 0
0.0956006 -0.0476923 0
[...]
CELL_DATA 13116
SCALARS rho float
LOOKUP_TABLE default
0.549593
0.656889
0.354234
0.71134
0.699405
0.6789
0.388273
0.699586
0.527733
0.704596
0.382385
0.371596
0.699699
0.408382
0.382929
0.679001
0.517948
0.695316
0.676998
0.397348
0.554632
0.393447
0.390479
0.697226
0.608601
0.618559
0.704638
0.351589
0.607372
0.645092
0.67751
0.376105
0.555759
0.447321
0.384666
0.552207
0.663494
0.670713
0.678469
0.678893
0.678388
0.703743
0.426374
0.346284
0.675339
0.676827
0.6319
0.680933
0.38898
0.523491
0.695905
0.442584
0.390687
0.511041
0.554408
0.585049
0.344247
0.693789
0.536749
0.384007
0.410223
0.706248
0.646519
0.678399
0.677677
0.395042
0.681998
0.670611
0.683512
0.677781
0.384761
0.586582
0.389558
0.345863
0.677126
0.3661
0.641221
0.693305
0.383142
0.692387
0.676785
0.62847
0.697333
0.680802
0.664543
0.449872
0.396981
0.668002
0.656997
0.380465
0.367359
0.658701
0.699802
0.661505
0.648007
0.598075
0.611115
0.677486
0.677243
0.598202
0.677858
0.584937
0.677834
0.407508
0.612081
0.409393
0.358994
0.474146
0.353355
0.617596
0.50332
0.623949
0.596197
0.68057
0.69298
0.682146
0.405698
0.388322
0.689257
0.68353
0.67105
0.387215
0.683973
0.37573
0.653584
0.438695
0.397826
0.510205
0.339244
0.525103
0.689554
0.681961
0.503455
0.394982
0.483264
0.584111
0.6765
0.686786
0.676947
0.683178
0.624695
0.635448
0.508591
0.625434
0.642354
0.396277
0.383671
0.618732
0.696989
0.690621
0.544668
0.680128
0.680816
0.376427
0.701012
0.665929
0.384048
0.683513
0.677516
0.668346
0.696385
0.384071
0.695627
0.377089
0.383195
0.703745
0.65103
0.69485
0.385678
0.465456
0.42187
0.676453
0.388261
0.493137
0.68108
0.393263
0.388066
0.391015
0.619713
0.678542
0.384173
0.432079
0.524083
0.663991
0.678621
0.534447
0.361196
0.677908
0.597459
0.461293
0.635141
0.616564
0.677847
0.390375
0.612782
0.678945
0.701364
0.677472
0.655681
0.405394
0.407414
0.622764
0.504789
0.375482
0.691359
0.67556
0.451602
0.608292
0.40103
0.381962
0.363118
0.680535
0.380331
0.395195
0.376701
0.374976
0.367435
0.677956
0.649771
0.436632
0.344369
0.681763
0.497144
0.385389
0.556951
0.705306
0.63994
0.368937
0.681274
0.39157
0.705397
0.371919
0.67782
0.576472
0.677388
0.670704
0.677924
0.377719
0.431529
0.668304
0.677124
0.678819
0.676612
0.677781
0.691208
0.390763
0.690856
0.701848
0.677238
0.382603
0.391388
0.677236
0.688467
0.677716
0.684498
0.535677
0.683784
0.381487
0.40042
0.399362
0.401821
0.593873
0.701152
0.639836
0.387753
0.673137
0.351904
0.433635
0.61446
0.384324
0.622275
0.700141
0.676952
0.69345
0.379999
0.676915
0.682116
0.677244
0.686644
0.379632
0.402445
0.385127
0.57929
0.386831
0.395363
0.332774
0.306107
0.664475
0.391093
0.663774
0.699968
0.363881
0.391623
0.355995
0.453632
0.349958
0.666586
0.584901
0.618648
0.384549
0.680261
0.589528
0.402602
0.383222
0.678395
0.688363
0.67759
0.358276
0.679045
0.415369
0.681156
0.704178
0.688926
0.703037
0.389619
0.681316
0.399391
0.678684
0.705548
0.66924
0.387436
0.332417
0.702432
0.386445
0.646476
0.706122
0.364849
0.686595
0.697039
0.391918
0.672923
0.69973
0.394311
0.691099
0.451781
0.577318
0.671672
0.458521
0.683801
0.389947
0.695072
0.344356
0.677863
0.574378
0.702469
0.369465
0.357773
0.666014
0.380628
0.690249
0.603796
0.422011
0.67654
0.370589
0.384752
0.687254
0.557233
0.668947
0.402583
0.380159
0.6906
0.699775
0.383347
0.697929
0.414917
0.407166
0.68147
0.678641
0.46158
0.399412
0.686975
0.677673
0.679088
0.671357
0.692865
0.544859
0.325508
0.398475
0.380604
0.679039
0.381484
0.522011
0.370279
0.381636
0.351776
0.471141
0.143718
0.381026
0.667267
0.325971
0.696389
0.606962
0.678677
0.659825
0.691819
0.384858
0.400068
0.412311
0.334436
0.687287
0.592047
0.678256
0.607572
0.644153
0.619402
0.626719
0.621204
0.642264
0.691366
0.691863
0.67865
0.406065
0.459805
0.545515
0.39169
0.580946
0.583387
0.39187
0.681842
0.677037
0.387635
0.392628
0.38339
0.367857
0.632599
0.386379
0.390243
0.680947
0.353768
0.576051
0.381435
0.678465
0.676026
0.340937
0.39538
0.686746
0.455185
0.380314
0.365764
0.394935
0.356921
0.403845
0.393744
0.393547
0.433384
0.379443
0.581159
0.367655
0.662903
0.378862
0.402764
0.506341
0.397233
0.378939
0.391718
0.675998
0.439371
0.642163
0.477082
0.363163
0.610805
0.659652
0.4491
0.686172
0.620546
0.619107
0.397375
0.677414
0.38996
0.694021
0.677444
0.371237
0.395974
0.59616
0.339239
0.460253
0.577231
0.358017
0.68255
0.645077
0.381038
0.383946
0.388486
0.488687
0.381817
0.393523
0.387196
0.39991
0.707103
0.708319
0.460179
0.601356
0.482419
0.613325
0.354524
0.386718
0.532177
0.371662
0.680797
0.294367
0.372133
0.499162
0.674613
0.646057
0.56362
0.362932
0.395672
0.573125
0.700151
0.678013
0.569283
0.617897
0.592855
0.380634
0.674986
0.571969
0.667154
0.312795
0.353621
0.679584
0.701603
0.65875
0.705587
0.650941
0.616998
0.695222
0.667668
0.678572
0.391077
0.674273
0.34023
0.400039
0.393617
0.710408
0.676063
0.310621
0.663423
0.624208
0.387817
0.67792
0.687594
0.687801
0.351084
0.385954
0.691585
0.37993
0.381284
0.384431
0.382356
0.678412
0.394569
0.710451
0.371093
0.657726
0.694544
0.682314
0.70011
0.379384
0.383288
0.678174
0.707023
0.653291
0.706783
0.701569
0.501361
0.38902
0.3724
0.679566
0.529691
0.384285
0.454937
0.378524
0.673233
0.678487
0.312163
0.39328
0.660809
0.46902
0.668249
0.661551
0.338487
0.392414
0.649046
0.677091
0.371436
0.645261
0.65038
0.677319
0.376163
0.676548
0.341527
0.677326
0.665924
0.399853
0.367448
0.394987
0.677284
0.34204
0.384116
0.388826
0.678015
0.685294
0.38396
0.393858
0.381452
0.67812
0.38949
0.678814
0.396535
0.590433
0.705335
0.382074
0.377001
0.385729
0.50181
0.373451
0.632865
0.356522
0.387461
0.678314
0.391507
0.680242
0.642602
0.677399
0.380158
0.681515
0.69861
0.701007
0.679793
0.650999
0.681267
0.385578
0.677959
0.438893
0.674694
0.380246
0.692421
0.506823
0.387257
0.6775
0.695015
0.385321
0.62438
0.36763
0.383518
0.680874
0.675648
0.36387
0.392004
0.384115
0.387714
0.668193
0.697383
0.37906
0.376755
0.690273
0.686306
0.59232
0.698037
0.67855
0.383655
0.702632
0.428158
0.695762
0.390314
0.595945
0.485581
0.68109
0.670179
0.580634
0.345269
0.363151
0.67714
0.607975
0.516928
0.697516
0.40169
0.680036
0.700591
0.36713
0.457218
0.69911
0.362867
0.677575
0.669291
0.327949
0.684401
0.646247
0.371021
0.6841
0.385394
0.654827
0.361178
0.680351
0.644504
0.374935
0.678404
0.696135
0.692691
0.625381
0.676325
0.58733
0.372797
0.417801
0.364581
0.359251
0.676253
0.560064
0.684751
0.696292
0.384894
0.384151
0.680419
0.706194
0.687334
0.699976
0.386136
0.692038
0.701704
0.39553
0.378477
0.68956
0.677083
0.659721
0.398263
0.595482
0.32174
0.683239
0.639922
0.678052
0.664483
0.382458
0.674752
0.663785
0.698829
0.674218
0.678723
0.434855
0.692438
0.382789
0.619851
0.703218
0.465031
0.646713
0.678114
0.693883
0.40437
0.406105
0.588499
0.652099
0.381506
0.395785
0.381779
0.37834
0.659844
0.679574
0.67773
0.307025
0.380336
0.683298
0.682165
0.394783
0.382458
0.466779
0.662035
0.677538
0.67056
0.689287
0.381627
0.382437
0.676649
0.374859
0.392403
0.358563
0.678001
0.321819
0.381038
0.577413
0.676496
0.620143
0.678697
0.677975
0.412262
0.388948
0.382532
0.476851
0.438849
0.370684
0.669073
0.68886
0.655977
0.679944
0.403407
0.380425
0.705287
0.388818
0.678629
0.643863
0.677611
0.363927
0.394689
0.64876
0.677434
0.561069
0.394147
0.667004
0.678818
0.57308
0.690912
0.698448
0.676764
0.618475
0.387836
0.678086
0.677517
0.613202
0.683655
0.676346
0.625858
0.67691
0.685888
0.387992
0.377956
0.381927
0.677694
0.505565
0.38678
0.680148
0.690978
0.365466
0.63203
0.326182
0.63692
0.469535
0.384614
0.706584
0.696763
0.383323
0.555774
0.677688
0.340911
0.662088
0.414072
0.408892
0.61527
0.608897
0.506226
0.677723
0.381296
0.695454
0.384603
0.391349
0.680153
0.38354
0.602729
0.381582
0.631112
0.597481
0.676869
0.648913
0.395024
0.386556
0.605357
0.428654
0.687026
0.45774
0.590768
0.678661
0.698583
0.442629
0.614812
0.617739
0.701687
0.682819
0.347893
0.38006
0.54541
0.614678
0.702186
0.380097
0.677684
0.563025
0.41213
0.37021
0.670814
0.662981
0.676736
0.67721
0.583506
0.681231
0.678288
0.670913
0.383212
0.659139
0.464102
0.685266
0.67633
0.301566
0.611986
0.697611
0.381947
0.383906
0.378784
0.676368
0.383966
0.615093
0.688996
0.660692
0.358555
0.667416
0.398639
0.594855
0.678276
0.677684
0.667355
0.678084
0.619352
0.67546
0.525085
0.674084
0.35902
0.678268
0.682147
0.409472
0.677037
0.680965
0.380043
0.397489
0.339375
0.689537
0.383038
0.676848
0.380371
0.698483
0.396176
0.48619
0.393068
0.693445
0.699407
0.533464
0.271072
0.619247
0.678003
0.389441
0.591292
0.708789
0.371114
0.587694
0.677343
0.704918
0.678886
0.370125
0.471389
0.688927
0.677749
0.62152
0.384353
0.402465
0.669478
0.676635
0.67707
0.676612
0.548798
0.682443
0.544124
0.682565
0.383858
0.388503
0.676655
0.698133
0.678066
0.384217
0.678239
0.556504
0.598515
0.367879
0.419618
0.698414
0.711441
0.558442
0.334407
0.679284
0.67712
0.386479
0.611315
0.689046
0.385765
0.41478
0.396756
0.594869
0.392455
0.388961
0.671748
0.465935
0.702538
0.638059
0.387366
0.399333
0.705221
0.377893
0.387101
0.677442
0.403358
0.355692
0.591457
0.64495
0.681818
0.378867
0.303418
0.381544
0.644249
0.408459
0.682537
0.386586
0.680984
0.603303
0.673981
0.624243
0.673562
0.637612
0.677727
0.699636
0.685478
0.393788
0.384769
0.665695
0.678374
0.512555
0.608767
0.559808
0.678269
0.611398
0.341932
0.682659
0.707793
0.671814
0.38376
0.675742
0.366087
0.680847
0.504733
0.692777
0.679839
0.385101
0.687307
0.38281
0.42787
0.647986
0.356988
0.683151
0.676426
0.682006
0.365778
0.680865
0.376204
0.363853
0.38083
0.379005
0.602661
0.390336
0.628521
0.678152
0.337788
0.390578
0.494618
0.584911
0.63143
0.622765
0.381856
0.415117
0.383386
0.393152
0.268117
0.630817
0.629019
0.348297
0.677812
0.688424
0.397006
0.707724
0.681456
0.678209
0.384764
0.677097
0.674909
0.692686
0.684898
0.380886
0.683365
0.694421
0.676446
0.671696
0.678076
0.394927
0.385092
0.680363
0.543621
0.397298
0.679933
0.392186
0.576655
0.62425
0.65256
0.656872
0.367336
0.607049
0.401112
0.384956
0.687427
0.692202
0.697173
0.690351
0.655128
0.364079
0.701248
0.391419
0.51143
0.703092
0.677246
0.688358
0.383433
0.395112
0.702614
0.396269
0.69089
0.65187
0.431231
0.391375
0.68137
0.383982
0.679734
0.690403
0.651571
0.383631
0.378728
0.506681
0.518341
0.619332
0.47398
0.67822
0.622503
0.665927
0.67621
0.682066
0.391104
0.394257
0.692928
0.678078
0.618545
0.465301
0.373986
0.671937
0.390809
0.678418
0.619703
0.321105
0.686701
0.380289
0.633841
0.357415
0.698022
0.379778
0.679916
0.678466
0.343428
0.65695
0.651516
0.33025
0.677743
0.676706
0.557906
0.396898
0.370243
0.467191
0.699159
0.599594
0.377691
0.590933
0.684702
0.678348
0.348787
0.607639
0.662079
0.468631
0.67822
0.678795
0.296871
0.684814
0.677302
0.354184
0.597083
0.373951
0.634622
0.375812
0.408335
0.701179
0.393673
0.380711
0.395426
0.6815
0.65279
0.410706
0.679182
0.366935
0.660295
0.376143
0.657025
0.371348
0.678757
0.680825
0.643001
0.677885
0.559628
0.678496
0.678194
0.339903
0.64045
0.648538
0.487099
0.681352
0.50059
0.410157
0.700884
0.388984
0.574781
0.317968
0.678109
0.393361
0.390717
0.696871
0.678048
0.383172
0.684112
0.688984
0.676327
0.699358
0.677255
0.387693
0.706938
0.395178
0.379626
0.657667
0.690351
0.702645
0.663277
0.379082
0.374738
0.382125
0.658249
0.678103
0.369345
0.658018
0.42035
0.372469
0.366947
0.660636
0.390296
0.703065
0.685999
0.639351
0.674537
0.684603
0.573444
0.635629
0.440568
0.403239
0.383171
0.677244
0.677127
0.390484
0.630204
0.592013
0.637681
0.370966
0.400949
0.626496
0.281399
0.619716
0.591816
0.395736
0.678164
0.661695
0.387392
0.68103
0.3862
0.684412
0.703427
0.674014
0.3929
0.47791
0.681631
0.305725
0.450775
0.674825
0.314576
0.678224
0.682732
0.622182
0.689392
0.331674
0.677498
0.686763
0.67757
0.367389
0.692625
0.389869
0.399168
0.666373
0.677814
0.677937
0.238969
0.680179
0.640128
0.677125
0.417628
0.408462
0.379772
0.688249
0.386321
0.389293
0.370927
0.589538
0.385997
0.301144
0.449248
0.682381
0.392598
0.677843
0.678186
0.678624
0.363786
0.683397
0.656052
0.677792
0.42144
0.669441
0.383534
0.390931
0.68067
0.392321
0.625924
0.683545
0.676816
0.392372
0.332756
0.38533
0.567773
0.676634
0.237101
0.671646
0.681342
0.690569
0.376255
0.392828
0.348008
0.597579
0.382658
0.676343
0.611945
0.678279
0.670708
0.379649
0.626207
0.383801
0.559615
0.653748
0.705956
0.568662
0.481779
0.669082
0.622392
0.693933
0.380944
0.372977
0.345549
0.692198
0.535449
0.677268
0.394081
0.401992
0.692848
0.683154
0.677623
0.391897
0.679398
0.566012
0.56905
0.602205
0.369638
0.394368
0.29642
0.677806
0.678167
0.670154
0.61134
0.346826
0.682599
0.663004
0.678172
0.67775
0.683336
0.707548
0.678963
0.688857
0.696605
0.369725
0.685132
0.691398
0.678077
0.687159
0.677362
0.577994
0.391591
0.409994
0.616603
0.394309
0.33464
0.678281
0.386411
0.643264
0.68277
0.654088
0.672666
0.375722
0.680218
0.376818
0.404578
0.679074
0.681402
0.680135
0.356299
0.6966
0.6779
0.613112
0.677718
0.392259
0.678074
0.70307
0.662358
0.407051
0.694304
0.379847
0.712395
0.362129
0.391674
0.523981
0.453871
0.706444
0.694665
0.678889
0.372799
0.678074
0.413054
0.38753
0.642872
0.49864
0.382194
0.678263
0.386256
0.521572
0.669311
0.632439
0.656532
0.49734
0.603565
0.658144
0.679127
0.575343
0.69714
0.542129
0.69512
0.606634
0.649805
0.403943
0.384241
0.453151
0.690441
0.379019
0.666984
0.684442
0.604774
0.67924
0.521704
0.682165
0.672446
0.383476
0.683225
0.602451
0.492513
0.606526
0.702317
0.634839
0.678182
0.376988
0.387944
0.675718
0.538643
0.546406
0.686319
0.680377
0.679802
0.701627
0.703066
0.622385
0.619533
0.705855
0.390706
0.390313
0.394745
0.347014
0.677029
0.463098
0.540271
0.686288
0.677501
0.372849
0.673866
0.71178
0.356011
0.37825
0.67692
0.686845
0.373513
0.379153
0.38654
0.676264
0.618062
0.411182
0.392384
0.396116
0.404977
0.348619
0.398817
0.701649
0.680973
0.678506
0.379425
0.655213
0.607409
0.617396
0.341455
0.391493
0.640392
0.676618
0.381471
0.678471
0.38843
0.69656
0.371291
0.677722
0.37248
0.656924
0.699384
0.369106
0.570825
0.39327
0.707277
0.404413
0.611302
0.394488
0.510167
0.383597
0.602458
0.389816
0.677813
0.677771
0.615153
0.672391
0.336441
0.657269
0.677982
0.697842
0.604964
0.661329
0.39321
0.397304
0.360285
0.699834
0.293754
0.697238
0.552975
0.690085
0.704834
0.463652
0.692243
0.386998
0.415995
0.389244
0.514773
0.521856
0.679572
0.38432
0.395448
0.679872
0.384487
0.383419
0.55486
0.373486
0.381074
0.410996
0.704844
0.659669
0.615814
0.376754
0.653767
0.677996
0.40562
0.327743
0.664321
0.678153
0.563122
0.52482
0.418525
0.366538
0.376651
0.669576
0.611632
0.526876
0.685133
0.397284
0.572714
0.380856
0.677563
0.697085
0.395092
0.399215
0.618482
0.548192
0.699594
0.696556
0.699572
0.684441
0.703378
0.370155
0.391818
0.344096
0.379042
0.54172
0.67756
0.661423
0.381454
0.382307
0.454285
0.411388
0.679706
0.63148
0.375119
0.313252
0.682692
0.364528
0.656736
0.694754
0.647131
0.678112
0.553807
0.383095
0.365071
0.613501
0.395817
0.422588
0.408192
0.678117
0.677222
0.33638
0.395074
0.676446
0.38886
0.679666
0.699835
0.388016
0.383468
0.395204
0.682429
0.405692
0.676408
0.68443
0.605265
0.373946
0.538889
0.692713
0.668565
0.388488
0.665648
0.618898
0.415863
0.68884
0.703842
0.382234
0.392357
0.647443
0.385737
0.380499
0.661394
0.350595
0.679358
0.682616
0.699016
0.626734
0.697883
0.682352
0.678559
0.383908
0.417336
0.629437
0.67866
0.477643
0.707342
0.331812
0.685507
0.658214
0.574002
0.652077
0.397873
0.462613
0.674801
0.694352
0.603412
0.699636
0.681139
0.67673
0.697689
0.676346
0.654751
0.645617
0.678689
0.676679
0.6786
0.34632
0.63216
0.339975
0.68092
0.685232
0.691228
0.636386
0.688909
0.38062
0.382207
0.310402
0.387884
0.645087
0.381439
0.384902
0.678216
0.398034
0.688172
0.377922
0.661427
0.683824
0.392401
0.387235
0.322872
0.689014
0.340616
0.678724
0.687004
0.385075
0.637431
0.563569
0.347152
0.352288
0.399891
0.689957
0.392794
0.681984
0.517859
0.388689
0.676656
0.678455
0.699535
0.387974
0.578946
0.392779
0.657275
0.678442
0.682049
0.380271
0.677632
0.686608
0.618933
0.411009
0.68892
0.38549
0.380461
0.672368
0.458134
0.703519
0.411641
0.380427
0.451202
0.62884
0.343001
0.288332
0.363092
0.484255
0.677166
0.686008
0.398957
0.601203
0.681421
0.569111
0.423792
0.316088
0.565985
0.381217
0.379769
0.675075
0.379787
0.383489
0.691241
0.709121
0.354867
0.693976
0.372554
0.676855
0.348046
0.64405
0.677863
0.69022
0.678159
0.388644
0.379953
0.385664
0.678656
0.649035
0.601034
0.547556
0.376678
0.307748
0.678391
0.383404
0.679933
0.388044
0.677975
0.672071
0.362832
0.344536
0.382075
0.395438
0.342166
0.616863
0.648223
0.373763
0.684342
0.640681
0.37339
0.389464
0.709484
0.380489
0.683099
0.43428
0.689764
0.658093
0.683231
0.677245
0.387679
0.70313
0.678787
0.707837
0.392683
0.6067
0.607311
0.329175
0.690286
0.639221
0.688895
0.654519
0.70351
0.670466
0.702969
0.678098
0.677034
0.386549
0.698533
0.382257
0.463011
0.674529
0.387913
0.66231
0.603559
0.394746
0.621013
0.393337
0.367517
0.66266
0.594523
0.708484
0.37838
0.65404
0.624657
0.339872
0.38001
0.640285
0.678142
0.382455
0.371496
0.688413
0.708632
0.387968
0.645221
0.700743
0.662506
0.351631
0.386517
0.380816
0.659676
0.376977
0.666571
0.692185
0.678461
0.607516
0.683928
0.378413
0.658602
0.624554
0.699175
0.56533
0.387632
0.385654
0.405197
0.697102
0.688104
0.431643
0.655932
0.30319
0.644773
0.683311
0.402132
0.617837
0.667732
0.626253
0.37737
0.39805
0.336049
0.689923
0.703399
0.622118
0.524291
0.683465
0.381259
0.637784
0.677008
0.67795
0.375138
0.63476
0.395007
0.610508
0.407434
0.676919
0.662322
0.376224
0.689337
0.43106
0.676656
0.641501
0.676312
0.688211
0.418354
0.678371
0.678891
0.678232
0.677948
0.492884
0.676969
0.395643
0.67918
0.402528
0.379541
0.396279
0.342175
0.381412
0.375439
0.70356
0.371256
0.388445
0.659966
0.689887
0.650608
0.414344
0.685097
0.684312
0.678058
0.324652
0.580323
0.681931
0.385845
0.367077
0.380474
0.631802
0.518446
0.388385
0.588216
0.404525
0.677325
0.511305
0.397096
0.481709
0.653534
0.331857
0.678592
0.394585
0.475813
0.379794
0.67388
0.389023
0.65374
0.677039
0.584515
0.421213
0.385299
0.664194
0.70761
0.372035
0.363768
0.678589
0.393358
0.693873
0.380593
0.567976
0.405933
0.682201
0.391172
0.705747
0.379422
0.682965
0.684764
0.695111
0.677027
0.39746
0.386053
0.412459
0.622378
0.677305
0.627109
0.524603
0.395662
0.690748
0.319092
0.646386
0.580359
0.410787
0.393991
0.696198
0.676482
0.395228
0.677636
0.668947
0.696026
0.699053
0.394327
0.640391
0.3825
0.696064
0.375811
0.677987
0.639108
0.640299
0.706077
0.377922
0.712059
0.393034
0.385066
0.679521
0.677085
0.554154
0.676465
0.67699
0.381042
0.695791
0.669891
0.700557
0.366314
0.432582
0.681079
0.382061
0.686074
0.683754
0.665335
0.677867
0.291162
0.452812
0.653372
0.383934
0.657766
0.708318
0.478382
0.658621
0.274727
0.615916
0.696018
0.679731
0.657708
0.394283
0.389356
0.679965
0.663552
0.393986
0.335557
0.390226
0.376725
0.389218
0.406795
0.342613
0.397352
0.679349
0.400756
0.353048
0.687267
0.552196
0.67647
0.401217
0.394562
0.682063
0.473098
0.481746
0.701417
0.375721
0.664494
0.678021
0.617202
0.659608
0.340434
0.686385
0.678349
0.385433
0.379795
0.410683
0.600129
0.616401
0.703423
0.67915
0.678917
0.663583
0.372678
0.687172
0.678403
0.637026
0.388766
0.682825
0.574553
0.365472
0.43848
0.390883
0.39126
0.39476
0.59617
0.670594
0.667094
0.37917
0.394909
0.70046
0.351773
0.68735
0.678946
0.665858
0.679991
0.682871
0.386206
0.393215
0.401436
0.571544
0.383059
0.68101
0.393602
0.680581
0.67833
0.684744
0.357954
0.453794
0.416372
0.684302
0.370737
0.380799
0.677761
0.659162
0.621339
0.678896
0.633028
0.693371
0.38159
0.632584
0.698105
0.540615
0.682911
0.68963
0.694501
0.468652
0.433302
0.702036
0.50743
0.615197
0.378942
0.641287
0.665883
0.406462
0.374683
0.655268
0.516629
0.695155
0.687365
0.394041
0.397018
0.677318
0.385495
0.418975
0.667287
0.64179
0.394614
0.671181
0.677544
0.638617
0.377384
0.597461
0.383056
0.670239
0.696697
0.693199
0.664225
0.677545
0.305709
0.365547
0.677244
0.391227
0.616853
0.39414
0.684092
0.398511
0.650441
0.697657
0.67745
0.381636
0.676372
0.67706
0.380794
0.642199
0.387458
0.706458
0.382123
0.366958
0.389555
0.673993
0.674459
0.328026
0.305719