# vtk DataFile Version 1.0
unstructured grid
ascii
DATASET UNSTRUCTURED_GRID
points 13672 float
0.0796578 -0.059106 0
0.00128732 0.00159165 0
0.00227961 -0.00102548 0
0.0791586 -0.0598787 0
-0.0546216 0.01 0
0.000495206 0.025 0
0.0800549 -0.035 0
0.135172 -0.08 0
-0.0546216 -0.0451168 0
0.000495206 -0.0301168 0
0.0800549 -0.0901168 0
0.135172 -0.135117 0
-0.0546216 -0.0451168 -0.00551168
0.000495206 -0.0301168 -0.00551168
0.0800549 -0.0901168 -0.00551168
0.135172 -0.135117 -0.00551168
0.135172 -0.08 -0.00551168
0.0800549 -0.035 -0.00551168
0.000495206 0.025 -0.00551168
-0.0546216 0.01 -0.00551168
0.00128732 0.00159165 -0.00551168
0.00227961 -0.00102548 -0.00551168
0.0791586 -0.0598787 -0.00551168
0.0796578 -0.059106 -0.00551168
0.00165953 -0.000990923 0
0.00119576 -0.000874076 0
0.000866021 -0.000641801 0
0.000645147 -0.000349912 0
0.00052235 -1.7281e-05 0
0.00049972 0.000348016 0
0.000601632 0.000737716 0
0.000861774 0.0011403 0
0.00157235 0.00183217 0
0.00188647 0.00206725 0
0.00222612 0.00230203 0
0.00258713 0.00254351 0
0.00296826 0.00279524 0
0.00337118 0.00305664 0
0.00379785 0.00332658 0
0.00425045 0.00360349 0
0.00473139 0.00388521 0
0.0052432 0.00416895 0
0.0057881 0.00445204 0
0.00636753 0.00473281 0
0.00698281 0.00500961 0
0.00763526 0.00528058 0
0.00832616 0.00554366 0
0.00905691 0.00579603 0
0.00982918 0.00603333 0
0.0106445 0.00625033 0
0.0115038 0.00644128 0
0.0124073 0.00660297 0
0.0133543 0.00673414 0
0.0143444 0.00683382 0
0.0153769 0.00690031 0
0.0164512 0.00693173 0
0.0175666 0.00692547 0
0.0187219 0.00687822 0
0.0199156 0.00678477 0
0.0211454 0.00663864 0
0.0224084 0.00643275 0
0.0237018 0.00616676 0
0.0250249 0.00584739 0
0.026375 0.00547298 0
0.0277479 0.00503752 0
0.0291386 0.00453545 0
0.0305433 0.0039653 0
0.0319572 0.0033256 0
0.0333681 0.00260019 0
0.034775 0.00179799 0
0.0361793 0.000930615 0
0.0375798 3.12222e-06 0
0.0389689 -0.000988429 0
0.0403357 -0.00205109 0
0.041675 -0.00318283 0
0.0429849 -0.00437751 0
0.0442643 -0.00562904 0
0.0455126 -0.00693089 0
0.0467314 -0.00827518 0
0.0479204 -0.00965638 0
0.0490661 -0.0110799 0
0.0501515 -0.0125519 0
0.0511696 -0.0140695 0
0.0521492 -0.0156071 0
0.0531202 -0.0171411 0
0.0540851 -0.0186663 0
0.0550431 -0.0201798 0
0.0559923 -0.0216793 0
0.0569311 -0.0231626 0
0.0578582 -0.0246273 0
0.0587723 -0.0260715 0
0.0596721 -0.027493 0
0.0605563 -0.02889 0
0.0614241 -0.0302609 0
0.0622742 -0.0316042 0
0.063106 -0.0329183 0
0.0639186 -0.034202 0
0.0647113 -0.0354543 0
0.0654835 -0.0366743 0
0.0662345 -0.0378613 0
0.0669642 -0.0390145 0
0.0676726 -0.0401333 0
0.0683597 -0.0412172 0
0.0690246 -0.0422665 0
0.0696662 -0.0432819 0
0.0702841 -0.0442636 0
0.0708793 -0.0452111 0
0.0714538 -0.0461237 0
0.072009 -0.047001 0
0.0725452 -0.0478434 0
0.0730611 -0.0486524 0
0.073556 -0.0494294 0
0.0740291 -0.0501756 0
0.0744812 -0.0508916 0
0.0749138 -0.0515773 0
0.0753285 -0.0522331 0
0.0757266 -0.0528592 0
0.076109 -0.0534564 0
0.0764753 -0.0540264 0
0.0768243 -0.054571 0
0.0771553 -0.0550919 0
0.0774679 -0.0555901 0
0.0777617 -0.0560669 0
0.0780369 -0.056523 0
0.0782958 -0.0569578 0
0.0785421 -0.0573703 0
0.0787786 -0.0577603 0
0.0790073 -0.0581279 0
0.0792295 -0.058474 0
0.0794462 -0.0587995 0
0.0798803 -0.0594162 0
0.0800272 -0.0596588 0
0.0800357 -0.0598891 0
0.0799275 -0.0600784 0
0.0797205 -0.0601773 0
0.0794593 -0.0601051 0
0.0789155 -0.0596491 0
0.0786707 -0.0593963 0
0.0784111 -0.0591319 0
0.0781372 -0.0588542 0
0.0778566 -0.0585548 0
0.0775715 -0.0582308 0
0.0772803 -0.0578828 0
0.0769832 -0.0575099 0
0.0766822 -0.0571097 0
0.0763801 -0.0566796 0
0.0760759 -0.0562196 0
0.0757623 -0.0557337 0
0.0754359 -0.0552232 0
0.0750951 -0.0546879 0
0.0747379 -0.054128 0
0.0743626 -0.0535435 0
0.0739688 -0.0529338 0
0.0735559 -0.0522981 0
0.0731238 -0.0516357 0
0.0726718 -0.050946 0
0.0721991 -0.0502288 0
0.0717046 -0.049484 0
0.0711872 -0.0487117 0
0.0706461 -0.047912 0
0.0700804 -0.0470849 0
0.0694892 -0.0462308 0
0.0688718 -0.0453499 0
0.0682271 -0.0444431 0
0.0675544 -0.043511 0
0.0668527 -0.0425546 0
0.0661215 -0.0415748 0
0.06536 -0.040573 0
0.0645676 -0.0395504 0
0.0637439 -0.0385087 0
0.0628887 -0.0374493 0
0.062002 -0.0363741 0
0.0610838 -0.0352847 0
0.0601345 -0.0341831 0
0.0591547 -0.033071 0
0.0581456 -0.0319502 0
0.0571083 -0.0308224 0
0.0560444 -0.0296893 0
0.0549562 -0.028552 0
0.053845 -0.0274126 0
0.0527113 -0.0262746 0
0.051554 -0.0251427 0
0.0503724 -0.0240222 0
0.0491675 -0.0229164 0
0.047941 -0.0218282 0
0.0466955 -0.0207597 0
0.0454337 -0.0197126 0
0.0441592 -0.0186878 0
0.0428751 -0.0176863 0
0.0415841 -0.0167097 0
0.0402878 -0.0157609 0
0.0389879 -0.0148428 0
0.0376864 -0.0139575 0
0.0363853 -0.013107 0
0.0350871 -0.0122931 0
0.0337942 -0.0115164 0
0.0325095 -0.0107772 0
0.0312357 -0.0100756 0
0.0299758 -0.00941024 0
0.0287337 -0.00877784 0
0.0275126 -0.00817571 0
0.0263139 -0.00760375 0
0.0251376 -0.00706528 0
0.0239829 -0.0065649 0
0.0228537 -0.00609619 0
0.0217522 -0.00565563 0
0.0206795 -0.00524226 0
0.0196364 -0.00485507 0
0.0186233 -0.00449318 0
0.0176408 -0.00415577 0
0.016689 -0.00384204 0
0.0157682 -0.00355115 0
0.0148783 -0.00328218 0
0.0140192 -0.00303468 0
0.0131906 -0.00280795 0
0.0123925 -0.00260016 0
0.0116246 -0.00241012 0
0.0108864 -0.00223769 0
0.0101774 -0.00208212 0
0.00949701 -0.00194206 0
0.00884483 -0.0018163 0
0.0082202 -0.0017039 0
0.00762247 -0.00160391 0
0.00705097 -0.00151528 0
0.006505 -0.00143697 0
0.0059838 -0.00136806 0
0.00548662 -0.00130772 0
0.00501265 -0.00125519 0
0.00456114 -0.00120954 0
0.00413136 -0.00116914 0
0.00372257 -0.00113251 0
0.00333398 -0.00109853 0
0.00296466 -0.00106798 0
0.00261363 -0.0010431 0
-0.052721 -0.0445996 0
-0.0508204 -0.0440823 0
-0.0489199 -0.0435651 0
-0.0470193 -0.0430478 0
-0.0451187 -0.0425306 0
-0.0432181 -0.0420134 0
-0.0413175 -0.0414961 0
-0.039417 -0.0409789 0
-0.0375164 -0.0404616 0
-0.0356158 -0.0399444 0
-0.0337152 -0.0394271 0
-0.0318146 -0.0389099 0
-0.0299141 -0.0383927 0
-0.0280135 -0.0378754 0
-0.0261129 -0.0373582 0
-0.0242123 -0.0368409 0
-0.0223117 -0.0363237 0
-0.0204112 -0.0358065 0
-0.0185106 -0.0352892 0
-0.01661 -0.034772 0
-0.0147094 -0.0342547 0
-0.0128088 -0.0337375 0
-0.0109083 -0.0332202 0
-0.00900769 -0.032703 0
-0.00710711 -0.0321858 0
-0.00520653 -0.0316685 0
-0.00330595 -0.0311513 0
-0.00140537 -0.030634 0
0.00190689 -0.0299614 0
0.00332271 -0.0298498 0
0.00474133 -0.0297825 0
0.00616136 -0.0297597 0
0.0075814 -0.0297814 0
0.00900007 -0.0298477 0
0.010416 -0.0299583 0
0.0118278 -0.0301127 0
0.0132342 -0.0303103 0
0.0146339 -0.0305504 0
0.0160259 -0.0308322 0
0.0174091 -0.0311546 0
0.0187824 -0.0315166 0
0.020145 -0.031917 0
0.0214961 -0.0323546 0
0.0228351 -0.032828 0
0.0241613 -0.0333361 0
0.0254744 -0.0338774 0
0.0267738 -0.0344507 0
0.0280592 -0.0350545 0
0.0293306 -0.0356877 0
0.0305875 -0.0363488 0
0.0318301 -0.0370367 0
0.0330581 -0.0377501 0
0.0342717 -0.0384879 0
0.0354708 -0.0392489 0
0.0366556 -0.0400321 0
0.0378262 -0.0408363 0
0.0389828 -0.0416607 0
0.0401254 -0.0425042 0
0.0412543 -0.0433659 0
0.0423698 -0.0442451 0
0.043472 -0.0451408 0
0.0445612 -0.0460523 0
0.0456375 -0.0469789 0
0.0467013 -0.0479199 0
0.0477529 -0.0488746 0
0.0487923 -0.0498424 0
0.04982 -0.0508227 0
0.0508362 -0.051815 0
0.051841 -0.0528187 0
0.0528348 -0.0538333 0
0.0538178 -0.0548584 0
0.0547903 -0.0558935 0
0.0557524 -0.0569382 0
0.0567045 -0.0579922 0
0.0576467 -0.0590549 0
0.0585792 -0.0601261 0
0.0595024 -0.0612055 0
0.0604163 -0.0622926 0
0.0613212 -0.0633873 0
0.0622174 -0.0644891 0
0.0631049 -0.0655979 0
0.0639841 -0.0667134 0
0.064855 -0.0678353 0
0.0657179 -0.0689633 0
0.0665729 -0.0700974 0
0.0674202 -0.0712372 0
0.06826 -0.0723826 0
0.0690925 -0.0735333 0
0.0699178 -0.0746892 0
0.070736 -0.0758501 0
0.0715473 -0.0770159 0
0.0723518 -0.0781863 0
0.0731498 -0.0793612 0
0.0739412 -0.0805405 0
0.0747264 -0.081724 0
0.0755053 -0.0829116 0
0.0762781 -0.0841033 0
0.0770449 -0.0852987 0
0.0778059 -0.0864979 0
0.0785611 -0.0877007 0
0.0793108 -0.088907 0
0.0814681 -0.0912706 0
0.0828814 -0.0924245 0
0.0842946 -0.0935783 0
0.0857079 -0.0947322 0
0.0871211 -0.095886 0
0.0885344 -0.0970399 0
0.0899476 -0.0981937 0
0.0913609 -0.0993476 0
0.0927741 -0.100501 0
0.0941874 -0.101655 0
0.0956006 -0.102809 0
0.0970139 -0.103963 0
0.0984272 -0.105117 0
0.0998404 -0.106271 0
0.101254 -0.107424 0
0.102667 -0.108578 0
0.10408 -0.109732 0
0.105493 -0.110886 0
0.106907 -0.11204 0
0.10832 -0.113194 0
0.109733 -0.114348 0
0.111146 -0.115501 0
0.11256 -0.116655 0
0.113973 -0.117809 0
0.115386 -0.118963 0
0.116799 -0.120117 0
0.118213 -0.121271 0
0.119626 -0.122424 0
0.121039 -0.123578 0
0.122452 -0.124732 0
0.123866 -0.125886 0
0.125279 -0.12704 0
0.126692 -0.128194 0
0.128105 -0.129348 0
0.129519 -0.130501 0
0.130932 -0.131655 0
0.132345 -0.132809 0
0.133758 -0.133963 0
0.135172 -0.133216 0
0.135172 -0.131316 0
0.135172 -0.129415 0
0.135172 -0.127514 0
0.135172 -0.125614 0
0.135172 -0.123713 0
0.135172 -0.121813 0
0.135172 -0.119912 0
0.135172 -0.118012 0
0.135172 -0.116111 0
0.135172 -0.11421 0
0.135172 -0.11231 0
0.135172 -0.110409 0
0.135172 -0.108509 0
0.135172 -0.106608 0
0.135172 -0.104708 0
0.135172 -0.102807 0
0.135172 -0.100906 0
0.135172 -0.0990058 0
0.135172 -0.0971052 0
0.135172 -0.0952046 0
0.135172 -0.0933041 0
0.135172 -0.0914035 0
0.135172 -0.0895029 0
0.135172 -0.0876023 0
0.135172 -0.0857017 0
0.135172 -0.0838012 0
0.135172 -0.0819006 0
0.133758 -0.0788462 0
0.132345 -0.0776923 0
0.130932 -0.0765385 0
0.129519 -0.0753846 0
0.128105 -0.0742308 0
0.126692 -0.0730769 0
0.125279 -0.0719231 0
0.123866 -0.0707692 0
0.122452 -0.0696154 0
0.121039 -0.0684615 0
0.119626 -0.0673077 0
0.118213 -0.0661538 0
0.116799 -0.065 0
0.115386 -0.0638462 0
0.113973 -0.0626923 0
0.11256 -0.0615385 0
0.111146 -0.0603846 0
0.109733 -0.0592308 0
0.10832 -0.0580769 0
0.106907 -0.0569231 0
0.105493 -0.0557692 0
0.10408 -0.0546154 0
0.102667 -0.0534615 0
0.101254 -0.0523077 0
0.0998404 -0.0511538 0
0.0984272 -0.05 0
0.0970139 -0.0488462 0
0.0956006 -0.0476923 0
[...]
CELL_DATA 13116
SCALARS rho float
LOOKUP_TABLE default
0.551296
0.659735
0.355202
0.714474
0.702118
0.679162
0.381527
0.702749
0.530408
0.707631
0.376356
0.374319
0.702409
0.400878
0.375272
0.679295
0.519192
0.698713
0.678564
0.390462
0.556685
0.391311
0.411146
0.700525
0.612618
0.622273
0.707689
0.355883
0.612444
0.648834
0.676813
0.390609
0.558991
0.450478
0.37775
0.554023
0.666706
0.673072
0.67827
0.681157
0.679337
0.706986
0.428212
0.346935
0.677155
0.67846
0.635119
0.68257
0.381916
0.526848
0.698468
0.44482
0.384101
0.512205
0.557533
0.588542
0.345682
0.696856
0.540358
0.378116
0.404408
0.709169
0.649527
0.678151
0.677122
0.413659
0.683274
0.674049
0.685006
0.67729
0.376861
0.591199
0.388855
0.401025
0.67626
0.360892
0.644065
0.695663
0.376151
0.695853
0.679812
0.632008
0.700513
0.682694
0.667204
0.453393
0.388214
0.671858
0.660021
0.385381
0.378809
0.661522
0.702999
0.664628
0.651471
0.601292
0.615185
0.676618
0.676475
0.602646
0.682006
0.587707
0.678968
0.408062
0.615553
0.40656
0.361648
0.475961
0.377989
0.622745
0.505082
0.627457
0.59943
0.683719
0.696432
0.683581
0.39572
0.390691
0.691396
0.6853
0.674579
0.388377
0.685522
0.396771
0.656927
0.441978
0.388913
0.513948
0.350599
0.528565
0.691687
0.684397
0.507852
0.389489
0.487577
0.586198
0.675035
0.688637
0.681112
0.684963
0.627361
0.63865
0.512163
0.628122
0.645261
0.394263
0.376413
0.622342
0.699695
0.693187
0.549237
0.681991
0.682404
0.376303
0.703921
0.668522
0.409775
0.687613
0.676648
0.672307
0.699656
0.377583
0.698619
0.410606
0.385239
0.706542
0.654323
0.698248
0.378852
0.46972
0.425373
0.675053
0.3812
0.496569
0.682393
0.410739
0.381092
0.389913
0.623243
0.6787
0.385611
0.435528
0.525844
0.667282
0.678834
0.537903
0.369664
0.678932
0.601052
0.464967
0.638037
0.620165
0.677473
0.411691
0.616372
0.679098
0.704462
0.67862
0.658722
0.408741
0.407776
0.627823
0.508501
0.414609
0.693892
0.677722
0.453764
0.611711
0.395534
0.389339
0.358907
0.681376
0.408727
0.388636
0.38562
0.374365
0.369091
0.677897
0.653149
0.43964
0.345935
0.682973
0.498889
0.386127
0.56171
0.708252
0.642843
0.374496
0.682568
0.394449
0.709541
0.38194
0.677303
0.581163
0.676452
0.673251
0.677598
0.375165
0.434475
0.672384
0.676088
0.678937
0.675248
0.677507
0.694337
0.384008
0.693048
0.704725
0.676535
0.375761
0.384672
0.679233
0.690532
0.677134
0.686549
0.537134
0.687237
0.375379
0.400115
0.400112
0.396257
0.597396
0.70425
0.642669
0.380354
0.675185
0.400904
0.437209
0.617916
0.388502
0.625914
0.702905
0.675863
0.696504
0.376519
0.675815
0.685113
0.676557
0.688478
0.373209
0.39013
0.411898
0.58129
0.387282
0.392781
0.334974
0.306796
0.667155
0.383693
0.666543
0.702621
0.385626
0.392284
0.400434
0.45745
0.352585
0.670412
0.587151
0.622154
0.389848
0.68112
0.594555
0.404556
0.377113
0.678413
0.690411
0.678634
0.365994
0.679255
0.417466
0.683573
0.707299
0.691332
0.706085
0.413788
0.682533
0.39271
0.679368
0.708563
0.673675
0.382174
0.334503
0.705302
0.40403
0.649614
0.70903
0.3679
0.690303
0.700225
0.395358
0.674999
0.702951
0.386564
0.693289
0.454624
0.58217
0.67555
0.461683
0.687853
0.382216
0.698355
0.346477
0.677667
0.577639
0.705588
0.3754
0.360347
0.668609
0.379579
0.692687
0.607387
0.425378
0.675084
0.377642
0.382194
0.689498
0.56205
0.67228
0.390907
0.409342
0.692787
0.702429
0.376509
0.700462
0.401943
0.40543
0.683134
0.682191
0.462794
0.395749
0.688845
0.676969
0.679367
0.673596
0.695654
0.549329
0.329031
0.392457
0.385044
0.679264
0.385084
0.523702
0.372976
0.395419
0.354212
0.472421
0.144485
0.381986
0.669795
0.330534
0.699369
0.611877
0.680073
0.663785
0.694045
0.382667
0.387791
0.415156
0.337729
0.689637
0.59517
0.679401
0.612521
0.647048
0.622817
0.630252
0.623928
0.64597
0.694076
0.69537
0.678777
0.40671
0.462182
0.547151
0.388651
0.583168
0.586754
0.38585
0.683197
0.675936
0.415215
0.386657
0.379572
0.37704
0.637856
0.377937
0.411819
0.681936
0.412825
0.58058
0.379683
0.67887
0.678817
0.344763
0.39048
0.689003
0.459056
0.377042
0.37536
0.391605
0.383042
0.391141
0.387721
0.393366
0.437069
0.374778
0.583949
0.371715
0.665663
0.382812
0.435812
0.510299
0.398782
0.383965
0.396453
0.678044
0.443349
0.647123
0.478621
0.412293
0.614231
0.662606
0.452626
0.689903
0.623767
0.622212
0.391468
0.676475
0.392681
0.69692
0.676719
0.412367
0.388758
0.599756
0.342542
0.463536
0.580539
0.360547
0.686662
0.648012
0.390609
0.376748
0.381072
0.492037
0.375244
0.385836
0.379801
0.393207
0.710031
0.711273
0.464267
0.605851
0.486701
0.616907
0.355484
0.379506
0.534975
0.412818
0.683005
0.295956
0.374945
0.503623
0.676517
0.649391
0.568457
0.366211
0.388398
0.577901
0.703249
0.677514
0.573976
0.621247
0.596359
0.376422
0.677797
0.576596
0.671296
0.313298
0.356185
0.682745
0.704767
0.662755
0.708585
0.654058
0.620792
0.698481
0.671999
0.67991
0.3876
0.676239
0.342238
0.395079
0.386383
0.713439
0.678173
0.312478
0.666145
0.629483
0.382392
0.677748
0.689593
0.690559
0.3552
0.378923
0.693928
0.374866
0.378281
0.37974
0.378434
0.680734
0.386594
0.713473
0.374679
0.660561
0.697015
0.68361
0.702792
0.375587
0.389273
0.680274
0.71112
0.656285
0.709704
0.70445
0.504942
0.394265
0.415332
0.680144
0.532743
0.379791
0.458818
0.390919
0.67646
0.679649
0.312992
0.391968
0.663637
0.472323
0.670707
0.666448
0.34953
0.395279
0.652019
0.675983
0.411821
0.648579
0.653705
0.679418
0.370862
0.67524
0.345736
0.676372
0.670078
0.394777
0.368585
0.393087
0.676474
0.347438
0.376998
0.391222
0.677921
0.687886
0.377005
0.393328
0.379429
0.677939
0.389193
0.678962
0.394377
0.595146
0.708299
0.385933
0.41075
0.410749
0.505424
0.41243
0.636433
0.361398
0.379422
0.678564
0.384729
0.680991
0.645783
0.676506
0.382078
0.683692
0.701671
0.704082
0.680478
0.654933
0.682867
0.391386
0.677419
0.442008
0.677061
0.373762
0.695518
0.50964
0.380474
0.676993
0.697727
0.380025
0.627238
0.378395
0.375135
0.681822
0.67769
0.375935
0.392709
0.376918
0.398455
0.671661
0.700671
0.374107
0.387222
0.692726
0.68817
0.596987
0.701073
0.679567
0.377528
0.705742
0.431742
0.698296
0.392189
0.599504
0.489768
0.682224
0.6735
0.585561
0.34627
0.369454
0.67847
0.613157
0.518141
0.700546
0.395573
0.682892
0.703501
0.369449
0.459561
0.702142
0.365502
0.67714
0.673375
0.329943
0.686429
0.64971
0.370808
0.686753
0.411004
0.657851
0.358529
0.681126
0.647539
0.389294
0.678202
0.699125
0.695127
0.630622
0.679016
0.592417
0.373986
0.419954
0.3691
0.41245
0.67469
0.564812
0.686393
0.698977
0.384347
0.387233
0.683033
0.709203
0.689628
0.702766
0.380497
0.695567
0.704562
0.389074
0.383136
0.691727
0.679049
0.662583
0.398721
0.600605
0.326219
0.685928
0.643163
0.677564
0.667186
0.378693
0.677235
0.666547
0.702033
0.676408
0.679463
0.437862
0.695199
0.390483
0.622758
0.706148
0.469352
0.649625
0.677674
0.696334
0.405903
0.407399
0.59352
0.656257
0.375184
0.396546
0.387922
0.374111
0.66264
0.682447
0.677491
0.307678
0.375504
0.68477
0.686136
0.38856
0.385667
0.471116
0.665057
0.6787
0.672871
0.692373
0.390182
0.375693
0.675386
0.394342
0.388153
0.360169
0.678692
0.326568
0.383049
0.58071
0.678732
0.623667
0.678699
0.67886
0.400164
0.38155
0.393957
0.478164
0.44292
0.381732
0.672472
0.69204
0.658944
0.68102
0.409671
0.381671
0.708285
0.38144
0.679299
0.646915
0.676812
0.376064
0.38995
0.651915
0.676903
0.562757
0.386427
0.669533
0.678895
0.576251
0.693446
0.701318
0.675578
0.621791
0.382383
0.678922
0.67706
0.61574
0.68638
0.674769
0.629342
0.675645
0.687644
0.379999
0.370364
0.381321
0.676959
0.508215
0.379707
0.68273
0.693482
0.367994
0.635046
0.330767
0.639867
0.471028
0.37959
0.709557
0.700072
0.378802
0.560263
0.676979
0.385312
0.66517
0.411818
0.405401
0.618594
0.613229
0.510302
0.678943
0.387306
0.698424
0.377134
0.392162
0.68086
0.379246
0.60608
0.393914
0.634059
0.601142
0.67557
0.652202
0.388788
0.378615
0.60814
0.430378
0.68933
0.460794
0.59382
0.678974
0.701798
0.444456
0.619944
0.621291
0.70478
0.684254
0.350093
0.375037
0.55001
0.618276
0.70531
0.380543
0.678821
0.56475
0.414941
0.38179
0.675239
0.66604
0.675404
0.676389
0.586689
0.684245
0.678236
0.674033
0.392996
0.663371
0.468406
0.687438
0.678318
0.303231
0.617297
0.700205
0.375202
0.380291
0.400945
0.674798
0.377461
0.618495
0.691719
0.664997
0.361927
0.669943
0.412728
0.59998
0.677991
0.677357
0.670761
0.677904
0.623574
0.678486
0.527679
0.67648
0.356752
0.678842
0.683414
0.411159
0.675882
0.683771
0.411177
0.391447
0.364302
0.691946
0.390674
0.675812
0.392794
0.701639
0.389138
0.490325
0.397758
0.696353
0.702107
0.534922
0.27283
0.623345
0.677965
0.400439
0.595864
0.711775
0.381612
0.59128
0.676721
0.707858
0.679623
0.410235
0.473227
0.691284
0.679286
0.624415
0.391828
0.403788
0.67186
0.675251
0.675957
0.675158
0.550921
0.684867
0.546236
0.684613
0.391494
0.413873
0.675223
0.700795
0.677993
0.414474
0.678896
0.558509
0.601162
0.363288
0.423031
0.700973
0.714921
0.562628
0.337891
0.68046
0.67602
0.379667
0.615691
0.692136
0.378913
0.433953
0.390141
0.598488
0.392269
0.385904
0.673947
0.468932
0.705649
0.641156
0.380515
0.391234
0.708077
0.370666
0.378598
0.676904
0.404464
0.35671
0.595086
0.648997
0.684062
0.374137
0.306959
0.375233
0.647395
0.406028
0.684754
0.378894
0.68352
0.607448
0.675951
0.62761
0.676114
0.640879
0.678846
0.7023
0.687638
0.385689
0.392648
0.668423
0.678305
0.516216
0.612333
0.56351
0.67813
0.613909
0.345521
0.684286
0.710755
0.674216
0.377164
0.678229
0.368051
0.682785
0.508207
0.696172
0.680591
0.379959
0.689712
0.379927
0.430461
0.65097
0.355889
0.687118
0.674832
0.685264
0.37433
0.681837
0.372488
0.37592
0.394673
0.390095
0.605169
0.38364
0.631253
0.677758
0.341223
0.412043
0.49853
0.589889
0.635035
0.625806
0.382651
0.406639
0.376458
0.397838
0.270006
0.634247
0.632489
0.352722
0.677651
0.691136
0.390473
0.710726
0.685487
0.677851
0.380698
0.676268
0.677611
0.695397
0.687242
0.373972
0.685638
0.697104
0.678903
0.676279
0.678269
0.391737
0.401024
0.682167
0.548125
0.392265
0.68056
0.409249
0.581518
0.627285
0.655632
0.659838
0.377699
0.610617
0.402664
0.378421
0.691031
0.694642
0.699976
0.692492
0.65826
0.376354
0.704001
0.385801
0.515025
0.705864
0.676435
0.690695
0.376535
0.396605
0.705508
0.397124
0.693203
0.656663
0.434851
0.392
0.683173
0.396281
0.680483
0.692721
0.65456
0.395995
0.371145
0.510568
0.520774
0.622652
0.477594
0.678558
0.625585
0.668569
0.674606
0.684632
0.383557
0.394809
0.695283
0.678259
0.621365
0.469523
0.415135
0.674774
0.384266
0.679504
0.624874
0.324857
0.689064
0.3742
0.63771
0.358009
0.70077
0.376152
0.681998
0.67854
0.345407
0.660214
0.655657
0.333544
0.677458
0.678224
0.561457
0.39818
0.370738
0.47071
0.70222
0.602679
0.381557
0.596016
0.687264
0.678575
0.352267
0.610332
0.66485
0.471741
0.678554
0.679486
0.298787
0.686841
0.676665
0.354556
0.600189
0.382233
0.637487
0.384756
0.405376
0.704342
0.390139
0.379791
0.38901
0.68265
0.65577
0.410662
0.680421
0.36694
0.663158
0.372404
0.659911
0.373773
0.679131
0.682594
0.6459
0.677463
0.564169
0.678551
0.677844
0.342793
0.645183
0.651539
0.488227
0.683916
0.504417
0.410623
0.703631
0.389375
0.579217
0.3224
0.679243
0.386926
0.411231
0.70022
0.679032
0.390143
0.686149
0.692219
0.674762
0.702144
0.676366
0.382339
0.709942
0.390224
0.409468
0.660764
0.693401
0.705874
0.666011
0.38643
0.380662
0.375494
0.661077
0.677697
0.36968
0.662009
0.410475
0.380265
0.361803
0.663535
0.392403
0.705883
0.688192
0.644176
0.676656
0.686751
0.576282
0.638424
0.444052
0.40868
0.389637
0.676361
0.676227
0.415256
0.633595
0.595622
0.640512
0.410271
0.402604
0.629571
0.282922
0.622738
0.594066
0.389273
0.67812
0.664462
0.38006
0.683274
0.377868
0.686014
0.706503
0.676549
0.386555
0.481596
0.685531
0.307464
0.45365
0.676768
0.316331
0.678245
0.684123
0.625808
0.692672
0.335229
0.676919
0.690351
0.679096
0.369905
0.694883
0.384115
0.397008
0.668951
0.679
0.677636
0.240238
0.68098
0.645051
0.676237
0.407888
0.397905
0.376331
0.690301
0.379882
0.382275
0.370056
0.591773
0.377992
0.302543
0.453021
0.684565
0.385268
0.67746
0.677953
0.680729
0.372014
0.68525
0.659978
0.677624
0.424962
0.673986
0.376272
0.390891
0.681579
0.392754
0.629004
0.686182
0.67549
0.386686
0.334899
0.380331
0.572512
0.675226
0.238378
0.673947
0.682439
0.693798
0.377269
0.386931
0.350203
0.600843
0.378652
0.674707
0.617105
0.67812
0.673006
0.373071
0.629121
0.391351
0.562038
0.658552
0.708969
0.570612
0.482722
0.673377
0.625248
0.696324
0.388881
0.376758
0.38607
0.6956
0.538627
0.676451
0.38719
0.405264
0.695692
0.685042
0.677243
0.392231
0.681583
0.57067
0.573837
0.605308
0.412971
0.391586
0.298236
0.679011
0.677779
0.674733
0.614918
0.34917
0.685982
0.667481
0.677804
0.677528
0.686501
0.710508
0.679088
0.691791
0.699426
0.411301
0.686928
0.693603
0.678508
0.689153
0.678612
0.579953
0.385394
0.409659
0.619207
0.394559
0.338162
0.680567
0.377929
0.648307
0.684167
0.656984
0.675021
0.412223
0.682569
0.391397
0.413577
0.679266
0.683795
0.681224
0.3614
0.699078
0.67912
0.615847
0.678708
0.388688
0.678415
0.70598
0.665128
0.410131
0.697512
0.373869
0.715696
0.358988
0.385186
0.525254
0.457723
0.709418
0.697686
0.679568
0.371094
0.678357
0.412951
0.379504
0.646169
0.502124
0.389004
0.679229
0.387429
0.525345
0.67293
0.635555
0.659492
0.501158
0.608798
0.661876
0.679639
0.577242
0.69992
0.546747
0.700104
0.610234
0.653585
0.408058
0.377128
0.457101
0.692581
0.410892
0.670968
0.686571
0.60827
0.6798
0.523077
0.685931
0.675542
0.377926
0.685224
0.606031
0.493587
0.610086
0.70515
0.63837
0.678273
0.380184
0.3797
0.678085
0.541761
0.548417
0.688154
0.682357
0.681067
0.704771
0.706192
0.625926
0.622646
0.708899
0.383879
0.393965
0.388548
0.351952
0.675872
0.467048
0.542278
0.688635
0.680582
0.412052
0.676196
0.714909
0.360918
0.381172
0.675955
0.688709
0.412333
0.378925
0.382648
0.67465
0.62176
0.414282
0.384764
0.389711
0.404021
0.351202
0.395613
0.705862
0.682695
0.681171
0.390871
0.658102
0.610343
0.622649
0.343645
0.385315
0.643733
0.675152
0.381298
0.678838
0.380961
0.699881
0.412159
0.679883
0.383413
0.659853
0.702
0.377826
0.575655
0.390799
0.71029
0.406383
0.61424
0.408773
0.513462
0.375949
0.605178
0.400275
0.67735
0.677445
0.620344
0.674973
0.338536
0.660157
0.678004
0.700373
0.607904
0.664185
0.387196
0.398037
0.41583
0.703032
0.295383
0.699827
0.557624
0.693152
0.707757
0.465199
0.694965
0.378687
0.411631
0.382057
0.518423
0.523137
0.681612
0.394135
0.392033
0.68047
0.386928
0.394494
0.556473
0.375698
0.380897
0.410521
0.708191
0.664415
0.618817
0.413002
0.656723
0.679291
0.409943
0.329673
0.667038
0.678897
0.565506
0.528684
0.421354
0.369061
0.379244
0.672897
0.614253
0.529731
0.688701
0.392571
0.575831
0.374582
0.677057
0.699627
0.388812
0.399246
0.621187
0.549699
0.70224
0.699352
0.702575
0.686723
0.706172
0.368849
0.389551
0.370436
0.372705
0.543262
0.676781
0.666173
0.375815
0.38449
0.457297
0.433487
0.681015
0.634573
0.378239
0.313537
0.684055
0.413429
0.66042
0.697626
0.650255
0.678359
0.555671
0.378536
0.387167
0.616644
0.389414
0.425048
0.408846
0.678142
0.678945
0.339839
0.388397
0.67506
0.399723
0.680845
0.703025
0.383734
0.37693
0.387482
0.68385
0.395652
0.674811
0.687204
0.608595
0.374954
0.543369
0.695086
0.671047
0.381221
0.668294
0.621521
0.442026
0.691012
0.708261
0.375411
0.387821
0.650633
0.400102
0.374251
0.664183
0.35272
0.681145
0.68647
0.702253
0.629436
0.700547
0.683653
0.678528
0.377381
0.420485
0.632261
0.681
0.481322
0.710342
0.331988
0.687227
0.661129
0.577776
0.655884
0.398697
0.466902
0.677082
0.696889
0.607007
0.70226
0.682246
0.675603
0.700519
0.674866
0.658518
0.648876
0.681766
0.675252
0.678621
0.350049
0.635655
0.342614
0.682695
0.687002
0.694149
0.639653
0.692276
0.373458
0.38029
0.312167
0.380654
0.648213
0.392363
0.381143
0.681189
0.398484
0.69111
0.380647
0.664224
0.686079
0.388408
0.389673
0.326438
0.691056
0.382118
0.680778
0.689424
0.379808
0.640804
0.568304
0.350869
0.35673
0.401692
0.693711
0.388148
0.684012
0.519212
0.387939
0.678053
0.679472
0.702567
0.380472
0.582186
0.402573
0.660138
0.678481
0.683531
0.38366
0.680003
0.688436
0.622443
0.413904
0.69095
0.378287
0.376057
0.674835
0.462146
0.706516
0.411234
0.382405
0.455039
0.632253
0.347598
0.291313
0.359988
0.486139
0.676421
0.688324
0.394603
0.604055
0.682679
0.573803
0.426068
0.319866
0.57079
0.374168
0.374267
0.677097
0.376278
0.377637
0.693684
0.712118
0.356708
0.697403
0.3692
0.675838
0.352548
0.647344
0.677345
0.693581
0.678035
0.382865
0.374516
0.397896
0.678822
0.652204
0.606202
0.551578
0.379036
0.309543
0.678872
0.377125
0.681703
0.390756
0.67744
0.675486
0.375077
0.345559
0.378338
0.388282
0.343998
0.619584
0.651276
0.384472
0.686211
0.644327
0.37345
0.382408
0.712474
0.388076
0.685257
0.437626
0.693035
0.661921
0.685053
0.676558
0.37926
0.706233
0.680648
0.711304
0.39186
0.609702
0.612449
0.332697
0.692416
0.64207
0.693808
0.657476
0.706316
0.673069
0.705977
0.6786
0.678511
0.384566
0.701626
0.378632
0.465912
0.676485
0.400144
0.66506
0.606951
0.389689
0.624497
0.389534
0.379338
0.665596
0.597748
0.711464
0.374048
0.657013
0.629226
0.34351
0.387866
0.643824
0.679358
0.385553
0.367862
0.691183
0.711594
0.384421
0.648892
0.703412
0.667351
0.376927
0.379212
0.38935
0.663555
0.373603
0.669176
0.695638
0.678986
0.610265
0.6861
0.374446
0.661521
0.629744
0.701781
0.567302
0.406824
0.378796
0.400776
0.700363
0.690489
0.434841
0.659756
0.306603
0.647685
0.685005
0.396409
0.620427
0.670288
0.629846
0.387887
0.388104
0.340948
0.692218
0.706374
0.626633
0.528305
0.685454
0.379282
0.641734
0.675993
0.680339
0.385942
0.64
0.390705
0.613963
0.404618
0.679114
0.665323
0.413252
0.691545
0.43293
0.675212
0.644748
0.67468
0.690557
0.420615
0.67876
0.679914
0.679819
0.680097
0.496229
0.675937
0.387611
0.680286
0.39766
0.385465
0.392643
0.3437
0.374728
0.384089
0.706346
0.373866
0.381119
0.663343
0.69212
0.653635
0.416212
0.688372
0.687892
0.67823
0.328618
0.582305
0.683226
0.388277
0.364842
0.37479
0.635517
0.522157
0.384557
0.590357
0.411363
0.676523
0.515064
0.389298
0.485871
0.657404
0.336537
0.679786
0.38851
0.47686
0.382735
0.677045
0.391688
0.656879
0.67608
0.588109
0.423503
0.380461
0.667761
0.710546
0.370029
0.375855
0.678878
0.389706
0.697096
0.392808
0.572871
0.401335
0.683478
0.389279
0.708619
0.386087
0.684718
0.686851
0.697647
0.675829
0.389664
0.409584
0.415228
0.626115
0.680295
0.63054
0.525916
0.391456
0.693462
0.32292
0.649596
0.583433
0.41079
0.393451
0.699131
0.678635
0.406332
0.676981
0.672699
0.698852
0.702299
0.388722
0.644404
0.379954
0.698832
0.373382
0.677751
0.642452
0.644541
0.708968
0.377613
0.715321
0.39151
0.379842
0.680635
0.675925
0.557611
0.678767
0.675834
0.386103
0.699152
0.673018
0.703538
0.377714
0.436227
0.68446
0.393095
0.687863
0.686025
0.667975
0.680885
0.292744
0.456103
0.657512
0.411977
0.660701
0.711328
0.481471
0.661673
0.276412
0.619025
0.699361
0.683766
0.66092
0.385058
0.413873
0.682023
0.666279
0.387825
0.336968
0.387059
0.411191
0.382173
0.412343
0.345908
0.393525
0.681475
0.395798
0.36614
0.690027
0.555517
0.675112
0.40456
0.38798
0.683416
0.476665
0.483166
0.704342
0.378412
0.668852
0.677532
0.622267
0.662444
0.371839
0.68869
0.678084
0.379048
0.37522
0.410949
0.603505
0.62139
0.706246
0.679524
0.68129
0.666321
0.37661
0.689358
0.67819
0.640833
0.382839
0.6842
0.577053
0.369337
0.442493
0.383479
0.39731
0.388128
0.599949
0.674203
0.669784
0.374102
0.397442
0.703117
0.353734
0.689853
0.680037
0.668492
0.684028
0.68477
0.387868
0.400812
0.406938
0.574282
0.379309
0.682559
0.391865
0.681544
0.678648
0.686519
0.362106
0.457301
0.419
0.686413
0.365701
0.37503
0.680146
0.662004
0.624043
0.679198
0.636715
0.696583
0.376113
0.637742
0.700841
0.5448
0.685036
0.692207
0.697565
0.471803
0.436385
0.705089
0.511254
0.618085
0.377905
0.6443
0.668479
0.409549
0.370946
0.658151
0.520681
0.697749
0.68989
0.389095
0.3908
0.676699
0.387404
0.419805
0.669812
0.645291
0.390735
0.673451
0.676699
0.641847
0.376557
0.60132
0.377463
0.672637
0.699213
0.696367
0.666981
0.676873
0.306796
0.366277
0.679799
0.400408
0.622056
0.392052
0.685977
0.396619
0.653978
0.700408
0.676715
0.386039
0.674774
0.676225
0.374232
0.645186
0.388794
0.709811
0.384952
0.383871
0.383964
0.676766
0.676352
0.329932
0.307333
0.622449
0.705572
0.472924