# vtk DataFile Version 1.0
unstructured grid
ascii
DATASET UNSTRUCTURED_GRID
points 13672 float
0.0796578 -0.059106 0
0.00128732 0.00159165 0
0.00227961 -0.00102548 0
0.0791586 -0.0598787 0
-0.0546216 0.01 0
0.000495206 0.025 0
0.0800549 -0.035 0
0.135172 -0.08 0
-0.0546216 -0.0451168 0
0.000495206 -0.0301168 0
0.0800549 -0.0901168 0
0.135172 -0.135117 0
-0.0546216 -0.0451168 -0.00551168
0.000495206 -0.0301168 -0.00551168
0.0800549 -0.0901168 -0.00551168
0.135172 -0.135117 -0.00551168
0.135172 -0.08 -0.00551168
0.0800549 -0.035 -0.00551168
0.000495206 0.025 -0.00551168
-0.0546216 0.01 -0.00551168
0.00128732 0.00159165 -0.00551168
0.00227961 -0.00102548 -0.00551168
0.0791586 -0.0598787 -0.00551168
0.0796578 -0.059106 -0.00551168
0.00165953 -0.000990923 0
0.00119576 -0.000874076 0
0.000866021 -0.000641801 0
0.000645147 -0.000349912 0
0.00052235 -1.7281e-05 0
0.00049972 0.000348016 0
0.000601632 0.000737716 0
0.000861774 0.0011403 0
0.00157235 0.00183217 0
0.00188647 0.00206725 0
0.00222612 0.00230203 0
0.00258713 0.00254351 0
0.00296826 0.00279524 0
0.00337118 0.00305664 0
0.00379785 0.00332658 0
0.00425045 0.00360349 0
0.00473139 0.00388521 0
0.0052432 0.00416895 0
0.0057881 0.00445204 0
0.00636753 0.00473281 0
0.00698281 0.00500961 0
0.00763526 0.00528058 0
0.00832616 0.00554366 0
0.00905691 0.00579603 0
0.00982918 0.00603333 0
0.0106445 0.00625033 0
0.0115038 0.00644128 0
0.0124073 0.00660297 0
0.0133543 0.00673414 0
0.0143444 0.00683382 0
0.0153769 0.00690031 0
0.0164512 0.00693173 0
0.0175666 0.00692547 0
0.0187219 0.00687822 0
0.0199156 0.00678477 0
0.0211454 0.00663864 0
0.0224084 0.00643275 0
0.0237018 0.00616676 0
0.0250249 0.00584739 0
0.026375 0.00547298 0
0.0277479 0.00503752 0
0.0291386 0.00453545 0
0.0305433 0.0039653 0
0.0319572 0.0033256 0
0.0333681 0.00260019 0
0.034775 0.00179799 0
0.0361793 0.000930615 0
0.0375798 3.12222e-06 0
0.0389689 -0.000988429 0
0.0403357 -0.00205109 0
0.041675 -0.00318283 0
0.0429849 -0.00437751 0
0.0442643 -0.00562904 0
0.0455126 -0.00693089 0
0.0467314 -0.00827518 0
0.0479204 -0.00965638 0
0.0490661 -0.0110799 0
0.0501515 -0.0125519 0
0.0511696 -0.0140695 0
0.0521492 -0.0156071 0
0.0531202 -0.0171411 0
0.0540851 -0.0186663 0
0.0550431 -0.0201798 0
0.0559923 -0.0216793 0
0.0569311 -0.0231626 0
0.0578582 -0.0246273 0
0.0587723 -0.0260715 0
0.0596721 -0.027493 0
0.0605563 -0.02889 0
0.0614241 -0.0302609 0
0.0622742 -0.0316042 0
0.063106 -0.0329183 0
0.0639186 -0.034202 0
0.0647113 -0.0354543 0
0.0654835 -0.0366743 0
0.0662345 -0.0378613 0
0.0669642 -0.0390145 0
0.0676726 -0.0401333 0
0.0683597 -0.0412172 0
0.0690246 -0.0422665 0
0.0696662 -0.0432819 0
0.0702841 -0.0442636 0
0.0708793 -0.0452111 0
0.0714538 -0.0461237 0
0.072009 -0.047001 0
0.0725452 -0.0478434 0
0.0730611 -0.0486524 0
0.073556 -0.0494294 0
0.0740291 -0.0501756 0
0.0744812 -0.0508916 0
0.0749138 -0.0515773 0
0.0753285 -0.0522331 0
0.0757266 -0.0528592 0
0.076109 -0.0534564 0
0.0764753 -0.0540264 0
0.0768243 -0.054571 0
0.0771553 -0.0550919 0
0.0774679 -0.0555901 0
0.0777617 -0.0560669 0
0.0780369 -0.056523 0
0.0782958 -0.0569578 0
0.0785421 -0.0573703 0
0.0787786 -0.0577603 0
0.0790073 -0.0581279 0
0.0792295 -0.058474 0
0.0794462 -0.0587995 0
0.0798803 -0.0594162 0
0.0800272 -0.0596588 0
0.0800357 -0.0598891 0
0.0799275 -0.0600784 0
0.0797205 -0.0601773 0
0.0794593 -0.0601051 0
0.0789155 -0.0596491 0
0.0786707 -0.0593963 0
0.0784111 -0.0591319 0
0.0781372 -0.0588542 0
0.0778566 -0.0585548 0
0.0775715 -0.0582308 0
0.0772803 -0.0578828 0
0.0769832 -0.0575099 0
0.0766822 -0.0571097 0
0.0763801 -0.0566796 0
0.0760759 -0.0562196 0
0.0757623 -0.0557337 0
0.0754359 -0.0552232 0
0.0750951 -0.0546879 0
0.0747379 -0.054128 0
0.0743626 -0.0535435 0
0.0739688 -0.0529338 0
0.0735559 -0.0522981 0
0.0731238 -0.0516357 0
0.0726718 -0.050946 0
0.0721991 -0.0502288 0
0.0717046 -0.049484 0
0.0711872 -0.0487117 0
0.0706461 -0.047912 0
0.0700804 -0.0470849 0
0.0694892 -0.0462308 0
0.0688718 -0.0453499 0
0.0682271 -0.0444431 0
0.0675544 -0.043511 0
0.0668527 -0.0425546 0
0.0661215 -0.0415748 0
0.06536 -0.040573 0
0.0645676 -0.0395504 0
0.0637439 -0.0385087 0
0.0628887 -0.0374493 0
0.062002 -0.0363741 0
0.0610838 -0.0352847 0
0.0601345 -0.0341831 0
0.0591547 -0.033071 0
0.0581456 -0.0319502 0
0.0571083 -0.0308224 0
0.0560444 -0.0296893 0
0.0549562 -0.028552 0
0.053845 -0.0274126 0
0.0527113 -0.0262746 0
0.051554 -0.0251427 0
0.0503724 -0.0240222 0
0.0491675 -0.0229164 0
0.047941 -0.0218282 0
0.0466955 -0.0207597 0
0.0454337 -0.0197126 0
0.0441592 -0.0186878 0
0.0428751 -0.0176863 0
0.0415841 -0.0167097 0
0.0402878 -0.0157609 0
0.0389879 -0.0148428 0
0.0376864 -0.0139575 0
0.0363853 -0.013107 0
0.0350871 -0.0122931 0
0.0337942 -0.0115164 0
0.0325095 -0.0107772 0
0.0312357 -0.0100756 0
0.0299758 -0.00941024 0
0.0287337 -0.00877784 0
0.0275126 -0.00817571 0
0.0263139 -0.00760375 0
0.0251376 -0.00706528 0
0.0239829 -0.0065649 0
0.0228537 -0.00609619 0
0.0217522 -0.00565563 0
0.0206795 -0.00524226 0
0.0196364 -0.00485507 0
0.0186233 -0.00449318 0
0.0176408 -0.00415577 0
0.016689 -0.00384204 0
0.0157682 -0.00355115 0
0.0148783 -0.00328218 0
0.0140192 -0.00303468 0
0.0131906 -0.00280795 0
0.0123925 -0.00260016 0
0.0116246 -0.00241012 0
0.0108864 -0.00223769 0
0.0101774 -0.00208212 0
0.00949701 -0.00194206 0
0.00884483 -0.0018163 0
0.0082202 -0.0017039 0
0.00762247 -0.00160391 0
0.00705097 -0.00151528 0
0.006505 -0.00143697 0
0.0059838 -0.00136806 0
0.00548662 -0.00130772 0
0.00501265 -0.00125519 0
0.00456114 -0.00120954 0
0.00413136 -0.00116914 0
0.00372257 -0.00113251 0
0.00333398 -0.00109853 0
0.00296466 -0.00106798 0
0.00261363 -0.0010431 0
-0.052721 -0.0445996 0
-0.0508204 -0.0440823 0
-0.0489199 -0.0435651 0
-0.0470193 -0.0430478 0
-0.0451187 -0.0425306 0
-0.0432181 -0.0420134 0
-0.0413175 -0.0414961 0
-0.039417 -0.0409789 0
-0.0375164 -0.0404616 0
-0.0356158 -0.0399444 0
-0.0337152 -0.0394271 0
-0.0318146 -0.0389099 0
-0.0299141 -0.0383927 0
-0.0280135 -0.0378754 0
-0.0261129 -0.0373582 0
-0.0242123 -0.0368409 0
-0.0223117 -0.0363237 0
-0.0204112 -0.0358065 0
-0.0185106 -0.0352892 0
-0.01661 -0.034772 0
-0.0147094 -0.0342547 0
-0.0128088 -0.0337375 0
-0.0109083 -0.0332202 0
-0.00900769 -0.032703 0
-0.00710711 -0.0321858 0
-0.00520653 -0.0316685 0
-0.00330595 -0.0311513 0
-0.00140537 -0.030634 0
0.00190689 -0.0299614 0
0.00332271 -0.0298498 0
0.00474133 -0.0297825 0
0.00616136 -0.0297597 0
0.0075814 -0.0297814 0
0.00900007 -0.0298477 0
0.010416 -0.0299583 0
0.0118278 -0.0301127 0
0.0132342 -0.0303103 0
0.0146339 -0.0305504 0
0.0160259 -0.0308322 0
0.0174091 -0.0311546 0
0.0187824 -0.0315166 0
0.020145 -0.031917 0
0.0214961 -0.0323546 0
0.0228351 -0.032828 0
0.0241613 -0.0333361 0
0.0254744 -0.0338774 0
0.0267738 -0.0344507 0
0.0280592 -0.0350545 0
0.0293306 -0.0356877 0
0.0305875 -0.0363488 0
0.0318301 -0.0370367 0
0.0330581 -0.0377501 0
0.0342717 -0.0384879 0
0.0354708 -0.0392489 0
0.0366556 -0.0400321 0
0.0378262 -0.0408363 0
0.0389828 -0.0416607 0
0.0401254 -0.0425042 0
0.0412543 -0.0433659 0
0.0423698 -0.0442451 0
0.043472 -0.0451408 0
0.0445612 -0.0460523 0
0.0456375 -0.0469789 0
0.0467013 -0.0479199 0
0.0477529 -0.0488746 0
0.0487923 -0.0498424 0
0.04982 -0.0508227 0
0.0508362 -0.051815 0
0.051841 -0.0528187 0
0.0528348 -0.0538333 0
0.0538178 -0.0548584 0
0.0547903 -0.0558935 0
0.0557524 -0.0569382 0
0.0567045 -0.0579922 0
0.0576467 -0.0590549 0
0.0585792 -0.0601261 0
0.0595024 -0.0612055 0
0.0604163 -0.0622926 0
0.0613212 -0.0633873 0
0.0622174 -0.0644891 0
0.0631049 -0.0655979 0
0.0639841 -0.0667134 0
0.064855 -0.0678353 0
0.0657179 -0.0689633 0
0.0665729 -0.0700974 0
0.0674202 -0.0712372 0
0.06826 -0.0723826 0
0.0690925 -0.0735333 0
0.0699178 -0.0746892 0
0.070736 -0.0758501 0
0.0715473 -0.0770159 0
0.0723518 -0.0781863 0
0.0731498 -0.0793612 0
0.0739412 -0.0805405 0
0.0747264 -0.081724 0
0.0755053 -0.0829116 0
0.0762781 -0.0841033 0
0.0770449 -0.0852987 0
0.0778059 -0.0864979 0
0.0785611 -0.0877007 0
0.0793108 -0.088907 0
0.0814681 -0.0912706 0
0.0828814 -0.0924245 0
0.0842946 -0.0935783 0
0.0857079 -0.0947322 0
0.0871211 -0.095886 0
0.0885344 -0.0970399 0
0.0899476 -0.0981937 0
0.0913609 -0.0993476 0
0.0927741 -0.100501 0
0.0941874 -0.101655 0
0.0956006 -0.102809 0
0.0970139 -0.103963 0
0.0984272 -0.105117 0
0.0998404 -0.106271 0
0.101254 -0.107424 0
0.102667 -0.108578 0
0.10408 -0.109732 0
0.105493 -0.110886 0
0.106907 -0.11204 0
0.10832 -0.113194 0
0.109733 -0.114348 0
0.111146 -0.115501 0
0.11256 -0.116655 0
0.113973 -0.117809 0
0.115386 -0.118963 0
0.116799 -0.120117 0
0.118213 -0.121271 0
0.119626 -0.122424 0
0.121039 -0.123578 0
0.122452 -0.124732 0
0.123866 -0.125886 0
0.125279 -0.12704 0
0.126692 -0.128194 0
0.128105 -0.129348 0
0.129519 -0.130501 0
0.130932 -0.131655 0
0.132345 -0.132809 0
0.133758 -0.133963 0
0.135172 -0.133216 0
0.135172 -0.131316 0
0.135172 -0.129415 0
0.135172 -0.127514 0
0.135172 -0.125614 0
0.135172 -0.123713 0
0.135172 -0.121813 0
0.135172 -0.119912 0
0.135172 -0.118012 0
0.135172 -0.116111 0
0.135172 -0.11421 0
0.135172 -0.11231 0
0.135172 -0.110409 0
0.135172 -0.108509 0
0.135172 -0.106608 0
0.135172 -0.104708 0
0.135172 -0.102807 0
0.135172 -0.100906 0
0.135172 -0.0990058 0
0.135172 -0.0971052 0
0.135172 -0.0952046 0
0.135172 -0.0933041 0
0.135172 -0.0914035 0
0.135172 -0.0895029 0
0.135172 -0.0876023 0
0.135172 -0.0857017 0
0.135172 -0.0838012 0
0.135172 -0.0819006 0
0.133758 -0.0788462 0
0.132345 -0.0776923 0
0.130932 -0.0765385 0
0.129519 -0.0753846 0
0.128105 -0.0742308 0
0.126692 -0.0730769 0
0.125279 -0.0719231 0
0.123866 -0.0707692 0
0.122452 -0.0696154 0
0.121039 -0.0684615 0
0.119626 -0.0673077 0
0.118213 -0.0661538 0
0.116799 -0.065 0
0.115386 -0.0638462 0
0.113973 -0.0626923 0
0.11256 -0.0615385 0
0.111146 -0.0603846 0
0.109733 -0.0592308 0
0.10832 -0.0580769 0
0.106907 -0.0569231 0
0.105493 -0.0557692 0
0.10408 -0.0546154 0
0.102667 -0.0534615 0
0.101254 -0.0523077 0
0.0998404 -0.0511538 0
0.0984272 -0.05 0
0.0970139 -0.0488462 0
0.0956006 -0.0476923 0
[...]
CELL_DATA 13116
SCALARS rho float
LOOKUP_TABLE default
0.615453
0.694131
0.408448
0.692445
0.697368
0.687895
0.370586
0.695031
0.581864
0.697847
0.366936
0.409511
0.697213
0.392728
0.412351
0.688132
0.629566
0.705718
0.69478
0.365095
0.604186
0.430373
0.40414
0.703654
0.600218
0.691956
0.697924
0.416365
0.593041
0.663526
0.691018
0.411902
0.587362
0.544526
0.372955
0.611373
0.704462
0.694913
0.685181
0.692806
0.689848
0.694901
0.563856
0.398605
0.694604
0.695033
0.686953
0.694973
0.431048
0.573282
0.694467
0.559696
0.378315
0.624977
0.5879
0.596555
0.397979
0.703397
0.575915
0.42189
0.393216
0.695964
0.690206
0.685166
0.689812
0.381782
0.69146
0.709434
0.691916
0.688008
0.411811
0.589245
0.428773
0.391403
0.700203
0.387994
0.690611
0.696424
0.366502
0.707438
0.709103
0.690629
0.702532
0.697684
0.692057
0.515727
0.371233
0.701247
0.691675
0.366993
0.406995
0.694623
0.701717
0.69307
0.684207
0.610395
0.600607
0.6961
0.697698
0.594023
0.716468
0.679125
0.69177
0.525604
0.68509
0.421129
0.489903
0.57672
0.409821
0.595396
0.585406
0.688455
0.607509
0.709768
0.707105
0.691848
0.378929
0.501002
0.69606
0.692427
0.709349
0.432204
0.692103
0.406031
0.693202
0.528929
0.372703
0.561635
0.405379
0.572362
0.695795
0.703081
0.545068
0.431223
0.535601
0.659711
0.704371
0.692995
0.715136
0.692442
0.684536
0.687541
0.563229
0.684896
0.689527
0.40114
0.372683
0.690016
0.698655
0.694081
0.569397
0.697578
0.69454
0.375322
0.698591
0.692027
0.407764
0.719438
0.695855
0.699781
0.703702
0.366726
0.701812
0.406775
0.432041
0.695747
0.692534
0.70594
0.372109
0.525215
0.510607
0.704379
0.4105
0.558378
0.691715
0.404671
0.418867
0.429807
0.687935
0.685071
0.366283
0.520145
0.592948
0.704466
0.685284
0.576951
0.372479
0.691681
0.684486
0.542506
0.687578
0.689734
0.687048
0.410714
0.688072
0.686041
0.699875
0.691997
0.691458
0.491438
0.526828
0.596755
0.559513
0.394279
0.700343
0.698142
0.562281
0.614749
0.414045
0.366778
0.386352
0.69002
0.40919
0.36647
0.366868
0.376722
0.493018
0.684608
0.692994
0.511408
0.395316
0.691315
0.583796
0.366372
0.569047
0.696819
0.688915
0.416755
0.691654
0.49931
0.695039
0.411579
0.68669
0.584585
0.698439
0.692347
0.686094
0.43648
0.526913
0.694438
0.70213
0.685592
0.704356
0.685137
0.694989
0.420602
0.693811
0.697936
0.696701
0.369486
0.433192
0.698045
0.695473
0.688174
0.698116
0.61546
0.711403
0.366658
0.446003
0.49555
0.412592
0.683101
0.699956
0.689686
0.367548
0.692599
0.375097
0.512338
0.685375
0.369296
0.691062
0.694772
0.702717
0.703463
0.435186
0.703411
0.708264
0.696042
0.692992
0.365703
0.368445
0.411119
0.658023
0.430167
0.439509
0.480742
0.466088
0.694026
0.382831
0.691839
0.696131
0.368917
0.365347
0.373441
0.529636
0.417133
0.699101
0.676527
0.686875
0.368557
0.689407
0.583056
0.445209
0.421393
0.686095
0.695155
0.691696
0.373603
0.686443
0.530831
0.702849
0.694756
0.693751
0.694789
0.411258
0.691445
0.398485
0.69045
0.69688
0.679063
0.366215
0.479551
0.697557
0.373358
0.689743
0.695901
0.470651
0.713205
0.702658
0.370376
0.692717
0.701697
0.394916
0.695112
0.514097
0.577297
0.695824
0.516797
0.718927
0.367373
0.704527
0.483786
0.684768
0.679711
0.699709
0.416167
0.489668
0.69215
0.374787
0.699851
0.685474
0.517571
0.704364
0.372731
0.417766
0.699281
0.571771
0.708422
0.369539
0.40774
0.693732
0.696265
0.370824
0.695213
0.383461
0.424946
0.69226
0.695388
0.583698
0.367122
0.693444
0.690755
0.687962
0.692422
0.701746
0.570681
0.44294
0.4081
0.366124
0.687583
0.366256
0.593721
0.474977
0.409761
0.487329
0.585854
0.3665
0.373293
0.692637
0.395696
0.70136
0.593891
0.693687
0.679066
0.694102
0.418518
0.368137
0.497094
0.453522
0.700602
0.606233
0.691634
0.593867
0.690332
0.633946
0.690295
0.680833
0.660855
0.701976
0.708076
0.686942
0.498931
0.560309
0.614865
0.425048
0.675624
0.597343
0.377518
0.691723
0.703241
0.411433
0.365432
0.366565
0.370296
0.597399
0.390017
0.410909
0.690713
0.380553
0.585682
0.366963
0.688543
0.706621
0.421438
0.430484
0.699763
0.527691
0.367039
0.370076
0.367076
0.41013
0.368084
0.36558
0.437736
0.513773
0.366262
0.678653
0.43436
0.691675
0.471725
0.404416
0.540794
0.403981
0.36696
0.404924
0.692309
0.517938
0.601842
0.582257
0.379402
0.618268
0.691816
0.514599
0.713473
0.65017
0.654564
0.367602
0.697996
0.501896
0.701957
0.693888
0.411981
0.382785
0.684155
0.455241
0.515865
0.68005
0.489294
0.719666
0.690091
0.365554
0.415554
0.40234
0.556898
0.419071
0.388823
0.410164
0.397004
0.69477
0.694711
0.531833
0.594694
0.537046
0.68745
0.486362
0.386151
0.582727
0.412317
0.700722
0.462841
0.494459
0.543173
0.694673
0.692048
0.574949
0.468598
0.380725
0.573634
0.695015
0.686095
0.572391
0.685163
0.682847
0.366253
0.70644
0.583412
0.689177
0.472511
0.417623
0.71004
0.700389
0.672072
0.697
0.690586
0.692857
0.704193
0.680025
0.6932
0.36681
0.694355
0.486257
0.419049
0.366741
0.692743
0.697952
0.4741
0.691826
0.595902
0.366343
0.6854
0.695038
0.704196
0.41588
0.384454
0.697535
0.367076
0.367068
0.411808
0.366322
0.701075
0.39222
0.692253
0.433093
0.694439
0.694314
0.691257
0.696566
0.36707
0.365836
0.699123
0.694675
0.697456
0.694964
0.698139
0.534981
0.369421
0.413265
0.687861
0.578996
0.366579
0.527877
0.409455
0.694415
0.691871
0.472562
0.433072
0.691496
0.518842
0.693077
0.620037
0.403691
0.498948
0.694866
0.701703
0.407243
0.691647
0.692675
0.698775
0.384492
0.704368
0.394948
0.699244
0.684345
0.367129
0.490887
0.43894
0.698966
0.410133
0.36791
0.502436
0.685417
0.704134
0.367556
0.442983
0.366744
0.68562
0.430341
0.68561
0.399811
0.590145
0.696895
0.474851
0.405665
0.404542
0.535661
0.413604
0.691894
0.376566
0.393357
0.687188
0.392174
0.689941
0.688955
0.697687
0.366939
0.700437
0.701021
0.699881
0.688456
0.695209
0.692177
0.410336
0.687317
0.513025
0.699461
0.36557
0.694954
0.572458
0.374188
0.691003
0.699867
0.377848
0.679105
0.407996
0.409437
0.690521
0.692265
0.407885
0.404399
0.366852
0.410868
0.69474
0.703719
0.383097
0.365694
0.70014
0.692821
0.590928
0.701013
0.691624
0.366548
0.699398
0.512991
0.694458
0.503326
0.600651
0.531984
0.691289
0.709072
0.583505
0.483006
0.41469
0.692227
0.59237
0.616604
0.701254
0.40859
0.707587
0.698795
0.501639
0.559877
0.700511
0.472009
0.689323
0.697961
0.477643
0.692859
0.681664
0.414114
0.704987
0.410759
0.690969
0.393468
0.68977
0.689476
0.414797
0.685324
0.701588
0.69813
0.596296
0.704951
0.583902
0.456301
0.528213
0.393895
0.391283
0.70435
0.570365
0.692313
0.698846
0.366744
0.443649
0.704991
0.696561
0.699908
0.694731
0.365536
0.708286
0.697832
0.365119
0.400194
0.696395
0.697719
0.691416
0.413644
0.585194
0.42272
0.705577
0.688616
0.686398
0.695948
0.366493
0.701037
0.691766
0.701958
0.692276
0.687929
0.512073
0.701832
0.366806
0.683971
0.697685
0.52511
0.690904
0.685646
0.694217
0.534738
0.512632
0.584919
0.647086
0.367089
0.367084
0.369912
0.36635
0.695885
0.707688
0.685576
0.46716
0.366205
0.691867
0.718088
0.392698
0.446033
0.52869
0.702863
0.692005
0.692323
0.705878
0.366738
0.367095
0.704264
0.405934
0.366497
0.378901
0.689151
0.421841
0.367048
0.595327
0.699446
0.687719
0.686219
0.691137
0.378888
0.400563
0.368996
0.586435
0.518532
0.410239
0.708401
0.706781
0.691158
0.690398
0.413156
0.367013
0.697179
0.366945
0.68745
0.689249
0.693575
0.407933
0.367077
0.690345
0.691345
0.644476
0.39333
0.692424
0.686619
0.59468
0.694087
0.694761
0.704096
0.685011
0.365651
0.690953
0.689123
0.681793
0.70577
0.704371
0.688562
0.70385
0.692861
0.392646
0.40508
0.367017
0.690799
0.573854
0.366988
0.704713
0.700321
0.411697
0.682394
0.423774
0.687983
0.580805
0.435908
0.69607
0.704267
0.366688
0.566097
0.690325
0.398639
0.692957
0.386199
0.420111
0.631383
0.597775
0.540643
0.692389
0.370937
0.701784
0.413633
0.411256
0.689707
0.366515
0.610995
0.409743
0.683542
0.599877
0.703915
0.692179
0.408005
0.395841
0.681371
0.567654
0.700304
0.550536
0.607486
0.688125
0.702203
0.5699
0.594898
0.68789
0.699691
0.691752
0.485629
0.367081
0.563948
0.688075
0.699887
0.488138
0.691825
0.644298
0.495367
0.408612
0.685998
0.70378
0.704339
0.699921
0.680268
0.708616
0.685763
0.708579
0.410928
0.659319
0.527684
0.693158
0.697364
0.468063
0.69701
0.696955
0.407334
0.429945
0.373032
0.704371
0.366573
0.626487
0.703388
0.65728
0.458578
0.694036
0.395064
0.585809
0.685243
0.686399
0.707161
0.685646
0.602994
0.70903
0.582547
0.699082
0.393791
0.687301
0.691162
0.560981
0.703351
0.706946
0.411349
0.409583
0.399701
0.693811
0.367058
0.703708
0.36871
0.695058
0.384125
0.532191
0.407838
0.702284
0.694755
0.615862
0.455775
0.604807
0.68456
0.366804
0.591234
0.694393
0.410538
0.596806
0.693693
0.696959
0.687917
0.412555
0.575958
0.699716
0.694885
0.684427
0.36706
0.509384
0.693135
0.704322
0.702374
0.704372
0.598361
0.703086
0.59601
0.692803
0.367052
0.395421
0.704328
0.697586
0.685378
0.384169
0.687984
0.607703
0.643073
0.395723
0.506928
0.695328
0.69281
0.580775
0.449146
0.691478
0.702148
0.370398
0.598066
0.706112
0.370857
0.401671
0.400376
0.685353
0.435113
0.366826
0.692612
0.553655
0.699472
0.686319
0.372791
0.368554
0.695036
0.404514
0.390358
0.691114
0.425776
0.487524
0.597813
0.695228
0.701121
0.366295
0.428752
0.367593
0.689358
0.422217
0.700764
0.39164
0.704245
0.69435
0.693995
0.686282
0.701377
0.688247
0.691902
0.696634
0.699152
0.390194
0.367448
0.698351
0.685823
0.541977
0.686019
0.584963
0.685574
0.681113
0.420122
0.692179
0.695178
0.697492
0.370775
0.701601
0.421155
0.698182
0.535721
0.70649
0.688689
0.43658
0.701335
0.366649
0.5416
0.690491
0.380658
0.717921
0.704372
0.694946
0.371597
0.690746
0.366465
0.407466
0.40982
0.366882
0.680019
0.412348
0.68611
0.685225
0.451052
0.410971
0.533224
0.584688
0.645682
0.684871
0.366943
0.375887
0.370095
0.406797
0.45309
0.65711
0.689341
0.417367
0.684974
0.703595
0.398358
0.694915
0.71857
0.684895
0.368385
0.700362
0.704764
0.701275
0.693384
0.418649
0.701308
0.699945
0.701934
0.678429
0.685692
0.442825
0.4101
0.696909
0.56131
0.367113
0.689379
0.409007
0.577998
0.670241
0.690741
0.691148
0.408554
0.685785
0.49338
0.37086
0.711338
0.69855
0.699481
0.693835
0.698962
0.407509
0.696858
0.420136
0.541002
0.695761
0.698036
0.699836
0.369592
0.441427
0.697692
0.454696
0.697618
0.611356
0.517088
0.451611
0.692406
0.410173
0.688554
0.698059
0.69627
0.410073
0.406467
0.557605
0.581455
0.640095
0.546534
0.687618
0.684945
0.691884
0.704349
0.70459
0.374292
0.449105
0.696664
0.68548
0.683765
0.523876
0.392058
0.705738
0.407568
0.691762
0.595602
0.439287
0.701091
0.36584
0.694202
0.409641
0.698541
0.43208
0.699554
0.684852
0.401291
0.693209
0.648976
0.386073
0.68554
0.693986
0.585816
0.402532
0.485068
0.545169
0.70073
0.681691
0.442856
0.583635
0.704111
0.687073
0.459329
0.659606
0.693912
0.518238
0.68745
0.690514
0.467897
0.697614
0.694782
0.406171
0.613063
0.368429
0.68805
0.371501
0.421518
0.700589
0.366967
0.366795
0.405283
0.691221
0.691462
0.50429
0.692105
0.484864
0.699101
0.366497
0.692822
0.477954
0.688596
0.696493
0.69188
0.685482
0.567318
0.684849
0.684912
0.413475
0.604776
0.694542
0.595367
0.704504
0.535875
0.518964
0.696957
0.366381
0.585588
0.424709
0.691607
0.388604
0.410675
0.70449
0.691567
0.365572
0.692879
0.707242
0.704356
0.694715
0.700645
0.36576
0.695113
0.36613
0.40858
0.692313
0.705077
0.694964
0.691687
0.411874
0.373183
0.367865
0.694204
0.685228
0.483834
0.695554
0.382022
0.37254
0.389884
0.691776
0.50327
0.696606
0.699397
0.602843
0.692274
0.69938
0.598777
0.688027
0.513806
0.392846
0.36564
0.699916
0.701315
0.386162
0.660105
0.684991
0.689078
0.411838
0.537375
0.685656
0.449139
0.684415
0.677129
0.366328
0.684448
0.696516
0.367044
0.701066
0.388361
0.692163
0.699257
0.701269
0.409192
0.524576
0.717212
0.472012
0.515565
0.692274
0.475146
0.684551
0.691651
0.690707
0.707336
0.445584
0.692238
0.711511
0.694713
0.492658
0.694379
0.419787
0.399008
0.69302
0.692025
0.684908
0.421766
0.68922
0.601672
0.700304
0.377683
0.383372
0.367052
0.693288
0.369228
0.392186
0.41214
0.676501
0.390966
0.467026
0.515486
0.700441
0.366797
0.685551
0.684523
0.692599
0.372803
0.696069
0.672982
0.685223
0.508279
0.674244
0.373679
0.366461
0.690634
0.365459
0.67066
0.704991
0.704225
0.366743
0.480256
0.376215
0.572864
0.704371
0.423205
0.695432
0.691063
0.706216
0.366647
0.417584
0.485269
0.682026
0.366854
0.704374
0.593773
0.68455
0.693476
0.365809
0.678843
0.41001
0.675429
0.613837
0.696768
0.671747
0.598708
0.687565
0.684433
0.696425
0.367296
0.470263
0.38385
0.706888
0.580206
0.697287
0.366684
0.506805
0.702147
0.696685
0.687232
0.365569
0.69275
0.572074
0.574865
0.682011
0.412094
0.365657
0.468495
0.692017
0.685553
0.671181
0.687108
0.483365
0.695241
0.651628
0.68536
0.685368
0.694856
0.695375
0.686659
0.704973
0.699979
0.412625
0.69393
0.693966
0.687578
0.69525
0.692142
0.658433
0.366349
0.422001
0.682545
0.36707
0.447435
0.692784
0.402905
0.601066
0.691605
0.692723
0.697779
0.412056
0.693055
0.409788
0.391358
0.687054
0.702628
0.690484
0.375297
0.694875
0.692415
0.682437
0.691531
0.425489
0.686607
0.697609
0.697652
0.492127
0.704186
0.367034
0.69172
0.384862
0.366502
0.630234
0.525343
0.696182
0.702561
0.68752
0.41019
0.686282
0.506334
0.40627
0.69057
0.532799
0.367042
0.690162
0.431749
0.545723
0.707624
0.686898
0.691104
0.534274
0.589514
0.68707
0.686887
0.660271
0.699294
0.562165
0.695243
0.686707
0.669038
0.412986
0.366574
0.523404
0.693914
0.411451
0.695164
0.693031
0.607927
0.687223
0.603094
0.715578
0.708864
0.368397
0.692778
0.685042
0.601742
0.685259
0.69723
0.69195
0.68606
0.366674
0.39781
0.70016
0.581915
0.599961
0.69278
0.69862
0.692072
0.7004
0.699374
0.630005
0.684546
0.696941
0.399684
0.419385
0.391084
0.432441
0.703583
0.535426
0.595503
0.701178
0.709494
0.409848
0.698414
0.691598
0.376695
0.496516
0.703083
0.693538
0.413804
0.415423
0.411693
0.704354
0.691667
0.494813
0.374404
0.36618
0.42837
0.466274
0.367102
0.695492
0.695959
0.705385
0.367991
0.692914
0.640317
0.594469
0.458166
0.365166
0.690491
0.704365
0.367021
0.688293
0.367016
0.703986
0.41244
0.692576
0.366814
0.691363
0.695314
0.371805
0.575598
0.452206
0.694922
0.424916
0.650743
0.408015
0.567416
0.373352
0.646424
0.36675
0.686295
0.686534
0.594451
0.700879
0.460002
0.692745
0.685103
0.695085
0.634463
0.700071
0.365297
0.53549
0.384407
0.701382
0.463551
0.697078
0.572185
0.705377
0.696841
0.578283
0.701625
0.406964
0.389791
0.399409
0.565424
0.640383
0.699116
0.368294
0.436425
0.689337
0.502394
0.410461
0.656621
0.495074
0.367044
0.421479
0.694831
0.624725
0.655264
0.399696
0.691764
0.692062
0.406753
0.481581
0.691803
0.690468
0.675186
0.54857
0.50982
0.493096
0.373823
0.694443
0.681746
0.580295
0.712013
0.418131
0.594987
0.365938
0.689813
0.696528
0.365614
0.452975
0.683212
0.653364
0.696304
0.699793
0.700081
0.69326
0.696042
0.378732
0.4277
0.385156
0.365627
0.617919
0.69277
0.628463
0.365544
0.366784
0.549625
0.403242
0.692565
0.686673
0.366812
0.470193
0.691474
0.406721
0.687559
0.701294
0.689803
0.686392
0.611606
0.367071
0.367937
0.683611
0.365788
0.533502
0.500953
0.685733
0.692214
0.461628
0.36642
0.704347
0.366763
0.69174
0.701389
0.366966
0.407782
0.382072
0.69188
0.379738
0.704372
0.705924
0.614599
0.41286
0.55955
0.697169
0.694079
0.368459
0.694231
0.683057
0.404245
0.697001
0.693983
0.368828
0.367044
0.690207
0.367252
0.365463
0.6939
0.4885
0.697003
0.716465
0.702366
0.685048
0.697737
0.691385
0.68492
0.368214
0.507191
0.686031
0.70133
0.523734
0.695182
0.47571
0.692717
0.691256
0.590058
0.67228
0.534802
0.529426
0.69871
0.69841
0.686318
0.695171
0.69051
0.704029
0.694681
0.704355
0.694938
0.690841
0.694403
0.704351
0.685023
0.399085
0.690878
0.412399
0.692352
0.693559
0.703496
0.688003
0.708295
0.40483
0.375298
0.474067
0.367712
0.689465
0.365677
0.369099
0.708701
0.413621
0.705399
0.372881
0.693457
0.70097
0.366926
0.50185
0.441474
0.693476
0.396768
0.699036
0.701641
0.378477
0.690214
0.576957
0.453815
0.415058
0.405551
0.711948
0.367072
0.69275
0.603681
0.455725
0.692764
0.690423
0.70027
0.36702
0.596692
0.409205
0.693565
0.686277
0.691932
0.36707
0.701322
0.692865
0.687132
0.511041
0.693509
0.367085
0.366327
0.692394
0.533496
0.698149
0.526933
0.367064
0.51729
0.687759
0.410801
0.395241
0.395152
0.578609
0.698917
0.700987
0.394075
0.632283
0.691171
0.572021
0.552853
0.436186
0.577695
0.367127
0.365801
0.696373
0.366442
0.366953
0.693953
0.694266
0.3784
0.706317
0.379785
0.703571
0.417523
0.69105
0.687585
0.707551
0.684376
0.416983
0.365932
0.410357
0.687182
0.69058
0.588769
0.577044
0.497329
0.471539
0.686384
0.367784
0.696732
0.497475
0.686799
0.710167
0.369761
0.401897
0.366398
0.366369
0.405826
0.683107
0.690357
0.366756
0.695583
0.66161
0.458233
0.408028
0.693974
0.367008
0.700019
0.512048
0.707019
0.682235
0.695757
0.697838
0.401719
0.699187
0.692363
0.694645
0.366995
0.682319
0.592067
0.445606
0.693733
0.689946
0.695999
0.691769
0.696163
0.692429
0.694824
0.688212
0.694057
0.366821
0.701237
0.366418
0.555091
0.692304
0.410697
0.692375
0.683368
0.434469
0.687004
0.36701
0.406914
0.692371
0.681556
0.694403
0.366677
0.691494
0.600584
0.41729
0.367469
0.692889
0.691982
0.497619
0.40256
0.703922
0.694492
0.367091
0.668256
0.695646
0.625492
0.374141
0.367073
0.411075
0.682741
0.433589
0.694806
0.707321
0.686599
0.655068
0.699906
0.366701
0.691335
0.59642
0.695389
0.671635
0.410712
0.368687
0.419762
0.703288
0.700607
0.510346
0.678566
0.429705
0.692462
0.692306
0.410343
0.682751
0.695145
0.634689
0.368686
0.368117
0.433302
0.698158
0.698091
0.600158
0.548667
0.697806
0.366996
0.633807
0.702185
0.701581
0.36943
0.597772
0.437122
0.684749
0.423913
0.699265
0.692594
0.397755
0.69721
0.563178
0.704338
0.685203
0.704378
0.693608
0.524755
0.685888
0.690245
0.692144
0.699402
0.529262
0.70322
0.387255
0.690903
0.417809
0.366327
0.427035
0.404292
0.367118
0.368007
0.695511
0.494501
0.395274
0.700352
0.697095
0.69081
0.499568
0.709279
0.71252
0.685895
0.418361
0.671408
0.691511
0.437269
0.40479
0.36603
0.640116
0.543909
0.366925
0.663459
0.411532
0.697805
0.540988
0.375552
0.530508
0.669997
0.437562
0.691876
0.41322
0.592844
0.496401
0.6943
0.500294
0.697649
0.702282
0.683363
0.553176
0.366191
0.694739
0.695185
0.408345
0.407295
0.687889
0.366224
0.70451
0.368146
0.576537
0.418276
0.691369
0.427203
0.695313
0.366205
0.692393
0.698492
0.697821
0.703723
0.386853
0.408173
0.496344
0.692352
0.708766
0.687516
0.644921
0.43319
0.702354
0.437304
0.690274
0.679515
0.519624
0.453127
0.701138
0.698638
0.407838
0.69029
0.695494
0.700292
0.702248
0.415523
0.635336
0.366715
0.699815
0.435082
0.684513
0.689943
0.695611
0.695
0.457696
0.692583
0.366946
0.369789
0.691657
0.702722
0.58495
0.699958
0.703443
0.366977
0.705174
0.693928
0.694793
0.407932
0.519865
0.711625
0.366143
0.69305
0.693204
0.69301
0.694205
0.458945
0.543869
0.650957
0.400373
0.691204
0.69427
0.555659
0.692273
0.458813
0.683918
0.704962
0.717558
0.693012
0.368275
0.411106
0.699297
0.693555
0.428865
0.466022
0.422352
0.405046
0.394437
0.392784
0.418026
0.367103
0.699809
0.417274
0.374507
0.70459
0.585556
0.70434
0.505802
0.3666
0.691561
0.547097
0.585092
0.698556
0.49668
0.666636
0.6857
0.595735
0.693787
0.396127
0.700608
0.684868
0.384161
0.366242
0.521169
0.682971
0.596078
0.696436
0.688646
0.701912
0.695417
0.468488
0.698552
0.684804
0.694064
0.366527
0.691566
0.676868
0.464969
0.519109
0.380997
0.40811
0.394776
0.598219
0.709204
0.699176
0.365878
0.504952
0.695416
0.406439
0.702418
0.690822
0.693283
0.718024
0.696951
0.434071
0.408928
0.41178
0.599615
0.432687
0.694001
0.412829
0.690953
0.687695
0.694011
0.428988
0.540667
0.521448
0.699025
0.39742
0.36604
0.692885
0.693533
0.682003
0.688185
0.69308
0.704643
0.367091
0.597953
0.698368
0.557595
0.699671
0.701883
0.703013
0.519182
0.508869
0.694803
0.539399
0.660823
0.366764
0.688891
0.692518
0.492987
0.433857
0.693162
0.560797
0.698514
0.702665
0.367088
0.365334
0.694763
0.551084
0.50579
0.692121
0.692752
0.440095
0.693868
0.693908
0.688206
0.367088
0.59768
0.367085
0.692111
0.696458
0.704426
0.698303
0.692691
0.467429
0.480977
0.703283
0.366798
0.594672
0.451095
0.69598
0.399372
0.685201
0.698692
0.695942
0.367069
0.70438
0.700698
0.365856
0.68909
0.407609
0.694647
0.367052
0.368093
0.407247
0.705493
0.693514
0.480928
0.472168