# vtk DataFile Version 1.0
unstructured grid
ascii
DATASET UNSTRUCTURED_GRID
points 13672 float
0.0796578 -0.059106 0
0.00128732 0.00159165 0
0.00227961 -0.00102548 0
0.0791586 -0.0598787 0
-0.0546216 0.01 0
0.000495206 0.025 0
0.0800549 -0.035 0
0.135172 -0.08 0
-0.0546216 -0.0451168 0
0.000495206 -0.0301168 0
0.0800549 -0.0901168 0
0.135172 -0.135117 0
-0.0546216 -0.0451168 -0.00551168
0.000495206 -0.0301168 -0.00551168
0.0800549 -0.0901168 -0.00551168
0.135172 -0.135117 -0.00551168
0.135172 -0.08 -0.00551168
0.0800549 -0.035 -0.00551168
0.000495206 0.025 -0.00551168
-0.0546216 0.01 -0.00551168
0.00128732 0.00159165 -0.00551168
0.00227961 -0.00102548 -0.00551168
0.0791586 -0.0598787 -0.00551168
0.0796578 -0.059106 -0.00551168
0.00165953 -0.000990923 0
0.00119576 -0.000874076 0
0.000866021 -0.000641801 0
0.000645147 -0.000349912 0
0.00052235 -1.7281e-05 0
0.00049972 0.000348016 0
0.000601632 0.000737716 0
0.000861774 0.0011403 0
0.00157235 0.00183217 0
0.00188647 0.00206725 0
0.00222612 0.00230203 0
0.00258713 0.00254351 0
0.00296826 0.00279524 0
0.00337118 0.00305664 0
0.00379785 0.00332658 0
0.00425045 0.00360349 0
0.00473139 0.00388521 0
0.0052432 0.00416895 0
0.0057881 0.00445204 0
0.00636753 0.00473281 0
0.00698281 0.00500961 0
0.00763526 0.00528058 0
0.00832616 0.00554366 0
0.00905691 0.00579603 0
0.00982918 0.00603333 0
0.0106445 0.00625033 0
0.0115038 0.00644128 0
0.0124073 0.00660297 0
0.0133543 0.00673414 0
0.0143444 0.00683382 0
0.0153769 0.00690031 0
0.0164512 0.00693173 0
0.0175666 0.00692547 0
0.0187219 0.00687822 0
0.0199156 0.00678477 0
0.0211454 0.00663864 0
0.0224084 0.00643275 0
0.0237018 0.00616676 0
0.0250249 0.00584739 0
0.026375 0.00547298 0
0.0277479 0.00503752 0
0.0291386 0.00453545 0
0.0305433 0.0039653 0
0.0319572 0.0033256 0
0.0333681 0.00260019 0
0.034775 0.00179799 0
0.0361793 0.000930615 0
0.0375798 3.12222e-06 0
0.0389689 -0.000988429 0
0.0403357 -0.00205109 0
0.041675 -0.00318283 0
0.0429849 -0.00437751 0
0.0442643 -0.00562904 0
0.0455126 -0.00693089 0
0.0467314 -0.00827518 0
0.0479204 -0.00965638 0
0.0490661 -0.0110799 0
0.0501515 -0.0125519 0
0.0511696 -0.0140695 0
0.0521492 -0.0156071 0
0.0531202 -0.0171411 0
0.0540851 -0.0186663 0
0.0550431 -0.0201798 0
0.0559923 -0.0216793 0
0.0569311 -0.0231626 0
0.0578582 -0.0246273 0
0.0587723 -0.0260715 0
0.0596721 -0.027493 0
0.0605563 -0.02889 0
0.0614241 -0.0302609 0
0.0622742 -0.0316042 0
0.063106 -0.0329183 0
0.0639186 -0.034202 0
0.0647113 -0.0354543 0
0.0654835 -0.0366743 0
0.0662345 -0.0378613 0
0.0669642 -0.0390145 0
0.0676726 -0.0401333 0
0.0683597 -0.0412172 0
0.0690246 -0.0422665 0
0.0696662 -0.0432819 0
0.0702841 -0.0442636 0
0.0708793 -0.0452111 0
0.0714538 -0.0461237 0
0.072009 -0.047001 0
0.0725452 -0.0478434 0
0.0730611 -0.0486524 0
0.073556 -0.0494294 0
0.0740291 -0.0501756 0
0.0744812 -0.0508916 0
0.0749138 -0.0515773 0
0.0753285 -0.0522331 0
0.0757266 -0.0528592 0
0.076109 -0.0534564 0
0.0764753 -0.0540264 0
0.0768243 -0.054571 0
0.0771553 -0.0550919 0
0.0774679 -0.0555901 0
0.0777617 -0.0560669 0
0.0780369 -0.056523 0
0.0782958 -0.0569578 0
0.0785421 -0.0573703 0
0.0787786 -0.0577603 0
0.0790073 -0.0581279 0
0.0792295 -0.058474 0
0.0794462 -0.0587995 0
0.0798803 -0.0594162 0
0.0800272 -0.0596588 0
0.0800357 -0.0598891 0
0.0799275 -0.0600784 0
0.0797205 -0.0601773 0
0.0794593 -0.0601051 0
0.0789155 -0.0596491 0
0.0786707 -0.0593963 0
0.0784111 -0.0591319 0
0.0781372 -0.0588542 0
0.0778566 -0.0585548 0
0.0775715 -0.0582308 0
0.0772803 -0.0578828 0
0.0769832 -0.0575099 0
0.0766822 -0.0571097 0
0.0763801 -0.0566796 0
0.0760759 -0.0562196 0
0.0757623 -0.0557337 0
0.0754359 -0.0552232 0
0.0750951 -0.0546879 0
0.0747379 -0.054128 0
0.0743626 -0.0535435 0
0.0739688 -0.0529338 0
0.0735559 -0.0522981 0
0.0731238 -0.0516357 0
0.0726718 -0.050946 0
0.0721991 -0.0502288 0
0.0717046 -0.049484 0
0.0711872 -0.0487117 0
0.0706461 -0.047912 0
0.0700804 -0.0470849 0
0.0694892 -0.0462308 0
0.0688718 -0.0453499 0
0.0682271 -0.0444431 0
0.0675544 -0.043511 0
0.0668527 -0.0425546 0
0.0661215 -0.0415748 0
0.06536 -0.040573 0
0.0645676 -0.0395504 0
0.0637439 -0.0385087 0
0.0628887 -0.0374493 0
0.062002 -0.0363741 0
0.0610838 -0.0352847 0
0.0601345 -0.0341831 0
0.0591547 -0.033071 0
0.0581456 -0.0319502 0
0.0571083 -0.0308224 0
0.0560444 -0.0296893 0
0.0549562 -0.028552 0
0.053845 -0.0274126 0
0.0527113 -0.0262746 0
0.051554 -0.0251427 0
0.0503724 -0.0240222 0
0.0491675 -0.0229164 0
0.047941 -0.0218282 0
0.0466955 -0.0207597 0
0.0454337 -0.0197126 0
0.0441592 -0.0186878 0
0.0428751 -0.0176863 0
0.0415841 -0.0167097 0
0.0402878 -0.0157609 0
0.0389879 -0.0148428 0
0.0376864 -0.0139575 0
0.0363853 -0.013107 0
0.0350871 -0.0122931 0
0.0337942 -0.0115164 0
0.0325095 -0.0107772 0
0.0312357 -0.0100756 0
0.0299758 -0.00941024 0
0.0287337 -0.00877784 0
0.0275126 -0.00817571 0
0.0263139 -0.00760375 0
0.0251376 -0.00706528 0
0.0239829 -0.0065649 0
0.0228537 -0.00609619 0
0.0217522 -0.00565563 0
0.0206795 -0.00524226 0
0.0196364 -0.00485507 0
0.0186233 -0.00449318 0
0.0176408 -0.00415577 0
0.016689 -0.00384204 0
0.0157682 -0.00355115 0
0.0148783 -0.00328218 0
0.0140192 -0.00303468 0
0.0131906 -0.00280795 0
0.0123925 -0.00260016 0
0.0116246 -0.00241012 0
0.0108864 -0.00223769 0
0.0101774 -0.00208212 0
0.00949701 -0.00194206 0
0.00884483 -0.0018163 0
0.0082202 -0.0017039 0
0.00762247 -0.00160391 0
0.00705097 -0.00151528 0
0.006505 -0.00143697 0
0.0059838 -0.00136806 0
0.00548662 -0.00130772 0
0.00501265 -0.00125519 0
0.00456114 -0.00120954 0
0.00413136 -0.00116914 0
0.00372257 -0.00113251 0
0.00333398 -0.00109853 0
0.00296466 -0.00106798 0
0.00261363 -0.0010431 0
-0.052721 -0.0445996 0
-0.0508204 -0.0440823 0
-0.0489199 -0.0435651 0
-0.0470193 -0.0430478 0
-0.0451187 -0.0425306 0
-0.0432181 -0.0420134 0
-0.0413175 -0.0414961 0
-0.039417 -0.0409789 0
-0.0375164 -0.0404616 0
-0.0356158 -0.0399444 0
-0.0337152 -0.0394271 0
-0.0318146 -0.0389099 0
-0.0299141 -0.0383927 0
-0.0280135 -0.0378754 0
-0.0261129 -0.0373582 0
-0.0242123 -0.0368409 0
-0.0223117 -0.0363237 0
-0.0204112 -0.0358065 0
-0.0185106 -0.0352892 0
-0.01661 -0.034772 0
-0.0147094 -0.0342547 0
-0.0128088 -0.0337375 0
-0.0109083 -0.0332202 0
-0.00900769 -0.032703 0
-0.00710711 -0.0321858 0
-0.00520653 -0.0316685 0
-0.00330595 -0.0311513 0
-0.00140537 -0.030634 0
0.00190689 -0.0299614 0
0.00332271 -0.0298498 0
0.00474133 -0.0297825 0
0.00616136 -0.0297597 0
0.0075814 -0.0297814 0
0.00900007 -0.0298477 0
0.010416 -0.0299583 0
0.0118278 -0.0301127 0
0.0132342 -0.0303103 0
0.0146339 -0.0305504 0
0.0160259 -0.0308322 0
0.0174091 -0.0311546 0
0.0187824 -0.0315166 0
0.020145 -0.031917 0
0.0214961 -0.0323546 0
0.0228351 -0.032828 0
0.0241613 -0.0333361 0
0.0254744 -0.0338774 0
0.0267738 -0.0344507 0
0.0280592 -0.0350545 0
0.0293306 -0.0356877 0
0.0305875 -0.0363488 0
0.0318301 -0.0370367 0
0.0330581 -0.0377501 0
0.0342717 -0.0384879 0
0.0354708 -0.0392489 0
0.0366556 -0.0400321 0
0.0378262 -0.0408363 0
0.0389828 -0.0416607 0
0.0401254 -0.0425042 0
0.0412543 -0.0433659 0
0.0423698 -0.0442451 0
0.043472 -0.0451408 0
0.0445612 -0.0460523 0
0.0456375 -0.0469789 0
0.0467013 -0.0479199 0
0.0477529 -0.0488746 0
0.0487923 -0.0498424 0
0.04982 -0.0508227 0
0.0508362 -0.051815 0
0.051841 -0.0528187 0
0.0528348 -0.0538333 0
0.0538178 -0.0548584 0
0.0547903 -0.0558935 0
0.0557524 -0.0569382 0
0.0567045 -0.0579922 0
0.0576467 -0.0590549 0
0.0585792 -0.0601261 0
0.0595024 -0.0612055 0
0.0604163 -0.0622926 0
0.0613212 -0.0633873 0
0.0622174 -0.0644891 0
0.0631049 -0.0655979 0
0.0639841 -0.0667134 0
0.064855 -0.0678353 0
0.0657179 -0.0689633 0
0.0665729 -0.0700974 0
0.0674202 -0.0712372 0
0.06826 -0.0723826 0
0.0690925 -0.0735333 0
0.0699178 -0.0746892 0
0.070736 -0.0758501 0
0.0715473 -0.0770159 0
0.0723518 -0.0781863 0
0.0731498 -0.0793612 0
0.0739412 -0.0805405 0
0.0747264 -0.081724 0
0.0755053 -0.0829116 0
0.0762781 -0.0841033 0
0.0770449 -0.0852987 0
0.0778059 -0.0864979 0
0.0785611 -0.0877007 0
0.0793108 -0.088907 0
0.0814681 -0.0912706 0
0.0828814 -0.0924245 0
0.0842946 -0.0935783 0
0.0857079 -0.0947322 0
0.0871211 -0.095886 0
0.0885344 -0.0970399 0
0.0899476 -0.0981937 0
0.0913609 -0.0993476 0
0.0927741 -0.100501 0
0.0941874 -0.101655 0
0.0956006 -0.102809 0
0.0970139 -0.103963 0
0.0984272 -0.105117 0
0.0998404 -0.106271 0
0.101254 -0.107424 0
0.102667 -0.108578 0
0.10408 -0.109732 0
0.105493 -0.110886 0
0.106907 -0.11204 0
0.10832 -0.113194 0
0.109733 -0.114348 0
0.111146 -0.115501 0
0.11256 -0.116655 0
0.113973 -0.117809 0
0.115386 -0.118963 0
0.116799 -0.120117 0
0.118213 -0.121271 0
0.119626 -0.122424 0
0.121039 -0.123578 0
0.122452 -0.124732 0
0.123866 -0.125886 0
0.125279 -0.12704 0
0.126692 -0.128194 0
0.128105 -0.129348 0
0.129519 -0.130501 0
0.130932 -0.131655 0
0.132345 -0.132809 0
0.133758 -0.133963 0
0.135172 -0.133216 0
0.135172 -0.131316 0
0.135172 -0.129415 0
0.135172 -0.127514 0
0.135172 -0.125614 0
0.135172 -0.123713 0
0.135172 -0.121813 0
0.135172 -0.119912 0
0.135172 -0.118012 0
0.135172 -0.116111 0
0.135172 -0.11421 0
0.135172 -0.11231 0
0.135172 -0.110409 0
0.135172 -0.108509 0
0.135172 -0.106608 0
0.135172 -0.104708 0
0.135172 -0.102807 0
0.135172 -0.100906 0
0.135172 -0.0990058 0
0.135172 -0.0971052 0
0.135172 -0.0952046 0
0.135172 -0.0933041 0
0.135172 -0.0914035 0
0.135172 -0.0895029 0
0.135172 -0.0876023 0
0.135172 -0.0857017 0
0.135172 -0.0838012 0
0.135172 -0.0819006 0
0.133758 -0.0788462 0
0.132345 -0.0776923 0
0.130932 -0.0765385 0
0.129519 -0.0753846 0
0.128105 -0.0742308 0
0.126692 -0.0730769 0
0.125279 -0.0719231 0
0.123866 -0.0707692 0
0.122452 -0.0696154 0
0.121039 -0.0684615 0
0.119626 -0.0673077 0
0.118213 -0.0661538 0
0.116799 -0.065 0
0.115386 -0.0638462 0
0.113973 -0.0626923 0
0.11256 -0.0615385 0
0.111146 -0.0603846 0
0.109733 -0.0592308 0
0.10832 -0.0580769 0
0.106907 -0.0569231 0
0.105493 -0.0557692 0
0.10408 -0.0546154 0
0.102667 -0.0534615 0
0.101254 -0.0523077 0
0.0998404 -0.0511538 0
0.0984272 -0.05 0
0.0970139 -0.0488462 0
0.0956006 -0.0476923 0
[...]
CELL_DATA 13116
SCALARS rho float
LOOKUP_TABLE default
0.549299
0.656687
0.354546
0.7109
0.698963
0.678831
0.388876
0.699195
0.527335
0.704108
0.382934
0.371431
0.699258
0.4088
0.384084
0.678927
0.517723
0.694703
0.676846
0.397756
0.554298
0.394028
0.385535
0.696638
0.608129
0.618339
0.704147
0.351278
0.606858
0.644572
0.677558
0.374995
0.555361
0.446869
0.385335
0.551903
0.663026
0.670511
0.678433
0.678617
0.678297
0.703335
0.42589
0.346685
0.675164
0.676668
0.631822
0.680743
0.39014
0.523084
0.695545
0.442112
0.391345
0.510806
0.554011
0.58463
0.34462
0.693238
0.536345
0.385065
0.409978
0.705797
0.646378
0.678367
0.67771
0.383689
0.681804
0.67005
0.683302
0.677804
0.385958
0.586127
0.389983
0.344755
0.677218
0.366694
0.64098
0.692934
0.383739
0.691758
0.676294
0.628289
0.696769
0.680574
0.664343
0.449501
0.397865
0.667383
0.656778
0.380278
0.366458
0.658492
0.699245
0.66124
0.647528
0.597669
0.610633
0.677514
0.677329
0.59773
0.677166
0.584958
0.677721
0.407187
0.612042
0.41016
0.358713
0.473693
0.353301
0.617051
0.502913
0.623828
0.595788
0.680028
0.692353
0.681927
0.406831
0.388076
0.688931
0.683272
0.670474
0.387451
0.683753
0.374074
0.653319
0.438321
0.39874
0.509801
0.339419
0.524698
0.689227
0.681611
0.503061
0.395943
0.482866
0.583884
0.676616
0.686512
0.676256
0.682919
0.624517
0.635358
0.508188
0.625266
0.642199
0.396343
0.384369
0.618562
0.696535
0.690285
0.544259
0.67991
0.680635
0.376778
0.700526
0.665722
0.379354
0.682813
0.67754
0.667713
0.6958
0.384641
0.695098
0.373285
0.38331
0.703317
0.650788
0.694235
0.386311
0.465052
0.421533
0.676578
0.389324
0.492721
0.680875
0.389746
0.38897
0.391492
0.619603
0.678509
0.384116
0.431721
0.523716
0.663507
0.678584
0.534043
0.360692
0.677763
0.597423
0.460862
0.634836
0.616404
0.677871
0.386689
0.612665
0.67889
0.70084
0.677321
0.655472
0.40488
0.407102
0.622209
0.504387
0.369604
0.690942
0.67534
0.451135
0.60786
0.401992
0.382062
0.363662
0.680411
0.375749
0.395388
0.37637
0.375362
0.367263
0.677972
0.649515
0.436272
0.344741
0.681579
0.496731
0.385349
0.556522
0.704839
0.639794
0.368718
0.681071
0.391251
0.704939
0.371157
0.677838
0.576028
0.677424
0.670454
0.67794
0.378413
0.431165
0.667657
0.677194
0.678772
0.676722
0.677821
0.690844
0.391673
0.690535
0.701375
0.677331
0.383274
0.392549
0.677026
0.688155
0.677743
0.684209
0.535394
0.683167
0.382038
0.400782
0.399126
0.402782
0.593866
0.700627
0.639609
0.3883
0.672931
0.350278
0.433284
0.614415
0.384511
0.622082
0.699757
0.677044
0.692903
0.380754
0.677012
0.681602
0.677338
0.686374
0.380139
0.403936
0.380466
0.579073
0.387153
0.396076
0.332537
0.306278
0.664277
0.391983
0.663549
0.699552
0.361868
0.389842
0.353745
0.453249
0.350027
0.66598
0.584854
0.618565
0.384689
0.680155
0.589046
0.402627
0.384331
0.678367
0.688056
0.677452
0.357797
0.678986
0.414995
0.680815
0.703772
0.688605
0.702637
0.385229
0.681126
0.400298
0.67857
0.705066
0.668554
0.387706
0.332183
0.701965
0.376058
0.646342
0.705674
0.364415
0.68593
0.696474
0.385795
0.672719
0.699172
0.395463
0.690764
0.451469
0.57686
0.671304
0.458172
0.683104
0.390522
0.69448
0.344108
0.677893
0.574419
0.701945
0.369285
0.357515
0.665811
0.381018
0.689856
0.603742
0.42166
0.676654
0.370439
0.385283
0.686913
0.556808
0.668419
0.404023
0.375807
0.690282
0.699358
0.384008
0.697547
0.416474
0.407821
0.681227
0.67828
0.461154
0.398944
0.686699
0.677693
0.679014
0.671145
0.692381
0.544451
0.325047
0.399406
0.380354
0.678969
0.381289
0.521647
0.369878
0.380214
0.351532
0.470728
0.14363
0.381329
0.667066
0.325668
0.695863
0.606459
0.678542
0.659227
0.691488
0.385373
0.401453
0.411835
0.334022
0.686921
0.591649
0.678147
0.607066
0.643985
0.618966
0.626548
0.620929
0.641755
0.690903
0.691227
0.678599
0.405825
0.459348
0.545224
0.392309
0.580907
0.582974
0.392419
0.681634
0.677114
0.382936
0.392993
0.383644
0.366999
0.632005
0.387387
0.386458
0.680798
0.350529
0.575614
0.381632
0.678397
0.675608
0.34073
0.396259
0.686403
0.454803
0.380621
0.364882
0.394583
0.356871
0.404033
0.394089
0.393978
0.433028
0.379931
0.581184
0.367563
0.662692
0.378331
0.398812
0.505966
0.397119
0.378766
0.391169
0.675754
0.438983
0.64155
0.476653
0.356545
0.610373
0.659428
0.448723
0.685508
0.620139
0.618717
0.394139
0.677446
0.389688
0.693509
0.677499
0.370607
0.396761
0.596129
0.338808
0.459888
0.577265
0.357746
0.68185
0.644921
0.379019
0.384825
0.389496
0.488267
0.382916
0.394557
0.388314
0.400814
0.706675
0.707878
0.459766
0.600876
0.48202
0.613222
0.354421
0.387528
0.531779
0.371154
0.680506
0.294198
0.371853
0.498765
0.674431
0.645833
0.563186
0.362474
0.396451
0.572671
0.699761
0.678003
0.56884
0.617858
0.592853
0.381082
0.674574
0.571532
0.666503
0.312767
0.353705
0.679044
0.701067
0.658149
0.705113
0.650764
0.616752
0.694636
0.666998
0.678444
0.39115
0.674087
0.339996
0.400979
0.394011
0.709966
0.675849
0.310429
0.663224
0.62364
0.388081
0.677942
0.687296
0.68733
0.3508
0.386724
0.691214
0.380373
0.381375
0.385336
0.382761
0.678122
0.395717
0.710012
0.371011
0.657515
0.694194
0.682136
0.699684
0.37977
0.381435
0.677936
0.706563
0.652935
0.706353
0.701092
0.500995
0.382668
0.372216
0.679488
0.529288
0.384531
0.454558
0.377338
0.672913
0.678312
0.31211
0.393799
0.660607
0.468642
0.668047
0.660869
0.338718
0.3921
0.648718
0.677157
0.369353
0.645049
0.650135
0.677091
0.376835
0.67667
0.341878
0.67737
0.665278
0.399755
0.367319
0.3956
0.677352
0.342002
0.384683
0.388578
0.678026
0.684879
0.384524
0.394233
0.381703
0.678118
0.389891
0.678767
0.396609
0.589968
0.704865
0.381548
0.373198
0.380928
0.501442
0.373392
0.632651
0.356384
0.388391
0.678274
0.392332
0.680123
0.642484
0.677438
0.379887
0.681225
0.698076
0.700485
0.679706
0.650669
0.681031
0.384987
0.677953
0.438533
0.674436
0.380718
0.692054
0.506401
0.387893
0.677567
0.694553
0.385952
0.624063
0.366782
0.384702
0.680733
0.675408
0.362901
0.391768
0.384721
0.38667
0.667866
0.696796
0.379699
0.375767
0.689875
0.686032
0.591854
0.697506
0.678392
0.384203
0.702115
0.427811
0.695405
0.390101
0.595515
0.485193
0.680912
0.66965
0.580175
0.345169
0.362983
0.676966
0.607454
0.516658
0.696983
0.402658
0.679569
0.700102
0.366838
0.456756
0.698585
0.362481
0.677636
0.668639
0.327723
0.684118
0.64577
0.371386
0.683673
0.380789
0.654638
0.361706
0.680236
0.644375
0.37487
0.678372
0.695606
0.692298
0.62481
0.675948
0.586854
0.37344
0.417443
0.364485
0.355268
0.676386
0.559634
0.684511
0.695841
0.385017
0.384305
0.680029
0.705723
0.686982
0.699593
0.386493
0.691398
0.701235
0.395946
0.378363
0.689228
0.676881
0.659526
0.39837
0.594987
0.321269
0.682806
0.639809
0.678039
0.664262
0.382732
0.67446
0.663567
0.698269
0.673977
0.678652
0.43448
0.69196
0.38288
0.619793
0.702742
0.464621
0.646545
0.678097
0.693537
0.403954
0.405883
0.588024
0.651507
0.38203
0.394701
0.381858
0.37879
0.659612
0.679112
0.677778
0.30717
0.380825
0.683094
0.681478
0.395634
0.382681
0.466369
0.661633
0.677383
0.670347
0.688729
0.381672
0.383014
0.676765
0.373342
0.392124
0.358749
0.67792
0.321296
0.381098
0.577006
0.676247
0.620041
0.678648
0.67785
0.413606
0.389949
0.382365
0.476438
0.43845
0.369841
0.668531
0.688283
0.655806
0.679834
0.40262
0.379879
0.704811
0.389311
0.678564
0.643738
0.677629
0.362941
0.394712
0.648592
0.677513
0.560849
0.395269
0.666801
0.678762
0.572682
0.690577
0.698071
0.676873
0.618436
0.388153
0.677966
0.677588
0.613071
0.68321
0.676475
0.625736
0.676987
0.685631
0.388924
0.378872
0.381544
0.677706
0.505144
0.387269
0.679769
0.690568
0.365318
0.631678
0.325794
0.6366
0.469093
0.385551
0.706122
0.696169
0.383577
0.555351
0.677705
0.340895
0.661827
0.408071
0.409754
0.614848
0.608409
0.505847
0.677603
0.381389
0.694929
0.385506
0.391545
0.68004
0.38379
0.602308
0.380383
0.630778
0.597044
0.676949
0.648684
0.395964
0.387492
0.605332
0.428181
0.686672
0.457286
0.590376
0.678596
0.69802
0.442156
0.614277
0.61763
0.701167
0.682605
0.347637
0.38055
0.544998
0.614563
0.701658
0.379935
0.677569
0.5628
0.41166
0.369223
0.670124
0.662563
0.676832
0.67729
0.583537
0.680718
0.678271
0.67043
0.382292
0.658513
0.463691
0.684971
0.676132
0.301563
0.611591
0.697194
0.382718
0.38473
0.370324
0.676495
0.384536
0.614659
0.688531
0.660053
0.358842
0.667217
0.392988
0.59436
0.678251
0.677736
0.666816
0.678086
0.618846
0.674977
0.524679
0.673831
0.359533
0.67821
0.681975
0.408981
0.677105
0.680511
0.375397
0.398432
0.339594
0.689213
0.382606
0.67696
0.379956
0.698096
0.396961
0.485805
0.39228
0.69293
0.699028
0.533182
0.270936
0.618748
0.678013
0.387824
0.590829
0.708345
0.370315
0.587265
0.677428
0.70445
0.678814
0.368974
0.470925
0.688556
0.6776
0.621453
0.383581
0.402253
0.669276
0.676742
0.67714
0.676717
0.548447
0.682088
0.543764
0.682288
0.383207
0.38238
0.676756
0.697697
0.678071
0.374402
0.678172
0.556184
0.598184
0.368477
0.419255
0.698026
0.711
0.558026
0.333948
0.679169
0.677181
0.387084
0.610819
0.688491
0.386396
0.412535
0.39766
0.594807
0.392873
0.389179
0.67154
0.465482
0.70202
0.637687
0.388
0.396749
0.704801
0.37869
0.388114
0.677519
0.403628
0.355584
0.591025
0.644622
0.68151
0.379339
0.302945
0.382126
0.644125
0.409182
0.682229
0.387529
0.680611
0.603022
0.673793
0.624182
0.673261
0.637507
0.677571
0.699212
0.685163
0.394928
0.384849
0.665429
0.678347
0.512184
0.608699
0.5594
0.67825
0.61128
0.341775
0.682417
0.707343
0.671587
0.384433
0.675439
0.366234
0.680609
0.504366
0.692161
0.679748
0.386061
0.686929
0.38309
0.427436
0.647837
0.357353
0.682462
0.676547
0.681659
0.365311
0.680715
0.376635
0.362898
0.379362
0.378309
0.602601
0.391424
0.628307
0.678135
0.337333
0.386915
0.494238
0.584444
0.630956
0.622708
0.381791
0.40684
0.384036
0.39236
0.268005
0.630372
0.628873
0.34794
0.677849
0.687965
0.397901
0.707266
0.680765
0.678189
0.385282
0.677195
0.674538
0.69222
0.684595
0.382049
0.683039
0.693965
0.676138
0.670993
0.678061
0.395726
0.383208
0.680155
0.543213
0.397258
0.679829
0.389684
0.576199
0.623882
0.65238
0.65668
0.366518
0.606988
0.400794
0.385632
0.686777
0.691807
0.696694
0.690033
0.654709
0.363103
0.700806
0.392461
0.511065
0.702668
0.677325
0.687993
0.384115
0.395136
0.702142
0.396472
0.690525
0.651229
0.430874
0.391878
0.681117
0.382775
0.679647
0.690038
0.651232
0.38241
0.379579
0.506278
0.517937
0.618906
0.473558
0.678174
0.62245
0.665708
0.676345
0.681678
0.391828
0.39465
0.692556
0.678065
0.618477
0.464899
0.368303
0.671539
0.391769
0.678253
0.619152
0.320664
0.686337
0.380877
0.633554
0.357744
0.697561
0.380544
0.67966
0.678438
0.3435
0.656684
0.650932
0.330238
0.677787
0.676555
0.5575
0.396803
0.37009
0.46676
0.698628
0.599601
0.377811
0.590442
0.684297
0.678309
0.349048
0.60732
0.661884
0.468263
0.678176
0.678677
0.296771
0.684526
0.677391
0.354561
0.596688
0.372648
0.634333
0.375658
0.409124
0.70064
0.393374
0.380907
0.396362
0.681324
0.652631
0.410511
0.679062
0.366852
0.659986
0.376586
0.656846
0.370974
0.678683
0.680615
0.642708
0.677901
0.559199
0.678467
0.678176
0.339929
0.639855
0.648197
0.486742
0.680971
0.500216
0.409919
0.700442
0.388276
0.574348
0.317524
0.678
0.394181
0.387161
0.696272
0.677904
0.381136
0.683831
0.688397
0.676457
0.698979
0.677319
0.387998
0.706475
0.394896
0.375312
0.657429
0.6898
0.702241
0.663068
0.378425
0.374764
0.382734
0.658047
0.678092
0.369209
0.65767
0.414859
0.372286
0.367526
0.660414
0.390069
0.702619
0.685674
0.638755
0.674298
0.684296
0.573063
0.635419
0.440227
0.403111
0.381211
0.677311
0.677211
0.380665
0.629769
0.59196
0.637437
0.36985
0.40051
0.62643
0.281234
0.619668
0.59174
0.395916
0.678158
0.661455
0.38802
0.68073
0.387193
0.684177
0.702909
0.673714
0.393903
0.477527
0.680954
0.305544
0.450455
0.674605
0.314407
0.678212
0.682525
0.621997
0.688796
0.331203
0.677557
0.686117
0.677422
0.367107
0.692287
0.390661
0.399488
0.666176
0.677649
0.677954
0.238831
0.680077
0.639525
0.677214
0.409557
0.409683
0.380106
0.687951
0.386897
0.390164
0.371346
0.589471
0.386978
0.301159
0.448864
0.682081
0.393049
0.677868
0.678176
0.67836
0.363342
0.683148
0.655475
0.67783
0.421074
0.668749
0.384268
0.390106
0.680527
0.390594
0.625545
0.683127
0.676902
0.392462
0.332518
0.385938
0.56733
0.676738
0.23696
0.671444
0.681174
0.689981
0.376552
0.393879
0.347757
0.597588
0.382919
0.676472
0.611416
0.678263
0.670507
0.380203
0.625873
0.383114
0.559641
0.653099
0.705482
0.568597
0.481447
0.668411
0.622314
0.693556
0.379407
0.372464
0.345293
0.69158
0.535049
0.677343
0.394372
0.401667
0.692349
0.682901
0.677684
0.390315
0.679125
0.565578
0.56861
0.602206
0.36955
0.393568
0.296314
0.677636
0.678148
0.669456
0.611247
0.346567
0.682242
0.662341
0.678154
0.677794
0.682992
0.707096
0.678902
0.688337
0.696119
0.369123
0.684878
0.691072
0.678026
0.686864
0.677195
0.577785
0.39192
0.410439
0.616491
0.393206
0.334173
0.678008
0.387527
0.642646
0.682579
0.653909
0.672437
0.372609
0.679933
0.375128
0.39918
0.679008
0.681065
0.68002
0.356188
0.696231
0.677782
0.613054
0.677585
0.39293
0.678038
0.702598
0.662098
0.406568
0.693724
0.380424
0.711954
0.362597
0.392024
0.523752
0.453501
0.70598
0.694126
0.67882
0.373263
0.678046
0.412853
0.38866
0.642694
0.498269
0.381728
0.678169
0.386489
0.521192
0.668722
0.632356
0.656352
0.496963
0.603049
0.657585
0.679065
0.575149
0.696666
0.541717
0.694626
0.606546
0.649265
0.403392
0.384851
0.452777
0.690123
0.374494
0.666352
0.684153
0.604342
0.679174
0.521387
0.681503
0.671961
0.384067
0.68295
0.602406
0.492193
0.606479
0.701859
0.634623
0.678167
0.377246
0.388943
0.675448
0.538244
0.546061
0.686048
0.680136
0.679674
0.701091
0.702548
0.621929
0.61949
0.705374
0.391612
0.390192
0.39556
0.346799
0.677099
0.462684
0.539913
0.685929
0.676995
0.370821
0.673629
0.71134
0.355864
0.377959
0.677029
0.686571
0.373439
0.379419
0.387259
0.676398
0.617849
0.410686
0.393093
0.396299
0.405543
0.348248
0.398247
0.701196
0.68077
0.678115
0.378224
0.65503
0.607041
0.616848
0.341827
0.391903
0.640216
0.676721
0.381618
0.678407
0.389017
0.695968
0.370764
0.67746
0.37143
0.65675
0.69899
0.368623
0.570378
0.394025
0.706816
0.404542
0.610937
0.392366
0.509756
0.384362
0.602122
0.38815
0.677837
0.677809
0.614615
0.672096
0.336609
0.657091
0.677993
0.697462
0.60459
0.661009
0.393589
0.396869
0.35555
0.699282
0.293572
0.69682
0.552557
0.68953
0.70437
0.463204
0.691773
0.388162
0.412423
0.390217
0.514365
0.521659
0.67933
0.384276
0.396236
0.679768
0.384184
0.382367
0.554697
0.373261
0.381239
0.411447
0.704428
0.659001
0.615444
0.371533
0.653603
0.677812
0.405285
0.327516
0.664105
0.678046
0.563135
0.524438
0.418155
0.366253
0.376887
0.669259
0.611558
0.526473
0.684493
0.398188
0.572318
0.381432
0.677618
0.696681
0.395463
0.399559
0.618393
0.548026
0.699177
0.696075
0.699055
0.684143
0.702945
0.37059
0.392388
0.344093
0.379545
0.541439
0.677589
0.660748
0.381867
0.381434
0.453825
0.408796
0.679574
0.631398
0.375192
0.313242
0.682503
0.363348
0.656191
0.69425
0.646996
0.678086
0.5535
0.383405
0.363286
0.613477
0.396175
0.422184
0.407941
0.678112
0.676999
0.336626
0.395362
0.676574
0.387197
0.679479
0.699283
0.388043
0.38423
0.396082
0.682246
0.406888
0.676532
0.683966
0.604848
0.374106
0.538483
0.692336
0.668365
0.389116
0.665448
0.618766
0.413192
0.688509
0.703367
0.382895
0.392432
0.647279
0.385332
0.380936
0.6612
0.350342
0.679163
0.681943
0.698448
0.626536
0.697446
0.682162
0.678525
0.384498
0.416984
0.62932
0.678365
0.47726
0.706882
0.331777
0.685257
0.658029
0.573583
0.651527
0.397442
0.462203
0.674562
0.693934
0.603336
0.699245
0.681001
0.676848
0.697317
0.676477
0.654432
0.645429
0.678363
0.676777
0.678565
0.346259
0.631973
0.340049
0.68067
0.68498
0.690708
0.636287
0.688298
0.381405
0.38264
0.310223
0.388511
0.644961
0.378375
0.385404
0.677729
0.398151
0.687652
0.378141
0.661238
0.683501
0.392321
0.38694
0.322416
0.688713
0.340632
0.678487
0.686623
0.385704
0.637263
0.563139
0.346657
0.352037
0.400003
0.689288
0.392915
0.681711
0.517541
0.389401
0.676498
0.678359
0.699013
0.388547
0.578542
0.39153
0.657082
0.678408
0.681824
0.380312
0.677338
0.686338
0.618845
0.410696
0.688619
0.386182
0.380933
0.672116
0.45772
0.70303
0.41133
0.380519
0.450825
0.628743
0.342915
0.288295
0.36364
0.483816
0.677265
0.685656
0.399538
0.600841
0.681269
0.56867
0.423313
0.315645
0.565551
0.381926
0.38028
0.674883
0.380184
0.38387
0.690909
0.708687
0.355016
0.693356
0.373076
0.676969
0.347685
0.643857
0.677871
0.689608
0.678155
0.389416
0.380483
0.38445
0.678603
0.648859
0.600528
0.547148
0.376397
0.307545
0.678342
0.383972
0.679734
0.387738
0.677969
0.671509
0.361827
0.344918
0.38241
0.395854
0.342438
0.61679
0.648082
0.372752
0.684082
0.640188
0.374182
0.390512
0.709041
0.379978
0.6828
0.433921
0.689167
0.657521
0.682989
0.677336
0.38877
0.702615
0.67854
0.707409
0.391857
0.606689
0.606798
0.328718
0.689971
0.638966
0.688415
0.654354
0.703073
0.670212
0.702568
0.678036
0.676887
0.386774
0.697993
0.382568
0.462554
0.674312
0.386645
0.662121
0.60355
0.39572
0.62093
0.39309
0.366586
0.662415
0.594538
0.708053
0.378888
0.65388
0.624119
0.339593
0.378503
0.640041
0.677964
0.382138
0.372083
0.687936
0.708193
0.388155
0.64471
0.700335
0.661822
0.350771
0.387179
0.380023
0.659092
0.377695
0.666367
0.691559
0.678408
0.607181
0.68362
0.378919
0.658402
0.623989
0.698782
0.565272
0.384719
0.386256
0.406113
0.696522
0.687728
0.431284
0.655367
0.302723
0.644482
0.683061
0.403096
0.617696
0.667525
0.625789
0.376192
0.398985
0.335761
0.689564
0.702912
0.62159
0.523904
0.683195
0.381486
0.637257
0.6771
0.677649
0.374358
0.63416
0.395921
0.610475
0.408215
0.676675
0.662071
0.371115
0.688998
0.430572
0.676756
0.641084
0.676443
0.687896
0.418026
0.67833
0.678795
0.678012
0.677702
0.492515
0.677065
0.396737
0.679074
0.403474
0.378859
0.397161
0.342508
0.382017
0.374091
0.703139
0.370958
0.389382
0.659474
0.689541
0.650459
0.413952
0.684508
0.683673
0.678045
0.324525
0.580201
0.681733
0.385934
0.367595
0.381028
0.631316
0.51807
0.38825
0.588002
0.403669
0.677388
0.510935
0.397928
0.481318
0.652969
0.331531
0.678412
0.395565
0.475439
0.379492
0.673564
0.388754
0.653329
0.677133
0.584495
0.420734
0.385564
0.663869
0.707165
0.37253
0.36281
0.678529
0.392857
0.693289
0.379418
0.567536
0.406871
0.682012
0.391707
0.705316
0.378636
0.68271
0.684466
0.694697
0.677092
0.398471
0.381572
0.411994
0.622148
0.676823
0.627017
0.524424
0.396509
0.690282
0.318653
0.646219
0.580394
0.410545
0.394647
0.695684
0.676253
0.393546
0.677667
0.668594
0.695536
0.698486
0.395293
0.63985
0.382754
0.695589
0.37649
0.678001
0.638949
0.63996
0.705653
0.378705
0.71162
0.392038
0.385647
0.679342
0.677145
0.553749
0.676202
0.677067
0.380845
0.695185
0.669591
0.700168
0.365405
0.432214
0.680483
0.378662
0.685812
0.683459
0.665139
0.677549
0.290984
0.452369
0.652774
0.378079
0.657575
0.707864
0.477958
0.658383
0.274579
0.615885
0.695416
0.679048
0.657447
0.395118
0.384963
0.679714
0.663359
0.394974
0.335364
0.390841
0.372693
0.390108
0.406673
0.342533
0.396973
0.67909
0.401692
0.352327
0.686796
0.551793
0.676597
0.400883
0.394817
0.681891
0.472672
0.48133
0.700929
0.375457
0.663836
0.678013
0.616666
0.659414
0.34055
0.686035
0.678321
0.386147
0.380275
0.410443
0.600131
0.615868
0.702978
0.679066
0.678609
0.663367
0.372143
0.686843
0.678373
0.636745
0.389057
0.682624
0.574565
0.364957
0.438091
0.391726
0.39044
0.395603
0.595727
0.67
0.66682
0.379639
0.394594
0.700059
0.351781
0.686949
0.678843
0.665662
0.679304
0.682621
0.386389
0.392164
0.400681
0.57117
0.383859
0.680832
0.393967
0.680425
0.67828
0.684497
0.357784
0.453365
0.416048
0.684003
0.371346
0.381345
0.677484
0.658972
0.62108
0.678823
0.63278
0.69279
0.382127
0.631994
0.697647
0.540215
0.68262
0.689201
0.693951
0.468282
0.432983
0.701641
0.507055
0.614846
0.379166
0.641163
0.665684
0.405976
0.375505
0.655079
0.516228
0.694725
0.686957
0.394144
0.397343
0.677406
0.385029
0.418653
0.667078
0.641548
0.395475
0.670982
0.677566
0.638515
0.377161
0.597014
0.383601
0.670014
0.696298
0.692626
0.663956
0.677586
0.305869
0.365375
0.676904
0.38945
0.61631
0.39484
0.683833
0.398741
0.649946
0.697194
0.6775
0.381593
0.676499
0.677165
0.381392
0.642067
0.387618
0.706038
0.38214
0.365529
0.390515
0.673604
0.674272
0.327802
0.305574