# vtk DataFile Version 1.0
unstructured grid
ascii
DATASET UNSTRUCTURED_GRID
points 13672 float
0.0796578 -0.059106 0
0.00128732 0.00159165 0
0.00227961 -0.00102548 0
0.0791586 -0.0598787 0
-0.0546216 0.01 0
0.000495206 0.025 0
0.0800549 -0.035 0
0.135172 -0.08 0
-0.0546216 -0.0451168 0
0.000495206 -0.0301168 0
0.0800549 -0.0901168 0
0.135172 -0.135117 0
-0.0546216 -0.0451168 -0.00551168
0.000495206 -0.0301168 -0.00551168
0.0800549 -0.0901168 -0.00551168
0.135172 -0.135117 -0.00551168
0.135172 -0.08 -0.00551168
0.0800549 -0.035 -0.00551168
0.000495206 0.025 -0.00551168
-0.0546216 0.01 -0.00551168
0.00128732 0.00159165 -0.00551168
0.00227961 -0.00102548 -0.00551168
0.0791586 -0.0598787 -0.00551168
0.0796578 -0.059106 -0.00551168
0.00165953 -0.000990923 0
0.00119576 -0.000874076 0
0.000866021 -0.000641801 0
0.000645147 -0.000349912 0
0.00052235 -1.7281e-05 0
0.00049972 0.000348016 0
0.000601632 0.000737716 0
0.000861774 0.0011403 0
0.00157235 0.00183217 0
0.00188647 0.00206725 0
0.00222612 0.00230203 0
0.00258713 0.00254351 0
0.00296826 0.00279524 0
0.00337118 0.00305664 0
0.00379785 0.00332658 0
0.00425045 0.00360349 0
0.00473139 0.00388521 0
0.0052432 0.00416895 0
0.0057881 0.00445204 0
0.00636753 0.00473281 0
0.00698281 0.00500961 0
0.00763526 0.00528058 0
0.00832616 0.00554366 0
0.00905691 0.00579603 0
0.00982918 0.00603333 0
0.0106445 0.00625033 0
0.0115038 0.00644128 0
0.0124073 0.00660297 0
0.0133543 0.00673414 0
0.0143444 0.00683382 0
0.0153769 0.00690031 0
0.0164512 0.00693173 0
0.0175666 0.00692547 0
0.0187219 0.00687822 0
0.0199156 0.00678477 0
0.0211454 0.00663864 0
0.0224084 0.00643275 0
0.0237018 0.00616676 0
0.0250249 0.00584739 0
0.026375 0.00547298 0
0.0277479 0.00503752 0
0.0291386 0.00453545 0
0.0305433 0.0039653 0
0.0319572 0.0033256 0
0.0333681 0.00260019 0
0.034775 0.00179799 0
0.0361793 0.000930615 0
0.0375798 3.12222e-06 0
0.0389689 -0.000988429 0
0.0403357 -0.00205109 0
0.041675 -0.00318283 0
0.0429849 -0.00437751 0
0.0442643 -0.00562904 0
0.0455126 -0.00693089 0
0.0467314 -0.00827518 0
0.0479204 -0.00965638 0
0.0490661 -0.0110799 0
0.0501515 -0.0125519 0
0.0511696 -0.0140695 0
0.0521492 -0.0156071 0
0.0531202 -0.0171411 0
0.0540851 -0.0186663 0
0.0550431 -0.0201798 0
0.0559923 -0.0216793 0
0.0569311 -0.0231626 0
0.0578582 -0.0246273 0
0.0587723 -0.0260715 0
0.0596721 -0.027493 0
0.0605563 -0.02889 0
0.0614241 -0.0302609 0
0.0622742 -0.0316042 0
0.063106 -0.0329183 0
0.0639186 -0.034202 0
0.0647113 -0.0354543 0
0.0654835 -0.0366743 0
0.0662345 -0.0378613 0
0.0669642 -0.0390145 0
0.0676726 -0.0401333 0
0.0683597 -0.0412172 0
0.0690246 -0.0422665 0
0.0696662 -0.0432819 0
0.0702841 -0.0442636 0
0.0708793 -0.0452111 0
0.0714538 -0.0461237 0
0.072009 -0.047001 0
0.0725452 -0.0478434 0
0.0730611 -0.0486524 0
0.073556 -0.0494294 0
0.0740291 -0.0501756 0
0.0744812 -0.0508916 0
0.0749138 -0.0515773 0
0.0753285 -0.0522331 0
0.0757266 -0.0528592 0
0.076109 -0.0534564 0
0.0764753 -0.0540264 0
0.0768243 -0.054571 0
0.0771553 -0.0550919 0
0.0774679 -0.0555901 0
0.0777617 -0.0560669 0
0.0780369 -0.056523 0
0.0782958 -0.0569578 0
0.0785421 -0.0573703 0
0.0787786 -0.0577603 0
0.0790073 -0.0581279 0
0.0792295 -0.058474 0
0.0794462 -0.0587995 0
0.0798803 -0.0594162 0
0.0800272 -0.0596588 0
0.0800357 -0.0598891 0
0.0799275 -0.0600784 0
0.0797205 -0.0601773 0
0.0794593 -0.0601051 0
0.0789155 -0.0596491 0
0.0786707 -0.0593963 0
0.0784111 -0.0591319 0
0.0781372 -0.0588542 0
0.0778566 -0.0585548 0
0.0775715 -0.0582308 0
0.0772803 -0.0578828 0
0.0769832 -0.0575099 0
0.0766822 -0.0571097 0
0.0763801 -0.0566796 0
0.0760759 -0.0562196 0
0.0757623 -0.0557337 0
0.0754359 -0.0552232 0
0.0750951 -0.0546879 0
0.0747379 -0.054128 0
0.0743626 -0.0535435 0
0.0739688 -0.0529338 0
0.0735559 -0.0522981 0
0.0731238 -0.0516357 0
0.0726718 -0.050946 0
0.0721991 -0.0502288 0
0.0717046 -0.049484 0
0.0711872 -0.0487117 0
0.0706461 -0.047912 0
0.0700804 -0.0470849 0
0.0694892 -0.0462308 0
0.0688718 -0.0453499 0
0.0682271 -0.0444431 0
0.0675544 -0.043511 0
0.0668527 -0.0425546 0
0.0661215 -0.0415748 0
0.06536 -0.040573 0
0.0645676 -0.0395504 0
0.0637439 -0.0385087 0
0.0628887 -0.0374493 0
0.062002 -0.0363741 0
0.0610838 -0.0352847 0
0.0601345 -0.0341831 0
0.0591547 -0.033071 0
0.0581456 -0.0319502 0
0.0571083 -0.0308224 0
0.0560444 -0.0296893 0
0.0549562 -0.028552 0
0.053845 -0.0274126 0
0.0527113 -0.0262746 0
0.051554 -0.0251427 0
0.0503724 -0.0240222 0
0.0491675 -0.0229164 0
0.047941 -0.0218282 0
0.0466955 -0.0207597 0
0.0454337 -0.0197126 0
0.0441592 -0.0186878 0
0.0428751 -0.0176863 0
0.0415841 -0.0167097 0
0.0402878 -0.0157609 0
0.0389879 -0.0148428 0
0.0376864 -0.0139575 0
0.0363853 -0.013107 0
0.0350871 -0.0122931 0
0.0337942 -0.0115164 0
0.0325095 -0.0107772 0
0.0312357 -0.0100756 0
0.0299758 -0.00941024 0
0.0287337 -0.00877784 0
0.0275126 -0.00817571 0
0.0263139 -0.00760375 0
0.0251376 -0.00706528 0
0.0239829 -0.0065649 0
0.0228537 -0.00609619 0
0.0217522 -0.00565563 0
0.0206795 -0.00524226 0
0.0196364 -0.00485507 0
0.0186233 -0.00449318 0
0.0176408 -0.00415577 0
0.016689 -0.00384204 0
0.0157682 -0.00355115 0
0.0148783 -0.00328218 0
0.0140192 -0.00303468 0
0.0131906 -0.00280795 0
0.0123925 -0.00260016 0
0.0116246 -0.00241012 0
0.0108864 -0.00223769 0
0.0101774 -0.00208212 0
0.00949701 -0.00194206 0
0.00884483 -0.0018163 0
0.0082202 -0.0017039 0
0.00762247 -0.00160391 0
0.00705097 -0.00151528 0
0.006505 -0.00143697 0
0.0059838 -0.00136806 0
0.00548662 -0.00130772 0
0.00501265 -0.00125519 0
0.00456114 -0.00120954 0
0.00413136 -0.00116914 0
0.00372257 -0.00113251 0
0.00333398 -0.00109853 0
0.00296466 -0.00106798 0
0.00261363 -0.0010431 0
-0.052721 -0.0445996 0
-0.0508204 -0.0440823 0
-0.0489199 -0.0435651 0
-0.0470193 -0.0430478 0
-0.0451187 -0.0425306 0
-0.0432181 -0.0420134 0
-0.0413175 -0.0414961 0
-0.039417 -0.0409789 0
-0.0375164 -0.0404616 0
-0.0356158 -0.0399444 0
-0.0337152 -0.0394271 0
-0.0318146 -0.0389099 0
-0.0299141 -0.0383927 0
-0.0280135 -0.0378754 0
-0.0261129 -0.0373582 0
-0.0242123 -0.0368409 0
-0.0223117 -0.0363237 0
-0.0204112 -0.0358065 0
-0.0185106 -0.0352892 0
-0.01661 -0.034772 0
-0.0147094 -0.0342547 0
-0.0128088 -0.0337375 0
-0.0109083 -0.0332202 0
-0.00900769 -0.032703 0
-0.00710711 -0.0321858 0
-0.00520653 -0.0316685 0
-0.00330595 -0.0311513 0
-0.00140537 -0.030634 0
0.00190689 -0.0299614 0
0.00332271 -0.0298498 0
0.00474133 -0.0297825 0
0.00616136 -0.0297597 0
0.0075814 -0.0297814 0
0.00900007 -0.0298477 0
0.010416 -0.0299583 0
0.0118278 -0.0301127 0
0.0132342 -0.0303103 0
0.0146339 -0.0305504 0
0.0160259 -0.0308322 0
0.0174091 -0.0311546 0
0.0187824 -0.0315166 0
0.020145 -0.031917 0
0.0214961 -0.0323546 0
0.0228351 -0.032828 0
0.0241613 -0.0333361 0
0.0254744 -0.0338774 0
0.0267738 -0.0344507 0
0.0280592 -0.0350545 0
0.0293306 -0.0356877 0
0.0305875 -0.0363488 0
0.0318301 -0.0370367 0
0.0330581 -0.0377501 0
0.0342717 -0.0384879 0
0.0354708 -0.0392489 0
0.0366556 -0.0400321 0
0.0378262 -0.0408363 0
0.0389828 -0.0416607 0
0.0401254 -0.0425042 0
0.0412543 -0.0433659 0
0.0423698 -0.0442451 0
0.043472 -0.0451408 0
0.0445612 -0.0460523 0
0.0456375 -0.0469789 0
0.0467013 -0.0479199 0
0.0477529 -0.0488746 0
0.0487923 -0.0498424 0
0.04982 -0.0508227 0
0.0508362 -0.051815 0
0.051841 -0.0528187 0
0.0528348 -0.0538333 0
0.0538178 -0.0548584 0
0.0547903 -0.0558935 0
0.0557524 -0.0569382 0
0.0567045 -0.0579922 0
0.0576467 -0.0590549 0
0.0585792 -0.0601261 0
0.0595024 -0.0612055 0
0.0604163 -0.0622926 0
0.0613212 -0.0633873 0
0.0622174 -0.0644891 0
0.0631049 -0.0655979 0
0.0639841 -0.0667134 0
0.064855 -0.0678353 0
0.0657179 -0.0689633 0
0.0665729 -0.0700974 0
0.0674202 -0.0712372 0
0.06826 -0.0723826 0
0.0690925 -0.0735333 0
0.0699178 -0.0746892 0
0.070736 -0.0758501 0
0.0715473 -0.0770159 0
0.0723518 -0.0781863 0
0.0731498 -0.0793612 0
0.0739412 -0.0805405 0
0.0747264 -0.081724 0
0.0755053 -0.0829116 0
0.0762781 -0.0841033 0
0.0770449 -0.0852987 0
0.0778059 -0.0864979 0
0.0785611 -0.0877007 0
0.0793108 -0.088907 0
0.0814681 -0.0912706 0
0.0828814 -0.0924245 0
0.0842946 -0.0935783 0
0.0857079 -0.0947322 0
0.0871211 -0.095886 0
0.0885344 -0.0970399 0
0.0899476 -0.0981937 0
0.0913609 -0.0993476 0
0.0927741 -0.100501 0
0.0941874 -0.101655 0
0.0956006 -0.102809 0
0.0970139 -0.103963 0
0.0984272 -0.105117 0
0.0998404 -0.106271 0
0.101254 -0.107424 0
0.102667 -0.108578 0
0.10408 -0.109732 0
0.105493 -0.110886 0
0.106907 -0.11204 0
0.10832 -0.113194 0
0.109733 -0.114348 0
0.111146 -0.115501 0
0.11256 -0.116655 0
0.113973 -0.117809 0
0.115386 -0.118963 0
0.116799 -0.120117 0
0.118213 -0.121271 0
0.119626 -0.122424 0
0.121039 -0.123578 0
0.122452 -0.124732 0
0.123866 -0.125886 0
0.125279 -0.12704 0
0.126692 -0.128194 0
0.128105 -0.129348 0
0.129519 -0.130501 0
0.130932 -0.131655 0
0.132345 -0.132809 0
0.133758 -0.133963 0
0.135172 -0.133216 0
0.135172 -0.131316 0
0.135172 -0.129415 0
0.135172 -0.127514 0
0.135172 -0.125614 0
0.135172 -0.123713 0
0.135172 -0.121813 0
0.135172 -0.119912 0
0.135172 -0.118012 0
0.135172 -0.116111 0
0.135172 -0.11421 0
0.135172 -0.11231 0
0.135172 -0.110409 0
0.135172 -0.108509 0
0.135172 -0.106608 0
0.135172 -0.104708 0
0.135172 -0.102807 0
0.135172 -0.100906 0
0.135172 -0.0990058 0
0.135172 -0.0971052 0
0.135172 -0.0952046 0
0.135172 -0.0933041 0
0.135172 -0.0914035 0
0.135172 -0.0895029 0
0.135172 -0.0876023 0
0.135172 -0.0857017 0
0.135172 -0.0838012 0
0.135172 -0.0819006 0
0.133758 -0.0788462 0
0.132345 -0.0776923 0
0.130932 -0.0765385 0
0.129519 -0.0753846 0
0.128105 -0.0742308 0
0.126692 -0.0730769 0
0.125279 -0.0719231 0
0.123866 -0.0707692 0
0.122452 -0.0696154 0
0.121039 -0.0684615 0
0.119626 -0.0673077 0
0.118213 -0.0661538 0
0.116799 -0.065 0
0.115386 -0.0638462 0
0.113973 -0.0626923 0
0.11256 -0.0615385 0
0.111146 -0.0603846 0
0.109733 -0.0592308 0
0.10832 -0.0580769 0
0.106907 -0.0569231 0
0.105493 -0.0557692 0
0.10408 -0.0546154 0
0.102667 -0.0534615 0
0.101254 -0.0523077 0
0.0998404 -0.0511538 0
0.0984272 -0.05 0
0.0970139 -0.0488462 0
0.0956006 -0.0476923 0
[...]
CELL_DATA 13116
SCALARS rho float
LOOKUP_TABLE default
0.547546
0.655878
0.356099
0.709236
0.69716
0.678573
0.391395
0.697909
0.525561
0.702146
0.385179
0.370371
0.697467
0.406165
0.388621
0.678662
0.515964
0.692274
0.676086
0.398261
0.552553
0.396492
0.371637
0.694281
0.606526
0.61835
0.702175
0.351744
0.605306
0.642693
0.677635
0.370967
0.553749
0.445012
0.388145
0.55016
0.661143
0.669782
0.67838
0.677853
0.677702
0.701947
0.423679
0.348389
0.674425
0.675897
0.63169
0.679772
0.39472
0.521413
0.694251
0.440016
0.394557
0.508998
0.552374
0.583051
0.346269
0.690995
0.534758
0.389228
0.401974
0.704001
0.645874
0.678331
0.677779
0.356215
0.68109
0.667905
0.682407
0.677849
0.390513
0.584667
0.391953
0.34391
0.677391
0.368521
0.639813
0.691403
0.386152
0.689292
0.674287
0.628308
0.694492
0.679487
0.663849
0.448046
0.402422
0.665153
0.656441
0.380317
0.363116
0.657657
0.696989
0.660772
0.645697
0.596064
0.609015
0.677673
0.677459
0.596204
0.6747
0.584752
0.677075
0.405542
0.612235
0.413247
0.357568
0.471504
0.354414
0.61541
0.500837
0.623956
0.594187
0.677857
0.689889
0.681177
0.411142
0.386965
0.687556
0.682419
0.668295
0.388954
0.682826
0.368826
0.652941
0.436783
0.403072
0.508202
0.340643
0.523055
0.687858
0.680104
0.501613
0.399733
0.481353
0.582468
0.677
0.685449
0.673804
0.682079
0.623487
0.635182
0.506573
0.624294
0.641478
0.393735
0.387284
0.618661
0.694658
0.689188
0.542846
0.678859
0.679694
0.37811
0.698545
0.665214
0.37048
0.680265
0.677689
0.66545
0.693452
0.386912
0.692929
0.369206
0.384442
0.701631
0.65049
0.691803
0.388963
0.463499
0.420162
0.676974
0.393545
0.491017
0.680191
0.37395
0.392122
0.39362
0.619774
0.678257
0.38331
0.430254
0.521767
0.661585
0.678315
0.532423
0.359604
0.677174
0.597747
0.459139
0.633428
0.616536
0.677865
0.374188
0.612874
0.678698
0.698719
0.676707
0.655165
0.402935
0.405478
0.62052
0.502794
0.357968
0.68918
0.674382
0.44903
0.606231
0.405748
0.383142
0.365361
0.679904
0.369721
0.394231
0.376391
0.376788
0.3664
0.677755
0.6492
0.434811
0.346341
0.680894
0.494632
0.384525
0.555143
0.702968
0.639094
0.369747
0.680385
0.389953
0.703553
0.368347
0.677845
0.574591
0.677604
0.669872
0.677915
0.381448
0.429635
0.665382
0.677401
0.678582
0.677079
0.67771
0.689752
0.39489
0.689348
0.699451
0.677451
0.386097
0.3972
0.676057
0.686836
0.677773
0.682923
0.53357
0.680786
0.384249
0.402368
0.397967
0.406556
0.594163
0.6985
0.638484
0.390556
0.672299
0.346675
0.43189
0.614584
0.385627
0.622124
0.698363
0.677288
0.690675
0.3839
0.677264
0.679501
0.677454
0.685306
0.382059
0.410432
0.370668
0.577647
0.388874
0.399238
0.331559
0.307303
0.663631
0.396215
0.663101
0.697895
0.356059
0.379
0.34867
0.451716
0.350968
0.663785
0.58411
0.618744
0.38569
0.679625
0.587567
0.402875
0.388782
0.678192
0.686759
0.676855
0.356745
0.678775
0.413318
0.679347
0.702353
0.687556
0.701236
0.374362
0.680458
0.403997
0.678089
0.703143
0.666206
0.388478
0.331214
0.700073
0.351058
0.646083
0.703893
0.362699
0.683417
0.694191
0.358198
0.672087
0.696916
0.400554
0.689397
0.450179
0.575428
0.670508
0.456798
0.680561
0.39287
0.692112
0.343082
0.677743
0.574601
0.699829
0.370374
0.356435
0.665293
0.382517
0.688189
0.604038
0.420212
0.677018
0.370418
0.387322
0.685442
0.555423
0.666362
0.410651
0.370172
0.689115
0.697686
0.386795
0.696057
0.419893
0.410592
0.680467
0.677396
0.458886
0.395608
0.68557
0.677776
0.678766
0.670544
0.690365
0.543035
0.323374
0.403084
0.379481
0.678747
0.380579
0.519682
0.368255
0.371655
0.350505
0.468506
0.143272
0.382608
0.666502
0.324515
0.693712
0.604912
0.67777
0.65711
0.690233
0.387396
0.407435
0.410022
0.332543
0.685348
0.590053
0.677486
0.605518
0.643213
0.617304
0.626595
0.619569
0.639909
0.68896
0.688745
0.678394
0.404656
0.457314
0.543444
0.394754
0.58017
0.58138
0.395176
0.680913
0.677344
0.374345
0.394081
0.384609
0.36462
0.630196
0.391311
0.373797
0.680219
0.345366
0.574182
0.382498
0.678014
0.673842
0.340827
0.399738
0.684922
0.453268
0.381741
0.362314
0.391827
0.35814
0.39637
0.395047
0.396188
0.43163
0.381994
0.580988
0.368543
0.662255
0.376349
0.385136
0.504607
0.394817
0.378935
0.387599
0.675089
0.437494
0.639622
0.47445
0.347233
0.608741
0.659049
0.447235
0.682999
0.618511
0.617114
0.371686
0.677615
0.388499
0.691398
0.677589
0.3719
0.40011
0.596445
0.3372
0.458442
0.577455
0.356629
0.679318
0.644244
0.372531
0.387841
0.393517
0.486532
0.387256
0.399434
0.392726
0.404514
0.705024
0.706153
0.45815
0.599332
0.480507
0.613438
0.35379
0.390349
0.53004
0.37247
0.67923
0.29351
0.370679
0.497315
0.673693
0.645621
0.561795
0.360697
0.399786
0.57123
0.698451
0.67805
0.567428
0.617931
0.593137
0.383011
0.672832
0.570107
0.664229
0.312485
0.35469
0.676889
0.698899
0.65604
0.703215
0.650537
0.616733
0.692284
0.664691
0.677699
0.389633
0.673366
0.339028
0.404652
0.394457
0.708254
0.674901
0.309618
0.662763
0.621926
0.388789
0.677828
0.68603
0.685357
0.351316
0.389491
0.689658
0.381893
0.380383
0.388323
0.384542
0.676874
0.400986
0.708308
0.37174
0.656646
0.69293
0.681361
0.697964
0.381173
0.374202
0.676862
0.705149
0.651394
0.70469
0.699153
0.499622
0.356939
0.373725
0.6791
0.52758
0.385316
0.453048
0.370451
0.672177
0.677706
0.311774
0.396141
0.660203
0.467143
0.667443
0.658637
0.340061
0.390816
0.647265
0.677383
0.368944
0.644865
0.649836
0.676065
0.379089
0.677039
0.34342
0.677561
0.663028
0.39813
0.36658
0.39839
0.677522
0.342784
0.387048
0.387458
0.677872
0.683116
0.386821
0.395829
0.382979
0.678031
0.391817
0.678561
0.394039
0.588494
0.702984
0.379576
0.369099
0.370718
0.500069
0.375031
0.632581
0.356254
0.391668
0.67795
0.395664
0.679667
0.642271
0.677613
0.379073
0.679945
0.695902
0.69837
0.679267
0.650189
0.680287
0.381845
0.678012
0.437091
0.673355
0.382524
0.69093
0.50455
0.390556
0.677613
0.692629
0.38826
0.622602
0.363634
0.389205
0.680172
0.674754
0.357721
0.388985
0.387207
0.381881
0.667185
0.694444
0.381841
0.372615
0.688187
0.685028
0.590368
0.695342
0.677816
0.386413
0.700029
0.42641
0.694111
0.389059
0.593926
0.483735
0.680277
0.667582
0.578752
0.344562
0.364083
0.676334
0.605893
0.514772
0.694812
0.406492
0.677628
0.698108
0.365625
0.454696
0.696445
0.360902
0.677648
0.666342
0.326785
0.683213
0.643951
0.373015
0.681865
0.370395
0.654346
0.363518
0.679763
0.643923
0.376282
0.678321
0.693442
0.690653
0.623087
0.674337
0.585399
0.377643
0.415833
0.364516
0.348752
0.676835
0.558254
0.68356
0.693972
0.385285
0.386201
0.678363
0.703844
0.685467
0.698224
0.387763
0.688906
0.699327
0.396722
0.378065
0.687824
0.675941
0.65914
0.39815
0.593477
0.320879
0.680972
0.639669
0.678076
0.66341
0.383823
0.673223
0.663127
0.696009
0.673347
0.678146
0.43296
0.689967
0.383924
0.619408
0.700818
0.463043
0.645811
0.678122
0.692299
0.402037
0.40473
0.586571
0.649483
0.383771
0.389657
0.382611
0.380704
0.658642
0.677186
0.67767
0.308015
0.382852
0.682207
0.678966
0.399471
0.385088
0.464798
0.659942
0.676772
0.669764
0.686475
0.382628
0.384945
0.677098
0.368454
0.388349
0.35951
0.677397
0.320994
0.381666
0.575415
0.67517
0.620211
0.67852
0.677288
0.418462
0.393933
0.382539
0.474218
0.436971
0.366772
0.666438
0.685974
0.655448
0.679178
0.398206
0.377159
0.7029
0.390724
0.678082
0.643321
0.677752
0.357565
0.393696
0.648398
0.677548
0.559298
0.40025
0.666252
0.678605
0.571084
0.689468
0.69678
0.677169
0.618477
0.389257
0.677417
0.677586
0.612163
0.681334
0.676892
0.625847
0.67727
0.684585
0.392254
0.381977
0.37875
0.67781
0.503262
0.388734
0.678144
0.688833
0.364322
0.630145
0.325639
0.635152
0.46684
0.38945
0.704283
0.693794
0.384383
0.553976
0.677793
0.341913
0.661361
0.375743
0.413332
0.613215
0.606813
0.504479
0.676934
0.382162
0.692777
0.388599
0.392243
0.679605
0.384648
0.600694
0.373897
0.629288
0.595462
0.677235
0.64843
0.3997
0.390782
0.604981
0.425966
0.685148
0.455398
0.588767
0.678285
0.695746
0.439937
0.612669
0.617815
0.69906
0.681812
0.346582
0.381424
0.543628
0.614762
0.699526
0.379017
0.676928
0.561253
0.409869
0.364107
0.66775
0.660822
0.677157
0.67747
0.583632
0.678626
0.678126
0.668476
0.377953
0.656364
0.462105
0.684037
0.675228
0.301786
0.611382
0.695491
0.385223
0.38814
0.350858
0.676905
0.386798
0.613012
0.686582
0.657875
0.360904
0.666566
0.372684
0.592857
0.678229
0.677657
0.664743
0.677995
0.617169
0.673
0.522842
0.672777
0.361337
0.677741
0.681215
0.406748
0.677361
0.678609
0.369541
0.402128
0.340887
0.688139
0.381889
0.677235
0.37949
0.696841
0.400264
0.484357
0.38802
0.690807
0.69764
0.531351
0.270483
0.617067
0.677786
0.38393
0.58934
0.706608
0.36739
0.585689
0.677505
0.702575
0.678312
0.369702
0.468701
0.686972
0.676813
0.621026
0.381733
0.401146
0.668656
0.677081
0.677367
0.677064
0.546664
0.680565
0.541956
0.681445
0.381781
0.367226
0.677092
0.69591
0.677912
0.3537
0.677669
0.554462
0.596639
0.370377
0.417797
0.696512
0.709456
0.556555
0.332239
0.67847
0.677418
0.389578
0.609212
0.686244
0.389021
0.403172
0.401303
0.595145
0.394969
0.388988
0.670924
0.463575
0.699926
0.63611
0.390635
0.374403
0.703191
0.381277
0.391987
0.677554
0.404658
0.354928
0.589443
0.64421
0.680168
0.381285
0.301506
0.384535
0.643873
0.412109
0.680882
0.391308
0.679015
0.603069
0.673091
0.624239
0.671983
0.637405
0.676965
0.697496
0.683783
0.400214
0.385732
0.664315
0.678225
0.510844
0.608958
0.557867
0.678157
0.610403
0.342004
0.681613
0.705566
0.670676
0.387267
0.674151
0.3674
0.679494
0.502997
0.689728
0.679271
0.390059
0.685312
0.38436
0.425577
0.647277
0.358598
0.679932
0.676941
0.680749
0.36441
0.680147
0.378515
0.358223
0.370622
0.377401
0.601948
0.395731
0.627172
0.678131
0.335632
0.374554
0.492818
0.582998
0.629213
0.622436
0.381706
0.363936
0.386749
0.388085
0.267711
0.62867
0.628933
0.348237
0.677692
0.686035
0.401503
0.705455
0.678254
0.678178
0.387469
0.677387
0.672951
0.690271
0.683668
0.386651
0.681624
0.692062
0.674827
0.668592
0.677723
0.399252
0.372646
0.679129
0.541851
0.395978
0.679435
0.375588
0.574779
0.622317
0.652123
0.65635
0.363313
0.607261
0.399412
0.388419
0.684287
0.690148
0.694718
0.688829
0.652982
0.358207
0.699023
0.396614
0.509734
0.700995
0.677464
0.686429
0.386953
0.395271
0.700231
0.397524
0.688989
0.649161
0.429448
0.394855
0.680343
0.376329
0.679169
0.688492
0.649745
0.375679
0.382383
0.504706
0.516071
0.617253
0.471858
0.677795
0.622229
0.665226
0.676805
0.680017
0.395177
0.396894
0.691017
0.677734
0.617991
0.463349
0.357249
0.669849
0.395622
0.677663
0.617493
0.31928
0.68477
0.383309
0.633331
0.359319
0.695661
0.383708
0.678506
0.678221
0.344065
0.656267
0.648926
0.330674
0.677683
0.675837
0.555944
0.394546
0.369208
0.465014
0.696468
0.599564
0.379982
0.588939
0.682569
0.678003
0.351022
0.605822
0.661231
0.466793
0.677792
0.678202
0.29651
0.683246
0.677491
0.356272
0.595085
0.368444
0.632971
0.37571
0.412411
0.69846
0.390208
0.382059
0.400081
0.680669
0.652148
0.409452
0.678338
0.366199
0.658627
0.378533
0.656243
0.369428
0.678346
0.679582
0.641362
0.677866
0.557807
0.678263
0.678152
0.340742
0.637958
0.646701
0.484604
0.679339
0.498831
0.408621
0.698655
0.383369
0.5729
0.317056
0.677347
0.398092
0.373845
0.693884
0.677327
0.373579
0.682942
0.686061
0.676881
0.697637
0.67751
0.389024
0.704638
0.390673
0.370051
0.657061
0.687564
0.700884
0.662622
0.37565
0.375254
0.38525
0.657266
0.678081
0.36838
0.657076
0.375624
0.372205
0.369253
0.66002
0.388998
0.700828
0.684262
0.636871
0.673661
0.682943
0.571434
0.634337
0.438877
0.403144
0.373642
0.677502
0.67742
0.357328
0.628081
0.592323
0.63624
0.370647
0.398523
0.626166
0.280563
0.619412
0.590899
0.394834
0.677957
0.660453
0.389804
0.67942
0.391094
0.683258
0.700823
0.672448
0.397875
0.476052
0.678466
0.304772
0.449164
0.673968
0.313671
0.677986
0.681743
0.622051
0.686433
0.329435
0.677638
0.683641
0.676652
0.365947
0.690981
0.393452
0.399478
0.665595
0.677035
0.677863
0.23827
0.67958
0.637629
0.677392
0.364779
0.41381
0.381315
0.686876
0.389296
0.393676
0.373091
0.588646
0.390896
0.301418
0.447365
0.680765
0.393968
0.677812
0.678083
0.677624
0.362506
0.681998
0.653427
0.677683
0.41961
0.666398
0.387373
0.384792
0.67999
0.379844
0.623957
0.681351
0.6772
0.390664
0.331535
0.388198
0.565925
0.677087
0.236388
0.670688
0.680543
0.687636
0.378173
0.398024
0.346721
0.597693
0.383814
0.676887
0.609827
0.678145
0.669857
0.382385
0.624379
0.380012
0.559227
0.650994
0.703591
0.567628
0.47934
0.666085
0.621819
0.692008
0.37445
0.370534
0.345083
0.689142
0.533393
0.67748
0.393877
0.400314
0.690282
0.681735
0.677636
0.380345
0.678358
0.564191
0.567215
0.602166
0.37112
0.386477
0.295985
0.677023
0.67816
0.667084
0.611487
0.3455
0.681307
0.660107
0.67816
0.677668
0.682062
0.705306
0.678732
0.686199
0.694109
0.370394
0.683757
0.689842
0.677592
0.6856
0.676573
0.576362
0.39271
0.411975
0.615691
0.388259
0.332433
0.677268
0.391743
0.640707
0.681738
0.653224
0.671505
0.371031
0.679137
0.365661
0.375769
0.678811
0.679613
0.679355
0.356236
0.694813
0.677106
0.612545
0.676998
0.395528
0.677639
0.700687
0.660984
0.404723
0.691395
0.382819
0.710341
0.364051
0.392859
0.521994
0.45202
0.704134
0.691922
0.678345
0.375065
0.677672
0.41178
0.393036
0.642581
0.496868
0.380923
0.677569
0.387458
0.519839
0.66653
0.632091
0.65601
0.495558
0.601496
0.655547
0.678687
0.573753
0.694712
0.540345
0.693353
0.606813
0.64732
0.399726
0.387298
0.451277
0.688902
0.36909
0.664106
0.683247
0.602732
0.678778
0.519448
0.679036
0.669994
0.38659
0.682095
0.602701
0.490146
0.606748
0.700008
0.634533
0.67792
0.378771
0.392487
0.674301
0.536574
0.544257
0.685042
0.679019
0.678922
0.698921
0.700458
0.620244
0.619329
0.703456
0.395247
0.389889
0.39929
0.347621
0.677342
0.461052
0.538076
0.684385
0.674943
0.370704
0.672644
0.709667
0.355686
0.376744
0.677277
0.685436
0.375012
0.380201
0.389403
0.676838
0.617873
0.408816
0.396215
0.395257
0.40795
0.346725
0.394511
0.699872
0.679756
0.676446
0.375353
0.654342
0.60547
0.615202
0.344959
0.393325
0.640135
0.67707
0.382379
0.678046
0.390655
0.693601
0.372093
0.676746
0.366759
0.656367
0.697464
0.367688
0.568974
0.397462
0.704991
0.405006
0.609369
0.378134
0.508048
0.387552
0.600579
0.384031
0.677817
0.677773
0.612997
0.670851
0.338418
0.656507
0.677744
0.695994
0.603006
0.659609
0.394848
0.394773
0.347557
0.69705
0.292829
0.695113
0.551155
0.687281
0.702511
0.460961
0.689811
0.392594
0.386272
0.394096
0.512731
0.519994
0.678223
0.384826
0.399614
0.679387
0.382941
0.37704
0.553279
0.372237
0.382056
0.412954
0.703026
0.656806
0.613869
0.363239
0.653078
0.677184
0.403421
0.326581
0.66365
0.677519
0.56264
0.523094
0.416695
0.365085
0.377935
0.668579
0.610922
0.524711
0.682049
0.401775
0.570703
0.38377
0.677667
0.695041
0.396267
0.401184
0.617749
0.546557
0.697505
0.694088
0.69695
0.683228
0.701225
0.372146
0.394739
0.344556
0.381478
0.539659
0.677697
0.658525
0.383429
0.377259
0.451911
0.398546
0.678804
0.631104
0.376169
0.313015
0.681687
0.363714
0.654184
0.692171
0.646706
0.67773
0.551772
0.383191
0.35787
0.613398
0.396883
0.420431
0.406741
0.677898
0.676339
0.338546
0.395158
0.67697
0.383114
0.678863
0.697049
0.386119
0.38672
0.40008
0.681375
0.411363
0.676929
0.68202
0.603234
0.37482
0.537122
0.690766
0.667701
0.391703
0.664782
0.617901
0.405337
0.687094
0.701988
0.385672
0.391546
0.647111
0.385064
0.382551
0.660539
0.3493
0.678185
0.679449
0.696154
0.625442
0.69565
0.681412
0.678381
0.386922
0.415552
0.628647
0.677091
0.475779
0.705058
0.33137
0.684233
0.657666
0.572056
0.649549
0.395381
0.460625
0.673555
0.692192
0.603635
0.697741
0.680329
0.677158
0.696045
0.676899
0.653936
0.645278
0.677533
0.677111
0.678398
0.346394
0.631951
0.340998
0.679909
0.683879
0.688568
0.636181
0.685899
0.383928
0.384295
0.309451
0.391104
0.644669
0.367706
0.387551
0.675729
0.39797
0.685519
0.379155
0.660623
0.682092
0.390015
0.385728
0.320813
0.687575
0.34165
0.677404
0.684992
0.387978
0.637222
0.561735
0.344804
0.352671
0.400432
0.68674
0.392311
0.680894
0.51558
0.393129
0.675841
0.677739
0.696887
0.390262
0.57694
0.384442
0.656347
0.678232
0.681068
0.380902
0.676076
0.685301
0.619027
0.409338
0.687469
0.388253
0.38301
0.671508
0.456099
0.701054
0.409704
0.381208
0.449347
0.628813
0.343597
0.288549
0.36551
0.481674
0.677412
0.684141
0.40188
0.599266
0.680501
0.567264
0.421239
0.314304
0.564146
0.384365
0.382363
0.674051
0.381974
0.385005
0.689781
0.707022
0.35567
0.690908
0.374831
0.677237
0.347977
0.643715
0.677928
0.687198
0.677996
0.3921
0.382673
0.377782
0.678376
0.648672
0.599003
0.545648
0.375244
0.30671
0.677923
0.386317
0.678742
0.386481
0.678008
0.669349
0.35812
0.346637
0.383845
0.396731
0.343921
0.616223
0.647686
0.368148
0.682907
0.638376
0.378837
0.394673
0.707312
0.379184
0.681481
0.432492
0.686801
0.655463
0.681861
0.677464
0.392794
0.70054
0.677831
0.705947
0.387374
0.606541
0.605258
0.327065
0.68879
0.637734
0.687228
0.653856
0.701332
0.669633
0.701152
0.677577
0.676161
0.387171
0.695797
0.383884
0.46062
0.673679
0.379559
0.66162
0.603716
0.399729
0.621089
0.390233
0.363155
0.661964
0.594624
0.706399
0.381076
0.653417
0.622402
0.33973
0.373632
0.639844
0.677349
0.380841
0.374106
0.685941
0.706485
0.388801
0.642843
0.698728
0.659572
0.34831
0.389125
0.376561
0.657003
0.380702
0.665657
0.689102
0.677976
0.605651
0.682267
0.381082
0.658046
0.622282
0.697249
0.564327
0.372529
0.388683
0.409812
0.694192
0.686123
0.429841
0.653338
0.301196
0.643145
0.682225
0.406885
0.616772
0.666786
0.624083
0.373251
0.402911
0.336173
0.688037
0.700947
0.619902
0.522549
0.681969
0.382425
0.635422
0.677322
0.67636
0.372651
0.632322
0.399775
0.610661
0.41149
0.675609
0.661618
0.362743
0.687555
0.42835
0.677094
0.639402
0.676867
0.686869
0.416534
0.677945
0.67817
0.677346
0.676608
0.491088
0.677295
0.401773
0.678409
0.407246
0.376955
0.400812
0.344148
0.384091
0.369746
0.701495
0.369738
0.393149
0.657554
0.68808
0.650033
0.412376
0.682187
0.681238
0.677725
0.324567
0.579072
0.681018
0.387098
0.369524
0.383295
0.629557
0.516722
0.385519
0.586638
0.399079
0.677552
0.509594
0.401789
0.479835
0.650963
0.331507
0.677801
0.399419
0.473244
0.378247
0.67283
0.387576
0.651629
0.677339
0.584885
0.418664
0.386425
0.663245
0.705416
0.374415
0.358086
0.678221
0.387904
0.690949
0.376779
0.566135
0.410665
0.68128
0.39396
0.703635
0.376414
0.681889
0.68315
0.692983
0.677345
0.403017
0.370642
0.410211
0.622117
0.674841
0.627113
0.522819
0.399952
0.688332
0.31737
0.646065
0.580406
0.4092
0.398102
0.69357
0.675246
0.382393
0.677726
0.66785
0.693512
0.696199
0.399124
0.637979
0.383942
0.693622
0.379438
0.677877
0.638899
0.639575
0.704028
0.383079
0.710003
0.386729
0.388019
0.678744
0.677384
0.552155
0.675077
0.677313
0.380828
0.692776
0.668944
0.698829
0.360849
0.430735
0.678172
0.366786
0.684739
0.68257
0.664563
0.676748
0.290254
0.450555
0.650726
0.367865
0.657227
0.706075
0.476166
0.658001
0.274037
0.615761
0.693016
0.676568
0.657033
0.398734
0.374378
0.678575
0.662749
0.398781
0.334521
0.39321
0.368168
0.393692
0.406788
0.343006
0.394
0.677934
0.405396
0.350261
0.684826
0.550177
0.676986
0.399513
0.394248
0.681063
0.47095
0.479126
0.698945
0.374316
0.661591
0.678037
0.615041
0.658717
0.341718
0.684525
0.67828
0.388635
0.382319
0.409119
0.60032
0.614241
0.701201
0.678767
0.677282
0.662549
0.370142
0.685418
0.678312
0.636507
0.389745
0.681832
0.574144
0.363027
0.436598
0.395772
0.386124
0.399009
0.594144
0.667788
0.665662
0.381534
0.393303
0.698495
0.351777
0.685234
0.678188
0.665065
0.676815
0.681463
0.387776
0.386452
0.396015
0.569522
0.387149
0.679904
0.394603
0.679869
0.677923
0.683389
0.358309
0.45163
0.414607
0.682682
0.373252
0.383556
0.676746
0.658309
0.619765
0.678543
0.632641
0.690459
0.383142
0.630188
0.695765
0.538863
0.681328
0.687386
0.691714
0.466812
0.431693
0.700276
0.505691
0.613307
0.380452
0.640677
0.665143
0.404116
0.379025
0.654336
0.514701
0.692935
0.685218
0.393465
0.397192
0.6775
0.382994
0.417285
0.666548
0.641346
0.399188
0.670308
0.677711
0.638368
0.375822
0.595444
0.384677
0.669454
0.694676
0.690317
0.66281
0.677698
0.306932
0.364438
0.675452
0.384994
0.614679
0.398107
0.682655
0.397849
0.648072
0.695289
0.677636
0.381966
0.676907
0.677353
0.383809
0.641521
0.38832
0.704597
0.382605
0.360622
0.393605
0.671946
0.673588
0.326878
0.304957