# vtk DataFile Version 1.0
unstructured grid
ascii
DATASET UNSTRUCTURED_GRID
points 13672 float
0.0796578 -0.059106 0
0.00128732 0.00159165 0
0.00227961 -0.00102548 0
0.0791586 -0.0598787 0
-0.0546216 0.01 0
0.000495206 0.025 0
0.0800549 -0.035 0
0.135172 -0.08 0
-0.0546216 -0.0451168 0
0.000495206 -0.0301168 0
0.0800549 -0.0901168 0
0.135172 -0.135117 0
-0.0546216 -0.0451168 -0.00551168
0.000495206 -0.0301168 -0.00551168
0.0800549 -0.0901168 -0.00551168
0.135172 -0.135117 -0.00551168
0.135172 -0.08 -0.00551168
0.0800549 -0.035 -0.00551168
0.000495206 0.025 -0.00551168
-0.0546216 0.01 -0.00551168
0.00128732 0.00159165 -0.00551168
0.00227961 -0.00102548 -0.00551168
0.0791586 -0.0598787 -0.00551168
0.0796578 -0.059106 -0.00551168
0.00165953 -0.000990923 0
0.00119576 -0.000874076 0
0.000866021 -0.000641801 0
0.000645147 -0.000349912 0
0.00052235 -1.7281e-05 0
0.00049972 0.000348016 0
0.000601632 0.000737716 0
0.000861774 0.0011403 0
0.00157235 0.00183217 0
0.00188647 0.00206725 0
0.00222612 0.00230203 0
0.00258713 0.00254351 0
0.00296826 0.00279524 0
0.00337118 0.00305664 0
0.00379785 0.00332658 0
0.00425045 0.00360349 0
0.00473139 0.00388521 0
0.0052432 0.00416895 0
0.0057881 0.00445204 0
0.00636753 0.00473281 0
0.00698281 0.00500961 0
0.00763526 0.00528058 0
0.00832616 0.00554366 0
0.00905691 0.00579603 0
0.00982918 0.00603333 0
0.0106445 0.00625033 0
0.0115038 0.00644128 0
0.0124073 0.00660297 0
0.0133543 0.00673414 0
0.0143444 0.00683382 0
0.0153769 0.00690031 0
0.0164512 0.00693173 0
0.0175666 0.00692547 0
0.0187219 0.00687822 0
0.0199156 0.00678477 0
0.0211454 0.00663864 0
0.0224084 0.00643275 0
0.0237018 0.00616676 0
0.0250249 0.00584739 0
0.026375 0.00547298 0
0.0277479 0.00503752 0
0.0291386 0.00453545 0
0.0305433 0.0039653 0
0.0319572 0.0033256 0
0.0333681 0.00260019 0
0.034775 0.00179799 0
0.0361793 0.000930615 0
0.0375798 3.12222e-06 0
0.0389689 -0.000988429 0
0.0403357 -0.00205109 0
0.041675 -0.00318283 0
0.0429849 -0.00437751 0
0.0442643 -0.00562904 0
0.0455126 -0.00693089 0
0.0467314 -0.00827518 0
0.0479204 -0.00965638 0
0.0490661 -0.0110799 0
0.0501515 -0.0125519 0
0.0511696 -0.0140695 0
0.0521492 -0.0156071 0
0.0531202 -0.0171411 0
0.0540851 -0.0186663 0
0.0550431 -0.0201798 0
0.0559923 -0.0216793 0
0.0569311 -0.0231626 0
0.0578582 -0.0246273 0
0.0587723 -0.0260715 0
0.0596721 -0.027493 0
0.0605563 -0.02889 0
0.0614241 -0.0302609 0
0.0622742 -0.0316042 0
0.063106 -0.0329183 0
0.0639186 -0.034202 0
0.0647113 -0.0354543 0
0.0654835 -0.0366743 0
0.0662345 -0.0378613 0
0.0669642 -0.0390145 0
0.0676726 -0.0401333 0
0.0683597 -0.0412172 0
0.0690246 -0.0422665 0
0.0696662 -0.0432819 0
0.0702841 -0.0442636 0
0.0708793 -0.0452111 0
0.0714538 -0.0461237 0
0.072009 -0.047001 0
0.0725452 -0.0478434 0
0.0730611 -0.0486524 0
0.073556 -0.0494294 0
0.0740291 -0.0501756 0
0.0744812 -0.0508916 0
0.0749138 -0.0515773 0
0.0753285 -0.0522331 0
0.0757266 -0.0528592 0
0.076109 -0.0534564 0
0.0764753 -0.0540264 0
0.0768243 -0.054571 0
0.0771553 -0.0550919 0
0.0774679 -0.0555901 0
0.0777617 -0.0560669 0
0.0780369 -0.056523 0
0.0782958 -0.0569578 0
0.0785421 -0.0573703 0
0.0787786 -0.0577603 0
0.0790073 -0.0581279 0
0.0792295 -0.058474 0
0.0794462 -0.0587995 0
0.0798803 -0.0594162 0
0.0800272 -0.0596588 0
0.0800357 -0.0598891 0
0.0799275 -0.0600784 0
0.0797205 -0.0601773 0
0.0794593 -0.0601051 0
0.0789155 -0.0596491 0
0.0786707 -0.0593963 0
0.0784111 -0.0591319 0
0.0781372 -0.0588542 0
0.0778566 -0.0585548 0
0.0775715 -0.0582308 0
0.0772803 -0.0578828 0
0.0769832 -0.0575099 0
0.0766822 -0.0571097 0
0.0763801 -0.0566796 0
0.0760759 -0.0562196 0
0.0757623 -0.0557337 0
0.0754359 -0.0552232 0
0.0750951 -0.0546879 0
0.0747379 -0.054128 0
0.0743626 -0.0535435 0
0.0739688 -0.0529338 0
0.0735559 -0.0522981 0
0.0731238 -0.0516357 0
0.0726718 -0.050946 0
0.0721991 -0.0502288 0
0.0717046 -0.049484 0
0.0711872 -0.0487117 0
0.0706461 -0.047912 0
0.0700804 -0.0470849 0
0.0694892 -0.0462308 0
0.0688718 -0.0453499 0
0.0682271 -0.0444431 0
0.0675544 -0.043511 0
0.0668527 -0.0425546 0
0.0661215 -0.0415748 0
0.06536 -0.040573 0
0.0645676 -0.0395504 0
0.0637439 -0.0385087 0
0.0628887 -0.0374493 0
0.062002 -0.0363741 0
0.0610838 -0.0352847 0
0.0601345 -0.0341831 0
0.0591547 -0.033071 0
0.0581456 -0.0319502 0
0.0571083 -0.0308224 0
0.0560444 -0.0296893 0
0.0549562 -0.028552 0
0.053845 -0.0274126 0
0.0527113 -0.0262746 0
0.051554 -0.0251427 0
0.0503724 -0.0240222 0
0.0491675 -0.0229164 0
0.047941 -0.0218282 0
0.0466955 -0.0207597 0
0.0454337 -0.0197126 0
0.0441592 -0.0186878 0
0.0428751 -0.0176863 0
0.0415841 -0.0167097 0
0.0402878 -0.0157609 0
0.0389879 -0.0148428 0
0.0376864 -0.0139575 0
0.0363853 -0.013107 0
0.0350871 -0.0122931 0
0.0337942 -0.0115164 0
0.0325095 -0.0107772 0
0.0312357 -0.0100756 0
0.0299758 -0.00941024 0
0.0287337 -0.00877784 0
0.0275126 -0.00817571 0
0.0263139 -0.00760375 0
0.0251376 -0.00706528 0
0.0239829 -0.0065649 0
0.0228537 -0.00609619 0
0.0217522 -0.00565563 0
0.0206795 -0.00524226 0
0.0196364 -0.00485507 0
0.0186233 -0.00449318 0
0.0176408 -0.00415577 0
0.016689 -0.00384204 0
0.0157682 -0.00355115 0
0.0148783 -0.00328218 0
0.0140192 -0.00303468 0
0.0131906 -0.00280795 0
0.0123925 -0.00260016 0
0.0116246 -0.00241012 0
0.0108864 -0.00223769 0
0.0101774 -0.00208212 0
0.00949701 -0.00194206 0
0.00884483 -0.0018163 0
0.0082202 -0.0017039 0
0.00762247 -0.00160391 0
0.00705097 -0.00151528 0
0.006505 -0.00143697 0
0.0059838 -0.00136806 0
0.00548662 -0.00130772 0
0.00501265 -0.00125519 0
0.00456114 -0.00120954 0
0.00413136 -0.00116914 0
0.00372257 -0.00113251 0
0.00333398 -0.00109853 0
0.00296466 -0.00106798 0
0.00261363 -0.0010431 0
-0.052721 -0.0445996 0
-0.0508204 -0.0440823 0
-0.0489199 -0.0435651 0
-0.0470193 -0.0430478 0
-0.0451187 -0.0425306 0
-0.0432181 -0.0420134 0
-0.0413175 -0.0414961 0
-0.039417 -0.0409789 0
-0.0375164 -0.0404616 0
-0.0356158 -0.0399444 0
-0.0337152 -0.0394271 0
-0.0318146 -0.0389099 0
-0.0299141 -0.0383927 0
-0.0280135 -0.0378754 0
-0.0261129 -0.0373582 0
-0.0242123 -0.0368409 0
-0.0223117 -0.0363237 0
-0.0204112 -0.0358065 0
-0.0185106 -0.0352892 0
-0.01661 -0.034772 0
-0.0147094 -0.0342547 0
-0.0128088 -0.0337375 0
-0.0109083 -0.0332202 0
-0.00900769 -0.032703 0
-0.00710711 -0.0321858 0
-0.00520653 -0.0316685 0
-0.00330595 -0.0311513 0
-0.00140537 -0.030634 0
0.00190689 -0.0299614 0
0.00332271 -0.0298498 0
0.00474133 -0.0297825 0
0.00616136 -0.0297597 0
0.0075814 -0.0297814 0
0.00900007 -0.0298477 0
0.010416 -0.0299583 0
0.0118278 -0.0301127 0
0.0132342 -0.0303103 0
0.0146339 -0.0305504 0
0.0160259 -0.0308322 0
0.0174091 -0.0311546 0
0.0187824 -0.0315166 0
0.020145 -0.031917 0
0.0214961 -0.0323546 0
0.0228351 -0.032828 0
0.0241613 -0.0333361 0
0.0254744 -0.0338774 0
0.0267738 -0.0344507 0
0.0280592 -0.0350545 0
0.0293306 -0.0356877 0
0.0305875 -0.0363488 0
0.0318301 -0.0370367 0
0.0330581 -0.0377501 0
0.0342717 -0.0384879 0
0.0354708 -0.0392489 0
0.0366556 -0.0400321 0
0.0378262 -0.0408363 0
0.0389828 -0.0416607 0
0.0401254 -0.0425042 0
0.0412543 -0.0433659 0
0.0423698 -0.0442451 0
0.043472 -0.0451408 0
0.0445612 -0.0460523 0
0.0456375 -0.0469789 0
0.0467013 -0.0479199 0
0.0477529 -0.0488746 0
0.0487923 -0.0498424 0
0.04982 -0.0508227 0
0.0508362 -0.051815 0
0.051841 -0.0528187 0
0.0528348 -0.0538333 0
0.0538178 -0.0548584 0
0.0547903 -0.0558935 0
0.0557524 -0.0569382 0
0.0567045 -0.0579922 0
0.0576467 -0.0590549 0
0.0585792 -0.0601261 0
0.0595024 -0.0612055 0
0.0604163 -0.0622926 0
0.0613212 -0.0633873 0
0.0622174 -0.0644891 0
0.0631049 -0.0655979 0
0.0639841 -0.0667134 0
0.064855 -0.0678353 0
0.0657179 -0.0689633 0
0.0665729 -0.0700974 0
0.0674202 -0.0712372 0
0.06826 -0.0723826 0
0.0690925 -0.0735333 0
0.0699178 -0.0746892 0
0.070736 -0.0758501 0
0.0715473 -0.0770159 0
0.0723518 -0.0781863 0
0.0731498 -0.0793612 0
0.0739412 -0.0805405 0
0.0747264 -0.081724 0
0.0755053 -0.0829116 0
0.0762781 -0.0841033 0
0.0770449 -0.0852987 0
0.0778059 -0.0864979 0
0.0785611 -0.0877007 0
0.0793108 -0.088907 0
0.0814681 -0.0912706 0
0.0828814 -0.0924245 0
0.0842946 -0.0935783 0
0.0857079 -0.0947322 0
0.0871211 -0.095886 0
0.0885344 -0.0970399 0
0.0899476 -0.0981937 0
0.0913609 -0.0993476 0
0.0927741 -0.100501 0
0.0941874 -0.101655 0
0.0956006 -0.102809 0
0.0970139 -0.103963 0
0.0984272 -0.105117 0
0.0998404 -0.106271 0
0.101254 -0.107424 0
0.102667 -0.108578 0
0.10408 -0.109732 0
0.105493 -0.110886 0
0.106907 -0.11204 0
0.10832 -0.113194 0
0.109733 -0.114348 0
0.111146 -0.115501 0
0.11256 -0.116655 0
0.113973 -0.117809 0
0.115386 -0.118963 0
0.116799 -0.120117 0
0.118213 -0.121271 0
0.119626 -0.122424 0
0.121039 -0.123578 0
0.122452 -0.124732 0
0.123866 -0.125886 0
0.125279 -0.12704 0
0.126692 -0.128194 0
0.128105 -0.129348 0
0.129519 -0.130501 0
0.130932 -0.131655 0
0.132345 -0.132809 0
0.133758 -0.133963 0
0.135172 -0.133216 0
0.135172 -0.131316 0
0.135172 -0.129415 0
0.135172 -0.127514 0
0.135172 -0.125614 0
0.135172 -0.123713 0
0.135172 -0.121813 0
0.135172 -0.119912 0
0.135172 -0.118012 0
0.135172 -0.116111 0
0.135172 -0.11421 0
0.135172 -0.11231 0
0.135172 -0.110409 0
0.135172 -0.108509 0
0.135172 -0.106608 0
0.135172 -0.104708 0
0.135172 -0.102807 0
0.135172 -0.100906 0
0.135172 -0.0990058 0
0.135172 -0.0971052 0
0.135172 -0.0952046 0
0.135172 -0.0933041 0
0.135172 -0.0914035 0
0.135172 -0.0895029 0
0.135172 -0.0876023 0
0.135172 -0.0857017 0
0.135172 -0.0838012 0
0.135172 -0.0819006 0
0.133758 -0.0788462 0
0.132345 -0.0776923 0
0.130932 -0.0765385 0
0.129519 -0.0753846 0
0.128105 -0.0742308 0
0.126692 -0.0730769 0
0.125279 -0.0719231 0
0.123866 -0.0707692 0
0.122452 -0.0696154 0
0.121039 -0.0684615 0
0.119626 -0.0673077 0
0.118213 -0.0661538 0
0.116799 -0.065 0
0.115386 -0.0638462 0
0.113973 -0.0626923 0
0.11256 -0.0615385 0
0.111146 -0.0603846 0
0.109733 -0.0592308 0
0.10832 -0.0580769 0
0.106907 -0.0569231 0
0.105493 -0.0557692 0
0.10408 -0.0546154 0
0.102667 -0.0534615 0
0.101254 -0.0523077 0
0.0998404 -0.0511538 0
0.0984272 -0.05 0
0.0970139 -0.0488462 0
0.0956006 -0.0476923 0
[...]
CELL_DATA 13116
SCALARS rho float
LOOKUP_TABLE default
0.64447
0.694913
0.380404
0.695442
0.702921
0.689916
0.364263
0.696453
0.568991
0.701721
0.363527
0.36663
0.702612
0.375918
0.388289
0.689993
0.648378
0.711181
0.696079
0.360895
0.634903
0.397465
0.380963
0.708994
0.638608
0.691294
0.701792
0.385973
0.588131
0.708083
0.694733
0.375653
0.583803
0.509425
0.364937
0.641724
0.71054
0.694903
0.688363
0.692583
0.695237
0.696676
0.531093
0.374763
0.695033
0.696025
0.688104
0.69911
0.401855
0.552872
0.696862
0.525973
0.367739
0.645327
0.586149
0.621112
0.374534
0.710107
0.557867
0.396497
0.37591
0.699523
0.691565
0.68848
0.694615
0.366685
0.692425
0.717862
0.695674
0.692601
0.387352
0.581816
0.395157
0.37193
0.702373
0.366682
0.693498
0.702378
0.362772
0.713314
0.711053
0.690173
0.708235
0.69981
0.692742
0.491676
0.362531
0.726046
0.691723
0.365854
0.375347
0.695242
0.706655
0.692811
0.707626
0.656119
0.640708
0.700012
0.700622
0.600093
0.727877
0.678362
0.695093
0.485241
0.685471
0.391644
0.461346
0.555332
0.382291
0.597713
0.579158
0.688333
0.652144
0.713863
0.712838
0.692243
0.366835
0.467768
0.701877
0.692882
0.719149
0.3974
0.695948
0.374441
0.692849
0.495638
0.363347
0.537847
0.37984
0.551826
0.701655
0.703167
0.52266
0.400189
0.510406
0.669257
0.70447
0.696429
0.72876
0.692767
0.686075
0.68874
0.53922
0.686463
0.691337
0.381585
0.364711
0.689491
0.704991
0.695187
0.551053
0.699426
0.698875
0.361071
0.703818
0.69265
0.382135
0.724198
0.699668
0.727626
0.70935
0.363391
0.708401
0.381277
0.396853
0.699586
0.69221
0.711473
0.364742
0.49925
0.481748
0.704479
0.387495
0.531365
0.691707
0.381426
0.3903
0.396319
0.687816
0.689613
0.36227
0.488414
0.604732
0.711579
0.690026
0.55935
0.35935
0.691699
0.684475
0.510384
0.692165
0.689224
0.691629
0.38116
0.68776
0.689383
0.704676
0.692195
0.69157
0.447065
0.486299
0.608849
0.535051
0.37454
0.70581
0.697498
0.529805
0.664492
0.390992
0.363766
0.365723
0.691731
0.382215
0.363743
0.365531
0.361471
0.458487
0.688102
0.692625
0.487517
0.372904
0.692292
0.574212
0.362501
0.552035
0.700603
0.690753
0.386226
0.691787
0.47287
0.696739
0.377285
0.690203
0.572133
0.701716
0.692278
0.690291
0.408246
0.492896
0.730305
0.703525
0.689193
0.704522
0.688466
0.695736
0.391373
0.696802
0.7029
0.700078
0.363246
0.403358
0.697908
0.701276
0.691905
0.701746
0.641673
0.717474
0.363518
0.416077
0.454023
0.389759
0.683161
0.70489
0.69249
0.361582
0.692963
0.36163
0.485885
0.685821
0.361255
0.690489
0.697203
0.703701
0.710236
0.407396
0.704087
0.71193
0.699634
0.696753
0.362416
0.360417
0.382114
0.667865
0.395804
0.406233
0.451733
0.432994
0.694271
0.370673
0.692069
0.700876
0.359016
0.360879
0.360886
0.499394
0.386139
0.724783
0.675723
0.687027
0.361349
0.693125
0.568769
0.413359
0.395842
0.68924
0.700929
0.692179
0.359817
0.689641
0.493057
0.702749
0.696737
0.694718
0.69678
0.381578
0.691832
0.380465
0.690897
0.700167
0.736104
0.363755
0.450669
0.702236
0.361336
0.690755
0.699468
0.428748
0.718499
0.708498
0.360121
0.693146
0.706713
0.378738
0.700685
0.490614
0.56165
0.695942
0.493707
0.723459
0.361301
0.710457
0.455625
0.688078
0.679241
0.704093
0.385885
0.45918
0.692814
0.361418
0.704955
0.68547
0.485253
0.704442
0.359529
0.386772
0.703318
0.554769
0.715143
0.360867
0.38189
0.696458
0.701161
0.364059
0.699402
0.369297
0.395004
0.69209
0.695601
0.5731
0.366847
0.698196
0.694832
0.689919
0.692869
0.70828
0.552526
0.403922
0.386529
0.362056
0.689764
0.362393
0.606789
0.433394
0.379467
0.456946
0.579866
0.312352
0.36096
0.693269
0.363203
0.707797
0.594086
0.697174
0.725729
0.697788
0.387181
0.360352
0.452879
0.413485
0.70424
0.648788
0.695913
0.592847
0.692133
0.678358
0.689859
0.684754
0.705663
0.70788
0.713903
0.689544
0.457456
0.528382
0.642908
0.39323
0.674759
0.624618
0.367024
0.692079
0.704107
0.381806
0.362199
0.364512
0.358855
0.614598
0.372585
0.38147
0.691878
0.364967
0.574441
0.365549
0.690442
0.706612
0.389041
0.399087
0.703413
0.4979
0.36591
0.358772
0.366404
0.382409
0.360039
0.362427
0.402916
0.487062
0.364126
0.677784
0.397935
0.692131
0.428204
0.372596
0.520668
0.383317
0.365745
0.38383
0.691983
0.489266
0.667349
0.568932
0.364675
0.667748
0.691881
0.490277
0.718864
0.681438
0.681578
0.35931
0.701191
0.469265
0.708776
0.697503
0.38313
0.370651
0.684175
0.414814
0.492588
0.679652
0.46055
0.724949
0.691741
0.36085
0.387854
0.381938
0.529074
0.39409
0.374614
0.386773
0.37951
0.697834
0.697845
0.501929
0.60364
0.511655
0.687256
0.451973
0.36832
0.571339
0.383351
0.701043
0.431347
0.46363
0.520444
0.694977
0.691721
0.558644
0.426663
0.369416
0.557455
0.696555
0.690055
0.556039
0.68585
0.682897
0.36413
0.706276
0.570209
0.731543
0.43883
0.386435
0.713837
0.705047
0.726111
0.700608
0.691028
0.692194
0.710174
0.734481
0.696933
0.364912
0.694675
0.458389
0.394574
0.364514
0.695862
0.697428
0.443939
0.6925
0.599191
0.363974
0.689241
0.700777
0.70887
0.385672
0.367296
0.703424
0.366117
0.366274
0.386035
0.364224
0.700354
0.376912
0.695386
0.397
0.695274
0.696831
0.694435
0.701602
0.366186
0.361848
0.69895
0.696533
0.70166
0.698126
0.703201
0.514726
0.359702
0.383975
0.691789
0.562661
0.36451
0.498861
0.379061
0.694339
0.691374
0.439358
0.399455
0.692058
0.496108
0.693619
0.733677
0.378851
0.472315
0.699098
0.703204
0.381428
0.691367
0.692328
0.698405
0.365327
0.70452
0.373036
0.702212
0.731536
0.366915
0.455897
0.405168
0.702126
0.382437
0.36275
0.468778
0.689171
0.706312
0.362742
0.412813
0.36503
0.689403
0.396264
0.689404
0.380925
0.583871
0.700638
0.431174
0.380827
0.380897
0.515544
0.384215
0.691383
0.361011
0.372811
0.689955
0.375845
0.691161
0.69005
0.701244
0.365316
0.701207
0.706751
0.704903
0.692299
0.694968
0.691988
0.383967
0.69182
0.489199
0.698516
0.361963
0.695812
0.549399
0.365712
0.695731
0.706462
0.36374
0.686136
0.376059
0.385437
0.691883
0.691992
0.377538
0.38326
0.36275
0.383147
0.694636
0.709037
0.364673
0.36004
0.705195
0.695017
0.586314
0.706937
0.691253
0.363375
0.703818
0.484278
0.696996
0.468039
0.638148
0.508989
0.691694
0.714987
0.569697
0.448567
0.384972
0.6921
0.585007
0.639896
0.707332
0.387132
0.709282
0.704161
0.475582
0.527351
0.706149
0.430721
0.694103
0.730424
0.448653
0.693325
0.70674
0.38378
0.706927
0.381905
0.691435
0.370298
0.691549
0.69089
0.384978
0.688555
0.708038
0.704133
0.602419
0.704279
0.570042
0.420343
0.490444
0.370826
0.372404
0.704382
0.553519
0.695372
0.705282
0.36426
0.406344
0.705047
0.699969
0.703679
0.696967
0.362652
0.71399
0.702821
0.361215
0.372116
0.702196
0.697649
0.692028
0.377106
0.57168
0.389826
0.707367
0.689579
0.690438
0.69594
0.364395
0.699976
0.692086
0.7073
0.692132
0.694245
0.488268
0.708204
0.363599
0.684865
0.702101
0.498518
0.692534
0.689375
0.696573
0.494906
0.475077
0.571503
0.721242
0.36607
0.366847
0.360739
0.364272
0.696423
0.709025
0.68944
0.433466
0.363859
0.695843
0.723527
0.377112
0.408534
0.501711
0.705598
0.692037
0.692805
0.712397
0.364006
0.366108
0.704439
0.373759
0.363718
0.361922
0.692408
0.389221
0.366192
0.615871
0.698685
0.687675
0.689056
0.691693
0.366394
0.380725
0.360654
0.581707
0.490491
0.376415
0.716385
0.713324
0.691964
0.695935
0.370488
0.365681
0.700897
0.365245
0.693766
0.690664
0.69773
0.377607
0.366446
0.690823
0.695658
0.660192
0.377674
0.693069
0.689281
0.613308
0.695281
0.696468
0.704402
0.685729
0.36281
0.691552
0.693372
0.682379
0.707923
0.704403
0.688503
0.704453
0.696985
0.372642
0.379791
0.365727
0.694981
0.551753
0.36539
0.704562
0.705599
0.367415
0.691087
0.390422
0.693435
0.565025
0.407644
0.699464
0.709581
0.364723
0.549041
0.694323
0.376029
0.692717
0.370143
0.391447
0.67573
0.624652
0.52028
0.695398
0.360613
0.70847
0.386136
0.361198
0.691114
0.364397
0.65848
0.379223
0.690652
0.635844
0.704402
0.691874
0.38658
0.374375
0.681417
0.537171
0.703798
0.517214
0.64973
0.690114
0.707573
0.541251
0.595015
0.68772
0.704405
0.693088
0.457613
0.366714
0.546064
0.68782
0.704336
0.448619
0.69478
0.660732
0.451206
0.378024
0.735262
0.706725
0.704576
0.70278
0.679829
0.711967
0.689117
0.71112
0.380252
0.729311
0.500074
0.693635
0.697153
0.436525
0.696835
0.702686
0.380269
0.403158
0.361141
0.704407
0.3633
0.673675
0.708424
0.731816
0.428641
0.694286
0.375776
0.572558
0.688635
0.690216
0.71648
0.689536
0.651972
0.710664
0.570764
0.698164
0.370623
0.692792
0.694512
0.526738
0.704344
0.708522
0.382127
0.38781
0.376386
0.694947
0.366741
0.704439
0.360212
0.696342
0.371404
0.509577
0.383784
0.709102
0.697342
0.641191
0.424033
0.65715
0.688053
0.362548
0.588209
0.697524
0.375601
0.621827
0.697574
0.700856
0.694232
0.383268
0.553736
0.70426
0.696704
0.685439
0.366438
0.471895
0.69366
0.704452
0.703669
0.704476
0.622655
0.703466
0.616051
0.692851
0.366391
0.375628
0.704477
0.703501
0.688885
0.368055
0.693254
0.63981
0.670125
0.37132
0.480726
0.699577
0.69529
0.5664
0.409141
0.696747
0.703766
0.364165
0.626325
0.712485
0.364321
0.371039
0.381398
0.685176
0.400588
0.365007
0.693089
0.521281
0.703977
0.695835
0.365146
0.359641
0.698188
0.378588
0.372438
0.695199
0.391649
0.452568
0.626503
0.69493
0.701751
0.363974
0.393692
0.363498
0.69047
0.391152
0.701896
0.374735
0.704209
0.693731
0.694387
0.687038
0.700332
0.689196
0.69181
0.701833
0.702538
0.375565
0.362204
0.698175
0.689064
0.522724
0.686019
0.575544
0.688971
0.681452
0.388153
0.692507
0.698418
0.696801
0.363218
0.700517
0.388583
0.700003
0.515867
0.712564
0.69291
0.407905
0.70465
0.364771
0.505589
0.691892
0.362686
0.722724
0.704417
0.695177
0.359011
0.691663
0.364435
0.377063
0.379569
0.365573
0.679811
0.388996
0.688386
0.688623
0.410824
0.38127
0.512
0.571415
0.690892
0.685885
0.365322
0.363086
0.363891
0.383671
0.421094
0.691215
0.689138
0.386556
0.688513
0.708234
0.38018
0.698098
0.724497
0.688091
0.36259
0.702749
0.704016
0.707616
0.693752
0.39335
0.702543
0.706479
0.700882
0.73713
0.689647
0.409892
0.379954
0.699297
0.543379
0.36667
0.690871
0.382408
0.56248
0.685841
0.691243
0.691657
0.376963
0.685808
0.451528
0.363058
0.717112
0.704446
0.705904
0.697396
0.70609
0.37719
0.701766
0.395173
0.521642
0.699682
0.70075
0.704102
0.363097
0.408901
0.702326
0.424808
0.703391
0.713309
0.486584
0.415521
0.692227
0.379775
0.693135
0.703627
0.700256
0.379686
0.380634
0.533267
0.568014
0.679971
0.516598
0.690351
0.685948
0.692268
0.704372
0.705041
0.365733
0.413223
0.702671
0.689529
0.684649
0.49809
0.372996
0.705502
0.385995
0.691336
0.598199
0.401216
0.704142
0.363318
0.693728
0.381094
0.70466
0.404972
0.699995
0.688961
0.356939
0.692891
0.718827
0.365414
0.689092
0.695255
0.578071
0.382655
0.445638
0.513456
0.706319
0.68166
0.405076
0.569538
0.705902
0.689859
0.429275
0.67648
0.694244
0.495643
0.690342
0.690862
0.437732
0.701721
0.698607
0.378872
0.657915
0.35874
0.69215
0.359717
0.393115
0.705359
0.365657
0.365185
0.384795
0.692051
0.692422
0.462699
0.696976
0.446675
0.700135
0.364568
0.693539
0.43645
0.690259
0.69952
0.695788
0.688587
0.550394
0.688804
0.688129
0.384133
0.676476
0.69934
0.607717
0.704628
0.515308
0.479032
0.702014
0.361552
0.574729
0.391061
0.695666
0.374179
0.381251
0.70983
0.69151
0.361159
0.69322
0.713782
0.704391
0.696798
0.703294
0.363008
0.698244
0.362904
0.382086
0.692141
0.711701
0.696628
0.692204
0.380926
0.360143
0.3635
0.694845
0.688527
0.445117
0.695418
0.367371
0.359677
0.367779
0.691922
0.468663
0.700932
0.702819
0.667183
0.692089
0.702252
0.628436
0.690481
0.488788
0.3695
0.361484
0.702773
0.7035
0.369585
0.690048
0.684826
0.69211
0.382967
0.497911
0.686818
0.414817
0.685328
0.676582
0.363446
0.688053
0.696839
0.365687
0.701336
0.371737
0.694871
0.703366
0.700208
0.387287
0.502273
0.723034
0.441964
0.492292
0.69219
0.443982
0.68846
0.693124
0.690164
0.713885
0.405829
0.696998
0.717383
0.696403
0.465388
0.698541
0.390303
0.381088
0.693572
0.691782
0.687959
0.384121
0.692644
0.662648
0.702313
0.364242
0.369621
0.366069
0.69548
0.363803
0.375553
0.38242
0.67587
0.373872
0.435266
0.490837
0.701634
0.364693
0.688732
0.687526
0.692268
0.359458
0.700607
0.721614
0.688999
0.48192
0.737232
0.364964
0.361721
0.69143
0.361105
0.687522
0.706513
0.704507
0.36443
0.451323
0.363047
0.556511
0.704525
0.384063
0.695273
0.692013
0.712835
0.364549
0.393469
0.457257
0.682026
0.365154
0.704394
0.589524
0.687744
0.693931
0.362672
0.687447
0.382891
0.674036
0.719151
0.700212
0.671502
0.615181
0.733573
0.685489
0.702345
0.359228
0.427084
0.36657
0.712995
0.565253
0.700064
0.364305
0.474973
0.708828
0.700759
0.691133
0.361483
0.692516
0.555605
0.558728
0.682107
0.383522
0.361789
0.438085
0.691689
0.689308
0.737882
0.68694
0.454659
0.69554
0.735592
0.688983
0.689015
0.695131
0.698644
0.689368
0.710941
0.706536
0.383359
0.699474
0.697472
0.690949
0.700961
0.692009
0.66719
0.363821
0.38647
0.683228
0.366476
0.407545
0.692542
0.380606
0.663628
0.695385
0.693723
0.697026
0.38264
0.692928
0.379566
0.373401
0.689594
0.702608
0.695909
0.360374
0.698766
0.695677
0.682869
0.692006
0.393978
0.690579
0.70207
0.697937
0.448403
0.710473
0.363587
0.69458
0.364949
0.364098
0.649272
0.497281
0.699662
0.709241
0.693781
0.381013
0.690215
0.46466
0.383516
0.690541
0.512437
0.366146
0.69513
0.399343
0.527015
0.721315
0.688208
0.691825
0.513501
0.57849
0.720154
0.692067
0.667519
0.705704
0.544102
0.696893
0.686502
0.714418
0.376812
0.362976
0.495382
0.697778
0.382358
0.728679
0.693366
0.655636
0.692305
0.626714
0.721353
0.711115
0.362846
0.692915
0.685082
0.62093
0.685386
0.701953
0.691461
0.689344
0.364526
0.375883
0.699179
0.569059
0.625688
0.695186
0.699868
0.697232
0.704976
0.703644
0.679795
0.68541
0.700287
0.380529
0.383825
0.37614
0.396263
0.704282
0.504972
0.61405
0.703895
0.711906
0.382475
0.697575
0.694702
0.361232
0.465583
0.7042
0.698546
0.384333
0.375662
0.385076
0.704377
0.691013
0.450507
0.365887
0.363132
0.397426
0.425903
0.366714
0.696953
0.699421
0.705101
0.35933
0.693839
0.672979
0.591575
0.420976
0.361675
0.690371
0.704492
0.365865
0.690321
0.36553
0.709607
0.383333
0.692257
0.358767
0.692155
0.699262
0.359284
0.559611
0.418703
0.698048
0.389464
0.677183
0.382793
0.543504
0.364608
0.672088
0.362846
0.689648
0.690928
0.59217
0.69991
0.422294
0.693443
0.688742
0.699067
0.670827
0.700912
0.361881
0.494804
0.367929
0.706514
0.432368
0.702922
0.554881
0.711999
0.700764
0.558779
0.70789
0.383747
0.372756
0.379907
0.54217
0.654259
0.699533
0.361252
0.403926
0.69072
0.476807
0.379906
0.663696
0.462238
0.366026
0.385917
0.696601
0.733317
0.679419
0.377846
0.692715
0.691576
0.359287
0.452845
0.692185
0.691442
0.673825
0.529943
0.485574
0.465964
0.360592
0.694323
0.682093
0.565477
0.718003
0.393871
0.614956
0.363189
0.694661
0.702138
0.362387
0.42341
0.684025
0.662069
0.701318
0.706344
0.705645
0.693582
0.700103
0.362047
0.395182
0.367077
0.362424
0.644543
0.696686
0.73557
0.36271
0.364513
0.515501
0.370041
0.697429
0.687991
0.365337
0.436316
0.694851
0.380968
0.717943
0.708081
0.690862
0.689943
0.642786
0.366201
0.358669
0.684154
0.362667
0.496396
0.459089
0.689154
0.691772
0.431667
0.363702
0.704425
0.362304
0.691281
0.706408
0.365271
0.380307
0.370299
0.696775
0.367375
0.70441
0.708927
0.662412
0.365333
0.541409
0.703206
0.694327
0.363506
0.694415
0.683948
0.374711
0.702539
0.695939
0.36327
0.366195
0.690633
0.362186
0.362117
0.694268
0.460921
0.698718
0.721937
0.707445
0.686937
0.703758
0.693254
0.688381
0.363582
0.481849
0.687642
0.700613
0.501201
0.698383
0.440343
0.696775
0.691957
0.590273
0.716648
0.494233
0.501045
0.697871
0.704687
0.686136
0.698886
0.69437
0.704465
0.696358
0.704405
0.69468
0.6908
0.694473
0.704524
0.688643
0.372765
0.690449
0.383452
0.692108
0.698954
0.710117
0.689
0.714762
0.378459
0.361866
0.443649
0.363282
0.690627
0.359346
0.362462
0.71064
0.372559
0.711104
0.360497
0.693902
0.702503
0.365562
0.476372
0.402833
0.696689
0.374778
0.699176
0.704806
0.363712
0.690109
0.56098
0.412483
0.385235
0.356957
0.717098
0.366335
0.692667
0.626484
0.421072
0.693466
0.695629
0.705776
0.365544
0.621837
0.382747
0.694343
0.68923
0.692207
0.366583
0.700425
0.695937
0.687226
0.477349
0.697048
0.36601
0.364268
0.692278
0.502726
0.702446
0.484838
0.36637
0.491899
0.688192
0.382747
0.372458
0.371099
0.559946
0.701783
0.703667
0.377757
0.668466
0.695985
0.555622
0.516929
0.398811
0.561964
0.366555
0.363318
0.696167
0.364465
0.365381
0.695432
0.697223
0.361734
0.712019
0.362601
0.704338
0.386607
0.6909
0.692204
0.713983
0.68758
0.387887
0.363511
0.380293
0.689652
0.69087
0.577219
0.56033
0.471202
0.441686
0.692315
0.363499
0.698999
0.471018
0.690748
0.717586
0.358802
0.376794
0.364304
0.36368
0.379279
0.683842
0.691493
0.358929
0.700682
0.701625
0.422564
0.385838
0.697097
0.366012
0.701783
0.487294
0.713584
0.721635
0.700393
0.701173
0.379282
0.703421
0.69193
0.69659
0.365914
0.682538
0.584548
0.406125
0.697007
0.693198
0.69731
0.692644
0.700255
0.692335
0.696948
0.691216
0.695537
0.364896
0.706853
0.364306
0.522614
0.692315
0.381111
0.693037
0.683618
0.40309
0.687246
0.365945
0.375685
0.69226
0.681421
0.697358
0.363944
0.692409
0.643989
0.38645
0.358966
0.692416
0.691499
0.468363
0.37581
0.709071
0.697586
0.366583
0.708154
0.699862
0.736255
0.360718
0.36588
0.3799
0.723853
0.406011
0.694819
0.713357
0.692677
0.675387
0.70217
0.363942
0.691786
0.603963
0.699529
0.671276
0.380778
0.363719
0.394221
0.708837
0.704507
0.485827
0.72051
0.394367
0.696164
0.692796
0.388387
0.683598
0.695054
0.68355
0.359089
0.360676
0.396838
0.703545
0.702469
0.640898
0.529941
0.701215
0.365698
0.69667
0.703465
0.70068
0.359081
0.620316
0.405061
0.685137
0.395274
0.698612
0.692424
0.376643
0.70276
0.530283
0.704483
0.699903
0.704396
0.694515
0.487857
0.691563
0.695937
0.691599
0.699063
0.50848
0.704067
0.373479
0.696409
0.393589
0.362874
0.400347
0.37836
0.366326
0.358708
0.699162
0.467517
0.37733
0.712428
0.702801
0.69186
0.455725
0.715339
0.718493
0.689519
0.383101
0.672231
0.692333
0.401
0.377332
0.363653
0.689995
0.524939
0.365086
0.670749
0.367617
0.701456
0.52154
0.365245
0.507145
0.71974
0.400062
0.691339
0.390312
0.600883
0.466868
0.694216
0.468152
0.705164
0.703563
0.683277
0.516839
0.363796
0.694589
0.698453
0.379796
0.376969
0.69006
0.363046
0.710843
0.359673
0.560581
0.392943
0.692901
0.394468
0.698685
0.362553
0.692578
0.702003
0.70404
0.704438
0.37324
0.382206
0.452347
0.691725
0.71044
0.687904
0.65654
0.401032
0.708109
0.399717
0.6906
0.678857
0.478861
0.417426
0.707767
0.698044
0.382941
0.694308
0.6955
0.706925
0.70739
0.391972
0.700631
0.364915
0.706421
0.406946
0.687498
0.689962
0.695342
0.698112
0.422582
0.695355
0.365516
0.362583
0.691214
0.703936
0.576313
0.699082
0.704201
0.365809
0.710583
0.693751
0.696603
0.37746
0.489163
0.717362
0.359154
0.697489
0.693388
0.693553
0.694212
0.426689
0.510031
0.723677
0.378359
0.691783
0.697422
0.526074
0.692134
0.427835
0.684604
0.710339
0.72508
0.692716
0.361008
0.381429
0.699859
0.693934
0.398404
0.427903
0.39095
0.380558
0.376919
0.367338
0.386933
0.366604
0.699858
0.393052
0.360649
0.708964
0.57825
0.704444
0.475096
0.364078
0.696307
0.516657
0.577446
0.703616
0.46436
0.73448
0.689179
0.601615
0.69434
0.374375
0.703618
0.688073
0.36664
0.36411
0.481086
0.683159
0.60514
0.700641
0.690171
0.701185
0.695574
0.425184
0.702932
0.687918
0.693599
0.364236
0.693633
0.675671
0.422144
0.489936
0.369507
0.383519
0.377946
0.628556
0.721383
0.698806
0.36346
0.479817
0.699375
0.361129
0.705705
0.696261
0.693761
0.725223
0.700662
0.398559
0.383269
0.381622
0.630142
0.405125
0.698728
0.381809
0.691299
0.690202
0.69955
0.393906
0.507621
0.485455
0.701983
0.372401
0.363548
0.692668
0.694116
0.685125
0.690038
0.692535
0.711152
0.366579
0.622854
0.704443
0.539753
0.701558
0.706706
0.709647
0.496674
0.483858
0.696647
0.51955
0.679988
0.365163
0.690421
0.693177
0.449116
0.406169
0.694137
0.538269
0.704884
0.705992
0.36643
0.361553
0.698777
0.513389
0.462357
0.692718
0.692302
0.40781
0.694222
0.697996
0.689293
0.366798
0.625876
0.366335
0.692391
0.702095
0.711014
0.69834
0.697307
0.434687
0.442226
0.702328
0.364215
0.592781
0.417297
0.700774
0.381109
0.710168
0.704924
0.700156
0.366598
0.70441
0.702871
0.36302
0.69067
0.356091
0.696578
0.366221
0.358731
0.385388
0.704969
0.693975
0.452258
0.441256
0.689776
0.700251
0.503642