# vtk DataFile Version 1.0
unstructured grid
ascii
DATASET UNSTRUCTURED_GRID
points 13672 float
0.0796578 -0.059106 0
0.00128732 0.00159165 0
0.00227961 -0.00102548 0
0.0791586 -0.0598787 0
-0.0546216 0.01 0
0.000495206 0.025 0
0.0800549 -0.035 0
0.135172 -0.08 0
-0.0546216 -0.0451168 0
0.000495206 -0.0301168 0
0.0800549 -0.0901168 0
0.135172 -0.135117 0
-0.0546216 -0.0451168 -0.00551168
0.000495206 -0.0301168 -0.00551168
0.0800549 -0.0901168 -0.00551168
0.135172 -0.135117 -0.00551168
0.135172 -0.08 -0.00551168
0.0800549 -0.035 -0.00551168
0.000495206 0.025 -0.00551168
-0.0546216 0.01 -0.00551168
0.00128732 0.00159165 -0.00551168
0.00227961 -0.00102548 -0.00551168
0.0791586 -0.0598787 -0.00551168
0.0796578 -0.059106 -0.00551168
0.00165953 -0.000990923 0
0.00119576 -0.000874076 0
0.000866021 -0.000641801 0
0.000645147 -0.000349912 0
0.00052235 -1.7281e-05 0
0.00049972 0.000348016 0
0.000601632 0.000737716 0
0.000861774 0.0011403 0
0.00157235 0.00183217 0
0.00188647 0.00206725 0
0.00222612 0.00230203 0
0.00258713 0.00254351 0
0.00296826 0.00279524 0
0.00337118 0.00305664 0
0.00379785 0.00332658 0
0.00425045 0.00360349 0
0.00473139 0.00388521 0
0.0052432 0.00416895 0
0.0057881 0.00445204 0
0.00636753 0.00473281 0
0.00698281 0.00500961 0
0.00763526 0.00528058 0
0.00832616 0.00554366 0
0.00905691 0.00579603 0
0.00982918 0.00603333 0
0.0106445 0.00625033 0
0.0115038 0.00644128 0
0.0124073 0.00660297 0
0.0133543 0.00673414 0
0.0143444 0.00683382 0
0.0153769 0.00690031 0
0.0164512 0.00693173 0
0.0175666 0.00692547 0
0.0187219 0.00687822 0
0.0199156 0.00678477 0
0.0211454 0.00663864 0
0.0224084 0.00643275 0
0.0237018 0.00616676 0
0.0250249 0.00584739 0
0.026375 0.00547298 0
0.0277479 0.00503752 0
0.0291386 0.00453545 0
0.0305433 0.0039653 0
0.0319572 0.0033256 0
0.0333681 0.00260019 0
0.034775 0.00179799 0
0.0361793 0.000930615 0
0.0375798 3.12222e-06 0
0.0389689 -0.000988429 0
0.0403357 -0.00205109 0
0.041675 -0.00318283 0
0.0429849 -0.00437751 0
0.0442643 -0.00562904 0
0.0455126 -0.00693089 0
0.0467314 -0.00827518 0
0.0479204 -0.00965638 0
0.0490661 -0.0110799 0
0.0501515 -0.0125519 0
0.0511696 -0.0140695 0
0.0521492 -0.0156071 0
0.0531202 -0.0171411 0
0.0540851 -0.0186663 0
0.0550431 -0.0201798 0
0.0559923 -0.0216793 0
0.0569311 -0.0231626 0
0.0578582 -0.0246273 0
0.0587723 -0.0260715 0
0.0596721 -0.027493 0
0.0605563 -0.02889 0
0.0614241 -0.0302609 0
0.0622742 -0.0316042 0
0.063106 -0.0329183 0
0.0639186 -0.034202 0
0.0647113 -0.0354543 0
0.0654835 -0.0366743 0
0.0662345 -0.0378613 0
0.0669642 -0.0390145 0
0.0676726 -0.0401333 0
0.0683597 -0.0412172 0
0.0690246 -0.0422665 0
0.0696662 -0.0432819 0
0.0702841 -0.0442636 0
0.0708793 -0.0452111 0
0.0714538 -0.0461237 0
0.072009 -0.047001 0
0.0725452 -0.0478434 0
0.0730611 -0.0486524 0
0.073556 -0.0494294 0
0.0740291 -0.0501756 0
0.0744812 -0.0508916 0
0.0749138 -0.0515773 0
0.0753285 -0.0522331 0
0.0757266 -0.0528592 0
0.076109 -0.0534564 0
0.0764753 -0.0540264 0
0.0768243 -0.054571 0
0.0771553 -0.0550919 0
0.0774679 -0.0555901 0
0.0777617 -0.0560669 0
0.0780369 -0.056523 0
0.0782958 -0.0569578 0
0.0785421 -0.0573703 0
0.0787786 -0.0577603 0
0.0790073 -0.0581279 0
0.0792295 -0.058474 0
0.0794462 -0.0587995 0
0.0798803 -0.0594162 0
0.0800272 -0.0596588 0
0.0800357 -0.0598891 0
0.0799275 -0.0600784 0
0.0797205 -0.0601773 0
0.0794593 -0.0601051 0
0.0789155 -0.0596491 0
0.0786707 -0.0593963 0
0.0784111 -0.0591319 0
0.0781372 -0.0588542 0
0.0778566 -0.0585548 0
0.0775715 -0.0582308 0
0.0772803 -0.0578828 0
0.0769832 -0.0575099 0
0.0766822 -0.0571097 0
0.0763801 -0.0566796 0
0.0760759 -0.0562196 0
0.0757623 -0.0557337 0
0.0754359 -0.0552232 0
0.0750951 -0.0546879 0
0.0747379 -0.054128 0
0.0743626 -0.0535435 0
0.0739688 -0.0529338 0
0.0735559 -0.0522981 0
0.0731238 -0.0516357 0
0.0726718 -0.050946 0
0.0721991 -0.0502288 0
0.0717046 -0.049484 0
0.0711872 -0.0487117 0
0.0706461 -0.047912 0
0.0700804 -0.0470849 0
0.0694892 -0.0462308 0
0.0688718 -0.0453499 0
0.0682271 -0.0444431 0
0.0675544 -0.043511 0
0.0668527 -0.0425546 0
0.0661215 -0.0415748 0
0.06536 -0.040573 0
0.0645676 -0.0395504 0
0.0637439 -0.0385087 0
0.0628887 -0.0374493 0
0.062002 -0.0363741 0
0.0610838 -0.0352847 0
0.0601345 -0.0341831 0
0.0591547 -0.033071 0
0.0581456 -0.0319502 0
0.0571083 -0.0308224 0
0.0560444 -0.0296893 0
0.0549562 -0.028552 0
0.053845 -0.0274126 0
0.0527113 -0.0262746 0
0.051554 -0.0251427 0
0.0503724 -0.0240222 0
0.0491675 -0.0229164 0
0.047941 -0.0218282 0
0.0466955 -0.0207597 0
0.0454337 -0.0197126 0
0.0441592 -0.0186878 0
0.0428751 -0.0176863 0
0.0415841 -0.0167097 0
0.0402878 -0.0157609 0
0.0389879 -0.0148428 0
0.0376864 -0.0139575 0
0.0363853 -0.013107 0
0.0350871 -0.0122931 0
0.0337942 -0.0115164 0
0.0325095 -0.0107772 0
0.0312357 -0.0100756 0
0.0299758 -0.00941024 0
0.0287337 -0.00877784 0
0.0275126 -0.00817571 0
0.0263139 -0.00760375 0
0.0251376 -0.00706528 0
0.0239829 -0.0065649 0
0.0228537 -0.00609619 0
0.0217522 -0.00565563 0
0.0206795 -0.00524226 0
0.0196364 -0.00485507 0
0.0186233 -0.00449318 0
0.0176408 -0.00415577 0
0.016689 -0.00384204 0
0.0157682 -0.00355115 0
0.0148783 -0.00328218 0
0.0140192 -0.00303468 0
0.0131906 -0.00280795 0
0.0123925 -0.00260016 0
0.0116246 -0.00241012 0
0.0108864 -0.00223769 0
0.0101774 -0.00208212 0
0.00949701 -0.00194206 0
0.00884483 -0.0018163 0
0.0082202 -0.0017039 0
0.00762247 -0.00160391 0
0.00705097 -0.00151528 0
0.006505 -0.00143697 0
0.0059838 -0.00136806 0
0.00548662 -0.00130772 0
0.00501265 -0.00125519 0
0.00456114 -0.00120954 0
0.00413136 -0.00116914 0
0.00372257 -0.00113251 0
0.00333398 -0.00109853 0
0.00296466 -0.00106798 0
0.00261363 -0.0010431 0
-0.052721 -0.0445996 0
-0.0508204 -0.0440823 0
-0.0489199 -0.0435651 0
-0.0470193 -0.0430478 0
-0.0451187 -0.0425306 0
-0.0432181 -0.0420134 0
-0.0413175 -0.0414961 0
-0.039417 -0.0409789 0
-0.0375164 -0.0404616 0
-0.0356158 -0.0399444 0
-0.0337152 -0.0394271 0
-0.0318146 -0.0389099 0
-0.0299141 -0.0383927 0
-0.0280135 -0.0378754 0
-0.0261129 -0.0373582 0
-0.0242123 -0.0368409 0
-0.0223117 -0.0363237 0
-0.0204112 -0.0358065 0
-0.0185106 -0.0352892 0
-0.01661 -0.034772 0
-0.0147094 -0.0342547 0
-0.0128088 -0.0337375 0
-0.0109083 -0.0332202 0
-0.00900769 -0.032703 0
-0.00710711 -0.0321858 0
-0.00520653 -0.0316685 0
-0.00330595 -0.0311513 0
-0.00140537 -0.030634 0
0.00190689 -0.0299614 0
0.00332271 -0.0298498 0
0.00474133 -0.0297825 0
0.00616136 -0.0297597 0
0.0075814 -0.0297814 0
0.00900007 -0.0298477 0
0.010416 -0.0299583 0
0.0118278 -0.0301127 0
0.0132342 -0.0303103 0
0.0146339 -0.0305504 0
0.0160259 -0.0308322 0
0.0174091 -0.0311546 0
0.0187824 -0.0315166 0
0.020145 -0.031917 0
0.0214961 -0.0323546 0
0.0228351 -0.032828 0
0.0241613 -0.0333361 0
0.0254744 -0.0338774 0
0.0267738 -0.0344507 0
0.0280592 -0.0350545 0
0.0293306 -0.0356877 0
0.0305875 -0.0363488 0
0.0318301 -0.0370367 0
0.0330581 -0.0377501 0
0.0342717 -0.0384879 0
0.0354708 -0.0392489 0
0.0366556 -0.0400321 0
0.0378262 -0.0408363 0
0.0389828 -0.0416607 0
0.0401254 -0.0425042 0
0.0412543 -0.0433659 0
0.0423698 -0.0442451 0
0.043472 -0.0451408 0
0.0445612 -0.0460523 0
0.0456375 -0.0469789 0
0.0467013 -0.0479199 0
0.0477529 -0.0488746 0
0.0487923 -0.0498424 0
0.04982 -0.0508227 0
0.0508362 -0.051815 0
0.051841 -0.0528187 0
0.0528348 -0.0538333 0
0.0538178 -0.0548584 0
0.0547903 -0.0558935 0
0.0557524 -0.0569382 0
0.0567045 -0.0579922 0
0.0576467 -0.0590549 0
0.0585792 -0.0601261 0
0.0595024 -0.0612055 0
0.0604163 -0.0622926 0
0.0613212 -0.0633873 0
0.0622174 -0.0644891 0
0.0631049 -0.0655979 0
0.0639841 -0.0667134 0
0.064855 -0.0678353 0
0.0657179 -0.0689633 0
0.0665729 -0.0700974 0
0.0674202 -0.0712372 0
0.06826 -0.0723826 0
0.0690925 -0.0735333 0
0.0699178 -0.0746892 0
0.070736 -0.0758501 0
0.0715473 -0.0770159 0
0.0723518 -0.0781863 0
0.0731498 -0.0793612 0
0.0739412 -0.0805405 0
0.0747264 -0.081724 0
0.0755053 -0.0829116 0
0.0762781 -0.0841033 0
0.0770449 -0.0852987 0
0.0778059 -0.0864979 0
0.0785611 -0.0877007 0
0.0793108 -0.088907 0
0.0814681 -0.0912706 0
0.0828814 -0.0924245 0
0.0842946 -0.0935783 0
0.0857079 -0.0947322 0
0.0871211 -0.095886 0
0.0885344 -0.0970399 0
0.0899476 -0.0981937 0
0.0913609 -0.0993476 0
0.0927741 -0.100501 0
0.0941874 -0.101655 0
0.0956006 -0.102809 0
0.0970139 -0.103963 0
0.0984272 -0.105117 0
0.0998404 -0.106271 0
0.101254 -0.107424 0
0.102667 -0.108578 0
0.10408 -0.109732 0
0.105493 -0.110886 0
0.106907 -0.11204 0
0.10832 -0.113194 0
0.109733 -0.114348 0
0.111146 -0.115501 0
0.11256 -0.116655 0
0.113973 -0.117809 0
0.115386 -0.118963 0
0.116799 -0.120117 0
0.118213 -0.121271 0
0.119626 -0.122424 0
0.121039 -0.123578 0
0.122452 -0.124732 0
0.123866 -0.125886 0
0.125279 -0.12704 0
0.126692 -0.128194 0
0.128105 -0.129348 0
0.129519 -0.130501 0
0.130932 -0.131655 0
0.132345 -0.132809 0
0.133758 -0.133963 0
0.135172 -0.133216 0
0.135172 -0.131316 0
0.135172 -0.129415 0
0.135172 -0.127514 0
0.135172 -0.125614 0
0.135172 -0.123713 0
0.135172 -0.121813 0
0.135172 -0.119912 0
0.135172 -0.118012 0
0.135172 -0.116111 0
0.135172 -0.11421 0
0.135172 -0.11231 0
0.135172 -0.110409 0
0.135172 -0.108509 0
0.135172 -0.106608 0
0.135172 -0.104708 0
0.135172 -0.102807 0
0.135172 -0.100906 0
0.135172 -0.0990058 0
0.135172 -0.0971052 0
0.135172 -0.0952046 0
0.135172 -0.0933041 0
0.135172 -0.0914035 0
0.135172 -0.0895029 0
0.135172 -0.0876023 0
0.135172 -0.0857017 0
0.135172 -0.0838012 0
0.135172 -0.0819006 0
0.133758 -0.0788462 0
0.132345 -0.0776923 0
0.130932 -0.0765385 0
0.129519 -0.0753846 0
0.128105 -0.0742308 0
0.126692 -0.0730769 0
0.125279 -0.0719231 0
0.123866 -0.0707692 0
0.122452 -0.0696154 0
0.121039 -0.0684615 0
0.119626 -0.0673077 0
0.118213 -0.0661538 0
0.116799 -0.065 0
0.115386 -0.0638462 0
0.113973 -0.0626923 0
0.11256 -0.0615385 0
0.111146 -0.0603846 0
0.109733 -0.0592308 0
0.10832 -0.0580769 0
0.106907 -0.0569231 0
0.105493 -0.0557692 0
0.10408 -0.0546154 0
0.102667 -0.0534615 0
0.101254 -0.0523077 0
0.0998404 -0.0511538 0
0.0984272 -0.05 0
0.0970139 -0.0488462 0
0.0956006 -0.0476923 0
[...]
CELL_DATA 13116
SCALARS rho float
LOOKUP_TABLE default
0.550797
0.658984
0.354218
0.713953
0.701673
0.679177
0.38337
0.702208
0.529934
0.707142
0.377918
0.373315
0.701967
0.402283
0.376299
0.679316
0.518664
0.698228
0.678155
0.392608
0.556197
0.391217
0.408587
0.700034
0.611937
0.621607
0.707197
0.355229
0.611587
0.648249
0.676952
0.386865
0.558387
0.449943
0.379584
0.553519
0.666161
0.672502
0.678439
0.680841
0.679086
0.706424
0.428072
0.345681
0.676712
0.678036
0.634167
0.682151
0.382829
0.526215
0.698059
0.444554
0.385752
0.511714
0.556951
0.587897
0.344076
0.6964
0.539656
0.378631
0.405723
0.7087
0.648675
0.678327
0.677296
0.418557
0.683106
0.673578
0.684742
0.677453
0.377909
0.590336
0.38848
0.385452
0.676445
0.361631
0.643279
0.695238
0.377956
0.69538
0.679336
0.631351
0.700033
0.682195
0.666668
0.45272
0.390503
0.671387
0.659501
0.383887
0.376047
0.660786
0.702506
0.664119
0.650871
0.600658
0.614508
0.676882
0.676625
0.601865
0.681538
0.586537
0.678661
0.408262
0.614553
0.406429
0.361117
0.475736
0.362574
0.621919
0.504789
0.626703
0.598807
0.68327
0.695957
0.683389
0.397968
0.390153
0.69097
0.685056
0.674105
0.38767
0.685245
0.391305
0.656366
0.441299
0.391146
0.51319
0.342647
0.5279
0.691269
0.683875
0.50688
0.390078
0.486611
0.585483
0.675452
0.688325
0.680647
0.684721
0.626487
0.637724
0.511456
0.627236
0.644393
0.394334
0.37834
0.621655
0.699249
0.692791
0.548264
0.681495
0.682001
0.375454
0.703456
0.668025
0.406071
0.687134
0.676903
0.671831
0.699171
0.379252
0.698159
0.406852
0.384404
0.70609
0.653767
0.697768
0.380696
0.468774
0.424575
0.675464
0.382138
0.495912
0.682224
0.407975
0.382223
0.389596
0.622465
0.678692
0.385219
0.434763
0.52548
0.666736
0.678821
0.537245
0.36739
0.678688
0.600076
0.464236
0.637286
0.619473
0.677582
0.40762
0.615608
0.67919
0.703971
0.678349
0.658186
0.408323
0.40803
0.627037
0.507748
0.413084
0.693435
0.677147
0.453514
0.611074
0.39605
0.385746
0.359326
0.68131
0.40456
0.390607
0.38315
0.373646
0.368696
0.677809
0.65258
0.43915
0.34416
0.682819
0.498614
0.385946
0.560785
0.707779
0.641959
0.373153
0.682401
0.393908
0.708745
0.379423
0.677424
0.580247
0.676728
0.672862
0.677699
0.375122
0.433914
0.671908
0.676333
0.679019
0.675638
0.677481
0.693808
0.385046
0.692696
0.704264
0.676669
0.377588
0.385469
0.678694
0.690119
0.677261
0.686066
0.536661
0.686796
0.376931
0.399808
0.400136
0.396795
0.596313
0.703759
0.641861
0.382493
0.674793
0.395117
0.436438
0.616931
0.386066
0.625245
0.702456
0.676123
0.696047
0.376687
0.676079
0.684662
0.676688
0.68816
0.374909
0.393072
0.407082
0.580578
0.386659
0.392745
0.334554
0.306357
0.666498
0.385334
0.666074
0.702186
0.382523
0.393694
0.397485
0.456604
0.351548
0.669928
0.586152
0.621299
0.387031
0.681021
0.593674
0.403913
0.377659
0.678433
0.690003
0.678369
0.363938
0.679342
0.417199
0.683045
0.706769
0.690972
0.705572
0.409578
0.682381
0.393787
0.679206
0.708105
0.67318
0.384005
0.334126
0.704841
0.408954
0.648817
0.708563
0.367406
0.689848
0.699744
0.398866
0.674591
0.702451
0.3878
0.692888
0.454164
0.581299
0.674834
0.461141
0.687379
0.384451
0.697878
0.34612
0.67762
0.576409
0.705093
0.373649
0.35979
0.668094
0.379095
0.692228
0.60646
0.424643
0.67546
0.375341
0.382225
0.689023
0.561062
0.671788
0.39377
0.405563
0.69244
0.701993
0.378344
0.700044
0.404491
0.405064
0.682913
0.68156
0.462663
0.397553
0.688498
0.677157
0.679414
0.673179
0.695203
0.54839
0.32848
0.393194
0.384068
0.679331
0.384309
0.523346
0.37255
0.392281
0.353687
0.472239
0.144364
0.380785
0.669265
0.329265
0.69891
0.611027
0.679707
0.663277
0.693678
0.38258
0.390767
0.414867
0.337155
0.689162
0.594554
0.679099
0.611678
0.646203
0.622164
0.629586
0.623154
0.645378
0.693623
0.694897
0.678809
0.406788
0.461874
0.546655
0.388778
0.582159
0.586126
0.387466
0.68302
0.6762
0.410525
0.388633
0.380802
0.375024
0.637077
0.37962
0.407711
0.681834
0.40855
0.579703
0.380079
0.678736
0.67831
0.343841
0.390973
0.688525
0.458189
0.37782
0.373032
0.393228
0.367038
0.394541
0.389757
0.392865
0.436259
0.375803
0.58276
0.370635
0.665164
0.382195
0.429218
0.509526
0.39808
0.382432
0.395085
0.677745
0.442458
0.64644
0.478411
0.415589
0.613586
0.662105
0.451958
0.689444
0.623096
0.62154
0.394789
0.676739
0.392059
0.696469
0.676861
0.407095
0.390432
0.598746
0.341979
0.462964
0.579314
0.360044
0.686189
0.647156
0.390305
0.377983
0.382257
0.491408
0.375957
0.387294
0.380781
0.394314
0.709555
0.710797
0.463371
0.605066
0.485745
0.616106
0.355244
0.380914
0.534472
0.40571
0.682463
0.295689
0.374324
0.502634
0.676058
0.648817
0.567493
0.365684
0.390132
0.577051
0.702725
0.677724
0.573138
0.620222
0.595255
0.377384
0.677279
0.575688
0.670816
0.313141
0.355139
0.682292
0.704265
0.662245
0.708101
0.653439
0.620127
0.698006
0.671505
0.679561
0.388586
0.675777
0.341913
0.395424
0.388395
0.712946
0.677609
0.312109
0.665605
0.628663
0.384278
0.677747
0.689186
0.690104
0.354545
0.380361
0.693486
0.376086
0.379178
0.380047
0.379395
0.680165
0.387986
0.712983
0.373669
0.659815
0.696622
0.683401
0.702353
0.376398
0.389545
0.679715
0.710347
0.655629
0.709229
0.703989
0.504298
0.39767
0.401654
0.68012
0.532185
0.381304
0.457947
0.38803
0.675922
0.679433
0.312763
0.391698
0.663101
0.47177
0.670177
0.665857
0.341612
0.394732
0.651323
0.676257
0.407366
0.647997
0.653144
0.678855
0.371561
0.675621
0.34196
0.676654
0.669591
0.396681
0.36831
0.392944
0.676707
0.344227
0.378946
0.390673
0.677896
0.687405
0.378897
0.393067
0.379867
0.678007
0.388705
0.679028
0.394489
0.59427
0.707823
0.385337
0.407008
0.407542
0.504777
0.392468
0.635798
0.359754
0.380921
0.678445
0.386031
0.680952
0.644938
0.676777
0.381989
0.683159
0.701197
0.703594
0.680427
0.654217
0.682655
0.389695
0.677634
0.441478
0.676457
0.375602
0.694997
0.509159
0.382282
0.677093
0.697279
0.38101
0.626497
0.375829
0.376402
0.681729
0.677386
0.372881
0.392199
0.378807
0.395784
0.671061
0.700184
0.374732
0.385514
0.692268
0.687882
0.59613
0.700602
0.679363
0.37908
0.705243
0.430929
0.69789
0.391771
0.598853
0.488863
0.682089
0.673012
0.58463
0.346015
0.367078
0.678193
0.612289
0.517692
0.700078
0.396308
0.682422
0.703036
0.369103
0.459265
0.701668
0.365065
0.677212
0.672905
0.329592
0.686146
0.649109
0.370235
0.686275
0.406171
0.657268
0.358319
0.681079
0.646665
0.380437
0.678361
0.698666
0.694683
0.629818
0.678482
0.591482
0.37288
0.419646
0.367824
0.406936
0.675143
0.563893
0.68612
0.698532
0.38447
0.38611
0.682525
0.708718
0.68915
0.702312
0.382311
0.695091
0.704103
0.391112
0.381777
0.691296
0.678518
0.662025
0.39822
0.599711
0.325808
0.685452
0.642325
0.677769
0.666497
0.379869
0.676643
0.666068
0.701539
0.676076
0.679287
0.437393
0.694747
0.386768
0.621723
0.705678
0.468391
0.648791
0.677876
0.695947
0.40588
0.407199
0.59261
0.655713
0.376742
0.397692
0.384999
0.37501
0.661927
0.681968
0.677457
0.307272
0.37658
0.684503
0.685677
0.389631
0.384437
0.470142
0.66447
0.678434
0.672445
0.691932
0.386265
0.377303
0.675718
0.389299
0.389745
0.359013
0.678451
0.32627
0.382074
0.580094
0.678147
0.622868
0.678817
0.678619
0.402832
0.382758
0.389753
0.477973
0.442019
0.379
0.671984
0.691598
0.658279
0.680799
0.408287
0.382001
0.707802
0.38347
0.679133
0.646036
0.677047
0.373019
0.391649
0.651271
0.676969
0.562122
0.387688
0.66902
0.678999
0.575655
0.693056
0.700848
0.675877
0.620756
0.38421
0.678689
0.677099
0.614816
0.685908
0.675191
0.628593
0.675986
0.687329
0.381496
0.371653
0.38197
0.677183
0.507778
0.381642
0.682218
0.693024
0.367034
0.634327
0.330097
0.639129
0.470847
0.380115
0.709079
0.699588
0.380306
0.559452
0.677177
0.364863
0.664669
0.414836
0.405381
0.617946
0.6125
0.509478
0.678618
0.384393
0.697965
0.378437
0.39155
0.680833
0.38069
0.605441
0.391064
0.633332
0.600483
0.675901
0.65164
0.389594
0.380045
0.607052
0.430233
0.688851
0.460296
0.593203
0.678915
0.701305
0.444266
0.619109
0.62051
0.704288
0.684051
0.349718
0.37614
0.549083
0.617495
0.704816
0.380549
0.678513
0.564118
0.414662
0.37896
0.674742
0.665465
0.675775
0.676618
0.585469
0.683791
0.678269
0.673531
0.390998
0.662849
0.467443
0.68713
0.677786
0.302682
0.616213
0.69977
0.376367
0.380374
0.404563
0.675217
0.379108
0.617851
0.691265
0.66448
0.360423
0.669344
0.41285
0.599086
0.678161
0.677343
0.670269
0.677961
0.622893
0.678003
0.527227
0.675867
0.356417
0.678648
0.683208
0.411095
0.676204
0.683297
0.406015
0.392177
0.348707
0.691582
0.388878
0.676099
0.389384
0.701101
0.390734
0.489444
0.396639
0.695903
0.70167
0.534439
0.272433
0.622684
0.677877
0.400147
0.595027
0.711292
0.378978
0.590636
0.67682
0.707386
0.679461
0.403928
0.473006
0.690818
0.678878
0.623397
0.390762
0.403558
0.671351
0.675605
0.676228
0.67553
0.550449
0.684354
0.545795
0.684333
0.390161
0.413312
0.675588
0.700354
0.677972
0.417743
0.678683
0.558
0.600496
0.363751
0.422348
0.700551
0.714311
0.561797
0.337324
0.680178
0.67633
0.38153
0.614966
0.691691
0.38077
0.429914
0.391176
0.597597
0.391766
0.386661
0.673523
0.468445
0.705151
0.640461
0.382359
0.394729
0.707614
0.371986
0.380282
0.676971
0.403665
0.35645
0.594426
0.648255
0.683532
0.375189
0.306564
0.376917
0.646562
0.405824
0.684231
0.380395
0.683007
0.606706
0.675501
0.626654
0.675523
0.640023
0.678593
0.701861
0.687151
0.387173
0.388854
0.667762
0.678379
0.515583
0.611447
0.562805
0.678218
0.61297
0.344575
0.684066
0.710278
0.673597
0.378894
0.677647
0.367126
0.682276
0.507619
0.6957
0.680513
0.380499
0.689234
0.380692
0.430107
0.650125
0.355385
0.686655
0.675247
0.684711
0.372099
0.68174
0.373178
0.372856
0.391602
0.387997
0.604153
0.384395
0.630418
0.67793
0.340661
0.408166
0.497754
0.588956
0.634404
0.624774
0.382634
0.411596
0.378329
0.396717
0.269528
0.633599
0.631789
0.352131
0.677584
0.690678
0.3915
0.710244
0.685024
0.678026
0.38149
0.676481
0.677069
0.694947
0.686904
0.374731
0.685124
0.696656
0.678333
0.675758
0.678108
0.391815
0.397676
0.681687
0.547237
0.394143
0.680554
0.406145
0.580635
0.626583
0.655022
0.659268
0.375256
0.609712
0.402534
0.380105
0.690575
0.694196
0.699524
0.692139
0.657658
0.373254
0.703554
0.386246
0.514402
0.705415
0.676598
0.690225
0.378357
0.39612
0.705044
0.39664
0.69276
0.656058
0.434024
0.39123
0.682934
0.393501
0.680396
0.692272
0.65388
0.393167
0.372544
0.509758
0.520361
0.622004
0.476879
0.678393
0.62455
0.668108
0.675072
0.684131
0.385504
0.394164
0.694854
0.678104
0.620347
0.468593
0.413603
0.674235
0.385169
0.67929
0.624059
0.324259
0.68858
0.375642
0.637025
0.35715
0.700323
0.376349
0.681456
0.678553
0.344678
0.659672
0.655096
0.332581
0.677433
0.677838
0.56079
0.397545
0.370706
0.470033
0.701743
0.601521
0.380294
0.595131
0.68678
0.678474
0.350747
0.609632
0.664151
0.471252
0.678383
0.679338
0.298282
0.68637
0.676786
0.353624
0.599561
0.381058
0.636726
0.381595
0.405253
0.703843
0.39155
0.379849
0.389897
0.682511
0.654986
0.410924
0.680114
0.366985
0.662501
0.373105
0.65916
0.373399
0.679063
0.68213
0.645163
0.677548
0.563349
0.67858
0.678002
0.341711
0.644527
0.650846
0.487966
0.683407
0.503682
0.410748
0.703184
0.38968
0.578357
0.321886
0.67894
0.388209
0.407098
0.699729
0.678801
0.390296
0.685867
0.691774
0.67519
0.701692
0.676628
0.384155
0.709475
0.392078
0.405523
0.660249
0.692957
0.705316
0.665509
0.38467
0.378176
0.377266
0.660336
0.677854
0.369685
0.661272
0.414597
0.377755
0.362521
0.663041
0.391926
0.70543
0.687706
0.643497
0.676334
0.686255
0.575718
0.637592
0.443326
0.407145
0.389863
0.676619
0.676482
0.418371
0.632931
0.594717
0.639715
0.405273
0.402561
0.628562
0.28267
0.62169
0.593107
0.391289
0.678093
0.663766
0.381789
0.682734
0.379558
0.685754
0.706025
0.675958
0.387306
0.4809
0.685079
0.307124
0.453189
0.676445
0.315956
0.678209
0.683925
0.625131
0.692223
0.334665
0.677069
0.689898
0.678692
0.369442
0.694503
0.384948
0.397073
0.668378
0.678748
0.677669
0.24003
0.680904
0.644362
0.676429
0.412674
0.400021
0.377117
0.689984
0.381647
0.383591
0.369595
0.590803
0.379552
0.302064
0.45226
0.684041
0.387269
0.677509
0.678034
0.680438
0.369843
0.684803
0.659441
0.677564
0.424238
0.67347
0.378156
0.39143
0.681497
0.394191
0.628316
0.685698
0.675826
0.388386
0.334508
0.381265
0.571648
0.675616
0.238171
0.67338
0.682311
0.693347
0.376045
0.387456
0.34982
0.599682
0.3799
0.675135
0.616257
0.678194
0.672504
0.374742
0.628394
0.389277
0.560898
0.657952
0.708483
0.569688
0.482473
0.672887
0.624243
0.695898
0.388307
0.376164
0.3675
0.695132
0.538042
0.676618
0.389133
0.404522
0.695241
0.68458
0.67725
0.393597
0.681282
0.569817
0.572936
0.604163
0.392208
0.393199
0.29777
0.678763
0.677972
0.674216
0.6141
0.348728
0.685394
0.666959
0.677991
0.677481
0.68597
0.710033
0.679199
0.691346
0.698974
0.403708
0.686547
0.693242
0.678303
0.688737
0.678344
0.579233
0.387456
0.409107
0.618258
0.395911
0.337601
0.680246
0.379335
0.647614
0.683922
0.656201
0.67441
0.406251
0.682237
0.388352
0.415318
0.679363
0.683266
0.681006
0.359645
0.698671
0.678795
0.614816
0.678451
0.388931
0.678227
0.705514
0.664449
0.409749
0.697046
0.375373
0.715134
0.359098
0.387294
0.524722
0.456854
0.708939
0.697229
0.679429
0.370853
0.678179
0.413249
0.38072
0.645546
0.501527
0.387519
0.678966
0.386668
0.524694
0.672461
0.634588
0.658873
0.500428
0.607905
0.661353
0.679591
0.576515
0.69947
0.545812
0.69908
0.609402
0.653025
0.407061
0.378947
0.4562
0.692222
0.405726
0.670495
0.686273
0.607621
0.679747
0.522696
0.685485
0.675047
0.379306
0.684951
0.605075
0.493274
0.609128
0.704694
0.637746
0.678193
0.377937
0.38115
0.677491
0.541184
0.547957
0.687864
0.681836
0.680766
0.704276
0.705692
0.625291
0.621593
0.708415
0.385012
0.392839
0.389661
0.350892
0.67616
0.466202
0.541852
0.688147
0.680109
0.40749
0.67559
0.714391
0.359224
0.380525
0.676213
0.688353
0.392355
0.378476
0.38284
0.675095
0.621093
0.413939
0.386739
0.391735
0.403512
0.350761
0.397389
0.705047
0.682247
0.680656
0.389462
0.657328
0.609682
0.621806
0.342526
0.387276
0.643101
0.67554
0.381084
0.67872
0.382804
0.699389
0.404826
0.679582
0.38083
0.659197
0.701573
0.37566
0.574757
0.390726
0.709816
0.405474
0.613565
0.406187
0.51284
0.377936
0.604505
0.400181
0.677437
0.677503
0.6195
0.67437
0.337664
0.659411
0.677887
0.699958
0.607258
0.663547
0.389168
0.398316
0.415134
0.702533
0.29511
0.69939
0.556661
0.692711
0.707288
0.465027
0.694516
0.379947
0.414141
0.383219
0.517695
0.522555
0.681071
0.390102
0.392177
0.68047
0.386556
0.392099
0.555762
0.375197
0.380639
0.410001
0.707603
0.66385
0.618131
0.410561
0.65594
0.679052
0.408795
0.329365
0.666562
0.678672
0.564385
0.528004
0.42094
0.368605
0.377453
0.672337
0.61325
0.529223
0.688254
0.392881
0.575238
0.376082
0.677178
0.699197
0.390875
0.398855
0.620203
0.549018
0.701803
0.698902
0.702103
0.686398
0.705721
0.368311
0.38949
0.355905
0.374393
0.542771
0.67698
0.66561
0.377465
0.38488
0.456818
0.428927
0.680693
0.633598
0.376816
0.313432
0.683826
0.406232
0.659882
0.697174
0.649448
0.67819
0.555167
0.379666
0.383288
0.615552
0.391538
0.4247
0.408942
0.678081
0.678679
0.338342
0.390385
0.675457
0.399479
0.680671
0.702529
0.385054
0.378026
0.389254
0.683565
0.397845
0.675226
0.686743
0.607947
0.374313
0.542485
0.694651
0.670463
0.383163
0.667646
0.620593
0.435875
0.690569
0.7074
0.377233
0.389335
0.64998
0.395954
0.37603
0.663473
0.35238
0.680662
0.686016
0.701758
0.628581
0.700104
0.683467
0.678619
0.379144
0.419899
0.63132
0.680434
0.480623
0.70986
0.331929
0.686918
0.660534
0.577075
0.65533
0.39894
0.465935
0.676485
0.696447
0.606159
0.701831
0.682071
0.675918
0.700058
0.67529
0.657846
0.648273
0.681263
0.675629
0.678697
0.348975
0.635014
0.341524
0.682458
0.686638
0.693702
0.638774
0.691824
0.37476
0.380136
0.311809
0.382567
0.647373
0.39292
0.381842
0.68072
0.397984
0.690664
0.378843
0.66352
0.685567
0.389746
0.389289
0.325878
0.690722
0.362536
0.680231
0.688947
0.380759
0.640155
0.567352
0.350282
0.355656
0.400946
0.693229
0.389657
0.683738
0.518826
0.387364
0.677724
0.679208
0.702091
0.382372
0.58157
0.400588
0.659381
0.678509
0.683334
0.382174
0.679431
0.688134
0.621608
0.41326
0.690611
0.379886
0.37706
0.674464
0.461276
0.706035
0.411784
0.381382
0.454227
0.631424
0.345187
0.290447
0.359933
0.485867
0.676578
0.687835
0.39527
0.603406
0.682437
0.572956
0.425837
0.319285
0.569827
0.37568
0.375649
0.676574
0.377023
0.379355
0.693309
0.71163
0.355541
0.696923
0.369373
0.676112
0.351937
0.646746
0.67754
0.693126
0.678045
0.383717
0.37578
0.395152
0.678833
0.651587
0.605315
0.550773
0.378657
0.309236
0.678724
0.378814
0.681229
0.390264
0.677634
0.67502
0.371171
0.34424
0.379359
0.390458
0.342702
0.61858
0.650453
0.381907
0.685779
0.643715
0.372529
0.383367
0.71199
0.386465
0.684742
0.436988
0.692588
0.661396
0.684611
0.676709
0.380651
0.705739
0.680392
0.710686
0.393116
0.608583
0.611579
0.332134
0.692069
0.641287
0.692804
0.656709
0.705863
0.672671
0.705474
0.678386
0.67813
0.385004
0.701148
0.379668
0.465461
0.67615
0.397587
0.664445
0.605845
0.390152
0.623641
0.391012
0.37646
0.665122
0.596569
0.710978
0.374882
0.656246
0.62852
0.342936
0.387246
0.643213
0.679127
0.384891
0.368025
0.690732
0.711116
0.385581
0.648308
0.702976
0.666773
0.367298
0.380892
0.387539
0.663042
0.373805
0.668532
0.695165
0.678837
0.609578
0.685594
0.375062
0.660978
0.628946
0.701353
0.566359
0.403288
0.380652
0.400991
0.699875
0.690016
0.434259
0.659225
0.306202
0.646948
0.684773
0.396995
0.619514
0.669652
0.629204
0.386552
0.390768
0.340009
0.691766
0.705897
0.625928
0.527567
0.68497
0.379695
0.641127
0.676228
0.67977
0.383827
0.639234
0.390992
0.61294
0.404459
0.678535
0.664837
0.410825
0.691099
0.432787
0.675586
0.644092
0.675113
0.690211
0.420213
0.678631
0.679667
0.679581
0.67953
0.495673
0.676176
0.389172
0.680024
0.397998
0.384793
0.392628
0.342344
0.376266
0.382874
0.705896
0.373397
0.382433
0.66279
0.691679
0.652833
0.416136
0.687935
0.687448
0.678077
0.327405
0.581456
0.683058
0.387379
0.364614
0.376103
0.63488
0.521516
0.385872
0.589609
0.409931
0.676757
0.514377
0.391254
0.484977
0.656868
0.335656
0.679575
0.389213
0.476654
0.382112
0.676524
0.391087
0.656261
0.676297
0.587108
0.423262
0.382112
0.667137
0.710074
0.369811
0.372783
0.678812
0.391325
0.696631
0.391299
0.571898
0.401587
0.683303
0.389138
0.708155
0.385325
0.684483
0.686366
0.697207
0.676142
0.391232
0.405554
0.414948
0.62545
0.679817
0.629699
0.525293
0.391755
0.69301
0.322321
0.648953
0.5822
0.411093
0.39287
0.698672
0.678061
0.404253
0.677128
0.67202
0.698401
0.7018
0.389272
0.643804
0.380637
0.698383
0.373291
0.67776
0.641788
0.643747
0.708498
0.376815
0.714766
0.393002
0.381058
0.680467
0.676228
0.556959
0.678179
0.676114
0.38458
0.698668
0.672508
0.703042
0.374867
0.435411
0.684023
0.39408
0.687534
0.685703
0.667377
0.680398
0.292489
0.455518
0.656981
0.409627
0.660127
0.710843
0.48093
0.661168
0.276059
0.617948
0.698878
0.683299
0.660389
0.387494
0.409592
0.681484
0.665615
0.38861
0.336687
0.387213
0.407625
0.383453
0.410777
0.344905
0.395338
0.680923
0.396159
0.361252
0.689571
0.554897
0.675503
0.403817
0.389896
0.683153
0.475971
0.482955
0.703875
0.377796
0.668343
0.677715
0.621439
0.661708
0.355855
0.688203
0.678247
0.38025
0.376219
0.411149
0.60238
0.620575
0.705791
0.679529
0.680733
0.66562
0.376016
0.688889
0.678342
0.640161
0.384843
0.683994
0.57592
0.368726
0.441584
0.385181
0.395885
0.389312
0.59927
0.673742
0.669142
0.375371
0.397057
0.702683
0.352935
0.68938
0.679772
0.667882
0.683567
0.684297
0.387073
0.399192
0.405676
0.573725
0.379483
0.682174
0.39171
0.681444
0.678512
0.686131
0.361083
0.45662
0.418459
0.685918
0.36634
0.376373
0.679807
0.661267
0.623253
0.679193
0.636069
0.696119
0.377304
0.636981
0.700395
0.544045
0.684522
0.691748
0.697107
0.471301
0.435781
0.704575
0.510539
0.617396
0.377944
0.643403
0.667931
0.409173
0.371173
0.657376
0.519826
0.697307
0.689418
0.390762
0.392824
0.676819
0.387274
0.420004
0.669332
0.644687
0.39096
0.672939
0.676954
0.640969
0.377184
0.600634
0.378691
0.672234
0.698785
0.695908
0.666315
0.677081
0.306242
0.366192
0.679247
0.40097
0.621222
0.391925
0.685533
0.396613
0.653387
0.699959
0.676936
0.384379
0.675193
0.676418
0.375824
0.644296
0.388093
0.709222
0.38374
0.380323
0.384511
0.676232
0.675934
0.329628
0.306978
0.621767