# vtk DataFile Version 1.0
unstructured grid
ascii
DATASET UNSTRUCTURED_GRID
points 13672 float
0.0796578 -0.059106 0
0.00128732 0.00159165 0
0.00227961 -0.00102548 0
0.0791586 -0.0598787 0
-0.0546216 0.01 0
0.000495206 0.025 0
0.0800549 -0.035 0
0.135172 -0.08 0
-0.0546216 -0.0451168 0
0.000495206 -0.0301168 0
0.0800549 -0.0901168 0
0.135172 -0.135117 0
-0.0546216 -0.0451168 -0.00551168
0.000495206 -0.0301168 -0.00551168
0.0800549 -0.0901168 -0.00551168
0.135172 -0.135117 -0.00551168
0.135172 -0.08 -0.00551168
0.0800549 -0.035 -0.00551168
0.000495206 0.025 -0.00551168
-0.0546216 0.01 -0.00551168
0.00128732 0.00159165 -0.00551168
0.00227961 -0.00102548 -0.00551168
0.0791586 -0.0598787 -0.00551168
0.0796578 -0.059106 -0.00551168
0.00165953 -0.000990923 0
0.00119576 -0.000874076 0
0.000866021 -0.000641801 0
0.000645147 -0.000349912 0
0.00052235 -1.7281e-05 0
0.00049972 0.000348016 0
0.000601632 0.000737716 0
0.000861774 0.0011403 0
0.00157235 0.00183217 0
0.00188647 0.00206725 0
0.00222612 0.00230203 0
0.00258713 0.00254351 0
0.00296826 0.00279524 0
0.00337118 0.00305664 0
0.00379785 0.00332658 0
0.00425045 0.00360349 0
0.00473139 0.00388521 0
0.0052432 0.00416895 0
0.0057881 0.00445204 0
0.00636753 0.00473281 0
0.00698281 0.00500961 0
0.00763526 0.00528058 0
0.00832616 0.00554366 0
0.00905691 0.00579603 0
0.00982918 0.00603333 0
0.0106445 0.00625033 0
0.0115038 0.00644128 0
0.0124073 0.00660297 0
0.0133543 0.00673414 0
0.0143444 0.00683382 0
0.0153769 0.00690031 0
0.0164512 0.00693173 0
0.0175666 0.00692547 0
0.0187219 0.00687822 0
0.0199156 0.00678477 0
0.0211454 0.00663864 0
0.0224084 0.00643275 0
0.0237018 0.00616676 0
0.0250249 0.00584739 0
0.026375 0.00547298 0
0.0277479 0.00503752 0
0.0291386 0.00453545 0
0.0305433 0.0039653 0
0.0319572 0.0033256 0
0.0333681 0.00260019 0
0.034775 0.00179799 0
0.0361793 0.000930615 0
0.0375798 3.12222e-06 0
0.0389689 -0.000988429 0
0.0403357 -0.00205109 0
0.041675 -0.00318283 0
0.0429849 -0.00437751 0
0.0442643 -0.00562904 0
0.0455126 -0.00693089 0
0.0467314 -0.00827518 0
0.0479204 -0.00965638 0
0.0490661 -0.0110799 0
0.0501515 -0.0125519 0
0.0511696 -0.0140695 0
0.0521492 -0.0156071 0
0.0531202 -0.0171411 0
0.0540851 -0.0186663 0
0.0550431 -0.0201798 0
0.0559923 -0.0216793 0
0.0569311 -0.0231626 0
0.0578582 -0.0246273 0
0.0587723 -0.0260715 0
0.0596721 -0.027493 0
0.0605563 -0.02889 0
0.0614241 -0.0302609 0
0.0622742 -0.0316042 0
0.063106 -0.0329183 0
0.0639186 -0.034202 0
0.0647113 -0.0354543 0
0.0654835 -0.0366743 0
0.0662345 -0.0378613 0
0.0669642 -0.0390145 0
0.0676726 -0.0401333 0
0.0683597 -0.0412172 0
0.0690246 -0.0422665 0
0.0696662 -0.0432819 0
0.0702841 -0.0442636 0
0.0708793 -0.0452111 0
0.0714538 -0.0461237 0
0.072009 -0.047001 0
0.0725452 -0.0478434 0
0.0730611 -0.0486524 0
0.073556 -0.0494294 0
0.0740291 -0.0501756 0
0.0744812 -0.0508916 0
0.0749138 -0.0515773 0
0.0753285 -0.0522331 0
0.0757266 -0.0528592 0
0.076109 -0.0534564 0
0.0764753 -0.0540264 0
0.0768243 -0.054571 0
0.0771553 -0.0550919 0
0.0774679 -0.0555901 0
0.0777617 -0.0560669 0
0.0780369 -0.056523 0
0.0782958 -0.0569578 0
0.0785421 -0.0573703 0
0.0787786 -0.0577603 0
0.0790073 -0.0581279 0
0.0792295 -0.058474 0
0.0794462 -0.0587995 0
0.0798803 -0.0594162 0
0.0800272 -0.0596588 0
0.0800357 -0.0598891 0
0.0799275 -0.0600784 0
0.0797205 -0.0601773 0
0.0794593 -0.0601051 0
0.0789155 -0.0596491 0
0.0786707 -0.0593963 0
0.0784111 -0.0591319 0
0.0781372 -0.0588542 0
0.0778566 -0.0585548 0
0.0775715 -0.0582308 0
0.0772803 -0.0578828 0
0.0769832 -0.0575099 0
0.0766822 -0.0571097 0
0.0763801 -0.0566796 0
0.0760759 -0.0562196 0
0.0757623 -0.0557337 0
0.0754359 -0.0552232 0
0.0750951 -0.0546879 0
0.0747379 -0.054128 0
0.0743626 -0.0535435 0
0.0739688 -0.0529338 0
0.0735559 -0.0522981 0
0.0731238 -0.0516357 0
0.0726718 -0.050946 0
0.0721991 -0.0502288 0
0.0717046 -0.049484 0
0.0711872 -0.0487117 0
0.0706461 -0.047912 0
0.0700804 -0.0470849 0
0.0694892 -0.0462308 0
0.0688718 -0.0453499 0
0.0682271 -0.0444431 0
0.0675544 -0.043511 0
0.0668527 -0.0425546 0
0.0661215 -0.0415748 0
0.06536 -0.040573 0
0.0645676 -0.0395504 0
0.0637439 -0.0385087 0
0.0628887 -0.0374493 0
0.062002 -0.0363741 0
0.0610838 -0.0352847 0
0.0601345 -0.0341831 0
0.0591547 -0.033071 0
0.0581456 -0.0319502 0
0.0571083 -0.0308224 0
0.0560444 -0.0296893 0
0.0549562 -0.028552 0
0.053845 -0.0274126 0
0.0527113 -0.0262746 0
0.051554 -0.0251427 0
0.0503724 -0.0240222 0
0.0491675 -0.0229164 0
0.047941 -0.0218282 0
0.0466955 -0.0207597 0
0.0454337 -0.0197126 0
0.0441592 -0.0186878 0
0.0428751 -0.0176863 0
0.0415841 -0.0167097 0
0.0402878 -0.0157609 0
0.0389879 -0.0148428 0
0.0376864 -0.0139575 0
0.0363853 -0.013107 0
0.0350871 -0.0122931 0
0.0337942 -0.0115164 0
0.0325095 -0.0107772 0
0.0312357 -0.0100756 0
0.0299758 -0.00941024 0
0.0287337 -0.00877784 0
0.0275126 -0.00817571 0
0.0263139 -0.00760375 0
0.0251376 -0.00706528 0
0.0239829 -0.0065649 0
0.0228537 -0.00609619 0
0.0217522 -0.00565563 0
0.0206795 -0.00524226 0
0.0196364 -0.00485507 0
0.0186233 -0.00449318 0
0.0176408 -0.00415577 0
0.016689 -0.00384204 0
0.0157682 -0.00355115 0
0.0148783 -0.00328218 0
0.0140192 -0.00303468 0
0.0131906 -0.00280795 0
0.0123925 -0.00260016 0
0.0116246 -0.00241012 0
0.0108864 -0.00223769 0
0.0101774 -0.00208212 0
0.00949701 -0.00194206 0
0.00884483 -0.0018163 0
0.0082202 -0.0017039 0
0.00762247 -0.00160391 0
0.00705097 -0.00151528 0
0.006505 -0.00143697 0
0.0059838 -0.00136806 0
0.00548662 -0.00130772 0
0.00501265 -0.00125519 0
0.00456114 -0.00120954 0
0.00413136 -0.00116914 0
0.00372257 -0.00113251 0
0.00333398 -0.00109853 0
0.00296466 -0.00106798 0
0.00261363 -0.0010431 0
-0.052721 -0.0445996 0
-0.0508204 -0.0440823 0
-0.0489199 -0.0435651 0
-0.0470193 -0.0430478 0
-0.0451187 -0.0425306 0
-0.0432181 -0.0420134 0
-0.0413175 -0.0414961 0
-0.039417 -0.0409789 0
-0.0375164 -0.0404616 0
-0.0356158 -0.0399444 0
-0.0337152 -0.0394271 0
-0.0318146 -0.0389099 0
-0.0299141 -0.0383927 0
-0.0280135 -0.0378754 0
-0.0261129 -0.0373582 0
-0.0242123 -0.0368409 0
-0.0223117 -0.0363237 0
-0.0204112 -0.0358065 0
-0.0185106 -0.0352892 0
-0.01661 -0.034772 0
-0.0147094 -0.0342547 0
-0.0128088 -0.0337375 0
-0.0109083 -0.0332202 0
-0.00900769 -0.032703 0
-0.00710711 -0.0321858 0
-0.00520653 -0.0316685 0
-0.00330595 -0.0311513 0
-0.00140537 -0.030634 0
0.00190689 -0.0299614 0
0.00332271 -0.0298498 0
0.00474133 -0.0297825 0
0.00616136 -0.0297597 0
0.0075814 -0.0297814 0
0.00900007 -0.0298477 0
0.010416 -0.0299583 0
0.0118278 -0.0301127 0
0.0132342 -0.0303103 0
0.0146339 -0.0305504 0
0.0160259 -0.0308322 0
0.0174091 -0.0311546 0
0.0187824 -0.0315166 0
0.020145 -0.031917 0
0.0214961 -0.0323546 0
0.0228351 -0.032828 0
0.0241613 -0.0333361 0
0.0254744 -0.0338774 0
0.0267738 -0.0344507 0
0.0280592 -0.0350545 0
0.0293306 -0.0356877 0
0.0305875 -0.0363488 0
0.0318301 -0.0370367 0
0.0330581 -0.0377501 0
0.0342717 -0.0384879 0
0.0354708 -0.0392489 0
0.0366556 -0.0400321 0
0.0378262 -0.0408363 0
0.0389828 -0.0416607 0
0.0401254 -0.0425042 0
0.0412543 -0.0433659 0
0.0423698 -0.0442451 0
0.043472 -0.0451408 0
0.0445612 -0.0460523 0
0.0456375 -0.0469789 0
0.0467013 -0.0479199 0
0.0477529 -0.0488746 0
0.0487923 -0.0498424 0
0.04982 -0.0508227 0
0.0508362 -0.051815 0
0.051841 -0.0528187 0
0.0528348 -0.0538333 0
0.0538178 -0.0548584 0
0.0547903 -0.0558935 0
0.0557524 -0.0569382 0
0.0567045 -0.0579922 0
0.0576467 -0.0590549 0
0.0585792 -0.0601261 0
0.0595024 -0.0612055 0
0.0604163 -0.0622926 0
0.0613212 -0.0633873 0
0.0622174 -0.0644891 0
0.0631049 -0.0655979 0
0.0639841 -0.0667134 0
0.064855 -0.0678353 0
0.0657179 -0.0689633 0
0.0665729 -0.0700974 0
0.0674202 -0.0712372 0
0.06826 -0.0723826 0
0.0690925 -0.0735333 0
0.0699178 -0.0746892 0
0.070736 -0.0758501 0
0.0715473 -0.0770159 0
0.0723518 -0.0781863 0
0.0731498 -0.0793612 0
0.0739412 -0.0805405 0
0.0747264 -0.081724 0
0.0755053 -0.0829116 0
0.0762781 -0.0841033 0
0.0770449 -0.0852987 0
0.0778059 -0.0864979 0
0.0785611 -0.0877007 0
0.0793108 -0.088907 0
0.0814681 -0.0912706 0
0.0828814 -0.0924245 0
0.0842946 -0.0935783 0
0.0857079 -0.0947322 0
0.0871211 -0.095886 0
0.0885344 -0.0970399 0
0.0899476 -0.0981937 0
0.0913609 -0.0993476 0
0.0927741 -0.100501 0
0.0941874 -0.101655 0
0.0956006 -0.102809 0
0.0970139 -0.103963 0
0.0984272 -0.105117 0
0.0998404 -0.106271 0
0.101254 -0.107424 0
0.102667 -0.108578 0
0.10408 -0.109732 0
0.105493 -0.110886 0
0.106907 -0.11204 0
0.10832 -0.113194 0
0.109733 -0.114348 0
0.111146 -0.115501 0
0.11256 -0.116655 0
0.113973 -0.117809 0
0.115386 -0.118963 0
0.116799 -0.120117 0
0.118213 -0.121271 0
0.119626 -0.122424 0
0.121039 -0.123578 0
0.122452 -0.124732 0
0.123866 -0.125886 0
0.125279 -0.12704 0
0.126692 -0.128194 0
0.128105 -0.129348 0
0.129519 -0.130501 0
0.130932 -0.131655 0
0.132345 -0.132809 0
0.133758 -0.133963 0
0.135172 -0.133216 0
0.135172 -0.131316 0
0.135172 -0.129415 0
0.135172 -0.127514 0
0.135172 -0.125614 0
0.135172 -0.123713 0
0.135172 -0.121813 0
0.135172 -0.119912 0
0.135172 -0.118012 0
0.135172 -0.116111 0
0.135172 -0.11421 0
0.135172 -0.11231 0
0.135172 -0.110409 0
0.135172 -0.108509 0
0.135172 -0.106608 0
0.135172 -0.104708 0
0.135172 -0.102807 0
0.135172 -0.100906 0
0.135172 -0.0990058 0
0.135172 -0.0971052 0
0.135172 -0.0952046 0
0.135172 -0.0933041 0
0.135172 -0.0914035 0
0.135172 -0.0895029 0
0.135172 -0.0876023 0
0.135172 -0.0857017 0
0.135172 -0.0838012 0
0.135172 -0.0819006 0
0.133758 -0.0788462 0
0.132345 -0.0776923 0
0.130932 -0.0765385 0
0.129519 -0.0753846 0
0.128105 -0.0742308 0
0.126692 -0.0730769 0
0.125279 -0.0719231 0
0.123866 -0.0707692 0
0.122452 -0.0696154 0
0.121039 -0.0684615 0
0.119626 -0.0673077 0
0.118213 -0.0661538 0
0.116799 -0.065 0
0.115386 -0.0638462 0
0.113973 -0.0626923 0
0.11256 -0.0615385 0
0.111146 -0.0603846 0
0.109733 -0.0592308 0
0.10832 -0.0580769 0
0.106907 -0.0569231 0
0.105493 -0.0557692 0
0.10408 -0.0546154 0
0.102667 -0.0534615 0
0.101254 -0.0523077 0
0.0998404 -0.0511538 0
0.0984272 -0.05 0
0.0970139 -0.0488462 0
0.0956006 -0.0476923 0
[...]
CELL_DATA 13116
SCALARS rho float
LOOKUP_TABLE default
0.47078
0.596975
0.387254
0.627146
0.632059
0.653012
0.354529
0.651198
0.448714
0.631206
0.352799
0.362313
0.632576
0.360111
0.350006
0.652769
0.439898
0.623692
0.642615
0.367598
0.47585
0.379035
0.361068
0.625369
0.531331
0.615933
0.630804
0.377857
0.528442
0.57097
0.65975
0.352192
0.476496
0.374585
0.354112
0.473472
0.591283
0.631269
0.655351
0.647286
0.647314
0.649199
0.35591
0.38288
0.640715
0.642036
0.580234
0.642316
0.349736
0.444306
0.646291
0.370753
0.360827
0.432709
0.475214
0.506714
0.381059
0.622174
0.457125
0.35116
0.359717
0.632953
0.589209
0.655733
0.659329
0.369391
0.648462
0.598444
0.646467
0.65869
0.34979
0.507189
0.394839
0.373221
0.662084
0.389653
0.570132
0.637078
0.354481
0.621055
0.605542
0.612596
0.625882
0.638408
0.630144
0.375918
0.361426
0.595514
0.630792
0.358432
0.360208
0.599275
0.626936
0.63958
0.574356
0.520602
0.534079
0.66105
0.661176
0.519767
0.606266
0.519694
0.646183
0.338972
0.569843
0.364822
0.299436
0.398418
0.371849
0.539542
0.425561
0.597147
0.518647
0.609033
0.621787
0.64854
0.362226
0.325289
0.638822
0.648459
0.598869
0.39626
0.646366
0.359678
0.637447
0.3661
0.362079
0.43125
0.373699
0.445729
0.63938
0.621535
0.423637
0.350137
0.404934
0.50648
0.667461
0.646217
0.605284
0.648348
0.552058
0.583933
0.429912
0.553419
0.577536
0.356632
0.35415
0.605212
0.629183
0.649103
0.463987
0.638645
0.642808
0.393963
0.629955
0.633007
0.360368
0.612287
0.660808
0.59591
0.624767
0.352602
0.624164
0.363541
0.397244
0.636069
0.63295
0.62317
0.354217
0.389121
0.35197
0.66722
0.355094
0.415451
0.648645
0.358706
0.358368
0.392392
0.592562
0.652674
0.387185
0.360526
0.445297
0.591675
0.652366
0.455017
0.382705
0.648234
0.563408
0.386731
0.561469
0.602672
0.65796
0.353232
0.591094
0.652819
0.629066
0.64725
0.628487
0.33098
0.339395
0.545292
0.42603
0.367716
0.627033
0.632722
0.37879
0.531451
0.36218
0.367194
0.388762
0.64952
0.361071
0.374264
0.358227
0.393115
0.308466
0.654963
0.63516
0.365084
0.381114
0.648578
0.419516
0.387165
0.475341
0.632265
0.574674
0.378361
0.648723
0.326863
0.655639
0.354066
0.657831
0.496446
0.661718
0.641898
0.657494
0.346733
0.359662
0.595817
0.66278
0.652913
0.666602
0.656769
0.652408
0.361337
0.646179
0.631065
0.661083
0.35969
0.351218
0.636278
0.640129
0.658431
0.636432
0.45707
0.612183
0.351993
0.36574
0.329217
0.362255
0.551985
0.628799
0.568908
0.358496
0.640981
0.374098
0.36189
0.57205
0.388189
0.612631
0.645234
0.663705
0.621929
0.346902
0.663909
0.610962
0.661049
0.646088
0.354098
0.36234
0.357251
0.501462
0.396467
0.349913
0.277457
0.366634
0.620197
0.360921
0.634772
0.636209
0.373113
0.376041
0.373567
0.378817
0.386633
0.593962
0.51166
0.585044
0.387161
0.648716
0.508235
0.372376
0.349932
0.654727
0.64084
0.647772
0.381154
0.652582
0.345603
0.621805
0.647008
0.649178
0.647066
0.356274
0.648779
0.360428
0.650421
0.627568
0.596617
0.361946
0.277178
0.631676
0.370222
0.601271
0.63331
0.338505
0.6154
0.625464
0.36915
0.640194
0.627373
0.36266
0.64092
0.377438
0.495551
0.654846
0.383226
0.612675
0.359573
0.62377
0.287232
0.65603
0.521427
0.628886
0.376781
0.298856
0.631962
0.393533
0.628769
0.571661
0.352498
0.667123
0.389302
0.396798
0.632634
0.475975
0.596811
0.363151
0.362234
0.646605
0.635592
0.354433
0.640649
0.362278
0.366094
0.6484
0.653791
0.38526
0.367366
0.644677
0.659263
0.652788
0.639016
0.622974
0.46434
0.397703
0.360742
0.385604
0.653071
0.385698
0.443341
0.320014
0.342461
0.293742
0.395377
0.11977
0.393333
0.631725
0.363308
0.62511
0.528285
0.644043
0.586765
0.644721
0.396935
0.361705
0.337687
0.393602
0.62854
0.514258
0.64599
0.528903
0.578996
0.543317
0.60972
0.546224
0.567977
0.622695
0.620616
0.653982
0.335229
0.385365
0.466833
0.386594
0.507913
0.50507
0.360974
0.648587
0.663433
0.3588
0.364856
0.35728
0.384512
0.555435
0.356656
0.353456
0.64911
0.372959
0.49626
0.357396
0.65218
0.606686
0.385607
0.350382
0.63141
0.380042
0.359875
0.383587
0.366926
0.371288
0.364166
0.365746
0.3744
0.361709
0.351482
0.516505
0.396477
0.631992
0.319007
0.354455
0.425856
0.357112
0.35769
0.355425
0.645294
0.366993
0.566615
0.400856
0.372339
0.534125
0.632675
0.375362
0.614844
0.544639
0.543141
0.367138
0.661458
0.326107
0.62306
0.660157
0.364948
0.358984
0.560227
0.395499
0.384728
0.525254
0.298686
0.611262
0.581954
0.380237
0.356914
0.356004
0.411224
0.349022
0.36216
0.353578
0.360476
0.635793
0.632244
0.38505
0.523122
0.404288
0.58761
0.297516
0.380264
0.453289
0.365333
0.629667
0.245231
0.310737
0.419747
0.63973
0.628342
0.482464
0.338008
0.358858
0.49082
0.650467
0.657827
0.48711
0.56938
0.549382
0.353208
0.605465
0.491919
0.594642
0.330826
0.387667
0.607974
0.628888
0.585534
0.631684
0.619244
0.621785
0.623795
0.595011
0.644472
0.378503
0.63925
0.283796
0.36253
0.371556
0.624968
0.634185
0.262171
0.629269
0.546114
0.361996
0.656647
0.641095
0.618382
0.377734
0.38064
0.634484
0.361301
0.367001
0.362424
0.354277
0.625347
0.3623
0.622821
0.396233
0.596814
0.646481
0.647272
0.634472
0.361513
0.379768
0.633456
0.654801
0.581448
0.635847
0.630729
0.420918
0.368549
0.366945
0.650195
0.450503
0.358554
0.379839
0.34492
0.648847
0.648218
0.336428
0.381804
0.628664
0.39239
0.632452
0.587797
0.374023
0.327481
0.57703
0.663272
0.365708
0.625344
0.632815
0.633889
0.390645
0.666477
0.378547
0.662074
0.593177
0.368341
0.308441
0.350215
0.661783
0.373738
0.35653
0.325836
0.655944
0.619075
0.356525
0.358111
0.353654
0.656414
0.395117
0.652783
0.356945
0.511167
0.631991
0.316161
0.363827
0.36175
0.421361
0.369116
0.621804
0.383398
0.372637
0.653169
0.3574
0.650078
0.595236
0.661578
0.38051
0.631098
0.626907
0.629059
0.649651
0.64757
0.648419
0.352963
0.658165
0.366972
0.624021
0.355642
0.652288
0.428798
0.354814
0.659576
0.62652
0.387725
0.549227
0.359071
0.350003
0.649166
0.644828
0.351582
0.35533
0.354978
0.351962
0.649069
0.625196
0.393084
0.381699
0.628168
0.647244
0.513135
0.626436
0.64882
0.352675
0.629963
0.357339
0.646573
0.327526
0.518181
0.406684
0.648904
0.59815
0.500108
0.289938
0.375194
0.646515
0.528728
0.438634
0.625921
0.361766
0.60975
0.629464
0.306652
0.383201
0.627407
0.342697
0.658974
0.596956
0.273454
0.648487
0.572427
0.394059
0.616447
0.357077
0.623221
0.390642
0.649779
0.587443
0.373514
0.655705
0.624762
0.632395
0.547611
0.609306
0.506515
0.351462
0.347743
0.294248
0.369877
0.668554
0.478407
0.646805
0.628808
0.384001
0.391384
0.614278
0.630833
0.631019
0.646172
0.359826
0.620746
0.63123
0.367294
0.306052
0.638053
0.637014
0.62687
0.353598
0.514311
0.384153
0.614761
0.59553
0.657491
0.609807
0.356386
0.617339
0.633615
0.627108
0.643797
0.64885
0.36379
0.62308
0.36959
0.555478
0.631514
0.388822
0.583157
0.657169
0.646877
0.33462
0.341342
0.507828
0.578252
0.360596
0.367619
0.391852
0.351457
0.59751
0.609131
0.657132
0.367018
0.351355
0.646402
0.610786
0.362424
0.383915
0.390325
0.5906
0.647322
0.638306
0.617846
0.365974
0.362086
0.665721
0.357865
0.376108
0.385722
0.649444
0.383294
0.362269
0.498856
0.629258
0.590882
0.654427
0.648901
0.363165
0.356369
0.390851
0.40042
0.366781
0.356066
0.596921
0.617298
0.61696
0.646866
0.347613
0.376285
0.631553
0.363931
0.64921
0.587689
0.6601
0.351571
0.368819
0.616404
0.659564
0.48238
0.36262
0.63268
0.653907
0.494432
0.649568
0.648985
0.664923
0.568271
0.361136
0.649206
0.658905
0.540478
0.61476
0.668457
0.598637
0.66497
0.645802
0.371353
0.369655
0.374067
0.659475
0.427481
0.36255
0.614678
0.627453
0.362601
0.557483
0.386372
0.563276
0.393618
0.352521
0.631423
0.624674
0.357683
0.473681
0.659287
0.373065
0.639712
0.36572
0.364707
0.53893
0.531392
0.425743
0.645553
0.392533
0.624255
0.367786
0.348484
0.650224
0.357828
0.525463
0.34711
0.556589
0.519729
0.665156
0.630015
0.359286
0.372796
0.539116
0.357731
0.629936
0.383847
0.512884
0.652847
0.626976
0.370781
0.536576
0.591583
0.629474
0.648041
0.290206
0.363938
0.463881
0.591729
0.628405
0.31305
0.64625
0.484278
0.337073
0.349377
0.598392
0.591437
0.666009
0.662079
0.527414
0.609953
0.655352
0.59926
0.352791
0.585745
0.388077
0.64859
0.636916
0.362968
0.650275
0.634094
0.387941
0.35043
0.370792
0.668343
0.352472
0.538753
0.61977
0.587344
0.365139
0.627251
0.363821
0.513955
0.656422
0.657518
0.595102
0.65643
0.542754
0.604247
0.446384
0.623756
0.38967
0.649992
0.647313
0.339923
0.664034
0.610994
0.35966
0.360782
0.374306
0.648893
0.366774
0.664233
0.392538
0.651948
0.359023
0.407222
0.354823
0.622407
0.645253
0.455227
0.253708
0.542755
0.654686
0.384831
0.512225
0.630826
0.354037
0.509509
0.660269
0.632228
0.648773
0.363859
0.3961
0.6303
0.642782
0.556733
0.36401
0.338108
0.634152
0.666383
0.663392
0.666898
0.469931
0.621624
0.465188
0.648303
0.364342
0.36582
0.666636
0.632019
0.655713
0.369388
0.649354
0.477689
0.521177
0.392915
0.350458
0.640212
0.639274
0.478547
0.399209
0.645846
0.663461
0.354076
0.533965
0.617538
0.354186
0.350227
0.359819
0.568649
0.387931
0.378604
0.638985
0.390953
0.629862
0.564039
0.354707
0.366882
0.638156
0.382436
0.358366
0.659504
0.362916
0.298429
0.513435
0.646479
0.628584
0.351021
0.390321
0.353607
0.596626
0.364841
0.63006
0.355786
0.616741
0.629516
0.639622
0.579015
0.613298
0.593083
0.647764
0.634635
0.633651
0.362223
0.382011
0.603713
0.655326
0.431554
0.577057
0.480288
0.655878
0.538716
0.385171
0.648368
0.631496
0.625303
0.363653
0.617207
0.392747
0.637445
0.423965
0.621432
0.649092
0.352966
0.626689
0.35469
0.357345
0.589504
0.386215
0.611852
0.668384
0.652313
0.3862
0.64922
0.351417
0.358535
0.341127
0.360123
0.531605
0.355918
0.555797
0.656654
0.398807
0.353001
0.414792
0.504379
0.556236
0.561999
0.381046
0.368339
0.354032
0.355012
0.262251
0.555718
0.604563
0.379199
0.656297
0.6196
0.359863
0.628268
0.610096
0.656382
0.371904
0.662433
0.607683
0.623953
0.648964
0.347845
0.628211
0.626626
0.618219
0.599271
0.653145
0.349461
0.344167
0.639846
0.461883
0.368477
0.650628
0.354526
0.495102
0.548793
0.620477
0.624852
0.357468
0.574446
0.32884
0.366847
0.616234
0.631308
0.627486
0.645193
0.582782
0.360176
0.633419
0.357493
0.430457
0.63641
0.661314
0.630448
0.362488
0.360101
0.631534
0.367613
0.63452
0.577442
0.359886
0.349493
0.648209
0.348537
0.649173
0.633492
0.579894
0.347887
0.371717
0.427643
0.439786
0.543338
0.397546
0.652527
0.563288
0.635107
0.668896
0.616651
0.358537
0.349859
0.636441
0.65308
0.551933
0.388956
0.368183
0.60244
0.356975
0.648497
0.541626
0.396673
0.627728
0.353131
0.637011
0.388704
0.629444
0.346778
0.633544
0.653262
0.355002
0.63862
0.577575
0.297704
0.657034
0.643351
0.478556
0.357176
0.305199
0.391725
0.627435
0.540349
0.395274
0.509716
0.619202
0.653407
0.364596
0.530977
0.613674
0.392131
0.652335
0.650549
0.325818
0.637317
0.660689
0.387354
0.519554
0.386327
0.561233
0.393142
0.365278
0.6285
0.369241
0.354972
0.359585
0.648772
0.601636
0.341624
0.645332
0.303642
0.591367
0.351387
0.604864
0.315664
0.652429
0.640405
0.570759
0.657112
0.477372
0.653257
0.656244
0.380662
0.565004
0.576224
0.409561
0.616387
0.420336
0.344346
0.633166
0.389418
0.494992
0.38686
0.646121
0.362277
0.353039
0.624944
0.648591
0.378795
0.648375
0.617506
0.668404
0.647162
0.662214
0.361106
0.626526
0.37526
0.36197
0.634608
0.618947
0.650094
0.631906
0.354068
0.392948
0.353148
0.600301
0.656612
0.304298
0.651128
0.366665
0.390705
0.391038
0.632984
0.327432
0.633546
0.632987
0.5637
0.644071
0.633605
0.49488
0.564233
0.367829
0.327517
0.379106
0.662223
0.662717
0.368577
0.555017
0.565235
0.565638
0.363967
0.331752
0.567296
0.234461
0.558577
0.517973
0.373398
0.654263
0.599806
0.365697
0.628674
0.35613
0.64714
0.628451
0.61449
0.35751
0.399883
0.610169
0.259527
0.376716
0.643818
0.275561
0.653775
0.648056
0.610292
0.617855
0.398213
0.660011
0.615522
0.642973
0.30656
0.64392
0.371078
0.360151
0.628513
0.647535
0.656298
0.199101
0.649141
0.564391
0.662153
0.368718
0.361442
0.359483
0.647283
0.354411
0.35672
0.393912
0.515836
0.354781
0.367722
0.375403
0.631078
0.369665
0.657033
0.655456
0.647101
0.384221
0.640349
0.582656
0.656514
0.351954
0.596833
0.354675
0.388974
0.649577
0.376899
0.550643
0.616431
0.665475
0.374837
0.277482
0.387039
0.485842
0.666738
0.197561
0.631777
0.648883
0.619085
0.356929
0.358147
0.290245
0.54367
0.357975
0.66889
0.533159
0.654943
0.635342
0.353455
0.551176
0.352832
0.490016
0.579486
0.630982
0.493365
0.403559
0.596578
0.556401
0.636843
0.389392
0.329433
0.376519
0.620834
0.456239
0.661234
0.373761
0.335729
0.622316
0.63936
0.658033
0.377511
0.647483
0.48414
0.48745
0.543624
0.368934
0.375889
0.316501
0.647536
0.657015
0.597597
0.584511
0.289282
0.65358
0.589772
0.656979
0.656818
0.65219
0.631634
0.653427
0.617859
0.626549
0.364393
0.643063
0.645224
0.651555
0.640821
0.646981
0.500177
0.365512
0.364589
0.54504
0.365417
0.398718
0.646721
0.354591
0.567621
0.646675
0.596287
0.626789
0.363276
0.647954
0.337755
0.364713
0.653124
0.622716
0.646881
0.382445
0.64252
0.645501
0.544973
0.648192
0.381968
0.652029
0.631683
0.598195
0.332203
0.622863
0.354364
0.628592
0.38857
0.365847
0.445466
0.378766
0.631396
0.623112
0.649141
0.394657
0.652459
0.344032
0.353739
0.617597
0.418379
0.360531
0.647302
0.35097
0.439981
0.597072
0.575534
0.621156
0.417332
0.523328
0.585057
0.650458
0.497434
0.627729
0.460643
0.659363
0.580985
0.576064
0.351134
0.353249
0.378261
0.645031
0.359921
0.594488
0.648632
0.527513
0.650202
0.442881
0.610784
0.600898
0.366013
0.648573
0.568075
0.415061
0.570577
0.632353
0.622901
0.654469
0.359238
0.368369
0.623478
0.459359
0.467561
0.647274
0.636352
0.645327
0.62821
0.629455
0.546424
0.56124
0.629006
0.357169
0.354122
0.36242
0.394621
0.663748
0.387651
0.461323
0.628244
0.606062
0.36419
0.626942
0.622566
0.382602
0.315939
0.663655
0.644457
0.36912
0.359147
0.36086
0.668879
0.613887
0.336555
0.357886
0.373307
0.365986
0.348798
0.367128
0.657719
0.641139
0.611366
0.391614
0.597936
0.530585
0.538709
0.35146
0.363393
0.616372
0.667047
0.359249
0.652545
0.365487
0.625086
0.364991
0.64643
0.380782
0.618049
0.63999
0.386886
0.489212
0.355952
0.626792
0.364347
0.534853
0.35518
0.431694
0.355528
0.525448
0.383647
0.657537
0.657919
0.536613
0.611996
0.351511
0.606209
0.654731
0.641392
0.528029
0.592282
0.364955
0.326591
0.371697
0.627759
0.244807
0.633645
0.472038
0.618708
0.632419
0.388301
0.623228
0.352813
0.364247
0.356273
0.435772
0.443596
0.634906
0.387764
0.34947
0.650788
0.321134
0.351464
0.477047
0.313158
0.359425
0.364718
0.649403
0.585912
0.539663
0.365598
0.601227
0.647532
0.340013
0.273359
0.634045
0.649687
0.493033
0.443313
0.350246
0.305891
0.393359
0.648256
0.541541
0.447956
0.613735
0.360562
0.493998
0.352668
0.659459
0.635658
0.367407
0.367339
0.549132
0.469541
0.635934
0.626766
0.62797
0.648536
0.635135
0.390687
0.388235
0.377266
0.354122
0.463145
0.659981
0.587867
0.356426
0.380035
0.38097
0.35045
0.644948
0.573389
0.355823
0.355116
0.647009
0.367234
0.583612
0.624034
0.60016
0.65285
0.475096
0.366866
0.374739
0.555824
0.368174
0.351634
0.337053
0.655001
0.646242
0.366705
0.372346
0.667055
0.386603
0.648829
0.627337
0.372909
0.390091
0.359877
0.64572
0.361735
0.668452
0.614795
0.528116
0.358081
0.457364
0.635079
0.629043
0.354732
0.621926
0.547027
0.375267
0.636923
0.651159
0.358501
0.368985
0.615223
0.382609
0.355154
0.61195
0.292542
0.639883
0.611172
0.626591
0.553914
0.6316
0.647939
0.65394
0.353754
0.348687
0.561927
0.624647
0.399608
0.628607
0.318723
0.645953
0.623367
0.494991
0.578533
0.327331
0.386853
0.628477
0.630851
0.577075
0.640988
0.647548
0.664987
0.648933
0.667841
0.64716
0.620438
0.649859
0.666621
0.653575
0.277339
0.615121
0.380454
0.648135
0.64379
0.620173
0.590525
0.617441
0.38613
0.391931
0.262092
0.354266
0.595836
0.375021
0.373529
0.60718
0.353888
0.617096
0.39411
0.613736
0.62944
0.371873
0.323307
0.397362
0.646202
0.373526
0.634496
0.625814
0.389077
0.613715
0.48272
0.400223
0.376086
0.336926
0.618998
0.368768
0.648369
0.439606
0.35573
0.645125
0.646942
0.627892
0.364722
0.500467
0.353923
0.600037
0.654599
0.648432
0.36431
0.622839
0.646711
0.587051
0.342989
0.645831
0.364498
0.352799
0.642882
0.38338
0.631115
0.346094
0.362388
0.37693
0.592722
0.374623
0.239693
0.391636
0.408611
0.661636
0.628707
0.361466
0.523951
0.646436
0.486892
0.353735
0.39524
0.485142
0.362561
0.354376
0.637024
0.352476
0.358107
0.648457
0.633974
0.383549
0.622686
0.391224
0.664047
0.379068
0.621436
0.658529
0.618857
0.654708
0.381812
0.352647
0.349171
0.653684
0.619253
0.520731
0.467628
0.314382
0.256518
0.65063
0.353603
0.640271
0.323875
0.657669
0.600025
0.378008
0.381562
0.354862
0.370219
0.380006
0.548363
0.596788
0.381759
0.640685
0.566202
0.355378
0.356205
0.629756
0.360234
0.63249
0.362768
0.61831
0.584904
0.640807
0.661233
0.359066
0.629191
0.647137
0.648358
0.36633
0.545329
0.52796
0.39809
0.646013
0.567302
0.66196
0.604265
0.634696
0.641934
0.646539
0.651001
0.643615
0.381094
0.626909
0.355672
0.38845
0.643288
0.350325
0.623542
0.554587
0.349668
0.586314
0.368161
0.361338
0.637581
0.539141
0.634748
0.355667
0.604952
0.548229
0.379969
0.388563
0.630844
0.647891
0.319194
0.394521
0.618631
0.632203
0.371149
0.571173
0.63807
0.58898
0.375096
0.364558
0.354529
0.586525
0.34425
0.622241
0.620992
0.650277
0.530782
0.632342
0.357442
0.62753
0.546898
0.640008
0.490303
0.348348
0.353742
0.363908
0.625541
0.628492
0.360662
0.582584
0.390974
0.572866
0.648385
0.362144
0.545323
0.623601
0.550574
0.389818
0.361886
0.394859
0.633781
0.631376
0.545476
0.44282
0.637381
0.357298
0.562903
0.66317
0.622267
0.390086
0.557854
0.350003
0.566515
0.364902
0.630814
0.638161
0.366301
0.636487
0.35957
0.666743
0.567537
0.668927
0.64909
0.348545
0.651129
0.64687
0.647129
0.632171
0.413162
0.663427
0.361397
0.646336
0.36291
0.38368
0.360004
0.380166
0.361887
0.387998
0.637276
0.309947
0.356452
0.587283
0.636154
0.599859
0.339971
0.613583
0.612836
0.653576
0.302665
0.503934
0.648434
0.396998
0.393177
0.352093
0.556577
0.437029
0.375194
0.510884
0.344958
0.661602
0.430327
0.362302
0.403236
0.580049
0.396644
0.648232
0.359988
0.398385
0.317061
0.649002
0.325143
0.581157
0.662799
0.551845
0.352151
0.359945
0.648358
0.632736
0.394554
0.358443
0.652953
0.376294
0.622347
0.391649
0.486802
0.363784
0.648164
0.390846
0.635709
0.383399
0.648518
0.635622
0.63212
0.664091
0.360949
0.358691
0.337455
0.620363
0.606155
0.590855
0.446058
0.351797
0.621842
0.395914
0.616006
0.521558
0.344721
0.350439
0.625065
0.632556
0.355249
0.659061
0.652729
0.625869
0.627053
0.359924
0.565688
0.354412
0.626784
0.344008
0.655759
0.611937
0.647444
0.637675
0.355801
0.632537
0.369153
0.373693
0.648988
0.663675
0.474779
0.626242
0.663904
0.359519
0.624011
0.646436
0.648151
0.356164
0.361236
0.609449
0.374305
0.64531
0.648767
0.626559
0.649475
0.242635
0.379261
0.579811
0.364368
0.624966
0.627003
0.401756
0.634994
0.26956
0.557509
0.624238
0.608106
0.638061
0.359982
0.35659
0.634392
0.619482
0.349343
0.354257
0.392757
0.364372
0.356552
0.330703
0.383985
0.367199
0.632169
0.362438
0.377442
0.617666
0.472926
0.666874
0.335083
0.37379
0.646078
0.396829
0.405009
0.630187
0.314161
0.591474
0.657357
0.539264
0.605743
0.374789
0.629641
0.655661
0.386524
0.351732
0.344727
0.551127
0.538635
0.633917
0.652275
0.622584
0.608685
0.342616
0.63443
0.655234
0.637155
0.362718
0.647734
0.505576
0.39058
0.366279
0.360776
0.354679
0.359342
0.518229
0.598491
0.604667
0.353888
0.329939
0.639344
0.361134
0.623432
0.646388
0.625627
0.608408
0.639245
0.39656
0.354688
0.352901
0.49292
0.349793
0.643303
0.357247
0.649501
0.652715
0.643062
0.393736
0.38028
0.347721
0.634495
0.393218
0.35191
0.646755
0.606448
0.546644
0.652801
0.629367
0.621803
0.363993
0.55581
0.629854
0.45866
0.633357
0.623489
0.622939
0.392132
0.361619
0.648302
0.426718
0.539016
0.354226
0.581451
0.630109
0.331845
0.344906
0.596108
0.437069
0.630017
0.622803
0.369482
0.370031
0.660624
0.320453
0.34665
0.634487
0.630796
0.349357
0.634993
0.660616
0.591204
0.366203
0.519564
0.364613
0.639518
0.636036
0.621666
0.600505
0.660265
0.366172
0.307367
0.614381
0.373212
0.538318
0.354533
0.640315
0.358119
0.576865
0.628967
0.660864
0.363695
0.668545
0.662436
0.352938
0.581119
0.348539
0.647878
0.361164
0.376729
0.361982
0.605291
0.641042
0.273557