# vtk DataFile Version 1.0
unstructured grid
ascii
DATASET UNSTRUCTURED_GRID
points 13672 float
0.0796578 -0.059106 0
0.00128732 0.00159165 0
0.00227961 -0.00102548 0
0.0791586 -0.0598787 0
-0.0546216 0.01 0
0.000495206 0.025 0
0.0800549 -0.035 0
0.135172 -0.08 0
-0.0546216 -0.0451168 0
0.000495206 -0.0301168 0
0.0800549 -0.0901168 0
0.135172 -0.135117 0
-0.0546216 -0.0451168 -0.00551168
0.000495206 -0.0301168 -0.00551168
0.0800549 -0.0901168 -0.00551168
0.135172 -0.135117 -0.00551168
0.135172 -0.08 -0.00551168
0.0800549 -0.035 -0.00551168
0.000495206 0.025 -0.00551168
-0.0546216 0.01 -0.00551168
0.00128732 0.00159165 -0.00551168
0.00227961 -0.00102548 -0.00551168
0.0791586 -0.0598787 -0.00551168
0.0796578 -0.059106 -0.00551168
0.00165953 -0.000990923 0
0.00119576 -0.000874076 0
0.000866021 -0.000641801 0
0.000645147 -0.000349912 0
0.00052235 -1.7281e-05 0
0.00049972 0.000348016 0
0.000601632 0.000737716 0
0.000861774 0.0011403 0
0.00157235 0.00183217 0
0.00188647 0.00206725 0
0.00222612 0.00230203 0
0.00258713 0.00254351 0
0.00296826 0.00279524 0
0.00337118 0.00305664 0
0.00379785 0.00332658 0
0.00425045 0.00360349 0
0.00473139 0.00388521 0
0.0052432 0.00416895 0
0.0057881 0.00445204 0
0.00636753 0.00473281 0
0.00698281 0.00500961 0
0.00763526 0.00528058 0
0.00832616 0.00554366 0
0.00905691 0.00579603 0
0.00982918 0.00603333 0
0.0106445 0.00625033 0
0.0115038 0.00644128 0
0.0124073 0.00660297 0
0.0133543 0.00673414 0
0.0143444 0.00683382 0
0.0153769 0.00690031 0
0.0164512 0.00693173 0
0.0175666 0.00692547 0
0.0187219 0.00687822 0
0.0199156 0.00678477 0
0.0211454 0.00663864 0
0.0224084 0.00643275 0
0.0237018 0.00616676 0
0.0250249 0.00584739 0
0.026375 0.00547298 0
0.0277479 0.00503752 0
0.0291386 0.00453545 0
0.0305433 0.0039653 0
0.0319572 0.0033256 0
0.0333681 0.00260019 0
0.034775 0.00179799 0
0.0361793 0.000930615 0
0.0375798 3.12222e-06 0
0.0389689 -0.000988429 0
0.0403357 -0.00205109 0
0.041675 -0.00318283 0
0.0429849 -0.00437751 0
0.0442643 -0.00562904 0
0.0455126 -0.00693089 0
0.0467314 -0.00827518 0
0.0479204 -0.00965638 0
0.0490661 -0.0110799 0
0.0501515 -0.0125519 0
0.0511696 -0.0140695 0
0.0521492 -0.0156071 0
0.0531202 -0.0171411 0
0.0540851 -0.0186663 0
0.0550431 -0.0201798 0
0.0559923 -0.0216793 0
0.0569311 -0.0231626 0
0.0578582 -0.0246273 0
0.0587723 -0.0260715 0
0.0596721 -0.027493 0
0.0605563 -0.02889 0
0.0614241 -0.0302609 0
0.0622742 -0.0316042 0
0.063106 -0.0329183 0
0.0639186 -0.034202 0
0.0647113 -0.0354543 0
0.0654835 -0.0366743 0
0.0662345 -0.0378613 0
0.0669642 -0.0390145 0
0.0676726 -0.0401333 0
0.0683597 -0.0412172 0
0.0690246 -0.0422665 0
0.0696662 -0.0432819 0
0.0702841 -0.0442636 0
0.0708793 -0.0452111 0
0.0714538 -0.0461237 0
0.072009 -0.047001 0
0.0725452 -0.0478434 0
0.0730611 -0.0486524 0
0.073556 -0.0494294 0
0.0740291 -0.0501756 0
0.0744812 -0.0508916 0
0.0749138 -0.0515773 0
0.0753285 -0.0522331 0
0.0757266 -0.0528592 0
0.076109 -0.0534564 0
0.0764753 -0.0540264 0
0.0768243 -0.054571 0
0.0771553 -0.0550919 0
0.0774679 -0.0555901 0
0.0777617 -0.0560669 0
0.0780369 -0.056523 0
0.0782958 -0.0569578 0
0.0785421 -0.0573703 0
0.0787786 -0.0577603 0
0.0790073 -0.0581279 0
0.0792295 -0.058474 0
0.0794462 -0.0587995 0
0.0798803 -0.0594162 0
0.0800272 -0.0596588 0
0.0800357 -0.0598891 0
0.0799275 -0.0600784 0
0.0797205 -0.0601773 0
0.0794593 -0.0601051 0
0.0789155 -0.0596491 0
0.0786707 -0.0593963 0
0.0784111 -0.0591319 0
0.0781372 -0.0588542 0
0.0778566 -0.0585548 0
0.0775715 -0.0582308 0
0.0772803 -0.0578828 0
0.0769832 -0.0575099 0
0.0766822 -0.0571097 0
0.0763801 -0.0566796 0
0.0760759 -0.0562196 0
0.0757623 -0.0557337 0
0.0754359 -0.0552232 0
0.0750951 -0.0546879 0
0.0747379 -0.054128 0
0.0743626 -0.0535435 0
0.0739688 -0.0529338 0
0.0735559 -0.0522981 0
0.0731238 -0.0516357 0
0.0726718 -0.050946 0
0.0721991 -0.0502288 0
0.0717046 -0.049484 0
0.0711872 -0.0487117 0
0.0706461 -0.047912 0
0.0700804 -0.0470849 0
0.0694892 -0.0462308 0
0.0688718 -0.0453499 0
0.0682271 -0.0444431 0
0.0675544 -0.043511 0
0.0668527 -0.0425546 0
0.0661215 -0.0415748 0
0.06536 -0.040573 0
0.0645676 -0.0395504 0
0.0637439 -0.0385087 0
0.0628887 -0.0374493 0
0.062002 -0.0363741 0
0.0610838 -0.0352847 0
0.0601345 -0.0341831 0
0.0591547 -0.033071 0
0.0581456 -0.0319502 0
0.0571083 -0.0308224 0
0.0560444 -0.0296893 0
0.0549562 -0.028552 0
0.053845 -0.0274126 0
0.0527113 -0.0262746 0
0.051554 -0.0251427 0
0.0503724 -0.0240222 0
0.0491675 -0.0229164 0
0.047941 -0.0218282 0
0.0466955 -0.0207597 0
0.0454337 -0.0197126 0
0.0441592 -0.0186878 0
0.0428751 -0.0176863 0
0.0415841 -0.0167097 0
0.0402878 -0.0157609 0
0.0389879 -0.0148428 0
0.0376864 -0.0139575 0
0.0363853 -0.013107 0
0.0350871 -0.0122931 0
0.0337942 -0.0115164 0
0.0325095 -0.0107772 0
0.0312357 -0.0100756 0
0.0299758 -0.00941024 0
0.0287337 -0.00877784 0
0.0275126 -0.00817571 0
0.0263139 -0.00760375 0
0.0251376 -0.00706528 0
0.0239829 -0.0065649 0
0.0228537 -0.00609619 0
0.0217522 -0.00565563 0
0.0206795 -0.00524226 0
0.0196364 -0.00485507 0
0.0186233 -0.00449318 0
0.0176408 -0.00415577 0
0.016689 -0.00384204 0
0.0157682 -0.00355115 0
0.0148783 -0.00328218 0
0.0140192 -0.00303468 0
0.0131906 -0.00280795 0
0.0123925 -0.00260016 0
0.0116246 -0.00241012 0
0.0108864 -0.00223769 0
0.0101774 -0.00208212 0
0.00949701 -0.00194206 0
0.00884483 -0.0018163 0
0.0082202 -0.0017039 0
0.00762247 -0.00160391 0
0.00705097 -0.00151528 0
0.006505 -0.00143697 0
0.0059838 -0.00136806 0
0.00548662 -0.00130772 0
0.00501265 -0.00125519 0
0.00456114 -0.00120954 0
0.00413136 -0.00116914 0
0.00372257 -0.00113251 0
0.00333398 -0.00109853 0
0.00296466 -0.00106798 0
0.00261363 -0.0010431 0
-0.052721 -0.0445996 0
-0.0508204 -0.0440823 0
-0.0489199 -0.0435651 0
-0.0470193 -0.0430478 0
-0.0451187 -0.0425306 0
-0.0432181 -0.0420134 0
-0.0413175 -0.0414961 0
-0.039417 -0.0409789 0
-0.0375164 -0.0404616 0
-0.0356158 -0.0399444 0
-0.0337152 -0.0394271 0
-0.0318146 -0.0389099 0
-0.0299141 -0.0383927 0
-0.0280135 -0.0378754 0
-0.0261129 -0.0373582 0
-0.0242123 -0.0368409 0
-0.0223117 -0.0363237 0
-0.0204112 -0.0358065 0
-0.0185106 -0.0352892 0
-0.01661 -0.034772 0
-0.0147094 -0.0342547 0
-0.0128088 -0.0337375 0
-0.0109083 -0.0332202 0
-0.00900769 -0.032703 0
-0.00710711 -0.0321858 0
-0.00520653 -0.0316685 0
-0.00330595 -0.0311513 0
-0.00140537 -0.030634 0
0.00190689 -0.0299614 0
0.00332271 -0.0298498 0
0.00474133 -0.0297825 0
0.00616136 -0.0297597 0
0.0075814 -0.0297814 0
0.00900007 -0.0298477 0
0.010416 -0.0299583 0
0.0118278 -0.0301127 0
0.0132342 -0.0303103 0
0.0146339 -0.0305504 0
0.0160259 -0.0308322 0
0.0174091 -0.0311546 0
0.0187824 -0.0315166 0
0.020145 -0.031917 0
0.0214961 -0.0323546 0
0.0228351 -0.032828 0
0.0241613 -0.0333361 0
0.0254744 -0.0338774 0
0.0267738 -0.0344507 0
0.0280592 -0.0350545 0
0.0293306 -0.0356877 0
0.0305875 -0.0363488 0
0.0318301 -0.0370367 0
0.0330581 -0.0377501 0
0.0342717 -0.0384879 0
0.0354708 -0.0392489 0
0.0366556 -0.0400321 0
0.0378262 -0.0408363 0
0.0389828 -0.0416607 0
0.0401254 -0.0425042 0
0.0412543 -0.0433659 0
0.0423698 -0.0442451 0
0.043472 -0.0451408 0
0.0445612 -0.0460523 0
0.0456375 -0.0469789 0
0.0467013 -0.0479199 0
0.0477529 -0.0488746 0
0.0487923 -0.0498424 0
0.04982 -0.0508227 0
0.0508362 -0.051815 0
0.051841 -0.0528187 0
0.0528348 -0.0538333 0
0.0538178 -0.0548584 0
0.0547903 -0.0558935 0
0.0557524 -0.0569382 0
0.0567045 -0.0579922 0
0.0576467 -0.0590549 0
0.0585792 -0.0601261 0
0.0595024 -0.0612055 0
0.0604163 -0.0622926 0
0.0613212 -0.0633873 0
0.0622174 -0.0644891 0
0.0631049 -0.0655979 0
0.0639841 -0.0667134 0
0.064855 -0.0678353 0
0.0657179 -0.0689633 0
0.0665729 -0.0700974 0
0.0674202 -0.0712372 0
0.06826 -0.0723826 0
0.0690925 -0.0735333 0
0.0699178 -0.0746892 0
0.070736 -0.0758501 0
0.0715473 -0.0770159 0
0.0723518 -0.0781863 0
0.0731498 -0.0793612 0
0.0739412 -0.0805405 0
0.0747264 -0.081724 0
0.0755053 -0.0829116 0
0.0762781 -0.0841033 0
0.0770449 -0.0852987 0
0.0778059 -0.0864979 0
0.0785611 -0.0877007 0
0.0793108 -0.088907 0
0.0814681 -0.0912706 0
0.0828814 -0.0924245 0
0.0842946 -0.0935783 0
0.0857079 -0.0947322 0
0.0871211 -0.095886 0
0.0885344 -0.0970399 0
0.0899476 -0.0981937 0
0.0913609 -0.0993476 0
0.0927741 -0.100501 0
0.0941874 -0.101655 0
0.0956006 -0.102809 0
0.0970139 -0.103963 0
0.0984272 -0.105117 0
0.0998404 -0.106271 0
0.101254 -0.107424 0
0.102667 -0.108578 0
0.10408 -0.109732 0
0.105493 -0.110886 0
0.106907 -0.11204 0
0.10832 -0.113194 0
0.109733 -0.114348 0
0.111146 -0.115501 0
0.11256 -0.116655 0
0.113973 -0.117809 0
0.115386 -0.118963 0
0.116799 -0.120117 0
0.118213 -0.121271 0
0.119626 -0.122424 0
0.121039 -0.123578 0
0.122452 -0.124732 0
0.123866 -0.125886 0
0.125279 -0.12704 0
0.126692 -0.128194 0
0.128105 -0.129348 0
0.129519 -0.130501 0
0.130932 -0.131655 0
0.132345 -0.132809 0
0.133758 -0.133963 0
0.135172 -0.133216 0
0.135172 -0.131316 0
0.135172 -0.129415 0
0.135172 -0.127514 0
0.135172 -0.125614 0
0.135172 -0.123713 0
0.135172 -0.121813 0
0.135172 -0.119912 0
0.135172 -0.118012 0
0.135172 -0.116111 0
0.135172 -0.11421 0
0.135172 -0.11231 0
0.135172 -0.110409 0
0.135172 -0.108509 0
0.135172 -0.106608 0
0.135172 -0.104708 0
0.135172 -0.102807 0
0.135172 -0.100906 0
0.135172 -0.0990058 0
0.135172 -0.0971052 0
0.135172 -0.0952046 0
0.135172 -0.0933041 0
0.135172 -0.0914035 0
0.135172 -0.0895029 0
0.135172 -0.0876023 0
0.135172 -0.0857017 0
0.135172 -0.0838012 0
0.135172 -0.0819006 0
0.133758 -0.0788462 0
0.132345 -0.0776923 0
0.130932 -0.0765385 0
0.129519 -0.0753846 0
0.128105 -0.0742308 0
0.126692 -0.0730769 0
0.125279 -0.0719231 0
0.123866 -0.0707692 0
0.122452 -0.0696154 0
0.121039 -0.0684615 0
0.119626 -0.0673077 0
0.118213 -0.0661538 0
0.116799 -0.065 0
0.115386 -0.0638462 0
0.113973 -0.0626923 0
0.11256 -0.0615385 0
0.111146 -0.0603846 0
0.109733 -0.0592308 0
0.10832 -0.0580769 0
0.106907 -0.0569231 0
0.105493 -0.0557692 0
0.10408 -0.0546154 0
0.102667 -0.0534615 0
0.101254 -0.0523077 0
0.0998404 -0.0511538 0
0.0984272 -0.05 0
0.0970139 -0.0488462 0
0.0956006 -0.0476923 0
[...]
CELL_DATA 13116
SCALARS rho float
LOOKUP_TABLE default
0.51307
0.622129
0.363051
0.645403
0.642625
0.684969
0.366342
0.651866
0.475338
0.642105
0.357508
0.373784
0.6429
0.379082
0.348312
0.682972
0.498996
0.628436
0.661808
0.420734
0.511231
0.349367
0.372156
0.631719
0.541894
0.641285
0.641997
0.359837
0.530114
0.581015
0.707963
0.370589
0.496383
0.405759
0.359579
0.513083
0.604903
0.647913
0.698737
0.655565
0.672102
0.651033
0.403305
0.370439
0.658432
0.660822
0.616915
0.658179
0.351831
0.46383
0.651398
0.410832
0.379636
0.493815
0.496233
0.523649
0.37253
0.630828
0.473478
0.348863
0.378318
0.644368
0.619096
0.700165
0.704611
0.389511
0.664436
0.606609
0.661028
0.703865
0.347682
0.514043
0.349053
0.379932
0.70846
0.357864
0.597804
0.646096
0.385644
0.624827
0.617579
0.638313
0.633227
0.652454
0.646348
0.374103
0.396506
0.599305
0.645413
0.392061
0.370001
0.623528
0.635378
0.648836
0.587551
0.540427
0.543823
0.706935
0.708192
0.527492
0.604706
0.578869
0.668964
0.382843
0.615344
0.367592
0.310635
0.440773
0.366005
0.540151
0.466298
0.630943
0.537998
0.618297
0.625568
0.662664
0.389472
0.343699
0.648526
0.659202
0.605819
0.349382
0.6602
0.369791
0.647627
0.389109
0.395741
0.446785
0.369236
0.464052
0.648813
0.635759
0.429327
0.350011
0.411113
0.546264
0.708886
0.656357
0.603695
0.65906
0.586128
0.618816
0.447284
0.58793
0.608582
0.373582
0.357094
0.636033
0.640118
0.653227
0.47118
0.653281
0.65929
0.360862
0.640316
0.648222
0.369388
0.610233
0.707323
0.598621
0.631254
0.367116
0.633802
0.369258
0.349869
0.645697
0.645986
0.627877
0.361787
0.392589
0.362946
0.70884
0.353537
0.435233
0.664083
0.371875
0.350104
0.349393
0.628981
0.690836
0.423173
0.378145
0.485715
0.60409
0.688921
0.473177
0.394706
0.668849
0.615136
0.407976
0.586624
0.635092
0.703081
0.364861
0.629547
0.689134
0.638507
0.667529
0.644496
0.353713
0.383421
0.546352
0.442086
0.378181
0.638813
0.648148
0.417772
0.548459
0.361042
0.359142
0.366093
0.671113
0.367013
0.410061
0.389414
0.361776
0.329061
0.700392
0.646804
0.362721
0.372826
0.665248
0.461095
0.421594
0.477439
0.643293
0.606831
0.359997
0.664351
0.331373
0.652919
0.370555
0.706546
0.502876
0.707234
0.652097
0.702015
0.351098
0.38627
0.597091
0.708901
0.690578
0.708634
0.704337
0.652814
0.350297
0.653321
0.641476
0.707483
0.350045
0.351974
0.651639
0.649907
0.707154
0.648062
0.504913
0.616878
0.36102
0.36485
0.348455
0.361765
0.607519
0.638271
0.597241
0.399862
0.656237
0.398135
0.36839
0.616337
0.358791
0.639074
0.650208
0.709019
0.63071
0.349659
0.709008
0.621781
0.707248
0.656442
0.394471
0.405581
0.365343
0.543339
0.34945
0.349801
0.289904
0.353536
0.63931
0.374035
0.648154
0.64541
0.413029
0.425946
0.401393
0.393057
0.358514
0.598565
0.56454
0.624474
0.360016
0.671638
0.507976
0.374628
0.346697
0.694423
0.650659
0.669028
0.395517
0.686698
0.387676
0.636072
0.650416
0.654057
0.650527
0.364153
0.665258
0.362801
0.673857
0.642866
0.594793
0.405086
0.289767
0.642189
0.400577
0.629083
0.644554
0.337602
0.616661
0.632888
0.408711
0.655702
0.635375
0.370918
0.649601
0.369513
0.495777
0.652838
0.377146
0.61087
0.403306
0.629603
0.296581
0.70325
0.588402
0.63931
0.360791
0.31526
0.647636
0.354374
0.640443
0.61924
0.373316
0.709244
0.384659
0.350602
0.64368
0.479947
0.606809
0.405034
0.368227
0.653609
0.645143
0.357022
0.648247
0.385304
0.366743
0.660466
0.652754
0.440321
0.379272
0.654979
0.707488
0.683334
0.653637
0.634411
0.472586
0.339577
0.360789
0.425567
0.685501
0.423754
0.484902
0.336315
0.365949
0.311056
0.447638
0.125982
0.355622
0.647814
0.377209
0.634661
0.531561
0.664233
0.591329
0.65208
0.350435
0.408842
0.358428
0.34585
0.640461
0.534947
0.668773
0.53182
0.609219
0.560039
0.637215
0.575235
0.578932
0.634609
0.623918
0.690243
0.353549
0.421531
0.51054
0.349267
0.562228
0.523402
0.382391
0.663509
0.708989
0.364498
0.414258
0.398291
0.401194
0.553842
0.353997
0.365272
0.668365
0.390017
0.504118
0.389581
0.681474
0.622111
0.355951
0.349695
0.642902
0.392304
0.382648
0.400976
0.392806
0.365249
0.411197
0.413579
0.349236
0.36921
0.376907
0.577152
0.349406
0.646998
0.338547
0.36936
0.427357
0.372338
0.391902
0.372496
0.657049
0.377341
0.566161
0.447605
0.393325
0.550921
0.646493
0.373309
0.616134
0.56383
0.564177
0.413867
0.707695
0.342752
0.633485
0.708115
0.364058
0.368304
0.613353
0.345249
0.378168
0.590397
0.312585
0.609146
0.612231
0.42695
0.349224
0.356769
0.432314
0.348703
0.37288
0.352342
0.363541
0.646476
0.64531
0.398199
0.530145
0.411797
0.627283
0.320584
0.348759
0.478231
0.36409
0.643071
0.262682
0.324979
0.425085
0.656867
0.644091
0.486238
0.335708
0.368812
0.490279
0.651615
0.703786
0.48711
0.612994
0.605976
0.387282
0.621242
0.499143
0.595609
0.354674
0.359352
0.617456
0.63803
0.589852
0.643114
0.639889
0.643501
0.630065
0.594435
0.665273
0.40447
0.656092
0.291726
0.360161
0.399924
0.64456
0.649774
0.349178
0.645719
0.544959
0.403571
0.700622
0.651278
0.630674
0.359817
0.349191
0.644545
0.378532
0.378645
0.369169
0.390028
0.639761
0.371277
0.644268
0.349134
0.621173
0.651787
0.664117
0.644375
0.378455
0.425613
0.647921
0.652702
0.601742
0.646346
0.641119
0.419819
0.409969
0.363115
0.677252
0.473055
0.398597
0.392069
0.367469
0.651751
0.666351
0.355057
0.349693
0.64502
0.385438
0.648567
0.584328
0.368976
0.33338
0.599249
0.708866
0.368106
0.642988
0.646121
0.64849
0.346526
0.708647
0.374021
0.707184
0.594528
0.377557
0.329681
0.349183
0.706451
0.365566
0.387153
0.344351
0.699282
0.632694
0.387555
0.362188
0.391215
0.69967
0.349061
0.689176
0.374411
0.517102
0.643183
0.34021
0.369008
0.371127
0.420354
0.362363
0.642015
0.388613
0.349881
0.68761
0.360702
0.672136
0.625649
0.706829
0.399324
0.643958
0.63588
0.638367
0.675214
0.650701
0.661074
0.372108
0.704471
0.364867
0.639947
0.399785
0.652654
0.454629
0.363784
0.705186
0.637947
0.351742
0.574969
0.370192
0.348604
0.669087
0.656935
0.36914
0.372837
0.385591
0.371514
0.651464
0.631692
0.347735
0.427603
0.639798
0.657068
0.519327
0.635672
0.668177
0.36485
0.639747
0.368545
0.651446
0.348883
0.533967
0.408773
0.666232
0.607978
0.503614
0.326898
0.361452
0.665106
0.529181
0.494481
0.635156
0.361826
0.622914
0.639901
0.309729
0.420028
0.63678
0.340276
0.704713
0.59789
0.285396
0.65696
0.585946
0.356208
0.630375
0.36532
0.64195
0.367438
0.672202
0.618249
0.361784
0.698573
0.63428
0.642814
0.546716
0.625694
0.507503
0.350527
0.38603
0.36533
0.381452
0.709187
0.480395
0.659164
0.639841
0.412887
0.349322
0.629529
0.643391
0.642302
0.650515
0.407891
0.623811
0.641662
0.420531
0.336455
0.64778
0.652731
0.644031
0.370548
0.513333
0.352523
0.628794
0.626534
0.704239
0.630919
0.397921
0.634066
0.647751
0.634647
0.655396
0.675948
0.360547
0.634464
0.356937
0.597437
0.642024
0.39241
0.612644
0.703421
0.652156
0.389313
0.366386
0.509398
0.582476
0.378577
0.377149
0.362234
0.375002
0.621209
0.622456
0.703262
0.353357
0.369491
0.661334
0.610098
0.372797
0.349224
0.396555
0.6077
0.6671
0.652636
0.626195
0.362342
0.378431
0.709096
0.369531
0.411967
0.381706
0.676425
0.351991
0.381087
0.517819
0.6441
0.628079
0.692973
0.671141
0.39074
0.357415
0.36858
0.452007
0.376602
0.370253
0.606049
0.624611
0.638209
0.668873
0.370628
0.39022
0.642875
0.389297
0.677488
0.618673
0.707243
0.369036
0.391844
0.638476
0.706538
0.528925
0.371377
0.64837
0.69081
0.514765
0.65332
0.651523
0.709036
0.611833
0.408649
0.671939
0.705947
0.579986
0.628256
0.709196
0.631262
0.708484
0.657
0.350359
0.345235
0.388193
0.706914
0.455645
0.387308
0.630113
0.639115
0.373136
0.580051
0.350955
0.587078
0.442121
0.353216
0.643853
0.630807
0.397148
0.474506
0.707283
0.373875
0.648848
0.385229
0.366623
0.556985
0.539419
0.427315
0.66764
0.359947
0.633883
0.348457
0.37056
0.673078
0.399372
0.543519
0.36799
0.580614
0.534493
0.708909
0.64484
0.358905
0.348313
0.587482
0.40633
0.641606
0.413654
0.53458
0.683899
0.634232
0.415615
0.537645
0.628885
0.638908
0.662447
0.299027
0.372019
0.467092
0.629523
0.638915
0.334876
0.668911
0.530037
0.357174
0.368303
0.596264
0.607675
0.708537
0.706647
0.589364
0.620899
0.696526
0.611991
0.369852
0.588117
0.395172
0.655855
0.65289
0.358028
0.652
0.643842
0.347704
0.348925
0.402907
0.709222
0.372138
0.555565
0.632296
0.58862
0.369304
0.644613
0.377664
0.513674
0.700438
0.705059
0.604601
0.69974
0.550744
0.616702
0.474438
0.639783
0.366981
0.679389
0.664568
0.39197
0.708045
0.624745
0.36437
0.360079
0.371678
0.653885
0.374634
0.707955
0.376598
0.652128
0.367067
0.409021
0.372176
0.632824
0.650231
0.503438
0.37319
0.551932
0.69908
0.388882
0.519309
0.645026
0.370375
0.525514
0.707252
0.643165
0.67555
0.363835
0.438559
0.641651
0.662082
0.597837
0.384091
0.3615
0.650049
0.70923
0.708885
0.709153
0.504263
0.635937
0.499689
0.657087
0.383718
0.376556
0.709134
0.64232
0.697838
0.387299
0.677493
0.514225
0.549497
0.359869
0.355274
0.647852
0.648701
0.489426
0.340807
0.66762
0.707852
0.364032
0.541324
0.625974
0.36212
0.369413
0.361168
0.619589
0.349645
0.404732
0.653982
0.419531
0.639569
0.584805
0.36381
0.412821
0.647084
0.345951
0.353109
0.70677
0.369218
0.320838
0.528761
0.650281
0.641829
0.367834
0.346142
0.352355
0.62612
0.367701
0.642727
0.357409
0.631862
0.64632
0.656374
0.618559
0.630895
0.625336
0.667609
0.644301
0.645178
0.371596
0.359594
0.624778
0.696249
0.431624
0.62152
0.495301
0.697874
0.579128
0.355993
0.660634
0.644614
0.641862
0.352517
0.633827
0.355047
0.651022
0.422326
0.62603
0.673851
0.353103
0.638972
0.39387
0.399349
0.618648
0.376954
0.611149
0.709233
0.652711
0.391957
0.668528
0.367894
0.370361
0.365389
0.390265
0.578272
0.353287
0.587311
0.703437
0.342477
0.364399
0.414257
0.507218
0.569694
0.603343
0.400692
0.396155
0.3579
0.372456
0.373008
0.571556
0.634345
0.358113
0.702093
0.632171
0.361735
0.644031
0.608971
0.702313
0.349005
0.707138
0.624584
0.63559
0.654919
0.347889
0.641038
0.637942
0.63432
0.595782
0.691284
0.35046
0.364559
0.654958
0.46409
0.386801
0.674506
0.369618
0.496034
0.571048
0.640573
0.642901
0.369853
0.620412
0.348169
0.35239
0.618618
0.64212
0.638322
0.653052
0.599591
0.371231
0.643548
0.351529
0.430461
0.645811
0.708428
0.641727
0.349159
0.36974
0.641979
0.363863
0.644653
0.576529
0.374167
0.349974
0.659112
0.368456
0.674107
0.644068
0.60116
0.368307
0.347377
0.441458
0.469979
0.56121
0.417208
0.684742
0.604825
0.649017
0.709224
0.631504
0.375953
0.350165
0.645736
0.691838
0.593964
0.391534
0.378781
0.618889
0.356886
0.667328
0.541772
0.342015
0.639957
0.388021
0.647553
0.360577
0.640215
0.351315
0.64699
0.693113
0.372486
0.648182
0.58223
0.371979
0.704623
0.663059
0.495207
0.372423
0.331001
0.413381
0.636465
0.593654
0.348884
0.509358
0.632897
0.688907
0.369598
0.558966
0.634693
0.38455
0.685338
0.673479
0.362543
0.648625
0.706769
0.362422
0.540663
0.406963
0.58764
0.373733
0.365979
0.637544
0.39757
0.390754
0.35951
0.665995
0.627697
0.360658
0.666673
0.330848
0.612705
0.369648
0.628987
0.334778
0.68219
0.655248
0.595703
0.705795
0.477577
0.694145
0.702946
0.362467
0.566485
0.597813
0.465847
0.631311
0.420176
0.376239
0.64339
0.415195
0.503426
0.350766
0.669015
0.374396
0.365485
0.630593
0.669288
0.427771
0.656903
0.623986
0.709231
0.650922
0.706732
0.408102
0.643681
0.418264
0.368007
0.646831
0.627666
0.651341
0.646941
0.370693
0.372887
0.3545
0.624651
0.704196
0.330591
0.651652
0.389131
0.383372
0.35917
0.646733
0.347704
0.64388
0.644364
0.564636
0.656114
0.645273
0.5189
0.594244
0.370093
0.368162
0.425736
0.706754
0.707002
0.384798
0.57159
0.61814
0.593593
0.3643
0.390853
0.606961
0.248663
0.601447
0.566656
0.41163
0.699078
0.622654
0.383563
0.64191
0.354305
0.659928
0.640392
0.631898
0.356867
0.396618
0.610283
0.354568
0.370246
0.657834
0.357103
0.697377
0.662941
0.638113
0.623899
0.334029
0.705245
0.618123
0.662433
0.315601
0.651214
0.350047
0.373898
0.645616
0.666543
0.704612
0.2118
0.672626
0.564412
0.708596
0.394929
0.384882
0.379227
0.655255
0.364218
0.359029
0.355746
0.565373
0.355385
0.356585
0.373782
0.64379
0.397846
0.705717
0.702002
0.656764
0.393902
0.652743
0.58862
0.702375
0.357018
0.594107
0.357075
0.413584
0.669427
0.42521
0.572061
0.630473
0.709008
0.403242
0.287985
0.351179
0.486584
0.708746
0.209046
0.648117
0.666757
0.625673
0.367217
0.353501
0.300512
0.598131
0.392623
0.709286
0.533862
0.700528
0.651175
0.392063
0.575602
0.372085
0.55939
0.578182
0.643244
0.549767
0.465478
0.595937
0.596614
0.645934
0.406227
0.336292
0.386986
0.625339
0.477066
0.70846
0.402924
0.352909
0.633371
0.651881
0.70554
0.425653
0.656123
0.485047
0.489117
0.595363
0.364552
0.424425
0.36257
0.666226
0.702363
0.594408
0.625954
0.299653
0.652856
0.589071
0.701925
0.703496
0.652843
0.644503
0.689061
0.628198
0.637336
0.363085
0.655094
0.652531
0.683147
0.65115
0.665945
0.542681
0.406078
0.36992
0.58463
0.390252
0.337788
0.655332
0.351505
0.566255
0.662527
0.622422
0.642976
0.364779
0.654976
0.363011
0.379788
0.68705
0.636847
0.668436
0.388633
0.649446
0.667564
0.588945
0.669705
0.349555
0.686819
0.64215
0.620593
0.353309
0.629669
0.349368
0.646299
0.37229
0.403558
0.503218
0.388986
0.643729
0.632358
0.676814
0.355103
0.688659
0.363104
0.351805
0.639532
0.416009
0.390132
0.671712
0.358656
0.439867
0.603214
0.612361
0.640723
0.416571
0.522748
0.59259
0.67993
0.542041
0.638702
0.463709
0.654381
0.624621
0.584729
0.370768
0.382491
0.386557
0.652918
0.364729
0.59703
0.65632
0.543688
0.67837
0.491809
0.612072
0.613311
0.345541
0.657388
0.617244
0.472872
0.617693
0.642757
0.642364
0.694015
0.367009
0.348506
0.639138
0.480878
0.503818
0.657259
0.650148
0.6658
0.638038
0.640007
0.561302
0.604491
0.642926
0.358363
0.372664
0.37385
0.347568
0.708938
0.403003
0.497274
0.640101
0.617308
0.366443
0.642834
0.644645
0.38927
0.329073
0.707747
0.654893
0.362448
0.370524
0.369587
0.709239
0.64051
0.35775
0.373547
0.415142
0.366436
0.346217
0.383825
0.6534
0.656228
0.627061
0.396491
0.623478
0.553942
0.538059
0.349877
0.414563
0.638976
0.708966
0.385524
0.68339
0.385384
0.630922
0.363578
0.656245
0.418905
0.638841
0.647778
0.39359
0.490666
0.351789
0.643871
0.371333
0.558723
0.370912
0.451873
0.354539
0.552347
0.390425
0.706335
0.702975
0.536827
0.630132
0.349942
0.630037
0.697655
0.648629
0.55124
0.613139
0.415356
0.388298
0.38728
0.635813
0.261051
0.643639
0.478224
0.627102
0.64334
0.436069
0.634955
0.351167
0.381872
0.35743
0.452244
0.505109
0.648718
0.365604
0.34975
0.675269
0.323826
0.369488
0.529853
0.331446
0.382452
0.369825
0.651053
0.583846
0.562298
0.374318
0.627116
0.664959
0.370715
0.280673
0.648011
0.673517
0.55888
0.443884
0.348413
0.314252
0.364921
0.651374
0.584763
0.47265
0.61685
0.358869
0.514848
0.384941
0.704749
0.644993
0.4156
0.363062
0.589537
0.525522
0.645114
0.637735
0.637594
0.65528
0.645082
0.366619
0.349377
0.383575
0.396293
0.509072
0.707894
0.585354
0.404238
0.405869
0.411913
0.369552
0.665095
0.610662
0.38723
0.352317
0.663072
0.368621
0.592195
0.634733
0.628172
0.689771
0.514119
0.378642
0.412746
0.602238
0.414507
0.392115
0.355727
0.695849
0.660238
0.369463
0.410155
0.709105
0.391894
0.665692
0.635813
0.392497
0.348281
0.371771
0.66207
0.386826
0.709263
0.62761
0.546417
0.371038
0.459901
0.644783
0.646014
0.375894
0.640459
0.584842
0.373906
0.647038
0.652406
0.349335
0.395537
0.637917
0.367743
0.400003
0.633361
0.298324
0.655607
0.611657
0.634196
0.586288
0.642087
0.664085
0.696189
0.360768
0.351242
0.598114
0.63911
0.396428
0.643901
0.348756
0.65758
0.642005
0.509119
0.586437
0.38819
0.395211
0.643854
0.641434
0.623049
0.648222
0.667396
0.708363
0.651667
0.709132
0.650481
0.640723
0.652481
0.70889
0.693957
0.361546
0.639308
0.362381
0.659501
0.655683
0.630608
0.623753
0.622453
0.347529
0.351517
0.346013
0.375823
0.62523
0.423389
0.349432
0.619495
0.3706
0.627536
0.36325
0.634914
0.641877
0.39874
0.327369
0.340335
0.654462
0.373514
0.64874
0.63828
0.349915
0.637822
0.488137
0.332754
0.361498
0.370668
0.619554
0.394127
0.657261
0.489407
0.351164
0.664703
0.670891
0.637286
0.385223
0.520284
0.371148
0.624598
0.692511
0.662177
0.374744
0.637948
0.656864
0.62561
0.36273
0.654331
0.379194
0.38412
0.652955
0.398479
0.641479
0.383614
0.377526
0.378273
0.627111
0.364646
0.366225
0.363345
0.447801
0.707375
0.640681
0.374534
0.54866
0.665092
0.486777
0.401597
0.341446
0.489994
0.372901
0.395702
0.653444
0.385025
0.38832
0.653338
0.646292
0.38337
0.626911
0.358331
0.70811
0.357847
0.64125
0.704061
0.623762
0.700053
0.348547
0.386486
0.36892
0.688165
0.639964
0.52041
0.480011
0.320389
0.271439
0.682582
0.358023
0.655797
0.328609
0.705371
0.60797
0.408377
0.367382
0.393593
0.408631
0.366775
0.590393
0.625097
0.419238
0.652665
0.578048
0.350873
0.355623
0.644964
0.392648
0.64467
0.364253
0.624334
0.591426
0.653573
0.706741
0.349265
0.640199
0.658804
0.650648
0.395095
0.594671
0.528416
0.339013
0.653495
0.594513
0.654911
0.629314
0.644764
0.651715
0.65027
0.680734
0.66344
0.406688
0.63556
0.395895
0.418926
0.657609
0.369302
0.642085
0.606034
0.350395
0.624678
0.396219
0.370326
0.648456
0.595334
0.646448
0.351013
0.629937
0.552753
0.35789
0.407295
0.645183
0.665787
0.330699
0.357879
0.63089
0.645479
0.38605
0.582028
0.64654
0.585624
0.398907
0.380884
0.370613
0.592104
0.349704
0.640501
0.624812
0.680823
0.55731
0.644479
0.352367
0.644278
0.546582
0.647704
0.548418
0.363022
0.364306
0.36333
0.632135
0.640202
0.36186
0.589689
0.346201
0.5973
0.659845
0.362037
0.582857
0.6415
0.56453
0.402012
0.407099
0.347444
0.644249
0.641545
0.550747
0.443506
0.64957
0.387031
0.571641
0.708873
0.637272
0.395173
0.556112
0.350346
0.613417
0.36567
0.645615
0.648504
0.374537
0.646431
0.406924
0.709061
0.585221
0.709243
0.654422
0.382341
0.684781
0.670489
0.661562
0.646489
0.409383
0.708823
0.371391
0.668855
0.362045
0.422231
0.355504
0.366688
0.375247
0.404393
0.646357
0.315008
0.357913
0.599393
0.646286
0.626914
0.359724
0.6201
0.61591
0.692128
0.351943
0.552581
0.664154
0.349424
0.35827
0.379964
0.568735
0.436804
0.395525
0.550216
0.370868
0.706346
0.430368
0.390652
0.405321
0.586823
0.346086
0.665928
0.35806
0.457382
0.329116
0.651823
0.341448
0.598443
0.708723
0.610894
0.399756
0.403348
0.651101
0.645033
0.355688
0.37028
0.685673
0.418207
0.629083
0.392692
0.489912
0.363813
0.664379
0.349077
0.645958
0.424159
0.659366
0.647025
0.642554
0.708597
0.370331
0.368668
0.357571
0.64246
0.618735
0.626291
0.509018
0.34978
0.633901
0.34268
0.638398
0.584264
0.377587
0.350592
0.635129
0.647623
0.371711
0.707639
0.652265
0.636715
0.634394
0.357816
0.573525
0.393515
0.637765
0.349291
0.703234
0.636906
0.650728
0.646952
0.351111
0.646886
0.396757
0.350955
0.666471
0.708534
0.492451
0.641511
0.708986
0.392358
0.62931
0.65117
0.651046
0.370013
0.377401
0.615381
0.422041
0.656438
0.655512
0.644069
0.652373
0.25815
0.4073
0.583667
0.372903
0.64284
0.644162
0.426713
0.647112
0.374385
0.602555
0.629684
0.607617
0.647997
0.403609
0.364045
0.647918
0.639013
0.349868
0.350043
0.349911
0.370052
0.358377
0.368546
0.359467
0.388457
0.645994
0.361166
0.397405
0.630044
0.492043
0.708975
0.350816
0.406928
0.663294
0.4172
0.453657
0.640444
0.33108
0.591425
0.704706
0.540767
0.628975
0.375612
0.641382
0.70075
0.348752
0.380483
0.377681
0.604345
0.541075
0.644182
0.680995
0.637449
0.630341
0.336555
0.645203
0.699167
0.647479
0.401321
0.663018
0.567056
0.334244
0.377235
0.375738
0.372168
0.361823
0.532056
0.604219
0.625179
0.395511
0.333706
0.647305
0.372856
0.636208
0.669341
0.643534
0.607664
0.65189
0.349161
0.372017
0.370524
0.5184
0.351435
0.65999
0.369954
0.668427
0.685766
0.655387
0.351521
0.404598
0.377236
0.646296
0.356433
0.379033
0.65462
0.629584
0.576694
0.683179
0.64492
0.628713
0.373279
0.554997
0.640539
0.459545
0.645708
0.635973
0.631584
0.384964
0.363544
0.650917
0.426762
0.563477
0.388268
0.613965
0.646496
0.353645
0.348963
0.621796
0.44916
0.640822
0.635593
0.392934
0.421195
0.706502
0.383284
0.366054
0.649377
0.645078
0.350347
0.651131
0.707098
0.6237
0.373057
0.53242
0.376524
0.652324
0.645237
0.62901
0.622097
0.705429
0.354891
0.335879
0.63077
0.38887
0.538232
0.35127
0.652377
0.374064
0.588932
0.639916
0.705891
0.3749
0.709239
0.70769
0.386925
0.613037
0.371022
0.650592
0.381555
0.414131
0.369426
0.621875
0.657734
0.282916
0.359823
0.636923