# vtk DataFile Version 1.0
unstructured grid
ascii
DATASET UNSTRUCTURED_GRID
points 13672 float
0.0796578 -0.059106 0
0.00128732 0.00159165 0
0.00227961 -0.00102548 0
0.0791586 -0.0598787 0
-0.0546216 0.01 0
0.000495206 0.025 0
0.0800549 -0.035 0
0.135172 -0.08 0
-0.0546216 -0.0451168 0
0.000495206 -0.0301168 0
0.0800549 -0.0901168 0
0.135172 -0.135117 0
-0.0546216 -0.0451168 -0.00551168
0.000495206 -0.0301168 -0.00551168
0.0800549 -0.0901168 -0.00551168
0.135172 -0.135117 -0.00551168
0.135172 -0.08 -0.00551168
0.0800549 -0.035 -0.00551168
0.000495206 0.025 -0.00551168
-0.0546216 0.01 -0.00551168
0.00128732 0.00159165 -0.00551168
0.00227961 -0.00102548 -0.00551168
0.0791586 -0.0598787 -0.00551168
0.0796578 -0.059106 -0.00551168
0.00165953 -0.000990923 0
0.00119576 -0.000874076 0
0.000866021 -0.000641801 0
0.000645147 -0.000349912 0
0.00052235 -1.7281e-05 0
0.00049972 0.000348016 0
0.000601632 0.000737716 0
0.000861774 0.0011403 0
0.00157235 0.00183217 0
0.00188647 0.00206725 0
0.00222612 0.00230203 0
0.00258713 0.00254351 0
0.00296826 0.00279524 0
0.00337118 0.00305664 0
0.00379785 0.00332658 0
0.00425045 0.00360349 0
0.00473139 0.00388521 0
0.0052432 0.00416895 0
0.0057881 0.00445204 0
0.00636753 0.00473281 0
0.00698281 0.00500961 0
0.00763526 0.00528058 0
0.00832616 0.00554366 0
0.00905691 0.00579603 0
0.00982918 0.00603333 0
0.0106445 0.00625033 0
0.0115038 0.00644128 0
0.0124073 0.00660297 0
0.0133543 0.00673414 0
0.0143444 0.00683382 0
0.0153769 0.00690031 0
0.0164512 0.00693173 0
0.0175666 0.00692547 0
0.0187219 0.00687822 0
0.0199156 0.00678477 0
0.0211454 0.00663864 0
0.0224084 0.00643275 0
0.0237018 0.00616676 0
0.0250249 0.00584739 0
0.026375 0.00547298 0
0.0277479 0.00503752 0
0.0291386 0.00453545 0
0.0305433 0.0039653 0
0.0319572 0.0033256 0
0.0333681 0.00260019 0
0.034775 0.00179799 0
0.0361793 0.000930615 0
0.0375798 3.12222e-06 0
0.0389689 -0.000988429 0
0.0403357 -0.00205109 0
0.041675 -0.00318283 0
0.0429849 -0.00437751 0
0.0442643 -0.00562904 0
0.0455126 -0.00693089 0
0.0467314 -0.00827518 0
0.0479204 -0.00965638 0
0.0490661 -0.0110799 0
0.0501515 -0.0125519 0
0.0511696 -0.0140695 0
0.0521492 -0.0156071 0
0.0531202 -0.0171411 0
0.0540851 -0.0186663 0
0.0550431 -0.0201798 0
0.0559923 -0.0216793 0
0.0569311 -0.0231626 0
0.0578582 -0.0246273 0
0.0587723 -0.0260715 0
0.0596721 -0.027493 0
0.0605563 -0.02889 0
0.0614241 -0.0302609 0
0.0622742 -0.0316042 0
0.063106 -0.0329183 0
0.0639186 -0.034202 0
0.0647113 -0.0354543 0
0.0654835 -0.0366743 0
0.0662345 -0.0378613 0
0.0669642 -0.0390145 0
0.0676726 -0.0401333 0
0.0683597 -0.0412172 0
0.0690246 -0.0422665 0
0.0696662 -0.0432819 0
0.0702841 -0.0442636 0
0.0708793 -0.0452111 0
0.0714538 -0.0461237 0
0.072009 -0.047001 0
0.0725452 -0.0478434 0
0.0730611 -0.0486524 0
0.073556 -0.0494294 0
0.0740291 -0.0501756 0
0.0744812 -0.0508916 0
0.0749138 -0.0515773 0
0.0753285 -0.0522331 0
0.0757266 -0.0528592 0
0.076109 -0.0534564 0
0.0764753 -0.0540264 0
0.0768243 -0.054571 0
0.0771553 -0.0550919 0
0.0774679 -0.0555901 0
0.0777617 -0.0560669 0
0.0780369 -0.056523 0
0.0782958 -0.0569578 0
0.0785421 -0.0573703 0
0.0787786 -0.0577603 0
0.0790073 -0.0581279 0
0.0792295 -0.058474 0
0.0794462 -0.0587995 0
0.0798803 -0.0594162 0
0.0800272 -0.0596588 0
0.0800357 -0.0598891 0
0.0799275 -0.0600784 0
0.0797205 -0.0601773 0
0.0794593 -0.0601051 0
0.0789155 -0.0596491 0
0.0786707 -0.0593963 0
0.0784111 -0.0591319 0
0.0781372 -0.0588542 0
0.0778566 -0.0585548 0
0.0775715 -0.0582308 0
0.0772803 -0.0578828 0
0.0769832 -0.0575099 0
0.0766822 -0.0571097 0
0.0763801 -0.0566796 0
0.0760759 -0.0562196 0
0.0757623 -0.0557337 0
0.0754359 -0.0552232 0
0.0750951 -0.0546879 0
0.0747379 -0.054128 0
0.0743626 -0.0535435 0
0.0739688 -0.0529338 0
0.0735559 -0.0522981 0
0.0731238 -0.0516357 0
0.0726718 -0.050946 0
0.0721991 -0.0502288 0
0.0717046 -0.049484 0
0.0711872 -0.0487117 0
0.0706461 -0.047912 0
0.0700804 -0.0470849 0
0.0694892 -0.0462308 0
0.0688718 -0.0453499 0
0.0682271 -0.0444431 0
0.0675544 -0.043511 0
0.0668527 -0.0425546 0
0.0661215 -0.0415748 0
0.06536 -0.040573 0
0.0645676 -0.0395504 0
0.0637439 -0.0385087 0
0.0628887 -0.0374493 0
0.062002 -0.0363741 0
0.0610838 -0.0352847 0
0.0601345 -0.0341831 0
0.0591547 -0.033071 0
0.0581456 -0.0319502 0
0.0571083 -0.0308224 0
0.0560444 -0.0296893 0
0.0549562 -0.028552 0
0.053845 -0.0274126 0
0.0527113 -0.0262746 0
0.051554 -0.0251427 0
0.0503724 -0.0240222 0
0.0491675 -0.0229164 0
0.047941 -0.0218282 0
0.0466955 -0.0207597 0
0.0454337 -0.0197126 0
0.0441592 -0.0186878 0
0.0428751 -0.0176863 0
0.0415841 -0.0167097 0
0.0402878 -0.0157609 0
0.0389879 -0.0148428 0
0.0376864 -0.0139575 0
0.0363853 -0.013107 0
0.0350871 -0.0122931 0
0.0337942 -0.0115164 0
0.0325095 -0.0107772 0
0.0312357 -0.0100756 0
0.0299758 -0.00941024 0
0.0287337 -0.00877784 0
0.0275126 -0.00817571 0
0.0263139 -0.00760375 0
0.0251376 -0.00706528 0
0.0239829 -0.0065649 0
0.0228537 -0.00609619 0
0.0217522 -0.00565563 0
0.0206795 -0.00524226 0
0.0196364 -0.00485507 0
0.0186233 -0.00449318 0
0.0176408 -0.00415577 0
0.016689 -0.00384204 0
0.0157682 -0.00355115 0
0.0148783 -0.00328218 0
0.0140192 -0.00303468 0
0.0131906 -0.00280795 0
0.0123925 -0.00260016 0
0.0116246 -0.00241012 0
0.0108864 -0.00223769 0
0.0101774 -0.00208212 0
0.00949701 -0.00194206 0
0.00884483 -0.0018163 0
0.0082202 -0.0017039 0
0.00762247 -0.00160391 0
0.00705097 -0.00151528 0
0.006505 -0.00143697 0
0.0059838 -0.00136806 0
0.00548662 -0.00130772 0
0.00501265 -0.00125519 0
0.00456114 -0.00120954 0
0.00413136 -0.00116914 0
0.00372257 -0.00113251 0
0.00333398 -0.00109853 0
0.00296466 -0.00106798 0
0.00261363 -0.0010431 0
-0.052721 -0.0445996 0
-0.0508204 -0.0440823 0
-0.0489199 -0.0435651 0
-0.0470193 -0.0430478 0
-0.0451187 -0.0425306 0
-0.0432181 -0.0420134 0
-0.0413175 -0.0414961 0
-0.039417 -0.0409789 0
-0.0375164 -0.0404616 0
-0.0356158 -0.0399444 0
-0.0337152 -0.0394271 0
-0.0318146 -0.0389099 0
-0.0299141 -0.0383927 0
-0.0280135 -0.0378754 0
-0.0261129 -0.0373582 0
-0.0242123 -0.0368409 0
-0.0223117 -0.0363237 0
-0.0204112 -0.0358065 0
-0.0185106 -0.0352892 0
-0.01661 -0.034772 0
-0.0147094 -0.0342547 0
-0.0128088 -0.0337375 0
-0.0109083 -0.0332202 0
-0.00900769 -0.032703 0
-0.00710711 -0.0321858 0
-0.00520653 -0.0316685 0
-0.00330595 -0.0311513 0
-0.00140537 -0.030634 0
0.00190689 -0.0299614 0
0.00332271 -0.0298498 0
0.00474133 -0.0297825 0
0.00616136 -0.0297597 0
0.0075814 -0.0297814 0
0.00900007 -0.0298477 0
0.010416 -0.0299583 0
0.0118278 -0.0301127 0
0.0132342 -0.0303103 0
0.0146339 -0.0305504 0
0.0160259 -0.0308322 0
0.0174091 -0.0311546 0
0.0187824 -0.0315166 0
0.020145 -0.031917 0
0.0214961 -0.0323546 0
0.0228351 -0.032828 0
0.0241613 -0.0333361 0
0.0254744 -0.0338774 0
0.0267738 -0.0344507 0
0.0280592 -0.0350545 0
0.0293306 -0.0356877 0
0.0305875 -0.0363488 0
0.0318301 -0.0370367 0
0.0330581 -0.0377501 0
0.0342717 -0.0384879 0
0.0354708 -0.0392489 0
0.0366556 -0.0400321 0
0.0378262 -0.0408363 0
0.0389828 -0.0416607 0
0.0401254 -0.0425042 0
0.0412543 -0.0433659 0
0.0423698 -0.0442451 0
0.043472 -0.0451408 0
0.0445612 -0.0460523 0
0.0456375 -0.0469789 0
0.0467013 -0.0479199 0
0.0477529 -0.0488746 0
0.0487923 -0.0498424 0
0.04982 -0.0508227 0
0.0508362 -0.051815 0
0.051841 -0.0528187 0
0.0528348 -0.0538333 0
0.0538178 -0.0548584 0
0.0547903 -0.0558935 0
0.0557524 -0.0569382 0
0.0567045 -0.0579922 0
0.0576467 -0.0590549 0
0.0585792 -0.0601261 0
0.0595024 -0.0612055 0
0.0604163 -0.0622926 0
0.0613212 -0.0633873 0
0.0622174 -0.0644891 0
0.0631049 -0.0655979 0
0.0639841 -0.0667134 0
0.064855 -0.0678353 0
0.0657179 -0.0689633 0
0.0665729 -0.0700974 0
0.0674202 -0.0712372 0
0.06826 -0.0723826 0
0.0690925 -0.0735333 0
0.0699178 -0.0746892 0
0.070736 -0.0758501 0
0.0715473 -0.0770159 0
0.0723518 -0.0781863 0
0.0731498 -0.0793612 0
0.0739412 -0.0805405 0
0.0747264 -0.081724 0
0.0755053 -0.0829116 0
0.0762781 -0.0841033 0
0.0770449 -0.0852987 0
0.0778059 -0.0864979 0
0.0785611 -0.0877007 0
0.0793108 -0.088907 0
0.0814681 -0.0912706 0
0.0828814 -0.0924245 0
0.0842946 -0.0935783 0
0.0857079 -0.0947322 0
0.0871211 -0.095886 0
0.0885344 -0.0970399 0
0.0899476 -0.0981937 0
0.0913609 -0.0993476 0
0.0927741 -0.100501 0
0.0941874 -0.101655 0
0.0956006 -0.102809 0
0.0970139 -0.103963 0
0.0984272 -0.105117 0
0.0998404 -0.106271 0
0.101254 -0.107424 0
0.102667 -0.108578 0
0.10408 -0.109732 0
0.105493 -0.110886 0
0.106907 -0.11204 0
0.10832 -0.113194 0
0.109733 -0.114348 0
0.111146 -0.115501 0
0.11256 -0.116655 0
0.113973 -0.117809 0
0.115386 -0.118963 0
0.116799 -0.120117 0
0.118213 -0.121271 0
0.119626 -0.122424 0
0.121039 -0.123578 0
0.122452 -0.124732 0
0.123866 -0.125886 0
0.125279 -0.12704 0
0.126692 -0.128194 0
0.128105 -0.129348 0
0.129519 -0.130501 0
0.130932 -0.131655 0
0.132345 -0.132809 0
0.133758 -0.133963 0
0.135172 -0.133216 0
0.135172 -0.131316 0
0.135172 -0.129415 0
0.135172 -0.127514 0
0.135172 -0.125614 0
0.135172 -0.123713 0
0.135172 -0.121813 0
0.135172 -0.119912 0
0.135172 -0.118012 0
0.135172 -0.116111 0
0.135172 -0.11421 0
0.135172 -0.11231 0
0.135172 -0.110409 0
0.135172 -0.108509 0
0.135172 -0.106608 0
0.135172 -0.104708 0
0.135172 -0.102807 0
0.135172 -0.100906 0
0.135172 -0.0990058 0
0.135172 -0.0971052 0
0.135172 -0.0952046 0
0.135172 -0.0933041 0
0.135172 -0.0914035 0
0.135172 -0.0895029 0
0.135172 -0.0876023 0
0.135172 -0.0857017 0
0.135172 -0.0838012 0
0.135172 -0.0819006 0
0.133758 -0.0788462 0
0.132345 -0.0776923 0
0.130932 -0.0765385 0
0.129519 -0.0753846 0
0.128105 -0.0742308 0
0.126692 -0.0730769 0
0.125279 -0.0719231 0
0.123866 -0.0707692 0
0.122452 -0.0696154 0
0.121039 -0.0684615 0
0.119626 -0.0673077 0
0.118213 -0.0661538 0
0.116799 -0.065 0
0.115386 -0.0638462 0
0.113973 -0.0626923 0
0.11256 -0.0615385 0
0.111146 -0.0603846 0
0.109733 -0.0592308 0
0.10832 -0.0580769 0
0.106907 -0.0569231 0
0.105493 -0.0557692 0
0.10408 -0.0546154 0
0.102667 -0.0534615 0
0.101254 -0.0523077 0
0.0998404 -0.0511538 0
0.0984272 -0.05 0
0.0970139 -0.0488462 0
0.0956006 -0.0476923 0
[...]
CELL_DATA 13116
SCALARS rho float
LOOKUP_TABLE default
0.50302
0.636939
0.397292
0.670718
0.670997
0.659832
0.377752
0.684268
0.480063
0.673856
0.384747
0.379225
0.671261
0.377761
0.380574
0.659894
0.471108
0.656075
0.658473
0.365117
0.507656
0.421044
0.382827
0.662197
0.564506
0.644873
0.673683
0.402844
0.565236
0.603163
0.659667
0.392236
0.509441
0.406369
0.391961
0.505701
0.628225
0.655051
0.65953
0.667618
0.659005
0.684385
0.380834
0.3903
0.658262
0.658398
0.618118
0.660668
0.375548
0.477912
0.675427
0.397111
0.376581
0.463164
0.507921
0.539643
0.389461
0.662534
0.491692
0.369443
0.377058
0.673854
0.628715
0.659531
0.659686
0.375117
0.663283
0.632183
0.663597
0.659621
0.387494
0.543386
0.417032
0.381429
0.659941
0.386608
0.611738
0.668544
0.365185
0.653532
0.645145
0.642175
0.666078
0.660257
0.65438
0.416823
0.372504
0.626091
0.656836
0.394834
0.40568
0.638836
0.666336
0.666206
0.608098
0.553227
0.567288
0.659909
0.659791
0.554622
0.635035
0.55808
0.659002
0.357065
0.604335
0.386718
0.332056
0.425297
0.395282
0.575563
0.454158
0.62851
0.551243
0.646929
0.654593
0.664316
0.37577
0.354534
0.666346
0.66669
0.632322
0.417517
0.664042
0.406942
0.66488
0.400654
0.373923
0.466569
0.391837
0.47976
0.666593
0.658161
0.463525
0.393021
0.444731
0.542461
0.660979
0.666957
0.634087
0.666567
0.593344
0.621681
0.464525
0.594816
0.619662
0.379847
0.396495
0.634723
0.668995
0.675476
0.502404
0.659711
0.66058
0.390417
0.67166
0.655969
0.38697
0.640447
0.659888
0.626124
0.662855
0.374435
0.665709
0.387976
0.415989
0.674074
0.660518
0.655056
0.388376
0.429853
0.389143
0.660904
0.378635
0.449373
0.663216
0.381822
0.405694
0.417432
0.62384
0.659294
0.378039
0.396314
0.474887
0.628361
0.659348
0.488966
0.376388
0.660042
0.594744
0.421744
0.600282
0.631997
0.659525
0.386208
0.621267
0.659576
0.671468
0.659829
0.655151
0.367765
0.35587
0.580449
0.461309
0.380545
0.665057
0.656752
0.405935
0.564073
0.379205
0.396571
0.383105
0.661084
0.388858
0.361381
0.396127
0.389489
0.3337
0.659161
0.662499
0.405795
0.387212
0.662864
0.447691
0.378701
0.515933
0.673849
0.616825
0.405697
0.663392
0.363067
0.69615
0.394627
0.659483
0.533562
0.660003
0.663479
0.659493
0.359845
0.392486
0.625717
0.660084
0.659466
0.660802
0.659291
0.682786
0.409353
0.670816
0.672247
0.659779
0.397337
0.378191
0.658004
0.666008
0.659514
0.662432
0.488648
0.645428
0.383327
0.382336
0.35585
0.379563
0.584761
0.671144
0.610669
0.369245
0.659201
0.372592
0.400821
0.606607
0.392341
0.641841
0.677765
0.660217
0.662867
0.361406
0.660253
0.650827
0.659791
0.666718
0.362467
0.366266
0.390271
0.537053
0.416332
0.385291
0.307651
0.2939
0.649589
0.376886
0.658573
0.672424
0.367958
0.368751
0.371546
0.416185
0.402783
0.624904
0.551106
0.617472
0.392154
0.660397
0.548087
0.38581
0.370158
0.659475
0.666128
0.659731
0.374085
0.659666
0.372679
0.657681
0.682468
0.673547
0.681778
0.391386
0.662905
0.376917
0.660049
0.671426
0.6262
0.357917
0.307376
0.672608
0.370651
0.635538
0.673892
0.33051
0.644956
0.665521
0.368823
0.65887
0.667581
0.380044
0.66823
0.417246
0.536043
0.685446
0.423794
0.640793
0.369275
0.661379
0.318997
0.659223
0.55485
0.671341
0.404763
0.329406
0.655436
0.392607
0.664809
0.60321
0.386803
0.66088
0.382751
0.407938
0.663579
0.515564
0.63196
0.367934
0.388254
0.670908
0.672174
0.394489
0.67296
0.374638
0.386081
0.665128
0.683606
0.409264
0.369686
0.666266
0.659645
0.659925
0.658698
0.664573
0.502197
0.409371
0.377793
0.375324
0.659885
0.375496
0.472893
0.335111
0.368078
0.323766
0.420941
0.132817
0.391463
0.65516
0.32403
0.666907
0.56435
0.659408
0.617574
0.67065
0.408105
0.364594
0.373012
0.33514
0.662795
0.546675
0.659069
0.565047
0.621163
0.576284
0.639326
0.584516
0.600066
0.663765
0.652614
0.659692
0.36005
0.413246
0.498924
0.416772
0.54677
0.53786
0.376697
0.66371
0.660193
0.39426
0.36119
0.362291
0.377946
0.590681
0.401107
0.386162
0.661739
0.375685
0.532739
0.373934
0.659645
0.648526
0.404923
0.396316
0.663037
0.418059
0.370211
0.376973
0.376427
0.395218
0.366193
0.36192
0.415033
0.400495
0.37447
0.554174
0.412931
0.656206
0.344001
0.402182
0.46753
0.375179
0.394646
0.378346
0.663422
0.405524
0.599762
0.427191
0.374951
0.566826
0.658267
0.416274
0.644521
0.578324
0.577008
0.365533
0.659961
0.357229
0.664865
0.659728
0.391708
0.374678
0.591825
0.329018
0.42565
0.558902
0.330761
0.639409
0.623677
0.371835
0.400119
0.382013
0.444684
0.369059
0.379251
0.384079
0.377125
0.675117
0.673452
0.422915
0.557971
0.443613
0.618636
0.320323
0.401821
0.485095
0.392057
0.659043
0.271885
0.342777
0.459702
0.657825
0.65617
0.521824
0.328682
0.374004
0.532085
0.683348
0.659621
0.528295
0.605885
0.582427
0.364092
0.647273
0.528934
0.624527
0.28389
0.402628
0.645464
0.670773
0.616309
0.674008
0.648001
0.649577
0.661892
0.624843
0.659283
0.383973
0.657896
0.315185
0.379073
0.359064
0.669036
0.657279
0.285818
0.6542
0.58237
0.358566
0.659413
0.665614
0.659921
0.402635
0.400476
0.666851
0.368082
0.362727
0.384052
0.363805
0.656832
0.379509
0.667457
0.413467
0.637172
0.674285
0.662553
0.671932
0.368565
0.369924
0.658083
0.696319
0.621307
0.675113
0.672055
0.463531
0.367576
0.393881
0.659857
0.482986
0.361974
0.417932
0.363388
0.67636
0.660899
0.284615
0.421429
0.653965
0.434927
0.655205
0.619175
0.390734
0.363694
0.617158
0.66018
0.389643
0.653707
0.66098
0.657714
0.391879
0.660751
0.387088
0.660048
0.62313
0.367552
0.33198
0.386265
0.659974
0.395259
0.369239
0.354983
0.659373
0.659339
0.368333
0.374879
0.379311
0.659518
0.417019
0.659488
0.3799
0.547486
0.67386
0.347334
0.387334
0.384975
0.463952
0.397093
0.650672
0.375883
0.402725
0.659414
0.377402
0.660841
0.631049
0.659988
0.364887
0.659656
0.668684
0.671416
0.660032
0.676358
0.664721
0.383768
0.659629
0.407904
0.654697
0.362875
0.682471
0.460453
0.382756
0.659633
0.66715
0.397626
0.58627
0.402283
0.390442
0.6615
0.662873
0.35309
0.381082
0.366519
0.381616
0.677384
0.660667
0.394228
0.373711
0.664655
0.667499
0.549198
0.668253
0.660659
0.376303
0.672618
0.394789
0.675134
0.353973
0.551182
0.447991
0.66239
0.63363
0.538481
0.312311
0.402635
0.660289
0.566176
0.469025
0.667628
0.378921
0.651063
0.671259
0.340993
0.410875
0.669442
0.328519
0.659569
0.626751
0.303376
0.668723
0.605924
0.402577
0.657621
0.389448
0.650885
0.39075
0.660853
0.627045
0.40293
0.659561
0.666446
0.667039
0.583481
0.650856
0.54578
0.383991
0.375772
0.334145
0.380202
0.661158
0.518889
0.665194
0.668508
0.375915
0.415874
0.655042
0.67356
0.663302
0.67841
0.358216
0.651825
0.67217
0.363592
0.348842
0.666291
0.658034
0.652789
0.359919
0.554087
0.405229
0.656317
0.630336
0.659584
0.645828
0.361481
0.653076
0.65796
0.667701
0.662702
0.659309
0.404323
0.664467
0.395859
0.596775
0.673087
0.429466
0.624949
0.659582
0.674133
0.35868
0.363831
0.54669
0.609162
0.367243
0.371163
0.390915
0.382973
0.638314
0.6504
0.659352
0.292752
0.37671
0.66339
0.639389
0.37951
0.40603
0.430336
0.630826
0.660103
0.658499
0.657073
0.3969
0.367007
0.66058
0.404058
0.361999
0.378412
0.659143
0.405093
0.375523
0.531642
0.656538
0.622689
0.659676
0.659819
0.374034
0.381344
0.390059
0.426346
0.405564
0.39824
0.631389
0.655108
0.646702
0.660066
0.371016
0.360839
0.6739
0.362307
0.659176
0.626844
0.659791
0.35315
0.373184
0.645669
0.659587
0.516841
0.38001
0.655508
0.659714
0.526912
0.675353
0.680204
0.660435
0.605335
0.359176
0.659779
0.659502
0.581284
0.656414
0.661158
0.629635
0.660507
0.665702
0.403817
0.395164
0.36008
0.659706
0.458364
0.363787
0.65509
0.664889
0.374383
0.594029
0.40759
0.601496
0.419149
0.368764
0.673564
0.659195
0.363938
0.515067
0.659671
0.386056
0.665761
0.375631
0.385557
0.571704
0.565245
0.467379
0.65902
0.390649
0.666062
0.401602
0.354141
0.660728
0.360974
0.558163
0.366514
0.593466
0.552684
0.660529
0.657737
0.377028
0.402613
0.579674
0.381479
0.662914
0.415628
0.545682
0.659746
0.667307
0.395894
0.572748
0.622858
0.671927
0.66421
0.322319
0.362584
0.504307
0.622516
0.670738
0.338951
0.659119
0.518641
0.372736
0.357259
0.627924
0.630936
0.660696
0.660001
0.563008
0.649485
0.659482
0.637582
0.369833
0.616295
0.427763
0.670168
0.657691
0.284985
0.67834
0.670464
0.398557
0.365648
0.370089
0.661136
0.373176
0.571577
0.661206
0.617677
0.359098
0.652991
0.379092
0.553363
0.659599
0.659366
0.629167
0.659484
0.575823
0.643677
0.477652
0.654356
0.390544
0.65909
0.662443
0.363298
0.660341
0.652587
0.392859
0.377195
0.38888
0.673609
0.374463
0.660328
0.388501
0.684384
0.374654
0.448642
0.379087
0.664121
0.676953
0.486806
0.253416
0.575476
0.659167
0.390898
0.547959
0.672779
0.39501
0.542468
0.659668
0.673744
0.659265
0.391888
0.422816
0.664235
0.658801
0.598116
0.385016
0.361255
0.656075
0.660729
0.660216
0.660856
0.50129
0.658508
0.496064
0.668094
0.383624
0.380322
0.660805
0.670246
0.659378
0.376403
0.659014
0.509764
0.55515
0.392446
0.38911
0.673064
0.682379
0.5146
0.368262
0.659529
0.660248
0.385049
0.567839
0.656727
0.386147
0.396506
0.376533
0.598153
0.420803
0.38077
0.658451
0.421469
0.672487
0.600623
0.381096
0.366756
0.675731
0.394138
0.402158
0.659562
0.383778
0.321344
0.546534
0.67485
0.659476
0.38572
0.4103
0.392908
0.632269
0.386318
0.660117
0.387513
0.656255
0.654686
0.658047
0.614742
0.651273
0.628207
0.660158
0.671694
0.662573
0.37897
0.39292
0.643841
0.65956
0.473827
0.60885
0.514679
0.659551
0.579625
0.404785
0.665473
0.673325
0.653628
0.397799
0.653666
0.405869
0.66014
0.46681
0.656055
0.659949
0.369358
0.662461
0.369145
0.387904
0.629517
0.37826
0.640309
0.661175
0.68115
0.379271
0.661587
0.391046
0.373601
0.367012
0.394685
0.57242
0.378163
0.596468
0.659522
0.356028
0.386645
0.45703
0.542804
0.588643
0.60252
0.366655
0.372012
0.393808
0.379021
0.252313
0.588693
0.63516
0.403165
0.659281
0.660939
0.376736
0.67168
0.638729
0.659516
0.395239
0.660023
0.649408
0.664958
0.671638
0.370565
0.660295
0.666817
0.654212
0.628992
0.659154
0.380313
0.374076
0.660067
0.502912
0.370331
0.660533
0.381115
0.535265
0.583805
0.648662
0.651886
0.385674
0.606195
0.359959
0.397357
0.64738
0.666507
0.668742
0.66976
0.620561
0.377387
0.67218
0.375844
0.472796
0.673908
0.659833
0.663841
0.397282
0.376487
0.67275
0.378208
0.666372
0.609263
0.39674
0.383696
0.665742
0.368807
0.660029
0.66583
0.620273
0.368321
0.394735
0.463848
0.470354
0.576326
0.432121
0.659404
0.603328
0.658224
0.66123
0.656822
0.372877
0.384431
0.66817
0.659086
0.593435
0.429895
0.380198
0.644377
0.377364
0.66075
0.577697
0.411098
0.662328
0.359848
0.664446
0.398471
0.669719
0.361159
0.659074
0.659301
0.314792
0.66582
0.60877
0.302282
0.659337
0.658689
0.512409
0.375573
0.33083
0.425807
0.669408
0.578692
0.416463
0.549466
0.659054
0.659456
0.350164
0.565906
0.646409
0.434597
0.659274
0.660233
0.278475
0.662738
0.659732
0.39627
0.552243
0.378784
0.600223
0.387118
0.385526
0.670169
0.385227
0.386446
0.376808
0.662556
0.637741
0.360186
0.659458
0.326843
0.633611
0.390328
0.640825
0.335923
0.659834
0.660288
0.611066
0.659403
0.518895
0.659263
0.659466
0.399284
0.597667
0.616101
0.436091
0.65633
0.462522
0.361482
0.671985
0.383148
0.531296
0.407653
0.659163
0.378641
0.385296
0.658944
0.660208
0.369989
0.668615
0.654904
0.661135
0.678721
0.660052
0.358336
0.670494
0.364059
0.388811
0.661095
0.658871
0.684542
0.65587
0.386629
0.387693
0.393414
0.639148
0.659436
0.329663
0.680577
0.374306
0.384447
0.388676
0.657937
0.35495
0.673069
0.662775
0.596753
0.66252
0.661997
0.527135
0.605927
0.407556
0.37043
0.369718
0.66004
0.660099
0.376562
0.588634
0.594394
0.606773
0.391778
0.356345
0.607499
0.259975
0.598984
0.557687
0.361552
0.659185
0.640206
0.362676
0.658993
0.400885
0.665126
0.671184
0.651925
0.377753
0.442354
0.639303
0.281241
0.416684
0.661109
0.288677
0.65918
0.663899
0.6398
0.654114
0.398983
0.659727
0.646957
0.658836
0.340424
0.670717
0.411978
0.377447
0.653514
0.660223
0.659297
0.220679
0.660382
0.597651
0.659949
0.372934
0.376781
0.369796
0.66945
0.382406
0.380456
0.401797
0.555379
0.39725
0.287562
0.416262
0.66021
0.359912
0.659362
0.659347
0.666162
0.377654
0.662273
0.613973
0.659318
0.390669
0.626717
0.396746
0.384344
0.661501
0.3695
0.58549
0.65739
0.660581
0.35977
0.307887
0.396903
0.526681
0.660841
0.219046
0.655397
0.662273
0.656399
0.398654
0.376588
0.32227
0.580279
0.36758
0.661275
0.56998
0.659363
0.656557
0.361524
0.587249
0.386281
0.526409
0.611174
0.673699
0.530916
0.429281
0.626322
0.598103
0.668947
0.381979
0.338719
0.378245
0.654953
0.489214
0.659814
0.359658
0.369815
0.664077
0.661905
0.659391
0.369162
0.667299
0.524939
0.527669
0.582109
0.395309
0.36683
0.276681
0.660522
0.659597
0.627375
0.61549
0.320858
0.683265
0.620143
0.659604
0.659321
0.680598
0.673461
0.659763
0.658936
0.6681
0.391426
0.664138
0.670556
0.659228
0.665228
0.660228
0.536219
0.35914
0.389681
0.586673
0.379307
0.390775
0.667315
0.398026
0.60103
0.662889
0.635473
0.654214
0.395621
0.669264
0.364368
0.377643
0.659877
0.658032
0.6602
0.375085
0.67303
0.658995
0.586458
0.659795
0.416743
0.659141
0.673005
0.639611
0.368816
0.661544
0.39504
0.673599
0.382553
0.359402
0.47711
0.417495
0.673558
0.664182
0.659227
0.401647
0.65913
0.361502
0.392888
0.646617
0.461346
0.391876
0.659155
0.368498
0.482388
0.628824
0.615156
0.649116
0.459697
0.562001
0.616702
0.659595
0.533684
0.668764
0.501248
0.700863
0.611562
0.607577
0.368826
0.365292
0.417381
0.669643
0.392567
0.624632
0.669553
0.560297
0.659664
0.472497
0.640736
0.639602
0.39592
0.668112
0.599911
0.442277
0.603115
0.672574
0.651528
0.659377
0.397707
0.403273
0.655092
0.492105
0.498796
0.667337
0.659745
0.659854
0.669813
0.672244
0.578841
0.600846
0.672621
0.377934
0.373323
0.379532
0.410888
0.660251
0.424553
0.491947
0.662128
0.644929
0.390544
0.654929
0.667862
0.376412
0.348443
0.660229
0.666056
0.396916
0.359265
0.37479
0.661235
0.642993
0.372495
0.372717
0.362426
0.385302
0.315875
0.372682
0.696704
0.66049
0.652794
0.38451
0.636809
0.564237
0.575603
0.36602
0.361624
0.64563
0.660902
0.375988
0.659684
0.362769
0.662813
0.391955
0.665891
0.373736
0.647209
0.673741
0.380499
0.529467
0.379519
0.67072
0.387598
0.568706
0.379084
0.465233
0.399041
0.559677
0.391225
0.65943
0.659513
0.573256
0.650294
0.351916
0.641575
0.659186
0.673273
0.561436
0.634481
0.36266
0.346103
0.37678
0.668933
0.271453
0.670178
0.51063
0.658336
0.673669
0.413549
0.664403
0.392506
0.375983
0.381883
0.470746
0.475434
0.659104
0.391574
0.38494
0.660469
0.357034
0.367991
0.512076
0.341225
0.375018
0.390326
0.685523
0.616978
0.573875
0.383898
0.638055
0.660974
0.369928
0.30362
0.657649
0.659648
0.529851
0.485375
0.389258
0.339745
0.389139
0.675833
0.58283
0.479818
0.645714
0.377601
0.526596
0.362341
0.659667
0.670624
0.361764
0.380617
0.590969
0.503894
0.672071
0.668129
0.670133
0.670739
0.673594
0.386561
0.417276
0.380059
0.361142
0.495221
0.659719
0.61885
0.357739
0.363565
0.412373
0.396569
0.659809
0.61336
0.396844
0.283736
0.662888
0.389737
0.6158
0.66589
0.635284
0.659146
0.507333
0.3621
0.369265
0.594908
0.36207
0.380954
0.361635
0.659378
0.6623
0.33852
0.359738
0.660839
0.389995
0.66199
0.66802
0.360416
0.400162
0.375401
0.662248
0.375579
0.661184
0.656481
0.560835
0.34786
0.498311
0.667681
0.654024
0.369013
0.650683
0.588473
0.426864
0.665519
0.695482
0.396972
0.377086
0.645052
0.39285
0.362024
0.645379
0.324959
0.659429
0.640409
0.664962
0.5947
0.670042
0.663145
0.659409
0.387797
0.387282
0.604064
0.65687
0.442082
0.671927
0.298041
0.665455
0.650797
0.529071
0.610148
0.347213
0.426176
0.655623
0.667713
0.60728
0.674302
0.661198
0.660451
0.679595
0.661005
0.675446
0.649256
0.677221
0.66082
0.659402
0.316104
0.644653
0.398853
0.665415
0.664344
0.66148
0.626086
0.652448
0.396685
0.393318
0.285172
0.367649
0.632182
0.369044
0.395371
0.647362
0.359714
0.658005
0.390042
0.646258
0.660779
0.383951
0.359391
0.410727
0.669059
0.385473
0.658486
0.662071
0.397238
0.642906
0.521182
0.323559
0.401805
0.362296
0.647662
0.374429
0.667651
0.469083
0.38054
0.659294
0.659201
0.670029
0.362578
0.533096
0.374045
0.638676
0.659541
0.664449
0.372417
0.655928
0.666999
0.619098
0.375608
0.668733
0.36287
0.369894
0.664028
0.420662
0.673387
0.354267
0.373985
0.417325
0.625544
0.397007
0.262899
0.391849
0.436776
0.659882
0.662031
0.378591
0.557231
0.661344
0.528146
0.380728
0.410681
0.523753
0.364322
0.356906
0.657316
0.375807
0.367156
0.674128
0.67477
0.376123
0.656137
0.388645
0.660275
0.403237
0.649791
0.659656
0.654144
0.6592
0.408335
0.361696
0.370175
0.659662
0.648165
0.559489
0.503457
0.349352
0.284588
0.659187
0.388998
0.659854
0.359721
0.65953
0.634118
0.371578
0.391741
0.362461
0.359933
0.394088
0.589998
0.633587
0.374759
0.662936
0.598746
0.376527
0.379043
0.672012
0.392646
0.660877
0.402911
0.654783
0.61633
0.662177
0.659832
0.402359
0.672093
0.664497
0.686244
0.385317
0.584932
0.565519
0.404812
0.670033
0.608508
0.702388
0.639734
0.673476
0.664124
0.680903
0.65925
0.658546
0.377405
0.668451
0.362049
0.418459
0.660695
0.371977
0.650712
0.590273
0.38252
0.619015
0.383393
0.40697
0.662414
0.575859
0.674975
0.396103
0.639851
0.581675
0.402904
0.381015
0.65872
0.660913
0.35357
0.397591
0.660173
0.673423
0.364843
0.603422
0.673389
0.620068
0.371237
0.363451
0.378919
0.617663
0.357886
0.650974
0.654717
0.659177
0.565566
0.661409
0.396577
0.653781
0.582556
0.673545
0.527663
0.380755
0.381686
0.381683
0.664172
0.663349
0.400773
0.613902
0.410227
0.613547
0.666052
0.379541
0.586661
0.651737
0.583143
0.382876
0.369218
0.410797
0.66553
0.673401
0.578925
0.484802
0.661878
0.373521
0.594719
0.660131
0.655997
0.383144
0.592816
0.383221
0.601274
0.384778
0.657103
0.663732
0.383268
0.665766
0.384542
0.660829
0.603059
0.661271
0.672761
0.377758
0.659101
0.659312
0.662636
0.657774
0.456311
0.660186
0.378056
0.659452
0.379887
0.37197
0.376548
0.39301
0.366388
0.380393
0.674465
0.34437
0.381698
0.622217
0.666117
0.636215
0.372033
0.649342
0.644534
0.659186
0.313964
0.542
0.663231
0.41825
0.398098
0.36423
0.589028
0.47943
0.359696
0.547411
0.371941
0.659953
0.472639
0.375707
0.444448
0.611246
0.412143
0.661266
0.376581
0.423774
0.350484
0.675956
0.356396
0.618637
0.660053
0.581133
0.379144
0.35774
0.676643
0.673733
0.400461
0.372378
0.659655
0.364114
0.660642
0.385621
0.52623
0.382026
0.663026
0.417023
0.674602
0.371992
0.666291
0.662443
0.668555
0.66034
0.377387
0.386614
0.372942
0.648926
0.646095
0.624018
0.478291
0.398501
0.663064
0.410638
0.645291
0.55748
0.358575
0.385405
0.667036
0.65717
0.376607
0.659586
0.682272
0.667523
0.666564
0.3767
0.597391
0.371934
0.667867
0.358066
0.659229
0.642158
0.675967
0.675871
0.377125
0.675835
0.388665
0.396385
0.661732
0.660278
0.508415
0.656067
0.660297
0.393649
0.656929
0.673008
0.681254
0.364117
0.397646
0.643577
0.368651
0.665737
0.670454
0.652431
0.676029
0.269072
0.41212
0.610626
0.383907
0.65178
0.670769
0.433584
0.660951
0.255723
0.596919
0.657593
0.637263
0.664962
0.36915
0.391824
0.659213
0.649273
0.391562
0.309406
0.413253
0.387289
0.381035
0.373796
0.402078
0.373293
0.658585
0.379667
0.372233
0.659268
0.506171
0.66081
0.369745
0.359848
0.661919
0.431156
0.431528
0.671971
0.344873
0.62162
0.659532
0.574956
0.642297
0.385216
0.662456
0.659492
0.399948
0.371749
0.360777
0.586515
0.573925
0.673285
0.660014
0.656603
0.645194
0.338472
0.663849
0.659461
0.664873
0.359543
0.66358
0.543396
0.332282
0.404563
0.376795
0.379164
0.375229
0.551481
0.630428
0.644907
0.357194
0.3667
0.673852
0.346458
0.661751
0.65934
0.652439
0.637023
0.66176
0.417535
0.376671
0.371496
0.525092
0.364341
0.660704
0.362008
0.661696
0.659476
0.663824
0.409276
0.414774
0.378361
0.661958
0.393168
0.365923
0.667964
0.642321
0.585226
0.659859
0.657372
0.660258
0.362931
0.590519
0.669856
0.500436
0.660895
0.663129
0.663696
0.434581
0.401174
0.68223
0.468935
0.573451
0.39078
0.622042
0.654206
0.368347
0.357918
0.63595
0.473825
0.668079
0.661622
0.373681
0.364711
0.659745
0.342745
0.370109
0.656801
0.658654
0.379346
0.656406
0.65985
0.627491
0.361649
0.552889
0.363548
0.66007
0.670468
0.660634
0.641578
0.659798
0.295133
0.32751
0.653504
0.394241
0.574959
0.38182
0.662808
0.376518
0.610315
0.669396
0.659864
0.375582
0.661194
0.660008
0.360549
0.622201
0.351383
0.684959
0.379533
0.370844
0.380717
0.647323
0.658577
0.303771
0.281048