# vtk DataFile Version 1.0
unstructured grid
ascii
DATASET UNSTRUCTURED_GRID
points 13672 float
0.0796578 -0.059106 0
0.00128732 0.00159165 0
0.00227961 -0.00102548 0
0.0791586 -0.0598787 0
-0.0546216 0.01 0
0.000495206 0.025 0
0.0800549 -0.035 0
0.135172 -0.08 0
-0.0546216 -0.0451168 0
0.000495206 -0.0301168 0
0.0800549 -0.0901168 0
0.135172 -0.135117 0
-0.0546216 -0.0451168 -0.00551168
0.000495206 -0.0301168 -0.00551168
0.0800549 -0.0901168 -0.00551168
0.135172 -0.135117 -0.00551168
0.135172 -0.08 -0.00551168
0.0800549 -0.035 -0.00551168
0.000495206 0.025 -0.00551168
-0.0546216 0.01 -0.00551168
0.00128732 0.00159165 -0.00551168
0.00227961 -0.00102548 -0.00551168
0.0791586 -0.0598787 -0.00551168
0.0796578 -0.059106 -0.00551168
0.00165953 -0.000990923 0
0.00119576 -0.000874076 0
0.000866021 -0.000641801 0
0.000645147 -0.000349912 0
0.00052235 -1.7281e-05 0
0.00049972 0.000348016 0
0.000601632 0.000737716 0
0.000861774 0.0011403 0
0.00157235 0.00183217 0
0.00188647 0.00206725 0
0.00222612 0.00230203 0
0.00258713 0.00254351 0
0.00296826 0.00279524 0
0.00337118 0.00305664 0
0.00379785 0.00332658 0
0.00425045 0.00360349 0
0.00473139 0.00388521 0
0.0052432 0.00416895 0
0.0057881 0.00445204 0
0.00636753 0.00473281 0
0.00698281 0.00500961 0
0.00763526 0.00528058 0
0.00832616 0.00554366 0
0.00905691 0.00579603 0
0.00982918 0.00603333 0
0.0106445 0.00625033 0
0.0115038 0.00644128 0
0.0124073 0.00660297 0
0.0133543 0.00673414 0
0.0143444 0.00683382 0
0.0153769 0.00690031 0
0.0164512 0.00693173 0
0.0175666 0.00692547 0
0.0187219 0.00687822 0
0.0199156 0.00678477 0
0.0211454 0.00663864 0
0.0224084 0.00643275 0
0.0237018 0.00616676 0
0.0250249 0.00584739 0
0.026375 0.00547298 0
0.0277479 0.00503752 0
0.0291386 0.00453545 0
0.0305433 0.0039653 0
0.0319572 0.0033256 0
0.0333681 0.00260019 0
0.034775 0.00179799 0
0.0361793 0.000930615 0
0.0375798 3.12222e-06 0
0.0389689 -0.000988429 0
0.0403357 -0.00205109 0
0.041675 -0.00318283 0
0.0429849 -0.00437751 0
0.0442643 -0.00562904 0
0.0455126 -0.00693089 0
0.0467314 -0.00827518 0
0.0479204 -0.00965638 0
0.0490661 -0.0110799 0
0.0501515 -0.0125519 0
0.0511696 -0.0140695 0
0.0521492 -0.0156071 0
0.0531202 -0.0171411 0
0.0540851 -0.0186663 0
0.0550431 -0.0201798 0
0.0559923 -0.0216793 0
0.0569311 -0.0231626 0
0.0578582 -0.0246273 0
0.0587723 -0.0260715 0
0.0596721 -0.027493 0
0.0605563 -0.02889 0
0.0614241 -0.0302609 0
0.0622742 -0.0316042 0
0.063106 -0.0329183 0
0.0639186 -0.034202 0
0.0647113 -0.0354543 0
0.0654835 -0.0366743 0
0.0662345 -0.0378613 0
0.0669642 -0.0390145 0
0.0676726 -0.0401333 0
0.0683597 -0.0412172 0
0.0690246 -0.0422665 0
0.0696662 -0.0432819 0
0.0702841 -0.0442636 0
0.0708793 -0.0452111 0
0.0714538 -0.0461237 0
0.072009 -0.047001 0
0.0725452 -0.0478434 0
0.0730611 -0.0486524 0
0.073556 -0.0494294 0
0.0740291 -0.0501756 0
0.0744812 -0.0508916 0
0.0749138 -0.0515773 0
0.0753285 -0.0522331 0
0.0757266 -0.0528592 0
0.076109 -0.0534564 0
0.0764753 -0.0540264 0
0.0768243 -0.054571 0
0.0771553 -0.0550919 0
0.0774679 -0.0555901 0
0.0777617 -0.0560669 0
0.0780369 -0.056523 0
0.0782958 -0.0569578 0
0.0785421 -0.0573703 0
0.0787786 -0.0577603 0
0.0790073 -0.0581279 0
0.0792295 -0.058474 0
0.0794462 -0.0587995 0
0.0798803 -0.0594162 0
0.0800272 -0.0596588 0
0.0800357 -0.0598891 0
0.0799275 -0.0600784 0
0.0797205 -0.0601773 0
0.0794593 -0.0601051 0
0.0789155 -0.0596491 0
0.0786707 -0.0593963 0
0.0784111 -0.0591319 0
0.0781372 -0.0588542 0
0.0778566 -0.0585548 0
0.0775715 -0.0582308 0
0.0772803 -0.0578828 0
0.0769832 -0.0575099 0
0.0766822 -0.0571097 0
0.0763801 -0.0566796 0
0.0760759 -0.0562196 0
0.0757623 -0.0557337 0
0.0754359 -0.0552232 0
0.0750951 -0.0546879 0
0.0747379 -0.054128 0
0.0743626 -0.0535435 0
0.0739688 -0.0529338 0
0.0735559 -0.0522981 0
0.0731238 -0.0516357 0
0.0726718 -0.050946 0
0.0721991 -0.0502288 0
0.0717046 -0.049484 0
0.0711872 -0.0487117 0
0.0706461 -0.047912 0
0.0700804 -0.0470849 0
0.0694892 -0.0462308 0
0.0688718 -0.0453499 0
0.0682271 -0.0444431 0
0.0675544 -0.043511 0
0.0668527 -0.0425546 0
0.0661215 -0.0415748 0
0.06536 -0.040573 0
0.0645676 -0.0395504 0
0.0637439 -0.0385087 0
0.0628887 -0.0374493 0
0.062002 -0.0363741 0
0.0610838 -0.0352847 0
0.0601345 -0.0341831 0
0.0591547 -0.033071 0
0.0581456 -0.0319502 0
0.0571083 -0.0308224 0
0.0560444 -0.0296893 0
0.0549562 -0.028552 0
0.053845 -0.0274126 0
0.0527113 -0.0262746 0
0.051554 -0.0251427 0
0.0503724 -0.0240222 0
0.0491675 -0.0229164 0
0.047941 -0.0218282 0
0.0466955 -0.0207597 0
0.0454337 -0.0197126 0
0.0441592 -0.0186878 0
0.0428751 -0.0176863 0
0.0415841 -0.0167097 0
0.0402878 -0.0157609 0
0.0389879 -0.0148428 0
0.0376864 -0.0139575 0
0.0363853 -0.013107 0
0.0350871 -0.0122931 0
0.0337942 -0.0115164 0
0.0325095 -0.0107772 0
0.0312357 -0.0100756 0
0.0299758 -0.00941024 0
0.0287337 -0.00877784 0
0.0275126 -0.00817571 0
0.0263139 -0.00760375 0
0.0251376 -0.00706528 0
0.0239829 -0.0065649 0
0.0228537 -0.00609619 0
0.0217522 -0.00565563 0
0.0206795 -0.00524226 0
0.0196364 -0.00485507 0
0.0186233 -0.00449318 0
0.0176408 -0.00415577 0
0.016689 -0.00384204 0
0.0157682 -0.00355115 0
0.0148783 -0.00328218 0
0.0140192 -0.00303468 0
0.0131906 -0.00280795 0
0.0123925 -0.00260016 0
0.0116246 -0.00241012 0
0.0108864 -0.00223769 0
0.0101774 -0.00208212 0
0.00949701 -0.00194206 0
0.00884483 -0.0018163 0
0.0082202 -0.0017039 0
0.00762247 -0.00160391 0
0.00705097 -0.00151528 0
0.006505 -0.00143697 0
0.0059838 -0.00136806 0
0.00548662 -0.00130772 0
0.00501265 -0.00125519 0
0.00456114 -0.00120954 0
0.00413136 -0.00116914 0
0.00372257 -0.00113251 0
0.00333398 -0.00109853 0
0.00296466 -0.00106798 0
0.00261363 -0.0010431 0
-0.052721 -0.0445996 0
-0.0508204 -0.0440823 0
-0.0489199 -0.0435651 0
-0.0470193 -0.0430478 0
-0.0451187 -0.0425306 0
-0.0432181 -0.0420134 0
-0.0413175 -0.0414961 0
-0.039417 -0.0409789 0
-0.0375164 -0.0404616 0
-0.0356158 -0.0399444 0
-0.0337152 -0.0394271 0
-0.0318146 -0.0389099 0
-0.0299141 -0.0383927 0
-0.0280135 -0.0378754 0
-0.0261129 -0.0373582 0
-0.0242123 -0.0368409 0
-0.0223117 -0.0363237 0
-0.0204112 -0.0358065 0
-0.0185106 -0.0352892 0
-0.01661 -0.034772 0
-0.0147094 -0.0342547 0
-0.0128088 -0.0337375 0
-0.0109083 -0.0332202 0
-0.00900769 -0.032703 0
-0.00710711 -0.0321858 0
-0.00520653 -0.0316685 0
-0.00330595 -0.0311513 0
-0.00140537 -0.030634 0
0.00190689 -0.0299614 0
0.00332271 -0.0298498 0
0.00474133 -0.0297825 0
0.00616136 -0.0297597 0
0.0075814 -0.0297814 0
0.00900007 -0.0298477 0
0.010416 -0.0299583 0
0.0118278 -0.0301127 0
0.0132342 -0.0303103 0
0.0146339 -0.0305504 0
0.0160259 -0.0308322 0
0.0174091 -0.0311546 0
0.0187824 -0.0315166 0
0.020145 -0.031917 0
0.0214961 -0.0323546 0
0.0228351 -0.032828 0
0.0241613 -0.0333361 0
0.0254744 -0.0338774 0
0.0267738 -0.0344507 0
0.0280592 -0.0350545 0
0.0293306 -0.0356877 0
0.0305875 -0.0363488 0
0.0318301 -0.0370367 0
0.0330581 -0.0377501 0
0.0342717 -0.0384879 0
0.0354708 -0.0392489 0
0.0366556 -0.0400321 0
0.0378262 -0.0408363 0
0.0389828 -0.0416607 0
0.0401254 -0.0425042 0
0.0412543 -0.0433659 0
0.0423698 -0.0442451 0
0.043472 -0.0451408 0
0.0445612 -0.0460523 0
0.0456375 -0.0469789 0
0.0467013 -0.0479199 0
0.0477529 -0.0488746 0
0.0487923 -0.0498424 0
0.04982 -0.0508227 0
0.0508362 -0.051815 0
0.051841 -0.0528187 0
0.0528348 -0.0538333 0
0.0538178 -0.0548584 0
0.0547903 -0.0558935 0
0.0557524 -0.0569382 0
0.0567045 -0.0579922 0
0.0576467 -0.0590549 0
0.0585792 -0.0601261 0
0.0595024 -0.0612055 0
0.0604163 -0.0622926 0
0.0613212 -0.0633873 0
0.0622174 -0.0644891 0
0.0631049 -0.0655979 0
0.0639841 -0.0667134 0
0.064855 -0.0678353 0
0.0657179 -0.0689633 0
0.0665729 -0.0700974 0
0.0674202 -0.0712372 0
0.06826 -0.0723826 0
0.0690925 -0.0735333 0
0.0699178 -0.0746892 0
0.070736 -0.0758501 0
0.0715473 -0.0770159 0
0.0723518 -0.0781863 0
0.0731498 -0.0793612 0
0.0739412 -0.0805405 0
0.0747264 -0.081724 0
0.0755053 -0.0829116 0
0.0762781 -0.0841033 0
0.0770449 -0.0852987 0
0.0778059 -0.0864979 0
0.0785611 -0.0877007 0
0.0793108 -0.088907 0
0.0814681 -0.0912706 0
0.0828814 -0.0924245 0
0.0842946 -0.0935783 0
0.0857079 -0.0947322 0
0.0871211 -0.095886 0
0.0885344 -0.0970399 0
0.0899476 -0.0981937 0
0.0913609 -0.0993476 0
0.0927741 -0.100501 0
0.0941874 -0.101655 0
0.0956006 -0.102809 0
0.0970139 -0.103963 0
0.0984272 -0.105117 0
0.0998404 -0.106271 0
0.101254 -0.107424 0
0.102667 -0.108578 0
0.10408 -0.109732 0
0.105493 -0.110886 0
0.106907 -0.11204 0
0.10832 -0.113194 0
0.109733 -0.114348 0
0.111146 -0.115501 0
0.11256 -0.116655 0
0.113973 -0.117809 0
0.115386 -0.118963 0
0.116799 -0.120117 0
0.118213 -0.121271 0
0.119626 -0.122424 0
0.121039 -0.123578 0
0.122452 -0.124732 0
0.123866 -0.125886 0
0.125279 -0.12704 0
0.126692 -0.128194 0
0.128105 -0.129348 0
0.129519 -0.130501 0
0.130932 -0.131655 0
0.132345 -0.132809 0
0.133758 -0.133963 0
0.135172 -0.133216 0
0.135172 -0.131316 0
0.135172 -0.129415 0
0.135172 -0.127514 0
0.135172 -0.125614 0
0.135172 -0.123713 0
0.135172 -0.121813 0
0.135172 -0.119912 0
0.135172 -0.118012 0
0.135172 -0.116111 0
0.135172 -0.11421 0
0.135172 -0.11231 0
0.135172 -0.110409 0
0.135172 -0.108509 0
0.135172 -0.106608 0
0.135172 -0.104708 0
0.135172 -0.102807 0
0.135172 -0.100906 0
0.135172 -0.0990058 0
0.135172 -0.0971052 0
0.135172 -0.0952046 0
0.135172 -0.0933041 0
0.135172 -0.0914035 0
0.135172 -0.0895029 0
0.135172 -0.0876023 0
0.135172 -0.0857017 0
0.135172 -0.0838012 0
0.135172 -0.0819006 0
0.133758 -0.0788462 0
0.132345 -0.0776923 0
0.130932 -0.0765385 0
0.129519 -0.0753846 0
0.128105 -0.0742308 0
0.126692 -0.0730769 0
0.125279 -0.0719231 0
0.123866 -0.0707692 0
0.122452 -0.0696154 0
0.121039 -0.0684615 0
0.119626 -0.0673077 0
0.118213 -0.0661538 0
0.116799 -0.065 0
0.115386 -0.0638462 0
0.113973 -0.0626923 0
0.11256 -0.0615385 0
0.111146 -0.0603846 0
0.109733 -0.0592308 0
0.10832 -0.0580769 0
0.106907 -0.0569231 0
0.105493 -0.0557692 0
0.10408 -0.0546154 0
0.102667 -0.0534615 0
0.101254 -0.0523077 0
0.0998404 -0.0511538 0
0.0984272 -0.05 0
0.0970139 -0.0488462 0
0.0956006 -0.0476923 0
[...]
CELL_DATA 13116
SCALARS rho float
LOOKUP_TABLE default
0.543139
0.657914
0.408509
0.707053
0.698396
0.673703
0.372915
0.704765
0.5207
0.703906
0.388528
0.363149
0.698627
0.387759
0.368391
0.673922
0.509111
0.69641
0.675677
0.369964
0.548795
0.389641
0.397968
0.698444
0.603219
0.640604
0.703977
0.423415
0.592745
0.643656
0.668636
0.382345
0.549553
0.442857
0.3759
0.546153
0.66285
0.671914
0.671659
0.681855
0.675033
0.707761
0.418552
0.404299
0.674897
0.67569
0.635021
0.679808
0.369105
0.516276
0.696967
0.436224
0.37837
0.501264
0.548604
0.580011
0.404106
0.694321
0.52927
0.370357
0.390439
0.70412
0.648236
0.671421
0.669352
0.395703
0.680236
0.670345
0.682107
0.669707
0.370904
0.575517
0.396045
0.399571
0.667426
0.390688
0.640316
0.692665
0.369302
0.693617
0.676647
0.643098
0.698412
0.680343
0.66773
0.440825
0.378837
0.66752
0.664863
0.378462
0.37104
0.659728
0.700558
0.672632
0.646806
0.594414
0.60607
0.668277
0.667859
0.589306
0.676398
0.585042
0.67514
0.394183
0.61772
0.395038
0.351612
0.465891
0.412723
0.603079
0.495327
0.634021
0.592459
0.680678
0.694358
0.68104
0.385479
0.378456
0.688756
0.68358
0.670933
0.39033
0.68272
0.392227
0.668145
0.431486
0.380461
0.501738
0.408521
0.517518
0.688981
0.681941
0.492061
0.37796
0.473214
0.579805
0.665026
0.686302
0.675213
0.683326
0.623314
0.638515
0.500588
0.624212
0.642935
0.382248
0.384555
0.634781
0.696278
0.693512
0.533166
0.679573
0.679539
0.401226
0.700484
0.669122
0.400595
0.682421
0.668353
0.667741
0.697628
0.375378
0.695945
0.400595
0.390298
0.702264
0.664149
0.695814
0.375075
0.456464
0.413371
0.665091
0.374796
0.485928
0.679602
0.399142
0.385822
0.395983
0.62968
0.672699
0.373304
0.424099
0.516237
0.663449
0.672971
0.527257
0.394843
0.675289
0.605646
0.45558
0.63362
0.632261
0.670113
0.404672
0.625093
0.673243
0.701755
0.675207
0.66327
0.400036
0.393609
0.609161
0.496197
0.397541
0.690882
0.675897
0.445194
0.605101
0.388688
0.388873
0.391309
0.677232
0.400597
0.365807
0.373179
0.400348
0.356413
0.671177
0.664932
0.428685
0.402387
0.679767
0.488788
0.372894
0.54267
0.703757
0.640361
0.426951
0.679764
0.384052
0.717739
0.373108
0.669689
0.565083
0.667932
0.675336
0.67038
0.36484
0.423393
0.667284
0.6671
0.672953
0.66544
0.670204
0.698587
0.38848
0.691099
0.70096
0.668
0.403632
0.37135
0.677121
0.68789
0.669316
0.684123
0.528252
0.68446
0.388875
0.388216
0.385322
0.389618
0.599857
0.701553
0.639107
0.372168
0.674035
0.392591
0.424832
0.619925
0.39991
0.640226
0.70115
0.666614
0.693939
0.367641
0.66653
0.682152
0.668065
0.686114
0.364654
0.377439
0.405125
0.574703
0.397765
0.377727
0.325662
0.290287
0.666435
0.380456
0.669212
0.698946
0.384531
0.372848
0.391024
0.446003
0.421844
0.666064
0.582504
0.6264
0.399083
0.676805
0.573981
0.391959
0.368492
0.672189
0.687795
0.674975
0.392131
0.673555
0.407503
0.681147
0.706836
0.691199
0.705555
0.407398
0.67946
0.389049
0.674951
0.703429
0.664568
0.369756
0.325304
0.701359
0.389939
0.650098
0.70398
0.35854
0.68744
0.698089
0.384973
0.673831
0.700733
0.3795
0.690618
0.441138
0.562146
0.691148
0.448137
0.683026
0.372692
0.696415
0.33738
0.670579
0.57768
0.7027
0.42444
0.349511
0.668976
0.402003
0.689787
0.612527
0.413964
0.66507
0.398443
0.406049
0.686882
0.543823
0.66857
0.378921
0.40038
0.690913
0.698757
0.385591
0.697462
0.38919
0.393665
0.681313
0.692979
0.449419
0.369607
0.686346
0.668973
0.673961
0.673045
0.692701
0.53315
0.322476
0.387013
0.372438
0.673732
0.372171
0.514046
0.361834
0.387449
0.343475
0.460642
0.140526
0.401693
0.669627
0.320596
0.696667
0.595337
0.676824
0.658782
0.69182
0.406256
0.375482
0.404606
0.328618
0.68687
0.587947
0.675558
0.594463
0.644562
0.616946
0.640743
0.619039
0.640603
0.691085
0.693138
0.672955
0.390955
0.452919
0.538908
0.397437
0.578711
0.578767
0.380028
0.680435
0.666792
0.409089
0.366158
0.385777
0.394519
0.617902
0.386381
0.404701
0.678204
0.396752
0.565085
0.388807
0.673683
0.67584
0.432475
0.380079
0.686385
0.447331
0.390313
0.395012
0.365163
0.412576
0.379016
0.366719
0.384673
0.424714
0.387329
0.581599
0.376288
0.66762
0.376855
0.427239
0.493884
0.388682
0.377045
0.385358
0.677658
0.43132
0.631822
0.467736
0.395827
0.607798
0.666968
0.440232
0.68693
0.618255
0.616675
0.379245
0.667976
0.381037
0.694081
0.668464
0.404939
0.385773
0.60387
0.334165
0.450132
0.580881
0.350335
0.681096
0.645906
0.375598
0.383371
0.375941
0.481155
0.367945
0.380581
0.372543
0.38969
0.705176
0.705236
0.453053
0.592877
0.472332
0.624125
0.34167
0.399429
0.525688
0.40561
0.680814
0.287679
0.363916
0.487975
0.674479
0.659162
0.549733
0.357476
0.384999
0.558152
0.704449
0.670158
0.554315
0.621944
0.598428
0.384548
0.674806
0.560319
0.665902
0.299834
0.419594
0.679607
0.702289
0.65755
0.704257
0.657363
0.642664
0.696458
0.6654
0.676508
0.366913
0.674356
0.333265
0.38724
0.367535
0.705185
0.676282
0.302913
0.667006
0.608868
0.370031
0.670819
0.686986
0.687689
0.42341
0.398645
0.691028
0.39029
0.368582
0.36953
0.385637
0.678662
0.3814
0.704453
0.380895
0.65873
0.695446
0.68036
0.69897
0.390942
0.370748
0.678226
0.719392
0.652401
0.704931
0.700756
0.489516
0.383587
0.408912
0.675179
0.52259
0.381143
0.44645
0.382267
0.685068
0.67643
0.300191
0.388811
0.665448
0.459537
0.670234
0.651907
0.407101
0.384782
0.648046
0.666891
0.402725
0.657343
0.664115
0.677434
0.395353
0.66545
0.402626
0.667764
0.664352
0.369192
0.354806
0.37918
0.667961
0.412516
0.372169
0.379372
0.671221
0.685114
0.371371
0.381631
0.386158
0.671187
0.396781
0.673041
0.382368
0.579733
0.703888
0.379829
0.40005
0.399035
0.489921
0.413567
0.649885
0.393863
0.398009
0.672873
0.380519
0.676663
0.646152
0.668059
0.362367
0.681449
0.699093
0.701372
0.675758
0.675367
0.680889
0.38017
0.669948
0.43092
0.675276
0.363737
0.699185
0.501122
0.373627
0.669061
0.694538
0.401107
0.622277
0.370073
0.372105
0.677948
0.677177
0.368217
0.380954
0.370617
0.387965
0.68365
0.698314
0.397855
0.377653
0.689783
0.686104
0.581718
0.698453
0.676018
0.379648
0.70295
0.419486
0.696704
0.379499
0.591968
0.474804
0.678915
0.669896
0.566351
0.332902
0.422325
0.675598
0.592465
0.507903
0.697927
0.390183
0.679861
0.700111
0.360279
0.450476
0.699422
0.354729
0.669406
0.66842
0.320998
0.685498
0.644899
0.400046
0.683913
0.404128
0.660778
0.400777
0.67681
0.646405
0.421802
0.671579
0.696435
0.692069
0.610125
0.676318
0.572454
0.345589
0.410138
0.357306
0.398094
0.664394
0.545686
0.68382
0.695625
0.365855
0.37459
0.680372
0.70446
0.686978
0.701383
0.363942
0.693193
0.700754
0.367031
0.370817
0.689018
0.676891
0.664349
0.387204
0.579948
0.440362
0.683031
0.644126
0.670249
0.665681
0.384593
0.675197
0.668862
0.699953
0.67645
0.674729
0.427071
0.692277
0.389527
0.620613
0.702267
0.456295
0.647398
0.670487
0.694895
0.395232
0.393654
0.573454
0.649704
0.38275
0.37264
0.400327
0.39053
0.66046
0.679447
0.670226
0.291408
0.390034
0.681839
0.681833
0.381212
0.369084
0.458248
0.661422
0.675377
0.672572
0.689742
0.386864
0.38221
0.665675
0.389039
0.364884
0.394466
0.67396
0.44117
0.386139
0.572509
0.676861
0.629403
0.672601
0.674854
0.387952
0.376315
0.397648
0.466441
0.430848
0.373426
0.668784
0.689459
0.659843
0.677078
0.398201
0.363933
0.704064
0.372173
0.674383
0.645878
0.668678
0.368265
0.36394
0.655119
0.668826
0.555113
0.379304
0.669576
0.67298
0.567771
0.693596
0.701298
0.66606
0.622171
0.365382
0.674785
0.669174
0.611614
0.683546
0.664481
0.635484
0.666224
0.685096
0.398711
0.390443
0.365301
0.668971
0.499322
0.374473
0.680078
0.690478
0.357049
0.630298
0.446071
0.635471
0.459477
0.369905
0.704466
0.697711
0.38181
0.541196
0.669009
0.401986
0.672577
0.395246
0.394428
0.612496
0.601798
0.493928
0.675324
0.400312
0.695738
0.39234
0.380139
0.676424
0.380142
0.599277
0.38541
0.629254
0.592823
0.66606
0.661415
0.383364
0.397558
0.605598
0.419926
0.686639
0.45305
0.58703
0.673604
0.699773
0.43476
0.600098
0.628234
0.702058
0.681543
0.340898
0.368858
0.531582
0.626716
0.7024
0.363009
0.675059
0.557094
0.403966
0.373581
0.666668
0.662397
0.665742
0.667772
0.586165
0.681199
0.671819
0.670503
0.383331
0.657127
0.455796
0.686903
0.676239
0.290475
0.66203
0.696712
0.397968
0.371138
0.388718
0.664528
0.375998
0.612432
0.688758
0.657758
0.344539
0.669186
0.396657
0.579221
0.67117
0.669881
0.666938
0.671115
0.61452
0.675263
0.519129
0.674789
0.401263
0.673739
0.680115
0.400195
0.666715
0.680755
0.405144
0.38568
0.404567
0.691673
0.380417
0.66656
0.397597
0.704048
0.385828
0.475255
0.38614
0.693508
0.700178
0.526185
0.264555
0.614472
0.671326
0.386231
0.581289
0.705408
0.372911
0.582631
0.668407
0.703461
0.674852
0.403244
0.463181
0.688499
0.6763
0.622112
0.375827
0.390302
0.671205
0.6654
0.666868
0.665229
0.542739
0.682334
0.53769
0.684028
0.377044
0.39711
0.665348
0.697198
0.671371
0.396299
0.67397
0.550685
0.594994
0.395686
0.411816
0.697905
0.713821
0.549458
0.330747
0.676692
0.667004
0.3745
0.604523
0.689518
0.374372
0.423032
0.385991
0.605701
0.388505
0.365405
0.673139
0.46044
0.702863
0.63651
0.373125
0.37988
0.70403
0.392829
0.389615
0.668802
0.391795
0.343201
0.586757
0.671813
0.681777
0.394037
0.312356
0.399716
0.6476
0.394359
0.682425
0.37464
0.680895
0.639866
0.674159
0.628859
0.673896
0.641916
0.675453
0.698561
0.685128
0.380469
0.395848
0.66632
0.671935
0.499835
0.617416
0.552865
0.671567
0.609935
0.430886
0.682234
0.704957
0.672719
0.403977
0.676117
0.40178
0.68047
0.492741
0.694093
0.675975
0.369457
0.686948
0.386867
0.422752
0.649588
0.393412
0.682887
0.664571
0.692645
0.396506
0.678044
0.388773
0.368091
0.386441
0.371382
0.60154
0.375793
0.627073
0.670641
0.33389
0.404965
0.483234
0.570775
0.629283
0.624225
0.361795
0.392023
0.386233
0.386224
0.261366
0.628821
0.639736
0.426749
0.670621
0.688237
0.386239
0.704477
0.680986
0.670827
0.40221
0.667485
0.674874
0.692346
0.68767
0.365653
0.683195
0.693916
0.676708
0.665837
0.672256
0.373811
0.393672
0.679663
0.529755
0.365795
0.675943
0.400113
0.56148
0.622087
0.658588
0.662365
0.369138
0.615404
0.388396
0.403735
0.688585
0.691592
0.696743
0.690313
0.654241
0.368497
0.699996
0.377466
0.498796
0.701717
0.667804
0.687941
0.403875
0.384748
0.701648
0.384049
0.690328
0.643205
0.423312
0.370412
0.681751
0.387675
0.675893
0.689858
0.650781
0.387332
0.390926
0.498034
0.511808
0.616848
0.466629
0.673089
0.6243
0.670085
0.664243
0.681926
0.381008
0.376902
0.692312
0.672184
0.618653
0.456249
0.397595
0.671737
0.378688
0.676131
0.604599
0.316978
0.686386
0.36849
0.659446
0.408293
0.697301
0.367259
0.679848
0.67236
0.334297
0.670263
0.649488
0.322644
0.670131
0.675304
0.551242
0.387955
0.354069
0.460698
0.699608
0.601409
0.369596
0.57533
0.684515
0.672845
0.335034
0.604602
0.664015
0.459084
0.673013
0.675137
0.288188
0.684357
0.668284
0.407111
0.593487
0.392871
0.633086
0.399252
0.394339
0.701869
0.364915
0.385696
0.38391
0.679308
0.655129
0.394274
0.67677
0.349677
0.660103
0.387683
0.658931
0.362065
0.673938
0.680011
0.641806
0.670042
0.545054
0.672321
0.670799
0.41756
0.632535
0.64752
0.475794
0.681289
0.488692
0.397078
0.699727
0.381936
0.56513
0.449068
0.675421
0.38049
0.404104
0.69793
0.675358
0.373131
0.685242
0.689763
0.664472
0.701075
0.667736
0.364863
0.70346
0.365426
0.400756
0.667569
0.690785
0.707086
0.66766
0.376133
0.40008
0.394824
0.659444
0.670483
0.352288
0.681586
0.394509
0.39944
0.392273
0.667254
0.380008
0.701608
0.685645
0.631163
0.676463
0.684309
0.56871
0.634722
0.431443
0.396046
0.370573
0.667706
0.667419
0.396346
0.628312
0.602527
0.636596
0.403459
0.392288
0.628239
0.275058
0.621064
0.589397
0.365163
0.671556
0.662297
0.372409
0.681072
0.38565
0.683443
0.703139
0.674384
0.380007
0.467729
0.681843
0.298031
0.440448
0.675689
0.305904
0.671852
0.681276
0.639114
0.690239
0.329695
0.668926
0.687884
0.676103
0.36011
0.692467
0.393276
0.387506
0.668614
0.675716
0.670432
0.233516
0.676564
0.630018
0.667375
0.393206
0.386675
0.39014
0.688501
0.374079
0.377834
0.399448
0.587251
0.376924
0.289347
0.440483
0.682267
0.369657
0.670042
0.67107
0.680693
0.395049
0.682742
0.65495
0.670588
0.41361
0.66474
0.385064
0.381625
0.677689
0.373164
0.62382
0.683397
0.665901
0.366227
0.325797
0.401744
0.552872
0.665385
0.231766
0.672615
0.678961
0.691406
0.385055
0.378999
0.340897
0.60069
0.389065
0.664333
0.59664
0.671439
0.672059
0.36568
0.624163
0.380678
0.557527
0.645554
0.704405
0.564846
0.468648
0.667168
0.622759
0.693296
0.392716
0.370527
0.399363
0.693455
0.528846
0.667815
0.366085
0.394183
0.692797
0.682568
0.669572
0.371281
0.681871
0.551141
0.554292
0.604203
0.411607
0.369761
0.287677
0.675867
0.670712
0.663745
0.621642
0.339597
0.694455
0.659184
0.670778
0.670332
0.692836
0.704853
0.673284
0.689005
0.696271
0.404509
0.684325
0.691445
0.6732
0.686588
0.675545
0.573456
0.368705
0.397143
0.615422
0.368269
0.331689
0.681337
0.379606
0.631553
0.681098
0.655536
0.673438
0.406046
0.683563
0.383448
0.396172
0.673646
0.681375
0.677328
0.393266
0.696404
0.675469
0.612819
0.674946
0.396161
0.672822
0.702044
0.66279
0.399755
0.695341
0.401486
0.710171
0.394104
0.368863
0.515384
0.444831
0.704422
0.695065
0.67467
0.399303
0.672594
0.396434
0.375254
0.652403
0.487162
0.376275
0.67502
0.3755
0.508508
0.66907
0.634581
0.661074
0.485764
0.587856
0.657262
0.674476
0.570485
0.696623
0.528445
0.717323
0.617539
0.648346
0.39677
0.369383
0.444546
0.690366
0.404446
0.666248
0.686026
0.601276
0.674753
0.51278
0.682899
0.672134
0.402521
0.684359
0.610454
0.481394
0.614005
0.701112
0.651254
0.672122
0.385048
0.397521
0.676185
0.532036
0.540064
0.685992
0.68012
0.6775
0.702074
0.703246
0.619697
0.621508
0.704153
0.379294
0.38165
0.381288
0.353432
0.666658
0.456038
0.533534
0.686018
0.677427
0.40247
0.674562
0.706215
0.394773
0.370031
0.666852
0.686211
0.413075
0.367873
0.372459
0.664268
0.639367
0.404231
0.381345
0.366122
0.391916
0.340052
0.369166
0.71612
0.680049
0.678462
0.395387
0.656675
0.604444
0.601793
0.317713
0.366171
0.650589
0.665221
0.38743
0.673576
0.372251
0.69798
0.405222
0.68012
0.386349
0.660608
0.698888
0.396537
0.555925
0.370908
0.703746
0.393533
0.60847
0.398269
0.503175
0.392027
0.59927
0.385203
0.6698
0.670111
0.60004
0.672789
0.316113
0.659311
0.671493
0.697481
0.601891
0.661006
0.367585
0.384268
0.397331
0.700824
0.287239
0.696396
0.540387
0.69056
0.703284
0.454096
0.691921
0.374852
0.395081
0.376992
0.507156
0.512942
0.679455
0.397343
0.377511
0.675792
0.37724
0.38541
0.548876
0.363452
0.387625
0.398078
0.709331
0.651681
0.613309
0.398141
0.655951
0.676414
0.397406
0.321044
0.668989
0.67451
0.561315
0.511494
0.41111
0.359346
0.400565
0.683081
0.610899
0.520274
0.686078
0.384533
0.56789
0.36959
0.669239
0.696262
0.366647
0.386597
0.61796
0.541123
0.698617
0.69614
0.69972
0.686859
0.701867
0.397972
0.396477
0.400206
0.363723
0.534785
0.668568
0.653812
0.363292
0.36336
0.449773
0.423176
0.677546
0.633433
0.377771
0.299425
0.68093
0.403855
0.655881
0.694679
0.65047
0.672523
0.5478
0.369125
0.386088
0.615677
0.366487
0.415989
0.393349
0.671803
0.677335
0.322959
0.366369
0.665065
0.386374
0.677767
0.700686
0.367832
0.3999
0.386227
0.680735
0.385165
0.664529
0.684301
0.60192
0.363398
0.525098
0.692078
0.670246
0.372814
0.667581
0.617692
0.43528
0.688334
0.720673
0.403438
0.362103
0.654088
0.392485
0.363299
0.663314
0.343566
0.678646
0.682957
0.69998
0.625395
0.697011
0.680555
0.67219
0.382923
0.409545
0.629418
0.678917
0.467499
0.704341
0.316754
0.684663
0.662656
0.567527
0.650871
0.385136
0.454939
0.675379
0.693648
0.613908
0.699243
0.678507
0.666122
0.700419
0.664716
0.676108
0.655099
0.688287
0.665423
0.672391
0.338463
0.646132
0.416542
0.681276
0.684363
0.691336
0.640483
0.689898
0.395706
0.401933
0.302332
0.371736
0.648208
0.378879
0.402591
0.678052
0.386857
0.688296
0.401252
0.663532
0.683619
0.364282
0.379788
0.31937
0.688923
0.40175
0.678653
0.686643
0.400578
0.64777
0.550458
0.345468
0.421135
0.38904
0.690842
0.362929
0.683361
0.509042
0.362785
0.675053
0.675373
0.699848
0.372916
0.574075
0.391959
0.658693
0.672353
0.681119
0.386113
0.677913
0.686103
0.6272
0.402236
0.688773
0.37244
0.385398
0.676424
0.451488
0.702935
0.395178
0.386461
0.442086
0.635449
0.414743
0.28157
0.399378
0.477168
0.667791
0.68572
0.386608
0.597854
0.67923
0.554272
0.417054
0.31215
0.552832
0.376206
0.367997
0.675144
0.386522
0.380443
0.693067
0.70658
0.393402
0.695331
0.39654
0.666585
0.426528
0.654639
0.669835
0.691331
0.671293
0.401639
0.380108
0.389122
0.673072
0.656338
0.585287
0.538898
0.369275
0.301121
0.673568
0.387359
0.67916
0.380471
0.669952
0.671943
0.389677
0.405618
0.385222
0.366358
0.409308
0.616479
0.650767
0.386665
0.683639
0.639059
0.345123
0.375872
0.705529
0.373562
0.682929
0.426072
0.690634
0.657152
0.682499
0.668089
0.388527
0.703085
0.679595
0.711876
0.36532
0.608024
0.592027
0.325731
0.690299
0.638166
0.714869
0.656886
0.701934
0.675592
0.705039
0.673473
0.675428
0.364467
0.699219
0.385704
0.457496
0.675348
0.39111
0.665168
0.607719
0.37474
0.628351
0.364033
0.371871
0.670825
0.597273
0.70617
0.39457
0.656582
0.617647
0.427046
0.392033
0.658147
0.676311
0.374832
0.39887
0.688239
0.705482
0.362131
0.643758
0.699782
0.653352
0.39091
0.372551
0.379259
0.658684
0.364353
0.668285
0.693606
0.673766
0.604545
0.683714
0.393519
0.664136
0.609601
0.698709
0.56145
0.399587
0.373859
0.391806
0.698395
0.687725
0.423651
0.654764
0.305276
0.643772
0.683041
0.390128
0.616389
0.669289
0.623885
0.39478
0.375854
0.339063
0.68939
0.702739
0.614715
0.511061
0.683063
0.388896
0.635369
0.66689
0.678234
0.396864
0.620294
0.375196
0.615676
0.393506
0.677231
0.671441
0.397961
0.688852
0.422837
0.665325
0.640045
0.664296
0.690259
0.410331
0.673215
0.67579
0.677898
0.678105
0.481912
0.666802
0.384183
0.67635
0.389647
0.3689
0.383182
0.407702
0.381538
0.393889
0.70224
0.364171
0.376368
0.659237
0.689378
0.653204
0.403318
0.685671
0.685137
0.672186
0.316863
0.5764
0.68022
0.385855
0.399997
0.381202
0.62972
0.505526
0.365829
0.584328
0.399567
0.668059
0.498763
0.381935
0.471147
0.652203
0.32719
0.676721
0.382366
0.463361
0.37171
0.685033
0.379708
0.652757
0.667061
0.593035
0.415181
0.372748
0.68142
0.704865
0.398892
0.368056
0.673417
0.365756
0.694873
0.39519
0.554207
0.392515
0.680334
0.396731
0.703893
0.369095
0.682966
0.6844
0.694385
0.666596
0.387661
0.401316
0.404112
0.644587
0.67712
0.63384
0.515709
0.38017
0.690443
0.31511
0.653637
0.582475
0.395784
0.370346
0.696281
0.676755
0.395313
0.668994
0.687472
0.695757
0.700228
0.381728
0.63808
0.386782
0.695597
0.363373
0.670674
0.648226
0.670719
0.704717
0.350259
0.710393
0.367069
0.403715
0.677409
0.666804
0.547591
0.676871
0.666618
0.379315
0.696817
0.681101
0.703524
0.36933
0.424704
0.681501
0.380481
0.685352
0.686266
0.667702
0.686949
0.284703
0.448017
0.651317
0.397886
0.662805
0.704435
0.470556
0.667961
0.268199
0.617935
0.6971
0.679634
0.670051
0.37418
0.407745
0.679858
0.665748
0.377037
0.321032
0.404125
0.400007
0.377697
0.399685
0.423431
0.366753
0.679387
0.388202
0.391852
0.687124
0.545992
0.665175
0.393221
0.366298
0.680169
0.46639
0.471919
0.700871
0.367073
0.661815
0.670161
0.604204
0.661263
0.401568
0.686083
0.671285
0.398544
0.386325
0.39703
0.604341
0.604201
0.701912
0.67436
0.679074
0.664895
0.370931
0.686745
0.671494
0.660992
0.370374
0.68123
0.57354
0.363943
0.430839
0.380222
0.386056
0.384088
0.591423
0.670509
0.667533
0.371043
0.387444
0.699714
0.342726
0.687026
0.676066
0.66808
0.679121
0.682356
0.389201
0.389671
0.396196
0.566712
0.370432
0.679613
0.380991
0.677833
0.673178
0.683908
0.381886
0.447946
0.408296
0.683993
0.394536
0.382258
0.681488
0.660917
0.619252
0.673839
0.65414
0.694315
0.36914
0.618835
0.697346
0.526619
0.682717
0.689264
0.695055
0.459086
0.424415
0.705084
0.495101
0.612539
0.384844
0.642674
0.668496
0.399642
0.360969
0.656592
0.50714
0.694426
0.687076
0.363196
0.368268
0.668388
0.377812
0.404864
0.670192
0.658778
0.373258
0.67232
0.668438
0.642414
0.361872
0.592001
0.370296
0.673149
0.695884
0.694036
0.664689
0.668824
0.29113
0.349441
0.67734
0.377919
0.601393
0.371212
0.68349
0.386215
0.649292
0.697012
0.668478
0.385235
0.664468
0.667379
0.366727
0.643467
0.37665
0.710224
0.385152
0.387075
0.374319
0.673823
0.674446
0.321242
0.296949
0.635753
0.701385
0.460491
0.692968