# vtk DataFile Version 1.0
unstructured grid
ascii
DATASET UNSTRUCTURED_GRID
points 13672 float
0.0796578 -0.059106 0
0.00128732 0.00159165 0
0.00227961 -0.00102548 0
0.0791586 -0.0598787 0
-0.0546216 0.01 0
0.000495206 0.025 0
0.0800549 -0.035 0
0.135172 -0.08 0
-0.0546216 -0.0451168 0
0.000495206 -0.0301168 0
0.0800549 -0.0901168 0
0.135172 -0.135117 0
-0.0546216 -0.0451168 -0.00551168
0.000495206 -0.0301168 -0.00551168
0.0800549 -0.0901168 -0.00551168
0.135172 -0.135117 -0.00551168
0.135172 -0.08 -0.00551168
0.0800549 -0.035 -0.00551168
0.000495206 0.025 -0.00551168
-0.0546216 0.01 -0.00551168
0.00128732 0.00159165 -0.00551168
0.00227961 -0.00102548 -0.00551168
0.0791586 -0.0598787 -0.00551168
0.0796578 -0.059106 -0.00551168
0.00165953 -0.000990923 0
0.00119576 -0.000874076 0
0.000866021 -0.000641801 0
0.000645147 -0.000349912 0
0.00052235 -1.7281e-05 0
0.00049972 0.000348016 0
0.000601632 0.000737716 0
0.000861774 0.0011403 0
0.00157235 0.00183217 0
0.00188647 0.00206725 0
0.00222612 0.00230203 0
0.00258713 0.00254351 0
0.00296826 0.00279524 0
0.00337118 0.00305664 0
0.00379785 0.00332658 0
0.00425045 0.00360349 0
0.00473139 0.00388521 0
0.0052432 0.00416895 0
0.0057881 0.00445204 0
0.00636753 0.00473281 0
0.00698281 0.00500961 0
0.00763526 0.00528058 0
0.00832616 0.00554366 0
0.00905691 0.00579603 0
0.00982918 0.00603333 0
0.0106445 0.00625033 0
0.0115038 0.00644128 0
0.0124073 0.00660297 0
0.0133543 0.00673414 0
0.0143444 0.00683382 0
0.0153769 0.00690031 0
0.0164512 0.00693173 0
0.0175666 0.00692547 0
0.0187219 0.00687822 0
0.0199156 0.00678477 0
0.0211454 0.00663864 0
0.0224084 0.00643275 0
0.0237018 0.00616676 0
0.0250249 0.00584739 0
0.026375 0.00547298 0
0.0277479 0.00503752 0
0.0291386 0.00453545 0
0.0305433 0.0039653 0
0.0319572 0.0033256 0
0.0333681 0.00260019 0
0.034775 0.00179799 0
0.0361793 0.000930615 0
0.0375798 3.12222e-06 0
0.0389689 -0.000988429 0
0.0403357 -0.00205109 0
0.041675 -0.00318283 0
0.0429849 -0.00437751 0
0.0442643 -0.00562904 0
0.0455126 -0.00693089 0
0.0467314 -0.00827518 0
0.0479204 -0.00965638 0
0.0490661 -0.0110799 0
0.0501515 -0.0125519 0
0.0511696 -0.0140695 0
0.0521492 -0.0156071 0
0.0531202 -0.0171411 0
0.0540851 -0.0186663 0
0.0550431 -0.0201798 0
0.0559923 -0.0216793 0
0.0569311 -0.0231626 0
0.0578582 -0.0246273 0
0.0587723 -0.0260715 0
0.0596721 -0.027493 0
0.0605563 -0.02889 0
0.0614241 -0.0302609 0
0.0622742 -0.0316042 0
0.063106 -0.0329183 0
0.0639186 -0.034202 0
0.0647113 -0.0354543 0
0.0654835 -0.0366743 0
0.0662345 -0.0378613 0
0.0669642 -0.0390145 0
0.0676726 -0.0401333 0
0.0683597 -0.0412172 0
0.0690246 -0.0422665 0
0.0696662 -0.0432819 0
0.0702841 -0.0442636 0
0.0708793 -0.0452111 0
0.0714538 -0.0461237 0
0.072009 -0.047001 0
0.0725452 -0.0478434 0
0.0730611 -0.0486524 0
0.073556 -0.0494294 0
0.0740291 -0.0501756 0
0.0744812 -0.0508916 0
0.0749138 -0.0515773 0
0.0753285 -0.0522331 0
0.0757266 -0.0528592 0
0.076109 -0.0534564 0
0.0764753 -0.0540264 0
0.0768243 -0.054571 0
0.0771553 -0.0550919 0
0.0774679 -0.0555901 0
0.0777617 -0.0560669 0
0.0780369 -0.056523 0
0.0782958 -0.0569578 0
0.0785421 -0.0573703 0
0.0787786 -0.0577603 0
0.0790073 -0.0581279 0
0.0792295 -0.058474 0
0.0794462 -0.0587995 0
0.0798803 -0.0594162 0
0.0800272 -0.0596588 0
0.0800357 -0.0598891 0
0.0799275 -0.0600784 0
0.0797205 -0.0601773 0
0.0794593 -0.0601051 0
0.0789155 -0.0596491 0
0.0786707 -0.0593963 0
0.0784111 -0.0591319 0
0.0781372 -0.0588542 0
0.0778566 -0.0585548 0
0.0775715 -0.0582308 0
0.0772803 -0.0578828 0
0.0769832 -0.0575099 0
0.0766822 -0.0571097 0
0.0763801 -0.0566796 0
0.0760759 -0.0562196 0
0.0757623 -0.0557337 0
0.0754359 -0.0552232 0
0.0750951 -0.0546879 0
0.0747379 -0.054128 0
0.0743626 -0.0535435 0
0.0739688 -0.0529338 0
0.0735559 -0.0522981 0
0.0731238 -0.0516357 0
0.0726718 -0.050946 0
0.0721991 -0.0502288 0
0.0717046 -0.049484 0
0.0711872 -0.0487117 0
0.0706461 -0.047912 0
0.0700804 -0.0470849 0
0.0694892 -0.0462308 0
0.0688718 -0.0453499 0
0.0682271 -0.0444431 0
0.0675544 -0.043511 0
0.0668527 -0.0425546 0
0.0661215 -0.0415748 0
0.06536 -0.040573 0
0.0645676 -0.0395504 0
0.0637439 -0.0385087 0
0.0628887 -0.0374493 0
0.062002 -0.0363741 0
0.0610838 -0.0352847 0
0.0601345 -0.0341831 0
0.0591547 -0.033071 0
0.0581456 -0.0319502 0
0.0571083 -0.0308224 0
0.0560444 -0.0296893 0
0.0549562 -0.028552 0
0.053845 -0.0274126 0
0.0527113 -0.0262746 0
0.051554 -0.0251427 0
0.0503724 -0.0240222 0
0.0491675 -0.0229164 0
0.047941 -0.0218282 0
0.0466955 -0.0207597 0
0.0454337 -0.0197126 0
0.0441592 -0.0186878 0
0.0428751 -0.0176863 0
0.0415841 -0.0167097 0
0.0402878 -0.0157609 0
0.0389879 -0.0148428 0
0.0376864 -0.0139575 0
0.0363853 -0.013107 0
0.0350871 -0.0122931 0
0.0337942 -0.0115164 0
0.0325095 -0.0107772 0
0.0312357 -0.0100756 0
0.0299758 -0.00941024 0
0.0287337 -0.00877784 0
0.0275126 -0.00817571 0
0.0263139 -0.00760375 0
0.0251376 -0.00706528 0
0.0239829 -0.0065649 0
0.0228537 -0.00609619 0
0.0217522 -0.00565563 0
0.0206795 -0.00524226 0
0.0196364 -0.00485507 0
0.0186233 -0.00449318 0
0.0176408 -0.00415577 0
0.016689 -0.00384204 0
0.0157682 -0.00355115 0
0.0148783 -0.00328218 0
0.0140192 -0.00303468 0
0.0131906 -0.00280795 0
0.0123925 -0.00260016 0
0.0116246 -0.00241012 0
0.0108864 -0.00223769 0
0.0101774 -0.00208212 0
0.00949701 -0.00194206 0
0.00884483 -0.0018163 0
0.0082202 -0.0017039 0
0.00762247 -0.00160391 0
0.00705097 -0.00151528 0
0.006505 -0.00143697 0
0.0059838 -0.00136806 0
0.00548662 -0.00130772 0
0.00501265 -0.00125519 0
0.00456114 -0.00120954 0
0.00413136 -0.00116914 0
0.00372257 -0.00113251 0
0.00333398 -0.00109853 0
0.00296466 -0.00106798 0
0.00261363 -0.0010431 0
-0.052721 -0.0445996 0
-0.0508204 -0.0440823 0
-0.0489199 -0.0435651 0
-0.0470193 -0.0430478 0
-0.0451187 -0.0425306 0
-0.0432181 -0.0420134 0
-0.0413175 -0.0414961 0
-0.039417 -0.0409789 0
-0.0375164 -0.0404616 0
-0.0356158 -0.0399444 0
-0.0337152 -0.0394271 0
-0.0318146 -0.0389099 0
-0.0299141 -0.0383927 0
-0.0280135 -0.0378754 0
-0.0261129 -0.0373582 0
-0.0242123 -0.0368409 0
-0.0223117 -0.0363237 0
-0.0204112 -0.0358065 0
-0.0185106 -0.0352892 0
-0.01661 -0.034772 0
-0.0147094 -0.0342547 0
-0.0128088 -0.0337375 0
-0.0109083 -0.0332202 0
-0.00900769 -0.032703 0
-0.00710711 -0.0321858 0
-0.00520653 -0.0316685 0
-0.00330595 -0.0311513 0
-0.00140537 -0.030634 0
0.00190689 -0.0299614 0
0.00332271 -0.0298498 0
0.00474133 -0.0297825 0
0.00616136 -0.0297597 0
0.0075814 -0.0297814 0
0.00900007 -0.0298477 0
0.010416 -0.0299583 0
0.0118278 -0.0301127 0
0.0132342 -0.0303103 0
0.0146339 -0.0305504 0
0.0160259 -0.0308322 0
0.0174091 -0.0311546 0
0.0187824 -0.0315166 0
0.020145 -0.031917 0
0.0214961 -0.0323546 0
0.0228351 -0.032828 0
0.0241613 -0.0333361 0
0.0254744 -0.0338774 0
0.0267738 -0.0344507 0
0.0280592 -0.0350545 0
0.0293306 -0.0356877 0
0.0305875 -0.0363488 0
0.0318301 -0.0370367 0
0.0330581 -0.0377501 0
0.0342717 -0.0384879 0
0.0354708 -0.0392489 0
0.0366556 -0.0400321 0
0.0378262 -0.0408363 0
0.0389828 -0.0416607 0
0.0401254 -0.0425042 0
0.0412543 -0.0433659 0
0.0423698 -0.0442451 0
0.043472 -0.0451408 0
0.0445612 -0.0460523 0
0.0456375 -0.0469789 0
0.0467013 -0.0479199 0
0.0477529 -0.0488746 0
0.0487923 -0.0498424 0
0.04982 -0.0508227 0
0.0508362 -0.051815 0
0.051841 -0.0528187 0
0.0528348 -0.0538333 0
0.0538178 -0.0548584 0
0.0547903 -0.0558935 0
0.0557524 -0.0569382 0
0.0567045 -0.0579922 0
0.0576467 -0.0590549 0
0.0585792 -0.0601261 0
0.0595024 -0.0612055 0
0.0604163 -0.0622926 0
0.0613212 -0.0633873 0
0.0622174 -0.0644891 0
0.0631049 -0.0655979 0
0.0639841 -0.0667134 0
0.064855 -0.0678353 0
0.0657179 -0.0689633 0
0.0665729 -0.0700974 0
0.0674202 -0.0712372 0
0.06826 -0.0723826 0
0.0690925 -0.0735333 0
0.0699178 -0.0746892 0
0.070736 -0.0758501 0
0.0715473 -0.0770159 0
0.0723518 -0.0781863 0
0.0731498 -0.0793612 0
0.0739412 -0.0805405 0
0.0747264 -0.081724 0
0.0755053 -0.0829116 0
0.0762781 -0.0841033 0
0.0770449 -0.0852987 0
0.0778059 -0.0864979 0
0.0785611 -0.0877007 0
0.0793108 -0.088907 0
0.0814681 -0.0912706 0
0.0828814 -0.0924245 0
0.0842946 -0.0935783 0
0.0857079 -0.0947322 0
0.0871211 -0.095886 0
0.0885344 -0.0970399 0
0.0899476 -0.0981937 0
0.0913609 -0.0993476 0
0.0927741 -0.100501 0
0.0941874 -0.101655 0
0.0956006 -0.102809 0
0.0970139 -0.103963 0
0.0984272 -0.105117 0
0.0998404 -0.106271 0
0.101254 -0.107424 0
0.102667 -0.108578 0
0.10408 -0.109732 0
0.105493 -0.110886 0
0.106907 -0.11204 0
0.10832 -0.113194 0
0.109733 -0.114348 0
0.111146 -0.115501 0
0.11256 -0.116655 0
0.113973 -0.117809 0
0.115386 -0.118963 0
0.116799 -0.120117 0
0.118213 -0.121271 0
0.119626 -0.122424 0
0.121039 -0.123578 0
0.122452 -0.124732 0
0.123866 -0.125886 0
0.125279 -0.12704 0
0.126692 -0.128194 0
0.128105 -0.129348 0
0.129519 -0.130501 0
0.130932 -0.131655 0
0.132345 -0.132809 0
0.133758 -0.133963 0
0.135172 -0.133216 0
0.135172 -0.131316 0
0.135172 -0.129415 0
0.135172 -0.127514 0
0.135172 -0.125614 0
0.135172 -0.123713 0
0.135172 -0.121813 0
0.135172 -0.119912 0
0.135172 -0.118012 0
0.135172 -0.116111 0
0.135172 -0.11421 0
0.135172 -0.11231 0
0.135172 -0.110409 0
0.135172 -0.108509 0
0.135172 -0.106608 0
0.135172 -0.104708 0
0.135172 -0.102807 0
0.135172 -0.100906 0
0.135172 -0.0990058 0
0.135172 -0.0971052 0
0.135172 -0.0952046 0
0.135172 -0.0933041 0
0.135172 -0.0914035 0
0.135172 -0.0895029 0
0.135172 -0.0876023 0
0.135172 -0.0857017 0
0.135172 -0.0838012 0
0.135172 -0.0819006 0
0.133758 -0.0788462 0
0.132345 -0.0776923 0
0.130932 -0.0765385 0
0.129519 -0.0753846 0
0.128105 -0.0742308 0
0.126692 -0.0730769 0
0.125279 -0.0719231 0
0.123866 -0.0707692 0
0.122452 -0.0696154 0
0.121039 -0.0684615 0
0.119626 -0.0673077 0
0.118213 -0.0661538 0
0.116799 -0.065 0
0.115386 -0.0638462 0
0.113973 -0.0626923 0
0.11256 -0.0615385 0
0.111146 -0.0603846 0
0.109733 -0.0592308 0
0.10832 -0.0580769 0
0.106907 -0.0569231 0
0.105493 -0.0557692 0
0.10408 -0.0546154 0
0.102667 -0.0534615 0
0.101254 -0.0523077 0
0.0998404 -0.0511538 0
0.0984272 -0.05 0
0.0970139 -0.0488462 0
0.0956006 -0.0476923 0
[...]
CELL_DATA 13116
SCALARS rho float
LOOKUP_TABLE default
0.538294
0.653501
0.408242
0.698357
0.692852
0.670482
0.377386
0.701139
0.512045
0.69782
0.397755
0.355922
0.693062
0.382602
0.368702
0.670704
0.504742
0.690825
0.672031
0.374459
0.54313
0.401164
0.394107
0.693149
0.592699
0.645037
0.697851
0.415723
0.584757
0.637218
0.665836
0.385105
0.53982
0.435427
0.387837
0.541086
0.658528
0.668225
0.668675
0.679943
0.671774
0.703234
0.414122
0.402504
0.671471
0.672014
0.630591
0.675448
0.367146
0.506439
0.69285
0.430747
0.380413
0.496881
0.539328
0.570271
0.401937
0.689376
0.518953
0.366507
0.384259
0.69755
0.643691
0.668434
0.666239
0.391849
0.676912
0.665662
0.678248
0.66657
0.375485
0.565246
0.41031
0.395192
0.664608
0.389951
0.63561
0.687808
0.371848
0.688172
0.672395
0.644953
0.693319
0.67577
0.66528
0.434965
0.381225
0.661198
0.664408
0.377333
0.367244
0.655347
0.695034
0.673148
0.6415
0.586372
0.59564
0.665408
0.664991
0.578431
0.667677
0.577484
0.671918
0.386747
0.614065
0.390796
0.346884
0.460948
0.407624
0.595229
0.490248
0.633753
0.58423
0.676282
0.688963
0.677958
0.384625
0.37225
0.684167
0.680656
0.666144
0.4063
0.678844
0.395895
0.669778
0.423397
0.382496
0.491855
0.404536
0.507498
0.68439
0.677356
0.483953
0.381715
0.465437
0.574521
0.662636
0.682491
0.666341
0.680466
0.618035
0.634191
0.490691
0.618893
0.638055
0.379844
0.395178
0.637058
0.690953
0.690478
0.523614
0.675015
0.675231
0.39836
0.694862
0.666869
0.397053
0.67355
0.665544
0.660889
0.692494
0.385227
0.690862
0.396759
0.406945
0.696264
0.665443
0.690167
0.385306
0.449619
0.407289
0.662666
0.372262
0.476439
0.6766
0.39468
0.394721
0.409602
0.629235
0.669837
0.375125
0.416752
0.510925
0.659058
0.670085
0.517153
0.392977
0.672497
0.603093
0.447102
0.628755
0.634438
0.666918
0.400455
0.625614
0.670242
0.696194
0.672438
0.662693
0.393079
0.386288
0.600782
0.486385
0.393463
0.685944
0.671504
0.43952
0.597043
0.383851
0.393761
0.389163
0.673832
0.396955
0.368415
0.375273
0.397359
0.350315
0.668232
0.666834
0.423268
0.399716
0.676414
0.483718
0.374671
0.534962
0.697448
0.635365
0.419013
0.676718
0.379024
0.714545
0.371323
0.666902
0.555039
0.665094
0.673999
0.66717
0.362247
0.41536
0.6596
0.664387
0.670007
0.662943
0.667257
0.696389
0.397967
0.687239
0.6952
0.665054
0.40394
0.369552
0.672706
0.68336
0.666521
0.679456
0.523747
0.679514
0.397717
0.385251
0.376653
0.38475
0.595469
0.695994
0.634289
0.37579
0.671496
0.390094
0.418928
0.616286
0.40095
0.643243
0.696504
0.663925
0.688993
0.364572
0.663852
0.677783
0.665106
0.68226
0.368788
0.378815
0.401415
0.569346
0.411945
0.379362
0.321255
0.286693
0.66264
0.383767
0.667982
0.693476
0.385108
0.376117
0.389306
0.438049
0.418694
0.659933
0.57598
0.624599
0.40048
0.673308
0.566874
0.388265
0.365191
0.668939
0.683311
0.672177
0.390005
0.670514
0.399936
0.676558
0.702022
0.68825
0.700912
0.403592
0.676277
0.383897
0.67192
0.696682
0.654845
0.373868
0.32093
0.695506
0.388389
0.646644
0.69744
0.35239
0.681091
0.692971
0.385018
0.671199
0.695309
0.377712
0.686097
0.434743
0.554856
0.692696
0.441675
0.674382
0.376384
0.691399
0.33289
0.66764
0.570455
0.696917
0.417257
0.344618
0.666532
0.399348
0.684916
0.610615
0.406864
0.662653
0.39631
0.408103
0.682143
0.535278
0.664101
0.380165
0.39667
0.687123
0.693293
0.39565
0.692504
0.385094
0.390031
0.678613
0.693088
0.445448
0.362551
0.682249
0.666188
0.670757
0.670621
0.687717
0.523592
0.317447
0.381797
0.374619
0.670547
0.37417
0.509046
0.355448
0.382857
0.338648
0.456695
0.138537
0.399735
0.666826
0.315082
0.691559
0.585541
0.673003
0.651838
0.68768
0.408299
0.376798
0.397073
0.323736
0.682087
0.579601
0.67215
0.585416
0.639756
0.609888
0.642372
0.613914
0.63399
0.686168
0.687621
0.669735
0.382033
0.446324
0.53419
0.409587
0.572115
0.569562
0.381507
0.67731
0.664113
0.40538
0.370436
0.389553
0.393976
0.610514
0.394803
0.400454
0.674816
0.392517
0.554777
0.388435
0.670551
0.671624
0.424005
0.384952
0.681635
0.439525
0.386015
0.394113
0.35965
0.407429
0.380661
0.370984
0.391354
0.418698
0.394847
0.573979
0.402092
0.665996
0.370408
0.426753
0.486631
0.388375
0.3765
0.387251
0.675639
0.424774
0.622427
0.463349
0.392351
0.599928
0.666344
0.434464
0.680595
0.611945
0.61054
0.380967
0.665192
0.37488
0.689078
0.66567
0.400003
0.38296
0.600807
0.328912
0.443689
0.573974
0.345634
0.672053
0.641116
0.378728
0.390876
0.374918
0.471853
0.364561
0.381241
0.372746
0.384581
0.698534
0.698045
0.445103
0.581996
0.46451
0.623858
0.335834
0.399338
0.516953
0.400584
0.676128
0.283541
0.358768
0.480011
0.671039
0.66054
0.541355
0.351461
0.382525
0.550937
0.700605
0.667192
0.547073
0.617413
0.593652
0.390624
0.670592
0.550338
0.657923
0.294952
0.417958
0.675208
0.696698
0.650336
0.697928
0.656019
0.648331
0.691418
0.656457
0.672775
0.36806
0.671004
0.328766
0.382672
0.368903
0.696559
0.671929
0.298691
0.664727
0.601742
0.373636
0.667592
0.682524
0.683008
0.415888
0.39801
0.686188
0.383896
0.368571
0.363331
0.391578
0.674054
0.381971
0.695522
0.40189
0.654339
0.691428
0.676622
0.69341
0.385031
0.373286
0.673634
0.715941
0.648079
0.698379
0.695035
0.482494
0.383747
0.403675
0.671938
0.513152
0.38483
0.43894
0.377735
0.685146
0.673688
0.295483
0.400053
0.66364
0.453417
0.667246
0.642614
0.403286
0.379734
0.643577
0.664204
0.398464
0.658377
0.665621
0.672916
0.393944
0.662934
0.39976
0.664916
0.656232
0.362548
0.348562
0.381691
0.664984
0.407619
0.375432
0.372944
0.66799
0.680484
0.374263
0.378525
0.390471
0.667967
0.41082
0.670101
0.380234
0.5694
0.697578
0.373406
0.396245
0.395486
0.48288
0.40802
0.652601
0.390558
0.399521
0.669696
0.377944
0.673334
0.642469
0.665178
0.360287
0.676758
0.693843
0.695856
0.672426
0.679232
0.678164
0.380411
0.666978
0.425518
0.670763
0.368036
0.696721
0.49334
0.37907
0.665934
0.689377
0.398946
0.617058
0.365896
0.378071
0.674531
0.675115
0.363645
0.379279
0.372872
0.38996
0.684678
0.692875
0.396328
0.381156
0.684911
0.682598
0.571338
0.693217
0.673204
0.39102
0.69726
0.413302
0.692582
0.372647
0.582806
0.467601
0.675684
0.665461
0.557974
0.327273
0.415791
0.67295
0.585194
0.503678
0.692736
0.385001
0.675576
0.694527
0.355584
0.44418
0.694091
0.348525
0.666256
0.660771
0.316679
0.682734
0.639473
0.406011
0.679363
0.400483
0.65936
0.399939
0.673437
0.641849
0.415694
0.668504
0.691351
0.687108
0.602935
0.671992
0.564787
0.346965
0.402309
0.354773
0.393903
0.662134
0.537937
0.680098
0.690365
0.366195
0.382976
0.675935
0.69788
0.682224
0.69686
0.368236
0.687437
0.695007
0.371858
0.36806
0.684373
0.672549
0.66245
0.382177
0.572895
0.426174
0.678541
0.640782
0.667357
0.66138
0.388639
0.670737
0.667466
0.694712
0.67453
0.67157
0.421681
0.687328
0.39408
0.614708
0.696337
0.449398
0.642695
0.667573
0.69099
0.388892
0.385797
0.565755
0.641199
0.379334
0.364826
0.400396
0.396615
0.656077
0.675125
0.667119
0.287495
0.397944
0.677958
0.673954
0.377515
0.376314
0.450854
0.657262
0.672648
0.670213
0.68507
0.391985
0.378626
0.663117
0.393004
0.366349
0.390862
0.67103
0.426394
0.378509
0.56322
0.672296
0.628581
0.66947
0.672014
0.385402
0.374932
0.399001
0.462394
0.424558
0.371276
0.664196
0.684738
0.657104
0.673392
0.394482
0.361578
0.69779
0.372798
0.671286
0.641321
0.665868
0.363696
0.358575
0.653658
0.665816
0.550161
0.37753
0.666966
0.669835
0.55847
0.690504
0.697371
0.663442
0.617423
0.36971
0.67191
0.666135
0.605964
0.679068
0.662201
0.635048
0.6636
0.68115
0.400394
0.392289
0.364458
0.666151
0.491793
0.37487
0.675635
0.685558
0.349935
0.62515
0.431756
0.630586
0.455173
0.366656
0.697775
0.692251
0.384714
0.533878
0.66622
0.398392
0.672905
0.390369
0.390768
0.605248
0.590917
0.486573
0.67203
0.400163
0.690658
0.397678
0.375785
0.673103
0.3843
0.591137
0.380761
0.624158
0.582983
0.663483
0.66258
0.378583
0.399076
0.599027
0.415636
0.681879
0.445548
0.579488
0.670398
0.694575
0.430375
0.592293
0.628004
0.696488
0.678186
0.336374
0.368058
0.523646
0.62705
0.696599
0.355366
0.671911
0.552027
0.396333
0.369011
0.657022
0.658227
0.663189
0.664808
0.579031
0.676832
0.668575
0.666298
0.378216
0.648787
0.448429
0.684182
0.672006
0.286952
0.672912
0.691407
0.39835
0.367771
0.387316
0.662235
0.385577
0.605045
0.683981
0.648692
0.343733
0.665636
0.39227
0.572157
0.668106
0.666885
0.662284
0.667885
0.604194
0.671044
0.511914
0.670318
0.400399
0.670782
0.676377
0.395916
0.663998
0.676379
0.401403
0.380527
0.401234
0.688596
0.371065
0.663795
0.398439
0.700684
0.382699
0.468124
0.379894
0.688539
0.695574
0.521842
0.261155
0.604284
0.668408
0.389563
0.570691
0.697955
0.371372
0.572689
0.665445
0.697235
0.671642
0.398517
0.458342
0.683682
0.6725
0.6163
0.367763
0.382472
0.668238
0.662916
0.664199
0.6628
0.536791
0.677716
0.531645
0.681548
0.368521
0.393058
0.662892
0.691783
0.668131
0.391879
0.670978
0.545095
0.588908
0.396784
0.406437
0.692866
0.707112
0.538714
0.325106
0.672978
0.664246
0.383705
0.593654
0.684811
0.384101
0.422425
0.3811
0.604778
0.399387
0.365984
0.670568
0.45261
0.697171
0.631548
0.378312
0.381481
0.697946
0.393278
0.3962
0.665806
0.38732
0.337129
0.576974
0.676456
0.677086
0.400295
0.448687
0.403363
0.643872
0.390185
0.677726
0.377521
0.676388
0.649073
0.670954
0.625079
0.66948
0.638542
0.672716
0.69306
0.680403
0.381231
0.398577
0.662002
0.668724
0.492688
0.61576
0.54223
0.66836
0.604182
0.423587
0.679281
0.697901
0.668381
0.403254
0.671644
0.411186
0.675854
0.485728
0.688944
0.67258
0.366211
0.682172
0.391748
0.41582
0.645044
0.389618
0.674988
0.662291
0.691899
0.394824
0.674676
0.394683
0.363469
0.381884
0.373494
0.59525
0.372507
0.622001
0.667803
0.328282
0.400829
0.476175
0.56237
0.622152
0.618593
0.359259
0.389517
0.396145
0.380019
0.258158
0.622341
0.639958
0.417452
0.667554
0.683494
0.381348
0.697124
0.672906
0.667967
0.402949
0.664554
0.6706
0.687357
0.685215
0.362897
0.678482
0.688791
0.672199
0.655911
0.669273
0.372422
0.389102
0.675167
0.522064
0.359419
0.67266
0.395256
0.554094
0.616469
0.657098
0.660804
0.364287
0.613479
0.380004
0.402297
0.682991
0.686635
0.691444
0.686306
0.649929
0.363858
0.694252
0.373405
0.491675
0.695828
0.664984
0.683146
0.40358
0.380631
0.695791
0.381167
0.68551
0.633517
0.416312
0.37173
0.679172
0.382932
0.672532
0.68503
0.646394
0.382635
0.392445
0.488239
0.504655
0.610025
0.457691
0.670001
0.618782
0.668405
0.662023
0.677412
0.381247
0.37811
0.687462
0.669212
0.612693
0.449506
0.393446
0.66758
0.375261
0.673369
0.597133
0.315314
0.681633
0.375045
0.664491
0.408935
0.691911
0.363836
0.6752
0.669524
0.330509
0.671485
0.641395
0.319738
0.667173
0.671943
0.540817
0.388229
0.346663
0.452019
0.694298
0.594718
0.381038
0.568287
0.679914
0.669648
0.334237
0.598852
0.660032
0.452976
0.669921
0.672098
0.28459
0.6797
0.665263
0.406903
0.585841
0.393567
0.628219
0.398369
0.390714
0.696314
0.3644
0.389298
0.379036
0.675972
0.651086
0.385153
0.673009
0.342353
0.655854
0.393501
0.6548
0.355367
0.670749
0.675498
0.637207
0.66725
0.537738
0.669477
0.667971
0.412384
0.622416
0.643029
0.471933
0.676795
0.481583
0.388831
0.694037
0.384696
0.554413
0.43286
0.672089
0.378111
0.399814
0.692428
0.672564
0.375778
0.682519
0.685033
0.662185
0.696754
0.664815
0.369143
0.696131
0.367953
0.397056
0.667815
0.686059
0.702794
0.665872
0.371343
0.398294
0.401309
0.655084
0.667668
0.344986
0.68477
0.39018
0.397598
0.391721
0.666397
0.373332
0.69563
0.680908
0.621062
0.674489
0.679599
0.560772
0.629761
0.425528
0.393319
0.373223
0.664777
0.664507
0.391827
0.622204
0.601373
0.631759
0.398647
0.386372
0.622873
0.271117
0.61527
0.583257
0.367884
0.668735
0.657932
0.372611
0.676406
0.394677
0.679805
0.697096
0.669942
0.375853
0.461177
0.674782
0.293864
0.434184
0.673439
0.301545
0.669032
0.677859
0.641713
0.685402
0.323528
0.665815
0.682401
0.672399
0.355385
0.688179
0.402972
0.385619
0.665486
0.672984
0.667612
0.230148
0.673122
0.62049
0.664572
0.390411
0.383909
0.384865
0.684957
0.383963
0.376982
0.40513
0.581049
0.386257
0.285745
0.434541
0.677564
0.371069
0.667218
0.668281
0.678657
0.393251
0.678202
0.648225
0.667496
0.408124
0.654969
0.394877
0.384573
0.674363
0.376378
0.618227
0.678859
0.663349
0.367103
0.321428
0.399284
0.545506
0.662914
0.228446
0.66878
0.675597
0.686578
0.390798
0.374745
0.336345
0.594529
0.390416
0.662104
0.58922
0.668648
0.668974
0.368832
0.618816
0.379234
0.549103
0.635835
0.697921
0.558611
0.464757
0.658419
0.616986
0.688402
0.393866
0.364158
0.394825
0.688281
0.519187
0.664998
0.367226
0.387936
0.687835
0.677978
0.666551
0.374459
0.679838
0.543759
0.546654
0.597747
0.406335
0.373099
0.283957
0.673181
0.667712
0.653822
0.621093
0.335082
0.693855
0.64965
0.667747
0.667289
0.691795
0.697892
0.670191
0.684326
0.691038
0.399479
0.680008
0.687379
0.670231
0.682116
0.672866
0.568231
0.372088
0.39225
0.6097
0.36126
0.325896
0.679468
0.38767
0.622766
0.677257
0.651146
0.669057
0.401805
0.681624
0.378931
0.391413
0.670531
0.676756
0.67361
0.390166
0.691722
0.672103
0.606651
0.672143
0.407913
0.669868
0.696127
0.658454
0.392328
0.690377
0.404818
0.701689
0.39105
0.371922
0.510973
0.437788
0.697764
0.690057
0.671493
0.404411
0.669616
0.387345
0.380084
0.652377
0.48026
0.370988
0.67181
0.371615
0.501325
0.663722
0.629626
0.658867
0.478733
0.580863
0.651268
0.671368
0.56528
0.691309
0.520559
0.714698
0.617127
0.641579
0.392299
0.371799
0.437425
0.686326
0.400695
0.65916
0.683383
0.592718
0.671592
0.508301
0.676757
0.667938
0.403854
0.68175
0.608004
0.477495
0.611366
0.69525
0.653785
0.668911
0.39061
0.399744
0.671637
0.522531
0.534412
0.682432
0.675495
0.673612
0.696382
0.697403
0.611991
0.615901
0.697498
0.37633
0.376925
0.377775
0.396174
0.663993
0.447716
0.527684
0.681302
0.673108
0.398116
0.670127
0.69689
0.391424
0.364784
0.664036
0.682077
0.407621
0.362816
0.366098
0.662032
0.643521
0.396829
0.380421
0.369642
0.388215
0.334464
0.36167
0.713496
0.675582
0.674119
0.396265
0.652316
0.598045
0.594736
0.318087
0.370853
0.650825
0.662795
0.384118
0.670429
0.372545
0.692834
0.400288
0.678183
0.388201
0.657811
0.693748
0.395199
0.548384
0.368056
0.696371
0.38876
0.60228
0.392984
0.493687
0.397617
0.593254
0.388543
0.667
0.666909
0.592582
0.668384
0.314645
0.655247
0.668403
0.69259
0.595344
0.656819
0.372264
0.378587
0.392932
0.695444
0.283204
0.691122
0.531191
0.685873
0.697055
0.449757
0.686955
0.380407
0.389868
0.375595
0.497242
0.508364
0.674836
0.399277
0.379165
0.67252
0.372349
0.380573
0.543787
0.357804
0.383199
0.393067
0.704711
0.642013
0.607267
0.394604
0.651849
0.673776
0.392792
0.316707
0.66743
0.671592
0.553452
0.504288
0.405909
0.354632
0.398393
0.683689
0.604841
0.511494
0.680829
0.379993
0.559216
0.376285
0.666099
0.691086
0.37095
0.383954
0.612122
0.535908
0.693179
0.690892
0.694338
0.684371
0.695879
0.39482
0.409257
0.395678
0.367753
0.53027
0.665787
0.644128
0.367626
0.362822
0.442516
0.422787
0.673628
0.628337
0.381081
0.294425
0.677145
0.39946
0.650194
0.689596
0.64686
0.669466
0.542605
0.368554
0.386841
0.609819
0.370659
0.40846
0.384385
0.668584
0.675008
0.321952
0.36879
0.662627
0.389518
0.674927
0.695241
0.367894
0.400352
0.385084
0.676708
0.384236
0.662253
0.679806
0.593967
0.358936
0.517445
0.687191
0.666738
0.37423
0.663806
0.61211
0.437574
0.683657
0.717485
0.40437
0.359015
0.652734
0.395856
0.367797
0.659287
0.338982
0.674232
0.676107
0.694549
0.620189
0.691624
0.677037
0.669332
0.394005
0.404258
0.624004
0.674324
0.460976
0.697144
0.310991
0.680749
0.660513
0.556845
0.644314
0.379259
0.447225
0.670915
0.688537
0.613209
0.694146
0.674786
0.663445
0.696562
0.662371
0.679172
0.655106
0.687616
0.662956
0.669522
0.335952
0.647804
0.411733
0.678739
0.680107
0.686517
0.63688
0.684987
0.396188
0.39902
0.29807
0.373299
0.644335
0.381992
0.403058
0.673802
0.381903
0.683647
0.399269
0.659639
0.678895
0.364377
0.374831
0.315011
0.685087
0.398101
0.674042
0.681873
0.398477
0.647993
0.541418
0.339088
0.414633
0.384338
0.683921
0.358237
0.68093
0.504781
0.361848
0.672149
0.67204
0.694479
0.373232
0.564986
0.386278
0.654349
0.669115
0.678107
0.376769
0.673334
0.682364
0.62574
0.395214
0.684885
0.372102
0.392198
0.674935
0.443368
0.697038
0.388359
0.378293
0.435967
0.633316
0.409536
0.279454
0.399801
0.4722
0.664855
0.680989
0.383475
0.591228
0.675331
0.546957
0.411452
0.315096
0.543835
0.373979
0.373356
0.671171
0.392882
0.380646
0.689726
0.699389
0.389697
0.689976
0.393919
0.663813
0.4172
0.655081
0.666768
0.686409
0.668481
0.406781
0.388142
0.384279
0.669839
0.6554
0.578267
0.528245
0.364385
0.296988
0.670633
0.397221
0.674723
0.375487
0.667114
0.667319
0.389645
0.403696
0.390306
0.36891
0.406568
0.610515
0.64666
0.388634
0.679113
0.632604
0.345438
0.373158
0.697756
0.370165
0.678235
0.420518
0.68583
0.65083
0.677976
0.66508
0.39529
0.697178
0.677323
0.706781
0.363662
0.601597
0.584581
0.320477
0.686379
0.633414
0.715639
0.652917
0.695901
0.674379
0.700241
0.670506
0.671971
0.364242
0.693998
0.390467
0.449991
0.67304
0.386084
0.662124
0.602516
0.375015
0.626373
0.362376
0.368169
0.670512
0.590737
0.699162
0.399791
0.652706
0.607011
0.418014
0.393249
0.66105
0.673634
0.369739
0.401711
0.683524
0.69819
0.357485
0.637479
0.694307
0.643922
0.388484
0.372342
0.374085
0.652152
0.360906
0.664371
0.688395
0.670794
0.598766
0.679009
0.398162
0.662693
0.602148
0.693595
0.555116
0.39533
0.383974
0.387939
0.69325
0.682935
0.418224
0.648247
0.448538
0.6392
0.680042
0.385145
0.610873
0.665341
0.616442
0.395494
0.378774
0.384735
0.684586
0.696866
0.604013
0.503762
0.678418
0.387833
0.627146
0.664163
0.673685
0.396667
0.612816
0.375596
0.611601
0.389987
0.672671
0.671412
0.394329
0.684157
0.418136
0.662871
0.635023
0.662067
0.687352
0.402356
0.670304
0.672328
0.675473
0.673504
0.475197
0.664092
0.385249
0.672734
0.385466
0.370497
0.379702
0.405246
0.377741
0.394698
0.696329
0.359446
0.375964
0.654579
0.684655
0.649216
0.395152
0.681004
0.679831
0.66912
0.314962
0.570767
0.676929
0.399133
0.403644
0.389475
0.622406
0.498363
0.365082
0.57898
0.395236
0.665077
0.491559
0.383552
0.464078
0.645254
0.346677
0.674008
0.377535
0.459555
0.366617
0.684971
0.373788
0.648337
0.664298
0.590164
0.409844
0.377117
0.683011
0.697925
0.403259
0.36346
0.670209
0.368127
0.6899
0.396242
0.545766
0.388714
0.676863
0.40976
0.697514
0.37088
0.680123
0.679714
0.689257
0.663934
0.38685
0.397725
0.396431
0.648974
0.672852
0.631717
0.510719
0.384919
0.685559
0.319104
0.652576
0.57504
0.387679
0.370243
0.691122
0.672273
0.389649
0.666208
0.68906
0.690576
0.694902
0.377105
0.629872
0.390824
0.690378
0.360673
0.667835
0.647919
0.676332
0.698469
0.350218
0.702525
0.369231
0.403134
0.674548
0.664124
0.537437
0.672298
0.663974
0.377987
0.691266
0.681308
0.699301
0.36482
0.417644
0.676791
0.383233
0.681349
0.683872
0.664495
0.686236
0.280687
0.440133
0.643004
0.394374
0.661024
0.696752
0.46158
0.668033
0.264649
0.612175
0.691589
0.672258
0.670981
0.377408
0.403955
0.675213
0.662072
0.38071
0.31573
0.412059
0.396371
0.376734
0.396925
0.417281
0.359948
0.674732
0.383618
0.389377
0.682472
0.536167
0.662715
0.387387
0.367868
0.676201
0.457412
0.467645
0.695209
0.361469
0.652761
0.66733
0.595397
0.657067
0.398078
0.681348
0.668409
0.397887
0.393554
0.388941
0.598999
0.594892
0.695886
0.671144
0.674476
0.660629
0.364477
0.682024
0.668617
0.665521
0.372958
0.677674
0.565937
0.357525
0.424024
0.38359
0.380124
0.379937
0.581414
0.665275
0.663198
0.37719
0.382379
0.694368
0.337656
0.682272
0.672517
0.664729
0.670947
0.677779
0.404053
0.383784
0.393039
0.559091
0.367286
0.675334
0.37532
0.674597
0.670039
0.679577
0.419024
0.439838
0.400618
0.67929
0.396178
0.390792
0.679774
0.65677
0.614094
0.670618
0.658095
0.689353
0.368138
0.610848
0.691945
0.519319
0.678015
0.684436
0.690073
0.452965
0.418718
0.700711
0.487921
0.606648
0.388762
0.637824
0.665706
0.39234
0.35791
0.652199
0.497338
0.689247
0.68235
0.357884
0.372807
0.665352
0.373243
0.396193
0.667914
0.661384
0.371723
0.66906
0.665602
0.638707
0.36186
0.581569
0.369589
0.67122
0.69076
0.689111
0.660362
0.665773
0.287723
0.342457
0.672887
0.381625
0.594164
0.368663
0.678961
0.386192
0.643927
0.691644
0.66546
0.376192
0.662198
0.664496
0.370242
0.638633
0.372434
0.705186
0.378449
0.38801
0.367748
0.669582
0.671415
0.316883
0.292735
0.638359