# vtk DataFile Version 1.0
unstructured grid
ascii
DATASET UNSTRUCTURED_GRID
points 13672 float
0.0796578 -0.059106 0
0.00128732 0.00159165 0
0.00227961 -0.00102548 0
0.0791586 -0.0598787 0
-0.0546216 0.01 0
0.000495206 0.025 0
0.0800549 -0.035 0
0.135172 -0.08 0
-0.0546216 -0.0451168 0
0.000495206 -0.0301168 0
0.0800549 -0.0901168 0
0.135172 -0.135117 0
-0.0546216 -0.0451168 -0.00551168
0.000495206 -0.0301168 -0.00551168
0.0800549 -0.0901168 -0.00551168
0.135172 -0.135117 -0.00551168
0.135172 -0.08 -0.00551168
0.0800549 -0.035 -0.00551168
0.000495206 0.025 -0.00551168
-0.0546216 0.01 -0.00551168
0.00128732 0.00159165 -0.00551168
0.00227961 -0.00102548 -0.00551168
0.0791586 -0.0598787 -0.00551168
0.0796578 -0.059106 -0.00551168
0.00165953 -0.000990923 0
0.00119576 -0.000874076 0
0.000866021 -0.000641801 0
0.000645147 -0.000349912 0
0.00052235 -1.7281e-05 0
0.00049972 0.000348016 0
0.000601632 0.000737716 0
0.000861774 0.0011403 0
0.00157235 0.00183217 0
0.00188647 0.00206725 0
0.00222612 0.00230203 0
0.00258713 0.00254351 0
0.00296826 0.00279524 0
0.00337118 0.00305664 0
0.00379785 0.00332658 0
0.00425045 0.00360349 0
0.00473139 0.00388521 0
0.0052432 0.00416895 0
0.0057881 0.00445204 0
0.00636753 0.00473281 0
0.00698281 0.00500961 0
0.00763526 0.00528058 0
0.00832616 0.00554366 0
0.00905691 0.00579603 0
0.00982918 0.00603333 0
0.0106445 0.00625033 0
0.0115038 0.00644128 0
0.0124073 0.00660297 0
0.0133543 0.00673414 0
0.0143444 0.00683382 0
0.0153769 0.00690031 0
0.0164512 0.00693173 0
0.0175666 0.00692547 0
0.0187219 0.00687822 0
0.0199156 0.00678477 0
0.0211454 0.00663864 0
0.0224084 0.00643275 0
0.0237018 0.00616676 0
0.0250249 0.00584739 0
0.026375 0.00547298 0
0.0277479 0.00503752 0
0.0291386 0.00453545 0
0.0305433 0.0039653 0
0.0319572 0.0033256 0
0.0333681 0.00260019 0
0.034775 0.00179799 0
0.0361793 0.000930615 0
0.0375798 3.12222e-06 0
0.0389689 -0.000988429 0
0.0403357 -0.00205109 0
0.041675 -0.00318283 0
0.0429849 -0.00437751 0
0.0442643 -0.00562904 0
0.0455126 -0.00693089 0
0.0467314 -0.00827518 0
0.0479204 -0.00965638 0
0.0490661 -0.0110799 0
0.0501515 -0.0125519 0
0.0511696 -0.0140695 0
0.0521492 -0.0156071 0
0.0531202 -0.0171411 0
0.0540851 -0.0186663 0
0.0550431 -0.0201798 0
0.0559923 -0.0216793 0
0.0569311 -0.0231626 0
0.0578582 -0.0246273 0
0.0587723 -0.0260715 0
0.0596721 -0.027493 0
0.0605563 -0.02889 0
0.0614241 -0.0302609 0
0.0622742 -0.0316042 0
0.063106 -0.0329183 0
0.0639186 -0.034202 0
0.0647113 -0.0354543 0
0.0654835 -0.0366743 0
0.0662345 -0.0378613 0
0.0669642 -0.0390145 0
0.0676726 -0.0401333 0
0.0683597 -0.0412172 0
0.0690246 -0.0422665 0
0.0696662 -0.0432819 0
0.0702841 -0.0442636 0
0.0708793 -0.0452111 0
0.0714538 -0.0461237 0
0.072009 -0.047001 0
0.0725452 -0.0478434 0
0.0730611 -0.0486524 0
0.073556 -0.0494294 0
0.0740291 -0.0501756 0
0.0744812 -0.0508916 0
0.0749138 -0.0515773 0
0.0753285 -0.0522331 0
0.0757266 -0.0528592 0
0.076109 -0.0534564 0
0.0764753 -0.0540264 0
0.0768243 -0.054571 0
0.0771553 -0.0550919 0
0.0774679 -0.0555901 0
0.0777617 -0.0560669 0
0.0780369 -0.056523 0
0.0782958 -0.0569578 0
0.0785421 -0.0573703 0
0.0787786 -0.0577603 0
0.0790073 -0.0581279 0
0.0792295 -0.058474 0
0.0794462 -0.0587995 0
0.0798803 -0.0594162 0
0.0800272 -0.0596588 0
0.0800357 -0.0598891 0
0.0799275 -0.0600784 0
0.0797205 -0.0601773 0
0.0794593 -0.0601051 0
0.0789155 -0.0596491 0
0.0786707 -0.0593963 0
0.0784111 -0.0591319 0
0.0781372 -0.0588542 0
0.0778566 -0.0585548 0
0.0775715 -0.0582308 0
0.0772803 -0.0578828 0
0.0769832 -0.0575099 0
0.0766822 -0.0571097 0
0.0763801 -0.0566796 0
0.0760759 -0.0562196 0
0.0757623 -0.0557337 0
0.0754359 -0.0552232 0
0.0750951 -0.0546879 0
0.0747379 -0.054128 0
0.0743626 -0.0535435 0
0.0739688 -0.0529338 0
0.0735559 -0.0522981 0
0.0731238 -0.0516357 0
0.0726718 -0.050946 0
0.0721991 -0.0502288 0
0.0717046 -0.049484 0
0.0711872 -0.0487117 0
0.0706461 -0.047912 0
0.0700804 -0.0470849 0
0.0694892 -0.0462308 0
0.0688718 -0.0453499 0
0.0682271 -0.0444431 0
0.0675544 -0.043511 0
0.0668527 -0.0425546 0
0.0661215 -0.0415748 0
0.06536 -0.040573 0
0.0645676 -0.0395504 0
0.0637439 -0.0385087 0
0.0628887 -0.0374493 0
0.062002 -0.0363741 0
0.0610838 -0.0352847 0
0.0601345 -0.0341831 0
0.0591547 -0.033071 0
0.0581456 -0.0319502 0
0.0571083 -0.0308224 0
0.0560444 -0.0296893 0
0.0549562 -0.028552 0
0.053845 -0.0274126 0
0.0527113 -0.0262746 0
0.051554 -0.0251427 0
0.0503724 -0.0240222 0
0.0491675 -0.0229164 0
0.047941 -0.0218282 0
0.0466955 -0.0207597 0
0.0454337 -0.0197126 0
0.0441592 -0.0186878 0
0.0428751 -0.0176863 0
0.0415841 -0.0167097 0
0.0402878 -0.0157609 0
0.0389879 -0.0148428 0
0.0376864 -0.0139575 0
0.0363853 -0.013107 0
0.0350871 -0.0122931 0
0.0337942 -0.0115164 0
0.0325095 -0.0107772 0
0.0312357 -0.0100756 0
0.0299758 -0.00941024 0
0.0287337 -0.00877784 0
0.0275126 -0.00817571 0
0.0263139 -0.00760375 0
0.0251376 -0.00706528 0
0.0239829 -0.0065649 0
0.0228537 -0.00609619 0
0.0217522 -0.00565563 0
0.0206795 -0.00524226 0
0.0196364 -0.00485507 0
0.0186233 -0.00449318 0
0.0176408 -0.00415577 0
0.016689 -0.00384204 0
0.0157682 -0.00355115 0
0.0148783 -0.00328218 0
0.0140192 -0.00303468 0
0.0131906 -0.00280795 0
0.0123925 -0.00260016 0
0.0116246 -0.00241012 0
0.0108864 -0.00223769 0
0.0101774 -0.00208212 0
0.00949701 -0.00194206 0
0.00884483 -0.0018163 0
0.0082202 -0.0017039 0
0.00762247 -0.00160391 0
0.00705097 -0.00151528 0
0.006505 -0.00143697 0
0.0059838 -0.00136806 0
0.00548662 -0.00130772 0
0.00501265 -0.00125519 0
0.00456114 -0.00120954 0
0.00413136 -0.00116914 0
0.00372257 -0.00113251 0
0.00333398 -0.00109853 0
0.00296466 -0.00106798 0
0.00261363 -0.0010431 0
-0.052721 -0.0445996 0
-0.0508204 -0.0440823 0
-0.0489199 -0.0435651 0
-0.0470193 -0.0430478 0
-0.0451187 -0.0425306 0
-0.0432181 -0.0420134 0
-0.0413175 -0.0414961 0
-0.039417 -0.0409789 0
-0.0375164 -0.0404616 0
-0.0356158 -0.0399444 0
-0.0337152 -0.0394271 0
-0.0318146 -0.0389099 0
-0.0299141 -0.0383927 0
-0.0280135 -0.0378754 0
-0.0261129 -0.0373582 0
-0.0242123 -0.0368409 0
-0.0223117 -0.0363237 0
-0.0204112 -0.0358065 0
-0.0185106 -0.0352892 0
-0.01661 -0.034772 0
-0.0147094 -0.0342547 0
-0.0128088 -0.0337375 0
-0.0109083 -0.0332202 0
-0.00900769 -0.032703 0
-0.00710711 -0.0321858 0
-0.00520653 -0.0316685 0
-0.00330595 -0.0311513 0
-0.00140537 -0.030634 0
0.00190689 -0.0299614 0
0.00332271 -0.0298498 0
0.00474133 -0.0297825 0
0.00616136 -0.0297597 0
0.0075814 -0.0297814 0
0.00900007 -0.0298477 0
0.010416 -0.0299583 0
0.0118278 -0.0301127 0
0.0132342 -0.0303103 0
0.0146339 -0.0305504 0
0.0160259 -0.0308322 0
0.0174091 -0.0311546 0
0.0187824 -0.0315166 0
0.020145 -0.031917 0
0.0214961 -0.0323546 0
0.0228351 -0.032828 0
0.0241613 -0.0333361 0
0.0254744 -0.0338774 0
0.0267738 -0.0344507 0
0.0280592 -0.0350545 0
0.0293306 -0.0356877 0
0.0305875 -0.0363488 0
0.0318301 -0.0370367 0
0.0330581 -0.0377501 0
0.0342717 -0.0384879 0
0.0354708 -0.0392489 0
0.0366556 -0.0400321 0
0.0378262 -0.0408363 0
0.0389828 -0.0416607 0
0.0401254 -0.0425042 0
0.0412543 -0.0433659 0
0.0423698 -0.0442451 0
0.043472 -0.0451408 0
0.0445612 -0.0460523 0
0.0456375 -0.0469789 0
0.0467013 -0.0479199 0
0.0477529 -0.0488746 0
0.0487923 -0.0498424 0
0.04982 -0.0508227 0
0.0508362 -0.051815 0
0.051841 -0.0528187 0
0.0528348 -0.0538333 0
0.0538178 -0.0548584 0
0.0547903 -0.0558935 0
0.0557524 -0.0569382 0
0.0567045 -0.0579922 0
0.0576467 -0.0590549 0
0.0585792 -0.0601261 0
0.0595024 -0.0612055 0
0.0604163 -0.0622926 0
0.0613212 -0.0633873 0
0.0622174 -0.0644891 0
0.0631049 -0.0655979 0
0.0639841 -0.0667134 0
0.064855 -0.0678353 0
0.0657179 -0.0689633 0
0.0665729 -0.0700974 0
0.0674202 -0.0712372 0
0.06826 -0.0723826 0
0.0690925 -0.0735333 0
0.0699178 -0.0746892 0
0.070736 -0.0758501 0
0.0715473 -0.0770159 0
0.0723518 -0.0781863 0
0.0731498 -0.0793612 0
0.0739412 -0.0805405 0
0.0747264 -0.081724 0
0.0755053 -0.0829116 0
0.0762781 -0.0841033 0
0.0770449 -0.0852987 0
0.0778059 -0.0864979 0
0.0785611 -0.0877007 0
0.0793108 -0.088907 0
0.0814681 -0.0912706 0
0.0828814 -0.0924245 0
0.0842946 -0.0935783 0
0.0857079 -0.0947322 0
0.0871211 -0.095886 0
0.0885344 -0.0970399 0
0.0899476 -0.0981937 0
0.0913609 -0.0993476 0
0.0927741 -0.100501 0
0.0941874 -0.101655 0
0.0956006 -0.102809 0
0.0970139 -0.103963 0
0.0984272 -0.105117 0
0.0998404 -0.106271 0
0.101254 -0.107424 0
0.102667 -0.108578 0
0.10408 -0.109732 0
0.105493 -0.110886 0
0.106907 -0.11204 0
0.10832 -0.113194 0
0.109733 -0.114348 0
0.111146 -0.115501 0
0.11256 -0.116655 0
0.113973 -0.117809 0
0.115386 -0.118963 0
0.116799 -0.120117 0
0.118213 -0.121271 0
0.119626 -0.122424 0
0.121039 -0.123578 0
0.122452 -0.124732 0
0.123866 -0.125886 0
0.125279 -0.12704 0
0.126692 -0.128194 0
0.128105 -0.129348 0
0.129519 -0.130501 0
0.130932 -0.131655 0
0.132345 -0.132809 0
0.133758 -0.133963 0
0.135172 -0.133216 0
0.135172 -0.131316 0
0.135172 -0.129415 0
0.135172 -0.127514 0
0.135172 -0.125614 0
0.135172 -0.123713 0
0.135172 -0.121813 0
0.135172 -0.119912 0
0.135172 -0.118012 0
0.135172 -0.116111 0
0.135172 -0.11421 0
0.135172 -0.11231 0
0.135172 -0.110409 0
0.135172 -0.108509 0
0.135172 -0.106608 0
0.135172 -0.104708 0
0.135172 -0.102807 0
0.135172 -0.100906 0
0.135172 -0.0990058 0
0.135172 -0.0971052 0
0.135172 -0.0952046 0
0.135172 -0.0933041 0
0.135172 -0.0914035 0
0.135172 -0.0895029 0
0.135172 -0.0876023 0
0.135172 -0.0857017 0
0.135172 -0.0838012 0
0.135172 -0.0819006 0
0.133758 -0.0788462 0
0.132345 -0.0776923 0
0.130932 -0.0765385 0
0.129519 -0.0753846 0
0.128105 -0.0742308 0
0.126692 -0.0730769 0
0.125279 -0.0719231 0
0.123866 -0.0707692 0
0.122452 -0.0696154 0
0.121039 -0.0684615 0
0.119626 -0.0673077 0
0.118213 -0.0661538 0
0.116799 -0.065 0
0.115386 -0.0638462 0
0.113973 -0.0626923 0
0.11256 -0.0615385 0
0.111146 -0.0603846 0
0.109733 -0.0592308 0
0.10832 -0.0580769 0
0.106907 -0.0569231 0
0.105493 -0.0557692 0
0.10408 -0.0546154 0
0.102667 -0.0534615 0
0.101254 -0.0523077 0
0.0998404 -0.0511538 0
0.0984272 -0.05 0
0.0970139 -0.0488462 0
0.0956006 -0.0476923 0
[...]
CELL_DATA 13116
SCALARS rho float
LOOKUP_TABLE default
0.5977
0.671435
0.507028
0.690858
0.691945
0.684091
0.399101
0.695936
0.597672
0.693921
0.381151
0.509259
0.692098
0.45907
0.475668
0.684098
0.597701
0.629092
0.684266
0.376907
0.5977
0.512882
0.489305
0.658193
0.5977
0.70072
0.693976
0.5371
0.5977
0.597713
0.685305
0.498206
0.597693
0.595831
0.404746
0.5977
0.600194
0.68561
0.683947
0.694546
0.68412
0.695269
0.597637
0.485149
0.684513
0.684304
0.682348
0.684412
0.50227
0.597497
0.693668
0.597511
0.424379
0.597701
0.597694
0.5977
0.483875
0.660857
0.597555
0.488989
0.461171
0.693157
0.673074
0.683941
0.684777
0.441566
0.684899
0.598941
0.685201
0.684267
0.475085
0.597696
0.517395
0.466085
0.692538
0.447069
0.604177
0.690278
0.384624
0.612582
0.616351
0.700651
0.672494
0.684447
0.692395
0.573037
0.410701
0.597797
0.699782
0.367096
0.506122
0.673716
0.683269
0.699762
0.597796
0.5977
0.5977
0.688069
0.689696
0.5977
0.597748
0.61415
0.68417
0.59459
0.691692
0.495853
0.556145
0.597678
0.515844
0.5977
0.597695
0.700046
0.5977
0.611546
0.614485
0.685968
0.430274
0.570684
0.688355
0.689376
0.598581
0.527748
0.68551
0.506234
0.700296
0.58904
0.41455
0.596523
0.503151
0.597446
0.688637
0.68277
0.591042
0.506098
0.587324
0.597714
0.704254
0.688826
0.597735
0.689683
0.600107
0.684037
0.596784
0.601007
0.637602
0.472197
0.403393
0.700294
0.690342
0.694859
0.597104
0.684403
0.68438
0.414158
0.69223
0.69259
0.499404
0.597831
0.688042
0.597763
0.655902
0.381696
0.677741
0.500512
0.532788
0.692926
0.700419
0.626067
0.402633
0.581252
0.573103
0.704216
0.473135
0.596409
0.685337
0.488869
0.489062
0.516439
0.699651
0.683938
0.37104
0.582646
0.597699
0.599623
0.683951
0.597588
0.414018
0.684282
0.694391
0.593957
0.598418
0.700181
0.684069
0.509517
0.699591
0.683936
0.691501
0.684305
0.699836
0.593016
0.595136
0.5977
0.596241
0.470681
0.686939
0.684469
0.597548
0.5977
0.480308
0.372716
0.44453
0.684068
0.504922
0.367665
0.367428
0.418313
0.566585
0.683835
0.700393
0.569884
0.477278
0.684655
0.597693
0.370719
0.596991
0.693502
0.633849
0.538212
0.685165
0.562218
0.696317
0.499064
0.684075
0.597679
0.690204
0.696502
0.683929
0.508768
0.5887
0.597729
0.695927
0.683921
0.704051
0.683815
0.697062
0.49232
0.69196
0.692737
0.688632
0.391491
0.505379
0.684418
0.688122
0.684344
0.685335
0.5977
0.6019
0.3794
0.520639
0.584162
0.478737
0.687156
0.690988
0.604446
0.395996
0.686982
0.425419
0.572237
0.692386
0.391116
0.700642
0.693957
0.697994
0.661569
0.506683
0.699874
0.626414
0.688037
0.688318
0.379783
0.40355
0.510201
0.597712
0.525204
0.519537
0.549378
0.541627
0.68686
0.432477
0.697691
0.69236
0.404307
0.374928
0.420981
0.587107
0.532066
0.597808
0.599128
0.698404
0.387779
0.684034
0.597665
0.525542
0.488278
0.683972
0.688095
0.68425
0.417879
0.68395
0.593727
0.682965
0.694722
0.694412
0.694697
0.511995
0.684769
0.457099
0.684165
0.69403
0.597704
0.367974
0.548312
0.692962
0.420702
0.692809
0.693124
0.575968
0.599264
0.670447
0.410896
0.686899
0.682977
0.455082
0.690034
0.571953
0.597543
0.700001
0.573366
0.597883
0.395759
0.643816
0.551964
0.683808
0.653596
0.692889
0.536299
0.557989
0.691815
0.410967
0.687315
0.696454
0.58153
0.704172
0.411305
0.50087
0.686352
0.597258
0.599665
0.407122
0.501264
0.692098
0.692288
0.397785
0.6924
0.441566
0.500269
0.688367
0.699113
0.597697
0.367006
0.688034
0.685154
0.684081
0.68885
0.681077
0.597219
0.571441
0.471871
0.371072
0.684066
0.370523
0.597699
0.575249
0.508259
0.555999
0.597698
0.513351
0.406929
0.68955
0.512764
0.681737
0.5977
0.684272
0.597724
0.69174
0.503669
0.401504
0.593623
0.564858
0.685956
0.5977
0.684166
0.5977
0.637526
0.597701
0.700565
0.597897
0.59771
0.681937
0.608974
0.684048
0.585788
0.597364
0.5977
0.505476
0.598991
0.5977
0.423268
0.685474
0.698693
0.51267
0.371386
0.367426
0.405593
0.5977
0.43988
0.509435
0.684206
0.440274
0.597685
0.367073
0.68412
0.645583
0.546452
0.506412
0.686094
0.585649
0.367025
0.405761
0.36715
0.516626
0.401798
0.37042
0.525875
0.57356
0.370094
0.614026
0.550891
0.696517
0.587776
0.505967
0.587943
0.474631
0.367131
0.476909
0.691123
0.578293
0.5977
0.597694
0.436553
0.5977
0.699401
0.572386
0.599175
0.597704
0.597706
0.400409
0.690053
0.570644
0.677692
0.68676
0.518045
0.430084
0.693198
0.567674
0.572821
0.658185
0.555741
0.597804
0.649635
0.375077
0.484129
0.460819
0.59629
0.485095
0.444386
0.472587
0.455038
0.692869
0.692618
0.588098
0.5977
0.588219
0.699215
0.561105
0.433714
0.597677
0.519515
0.684427
0.54294
0.562378
0.590247
0.684638
0.700655
0.597451
0.576017
0.426078
0.597373
0.695672
0.683979
0.597288
0.68446
0.685121
0.368878
0.64245
0.597669
0.597718
0.54813
0.531407
0.610224
0.690823
0.597715
0.693737
0.699574
0.700746
0.648925
0.597707
0.684248
0.367868
0.684874
0.554596
0.486806
0.36721
0.691062
0.684468
0.544398
0.693884
0.5977
0.367619
0.683906
0.687618
0.671419
0.535601
0.430476
0.68904
0.367034
0.366978
0.483509
0.368454
0.684034
0.45002
0.690592
0.547873
0.669216
0.693342
0.68453
0.692272
0.36701
0.371259
0.684371
0.695789
0.602027
0.692933
0.692606
0.584466
0.407417
0.523729
0.683985
0.597637
0.367309
0.585088
0.50794
0.699023
0.68453
0.547234
0.517486
0.69654
0.574699
0.688028
0.5977
0.498784
0.562018
0.601467
0.695951
0.50288
0.700681
0.700429
0.684407
0.434866
0.704062
0.476174
0.69135
0.597716
0.36697
0.565669
0.520809
0.690916
0.517279
0.393756
0.572373
0.683911
0.678927
0.391637
0.518265
0.367287
0.683913
0.521169
0.683933
0.469903
0.597698
0.693575
0.588306
0.497308
0.491609
0.584869
0.525611
0.700849
0.426162
0.446986
0.684064
0.44524
0.684084
0.691086
0.689468
0.367251
0.684539
0.684944
0.691025
0.683999
0.700727
0.687686
0.48714
0.684117
0.571097
0.684129
0.38103
0.696745
0.597548
0.408797
0.685181
0.687785
0.416466
0.597805
0.505316
0.471688
0.684155
0.690815
0.508307
0.477302
0.387212
0.487429
0.699616
0.658462
0.431506
0.380055
0.687093
0.689707
0.597698
0.684451
0.684341
0.379733
0.693081
0.574783
0.693489
0.575564
0.5977
0.583899
0.684537
0.600139
0.597669
0.558377
0.531567
0.684526
0.597699
0.5977
0.682745
0.473014
0.641252
0.691891
0.564796
0.5974
0.687654
0.572687
0.684599
0.597731
0.547349
0.692193
0.597771
0.508165
0.6738
0.508891
0.69896
0.466859
0.684046
0.67294
0.531192
0.683985
0.679757
0.689203
0.5977
0.66451
0.597672
0.54089
0.592803
0.510288
0.464332
0.704338
0.597126
0.686743
0.689873
0.367972
0.544048
0.674029
0.693691
0.68624
0.694197
0.371164
0.607808
0.692703
0.374776
0.507519
0.688351
0.684419
0.696532
0.491954
0.597682
0.551837
0.668559
0.694315
0.683991
0.682188
0.367555
0.682271
0.697488
0.67961
0.692227
0.684073
0.570454
0.681191
0.373106
0.62644
0.693287
0.581623
0.648561
0.683932
0.693383
0.59631
0.585152
0.59768
0.597703
0.367065
0.36694
0.394694
0.369826
0.66623
0.639341
0.683872
0.543587
0.37247
0.684998
0.597904
0.452469
0.545318
0.58423
0.605411
0.684343
0.689832
0.636242
0.371373
0.36705
0.703354
0.505722
0.367697
0.431351
0.684086
0.550592
0.367025
0.5977
0.684328
0.699469
0.684043
0.684213
0.431329
0.458187
0.391043
0.597698
0.578121
0.50168
0.599118
0.624144
0.694707
0.684162
0.495229
0.367087
0.69374
0.367111
0.684059
0.675379
0.686458
0.50826
0.367133
0.699615
0.685286
0.597704
0.452548
0.690261
0.684048
0.5977
0.694666
0.69499
0.702327
0.68194
0.370424
0.684202
0.684545
0.599672
0.665849
0.704374
0.700148
0.701297
0.687321
0.445322
0.4683
0.367055
0.685166
0.597585
0.367115
0.675535
0.686991
0.5077
0.59784
0.553022
0.59832
0.597693
0.506627
0.693386
0.649564
0.367209
0.59659
0.685048
0.485046
0.699703
0.450219
0.49401
0.597701
0.5977
0.587949
0.684186
0.398975
0.678377
0.481725
0.499323
0.684066
0.367434
0.5977
0.506421
0.597895
0.5977
0.701675
0.700537
0.470544
0.451238
0.613923
0.59766
0.685976
0.596391
0.5977
0.684106
0.677325
0.597669
0.5977
0.699597
0.692024
0.685671
0.553112
0.366926
0.596284
0.699672
0.692399
0.574032
0.684154
0.597703
0.593024
0.50742
0.597705
0.604473
0.703836
0.691775
0.646439
0.623561
0.683943
0.605783
0.501454
0.597705
0.58403
0.693494
0.684453
0.540668
0.701904
0.691507
0.475859
0.50019
0.419104
0.704343
0.381099
0.597701
0.676489
0.597704
0.531663
0.686842
0.469949
0.597686
0.683968
0.683965
0.598812
0.6839
0.5977
0.615341
0.597679
0.684174
0.468973
0.684035
0.684429
0.597622
0.699477
0.65075
0.512238
0.473382
0.488557
0.694252
0.366904
0.700574
0.390883
0.696175
0.43241
0.58386
0.486703
0.675217
0.693724
0.5977
0.533859
0.5977
0.683866
0.374157
0.597699
0.692397
0.500806
0.5977
0.686518
0.693459
0.684101
0.518877
0.597678
0.686968
0.684285
0.62506
0.366984
0.583139
0.687576
0.703745
0.69656
0.704235
0.5977
0.68299
0.5977
0.692614
0.366971
0.472048
0.703846
0.691443
0.683932
0.447292
0.684057
0.5977
0.597702
0.465817
0.567956
0.692411
0.692474
0.597642
0.569573
0.684225
0.696329
0.397837
0.5977
0.635365
0.399017
0.505328
0.459686
0.696936
0.523617
0.367761
0.687898
0.596665
0.692842
0.597931
0.40521
0.404127
0.693109
0.469667
0.440592
0.685281
0.509949
0.562987
0.5977
0.700943
0.684457
0.3722
0.561089
0.38401
0.690254
0.498232
0.684648
0.443269
0.678783
0.700978
0.685033
0.691496
0.679749
0.694143
0.684336
0.692117
0.685615
0.446543
0.380207
0.671791
0.683961
0.588307
0.697533
0.597683
0.68394
0.59973
0.543606
0.687822
0.692897
0.684573
0.396083
0.681966
0.530522
0.68446
0.584787
0.619981
0.684015
0.507612
0.685398
0.367351
0.595573
0.670849
0.435428
0.597948
0.704336
0.698419
0.409843
0.68421
0.369782
0.508032
0.508724
0.367443
0.601729
0.475849
0.599737
0.683855
0.569847
0.510734
0.583821
0.597679
0.597703
0.645846
0.367275
0.427254
0.395514
0.484827
0.532565
0.597708
0.700485
0.539989
0.683853
0.676211
0.456517
0.692956
0.597839
0.683853
0.386092
0.69307
0.661751
0.683851
0.694653
0.484547
0.684659
0.687605
0.682241
0.597702
0.683952
0.52101
0.509036
0.684404
0.595735
0.367059
0.684056
0.498056
0.597566
0.597727
0.699043
0.698301
0.505602
0.697016
0.584067
0.396229
0.600954
0.688818
0.689263
0.691357
0.599435
0.508275
0.69255
0.486791
0.587748
0.692882
0.690288
0.686672
0.391724
0.523086
0.693037
0.527454
0.688701
0.5977
0.579434
0.538504
0.69001
0.505269
0.684045
0.688252
0.602373
0.506134
0.470955
0.595837
0.597674
0.597702
0.594334
0.684089
0.651852
0.695745
0.704338
0.677757
0.412624
0.536204
0.690006
0.683935
0.616281
0.580197
0.466184
0.635776
0.469028
0.684412
0.5977
0.566917
0.685517
0.372976
0.700914
0.508535
0.690916
0.502427
0.684397
0.683924
0.506312
0.700146
0.597704
0.510261
0.683847
0.684262
0.597687
0.472201
0.571728
0.594617
0.686825
0.64125
0.549783
0.597671
0.679466
0.684052
0.532378
0.59771
0.685962
0.574198
0.684084
0.684181
0.53902
0.685539
0.687288
0.502066
0.5977
0.397663
0.598688
0.404252
0.494782
0.689926
0.367551
0.367253
0.466621
0.684508
0.685339
0.588526
0.684243
0.568303
0.626558
0.369025
0.684138
0.575942
0.684116
0.684444
0.600745
0.683925
0.596766
0.683921
0.683831
0.527221
0.5977
0.600484
0.5977
0.67764
0.58521
0.591768
0.692418
0.374341
0.597685
0.554718
0.684177
0.445222
0.508497
0.647033
0.684285
0.37383
0.692472
0.619719
0.704331
0.694383
0.692807
0.36944
0.693227
0.368697
0.50408
0.700004
0.645269
0.695496
0.695817
0.496279
0.409321
0.385991
0.676634
0.683831
0.568873
0.700636
0.440847
0.409351
0.451345
0.698967
0.574459
0.692942
0.685739
0.5977
0.69134
0.685284
0.5977
0.602732
0.572287
0.508451
0.371892
0.691952
0.694114
0.451628
0.59771
0.696398
0.601139
0.516801
0.596568
0.655295
0.538655
0.641882
0.598733
0.367808
0.683869
0.6693
0.367062
0.684367
0.437015
0.68647
0.693876
0.680721
0.471465
0.578571
0.597997
0.542553
0.572902
0.688067
0.546407
0.683888
0.685345
0.700532
0.617509
0.576409
0.685641
0.600896
0.684264
0.557524
0.691601
0.492495
0.465707
0.688618
0.68442
0.683828
0.527556
0.684016
0.5977
0.693268
0.431572
0.440208
0.367014
0.691515
0.393693
0.444942
0.504145
0.59875
0.441811
0.540073
0.573401
0.68467
0.367174
0.683861
0.68388
0.692937
0.413863
0.685004
0.597721
0.68386
0.569036
0.597702
0.405943
0.374262
0.684171
0.373933
0.597727
0.674466
0.703127
0.367242
0.549052
0.412689
0.597323
0.704195
0.529661
0.685279
0.684376
0.626604
0.36976
0.48331
0.55264
0.661065
0.367089
0.704362
0.5977
0.683887
0.68671
0.378913
0.597789
0.488569
0.602653
0.5977
0.693784
0.598063
0.5977
0.59771
0.620139
0.690525
0.389106
0.585333
0.448474
0.616649
0.597649
0.689899
0.367268
0.573315
0.677661
0.68494
0.684114
0.372022
0.693909
0.597265
0.597442
0.645159
0.520685
0.371493
0.539872
0.68448
0.68395
0.597701
0.698894
0.551223
0.698627
0.597702
0.683941
0.683872
0.698087
0.693009
0.684016
0.654673
0.687841
0.51971
0.685965
0.691715
0.684061
0.687177
0.684437
0.597713
0.367683
0.504107
0.601763
0.367067
0.57294
0.694813
0.461727
0.5977
0.684745
0.675006
0.68452
0.515791
0.695328
0.509097
0.461844
0.684024
0.683329
0.684163
0.42238
0.692465
0.684188
0.609924
0.684237
0.504122
0.684004
0.693211
0.661366
0.590646
0.648865
0.379164
0.690631
0.443919
0.367447
0.597701
0.582844
0.693388
0.670454
0.684087
0.497021
0.683989
0.589679
0.466775
0.700731
0.583165
0.367044
0.68414
0.512948
0.590078
0.598118
0.667278
0.696537
0.584292
0.597697
0.597769
0.684013
0.597718
0.689601
0.595946
0.697044
0.698488
0.597719
0.491705
0.38375
0.58153
0.691089
0.512549
0.597742
0.693212
0.5977
0.684023
0.5977
0.598342
0.607569
0.38634
0.692146
0.695411
0.5977
0.695264
0.692831
0.700838
0.683989
0.369756
0.454448
0.683943
0.597667
0.5977
0.689249
0.684428
0.684251
0.69107
0.693517
0.597701
0.654799
0.69398
0.457236
0.51571
0.449744
0.556576
0.700332
0.590259
0.597699
0.685355
0.613679
0.509539
0.684457
0.690003
0.427108
0.564161
0.698372
0.687617
0.526582
0.494813
0.484416
0.70435
0.700648
0.593597
0.412102
0.368391
0.50498
0.566127
0.367008
0.69714
0.684441
0.667386
0.391184
0.676676
0.597702
0.5977
0.547004
0.373892
0.700794
0.7042
0.367055
0.684109
0.367082
0.652929
0.519513
0.693436
0.39223
0.693967
0.692686
0.409125
0.597477
0.530386
0.693099
0.510995
0.597704
0.493944
0.597251
0.40464
0.597703
0.372771
0.68402
0.684002
0.5977
0.679156
0.549913
0.685148
0.6839
0.69252
0.597701
0.626566
0.372747
0.596981
0.448415
0.684929
0.539893
0.691356
0.597305
0.641302
0.693378
0.597689
0.682537
0.467935
0.457363
0.45664
0.596994
0.597704
0.684371
0.386566
0.514773
0.684056
0.564727
0.503515
0.597717
0.565553
0.36704
0.502424
0.695293
0.5977
0.597707
0.483045
0.683873
0.684742
0.50099
0.552072
0.696613
0.684181
0.601308
0.591445
0.569322
0.557741
0.41025
0.699381
0.603996
0.597659
0.600637
0.485168
0.5977
0.37584
0.684725
0.691481
0.37032
0.52549
0.607027
0.597712
0.692185
0.688317
0.689386
0.694325
0.692891
0.424886
0.510145
0.452133
0.378744
0.5977
0.686081
0.5977
0.372843
0.367288
0.596468
0.504606
0.684267
0.662719
0.367473
0.546507
0.684709
0.503265
0.597785
0.682027
0.691286
0.684017
0.5977
0.366976
0.400489
0.654675
0.369352
0.59404
0.587648
0.683962
0.687256
0.534164
0.367672
0.704253
0.374406
0.684765
0.685086
0.367068
0.477906
0.429654
0.684508
0.432204
0.704342
0.661315
0.5977
0.499021
0.595331
0.689667
0.686689
0.392804
0.686676
0.601041
0.5086
0.687761
0.695118
0.388941
0.367265
0.699963
0.378776
0.378854
0.685464
0.555896
0.684376
0.598152
0.67655
0.599637
0.691264
0.6848
0.683888
0.388563
0.567505
0.615764
0.683928
0.578029
0.693145
0.554418
0.686947
0.696472
0.597697
0.597723
0.596813
0.585622
0.684424
0.689611
0.698072
0.692812
0.684156
0.702036
0.694927
0.704338
0.700627
0.700682
0.69823
0.703942
0.683904
0.509106
0.700735
0.52421
0.689511
0.686161
0.665519
0.69268
0.610774
0.471693
0.411767
0.544778
0.389744
0.68849
0.386398
0.389291
0.623274
0.494611
0.651486
0.406651
0.686777
0.684833
0.367567
0.5641
0.569098
0.690822
0.480785
0.684375
0.685073
0.418458
0.700733
0.597539
0.581079
0.532771
0.501754
0.600067
0.367211
0.692555
0.5977
0.536429
0.684357
0.684137
0.688851
0.367087
0.5977
0.494519
0.677416
0.684011
0.686402
0.366992
0.683686
0.688802
0.69881
0.578752
0.690487
0.367028
0.368844
0.695907
0.589492
0.693507
0.596658
0.367009
0.575189
0.698773
0.519775
0.509551
0.469936
0.597684
0.69082
0.6854
0.456659
0.597701
0.684246
0.597258
0.597319
0.56572
0.597562
0.366985
0.371087
0.684522
0.368358
0.367112
0.694045
0.692561
0.431044
0.621426
0.426856
0.700118
0.540726
0.700706
0.684166
0.613937
0.683858
0.489184
0.372059
0.504859
0.684068
0.70025
0.597696
0.597569
0.561217
0.543653
0.684013
0.386194
0.684388
0.560846
0.684006
0.599293
0.406446
0.494735
0.367843
0.367675
0.505869
0.609376
0.685124
0.390796
0.685417
0.597711
0.541358
0.469581
0.692022
0.367079
0.684839
0.570854
0.618995
0.597742
0.684909
0.689796
0.460053
0.6936
0.690048
0.694913
0.367373
0.634706
0.597699
0.570696
0.691462
0.601313
0.698318
0.686441
0.692922
0.697134
0.694512
0.684087
0.68424
0.367683
0.683776
0.367788
0.59689
0.687818
0.503153
0.690663
0.678463
0.509888
0.698327
0.367373
0.506689
0.699262
0.654495
0.692679
0.37368
0.687816
0.5977
0.539573
0.391067
0.700796
0.684588
0.563178
0.480325
0.671415
0.692502
0.367146
0.597719
0.692593
0.5977
0.422418
0.36705
0.500537
0.597737
0.504264
0.686059
0.613598
0.684027
0.597706
0.685056
0.37334
0.698272
0.5977
0.692563
0.598117
0.510478
0.3915
0.489566
0.662471
0.68618
0.569456
0.597733
0.562255
0.601658
0.688564
0.47561
0.600198
0.685747
0.597701
0.395937
0.401103
0.558615
0.687947
0.693409
0.5977
0.59153
0.684998
0.367072
0.597701
0.69649
0.683494
0.398954
0.5977
0.513927
0.689516
0.497768
0.684356
0.699486
0.478826
0.687924
0.597619
0.704044
0.597844
0.704384
0.694186
0.590499
0.683995
0.684149
0.686629
0.684358
0.580915
0.698879
0.440675
0.684208
0.486102
0.36912
0.497613
0.501681
0.367034
0.395199
0.692987
0.559016
0.44969
0.598433
0.688332
0.686147
0.592855
0.609151
0.600208
0.683992
0.521841
0.597858
0.685036
0.538258
0.490003
0.372486
0.597702
0.589241
0.367109
0.597721
0.496557
0.689513
0.587787
0.420989
0.583121
0.597717
0.560728
0.684633
0.477946
0.597699
0.562444
0.698901
0.568816
0.599183
0.696591
0.692832
0.597419
0.368162
0.69987
0.69286
0.494216
0.508128
0.684095
0.368552
0.644211
0.390441
0.597519
0.488072
0.684779
0.511535
0.692991
0.369629
0.689419
0.685431
0.690295
0.700784
0.439263
0.499393
0.592584
0.700822
0.621082
0.69857
0.597706
0.511123
0.680473
0.565683
0.70024
0.632776
0.593218
0.53775
0.682788
0.684424
0.492129
0.684879
0.699999
0.68674
0.677571
0.48107
0.597701
0.367235
0.68815
0.507626
0.683807
0.700719
0.701137
0.693112
0.539186
0.691546
0.367678
0.392205
0.684584
0.697895
0.597684
0.684198
0.699545
0.367056
0.635776
0.699119
0.694948
0.507967
0.581486
0.602005
0.390133
0.68737
0.694366
0.68877
0.69823
0.538987
0.595152
0.597704
0.483905
0.697578
0.692568
0.596391
0.699841
0.534598
0.651355
0.639521
0.59785
0.700081
0.401182
0.511687
0.684388
0.687579
0.502547
0.555434
0.502492
0.496053
0.448601
0.507448
0.537985
0.367075
0.684376
0.484979
0.423147
0.669344
0.597687
0.704091
0.571178
0.367408
0.684396
0.594685
0.597697
0.692488
0.566136
0.597705
0.683878
0.5977
0.682596
0.478561
0.68561
0.683872
0.430402
0.369736
0.592769
0.67608
0.5977
0.692958
0.684103
0.683497
0.682136
0.587363
0.686472
0.68388
0.700926
0.367357
0.685098
0.603317
0.585301
0.579532
0.429071
0.488314
0.450213
0.5977
0.598185
0.672048
0.370268
0.56639
0.692706
0.506214
0.683757
0.684169
0.688273
0.597821
0.684806
0.533489
0.49154
0.487758
0.5977
0.503903
0.684378
0.488305
0.684256
0.684083
0.685585
0.550272
0.593801
0.58787
0.68522
0.467917
0.373798
0.695611
0.683592
0.597991
0.684102
0.700928
0.643088
0.366936
0.5977
0.691117
0.594732
0.684813
0.683962
0.665053
0.574807
0.568625
0.694953
0.587023
0.597711
0.367355
0.66201
0.690167
0.591554
0.504464
0.67234
0.596226
0.689901
0.683047
0.367167
0.372859
0.687202
0.597514
0.593797
0.691916
0.700759
0.51706
0.686148
0.686706
0.691377
0.366945
0.5977
0.36696
0.693037
0.691385
0.646605
0.664925
0.685952
0.542075
0.567185
0.678236
0.36968
0.5977
0.530179
0.685263
0.46719
0.597798
0.690683
0.687805
0.366976
0.704382
0.693264
0.376624
0.656799
0.50129
0.694861
0.367018
0.39996
0.476195
0.649585
0.685115
0.551217
0.543529
0.700359
0.692806
0.586754
0.60572
0.367045
0.597691
0.367857
0.677166
0.373084
0.598997
0.698046
0.535332
0.597472
0.396703
0.683917
0.440574
0.374764