# vtk DataFile Version 1.0
unstructured grid
ascii
DATASET UNSTRUCTURED_GRID
points 13672 float
0.0796578 -0.059106 0
0.00128732 0.00159165 0
0.00227961 -0.00102548 0
0.0791586 -0.0598787 0
-0.0546216 0.01 0
0.000495206 0.025 0
0.0800549 -0.035 0
0.135172 -0.08 0
-0.0546216 -0.0451168 0
0.000495206 -0.0301168 0
0.0800549 -0.0901168 0
0.135172 -0.135117 0
-0.0546216 -0.0451168 -0.00551168
0.000495206 -0.0301168 -0.00551168
0.0800549 -0.0901168 -0.00551168
0.135172 -0.135117 -0.00551168
0.135172 -0.08 -0.00551168
0.0800549 -0.035 -0.00551168
0.000495206 0.025 -0.00551168
-0.0546216 0.01 -0.00551168
0.00128732 0.00159165 -0.00551168
0.00227961 -0.00102548 -0.00551168
0.0791586 -0.0598787 -0.00551168
0.0796578 -0.059106 -0.00551168
0.00165953 -0.000990923 0
0.00119576 -0.000874076 0
0.000866021 -0.000641801 0
0.000645147 -0.000349912 0
0.00052235 -1.7281e-05 0
0.00049972 0.000348016 0
0.000601632 0.000737716 0
0.000861774 0.0011403 0
0.00157235 0.00183217 0
0.00188647 0.00206725 0
0.00222612 0.00230203 0
0.00258713 0.00254351 0
0.00296826 0.00279524 0
0.00337118 0.00305664 0
0.00379785 0.00332658 0
0.00425045 0.00360349 0
0.00473139 0.00388521 0
0.0052432 0.00416895 0
0.0057881 0.00445204 0
0.00636753 0.00473281 0
0.00698281 0.00500961 0
0.00763526 0.00528058 0
0.00832616 0.00554366 0
0.00905691 0.00579603 0
0.00982918 0.00603333 0
0.0106445 0.00625033 0
0.0115038 0.00644128 0
0.0124073 0.00660297 0
0.0133543 0.00673414 0
0.0143444 0.00683382 0
0.0153769 0.00690031 0
0.0164512 0.00693173 0
0.0175666 0.00692547 0
0.0187219 0.00687822 0
0.0199156 0.00678477 0
0.0211454 0.00663864 0
0.0224084 0.00643275 0
0.0237018 0.00616676 0
0.0250249 0.00584739 0
0.026375 0.00547298 0
0.0277479 0.00503752 0
0.0291386 0.00453545 0
0.0305433 0.0039653 0
0.0319572 0.0033256 0
0.0333681 0.00260019 0
0.034775 0.00179799 0
0.0361793 0.000930615 0
0.0375798 3.12222e-06 0
0.0389689 -0.000988429 0
0.0403357 -0.00205109 0
0.041675 -0.00318283 0
0.0429849 -0.00437751 0
0.0442643 -0.00562904 0
0.0455126 -0.00693089 0
0.0467314 -0.00827518 0
0.0479204 -0.00965638 0
0.0490661 -0.0110799 0
0.0501515 -0.0125519 0
0.0511696 -0.0140695 0
0.0521492 -0.0156071 0
0.0531202 -0.0171411 0
0.0540851 -0.0186663 0
0.0550431 -0.0201798 0
0.0559923 -0.0216793 0
0.0569311 -0.0231626 0
0.0578582 -0.0246273 0
0.0587723 -0.0260715 0
0.0596721 -0.027493 0
0.0605563 -0.02889 0
0.0614241 -0.0302609 0
0.0622742 -0.0316042 0
0.063106 -0.0329183 0
0.0639186 -0.034202 0
0.0647113 -0.0354543 0
0.0654835 -0.0366743 0
0.0662345 -0.0378613 0
0.0669642 -0.0390145 0
0.0676726 -0.0401333 0
0.0683597 -0.0412172 0
0.0690246 -0.0422665 0
0.0696662 -0.0432819 0
0.0702841 -0.0442636 0
0.0708793 -0.0452111 0
0.0714538 -0.0461237 0
0.072009 -0.047001 0
0.0725452 -0.0478434 0
0.0730611 -0.0486524 0
0.073556 -0.0494294 0
0.0740291 -0.0501756 0
0.0744812 -0.0508916 0
0.0749138 -0.0515773 0
0.0753285 -0.0522331 0
0.0757266 -0.0528592 0
0.076109 -0.0534564 0
0.0764753 -0.0540264 0
0.0768243 -0.054571 0
0.0771553 -0.0550919 0
0.0774679 -0.0555901 0
0.0777617 -0.0560669 0
0.0780369 -0.056523 0
0.0782958 -0.0569578 0
0.0785421 -0.0573703 0
0.0787786 -0.0577603 0
0.0790073 -0.0581279 0
0.0792295 -0.058474 0
0.0794462 -0.0587995 0
0.0798803 -0.0594162 0
0.0800272 -0.0596588 0
0.0800357 -0.0598891 0
0.0799275 -0.0600784 0
0.0797205 -0.0601773 0
0.0794593 -0.0601051 0
0.0789155 -0.0596491 0
0.0786707 -0.0593963 0
0.0784111 -0.0591319 0
0.0781372 -0.0588542 0
0.0778566 -0.0585548 0
0.0775715 -0.0582308 0
0.0772803 -0.0578828 0
0.0769832 -0.0575099 0
0.0766822 -0.0571097 0
0.0763801 -0.0566796 0
0.0760759 -0.0562196 0
0.0757623 -0.0557337 0
0.0754359 -0.0552232 0
0.0750951 -0.0546879 0
0.0747379 -0.054128 0
0.0743626 -0.0535435 0
0.0739688 -0.0529338 0
0.0735559 -0.0522981 0
0.0731238 -0.0516357 0
0.0726718 -0.050946 0
0.0721991 -0.0502288 0
0.0717046 -0.049484 0
0.0711872 -0.0487117 0
0.0706461 -0.047912 0
0.0700804 -0.0470849 0
0.0694892 -0.0462308 0
0.0688718 -0.0453499 0
0.0682271 -0.0444431 0
0.0675544 -0.043511 0
0.0668527 -0.0425546 0
0.0661215 -0.0415748 0
0.06536 -0.040573 0
0.0645676 -0.0395504 0
0.0637439 -0.0385087 0
0.0628887 -0.0374493 0
0.062002 -0.0363741 0
0.0610838 -0.0352847 0
0.0601345 -0.0341831 0
0.0591547 -0.033071 0
0.0581456 -0.0319502 0
0.0571083 -0.0308224 0
0.0560444 -0.0296893 0
0.0549562 -0.028552 0
0.053845 -0.0274126 0
0.0527113 -0.0262746 0
0.051554 -0.0251427 0
0.0503724 -0.0240222 0
0.0491675 -0.0229164 0
0.047941 -0.0218282 0
0.0466955 -0.0207597 0
0.0454337 -0.0197126 0
0.0441592 -0.0186878 0
0.0428751 -0.0176863 0
0.0415841 -0.0167097 0
0.0402878 -0.0157609 0
0.0389879 -0.0148428 0
0.0376864 -0.0139575 0
0.0363853 -0.013107 0
0.0350871 -0.0122931 0
0.0337942 -0.0115164 0
0.0325095 -0.0107772 0
0.0312357 -0.0100756 0
0.0299758 -0.00941024 0
0.0287337 -0.00877784 0
0.0275126 -0.00817571 0
0.0263139 -0.00760375 0
0.0251376 -0.00706528 0
0.0239829 -0.0065649 0
0.0228537 -0.00609619 0
0.0217522 -0.00565563 0
0.0206795 -0.00524226 0
0.0196364 -0.00485507 0
0.0186233 -0.00449318 0
0.0176408 -0.00415577 0
0.016689 -0.00384204 0
0.0157682 -0.00355115 0
0.0148783 -0.00328218 0
0.0140192 -0.00303468 0
0.0131906 -0.00280795 0
0.0123925 -0.00260016 0
0.0116246 -0.00241012 0
0.0108864 -0.00223769 0
0.0101774 -0.00208212 0
0.00949701 -0.00194206 0
0.00884483 -0.0018163 0
0.0082202 -0.0017039 0
0.00762247 -0.00160391 0
0.00705097 -0.00151528 0
0.006505 -0.00143697 0
0.0059838 -0.00136806 0
0.00548662 -0.00130772 0
0.00501265 -0.00125519 0
0.00456114 -0.00120954 0
0.00413136 -0.00116914 0
0.00372257 -0.00113251 0
0.00333398 -0.00109853 0
0.00296466 -0.00106798 0
0.00261363 -0.0010431 0
-0.052721 -0.0445996 0
-0.0508204 -0.0440823 0
-0.0489199 -0.0435651 0
-0.0470193 -0.0430478 0
-0.0451187 -0.0425306 0
-0.0432181 -0.0420134 0
-0.0413175 -0.0414961 0
-0.039417 -0.0409789 0
-0.0375164 -0.0404616 0
-0.0356158 -0.0399444 0
-0.0337152 -0.0394271 0
-0.0318146 -0.0389099 0
-0.0299141 -0.0383927 0
-0.0280135 -0.0378754 0
-0.0261129 -0.0373582 0
-0.0242123 -0.0368409 0
-0.0223117 -0.0363237 0
-0.0204112 -0.0358065 0
-0.0185106 -0.0352892 0
-0.01661 -0.034772 0
-0.0147094 -0.0342547 0
-0.0128088 -0.0337375 0
-0.0109083 -0.0332202 0
-0.00900769 -0.032703 0
-0.00710711 -0.0321858 0
-0.00520653 -0.0316685 0
-0.00330595 -0.0311513 0
-0.00140537 -0.030634 0
0.00190689 -0.0299614 0
0.00332271 -0.0298498 0
0.00474133 -0.0297825 0
0.00616136 -0.0297597 0
0.0075814 -0.0297814 0
0.00900007 -0.0298477 0
0.010416 -0.0299583 0
0.0118278 -0.0301127 0
0.0132342 -0.0303103 0
0.0146339 -0.0305504 0
0.0160259 -0.0308322 0
0.0174091 -0.0311546 0
0.0187824 -0.0315166 0
0.020145 -0.031917 0
0.0214961 -0.0323546 0
0.0228351 -0.032828 0
0.0241613 -0.0333361 0
0.0254744 -0.0338774 0
0.0267738 -0.0344507 0
0.0280592 -0.0350545 0
0.0293306 -0.0356877 0
0.0305875 -0.0363488 0
0.0318301 -0.0370367 0
0.0330581 -0.0377501 0
0.0342717 -0.0384879 0
0.0354708 -0.0392489 0
0.0366556 -0.0400321 0
0.0378262 -0.0408363 0
0.0389828 -0.0416607 0
0.0401254 -0.0425042 0
0.0412543 -0.0433659 0
0.0423698 -0.0442451 0
0.043472 -0.0451408 0
0.0445612 -0.0460523 0
0.0456375 -0.0469789 0
0.0467013 -0.0479199 0
0.0477529 -0.0488746 0
0.0487923 -0.0498424 0
0.04982 -0.0508227 0
0.0508362 -0.051815 0
0.051841 -0.0528187 0
0.0528348 -0.0538333 0
0.0538178 -0.0548584 0
0.0547903 -0.0558935 0
0.0557524 -0.0569382 0
0.0567045 -0.0579922 0
0.0576467 -0.0590549 0
0.0585792 -0.0601261 0
0.0595024 -0.0612055 0
0.0604163 -0.0622926 0
0.0613212 -0.0633873 0
0.0622174 -0.0644891 0
0.0631049 -0.0655979 0
0.0639841 -0.0667134 0
0.064855 -0.0678353 0
0.0657179 -0.0689633 0
0.0665729 -0.0700974 0
0.0674202 -0.0712372 0
0.06826 -0.0723826 0
0.0690925 -0.0735333 0
0.0699178 -0.0746892 0
0.070736 -0.0758501 0
0.0715473 -0.0770159 0
0.0723518 -0.0781863 0
0.0731498 -0.0793612 0
0.0739412 -0.0805405 0
0.0747264 -0.081724 0
0.0755053 -0.0829116 0
0.0762781 -0.0841033 0
0.0770449 -0.0852987 0
0.0778059 -0.0864979 0
0.0785611 -0.0877007 0
0.0793108 -0.088907 0
0.0814681 -0.0912706 0
0.0828814 -0.0924245 0
0.0842946 -0.0935783 0
0.0857079 -0.0947322 0
0.0871211 -0.095886 0
0.0885344 -0.0970399 0
0.0899476 -0.0981937 0
0.0913609 -0.0993476 0
0.0927741 -0.100501 0
0.0941874 -0.101655 0
0.0956006 -0.102809 0
0.0970139 -0.103963 0
0.0984272 -0.105117 0
0.0998404 -0.106271 0
0.101254 -0.107424 0
0.102667 -0.108578 0
0.10408 -0.109732 0
0.105493 -0.110886 0
0.106907 -0.11204 0
0.10832 -0.113194 0
0.109733 -0.114348 0
0.111146 -0.115501 0
0.11256 -0.116655 0
0.113973 -0.117809 0
0.115386 -0.118963 0
0.116799 -0.120117 0
0.118213 -0.121271 0
0.119626 -0.122424 0
0.121039 -0.123578 0
0.122452 -0.124732 0
0.123866 -0.125886 0
0.125279 -0.12704 0
0.126692 -0.128194 0
0.128105 -0.129348 0
0.129519 -0.130501 0
0.130932 -0.131655 0
0.132345 -0.132809 0
0.133758 -0.133963 0
0.135172 -0.133216 0
0.135172 -0.131316 0
0.135172 -0.129415 0
0.135172 -0.127514 0
0.135172 -0.125614 0
0.135172 -0.123713 0
0.135172 -0.121813 0
0.135172 -0.119912 0
0.135172 -0.118012 0
0.135172 -0.116111 0
0.135172 -0.11421 0
0.135172 -0.11231 0
0.135172 -0.110409 0
0.135172 -0.108509 0
0.135172 -0.106608 0
0.135172 -0.104708 0
0.135172 -0.102807 0
0.135172 -0.100906 0
0.135172 -0.0990058 0
0.135172 -0.0971052 0
0.135172 -0.0952046 0
0.135172 -0.0933041 0
0.135172 -0.0914035 0
0.135172 -0.0895029 0
0.135172 -0.0876023 0
0.135172 -0.0857017 0
0.135172 -0.0838012 0
0.135172 -0.0819006 0
0.133758 -0.0788462 0
0.132345 -0.0776923 0
0.130932 -0.0765385 0
0.129519 -0.0753846 0
0.128105 -0.0742308 0
0.126692 -0.0730769 0
0.125279 -0.0719231 0
0.123866 -0.0707692 0
0.122452 -0.0696154 0
0.121039 -0.0684615 0
0.119626 -0.0673077 0
0.118213 -0.0661538 0
0.116799 -0.065 0
0.115386 -0.0638462 0
0.113973 -0.0626923 0
0.11256 -0.0615385 0
0.111146 -0.0603846 0
0.109733 -0.0592308 0
0.10832 -0.0580769 0
0.106907 -0.0569231 0
0.105493 -0.0557692 0
0.10408 -0.0546154 0
0.102667 -0.0534615 0
0.101254 -0.0523077 0
0.0998404 -0.0511538 0
0.0984272 -0.05 0
0.0970139 -0.0488462 0
0.0956006 -0.0476923 0
[...]
CELL_DATA 13116
SCALARS rho float
LOOKUP_TABLE default
0.597666
0.699919
0.391226
0.69912
0.703129
0.691204
0.335716
0.701051
0.594388
0.704548
0.334909
0.39874
0.703073
0.369135
0.392068
0.692598
0.597985
0.712252
0.701277
0.335323
0.597699
0.427079
0.385507
0.70964
0.5977
0.697324
0.704606
0.400233
0.597704
0.655007
0.643929
0.400804
0.597288
0.559602
0.338328
0.5977
0.712027
0.700734
0.689199
0.698992
0.688983
0.700919
0.594599
0.378804
0.699801
0.701509
0.692275
0.695417
0.417205
0.584396
0.700118
0.583672
0.347812
0.594559
0.597562
0.5977
0.377238
0.708606
0.586484
0.40341
0.370516
0.701973
0.693541
0.68926
0.670977
0.355064
0.697179
0.709059
0.697371
0.68539
0.391908
0.597645
0.427301
0.368578
0.551024
0.370022
0.695082
0.701093
0.333803
0.714461
0.708137
0.696815
0.709497
0.703107
0.697487
0.51254
0.338297
0.695815
0.69751
0.336301
0.392341
0.70095
0.708723
0.699384
0.690531
0.5977
0.5977
0.58583
0.569136
0.597702
0.750761
0.686447
0.697256
0.54732
0.690418
0.40371
0.48284
0.596557
0.392735
0.5977
0.59771
0.693875
0.597699
0.711032
0.713716
0.697606
0.349172
0.500921
0.699767
0.698142
0.709411
0.431899
0.697434
0.390264
0.699425
0.535427
0.341184
0.570105
0.386608
0.582628
0.700001
0.714634
0.548054
0.421111
0.536981
0.679819
0.557639
0.698377
0.753887
0.698197
0.691086
0.692862
0.572207
0.691115
0.692643
0.380093
0.337656
0.696026
0.703152
0.699854
0.577314
0.704338
0.694969
0.346416
0.704522
0.697825
0.390404
0.735687
0.595021
0.693379
0.709668
0.334603
0.707426
0.389567
0.429303
0.70204
0.698839
0.712652
0.337258
0.525189
0.508527
0.557536
0.388935
0.567727
0.69784
0.386359
0.404692
0.428193
0.693713
0.689541
0.336116
0.522779
0.597706
0.707013
0.689549
0.58823
0.343863
0.698782
0.689787
0.551245
0.69677
0.695539
0.687699
0.396596
0.693491
0.688848
0.705968
0.699035
0.697432
0.504854
0.551066
0.5977
0.567463
0.372644
0.702682
0.705872
0.586087
0.597702
0.393762
0.336213
0.366775
0.695509
0.393413
0.336025
0.336467
0.349346
0.493638
0.689525
0.699309
0.506924
0.374257
0.697125
0.597708
0.336124
0.576518
0.703671
0.692608
0.401558
0.697676
0.493866
0.700705
0.398862
0.689383
0.594842
0.548464
0.698648
0.688919
0.420797
0.533434
0.68477
0.551119
0.689301
0.557567
0.689569
0.70083
0.408613
0.699389
0.70373
0.566205
0.335336
0.420488
0.707098
0.699417
0.686896
0.697298
0.597676
0.71914
0.335094
0.432203
0.51259
0.391729
0.688902
0.705879
0.694732
0.333481
0.698613
0.346305
0.508947
0.690643
0.336182
0.697244
0.700465
0.556481
0.708427
0.418965
0.557598
0.707719
0.57614
0.69839
0.334252
0.335159
0.396324
0.676321
0.428257
0.433745
0.472401
0.460132
0.699408
0.353736
0.698071
0.701972
0.337077
0.336214
0.343782
0.532819
0.401317
0.692233
0.683367
0.692512
0.335987
0.69557
0.593145
0.431422
0.402999
0.689155
0.699181
0.698999
0.345811
0.688674
0.546855
0.714364
0.700665
0.699362
0.70075
0.39678
0.697596
0.374166
0.697575
0.70425
0.594101
0.336362
0.470266
0.703585
0.343572
0.694479
0.701893
0.480572
0.72496
0.709458
0.338863
0.698663
0.708688
0.370594
0.700242
0.510142
0.586665
0.70245
0.513212
0.73505
0.3334
0.710864
0.473918
0.689652
0.686397
0.706645
0.400024
0.484866
0.697659
0.344356
0.701747
0.690428
0.519542
0.557875
0.34453
0.412601
0.698577
0.579963
0.704801
0.337157
0.390766
0.699394
0.702229
0.336035
0.700882
0.356915
0.407991
0.698054
0.701938
0.597714
0.336253
0.698794
0.658906
0.692146
0.698822
0.705292
0.579496
0.437844
0.385737
0.336146
0.690583
0.336132
0.597704
0.486655
0.395368
0.481397
0.597709
0.292674
0.341851
0.69764
0.391517
0.70716
0.597702
0.698756
0.680865
0.699757
0.413495
0.334728
0.513102
0.456686
0.698784
0.597699
0.692213
0.597702
0.693739
0.596316
0.696131
0.695413
0.640175
0.704171
0.715681
0.689234
0.516521
0.578881
0.597691
0.420045
0.68273
0.5977
0.346301
0.69747
0.555365
0.397718
0.33586
0.336274
0.340783
0.5977
0.363566
0.39653
0.69632
0.354471
0.59576
0.336405
0.69268
0.719394
0.406273
0.421309
0.69827
0.530138
0.336311
0.339787
0.336207
0.393482
0.334905
0.336054
0.438403
0.511525
0.336124
0.686021
0.427615
0.697687
0.478432
0.385388
0.541752
0.383869
0.33635
0.38501
0.698848
0.517235
0.5977
0.597711
0.351821
0.597704
0.697751
0.510831
0.724971
0.589279
0.611846
0.334755
0.561394
0.501838
0.70722
0.604014
0.396644
0.353113
0.689566
0.458935
0.512234
0.686762
0.482069
0.741151
0.692405
0.336322
0.401117
0.379191
0.566061
0.399825
0.361707
0.388904
0.372107
0.701259
0.700965
0.536208
0.597701
0.539668
0.693286
0.485102
0.36002
0.595217
0.397006
0.711326
0.446572
0.490767
0.545467
0.699736
0.698708
0.584183
0.476555
0.349963
0.582154
0.70083
0.688874
0.580531
0.69063
0.688443
0.336178
0.718989
0.593505
0.678792
0.46853
0.402247
0.71122
0.706131
0.670707
0.704272
0.697021
0.697982
0.709971
0.63282
0.69657
0.335954
0.699298
0.476858
0.399513
0.336043
0.699774
0.706139
0.46566
0.697377
0.5977
0.336413
0.689089
0.698938
0.704602
0.399596
0.356726
0.701125
0.33615
0.336266
0.392801
0.336226
0.710804
0.366653
0.698781
0.425968
0.700312
0.700373
0.696718
0.70266
0.336217
0.336241
0.70831
0.70049
0.703549
0.701505
0.703911
0.534545
0.337253
0.397821
0.692795
0.590808
0.336372
0.529522
0.395052
0.700915
0.698433
0.467393
0.43092
0.697184
0.51601
0.697997
0.597699
0.384843
0.49306
0.699267
0.553156
0.390201
0.698466
0.698837
0.707439
0.361509
0.557434
0.373074
0.552157
0.675528
0.336263
0.491493
0.435066
0.552918
0.393002
0.333696
0.503639
0.689154
0.702498
0.333525
0.428478
0.336268
0.689309
0.429448
0.689401
0.378058
0.5977
0.703961
0.483075
0.388368
0.386449
0.535735
0.398039
0.698308
0.350674
0.36957
0.688869
0.365563
0.695861
0.694003
0.559254
0.336354
0.710395
0.706816
0.705826
0.694809
0.701639
0.697907
0.392572
0.686869
0.508763
0.707005
0.333995
0.700578
0.585852
0.340279
0.657203
0.703987
0.347114
0.700664
0.393862
0.389049
0.695965
0.698728
0.393525
0.384781
0.333607
0.393611
0.70125
0.709565
0.358258
0.336221
0.701814
0.698379
0.597704
0.706812
0.69826
0.334934
0.706442
0.512027
0.700216
0.507191
0.5977
0.531946
0.697477
0.705621
0.593496
0.481155
0.398406
0.699101
0.597704
0.596872
0.707067
0.386709
0.706387
0.704784
0.495525
0.580281
0.706155
0.482781
0.678164
0.687339
0.468047
0.698381
0.688466
0.40274
0.704454
0.396112
0.696931
0.374427
0.695653
0.693144
0.399733
0.689509
0.707379
0.701462
0.5977
0.717481
0.593799
0.45688
0.542306
0.382277
0.367901
0.557837
0.57855
0.697561
0.703132
0.336232
0.446629
0.716329
0.704038
0.698508
0.700499
0.335638
0.716757
0.703507
0.335611
0.385866
0.699853
0.706656
0.696965
0.399095
0.595338
0.407716
0.705457
0.694283
0.689048
0.701958
0.336248
0.708949
0.697886
0.708984
0.698651
0.68933
0.507978
0.704676
0.336223
0.68907
0.704146
0.525216
0.693749
0.689402
0.700261
0.559918
0.522098
0.595031
0.591729
0.33616
0.336251
0.336931
0.336261
0.701592
0.709816
0.689029
0.462876
0.335875
0.697266
0.730979
0.368064
0.450436
0.529968
0.712031
0.699051
0.69867
0.711358
0.336244
0.336208
0.557892
0.390885
0.336062
0.354625
0.691824
0.406599
0.336465
0.597702
0.707716
0.693522
0.689219
0.69864
0.350031
0.376143
0.336272
0.597708
0.517565
0.397832
0.705652
0.71286
0.696112
0.695769
0.400362
0.336179
0.704399
0.336288
0.689508
0.693098
0.612889
0.393515
0.336206
0.696696
0.654791
0.630824
0.368201
0.697796
0.689164
0.597703
0.699718
0.700185
0.557906
0.690398
0.335864
0.698466
0.676351
0.689011
0.703583
0.557832
0.694134
0.558327
0.698311
0.367763
0.387068
0.336158
0.653441
0.588357
0.336284
0.716871
0.702262
0.399486
0.701361
0.409241
0.698971
0.597718
0.420604
0.70297
0.710123
0.336362
0.572841
0.659346
0.378694
0.699474
0.36052
0.402311
0.597362
0.5977
0.541569
0.698516
0.338331
0.707403
0.398188
0.402517
0.695772
0.336325
0.5977
0.395732
0.700434
0.5977
0.557771
0.698546
0.385833
0.373015
0.687342
0.596938
0.69825
0.565075
0.597699
0.691515
0.709383
0.59732
0.5977
0.69356
0.706068
0.697252
0.477113
0.33632
0.57046
0.69353
0.706395
0.498923
0.698599
0.620405
0.511173
0.394415
0.613531
0.714468
0.557485
0.552844
0.686655
0.707111
0.689207
0.714172
0.397189
0.612754
0.528759
0.698984
0.706329
0.459822
0.703177
0.702663
0.394185
0.412882
0.342623
0.557808
0.334612
0.597697
0.704328
0.593371
0.445737
0.698516
0.37325
0.595768
0.689547
0.688291
0.703125
0.68922
0.5977
0.710765
0.59557
0.706039
0.374354
0.689274
0.696441
0.593868
0.559553
0.707413
0.396865
0.387658
0.379964
0.69944
0.336299
0.557674
0.336357
0.700911
0.355246
0.532299
0.390229
0.70734
0.70045
0.597535
0.442245
0.5977
0.689544
0.336243
0.597705
0.700929
0.399505
0.5977
0.598644
0.703723
0.689245
0.397373
0.597027
0.70073
0.703124
0.689597
0.336223
0.518054
0.698367
0.557937
0.555722
0.557836
0.597701
0.713362
0.597703
0.698571
0.336244
0.374262
0.557878
0.703036
0.689086
0.358424
0.688915
0.597701
0.588341
0.380764
0.502981
0.700745
0.697407
0.591282
0.448491
0.694496
0.557859
0.335301
0.5977
0.710958
0.335639
0.383369
0.376351
0.690534
0.435356
0.335941
0.698765
0.567646
0.706316
0.703274
0.337969
0.336003
0.701128
0.389022
0.364201
0.649417
0.412604
0.488221
0.597699
0.701725
0.71159
0.336027
0.416054
0.334854
0.693958
0.405331
0.70971
0.364771
0.716208
0.699877
0.699089
0.691578
0.70919
0.694161
0.698925
0.70275
0.697896
0.363788
0.336069
0.703801
0.689501
0.543056
0.691543
0.595427
0.689538
0.688322
0.404654
0.69803
0.70134
0.704087
0.336085
0.709954
0.409053
0.704799
0.535604
0.713418
0.69512
0.4222
0.699165
0.336213
0.557151
0.693898
0.357706
0.731036
0.557824
0.701241
0.342791
0.696526
0.336335
0.393023
0.39535
0.336457
0.686856
0.391735
0.693004
0.689255
0.452092
0.396644
0.532731
0.594798
0.590568
0.690188
0.336328
0.346835
0.335142
0.388688
0.438594
0.616311
0.694617
0.40125
0.689239
0.703966
0.373913
0.701541
0.733516
0.689267
0.335496
0.552392
0.716227
0.704158
0.699107
0.399732
0.709028
0.703606
0.710869
0.588296
0.688953
0.435969
0.395852
0.701822
0.566947
0.336232
0.695852
0.393165
0.587641
0.697188
0.696885
0.696837
0.394923
0.690871
0.509812
0.336189
0.719813
0.701722
0.704716
0.699442
0.708808
0.392898
0.702847
0.400986
0.541889
0.701886
0.555298
0.699737
0.335412
0.42692
0.703791
0.442502
0.701018
0.5977
0.517765
0.453746
0.698273
0.396298
0.694436
0.701133
0.700758
0.395968
0.390301
0.564415
0.594723
0.592158
0.553942
0.68931
0.690483
0.697954
0.557774
0.71416
0.340934
0.450487
0.701075
0.6891
0.689369
0.523115
0.369402
0.717366
0.385288
0.698442
0.5977
0.432867
0.698194
0.335432
0.700046
0.393713
0.703512
0.415668
0.709287
0.689569
0.390948
0.699524
0.59211
0.375096
0.689486
0.700018
0.596385
0.381329
0.494596
0.554625
0.706472
0.687264
0.443204
0.594041
0.704942
0.688878
0.447226
0.672645
0.700268
0.51452
0.689087
0.697327
0.457972
0.696999
0.593353
0.388691
0.597701
0.337886
0.696324
0.340732
0.403764
0.706226
0.336195
0.336305
0.382489
0.69713
0.694536
0.523304
0.694114
0.491505
0.703787
0.336438
0.697722
0.490692
0.693966
0.698574
0.695894
0.688819
0.57453
0.689648
0.689305
0.396982
0.5977
0.699265
0.597698
0.716011
0.536056
0.536842
0.702926
0.336133
0.595773
0.411055
0.694136
0.362008
0.396385
0.710429
0.69857
0.336312
0.698465
0.713608
0.557821
0.700153
0.559668
0.336049
0.702561
0.33615
0.391815
0.698323
0.70997
0.700901
0.69757
0.398013
0.343251
0.334631
0.700572
0.689294
0.492223
0.702144
0.354682
0.343361
0.373283
0.697837
0.505672
0.70271
0.697976
0.5977
0.698715
0.699374
0.5977
0.693977
0.509992
0.371483
0.336296
0.551538
0.551297
0.361261
0.640236
0.689158
0.694692
0.396681
0.563955
0.690767
0.425575
0.689705
0.68516
0.336066
0.68956
0.702197
0.336304
0.711992
0.360676
0.697279
0.70664
0.70907
0.387841
0.522615
0.730212
0.462444
0.512661
0.698804
0.467577
0.689582
0.697164
0.696807
0.714376
0.442806
0.649611
0.719709
0.701879
0.485021
0.700088
0.40855
0.376664
0.697031
0.698952
0.689282
0.384333
0.695493
0.5977
0.547295
0.349564
0.356249
0.336278
0.698858
0.334602
0.365609
0.39964
0.684074
0.363944
0.458731
0.512433
0.709034
0.336104
0.688599
0.689318
0.698905
0.344962
0.69677
0.678062
0.689207
0.504713
0.590451
0.33931
0.336149
0.696514
0.336297
0.696689
0.707657
0.557837
0.336035
0.470873
0.344677
0.581307
0.557592
0.386007
0.702042
0.696897
0.713522
0.336363
0.398174
0.475999
0.688398
0.336328
0.557759
0.597702
0.689486
0.6986
0.3345
0.701783
0.393291
0.682811
0.597701
0.704283
0.679662
0.597698
0.666252
0.689676
0.701198
0.336293
0.476951
0.358561
0.713755
0.59179
0.575771
0.336018
0.506469
0.706454
0.696659
0.683165
0.336298
0.699005
0.580221
0.583616
0.688167
0.396068
0.336261
0.459394
0.698921
0.68931
0.59408
0.692891
0.475555
0.701399
0.591855
0.689426
0.689371
0.700894
0.701593
0.6889
0.708503
0.704936
0.397627
0.698087
0.699484
0.688824
0.698824
0.699157
0.680833
0.336353
0.407689
0.689172
0.336241
0.445501
0.698986
0.380792
0.5977
0.697078
0.697882
0.704682
0.398153
0.699026
0.396019
0.368149
0.689175
0.713857
0.695776
0.348356
0.700797
0.697113
0.688418
0.698832
0.418897
0.688855
0.703922
0.703035
0.50721
0.710064
0.335487
0.69683
0.363774
0.336321
0.598492
0.526155
0.703085
0.707829
0.689191
0.399955
0.688878
0.526652
0.384551
0.697635
0.532271
0.336247
0.690019
0.418042
0.547568
0.705683
0.691647
0.696559
0.534275
0.597649
0.686321
0.689091
0.677494
0.704448
0.568106
0.698622
0.692415
0.674443
0.397982
0.334036
0.523843
0.699556
0.396717
0.687106
0.698721
0.5977
0.689298
0.5977
0.728434
0.712601
0.335381
0.698349
0.690023
0.597699
0.690317
0.703211
0.698472
0.689153
0.336347
0.375439
0.708199
0.593795
0.597699
0.698395
0.707234
0.695153
0.706203
0.706608
0.597466
0.690376
0.7046
0.375228
0.408387
0.364998
0.422986
0.557294
0.541114
0.597703
0.698727
0.707156
0.393654
0.705529
0.698073
0.350216
0.493675
0.554807
0.698822
0.398207
0.400093
0.393122
0.557759
0.697806
0.510655
0.340708
0.336136
0.412346
0.47579
0.336247
0.701518
0.69653
0.718507
0.336451
0.698636
0.590458
0.5977
0.462238
0.335406
0.697223
0.557963
0.336467
0.691274
0.336304
0.709873
0.397173
0.698973
0.335992
0.696109
0.700257
0.342802
0.584758
0.446528
0.702033
0.410499
0.596174
0.391457
0.578444
0.338692
0.591021
0.336253
0.686973
0.68879
0.5977
0.708024
0.465812
0.697527
0.68907
0.700887
0.595383
0.705657
0.33569
0.565337
0.359194
0.707961
0.449442
0.702604
0.58099
0.710845
0.703405
0.597719
0.704346
0.385932
0.36557
0.374837
0.574594
0.627737
0.709053
0.336002
0.429103
0.69614
0.496388
0.396747
0.671477
0.493159
0.336462
0.406511
0.700581
0.597706
0.620878
0.379819
0.695383
0.698715
0.396755
0.472061
0.697894
0.698209
0.682831
0.551345
0.505062
0.485252
0.343769
0.70119
0.688197
0.592807
0.719964
0.398315
0.597703
0.335177
0.674971
0.701671
0.336136
0.439774
0.689409
0.665521
0.702253
0.704749
0.705671
0.699123
0.702237
0.353777
0.424069
0.361065
0.334449
0.597555
0.628578
0.597694
0.335323
0.336272
0.565257
0.389472
0.694623
0.691318
0.336465
0.466092
0.697044
0.389693
0.685595
0.706654
0.694142
0.688871
0.5977
0.336286
0.336057
0.689777
0.336205
0.548634
0.519421
0.689234
0.698581
0.450561
0.336042
0.557932
0.336227
0.698121
0.708084
0.336124
0.396278
0.352374
0.696805
0.35124
0.557816
0.703108
0.597702
0.40078
0.564868
0.701081
0.698365
0.334033
0.699756
0.689726
0.388719
0.699531
0.697439
0.335079
0.336208
0.696528
0.336165
0.334352
0.70024
0.480554
0.70462
0.729246
0.709689
0.691897
0.702961
0.697004
0.689675
0.334359
0.5024
0.691039
0.71131
0.521404
0.702253
0.474806
0.698128
0.696686
0.597695
0.678791
0.5636
0.531066
0.706141
0.702761
0.691736
0.700327
0.695792
0.557198
0.699839
0.557906
0.701249
0.697983
0.700735
0.557739
0.689731
0.386936
0.697199
0.395186
0.698268
0.698259
0.707686
0.693902
0.715809
0.39038
0.344665
0.465907
0.333689
0.6937
0.334961
0.335619
0.706067
0.399447
0.70875
0.341815
0.698722
0.707006
0.336109
0.495428
0.436329
0.699117
0.376199
0.708809
0.699563
0.348694
0.696709
0.586449
0.453412
0.398662
0.394308
0.722542
0.336224
0.698602
0.597701
0.452441
0.699538
0.689033
0.705878
0.336312
0.597701
0.393413
0.699632
0.689139
0.697787
0.336378
0.7107
0.698351
0.693043
0.513666
0.699195
0.336312
0.336241
0.698776
0.538016
0.704795
0.553387
0.336433
0.514921
0.693796
0.393859
0.383312
0.377347
0.597396
0.556122
0.6991
0.370064
0.596338
0.696209
0.580009
0.577273
0.427756
0.587528
0.336279
0.33565
0.704801
0.336353
0.336257
0.699591
0.700637
0.353488
0.712944
0.355812
0.555692
0.401641
0.698146
0.685621
0.714973
0.689397
0.405376
0.335677
0.396355
0.689429
0.697447
0.597466
0.587254
0.490389
0.459912
0.689668
0.334571
0.702347
0.491036
0.688174
0.711222
0.339271
0.382536
0.336214
0.336095
0.387878
0.6891
0.693649
0.33614
0.697369
0.647178
0.457841
0.386019
0.700771
0.336313
0.706012
0.508269
0.714325
0.685501
0.696723
0.578569
0.379515
0.706423
0.698609
0.69994
0.336309
0.687645
0.597704
0.442658
0.699403
0.695029
0.700545
0.695181
0.702306
0.698612
0.700586
0.689844
0.700084
0.336042
0.707253
0.336222
0.570739
0.698745
0.396366
0.696332
0.688758
0.424487
0.692708
0.336268
0.392092
0.69892
0.68811
0.700811
0.336027
0.694877
0.5977
0.401224
0.336613
0.6991
0.698627
0.493778
0.389408
0.705044
0.700842
0.336336
0.674353
0.700766
0.597701
0.345378
0.33632
0.397521
0.683863
0.417532
0.701227
0.714217
0.689606
0.629744
0.702721
0.336107
0.697078
0.5977
0.700469
0.678792
0.397167
0.334243
0.400857
0.709707
0.699794
0.506422
0.683907
0.418435
0.69608
0.698092
0.389366
0.689682
0.702029
0.595329
0.337513
0.33457
0.424868
0.700724
0.704646
0.5977
0.551551
0.697815
0.336443
0.596021
0.552969
0.711101
0.338614
0.5977
0.42862
0.690298
0.406629
0.707631
0.699234
0.377501
0.699757
0.591479
0.557853
0.702353
0.557752
0.699264
0.535665
0.68972
0.68992
0.698093
0.708376
0.527887
0.553966
0.360024
0.693343
0.398135
0.336168
0.409874
0.386065
0.336237
0.337127
0.701599
0.487703
0.369491
0.697792
0.700033
0.693915
0.516874
0.715186
0.72088
0.688982
0.398275
0.680642
0.69729
0.437203
0.390572
0.335703
0.592876
0.54542
0.336101
0.683182
0.40079
0.55352
0.541927
0.344284
0.529868
0.672836
0.430818
0.698244
0.392343
0.597698
0.491559
0.70101
0.498826
0.707209
0.55439
0.688179
0.580321
0.336288
0.701368
0.701237
0.395549
0.392566
0.69024
0.336122
0.710876
0.336384
0.585876
0.398903
0.696967
0.424554
0.701738
0.336159
0.698175
0.697449
0.70233
0.557385
0.359129
0.391375
0.512488
0.69828
0.708879
0.693414
0.651358
0.42547
0.704239
0.429649
0.697003
0.685197
0.540574
0.45277
0.706761
0.706618
0.390981
0.677336
0.701702
0.705191
0.709489
0.395205
0.594771
0.336212
0.704636
0.41902
0.689387
0.696018
0.701932
0.70135
0.456128
0.698896
0.336245
0.335807
0.698112
0.556672
0.595686
0.708346
0.555886
0.336305
0.712018
0.700576
0.700651
0.393609
0.521306
0.718175
0.334669
0.698449
0.699071
0.696681
0.700509
0.44236
0.55632
0.594096
0.381096
0.696786
0.700713
0.56627
0.698432
0.446096
0.690031
0.711105
0.735825
0.699221
0.33461
0.396913
0.708645
0.697799
0.417311
0.473143
0.416973
0.386961
0.368445
0.370437
0.402154
0.336228
0.709533
0.396945
0.346075
0.704513
0.59646
0.557851
0.503799
0.336003
0.696575
0.556077
0.59771
0.704769
0.495089
0.60202
0.689047
0.5977
0.699661
0.374585
0.698171
0.689202
0.356914
0.33614
0.540716
0.688231
0.5977
0.702535
0.695074
0.712155
0.70152
0.475682
0.698496
0.689199
0.700042
0.336443
0.6972
0.684114
0.46975
0.519102
0.351014
0.39116
0.368958
0.597699
0.709554
0.705018
0.335867
0.499732
0.700158
0.396048
0.700698
0.691334
0.696633
0.736057
0.69707
0.433274
0.392218
0.394765
0.5977
0.415728
0.695344
0.396139
0.697148
0.689358
0.697792
0.418334
0.549991
0.529701
0.699109
0.383635
0.335507
0.698947
0.699147
0.693578
0.692623
0.699023
0.711165
0.336317
0.5977
0.703226
0.562346
0.705244
0.703691
0.708308
0.516248
0.505714
0.700744
0.54033
0.669657
0.33641
0.692147
0.697386
0.508482
0.418397
0.698497
0.56799
0.702886
0.701069
0.336224
0.33606
0.617261
0.584476
0.526404
0.698014
0.699139
0.431667
0.698634
0.617729
0.69391
0.33621
0.597699
0.336315
0.698145
0.701335
0.710289
0.703861
0.639058
0.461096
0.48892
0.713637
0.33624
0.5977
0.446178
0.696985
0.377323
0.687335
0.703597
0.593548
0.33636
0.557795
0.552421
0.334897
0.691869
0.39919
0.700435
0.336452
0.336652
0.386569
0.716749
0.699173
0.470107
0.464202
0.696395
0.702211
0.534159
0.718327
0.336161
0.597693