# vtk DataFile Version 1.0
unstructured grid
ascii
DATASET UNSTRUCTURED_GRID
points 13672 float
0.0796578 -0.059106 0
0.00128732 0.00159165 0
0.00227961 -0.00102548 0
0.0791586 -0.0598787 0
-0.0546216 0.01 0
0.000495206 0.025 0
0.0800549 -0.035 0
0.135172 -0.08 0
-0.0546216 -0.0451168 0
0.000495206 -0.0301168 0
0.0800549 -0.0901168 0
0.135172 -0.135117 0
-0.0546216 -0.0451168 -0.00551168
0.000495206 -0.0301168 -0.00551168
0.0800549 -0.0901168 -0.00551168
0.135172 -0.135117 -0.00551168
0.135172 -0.08 -0.00551168
0.0800549 -0.035 -0.00551168
0.000495206 0.025 -0.00551168
-0.0546216 0.01 -0.00551168
0.00128732 0.00159165 -0.00551168
0.00227961 -0.00102548 -0.00551168
0.0791586 -0.0598787 -0.00551168
0.0796578 -0.059106 -0.00551168
0.00165953 -0.000990923 0
0.00119576 -0.000874076 0
0.000866021 -0.000641801 0
0.000645147 -0.000349912 0
0.00052235 -1.7281e-05 0
0.00049972 0.000348016 0
0.000601632 0.000737716 0
0.000861774 0.0011403 0
0.00157235 0.00183217 0
0.00188647 0.00206725 0
0.00222612 0.00230203 0
0.00258713 0.00254351 0
0.00296826 0.00279524 0
0.00337118 0.00305664 0
0.00379785 0.00332658 0
0.00425045 0.00360349 0
0.00473139 0.00388521 0
0.0052432 0.00416895 0
0.0057881 0.00445204 0
0.00636753 0.00473281 0
0.00698281 0.00500961 0
0.00763526 0.00528058 0
0.00832616 0.00554366 0
0.00905691 0.00579603 0
0.00982918 0.00603333 0
0.0106445 0.00625033 0
0.0115038 0.00644128 0
0.0124073 0.00660297 0
0.0133543 0.00673414 0
0.0143444 0.00683382 0
0.0153769 0.00690031 0
0.0164512 0.00693173 0
0.0175666 0.00692547 0
0.0187219 0.00687822 0
0.0199156 0.00678477 0
0.0211454 0.00663864 0
0.0224084 0.00643275 0
0.0237018 0.00616676 0
0.0250249 0.00584739 0
0.026375 0.00547298 0
0.0277479 0.00503752 0
0.0291386 0.00453545 0
0.0305433 0.0039653 0
0.0319572 0.0033256 0
0.0333681 0.00260019 0
0.034775 0.00179799 0
0.0361793 0.000930615 0
0.0375798 3.12222e-06 0
0.0389689 -0.000988429 0
0.0403357 -0.00205109 0
0.041675 -0.00318283 0
0.0429849 -0.00437751 0
0.0442643 -0.00562904 0
0.0455126 -0.00693089 0
0.0467314 -0.00827518 0
0.0479204 -0.00965638 0
0.0490661 -0.0110799 0
0.0501515 -0.0125519 0
0.0511696 -0.0140695 0
0.0521492 -0.0156071 0
0.0531202 -0.0171411 0
0.0540851 -0.0186663 0
0.0550431 -0.0201798 0
0.0559923 -0.0216793 0
0.0569311 -0.0231626 0
0.0578582 -0.0246273 0
0.0587723 -0.0260715 0
0.0596721 -0.027493 0
0.0605563 -0.02889 0
0.0614241 -0.0302609 0
0.0622742 -0.0316042 0
0.063106 -0.0329183 0
0.0639186 -0.034202 0
0.0647113 -0.0354543 0
0.0654835 -0.0366743 0
0.0662345 -0.0378613 0
0.0669642 -0.0390145 0
0.0676726 -0.0401333 0
0.0683597 -0.0412172 0
0.0690246 -0.0422665 0
0.0696662 -0.0432819 0
0.0702841 -0.0442636 0
0.0708793 -0.0452111 0
0.0714538 -0.0461237 0
0.072009 -0.047001 0
0.0725452 -0.0478434 0
0.0730611 -0.0486524 0
0.073556 -0.0494294 0
0.0740291 -0.0501756 0
0.0744812 -0.0508916 0
0.0749138 -0.0515773 0
0.0753285 -0.0522331 0
0.0757266 -0.0528592 0
0.076109 -0.0534564 0
0.0764753 -0.0540264 0
0.0768243 -0.054571 0
0.0771553 -0.0550919 0
0.0774679 -0.0555901 0
0.0777617 -0.0560669 0
0.0780369 -0.056523 0
0.0782958 -0.0569578 0
0.0785421 -0.0573703 0
0.0787786 -0.0577603 0
0.0790073 -0.0581279 0
0.0792295 -0.058474 0
0.0794462 -0.0587995 0
0.0798803 -0.0594162 0
0.0800272 -0.0596588 0
0.0800357 -0.0598891 0
0.0799275 -0.0600784 0
0.0797205 -0.0601773 0
0.0794593 -0.0601051 0
0.0789155 -0.0596491 0
0.0786707 -0.0593963 0
0.0784111 -0.0591319 0
0.0781372 -0.0588542 0
0.0778566 -0.0585548 0
0.0775715 -0.0582308 0
0.0772803 -0.0578828 0
0.0769832 -0.0575099 0
0.0766822 -0.0571097 0
0.0763801 -0.0566796 0
0.0760759 -0.0562196 0
0.0757623 -0.0557337 0
0.0754359 -0.0552232 0
0.0750951 -0.0546879 0
0.0747379 -0.054128 0
0.0743626 -0.0535435 0
0.0739688 -0.0529338 0
0.0735559 -0.0522981 0
0.0731238 -0.0516357 0
0.0726718 -0.050946 0
0.0721991 -0.0502288 0
0.0717046 -0.049484 0
0.0711872 -0.0487117 0
0.0706461 -0.047912 0
0.0700804 -0.0470849 0
0.0694892 -0.0462308 0
0.0688718 -0.0453499 0
0.0682271 -0.0444431 0
0.0675544 -0.043511 0
0.0668527 -0.0425546 0
0.0661215 -0.0415748 0
0.06536 -0.040573 0
0.0645676 -0.0395504 0
0.0637439 -0.0385087 0
0.0628887 -0.0374493 0
0.062002 -0.0363741 0
0.0610838 -0.0352847 0
0.0601345 -0.0341831 0
0.0591547 -0.033071 0
0.0581456 -0.0319502 0
0.0571083 -0.0308224 0
0.0560444 -0.0296893 0
0.0549562 -0.028552 0
0.053845 -0.0274126 0
0.0527113 -0.0262746 0
0.051554 -0.0251427 0
0.0503724 -0.0240222 0
0.0491675 -0.0229164 0
0.047941 -0.0218282 0
0.0466955 -0.0207597 0
0.0454337 -0.0197126 0
0.0441592 -0.0186878 0
0.0428751 -0.0176863 0
0.0415841 -0.0167097 0
0.0402878 -0.0157609 0
0.0389879 -0.0148428 0
0.0376864 -0.0139575 0
0.0363853 -0.013107 0
0.0350871 -0.0122931 0
0.0337942 -0.0115164 0
0.0325095 -0.0107772 0
0.0312357 -0.0100756 0
0.0299758 -0.00941024 0
0.0287337 -0.00877784 0
0.0275126 -0.00817571 0
0.0263139 -0.00760375 0
0.0251376 -0.00706528 0
0.0239829 -0.0065649 0
0.0228537 -0.00609619 0
0.0217522 -0.00565563 0
0.0206795 -0.00524226 0
0.0196364 -0.00485507 0
0.0186233 -0.00449318 0
0.0176408 -0.00415577 0
0.016689 -0.00384204 0
0.0157682 -0.00355115 0
0.0148783 -0.00328218 0
0.0140192 -0.00303468 0
0.0131906 -0.00280795 0
0.0123925 -0.00260016 0
0.0116246 -0.00241012 0
0.0108864 -0.00223769 0
0.0101774 -0.00208212 0
0.00949701 -0.00194206 0
0.00884483 -0.0018163 0
0.0082202 -0.0017039 0
0.00762247 -0.00160391 0
0.00705097 -0.00151528 0
0.006505 -0.00143697 0
0.0059838 -0.00136806 0
0.00548662 -0.00130772 0
0.00501265 -0.00125519 0
0.00456114 -0.00120954 0
0.00413136 -0.00116914 0
0.00372257 -0.00113251 0
0.00333398 -0.00109853 0
0.00296466 -0.00106798 0
0.00261363 -0.0010431 0
-0.052721 -0.0445996 0
-0.0508204 -0.0440823 0
-0.0489199 -0.0435651 0
-0.0470193 -0.0430478 0
-0.0451187 -0.0425306 0
-0.0432181 -0.0420134 0
-0.0413175 -0.0414961 0
-0.039417 -0.0409789 0
-0.0375164 -0.0404616 0
-0.0356158 -0.0399444 0
-0.0337152 -0.0394271 0
-0.0318146 -0.0389099 0
-0.0299141 -0.0383927 0
-0.0280135 -0.0378754 0
-0.0261129 -0.0373582 0
-0.0242123 -0.0368409 0
-0.0223117 -0.0363237 0
-0.0204112 -0.0358065 0
-0.0185106 -0.0352892 0
-0.01661 -0.034772 0
-0.0147094 -0.0342547 0
-0.0128088 -0.0337375 0
-0.0109083 -0.0332202 0
-0.00900769 -0.032703 0
-0.00710711 -0.0321858 0
-0.00520653 -0.0316685 0
-0.00330595 -0.0311513 0
-0.00140537 -0.030634 0
0.00190689 -0.0299614 0
0.00332271 -0.0298498 0
0.00474133 -0.0297825 0
0.00616136 -0.0297597 0
0.0075814 -0.0297814 0
0.00900007 -0.0298477 0
0.010416 -0.0299583 0
0.0118278 -0.0301127 0
0.0132342 -0.0303103 0
0.0146339 -0.0305504 0
0.0160259 -0.0308322 0
0.0174091 -0.0311546 0
0.0187824 -0.0315166 0
0.020145 -0.031917 0
0.0214961 -0.0323546 0
0.0228351 -0.032828 0
0.0241613 -0.0333361 0
0.0254744 -0.0338774 0
0.0267738 -0.0344507 0
0.0280592 -0.0350545 0
0.0293306 -0.0356877 0
0.0305875 -0.0363488 0
0.0318301 -0.0370367 0
0.0330581 -0.0377501 0
0.0342717 -0.0384879 0
0.0354708 -0.0392489 0
0.0366556 -0.0400321 0
0.0378262 -0.0408363 0
0.0389828 -0.0416607 0
0.0401254 -0.0425042 0
0.0412543 -0.0433659 0
0.0423698 -0.0442451 0
0.043472 -0.0451408 0
0.0445612 -0.0460523 0
0.0456375 -0.0469789 0
0.0467013 -0.0479199 0
0.0477529 -0.0488746 0
0.0487923 -0.0498424 0
0.04982 -0.0508227 0
0.0508362 -0.051815 0
0.051841 -0.0528187 0
0.0528348 -0.0538333 0
0.0538178 -0.0548584 0
0.0547903 -0.0558935 0
0.0557524 -0.0569382 0
0.0567045 -0.0579922 0
0.0576467 -0.0590549 0
0.0585792 -0.0601261 0
0.0595024 -0.0612055 0
0.0604163 -0.0622926 0
0.0613212 -0.0633873 0
0.0622174 -0.0644891 0
0.0631049 -0.0655979 0
0.0639841 -0.0667134 0
0.064855 -0.0678353 0
0.0657179 -0.0689633 0
0.0665729 -0.0700974 0
0.0674202 -0.0712372 0
0.06826 -0.0723826 0
0.0690925 -0.0735333 0
0.0699178 -0.0746892 0
0.070736 -0.0758501 0
0.0715473 -0.0770159 0
0.0723518 -0.0781863 0
0.0731498 -0.0793612 0
0.0739412 -0.0805405 0
0.0747264 -0.081724 0
0.0755053 -0.0829116 0
0.0762781 -0.0841033 0
0.0770449 -0.0852987 0
0.0778059 -0.0864979 0
0.0785611 -0.0877007 0
0.0793108 -0.088907 0
0.0814681 -0.0912706 0
0.0828814 -0.0924245 0
0.0842946 -0.0935783 0
0.0857079 -0.0947322 0
0.0871211 -0.095886 0
0.0885344 -0.0970399 0
0.0899476 -0.0981937 0
0.0913609 -0.0993476 0
0.0927741 -0.100501 0
0.0941874 -0.101655 0
0.0956006 -0.102809 0
0.0970139 -0.103963 0
0.0984272 -0.105117 0
0.0998404 -0.106271 0
0.101254 -0.107424 0
0.102667 -0.108578 0
0.10408 -0.109732 0
0.105493 -0.110886 0
0.106907 -0.11204 0
0.10832 -0.113194 0
0.109733 -0.114348 0
0.111146 -0.115501 0
0.11256 -0.116655 0
0.113973 -0.117809 0
0.115386 -0.118963 0
0.116799 -0.120117 0
0.118213 -0.121271 0
0.119626 -0.122424 0
0.121039 -0.123578 0
0.122452 -0.124732 0
0.123866 -0.125886 0
0.125279 -0.12704 0
0.126692 -0.128194 0
0.128105 -0.129348 0
0.129519 -0.130501 0
0.130932 -0.131655 0
0.132345 -0.132809 0
0.133758 -0.133963 0
0.135172 -0.133216 0
0.135172 -0.131316 0
0.135172 -0.129415 0
0.135172 -0.127514 0
0.135172 -0.125614 0
0.135172 -0.123713 0
0.135172 -0.121813 0
0.135172 -0.119912 0
0.135172 -0.118012 0
0.135172 -0.116111 0
0.135172 -0.11421 0
0.135172 -0.11231 0
0.135172 -0.110409 0
0.135172 -0.108509 0
0.135172 -0.106608 0
0.135172 -0.104708 0
0.135172 -0.102807 0
0.135172 -0.100906 0
0.135172 -0.0990058 0
0.135172 -0.0971052 0
0.135172 -0.0952046 0
0.135172 -0.0933041 0
0.135172 -0.0914035 0
0.135172 -0.0895029 0
0.135172 -0.0876023 0
0.135172 -0.0857017 0
0.135172 -0.0838012 0
0.135172 -0.0819006 0
0.133758 -0.0788462 0
0.132345 -0.0776923 0
0.130932 -0.0765385 0
0.129519 -0.0753846 0
0.128105 -0.0742308 0
0.126692 -0.0730769 0
0.125279 -0.0719231 0
0.123866 -0.0707692 0
0.122452 -0.0696154 0
0.121039 -0.0684615 0
0.119626 -0.0673077 0
0.118213 -0.0661538 0
0.116799 -0.065 0
0.115386 -0.0638462 0
0.113973 -0.0626923 0
0.11256 -0.0615385 0
0.111146 -0.0603846 0
0.109733 -0.0592308 0
0.10832 -0.0580769 0
0.106907 -0.0569231 0
0.105493 -0.0557692 0
0.10408 -0.0546154 0
0.102667 -0.0534615 0
0.101254 -0.0523077 0
0.0998404 -0.0511538 0
0.0984272 -0.05 0
0.0970139 -0.0488462 0
0.0956006 -0.0476923 0
[...]
CELL_DATA 13116
SCALARS rho float
LOOKUP_TABLE default
0.5977
0.5977
0.586687
0.657639
0.594286
0.689043
0.407417
0.684295
0.5977
0.597704
0.370894
0.595245
0.592501
0.512343
0.537341
0.68883
0.5977
0.5977
0.690538
0.360442
0.5977
0.592773
0.56936
0.5977
0.5977
0.581602
0.597703
0.597698
0.5977
0.5977
0.689455
0.587953
0.5977
0.5977
0.417218
0.5977
0.5977
0.686024
0.689816
0.689302
0.68939
0.682985
0.5977
0.554335
0.690131
0.690859
0.5977
0.690376
0.579512
0.5977
0.68672
0.5977
0.452341
0.5977
0.5977
0.5977
0.550903
0.5977
0.5977
0.560521
0.517508
0.591571
0.5977
0.689833
0.689629
0.48014
0.689085
0.5977
0.690512
0.689563
0.536305
0.5977
0.595965
0.521813
0.67909
0.488402
0.5977
0.683722
0.378737
0.5977
0.5977
0.588512
0.5977
0.688931
0.686615
0.5977
0.427499
0.5977
0.687299
0.336158
0.597586
0.597701
0.5977
0.686983
0.5977
0.5977
0.5977
0.689119
0.687712
0.5977
0.5977
0.5977
0.689636
0.5977
0.5977
0.575612
0.597698
0.5977
0.59768
0.5977
0.5977
0.597379
0.5977
0.5977
0.5977
0.689561
0.460108
0.5977
0.687223
0.689802
0.5977
0.597719
0.690603
0.597517
0.686189
0.5977
0.436796
0.5977
0.58677
0.5977
0.687351
0.595746
0.5977
0.58463
0.5977
0.5977
0.557914
0.689178
0.5977
0.689753
0.5977
0.5977
0.5977
0.5977
0.5977
0.537349
0.413169
0.594061
0.597704
0.687128
0.5977
0.689177
0.690555
0.433436
0.597703
0.687677
0.588875
0.5977
0.689585
0.5977
0.5977
0.371736
0.5977
0.58949
0.597716
0.611726
0.682337
0.5977
0.413551
0.5977
0.5977
0.557928
0.53269
0.5977
0.689292
0.569866
0.557671
0.595183
0.597674
0.689734
0.343743
0.5977
0.5977
0.5977
0.689893
0.5977
0.432451
0.689412
0.5977
0.5977
0.5977
0.595822
0.689253
0.597716
0.597697
0.688931
0.5977
0.689307
0.686356
0.5977
0.5977
0.5977
0.5977
0.532007
0.597327
0.68545
0.5977
0.5977
0.548213
0.347687
0.483735
0.689444
0.596442
0.336367
0.3359
0.440835
0.5977
0.68894
0.68389
0.597699
0.540284
0.688954
0.5977
0.342071
0.5977
0.597165
0.5977
0.5977
0.68941
0.597698
0.722438
0.590119
0.689416
0.5977
0.686857
0.688157
0.689186
0.589124
0.5977
0.5977
0.664724
0.688925
0.557181
0.688922
0.684927
0.564606
0.687829
0.597704
0.68811
0.392172
0.583973
0.688185
0.686992
0.689395
0.686704
0.5977
0.5977
0.365926
0.597503
0.5977
0.545066
0.5977
0.5977
0.5977
0.401198
0.689252
0.452808
0.5977
0.5977
0.390898
0.58859
0.686362
0.606354
0.5977
0.586443
0.583445
0.5977
0.688789
0.689386
0.368077
0.414792
0.597718
0.5977
0.597716
0.596839
0.597706
0.59771
0.66576
0.465771
0.687855
0.638047
0.415999
0.355952
0.44511
0.5977
0.597717
0.5977
0.5977
0.597703
0.385129
0.689218
0.5977
0.597721
0.558969
0.689087
0.687122
0.689614
0.439767
0.68912
0.5977
0.593695
0.683228
0.68737
0.684029
0.597713
0.689398
0.50819
0.689282
0.597705
0.5977
0.336221
0.597708
0.597705
0.445738
0.597011
0.590244
0.5977
0.5977
0.5977
0.428969
0.689658
0.5977
0.506459
0.687528
0.597699
0.5977
0.689608
0.597699
0.5977
0.400705
0.5977
0.597708
0.688875
0.5977
0.5977
0.597699
0.597698
0.687308
0.428143
0.588912
0.597701
0.5977
0.556243
0.428375
0.576411
0.680654
0.5977
0.5977
0.423392
0.591577
0.687982
0.622695
0.404749
0.685742
0.482001
0.580848
0.68991
0.683302
0.5977
0.336303
0.68909
0.689528
0.68886
0.689265
0.5977
0.5977
0.5977
0.532025
0.344238
0.689033
0.341541
0.5977
0.5977
0.597727
0.597698
0.5977
0.59772
0.420605
0.686278
0.597666
0.5977
0.5977
0.68965
0.5977
0.687613
0.58143
0.410692
0.5977
0.5977
0.592598
0.5977
0.690029
0.5977
0.5977
0.5977
0.590322
0.5977
0.5977
0.5977
0.5977
0.689116
0.5977
0.5977
0.5977
0.583427
0.5977
0.5977
0.448998
0.689504
0.630864
0.597708
0.345582
0.335834
0.418879
0.5977
0.478359
0.597717
0.689214
0.47872
0.5977
0.336084
0.68902
0.5977
0.597698
0.584997
0.673252
0.5977
0.336576
0.417914
0.336286
0.597712
0.411476
0.342263
0.597718
0.5977
0.341745
0.5977
0.597698
0.686479
0.5977
0.596924
0.5977
0.542968
0.336079
0.546821
0.689223
0.5977
0.5977
0.5977
0.470646
0.5977
0.687691
0.5977
0.5977
0.5977
0.5977
0.409174
0.687586
0.5977
0.5977
0.689311
0.597714
0.461604
0.5977
0.5977
0.597699
0.5977
0.597698
0.5977
0.5977
0.356142
0.551095
0.513672
0.5977
0.553171
0.485842
0.532006
0.504302
0.647647
0.585028
0.5977
0.5977
0.5977
0.597703
0.597699
0.468089
0.5977
0.59771
0.680995
0.597714
0.597699
0.5977
0.689443
0.675627
0.5977
0.5977
0.45404
0.5977
0.684888
0.689439
0.5977
0.5977
0.5977
0.337807
0.5977
0.5977
0.5977
0.5977
0.597717
0.5977
0.5977
0.5977
0.597691
0.664639
0.594503
0.5977
0.5977
0.68969
0.336339
0.689139
0.597707
0.55802
0.336529
0.595815
0.686479
0.597709
0.686049
0.5977
0.335925
0.68989
0.687265
0.5977
0.597698
0.460841
0.678941
0.336464
0.336121
0.55656
0.33651
0.652297
0.496733
0.610029
0.5977
0.5977
0.687124
0.690072
0.589011
0.336504
0.34465
0.686714
0.725084
0.5977
0.636883
0.597704
0.5977
0.422025
0.597698
0.689228
0.5977
0.335878
0.5977
0.597729
0.686214
0.688517
0.597702
0.596005
0.686333
0.5977
0.686914
0.5977
0.580313
0.597698
0.5977
0.641869
0.592524
0.671232
0.682532
0.686693
0.469205
0.554383
0.53764
0.683366
0.5977
0.336296
0.5977
0.597354
0.686572
0.597714
0.398017
0.5977
0.689915
0.597701
0.39266
0.596955
0.336317
0.689137
0.597471
0.689167
0.532856
0.5977
0.597549
0.5977
0.58474
0.574811
0.5977
0.597698
0.606002
0.454311
0.489179
0.689375
0.486893
0.689372
0.597701
0.688186
0.336364
0.683626
0.5977
0.5977
0.689085
0.68518
0.689853
0.566096
0.689341
0.597699
0.663555
0.370875
0.685417
0.5977
0.425031
0.689261
0.597703
0.437291
0.5977
0.59743
0.530407
0.689229
0.689109
0.597738
0.548032
0.384734
0.567144
0.684284
0.5977
0.462337
0.368184
0.592352
0.689617
0.5977
0.5977
0.688767
0.367491
0.5977
0.5977
0.686939
0.5977
0.5977
0.5977
0.689358
0.5977
0.5977
0.597698
0.597699
0.689207
0.5977
0.5977
0.5977
0.534894
0.5977
0.597702
0.597699
0.5977
0.5977
0.5977
0.689496
0.5977
0.597711
0.689571
0.5977
0.588301
0.5977
0.597719
0.681406
0.52101
0.68945
0.5977
0.597698
0.689497
0.5977
0.608842
0.5977
0.5977
0.5977
0.59771
0.5977
0.597684
0.518693
0.557487
0.5977
0.690023
0.597704
0.336128
0.597706
0.5977
0.597394
0.660953
0.68611
0.344575
0.5977
0.597705
0.355408
0.597727
0.687238
0.688915
0.685722
0.57387
0.5977
0.5977
0.5977
0.5977
0.689567
0.596343
0.335805
0.594605
0.687183
0.5977
0.688736
0.689
0.597699
0.5977
0.349379
0.5977
0.597704
0.5977
0.5977
0.689642
0.687403
0.5977
0.5977
0.5977
0.5977
0.336343
0.336319
0.397945
0.340264
0.5977
0.5977
0.689571
0.597706
0.34824
0.690592
0.5977
0.501711
0.597704
0.5977
0.5977
0.689206
0.688677
0.5977
0.343601
0.336332
0.552503
0.59709
0.3364
0.461679
0.689469
0.5977
0.336162
0.5977
0.685139
0.597701
0.689421
0.68985
0.463497
0.507721
0.389713
0.5977
0.5977
0.593678
0.5977
0.5977
0.644072
0.689158
0.580397
0.33621
0.597705
0.336161
0.688844
0.5977
0.689776
0.597738
0.336237
0.640748
0.688848
0.5977
0.501058
0.68675
0.689361
0.5977
0.687128
0.686515
0.552663
0.5977
0.342102
0.689749
0.68889
0.5977
0.5977
0.557526
0.597025
0.55479
0.68975
0.48566
0.524043
0.336188
0.689475
0.5977
0.336107
0.597701
0.596224
0.593644
0.5977
0.5977
0.5977
0.5977
0.585793
0.59535
0.5977
0.335954
0.5977
0.689535
0.556873
0.686765
0.494712
0.571794
0.5977
0.5977
0.5977
0.689833
0.406402
0.5977
0.545471
0.585627
0.689244
0.33582
0.5977
0.597721
0.5977
0.5977
0.558739
0.679859
0.530292
0.496123
0.5977
0.5977
0.636451
0.5977
0.5977
0.689416
0.5977
0.5977
0.5977
0.597699
0.5977
0.689336
0.597706
0.336214
0.5977
0.597701
0.5977
0.5977
0.689514
0.5977
0.5977
0.597731
0.5977
0.5977
0.555652
0.68737
0.5977
0.5977
0.689116
0.5977
0.594745
0.5977
0.5977
0.688592
0.689382
0.597712
0.729331
0.592406
0.536939
0.578451
0.441633
0.557464
0.370282
0.5977
0.5977
0.5977
0.597719
0.686534
0.531195
0.5977
0.689227
0.688888
0.5977
0.689212
0.5977
0.5977
0.5977
0.663133
0.525615
0.688833
0.689913
0.5977
0.603793
0.5977
0.597715
0.534846
0.562469
0.68757
0.336128
0.60178
0.389815
0.684673
0.466108
0.5977
0.566635
0.5977
0.686556
0.5977
0.59772
0.5977
0.688868
0.352441
0.5977
0.584285
0.591949
0.5977
0.688903
0.597456
0.689122
0.597699
0.5977
0.612442
0.690117
0.5977
0.336308
0.5977
0.687396
0.553704
0.642219
0.557064
0.5977
0.595804
0.5977
0.688759
0.336134
0.535872
0.554052
0.593136
0.689767
0.489753
0.688751
0.5977
0.5977
0.520323
0.597699
0.6843
0.709672
0.5977
0.5977
0.689875
0.645181
0.403551
0.5977
0.5977
0.405867
0.596462
0.511689
0.597701
0.597669
0.336313
0.68964
0.5977
0.5977
0.5977
0.417285
0.416984
0.672065
0.527301
0.479298
0.688792
0.593388
0.5977
0.5977
0.691374
0.670214
0.34695
0.5977
0.376675
0.597694
0.579363
0.677965
0.483
0.597703
0.705625
0.68945
0.5977
0.597703
0.597702
0.689207
0.590085
0.685697
0.490041
0.368037
0.5977
0.688809
0.5977
0.597702
0.5977
0.688999
0.5977
0.597698
0.689939
0.589003
0.681245
0.399563
0.596008
0.597717
0.688364
0.5977
0.5977
0.689065
0.587311
0.590312
0.336086
0.5977
0.5977
0.46952
0.5977
0.557604
0.685342
0.425508
0.689421
0.33991
0.597736
0.597729
0.335978
0.5977
0.538634
0.5977
0.689241
0.5977
0.597716
0.5977
0.5977
0.5977
0.5977
0.336395
0.45595
0.399005
0.562929
0.59772
0.5977
0.59328
0.597698
0.689396
0.5977
0.506788
0.591875
0.5977
0.6892
0.380847
0.677193
0.5977
0.597701
0.687418
0.552518
0.651442
0.597703
0.594932
0.5977
0.689668
0.597363
0.597726
0.6897
0.5977
0.336346
0.689136
0.589588
0.5977
0.5977
0.674892
0.68383
0.597596
0.597701
0.5977
0.399913
0.5977
0.590801
0.597702
0.687583
0.5977
0.597737
0.590676
0.556975
0.5977
0.628443
0.686193
0.627252
0.392387
0.597719
0.597705
0.597709
0.682287
0.5977
0.5977
0.597713
0.689583
0.597684
0.689129
0.677699
0.5977
0.597718
0.530252
0.5977
0.5977
0.5977
0.5977
0.689542
0.5977
0.686875
0.557661
0.597702
0.430687
0.597716
0.683171
0.689358
0.5977
0.5977
0.523004
0.5977
0.526832
0.688613
0.5977
0.5977
0.589971
0.350747
0.673775
0.588564
0.597704
0.581926
0.686578
0.689634
0.593883
0.687113
0.5977
0.597228
0.688921
0.690803
0.5977
0.537177
0.5977
0.5977
0.5977
0.5977
0.597699
0.5977
0.597702
0.68931
0.597718
0.5977
0.593842
0.597699
0.689962
0.68936
0.597715
0.686565
0.689008
0.579499
0.5977
0.404593
0.5977
0.416055
0.572626
0.5977
0.336273
0.336309
0.523479
0.689096
0.597648
0.5977
0.689863
0.5977
0.5977
0.337385
0.59742
0.5977
0.689346
0.689681
0.5977
0.689393
0.5977
0.689637
0.689329
0.597718
0.5977
0.5977
0.5977
0.597702
0.5977
0.5977
0.591122
0.352853
0.5977
0.5977
0.689903
0.487836
0.597718
0.5977
0.68929
0.351593
0.689121
0.5977
0.557636
0.68641
0.680275
0.339287
0.59418
0.337948
0.594937
0.685766
0.5977
0.683312
0.686633
0.585563
0.424153
0.381973
0.597701
0.689448
0.5977
0.690166
0.478269
0.424683
0.497293
0.688264
0.5977
0.591633
0.684324
0.5977
0.688936
0.686224
0.5977
0.5977
0.5977
0.597282
0.347897
0.678042
0.675883
0.497862
0.5977
0.597701
0.5977
0.597714
0.5977
0.5977
0.597716
0.5977
0.5977
0.336384
0.689059
0.5977
0.336276
0.674333
0.472467
0.689707
0.5977
0.597649
0.532507
0.5977
0.5977
0.597712
0.597699
0.689524
0.597705
0.688979
0.689098
0.590623
0.5977
0.5977
0.689644
0.5977
0.690185
0.597699
0.687088
0.564344
0.525732
0.685126
0.689216
0.689315
0.597718
0.689286
0.5977
0.676327
0.46376
0.479011
0.336551
0.688976
0.397073
0.486331
0.581572
0.5977
0.480653
0.597713
0.5977
0.682981
0.336506
0.689263
0.689389
0.689884
0.433208
0.688242
0.5977
0.689585
0.597699
0.5977
0.419045
0.352472
0.689604
0.351911
0.5977
0.5977
0.555686
0.336488
0.597708
0.430805
0.5977
0.557794
0.597717
0.686323
0.689132
0.5977
0.33909
0.552219
0.597706
0.5977
0.336169
0.557758
0.5977
0.689357
0.687791
0.36488
0.5977
0.570468
0.5977
0.5977
0.597674
0.5977
0.5977
0.5977
0.5977
0.682408
0.387117
0.5977
0.490542
0.5977
0.5977
0.685893
0.336486
0.5977
0.5977
0.687966
0.688833
0.348049
0.689629
0.5977
0.5977
0.5977
0.597716
0.345145
0.597714
0.68915
0.689393
0.5977
0.597703
0.597703
0.684281
0.5977
0.689167
0.689149
0.685732
0.590627
0.689637
0.5977
0.597701
0.597698
0.68942
0.687732
0.689995
0.687004
0.689152
0.5977
0.336089
0.588025
0.5977
0.336395
0.5977
0.68896
0.513679
0.5977
0.690454
0.597701
0.683471
0.597698
0.688511
0.597732
0.516331
0.689537
0.590648
0.689139
0.446588
0.687234
0.68992
0.5977
0.689772
0.58145
0.68986
0.597705
0.5977
0.5977
0.5977
0.365241
0.698711
0.482118
0.336194
0.5977
0.5977
0.595761
0.5977
0.689233
0.57219
0.689855
0.5977
0.522283
0.626935
0.5977
0.336227
0.689331
0.595338
0.5977
0.5977
0.5977
0.678057
0.5977
0.5977
0.5977
0.68952
0.5977
0.597702
0.5977
0.726175
0.597703
0.5977
0.573805
0.376241
0.5977
0.687448
0.597716
0.5977
0.688747
0.5977
0.689378
0.5977
0.5977
0.5977
0.382315
0.689018
0.5977
0.5977
0.5977
0.596915
0.628121
0.689647
0.339112
0.501486
0.644159
0.5977
0.5977
0.689598
0.687607
0.689425
0.5977
0.5977
0.5977
0.5977
0.597704
0.507
0.597635
0.495152
0.597699
0.59068
0.5977
0.5977
0.595945
0.5977
0.597635
0.681553
0.663865
0.455506
0.5977
0.646659
0.689064
0.597697
0.576869
0.558928
0.557789
0.583558
0.5977
0.42929
0.337037
0.587101
0.5977
0.336333
0.722026
0.689908
0.5977
0.391093
0.597701
0.5977
0.5977
0.597701
0.353436
0.606746
0.563049
0.33614
0.689239
0.336274
0.5977
0.597706
0.689678
0.394735
0.662178
0.682916
0.423856
0.5977
0.597718
0.592951
0.594712
0.5977
0.581736
0.5977
0.416037
0.5977
0.348226
0.68929
0.689526
0.5977
0.597704
0.597699
0.596423
0.689788
0.686425
0.5977
0.5977
0.349683
0.5977
0.492611
0.5977
0.597717
0.588712
0.5977
0.5977
0.596756
0.5977
0.5977
0.524546
0.508072
0.50513
0.5977
0.5977
0.686924
0.38101
0.594253
0.689146
0.597699
0.597071
0.5977
0.5977
0.336238
0.585702
0.683547
0.5977
0.5977
0.555409
0.597697
0.689084
0.589589
0.597709
0.686833
0.689668
0.5977
0.5977
0.597699
0.5977
0.42609
0.685394
0.5977
0.5977
0.5977
0.554988
0.5977
0.356433
0.689507
0.655269
0.341937
0.597684
0.5977
0.5977
0.62929
0.597701
0.5977
0.687859
0.588629
0.451241
0.589253
0.498314
0.364815
0.5977
0.689308
0.5977
0.349319
0.336336
0.5977
0.595384
0.689346
0.5977
0.33581
0.597702
0.690336
0.592413
0.5977
0.5977
0.597564
0.690219
0.5977
0.3361
0.40868
0.5977
0.339294
0.5977
0.5977
0.689771
0.689042
0.597718
0.336395
0.557096
0.3539
0.689393
0.5977
0.336447
0.540869
0.461106
0.690342
0.465681
0.557723
0.5977
0.5977
0.584277
0.5977
0.677198
0.686785
0.396217
0.678117
0.5977
0.597732
0.687381
0.72443
0.387257
0.336114
0.616529
0.364484
0.365393
0.592739
0.597705
0.689954
0.5977
0.5977
0.5977
0.594365
0.689004
0.689241
0.386495
0.597699
0.5977
0.626538
0.5977
0.593421
0.597698
0.690084
0.68175
0.5977
0.5977
0.5977
0.5977
0.683262
0.590825
0.597702
0.684608
0.688927
0.552184
0.687088
0.557283
0.681244
0.655413
0.68693
0.556067
0.689361
0.597722
0.588662
0.597718
0.689808
0.689576
0.5977
0.597702
0.5977
0.529606
0.429428
0.597708
0.388883
0.597702
0.38228
0.387151
0.5977
0.577403
0.5977
0.420089
0.594152
0.669187
0.336269
0.597699
0.5977
0.688317
0.548485
0.687135
0.593747
0.441095
0.591851
0.5977
0.5977
0.5977
0.590124
0.5977
0.336072
0.68898
0.5977
0.597716
0.689466
0.689812
0.5977
0.336189
0.5977
0.583583
0.597701
0.689108
0.689479
0.336244
0.603276
0.689327
0.597703
0.5977
0.688066
0.336173
0.337891
0.688424
0.5977
0.597703
0.5977
0.336287
0.5977
0.597704
0.597718
0.597722
0.52604
0.5977
0.687575
0.611335
0.508942
0.5977
0.689685
0.5977
0.5977
0.5977
0.5977
0.336394
0.344867
0.68964
0.33668
0.33642
0.687409
0.639176
0.461437
0.5977
0.456065
0.596272
0.597699
0.658288
0.689539
0.5977
0.689362
0.558363
0.347181
0.597608
0.689299
0.655274
0.5977
0.5977
0.5977
0.597716
0.688719
0.381538
0.690026
0.597698
0.689274
0.5977
0.420517
0.56947
0.336148
0.336347
0.588293
0.5977
0.597702
0.390924
0.688036
0.5977
0.597709
0.527551
0.584297
0.336286
0.685187
0.597699
0.5977
0.5977
0.688712
0.688027
0.510677
0.5977
0.689984
0.689787
0.33621
0.5977
0.5977
0.5977
0.687687
0.5977
0.729614
0.597107
0.587323
0.687998
0.684332
0.689705
0.690602
0.336219
0.5977
0.335953
0.5977
0.689199
0.596833
0.681496
0.5977
0.589248
0.597703
0.33619
0.597693
0.6863
0.5977
0.648006
0.351392
0.596327
0.5977
0.597698
0.39251
0.672476
0.688732
0.597699
0.544139
0.5977
0.590264
0.336075
0.5977
0.673428
0.5977
0.447724
0.336213
0.593116
0.5977
0.583808
0.675203
0.5977
0.688665
0.5977
0.685912
0.349753
0.685964
0.5977
0.68298
0.5977
0.597721
0.391484
0.563786
0.5977
0.588595
0.597699
0.5977
0.5977
0.5977
0.689928
0.540545
0.5977
0.68122
0.5977
0.40082
0.410625
0.5977
0.679876
0.597703
0.5977
0.5977
0.687616
0.336209
0.5977
0.640687
0.590698
0.40704
0.5977
0.593458
0.5977
0.576952
0.68606
0.686581
0.547946
0.687147
0.5977
0.55789
0.5977
0.557709
0.687499
0.5977
0.688739
0.689647
0.689086
0.686338
0.5977
0.63425
0.480565
0.689917
0.557461
0.338209
0.575627
0.582698
0.336425
0.398561
0.656046
0.597699
0.493968
0.5977
0.686936
0.5977
0.5977
0.5977
0.5977
0.690069
0.597721
0.5977
0.689518
0.597714
0.560051
0.34836
0.5977
0.5977
0.336449
0.5977
0.583297
0.68719
0.5977
0.445748
0.5977
0.5977
0.5977
0.68855
0.542837
0.5977
0.597699
0.686723
0.5977
0.5977
0.646256
0.5977
0.5977
0.336457
0.683154
0.58664
0.56578
0.597736
0.689433
0.337371
0.5977
0.390309
0.5977
0.561253
0.688773
0.591071
0.616286
0.340225
0.689745
0.68653
0.5868
0.598013
0.477567
0.589713
0.5977
0.585549
0.5977
0.597703
0.5977
0.590323
0.5977
0.5977
0.629356
0.5977
0.5977
0.597715
0.5977
0.685843
0.577638
0.689566
0.683862
0.5977
0.5977
0.548205
0.5977
0.336244
0.597702
0.587756
0.689191
0.59078
0.704695
0.66668
0.597712
0.687638
0.336224
0.393525
0.689381
0.628476
0.5977
0.677152
0.608351
0.336104
0.5977
0.686749
0.685512
0.597735
0.5977
0.5977
0.389575
0.689824
0.687971
0.684923
0.687306
0.597717
0.5977
0.5977
0.558358
0.6838
0.589143
0.5977
0.685953
0.597719
0.5977
0.5977
0.5977
0.68736
0.41106
0.597714
0.686687
0.663508
0.579259
0.597698
0.578777
0.580533
0.492078
0.596622
0.597705
0.336356
0.686688
0.55439
0.448374
0.5977
0.5977
0.555794
0.5977
0.336424
0.690171
0.5977
0.5977
0.597703
0.5977
0.5977
0.689283
0.5977
0.597535
0.543146
0.635764
0.689265
0.460848
0.340123
0.5977
0.5977
0.5977
0.589926
0.688744
0.590728
0.597111
0.5977
0.685752
0.689236
0.672269
0.336095
0.689224
0.5977
0.5977
0.5977
0.459426
0.57063
0.495451
0.5977
0.5977
0.5977
0.341815
0.597699
0.679923
0.59273
0.597693
0.689963
0.685533
0.5977
0.688423
0.597716
0.576355
0.566229
0.5977
0.583034
0.690622
0.566613
0.689599
0.689197
0.689644
0.597698
0.5977
0.5977
0.686909
0.523005
0.353562
0.688161
0.597114
0.5977
0.689153
0.654443
0.5977
0.336132
0.5977
0.597704
0.5977
0.687114
0.597703
0.5977
0.5977
0.597699
0.684595
0.5977
0.5977
0.336023
0.5977
0.686104
0.5977
0.584163
0.5977
0.5977
0.596217
0.597703
0.336153
0.349419
0.689129
0.5977
0.5977
0.687691
0.674712
0.59593
0.68819
0.689694
0.597702
0.336362
0.5977
0.33609
0.687501
0.667782
0.5977
0.5977
0.689764
0.597709
0.5977
0.597704
0.338671
0.5977
0.597718
0.687928
0.528784
0.5977
0.597704
0.689309
0.336155
0.557648
0.678922
0.360232
0.5977
0.588606
0.684427
0.336001
0.408773
0.543564
0.5977
0.689977
0.59771
0.597709
0.592887
0.593467
0.5977
0.5977
0.336375
0.5977
0.336409
0.597703
0.351153
0.5977
0.687155
0.597699
0.5977
0.402048
0.689658
0.476958
0.354134
0.597703
0.597714
0.5977
0.5977
0.541152
0.597496
0.68917
0.680615
0.5977
0.597715
0.5977
0.597728
0.345502
0.672957
0.689604
0.5977
0.336403
0.5977
0.5977
0.597704
0.5977
0.5977
0.5977
0.5977
0.597698
0.596771
0.591402
0.5977
0.701419
0.597714
0.5977
0.33611
0.592149
0.583589
0.342537
0.59701
0.687244
0.593847
0.597702
0.591753
0.597702
0.5977
0.59772
0.556167
0.361509
0.571615
0.337741
0.589617
0.687192
0.358435
0.53125
0.689459
0.597717
0.5977
0.5977
0.5977
0.5977
0.5977
0.5977
0.5977
0.689378
0.686916
0.590275
0.588067
0.5977
0.597701
0.689595
0.597511
0.518324
0.5977
0.5977
0.597721
0.597711
0.336194
0.5977
0.5977
0.5977
0.5977
0.578075
0.597698
0.5977
0.5977
0.370719
0.5977
0.336078
0.5977
0.5977
0.688864
0.658338
0.686424
0.593606
0.573433
0.556545
0.668681
0.5977
0.681274
0.511461
0.465927
0.5977
0.568752
0.597714
0.689922
0.650845
0.5977
0.5977
0.68884
0.597709
0.556698
0.5977
0.5977
0.61214
0.5977
0.5977
0.555876
0.597728
0.5977
0.5977
0.5977
0.5977
0.686929
0.635595
0.593139
0.652927
0.712887
0.360269
0.621883
0.686942
0.592869
0.365761
0.336121
0.466164
0.5977
0.336416
0.499604
0.687414
0.597703
0.391517
0.597547
0.690454
0.5977
0.688936
0.5977
0.555033
0.5977