# vtk DataFile Version 1.0
unstructured grid
ascii
DATASET UNSTRUCTURED_GRID
points 13672 float
0.0796578 -0.059106 0
0.00128732 0.00159165 0
0.00227961 -0.00102548 0
0.0791586 -0.0598787 0
-0.0546216 0.01 0
0.000495206 0.025 0
0.0800549 -0.035 0
0.135172 -0.08 0
-0.0546216 -0.0451168 0
0.000495206 -0.0301168 0
0.0800549 -0.0901168 0
0.135172 -0.135117 0
-0.0546216 -0.0451168 -0.00551168
0.000495206 -0.0301168 -0.00551168
0.0800549 -0.0901168 -0.00551168
0.135172 -0.135117 -0.00551168
0.135172 -0.08 -0.00551168
0.0800549 -0.035 -0.00551168
0.000495206 0.025 -0.00551168
-0.0546216 0.01 -0.00551168
0.00128732 0.00159165 -0.00551168
0.00227961 -0.00102548 -0.00551168
0.0791586 -0.0598787 -0.00551168
0.0796578 -0.059106 -0.00551168
0.00165953 -0.000990923 0
0.00119576 -0.000874076 0
0.000866021 -0.000641801 0
0.000645147 -0.000349912 0
0.00052235 -1.7281e-05 0
0.00049972 0.000348016 0
0.000601632 0.000737716 0
0.000861774 0.0011403 0
0.00157235 0.00183217 0
0.00188647 0.00206725 0
0.00222612 0.00230203 0
0.00258713 0.00254351 0
0.00296826 0.00279524 0
0.00337118 0.00305664 0
0.00379785 0.00332658 0
0.00425045 0.00360349 0
0.00473139 0.00388521 0
0.0052432 0.00416895 0
0.0057881 0.00445204 0
0.00636753 0.00473281 0
0.00698281 0.00500961 0
0.00763526 0.00528058 0
0.00832616 0.00554366 0
0.00905691 0.00579603 0
0.00982918 0.00603333 0
0.0106445 0.00625033 0
0.0115038 0.00644128 0
0.0124073 0.00660297 0
0.0133543 0.00673414 0
0.0143444 0.00683382 0
0.0153769 0.00690031 0
0.0164512 0.00693173 0
0.0175666 0.00692547 0
0.0187219 0.00687822 0
0.0199156 0.00678477 0
0.0211454 0.00663864 0
0.0224084 0.00643275 0
0.0237018 0.00616676 0
0.0250249 0.00584739 0
0.026375 0.00547298 0
0.0277479 0.00503752 0
0.0291386 0.00453545 0
0.0305433 0.0039653 0
0.0319572 0.0033256 0
0.0333681 0.00260019 0
0.034775 0.00179799 0
0.0361793 0.000930615 0
0.0375798 3.12222e-06 0
0.0389689 -0.000988429 0
0.0403357 -0.00205109 0
0.041675 -0.00318283 0
0.0429849 -0.00437751 0
0.0442643 -0.00562904 0
0.0455126 -0.00693089 0
0.0467314 -0.00827518 0
0.0479204 -0.00965638 0
0.0490661 -0.0110799 0
0.0501515 -0.0125519 0
0.0511696 -0.0140695 0
0.0521492 -0.0156071 0
0.0531202 -0.0171411 0
0.0540851 -0.0186663 0
0.0550431 -0.0201798 0
0.0559923 -0.0216793 0
0.0569311 -0.0231626 0
0.0578582 -0.0246273 0
0.0587723 -0.0260715 0
0.0596721 -0.027493 0
0.0605563 -0.02889 0
0.0614241 -0.0302609 0
0.0622742 -0.0316042 0
0.063106 -0.0329183 0
0.0639186 -0.034202 0
0.0647113 -0.0354543 0
0.0654835 -0.0366743 0
0.0662345 -0.0378613 0
0.0669642 -0.0390145 0
0.0676726 -0.0401333 0
0.0683597 -0.0412172 0
0.0690246 -0.0422665 0
0.0696662 -0.0432819 0
0.0702841 -0.0442636 0
0.0708793 -0.0452111 0
0.0714538 -0.0461237 0
0.072009 -0.047001 0
0.0725452 -0.0478434 0
0.0730611 -0.0486524 0
0.073556 -0.0494294 0
0.0740291 -0.0501756 0
0.0744812 -0.0508916 0
0.0749138 -0.0515773 0
0.0753285 -0.0522331 0
0.0757266 -0.0528592 0
0.076109 -0.0534564 0
0.0764753 -0.0540264 0
0.0768243 -0.054571 0
0.0771553 -0.0550919 0
0.0774679 -0.0555901 0
0.0777617 -0.0560669 0
0.0780369 -0.056523 0
0.0782958 -0.0569578 0
0.0785421 -0.0573703 0
0.0787786 -0.0577603 0
0.0790073 -0.0581279 0
0.0792295 -0.058474 0
0.0794462 -0.0587995 0
0.0798803 -0.0594162 0
0.0800272 -0.0596588 0
0.0800357 -0.0598891 0
0.0799275 -0.0600784 0
0.0797205 -0.0601773 0
0.0794593 -0.0601051 0
0.0789155 -0.0596491 0
0.0786707 -0.0593963 0
0.0784111 -0.0591319 0
0.0781372 -0.0588542 0
0.0778566 -0.0585548 0
0.0775715 -0.0582308 0
0.0772803 -0.0578828 0
0.0769832 -0.0575099 0
0.0766822 -0.0571097 0
0.0763801 -0.0566796 0
0.0760759 -0.0562196 0
0.0757623 -0.0557337 0
0.0754359 -0.0552232 0
0.0750951 -0.0546879 0
0.0747379 -0.054128 0
0.0743626 -0.0535435 0
0.0739688 -0.0529338 0
0.0735559 -0.0522981 0
0.0731238 -0.0516357 0
0.0726718 -0.050946 0
0.0721991 -0.0502288 0
0.0717046 -0.049484 0
0.0711872 -0.0487117 0
0.0706461 -0.047912 0
0.0700804 -0.0470849 0
0.0694892 -0.0462308 0
0.0688718 -0.0453499 0
0.0682271 -0.0444431 0
0.0675544 -0.043511 0
0.0668527 -0.0425546 0
0.0661215 -0.0415748 0
0.06536 -0.040573 0
0.0645676 -0.0395504 0
0.0637439 -0.0385087 0
0.0628887 -0.0374493 0
0.062002 -0.0363741 0
0.0610838 -0.0352847 0
0.0601345 -0.0341831 0
0.0591547 -0.033071 0
0.0581456 -0.0319502 0
0.0571083 -0.0308224 0
0.0560444 -0.0296893 0
0.0549562 -0.028552 0
0.053845 -0.0274126 0
0.0527113 -0.0262746 0
0.051554 -0.0251427 0
0.0503724 -0.0240222 0
0.0491675 -0.0229164 0
0.047941 -0.0218282 0
0.0466955 -0.0207597 0
0.0454337 -0.0197126 0
0.0441592 -0.0186878 0
0.0428751 -0.0176863 0
0.0415841 -0.0167097 0
0.0402878 -0.0157609 0
0.0389879 -0.0148428 0
0.0376864 -0.0139575 0
0.0363853 -0.013107 0
0.0350871 -0.0122931 0
0.0337942 -0.0115164 0
0.0325095 -0.0107772 0
0.0312357 -0.0100756 0
0.0299758 -0.00941024 0
0.0287337 -0.00877784 0
0.0275126 -0.00817571 0
0.0263139 -0.00760375 0
0.0251376 -0.00706528 0
0.0239829 -0.0065649 0
0.0228537 -0.00609619 0
0.0217522 -0.00565563 0
0.0206795 -0.00524226 0
0.0196364 -0.00485507 0
0.0186233 -0.00449318 0
0.0176408 -0.00415577 0
0.016689 -0.00384204 0
0.0157682 -0.00355115 0
0.0148783 -0.00328218 0
0.0140192 -0.00303468 0
0.0131906 -0.00280795 0
0.0123925 -0.00260016 0
0.0116246 -0.00241012 0
0.0108864 -0.00223769 0
0.0101774 -0.00208212 0
0.00949701 -0.00194206 0
0.00884483 -0.0018163 0
0.0082202 -0.0017039 0
0.00762247 -0.00160391 0
0.00705097 -0.00151528 0
0.006505 -0.00143697 0
0.0059838 -0.00136806 0
0.00548662 -0.00130772 0
0.00501265 -0.00125519 0
0.00456114 -0.00120954 0
0.00413136 -0.00116914 0
0.00372257 -0.00113251 0
0.00333398 -0.00109853 0
0.00296466 -0.00106798 0
0.00261363 -0.0010431 0
-0.052721 -0.0445996 0
-0.0508204 -0.0440823 0
-0.0489199 -0.0435651 0
-0.0470193 -0.0430478 0
-0.0451187 -0.0425306 0
-0.0432181 -0.0420134 0
-0.0413175 -0.0414961 0
-0.039417 -0.0409789 0
-0.0375164 -0.0404616 0
-0.0356158 -0.0399444 0
-0.0337152 -0.0394271 0
-0.0318146 -0.0389099 0
-0.0299141 -0.0383927 0
-0.0280135 -0.0378754 0
-0.0261129 -0.0373582 0
-0.0242123 -0.0368409 0
-0.0223117 -0.0363237 0
-0.0204112 -0.0358065 0
-0.0185106 -0.0352892 0
-0.01661 -0.034772 0
-0.0147094 -0.0342547 0
-0.0128088 -0.0337375 0
-0.0109083 -0.0332202 0
-0.00900769 -0.032703 0
-0.00710711 -0.0321858 0
-0.00520653 -0.0316685 0
-0.00330595 -0.0311513 0
-0.00140537 -0.030634 0
0.00190689 -0.0299614 0
0.00332271 -0.0298498 0
0.00474133 -0.0297825 0
0.00616136 -0.0297597 0
0.0075814 -0.0297814 0
0.00900007 -0.0298477 0
0.010416 -0.0299583 0
0.0118278 -0.0301127 0
0.0132342 -0.0303103 0
0.0146339 -0.0305504 0
0.0160259 -0.0308322 0
0.0174091 -0.0311546 0
0.0187824 -0.0315166 0
0.020145 -0.031917 0
0.0214961 -0.0323546 0
0.0228351 -0.032828 0
0.0241613 -0.0333361 0
0.0254744 -0.0338774 0
0.0267738 -0.0344507 0
0.0280592 -0.0350545 0
0.0293306 -0.0356877 0
0.0305875 -0.0363488 0
0.0318301 -0.0370367 0
0.0330581 -0.0377501 0
0.0342717 -0.0384879 0
0.0354708 -0.0392489 0
0.0366556 -0.0400321 0
0.0378262 -0.0408363 0
0.0389828 -0.0416607 0
0.0401254 -0.0425042 0
0.0412543 -0.0433659 0
0.0423698 -0.0442451 0
0.043472 -0.0451408 0
0.0445612 -0.0460523 0
0.0456375 -0.0469789 0
0.0467013 -0.0479199 0
0.0477529 -0.0488746 0
0.0487923 -0.0498424 0
0.04982 -0.0508227 0
0.0508362 -0.051815 0
0.051841 -0.0528187 0
0.0528348 -0.0538333 0
0.0538178 -0.0548584 0
0.0547903 -0.0558935 0
0.0557524 -0.0569382 0
0.0567045 -0.0579922 0
0.0576467 -0.0590549 0
0.0585792 -0.0601261 0
0.0595024 -0.0612055 0
0.0604163 -0.0622926 0
0.0613212 -0.0633873 0
0.0622174 -0.0644891 0
0.0631049 -0.0655979 0
0.0639841 -0.0667134 0
0.064855 -0.0678353 0
0.0657179 -0.0689633 0
0.0665729 -0.0700974 0
0.0674202 -0.0712372 0
0.06826 -0.0723826 0
0.0690925 -0.0735333 0
0.0699178 -0.0746892 0
0.070736 -0.0758501 0
0.0715473 -0.0770159 0
0.0723518 -0.0781863 0
0.0731498 -0.0793612 0
0.0739412 -0.0805405 0
0.0747264 -0.081724 0
0.0755053 -0.0829116 0
0.0762781 -0.0841033 0
0.0770449 -0.0852987 0
0.0778059 -0.0864979 0
0.0785611 -0.0877007 0
0.0793108 -0.088907 0
0.0814681 -0.0912706 0
0.0828814 -0.0924245 0
0.0842946 -0.0935783 0
0.0857079 -0.0947322 0
0.0871211 -0.095886 0
0.0885344 -0.0970399 0
0.0899476 -0.0981937 0
0.0913609 -0.0993476 0
0.0927741 -0.100501 0
0.0941874 -0.101655 0
0.0956006 -0.102809 0
0.0970139 -0.103963 0
0.0984272 -0.105117 0
0.0998404 -0.106271 0
0.101254 -0.107424 0
0.102667 -0.108578 0
0.10408 -0.109732 0
0.105493 -0.110886 0
0.106907 -0.11204 0
0.10832 -0.113194 0
0.109733 -0.114348 0
0.111146 -0.115501 0
0.11256 -0.116655 0
0.113973 -0.117809 0
0.115386 -0.118963 0
0.116799 -0.120117 0
0.118213 -0.121271 0
0.119626 -0.122424 0
0.121039 -0.123578 0
0.122452 -0.124732 0
0.123866 -0.125886 0
0.125279 -0.12704 0
0.126692 -0.128194 0
0.128105 -0.129348 0
0.129519 -0.130501 0
0.130932 -0.131655 0
0.132345 -0.132809 0
0.133758 -0.133963 0
0.135172 -0.133216 0
0.135172 -0.131316 0
0.135172 -0.129415 0
0.135172 -0.127514 0
0.135172 -0.125614 0
0.135172 -0.123713 0
0.135172 -0.121813 0
0.135172 -0.119912 0
0.135172 -0.118012 0
0.135172 -0.116111 0
0.135172 -0.11421 0
0.135172 -0.11231 0
0.135172 -0.110409 0
0.135172 -0.108509 0
0.135172 -0.106608 0
0.135172 -0.104708 0
0.135172 -0.102807 0
0.135172 -0.100906 0
0.135172 -0.0990058 0
0.135172 -0.0971052 0
0.135172 -0.0952046 0
0.135172 -0.0933041 0
0.135172 -0.0914035 0
0.135172 -0.0895029 0
0.135172 -0.0876023 0
0.135172 -0.0857017 0
0.135172 -0.0838012 0
0.135172 -0.0819006 0
0.133758 -0.0788462 0
0.132345 -0.0776923 0
0.130932 -0.0765385 0
0.129519 -0.0753846 0
0.128105 -0.0742308 0
0.126692 -0.0730769 0
0.125279 -0.0719231 0
0.123866 -0.0707692 0
0.122452 -0.0696154 0
0.121039 -0.0684615 0
0.119626 -0.0673077 0
0.118213 -0.0661538 0
0.116799 -0.065 0
0.115386 -0.0638462 0
0.113973 -0.0626923 0
0.11256 -0.0615385 0
0.111146 -0.0603846 0
0.109733 -0.0592308 0
0.10832 -0.0580769 0
0.106907 -0.0569231 0
0.105493 -0.0557692 0
0.10408 -0.0546154 0
0.102667 -0.0534615 0
0.101254 -0.0523077 0
0.0998404 -0.0511538 0
0.0984272 -0.05 0
0.0970139 -0.0488462 0
0.0956006 -0.0476923 0
[...]
CELL_DATA 13116
SCALARS rho float
LOOKUP_TABLE default
0.5977
0.596436
0.552401
0.696548
0.685276
0.689422
0.389893
0.704931
0.5977
0.686778
0.358604
0.565143
0.68529
0.482337
0.504594
0.689506
0.5977
0.5977
0.689141
0.350213
0.5977
0.55997
0.534341
0.5977
0.5977
0.722553
0.675872
0.597716
0.5977
0.5977
0.6896
0.55417
0.5977
0.5977
0.398538
0.5977
0.5977
0.690185
0.689157
0.689741
0.688941
0.702535
0.5977
0.519903
0.690103
0.689606
0.597393
0.689265
0.54458
0.5977
0.699677
0.5977
0.429147
0.5977
0.5977
0.5977
0.516815
0.5977
0.5977
0.525766
0.486907
0.69939
0.597302
0.689033
0.689573
0.453878
0.689363
0.5977
0.688863
0.689541
0.503764
0.5977
0.566345
0.490885
0.664554
0.461145
0.5977
0.686852
0.365252
0.5977
0.5977
0.729982
0.5977
0.690194
0.689259
0.597709
0.40742
0.5977
0.686148
0.33619
0.573291
0.593669
0.597701
0.715835
0.5977
0.5977
0.5977
0.688083
0.683062
0.5977
0.5977
0.5977
0.688831
0.5977
0.597411
0.540844
0.597717
0.5977
0.579852
0.5977
0.5977
0.674277
0.5977
0.5977
0.5977
0.689315
0.436148
0.5977
0.689434
0.689181
0.5977
0.58232
0.688949
0.572392
0.716709
0.5977
0.415594
0.5977
0.552543
0.5977
0.689227
0.678837
0.5977
0.550156
0.5977
0.5977
0.55762
0.690208
0.5977
0.68926
0.5977
0.595913
0.5977
0.5977
0.5977
0.504876
0.395031
0.732553
0.678544
0.701027
0.5977
0.690178
0.689138
0.412654
0.609019
0.689349
0.555517
0.5977
0.688196
0.5977
0.5977
0.359185
0.597702
0.556091
0.588858
0.697949
0.71677
0.5977
0.395318
0.597698
0.597702
0.557589
0.500328
0.5977
0.689363
0.534871
0.523469
0.564642
0.668488
0.68867
0.338877
0.5977
0.5977
0.5977
0.688556
0.5977
0.412048
0.689533
0.596381
0.5977
0.5977
0.734993
0.689812
0.590268
0.696252
0.68974
0.597626
0.689685
0.687024
0.5977
0.5977
0.5977
0.5977
0.500015
0.682115
0.691179
0.5977
0.5977
0.514352
0.341028
0.456996
0.689096
0.568973
0.336401
0.336239
0.419104
0.597705
0.689023
0.717517
0.597711
0.507146
0.689332
0.5977
0.338097
0.5977
0.697233
0.5977
0.597711
0.689308
0.597715
0.703573
0.556924
0.689217
0.5977
0.680933
0.68952
0.689778
0.556167
0.5977
0.5977
0.646986
0.689685
0.55744
0.689533
0.708131
0.529972
0.690022
0.67685
0.685581
0.376623
0.549498
0.69032
0.689601
0.689329
0.688886
0.5977
0.5977
0.3545
0.573447
0.5977
0.511501
0.597704
0.597669
0.5977
0.384289
0.688995
0.429726
0.597708
0.596536
0.375704
0.728991
0.70356
0.57415
0.5977
0.552779
0.562577
0.5977
0.688029
0.690129
0.356243
0.396391
0.587886
0.5977
0.577722
0.569626
0.597578
0.595953
0.68682
0.440969
0.688945
0.687319
0.397556
0.346803
0.42293
0.5977
0.591427
0.5977
0.5977
0.609277
0.370697
0.689301
0.5977
0.580297
0.524336
0.689736
0.689771
0.689606
0.418488
0.689691
0.5977
0.682764
0.701969
0.686942
0.702116
0.597368
0.689344
0.478564
0.689522
0.702443
0.5977
0.335922
0.597163
0.684235
0.423549
0.666743
0.699374
0.597698
0.5977
0.5977
0.408776
0.689396
0.597701
0.477085
0.68893
0.59771
0.5977
0.710933
0.597709
0.5977
0.383949
0.5977
0.597245
0.689355
0.5977
0.597005
0.597717
0.597718
0.689575
0.408027
0.686327
0.59061
0.597699
0.557616
0.408286
0.541132
0.687083
0.5977
0.5977
0.40395
0.55899
0.68968
0.685055
0.387645
0.686539
0.455393
0.54641
0.689486
0.709883
0.5977
0.336243
0.690107
0.689007
0.689528
0.689306
0.59745
0.5977
0.597699
0.499703
0.3391
0.689463
0.337757
0.5977
0.597698
0.588546
0.597718
0.5977
0.584855
0.401432
0.689375
0.572936
0.597704
0.5977
0.689129
0.5977
0.690112
0.546106
0.392917
0.5977
0.597706
0.686793
0.5977
0.688408
0.5977
0.5977
0.5977
0.731358
0.5977
0.5977
0.594283
0.5977
0.689508
0.5977
0.5977
0.5977
0.548634
0.5977
0.5977
0.426208
0.689368
0.601699
0.597641
0.339605
0.336231
0.400138
0.5977
0.452315
0.588558
0.68926
0.452669
0.5977
0.336308
0.690234
0.5977
0.597717
0.550556
0.687274
0.5977
0.336318
0.399346
0.336214
0.58304
0.393536
0.337938
0.579028
0.597705
0.337569
0.5977
0.597713
0.688408
0.5977
0.569201
0.5977
0.510151
0.336272
0.513619
0.689108
0.597698
0.5977
0.5977
0.445498
0.5977
0.687355
0.597709
0.5977
0.5977
0.5977
0.391476
0.682459
0.5977
0.597704
0.689332
0.595937
0.437443
0.597487
0.5977
0.597709
0.5977
0.597717
0.5977
0.597701
0.346994
0.517427
0.483517
0.5977
0.518912
0.458707
0.499766
0.475121
0.6986
0.698827
0.5977
0.5977
0.5977
0.653289
0.597714
0.443206
0.5977
0.597014
0.688107
0.592961
0.597716
0.5977
0.69019
0.718703
0.5977
0.597698
0.430786
0.5977
0.704368
0.688962
0.5977
0.597703
0.597703
0.336058
0.5977
0.5977
0.5977
0.597686
0.589629
0.5977
0.597706
0.5977
0.698618
0.685864
0.718628
0.5977
0.5977
0.688822
0.336218
0.689879
0.597138
0.523466
0.33631
0.697578
0.691068
0.596626
0.689003
0.5977
0.336045
0.689464
0.690142
0.597703
0.597716
0.436808
0.686576
0.33628
0.336276
0.522463
0.335833
0.686254
0.468408
0.696756
0.597687
0.597451
0.688255
0.689252
0.685826
0.336243
0.339332
0.689836
0.703562
0.5977
0.69901
0.669007
0.597699
0.402685
0.597729
0.689688
0.5977
0.336293
0.5977
0.586798
0.712278
0.689736
0.597671
0.566449
0.687935
0.597707
0.689579
0.5977
0.545122
0.597715
0.5977
0.615686
0.560443
0.716622
0.718343
0.690416
0.444015
0.555915
0.504827
0.674988
0.5977
0.336245
0.597706
0.571825
0.678804
0.580534
0.381765
0.597698
0.689486
0.590329
0.377194
0.570102
0.335931
0.689805
0.57241
0.689458
0.500795
0.5977
0.697967
0.5977
0.550193
0.539579
0.597699
0.597728
0.725545
0.431172
0.461792
0.689854
0.459827
0.689034
0.608823
0.686818
0.336552
0.688622
0.597704
0.597535
0.689536
0.712608
0.689418
0.531593
0.689081
0.59771
0.68631
0.358383
0.707381
0.5977
0.405378
0.68953
0.598575
0.416076
0.5977
0.572394
0.498506
0.689166
0.689298
0.586538
0.514708
0.370396
0.532571
0.711443
0.5977
0.437936
0.356495
0.684922
0.689662
0.5977
0.597704
0.689821
0.355711
0.594823
0.597699
0.691173
0.597698
0.5977
0.597699
0.689215
0.5977
0.5977
0.597716
0.597709
0.689366
0.5977
0.5977
0.597703
0.502233
0.5977
0.584234
0.597713
0.5977
0.597705
0.597698
0.689514
0.5977
0.596543
0.689809
0.5977
0.553789
0.59747
0.584217
0.686501
0.490056
0.689087
0.597603
0.597726
0.689219
0.597703
0.686894
0.5977
0.59771
0.5977
0.596063
0.5977
0.572588
0.488222
0.557708
0.5977
0.68935
0.679119
0.336503
0.597357
0.595927
0.696949
0.686876
0.703749
0.338909
0.5977
0.679913
0.346324
0.576246
0.689273
0.690162
0.687712
0.539039
0.5977
0.5977
0.597701
0.636015
0.689152
0.663524
0.336128
0.678062
0.688763
0.597701
0.68955
0.689489
0.597711
0.597072
0.34209
0.5977
0.6851
0.597699
0.597701
0.689022
0.687122
0.5977
0.5977
0.5977
0.5977
0.336416
0.336247
0.381754
0.336891
0.597623
0.5977
0.688946
0.597192
0.341208
0.68869
0.5977
0.472911
0.597616
0.5977
0.5977
0.689523
0.68929
0.5977
0.33858
0.336422
0.555236
0.570015
0.336372
0.437637
0.689411
0.597698
0.33623
0.5977
0.688824
0.66338
0.689512
0.689336
0.439055
0.478162
0.37463
0.5977
0.597698
0.562259
0.5977
0.5977
0.686514
0.68932
0.545703
0.336464
0.698966
0.336232
0.68947
0.597342
0.689412
0.587078
0.336173
0.685831
0.689076
0.5977
0.472277
0.68962
0.689462
0.5977
0.69304
0.704623
0.549778
0.597703
0.337699
0.689395
0.689083
0.5977
0.597704
0.557819
0.678759
0.548723
0.689847
0.458713
0.492924
0.336385
0.689336
0.5977
0.336315
0.592576
0.684527
0.562343
0.5977
0.597705
0.5977
0.5977
0.551813
0.69944
0.5977
0.336397
0.5977
0.689102
0.522423
0.707068
0.466696
0.536976
0.5977
0.5977
0.5977
0.688733
0.389114
0.597703
0.512345
0.551616
0.689101
0.336227
0.5977
0.580872
0.5977
0.5977
0.552855
0.715561
0.498158
0.46797
0.5977
0.5977
0.686911
0.5977
0.5977
0.689093
0.5977
0.5977
0.5977
0.664026
0.597089
0.689598
0.597603
0.336265
0.5977
0.671748
0.597625
0.597698
0.689229
0.5977
0.5977
0.583958
0.5977
0.5977
0.556602
0.680531
0.5977
0.5977
0.689862
0.5977
0.564461
0.5977
0.5977
0.69007
0.690283
0.594931
0.711262
0.688245
0.504522
0.543753
0.419909
0.557775
0.357985
0.5977
0.597648
0.5977
0.585323
0.688635
0.499221
0.5977
0.689171
0.68944
0.5977
0.689813
0.5977
0.5977
0.5977
0.686279
0.494118
0.689133
0.689127
0.5977
0.576066
0.5977
0.593537
0.502196
0.527608
0.686954
0.336383
0.57107
0.374701
0.705544
0.441408
0.597699
0.532113
0.597703
0.704321
0.5977
0.587686
0.5977
0.689083
0.34413
0.5977
0.698881
0.559536
0.5977
0.689244
0.696258
0.689432
0.597736
0.5977
0.686398
0.689477
0.5977
0.336197
0.5977
0.689694
0.556655
0.6154
0.557867
0.5977
0.679083
0.5977
0.68956
0.336167
0.503506
0.556456
0.687542
0.689613
0.462393
0.689248
0.5977
0.5977
0.489427
0.597713
0.687476
0.698305
0.5977
0.597699
0.689007
0.614457
0.386567
0.5977
0.5977
0.388575
0.56771
0.481648
0.583084
0.576011
0.336291
0.68955
0.5977
0.595614
0.5977
0.398554
0.398288
0.69946
0.495774
0.453097
0.689272
0.562376
0.59771
0.5977
0.713472
0.687895
0.340431
0.597698
0.363445
0.618136
0.544786
0.688088
0.456421
0.589147
0.714506
0.689685
0.594984
0.617058
0.606585
0.689457
0.686327
0.688024
0.462447
0.356293
0.594719
0.689806
0.5977
0.58601
0.5977
0.68983
0.5977
0.597717
0.689258
0.698028
0.686534
0.383016
0.673606
0.587169
0.690099
0.597699
0.5977
0.689514
0.553653
0.686041
0.336065
0.5977
0.597645
0.444498
0.5977
0.557736
0.710474
0.405875
0.689238
0.336748
0.583679
0.59061
0.336283
0.5977
0.50564
0.5977
0.689465
0.597699
0.594417
0.597699
0.5977
0.5977
0.5977
0.336563
0.432595
0.382655
0.528552
0.586587
0.5977
0.682259
0.597715
0.688973
0.597553
0.477362
0.697839
0.5977
0.689494
0.367003
0.660545
0.597705
0.59033
0.689341
0.5183
0.686809
0.620228
0.678166
0.5977
0.689024
0.57239
0.591981
0.690011
0.5977
0.336192
0.689253
0.556381
0.5977
0.5977
0.686253
0.686904
0.574297
0.587469
0.5977
0.383316
0.5977
0.686873
0.584251
0.690396
0.5977
0.584721
0.686751
0.522434
0.5977
0.698895
0.680665
0.686259
0.376784
0.577547
0.682036
0.581441
0.686679
0.5977
0.597698
0.594839
0.689378
0.576257
0.689557
0.687147
0.5977
0.579286
0.498526
0.5977
0.5977
0.5977
0.5977
0.690023
0.5977
0.688681
0.557703
0.589888
0.4103
0.592377
0.686387
0.689022
0.5977
0.597698
0.491889
0.5977
0.495075
0.68989
0.5977
0.597699
0.687414
0.34297
0.716077
0.554657
0.674246
0.547497
0.689205
0.688742
0.562593
0.717034
0.5977
0.56972
0.689498
0.688816
0.5977
0.504823
0.597698
0.5977
0.597705
0.5977
0.597703
0.5977
0.589051
0.689734
0.586427
0.5977
0.685278
0.597708
0.68967
0.689153
0.593123
0.689307
0.687891
0.543892
0.5977
0.387649
0.5977
0.397449
0.537778
0.597705
0.336097
0.335939
0.492114
0.689378
0.633565
0.5977
0.688954
0.597701
0.5977
0.335793
0.651356
0.597699
0.68904
0.689745
0.5977
0.689534
0.5977
0.688826
0.689378
0.590892
0.5977
0.5977
0.5977
0.590029
0.597699
0.5977
0.685351
0.344664
0.5977
0.597701
0.688507
0.460502
0.585877
0.5977
0.689633
0.343678
0.689853
0.5977
0.557788
0.704664
0.668657
0.336456
0.698793
0.336557
0.565241
0.694806
0.5977
0.70324
0.68832
0.551376
0.404529
0.367989
0.591609
0.689247
0.5977
0.712104
0.452128
0.404994
0.469034
0.688243
0.597698
0.697793
0.687778
0.5977
0.689465
0.688123
0.5977
0.5977
0.597709
0.569715
0.341252
0.664849
0.657828
0.469515
0.5977
0.588816
0.5977
0.595614
0.5977
0.5977
0.591713
0.5977
0.5977
0.336391
0.689403
0.597004
0.335958
0.687919
0.44708
0.689361
0.593413
0.649309
0.500119
0.597703
0.5977
0.595487
0.597709
0.689301
0.597353
0.689419
0.689478
0.730317
0.5977
0.5977
0.689511
0.5977
0.689309
0.597716
0.689783
0.529737
0.494545
0.688356
0.689477
0.689571
0.588157
0.689255
0.5977
0.660704
0.439446
0.452873
0.336236
0.689375
0.380905
0.459332
0.545929
0.5977
0.454342
0.594406
0.597708
0.688467
0.336217
0.689798
0.689177
0.689515
0.41265
0.690082
0.5977
0.688992
0.597712
0.5977
0.400144
0.34439
0.689123
0.343892
0.5977
0.596855
0.555302
0.336385
0.597263
0.41038
0.5977
0.557418
0.589262
0.69051
0.689384
0.5977
0.336443
0.518002
0.597611
0.5977
0.336518
0.557756
0.5977
0.689141
0.689847
0.353697
0.5977
0.535767
0.5977
0.5977
0.696994
0.5977
0.5977
0.5977
0.5977
0.687082
0.372378
0.5977
0.463082
0.5977
0.5977
0.679275
0.336395
0.597698
0.597702
0.689991
0.689384
0.341338
0.689686
0.5977
0.5977
0.5977
0.594352
0.339604
0.594109
0.689555
0.688942
0.5977
0.627822
0.597704
0.709266
0.5977
0.689022
0.689032
0.711194
0.698446
0.689208
0.5977
0.590452
0.59774
0.690313
0.690299
0.689303
0.690305
0.689513
0.5977
0.336203
0.554784
0.5977
0.336321
0.597699
0.689569
0.483647
0.5977
0.688731
0.594983
0.687626
0.597742
0.689696
0.593391
0.485843
0.68917
0.685976
0.689378
0.42441
0.686825
0.688582
0.5977
0.689397
0.546517
0.689051
0.686112
0.597705
0.5977
0.5977
0.35404
0.696026
0.455563
0.336289
0.5977
0.597699
0.699525
0.597701
0.689375
0.536601
0.688991
0.5977
0.491254
0.682618
0.597699
0.336228
0.688909
0.565881
0.5977
0.5977
0.597702
0.68774
0.597699
0.5977
0.5977
0.689193
0.5977
0.594405
0.5977
0.702457
0.6041
0.5977
0.538978
0.363105
0.597699
0.69048
0.592614
0.5977
0.690054
0.5977
0.689393
0.5977
0.5977
0.5977
0.36822
0.689561
0.593984
0.5977
0.593924
0.687348
0.724476
0.689601
0.336486
0.472733
0.685853
0.5977
0.5977
0.689683
0.689806
0.689506
0.597706
0.594713
0.5977
0.5977
0.701061
0.477571
0.572706
0.467027
0.597714
0.565782
0.5977
0.5977
0.687328
0.5977
0.577236
0.687758
0.696613
0.432223
0.597714
0.619393
0.689973
0.59773
0.542113
0.524677
0.557773
0.724586
0.5977
0.409075
0.336394
0.553637
0.597704
0.336244
0.704597
0.689524
0.597707
0.375746
0.592245
0.5977
0.5977
0.597661
0.344818
0.682612
0.561506
0.336284
0.689814
0.336034
0.5977
0.597528
0.689501
0.379205
0.687398
0.698345
0.404388
0.5977
0.585768
0.698229
0.564473
0.5977
0.547176
0.5977
0.397446
0.5977
0.341265
0.689693
0.689719
0.5977
0.605299
0.597713
0.667166
0.689203
0.687744
0.5977
0.5977
0.342236
0.5977
0.46499
0.597702
0.591633
0.688242
0.5977
0.5977
0.697229
0.5977
0.594854
0.493285
0.478537
0.475986
0.5977
0.5977
0.689338
0.367164
0.562612
0.689372
0.597713
0.570857
0.5977
0.597709
0.336236
0.551915
0.702123
0.5977
0.5977
0.521218
0.610869
0.689542
0.556427
0.59657
0.688698
0.689562
0.5977
0.5977
0.597711
0.597716
0.40621
0.712247
0.5977
0.5977
0.5977
0.520606
0.5977
0.347091
0.689734
0.687371
0.337842
0.578405
0.5977
0.5977
0.685176
0.584957
0.597609
0.689868
0.698214
0.428313
0.555459
0.469894
0.353561
0.5977
0.688516
0.5977
0.341842
0.336336
0.5977
0.565236
0.689504
0.597702
0.336186
0.597578
0.689065
0.560126
0.5977
0.597705
0.648379
0.689025
0.5977
0.336148
0.39121
0.5977
0.336801
0.5977
0.5977
0.689535
0.689331
0.588461
0.336431
0.557757
0.34519
0.689164
0.597702
0.336144
0.508043
0.436928
0.689144
0.441068
0.557845
0.597702
0.5977
0.550124
0.5977
0.686188
0.689397
0.380188
0.686985
0.5977
0.578869
0.689419
0.700587
0.372456
0.336108
0.68584
0.353358
0.35393
0.683406
0.597513
0.690315
0.5977
0.5977
0.5977
0.687163
0.689361
0.689695
0.371819
0.597713
0.5977
0.685787
0.597703
0.698852
0.597718
0.689592
0.687793
0.5977
0.5977
0.5977
0.5977
0.688421
0.686959
0.584719
0.700513
0.68923
0.546368
0.705831
0.557819
0.713066
0.683672
0.713461
0.557951
0.689538
0.574498
0.729128
0.585376
0.689446
0.69005
0.597701
0.592086
0.5977
0.497801
0.409131
0.596839
0.373821
0.598388
0.368272
0.37243
0.5977
0.542638
0.5977
0.400969
0.685605
0.687288
0.336061
0.597713
0.597698
0.690058
0.514708
0.689536
0.684388
0.419368
0.681793
0.5977
0.5977
0.597711
0.557147
0.5977
0.336146
0.689367
0.5977
0.592435
0.689912
0.688553
0.597698
0.336137
0.5977
0.54918
0.591419
0.689668
0.689258
0.336201
0.684933
0.689942
0.632669
0.597699
0.690212
0.335956
0.336117
0.689253
0.5977
0.639187
0.5977
0.336211
0.597704
0.657781
0.584673
0.574785
0.494428
0.5977
0.682428
0.686895
0.479465
0.5977
0.689253
0.5977
0.5977
0.597699
0.5977
0.3362
0.339281
0.690303
0.335892
0.336405
0.686045
0.697756
0.437428
0.5977
0.4325
0.570246
0.597713
0.687887
0.68946
0.5977
0.689224
0.524211
0.340499
0.574996
0.689395
0.686363
0.5977
0.5977
0.597711
0.594253
0.68918
0.367628
0.690057
0.597715
0.689452
0.5977
0.401653
0.534066
0.33603
0.336407
0.554233
0.5977
0.595234
0.375889
0.690602
0.5977
0.596306
0.495758
0.698612
0.336465
0.688513
0.597711
0.5977
0.5977
0.690025
0.684816
0.480964
0.593403
0.688997
0.701318
0.336172
0.5977
0.5977
0.597698
0.690159
0.5977
0.705147
0.662756
0.697897
0.689426
0.701916
0.689553
0.688685
0.336476
0.597703
0.336023
0.5977
0.689169
0.569865
0.687539
0.597702
0.555474
0.610043
0.336121
0.575268
0.686146
0.5977
0.697907
0.343425
0.670846
0.5977
0.597717
0.377052
0.71981
0.68963
0.597716
0.51066
0.597703
0.698292
0.336324
0.5977
0.698283
0.5977
0.42533
0.33599
0.561367
0.5977
0.549661
0.686941
0.5977
0.689286
0.5977
0.688058
0.342324
0.68737
0.5977
0.691641
0.5977
0.596403
0.376054
0.529052
0.5977
0.686424
0.597711
0.5977
0.597699
0.5977
0.689229
0.507373
0.5977
0.686811
0.5977
0.384231
0.392779
0.59771
0.687252
0.658708
0.5977
0.5977
0.689739
0.336373
0.5977
0.615936
0.684851
0.389679
0.5977
0.561728
0.59766
0.542215
0.689779
0.693141
0.514381
0.68867
0.5977
0.557772
0.5977
0.557715
0.687942
0.5977
0.689193
0.6886
0.689681
0.689639
0.597701
0.611102
0.454067
0.688756
0.522974
0.336447
0.540843
0.547644
0.336346
0.382317
0.698267
0.597716
0.465988
0.5977
0.688044
0.617513
0.5977
0.5977
0.5977
0.689112
0.582523
0.5977
0.689455
0.593709
0.524971
0.341197
0.5977
0.5977
0.336246
0.5977
0.548844
0.681129
0.5977
0.423403
0.597699
0.5977
0.597709
0.689663
0.509377
0.5977
0.597717
0.713382
0.597704
0.5977
0.614315
0.597673
0.5977
0.335921
0.711739
0.698912
0.530429
0.58395
0.689214
0.336414
0.5977
0.375105
0.5977
0.526651
0.689284
0.557559
0.698925
0.337195
0.689202
0.688418
0.686976
0.572572
0.451404
0.556631
0.5977
0.7221
0.5977
0.634156
0.5977
0.557021
0.596686
0.597699
0.686059
0.5977
0.5977
0.593766
0.597705
0.690766
0.54288
0.689242
0.710597
0.594435
0.5977
0.514291
0.5977
0.336025
0.58545
0.554501
0.689464
0.683908
0.712693
0.699415
0.595309
0.697625
0.336142
0.377889
0.689019
0.598893
0.5977
0.687052
0.582787
0.335966
0.5977
0.714843
0.703578
0.58431
0.597699
0.5977
0.374528
0.689937
0.690052
0.687862
0.714301
0.590875
0.5977
0.5977
0.523911
0.687135
0.697178
0.5977
0.687264
0.588333
0.5977
0.5977
0.5977
0.716156
0.393181
0.596799
0.689169
0.686791
0.544249
0.597717
0.543821
0.545431
0.464451
0.567693
0.597467
0.336225
0.688838
0.520068
0.425969
0.597703
0.5977
0.557121
0.597702
0.336435
0.689054
0.5977
0.5977
0.601047
0.597708
0.5977
0.689415
0.5977
0.638414
0.509844
0.687005
0.689488
0.436781
0.336836
0.5977
0.597701
0.5977
0.698033
0.689496
0.686316
0.65451
0.5977
0.687875
0.689557
0.716655
0.336244
0.689412
0.5977
0.5977
0.597698
0.435392
0.535996
0.467393
0.5977
0.5977
0.594581
0.337697
0.597713
0.700299
0.560933
0.667571
0.688468
0.687889
0.5977
0.689834
0.589884
0.541641
0.53159
0.5977
0.54879
0.689168
0.531927
0.689066
0.690152
0.690473
0.597716
0.5977
0.5977
0.68843
0.491811
0.34486
0.68917
0.658203
0.5977
0.68927
0.720363
0.5977
0.336223
0.5977
0.679514
0.5977
0.688986
0.603897
0.5977
0.597707
0.597712
0.70307
0.597699
0.5977
0.336027
0.597702
0.688924
0.5977
0.549954
0.59638
0.5977
0.685243
0.626703
0.336183
0.342171
0.688083
0.5977
0.5977
0.689423
0.72011
0.566283
0.689749
0.68892
0.590267
0.336281
0.5977
0.336114
0.689402
0.687382
0.5977
0.597689
0.689517
0.596256
0.597702
0.591293
0.33658
0.5977
0.585534
0.690443
0.497242
0.5977
0.669706
0.68836
0.336294
0.557836
0.663662
0.350041
0.597701
0.555218
0.701632
0.336266
0.391375
0.510578
0.5977
0.689497
0.596272
0.596563
0.730408
0.698725
0.5977
0.5977
0.336359
0.5977
0.336312
0.58932
0.343323
0.5977
0.688469
0.597717
0.5977
0.385534
0.689652
0.45093
0.34551
0.608529
0.595173
0.5977
0.5977
0.508476
0.68419
0.688962
0.717598
0.5977
0.584061
0.5977
0.575678
0.339538
0.687404
0.689399
0.597705
0.336419
0.597704
0.5977
0.678117
0.5977
0.593537
0.5977
0.597703
0.597718
0.696682
0.697657
0.5977
0.699547
0.574008
0.597701
0.33584
0.55948
0.549161
0.337943
0.700047
0.68957
0.699345
0.590725
0.681969
0.597692
0.5977
0.586957
0.521909
0.351068
0.536369
0.336061
0.686136
0.68932
0.348413
0.49919
0.689781
0.592008
0.5977
0.597703
0.5977
0.5977
0.5977
0.597635
0.5977
0.689425
0.689929
0.681903
0.697468
0.5977
0.587919
0.689346
0.572654
0.487777
0.597699
0.597708
0.577707
0.596468
0.336014
0.5977
0.595641
0.5977
0.5977
0.542789
0.597716
0.5977
0.597702
0.358447
0.5977
0.336328
0.5977
0.5977
0.689548
0.718549
0.688739
0.562733
0.538634
0.557497
0.686892
0.5977
0.686135
0.48152
0.441142