# vtk DataFile Version 1.0
unstructured grid
ascii
DATASET UNSTRUCTURED_GRID
points 13672 float
0.0796578 -0.059106 0
0.00128732 0.00159165 0
0.00227961 -0.00102548 0
0.0791586 -0.0598787 0
-0.0546216 0.01 0
0.000495206 0.025 0
0.0800549 -0.035 0
0.135172 -0.08 0
-0.0546216 -0.0451168 0
0.000495206 -0.0301168 0
0.0800549 -0.0901168 0
0.135172 -0.135117 0
-0.0546216 -0.0451168 -0.00551168
0.000495206 -0.0301168 -0.00551168
0.0800549 -0.0901168 -0.00551168
0.135172 -0.135117 -0.00551168
0.135172 -0.08 -0.00551168
0.0800549 -0.035 -0.00551168
0.000495206 0.025 -0.00551168
-0.0546216 0.01 -0.00551168
0.00128732 0.00159165 -0.00551168
0.00227961 -0.00102548 -0.00551168
0.0791586 -0.0598787 -0.00551168
0.0796578 -0.059106 -0.00551168
0.00165953 -0.000990923 0
0.00119576 -0.000874076 0
0.000866021 -0.000641801 0
0.000645147 -0.000349912 0
0.00052235 -1.7281e-05 0
0.00049972 0.000348016 0
0.000601632 0.000737716 0
0.000861774 0.0011403 0
0.00157235 0.00183217 0
0.00188647 0.00206725 0
0.00222612 0.00230203 0
0.00258713 0.00254351 0
0.00296826 0.00279524 0
0.00337118 0.00305664 0
0.00379785 0.00332658 0
0.00425045 0.00360349 0
0.00473139 0.00388521 0
0.0052432 0.00416895 0
0.0057881 0.00445204 0
0.00636753 0.00473281 0
0.00698281 0.00500961 0
0.00763526 0.00528058 0
0.00832616 0.00554366 0
0.00905691 0.00579603 0
0.00982918 0.00603333 0
0.0106445 0.00625033 0
0.0115038 0.00644128 0
0.0124073 0.00660297 0
0.0133543 0.00673414 0
0.0143444 0.00683382 0
0.0153769 0.00690031 0
0.0164512 0.00693173 0
0.0175666 0.00692547 0
0.0187219 0.00687822 0
0.0199156 0.00678477 0
0.0211454 0.00663864 0
0.0224084 0.00643275 0
0.0237018 0.00616676 0
0.0250249 0.00584739 0
0.026375 0.00547298 0
0.0277479 0.00503752 0
0.0291386 0.00453545 0
0.0305433 0.0039653 0
0.0319572 0.0033256 0
0.0333681 0.00260019 0
0.034775 0.00179799 0
0.0361793 0.000930615 0
0.0375798 3.12222e-06 0
0.0389689 -0.000988429 0
0.0403357 -0.00205109 0
0.041675 -0.00318283 0
0.0429849 -0.00437751 0
0.0442643 -0.00562904 0
0.0455126 -0.00693089 0
0.0467314 -0.00827518 0
0.0479204 -0.00965638 0
0.0490661 -0.0110799 0
0.0501515 -0.0125519 0
0.0511696 -0.0140695 0
0.0521492 -0.0156071 0
0.0531202 -0.0171411 0
0.0540851 -0.0186663 0
0.0550431 -0.0201798 0
0.0559923 -0.0216793 0
0.0569311 -0.0231626 0
0.0578582 -0.0246273 0
0.0587723 -0.0260715 0
0.0596721 -0.027493 0
0.0605563 -0.02889 0
0.0614241 -0.0302609 0
0.0622742 -0.0316042 0
0.063106 -0.0329183 0
0.0639186 -0.034202 0
0.0647113 -0.0354543 0
0.0654835 -0.0366743 0
0.0662345 -0.0378613 0
0.0669642 -0.0390145 0
0.0676726 -0.0401333 0
0.0683597 -0.0412172 0
0.0690246 -0.0422665 0
0.0696662 -0.0432819 0
0.0702841 -0.0442636 0
0.0708793 -0.0452111 0
0.0714538 -0.0461237 0
0.072009 -0.047001 0
0.0725452 -0.0478434 0
0.0730611 -0.0486524 0
0.073556 -0.0494294 0
0.0740291 -0.0501756 0
0.0744812 -0.0508916 0
0.0749138 -0.0515773 0
0.0753285 -0.0522331 0
0.0757266 -0.0528592 0
0.076109 -0.0534564 0
0.0764753 -0.0540264 0
0.0768243 -0.054571 0
0.0771553 -0.0550919 0
0.0774679 -0.0555901 0
0.0777617 -0.0560669 0
0.0780369 -0.056523 0
0.0782958 -0.0569578 0
0.0785421 -0.0573703 0
0.0787786 -0.0577603 0
0.0790073 -0.0581279 0
0.0792295 -0.058474 0
0.0794462 -0.0587995 0
0.0798803 -0.0594162 0
0.0800272 -0.0596588 0
0.0800357 -0.0598891 0
0.0799275 -0.0600784 0
0.0797205 -0.0601773 0
0.0794593 -0.0601051 0
0.0789155 -0.0596491 0
0.0786707 -0.0593963 0
0.0784111 -0.0591319 0
0.0781372 -0.0588542 0
0.0778566 -0.0585548 0
0.0775715 -0.0582308 0
0.0772803 -0.0578828 0
0.0769832 -0.0575099 0
0.0766822 -0.0571097 0
0.0763801 -0.0566796 0
0.0760759 -0.0562196 0
0.0757623 -0.0557337 0
0.0754359 -0.0552232 0
0.0750951 -0.0546879 0
0.0747379 -0.054128 0
0.0743626 -0.0535435 0
0.0739688 -0.0529338 0
0.0735559 -0.0522981 0
0.0731238 -0.0516357 0
0.0726718 -0.050946 0
0.0721991 -0.0502288 0
0.0717046 -0.049484 0
0.0711872 -0.0487117 0
0.0706461 -0.047912 0
0.0700804 -0.0470849 0
0.0694892 -0.0462308 0
0.0688718 -0.0453499 0
0.0682271 -0.0444431 0
0.0675544 -0.043511 0
0.0668527 -0.0425546 0
0.0661215 -0.0415748 0
0.06536 -0.040573 0
0.0645676 -0.0395504 0
0.0637439 -0.0385087 0
0.0628887 -0.0374493 0
0.062002 -0.0363741 0
0.0610838 -0.0352847 0
0.0601345 -0.0341831 0
0.0591547 -0.033071 0
0.0581456 -0.0319502 0
0.0571083 -0.0308224 0
0.0560444 -0.0296893 0
0.0549562 -0.028552 0
0.053845 -0.0274126 0
0.0527113 -0.0262746 0
0.051554 -0.0251427 0
0.0503724 -0.0240222 0
0.0491675 -0.0229164 0
0.047941 -0.0218282 0
0.0466955 -0.0207597 0
0.0454337 -0.0197126 0
0.0441592 -0.0186878 0
0.0428751 -0.0176863 0
0.0415841 -0.0167097 0
0.0402878 -0.0157609 0
0.0389879 -0.0148428 0
0.0376864 -0.0139575 0
0.0363853 -0.013107 0
0.0350871 -0.0122931 0
0.0337942 -0.0115164 0
0.0325095 -0.0107772 0
0.0312357 -0.0100756 0
0.0299758 -0.00941024 0
0.0287337 -0.00877784 0
0.0275126 -0.00817571 0
0.0263139 -0.00760375 0
0.0251376 -0.00706528 0
0.0239829 -0.0065649 0
0.0228537 -0.00609619 0
0.0217522 -0.00565563 0
0.0206795 -0.00524226 0
0.0196364 -0.00485507 0
0.0186233 -0.00449318 0
0.0176408 -0.00415577 0
0.016689 -0.00384204 0
0.0157682 -0.00355115 0
0.0148783 -0.00328218 0
0.0140192 -0.00303468 0
0.0131906 -0.00280795 0
0.0123925 -0.00260016 0
0.0116246 -0.00241012 0
0.0108864 -0.00223769 0
0.0101774 -0.00208212 0
0.00949701 -0.00194206 0
0.00884483 -0.0018163 0
0.0082202 -0.0017039 0
0.00762247 -0.00160391 0
0.00705097 -0.00151528 0
0.006505 -0.00143697 0
0.0059838 -0.00136806 0
0.00548662 -0.00130772 0
0.00501265 -0.00125519 0
0.00456114 -0.00120954 0
0.00413136 -0.00116914 0
0.00372257 -0.00113251 0
0.00333398 -0.00109853 0
0.00296466 -0.00106798 0
0.00261363 -0.0010431 0
-0.052721 -0.0445996 0
-0.0508204 -0.0440823 0
-0.0489199 -0.0435651 0
-0.0470193 -0.0430478 0
-0.0451187 -0.0425306 0
-0.0432181 -0.0420134 0
-0.0413175 -0.0414961 0
-0.039417 -0.0409789 0
-0.0375164 -0.0404616 0
-0.0356158 -0.0399444 0
-0.0337152 -0.0394271 0
-0.0318146 -0.0389099 0
-0.0299141 -0.0383927 0
-0.0280135 -0.0378754 0
-0.0261129 -0.0373582 0
-0.0242123 -0.0368409 0
-0.0223117 -0.0363237 0
-0.0204112 -0.0358065 0
-0.0185106 -0.0352892 0
-0.01661 -0.034772 0
-0.0147094 -0.0342547 0
-0.0128088 -0.0337375 0
-0.0109083 -0.0332202 0
-0.00900769 -0.032703 0
-0.00710711 -0.0321858 0
-0.00520653 -0.0316685 0
-0.00330595 -0.0311513 0
-0.00140537 -0.030634 0
0.00190689 -0.0299614 0
0.00332271 -0.0298498 0
0.00474133 -0.0297825 0
0.00616136 -0.0297597 0
0.0075814 -0.0297814 0
0.00900007 -0.0298477 0
0.010416 -0.0299583 0
0.0118278 -0.0301127 0
0.0132342 -0.0303103 0
0.0146339 -0.0305504 0
0.0160259 -0.0308322 0
0.0174091 -0.0311546 0
0.0187824 -0.0315166 0
0.020145 -0.031917 0
0.0214961 -0.0323546 0
0.0228351 -0.032828 0
0.0241613 -0.0333361 0
0.0254744 -0.0338774 0
0.0267738 -0.0344507 0
0.0280592 -0.0350545 0
0.0293306 -0.0356877 0
0.0305875 -0.0363488 0
0.0318301 -0.0370367 0
0.0330581 -0.0377501 0
0.0342717 -0.0384879 0
0.0354708 -0.0392489 0
0.0366556 -0.0400321 0
0.0378262 -0.0408363 0
0.0389828 -0.0416607 0
0.0401254 -0.0425042 0
0.0412543 -0.0433659 0
0.0423698 -0.0442451 0
0.043472 -0.0451408 0
0.0445612 -0.0460523 0
0.0456375 -0.0469789 0
0.0467013 -0.0479199 0
0.0477529 -0.0488746 0
0.0487923 -0.0498424 0
0.04982 -0.0508227 0
0.0508362 -0.051815 0
0.051841 -0.0528187 0
0.0528348 -0.0538333 0
0.0538178 -0.0548584 0
0.0547903 -0.0558935 0
0.0557524 -0.0569382 0
0.0567045 -0.0579922 0
0.0576467 -0.0590549 0
0.0585792 -0.0601261 0
0.0595024 -0.0612055 0
0.0604163 -0.0622926 0
0.0613212 -0.0633873 0
0.0622174 -0.0644891 0
0.0631049 -0.0655979 0
0.0639841 -0.0667134 0
0.064855 -0.0678353 0
0.0657179 -0.0689633 0
0.0665729 -0.0700974 0
0.0674202 -0.0712372 0
0.06826 -0.0723826 0
0.0690925 -0.0735333 0
0.0699178 -0.0746892 0
0.070736 -0.0758501 0
0.0715473 -0.0770159 0
0.0723518 -0.0781863 0
0.0731498 -0.0793612 0
0.0739412 -0.0805405 0
0.0747264 -0.081724 0
0.0755053 -0.0829116 0
0.0762781 -0.0841033 0
0.0770449 -0.0852987 0
0.0778059 -0.0864979 0
0.0785611 -0.0877007 0
0.0793108 -0.088907 0
0.0814681 -0.0912706 0
0.0828814 -0.0924245 0
0.0842946 -0.0935783 0
0.0857079 -0.0947322 0
0.0871211 -0.095886 0
0.0885344 -0.0970399 0
0.0899476 -0.0981937 0
0.0913609 -0.0993476 0
0.0927741 -0.100501 0
0.0941874 -0.101655 0
0.0956006 -0.102809 0
0.0970139 -0.103963 0
0.0984272 -0.105117 0
0.0998404 -0.106271 0
0.101254 -0.107424 0
0.102667 -0.108578 0
0.10408 -0.109732 0
0.105493 -0.110886 0
0.106907 -0.11204 0
0.10832 -0.113194 0
0.109733 -0.114348 0
0.111146 -0.115501 0
0.11256 -0.116655 0
0.113973 -0.117809 0
0.115386 -0.118963 0
0.116799 -0.120117 0
0.118213 -0.121271 0
0.119626 -0.122424 0
0.121039 -0.123578 0
0.122452 -0.124732 0
0.123866 -0.125886 0
0.125279 -0.12704 0
0.126692 -0.128194 0
0.128105 -0.129348 0
0.129519 -0.130501 0
0.130932 -0.131655 0
0.132345 -0.132809 0
0.133758 -0.133963 0
0.135172 -0.133216 0
0.135172 -0.131316 0
0.135172 -0.129415 0
0.135172 -0.127514 0
0.135172 -0.125614 0
0.135172 -0.123713 0
0.135172 -0.121813 0
0.135172 -0.119912 0
0.135172 -0.118012 0
0.135172 -0.116111 0
0.135172 -0.11421 0
0.135172 -0.11231 0
0.135172 -0.110409 0
0.135172 -0.108509 0
0.135172 -0.106608 0
0.135172 -0.104708 0
0.135172 -0.102807 0
0.135172 -0.100906 0
0.135172 -0.0990058 0
0.135172 -0.0971052 0
0.135172 -0.0952046 0
0.135172 -0.0933041 0
0.135172 -0.0914035 0
0.135172 -0.0895029 0
0.135172 -0.0876023 0
0.135172 -0.0857017 0
0.135172 -0.0838012 0
0.135172 -0.0819006 0
0.133758 -0.0788462 0
0.132345 -0.0776923 0
0.130932 -0.0765385 0
0.129519 -0.0753846 0
0.128105 -0.0742308 0
0.126692 -0.0730769 0
0.125279 -0.0719231 0
0.123866 -0.0707692 0
0.122452 -0.0696154 0
0.121039 -0.0684615 0
0.119626 -0.0673077 0
0.118213 -0.0661538 0
0.116799 -0.065 0
0.115386 -0.0638462 0
0.113973 -0.0626923 0
0.11256 -0.0615385 0
0.111146 -0.0603846 0
0.109733 -0.0592308 0
0.10832 -0.0580769 0
0.106907 -0.0569231 0
0.105493 -0.0557692 0
0.10408 -0.0546154 0
0.102667 -0.0534615 0
0.101254 -0.0523077 0
0.0998404 -0.0511538 0
0.0984272 -0.05 0
0.0970139 -0.0488462 0
0.0956006 -0.0476923 0
[...]
CELL_DATA 13116
SCALARS rho float
LOOKUP_TABLE default
0.592355
0.703983
0.324921
0.711879
0.712434
0.69639
0.294063
0.713906
0.532933
0.712812
0.306937
0.286144
0.712506
0.288922
0.290788
0.697188
0.58678
0.705194
0.713944
0.288093
0.585765
0.324343
0.300374
0.709779
0.597761
0.710312
0.712825
0.305781
0.571257
0.64905
0.564269
0.292101
0.552433
0.450229
0.304753
0.589806
0.678633
0.720679
0.622145
0.712298
0.708401
0.71371
0.459797
0.305768
0.717175
0.715043
0.70286
0.716455
0.299083
0.513849
0.713624
0.463008
0.256148
0.578884
0.554968
0.581774
0.304166
0.707844
0.519873
0.275063
0.292091
0.712719
0.70266
0.602165
0.560541
0.295742
0.706161
0.678832
0.708918
0.559704
0.297869
0.556388
0.336398
0.302213
0.563613
0.332428
0.676479
0.714938
0.295903
0.701153
0.69575
0.715083
0.711043
0.718303
0.725115
0.384169
0.291346
0.667613
0.722986
0.321831
0.295511
0.705758
0.712872
0.713364
0.658703
0.608306
0.60034
0.560354
0.56405
0.575101
0.673773
0.680332
0.709458
0.426478
0.7159
0.271495
0.33292
0.504275
0.30416
0.584246
0.53126
0.722818
0.60441
0.695911
0.701926
0.706825
0.285814
0.366849
0.717451
0.70832
0.677128
0.343374
0.709405
0.295043
0.713754
0.427551
0.289712
0.488353
0.304309
0.511593
0.716995
0.717154
0.451822
0.310908
0.431505
0.632974
0.559905
0.710852
0.671907
0.708505
0.670204
0.703457
0.491757
0.672376
0.690177
0.284447
0.31036
0.712526
0.712687
0.713327
0.50209
0.718253
0.715664
0.32252
0.712143
0.725734
0.301114
0.680444
0.560419
0.666194
0.70922
0.303022
0.710398
0.30188
0.352058
0.713021
0.713582
0.704543
0.301726
0.409944
0.377949
0.559843
0.276658
0.481045
0.70624
0.299596
0.316272
0.331721
0.723275
0.703265
0.292407
0.40559
0.555349
0.676658
0.705123
0.523799
0.306021
0.703551
0.724668
0.450638
0.661312
0.713242
0.559111
0.30102
0.723173
0.697112
0.712469
0.704147
0.725289
0.403994
0.427255
0.593027
0.48377
0.300871
0.717089
0.719434
0.470704
0.613492
0.253842
0.310564
0.32546
0.702246
0.302182
0.297801
0.316289
0.322768
0.356279
0.620238
0.713373
0.367834
0.303962
0.705659
0.526364
0.29357
0.502977
0.712804
0.688318
0.305978
0.706144
0.346272
0.7145
0.293266
0.560518
0.541667
0.560249
0.713213
0.555877
0.278733
0.423755
0.663301
0.561356
0.69659
0.559916
0.554254
0.714179
0.316759
0.712326
0.712398
0.56193
0.317275
0.301273
0.718706
0.717193
0.5632
0.718138
0.586097
0.691032
0.305897
0.294214
0.398467
0.256804
0.716715
0.71237
0.675562
0.291493
0.718106
0.297674
0.378959
0.714493
0.319219
0.7105
0.713724
0.562776
0.70785
0.278959
0.562991
0.701285
0.561532
0.71083
0.296871
0.287495
0.302302
0.629441
0.345479
0.315098
0.318555
0.30534
0.71943
0.253176
0.723023
0.712715
0.288155
0.288084
0.294063
0.424063
0.317299
0.667035
0.659536
0.721219
0.318234
0.703466
0.538663
0.288559
0.278392
0.661789
0.716874
0.703171
0.306433
0.69879
0.432863
0.717459
0.713509
0.712815
0.713526
0.301773
0.705844
0.255721
0.701949
0.712768
0.658881
0.296596
0.314825
0.712572
0.287161
0.713557
0.712751
0.384344
0.690824
0.71064
0.283965
0.719968
0.712706
0.268144
0.714432
0.370054
0.523376
0.716035
0.383819
0.682363
0.29229
0.707052
0.308348
0.562391
0.696586
0.712762
0.304766
0.338613
0.725289
0.322878
0.717541
0.725708
0.399764
0.559889
0.313364
0.345121
0.718301
0.508671
0.680162
0.288258
0.301586
0.712283
0.712646
0.313129
0.712857
0.286352
0.274534
0.707861
0.715639
0.515377
0.333767
0.712581
0.561082
0.697502
0.721061
0.713618
0.505831
0.393114
0.245491
0.291539
0.696608
0.292854
0.555901
0.3825
0.298847
0.333483
0.522995
0.112688
0.321853
0.723643
0.291457
0.711091
0.575163
0.711962
0.658613
0.712431
0.348137
0.285973
0.405944
0.36454
0.718182
0.602526
0.709298
0.574865
0.691179
0.62853
0.716373
0.654428
0.647402
0.715177
0.700102
0.690084
0.402318
0.473097
0.589007
0.327664
0.656133
0.584564
0.26357
0.706469
0.560918
0.302829
0.291097
0.302816
0.304693
0.600048
0.31153
0.301353
0.703831
0.299413
0.544624
0.31907
0.699187
0.702715
0.304443
0.314358
0.718352
0.419347
0.324451
0.301787
0.326958
0.303955
0.28486
0.292205
0.328472
0.383865
0.302926
0.679179
0.368365
0.726277
0.402742
0.293621
0.443279
0.279459
0.319455
0.282345
0.70993
0.393987
0.620297
0.517656
0.296533
0.617497
0.72197
0.380848
0.689954
0.634625
0.636931
0.284008
0.560368
0.367874
0.711192
0.564752
0.303176
0.261502
0.722723
0.370377
0.382429
0.700331
0.332718
0.678996
0.694489
0.287871
0.317232
0.280612
0.477071
0.27883
0.267998
0.285306
0.261566
0.712624
0.712357
0.430176
0.578763
0.436056
0.724779
0.343283
0.33584
0.538043
0.303518
0.718865
0.310189
0.347658
0.447172
0.718263
0.715462
0.51689
0.385414
0.256158
0.514964
0.713734
0.555269
0.512276
0.709358
0.714665
0.29832
0.701117
0.537263
0.661849
0.318282
0.338758
0.694727
0.712836
0.656138
0.712889
0.725385
0.712752
0.70787
0.658879
0.711008
0.307977
0.718997
0.304871
0.263051
0.301627
0.711969
0.719148
0.301335
0.725478
0.587382
0.298197
0.55811
0.717062
0.712582
0.305655
0.338911
0.716811
0.327337
0.324216
0.270687
0.29819
0.71919
0.267895
0.7115
0.367115
0.702829
0.713329
0.706564
0.712629
0.32833
0.290785
0.719155
0.714817
0.677625
0.712716
0.712315
0.431063
0.283383
0.303222
0.701567
0.527357
0.303385
0.4179
0.298436
0.71528
0.705548
0.314539
0.324898
0.726329
0.390996
0.722685
0.641701
0.304063
0.345661
0.675689
0.56048
0.302354
0.717652
0.712937
0.719125
0.343423
0.559901
0.303787
0.560222
0.660037
0.334699
0.353688
0.317938
0.560178
0.304659
0.287109
0.37176
0.593544
0.714884
0.290508
0.288956
0.309166
0.57045
0.338147
0.698044
0.285931
0.559061
0.712827
0.402347
0.301597
0.300862
0.433384
0.303092
0.712076
0.309044
0.3299
0.695667
0.274098
0.701867
0.710378
0.560382
0.307255
0.718649
0.711771
0.712232
0.702356
0.715964
0.707471
0.288624
0.559447
0.373343
0.718955
0.294843
0.713965
0.50657
0.287103
0.560462
0.713932
0.3376
0.650595
0.29569
0.302668
0.703294
0.709598
0.29807
0.285446
0.294297
0.286692
0.715571
0.709785
0.34013
0.286367
0.717473
0.710127
0.562416
0.71157
0.704565
0.304217
0.71268
0.384745
0.71345
0.379177
0.593273
0.424035
0.705445
0.681844
0.538392
0.337638
0.304155
0.705794
0.568256
0.578107
0.711319
0.251073
0.703728
0.712074
0.32558
0.469681
0.711884
0.375739
0.560088
0.664453
0.314279
0.710011
0.656549
0.365896
0.712932
0.302006
0.726083
0.32352
0.701621
0.701546
0.303786
0.621993
0.710792
0.716477
0.590845
0.707613
0.539364
0.323565
0.429162
0.291116
0.301565
0.559946
0.506818
0.708834
0.713119
0.301909
0.346453
0.7124
0.712848
0.718355
0.713782
0.291655
0.699878
0.712443
0.288944
0.275617
0.717489
0.718763
0.725769
0.280607
0.544354
0.312581
0.711214
0.711829
0.558743
0.713098
0.300984
0.715973
0.725106
0.712131
0.710646
0.708517
0.369407
0.714246
0.310711
0.691486
0.712576
0.409738
0.694996
0.553809
0.713208
0.434131
0.405245
0.543218
0.646015
0.326471
0.334614
0.31841
0.303188
0.702545
0.702527
0.558601
0.311114
0.305359
0.709515
0.681086
0.270438
0.344794
0.41841
0.683437
0.704418
0.722261
0.703469
0.307557
0.326906
0.561895
0.294521
0.297652
0.315186
0.702414
0.311472
0.328464
0.578946
0.719541
0.723022
0.67313
0.702376
0.287686
0.279074
0.315901
0.526996
0.394536
0.294351
0.67889
0.700928
0.719661
0.710408
0.285579
0.310136
0.712873
0.312641
0.708228
0.702372
0.560615
0.297973
0.327198
0.724353
0.562131
0.61276
0.268068
0.724532
0.685527
0.577431
0.71319
0.713738
0.562481
0.70819
0.292192
0.702219
0.561212
0.671177
0.710511
0.55979
0.722437
0.559995
0.710776
0.327084
0.329378
0.311439
0.560604
0.510723
0.315197
0.712986
0.717256
0.28486
0.652905
0.309923
0.66123
0.510422
0.286886
0.712771
0.708535
0.306447
0.498052
0.560878
0.303449
0.713468
0.295974
0.26988
0.62603
0.5916
0.44295
0.71023
0.319488
0.710618
0.322556
0.2842
0.701548
0.301681
0.609128
0.298175
0.654623
0.592504
0.560014
0.714591
0.235908
0.32897
0.685776
0.466617
0.718377
0.460265
0.604772
0.696638
0.711896
0.478305
0.581115
0.723915
0.712471
0.707068
0.312599
0.332966
0.491784
0.72376
0.712864
0.373662
0.709608
0.61487
0.405595
0.297812
0.661421
0.683249
0.559973
0.560149
0.695668
0.699739
0.625016
0.688281
0.296661
0.652182
0.416586
0.711388
0.718942
0.29242
0.71578
0.712624
0.338118
0.271405
0.289239
0.559658
0.301847
0.622931
0.71399
0.651954
0.261299
0.721293
0.298528
0.546056
0.577807
0.559314
0.676814
0.573984
0.607032
0.694605
0.533665
0.718735
0.322648
0.70554
0.706354
0.44769
0.559995
0.706113
0.302473
0.241413
0.303861
0.712773
0.334496
0.56009
0.313562
0.71385
0.26525
0.424401
0.293198
0.710757
0.713788
0.583793
0.243613
0.610123
0.645773
0.298472
0.563974
0.712282
0.293382
0.582595
0.562757
0.712779
0.708892
0.303135
0.50064
0.71808
0.71366
0.690244
0.330524
0.399265
0.722389
0.560058
0.560641
0.559842
0.574932
0.717226
0.570222
0.710404
0.330154
0.299955
0.559862
0.712522
0.59956
0.298529
0.705893
0.590488
0.631161
0.347514
0.366867
0.712868
0.712096
0.530023
0.375828
0.709947
0.56009
0.300069
0.594134
0.703477
0.304701
0.293194
0.246699
0.728622
0.330711
0.308194
0.721245
0.465141
0.712584
0.658189
0.291388
0.283348
0.712942
0.338201
0.315904
0.562758
0.275167
0.348778
0.586689
0.716061
0.718797
0.306364
0.310098
0.310776
0.710736
0.273138
0.718597
0.292852
0.714577
0.714401
0.719156
0.709315
0.713512
0.710463
0.704309
0.712549
0.718105
0.266571
0.315597
0.706582
0.648864
0.446765
0.725243
0.543333
0.599147
0.671458
0.304913
0.707672
0.712481
0.719606
0.320992
0.715859
0.372971
0.718413
0.4339
0.702893
0.704612
0.289521
0.717879
0.305718
0.445275
0.701701
0.318364
0.682747
0.559784
0.714969
0.307901
0.7039
0.304862
0.29748
0.298853
0.317374
0.67396
0.269734
0.667169
0.56184
0.376675
0.301149
0.426383
0.542266
0.638661
0.696141
0.307462
0.288257
0.310247
0.293108
0.23308
0.641626
0.722759
0.306595
0.564673
0.714082
0.254068
0.712515
0.67902
0.560385
0.318519
0.560306
0.706128
0.715015
0.712824
0.283886
0.71866
0.714611
0.716432
0.660168
0.697241
0.311141
0.29924
0.71793
0.486172
0.330542
0.701118
0.299398
0.525056
0.644169
0.725261
0.726176
0.296137
0.724711
0.398211
0.321195
0.69372
0.716743
0.712105
0.712277
0.673702
0.298289
0.712736
0.272139
0.444967
0.713026
0.564767
0.718219
0.31879
0.286616
0.71253
0.310652
0.717173
0.634205
0.395707
0.325632
0.708508
0.298204
0.706432
0.717464
0.677627
0.298415
0.330525
0.479003
0.528957
0.631468
0.458424
0.699159
0.697829
0.724723
0.559628
0.714081
0.250817
0.32621
0.715501
0.693814
0.687455
0.406038
0.300947
0.698338
0.262122
0.70501
0.58549
0.380134
0.718183
0.300461
0.715024
0.338819
0.712196
0.276611
0.718964
0.698214
0.287361
0.713748
0.646209
0.290741
0.557262
0.713633
0.546929
0.278317
0.366671
0.45608
0.711924
0.696304
0.355102
0.540916
0.71502
0.694018
0.252114
0.640244
0.716271
0.385209
0.698991
0.702029
0.279145
0.718186
0.560841
0.321986
0.61143
0.300202
0.663436
0.316817
0.270285
0.712836
0.31615
0.311423
0.236251
0.705258
0.710829
0.407967
0.710167
0.359532
0.691516
0.303157
0.711407
0.382111
0.69773
0.717768
0.672362
0.561313
0.501214
0.69912
0.570804
0.307588
0.622472
0.673513
0.545146
0.713891
0.432972
0.420406
0.712644
0.289578
0.544457
0.309295
0.709309
0.271129
0.300839
0.708324
0.703568
0.288874
0.710328
0.699836
0.559762
0.713743
0.560166
0.293183
0.712799
0.294376
0.30198
0.715033
0.705503
0.713696
0.726392
0.293314
0.319217
0.309263
0.706855
0.566395
0.362157
0.71615
0.29292
0.315066
0.339121
0.72358
0.376083
0.712906
0.718197
0.619128
0.709897
0.718098
0.588399
0.672921
0.380568
0.292315
0.289801
0.560143
0.560084
0.298841
0.642075
0.727142
0.670996
0.30281
0.436692
0.696815
0.293714
0.695886
0.66026
0.296766
0.65684
0.704321
0.317621
0.718922
0.308762
0.708301
0.712773
0.714422
0.253638
0.40607
0.681541
0.293578
0.374975
0.709166
0.307519
0.679113
0.706916
0.711222
0.699627
0.421766
0.560468
0.692928
0.713653
0.32957
0.712401
0.321247
0.276586
0.722457
0.704921
0.568763
0.231793
0.701992
0.617872
0.564026
0.290497
0.283982
0.327265
0.711471
0.303395
0.278387
0.366691
0.657837
0.299045
0.292956
0.384497
0.71848
0.303535
0.560318
0.615091
0.710742
0.30871
0.71815
0.655573
0.575322
0.369991
0.657308
0.313902
0.290224
0.703414
0.288737
0.645141
0.713063
0.559973
0.300997
0.318188
0.333527
0.512793
0.559885
0.23961
0.720366
0.704795
0.70215
0.307045
0.266317
0.314398
0.703045
0.312749
0.559576
0.575026
0.659025
0.721669
0.297962
0.649548
0.290405
0.661334
0.636601
0.712871
0.642718
0.548146
0.661207
0.688275
0.714394
0.296921
0.40243
0.301509
0.701857
0.531262
0.564896
0.300381
0.375202
0.71237
0.718154
0.561346
0.289681
0.711648
0.510703
0.516545
0.698043
0.303779
0.290839
0.284584
0.705351
0.56755
0.656931
0.72581
0.323803
0.714998
0.651363
0.566933
0.554154
0.714737
0.712551
0.69743
0.708172
0.712077
0.303399
0.716501
0.712374
0.700353
0.717579
0.705073
0.62786
0.297528
0.275795
0.676508
0.329527
0.390214
0.712759
0.310748
0.618835
0.708651
0.704872
0.719767
0.302967
0.713226
0.298702
0.297886
0.698787
0.717928
0.71066
0.30892
0.712943
0.710063
0.684638
0.702602
0.324102
0.700622
0.71259
0.701746
0.404175
0.707372
0.31139
0.711169
0.322603
0.299133
0.590078
0.411919
0.712766
0.709341
0.708941
0.365078
0.699518
0.410728
0.297796
0.725704
0.426822
0.32613
0.708457
0.279051
0.455148
0.673582
0.697903
0.722968
0.429852
0.558236
0.661295
0.706371
0.628469
0.712227
0.487771
0.713694
0.726872
0.652719
0.282894
0.298083
0.406744
0.712248
0.302535
0.664012
0.711013
0.606444
0.706479
0.570113
0.684272
0.690127
0.318031
0.709939
0.724284
0.556311
0.722599
0.712684
0.712681
0.670785
0.306562
0.325162
0.718889
0.536596
0.576754
0.709973
0.718622
0.711095
0.712965
0.712731
0.62856
0.699833
0.712889
0.269232
0.284627
0.271337
0.381625
0.560256
0.438367
0.566595
0.718297
0.695047
0.302545
0.719597
0.711821
0.306848
0.352622
0.560226
0.713379
0.302978
0.278889
0.272416
0.559523
0.71032
0.405567
0.254121
0.295224
0.270587
0.36106
0.332201
0.714688
0.717357
0.709239
0.306627
0.70617
0.630226
0.579088
0.332527
0.28924
0.724914
0.559793
0.323603
0.698019
0.315756
0.708709
0.303413
0.711413
0.286961
0.720063
0.713111
0.310228
0.518961
0.309963
0.712718
0.279768
0.634496
0.298356
0.500281
0.318247
0.633592
0.295976
0.565012
0.556061
0.578936
0.712837
0.336052
0.712516
0.657703
0.713012
0.626131
0.692043
0.290079
0.432471
0.299967
0.712545
0.288317
0.712794
0.509675
0.704296
0.712799
0.502869
0.714844
0.302536
0.296017
0.275641
0.496259
0.59396
0.718947
0.316259
0.313903
0.700908
0.335538
0.29756
0.619149
0.353902
0.326298
0.275412
0.713554
0.642811
0.636784
0.301199
0.709736
0.706043
0.288799
0.2948
0.725374
0.701744
0.659093
0.461145
0.356294
0.329035
0.321295
0.715616
0.679469
0.52894
0.691122
0.256829
0.577655
0.301
0.560316
0.712666
0.292409
0.298845
0.682301
0.61416
0.712567
0.712297
0.711897
0.712362
0.712999
0.322698
0.327337
0.302694
0.297138
0.589871
0.561205
0.644867
0.293827
0.301912
0.457244
0.292718
0.711378
0.696786
0.313507
0.315876
0.707522
0.302834
0.661323
0.7117
0.712287
0.696292
0.59303
0.323327
0.286669
0.701549
0.293357
0.436263
0.405687
0.648344
0.707817
0.25355
0.297471
0.56064
0.29649
0.706003
0.712734
0.307546
0.340353
0.248179
0.712853
0.284223
0.559768
0.709579
0.612813
0.281706
0.482482
0.716029
0.721254
0.292403
0.720022
0.674605
0.296265
0.717846
0.71312
0.315831
0.322042
0.72441
0.313477
0.29573
0.715231
0.313731
0.717812
0.683578
0.712243
0.667887
0.712655
0.706327
0.681832
0.306832
0.362155
0.683242
0.71897
0.403568
0.712715
0.331888
0.71044
0.723903
0.559505
0.654421
0.432712
0.420059
0.71964
0.715215
0.727682
0.71327
0.706063
0.560235
0.713702
0.560343
0.715889
0.725298
0.715024
0.559856
0.692922
0.290486
0.716138
0.306967
0.708259
0.715431
0.709676
0.708832
0.697886
0.339828
0.32408
0.301968
0.295508
0.709403
0.285568
0.319432
0.698687
0.28111
0.707594
0.320817
0.716391
0.718555
0.314558
0.336946
0.382528
0.711884
0.30316
0.718983
0.717669
0.338788
0.724853
0.521028
0.416045
0.304837
0.288125
0.693414
0.323848
0.710251
0.567818
0.314421
0.710744
0.708628
0.711949
0.316317
0.582988
0.297016
0.706755
0.673812
0.707
0.332682
0.718667
0.710388
0.72192
0.389415
0.711847
0.32322
0.299889
0.712685
0.432718
0.712512
0.42385
0.330645
0.389981
0.715871
0.304995
0.290921
0.325669
0.511226
0.561062
0.718416
0.273787
0.625315
0.711397
0.511028
0.452412
0.380468
0.523433
0.331761
0.29706
0.719356
0.300453
0.317054
0.712993
0.712347
0.311057
0.703745
0.323679
0.560334
0.306455
0.723611
0.56048
0.699835
0.627841
0.32529
0.300919
0.298436
0.692707
0.726213
0.554994
0.52093
0.331737
0.300335
0.706996
0.307221
0.717639
0.34043
0.559867
0.681083
0.297947
0.305649
0.299367
0.297177
0.305874
0.684303
0.708946
0.287633
0.718094
0.647038
0.321672
0.27115
0.712248
0.323824
0.718281
0.374156
0.700531
0.659599
0.718083
0.560539
0.316246
0.712736
0.708928
0.713393
0.320281
0.694881
0.567583
0.382243
0.712202
0.672398
0.713903
0.712117
0.712971
0.713249
0.713587
0.7004
0.71302
0.306668
0.711879
0.299611
0.467032
0.710554
0.298363
0.721669
0.710163
0.309308
0.719324
0.320107
0.295879
0.714969
0.700598
0.712441
0.312453
0.712913
0.606802
0.307859
0.298918
0.712892
0.705708
0.350835
0.360243
0.712512
0.712333
0.325427
0.65125
0.712952
0.644609
0.300598
0.321485
0.295905
0.659714
0.278703
0.719872
0.701116
0.707656
0.637198
0.71819
0.312857
0.726642
0.591683
0.712966
0.642119
0.299999
0.302632
0.266718
0.710158
0.718009
0.371202
0.657488
0.309929
0.674987
0.70795
0.255671
0.672162
0.720151
0.632449
0.306327
0.289278
0.381411
0.717758
0.71248
0.60401
0.461349
0.71818
0.321441
0.636611
0.563679
0.718235
0.309115
0.603716
0.310858
0.714259
0.271111
0.719483
0.713465
0.300956
0.717778
0.46265
0.559824
0.657962
0.559595
0.712489
0.423742
0.706864
0.708908
0.70719
0.719364
0.418097
0.563598
0.26184
0.709475
0.264867
0.294605
0.263555
0.305198
0.329726
0.300619
0.713033
0.332386
0.284438
0.671153
0.717525
0.710244
0.407524
0.695784
0.689711
0.690034
0.286691
0.643276
0.70633
0.348128
0.356541
0.302516
0.636098
0.45082
0.305147
0.636918
0.287497
0.560235
0.444933
0.283548
0.419681
0.653863
0.373767
0.705798
0.243041
0.536345
0.34825
0.715473
0.362344
0.671636
0.563672
0.723398
0.449902
0.29639
0.715734
0.712487
0.363782
0.29764
0.696155
0.295074
0.706304
0.309237
0.520181
0.266931
0.706136
0.33129
0.712786
0.293031
0.708324
0.718098
0.714455
0.560041
0.260064
0.300982
0.405997
0.711634
0.697267
0.716301
0.598801
0.315402
0.714891
0.380091
0.725477
0.689581
0.421258
0.321564
0.711249
0.719328
0.297377
0.563541
0.71554
0.712073
0.712229
0.250387
0.638337
0.308879
0.712673
0.275412
0.577225
0.725041
0.715973
0.712878
0.317975
0.712365
0.314841
0.319927
0.705758
0.560116
0.544387
0.719401
0.56063
0.321596
0.706389
0.715249
0.713697
0.297733
0.402588
0.689932
0.284763
0.711593
0.712328
0.722069
0.715054
0.281371
0.452044
0.648063
0.300583
0.725609
0.712188
0.472872
0.715657
0.248687
0.700131
0.707112
0.677606
0.713183
0.290527
0.301763
0.718921
0.719322
0.309495
0.340818
0.331489
0.301702
0.278814
0.292022
0.305677
0.330096
0.719121
0.263525
0.302201
0.71194
0.547464
0.560429
0.369797
0.299085
0.711939
0.459674
0.524927
0.712176
0.356111
0.655175
0.552777
0.585541
0.711007
0.303523
0.718417
0.584024
0.342392
0.301196
0.423073
0.709085
0.587359
0.712931
0.697916
0.718409
0.712255
0.405507
0.718157
0.620668
0.714799
0.300901
0.706874
0.667186
0.404828
0.397222
0.250416
0.293999
0.268057
0.588267
0.67508
0.707395
0.296476
0.341089
0.713108
0.285407
0.716948
0.709177
0.721448
0.677596
0.718153
0.348484
0.295556
0.280908
0.589393
0.276551
0.715247
0.276447
0.704303
0.698315
0.716998
0.381412
0.446788
0.416914
0.718075
0.357181
0.303049
0.713499
0.711938
0.657152
0.696788
0.712977
0.705658
0.330872
0.604085
0.712276
0.479644
0.718242
0.716673
0.70868
0.390301
0.371812
0.713647
0.441436
0.639875
0.310507
0.697256
0.723764
0.404872
0.281002
0.703978
0.484588
0.714241
0.7166
0.325914
0.289988
0.560762
0.439268
0.411388
0.725201
0.71268
0.309493
0.721068
0.5604
0.708138
0.331889
0.587025
0.326886
0.718921
0.712782
0.706058
0.703544
0.560515
0.303442
0.357821
0.713617
0.301992
0.580274
0.311412
0.718147
0.279739
0.659415
0.712254
0.560207
0.332801
0.559635
0.560971
0.299917
0.69584
0.286133
0.713584
0.328852
0.289788
0.269554
0.702595
0.718311
0.293454