# vtk DataFile Version 1.0
unstructured grid
ascii
DATASET UNSTRUCTURED_GRID
points 13672 float
0.0796578 -0.059106 0
0.00128732 0.00159165 0
0.00227961 -0.00102548 0
0.0791586 -0.0598787 0
-0.0546216 0.01 0
0.000495206 0.025 0
0.0800549 -0.035 0
0.135172 -0.08 0
-0.0546216 -0.0451168 0
0.000495206 -0.0301168 0
0.0800549 -0.0901168 0
0.135172 -0.135117 0
-0.0546216 -0.0451168 -0.00551168
0.000495206 -0.0301168 -0.00551168
0.0800549 -0.0901168 -0.00551168
0.135172 -0.135117 -0.00551168
0.135172 -0.08 -0.00551168
0.0800549 -0.035 -0.00551168
0.000495206 0.025 -0.00551168
-0.0546216 0.01 -0.00551168
0.00128732 0.00159165 -0.00551168
0.00227961 -0.00102548 -0.00551168
0.0791586 -0.0598787 -0.00551168
0.0796578 -0.059106 -0.00551168
0.00165953 -0.000990923 0
0.00119576 -0.000874076 0
0.000866021 -0.000641801 0
0.000645147 -0.000349912 0
0.00052235 -1.7281e-05 0
0.00049972 0.000348016 0
0.000601632 0.000737716 0
0.000861774 0.0011403 0
0.00157235 0.00183217 0
0.00188647 0.00206725 0
0.00222612 0.00230203 0
0.00258713 0.00254351 0
0.00296826 0.00279524 0
0.00337118 0.00305664 0
0.00379785 0.00332658 0
0.00425045 0.00360349 0
0.00473139 0.00388521 0
0.0052432 0.00416895 0
0.0057881 0.00445204 0
0.00636753 0.00473281 0
0.00698281 0.00500961 0
0.00763526 0.00528058 0
0.00832616 0.00554366 0
0.00905691 0.00579603 0
0.00982918 0.00603333 0
0.0106445 0.00625033 0
0.0115038 0.00644128 0
0.0124073 0.00660297 0
0.0133543 0.00673414 0
0.0143444 0.00683382 0
0.0153769 0.00690031 0
0.0164512 0.00693173 0
0.0175666 0.00692547 0
0.0187219 0.00687822 0
0.0199156 0.00678477 0
0.0211454 0.00663864 0
0.0224084 0.00643275 0
0.0237018 0.00616676 0
0.0250249 0.00584739 0
0.026375 0.00547298 0
0.0277479 0.00503752 0
0.0291386 0.00453545 0
0.0305433 0.0039653 0
0.0319572 0.0033256 0
0.0333681 0.00260019 0
0.034775 0.00179799 0
0.0361793 0.000930615 0
0.0375798 3.12222e-06 0
0.0389689 -0.000988429 0
0.0403357 -0.00205109 0
0.041675 -0.00318283 0
0.0429849 -0.00437751 0
0.0442643 -0.00562904 0
0.0455126 -0.00693089 0
0.0467314 -0.00827518 0
0.0479204 -0.00965638 0
0.0490661 -0.0110799 0
0.0501515 -0.0125519 0
0.0511696 -0.0140695 0
0.0521492 -0.0156071 0
0.0531202 -0.0171411 0
0.0540851 -0.0186663 0
0.0550431 -0.0201798 0
0.0559923 -0.0216793 0
0.0569311 -0.0231626 0
0.0578582 -0.0246273 0
0.0587723 -0.0260715 0
0.0596721 -0.027493 0
0.0605563 -0.02889 0
0.0614241 -0.0302609 0
0.0622742 -0.0316042 0
0.063106 -0.0329183 0
0.0639186 -0.034202 0
0.0647113 -0.0354543 0
0.0654835 -0.0366743 0
0.0662345 -0.0378613 0
0.0669642 -0.0390145 0
0.0676726 -0.0401333 0
0.0683597 -0.0412172 0
0.0690246 -0.0422665 0
0.0696662 -0.0432819 0
0.0702841 -0.0442636 0
0.0708793 -0.0452111 0
0.0714538 -0.0461237 0
0.072009 -0.047001 0
0.0725452 -0.0478434 0
0.0730611 -0.0486524 0
0.073556 -0.0494294 0
0.0740291 -0.0501756 0
0.0744812 -0.0508916 0
0.0749138 -0.0515773 0
0.0753285 -0.0522331 0
0.0757266 -0.0528592 0
0.076109 -0.0534564 0
0.0764753 -0.0540264 0
0.0768243 -0.054571 0
0.0771553 -0.0550919 0
0.0774679 -0.0555901 0
0.0777617 -0.0560669 0
0.0780369 -0.056523 0
0.0782958 -0.0569578 0
0.0785421 -0.0573703 0
0.0787786 -0.0577603 0
0.0790073 -0.0581279 0
0.0792295 -0.058474 0
0.0794462 -0.0587995 0
0.0798803 -0.0594162 0
0.0800272 -0.0596588 0
0.0800357 -0.0598891 0
0.0799275 -0.0600784 0
0.0797205 -0.0601773 0
0.0794593 -0.0601051 0
0.0789155 -0.0596491 0
0.0786707 -0.0593963 0
0.0784111 -0.0591319 0
0.0781372 -0.0588542 0
0.0778566 -0.0585548 0
0.0775715 -0.0582308 0
0.0772803 -0.0578828 0
0.0769832 -0.0575099 0
0.0766822 -0.0571097 0
0.0763801 -0.0566796 0
0.0760759 -0.0562196 0
0.0757623 -0.0557337 0
0.0754359 -0.0552232 0
0.0750951 -0.0546879 0
0.0747379 -0.054128 0
0.0743626 -0.0535435 0
0.0739688 -0.0529338 0
0.0735559 -0.0522981 0
0.0731238 -0.0516357 0
0.0726718 -0.050946 0
0.0721991 -0.0502288 0
0.0717046 -0.049484 0
0.0711872 -0.0487117 0
0.0706461 -0.047912 0
0.0700804 -0.0470849 0
0.0694892 -0.0462308 0
0.0688718 -0.0453499 0
0.0682271 -0.0444431 0
0.0675544 -0.043511 0
0.0668527 -0.0425546 0
0.0661215 -0.0415748 0
0.06536 -0.040573 0
0.0645676 -0.0395504 0
0.0637439 -0.0385087 0
0.0628887 -0.0374493 0
0.062002 -0.0363741 0
0.0610838 -0.0352847 0
0.0601345 -0.0341831 0
0.0591547 -0.033071 0
0.0581456 -0.0319502 0
0.0571083 -0.0308224 0
0.0560444 -0.0296893 0
0.0549562 -0.028552 0
0.053845 -0.0274126 0
0.0527113 -0.0262746 0
0.051554 -0.0251427 0
0.0503724 -0.0240222 0
0.0491675 -0.0229164 0
0.047941 -0.0218282 0
0.0466955 -0.0207597 0
0.0454337 -0.0197126 0
0.0441592 -0.0186878 0
0.0428751 -0.0176863 0
0.0415841 -0.0167097 0
0.0402878 -0.0157609 0
0.0389879 -0.0148428 0
0.0376864 -0.0139575 0
0.0363853 -0.013107 0
0.0350871 -0.0122931 0
0.0337942 -0.0115164 0
0.0325095 -0.0107772 0
0.0312357 -0.0100756 0
0.0299758 -0.00941024 0
0.0287337 -0.00877784 0
0.0275126 -0.00817571 0
0.0263139 -0.00760375 0
0.0251376 -0.00706528 0
0.0239829 -0.0065649 0
0.0228537 -0.00609619 0
0.0217522 -0.00565563 0
0.0206795 -0.00524226 0
0.0196364 -0.00485507 0
0.0186233 -0.00449318 0
0.0176408 -0.00415577 0
0.016689 -0.00384204 0
0.0157682 -0.00355115 0
0.0148783 -0.00328218 0
0.0140192 -0.00303468 0
0.0131906 -0.00280795 0
0.0123925 -0.00260016 0
0.0116246 -0.00241012 0
0.0108864 -0.00223769 0
0.0101774 -0.00208212 0
0.00949701 -0.00194206 0
0.00884483 -0.0018163 0
0.0082202 -0.0017039 0
0.00762247 -0.00160391 0
0.00705097 -0.00151528 0
0.006505 -0.00143697 0
0.0059838 -0.00136806 0
0.00548662 -0.00130772 0
0.00501265 -0.00125519 0
0.00456114 -0.00120954 0
0.00413136 -0.00116914 0
0.00372257 -0.00113251 0
0.00333398 -0.00109853 0
0.00296466 -0.00106798 0
0.00261363 -0.0010431 0
-0.052721 -0.0445996 0
-0.0508204 -0.0440823 0
-0.0489199 -0.0435651 0
-0.0470193 -0.0430478 0
-0.0451187 -0.0425306 0
-0.0432181 -0.0420134 0
-0.0413175 -0.0414961 0
-0.039417 -0.0409789 0
-0.0375164 -0.0404616 0
-0.0356158 -0.0399444 0
-0.0337152 -0.0394271 0
-0.0318146 -0.0389099 0
-0.0299141 -0.0383927 0
-0.0280135 -0.0378754 0
-0.0261129 -0.0373582 0
-0.0242123 -0.0368409 0
-0.0223117 -0.0363237 0
-0.0204112 -0.0358065 0
-0.0185106 -0.0352892 0
-0.01661 -0.034772 0
-0.0147094 -0.0342547 0
-0.0128088 -0.0337375 0
-0.0109083 -0.0332202 0
-0.00900769 -0.032703 0
-0.00710711 -0.0321858 0
-0.00520653 -0.0316685 0
-0.00330595 -0.0311513 0
-0.00140537 -0.030634 0
0.00190689 -0.0299614 0
0.00332271 -0.0298498 0
0.00474133 -0.0297825 0
0.00616136 -0.0297597 0
0.0075814 -0.0297814 0
0.00900007 -0.0298477 0
0.010416 -0.0299583 0
0.0118278 -0.0301127 0
0.0132342 -0.0303103 0
0.0146339 -0.0305504 0
0.0160259 -0.0308322 0
0.0174091 -0.0311546 0
0.0187824 -0.0315166 0
0.020145 -0.031917 0
0.0214961 -0.0323546 0
0.0228351 -0.032828 0
0.0241613 -0.0333361 0
0.0254744 -0.0338774 0
0.0267738 -0.0344507 0
0.0280592 -0.0350545 0
0.0293306 -0.0356877 0
0.0305875 -0.0363488 0
0.0318301 -0.0370367 0
0.0330581 -0.0377501 0
0.0342717 -0.0384879 0
0.0354708 -0.0392489 0
0.0366556 -0.0400321 0
0.0378262 -0.0408363 0
0.0389828 -0.0416607 0
0.0401254 -0.0425042 0
0.0412543 -0.0433659 0
0.0423698 -0.0442451 0
0.043472 -0.0451408 0
0.0445612 -0.0460523 0
0.0456375 -0.0469789 0
0.0467013 -0.0479199 0
0.0477529 -0.0488746 0
0.0487923 -0.0498424 0
0.04982 -0.0508227 0
0.0508362 -0.051815 0
0.051841 -0.0528187 0
0.0528348 -0.0538333 0
0.0538178 -0.0548584 0
0.0547903 -0.0558935 0
0.0557524 -0.0569382 0
0.0567045 -0.0579922 0
0.0576467 -0.0590549 0
0.0585792 -0.0601261 0
0.0595024 -0.0612055 0
0.0604163 -0.0622926 0
0.0613212 -0.0633873 0
0.0622174 -0.0644891 0
0.0631049 -0.0655979 0
0.0639841 -0.0667134 0
0.064855 -0.0678353 0
0.0657179 -0.0689633 0
0.0665729 -0.0700974 0
0.0674202 -0.0712372 0
0.06826 -0.0723826 0
0.0690925 -0.0735333 0
0.0699178 -0.0746892 0
0.070736 -0.0758501 0
0.0715473 -0.0770159 0
0.0723518 -0.0781863 0
0.0731498 -0.0793612 0
0.0739412 -0.0805405 0
0.0747264 -0.081724 0
0.0755053 -0.0829116 0
0.0762781 -0.0841033 0
0.0770449 -0.0852987 0
0.0778059 -0.0864979 0
0.0785611 -0.0877007 0
0.0793108 -0.088907 0
0.0814681 -0.0912706 0
0.0828814 -0.0924245 0
0.0842946 -0.0935783 0
0.0857079 -0.0947322 0
0.0871211 -0.095886 0
0.0885344 -0.0970399 0
0.0899476 -0.0981937 0
0.0913609 -0.0993476 0
0.0927741 -0.100501 0
0.0941874 -0.101655 0
0.0956006 -0.102809 0
0.0970139 -0.103963 0
0.0984272 -0.105117 0
0.0998404 -0.106271 0
0.101254 -0.107424 0
0.102667 -0.108578 0
0.10408 -0.109732 0
0.105493 -0.110886 0
0.106907 -0.11204 0
0.10832 -0.113194 0
0.109733 -0.114348 0
0.111146 -0.115501 0
0.11256 -0.116655 0
0.113973 -0.117809 0
0.115386 -0.118963 0
0.116799 -0.120117 0
0.118213 -0.121271 0
0.119626 -0.122424 0
0.121039 -0.123578 0
0.122452 -0.124732 0
0.123866 -0.125886 0
0.125279 -0.12704 0
0.126692 -0.128194 0
0.128105 -0.129348 0
0.129519 -0.130501 0
0.130932 -0.131655 0
0.132345 -0.132809 0
0.133758 -0.133963 0
0.135172 -0.133216 0
0.135172 -0.131316 0
0.135172 -0.129415 0
0.135172 -0.127514 0
0.135172 -0.125614 0
0.135172 -0.123713 0
0.135172 -0.121813 0
0.135172 -0.119912 0
0.135172 -0.118012 0
0.135172 -0.116111 0
0.135172 -0.11421 0
0.135172 -0.11231 0
0.135172 -0.110409 0
0.135172 -0.108509 0
0.135172 -0.106608 0
0.135172 -0.104708 0
0.135172 -0.102807 0
0.135172 -0.100906 0
0.135172 -0.0990058 0
0.135172 -0.0971052 0
0.135172 -0.0952046 0
0.135172 -0.0933041 0
0.135172 -0.0914035 0
0.135172 -0.0895029 0
0.135172 -0.0876023 0
0.135172 -0.0857017 0
0.135172 -0.0838012 0
0.135172 -0.0819006 0
0.133758 -0.0788462 0
0.132345 -0.0776923 0
0.130932 -0.0765385 0
0.129519 -0.0753846 0
0.128105 -0.0742308 0
0.126692 -0.0730769 0
0.125279 -0.0719231 0
0.123866 -0.0707692 0
0.122452 -0.0696154 0
0.121039 -0.0684615 0
0.119626 -0.0673077 0
0.118213 -0.0661538 0
0.116799 -0.065 0
0.115386 -0.0638462 0
0.113973 -0.0626923 0
0.11256 -0.0615385 0
0.111146 -0.0603846 0
0.109733 -0.0592308 0
0.10832 -0.0580769 0
0.106907 -0.0569231 0
0.105493 -0.0557692 0
0.10408 -0.0546154 0
0.102667 -0.0534615 0
0.101254 -0.0523077 0
0.0998404 -0.0511538 0
0.0984272 -0.05 0
0.0970139 -0.0488462 0
0.0956006 -0.0476923 0
[...]
CELL_DATA 13116
SCALARS rho float
LOOKUP_TABLE default
0.5977
0.705152
0.439207
0.697206
0.70154
0.689038
0.344797
0.701312
0.597701
0.703137
0.335997
0.440504
0.701593
0.392007
0.413393
0.688966
0.5977
0.713065
0.688822
0.336179
0.5977
0.450935
0.414237
0.712597
0.5977
0.700158
0.703146
0.445548
0.5977
0.5977
0.67374
0.430275
0.597699
0.588877
0.349164
0.5977
0.688987
0.703319
0.689457
0.700458
0.689117
0.701183
0.597698
0.417445
0.699231
0.689107
0.697873
0.694796
0.44052
0.597703
0.700683
0.597712
0.364605
0.5977
0.597699
0.5977
0.413961
0.708605
0.597707
0.426358
0.394057
0.700832
0.700382
0.689452
0.684757
0.378391
0.697104
0.680823
0.696546
0.688927
0.413108
0.5977
0.455263
0.397068
0.557079
0.38754
0.703467
0.698978
0.336828
0.717034
0.696137
0.700049
0.708752
0.695269
0.700854
0.536654
0.353439
0.59686
0.699757
0.336388
0.43469
0.705454
0.708962
0.701397
0.597303
0.5977
0.5977
0.628585
0.604115
0.5977
0.597709
0.688915
0.689231
0.581632
0.695017
0.430857
0.508128
0.597699
0.430663
0.5977
0.5977
0.697782
0.5977
0.699271
0.717303
0.698171
0.368272
0.527215
0.697555
0.699263
0.672756
0.466945
0.696898
0.434581
0.701652
0.562823
0.357638
0.59203
0.423111
0.597661
0.697823
0.695644
0.571536
0.444491
0.561436
0.5977
0.557627
0.697718
0.597707
0.699344
0.703521
0.698106
0.593617
0.705281
0.702886
0.404103
0.347529
0.699727
0.701847
0.701498
0.595044
0.694885
0.693813
0.357969
0.702718
0.701138
0.421308
0.596453
0.63818
0.597701
0.711301
0.335999
0.706774
0.421386
0.472518
0.700566
0.701046
0.714804
0.34751
0.549675
0.53349
0.557631
0.410144
0.591313
0.697551
0.414404
0.426587
0.454159
0.697021
0.68955
0.336194
0.549051
0.5977
0.685436
0.689639
0.597707
0.357469
0.691782
0.695409
0.578543
0.644142
0.699443
0.689434
0.432182
0.697498
0.689643
0.705202
0.693267
0.69953
0.580637
0.586665
0.5977
0.590165
0.400081
0.70002
0.694139
0.597711
0.5977
0.416915
0.336255
0.384958
0.689746
0.425794
0.336416
0.336419
0.361769
0.520262
0.689143
0.701573
0.531405
0.409461
0.697232
0.597699
0.336208
0.594125
0.70156
0.702772
0.446533
0.697213
0.51881
0.701131
0.430731
0.689589
0.597701
0.57304
0.70044
0.689489
0.446301
0.561237
0.597704
0.555485
0.68963
0.557648
0.689012
0.701873
0.430864
0.698965
0.703075
0.603871
0.339766
0.443995
0.688489
0.697363
0.68944
0.695763
0.5977
0.707602
0.335809
0.459619
0.547348
0.414826
0.693364
0.705282
0.708132
0.342619
0.701461
0.367671
0.5334
0.695705
0.339692
0.700332
0.700463
0.552699
0.708421
0.444146
0.556244
0.702201
0.624006
0.697584
0.336126
0.348346
0.431006
0.5977
0.463373
0.458065
0.498364
0.485625
0.702615
0.371336
0.700054
0.701141
0.349279
0.336276
0.363683
0.558948
0.454946
0.596361
0.693426
0.696808
0.338182
0.689541
0.597704
0.462431
0.425691
0.689624
0.697223
0.690165
0.361306
0.689592
0.578007
0.695412
0.700889
0.70085
0.700864
0.432842
0.696999
0.39466
0.689054
0.70232
0.5977
0.336111
0.496547
0.702825
0.36349
0.699053
0.70086
0.530718
0.731633
0.709081
0.355426
0.70161
0.708512
0.391506
0.698491
0.534854
0.597679
0.704073
0.537309
0.589955
0.342546
0.711754
0.501067
0.689016
0.689057
0.706257
0.443634
0.510281
0.701121
0.355291
0.69902
0.696378
0.545957
0.557616
0.355403
0.43826
0.696851
0.596065
0.685547
0.352223
0.422387
0.69944
0.701168
0.343985
0.699977
0.378119
0.435405
0.698982
0.703499
0.5977
0.336271
0.697691
0.679619
0.689021
0.701694
0.703469
0.59618
0.509064
0.407757
0.33623
0.689095
0.336183
0.5977
0.529917
0.433145
0.506765
0.5977
0.373457
0.351579
0.701409
0.435561
0.706597
0.5977
0.689592
0.597703
0.698973
0.441592
0.346836
0.583871
0.512662
0.697738
0.5977
0.689131
0.5977
0.704001
0.5977
0.699884
0.591526
0.5977
0.70207
0.717604
0.689241
0.551274
0.597707
0.5977
0.443214
0.689528
0.5977
0.362985
0.697553
0.549978
0.433698
0.336246
0.336329
0.350837
0.5977
0.380839
0.431699
0.696346
0.379179
0.5977
0.336116
0.689607
0.695966
0.461504
0.444707
0.696798
0.555955
0.33632
0.350318
0.336361
0.431027
0.347229
0.336256
0.464546
0.536
0.33625
0.688754
0.491607
0.700182
0.554987
0.436832
0.564669
0.407844
0.336424
0.409324
0.700293
0.542314
0.5977
0.5977
0.375116
0.5977
0.699947
0.53502
0.725127
0.5977
0.5977
0.346211
0.595522
0.527909
0.704913
0.648443
0.432734
0.370063
0.694512
0.518169
0.536404
0.689646
0.507351
0.597308
0.701767
0.336273
0.422597
0.399325
0.590374
0.422185
0.381119
0.410026
0.392336
0.699313
0.700058
0.56218
0.5977
0.564223
0.696647
0.511481
0.376023
0.5977
0.433462
0.69512
0.479926
0.516208
0.56909
0.701314
0.700885
0.597471
0.531222
0.366228
0.596957
0.701101
0.689355
0.596208
0.696001
0.693462
0.336363
0.695446
0.597703
0.597702
0.494414
0.457214
0.697082
0.705807
0.597701
0.702134
0.699257
0.700649
0.711096
0.597699
0.689512
0.336402
0.701983
0.504523
0.42319
0.336266
0.698459
0.691815
0.491355
0.700777
0.5977
0.336105
0.689872
0.696985
0.702396
0.444458
0.372052
0.699031
0.336444
0.336248
0.417437
0.336398
0.694009
0.386794
0.69729
0.488336
0.706018
0.700641
0.696726
0.701513
0.336391
0.336349
0.692014
0.700771
0.687402
0.699622
0.702986
0.557611
0.352115
0.435539
0.689863
0.597706
0.336241
0.555021
0.433152
0.702624
0.699312
0.493094
0.45547
0.700788
0.539941
0.701883
0.5977
0.420159
0.518012
0.685797
0.550469
0.422949
0.700698
0.701089
0.689981
0.376902
0.55749
0.40657
0.561918
0.597701
0.336264
0.518233
0.459464
0.577613
0.4319
0.341319
0.530133
0.689882
0.699271
0.339728
0.456073
0.336355
0.689477
0.459517
0.689611
0.401817
0.5977
0.701821
0.558893
0.419417
0.415939
0.558738
0.436432
0.700735
0.369026
0.387267
0.68954
0.384093
0.688921
0.699003
0.602457
0.336218
0.69527
0.706546
0.705224
0.689915
0.703689
0.698853
0.418431
0.689009
0.533153
0.698141
0.336323
0.701551
0.59771
0.352645
0.680662
0.702196
0.359811
0.596904
0.434045
0.409836
0.694592
0.700311
0.433459
0.409339
0.337854
0.41956
0.703141
0.713131
0.373193
0.336301
0.699154
0.698481
0.5977
0.7066
0.69619
0.335863
0.705805
0.536998
0.700484
0.534463
0.5977
0.555892
0.697172
0.684905
0.597703
0.507476
0.44052
0.699783
0.5977
0.5977
0.706681
0.408977
0.700034
0.702933
0.5218
0.597712
0.706367
0.524607
0.687865
0.597704
0.494944
0.699595
0.597663
0.447022
0.698672
0.430416
0.699891
0.406077
0.689102
0.700046
0.440689
0.689207
0.706761
0.699541
0.5977
0.695467
0.597703
0.48282
0.573114
0.415702
0.395169
0.557699
0.595248
0.697716
0.701389
0.336153
0.485184
0.696036
0.701581
0.696953
0.700665
0.33625
0.718734
0.70308
0.33623
0.422924
0.697617
0.688646
0.700946
0.425567
0.597701
0.462883
0.698872
0.698696
0.689614
0.705395
0.33636
0.69323
0.699957
0.707707
0.700348
0.689431
0.532517
0.702949
0.336253
0.697154
0.703023
0.549854
0.703239
0.689621
0.700657
0.593856
0.551309
0.597701
0.5977
0.336457
0.336273
0.341998
0.336271
0.708109
0.698737
0.689351
0.488585
0.336087
0.696194
0.589279
0.388685
0.487305
0.554808
0.687222
0.696138
0.701603
0.710095
0.336283
0.3364
0.557515
0.435199
0.336394
0.373007
0.689571
0.460572
0.336138
0.5977
0.692839
0.696487
0.689074
0.68886
0.369808
0.395803
0.339451
0.5977
0.542514
0.432091
0.684185
0.711503
0.700159
0.689262
0.428543
0.336363
0.702552
0.336266
0.689494
0.699609
0.656506
0.43324
0.336317
0.699089
0.678237
0.5977
0.388719
0.701497
0.689105
0.5977
0.701403
0.701021
0.557513
0.696229
0.336233
0.68879
0.68653
0.702712
0.69966
0.557721
0.697864
0.558713
0.697319
0.385288
0.406968
0.33636
0.68015
0.597708
0.33636
0.695554
0.699512
0.440196
0.595557
0.466523
0.628035
0.5977
0.444811
0.701002
0.71309
0.336256
0.591635
0.680291
0.410985
0.701613
0.384272
0.428521
0.5977
0.5977
0.564608
0.689122
0.345289
0.70617
0.419334
0.432766
0.688957
0.336285
0.5977
0.432778
0.59126
0.5977
0.557382
0.700731
0.407514
0.391179
0.693645
0.597698
0.697063
0.592382
0.5977
0.689636
0.708139
0.597698
0.5977
0.697002
0.705211
0.697478
0.50371
0.336232
0.590086
0.697333
0.705976
0.528433
0.689324
0.5977
0.579747
0.433319
0.5977
0.686765
0.55766
0.571215
0.690853
0.700824
0.689551
0.687922
0.430027
0.5977
0.553884
0.700478
0.690361
0.485368
0.704883
0.700643
0.414562
0.437547
0.361929
0.557709
0.335988
0.5977
0.70242
0.5977
0.472924
0.702974
0.399408
0.5977
0.689214
0.689419
0.678589
0.689495
0.5977
0.69431
0.5977
0.701844
0.408736
0.689227
0.696937
0.597698
0.560408
0.70027
0.432044
0.409725
0.413706
0.700872
0.336271
0.555708
0.339562
0.701317
0.372488
0.556032
0.416731
0.705112
0.700313
0.5977
0.47272
0.5977
0.689026
0.33618
0.5977
0.700101
0.432307
0.5977
0.644599
0.701805
0.689416
0.43359
0.597699
0.697849
0.689422
0.697583
0.336377
0.546977
0.702153
0.557513
0.555892
0.557663
0.5977
0.695988
0.5977
0.699663
0.336384
0.401301
0.557813
0.701519
0.68988
0.382763
0.689254
0.5977
0.5977
0.405319
0.527539
0.700276
0.697043
0.597705
0.517623
0.689312
0.555788
0.343373
0.5977
0.709679
0.344196
0.435024
0.396896
0.696615
0.462217
0.336377
0.701747
0.594158
0.705487
0.590552
0.349053
0.349708
0.699855
0.408898
0.381459
0.674808
0.444179
0.514855
0.5977
0.703843
0.695346
0.336124
0.479005
0.336417
0.699224
0.433276
0.69559
0.382694
0.695667
0.702445
0.70186
0.696521
0.693225
0.698356
0.695443
0.701275
0.696224
0.383413
0.336203
0.708148
0.689345
0.565718
0.696628
0.5977
0.689407
0.70272
0.458628
0.698695
0.7007
0.705125
0.342342
0.692082
0.466907
0.695031
0.55852
0.716409
0.689758
0.446322
0.698155
0.336393
0.587178
0.700872
0.377228
0.587887
0.557885
0.702727
0.353969
0.696028
0.336229
0.433226
0.433209
0.336374
0.693192
0.413384
0.694522
0.689417
0.519812
0.432631
0.556041
0.597701
0.5977
0.697704
0.336173
0.367734
0.341774
0.41493
0.470118
0.5977
0.699451
0.448242
0.689663
0.701753
0.394175
0.700815
0.593213
0.689411
0.337228
0.55522
0.695496
0.702108
0.700877
0.421955
0.695947
0.701762
0.692722
0.5977
0.689665
0.460457
0.433219
0.69468
0.587287
0.33631
0.689123
0.42354
0.5977
0.597703
0.699622
0.700403
0.433872
0.696566
0.547189
0.342415
0.724731
0.69947
0.70361
0.698465
0.682146
0.433282
0.701897
0.423882
0.564545
0.700676
0.587053
0.697446
0.339852
0.4587
0.703001
0.468818
0.698744
0.5977
0.543483
0.479842
0.699454
0.432034
0.6896
0.69846
0.686763
0.432246
0.410564
0.587533
0.597701
0.5977
0.580167
0.689316
0.69744
0.700167
0.557735
0.696628
0.354725
0.476556
0.699069
0.689553
0.696801
0.547448
0.396354
0.693263
0.40633
0.698186
0.5977
0.502738
0.697542
0.336112
0.702548
0.443145
0.703269
0.440464
0.694566
0.689519
0.439036
0.701665
0.5977
0.435638
0.689209
0.689237
0.597699
0.404915
0.523909
0.581757
0.706363
0.693458
0.492468
0.597702
0.698714
0.689666
0.474114
0.5977
0.702708
0.538715
0.68928
0.688692
0.483752
0.69599
0.637739
0.435026
0.5977
0.344421
0.670839
0.349505
0.42992
0.706103
0.336214
0.336341
0.403675
0.697364
0.700437
0.558658
0.689329
0.519574
0.690879
0.336257
0.701588
0.530599
0.689546
0.695205
0.685518
0.689431
0.592793
0.689493
0.689331
0.443778
0.5977
0.684175
0.5977
0.695895
0.559215
0.56922
0.701777
0.336236
0.5977
0.469857
0.689104
0.38181
0.431511
0.713515
0.691398
0.336334
0.69975
0.712369
0.557739
0.700732
0.57428
0.336198
0.70114
0.3364
0.424215
0.700821
0.709317
0.701152
0.700306
0.427099
0.353373
0.33725
0.703754
0.689399
0.520769
0.703965
0.377135
0.353587
0.392442
0.699972
0.532542
0.701744
0.696498
0.5977
0.700442
0.695972
0.5977
0.707878
0.534271
0.430936
0.336354
0.560615
0.546732
0.385903
0.5977
0.695556
0.697779
0.432474
0.596072
0.697949
0.463853
0.697304
0.694366
0.336413
0.689403
0.708797
0.33603
0.695114
0.377538
0.697626
0.706311
0.693351
0.409376
0.546292
0.601133
0.488245
0.537101
0.700897
0.493091
0.689392
0.697288
0.700064
0.713256
0.515386
0.677191
0.724011
0.68918
0.510467
0.699242
0.430673
0.399521
0.701631
0.698306
0.689379
0.432146
0.689721
0.5977
0.552138
0.371134
0.376873
0.336357
0.699576
0.341043
0.384032
0.441921
0.691138
0.381582
0.484216
0.536559
0.695494
0.336203
0.689427
0.689282
0.700489
0.357894
0.695282
0.597702
0.689551
0.529203
0.5977
0.3502
0.336239
0.69405
0.336321
0.597703
0.698081
0.557713
0.336308
0.497297
0.356487
0.596576
0.557665
0.433701
0.703821
0.697362
0.712161
0.336229
0.420861
0.502576
0.693535
0.336248
0.557756
0.5977
0.689401
0.702187
0.336011
0.597514
0.419873
0.688209
0.5977
0.701992
0.627943
0.5977
0.597699
0.697625
0.699197
0.33875
0.550322
0.385561
0.716314
0.597705
0.605782
0.336317
0.532348
0.704063
0.695242
0.688537
0.33636
0.700387
0.596082
0.597367
0.69412
0.43366
0.336377
0.484998
0.699312
0.689357
0.5977
0.696424
0.501333
0.702923
0.5977
0.689285
0.689678
0.702261
0.700791
0.689341
0.706237
0.703461
0.434284
0.696396
0.698651
0.689613
0.696777
0.698877
0.5977
0.336168
0.438593
0.700628
0.336307
0.517297
0.700751
0.400456
0.5977
0.696303
0.702426
0.703042
0.433937
0.700816
0.434121
0.393201
0.689309
0.695559
0.689134
0.364838
0.700033
0.689161
0.695786
0.689086
0.441818
0.689743
0.70297
0.708085
0.568061
0.710347
0.335864
0.695384
0.384113
0.336206
0.5977
0.551434
0.700983
0.707351
0.689472
0.435588
0.689716
0.562959
0.405007
0.69949
0.555388
0.336399
0.689097
0.44858
0.569918
0.606644
0.69852
0.700241
0.557455
0.5977
0.597684
0.689668
0.597701
0.703628
0.588284
0.698606
0.696494
0.597702
0.424898
0.336527
0.54884
0.698376
0.431704
0.597707
0.700046
0.5977
0.689578
0.5977
0.670904
0.688875
0.337454
0.699542
0.6959
0.5977
0.696095
0.701902
0.7008
0.689711
0.336228
0.39404
0.694481
0.597702
0.5977
0.698075
0.694896
0.689052
0.706026
0.70621
0.5977
0.696805
0.702561
0.395135
0.445192
0.385276
0.489596
0.556051
0.567435
0.5977
0.697057
0.695775
0.427683
0.699752
0.696059
0.369534
0.51914
0.551562
0.697628
0.436995
0.42825
0.418109
0.557783
0.700731
0.5849
0.354165
0.336413
0.440539
0.514534
0.336266
0.702073
0.695084
0.695736
0.339768
0.702291
0.5977
0.5977
0.489206
0.336222
0.699627
0.558346
0.336086
0.689642
0.336038
0.711899
0.433606
0.700616
0.340756
0.700434
0.700814
0.353266
0.597555
0.471675
0.701043
0.44439
0.5977
0.420475
0.597191
0.348908
0.5977
0.336239
0.689252
0.689657
0.5977
0.696447
0.493377
0.701496
0.689426
0.699952
0.5977
0.688054
0.336247
0.597703
0.384578
0.707654
0.480166
0.700681
0.596644
0.709604
0.701549
0.597699
0.702312
0.406437
0.389748
0.39452
0.595028
0.5977
0.694362
0.337499
0.453096
0.688979
0.52217
0.4313
0.597702
0.519217
0.336127
0.436979
0.700943
0.5977
0.5977
0.408849
0.700817
0.699813
0.43437
0.500465
0.699993
0.689047
0.68559
0.573505
0.530098
0.510776
0.354262
0.702982
0.695433
0.597703
0.716575
0.421609
0.5977
0.335969
0.687054
0.699873
0.336279
0.465886
0.69871
0.5977
0.70087
0.703485
0.705978
0.700884
0.701183
0.367269
0.447843
0.389517
0.336139
0.5977
0.660493
0.5977
0.33624
0.336221
0.593139
0.435572
0.689101
0.698463
0.336438
0.49189
0.696454
0.422959
0.597415
0.704583
0.699205
0.689439
0.5977
0.336207
0.345972
0.695959
0.336283
0.579302
0.556034
0.689801
0.700337
0.477199
0.3364
0.557738
0.336186
0.698117
0.708075
0.336209
0.416868
0.369437
0.696166
0.370614
0.557832
0.701274
0.5977
0.432795
0.5856
0.699269
0.702722
0.340689
0.702816
0.70384
0.430186
0.697257
0.697447
0.338396
0.336179
0.698723
0.336153
0.336109
0.702581
0.507517
0.6907
0.635668
0.709438
0.698576
0.701505
0.696852
0.689425
0.338076
0.526941
0.701073
0.694309
0.545103
0.701118
0.501229
0.697322
0.700629
0.5977
0.597702
0.597513
0.556386
0.696981
0.700894
0.696567
0.700652
0.693187
0.556478
0.701145
0.557713
0.70339
0.699887
0.70218
0.557861
0.689462
0.417094
0.700098
0.440734
0.699474
0.69661
0.706087
0.698152
0.714246
0.410292
0.355884
0.491466
0.338585
0.699195
0.33768
0.338565
0.698266
0.427757
0.706281
0.351372
0.701919
0.696036
0.336215
0.521129
0.506929
0.698888
0.407802
0.693512
0.698175
0.361753
0.699483
0.597701
0.527607
0.441929
0.435042
0.736487
0.336176
0.699733
0.5977
0.477996
0.695791
0.689107
0.706082
0.336111
0.5977
0.422679
0.702709
0.689518
0.698376
0.336208
0.693768
0.697674
0.696582
0.540455
0.698409
0.336097
0.336345
0.700587
0.564427
0.70275
0.597613
0.336183
0.539218
0.697096
0.43409
0.417743
0.408743
0.597699
0.58542
0.696833
0.391693
0.5977
0.694854
0.595951
0.597714
0.496346
0.597704
0.336253
0.336278
0.69773
0.336365
0.336474
0.701075
0.698865
0.372946
0.716193
0.369756
0.553485
0.448752
0.700231
0.688951
0.714831
0.689516
0.427102
0.336177
0.431337
0.689374
0.699038
0.5977
0.597707
0.516463
0.488194
0.689446
0.337239
0.692558
0.516207
0.689751
0.684534
0.351576
0.422415
0.336404
0.336361
0.429723
0.69724
0.699524
0.339645
0.695797
0.5977
0.483849
0.407062
0.699855
0.33643
0.695646
0.532457
0.713414
0.597703
0.695157
0.621495
0.398907
0.705857
0.700084
0.700243
0.33626
0.694627
0.5977
0.5137
0.698776
0.692609
0.701119
0.700615
0.701401
0.70057
0.700651
0.689459
0.688636
0.336308
0.706671
0.336393
0.596168
0.701106
0.429888
0.701356
0.694426
0.448194
0.697097
0.33621
0.434054
0.701325
0.692705
0.698952
0.336099
0.700337
0.5977
0.44911
0.34024
0.701392
0.699806
0.518891
0.418852
0.703417
0.699615
0.336103
0.597702
0.701306
0.5977
0.365374
0.336075
0.429888
0.597705
0.442201
0.703202
0.716744
0.689488
0.5977
0.695895
0.336161
0.700501
0.5977
0.700646
0.648306
0.433873
0.33939
0.42551
0.711123
0.698153
0.530812
0.597703
0.482418
0.687427
0.69889
0.412132
0.703941
0.703878
0.5977
0.343053
0.346658
0.492351
0.697855
0.702757
0.5977
0.573714
0.695228
0.336114
0.5977
0.554657
0.69383
0.345572
0.5977
0.452611
0.694571
0.433025
0.691731
0.701587
0.405997
0.697457
0.597703
0.557955
0.594955
0.557728
0.700572
0.565297
0.689481
0.68922
0.699655
0.69253
0.551195
0.552625
0.378857
0.689282
0.422019
0.336123
0.434706
0.426625
0.336334
0.342149
0.700396
0.5131
0.388275
0.654628
0.697857
0.699858
0.57663
0.709518
0.710059
0.689375
0.439727
0.592167
0.697212
0.478063
0.4283
0.336119
0.5977
0.567835
0.336272
0.597702
0.429948
0.584619
0.56466
0.361506
0.553856
0.597701
0.499167
0.699198
0.414706
0.5977
0.516777
0.70247
0.52471
0.680288
0.547854
0.693559
0.597714
0.336187
0.703271
0.700479
0.431652
0.433166
0.689709
0.336387
0.710551
0.339615
0.597668
0.423512
0.696984
0.449244
0.699884
0.336208
0.699094
0.695888
0.700954
0.556715
0.377609
0.422047
0.576849
0.70104
0.697095
0.697178
0.5977
0.449135
0.702334
0.498864
0.698741
0.690649
0.57488
0.478621
0.70546
0.690627
0.419291
0.688493
0.703449
0.703649
0.708834
0.417911
0.5977
0.336358
0.703333
0.444609
0.689286
0.699051
0.703947
0.699666
0.481932
0.697515
0.336234
0.340306
0.69853
0.554714
0.5977
0.69362
0.55335
0.336359
0.713243
0.702083
0.700862
0.433311
0.547216
0.700148
0.339213
0.697389
0.700765
0.701791
0.701849
0.475454
0.584607
0.5977
0.409738
0.700696
0.700244
0.591395
0.701011
0.475253
0.696469
0.713138
0.592326
0.701475
0.346721
0.432958
0.694408
0.702262
0.440421
0.501035
0.440046
0.417909
0.3872
0.435245
0.454138
0.336335
0.694488
0.420551
0.365794
0.702203
0.597699
0.557756
0.529303
0.336384
0.696422
0.582581
0.5977
0.702595
0.520976
0.5977
0.689558
0.5977
0.702593
0.406739
0.696863
0.689392
0.372194
0.336292
0.573685
0.694121
0.5977
0.701671
0.68892
0.694563
0.704712
0.553015
0.69684
0.689392
0.702556
0.336149
0.696951
0.686802
0.545635
0.544393
0.368148
0.418204
0.388283
0.5977
0.626478
0.705323
0.33631
0.525308
0.701181
0.437674
0.69883
0.689231
0.702126
0.594779
0.695071
0.473611
0.420065
0.420535
0.5977
0.44088
0.694221
0.421847
0.6959
0.689484
0.695894
0.482603
0.577979
0.558391
0.695753
0.406781
0.335972
0.701018
0.702208
0.589219
0.689146
0.70152
0.710159
0.336227
0.5977
0.702715
0.583352
0.695381
0.701
0.708107
0.540309
0.530072
0.700916
0.563273
0.5977
0.336375
0.699713
0.701136
0.572863
0.442856
0.703304
0.589823
0.701053
0.699411
0.336258
0.336313
0.6543
0.597707
0.58151
0.70153
0.701351
0.45589
0.702344
0.658516
0.698311
0.336319
0.5977
0.336193
0.700823
0.69981
0.709396
0.707794
0.668999
0.486657
0.517485
0.694267
0.336333
0.5977
0.471265
0.695535
0.400566
0.597187
0.70314
0.638762
0.336214
0.557706
0.555937
0.335909
0.699825
0.434764
0.700732
0.336142
0.346073
0.410166
0.695373
0.701743
0.498482
0.48968
0.699864
0.701281
0.559439
0.71978
0.336422
0.597699
0.3363
0.69225
0.336147
0.678632
0.700855
0.443038
0.597711
0.343308
0.689841
0.381188
0.336265
0.702974
0.43264
0.709877
0.58191
0.407841
0.702173
0.666303
0.701762
0.678109
0.468195
0.5977
0.423609
0.336136
0.700203
0.689093
0.698314