# vtk DataFile Version 1.0
unstructured grid
ascii
DATASET UNSTRUCTURED_GRID
points 13672 float
0.0796578 -0.059106 0
0.00128732 0.00159165 0
0.00227961 -0.00102548 0
0.0791586 -0.0598787 0
-0.0546216 0.01 0
0.000495206 0.025 0
0.0800549 -0.035 0
0.135172 -0.08 0
-0.0546216 -0.0451168 0
0.000495206 -0.0301168 0
0.0800549 -0.0901168 0
0.135172 -0.135117 0
-0.0546216 -0.0451168 -0.00551168
0.000495206 -0.0301168 -0.00551168
0.0800549 -0.0901168 -0.00551168
0.135172 -0.135117 -0.00551168
0.135172 -0.08 -0.00551168
0.0800549 -0.035 -0.00551168
0.000495206 0.025 -0.00551168
-0.0546216 0.01 -0.00551168
0.00128732 0.00159165 -0.00551168
0.00227961 -0.00102548 -0.00551168
0.0791586 -0.0598787 -0.00551168
0.0796578 -0.059106 -0.00551168
0.00165953 -0.000990923 0
0.00119576 -0.000874076 0
0.000866021 -0.000641801 0
0.000645147 -0.000349912 0
0.00052235 -1.7281e-05 0
0.00049972 0.000348016 0
0.000601632 0.000737716 0
0.000861774 0.0011403 0
0.00157235 0.00183217 0
0.00188647 0.00206725 0
0.00222612 0.00230203 0
0.00258713 0.00254351 0
0.00296826 0.00279524 0
0.00337118 0.00305664 0
0.00379785 0.00332658 0
0.00425045 0.00360349 0
0.00473139 0.00388521 0
0.0052432 0.00416895 0
0.0057881 0.00445204 0
0.00636753 0.00473281 0
0.00698281 0.00500961 0
0.00763526 0.00528058 0
0.00832616 0.00554366 0
0.00905691 0.00579603 0
0.00982918 0.00603333 0
0.0106445 0.00625033 0
0.0115038 0.00644128 0
0.0124073 0.00660297 0
0.0133543 0.00673414 0
0.0143444 0.00683382 0
0.0153769 0.00690031 0
0.0164512 0.00693173 0
0.0175666 0.00692547 0
0.0187219 0.00687822 0
0.0199156 0.00678477 0
0.0211454 0.00663864 0
0.0224084 0.00643275 0
0.0237018 0.00616676 0
0.0250249 0.00584739 0
0.026375 0.00547298 0
0.0277479 0.00503752 0
0.0291386 0.00453545 0
0.0305433 0.0039653 0
0.0319572 0.0033256 0
0.0333681 0.00260019 0
0.034775 0.00179799 0
0.0361793 0.000930615 0
0.0375798 3.12222e-06 0
0.0389689 -0.000988429 0
0.0403357 -0.00205109 0
0.041675 -0.00318283 0
0.0429849 -0.00437751 0
0.0442643 -0.00562904 0
0.0455126 -0.00693089 0
0.0467314 -0.00827518 0
0.0479204 -0.00965638 0
0.0490661 -0.0110799 0
0.0501515 -0.0125519 0
0.0511696 -0.0140695 0
0.0521492 -0.0156071 0
0.0531202 -0.0171411 0
0.0540851 -0.0186663 0
0.0550431 -0.0201798 0
0.0559923 -0.0216793 0
0.0569311 -0.0231626 0
0.0578582 -0.0246273 0
0.0587723 -0.0260715 0
0.0596721 -0.027493 0
0.0605563 -0.02889 0
0.0614241 -0.0302609 0
0.0622742 -0.0316042 0
0.063106 -0.0329183 0
0.0639186 -0.034202 0
0.0647113 -0.0354543 0
0.0654835 -0.0366743 0
0.0662345 -0.0378613 0
0.0669642 -0.0390145 0
0.0676726 -0.0401333 0
0.0683597 -0.0412172 0
0.0690246 -0.0422665 0
0.0696662 -0.0432819 0
0.0702841 -0.0442636 0
0.0708793 -0.0452111 0
0.0714538 -0.0461237 0
0.072009 -0.047001 0
0.0725452 -0.0478434 0
0.0730611 -0.0486524 0
0.073556 -0.0494294 0
0.0740291 -0.0501756 0
0.0744812 -0.0508916 0
0.0749138 -0.0515773 0
0.0753285 -0.0522331 0
0.0757266 -0.0528592 0
0.076109 -0.0534564 0
0.0764753 -0.0540264 0
0.0768243 -0.054571 0
0.0771553 -0.0550919 0
0.0774679 -0.0555901 0
0.0777617 -0.0560669 0
0.0780369 -0.056523 0
0.0782958 -0.0569578 0
0.0785421 -0.0573703 0
0.0787786 -0.0577603 0
0.0790073 -0.0581279 0
0.0792295 -0.058474 0
0.0794462 -0.0587995 0
0.0798803 -0.0594162 0
0.0800272 -0.0596588 0
0.0800357 -0.0598891 0
0.0799275 -0.0600784 0
0.0797205 -0.0601773 0
0.0794593 -0.0601051 0
0.0789155 -0.0596491 0
0.0786707 -0.0593963 0
0.0784111 -0.0591319 0
0.0781372 -0.0588542 0
0.0778566 -0.0585548 0
0.0775715 -0.0582308 0
0.0772803 -0.0578828 0
0.0769832 -0.0575099 0
0.0766822 -0.0571097 0
0.0763801 -0.0566796 0
0.0760759 -0.0562196 0
0.0757623 -0.0557337 0
0.0754359 -0.0552232 0
0.0750951 -0.0546879 0
0.0747379 -0.054128 0
0.0743626 -0.0535435 0
0.0739688 -0.0529338 0
0.0735559 -0.0522981 0
0.0731238 -0.0516357 0
0.0726718 -0.050946 0
0.0721991 -0.0502288 0
0.0717046 -0.049484 0
0.0711872 -0.0487117 0
0.0706461 -0.047912 0
0.0700804 -0.0470849 0
0.0694892 -0.0462308 0
0.0688718 -0.0453499 0
0.0682271 -0.0444431 0
0.0675544 -0.043511 0
0.0668527 -0.0425546 0
0.0661215 -0.0415748 0
0.06536 -0.040573 0
0.0645676 -0.0395504 0
0.0637439 -0.0385087 0
0.0628887 -0.0374493 0
0.062002 -0.0363741 0
0.0610838 -0.0352847 0
0.0601345 -0.0341831 0
0.0591547 -0.033071 0
0.0581456 -0.0319502 0
0.0571083 -0.0308224 0
0.0560444 -0.0296893 0
0.0549562 -0.028552 0
0.053845 -0.0274126 0
0.0527113 -0.0262746 0
0.051554 -0.0251427 0
0.0503724 -0.0240222 0
0.0491675 -0.0229164 0
0.047941 -0.0218282 0
0.0466955 -0.0207597 0
0.0454337 -0.0197126 0
0.0441592 -0.0186878 0
0.0428751 -0.0176863 0
0.0415841 -0.0167097 0
0.0402878 -0.0157609 0
0.0389879 -0.0148428 0
0.0376864 -0.0139575 0
0.0363853 -0.013107 0
0.0350871 -0.0122931 0
0.0337942 -0.0115164 0
0.0325095 -0.0107772 0
0.0312357 -0.0100756 0
0.0299758 -0.00941024 0
0.0287337 -0.00877784 0
0.0275126 -0.00817571 0
0.0263139 -0.00760375 0
0.0251376 -0.00706528 0
0.0239829 -0.0065649 0
0.0228537 -0.00609619 0
0.0217522 -0.00565563 0
0.0206795 -0.00524226 0
0.0196364 -0.00485507 0
0.0186233 -0.00449318 0
0.0176408 -0.00415577 0
0.016689 -0.00384204 0
0.0157682 -0.00355115 0
0.0148783 -0.00328218 0
0.0140192 -0.00303468 0
0.0131906 -0.00280795 0
0.0123925 -0.00260016 0
0.0116246 -0.00241012 0
0.0108864 -0.00223769 0
0.0101774 -0.00208212 0
0.00949701 -0.00194206 0
0.00884483 -0.0018163 0
0.0082202 -0.0017039 0
0.00762247 -0.00160391 0
0.00705097 -0.00151528 0
0.006505 -0.00143697 0
0.0059838 -0.00136806 0
0.00548662 -0.00130772 0
0.00501265 -0.00125519 0
0.00456114 -0.00120954 0
0.00413136 -0.00116914 0
0.00372257 -0.00113251 0
0.00333398 -0.00109853 0
0.00296466 -0.00106798 0
0.00261363 -0.0010431 0
-0.052721 -0.0445996 0
-0.0508204 -0.0440823 0
-0.0489199 -0.0435651 0
-0.0470193 -0.0430478 0
-0.0451187 -0.0425306 0
-0.0432181 -0.0420134 0
-0.0413175 -0.0414961 0
-0.039417 -0.0409789 0
-0.0375164 -0.0404616 0
-0.0356158 -0.0399444 0
-0.0337152 -0.0394271 0
-0.0318146 -0.0389099 0
-0.0299141 -0.0383927 0
-0.0280135 -0.0378754 0
-0.0261129 -0.0373582 0
-0.0242123 -0.0368409 0
-0.0223117 -0.0363237 0
-0.0204112 -0.0358065 0
-0.0185106 -0.0352892 0
-0.01661 -0.034772 0
-0.0147094 -0.0342547 0
-0.0128088 -0.0337375 0
-0.0109083 -0.0332202 0
-0.00900769 -0.032703 0
-0.00710711 -0.0321858 0
-0.00520653 -0.0316685 0
-0.00330595 -0.0311513 0
-0.00140537 -0.030634 0
0.00190689 -0.0299614 0
0.00332271 -0.0298498 0
0.00474133 -0.0297825 0
0.00616136 -0.0297597 0
0.0075814 -0.0297814 0
0.00900007 -0.0298477 0
0.010416 -0.0299583 0
0.0118278 -0.0301127 0
0.0132342 -0.0303103 0
0.0146339 -0.0305504 0
0.0160259 -0.0308322 0
0.0174091 -0.0311546 0
0.0187824 -0.0315166 0
0.020145 -0.031917 0
0.0214961 -0.0323546 0
0.0228351 -0.032828 0
0.0241613 -0.0333361 0
0.0254744 -0.0338774 0
0.0267738 -0.0344507 0
0.0280592 -0.0350545 0
0.0293306 -0.0356877 0
0.0305875 -0.0363488 0
0.0318301 -0.0370367 0
0.0330581 -0.0377501 0
0.0342717 -0.0384879 0
0.0354708 -0.0392489 0
0.0366556 -0.0400321 0
0.0378262 -0.0408363 0
0.0389828 -0.0416607 0
0.0401254 -0.0425042 0
0.0412543 -0.0433659 0
0.0423698 -0.0442451 0
0.043472 -0.0451408 0
0.0445612 -0.0460523 0
0.0456375 -0.0469789 0
0.0467013 -0.0479199 0
0.0477529 -0.0488746 0
0.0487923 -0.0498424 0
0.04982 -0.0508227 0
0.0508362 -0.051815 0
0.051841 -0.0528187 0
0.0528348 -0.0538333 0
0.0538178 -0.0548584 0
0.0547903 -0.0558935 0
0.0557524 -0.0569382 0
0.0567045 -0.0579922 0
0.0576467 -0.0590549 0
0.0585792 -0.0601261 0
0.0595024 -0.0612055 0
0.0604163 -0.0622926 0
0.0613212 -0.0633873 0
0.0622174 -0.0644891 0
0.0631049 -0.0655979 0
0.0639841 -0.0667134 0
0.064855 -0.0678353 0
0.0657179 -0.0689633 0
0.0665729 -0.0700974 0
0.0674202 -0.0712372 0
0.06826 -0.0723826 0
0.0690925 -0.0735333 0
0.0699178 -0.0746892 0
0.070736 -0.0758501 0
0.0715473 -0.0770159 0
0.0723518 -0.0781863 0
0.0731498 -0.0793612 0
0.0739412 -0.0805405 0
0.0747264 -0.081724 0
0.0755053 -0.0829116 0
0.0762781 -0.0841033 0
0.0770449 -0.0852987 0
0.0778059 -0.0864979 0
0.0785611 -0.0877007 0
0.0793108 -0.088907 0
0.0814681 -0.0912706 0
0.0828814 -0.0924245 0
0.0842946 -0.0935783 0
0.0857079 -0.0947322 0
0.0871211 -0.095886 0
0.0885344 -0.0970399 0
0.0899476 -0.0981937 0
0.0913609 -0.0993476 0
0.0927741 -0.100501 0
0.0941874 -0.101655 0
0.0956006 -0.102809 0
0.0970139 -0.103963 0
0.0984272 -0.105117 0
0.0998404 -0.106271 0
0.101254 -0.107424 0
0.102667 -0.108578 0
0.10408 -0.109732 0
0.105493 -0.110886 0
0.106907 -0.11204 0
0.10832 -0.113194 0
0.109733 -0.114348 0
0.111146 -0.115501 0
0.11256 -0.116655 0
0.113973 -0.117809 0
0.115386 -0.118963 0
0.116799 -0.120117 0
0.118213 -0.121271 0
0.119626 -0.122424 0
0.121039 -0.123578 0
0.122452 -0.124732 0
0.123866 -0.125886 0
0.125279 -0.12704 0
0.126692 -0.128194 0
0.128105 -0.129348 0
0.129519 -0.130501 0
0.130932 -0.131655 0
0.132345 -0.132809 0
0.133758 -0.133963 0
0.135172 -0.133216 0
0.135172 -0.131316 0
0.135172 -0.129415 0
0.135172 -0.127514 0
0.135172 -0.125614 0
0.135172 -0.123713 0
0.135172 -0.121813 0
0.135172 -0.119912 0
0.135172 -0.118012 0
0.135172 -0.116111 0
0.135172 -0.11421 0
0.135172 -0.11231 0
0.135172 -0.110409 0
0.135172 -0.108509 0
0.135172 -0.106608 0
0.135172 -0.104708 0
0.135172 -0.102807 0
0.135172 -0.100906 0
0.135172 -0.0990058 0
0.135172 -0.0971052 0
0.135172 -0.0952046 0
0.135172 -0.0933041 0
0.135172 -0.0914035 0
0.135172 -0.0895029 0
0.135172 -0.0876023 0
0.135172 -0.0857017 0
0.135172 -0.0838012 0
0.135172 -0.0819006 0
0.133758 -0.0788462 0
0.132345 -0.0776923 0
0.130932 -0.0765385 0
0.129519 -0.0753846 0
0.128105 -0.0742308 0
0.126692 -0.0730769 0
0.125279 -0.0719231 0
0.123866 -0.0707692 0
0.122452 -0.0696154 0
0.121039 -0.0684615 0
0.119626 -0.0673077 0
0.118213 -0.0661538 0
0.116799 -0.065 0
0.115386 -0.0638462 0
0.113973 -0.0626923 0
0.11256 -0.0615385 0
0.111146 -0.0603846 0
0.109733 -0.0592308 0
0.10832 -0.0580769 0
0.106907 -0.0569231 0
0.105493 -0.0557692 0
0.10408 -0.0546154 0
0.102667 -0.0534615 0
0.101254 -0.0523077 0
0.0998404 -0.0511538 0
0.0984272 -0.05 0
0.0970139 -0.0488462 0
0.0956006 -0.0476923 0
[...]
CELL_DATA 13116
SCALARS rho float
LOOKUP_TABLE default
0.551295
0.690833
0.343803
0.721952
0.713315
0.695073
0.259144
0.725037
0.498013
0.715456
0.292443
0.312502
0.713521
0.318535
0.294538
0.69681
0.548411
0.696191
0.711286
0.324278
0.545371
0.325555
0.347334
0.701161
0.581158
0.705524
0.715531
0.349652
0.568647
0.632688
0.563235
0.295264
0.523217
0.41328
0.268924
0.548875
0.661208
0.705797
0.578152
0.71782
0.709768
0.724331
0.410053
0.33044
0.711417
0.711537
0.683661
0.711554
0.313079
0.485337
0.719047
0.41773
0.287869
0.539392
0.523029
0.557705
0.328858
0.696889
0.496623
0.288515
0.332348
0.718447
0.688106
0.571516
0.561689
0.354169
0.708871
0.662238
0.710443
0.561774
0.29915
0.551733
0.33123
0.342402
0.561596
0.32375
0.66011
0.714431
0.275424
0.689287
0.677277
0.703668
0.70179
0.710154
0.705158
0.398034
0.313872
0.650847
0.715002
0.340292
0.296141
0.691815
0.706713
0.71719
0.643934
0.578988
0.584928
0.562864
0.56198
0.566138
0.658291
0.642322
0.710303
0.385415
0.681431
0.302921
0.336271
0.457247
0.364344
0.577237
0.487351
0.697763
0.575464
0.678373
0.690689
0.707522
0.313336
0.36029
0.713237
0.709605
0.660707
0.329017
0.710801
0.299505
0.714407
0.402218
0.311855
0.467097
0.355356
0.485556
0.71361
0.700926
0.452794
0.319877
0.429597
0.594261
0.560283
0.712281
0.656435
0.709558
0.644512
0.685867
0.467556
0.647203
0.673917
0.300204
0.276447
0.702169
0.711108
0.724881
0.499542
0.710497
0.711498
0.319158
0.711021
0.706035
0.348859
0.666048
0.565191
0.64962
0.699513
0.285892
0.701468
0.354903
0.331028
0.716821
0.712992
0.695192
0.269025
0.4115
0.379413
0.560507
0.288712
0.452621
0.70349
0.35184
0.323807
0.329353
0.696402
0.695583
0.32974
0.392841
0.514575
0.659106
0.70311
0.496874
0.32765
0.706907
0.682933
0.420504
0.643321
0.701206
0.561472
0.40512
0.696925
0.699117
0.710316
0.708522
0.713925
0.357944
0.386176
0.584013
0.461968
0.347865
0.707616
0.706123
0.425206
0.589107
0.29043
0.321545
0.324148
0.707684
0.371227
0.317029
0.337446
0.319998
0.348733
0.582694
0.713176
0.384036
0.328166
0.708453
0.48212
0.330609
0.512937
0.716634
0.671532
0.352329
0.705242
0.357001
0.722885
0.294164
0.564261
0.538297
0.562283
0.712218
0.559447
0.311177
0.397287
0.646909
0.56243
0.697174
0.560452
0.557929
0.725484
0.325476
0.713866
0.712189
0.562363
0.29722
0.315152
0.708972
0.713306
0.564336
0.710097
0.544973
0.67601
0.294976
0.320479
0.355929
0.290819
0.675054
0.709614
0.658444
0.311998
0.711274
0.349954
0.386535
0.682934
0.313126
0.70393
0.722538
0.561172
0.696711
0.314485
0.560949
0.683243
0.562494
0.711957
0.294439
0.325318
0.394703
0.590991
0.331976
0.319458
0.321543
0.297399
0.699909
0.284594
0.712862
0.714536
0.348804
0.327532
0.353136
0.407845
0.340102
0.649598
0.623232
0.691689
0.313949
0.708904
0.541822
0.324896
0.290258
0.626921
0.713232
0.707651
0.328334
0.705142
0.394757
0.701295
0.724103
0.721804
0.724265
0.406173
0.706667
0.281604
0.699972
0.717868
0.643691
0.32373
0.31933
0.712922
0.353958
0.699235
0.71842
0.338172
0.676413
0.701008
0.349734
0.710599
0.706362
0.292112
0.714778
0.388587
0.530017
0.720175
0.401527
0.668076
0.315859
0.696431
0.315799
0.556425
0.65577
0.712502
0.353731
0.340551
0.705389
0.316808
0.708723
0.68648
0.387065
0.560668
0.323624
0.339236
0.709707
0.513468
0.662639
0.324602
0.356432
0.713538
0.71446
0.281098
0.714882
0.319376
0.306223
0.707946
0.721736
0.462174
0.335299
0.712137
0.565821
0.696518
0.709874
0.702153
0.501794
0.339668
0.287173
0.325445
0.692582
0.325412
0.514198
0.339359
0.379915
0.335349
0.4703
0.10484
0.316992
0.705226
0.319415
0.703325
0.571468
0.711244
0.639737
0.714565
0.339366
0.325213
0.361752
0.33104
0.707244
0.571948
0.710391
0.571551
0.675417
0.604592
0.702742
0.628791
0.63101
0.702291
0.688002
0.67754
0.359075
0.431739
0.547964
0.330759
0.620081
0.557308
0.29267
0.706987
0.562184
0.401124
0.314188
0.333427
0.327126
0.590085
0.274464
0.402147
0.707756
0.350829
0.538884
0.341096
0.69795
0.68292
0.340857
0.321469
0.709061
0.406941
0.339053
0.32972
0.33551
0.366775
0.326578
0.313643
0.32276
0.389658
0.322677
0.64107
0.333584
0.709765
0.346639
0.303484
0.456507
0.294988
0.33941
0.294955
0.71478
0.392247
0.605445
0.467846
0.354298
0.593316
0.715969
0.39317
0.674994
0.609266
0.610741
0.335932
0.564852
0.362662
0.701271
0.562638
0.375702
0.276071
0.680787
0.332997
0.399244
0.659623
0.336661
0.664626
0.678592
0.32616
0.321993
0.277164
0.447214
0.290886
0.291495
0.290236
0.282428
0.721243
0.721173
0.41338
0.569724
0.431537
0.695179
0.337826
0.307807
0.503986
0.373286
0.70635
0.296625
0.348995
0.448208
0.710841
0.710526
0.522306
0.33798
0.271651
0.522624
0.724983
0.560922
0.52092
0.67867
0.673282
0.327721
0.681123
0.534044
0.645407
0.310984
0.339187
0.677036
0.710269
0.637327
0.717167
0.708966
0.707893
0.697267
0.642892
0.710978
0.32838
0.710237
0.317631
0.29119
0.319617
0.721847
0.707257
0.307496
0.706096
0.579624
0.325311
0.554779
0.712964
0.696057
0.349731
0.308866
0.71248
0.335608
0.331834
0.297654
0.330989
0.703468
0.291079
0.721538
0.332795
0.689448
0.715926
0.709381
0.714195
0.336505
0.324483
0.707064
0.722986
0.665109
0.720667
0.711832
0.447772
0.3486
0.365856
0.708016
0.496164
0.33175
0.408213
0.328373
0.720494
0.707507
0.308347
0.324412
0.709551
0.408998
0.705962
0.627984
0.349752
0.355785
0.662382
0.563397
0.363312
0.709669
0.712489
0.707025
0.320502
0.560935
0.330383
0.561493
0.643433
0.334388
0.345339
0.319957
0.561185
0.361388
0.261277
0.362886
0.561015
0.697798
0.260546
0.320565
0.339185
0.554991
0.330222
0.701805
0.304877
0.554653
0.716715
0.348003
0.347434
0.343193
0.450662
0.363735
0.706404
0.327258
0.311586
0.687901
0.273215
0.706784
0.694548
0.561552
0.328571
0.707105
0.705013
0.709426
0.708548
0.716051
0.705958
0.294421
0.563222
0.389283
0.702332
0.297641
0.725801
0.471208
0.268334
0.561779
0.707932
0.309999
0.626886
0.293863
0.299636
0.707795
0.713785
0.277472
0.298446
0.267604
0.294239
0.718955
0.701456
0.318945
0.33538
0.708129
0.712584
0.557288
0.704578
0.705397
0.292148
0.712667
0.38567
0.716655
0.363973
0.569918
0.431172
0.706266
0.664443
0.54159
0.332238
0.355127
0.710381
0.565274
0.537154
0.703707
0.289272
0.684644
0.710486
0.336157
0.426756
0.706399
0.336301
0.56198
0.648258
0.314222
0.71387
0.64147
0.340248
0.69459
0.394016
0.710856
0.324958
0.707744
0.686396
0.3598
0.586536
0.702296
0.711873
0.582654
0.687448
0.543096
0.316667
0.392031
0.312679
0.348065
0.560078
0.516083
0.711302
0.710748
0.324555
0.322883
0.692897
0.718478
0.708806
0.723576
0.312583
0.688117
0.712355
0.32309
0.289813
0.71313
0.709567
0.709291
0.300911
0.545666
0.341332
0.69222
0.695176
0.566062
0.69473
0.333036
0.698634
0.711551
0.704448
0.712814
0.709213
0.386067
0.702042
0.321298
0.65961
0.713521
0.409431
0.679679
0.562969
0.715897
0.392634
0.374582
0.54623
0.627526
0.33386
0.334973
0.315469
0.324476
0.688375
0.683506
0.559933
0.299348
0.313787
0.710175
0.665934
0.294142
0.321675
0.414753
0.667277
0.708557
0.709231
0.690117
0.325029
0.333111
0.560439
0.300667
0.31905
0.325338
0.705701
0.342045
0.341032
0.55049
0.704537
0.69513
0.65116
0.705815
0.31862
0.278287
0.31694
0.475657
0.394312
0.29522
0.66167
0.687356
0.706747
0.710615
0.301358
0.322023
0.716531
0.329783
0.708753
0.68715
0.565854
0.27871
0.335508
0.707591
0.562841
0.574202
0.292192
0.705706
0.670632
0.546848
0.723161
0.725217
0.560625
0.677119
0.313477
0.705054
0.562743
0.638796
0.691544
0.560155
0.698211
0.561078
0.711585
0.307651
0.324863
0.323712
0.566313
0.474335
0.331305
0.693599
0.707751
0.31089
0.633383
0.340775
0.644055
0.458961
0.310731
0.71905
0.700188
0.333399
0.50967
0.566059
0.334174
0.718159
0.351402
0.301026
0.600896
0.57928
0.455332
0.710536
0.316469
0.70182
0.327925
0.305196
0.707187
0.331582
0.582338
0.327917
0.635054
0.571556
0.563109
0.711888
0.284786
0.315508
0.649352
0.415625
0.708146
0.4235
0.570858
0.694898
0.70383
0.427323
0.575054
0.69616
0.71105
0.710202
0.322792
0.335081
0.500653
0.696586
0.711914
0.345505
0.710232
0.575581
0.360354
0.286703
0.646085
0.666133
0.560711
0.561037
0.656044
0.681659
0.576662
0.669687
0.33
0.634436
0.411058
0.718227
0.709439
0.286965
0.718384
0.714262
0.332402
0.295412
0.35357
0.560271
0.287529
0.598533
0.698541
0.634986
0.31531
0.70329
0.352497
0.547284
0.562873
0.561748
0.65926
0.562613
0.593199
0.676042
0.49772
0.702026
0.324906
0.706706
0.709308
0.397553
0.560989
0.686756
0.394396
0.28629
0.334791
0.720584
0.337062
0.561497
0.318403
0.725212
0.27803
0.433317
0.327293
0.700191
0.721167
0.542691
0.255512
0.594995
0.598566
0.325719
0.556735
0.721456
0.295347
0.560659
0.562523
0.71589
0.70935
0.376117
0.451166
0.70893
0.711298
0.660503
0.340037
0.370867
0.707103
0.560969
0.563042
0.561683
0.535538
0.701399
0.53129
0.717039
0.340765
0.350353
0.561964
0.713296
0.552523
0.353539
0.707244
0.549821
0.592755
0.326068
0.375978
0.7149
0.721753
0.518655
0.335588
0.710649
0.561155
0.264949
0.582842
0.689274
0.26791
0.304116
0.279686
0.688771
0.324748
0.326642
0.709932
0.428227
0.712086
0.641304
0.263788
0.339542
0.720467
0.328839
0.284541
0.562964
0.312108
0.341225
0.564697
0.71528
0.706185
0.316105
0.34157
0.295123
0.69578
0.304703
0.706982
0.257267
0.696039
0.711721
0.710457
0.684593
0.694923
0.693069
0.707943
0.714244
0.709719
0.290451
0.31533
0.687376
0.603479
0.463701
0.689722
0.522442
0.56088
0.637136
0.341521
0.708015
0.720717
0.702547
0.298373
0.698455
0.336853
0.709515
0.452241
0.691154
0.708993
0.311825
0.705876
0.337054
0.407641
0.687238
0.32503
0.667946
0.560555
0.723077
0.325626
0.707305
0.325315
0.287856
0.395702
0.336673
0.637277
0.28485
0.645953
0.563762
0.335175
0.407968
0.440202
0.544891
0.618751
0.66767
0.330303
0.351406
0.278896
0.329437
0.250179
0.620811
0.700961
0.347291
0.553787
0.698134
0.280704
0.720638
0.663951
0.561184
0.306794
0.561625
0.685814
0.704077
0.721444
0.293754
0.706339
0.707867
0.699199
0.645783
0.688451
0.318563
0.414295
0.711097
0.496963
0.335316
0.707044
0.351029
0.531736
0.620253
0.709671
0.711037
0.292988
0.687987
0.353745
0.30064
0.679326
0.711246
0.708687
0.714297
0.660739
0.287063
0.713753
0.284655
0.461739
0.716304
0.561988
0.708677
0.300582
0.321261
0.712917
0.321411
0.712172
0.618599
0.389115
0.317683
0.712081
0.336048
0.709097
0.71153
0.664724
0.342527
0.32716
0.460304
0.492676
0.606912
0.430654
0.698175
0.669486
0.708649
0.560005
0.6955
0.256514
0.318912
0.713985
0.681736
0.655809
0.409519
0.349266
0.677711
0.28384
0.706543
0.578069
0.338603
0.706525
0.310361
0.712056
0.342782
0.711213
0.306093
0.70746
0.682051
0.309906
0.71579
0.627729
0.313281
0.559828
0.711237
0.523003
0.295429
0.341051
0.425251
0.705967
0.658319
0.325759
0.543012
0.697713
0.684344
0.313919
0.60503
0.699443
0.404686
0.697525
0.699232
0.27999
0.71066
0.562525
0.342596
0.579522
0.32877
0.645726
0.320689
0.301532
0.709439
0.330199
0.339993
0.282394
0.707875
0.698504
0.364513
0.710781
0.340923
0.676378
0.329683
0.698666
0.340676
0.697004
0.711325
0.657082
0.563195
0.512247
0.689583
0.566426
0.347383
0.606933
0.660317
0.496764
0.694983
0.447935
0.379793
0.713653
0.334843
0.536445
0.340728
0.710358
0.293263
0.401434
0.700019
0.706094
0.326098
0.715581
0.686275
0.560157
0.724001
0.561263
0.316543
0.720454
0.322461
0.36636
0.715961
0.69241
0.72453
0.708367
0.29994
0.320368
0.288494
0.693304
0.565882
0.340515
0.717225
0.349507
0.322733
0.324507
0.715188
0.363894
0.714561
0.709488
0.604132
0.713195
0.70919
0.551988
0.654033
0.391571
0.308388
0.325375
0.561211
0.560962
0.353708
0.620371
0.685926
0.653418
0.377963
0.395167
0.671698
0.279302
0.665063
0.624083
0.317329
0.616199
0.688407
0.328497
0.705874
0.266711
0.711241
0.713906
0.696355
0.284998
0.422126
0.66596
0.30014
0.393466
0.712577
0.308355
0.648982
0.709969
0.703284
0.686163
0.342768
0.561358
0.678111
0.711232
0.339374
0.715042
0.329686
0.296941
0.70364
0.708589
0.561965
0.233141
0.708506
0.602865
0.561649
0.351396
0.312155
0.337729
0.712976
0.2671
0.270439
0.340416
0.621769
0.257631
0.290405
0.396377
0.707433
0.322545
0.560714
0.568747
0.717274
0.326006
0.710995
0.636414
0.563718
0.378558
0.642644
0.27716
0.333813
0.706683
0.326505
0.622628
0.694422
0.562782
0.315865
0.316861
0.310419
0.521584
0.560489
0.237889
0.705818
0.707793
0.689504
0.327694
0.281171
0.320401
0.663872
0.33707
0.559898
0.570535
0.610915
0.70779
0.297343
0.627514
0.298136
0.623449
0.621324
0.717954
0.607174
0.501311
0.645333
0.658732
0.714604
0.327061
0.345016
0.341256
0.689658
0.50119
0.562137
0.315884
0.370866
0.700773
0.710696
0.562737
0.326565
0.717846
0.520022
0.524662
0.660294
0.367406
0.32644
0.283766
0.708745
0.563313
0.642705
0.693656
0.325327
0.722669
0.635648
0.563091
0.55462
0.724069
0.720391
0.698882
0.692719
0.707254
0.372514
0.711821
0.714326
0.703249
0.712732
0.709245
0.590041
0.320856
0.308047
0.643947
0.337033
0.338431
0.717199
0.301085
0.604723
0.709885
0.691971
0.703187
0.385681
0.718512
0.413248
0.352431
0.703507
0.702267
0.710582
0.327052
0.714691
0.710556
0.649809
0.706732
0.328444
0.702408
0.713363
0.68559
0.356674
0.696246
0.302951
0.721031
0.324423
0.323138
0.551942
0.407122
0.718459
0.699283
0.709119
0.340055
0.697981
0.367081
0.292873
0.70679
0.444855
0.341051
0.709781
0.313728
0.471707
0.656974
0.678834
0.708437
0.445194
0.556612
0.64231
0.707789
0.591447
0.709335
0.49718
0.721005
0.692858
0.635558
0.299868
0.277668
0.404244
0.714419
0.391499
0.647443
0.717653
0.582249
0.708046
0.527543
0.668566
0.671597
0.304694
0.715233
0.684542
0.510701
0.684698
0.713284
0.707058
0.64268
0.328417
0.3142
0.702303
0.505839
0.536849
0.712447
0.708916
0.710845
0.71051
0.713286
0.606523
0.668968
0.717853
0.277538
0.318626
0.294745
0.337682
0.563147
0.417297
0.527339
0.706524
0.676804
0.377257
0.703354
0.721887
0.328896
0.353318
0.561803
0.712094
0.36241
0.302575
0.298119
0.560011
0.705483
0.360949
0.250847
0.319744
0.309926
0.330287
0.336206
0.722923
0.711545
0.689256
0.32289
0.693382
0.597345
0.573356
0.315512
0.317601
0.705842
0.560292
0.342412
0.695928
0.327998
0.69926
0.373258
0.716948
0.341012
0.706343
0.715323
0.3249
0.526931
0.319691
0.720742
0.313882
0.603988
0.351809
0.470707
0.283843
0.596559
0.32809
0.563602
0.560304
0.573247
0.693832
0.316358
0.69965
0.623798
0.714863
0.59378
0.675459
0.317306
0.391087
0.351723
0.706384
0.301677
0.714105
0.510102
0.691183
0.715891
0.451987
0.702842
0.297601
0.350125
0.278874
0.471649
0.556554
0.708119
0.315037
0.319972
0.706163
0.348015
0.333841
0.583089
0.350222
0.341614
0.307192
0.723935
0.62822
0.608018
0.343048
0.697525
0.709487
0.304843
0.307609
0.709907
0.704323
0.621407
0.47641
0.371918
0.339972
0.319549
0.719564
0.644182
0.494581
0.676005
0.28928
0.545431
0.303593
0.561419
0.714753
0.316234
0.324058
0.650016
0.577894
0.714523
0.707946
0.707569
0.720481
0.715757
0.321494
0.32908
0.33741
0.29925
0.548936
0.565202
0.630442
0.310911
0.323294
0.419602
0.303514
0.711036
0.676366
0.338661
0.307644
0.709686
0.363181
0.643011
0.703199
0.697911
0.689237
0.552038
0.331343
0.34729
0.666004
0.315159
0.399356
0.36125
0.604857
0.713199
0.298317
0.316551
0.560381
0.326251
0.702365
0.706851
0.321877
0.334368
0.278664
0.710035
0.309815
0.560575
0.690912
0.585904
0.305119
0.493601
0.713252
0.704399
0.252104
0.700457
0.644183
0.304726
0.712396
0.720682
0.297584
0.332248
0.706387
0.317766
0.2992
0.699333
0.326241
0.711216
0.667987
0.704818
0.644175
0.713059
0.709488
0.671459
0.277883
0.373481
0.660488
0.703065
0.418685
0.720463
0.321762
0.711432
0.708734
0.540801
0.636455
0.391434
0.412181
0.7039
0.711815
0.691187
0.716012
0.709348
0.561654
0.725313
0.560191
0.715817
0.708287
0.723057
0.560639
0.689934
0.312019
0.704523
0.34836
0.711572
0.711765
0.696627
0.69128
0.684015
0.329695
0.315751
0.30685
0.260894
0.694603
0.335173
0.307106
0.680195
0.302243
0.691547
0.318114
0.700569
0.707076
0.329181
0.349597
0.338703
0.713707
0.334855
0.707863
0.704979
0.311934
0.704545
0.522338
0.342338
0.352556
0.30584
0.681067
0.334289
0.716963
0.524679
0.319311
0.711248
0.710041
0.707282
0.328771
0.553569
0.350394
0.693908
0.646408
0.706837
0.337952
0.702252
0.712257
0.693009
0.376348
0.713622
0.330927
0.328654
0.712135
0.412456
0.713658
0.383513
0.339126
0.398188
0.694154
0.358914
0.315784
0.325378
0.464545
0.562429
0.706989
0.297454
0.590004
0.709989
0.520134
0.409537
0.339247
0.525845
0.334495
0.317289
0.709386
0.332117
0.336469
0.719983
0.721863
0.326173
0.693337
0.320939
0.561949
0.347542
0.708383
0.562135
0.686512
0.589768
0.332916
0.313985
0.34456
0.684785
0.708417
0.554428
0.506216
0.343891
0.311613
0.70656
0.284539
0.711367
0.351273
0.56684
0.664708
0.336965
0.339639
0.332995
0.316122
0.34988
0.651354
0.69553
0.337833
0.71149
0.630171
0.315008
0.280419
0.721705
0.338676
0.708115
0.386174
0.687403
0.64039
0.711098
0.562201
0.309045
0.713522
0.715445
0.723427
0.331297
0.658119
0.565219
0.337795
0.714024
0.655764
0.720438
0.699919
0.715609
0.713847
0.723891
0.703705
0.71106
0.325893
0.704867
0.333322
0.429039
0.712352
0.345822
0.703191
0.672135
0.318746
0.691745
0.330745
0.295803
0.718414
0.661176
0.721732
0.31552
0.700684
0.595749
0.345282
0.327144
0.709947
0.708454
0.354674
0.333099
0.696516
0.721455
0.330993
0.635212
0.715062
0.630771
0.34214
0.330086
0.318305
0.640624
0.307286
0.700525
0.6889
0.707479
0.601943
0.70848
0.317598
0.711844
0.583014
0.71494
0.606557
0.41474
0.267803
0.297222
0.700834
0.707263
0.38535
0.638618
0.343044
0.659916
0.709063
0.290656
0.641626
0.701426
0.611002
0.324595
0.324243
0.33812
0.711242
0.71332
0.59324
0.476019
0.709899
0.341617
0.620255
0.561305
0.701689
0.323873
0.593719
0.31909
0.679646
0.303913
0.705294
0.718427
0.345395
0.712259
0.414177
0.561136
0.642066
0.560026
0.720466
0.39017
0.705496
0.710116
0.711931
0.70617
0.437378
0.5612
0.287984
0.710455
0.293778
0.322679
0.297189
0.348185
0.333728
0.326979
0.717624
0.343412
0.267433
0.654392
0.712524
0.697396
0.36252
0.680859
0.674427
0.673807
0.335913
0.608165
0.708525
0.32666
0.337574
0.312826
0.617025
0.467656
0.318862
0.598745
0.301349
0.561284
0.461207
0.304242
0.426528
0.635092
0.336611
0.707331
0.286882
0.486469
0.350891
0.721353
0.359269
0.659592
0.561314
0.678974
0.405602
0.325989
0.717974
0.720415
0.3389
0.28908
0.691502
0.322584
0.694905
0.32148
0.525478
0.296324
0.709267
0.331134
0.719583
0.322417
0.708956
0.710007
0.712912
0.563304
0.286831
0.349157
0.360495
0.706841
0.678739
0.692877
0.562288
0.321087
0.701184
0.338857
0.706988
0.6501
0.379952
0.317619
0.70375
0.706168
0.35188
0.564558
0.719063
0.706385
0.704742
0.285084
0.622086
0.338143
0.707965
0.312714
0.559036
0.703681
0.715601
0.720851
0.315793
0.722449
0.331908
0.305281
0.701599
0.563858
0.518478
0.703387
0.562418
0.341168
0.697662
0.720052
0.724794
0.283847
0.393139
0.674162
0.340535
0.711693
0.720012
0.702919
0.722904
0.293964
0.417687
0.629577
0.345125
0.710061
0.72109
0.439996
0.717004
0.258494
0.666517
0.698632
0.661883
0.71592
0.321608
0.406614
0.707957
0.700439
0.319361
0.321118
0.334147
0.344027
0.272656
0.307663
0.342394
0.336169
0.706871
0.2913
0.337282
0.694932
0.51854
0.560724
0.36865
0.316443
0.709958
0.429933
0.474748
0.711247
0.353694
0.638847
0.562506
0.578975
0.69725
0.333436
0.707701
0.56776
0.311756
0.324075
0.382412
0.669906
0.580711
0.715011
0.697498
0.702148
0.695171
0.347551
0.710623
0.585156
0.71178
0.327127
0.709941
0.629591
0.344449
0.393384
0.285162
0.334413
0.278175
0.567869
0.65885
0.687177
0.320173
0.355758
0.715521
0.309896
0.703012
0.710345
0.702254
0.662131
0.710418
0.328646
0.345178
0.298207
0.551452
0.311392
0.711275
0.299385
0.704744
0.695776
0.711556
0.336605
0.415108
0.387211
0.709408
0.327116
0.306984
0.716769
0.698294
0.631581
0.69643
0.708944
0.693988
0.334146
0.592588
0.711755
0.493354
0.708419
0.703821
0.698161
0.40962
0.385691
0.724574
0.456734
0.610456
0.339763
0.68113
0.704425
0.358099
0.308012
0.690983
0.471284
0.711667
0.702133
0.33525
0.323965
0.562473
0.393668
0.368269
0.706691
0.710002
0.31867
0.707622
0.564916
0.691194
0.335121
0.569116
0.332603
0.709109
0.714884
0.694513
0.685575
0.561589
0.293804
0.336607
0.694648
0.332543
0.57404
0.318713
0.711166
0.297388
0.64431
0.710857
0.561396
0.338406
0.56036
0.562321
0.299165
0.679564
0.306117
0.723808
0.34184
0.343569
0.295984
0.68212
0.711305
0.306102