# vtk DataFile Version 1.0
unstructured grid
ascii
DATASET UNSTRUCTURED_GRID
points 13672 float
0.0796578 -0.059106 0
0.00128732 0.00159165 0
0.00227961 -0.00102548 0
0.0791586 -0.0598787 0
-0.0546216 0.01 0
0.000495206 0.025 0
0.0800549 -0.035 0
0.135172 -0.08 0
-0.0546216 -0.0451168 0
0.000495206 -0.0301168 0
0.0800549 -0.0901168 0
0.135172 -0.135117 0
-0.0546216 -0.0451168 -0.00551168
0.000495206 -0.0301168 -0.00551168
0.0800549 -0.0901168 -0.00551168
0.135172 -0.135117 -0.00551168
0.135172 -0.08 -0.00551168
0.0800549 -0.035 -0.00551168
0.000495206 0.025 -0.00551168
-0.0546216 0.01 -0.00551168
0.00128732 0.00159165 -0.00551168
0.00227961 -0.00102548 -0.00551168
0.0791586 -0.0598787 -0.00551168
0.0796578 -0.059106 -0.00551168
0.00165953 -0.000990923 0
0.00119576 -0.000874076 0
0.000866021 -0.000641801 0
0.000645147 -0.000349912 0
0.00052235 -1.7281e-05 0
0.00049972 0.000348016 0
0.000601632 0.000737716 0
0.000861774 0.0011403 0
0.00157235 0.00183217 0
0.00188647 0.00206725 0
0.00222612 0.00230203 0
0.00258713 0.00254351 0
0.00296826 0.00279524 0
0.00337118 0.00305664 0
0.00379785 0.00332658 0
0.00425045 0.00360349 0
0.00473139 0.00388521 0
0.0052432 0.00416895 0
0.0057881 0.00445204 0
0.00636753 0.00473281 0
0.00698281 0.00500961 0
0.00763526 0.00528058 0
0.00832616 0.00554366 0
0.00905691 0.00579603 0
0.00982918 0.00603333 0
0.0106445 0.00625033 0
0.0115038 0.00644128 0
0.0124073 0.00660297 0
0.0133543 0.00673414 0
0.0143444 0.00683382 0
0.0153769 0.00690031 0
0.0164512 0.00693173 0
0.0175666 0.00692547 0
0.0187219 0.00687822 0
0.0199156 0.00678477 0
0.0211454 0.00663864 0
0.0224084 0.00643275 0
0.0237018 0.00616676 0
0.0250249 0.00584739 0
0.026375 0.00547298 0
0.0277479 0.00503752 0
0.0291386 0.00453545 0
0.0305433 0.0039653 0
0.0319572 0.0033256 0
0.0333681 0.00260019 0
0.034775 0.00179799 0
0.0361793 0.000930615 0
0.0375798 3.12222e-06 0
0.0389689 -0.000988429 0
0.0403357 -0.00205109 0
0.041675 -0.00318283 0
0.0429849 -0.00437751 0
0.0442643 -0.00562904 0
0.0455126 -0.00693089 0
0.0467314 -0.00827518 0
0.0479204 -0.00965638 0
0.0490661 -0.0110799 0
0.0501515 -0.0125519 0
0.0511696 -0.0140695 0
0.0521492 -0.0156071 0
0.0531202 -0.0171411 0
0.0540851 -0.0186663 0
0.0550431 -0.0201798 0
0.0559923 -0.0216793 0
0.0569311 -0.0231626 0
0.0578582 -0.0246273 0
0.0587723 -0.0260715 0
0.0596721 -0.027493 0
0.0605563 -0.02889 0
0.0614241 -0.0302609 0
0.0622742 -0.0316042 0
0.063106 -0.0329183 0
0.0639186 -0.034202 0
0.0647113 -0.0354543 0
0.0654835 -0.0366743 0
0.0662345 -0.0378613 0
0.0669642 -0.0390145 0
0.0676726 -0.0401333 0
0.0683597 -0.0412172 0
0.0690246 -0.0422665 0
0.0696662 -0.0432819 0
0.0702841 -0.0442636 0
0.0708793 -0.0452111 0
0.0714538 -0.0461237 0
0.072009 -0.047001 0
0.0725452 -0.0478434 0
0.0730611 -0.0486524 0
0.073556 -0.0494294 0
0.0740291 -0.0501756 0
0.0744812 -0.0508916 0
0.0749138 -0.0515773 0
0.0753285 -0.0522331 0
0.0757266 -0.0528592 0
0.076109 -0.0534564 0
0.0764753 -0.0540264 0
0.0768243 -0.054571 0
0.0771553 -0.0550919 0
0.0774679 -0.0555901 0
0.0777617 -0.0560669 0
0.0780369 -0.056523 0
0.0782958 -0.0569578 0
0.0785421 -0.0573703 0
0.0787786 -0.0577603 0
0.0790073 -0.0581279 0
0.0792295 -0.058474 0
0.0794462 -0.0587995 0
0.0798803 -0.0594162 0
0.0800272 -0.0596588 0
0.0800357 -0.0598891 0
0.0799275 -0.0600784 0
0.0797205 -0.0601773 0
0.0794593 -0.0601051 0
0.0789155 -0.0596491 0
0.0786707 -0.0593963 0
0.0784111 -0.0591319 0
0.0781372 -0.0588542 0
0.0778566 -0.0585548 0
0.0775715 -0.0582308 0
0.0772803 -0.0578828 0
0.0769832 -0.0575099 0
0.0766822 -0.0571097 0
0.0763801 -0.0566796 0
0.0760759 -0.0562196 0
0.0757623 -0.0557337 0
0.0754359 -0.0552232 0
0.0750951 -0.0546879 0
0.0747379 -0.054128 0
0.0743626 -0.0535435 0
0.0739688 -0.0529338 0
0.0735559 -0.0522981 0
0.0731238 -0.0516357 0
0.0726718 -0.050946 0
0.0721991 -0.0502288 0
0.0717046 -0.049484 0
0.0711872 -0.0487117 0
0.0706461 -0.047912 0
0.0700804 -0.0470849 0
0.0694892 -0.0462308 0
0.0688718 -0.0453499 0
0.0682271 -0.0444431 0
0.0675544 -0.043511 0
0.0668527 -0.0425546 0
0.0661215 -0.0415748 0
0.06536 -0.040573 0
0.0645676 -0.0395504 0
0.0637439 -0.0385087 0
0.0628887 -0.0374493 0
0.062002 -0.0363741 0
0.0610838 -0.0352847 0
0.0601345 -0.0341831 0
0.0591547 -0.033071 0
0.0581456 -0.0319502 0
0.0571083 -0.0308224 0
0.0560444 -0.0296893 0
0.0549562 -0.028552 0
0.053845 -0.0274126 0
0.0527113 -0.0262746 0
0.051554 -0.0251427 0
0.0503724 -0.0240222 0
0.0491675 -0.0229164 0
0.047941 -0.0218282 0
0.0466955 -0.0207597 0
0.0454337 -0.0197126 0
0.0441592 -0.0186878 0
0.0428751 -0.0176863 0
0.0415841 -0.0167097 0
0.0402878 -0.0157609 0
0.0389879 -0.0148428 0
0.0376864 -0.0139575 0
0.0363853 -0.013107 0
0.0350871 -0.0122931 0
0.0337942 -0.0115164 0
0.0325095 -0.0107772 0
0.0312357 -0.0100756 0
0.0299758 -0.00941024 0
0.0287337 -0.00877784 0
0.0275126 -0.00817571 0
0.0263139 -0.00760375 0
0.0251376 -0.00706528 0
0.0239829 -0.0065649 0
0.0228537 -0.00609619 0
0.0217522 -0.00565563 0
0.0206795 -0.00524226 0
0.0196364 -0.00485507 0
0.0186233 -0.00449318 0
0.0176408 -0.00415577 0
0.016689 -0.00384204 0
0.0157682 -0.00355115 0
0.0148783 -0.00328218 0
0.0140192 -0.00303468 0
0.0131906 -0.00280795 0
0.0123925 -0.00260016 0
0.0116246 -0.00241012 0
0.0108864 -0.00223769 0
0.0101774 -0.00208212 0
0.00949701 -0.00194206 0
0.00884483 -0.0018163 0
0.0082202 -0.0017039 0
0.00762247 -0.00160391 0
0.00705097 -0.00151528 0
0.006505 -0.00143697 0
0.0059838 -0.00136806 0
0.00548662 -0.00130772 0
0.00501265 -0.00125519 0
0.00456114 -0.00120954 0
0.00413136 -0.00116914 0
0.00372257 -0.00113251 0
0.00333398 -0.00109853 0
0.00296466 -0.00106798 0
0.00261363 -0.0010431 0
-0.052721 -0.0445996 0
-0.0508204 -0.0440823 0
-0.0489199 -0.0435651 0
-0.0470193 -0.0430478 0
-0.0451187 -0.0425306 0
-0.0432181 -0.0420134 0
-0.0413175 -0.0414961 0
-0.039417 -0.0409789 0
-0.0375164 -0.0404616 0
-0.0356158 -0.0399444 0
-0.0337152 -0.0394271 0
-0.0318146 -0.0389099 0
-0.0299141 -0.0383927 0
-0.0280135 -0.0378754 0
-0.0261129 -0.0373582 0
-0.0242123 -0.0368409 0
-0.0223117 -0.0363237 0
-0.0204112 -0.0358065 0
-0.0185106 -0.0352892 0
-0.01661 -0.034772 0
-0.0147094 -0.0342547 0
-0.0128088 -0.0337375 0
-0.0109083 -0.0332202 0
-0.00900769 -0.032703 0
-0.00710711 -0.0321858 0
-0.00520653 -0.0316685 0
-0.00330595 -0.0311513 0
-0.00140537 -0.030634 0
0.00190689 -0.0299614 0
0.00332271 -0.0298498 0
0.00474133 -0.0297825 0
0.00616136 -0.0297597 0
0.0075814 -0.0297814 0
0.00900007 -0.0298477 0
0.010416 -0.0299583 0
0.0118278 -0.0301127 0
0.0132342 -0.0303103 0
0.0146339 -0.0305504 0
0.0160259 -0.0308322 0
0.0174091 -0.0311546 0
0.0187824 -0.0315166 0
0.020145 -0.031917 0
0.0214961 -0.0323546 0
0.0228351 -0.032828 0
0.0241613 -0.0333361 0
0.0254744 -0.0338774 0
0.0267738 -0.0344507 0
0.0280592 -0.0350545 0
0.0293306 -0.0356877 0
0.0305875 -0.0363488 0
0.0318301 -0.0370367 0
0.0330581 -0.0377501 0
0.0342717 -0.0384879 0
0.0354708 -0.0392489 0
0.0366556 -0.0400321 0
0.0378262 -0.0408363 0
0.0389828 -0.0416607 0
0.0401254 -0.0425042 0
0.0412543 -0.0433659 0
0.0423698 -0.0442451 0
0.043472 -0.0451408 0
0.0445612 -0.0460523 0
0.0456375 -0.0469789 0
0.0467013 -0.0479199 0
0.0477529 -0.0488746 0
0.0487923 -0.0498424 0
0.04982 -0.0508227 0
0.0508362 -0.051815 0
0.051841 -0.0528187 0
0.0528348 -0.0538333 0
0.0538178 -0.0548584 0
0.0547903 -0.0558935 0
0.0557524 -0.0569382 0
0.0567045 -0.0579922 0
0.0576467 -0.0590549 0
0.0585792 -0.0601261 0
0.0595024 -0.0612055 0
0.0604163 -0.0622926 0
0.0613212 -0.0633873 0
0.0622174 -0.0644891 0
0.0631049 -0.0655979 0
0.0639841 -0.0667134 0
0.064855 -0.0678353 0
0.0657179 -0.0689633 0
0.0665729 -0.0700974 0
0.0674202 -0.0712372 0
0.06826 -0.0723826 0
0.0690925 -0.0735333 0
0.0699178 -0.0746892 0
0.070736 -0.0758501 0
0.0715473 -0.0770159 0
0.0723518 -0.0781863 0
0.0731498 -0.0793612 0
0.0739412 -0.0805405 0
0.0747264 -0.081724 0
0.0755053 -0.0829116 0
0.0762781 -0.0841033 0
0.0770449 -0.0852987 0
0.0778059 -0.0864979 0
0.0785611 -0.0877007 0
0.0793108 -0.088907 0
0.0814681 -0.0912706 0
0.0828814 -0.0924245 0
0.0842946 -0.0935783 0
0.0857079 -0.0947322 0
0.0871211 -0.095886 0
0.0885344 -0.0970399 0
0.0899476 -0.0981937 0
0.0913609 -0.0993476 0
0.0927741 -0.100501 0
0.0941874 -0.101655 0
0.0956006 -0.102809 0
0.0970139 -0.103963 0
0.0984272 -0.105117 0
0.0998404 -0.106271 0
0.101254 -0.107424 0
0.102667 -0.108578 0
0.10408 -0.109732 0
0.105493 -0.110886 0
0.106907 -0.11204 0
0.10832 -0.113194 0
0.109733 -0.114348 0
0.111146 -0.115501 0
0.11256 -0.116655 0
0.113973 -0.117809 0
0.115386 -0.118963 0
0.116799 -0.120117 0
0.118213 -0.121271 0
0.119626 -0.122424 0
0.121039 -0.123578 0
0.122452 -0.124732 0
0.123866 -0.125886 0
0.125279 -0.12704 0
0.126692 -0.128194 0
0.128105 -0.129348 0
0.129519 -0.130501 0
0.130932 -0.131655 0
0.132345 -0.132809 0
0.133758 -0.133963 0
0.135172 -0.133216 0
0.135172 -0.131316 0
0.135172 -0.129415 0
0.135172 -0.127514 0
0.135172 -0.125614 0
0.135172 -0.123713 0
0.135172 -0.121813 0
0.135172 -0.119912 0
0.135172 -0.118012 0
0.135172 -0.116111 0
0.135172 -0.11421 0
0.135172 -0.11231 0
0.135172 -0.110409 0
0.135172 -0.108509 0
0.135172 -0.106608 0
0.135172 -0.104708 0
0.135172 -0.102807 0
0.135172 -0.100906 0
0.135172 -0.0990058 0
0.135172 -0.0971052 0
0.135172 -0.0952046 0
0.135172 -0.0933041 0
0.135172 -0.0914035 0
0.135172 -0.0895029 0
0.135172 -0.0876023 0
0.135172 -0.0857017 0
0.135172 -0.0838012 0
0.135172 -0.0819006 0
0.133758 -0.0788462 0
0.132345 -0.0776923 0
0.130932 -0.0765385 0
0.129519 -0.0753846 0
0.128105 -0.0742308 0
0.126692 -0.0730769 0
0.125279 -0.0719231 0
0.123866 -0.0707692 0
0.122452 -0.0696154 0
0.121039 -0.0684615 0
0.119626 -0.0673077 0
0.118213 -0.0661538 0
0.116799 -0.065 0
0.115386 -0.0638462 0
0.113973 -0.0626923 0
0.11256 -0.0615385 0
0.111146 -0.0603846 0
0.109733 -0.0592308 0
0.10832 -0.0580769 0
0.106907 -0.0569231 0
0.105493 -0.0557692 0
0.10408 -0.0546154 0
0.102667 -0.0534615 0
0.101254 -0.0523077 0
0.0998404 -0.0511538 0
0.0984272 -0.05 0
0.0970139 -0.0488462 0
0.0956006 -0.0476923 0
[...]
CELL_DATA 13116
SCALARS rho float
LOOKUP_TABLE default
0.606359
0.710903
0.312632
0.711798
0.712254
0.699239
0.296167
0.713879
0.543713
0.710996
0.302448
0.277172
0.712202
0.27976
0.298221
0.69976
0.599636
0.709213
0.716747
0.288134
0.600921
0.343739
0.292929
0.71087
0.604524
0.714804
0.710918
0.309894
0.576043
0.655175
0.560377
0.275678
0.556242
0.461612
0.302272
0.60463
0.685565
0.722484
0.638248
0.712308
0.7087
0.713568
0.480642
0.308111
0.719172
0.717909
0.71251
0.718514
0.305199
0.517202
0.711728
0.481701
0.250904
0.591723
0.559739
0.588413
0.306019
0.71063
0.521533
0.279182
0.279568
0.711419
0.709681
0.617853
0.560155
0.281651
0.706456
0.68386
0.708352
0.558357
0.30437
0.561252
0.360099
0.293405
0.562237
0.324551
0.684582
0.712222
0.293885
0.704894
0.701673
0.714153
0.710932
0.718712
0.724384
0.38732
0.285259
0.672722
0.713988
0.31933
0.278779
0.712689
0.710661
0.715407
0.664684
0.614207
0.606838
0.560262
0.562901
0.581266
0.679855
0.695192
0.708887
0.440374
0.718073
0.266826
0.337376
0.522039
0.303926
0.589244
0.548605
0.713441
0.610367
0.700181
0.705796
0.707109
0.285202
0.370938
0.712609
0.710115
0.681899
0.366465
0.70905
0.277807
0.715941
0.425644
0.285428
0.488257
0.303249
0.513247
0.712225
0.719024
0.453137
0.319883
0.433276
0.643439
0.55974
0.711013
0.678148
0.710221
0.674671
0.713511
0.492155
0.676933
0.698771
0.278678
0.305258
0.713665
0.712156
0.712563
0.504561
0.718773
0.718297
0.31827
0.711861
0.720174
0.296286
0.685909
0.560986
0.671779
0.710523
0.299238
0.711471
0.298649
0.372435
0.711994
0.715937
0.708708
0.299811
0.412583
0.381662
0.560183
0.289255
0.483174
0.706555
0.290811
0.326211
0.354684
0.713454
0.696614
0.294352
0.405817
0.572146
0.683415
0.697932
0.526024
0.291609
0.705197
0.716807
0.452311
0.67014
0.713051
0.557903
0.296186
0.709852
0.697308
0.711216
0.70572
0.71362
0.433524
0.443896
0.598776
0.48326
0.290698
0.713607
0.719863
0.489442
0.621437
0.242631
0.300377
0.319861
0.704014
0.298097
0.298619
0.312813
0.318604
0.361639
0.633022
0.716064
0.37186
0.304735
0.706295
0.543613
0.295602
0.505454
0.711168
0.697329
0.310476
0.706437
0.35088
0.715038
0.276445
0.55712
0.546251
0.560053
0.713822
0.555412
0.277974
0.4221
0.669712
0.560992
0.696711
0.559785
0.553683
0.714675
0.328726
0.711581
0.711771
0.564114
0.312725
0.307553
0.719337
0.71241
0.559388
0.718254
0.598858
0.695824
0.299921
0.290411
0.395131
0.24
0.720487
0.711301
0.684217
0.287282
0.711587
0.284327
0.382
0.718674
0.310622
0.714689
0.711912
0.559697
0.710688
0.278046
0.559608
0.70542
0.563948
0.711082
0.289291
0.285173
0.297195
0.641566
0.36711
0.326614
0.32343
0.317932
0.722613
0.240973
0.713181
0.712358
0.287039
0.289004
0.284941
0.422807
0.31476
0.671886
0.674071
0.72038
0.305577
0.70231
0.542561
0.286216
0.284052
0.670565
0.71222
0.705198
0.293732
0.698503
0.441253
0.719213
0.713099
0.712361
0.712858
0.296963
0.706179
0.270849
0.703315
0.710555
0.666294
0.295621
0.319686
0.711663
0.285029
0.72068
0.711521
0.380758
0.694511
0.710903
0.286195
0.7136
0.710729
0.274418
0.712101
0.374499
0.526658
0.71624
0.387436
0.687533
0.286413
0.709592
0.317267
0.567251
0.711387
0.710868
0.308903
0.343924
0.722708
0.320775
0.714542
0.715138
0.400242
0.560174
0.301354
0.359307
0.717049
0.511017
0.685767
0.284848
0.297911
0.711512
0.712381
0.307161
0.712232
0.284407
0.271791
0.708725
0.715995
0.530884
0.33328
0.711696
0.561235
0.699533
0.713347
0.711876
0.508788
0.319245
0.243896
0.293177
0.698657
0.294547
0.572381
0.37928
0.29043
0.338685
0.537678
0.116501
0.318358
0.72437
0.281053
0.711551
0.580711
0.715574
0.663895
0.711997
0.3581
0.285587
0.432887
0.38195
0.717013
0.607746
0.711018
0.580062
0.699081
0.636093
0.713561
0.660037
0.653724
0.712483
0.703849
0.694019
0.400732
0.489492
0.602623
0.348185
0.671173
0.590202
0.263273
0.706685
0.560938
0.297837
0.290306
0.29962
0.28945
0.606281
0.321274
0.296383
0.705487
0.283458
0.549374
0.316081
0.701165
0.709451
0.316008
0.324893
0.717277
0.419162
0.322393
0.287513
0.32652
0.303488
0.286093
0.291283
0.349439
0.386996
0.29488
0.69459
0.343328
0.715515
0.424634
0.276323
0.445985
0.276568
0.316526
0.276816
0.711452
0.397213
0.626411
0.534536
0.28276
0.625621
0.714152
0.383918
0.693643
0.641971
0.643979
0.286346
0.560871
0.372098
0.71167
0.560458
0.301906
0.259061
0.718316
0.385685
0.385951
0.714779
0.337029
0.68458
0.702141
0.289423
0.327468
0.294276
0.479921
0.285068
0.261845
0.29508
0.274369
0.711931
0.711633
0.428648
0.584947
0.437598
0.710769
0.350359
0.328444
0.547259
0.302268
0.718913
0.31969
0.353284
0.448437
0.719886
0.715663
0.519765
0.381269
0.256726
0.517678
0.713457
0.555335
0.514411
0.713327
0.720292
0.295822
0.708162
0.541755
0.668529
0.328635
0.315645
0.699152
0.710857
0.661908
0.710995
0.723852
0.715044
0.709953
0.666165
0.714363
0.311211
0.720358
0.309839
0.252448
0.301774
0.711619
0.719809
0.308147
0.724278
0.593385
0.296905
0.56512
0.712447
0.713294
0.309385
0.326456
0.712817
0.325867
0.321838
0.269104
0.296811
0.719739
0.269371
0.711284
0.348851
0.709691
0.711702
0.706658
0.7123
0.327001
0.291804
0.718717
0.715391
0.684749
0.711933
0.711811
0.434047
0.28618
0.303098
0.699571
0.5333
0.300061
0.418739
0.288614
0.715352
0.705841
0.325207
0.345356
0.721386
0.394449
0.724375
0.650512
0.302199
0.350278
0.682532
0.561322
0.299741
0.715133
0.715849
0.719108
0.328491
0.560373
0.302372
0.559992
0.66659
0.334526
0.359564
0.332718
0.560321
0.305065
0.289834
0.374942
0.609554
0.716927
0.291488
0.282971
0.304989
0.581292
0.362167
0.697218
0.278845
0.564085
0.711115
0.42367
0.297814
0.294856
0.436364
0.303912
0.715437
0.301344
0.339045
0.699149
0.280642
0.703287
0.718547
0.560135
0.311209
0.718836
0.711348
0.711446
0.700434
0.715945
0.707942
0.275569
0.55943
0.377077
0.720671
0.287519
0.714299
0.51834
0.294667
0.561325
0.711976
0.32555
0.657986
0.279321
0.309447
0.70515
0.711393
0.285384
0.277609
0.293451
0.274601
0.715662
0.710922
0.327674
0.28928
0.714636
0.710893
0.567771
0.711414
0.705255
0.298474
0.711119
0.388397
0.711702
0.380966
0.600801
0.426579
0.705886
0.687364
0.542021
0.34534
0.307298
0.70667
0.572835
0.589949
0.711411
0.246086
0.70896
0.711893
0.332006
0.486926
0.711467
0.376107
0.561
0.670963
0.318907
0.711715
0.662485
0.331649
0.715838
0.296844
0.72236
0.312117
0.703033
0.70917
0.306864
0.633897
0.711476
0.712546
0.596844
0.71332
0.543136
0.338275
0.435062
0.277696
0.288932
0.559578
0.509291
0.70975
0.71208
0.304859
0.367622
0.716118
0.710971
0.716969
0.7122
0.290881
0.703752
0.711802
0.288685
0.26679
0.712888
0.719327
0.724734
0.272288
0.548912
0.316496
0.714737
0.721512
0.557908
0.718206
0.298416
0.719835
0.713139
0.710929
0.712369
0.708092
0.373592
0.712012
0.300665
0.693436
0.711444
0.412538
0.701966
0.5539
0.711692
0.451066
0.403194
0.546946
0.653871
0.324614
0.334351
0.308847
0.296142
0.709604
0.708411
0.562528
0.32333
0.293361
0.708066
0.686459
0.272835
0.364498
0.420701
0.690767
0.70594
0.713834
0.707592
0.30184
0.325048
0.559776
0.277101
0.298564
0.307586
0.701936
0.315574
0.32696
0.583807
0.719536
0.715513
0.68038
0.704173
0.284162
0.295124
0.300377
0.541793
0.397891
0.277351
0.684189
0.705566
0.727916
0.710375
0.273409
0.312092
0.711026
0.309128
0.707147
0.710375
0.561359
0.285024
0.327616
0.725907
0.564078
0.625144
0.270453
0.723109
0.690398
0.581691
0.712361
0.712772
0.559692
0.711507
0.291602
0.70366
0.562943
0.673435
0.713978
0.559748
0.715774
0.559772
0.710884
0.336557
0.341045
0.312249
0.561333
0.523626
0.311539
0.71656
0.714129
0.27593
0.661402
0.317787
0.669731
0.527678
0.290025
0.711131
0.710807
0.302475
0.499879
0.561263
0.299856
0.715711
0.281702
0.264545
0.633614
0.597609
0.445648
0.710778
0.312364
0.711599
0.334238
0.273584
0.702607
0.298807
0.616108
0.287863
0.663215
0.600374
0.56017
0.715661
0.257492
0.34002
0.694096
0.487549
0.717184
0.472316
0.608855
0.700079
0.710908
0.498898
0.585889
0.711697
0.711256
0.707358
0.319748
0.332027
0.493773
0.710219
0.710929
0.374384
0.708021
0.627555
0.430893
0.285684
0.668721
0.690483
0.559803
0.560393
0.709708
0.704441
0.639286
0.694482
0.282826
0.659332
0.41865
0.712116
0.719435
0.304523
0.715662
0.712509
0.353821
0.27272
0.285241
0.559751
0.297695
0.630818
0.713324
0.659497
0.255746
0.723368
0.285452
0.550432
0.58767
0.559127
0.682193
0.579548
0.613925
0.700718
0.546638
0.720928
0.310935
0.704228
0.706438
0.468753
0.559916
0.710913
0.298036
0.245484
0.301164
0.712244
0.334145
0.56077
0.296359
0.713945
0.266381
0.427109
0.27821
0.711558
0.711825
0.595902
0.248272
0.617164
0.65761
0.299674
0.56944
0.711582
0.276395
0.59003
0.564407
0.711217
0.707935
0.301578
0.518541
0.715761
0.716669
0.692491
0.329392
0.397271
0.723355
0.560388
0.561358
0.560188
0.590615
0.718908
0.585792
0.711764
0.328963
0.289151
0.560062
0.712341
0.619435
0.281572
0.704125
0.605632
0.63276
0.327815
0.370435
0.712279
0.7124
0.534839
0.392725
0.713291
0.559951
0.298569
0.600301
0.707175
0.301765
0.276154
0.271533
0.708679
0.352606
0.311898
0.714755
0.477508
0.711193
0.665502
0.296651
0.286286
0.711975
0.35159
0.325842
0.564343
0.270251
0.355593
0.594347
0.716054
0.718926
0.294048
0.322193
0.306991
0.717887
0.268791
0.718887
0.30389
0.717621
0.714677
0.719802
0.718471
0.718057
0.721397
0.705781
0.712388
0.718018
0.265459
0.29842
0.712831
0.65925
0.449388
0.715163
0.547467
0.615808
0.675021
0.315079
0.708719
0.711418
0.721283
0.315702
0.719591
0.315731
0.718639
0.436866
0.706515
0.700858
0.293205
0.717271
0.30197
0.456376
0.70846
0.309383
0.687794
0.559717
0.715396
0.29303
0.705423
0.297422
0.28362
0.290865
0.314132
0.682893
0.282734
0.674803
0.565264
0.394545
0.296496
0.42931
0.546061
0.644866
0.699093
0.311549
0.283632
0.305575
0.278421
0.23703
0.648303
0.712414
0.310898
0.575068
0.714076
0.273123
0.711208
0.684717
0.565886
0.313502
0.561054
0.712307
0.712057
0.712392
0.289887
0.718702
0.711921
0.719684
0.667302
0.699822
0.3198
0.292643
0.718812
0.488086
0.330555
0.701768
0.292096
0.528456
0.652124
0.724961
0.722376
0.280663
0.716137
0.394752
0.316878
0.697393
0.712801
0.712056
0.711758
0.681275
0.284371
0.712019
0.274293
0.447516
0.712034
0.561297
0.716318
0.314531
0.284527
0.711603
0.311879
0.713242
0.641756
0.397989
0.341468
0.710175
0.287898
0.700597
0.713839
0.684464
0.288812
0.344212
0.478217
0.542981
0.638977
0.458001
0.700614
0.700873
0.71323
0.559355
0.717161
0.259793
0.34371
0.712213
0.69711
0.689026
0.40877
0.288368
0.705607
0.281492
0.705529
0.590795
0.316235
0.717507
0.290982
0.715637
0.312786
0.712182
0.277543
0.718373
0.693568
0.27582
0.71583
0.653659
0.278125
0.557479
0.715251
0.550811
0.277155
0.370193
0.45898
0.711362
0.706145
0.379484
0.545104
0.717304
0.698015
0.247346
0.641814
0.721012
0.389227
0.700516
0.703634
0.287675
0.71787
0.562976
0.312148
0.616155
0.28875
0.672346
0.30479
0.264963
0.710875
0.317716
0.307075
0.265002
0.706095
0.717236
0.411209
0.713973
0.365848
0.698868
0.299038
0.717693
0.378626
0.701232
0.718795
0.680003
0.556919
0.502941
0.694424
0.577012
0.310484
0.629125
0.680636
0.558179
0.71712
0.435997
0.427072
0.712087
0.294169
0.549332
0.319236
0.710242
0.264638
0.295759
0.710851
0.704953
0.290073
0.71182
0.704634
0.559368
0.712231
0.560249
0.292569
0.711247
0.294691
0.298605
0.715674
0.708981
0.713572
0.717398
0.27709
0.31032
0.305821
0.713647
0.569724
0.367644
0.716157
0.281775
0.303095
0.32637
0.713622
0.378447
0.711775
0.71783
0.625412
0.71177
0.718414
0.593264
0.68142
0.383462
0.276551
0.290759
0.560252
0.560323
0.281789
0.649262
0.708282
0.679966
0.301495
0.454434
0.701793
0.290642
0.697887
0.673044
0.297329
0.66283
0.711211
0.31423
0.719007
0.319283
0.709288
0.710724
0.718802
0.273841
0.409212
0.686858
0.300421
0.379477
0.710729
0.316162
0.681243
0.706999
0.714394
0.704309
0.326647
0.560514
0.696683
0.716499
0.334992
0.712263
0.33578
0.277986
0.724952
0.706038
0.568611
0.233877
0.701927
0.623825
0.561325
0.282681
0.285933
0.325741
0.711285
0.301116
0.287907
0.331597
0.672066
0.310761
0.305614
0.387475
0.718861
0.302801
0.555925
0.630789
0.711828
0.295906
0.717913
0.660956
0.585036
0.373401
0.664835
0.308038
0.295437
0.705035
0.289743
0.653516
0.716197
0.560269
0.302223
0.32289
0.32462
0.515223
0.559657
0.242633
0.721595
0.705955
0.706696
0.301243
0.273483
0.322075
0.7121
0.308634
0.559544
0.579742
0.666296
0.722926
0.289982
0.657894
0.275867
0.676097
0.644506
0.710889
0.656783
0.560794
0.668382
0.690371
0.712297
0.290884
0.40552
0.290593
0.705532
0.535478
0.560641
0.301316
0.37889
0.711722
0.718349
0.5618
0.290412
0.712146
0.513037
0.519428
0.706029
0.303437
0.291197
0.293754
0.706097
0.573047
0.664349
0.711047
0.328276
0.715458
0.65929
0.571342
0.558384
0.715187
0.711348
0.697878
0.709736
0.711949
0.301991
0.712564
0.711819
0.701405
0.713088
0.706237
0.640847
0.297033
0.272205
0.678574
0.328263
0.356985
0.712557
0.319434
0.625099
0.707364
0.711627
0.7208
0.301095
0.712556
0.291381
0.2829
0.698827
0.719192
0.70936
0.299189
0.712051
0.711364
0.687851
0.704767
0.342438
0.701889
0.711512
0.708577
0.422667
0.709865
0.302612
0.711384
0.312994
0.2985
0.602537
0.414209
0.711128
0.71121
0.706371
0.334287
0.70125
0.417474
0.305639
0.71345
0.43004
0.324353
0.708072
0.275179
0.457882
0.678081
0.706708
0.728639
0.43278
0.562838
0.666388
0.699327
0.641487
0.712104
0.489557
0.714212
0.709315
0.658448
0.272762
0.295449
0.409618
0.711913
0.298563
0.669956
0.712021
0.614261
0.699361
0.584096
0.689134
0.696232
0.313918
0.711615
0.716741
0.568544
0.718178
0.71174
0.715522
0.679569
0.302375
0.336761
0.72047
0.541628
0.592725
0.710758
0.718514
0.714546
0.710765
0.710861
0.635726
0.701682
0.710725
0.286017
0.278172
0.270032
0.31803
0.561093
0.43642
0.582784
0.717787
0.700566
0.300203
0.72053
0.711809
0.298966
0.358227
0.561177
0.711721
0.304198
0.271862
0.270423
0.55942
0.715207
0.433285
0.263403
0.295504
0.266728
0.370818
0.331448
0.715239
0.71873
0.714243
0.291375
0.713034
0.634065
0.584399
0.346932
0.28892
0.713072
0.559591
0.321334
0.700745
0.312239
0.710451
0.302092
0.712126
0.288605
0.727641
0.712105
0.295689
0.521978
0.318693
0.711316
0.275253
0.639373
0.289229
0.504376
0.310641
0.634833
0.300326
0.5609
0.554832
0.583799
0.717569
0.350345
0.718546
0.667932
0.712087
0.630476
0.699529
0.289514
0.453004
0.283167
0.710853
0.292224
0.712468
0.512133
0.70825
0.711311
0.520893
0.71217
0.310051
0.281706
0.293152
0.49687
0.606652
0.71843
0.300133
0.323794
0.701635
0.341253
0.285591
0.631968
0.359537
0.324481
0.271289
0.71363
0.651404
0.64265
0.295231
0.716328
0.706456
0.274696
0.29983
0.713846
0.702878
0.672745
0.463458
0.361372
0.334378
0.314901
0.71571
0.683183
0.538439
0.695265
0.254948
0.582184
0.290997
0.560317
0.712599
0.291539
0.299042
0.683592
0.626855
0.712466
0.712023
0.711568
0.712286
0.711964
0.317272
0.348258
0.295493
0.288259
0.602747
0.561541
0.653397
0.290058
0.304318
0.470334
0.275856
0.715444
0.70463
0.309707
0.327201
0.707008
0.300361
0.666718
0.711796
0.719096
0.699249
0.608143
0.320852
0.287416
0.703679
0.292647
0.444682
0.40744
0.660304
0.709139
0.254136
0.298
0.560683
0.298834
0.705893
0.710761
0.307537
0.355285
0.24522
0.708693
0.287056
0.559771
0.71263
0.619976
0.2731
0.484283
0.71236
0.723441
0.294059
0.722597
0.676793
0.278503
0.714207
0.713666
0.31157
0.323646
0.7249
0.298208
0.287556
0.720248
0.318777
0.718808
0.688472
0.710828
0.673711
0.712318
0.706721
0.684876
0.303687
0.365896
0.688866
0.719694
0.40662
0.71124
0.341049
0.710585
0.728017
0.566012
0.659914
0.452485
0.421426
0.720121
0.712084
0.709451
0.711955
0.705237
0.561234
0.71264
0.560023
0.715954
0.713426
0.715203
0.559631
0.692919
0.278041
0.714386
0.309689
0.709716
0.711909
0.710938
0.719793
0.702241
0.352199
0.322551
0.309245
0.296123
0.716598
0.287503
0.315951
0.704592
0.272405
0.709337
0.315168
0.721387
0.71865
0.317105
0.342322
0.318993
0.71134
0.298999
0.718536
0.717492
0.32603
0.713207
0.523994
0.331981
0.308214
0.27477
0.697494
0.325648
0.711699
0.581187
0.327722
0.707172
0.709863
0.711476
0.312766
0.587876
0.28528
0.713595
0.680777
0.707448
0.331847
0.71996
0.710793
0.719085
0.390367
0.711461
0.320539
0.296462
0.713488
0.430617
0.711291
0.445562
0.329456
0.39283
0.725332
0.306067
0.278995
0.31458
0.528927
0.563401
0.717812
0.277262
0.628188
0.707246
0.513111
0.470347
0.324169
0.526417
0.330745
0.291801
0.719728
0.298154
0.313404
0.712125
0.711923
0.304835
0.707622
0.32081
0.561604
0.311084
0.71373
0.559566
0.703907
0.63621
0.342143
0.291558
0.288847
0.69611
0.719014
0.559565
0.524304
0.336743
0.3042
0.70472
0.303801
0.71884
0.345235
0.560241
0.686011
0.286651
0.307728
0.297659
0.297491
0.308503
0.685932
0.715665
0.288999
0.71659
0.653213
0.335673
0.286214
0.71167
0.321618
0.718773
0.37743
0.70507
0.66466
0.717772
0.561973
0.325512
0.710965
0.710325
0.713575
0.319963
0.701704
0.572046
0.352951
0.711568
0.68086
0.714465
0.718373
0.711891
0.713986
0.7126
0.701187
0.715148
0.310387
0.711235
0.297757
0.480602
0.710669
0.288707
0.725945
0.71434
0.317345
0.722223
0.320761
0.279429
0.715483
0.7114
0.71194
0.296828
0.719086
0.613731
0.311413
0.290484
0.715919
0.706047
0.355844
0.332228
0.712706
0.711732
0.329816
0.657186
0.712231
0.65329
0.285031
0.318472
0.280739
0.664873
0.280358
0.722195
0.704795
0.705456
0.639005
0.71864
0.297244
0.719046
0.597561
0.712214
0.655835
0.295728
0.301045
0.253674
0.710755
0.716558
0.374731
0.662693
0.323623
0.682515
0.709482
0.243255
0.674545
0.721986
0.639171
0.290679
0.285205
0.318626
0.71451
0.711394
0.61091
0.463487
0.718584
0.318846
0.643405
0.559903
0.719887
0.292237
0.610071
0.319363
0.716855
0.265107
0.71924
0.715635
0.293792
0.714123
0.483238
0.559659
0.664265
0.559494
0.712307
0.425135
0.704217
0.710911
0.708089
0.718805
0.421477
0.560236
0.257299
0.712357
0.249805
0.296075
0.261284
0.30779
0.32839
0.289668
0.711997
0.337549
0.296456
0.677728
0.713456
0.716728
0.429706
0.700495
0.69408
0.695046
0.26756
0.656244
0.706498
0.371673
0.32513
0.291724
0.642221
0.453474
0.306331
0.646902
0.273943
0.560373
0.447531
0.283514
0.422127
0.65947
0.321192
0.705955
0.257032
0.549271
0.353474
0.715453
0.367314
0.678922
0.560796
0.715954
0.468429
0.295354
0.715817
0.711537
0.332398
0.283534
0.699733
0.295626
0.709309
0.292285
0.523165
0.258299
0.70657
0.353987
0.711876
0.294357
0.709845
0.718169
0.712197
0.560087
0.256703
0.295238
0.429467
0.71542
0.703392
0.724633
0.611332
0.325963
0.712707
0.321022
0.721747
0.704463
0.433211
0.33721
0.711697
0.719447
0.286184
0.561254
0.715646
0.711949
0.710834
0.258426
0.645384
0.304637
0.712039
0.274941
0.584575
0.714721
0.715946
0.712016
0.331864
0.712464
0.31573
0.317751
0.705601
0.560349
0.547802
0.720104
0.561137
0.319011
0.710086
0.715335
0.712953
0.28459
0.403777
0.694692
0.287337
0.711212
0.712203
0.724976
0.715076
0.283195
0.459852
0.655751
0.293964
0.725242
0.711173
0.479685
0.715546
0.253826
0.701623
0.710422
0.683496
0.715694
0.28448
0.29698
0.718373
0.723018
0.318585
0.354505
0.353575
0.297896
0.291272
0.276306
0.313825
0.329346
0.718495
0.245431
0.2866
0.71325
0.550978
0.561038
0.374084
0.29998
0.707696
0.461161
0.54062
0.711796
0.361736
0.662697
0.552406
0.590731
0.717153
0.300036
0.717605
0.596843
0.326932
0.295151
0.432703
0.715422
0.593045
0.711793
0.700645
0.719654
0.717678
0.42675
0.716857
0.634705
0.715783
0.299144
0.707031
0.681925
0.407363
0.400394
0.238631
0.279122
0.28175
0.596386
0.679574
0.713292
0.292854
0.346455
0.71211
0.275614
0.717172
0.711813
0.724268
0.683463
0.718633
0.370946
0.281728
0.272743
0.595406
0.274619
0.717741
0.27143
0.705274
0.700531
0.713426
0.318055
0.450135
0.415759
0.718441
0.331992
0.291657
0.712825
0.717943
0.662442
0.699941
0.715726
0.709083
0.329499
0.610009
0.712217
0.481632
0.718722
0.714678
0.710942
0.394099
0.375084
0.713074
0.444228
0.64506
0.306429
0.705607
0.725078
0.426572
0.282796
0.7107
0.485239
0.712042
0.71693
0.327173
0.289693
0.562641
0.46082
0.433021
0.718224
0.715833
0.317376
0.723036
0.560854
0.718212
0.331314
0.594761
0.324685
0.71205
0.712595
0.709506
0.710136
0.560378
0.316181
0.36513
0.71751
0.30536
0.585448
0.321339
0.71747
0.278617
0.665436
0.71217
0.560292
0.332091
0.559728
0.563135
0.29103
0.704037
0.274349
0.713622
0.327408
0.287677
0.270165
0.709522
0.716566
0.302205
0.308599
0.713903
0.712024