# vtk DataFile Version 1.0
unstructured grid
ascii
DATASET UNSTRUCTURED_GRID
points 13672 float
0.0796578 -0.059106 0
0.00128732 0.00159165 0
0.00227961 -0.00102548 0
0.0791586 -0.0598787 0
-0.0546216 0.01 0
0.000495206 0.025 0
0.0800549 -0.035 0
0.135172 -0.08 0
-0.0546216 -0.0451168 0
0.000495206 -0.0301168 0
0.0800549 -0.0901168 0
0.135172 -0.135117 0
-0.0546216 -0.0451168 -0.00551168
0.000495206 -0.0301168 -0.00551168
0.0800549 -0.0901168 -0.00551168
0.135172 -0.135117 -0.00551168
0.135172 -0.08 -0.00551168
0.0800549 -0.035 -0.00551168
0.000495206 0.025 -0.00551168
-0.0546216 0.01 -0.00551168
0.00128732 0.00159165 -0.00551168
0.00227961 -0.00102548 -0.00551168
0.0791586 -0.0598787 -0.00551168
0.0796578 -0.059106 -0.00551168
0.00165953 -0.000990923 0
0.00119576 -0.000874076 0
0.000866021 -0.000641801 0
0.000645147 -0.000349912 0
0.00052235 -1.7281e-05 0
0.00049972 0.000348016 0
0.000601632 0.000737716 0
0.000861774 0.0011403 0
0.00157235 0.00183217 0
0.00188647 0.00206725 0
0.00222612 0.00230203 0
0.00258713 0.00254351 0
0.00296826 0.00279524 0
0.00337118 0.00305664 0
0.00379785 0.00332658 0
0.00425045 0.00360349 0
0.00473139 0.00388521 0
0.0052432 0.00416895 0
0.0057881 0.00445204 0
0.00636753 0.00473281 0
0.00698281 0.00500961 0
0.00763526 0.00528058 0
0.00832616 0.00554366 0
0.00905691 0.00579603 0
0.00982918 0.00603333 0
0.0106445 0.00625033 0
0.0115038 0.00644128 0
0.0124073 0.00660297 0
0.0133543 0.00673414 0
0.0143444 0.00683382 0
0.0153769 0.00690031 0
0.0164512 0.00693173 0
0.0175666 0.00692547 0
0.0187219 0.00687822 0
0.0199156 0.00678477 0
0.0211454 0.00663864 0
0.0224084 0.00643275 0
0.0237018 0.00616676 0
0.0250249 0.00584739 0
0.026375 0.00547298 0
0.0277479 0.00503752 0
0.0291386 0.00453545 0
0.0305433 0.0039653 0
0.0319572 0.0033256 0
0.0333681 0.00260019 0
0.034775 0.00179799 0
0.0361793 0.000930615 0
0.0375798 3.12222e-06 0
0.0389689 -0.000988429 0
0.0403357 -0.00205109 0
0.041675 -0.00318283 0
0.0429849 -0.00437751 0
0.0442643 -0.00562904 0
0.0455126 -0.00693089 0
0.0467314 -0.00827518 0
0.0479204 -0.00965638 0
0.0490661 -0.0110799 0
0.0501515 -0.0125519 0
0.0511696 -0.0140695 0
0.0521492 -0.0156071 0
0.0531202 -0.0171411 0
0.0540851 -0.0186663 0
0.0550431 -0.0201798 0
0.0559923 -0.0216793 0
0.0569311 -0.0231626 0
0.0578582 -0.0246273 0
0.0587723 -0.0260715 0
0.0596721 -0.027493 0
0.0605563 -0.02889 0
0.0614241 -0.0302609 0
0.0622742 -0.0316042 0
0.063106 -0.0329183 0
0.0639186 -0.034202 0
0.0647113 -0.0354543 0
0.0654835 -0.0366743 0
0.0662345 -0.0378613 0
0.0669642 -0.0390145 0
0.0676726 -0.0401333 0
0.0683597 -0.0412172 0
0.0690246 -0.0422665 0
0.0696662 -0.0432819 0
0.0702841 -0.0442636 0
0.0708793 -0.0452111 0
0.0714538 -0.0461237 0
0.072009 -0.047001 0
0.0725452 -0.0478434 0
0.0730611 -0.0486524 0
0.073556 -0.0494294 0
0.0740291 -0.0501756 0
0.0744812 -0.0508916 0
0.0749138 -0.0515773 0
0.0753285 -0.0522331 0
0.0757266 -0.0528592 0
0.076109 -0.0534564 0
0.0764753 -0.0540264 0
0.0768243 -0.054571 0
0.0771553 -0.0550919 0
0.0774679 -0.0555901 0
0.0777617 -0.0560669 0
0.0780369 -0.056523 0
0.0782958 -0.0569578 0
0.0785421 -0.0573703 0
0.0787786 -0.0577603 0
0.0790073 -0.0581279 0
0.0792295 -0.058474 0
0.0794462 -0.0587995 0
0.0798803 -0.0594162 0
0.0800272 -0.0596588 0
0.0800357 -0.0598891 0
0.0799275 -0.0600784 0
0.0797205 -0.0601773 0
0.0794593 -0.0601051 0
0.0789155 -0.0596491 0
0.0786707 -0.0593963 0
0.0784111 -0.0591319 0
0.0781372 -0.0588542 0
0.0778566 -0.0585548 0
0.0775715 -0.0582308 0
0.0772803 -0.0578828 0
0.0769832 -0.0575099 0
0.0766822 -0.0571097 0
0.0763801 -0.0566796 0
0.0760759 -0.0562196 0
0.0757623 -0.0557337 0
0.0754359 -0.0552232 0
0.0750951 -0.0546879 0
0.0747379 -0.054128 0
0.0743626 -0.0535435 0
0.0739688 -0.0529338 0
0.0735559 -0.0522981 0
0.0731238 -0.0516357 0
0.0726718 -0.050946 0
0.0721991 -0.0502288 0
0.0717046 -0.049484 0
0.0711872 -0.0487117 0
0.0706461 -0.047912 0
0.0700804 -0.0470849 0
0.0694892 -0.0462308 0
0.0688718 -0.0453499 0
0.0682271 -0.0444431 0
0.0675544 -0.043511 0
0.0668527 -0.0425546 0
0.0661215 -0.0415748 0
0.06536 -0.040573 0
0.0645676 -0.0395504 0
0.0637439 -0.0385087 0
0.0628887 -0.0374493 0
0.062002 -0.0363741 0
0.0610838 -0.0352847 0
0.0601345 -0.0341831 0
0.0591547 -0.033071 0
0.0581456 -0.0319502 0
0.0571083 -0.0308224 0
0.0560444 -0.0296893 0
0.0549562 -0.028552 0
0.053845 -0.0274126 0
0.0527113 -0.0262746 0
0.051554 -0.0251427 0
0.0503724 -0.0240222 0
0.0491675 -0.0229164 0
0.047941 -0.0218282 0
0.0466955 -0.0207597 0
0.0454337 -0.0197126 0
0.0441592 -0.0186878 0
0.0428751 -0.0176863 0
0.0415841 -0.0167097 0
0.0402878 -0.0157609 0
0.0389879 -0.0148428 0
0.0376864 -0.0139575 0
0.0363853 -0.013107 0
0.0350871 -0.0122931 0
0.0337942 -0.0115164 0
0.0325095 -0.0107772 0
0.0312357 -0.0100756 0
0.0299758 -0.00941024 0
0.0287337 -0.00877784 0
0.0275126 -0.00817571 0
0.0263139 -0.00760375 0
0.0251376 -0.00706528 0
0.0239829 -0.0065649 0
0.0228537 -0.00609619 0
0.0217522 -0.00565563 0
0.0206795 -0.00524226 0
0.0196364 -0.00485507 0
0.0186233 -0.00449318 0
0.0176408 -0.00415577 0
0.016689 -0.00384204 0
0.0157682 -0.00355115 0
0.0148783 -0.00328218 0
0.0140192 -0.00303468 0
0.0131906 -0.00280795 0
0.0123925 -0.00260016 0
0.0116246 -0.00241012 0
0.0108864 -0.00223769 0
0.0101774 -0.00208212 0
0.00949701 -0.00194206 0
0.00884483 -0.0018163 0
0.0082202 -0.0017039 0
0.00762247 -0.00160391 0
0.00705097 -0.00151528 0
0.006505 -0.00143697 0
0.0059838 -0.00136806 0
0.00548662 -0.00130772 0
0.00501265 -0.00125519 0
0.00456114 -0.00120954 0
0.00413136 -0.00116914 0
0.00372257 -0.00113251 0
0.00333398 -0.00109853 0
0.00296466 -0.00106798 0
0.00261363 -0.0010431 0
-0.052721 -0.0445996 0
-0.0508204 -0.0440823 0
-0.0489199 -0.0435651 0
-0.0470193 -0.0430478 0
-0.0451187 -0.0425306 0
-0.0432181 -0.0420134 0
-0.0413175 -0.0414961 0
-0.039417 -0.0409789 0
-0.0375164 -0.0404616 0
-0.0356158 -0.0399444 0
-0.0337152 -0.0394271 0
-0.0318146 -0.0389099 0
-0.0299141 -0.0383927 0
-0.0280135 -0.0378754 0
-0.0261129 -0.0373582 0
-0.0242123 -0.0368409 0
-0.0223117 -0.0363237 0
-0.0204112 -0.0358065 0
-0.0185106 -0.0352892 0
-0.01661 -0.034772 0
-0.0147094 -0.0342547 0
-0.0128088 -0.0337375 0
-0.0109083 -0.0332202 0
-0.00900769 -0.032703 0
-0.00710711 -0.0321858 0
-0.00520653 -0.0316685 0
-0.00330595 -0.0311513 0
-0.00140537 -0.030634 0
0.00190689 -0.0299614 0
0.00332271 -0.0298498 0
0.00474133 -0.0297825 0
0.00616136 -0.0297597 0
0.0075814 -0.0297814 0
0.00900007 -0.0298477 0
0.010416 -0.0299583 0
0.0118278 -0.0301127 0
0.0132342 -0.0303103 0
0.0146339 -0.0305504 0
0.0160259 -0.0308322 0
0.0174091 -0.0311546 0
0.0187824 -0.0315166 0
0.020145 -0.031917 0
0.0214961 -0.0323546 0
0.0228351 -0.032828 0
0.0241613 -0.0333361 0
0.0254744 -0.0338774 0
0.0267738 -0.0344507 0
0.0280592 -0.0350545 0
0.0293306 -0.0356877 0
0.0305875 -0.0363488 0
0.0318301 -0.0370367 0
0.0330581 -0.0377501 0
0.0342717 -0.0384879 0
0.0354708 -0.0392489 0
0.0366556 -0.0400321 0
0.0378262 -0.0408363 0
0.0389828 -0.0416607 0
0.0401254 -0.0425042 0
0.0412543 -0.0433659 0
0.0423698 -0.0442451 0
0.043472 -0.0451408 0
0.0445612 -0.0460523 0
0.0456375 -0.0469789 0
0.0467013 -0.0479199 0
0.0477529 -0.0488746 0
0.0487923 -0.0498424 0
0.04982 -0.0508227 0
0.0508362 -0.051815 0
0.051841 -0.0528187 0
0.0528348 -0.0538333 0
0.0538178 -0.0548584 0
0.0547903 -0.0558935 0
0.0557524 -0.0569382 0
0.0567045 -0.0579922 0
0.0576467 -0.0590549 0
0.0585792 -0.0601261 0
0.0595024 -0.0612055 0
0.0604163 -0.0622926 0
0.0613212 -0.0633873 0
0.0622174 -0.0644891 0
0.0631049 -0.0655979 0
0.0639841 -0.0667134 0
0.064855 -0.0678353 0
0.0657179 -0.0689633 0
0.0665729 -0.0700974 0
0.0674202 -0.0712372 0
0.06826 -0.0723826 0
0.0690925 -0.0735333 0
0.0699178 -0.0746892 0
0.070736 -0.0758501 0
0.0715473 -0.0770159 0
0.0723518 -0.0781863 0
0.0731498 -0.0793612 0
0.0739412 -0.0805405 0
0.0747264 -0.081724 0
0.0755053 -0.0829116 0
0.0762781 -0.0841033 0
0.0770449 -0.0852987 0
0.0778059 -0.0864979 0
0.0785611 -0.0877007 0
0.0793108 -0.088907 0
0.0814681 -0.0912706 0
0.0828814 -0.0924245 0
0.0842946 -0.0935783 0
0.0857079 -0.0947322 0
0.0871211 -0.095886 0
0.0885344 -0.0970399 0
0.0899476 -0.0981937 0
0.0913609 -0.0993476 0
0.0927741 -0.100501 0
0.0941874 -0.101655 0
0.0956006 -0.102809 0
0.0970139 -0.103963 0
0.0984272 -0.105117 0
0.0998404 -0.106271 0
0.101254 -0.107424 0
0.102667 -0.108578 0
0.10408 -0.109732 0
0.105493 -0.110886 0
0.106907 -0.11204 0
0.10832 -0.113194 0
0.109733 -0.114348 0
0.111146 -0.115501 0
0.11256 -0.116655 0
0.113973 -0.117809 0
0.115386 -0.118963 0
0.116799 -0.120117 0
0.118213 -0.121271 0
0.119626 -0.122424 0
0.121039 -0.123578 0
0.122452 -0.124732 0
0.123866 -0.125886 0
0.125279 -0.12704 0
0.126692 -0.128194 0
0.128105 -0.129348 0
0.129519 -0.130501 0
0.130932 -0.131655 0
0.132345 -0.132809 0
0.133758 -0.133963 0
0.135172 -0.133216 0
0.135172 -0.131316 0
0.135172 -0.129415 0
0.135172 -0.127514 0
0.135172 -0.125614 0
0.135172 -0.123713 0
0.135172 -0.121813 0
0.135172 -0.119912 0
0.135172 -0.118012 0
0.135172 -0.116111 0
0.135172 -0.11421 0
0.135172 -0.11231 0
0.135172 -0.110409 0
0.135172 -0.108509 0
0.135172 -0.106608 0
0.135172 -0.104708 0
0.135172 -0.102807 0
0.135172 -0.100906 0
0.135172 -0.0990058 0
0.135172 -0.0971052 0
0.135172 -0.0952046 0
0.135172 -0.0933041 0
0.135172 -0.0914035 0
0.135172 -0.0895029 0
0.135172 -0.0876023 0
0.135172 -0.0857017 0
0.135172 -0.0838012 0
0.135172 -0.0819006 0
0.133758 -0.0788462 0
0.132345 -0.0776923 0
0.130932 -0.0765385 0
0.129519 -0.0753846 0
0.128105 -0.0742308 0
0.126692 -0.0730769 0
0.125279 -0.0719231 0
0.123866 -0.0707692 0
0.122452 -0.0696154 0
0.121039 -0.0684615 0
0.119626 -0.0673077 0
0.118213 -0.0661538 0
0.116799 -0.065 0
0.115386 -0.0638462 0
0.113973 -0.0626923 0
0.11256 -0.0615385 0
0.111146 -0.0603846 0
0.109733 -0.0592308 0
0.10832 -0.0580769 0
0.106907 -0.0569231 0
0.105493 -0.0557692 0
0.10408 -0.0546154 0
0.102667 -0.0534615 0
0.101254 -0.0523077 0
0.0998404 -0.0511538 0
0.0984272 -0.05 0
0.0970139 -0.0488462 0
0.0956006 -0.0476923 0
[...]
CELL_DATA 13116
SCALARS rho float
LOOKUP_TABLE default
0.5977
0.698313
0.413017
0.698321
0.701669
0.689423
0.339564
0.701752
0.597706
0.703385
0.335573
0.420382
0.701502
0.379618
0.401996
0.689199
0.5977
0.713184
0.696099
0.336282
0.5977
0.438003
0.398815
0.710106
0.5977
0.698945
0.703335
0.420326
0.5977
0.59695
0.66052
0.415172
0.597705
0.573658
0.343146
0.5977
0.689073
0.700634
0.689274
0.699311
0.68948
0.701656
0.597721
0.396188
0.701577
0.699386
0.693994
0.69505
0.427994
0.593624
0.700571
0.595994
0.355583
0.597701
0.597704
0.5977
0.393749
0.709366
0.594747
0.414076
0.381306
0.701076
0.696401
0.689282
0.679638
0.36581
0.697032
0.691234
0.697143
0.687982
0.401761
0.597703
0.441828
0.381461
0.551617
0.378686
0.701291
0.700214
0.33526
0.717099
0.703705
0.697174
0.708365
0.694187
0.6991
0.523813
0.345123
0.661325
0.698894
0.336416
0.413739
0.698496
0.707739
0.699813
0.646689
0.5977
0.5977
0.606492
0.58409
0.5977
0.615096
0.687578
0.688978
0.563423
0.693942
0.416744
0.494671
0.597709
0.409868
0.5977
0.597702
0.69683
0.5977
0.709415
0.715969
0.697587
0.358052
0.513161
0.698583
0.698038
0.689443
0.452485
0.697309
0.412434
0.700445
0.548226
0.348671
0.581363
0.403059
0.592153
0.698895
0.696662
0.559334
0.431946
0.548523
0.593008
0.557872
0.698494
0.593935
0.698269
0.697185
0.694287
0.583369
0.696583
0.696805
0.391281
0.34202
0.696949
0.702992
0.700687
0.586978
0.694059
0.695144
0.351733
0.704465
0.699254
0.404886
0.760129
0.616764
0.627657
0.710205
0.335403
0.70726
0.404247
0.455384
0.701748
0.699769
0.713344
0.34174
0.536681
0.520202
0.557869
0.398814
0.579679
0.697449
0.399468
0.414836
0.440867
0.696337
0.689449
0.336122
0.535043
0.597699
0.688352
0.689454
0.595938
0.351318
0.698958
0.693027
0.564176
0.703086
0.696657
0.6891
0.413731
0.695818
0.689446
0.705223
0.699681
0.698735
0.54278
0.568257
0.5977
0.578936
0.385093
0.700687
0.708076
0.596952
0.5977
0.404624
0.336258
0.37636
0.696482
0.408537
0.336143
0.336502
0.355097
0.505975
0.689287
0.700466
0.51844
0.390105
0.696838
0.597704
0.336116
0.585992
0.702883
0.696285
0.421491
0.697182
0.505541
0.700957
0.414758
0.689449
0.597702
0.555243
0.699595
0.689526
0.432731
0.5464
0.59065
0.551383
0.68946
0.557945
0.689361
0.701815
0.418944
0.699588
0.703902
0.581984
0.337147
0.431371
0.704739
0.698367
0.688311
0.696714
0.5977
0.716943
0.335686
0.445073
0.529695
0.402613
0.691146
0.705399
0.699779
0.337419
0.700185
0.35679
0.520371
0.694106
0.337474
0.698047
0.700989
0.554838
0.708807
0.430789
0.557123
0.707461
0.599199
0.698397
0.335591
0.341227
0.412831
0.594166
0.449051
0.444934
0.484592
0.471899
0.699219
0.361875
0.699644
0.701433
0.343943
0.336333
0.353677
0.545092
0.425146
0.665855
0.685539
0.694132
0.336717
0.693537
0.597589
0.446375
0.413547
0.689634
0.698206
0.698597
0.354669
0.689468
0.56129
0.697019
0.70153
0.699742
0.701653
0.414064
0.696943
0.38364
0.694274
0.703209
0.597704
0.336248
0.48266
0.703522
0.352999
0.696055
0.701143
0.509984
0.725179
0.7088
0.347053
0.700331
0.707724
0.38036
0.699541
0.521857
0.594145
0.703115
0.524569
0.75756
0.33739
0.711574
0.486743
0.68942
0.687568
0.705677
0.419455
0.496687
0.699254
0.349409
0.699973
0.69329
0.531883
0.5578
0.349476
0.425772
0.698642
0.589024
0.691507
0.344054
0.405451
0.699698
0.701578
0.339451
0.700379
0.366669
0.421103
0.698528
0.702688
0.597698
0.336248
0.698254
0.67055
0.688952
0.699602
0.705591
0.588868
0.471143
0.395985
0.336185
0.689037
0.33613
0.597699
0.511476
0.413939
0.493183
0.597698
0.333433
0.346259
0.699395
0.409534
0.707145
0.5977
0.688258
0.590305
0.69948
0.428923
0.340454
0.5506
0.488085
0.699447
0.5977
0.688959
0.5977
0.697443
0.5977
0.696807
0.694001
0.597563
0.703661
0.718551
0.68967
0.533472
0.59162
0.5977
0.430666
0.68531
0.5977
0.35401
0.697191
0.552873
0.414902
0.336268
0.336237
0.345629
0.5977
0.371527
0.413411
0.696385
0.365857
0.597705
0.336159
0.689058
0.697436
0.43061
0.432146
0.698588
0.542231
0.336345
0.345204
0.336255
0.410488
0.34092
0.336263
0.450837
0.522956
0.336405
0.687088
0.459184
0.698854
0.515053
0.41157
0.552761
0.395099
0.336449
0.396369
0.699487
0.528957
0.5977
0.597701
0.362591
0.5977
0.699168
0.522124
0.726276
0.597704
0.597689
0.340781
0.574996
0.513997
0.706353
0.626957
0.413367
0.360919
0.692786
0.49119
0.52359
0.688595
0.493888
0.742575
0.697052
0.336317
0.411076
0.388565
0.578256
0.410239
0.370731
0.398732
0.381459
0.700949
0.700945
0.548425
0.5977
0.551273
0.695512
0.49733
0.36756
0.597707
0.413819
0.695422
0.462364
0.502627
0.556759
0.701532
0.699454
0.592386
0.508176
0.357444
0.590755
0.701626
0.689257
0.589379
0.693575
0.690795
0.336384
0.697344
0.597657
0.592288
0.480509
0.426812
0.708316
0.705643
0.594902
0.703251
0.697732
0.70017
0.710818
0.597654
0.688207
0.336192
0.701297
0.489924
0.410674
0.336021
0.699563
0.707125
0.477601
0.698748
0.5977
0.336304
0.689191
0.698027
0.703823
0.419532
0.363952
0.699623
0.336287
0.336154
0.404362
0.336362
0.707018
0.376036
0.698426
0.457043
0.699092
0.700462
0.696825
0.701716
0.336288
0.336299
0.704267
0.700651
0.705641
0.701287
0.704065
0.545545
0.344875
0.415
0.689237
0.597306
0.336311
0.541464
0.413646
0.701598
0.698843
0.479268
0.44227
0.698378
0.527279
0.699644
0.5977
0.400813
0.504716
0.707616
0.551699
0.405244
0.698917
0.699902
0.706489
0.368716
0.557842
0.388116
0.552975
0.593754
0.336232
0.503878
0.446243
0.560953
0.41045
0.336901
0.515971
0.689084
0.701015
0.336134
0.441522
0.336264
0.689703
0.445803
0.68944
0.389112
0.597702
0.703109
0.519811
0.40271
0.400109
0.546689
0.415404
0.699133
0.361533
0.37784
0.689289
0.374177
0.69577
0.695571
0.575941
0.33643
0.694632
0.707466
0.705463
0.689125
0.702842
0.69852
0.404625
0.688577
0.520196
0.709575
0.335574
0.701547
0.595371
0.345824
0.671039
0.7037
0.353103
0.658272
0.414088
0.398684
0.69657
0.699552
0.4125
0.3963
0.335474
0.405661
0.701969
0.710356
0.365282
0.33623
0.700094
0.698276
0.5977
0.707415
0.698535
0.335595
0.70547
0.523692
0.70041
0.519848
0.5977
0.543252
0.696649
0.693853
0.597654
0.49335
0.417185
0.699629
0.5977
0.5977
0.707503
0.397062
0.703901
0.704705
0.507974
0.593167
0.70677
0.506781
0.684555
0.591016
0.480772
0.699025
0.615247
0.428002
0.702241
0.412462
0.698269
0.392565
0.695192
0.695925
0.417986
0.689384
0.707323
0.699997
0.5977
0.700569
0.597678
0.468782
0.556504
0.392307
0.380315
0.557661
0.587747
0.69836
0.702734
0.336135
0.469335
0.697936
0.703031
0.698693
0.701231
0.336218
0.719082
0.703755
0.336322
0.403215
0.698672
0.704828
0.698298
0.411607
0.597696
0.431946
0.702363
0.69546
0.689237
0.702209
0.336247
0.711862
0.699317
0.707677
0.699639
0.689623
0.519533
0.704947
0.336261
0.693165
0.703714
0.536775
0.697847
0.689429
0.700285
0.576894
0.535574
0.5977
0.597704
0.336261
0.336295
0.338921
0.336406
0.700994
0.702873
0.689127
0.474749
0.336313
0.697049
0.742882
0.377692
0.471788
0.54164
0.69465
0.699565
0.699256
0.710006
0.336253
0.336255
0.557851
0.414335
0.336165
0.365288
0.68912
0.430303
0.33633
0.5977
0.709009
0.695762
0.689382
0.696368
0.359218
0.385318
0.337363
0.597699
0.529227
0.415063
0.689926
0.712086
0.697674
0.690969
0.413964
0.33637
0.703346
0.336241
0.689547
0.69548
0.636306
0.412385
0.336233
0.697334
0.668283
0.597681
0.377775
0.699412
0.6893
0.5977
0.700222
0.70126
0.557799
0.693203
0.336205
0.69514
0.6826
0.693499
0.702605
0.557747
0.697114
0.558694
0.698088
0.375939
0.396361
0.336272
0.669147
0.596829
0.336314
0.696952
0.700242
0.421396
0.667695
0.434392
0.700321
0.597701
0.431801
0.701927
0.712158
0.336317
0.582669
0.671655
0.393235
0.699888
0.371491
0.414798
0.5977
0.5977
0.552638
0.689933
0.341269
0.706876
0.408023
0.417431
0.694524
0.336277
0.5977
0.413875
0.686349
0.5977
0.557517
0.699415
0.395951
0.381507
0.690361
0.597716
0.698712
0.578653
0.5977
0.689233
0.707708
0.597712
0.5977
0.696062
0.705191
0.697463
0.489654
0.33623
0.58055
0.695958
0.705372
0.512392
0.689906
0.597701
0.547906
0.413246
0.5977
0.690566
0.558012
0.557648
0.688125
0.707267
0.689666
0.698111
0.413134
0.597698
0.540547
0.699559
0.704537
0.471593
0.704106
0.701423
0.403607
0.424435
0.352
0.557749
0.33545
0.5977
0.703433
0.597705
0.458571
0.699884
0.385193
0.597703
0.689427
0.688826
0.687591
0.689667
0.5977
0.702011
0.597707
0.709093
0.392565
0.689535
0.696582
0.597723
0.560099
0.703152
0.413566
0.397959
0.395128
0.699643
0.336281
0.557337
0.337444
0.701655
0.36317
0.543526
0.402682
0.706423
0.700634
0.5977
0.456688
0.5977
0.689398
0.336271
0.5977
0.700923
0.41621
0.5977
0.622754
0.703063
0.689761
0.414243
0.597709
0.699509
0.690662
0.69351
0.336276
0.531403
0.699595
0.557748
0.555779
0.557806
0.5977
0.697356
0.5977
0.699113
0.33629
0.386573
0.557719
0.701701
0.689163
0.369585
0.68961
0.5977
0.597703
0.395299
0.514452
0.70061
0.697379
0.59718
0.482419
0.689171
0.557034
0.338677
0.5977
0.709658
0.339241
0.411642
0.385867
0.692883
0.448538
0.33614
0.699894
0.581084
0.705335
0.6819
0.342857
0.342974
0.701075
0.398301
0.372157
0.663618
0.42824
0.500558
0.5977
0.703094
0.694916
0.336335
0.444121
0.335655
0.696032
0.418828
0.695333
0.373142
0.697068
0.701815
0.701241
0.693898
0.712003
0.695069
0.699348
0.701676
0.697602
0.372915
0.336109
0.706184
0.689618
0.553906
0.693655
0.597706
0.689645
0.691604
0.428408
0.697883
0.700999
0.706628
0.338731
0.711909
0.436491
0.694325
0.546461
0.71401
0.689869
0.433335
0.700223
0.336218
0.571423
0.696982
0.369158
0.749088
0.557653
0.702305
0.348248
0.696329
0.336366
0.412333
0.413957
0.336466
0.689799
0.401836
0.70002
0.689395
0.485904
0.413958
0.543819
0.597702
0.597704
0.692765
0.336369
0.356605
0.33791
0.401075
0.453565
0.597666
0.696958
0.422019
0.689021
0.702821
0.383274
0.700982
0.731682
0.689463
0.336202
0.551317
0.704223
0.704162
0.699818
0.410084
0.696462
0.703182
0.710846
0.597701
0.689371
0.447279
0.414159
0.694146
0.57724
0.336202
0.692306
0.407677
0.594822
0.591973
0.697952
0.698309
0.414337
0.693415
0.529235
0.338813
0.722925
0.70003
0.704403
0.69939
0.687064
0.412206
0.701239
0.411655
0.552727
0.701609
0.567323
0.699193
0.337233
0.44222
0.703696
0.454842
0.699476
0.5977
0.529783
0.465656
0.698781
0.413797
0.689416
0.699454
0.70801
0.413754
0.399742
0.575944
0.597704
0.597702
0.56649
0.689448
0.692759
0.699474
0.557705
0.698846
0.347223
0.462467
0.699956
0.689375
0.693292
0.534526
0.381664
0.699656
0.395087
0.698669
0.5977
0.465542
0.699264
0.336259
0.701975
0.416664
0.703737
0.427289
0.69687
0.689432
0.417692
0.700303
0.597703
0.404532
0.689264
0.699438
0.597706
0.392358
0.508033
0.567577
0.707138
0.69015
0.471866
0.597677
0.700322
0.68924
0.459913
0.597451
0.698471
0.525965
0.689522
0.695715
0.469976
0.697041
0.615844
0.409903
0.5977
0.340596
0.704474
0.344523
0.416298
0.706143
0.336181
0.336305
0.39234
0.696592
0.697753
0.540493
0.688926
0.504309
0.707757
0.336388
0.698143
0.512898
0.689017
0.694583
0.706784
0.689523
0.584195
0.689413
0.689392
0.417612
0.5977
0.706871
0.5977
0.697493
0.547123
0.551632
0.701307
0.336138
0.597705
0.436953
0.688905
0.371217
0.413311
0.712868
0.698622
0.336335
0.699124
0.712923
0.557709
0.701042
0.564366
0.336183
0.701806
0.336271
0.406856
0.699245
0.709125
0.701634
0.698662
0.411922
0.347763
0.335778
0.69795
0.689454
0.505212
0.703106
0.365026
0.347911
0.383252
0.699297
0.518151
0.701315
0.698109
0.5977
0.699698
0.696924
0.5977
0.69852
0.521328
0.396638
0.336322
0.553095
0.547575
0.372587
0.597575
0.691751
0.70197
0.41336
0.580845
0.693417
0.44338
0.69232
0.686163
0.336198
0.689537
0.702457
0.336184
0.69525
0.368472
0.698072
0.705732
0.71194
0.39789
0.53376
0.735821
0.47446
0.524285
0.699836
0.479343
0.689502
0.697386
0.697508
0.713517
0.476543
0.665978
0.722352
0.692772
0.496935
0.699639
0.418833
0.387344
0.69947
0.699184
0.689752
0.406636
0.692209
0.5977
0.547371
0.359573
0.365736
0.33632
0.6993
0.337276
0.374202
0.423933
0.685335
0.372153
0.47047
0.523701
0.695151
0.336022
0.689488
0.689581
0.699381
0.351676
0.696157
0.592851
0.689096
0.516142
0.597702
0.344215
0.336146
0.696512
0.336347
0.591676
0.701548
0.557738
0.336064
0.48334
0.350239
0.590047
0.558009
0.408284
0.700774
0.696404
0.711999
0.336293
0.408759
0.488531
0.690666
0.336304
0.557731
0.5977
0.689451
0.699922
0.335717
0.636141
0.405739
0.684455
0.5977
0.703258
0.679334
0.5977
0.59708
0.693524
0.700566
0.336962
0.513119
0.370963
0.714911
0.597545
0.588889
0.336044
0.518564
0.706015
0.696037
0.686448
0.336336
0.699371
0.589157
0.591919
0.690526
0.413147
0.336333
0.471262
0.6991
0.68936
0.597699
0.694839
0.487652
0.702304
0.597702
0.689379
0.689032
0.702143
0.701032
0.689236
0.706541
0.704387
0.414562
0.697117
0.699383
0.689421
0.697989
0.699482
0.593014
0.336258
0.423136
0.693475
0.33626
0.479398
0.699313
0.3899
0.5977
0.696947
0.697375
0.707175
0.415022
0.699511
0.414752
0.3796
0.689163
0.696578
0.692991
0.357845
0.700175
0.688921
0.692028
0.697712
0.42941
0.689333
0.70366
0.704552
0.541584
0.710933
0.335953
0.696064
0.375579
0.336268
0.597702
0.538001
0.702065
0.707815
0.689818
0.421706
0.689381
0.544557
0.394046
0.697177
0.543225
0.336382
0.689365
0.432748
0.558323
0.685489
0.694389
0.697733
0.545332
0.597702
0.619071
0.689713
0.590702
0.704351
0.578355
0.698568
0.694344
0.593976
0.410867
0.335294
0.535546
0.699313
0.413249
0.599999
0.69938
0.5977
0.689801
0.5977
0.732178
0.699239
0.336218
0.698919
0.693281
0.5977
0.693742
0.702495
0.699203
0.689046
0.336257
0.384112
0.710195
0.597695
0.5977
0.698335
0.694493
0.692046
0.705655
0.7057
0.5977
0.692229
0.703501
0.384504
0.426043
0.374463
0.453871
0.557263
0.553523
0.597699
0.698754
0.705169
0.409433
0.708627
0.697185
0.361594
0.505561
0.552728
0.698049
0.415689
0.414126
0.404859
0.557752
0.699208
0.548741
0.346817
0.336274
0.42582
0.497647
0.336253
0.701799
0.694864
0.696593
0.337537
0.697338
0.597701
0.5977
0.474589
0.336281
0.696826
0.558181
0.336244
0.689138
0.336164
0.710919
0.414022
0.699295
0.338175
0.697909
0.700622
0.347657
0.59278
0.458156
0.701429
0.427446
0.597705
0.405319
0.589136
0.343255
0.597706
0.336313
0.688499
0.689323
0.5977
0.711309
0.478517
0.698048
0.68925
0.700226
0.5977
0.710051
0.336298
0.588543
0.370806
0.707747
0.464039
0.701502
0.589956
0.709687
0.702721
0.597703
0.704337
0.395437
0.376657
0.384032
0.5855
0.597437
0.697337
0.336451
0.440183
0.691849
0.508568
0.413628
0.593722
0.505271
0.336307
0.421776
0.70124
0.5977
0.597692
0.393055
0.698012
0.699204
0.418021
0.485477
0.699256
0.69202
0.68353
0.562104
0.5169
0.497206
0.348515
0.701777
0.6921
0.597688
0.721152
0.409234
0.5977
0.336087
0.682848
0.700562
0.336287
0.452003
0.694003
0.593763
0.70142
0.704402
0.705974
0.699724
0.701716
0.360081
0.435029
0.374097
0.335794
0.5977
0.645651
0.5977
0.336237
0.336307
0.579136
0.414566
0.692005
0.694255
0.336501
0.478013
0.696981
0.40491
0.63764
0.705978
0.69608
0.689477
0.5977
0.336152
0.341555
0.691455
0.336277
0.562913
0.537815
0.689013
0.699514
0.463124
0.336171
0.557676
0.336243
0.698037
0.707748
0.336097
0.405738
0.360251
0.696355
0.360224
0.557681
0.703573
0.5977
0.417443
0.575271
0.699822
0.700054
0.336807
0.699316
0.694402
0.407484
0.698479
0.697413
0.336437
0.336213
0.697033
0.336157
0.335759
0.698249
0.493264
0.694074
0.73669
0.707693
0.698821
0.701802
0.697144
0.689337
0.335884
0.513857
0.694756
0.706485
0.532537
0.701531
0.487016
0.698074
0.697985
0.597701
0.591869
0.584345
0.542943
0.709134
0.701845
0.693714
0.700699
0.696231
0.557172
0.701
0.55766
0.702506
0.697773
0.701864
0.557762
0.689386
0.402147
0.697269
0.415308
0.698706
0.697155
0.706837
0.694811
0.716333
0.399596
0.349889
0.477744
0.335721
0.696126
0.336593
0.336775
0.704189
0.41341
0.706534
0.346079
0.69852
0.69675
0.336115
0.507537
0.469446
0.699518
0.390367
0.700433
0.700425
0.354876
0.696686
0.594107
0.488234
0.417923
0.417422
0.723776
0.336215
0.699154
0.5977
0.464232
0.700471
0.689401
0.706289
0.336193
0.5977
0.407281
0.697498
0.689643
0.697813
0.336337
0.708932
0.698427
0.694678
0.52616
0.699409
0.336254
0.336398
0.699553
0.550442
0.703966
0.584061
0.336345
0.526304
0.694893
0.411813
0.399366
0.395984
0.597708
0.566409
0.698466
0.380182
0.597699
0.695936
0.588956
0.591649
0.459388
0.594819
0.336302
0.33633
0.701804
0.336392
0.336487
0.699661
0.700257
0.364994
0.713913
0.362317
0.5548
0.422419
0.697968
0.687963
0.715856
0.689621
0.415459
0.336346
0.413424
0.68961
0.697648
0.597704
0.595018
0.502671
0.473321
0.689342
0.335724
0.69416
0.502813
0.689163
0.695712
0.34622
0.400271
0.336308
0.336195
0.40654
0.693277
0.697039
0.337528
0.696735
0.597562
0.469807
0.395822
0.700804
0.336431
0.695712
0.519567
0.713305
0.595653
0.696118
0.598879
0.3885
0.70548
0.698861
0.700502
0.336323
0.690876
0.5977
0.476362
0.699581
0.703781
0.700763
0.697792
0.701564
0.699434
0.70153
0.6894
0.696863
0.336145
0.707693
0.336276
0.5841
0.699918
0.412686
0.69897
0.691458
0.435458
0.6942
0.33627
0.412701
0.699764
0.689975
0.700448
0.336257
0.697599
0.5977
0.422441
0.337802
0.700595
0.699015
0.505507
0.407435
0.704597
0.70078
0.336285
0.594135
0.700645
0.5977
0.3559
0.336244
0.413378
0.590149
0.429071
0.699309
0.716378
0.689385
0.597703
0.696524
0.336261
0.69854
0.5977
0.700596
0.680034
0.4149
0.336344
0.412488
0.709358
0.700029
0.517827
0.589813
0.446905
0.706494
0.697792
0.400007
0.694506
0.699796
0.597701
0.339558
0.340099
0.456167
0.69923
0.703934
0.5977
0.562305
0.696173
0.336231
0.5977
0.553103
0.708777
0.341404
0.5977
0.439718
0.693487
0.419232
0.708608
0.699819
0.390413
0.698687
0.597716
0.557614
0.670564
0.557716
0.699575
0.549344
0.689305
0.689453
0.699409
0.705781
0.538925
0.552557
0.368746
0.689087
0.409385
0.33612
0.42151
0.404121
0.336249
0.338959
0.701387
0.499605
0.378268
0.687117
0.698951
0.697309
0.551107
0.714516
0.721298
0.689449
0.417682
0.683997
0.697065
0.461884
0.412592
0.336334
0.597702
0.556212
0.336141
0.589592
0.415149
0.564246
0.552817
0.352205
0.541187
0.594564
0.463374
0.698886
0.402806
0.5977
0.503333
0.701521
0.510901
0.686927
0.55137
0.691121
0.594501
0.336254
0.702146
0.701004
0.417322
0.412018
0.689305
0.336245
0.71129
0.337442
0.593639
0.410464
0.697037
0.436238
0.701566
0.336167
0.698194
0.696896
0.701751
0.556986
0.367681
0.40588
0.548129
0.700129
0.703179
0.69452
0.595903
0.436399
0.703649
0.461785
0.697158
0.688021
0.55661
0.464581
0.706232
0.708587
0.4045
0.684114
0.702409
0.704489
0.707683
0.405833
0.597701
0.336174
0.704332
0.431018
0.689694
0.696788
0.703181
0.701145
0.468022
0.698332
0.336205
0.337638
0.697774
0.555715
0.597706
0.709338
0.554855
0.33639
0.713511
0.700826
0.701573
0.412587
0.53341
0.714562
0.337283
0.697957
0.699633
0.699422
0.701502
0.458161
0.569813
0.597707
0.394151
0.698168
0.700525
0.578926
0.699438
0.459903
0.691725
0.713512
0.710084
0.699933
0.340064
0.41421
0.696576
0.699246
0.428
0.485958
0.427631
0.401161
0.377203
0.403534
0.425067
0.33621
0.699135
0.408077
0.356812
0.70388
0.597706
0.557725
0.515732
0.33608
0.696106
0.568815
0.597699
0.704504
0.507146
0.597707
0.689306
0.5977
0.698383
0.388979
0.698486
0.689505
0.36414
0.336409
0.55585
0.691021
0.5977
0.701275
0.688981
0.705035
0.700585
0.512317
0.698469
0.689471
0.701969
0.336393
0.697381
0.685503
0.50594
0.530921
0.358921
0.403925
0.377896
0.5977
0.685981
0.707982
0.336352
0.511821
0.700663
0.419024
0.70004
0.689199
0.699435
0.709757
0.695733
0.457747
0.405421
0.406826
0.5977
0.427616
0.695161
0.408225
0.696299
0.689337
0.696963
0.447926
0.56317
0.542997
0.696573
0.396658
0.336208
0.699429
0.698247
0.700087
0.689269
0.700876
0.711166
0.336232
0.5977
0.70322
0.572794
0.695553
0.701384
0.70873
0.52763
0.517083
0.701616
0.551301
0.597169
0.336412
0.695831
0.699359
0.543832
0.429799
0.697867
0.579079
0.702065
0.699967
0.336243
0.336344
0.637933
0.597694
0.558849
0.699301
0.700468
0.442869
0.700219
0.640325
0.694985
0.336274
0.5977
0.336211
0.699535
0.700469
0.710885
0.706271
0.656082
0.472897
0.501945
0.70863
0.336306
0.5977
0.457778
0.69644
0.38816
0.648214
0.703788
0.616567
0.336333
0.557772
0.552185
0.335914
0.695948
0.418762
0.701111
0.336332
0.341754
0.397617
0.70081
0.701201
0.48352
0.475946
0.697216
0.701717
0.546045
0.719334
0.336224
0.597705
0.336186
0.711947
0.336266
0.687565
0.699384
0.419077
0.597636
0.33977
0.689356
0.372763
0.336304
0.703887
0.413993
0.700763