# vtk DataFile Version 1.0
unstructured grid
ascii
DATASET UNSTRUCTURED_GRID
points 13672 float
0.0796578 -0.059106 0
0.00128732 0.00159165 0
0.00227961 -0.00102548 0
0.0791586 -0.0598787 0
-0.0546216 0.01 0
0.000495206 0.025 0
0.0800549 -0.035 0
0.135172 -0.08 0
-0.0546216 -0.0451168 0
0.000495206 -0.0301168 0
0.0800549 -0.0901168 0
0.135172 -0.135117 0
-0.0546216 -0.0451168 -0.00551168
0.000495206 -0.0301168 -0.00551168
0.0800549 -0.0901168 -0.00551168
0.135172 -0.135117 -0.00551168
0.135172 -0.08 -0.00551168
0.0800549 -0.035 -0.00551168
0.000495206 0.025 -0.00551168
-0.0546216 0.01 -0.00551168
0.00128732 0.00159165 -0.00551168
0.00227961 -0.00102548 -0.00551168
0.0791586 -0.0598787 -0.00551168
0.0796578 -0.059106 -0.00551168
0.00165953 -0.000990923 0
0.00119576 -0.000874076 0
0.000866021 -0.000641801 0
0.000645147 -0.000349912 0
0.00052235 -1.7281e-05 0
0.00049972 0.000348016 0
0.000601632 0.000737716 0
0.000861774 0.0011403 0
0.00157235 0.00183217 0
0.00188647 0.00206725 0
0.00222612 0.00230203 0
0.00258713 0.00254351 0
0.00296826 0.00279524 0
0.00337118 0.00305664 0
0.00379785 0.00332658 0
0.00425045 0.00360349 0
0.00473139 0.00388521 0
0.0052432 0.00416895 0
0.0057881 0.00445204 0
0.00636753 0.00473281 0
0.00698281 0.00500961 0
0.00763526 0.00528058 0
0.00832616 0.00554366 0
0.00905691 0.00579603 0
0.00982918 0.00603333 0
0.0106445 0.00625033 0
0.0115038 0.00644128 0
0.0124073 0.00660297 0
0.0133543 0.00673414 0
0.0143444 0.00683382 0
0.0153769 0.00690031 0
0.0164512 0.00693173 0
0.0175666 0.00692547 0
0.0187219 0.00687822 0
0.0199156 0.00678477 0
0.0211454 0.00663864 0
0.0224084 0.00643275 0
0.0237018 0.00616676 0
0.0250249 0.00584739 0
0.026375 0.00547298 0
0.0277479 0.00503752 0
0.0291386 0.00453545 0
0.0305433 0.0039653 0
0.0319572 0.0033256 0
0.0333681 0.00260019 0
0.034775 0.00179799 0
0.0361793 0.000930615 0
0.0375798 3.12222e-06 0
0.0389689 -0.000988429 0
0.0403357 -0.00205109 0
0.041675 -0.00318283 0
0.0429849 -0.00437751 0
0.0442643 -0.00562904 0
0.0455126 -0.00693089 0
0.0467314 -0.00827518 0
0.0479204 -0.00965638 0
0.0490661 -0.0110799 0
0.0501515 -0.0125519 0
0.0511696 -0.0140695 0
0.0521492 -0.0156071 0
0.0531202 -0.0171411 0
0.0540851 -0.0186663 0
0.0550431 -0.0201798 0
0.0559923 -0.0216793 0
0.0569311 -0.0231626 0
0.0578582 -0.0246273 0
0.0587723 -0.0260715 0
0.0596721 -0.027493 0
0.0605563 -0.02889 0
0.0614241 -0.0302609 0
0.0622742 -0.0316042 0
0.063106 -0.0329183 0
0.0639186 -0.034202 0
0.0647113 -0.0354543 0
0.0654835 -0.0366743 0
0.0662345 -0.0378613 0
0.0669642 -0.0390145 0
0.0676726 -0.0401333 0
0.0683597 -0.0412172 0
0.0690246 -0.0422665 0
0.0696662 -0.0432819 0
0.0702841 -0.0442636 0
0.0708793 -0.0452111 0
0.0714538 -0.0461237 0
0.072009 -0.047001 0
0.0725452 -0.0478434 0
0.0730611 -0.0486524 0
0.073556 -0.0494294 0
0.0740291 -0.0501756 0
0.0744812 -0.0508916 0
0.0749138 -0.0515773 0
0.0753285 -0.0522331 0
0.0757266 -0.0528592 0
0.076109 -0.0534564 0
0.0764753 -0.0540264 0
0.0768243 -0.054571 0
0.0771553 -0.0550919 0
0.0774679 -0.0555901 0
0.0777617 -0.0560669 0
0.0780369 -0.056523 0
0.0782958 -0.0569578 0
0.0785421 -0.0573703 0
0.0787786 -0.0577603 0
0.0790073 -0.0581279 0
0.0792295 -0.058474 0
0.0794462 -0.0587995 0
0.0798803 -0.0594162 0
0.0800272 -0.0596588 0
0.0800357 -0.0598891 0
0.0799275 -0.0600784 0
0.0797205 -0.0601773 0
0.0794593 -0.0601051 0
0.0789155 -0.0596491 0
0.0786707 -0.0593963 0
0.0784111 -0.0591319 0
0.0781372 -0.0588542 0
0.0778566 -0.0585548 0
0.0775715 -0.0582308 0
0.0772803 -0.0578828 0
0.0769832 -0.0575099 0
0.0766822 -0.0571097 0
0.0763801 -0.0566796 0
0.0760759 -0.0562196 0
0.0757623 -0.0557337 0
0.0754359 -0.0552232 0
0.0750951 -0.0546879 0
0.0747379 -0.054128 0
0.0743626 -0.0535435 0
0.0739688 -0.0529338 0
0.0735559 -0.0522981 0
0.0731238 -0.0516357 0
0.0726718 -0.050946 0
0.0721991 -0.0502288 0
0.0717046 -0.049484 0
0.0711872 -0.0487117 0
0.0706461 -0.047912 0
0.0700804 -0.0470849 0
0.0694892 -0.0462308 0
0.0688718 -0.0453499 0
0.0682271 -0.0444431 0
0.0675544 -0.043511 0
0.0668527 -0.0425546 0
0.0661215 -0.0415748 0
0.06536 -0.040573 0
0.0645676 -0.0395504 0
0.0637439 -0.0385087 0
0.0628887 -0.0374493 0
0.062002 -0.0363741 0
0.0610838 -0.0352847 0
0.0601345 -0.0341831 0
0.0591547 -0.033071 0
0.0581456 -0.0319502 0
0.0571083 -0.0308224 0
0.0560444 -0.0296893 0
0.0549562 -0.028552 0
0.053845 -0.0274126 0
0.0527113 -0.0262746 0
0.051554 -0.0251427 0
0.0503724 -0.0240222 0
0.0491675 -0.0229164 0
0.047941 -0.0218282 0
0.0466955 -0.0207597 0
0.0454337 -0.0197126 0
0.0441592 -0.0186878 0
0.0428751 -0.0176863 0
0.0415841 -0.0167097 0
0.0402878 -0.0157609 0
0.0389879 -0.0148428 0
0.0376864 -0.0139575 0
0.0363853 -0.013107 0
0.0350871 -0.0122931 0
0.0337942 -0.0115164 0
0.0325095 -0.0107772 0
0.0312357 -0.0100756 0
0.0299758 -0.00941024 0
0.0287337 -0.00877784 0
0.0275126 -0.00817571 0
0.0263139 -0.00760375 0
0.0251376 -0.00706528 0
0.0239829 -0.0065649 0
0.0228537 -0.00609619 0
0.0217522 -0.00565563 0
0.0206795 -0.00524226 0
0.0196364 -0.00485507 0
0.0186233 -0.00449318 0
0.0176408 -0.00415577 0
0.016689 -0.00384204 0
0.0157682 -0.00355115 0
0.0148783 -0.00328218 0
0.0140192 -0.00303468 0
0.0131906 -0.00280795 0
0.0123925 -0.00260016 0
0.0116246 -0.00241012 0
0.0108864 -0.00223769 0
0.0101774 -0.00208212 0
0.00949701 -0.00194206 0
0.00884483 -0.0018163 0
0.0082202 -0.0017039 0
0.00762247 -0.00160391 0
0.00705097 -0.00151528 0
0.006505 -0.00143697 0
0.0059838 -0.00136806 0
0.00548662 -0.00130772 0
0.00501265 -0.00125519 0
0.00456114 -0.00120954 0
0.00413136 -0.00116914 0
0.00372257 -0.00113251 0
0.00333398 -0.00109853 0
0.00296466 -0.00106798 0
0.00261363 -0.0010431 0
-0.052721 -0.0445996 0
-0.0508204 -0.0440823 0
-0.0489199 -0.0435651 0
-0.0470193 -0.0430478 0
-0.0451187 -0.0425306 0
-0.0432181 -0.0420134 0
-0.0413175 -0.0414961 0
-0.039417 -0.0409789 0
-0.0375164 -0.0404616 0
-0.0356158 -0.0399444 0
-0.0337152 -0.0394271 0
-0.0318146 -0.0389099 0
-0.0299141 -0.0383927 0
-0.0280135 -0.0378754 0
-0.0261129 -0.0373582 0
-0.0242123 -0.0368409 0
-0.0223117 -0.0363237 0
-0.0204112 -0.0358065 0
-0.0185106 -0.0352892 0
-0.01661 -0.034772 0
-0.0147094 -0.0342547 0
-0.0128088 -0.0337375 0
-0.0109083 -0.0332202 0
-0.00900769 -0.032703 0
-0.00710711 -0.0321858 0
-0.00520653 -0.0316685 0
-0.00330595 -0.0311513 0
-0.00140537 -0.030634 0
0.00190689 -0.0299614 0
0.00332271 -0.0298498 0
0.00474133 -0.0297825 0
0.00616136 -0.0297597 0
0.0075814 -0.0297814 0
0.00900007 -0.0298477 0
0.010416 -0.0299583 0
0.0118278 -0.0301127 0
0.0132342 -0.0303103 0
0.0146339 -0.0305504 0
0.0160259 -0.0308322 0
0.0174091 -0.0311546 0
0.0187824 -0.0315166 0
0.020145 -0.031917 0
0.0214961 -0.0323546 0
0.0228351 -0.032828 0
0.0241613 -0.0333361 0
0.0254744 -0.0338774 0
0.0267738 -0.0344507 0
0.0280592 -0.0350545 0
0.0293306 -0.0356877 0
0.0305875 -0.0363488 0
0.0318301 -0.0370367 0
0.0330581 -0.0377501 0
0.0342717 -0.0384879 0
0.0354708 -0.0392489 0
0.0366556 -0.0400321 0
0.0378262 -0.0408363 0
0.0389828 -0.0416607 0
0.0401254 -0.0425042 0
0.0412543 -0.0433659 0
0.0423698 -0.0442451 0
0.043472 -0.0451408 0
0.0445612 -0.0460523 0
0.0456375 -0.0469789 0
0.0467013 -0.0479199 0
0.0477529 -0.0488746 0
0.0487923 -0.0498424 0
0.04982 -0.0508227 0
0.0508362 -0.051815 0
0.051841 -0.0528187 0
0.0528348 -0.0538333 0
0.0538178 -0.0548584 0
0.0547903 -0.0558935 0
0.0557524 -0.0569382 0
0.0567045 -0.0579922 0
0.0576467 -0.0590549 0
0.0585792 -0.0601261 0
0.0595024 -0.0612055 0
0.0604163 -0.0622926 0
0.0613212 -0.0633873 0
0.0622174 -0.0644891 0
0.0631049 -0.0655979 0
0.0639841 -0.0667134 0
0.064855 -0.0678353 0
0.0657179 -0.0689633 0
0.0665729 -0.0700974 0
0.0674202 -0.0712372 0
0.06826 -0.0723826 0
0.0690925 -0.0735333 0
0.0699178 -0.0746892 0
0.070736 -0.0758501 0
0.0715473 -0.0770159 0
0.0723518 -0.0781863 0
0.0731498 -0.0793612 0
0.0739412 -0.0805405 0
0.0747264 -0.081724 0
0.0755053 -0.0829116 0
0.0762781 -0.0841033 0
0.0770449 -0.0852987 0
0.0778059 -0.0864979 0
0.0785611 -0.0877007 0
0.0793108 -0.088907 0
0.0814681 -0.0912706 0
0.0828814 -0.0924245 0
0.0842946 -0.0935783 0
0.0857079 -0.0947322 0
0.0871211 -0.095886 0
0.0885344 -0.0970399 0
0.0899476 -0.0981937 0
0.0913609 -0.0993476 0
0.0927741 -0.100501 0
0.0941874 -0.101655 0
0.0956006 -0.102809 0
0.0970139 -0.103963 0
0.0984272 -0.105117 0
0.0998404 -0.106271 0
0.101254 -0.107424 0
0.102667 -0.108578 0
0.10408 -0.109732 0
0.105493 -0.110886 0
0.106907 -0.11204 0
0.10832 -0.113194 0
0.109733 -0.114348 0
0.111146 -0.115501 0
0.11256 -0.116655 0
0.113973 -0.117809 0
0.115386 -0.118963 0
0.116799 -0.120117 0
0.118213 -0.121271 0
0.119626 -0.122424 0
0.121039 -0.123578 0
0.122452 -0.124732 0
0.123866 -0.125886 0
0.125279 -0.12704 0
0.126692 -0.128194 0
0.128105 -0.129348 0
0.129519 -0.130501 0
0.130932 -0.131655 0
0.132345 -0.132809 0
0.133758 -0.133963 0
0.135172 -0.133216 0
0.135172 -0.131316 0
0.135172 -0.129415 0
0.135172 -0.127514 0
0.135172 -0.125614 0
0.135172 -0.123713 0
0.135172 -0.121813 0
0.135172 -0.119912 0
0.135172 -0.118012 0
0.135172 -0.116111 0
0.135172 -0.11421 0
0.135172 -0.11231 0
0.135172 -0.110409 0
0.135172 -0.108509 0
0.135172 -0.106608 0
0.135172 -0.104708 0
0.135172 -0.102807 0
0.135172 -0.100906 0
0.135172 -0.0990058 0
0.135172 -0.0971052 0
0.135172 -0.0952046 0
0.135172 -0.0933041 0
0.135172 -0.0914035 0
0.135172 -0.0895029 0
0.135172 -0.0876023 0
0.135172 -0.0857017 0
0.135172 -0.0838012 0
0.135172 -0.0819006 0
0.133758 -0.0788462 0
0.132345 -0.0776923 0
0.130932 -0.0765385 0
0.129519 -0.0753846 0
0.128105 -0.0742308 0
0.126692 -0.0730769 0
0.125279 -0.0719231 0
0.123866 -0.0707692 0
0.122452 -0.0696154 0
0.121039 -0.0684615 0
0.119626 -0.0673077 0
0.118213 -0.0661538 0
0.116799 -0.065 0
0.115386 -0.0638462 0
0.113973 -0.0626923 0
0.11256 -0.0615385 0
0.111146 -0.0603846 0
0.109733 -0.0592308 0
0.10832 -0.0580769 0
0.106907 -0.0569231 0
0.105493 -0.0557692 0
0.10408 -0.0546154 0
0.102667 -0.0534615 0
0.101254 -0.0523077 0
0.0998404 -0.0511538 0
0.0984272 -0.05 0
0.0970139 -0.0488462 0
0.0956006 -0.0476923 0
[...]
CELL_DATA 13116
SCALARS rho float
LOOKUP_TABLE default
0.664495
0.701035
0.347489
0.699933
0.712405
0.696372
0.331063
0.701238
0.56502
0.704312
0.332519
0.345964
0.710148
0.343861
0.364932
0.696401
0.666925
0.712597
0.702669
0.328751
0.657342
0.367205
0.351173
0.709929
0.682816
0.695126
0.704615
0.355126
0.585902
0.721739
0.573776
0.336261
0.570651
0.503663
0.331634
0.661653
0.71739
0.701006
0.695383
0.698418
0.703065
0.700871
0.524684
0.341709
0.701327
0.702517
0.692707
0.706543
0.380151
0.553961
0.700564
0.519484
0.331323
0.665801
0.569646
0.658386
0.341472
0.724629
0.557049
0.375812
0.344277
0.703136
0.697078
0.695293
0.620764
0.331047
0.697775
0.726716
0.700275
0.663985
0.363389
0.578279
0.362839
0.338911
0.556164
0.3294
0.700254
0.714052
0.330762
0.715464
0.717749
0.693271
0.709224
0.706566
0.698535
0.483982
0.32665
0.736608
0.696281
0.334974
0.343741
0.701542
0.709015
0.696931
0.717899
0.678484
0.684507
0.553439
0.554245
0.584758
0.736846
0.680991
0.702266
0.470106
0.690362
0.362761
0.453315
0.549442
0.351857
0.592034
0.578954
0.691981
0.677602
0.72164
0.713625
0.697936
0.330234
0.45971
0.712288
0.698387
0.727712
0.365421
0.700968
0.343304
0.697177
0.491955
0.327203
0.53953
0.348733
0.552241
0.712513
0.710487
0.519405
0.374422
0.508426
0.676119
0.557588
0.70011
0.73868
0.698271
0.689807
0.693354
0.541362
0.690416
0.696921
0.35215
0.331951
0.692678
0.717966
0.699936
0.548323
0.706161
0.706326
0.323422
0.706043
0.69877
0.352095
0.723985
0.558063
0.73958
0.710176
0.332039
0.721849
0.351685
0.364044
0.701506
0.69613
0.712791
0.331377
0.496942
0.478815
0.557566
0.363834
0.534601
0.697478
0.35283
0.362249
0.36456
0.691368
0.694273
0.331109
0.485427
0.632372
0.718233
0.694855
0.558911
0.321659
0.696558
0.685984
0.508902
0.697132
0.692217
0.671522
0.35155
0.69012
0.695242
0.706363
0.696883
0.69673
0.420617
0.471535
0.593894
0.536819
0.342772
0.714982
0.70408
0.525542
0.683099
0.365475
0.33434
0.328009
0.696759
0.353033
0.3326
0.334519
0.323291
0.447744
0.692372
0.696952
0.477342
0.339683
0.697581
0.566807
0.331646
0.548234
0.70325
0.696096
0.356038
0.697602
0.464204
0.700826
0.34142
0.681108
0.570272
0.55085
0.696071
0.685043
0.389009
0.486712
0.74607
0.556795
0.695028
0.557578
0.687471
0.700704
0.363
0.699118
0.703539
0.554473
0.333265
0.381285
0.704421
0.711846
0.660292
0.709097
0.663525
0.73029
0.332457
0.398621
0.433606
0.363314
0.685773
0.706054
0.698606
0.327993
0.699788
0.324371
0.48075
0.691155
0.330012
0.694082
0.700747
0.557441
0.724742
0.388089
0.557688
0.719445
0.549346
0.70144
0.330614
0.325714
0.352334
0.67571
0.363005
0.37963
0.441516
0.417707
0.700128
0.33511
0.697609
0.704952
0.323418
0.328715
0.323753
0.49813
0.35369
0.734959
0.677305
0.690957
0.330751
0.696679
0.567902
0.393179
0.375108
0.696201
0.711568
0.696768
0.321782
0.695424
0.482441
0.710019
0.700631
0.699991
0.70073
0.351796
0.697582
0.350528
0.696763
0.703152
0.754092
0.33214
0.438623
0.702264
0.324651
0.696082
0.703036
0.400294
0.726208
0.71109
0.323903
0.699847
0.708545
0.346709
0.712243
0.480079
0.559423
0.700707
0.484259
0.722754
0.327663
0.714342
0.440761
0.689425
0.679539
0.707417
0.355019
0.452568
0.698674
0.324676
0.713468
0.687026
0.480326
0.557728
0.321861
0.353639
0.710387
0.551617
0.723203
0.325499
0.352256
0.699068
0.706466
0.332192
0.702605
0.334508
0.370361
0.697817
0.700806
0.572344
0.336196
0.707846
0.604922
0.696275
0.699532
0.719107
0.550573
0.369034
0.359428
0.330728
0.696054
0.331309
0.635087
0.406586
0.349543
0.44959
0.588714
0.188772
0.324853
0.698927
0.346485
0.719803
0.587962
0.70405
0.738976
0.700469
0.353866
0.32579
0.428508
0.381395
0.711525
0.674892
0.703281
0.587774
0.698172
0.685105
0.692686
0.688146
0.715571
0.717006
0.715455
0.696168
0.43755
0.525821
0.663476
0.362021
0.676244
0.664116
0.330409
0.697791
0.557533
0.352582
0.330373
0.333169
0.322358
0.596994
0.343818
0.351802
0.69694
0.329352
0.571895
0.334411
0.69699
0.713358
0.356532
0.371841
0.71035
0.496994
0.334973
0.322384
0.33591
0.352351
0.32541
0.330639
0.372868
0.483265
0.332843
0.679763
0.364165
0.698419
0.396786
0.341699
0.514106
0.355034
0.334784
0.355414
0.696903
0.487261
0.677491
0.563793
0.328275
0.682912
0.69644
0.482284
0.730643
0.683207
0.683221
0.324984
0.553249
0.462744
0.722145
0.553519
0.353253
0.335541
0.686028
0.382755
0.483328
0.68086
0.452502
0.725707
0.697267
0.328746
0.359723
0.356572
0.531378
0.372414
0.34013
0.363246
0.3487
0.701415
0.702307
0.50237
0.584402
0.51088
0.68989
0.439767
0.335071
0.566201
0.35349
0.707817
0.407426
0.457641
0.51692
0.701221
0.69541
0.556292
0.39687
0.333805
0.554226
0.701104
0.68525
0.552575
0.690777
0.685487
0.332822
0.71323
0.567997
0.74982
0.424526
0.353719
0.721574
0.707975
0.742473
0.703554
0.697214
0.696471
0.71478
0.756187
0.703987
0.335767
0.700804
0.443203
0.370371
0.333428
0.701003
0.704015
0.434158
0.69832
0.593412
0.332401
0.694914
0.71127
0.716914
0.354819
0.333112
0.713565
0.33532
0.336117
0.356364
0.332998
0.707086
0.343817
0.699961
0.363205
0.701256
0.700121
0.697719
0.707456
0.335364
0.330187
0.705704
0.700853
0.708451
0.701694
0.704383
0.50691
0.323957
0.35401
0.695319
0.561731
0.333114
0.498092
0.348863
0.69924
0.69668
0.425783
0.369155
0.698074
0.487451
0.699375
0.771678
0.347934
0.463553
0.70531
0.55682
0.351697
0.69486
0.696275
0.704952
0.328011
0.557585
0.339753
0.557764
0.749458
0.336261
0.443875
0.377375
0.552471
0.351901
0.32963
0.461006
0.696242
0.713641
0.330054
0.394412
0.333979
0.694938
0.364183
0.694821
0.350999
0.579743
0.703382
0.400886
0.351434
0.351255
0.50805
0.354214
0.695238
0.322859
0.341278
0.697146
0.345126
0.696551
0.695186
0.552099
0.335646
0.707975
0.709933
0.705565
0.695874
0.699615
0.697664
0.355482
0.670646
0.479546
0.705575
0.329968
0.700736
0.551565
0.331277
0.586092
0.719035
0.328694
0.688322
0.344382
0.360765
0.696912
0.696711
0.346794
0.355163
0.330516
0.352167
0.699425
0.710542
0.327164
0.327563
0.713712
0.69878
0.581544
0.712781
0.696704
0.332228
0.706854
0.482219
0.700292
0.458087
0.675272
0.503792
0.69732
0.722939
0.568276
0.435876
0.354398
0.69667
0.584333
0.661924
0.71538
0.35974
0.71577
0.707815
0.46304
0.523417
0.709087
0.403324
0.63393
0.746972
0.435265
0.6983
0.716601
0.350185
0.714626
0.352268
0.697531
0.334904
0.696589
0.696291
0.355368
0.695491
0.72024
0.714218
0.594632
0.710616
0.568895
0.396793
0.479088
0.345332
0.339058
0.557786
0.550374
0.698144
0.718167
0.334511
0.375152
0.711662
0.703539
0.710853
0.701054
0.331011
0.713977
0.703855
0.329181
0.346153
0.712371
0.70408
0.697829
0.334484
0.571514
0.357285
0.714724
0.694758
0.683911
0.70203
0.333064
0.705764
0.697936
0.707617
0.696799
0.703068
0.478359
0.71824
0.33444
0.688895
0.702697
0.496728
0.698404
0.691987
0.70004
0.481524
0.462843
0.57097
0.74963
0.33538
0.336203
0.327691
0.333086
0.702469
0.715158
0.686491
0.418309
0.33266
0.701933
0.732091
0.344531
0.377963
0.501035
0.712798
0.696587
0.6992
0.724999
0.33443
0.335496
0.557842
0.342062
0.332545
0.323729
0.698117
0.356864
0.335248
0.644401
0.705562
0.691332
0.695622
0.696874
0.330119
0.354158
0.328273
0.592247
0.488269
0.342921
0.725001
0.726421
0.697424
0.705559
0.318571
0.3358
0.703593
0.334278
0.702857
0.695754
0.559254
0.346894
0.33601
0.696915
0.590172
0.671504
0.344945
0.698858
0.695722
0.637131
0.699989
0.701247
0.557806
0.690308
0.331098
0.697076
0.635227
0.685667
0.714994
0.557722
0.693044
0.557979
0.702759
0.3416
0.349259
0.33573
0.583656
0.554388
0.334447
0.711009
0.714403
0.349871
0.694272
0.357726
0.698749
0.556164
0.38954
0.703486
0.710813
0.333402
0.544651
0.599324
0.344768
0.696811
0.335508
0.364729
0.68442
0.633639
0.513836
0.702366
0.326286
0.72234
0.356418
0.320801
0.696481
0.333
0.680606
0.348921
0.694257
0.676428
0.557737
0.695548
0.36066
0.343166
0.685161
0.531316
0.710863
0.513874
0.673894
0.696544
0.707811
0.536446
0.590581
0.690639
0.70624
0.697954
0.444784
0.336242
0.541914
0.690201
0.707567
0.429127
0.701991
0.672232
0.426728
0.347293
0.750606
0.714599
0.557434
0.555593
0.681699
0.719075
0.696014
0.718158
0.34962
0.75238
0.499183
0.698913
0.703652
0.424279
0.70098
0.714183
0.347557
0.382651
0.323954
0.557734
0.331873
0.684103
0.717171
0.75786
0.412175
0.700406
0.344178
0.57238
0.695155
0.674391
0.724983
0.694273
0.692902
0.717482
0.564589
0.704953
0.335799
0.701956
0.698267
0.519466
0.558663
0.714757
0.352444
0.361531
0.345119
0.700046
0.335987
0.557809
0.327405
0.701153
0.33695
0.504278
0.356035
0.722421
0.700744
0.663079
0.404249
0.694195
0.692578
0.333135
0.582261
0.70245
0.339993
0.658063
0.551193
0.703056
0.703253
0.353166
0.546967
0.712235
0.7032
0.689793
0.335685
0.459249
0.699693
0.557741
0.557185
0.557694
0.650782
0.710711
0.646346
0.698033
0.335588
0.344329
0.557687
0.715317
0.696189
0.333185
0.702183
0.66091
0.677829
0.335774
0.474437
0.702957
0.698389
0.564155
0.375318
0.705151
0.558702
0.331368
0.639459
0.723978
0.331498
0.340793
0.352716
0.685925
0.369719
0.335839
0.699678
0.518554
0.706587
0.700762
0.331103
0.324533
0.700927
0.346139
0.343377
0.586667
0.368551
0.440394
0.668417
0.699656
0.708377
0.332921
0.35982
0.332852
0.695842
0.364304
0.708473
0.345427
0.710746
0.69796
0.700395
0.692375
0.706769
0.694269
0.696438
0.709587
0.709134
0.341798
0.33311
0.704611
0.695815
0.515402
0.688394
0.570389
0.695585
0.684592
0.355923
0.698241
0.703022
0.703191
0.333284
0.706418
0.355372
0.706787
0.508
0.718332
0.697047
0.390194
0.711826
0.333635
0.497753
0.697613
0.324853
0.72648
0.55772
0.700292
0.321818
0.696895
0.333417
0.346079
0.34974
0.334661
0.683527
0.366226
0.692888
0.690854
0.377806
0.351568
0.504971
0.570497
0.692251
0.690246
0.335711
0.326408
0.332105
0.356246
0.399223
0.693045
0.692363
0.355375
0.691873
0.716605
0.35066
0.702951
0.733187
0.693324
0.333597
0.557217
0.710486
0.717647
0.699502
0.371806
0.709229
0.718439
0.706886
0.742072
0.697302
0.385985
0.350317
0.706124
0.53851
0.336111
0.696326
0.353383
0.560577
0.687177
0.697443
0.697609
0.345156
0.688063
0.429483
0.333275
0.728804
0.714142
0.719026
0.700032
0.713248
0.346097
0.704511
0.373815
0.514317
0.701228
0.550386
0.711744
0.333436
0.388047
0.702363
0.410235
0.713151
0.789174
0.483803
0.390189
0.697926
0.349248
0.698675
0.712863
0.706474
0.349457
0.350106
0.53408
0.563588
0.683909
0.517177
0.697354
0.690421
0.698521
0.557754
0.711746
0.329836
0.386116
0.71414
0.697273
0.688811
0.495054
0.340515
0.712527
0.36117
0.696657
0.59259
0.366892
0.711168
0.331866
0.698264
0.348087
0.717023
0.385384
0.707091
0.693462
0.340981
0.697215
0.744362
0.335637
0.683549
0.701855
0.57178
0.353473
0.425504
0.512744
0.708268
0.68532
0.372534
0.569236
0.712819
0.696948
0.414218
0.679953
0.699862
0.485391
0.69733
0.69671
0.4261
0.709381
0.553415
0.345984
0.677449
0.323595
0.697245
0.32348
0.367027
0.708014
0.335659
0.334178
0.35796
0.697354
0.697998
0.4438
0.704891
0.428729
0.706306
0.333556
0.699467
0.410894
0.696576
0.706569
0.701853
0.683081
0.54634
0.693627
0.692711
0.352966
0.691374
0.705408
0.633679
0.711128
0.508322
0.463756
0.706425
0.330402
0.571807
0.358272
0.702862
0.340121
0.351508
0.711538
0.696687
0.329234
0.698182
0.727582
0.557711
0.70114
0.556191
0.331395
0.703355
0.33136
0.352206
0.695683
0.724567
0.700916
0.698577
0.348793
0.322992
0.332614
0.701125
0.68986
0.426107
0.700129
0.331564
0.322276
0.331337
0.696927
0.459649
0.701886
0.709394
0.689859
0.696814
0.708829
0.660228
0.695797
0.481452
0.343101
0.329668
0.555765
0.557392
0.335437
0.691871
0.684407
0.697482
0.353111
0.485966
0.691352
0.382653
0.689499
0.678881
0.332226
0.689175
0.703236
0.334954
0.708006
0.342188
0.697678
0.707042
0.706419
0.363118
0.494521
0.735938
0.431021
0.482797
0.697036
0.433349
0.690754
0.697825
0.693536
0.728491
0.371569
0.577541
0.731526
0.702963
0.454666
0.702971
0.360526
0.350413
0.699288
0.696331
0.687709
0.336479
0.695836
0.679132
0.555579
0.327974
0.334502
0.335241
0.698888
0.331658
0.345412
0.348289
0.677559
0.344849
0.422183
0.484027
0.708286
0.333632
0.68179
0.691057
0.697747
0.321689
0.708374
0.736556
0.692351
0.476422
0.752741
0.33227
0.330883
0.696766
0.329143
0.689484
0.713879
0.55771
0.333531
0.43899
0.32833
0.553367
0.557481
0.338825
0.7015
0.697153
0.727211
0.334071
0.371418
0.443743
0.685752
0.33393
0.557726
0.587708
0.692482
0.700094
0.330937
0.690018
0.353024
0.675616
0.790357
0.703489
0.675133
0.642143
0.754162
0.689814
0.714086
0.325856
0.395845
0.331132
0.720385
0.563352
0.557515
0.333309
0.469921
0.720533
0.708267
0.655978
0.329635
0.698296
0.552161
0.555874
0.686097
0.353516
0.329977
0.427161
0.696352
0.691917
0.746543
0.689193
0.445029
0.700488
0.762666
0.692503
0.68925
0.699996
0.703192
0.695453
0.721286
0.719786
0.353522
0.709736
0.699762
0.69725
0.71107
0.696499
0.675057
0.332277
0.361069
0.686602
0.335906
0.373294
0.698293
0.353947
0.658471
0.700625
0.699767
0.703593
0.35341
0.698664
0.350375
0.340927
0.695582
0.709818
0.705628
0.321997
0.701028
0.702742
0.686525
0.696693
0.363487
0.697328
0.702324
0.704285
0.423257
0.720368
0.333226
0.697973
0.327213
0.332636
0.666994
0.496187
0.70345
0.723125
0.702827
0.347356
0.697381
0.446289
0.35911
0.695011
0.504553
0.335332
0.702793
0.377221
0.51992
0.730207
0.693119
0.697486
0.506518
0.578783
0.731672
0.697147
0.674582
0.718812
0.539578
0.699155
0.688373
0.730334
0.334351
0.331083
0.494199
0.70137
0.352583
0.742243
0.698539
0.682158
0.697494
0.652252
0.735455
0.718133
0.333675
0.697914
0.686997
0.646691
0.688281
0.702226
0.695301
0.696766
0.334223
0.345776
0.706197
0.566316
0.65243
0.698572
0.706789
0.705824
0.708299
0.70712
0.686009
0.689762
0.703482
0.352998
0.358788
0.342342
0.362406
0.557622
0.505592
0.642707
0.710654
0.718605
0.352744
0.704326
0.699189
0.323174
0.460165
0.557365
0.708978
0.354268
0.330149
0.357052
0.557743
0.695331
0.426284
0.330123
0.331655
0.373988
0.398018
0.336132
0.701141
0.706648
0.711536
0.325794
0.69983
0.67983
0.589707
0.396457
0.329799
0.694152
0.557844
0.334798
0.696874
0.334726
0.709849
0.353379
0.697766
0.324868
0.697666
0.700868
0.322084
0.557188
0.39819
0.703195
0.365712
0.680725
0.353936
0.54673
0.332552
0.678606
0.333624
0.66962
0.682109
0.589539
0.706355
0.397671
0.699373
0.696485
0.701303
0.680143
0.707485
0.329986
0.481381
0.333083
0.707709
0.411571
0.714942
0.552487
0.724961
0.702871
0.549548
0.717628
0.358946
0.339644
0.352989
0.543798
0.668776
0.706572
0.330524
0.377629
0.696288
0.464808
0.349309
0.672512
0.453468
0.335055
0.358191
0.700588
0.773226
0.681933
0.347186
0.698259
0.696502
0.325978
0.437607
0.698378
0.697243
0.675786
0.523618
0.474516
0.454652
0.323392
0.699375
0.685731
0.563721
0.732959
0.370056
0.642946
0.331741
0.623812
0.713283
0.330583
0.407633
0.687761
0.67179
0.708218
0.719602
0.708197
0.699232
0.701761
0.323431
0.364007
0.332279
0.330599
0.664898
0.574638
0.768595
0.331069
0.333955
0.510693
0.338828
0.705569
0.692827
0.334319
0.421235
0.698702
0.35135
0.729085
0.721661
0.696157
0.697181
0.662984
0.335901
0.32388
0.688166
0.33092
0.48774
0.439066
0.6966
0.696634
0.417944
0.332432
0.557788
0.332469
0.697023
0.708244
0.334667
0.34741
0.334723
0.70658
0.331538
0.557714
0.715712
0.681472
0.327638
0.536476
0.714087
0.700289
0.330779
0.700534
0.687465
0.345035
0.711622
0.698206
0.3332
0.335936
0.696587
0.332996
0.330345
0.699953
0.44774
0.705345
0.734564
0.709076
0.691015
0.716041
0.697439
0.694703
0.332186
0.473245
0.692615
0.707075
0.493358
0.703284
0.424194
0.702232
0.697573
0.575892
0.73285
0.480895
0.500641
0.704664
0.715969
0.687499
0.700301
0.699999
0.557612
0.701137
0.5578
0.69923
0.695154
0.69952
0.557856
0.69466
0.348005
0.693513
0.352114
0.697837
0.709433
0.722248
0.694036
0.729986
0.345318
0.325488
0.433851
0.331019
0.695866
0.326475
0.333257
0.717464
0.327069
0.721032
0.324139
0.699293
0.709078
0.335742
0.464093
0.368508
0.699486
0.343267
0.706027
0.711875
0.328018
0.694159
0.558812
0.377809
0.354466
0.329787
0.717126
0.336003
0.697928
0.651862
0.399889
0.700363
0.703311
0.707332
0.334698
0.659303
0.353736
0.700365
0.696173
0.697942
0.335687
0.706646
0.698944
0.691196
0.47039
0.700408
0.335478
0.332954
0.695983
0.501731
0.704226
0.467928
0.335483
0.486706
0.693506
0.352193
0.347504
0.336007
0.552921
0.553659
0.710375
0.345916
0.678888
0.705647
0.552011
0.509252
0.364457
0.560164
0.335953
0.331852
0.702789
0.333267
0.334388
0.700095
0.701161
0.323722
0.712773
0.32434
0.557209
0.355542
0.694776
0.664212
0.728101
0.689151
0.357089
0.332103
0.349948
0.696312
0.69688
0.577168
0.55868
0.458643
0.424979
0.702523
0.332401
0.705757
0.460953
0.669873
0.726416
0.322592
0.344574
0.333097
0.33231
0.347973
0.687614
0.696737
0.325202
0.709221
0.709315
0.400531
0.361624
0.702193
0.335154
0.708434
0.479595
0.728353
0.733618
0.708186
0.552728
0.351512
0.706848
0.697229
0.700247
0.335575
0.686532
0.583783
0.371781
0.699368
0.699449
0.700104
0.698422
0.701883
0.696368
0.700641
0.697233
0.702275
0.335737
0.708638
0.333076
0.520184
0.697821
0.350636
0.698696
0.687876
0.378176
0.691607
0.335708
0.344543
0.696115
0.684699
0.701193
0.333675
0.698166
0.684908
0.355299
0.325129
0.69663
0.696579
0.463952
0.340901
0.71755
0.701939
0.336146
0.720434
0.701766
0.765376
0.323338
0.335253
0.348433
0.736086
0.387541
0.701133
0.718708
0.702803
0.679595
0.708686
0.333861
0.697711
0.594895
0.701996
0.674927
0.351442
0.331746
0.368697
0.709161
0.712085
0.477245
0.733444
0.360919
0.702412
0.698427
0.361431
0.686921
0.701589
0.686603
0.324402
0.326295
0.36333
0.712218
0.70373
0.682401
0.52379
0.708651
0.334612
0.699053
0.555889
0.706633
0.323725
0.596015
0.380068
0.69025
0.370351
0.705447
0.696327
0.345816
0.711785
0.52337
0.557763
0.706137
0.557746
0.699834
0.477806
0.701849
0.704171
0.697064
0.705935
0.500023
0.557593
0.339265
0.704848
0.368038
0.331777
0.378872
0.347074
0.335743
0.324392
0.701024
0.45718
0.348753
0.720004
0.712392
0.697301
0.432229
0.727044
0.733239
0.69713
0.346816
0.675415
0.697856
0.368571
0.343072
0.332258
0.691438
0.517643
0.334504
0.676639
0.316641
0.552168
0.514309
0.328652
0.501642
0.73621
0.366011
0.696808
0.365979
0.626306
0.460993
0.699405
0.461369
0.712246
0.557808
0.683199
0.508129
0.332255
0.699408
0.70275
0.345224
0.345937
0.696594
0.331641
0.721984
0.326273
0.558292
0.366716
0.697615
0.362603
0.701932
0.331259
0.69824
0.709075
0.715897
0.557842
0.3389
0.352809
0.427936
0.696241
0.717174
0.692867
0.669725
0.373916
0.717109
0.365304
0.696604
0.680355
0.46275
0.392613
0.721535
0.70458
0.354252
0.627077
0.699961
0.720315
0.70845
0.368296
0.70671
0.333851
0.71971
0.38632
0.688644
0.69476
0.699728
0.701178
0.401621
0.699648
0.335466
0.333161
0.696917
0.55774
0.5702
0.706151
0.557545
0.334932
0.71187
0.698768
0.701056
0.346592
0.486473
0.727491
0.325881
0.705134
0.699031
0.699386
0.699272
0.401657
0.506466
0.750344
0.348246
0.697675
0.702373
0.526937
0.695749
0.410101
0.688861
0.711639
0.740927
0.696792
0.326555
0.351836
0.706924
0.699481
0.373023
0.404753
0.359086
0.350862
0.347598
0.341733
0.35488
0.336032
0.706951
0.367805
0.323078
0.716615
0.570446
0.557688
0.4704
0.332972
0.705831
0.516937
0.580568
0.704659
0.457257
0.757213
0.684574
0.592347
0.700364
0.341764
0.710364
0.694772
0.331666
0.332819
0.466484
0.686855
0.592118
0.701907
0.696426
0.707315
0.701616
0.393967
0.710141
0.694951
0.698177
0.332823
0.697441
0.676762
0.389633
0.488018
0.333423
0.355779
0.347307
0.672209
0.730051
0.705346
0.332118
0.46844
0.700779
0.339814
0.712503
0.704446
0.699685
0.737804
0.707741
0.366376
0.354807
0.350418
0.659867
0.384552
0.70658
0.35041
0.696849
0.697236
0.709629
0.360175
0.503763
0.475991
0.708828
0.336965
0.332194
0.698212
0.70004
0.689136
0.696438
0.69699
0.724423
0.336154
0.592376
0.716591
0.534219
0.70837
0.714718
0.723816
0.487368
0.476752
0.700923
0.512815
0.682466
0.334167
0.695762
0.698807
0.424265
0.388427
0.700213
0.538037
0.71696
0.712974
0.336031
0.329562
0.559719
0.504118
0.441503
0.698843
0.696465
0.383991
0.700392
0.561047
0.694289
0.336316
0.666721
0.335976
0.697894
0.713463
0.724973
0.7048
0.569878
0.420365
0.422045
0.708929
0.334944
0.590226
0.395687
0.708911
0.350706
0.720843
0.717919
0.553497
0.335707
0.557738
0.55697
0.331459
0.695896
0.326528
0.700596
0.335293
0.32368
0.356046
0.712018
0.700142
0.435606