# vtk DataFile Version 1.0
unstructured grid
ascii
DATASET UNSTRUCTURED_GRID
points 13672 float
0.0796578 -0.059106 0
0.00128732 0.00159165 0
0.00227961 -0.00102548 0
0.0791586 -0.0598787 0
-0.0546216 0.01 0
0.000495206 0.025 0
0.0800549 -0.035 0
0.135172 -0.08 0
-0.0546216 -0.0451168 0
0.000495206 -0.0301168 0
0.0800549 -0.0901168 0
0.135172 -0.135117 0
-0.0546216 -0.0451168 -0.00551168
0.000495206 -0.0301168 -0.00551168
0.0800549 -0.0901168 -0.00551168
0.135172 -0.135117 -0.00551168
0.135172 -0.08 -0.00551168
0.0800549 -0.035 -0.00551168
0.000495206 0.025 -0.00551168
-0.0546216 0.01 -0.00551168
0.00128732 0.00159165 -0.00551168
0.00227961 -0.00102548 -0.00551168
0.0791586 -0.0598787 -0.00551168
0.0796578 -0.059106 -0.00551168
0.00165953 -0.000990923 0
0.00119576 -0.000874076 0
0.000866021 -0.000641801 0
0.000645147 -0.000349912 0
0.00052235 -1.7281e-05 0
0.00049972 0.000348016 0
0.000601632 0.000737716 0
0.000861774 0.0011403 0
0.00157235 0.00183217 0
0.00188647 0.00206725 0
0.00222612 0.00230203 0
0.00258713 0.00254351 0
0.00296826 0.00279524 0
0.00337118 0.00305664 0
0.00379785 0.00332658 0
0.00425045 0.00360349 0
0.00473139 0.00388521 0
0.0052432 0.00416895 0
0.0057881 0.00445204 0
0.00636753 0.00473281 0
0.00698281 0.00500961 0
0.00763526 0.00528058 0
0.00832616 0.00554366 0
0.00905691 0.00579603 0
0.00982918 0.00603333 0
0.0106445 0.00625033 0
0.0115038 0.00644128 0
0.0124073 0.00660297 0
0.0133543 0.00673414 0
0.0143444 0.00683382 0
0.0153769 0.00690031 0
0.0164512 0.00693173 0
0.0175666 0.00692547 0
0.0187219 0.00687822 0
0.0199156 0.00678477 0
0.0211454 0.00663864 0
0.0224084 0.00643275 0
0.0237018 0.00616676 0
0.0250249 0.00584739 0
0.026375 0.00547298 0
0.0277479 0.00503752 0
0.0291386 0.00453545 0
0.0305433 0.0039653 0
0.0319572 0.0033256 0
0.0333681 0.00260019 0
0.034775 0.00179799 0
0.0361793 0.000930615 0
0.0375798 3.12222e-06 0
0.0389689 -0.000988429 0
0.0403357 -0.00205109 0
0.041675 -0.00318283 0
0.0429849 -0.00437751 0
0.0442643 -0.00562904 0
0.0455126 -0.00693089 0
0.0467314 -0.00827518 0
0.0479204 -0.00965638 0
0.0490661 -0.0110799 0
0.0501515 -0.0125519 0
0.0511696 -0.0140695 0
0.0521492 -0.0156071 0
0.0531202 -0.0171411 0
0.0540851 -0.0186663 0
0.0550431 -0.0201798 0
0.0559923 -0.0216793 0
0.0569311 -0.0231626 0
0.0578582 -0.0246273 0
0.0587723 -0.0260715 0
0.0596721 -0.027493 0
0.0605563 -0.02889 0
0.0614241 -0.0302609 0
0.0622742 -0.0316042 0
0.063106 -0.0329183 0
0.0639186 -0.034202 0
0.0647113 -0.0354543 0
0.0654835 -0.0366743 0
0.0662345 -0.0378613 0
0.0669642 -0.0390145 0
0.0676726 -0.0401333 0
0.0683597 -0.0412172 0
0.0690246 -0.0422665 0
0.0696662 -0.0432819 0
0.0702841 -0.0442636 0
0.0708793 -0.0452111 0
0.0714538 -0.0461237 0
0.072009 -0.047001 0
0.0725452 -0.0478434 0
0.0730611 -0.0486524 0
0.073556 -0.0494294 0
0.0740291 -0.0501756 0
0.0744812 -0.0508916 0
0.0749138 -0.0515773 0
0.0753285 -0.0522331 0
0.0757266 -0.0528592 0
0.076109 -0.0534564 0
0.0764753 -0.0540264 0
0.0768243 -0.054571 0
0.0771553 -0.0550919 0
0.0774679 -0.0555901 0
0.0777617 -0.0560669 0
0.0780369 -0.056523 0
0.0782958 -0.0569578 0
0.0785421 -0.0573703 0
0.0787786 -0.0577603 0
0.0790073 -0.0581279 0
0.0792295 -0.058474 0
0.0794462 -0.0587995 0
0.0798803 -0.0594162 0
0.0800272 -0.0596588 0
0.0800357 -0.0598891 0
0.0799275 -0.0600784 0
0.0797205 -0.0601773 0
0.0794593 -0.0601051 0
0.0789155 -0.0596491 0
0.0786707 -0.0593963 0
0.0784111 -0.0591319 0
0.0781372 -0.0588542 0
0.0778566 -0.0585548 0
0.0775715 -0.0582308 0
0.0772803 -0.0578828 0
0.0769832 -0.0575099 0
0.0766822 -0.0571097 0
0.0763801 -0.0566796 0
0.0760759 -0.0562196 0
0.0757623 -0.0557337 0
0.0754359 -0.0552232 0
0.0750951 -0.0546879 0
0.0747379 -0.054128 0
0.0743626 -0.0535435 0
0.0739688 -0.0529338 0
0.0735559 -0.0522981 0
0.0731238 -0.0516357 0
0.0726718 -0.050946 0
0.0721991 -0.0502288 0
0.0717046 -0.049484 0
0.0711872 -0.0487117 0
0.0706461 -0.047912 0
0.0700804 -0.0470849 0
0.0694892 -0.0462308 0
0.0688718 -0.0453499 0
0.0682271 -0.0444431 0
0.0675544 -0.043511 0
0.0668527 -0.0425546 0
0.0661215 -0.0415748 0
0.06536 -0.040573 0
0.0645676 -0.0395504 0
0.0637439 -0.0385087 0
0.0628887 -0.0374493 0
0.062002 -0.0363741 0
0.0610838 -0.0352847 0
0.0601345 -0.0341831 0
0.0591547 -0.033071 0
0.0581456 -0.0319502 0
0.0571083 -0.0308224 0
0.0560444 -0.0296893 0
0.0549562 -0.028552 0
0.053845 -0.0274126 0
0.0527113 -0.0262746 0
0.051554 -0.0251427 0
0.0503724 -0.0240222 0
0.0491675 -0.0229164 0
0.047941 -0.0218282 0
0.0466955 -0.0207597 0
0.0454337 -0.0197126 0
0.0441592 -0.0186878 0
0.0428751 -0.0176863 0
0.0415841 -0.0167097 0
0.0402878 -0.0157609 0
0.0389879 -0.0148428 0
0.0376864 -0.0139575 0
0.0363853 -0.013107 0
0.0350871 -0.0122931 0
0.0337942 -0.0115164 0
0.0325095 -0.0107772 0
0.0312357 -0.0100756 0
0.0299758 -0.00941024 0
0.0287337 -0.00877784 0
0.0275126 -0.00817571 0
0.0263139 -0.00760375 0
0.0251376 -0.00706528 0
0.0239829 -0.0065649 0
0.0228537 -0.00609619 0
0.0217522 -0.00565563 0
0.0206795 -0.00524226 0
0.0196364 -0.00485507 0
0.0186233 -0.00449318 0
0.0176408 -0.00415577 0
0.016689 -0.00384204 0
0.0157682 -0.00355115 0
0.0148783 -0.00328218 0
0.0140192 -0.00303468 0
0.0131906 -0.00280795 0
0.0123925 -0.00260016 0
0.0116246 -0.00241012 0
0.0108864 -0.00223769 0
0.0101774 -0.00208212 0
0.00949701 -0.00194206 0
0.00884483 -0.0018163 0
0.0082202 -0.0017039 0
0.00762247 -0.00160391 0
0.00705097 -0.00151528 0
0.006505 -0.00143697 0
0.0059838 -0.00136806 0
0.00548662 -0.00130772 0
0.00501265 -0.00125519 0
0.00456114 -0.00120954 0
0.00413136 -0.00116914 0
0.00372257 -0.00113251 0
0.00333398 -0.00109853 0
0.00296466 -0.00106798 0
0.00261363 -0.0010431 0
-0.052721 -0.0445996 0
-0.0508204 -0.0440823 0
-0.0489199 -0.0435651 0
-0.0470193 -0.0430478 0
-0.0451187 -0.0425306 0
-0.0432181 -0.0420134 0
-0.0413175 -0.0414961 0
-0.039417 -0.0409789 0
-0.0375164 -0.0404616 0
-0.0356158 -0.0399444 0
-0.0337152 -0.0394271 0
-0.0318146 -0.0389099 0
-0.0299141 -0.0383927 0
-0.0280135 -0.0378754 0
-0.0261129 -0.0373582 0
-0.0242123 -0.0368409 0
-0.0223117 -0.0363237 0
-0.0204112 -0.0358065 0
-0.0185106 -0.0352892 0
-0.01661 -0.034772 0
-0.0147094 -0.0342547 0
-0.0128088 -0.0337375 0
-0.0109083 -0.0332202 0
-0.00900769 -0.032703 0
-0.00710711 -0.0321858 0
-0.00520653 -0.0316685 0
-0.00330595 -0.0311513 0
-0.00140537 -0.030634 0
0.00190689 -0.0299614 0
0.00332271 -0.0298498 0
0.00474133 -0.0297825 0
0.00616136 -0.0297597 0
0.0075814 -0.0297814 0
0.00900007 -0.0298477 0
0.010416 -0.0299583 0
0.0118278 -0.0301127 0
0.0132342 -0.0303103 0
0.0146339 -0.0305504 0
0.0160259 -0.0308322 0
0.0174091 -0.0311546 0
0.0187824 -0.0315166 0
0.020145 -0.031917 0
0.0214961 -0.0323546 0
0.0228351 -0.032828 0
0.0241613 -0.0333361 0
0.0254744 -0.0338774 0
0.0267738 -0.0344507 0
0.0280592 -0.0350545 0
0.0293306 -0.0356877 0
0.0305875 -0.0363488 0
0.0318301 -0.0370367 0
0.0330581 -0.0377501 0
0.0342717 -0.0384879 0
0.0354708 -0.0392489 0
0.0366556 -0.0400321 0
0.0378262 -0.0408363 0
0.0389828 -0.0416607 0
0.0401254 -0.0425042 0
0.0412543 -0.0433659 0
0.0423698 -0.0442451 0
0.043472 -0.0451408 0
0.0445612 -0.0460523 0
0.0456375 -0.0469789 0
0.0467013 -0.0479199 0
0.0477529 -0.0488746 0
0.0487923 -0.0498424 0
0.04982 -0.0508227 0
0.0508362 -0.051815 0
0.051841 -0.0528187 0
0.0528348 -0.0538333 0
0.0538178 -0.0548584 0
0.0547903 -0.0558935 0
0.0557524 -0.0569382 0
0.0567045 -0.0579922 0
0.0576467 -0.0590549 0
0.0585792 -0.0601261 0
0.0595024 -0.0612055 0
0.0604163 -0.0622926 0
0.0613212 -0.0633873 0
0.0622174 -0.0644891 0
0.0631049 -0.0655979 0
0.0639841 -0.0667134 0
0.064855 -0.0678353 0
0.0657179 -0.0689633 0
0.0665729 -0.0700974 0
0.0674202 -0.0712372 0
0.06826 -0.0723826 0
0.0690925 -0.0735333 0
0.0699178 -0.0746892 0
0.070736 -0.0758501 0
0.0715473 -0.0770159 0
0.0723518 -0.0781863 0
0.0731498 -0.0793612 0
0.0739412 -0.0805405 0
0.0747264 -0.081724 0
0.0755053 -0.0829116 0
0.0762781 -0.0841033 0
0.0770449 -0.0852987 0
0.0778059 -0.0864979 0
0.0785611 -0.0877007 0
0.0793108 -0.088907 0
0.0814681 -0.0912706 0
0.0828814 -0.0924245 0
0.0842946 -0.0935783 0
0.0857079 -0.0947322 0
0.0871211 -0.095886 0
0.0885344 -0.0970399 0
0.0899476 -0.0981937 0
0.0913609 -0.0993476 0
0.0927741 -0.100501 0
0.0941874 -0.101655 0
0.0956006 -0.102809 0
0.0970139 -0.103963 0
0.0984272 -0.105117 0
0.0998404 -0.106271 0
0.101254 -0.107424 0
0.102667 -0.108578 0
0.10408 -0.109732 0
0.105493 -0.110886 0
0.106907 -0.11204 0
0.10832 -0.113194 0
0.109733 -0.114348 0
0.111146 -0.115501 0
0.11256 -0.116655 0
0.113973 -0.117809 0
0.115386 -0.118963 0
0.116799 -0.120117 0
0.118213 -0.121271 0
0.119626 -0.122424 0
0.121039 -0.123578 0
0.122452 -0.124732 0
0.123866 -0.125886 0
0.125279 -0.12704 0
0.126692 -0.128194 0
0.128105 -0.129348 0
0.129519 -0.130501 0
0.130932 -0.131655 0
0.132345 -0.132809 0
0.133758 -0.133963 0
0.135172 -0.133216 0
0.135172 -0.131316 0
0.135172 -0.129415 0
0.135172 -0.127514 0
0.135172 -0.125614 0
0.135172 -0.123713 0
0.135172 -0.121813 0
0.135172 -0.119912 0
0.135172 -0.118012 0
0.135172 -0.116111 0
0.135172 -0.11421 0
0.135172 -0.11231 0
0.135172 -0.110409 0
0.135172 -0.108509 0
0.135172 -0.106608 0
0.135172 -0.104708 0
0.135172 -0.102807 0
0.135172 -0.100906 0
0.135172 -0.0990058 0
0.135172 -0.0971052 0
0.135172 -0.0952046 0
0.135172 -0.0933041 0
0.135172 -0.0914035 0
0.135172 -0.0895029 0
0.135172 -0.0876023 0
0.135172 -0.0857017 0
0.135172 -0.0838012 0
0.135172 -0.0819006 0
0.133758 -0.0788462 0
0.132345 -0.0776923 0
0.130932 -0.0765385 0
0.129519 -0.0753846 0
0.128105 -0.0742308 0
0.126692 -0.0730769 0
0.125279 -0.0719231 0
0.123866 -0.0707692 0
0.122452 -0.0696154 0
0.121039 -0.0684615 0
0.119626 -0.0673077 0
0.118213 -0.0661538 0
0.116799 -0.065 0
0.115386 -0.0638462 0
0.113973 -0.0626923 0
0.11256 -0.0615385 0
0.111146 -0.0603846 0
0.109733 -0.0592308 0
0.10832 -0.0580769 0
0.106907 -0.0569231 0
0.105493 -0.0557692 0
0.10408 -0.0546154 0
0.102667 -0.0534615 0
0.101254 -0.0523077 0
0.0998404 -0.0511538 0
0.0984272 -0.05 0
0.0970139 -0.0488462 0
0.0956006 -0.0476923 0
[...]
CELL_DATA 13116
SCALARS rho float
LOOKUP_TABLE default
0.5977
0.686592
0.497038
0.696955
0.699571
0.689719
0.36553
0.702084
0.5977
0.702532
0.343227
0.502687
0.699855
0.439553
0.457904
0.689785
0.5977
0.597449
0.689372
0.338851
0.5977
0.50403
0.481595
0.679485
0.5977
0.706544
0.702627
0.562158
0.5977
0.5977
0.688789
0.48948
0.5977
0.597699
0.372328
0.5977
0.5977
0.689388
0.689506
0.701801
0.6893
0.701042
0.5977
0.470464
0.689115
0.689628
0.703819
0.688764
0.490831
0.5977
0.699765
0.5977
0.396614
0.5977
0.5977
0.5977
0.467943
0.686788
0.5977
0.475044
0.443395
0.700741
0.68594
0.689532
0.689027
0.416703
0.689544
0.5977
0.689276
0.689059
0.45719
0.5977
0.509511
0.446699
0.616762
0.422556
0.597702
0.696699
0.347296
0.597704
0.59654
0.708448
0.707627
0.688956
0.699546
0.582237
0.379234
0.5977
0.708453
0.336361
0.500374
0.687699
0.709621
0.706784
0.5977
0.5977
0.5977
0.675883
0.660676
0.5977
0.5977
0.597704
0.689391
0.597698
0.711564
0.484605
0.560881
0.5977
0.52183
0.5977
0.5977
0.707734
0.5977
0.597683
0.597706
0.689195
0.402223
0.584456
0.696714
0.698672
0.5977
0.52414
0.68931
0.500702
0.707221
0.597714
0.385701
0.5977
0.497437
0.5977
0.697394
0.689452
0.59771
0.49565
0.5977
0.5977
0.557643
0.698413
0.5977
0.699438
0.5977
0.699692
0.5977
0.5977
0.631907
0.456936
0.369605
0.70796
0.697951
0.701019
0.5977
0.688903
0.688747
0.383684
0.70069
0.702516
0.495995
0.5977
0.679265
0.5977
0.672484
0.343435
0.697072
0.498926
0.53095
0.700435
0.707184
0.597676
0.369789
0.593792
0.584383
0.557816
0.454491
0.5977
0.689541
0.481187
0.473247
0.508089
0.707138
0.689726
0.336375
0.597436
0.5977
0.5977
0.689592
0.5977
0.383237
0.689
0.707361
0.5977
0.5977
0.708
0.688985
0.507377
0.706081
0.688807
0.702818
0.6889
0.708539
0.597698
0.597699
0.5977
0.597699
0.454063
0.696655
0.689187
0.5977
0.5977
0.465333
0.336126
0.419249
0.689317
0.503879
0.336137
0.336181
0.388819
0.579567
0.689353
0.707196
0.57769
0.460072
0.689551
0.5977
0.336401
0.5977
0.70094
0.605458
0.567249
0.68953
0.568729
0.702572
0.490945
0.68945
0.5977
0.648403
0.705422
0.689023
0.499507
0.597715
0.5977
0.601089
0.68889
0.557664
0.689542
0.70391
0.478631
0.698681
0.70099
0.666349
0.355634
0.494964
0.688727
0.69605
0.689604
0.689518
0.5977
0.5977
0.340903
0.51524
0.597715
0.462966
0.709966
0.702401
0.597702
0.361307
0.689363
0.397514
0.581992
0.712084
0.354962
0.707339
0.700172
0.54843
0.686584
0.496727
0.551635
0.588416
0.677042
0.695764
0.341873
0.37063
0.509166
0.5977
0.519659
0.512571
0.552132
0.542418
0.690032
0.406176
0.707464
0.699628
0.371868
0.337826
0.392079
0.597714
0.534252
0.5977
0.5977
0.70801
0.351288
0.689148
0.5977
0.522141
0.473965
0.689536
0.695927
0.688908
0.388417
0.688868
0.597698
0.689741
0.700461
0.70093
0.70042
0.510908
0.689471
0.436809
0.689751
0.702034
0.5977
0.336479
0.550499
0.700543
0.392439
0.711234
0.700922
0.594952
0.5977
0.705119
0.380703
0.689476
0.709314
0.43526
0.696851
0.580206
0.5977
0.707269
0.581968
0.5977
0.361007
0.590639
0.555008
0.689347
0.680537
0.703207
0.561994
0.564747
0.696522
0.379956
0.696421
0.708139
0.596868
0.557626
0.380264
0.487822
0.688489
0.5977
0.5977
0.376559
0.499678
0.698427
0.699808
0.363865
0.699193
0.417718
0.489654
0.689721
0.705889
0.5977
0.336239
0.694183
0.688903
0.689768
0.688319
0.693815
0.5977
0.595158
0.45377
0.336368
0.689772
0.33634
0.5977
0.594612
0.50403
0.561166
0.5977
0.50648
0.374735
0.688589
0.509779
0.69916
0.5977
0.689406
0.5977
0.6986
0.491982
0.36801
0.597699
0.579367
0.688937
0.5977
0.689332
0.5977
0.634188
0.5977
0.708854
0.5977
0.5977
0.692815
0.597701
0.689647
0.597716
0.5977
0.5977
0.494262
0.5977
0.5977
0.394285
0.689485
0.557521
0.513153
0.336253
0.336232
0.373856
0.5977
0.415431
0.507267
0.689429
0.41592
0.5977
0.336245
0.689334
0.671096
0.564933
0.496017
0.688716
0.597704
0.336209
0.373206
0.336392
0.524807
0.368551
0.336219
0.521184
0.584461
0.335712
0.597704
0.559453
0.709226
0.597705
0.499913
0.597142
0.460429
0.336277
0.462879
0.701402
0.591407
0.5977
0.5977
0.410092
0.5977
0.707941
0.581358
0.5977
0.5977
0.5977
0.367098
0.658948
0.584104
0.694342
0.684302
0.525705
0.403498
0.706681
0.585165
0.581445
0.705046
0.56036
0.5977
0.67564
0.33792
0.46825
0.440749
0.597699
0.469593
0.42041
0.453962
0.433984
0.698788
0.699844
0.597713
0.5977
0.597712
0.705997
0.570573
0.408014
0.5977
0.528617
0.690045
0.543913
0.570773
0.59771
0.688933
0.707587
0.5977
0.595292
0.398119
0.5977
0.701562
0.689469
0.5977
0.719873
0.711699
0.335803
0.661157
0.5977
0.5977
0.552238
0.532061
0.597704
0.704696
0.5977
0.70231
0.709672
0.707338
0.630557
0.5977
0.689326
0.33628
0.688908
0.55837
0.472624
0.336071
0.697697
0.689086
0.545891
0.70642
0.5977
0.336492
0.689004
0.692384
0.686551
0.558382
0.402838
0.697221
0.336057
0.336287
0.469592
0.335964
0.690396
0.428319
0.696578
0.553619
0.686737
0.699604
0.689351
0.700014
0.336162
0.336295
0.689446
0.702528
0.5977
0.699333
0.701065
0.594335
0.375931
0.536923
0.689027
0.5977
0.336294
0.597645
0.503371
0.705344
0.689698
0.550105
0.509745
0.709846
0.583806
0.68905
0.5977
0.491194
0.56843
0.5977
0.569147
0.503205
0.707655
0.70705
0.689262
0.408728
0.55738
0.458153
0.634915
0.5977
0.336258
0.578185
0.514537
0.647507
0.522439
0.359306
0.587487
0.68922
0.687829
0.355887
0.511792
0.336196
0.689354
0.514847
0.688952
0.454044
0.5977
0.701459
0.597706
0.494665
0.485927
0.594823
0.54093
0.707913
0.398626
0.42297
0.688824
0.421606
0.689307
0.710175
0.667748
0.336192
0.690164
0.7043
0.701617
0.689096
0.707835
0.6878
0.475143
0.68947
0.579167
0.690507
0.343225
0.703424
0.5977
0.377721
0.689004
0.696863
0.386299
0.5977
0.499443
0.452848
0.689439
0.699006
0.504172
0.463855
0.350894
0.475742
0.706343
0.680004
0.403854
0.342247
0.696309
0.700317
0.5977
0.703275
0.689617
0.341499
0.702054
0.587317
0.699604
0.592776
0.5977
0.595173
0.689492
0.5977
0.5977
0.566524
0.552594
0.689032
0.5977
0.5977
0.702179
0.45566
0.652564
0.700547
0.57126
0.5977
0.702613
0.590927
0.689231
0.5977
0.549433
0.700109
0.5977
0.498441
0.686951
0.507149
0.709672
0.446159
0.689241
0.6857
0.553638
0.689485
0.698313
0.697585
0.5977
0.686121
0.5977
0.542583
0.5977
0.506293
0.444595
0.557649
0.5977
0.688144
0.697797
0.336395
0.546905
0.686729
0.701332
0.688832
0.700469
0.33616
0.5977
0.700772
0.337452
0.508179
0.696803
0.688718
0.710432
0.480838
0.5977
0.585123
0.687364
0.717599
0.689876
0.689813
0.336225
0.689713
0.707938
0.707881
0.704956
0.689593
0.578565
0.693562
0.33632
0.590992
0.700563
0.594421
0.676043
0.68971
0.699516
0.5977
0.597718
0.5977
0.5977
0.336032
0.336274
0.359514
0.33576
0.6863
0.638596
0.689546
0.546138
0.336008
0.689201
0.5977
0.431858
0.549474
0.597001
0.597705
0.688882
0.689951
0.600581
0.335906
0.336103
0.557606
0.499521
0.336224
0.403786
0.689526
0.585399
0.336312
0.5977
0.68947
0.707262
0.689842
0.688805
0.404549
0.436305
0.354247
0.5977
0.590919
0.493847
0.5977
0.593903
0.710802
0.689128
0.485012
0.33608
0.702426
0.336253
0.689585
0.685944
0.687649
0.504206
0.336446
0.710372
0.689365
0.5977
0.431405
0.690387
0.689833
0.5977
0.700708
0.701185
0.556161
0.719697
0.336247
0.688768
0.689532
0.5977
0.68666
0.557728
0.708207
0.553463
0.689231
0.420537
0.448151
0.336149
0.689606
0.5977
0.336231
0.687576
0.696364
0.500327
0.5977
0.581897
0.5977
0.5977
0.49644
0.700392
0.583659
0.336253
0.597699
0.688931
0.472421
0.706854
0.427125
0.481758
0.5977
0.5977
0.597267
0.689324
0.36516
0.69685
0.46403
0.49001
0.689253
0.336289
0.5977
0.501502
0.5977
0.5977
0.554162
0.707186
0.452689
0.427992
0.597694
0.5977
0.688871
0.5977
0.5977
0.689403
0.711128
0.5977
0.5977
0.706443
0.702559
0.689248
0.556896
0.336293
0.597699
0.706039
0.70436
0.592298
0.689454
0.5977
0.597698
0.502791
0.5977
0.597704
0.557667
0.648171
0.606715
0.591323
0.689572
0.597706
0.494355
0.5977
0.597122
0.69992
0.688853
0.540664
0.708673
0.698879
0.457557
0.489238
0.389717
0.557717
0.342775
0.5977
0.687021
0.5977
0.528577
0.689725
0.453488
0.5977
0.689274
0.689739
0.5977
0.689313
0.5977
0.597386
0.5977
0.690457
0.449481
0.689036
0.689333
0.5977
0.55968
0.682717
0.512576
0.455832
0.476646
0.700553
0.336237
0.549049
0.354364
0.702618
0.4067
0.594837
0.47595
0.692599
0.699943
0.5977
0.532363
0.5977
0.689193
0.337065
0.5977
0.70022
0.492662
0.5977
0.683643
0.700717
0.689587
0.525364
0.5977
0.693898
0.689445
0.591161
0.336297
0.597709
0.689344
0.55735
0.573269
0.557689
0.5977
0.689407
0.5977
0.701663
0.336295
0.456969
0.557638
0.69876
0.689263
0.423651
0.688928
0.5977
0.5977
0.44545
0.57663
0.699281
0.698557
0.5977
0.589268
0.689216
0.564021
0.362999
0.5977
0.597744
0.364519
0.499312
0.439324
0.706718
0.518301
0.336277
0.688959
0.5977
0.702047
0.5977
0.372323
0.372389
0.699867
0.450411
0.416041
0.688809
0.502341
0.574826
0.5977
0.708008
0.689945
0.335913
0.595625
0.346235
0.698804
0.487751
0.69012
0.418862
0.688489
0.7066
0.689014
0.717097
0.688661
0.716968
0.689018
0.700118
0.689569
0.423472
0.342006
0.687318
0.689642
0.597154
0.707626
0.5977
0.689473
0.5977
0.558942
0.689367
0.701378
0.689642
0.360504
0.689491
0.528801
0.68889
0.594585
0.597666
0.689112
0.498077
0.688953
0.336137
0.597699
0.685417
0.409287
0.5977
0.557708
0.704514
0.378348
0.68935
0.33587
0.50357
0.504598
0.336213
0.5977
0.458857
0.5977
0.689354
0.589263
0.508889
0.59407
0.5977
0.5977
0.652661
0.336228
0.399607
0.360032
0.473802
0.530892
0.5977
0.708603
0.566657
0.689683
0.686897
0.435863
0.700955
0.5977
0.689365
0.348721
0.610439
0.686373
0.695002
0.701671
0.469094
0.690242
0.697097
0.68964
0.5977
0.689607
0.515009
0.505392
0.688967
0.5977
0.336344
0.689277
0.492144
0.5977
0.5977
0.709943
0.710127
0.499825
0.708048
0.597712
0.360676
0.5977
0.697379
0.698212
0.69852
0.5977
0.504098
0.699725
0.472283
0.596821
0.700391
0.652728
0.690698
0.355755
0.518573
0.700628
0.523655
0.697283
0.5977
0.594189
0.539416
0.700636
0.499836
0.689114
0.697373
0.597701
0.500985
0.452678
0.597699
0.5977
0.5977
0.597699
0.688778
0.66999
0.708294
0.557746
0.688194
0.381673
0.5357
0.696601
0.689555
0.597362
0.592215
0.447432
0.627457
0.450229
0.689641
0.5977
0.589033
0.689464
0.336431
0.70675
0.498937
0.699072
0.492416
0.689795
0.68966
0.499352
0.707308
0.5977
0.505271
0.689638
0.689019
0.5977
0.456517
0.58867
0.597698
0.703616
0.586377
0.555611
0.5977
0.687678
0.688903
0.529683
0.5977
0.690377
0.582779
0.68881
0.689894
0.538356
0.689453
0.680243
0.489976
0.5977
0.364071
0.5977
0.37176
0.482778
0.703954
0.336382
0.336237
0.447817
0.689449
0.688645
0.597713
0.689332
0.583359
0.592439
0.335987
0.689331
0.595075
0.689538
0.689037
0.5977
0.689467
0.5977
0.689497
0.68915
0.533521
0.5977
0.5977
0.5977
0.688229
0.595289
0.597702
0.699822
0.33744
0.5977
0.585904
0.689356
0.421833
0.505732
0.58166
0.689116
0.336892
0.700559
0.597216
0.557715
0.700508
0.631563
0.33626
0.700012
0.336217
0.503429
0.707285
0.665139
0.70125
0.709574
0.487432
0.37732
0.349349
0.688588
0.689219
0.585208
0.707868
0.415303
0.377691
0.428892
0.707907
0.590555
0.700466
0.689289
0.5977
0.70034
0.689799
0.5977
0.597701
0.58132
0.503231
0.336478
0.62279
0.597871
0.429336
0.5977
0.705486
0.5977
0.523011
0.5977
0.676638
0.537968
0.621064
0.5977
0.336156
0.689449
0.687051
0.336448
0.689906
0.411194
0.688313
0.703231
0.689053
0.454358
0.588451
0.5977
0.54281
0.58157
0.68879
0.548243
0.689713
0.689431
0.707543
0.597633
0.597729
0.688701
0.5977
0.689319
0.562113
0.697849
0.478375
0.448918
0.688819
0.689043
0.689221
0.524984
0.689184
0.5977
0.609001
0.405122
0.415676
0.33622
0.698685
0.358655
0.421221
0.491897
0.5977
0.417072
0.539625
0.58273
0.69015
0.336143
0.689457
0.689242
0.702994
0.383744
0.689211
0.5977
0.689689
0.578145
0.5977
0.373614
0.337292
0.689379
0.336897
0.5977
0.687101
0.556885
0.33614
0.551345
0.381775
0.5977
0.557722
0.526761
0.689248
0.689411
0.592919
0.336021
0.468737
0.55595
0.713412
0.336175
0.557719
0.5977
0.689293
0.689637
0.340528
0.5977
0.477909
0.5977
0.5977
0.702054
0.5977
0.5977
0.5977
0.595116
0.69672
0.352651
0.597714
0.424374
0.597707
0.5977
0.654804
0.336091
0.586953
0.692545
0.689109
0.6897
0.336477
0.701739
0.5977
0.5977
0.611421
0.533205
0.336248
0.539724
0.689253
0.689365
0.5977
0.706212
0.554634
0.704957
0.5977
0.689289
0.689617
0.704313
0.701286
0.689333
0.681776
0.697235
0.529029
0.689304
0.698698
0.689585
0.689178
0.688934
0.5977
0.336449
0.495341
0.5977
0.336103
0.595531
0.702172
0.440709
0.5977
0.689202
0.687178
0.689243
0.519738
0.702451
0.50608
0.442483
0.689334
0.690036
0.689105
0.393125
0.698657
0.689298
0.597706
0.688815
0.492481
0.689699
0.700457
0.685946
0.597703
0.644579
0.340721
0.696606
0.418162
0.336416
0.5977
0.596528
0.700642
0.695522
0.689593
0.484142
0.689571
0.597709
0.44703
0.70878
0.593141
0.336336
0.689275
0.506523
0.597697
0.5977
0.68471
0.711767
0.594516
0.5977
0.5977
0.689134
0.5977
0.698536
0.597699
0.700541
0.706312
0.5977
0.480524
0.345896
0.595116
0.698032
0.51342
0.5977
0.700061
0.5977
0.689149
0.5977
0.5977
0.597709
0.349565
0.701577
0.708347
0.5977
0.708935
0.700081
0.708113
0.688973
0.336005
0.431807
0.690815
0.5977
0.5977
0.699498
0.688933
0.68913
0.70597
0.702682
0.5977
0.670414
0.702229
0.436053
0.510804
0.427078
0.571368
0.552386
0.597712
0.5977
0.690039
0.597535
0.512616
0.68921
0.696277
0.399412
0.573682
0.569996
0.690593
0.543055
0.483457
0.470965
0.557791
0.707074
0.597699
0.38068
0.336188
0.495782
0.581195
0.336188
0.703543
0.688947
0.685186
0.355117
0.687984
0.5977
0.5977
0.550801
0.337128
0.708579
0.559671
0.336312
0.689243
0.336378
0.625148
0.527965
0.702757
0.357551
0.705292
0.699672
0.377219
0.5977
0.528002
0.700657
0.503921
0.5977
0.487011
0.5977
0.371518
0.5977
0.336449
0.689601
0.688791
0.5977
0.689014
0.555895
0.689537
0.689779
0.699346
0.5977
0.591757
0.336568
0.5977
0.425744
0.707378
0.540114
0.698818
0.5977
0.623065
0.700386
0.5977
0.693994
0.448607
0.436604
0.434931
0.5977
0.5977
0.689288
0.348922
0.50633
0.689338
0.571172
0.497525
0.5977
0.576215
0.336305
0.492921
0.70095
0.5977
0.5977
0.471519
0.689375
0.68954
0.492528
0.555705
0.708335
0.688686
0.5977
0.597708
0.57686
0.562426
0.378577
0.706111
0.597701
0.5977
0.5977
0.470463
0.5977
0.337632
0.689129
0.698258
0.336175
0.520414
0.597703
0.5977
0.699775
0.697414
0.701693
0.70103
0.70023
0.396187
0.500132
0.429909
0.340532
0.5977
0.684974
0.5977
0.336405
0.336433
0.5977
0.49743
0.68911
0.683119
0.336183
0.54975
0.689271
0.503832
0.5977
0.695746
0.700753
0.689217
0.5977
0.336385
0.366861
0.667133
0.336193
0.597698
0.597714
0.689142
0.688607
0.53239
0.336087
0.557641
0.337407
0.68979
0.708052
0.336333
0.460403
0.403008
0.689311
0.406123
0.557717
0.686876
0.5977
0.489423
0.597701
0.696876
0.689813
0.358086
0.689727
0.5977
0.506426
0.69416
0.699203
0.352564
0.336478
0.710472
0.340476
0.340691
0.690114
0.560338
0.689153
0.5977
0.715741
0.5977
0.698333
0.68956
0.689168
0.351976
0.575164
0.597143
0.690662
0.587816
0.700631
0.561293
0.688287
0.711381
0.5977
0.5977
0.5977
0.597639
0.689087
0.69733
0.707036
0.699898
0.688999
0.550381
0.700867
0.557627
0.707801
0.708655
0.704479
0.558368
0.689142
0.507828
0.708342
0.527039
0.697411
0.688966
0.68686
0.717233
0.597706
0.452054
0.380791
0.546073
0.353327
0.688328
0.349694
0.352549
0.590991
0.483443
0.679095
0.374442
0.690303
0.690226
0.336353
0.570302
0.592206
0.698939
0.466052
0.689226
0.68893
0.388892
0.708525
0.5977
0.597719
0.553763
0.493478
0.5977
0.336467
0.702004
0.5977
0.535804
0.689556
0.689328
0.701996
0.336317
0.5977
0.486962
0.68845
0.689538
0.688531
0.336255
0.690835
0.698016
0.707753
0.595321
0.6988
0.336483
0.335788
0.70497
0.597713
0.701041
0.5977
0.336309
0.585831
0.711021
0.526564
0.508645
0.449621
0.5977
0.654894
0.690109
0.437066
0.5977
0.688927
0.5977
0.5977
0.589412
0.5977
0.336344
0.335947
0.689012
0.335914
0.336139
0.700259
0.698076
0.40368
0.597702
0.399497
0.55176
0.569098
0.708501
0.689306
0.59771
0.689451
0.473771
0.335889
0.499448
0.689541
0.708854
0.5977
0.5977
0.566949
0.544526
0.68935
0.34907
0.689046
0.566683
0.689925
0.5977
0.375078
0.481975
0.336082
0.336116
0.498633
0.597706
0.686273
0.35508
0.689402
0.5977
0.543234
0.450792
0.699555
0.336143
0.690059
0.579295
0.597514
0.5977
0.689373
0.66956
0.438498
0.702662
0.697884
0.700709
0.336438
0.591092
0.5977
0.59272
0.69861
0.5977
0.703437
0.689118
0.700499
0.705308
0.700349
0.689453
0.689109
0.33627
0.70509
0.336159
0.5977
0.688792
0.497336
0.688404
0.716929
0.500133
0.708905
0.336464
0.501303
0.70667
0.68525
0.698244
0.336561
0.687698
0.5977
0.561885
0.356092
0.707612
0.689636
0.571588
0.462785
0.686973
0.698867
0.336352
0.5977
0.699599
0.5977
0.393986
0.336453
0.492911
0.5977
0.494279
0.689505
0.597706
0.689419
0.5977
0.690013
0.336327
0.709526
0.5977
0.699388
0.5977
0.508732
0.355054
0.476601
0.700889
0.68955
0.577628
0.5977
0.597014
0.5977
0.693467
0.45967
0.5977
0.689295
0.5977
0.361522
0.367819
0.576619
0.696821
0.701065
0.5977
0.597708
0.689293
0.336274
0.5977
0.575583
0.690607
0.365725
0.5977
0.505565
0.713018
0.486446
0.689478
0.706793
0.465796
0.695592
0.5977
0.557729
0.5977
0.55768
0.700489
0.597711
0.689455
0.689244
0.689146
0.689705
0.590765
0.573714
0.416776
0.689228
0.471922
0.336418
0.486579
0.493179
0.336205
0.360032
0.700595
0.564133
0.426554
0.5977
0.696898
0.686683
0.597698
0.597705
0.5977
0.689377
0.520102
0.5977
0.689527
0.537985
0.47455
0.335951
0.5977
0.597568
0.336283
0.5977
0.487017
0.654421
0.596907
0.391955
0.594306
0.5977
0.576972
0.689751
0.461659
0.5977
0.570051
0.705258
0.580487
0.5977
0.55818
0.703777
0.5977
0.336409
0.707046
0.700773
0.479039
0.504004
0.689281
0.336265
0.607699
0.354658
0.5977
0.474465
0.689614
0.501899
0.699909
0.336335
0.698107
0.689549
0.697927
0.557083
0.414662
0.495221
0.597698
0.707611
0.592622
0.710793
0.5977
0.501526
0.690893
0.588127
0.709461
0.589135
0.597698
0.537557
0.69762
0.689214
0.483951
0.689747
0.706724
0.697079
0.713334
0.46559
0.5977
0.33618
0.697029
0.497956
0.68904
0.708585
0.707942
0.699649
0.540544
0.698578
0.336345
0.356558
0.689897
0.561423
0.5977
0.689965
0.557452
0.336463
0.594742
0.705899
0.70097
0.503436
0.596417
0.5977
0.3542
0.689596
0.701042
0.68872
0.704494
0.538547
0.597698
0.5977
0.473751
0.710767
0.701196
0.5977
0.707403
0.53315
0.659513
0.590912
0.5977
0.707192
0.368102
0.510541
0.689395
0.690175
0.49061
0.564585
0.4902
0.491427
0.42536
0.50133
0.549228
0.336256
0.690031
0.469788
0.394491
0.686462
0.5977
0.557606
0.582918
0.336065
0.689139
0.597698
0.5977
0.700553
0.577107
0.5977
0.689595
0.5977
0.688932
0.46217
0.689585
0.689174
0.4028
0.335711
0.597698
0.716994
0.5977
0.700641
0.689783
0.690514
0.689767
0.597699
0.68826
0.689054
0.706773
0.336488
0.689377
0.5977
0.59771
0.593378
0.401688
0.478531
0.42773
0.5977
0.5977
0.687088
0.335816
0.573482
0.699758
0.498425
0.688664
0.689254
0.689376
0.5977
0.689066
0.532441
0.48221
0.47531
0.5977
0.493323
0.688846
0.475964
0.689613
0.688918
0.689734
0.560767
0.5977
0.597717
0.689628
0.447336
0.336855
0.702756
0.689184
0.5977
0.689658
0.707724
0.609947
0.336341
0.5977
0.698787
0.597703
0.689823
0.69132
0.692063
0.583869
0.577342
0.700815
0.596606
0.5977
0.336186
0.686177
0.689454
0.597699
0.494604
0.686254
0.597699
0.696869
0.688653
0.336467
0.33654
0.68341
0.5977
0.597698
0.697741
0.70773
0.509471
0.689438
0.686121
0.715791
0.336222
0.5977
0.336416
0.705208
0.697829
0.645197
0.686137
0.687242
0.543175
0.582208
0.688143
0.336137
0.5977
0.52775
0.689266
0.451089
0.5977
0.699014
0.679195
0.336224
0.557645
0.614155
0.338711
0.683878
0.492622
0.700781
0.336268
0.366962
0.460745
0.680066
0.689365
0.553976
0.54473
0.707692
0.699851
0.597712
0.5977
0.336061
0.5977
0.336366
0.68842
0.336548
0.5977
0.705883
0.560447
0.5977
0.362408
0.688894
0.41432
0.337466
0.701598
0.510237
0.590611
0.597698
0.459123
0.700134
0.688469
0.706746
0.5977
0.525553
0.5977
0.507676
0.335881
0.711845
0.689195
0.686832
0.336093
0.580158
0.5977
0.700865
0.5977
0.701165
0.5977
0.698702
0.563524
0.700366
0.700916
0.5977
0.69996
0.504532
0.687312
0.336251
0.503495
0.486119
0.335858
0.700388
0.695376
0.700544
0.688068
0.689933
0.564263
0.597708
0.531352
0.470405
0.339306
0.483986
0.335912
0.689235
0.69749
0.338325
0.453334
0.689345
0.540412
0.597715
0.694341
0.597672
0.5977
0.5977
0.68591
0.59771