# vtk DataFile Version 1.0
unstructured grid
ascii
DATASET UNSTRUCTURED_GRID
points 13672 float
0.0796578 -0.059106 0
0.00128732 0.00159165 0
0.00227961 -0.00102548 0
0.0791586 -0.0598787 0
-0.0546216 0.01 0
0.000495206 0.025 0
0.0800549 -0.035 0
0.135172 -0.08 0
-0.0546216 -0.0451168 0
0.000495206 -0.0301168 0
0.0800549 -0.0901168 0
0.135172 -0.135117 0
-0.0546216 -0.0451168 -0.00551168
0.000495206 -0.0301168 -0.00551168
0.0800549 -0.0901168 -0.00551168
0.135172 -0.135117 -0.00551168
0.135172 -0.08 -0.00551168
0.0800549 -0.035 -0.00551168
0.000495206 0.025 -0.00551168
-0.0546216 0.01 -0.00551168
0.00128732 0.00159165 -0.00551168
0.00227961 -0.00102548 -0.00551168
0.0791586 -0.0598787 -0.00551168
0.0796578 -0.059106 -0.00551168
0.00165953 -0.000990923 0
0.00119576 -0.000874076 0
0.000866021 -0.000641801 0
0.000645147 -0.000349912 0
0.00052235 -1.7281e-05 0
0.00049972 0.000348016 0
0.000601632 0.000737716 0
0.000861774 0.0011403 0
0.00157235 0.00183217 0
0.00188647 0.00206725 0
0.00222612 0.00230203 0
0.00258713 0.00254351 0
0.00296826 0.00279524 0
0.00337118 0.00305664 0
0.00379785 0.00332658 0
0.00425045 0.00360349 0
0.00473139 0.00388521 0
0.0052432 0.00416895 0
0.0057881 0.00445204 0
0.00636753 0.00473281 0
0.00698281 0.00500961 0
0.00763526 0.00528058 0
0.00832616 0.00554366 0
0.00905691 0.00579603 0
0.00982918 0.00603333 0
0.0106445 0.00625033 0
0.0115038 0.00644128 0
0.0124073 0.00660297 0
0.0133543 0.00673414 0
0.0143444 0.00683382 0
0.0153769 0.00690031 0
0.0164512 0.00693173 0
0.0175666 0.00692547 0
0.0187219 0.00687822 0
0.0199156 0.00678477 0
0.0211454 0.00663864 0
0.0224084 0.00643275 0
0.0237018 0.00616676 0
0.0250249 0.00584739 0
0.026375 0.00547298 0
0.0277479 0.00503752 0
0.0291386 0.00453545 0
0.0305433 0.0039653 0
0.0319572 0.0033256 0
0.0333681 0.00260019 0
0.034775 0.00179799 0
0.0361793 0.000930615 0
0.0375798 3.12222e-06 0
0.0389689 -0.000988429 0
0.0403357 -0.00205109 0
0.041675 -0.00318283 0
0.0429849 -0.00437751 0
0.0442643 -0.00562904 0
0.0455126 -0.00693089 0
0.0467314 -0.00827518 0
0.0479204 -0.00965638 0
0.0490661 -0.0110799 0
0.0501515 -0.0125519 0
0.0511696 -0.0140695 0
0.0521492 -0.0156071 0
0.0531202 -0.0171411 0
0.0540851 -0.0186663 0
0.0550431 -0.0201798 0
0.0559923 -0.0216793 0
0.0569311 -0.0231626 0
0.0578582 -0.0246273 0
0.0587723 -0.0260715 0
0.0596721 -0.027493 0
0.0605563 -0.02889 0
0.0614241 -0.0302609 0
0.0622742 -0.0316042 0
0.063106 -0.0329183 0
0.0639186 -0.034202 0
0.0647113 -0.0354543 0
0.0654835 -0.0366743 0
0.0662345 -0.0378613 0
0.0669642 -0.0390145 0
0.0676726 -0.0401333 0
0.0683597 -0.0412172 0
0.0690246 -0.0422665 0
0.0696662 -0.0432819 0
0.0702841 -0.0442636 0
0.0708793 -0.0452111 0
0.0714538 -0.0461237 0
0.072009 -0.047001 0
0.0725452 -0.0478434 0
0.0730611 -0.0486524 0
0.073556 -0.0494294 0
0.0740291 -0.0501756 0
0.0744812 -0.0508916 0
0.0749138 -0.0515773 0
0.0753285 -0.0522331 0
0.0757266 -0.0528592 0
0.076109 -0.0534564 0
0.0764753 -0.0540264 0
0.0768243 -0.054571 0
0.0771553 -0.0550919 0
0.0774679 -0.0555901 0
0.0777617 -0.0560669 0
0.0780369 -0.056523 0
0.0782958 -0.0569578 0
0.0785421 -0.0573703 0
0.0787786 -0.0577603 0
0.0790073 -0.0581279 0
0.0792295 -0.058474 0
0.0794462 -0.0587995 0
0.0798803 -0.0594162 0
0.0800272 -0.0596588 0
0.0800357 -0.0598891 0
0.0799275 -0.0600784 0
0.0797205 -0.0601773 0
0.0794593 -0.0601051 0
0.0789155 -0.0596491 0
0.0786707 -0.0593963 0
0.0784111 -0.0591319 0
0.0781372 -0.0588542 0
0.0778566 -0.0585548 0
0.0775715 -0.0582308 0
0.0772803 -0.0578828 0
0.0769832 -0.0575099 0
0.0766822 -0.0571097 0
0.0763801 -0.0566796 0
0.0760759 -0.0562196 0
0.0757623 -0.0557337 0
0.0754359 -0.0552232 0
0.0750951 -0.0546879 0
0.0747379 -0.054128 0
0.0743626 -0.0535435 0
0.0739688 -0.0529338 0
0.0735559 -0.0522981 0
0.0731238 -0.0516357 0
0.0726718 -0.050946 0
0.0721991 -0.0502288 0
0.0717046 -0.049484 0
0.0711872 -0.0487117 0
0.0706461 -0.047912 0
0.0700804 -0.0470849 0
0.0694892 -0.0462308 0
0.0688718 -0.0453499 0
0.0682271 -0.0444431 0
0.0675544 -0.043511 0
0.0668527 -0.0425546 0
0.0661215 -0.0415748 0
0.06536 -0.040573 0
0.0645676 -0.0395504 0
0.0637439 -0.0385087 0
0.0628887 -0.0374493 0
0.062002 -0.0363741 0
0.0610838 -0.0352847 0
0.0601345 -0.0341831 0
0.0591547 -0.033071 0
0.0581456 -0.0319502 0
0.0571083 -0.0308224 0
0.0560444 -0.0296893 0
0.0549562 -0.028552 0
0.053845 -0.0274126 0
0.0527113 -0.0262746 0
0.051554 -0.0251427 0
0.0503724 -0.0240222 0
0.0491675 -0.0229164 0
0.047941 -0.0218282 0
0.0466955 -0.0207597 0
0.0454337 -0.0197126 0
0.0441592 -0.0186878 0
0.0428751 -0.0176863 0
0.0415841 -0.0167097 0
0.0402878 -0.0157609 0
0.0389879 -0.0148428 0
0.0376864 -0.0139575 0
0.0363853 -0.013107 0
0.0350871 -0.0122931 0
0.0337942 -0.0115164 0
0.0325095 -0.0107772 0
0.0312357 -0.0100756 0
0.0299758 -0.00941024 0
0.0287337 -0.00877784 0
0.0275126 -0.00817571 0
0.0263139 -0.00760375 0
0.0251376 -0.00706528 0
0.0239829 -0.0065649 0
0.0228537 -0.00609619 0
0.0217522 -0.00565563 0
0.0206795 -0.00524226 0
0.0196364 -0.00485507 0
0.0186233 -0.00449318 0
0.0176408 -0.00415577 0
0.016689 -0.00384204 0
0.0157682 -0.00355115 0
0.0148783 -0.00328218 0
0.0140192 -0.00303468 0
0.0131906 -0.00280795 0
0.0123925 -0.00260016 0
0.0116246 -0.00241012 0
0.0108864 -0.00223769 0
0.0101774 -0.00208212 0
0.00949701 -0.00194206 0
0.00884483 -0.0018163 0
0.0082202 -0.0017039 0
0.00762247 -0.00160391 0
0.00705097 -0.00151528 0
0.006505 -0.00143697 0
0.0059838 -0.00136806 0
0.00548662 -0.00130772 0
0.00501265 -0.00125519 0
0.00456114 -0.00120954 0
0.00413136 -0.00116914 0
0.00372257 -0.00113251 0
0.00333398 -0.00109853 0
0.00296466 -0.00106798 0
0.00261363 -0.0010431 0
-0.052721 -0.0445996 0
-0.0508204 -0.0440823 0
-0.0489199 -0.0435651 0
-0.0470193 -0.0430478 0
-0.0451187 -0.0425306 0
-0.0432181 -0.0420134 0
-0.0413175 -0.0414961 0
-0.039417 -0.0409789 0
-0.0375164 -0.0404616 0
-0.0356158 -0.0399444 0
-0.0337152 -0.0394271 0
-0.0318146 -0.0389099 0
-0.0299141 -0.0383927 0
-0.0280135 -0.0378754 0
-0.0261129 -0.0373582 0
-0.0242123 -0.0368409 0
-0.0223117 -0.0363237 0
-0.0204112 -0.0358065 0
-0.0185106 -0.0352892 0
-0.01661 -0.034772 0
-0.0147094 -0.0342547 0
-0.0128088 -0.0337375 0
-0.0109083 -0.0332202 0
-0.00900769 -0.032703 0
-0.00710711 -0.0321858 0
-0.00520653 -0.0316685 0
-0.00330595 -0.0311513 0
-0.00140537 -0.030634 0
0.00190689 -0.0299614 0
0.00332271 -0.0298498 0
0.00474133 -0.0297825 0
0.00616136 -0.0297597 0
0.0075814 -0.0297814 0
0.00900007 -0.0298477 0
0.010416 -0.0299583 0
0.0118278 -0.0301127 0
0.0132342 -0.0303103 0
0.0146339 -0.0305504 0
0.0160259 -0.0308322 0
0.0174091 -0.0311546 0
0.0187824 -0.0315166 0
0.020145 -0.031917 0
0.0214961 -0.0323546 0
0.0228351 -0.032828 0
0.0241613 -0.0333361 0
0.0254744 -0.0338774 0
0.0267738 -0.0344507 0
0.0280592 -0.0350545 0
0.0293306 -0.0356877 0
0.0305875 -0.0363488 0
0.0318301 -0.0370367 0
0.0330581 -0.0377501 0
0.0342717 -0.0384879 0
0.0354708 -0.0392489 0
0.0366556 -0.0400321 0
0.0378262 -0.0408363 0
0.0389828 -0.0416607 0
0.0401254 -0.0425042 0
0.0412543 -0.0433659 0
0.0423698 -0.0442451 0
0.043472 -0.0451408 0
0.0445612 -0.0460523 0
0.0456375 -0.0469789 0
0.0467013 -0.0479199 0
0.0477529 -0.0488746 0
0.0487923 -0.0498424 0
0.04982 -0.0508227 0
0.0508362 -0.051815 0
0.051841 -0.0528187 0
0.0528348 -0.0538333 0
0.0538178 -0.0548584 0
0.0547903 -0.0558935 0
0.0557524 -0.0569382 0
0.0567045 -0.0579922 0
0.0576467 -0.0590549 0
0.0585792 -0.0601261 0
0.0595024 -0.0612055 0
0.0604163 -0.0622926 0
0.0613212 -0.0633873 0
0.0622174 -0.0644891 0
0.0631049 -0.0655979 0
0.0639841 -0.0667134 0
0.064855 -0.0678353 0
0.0657179 -0.0689633 0
0.0665729 -0.0700974 0
0.0674202 -0.0712372 0
0.06826 -0.0723826 0
0.0690925 -0.0735333 0
0.0699178 -0.0746892 0
0.070736 -0.0758501 0
0.0715473 -0.0770159 0
0.0723518 -0.0781863 0
0.0731498 -0.0793612 0
0.0739412 -0.0805405 0
0.0747264 -0.081724 0
0.0755053 -0.0829116 0
0.0762781 -0.0841033 0
0.0770449 -0.0852987 0
0.0778059 -0.0864979 0
0.0785611 -0.0877007 0
0.0793108 -0.088907 0
0.0814681 -0.0912706 0
0.0828814 -0.0924245 0
0.0842946 -0.0935783 0
0.0857079 -0.0947322 0
0.0871211 -0.095886 0
0.0885344 -0.0970399 0
0.0899476 -0.0981937 0
0.0913609 -0.0993476 0
0.0927741 -0.100501 0
0.0941874 -0.101655 0
0.0956006 -0.102809 0
0.0970139 -0.103963 0
0.0984272 -0.105117 0
0.0998404 -0.106271 0
0.101254 -0.107424 0
0.102667 -0.108578 0
0.10408 -0.109732 0
0.105493 -0.110886 0
0.106907 -0.11204 0
0.10832 -0.113194 0
0.109733 -0.114348 0
0.111146 -0.115501 0
0.11256 -0.116655 0
0.113973 -0.117809 0
0.115386 -0.118963 0
0.116799 -0.120117 0
0.118213 -0.121271 0
0.119626 -0.122424 0
0.121039 -0.123578 0
0.122452 -0.124732 0
0.123866 -0.125886 0
0.125279 -0.12704 0
0.126692 -0.128194 0
0.128105 -0.129348 0
0.129519 -0.130501 0
0.130932 -0.131655 0
0.132345 -0.132809 0
0.133758 -0.133963 0
0.135172 -0.133216 0
0.135172 -0.131316 0
0.135172 -0.129415 0
0.135172 -0.127514 0
0.135172 -0.125614 0
0.135172 -0.123713 0
0.135172 -0.121813 0
0.135172 -0.119912 0
0.135172 -0.118012 0
0.135172 -0.116111 0
0.135172 -0.11421 0
0.135172 -0.11231 0
0.135172 -0.110409 0
0.135172 -0.108509 0
0.135172 -0.106608 0
0.135172 -0.104708 0
0.135172 -0.102807 0
0.135172 -0.100906 0
0.135172 -0.0990058 0
0.135172 -0.0971052 0
0.135172 -0.0952046 0
0.135172 -0.0933041 0
0.135172 -0.0914035 0
0.135172 -0.0895029 0
0.135172 -0.0876023 0
0.135172 -0.0857017 0
0.135172 -0.0838012 0
0.135172 -0.0819006 0
0.133758 -0.0788462 0
0.132345 -0.0776923 0
0.130932 -0.0765385 0
0.129519 -0.0753846 0
0.128105 -0.0742308 0
0.126692 -0.0730769 0
0.125279 -0.0719231 0
0.123866 -0.0707692 0
0.122452 -0.0696154 0
0.121039 -0.0684615 0
0.119626 -0.0673077 0
0.118213 -0.0661538 0
0.116799 -0.065 0
0.115386 -0.0638462 0
0.113973 -0.0626923 0
0.11256 -0.0615385 0
0.111146 -0.0603846 0
0.109733 -0.0592308 0
0.10832 -0.0580769 0
0.106907 -0.0569231 0
0.105493 -0.0557692 0
0.10408 -0.0546154 0
0.102667 -0.0534615 0
0.101254 -0.0523077 0
0.0998404 -0.0511538 0
0.0984272 -0.05 0
0.0970139 -0.0488462 0
0.0956006 -0.0476923 0
[...]
CELL_DATA 13116
SCALARS rho float
LOOKUP_TABLE default
0.5977
0.5977
0.597698
0.5977
0.5977
0.689176
0.457384
0.597701
0.5977
0.5977
0.407219
0.5977
0.5977
0.588597
0.597697
0.689284
0.5977
0.5977
0.686543
0.39249
0.5977
0.597699
0.597709
0.5977
0.5977
0.5977
0.5977
0.5977
0.5977
0.5977
0.688763
0.597698
0.5977
0.5977
0.470506
0.5977
0.5977
0.59488
0.689646
0.64015
0.690058
0.5977
0.5977
0.597717
0.68385
0.687111
0.5977
0.68432
0.597698
0.5977
0.597703
0.5977
0.51702
0.5977
0.5977
0.5977
0.597717
0.5977
0.5977
0.597713
0.592308
0.5977
0.5977
0.689505
0.689496
0.553297
0.687726
0.5977
0.68755
0.689372
0.597665
0.5977
0.5977
0.595096
0.68879
0.563546
0.5977
0.5977
0.418721
0.5977
0.5977
0.5977
0.5977
0.601843
0.597656
0.5977
0.484408
0.5977
0.597701
0.336321
0.5977
0.5977
0.5977
0.597701
0.5977
0.5977
0.5977
0.689531
0.689444
0.5977
0.5977
0.5977
0.688893
0.5977
0.5977
0.5977
0.5977
0.5977
0.5977
0.5977
0.5977
0.5977
0.5977
0.5977
0.5977
0.687194
0.5271
0.5977
0.597701
0.68684
0.5977
0.5977
0.68686
0.5977
0.5977
0.5977
0.496675
0.5977
0.597698
0.5977
0.5977
0.5977
0.5977
0.597698
0.5977
0.5977
0.556112
0.670258
0.5977
0.686616
0.5977
0.5977
0.5977
0.5977
0.5977
0.597709
0.464987
0.5977
0.5977
0.596901
0.5977
0.625467
0.686049
0.492259
0.5977
0.596252
0.597697
0.5977
0.689994
0.5977
0.5977
0.408568
0.5977
0.597698
0.5977
0.5977
0.5977
0.5977
0.465598
0.5977
0.5977
0.551713
0.597538
0.5977
0.688132
0.597709
0.597715
0.5977
0.5977
0.689434
0.365126
0.5977
0.5977
0.5977
0.689559
0.5977
0.491202
0.690079
0.5977
0.5977
0.5977
0.5977
0.688794
0.5977
0.5977
0.688953
0.5977
0.689473
0.597701
0.5977
0.5977
0.5977
0.5977
0.597577
0.5977
0.595586
0.5977
0.5977
0.597718
0.372492
0.557911
0.689853
0.5977
0.339762
0.336484
0.502095
0.5977
0.688969
0.5977
0.5977
0.597693
0.688407
0.5977
0.361903
0.5977
0.5977
0.5977
0.5977
0.687846
0.5977
0.5977
0.597698
0.689097
0.5977
0.689424
0.592036
0.688696
0.597698
0.5977
0.5977
0.685074
0.688859
0.551765
0.689914
0.597702
0.597709
0.590876
0.5977
0.689244
0.43677
0.597698
0.591813
0.597135
0.68906
0.597565
0.5977
0.5977
0.400313
0.5977
0.5977
0.597719
0.5977
0.5977
0.5977
0.448979
0.681868
0.51816
0.5977
0.5977
0.435086
0.5977
0.597701
0.662568
0.5977
0.597698
0.64082
0.5977
0.689273
0.674202
0.40376
0.467432
0.5977
0.5977
0.5977
0.5977
0.5977
0.5977
0.5977
0.53455
0.597646
0.5977
0.468802
0.385296
0.508011
0.5977
0.5977
0.5977
0.5977
0.5977
0.427217
0.689959
0.5977
0.5977
0.597714
0.689522
0.59558
0.689794
0.501018
0.689109
0.5977
0.5977
0.5977
0.592501
0.5977
0.5977
0.688213
0.584442
0.689373
0.5977
0.5977
0.343695
0.5977
0.5977
0.508711
0.5977
0.5977
0.5977
0.5977
0.5977
0.486401
0.672324
0.5977
0.582742
0.597691
0.5977
0.5977
0.5977
0.5977
0.5977
0.448408
0.5977
0.5977
0.689599
0.5977
0.5977
0.5977
0.5977
0.596948
0.485279
0.5977
0.5977
0.5977
0.551827
0.485624
0.597699
0.5977
0.5977
0.5977
0.478758
0.597698
0.590113
0.5977
0.453637
0.5977
0.555021
0.597698
0.687743
0.597701
0.5977
0.33615
0.636543
0.689236
0.689742
0.633769
0.5977
0.5977
0.5977
0.59736
0.365804
0.689727
0.360524
0.5977
0.5977
0.5977
0.5977
0.5977
0.5977
0.475231
0.596004
0.5977
0.5977
0.5977
0.685917
0.5977
0.596347
0.597698
0.461554
0.5977
0.5977
0.5977
0.5977
0.688877
0.5977
0.5977
0.5977
0.5977
0.5977
0.5977
0.5977
0.5977
0.689504
0.5977
0.5977
0.5977
0.597698
0.5977
0.5977
0.51256
0.687512
0.672459
0.5977
0.369152
0.33792
0.472946
0.5977
0.551108
0.5977
0.689935
0.551638
0.5977
0.336264
0.689138
0.5977
0.5977
0.597698
0.5977
0.5977
0.33589
0.471676
0.336172
0.5977
0.462656
0.362727
0.5977
0.5977
0.361323
0.5977
0.5977
0.597661
0.5977
0.5977
0.5977
0.59772
0.336072
0.597721
0.68276
0.5977
0.5977
0.5977
0.541335
0.5977
0.597701
0.5977
0.5977
0.5977
0.5977
0.459602
0.68978
0.5977
0.5977
0.688663
0.5977
0.529436
0.5977
0.5977
0.5977
0.5977
0.5977
0.5977
0.5977
0.385523
0.597718
0.589445
0.5977
0.597716
0.559683
0.597542
0.580641
0.5977
0.5977
0.5977
0.5977
0.5977
0.5977
0.5977
0.537601
0.5977
0.5977
0.597701
0.5977
0.5977
0.5977
0.681306
0.5977
0.5977
0.5977
0.519677
0.5977
0.597701
0.688413
0.5977
0.5977
0.5977
0.351529
0.5977
0.5977
0.5977
0.5977
0.5977
0.5977
0.5977
0.5977
0.5977
0.5977
0.5977
0.5977
0.5977
0.686682
0.338103
0.675466
0.5977
0.597715
0.336447
0.5977
0.591891
0.5977
0.597701
0.5977
0.340148
0.688909
0.592982
0.5977
0.5977
0.528324
0.5977
0.335789
0.336582
0.597719
0.346298
0.5977
0.572506
0.5977
0.5977
0.5977
0.597699
0.686812
0.5977
0.335821
0.366407
0.59636
0.5977
0.5977
0.5977
0.5977
0.5977
0.476937
0.5977
0.690317
0.5977
0.337324
0.5977
0.5977
0.597701
0.688482
0.5977
0.5977
0.597702
0.5977
0.593574
0.5977
0.597698
0.5977
0.5977
0.677537
0.597698
0.5977
0.5977
0.594648
0.538762
0.554296
0.597687
0.688982
0.5977
0.336189
0.5977
0.5977
0.689016
0.5977
0.444983
0.5977
0.688817
0.5977
0.437738
0.5977
0.33629
0.688816
0.5977
0.688883
0.597512
0.5977
0.5977
0.5977
0.597698
0.597703
0.5977
0.5977
0.5977
0.520307
0.563962
0.689255
0.561623
0.690338
0.5977
0.689542
0.336171
0.597702
0.5977
0.5977
0.69044
0.5977
0.687917
0.597711
0.688334
0.5977
0.5977
0.407515
0.597702
0.5977
0.48102
0.689476
0.5977
0.497447
0.5977
0.5977
0.597382
0.689995
0.682645
0.5977
0.597722
0.426913
0.59771
0.597701
0.5977
0.530044
0.403085
0.5977
0.677716
0.5977
0.5977
0.689312
0.402497
0.5977
0.5977
0.597703
0.5977
0.5977
0.5977
0.689122
0.5977
0.5977
0.5977
0.5977
0.688703
0.5977
0.5977
0.5977
0.59762
0.5977
0.5977
0.5977
0.5977
0.5977
0.5977
0.689328
0.5977
0.5977
0.671767
0.5977
0.597698
0.5977
0.5977
0.5977
0.594737
0.689727
0.5977
0.5977
0.688978
0.5977
0.5977
0.5977
0.5977
0.5977
0.5977
0.5977
0.5977
0.593147
0.55769
0.5977
0.686105
0.5977
0.339941
0.5977
0.5977
0.5977
0.5977
0.597701
0.367639
0.5977
0.5977
0.384932
0.5977
0.597702
0.615171
0.597702
0.597702
0.5977
0.5977
0.5977
0.5977
0.68903
0.5977
0.339261
0.5977
0.597662
0.5977
0.660049
0.690707
0.5977
0.5977
0.375278
0.5977
0.5977
0.5977
0.5977
0.68894
0.597591
0.5977
0.5977
0.5977
0.5977
0.336179
0.336209
0.44474
0.357943
0.5977
0.5977
0.688881
0.5977
0.373424
0.687694
0.5977
0.578009
0.5977
0.5977
0.5977
0.689394
0.604106
0.5977
0.365143
0.336409
0.560317
0.5977
0.340447
0.530002
0.689615
0.5977
0.336453
0.5977
0.597702
0.5977
0.689425
0.690049
0.531637
0.584396
0.433451
0.5977
0.5977
0.597699
0.5977
0.5977
0.5977
0.690805
0.597698
0.33647
0.5977
0.336513
0.690616
0.5977
0.689797
0.5977
0.336356
0.5977
0.689599
0.5977
0.577179
0.595059
0.689582
0.5977
0.596265
0.597702
0.599008
0.5977
0.362685
0.689737
0.68968
0.5977
0.5977
0.557307
0.5977
0.608609
0.681026
0.559711
0.596386
0.336532
0.689672
0.5977
0.336515
0.5977
0.5977
0.597699
0.5977
0.5977
0.5977
0.5977
0.597698
0.5977
0.5977
0.336531
0.5977
0.689323
0.597718
0.597701
0.570396
0.597704
0.5977
0.5977
0.5977
0.687991
0.456147
0.5977
0.597718
0.597698
0.689959
0.338231
0.5977
0.5977
0.5977
0.5977
0.602509
0.5977
0.596984
0.572113
0.5977
0.5977
0.5977
0.5977
0.5977
0.689426
0.5977
0.5977
0.5977
0.5977
0.5977
0.687225
0.5977
0.33638
0.5977
0.5977
0.5977
0.5977
0.689012
0.5977
0.5977
0.5977
0.5977
0.5977
0.558032
0.689099
0.5977
0.5977
0.689185
0.5977
0.597699
0.5977
0.5977
0.628065
0.618904
0.5977
0.5977
0.5977
0.597718
0.597699
0.503131
0.556582
0.406439
0.5977
0.5977
0.5977
0.5977
0.597604
0.597232
0.5977
0.688842
0.690096
0.5977
0.688739
0.5977
0.5977
0.5977
0.5977
0.596159
0.69031
0.687174
0.5977
0.663031
0.5977
0.5977
0.597564
0.597714
0.593125
0.336314
0.659461
0.433416
0.597701
0.535391
0.5977
0.597711
0.5977
0.597701
0.5977
0.5977
0.5977
0.689135
0.37993
0.5977
0.5977
0.597698
0.5977
0.689475
0.5977
0.690659
0.5977
0.5977
0.5977
0.685791
0.5977
0.336377
0.5977
0.59025
0.551304
0.680052
0.555932
0.5977
0.5977
0.5977
0.676239
0.336398
0.597618
0.550286
0.5977
0.688995
0.56499
0.690305
0.5977
0.5977
0.594425
0.5977
0.5977
0.5977
0.5977
0.5977
0.688756
0.681264
0.452054
0.5977
0.5977
0.455246
0.5977
0.587566
0.5977
0.5977
0.337127
0.64386
0.5977
0.5977
0.5977
0.470696
0.470083
0.5977
0.597021
0.55221
0.689717
0.597699
0.5977
0.5977
0.5977
0.5977
0.371241
0.5977
0.415532
0.5977
0.597698
0.597701
0.557059
0.5977
0.5977
0.678615
0.5977
0.5977
0.5977
0.689555
0.5977
0.597702
0.564851
0.403172
0.5977
0.689821
0.5977
0.5977
0.5977
0.689581
0.5977
0.5977
0.687502
0.5977
0.597701
0.44672
0.5977
0.5977
0.59083
0.5977
0.5977
0.690328
0.597698
0.5977
0.336808
0.5977
0.5977
0.540178
0.5977
0.556622
0.597701
0.481901
0.690134
0.357486
0.5977
0.5977
0.336357
0.5977
0.597692
0.5977
0.689533
0.5977
0.5977
0.5977
0.5977
0.5977
0.5977
0.336159
0.52219
0.445863
0.597716
0.5977
0.5977
0.5977
0.5977
0.688707
0.5977
0.583073
0.5977
0.5977
0.689409
0.421299
0.689172
0.5977
0.5977
0.592396
0.597716
0.5977
0.5977
0.5977
0.5977
0.68943
0.5977
0.5977
0.663058
0.5977
0.336187
0.689915
0.597698
0.5977
0.5977
0.5977
0.597701
0.5977
0.5977
0.5977
0.447359
0.5977
0.5977
0.5977
0.591189
0.5977
0.5977
0.5977
0.597715
0.5977
0.5977
0.688994
0.5977
0.437185
0.5977
0.5977
0.5977
0.5977
0.5977
0.5977
0.5977
0.68628
0.5977
0.69021
0.5977
0.5977
0.5977
0.597463
0.5977
0.5977
0.5977
0.5977
0.689444
0.5977
0.596646
0.557713
0.5977
0.488631
0.5977
0.5977
0.689722
0.5977
0.5977
0.595904
0.5977
0.596415
0.688932
0.5977
0.5977
0.5977
0.377741
0.5977
0.597698
0.5977
0.597698
0.597578
0.689098
0.597699
0.597701
0.5977
0.5977
0.689972
0.686216
0.5977
0.597696
0.5977
0.5977
0.5977
0.5977
0.5977
0.5977
0.5977
0.689263
0.5977
0.5977
0.5977
0.5977
0.689255
0.689703
0.5977
0.597188
0.689494
0.597698
0.5977
0.453617
0.5977
0.468982
0.597703
0.5977
0.336065
0.335905
0.59521
0.6891
0.5977
0.5977
0.687517
0.5977
0.5977
0.350745
0.5977
0.5977
0.689503
0.668322
0.5977
0.68908
0.5977
0.688872
0.689652
0.5977
0.5977
0.5977
0.5977
0.5977
0.5977
0.5977
0.5977
0.381004
0.5977
0.5977
0.688718
0.562123
0.5977
0.5977
0.689853
0.378539
0.670932
0.5977
0.55677
0.597702
0.688534
0.356562
0.5977
0.350375
0.597699
0.597701
0.5977
0.5977
0.597618
0.597697
0.479748
0.422647
0.5977
0.689587
0.5977
0.5977
0.550712
0.480612
0.574047
0.597702
0.5977
0.5977
0.597701
0.5977
0.679378
0.597702
0.5977
0.5977
0.5977
0.5977
0.372445
0.688129
0.687808
0.574375
0.5977
0.5977
0.5977
0.5977
0.5977
0.5977
0.5977
0.5977
0.5977
0.341724
0.689409
0.5977
0.336481
0.5977
0.543672
0.686516
0.5977
0.5977
0.597302
0.5977
0.5977
0.5977
0.5977
0.683688
0.5977
0.689562
0.686918
0.5977
0.5977
0.5977
0.689223
0.5977
0.68625
0.5977
0.597573
0.597709
0.596203
0.597587
0.688887
0.689495
0.5977
0.690082
0.5977
0.68774
0.532333
0.551162
0.335873
0.615391
0.443305
0.561021
0.597699
0.5977
0.554083
0.5977
0.5977
0.597701
0.336253
0.689604
0.688778
0.677324
0.492184
0.598388
0.5977
0.688757
0.5977
0.5977
0.472905
0.380462
0.690506
0.379058
0.5977
0.5977
0.575782
0.336618
0.5977
0.488842
0.5977
0.552003
0.5977
0.594448
0.689477
0.5977
0.355312
0.597716
0.5977
0.5977
0.336184
0.557726
0.5977
0.688836
0.595985
0.399232
0.5977
0.597706
0.5977
0.5977
0.5977
0.5977
0.5977
0.5977
0.5977
0.5977
0.429826
0.5977
0.566411
0.5977
0.5977
0.688797
0.336681
0.5977
0.5977
0.592178
0.690129
0.372772
0.662835
0.5977
0.5977
0.5977
0.5977
0.367611
0.5977
0.688278
0.68867
0.5977
0.5977
0.5977
0.597701
0.5977
0.6887
0.689027
0.597702
0.5977
0.689201
0.5977
0.5977
0.5977
0.651448
0.594063
0.688769
0.592856
0.688842
0.5977
0.340024
0.597698
0.5977
0.335779
0.5977
0.623964
0.589688
0.5977
0.687026
0.5977
0.597702
0.5977
0.599496
0.5977
0.591425
0.689133
0.5977
0.690485
0.51013
0.597702
0.68797
0.5977
0.690065
0.597698
0.689199
0.5977
0.5977
0.5977
0.5977
0.399315
0.5977
0.556134
0.337634
0.5977
0.5977
0.5977
0.5977
0.690364
0.597702
0.689086
0.5977
0.594852
0.5977
0.5977
0.336385
0.689724
0.5977
0.5977
0.5977
0.5977
0.5977
0.5977
0.5977
0.5977
0.689788
0.5977
0.5977
0.5977
0.5977
0.5977
0.5977
0.597702
0.415158
0.5977
0.591667
0.5977
0.5977
0.652844
0.5977
0.689912
0.5977
0.5977
0.5977
0.423378
0.679891
0.5977
0.5977
0.5977
0.5977
0.5977
0.689215
0.35512
0.578197
0.5977
0.5977
0.5977
0.68215
0.591604
0.687592
0.5977
0.5977
0.5977
0.5977
0.5977
0.583491
0.5977
0.57072
0.5977
0.65273
0.5977
0.5977
0.5977
0.5977
0.5977
0.597701
0.5977
0.52194
0.5977
0.679483
0.6354
0.5977
0.597699
0.597718
0.557775
0.5977
0.5977
0.486813
0.347065
0.597698
0.5977
0.336024
0.5977
0.679206
0.5977
0.435235
0.5977
0.5977
0.5977
0.5977
0.382059
0.5977
0.565702
0.336424
0.689065
0.336582
0.5977
0.5977
0.668218
0.440057
0.5977
0.5977
0.479534
0.5977
0.5977
0.5977
0.5977
0.5977
0.597698
0.5977
0.468835
0.5977
0.373167
0.689242
0.689268
0.5977
0.5977
0.5977
0.5977
0.688919
0.597701
0.5977
0.5977
0.376046
0.5977
0.568637
0.5977
0.5977
0.5977
0.5977
0.5977
0.5977
0.5977
0.5977
0.595889
0.584783
0.581748
0.5977
0.5977
0.594293
0.421408
0.5977
0.689948
0.5977
0.5977
0.5977
0.5977
0.336407
0.597698
0.5977
0.5977
0.5977
0.59772
0.5977
0.688093
0.597698
0.5977
0.597516
0.689155
0.5977
0.5977
0.5977
0.5977
0.48246
0.597701
0.5977
0.5977
0.5977
0.597716
0.5977
0.386532
0.689319
0.5977
0.361959
0.5977
0.5977
0.5977
0.5977
0.5977
0.5977
0.600601
0.5977
0.515764
0.597698
0.57551
0.398998
0.5977
0.689385
0.5977
0.37578
0.336555
0.5977
0.5977
0.686945
0.5977
0.336749
0.5977
0.686717
0.597698
0.5977
0.5977
0.5977
0.688766
0.5977
0.336486
0.458967
0.5977
0.355847
0.5977
0.5977
0.689108
0.687861
0.5977
0.340265
0.557442
0.382379
0.688388
0.5977
0.336408
0.59772
0.528632
0.688209
0.534343
0.557581
0.5977
0.5977
0.597698
0.5977
0.5977
0.597226
0.442354
0.597701
0.5977
0.5977
0.597702
0.5977
0.430015
0.336472
0.5977
0.398021
0.399844
0.5977
0.5977
0.676055
0.5977
0.5977
0.5977
0.5977
0.686982
0.688903
0.428863
0.5977
0.5977
0.5977
0.5977
0.5977
0.5977
0.682958
0.597701
0.5977
0.5977
0.5977
0.5977
0.5977
0.5977
0.5977
0.5977
0.689312
0.606446
0.597702
0.556955
0.5977
0.5977
0.597702
0.546785
0.688729
0.5977
0.5977
0.5977
0.68659
0.665432
0.5977
0.5977
0.5977
0.597538
0.487069
0.5977
0.43249
0.5977
0.422761
0.429872
0.5977
0.597699
0.5977
0.474532
0.5977
0.5977
0.336161
0.5977
0.5977
0.598496
0.59772
0.593732
0.5977
0.502501
0.5977
0.5977
0.5977
0.5977
0.597698
0.5977
0.336545
0.680855
0.5977
0.5977
0.687205
0.690084
0.5977
0.336632
0.5977
0.597697
0.5977
0.689672
0.687203
0.336339
0.5977
0.678233
0.5977
0.5977
0.597317
0.336328
0.351518
0.591548
0.5977
0.5977
0.5977
0.336375
0.5977
0.5977
0.5977
0.5977
0.596992
0.5977
0.689269
0.5977
0.585144
0.5977
0.687835
0.5977
0.5977
0.5977
0.5977
0.336344
0.368006
0.634145
0.345942
0.335936
0.595473
0.5977
0.529699
0.5977
0.522083
0.654292
0.5977
0.5977
0.689262
0.5977
0.688935
0.597715
0.37187
0.5977
0.689397
0.5977
0.5977
0.5977
0.5977
0.5977
0.690232
0.422026
0.677811
0.5977
0.68956
0.5977
0.474986
0.597706
0.34235
0.340506
0.597698
0.5977
0.5977
0.434868
0.595855
0.5977
0.5977
0.59669
0.5977
0.336199
0.597702
0.5977
0.5977
0.5977
0.622589
0.689432
0.587011
0.5977
0.686486
0.5977
0.336121
0.5977
0.5977
0.5977
0.58963
0.5977
0.5977
0.5977
0.5977
0.59351
0.5977
0.688818
0.686454
0.337103
0.5977
0.341235
0.5977
0.683743
0.5977
0.597702
0.5977
0.597699
0.5977
0.336251
0.5977
0.597701
0.5977
0.5977
0.37882
0.5977
0.5977
0.5977
0.437082
0.5977
0.688231
0.5977
0.597719
0.5977
0.5977
0.336483
0.5977
0.5977
0.5977
0.51144
0.336453
0.597699
0.5977
0.597698
0.597701
0.5977
0.69039
0.5977
0.597702
0.376125
0.597701
0.5977
0.5977
0.5977
0.5977
0.435761
0.597712
0.5977
0.5977
0.5977
0.5977
0.5977
0.5977
0.687461
0.597717
0.5977
0.597701
0.5977
0.448304
0.461633
0.5977
0.5977
0.5977
0.5977
0.5977
0.594697
0.336308
0.5977
0.674405
0.5977
0.456773
0.5977
0.597699
0.5977
0.597699
0.597696
0.597701
0.597723
0.597702
0.5977
0.559754
0.5977
0.557698
0.591053
0.5977
0.690072
0.690767
0.687728
0.597593
0.5977
0.669961
0.553185
0.689994
0.597716
0.351663
0.5977
0.597698
0.336457
0.44542
0.5977
0.5977
0.569981
0.5977
0.597701
0.5977
0.5977
0.5977
0.5977
0.688771
0.5977
0.5977
0.687708
0.5977
0.597714
0.373892
0.5977
0.5977
0.336391
0.5977
0.597697
0.689259
0.5977
0.508444
0.5977
0.5977
0.5977
0.68881
0.597705
0.5977
0.5977
0.597701
0.5977
0.5977
0.680925
0.5977
0.5977
0.345484
0.597701
0.5977
0.597708
0.5977
0.689359
0.34792
0.5977
0.434106
0.5977
0.597715
0.687301
0.597699
0.5977
0.356996
0.686533
0.597698
0.5977
0.653474
0.549693
0.597698
0.5977
0.5977
0.5977
0.5977
0.5977
0.597699
0.5977
0.5977
0.5977
0.5977
0.5977
0.5977
0.5977
0.596596
0.597699
0.689059
0.597701
0.5977
0.5977
0.597714
0.5977
0.335974
0.5977
0.597698
0.689649
0.5977
0.5977
0.5977
0.5977
0.5977
0.33661
0.438673
0.688725
0.671697
0.5977
0.597701
0.663234
0.336314
0.5977
0.597701
0.597701
0.5977
0.5977
0.5977
0.432846
0.676749
0.612564
0.597675
0.597702
0.5977
0.5977
0.5977
0.597719
0.597701
0.5977
0.5977
0.597701
0.5977
0.5977
0.5977
0.5977
0.597701
0.462341
0.5977
0.596358
0.5977
0.597698
0.5977
0.597698
0.597699
0.56769
0.5977
0.5977
0.336017
0.597695
0.597717
0.512333
0.5977
0.5977
0.55007
0.5977
0.337597
0.687725
0.5977
0.5977
0.5977
0.5977
0.5977
0.689529
0.5977
0.5977
0.597712
0.5977
0.689422
0.528227
0.357675
0.5977
0.5977
0.5977
0.5977
0.689052
0.5977
0.5977
0.5977
0.597701
0.689455
0.5977
0.336983
0.686784
0.5977
0.5977
0.5977
0.526273
0.597706
0.571449
0.5977
0.5977
0.5977
0.362006
0.5977
0.5977
0.597699
0.5977
0.690167
0.597693
0.5977
0.593082
0.5977
0.5977
0.597711
0.5977
0.597698
0.686285
0.597711
0.690176
0.689417
0.661788
0.5977
0.5977
0.5977
0.597702
0.595913
0.382164
0.60049
0.5977
0.5977
0.688975
0.5977
0.5977
0.336353
0.5977
0.5977
0.5977
0.597703
0.5977
0.5977
0.5977
0.5977
0.597701
0.5977
0.5977
0.33661
0.5977
0.597484
0.5977
0.597698
0.5977
0.5977
0.5977
0.5977
0.336474
0.375416
0.689634
0.5977
0.5977
0.5933
0.5977
0.5977
0.594363
0.689813
0.5977
0.33614
0.5977
0.33637
0.592748
0.5977
0.5977
0.5977
0.689911
0.5977
0.5977
0.5977
0.352839
0.5977
0.5977
0.592366
0.596992
0.5977
0.5977
0.689767
0.336361
0.557693
0.689255
0.392412
0.5977
0.597698
0.5977
0.336455
0.45918
0.597721
0.5977
0.681518
0.5977
0.5977
0.5977
0.5977
0.5977
0.5977
0.336142
0.5977
0.341
0.5977
0.37853
0.5977
0.596929
0.5977
0.5977
0.449986
0.689053
0.549003
0.382379
0.5977
0.5977
0.5977
0.5977
0.597719
0.5977
0.689396
0.5977
0.5977
0.5977
0.5977
0.5977
0.368752
0.5977
0.689433
0.5977
0.336274
0.5977
0.5977
0.5977
0.5977
0.5977
0.5977
0.5977
0.5977
0.5977
0.5977
0.5977
0.5977
0.5977
0.5977
0.343446
0.597699
0.597697
0.363186
0.5977
0.597703
0.5977
0.5977
0.5977
0.5977
0.5977
0.5977
0.597718
0.393922
0.597706
0.350901
0.5977
0.597618
0.389751
0.597409
0.689236
0.5977
0.5977
0.5977
0.5977
0.5977
0.5977
0.5977
0.5977
0.689586
0.595328
0.5977
0.5977
0.5977
0.5977
0.687429
0.5977
0.592551
0.5977
0.5977
0.5977
0.5977
0.336944
0.5977
0.5977
0.5977
0.5977
0.5977
0.5977
0.5977
0.5977
0.407257
0.5977
0.336328
0.5977
0.5977
0.68746
0.5977
0.597694
0.597699
0.597703
0.549644
0.5977
0.5977
0.5977
0.589055
0.534835
0.5977
0.597707
0.5977
0.687827
0.682545
0.5977
0.5977
0.689466
0.5977
0.551311
0.5977
0.5977
0.5977
0.5977
0.5977
0.55344
0.5977
0.5977
0.5977
0.5977
0.5977
0.597653
0.678127
0.5977
0.684869
0.5977
0.392267
0.672849
0.594259
0.5977
0.400098
0.336463
0.535222
0.5977
0.335884
0.575961
0.597641
0.5977
0.435999
0.5977
0.68537
0.5977
0.6893
0.5977
0.5536
0.5977
0.5977
0.5977
0.682981
0.588794
0.5977
0.579032
0.5977
0.5977
0.336375
0.5977
0.597704
0.5977
0.346719
0.68943
0.5977
0.5977
0.458513
0.5977
0.5977
0.336402
0.597698
0.5977
0.597719
0.597698
0.597702
0.5977
0.5977
0.597703
0.560145
0.5977
0.336453
0.5977
0.5977
0.5977
0.5977
0.623564
0.5977
0.349546
0.5977
0.688854
0.5977
0.5977
0.5977
0.5977
0.5977
0.5977
0.597684
0.5977
0.5977
0.341429
0.515896
0.5977
0.597698
0.596149
0.5977
0.5977
0.5977
0.5977
0.5977
0.5977
0.5977
0.34345
0.33642
0.5977
0.592674
0.557805
0.5977
0.597698
0.5977
0.5977
0.597701
0.5977
0.5977
0.340939
0.5977
0.59246
0.5977
0.5977
0.337135
0.626899
0.58662
0.5977
0.5977
0.5977
0.5977
0.336263
0.379401
0.5977
0.5977
0.689152
0.5977
0.33871
0.5977
0.336726
0.5977
0.686904
0.597697
0.390119
0.5977
0.689046
0.5977
0.5977
0.5977
0.591285
0.689033
0.5977
0.5977
0.597703
0.395451
0.5977
0.5977
0.557695
0.45726
0.5977
0.591187
0.5977
0.5977
0.5977
0.689106
0.677512
0.5977
0.5977
0.607012
0.597699
0.689906
0.539279