# vtk DataFile Version 1.0
unstructured grid
ascii
DATASET UNSTRUCTURED_GRID
points 13672 float
0.0796578 -0.059106 0
0.00128732 0.00159165 0
0.00227961 -0.00102548 0
0.0791586 -0.0598787 0
-0.0546216 0.01 0
0.000495206 0.025 0
0.0800549 -0.035 0
0.135172 -0.08 0
-0.0546216 -0.0451168 0
0.000495206 -0.0301168 0
0.0800549 -0.0901168 0
0.135172 -0.135117 0
-0.0546216 -0.0451168 -0.00551168
0.000495206 -0.0301168 -0.00551168
0.0800549 -0.0901168 -0.00551168
0.135172 -0.135117 -0.00551168
0.135172 -0.08 -0.00551168
0.0800549 -0.035 -0.00551168
0.000495206 0.025 -0.00551168
-0.0546216 0.01 -0.00551168
0.00128732 0.00159165 -0.00551168
0.00227961 -0.00102548 -0.00551168
0.0791586 -0.0598787 -0.00551168
0.0796578 -0.059106 -0.00551168
0.00165953 -0.000990923 0
0.00119576 -0.000874076 0
0.000866021 -0.000641801 0
0.000645147 -0.000349912 0
0.00052235 -1.7281e-05 0
0.00049972 0.000348016 0
0.000601632 0.000737716 0
0.000861774 0.0011403 0
0.00157235 0.00183217 0
0.00188647 0.00206725 0
0.00222612 0.00230203 0
0.00258713 0.00254351 0
0.00296826 0.00279524 0
0.00337118 0.00305664 0
0.00379785 0.00332658 0
0.00425045 0.00360349 0
0.00473139 0.00388521 0
0.0052432 0.00416895 0
0.0057881 0.00445204 0
0.00636753 0.00473281 0
0.00698281 0.00500961 0
0.00763526 0.00528058 0
0.00832616 0.00554366 0
0.00905691 0.00579603 0
0.00982918 0.00603333 0
0.0106445 0.00625033 0
0.0115038 0.00644128 0
0.0124073 0.00660297 0
0.0133543 0.00673414 0
0.0143444 0.00683382 0
0.0153769 0.00690031 0
0.0164512 0.00693173 0
0.0175666 0.00692547 0
0.0187219 0.00687822 0
0.0199156 0.00678477 0
0.0211454 0.00663864 0
0.0224084 0.00643275 0
0.0237018 0.00616676 0
0.0250249 0.00584739 0
0.026375 0.00547298 0
0.0277479 0.00503752 0
0.0291386 0.00453545 0
0.0305433 0.0039653 0
0.0319572 0.0033256 0
0.0333681 0.00260019 0
0.034775 0.00179799 0
0.0361793 0.000930615 0
0.0375798 3.12222e-06 0
0.0389689 -0.000988429 0
0.0403357 -0.00205109 0
0.041675 -0.00318283 0
0.0429849 -0.00437751 0
0.0442643 -0.00562904 0
0.0455126 -0.00693089 0
0.0467314 -0.00827518 0
0.0479204 -0.00965638 0
0.0490661 -0.0110799 0
0.0501515 -0.0125519 0
0.0511696 -0.0140695 0
0.0521492 -0.0156071 0
0.0531202 -0.0171411 0
0.0540851 -0.0186663 0
0.0550431 -0.0201798 0
0.0559923 -0.0216793 0
0.0569311 -0.0231626 0
0.0578582 -0.0246273 0
0.0587723 -0.0260715 0
0.0596721 -0.027493 0
0.0605563 -0.02889 0
0.0614241 -0.0302609 0
0.0622742 -0.0316042 0
0.063106 -0.0329183 0
0.0639186 -0.034202 0
0.0647113 -0.0354543 0
0.0654835 -0.0366743 0
0.0662345 -0.0378613 0
0.0669642 -0.0390145 0
0.0676726 -0.0401333 0
0.0683597 -0.0412172 0
0.0690246 -0.0422665 0
0.0696662 -0.0432819 0
0.0702841 -0.0442636 0
0.0708793 -0.0452111 0
0.0714538 -0.0461237 0
0.072009 -0.047001 0
0.0725452 -0.0478434 0
0.0730611 -0.0486524 0
0.073556 -0.0494294 0
0.0740291 -0.0501756 0
0.0744812 -0.0508916 0
0.0749138 -0.0515773 0
0.0753285 -0.0522331 0
0.0757266 -0.0528592 0
0.076109 -0.0534564 0
0.0764753 -0.0540264 0
0.0768243 -0.054571 0
0.0771553 -0.0550919 0
0.0774679 -0.0555901 0
0.0777617 -0.0560669 0
0.0780369 -0.056523 0
0.0782958 -0.0569578 0
0.0785421 -0.0573703 0
0.0787786 -0.0577603 0
0.0790073 -0.0581279 0
0.0792295 -0.058474 0
0.0794462 -0.0587995 0
0.0798803 -0.0594162 0
0.0800272 -0.0596588 0
0.0800357 -0.0598891 0
0.0799275 -0.0600784 0
0.0797205 -0.0601773 0
0.0794593 -0.0601051 0
0.0789155 -0.0596491 0
0.0786707 -0.0593963 0
0.0784111 -0.0591319 0
0.0781372 -0.0588542 0
0.0778566 -0.0585548 0
0.0775715 -0.0582308 0
0.0772803 -0.0578828 0
0.0769832 -0.0575099 0
0.0766822 -0.0571097 0
0.0763801 -0.0566796 0
0.0760759 -0.0562196 0
0.0757623 -0.0557337 0
0.0754359 -0.0552232 0
0.0750951 -0.0546879 0
0.0747379 -0.054128 0
0.0743626 -0.0535435 0
0.0739688 -0.0529338 0
0.0735559 -0.0522981 0
0.0731238 -0.0516357 0
0.0726718 -0.050946 0
0.0721991 -0.0502288 0
0.0717046 -0.049484 0
0.0711872 -0.0487117 0
0.0706461 -0.047912 0
0.0700804 -0.0470849 0
0.0694892 -0.0462308 0
0.0688718 -0.0453499 0
0.0682271 -0.0444431 0
0.0675544 -0.043511 0
0.0668527 -0.0425546 0
0.0661215 -0.0415748 0
0.06536 -0.040573 0
0.0645676 -0.0395504 0
0.0637439 -0.0385087 0
0.0628887 -0.0374493 0
0.062002 -0.0363741 0
0.0610838 -0.0352847 0
0.0601345 -0.0341831 0
0.0591547 -0.033071 0
0.0581456 -0.0319502 0
0.0571083 -0.0308224 0
0.0560444 -0.0296893 0
0.0549562 -0.028552 0
0.053845 -0.0274126 0
0.0527113 -0.0262746 0
0.051554 -0.0251427 0
0.0503724 -0.0240222 0
0.0491675 -0.0229164 0
0.047941 -0.0218282 0
0.0466955 -0.0207597 0
0.0454337 -0.0197126 0
0.0441592 -0.0186878 0
0.0428751 -0.0176863 0
0.0415841 -0.0167097 0
0.0402878 -0.0157609 0
0.0389879 -0.0148428 0
0.0376864 -0.0139575 0
0.0363853 -0.013107 0
0.0350871 -0.0122931 0
0.0337942 -0.0115164 0
0.0325095 -0.0107772 0
0.0312357 -0.0100756 0
0.0299758 -0.00941024 0
0.0287337 -0.00877784 0
0.0275126 -0.00817571 0
0.0263139 -0.00760375 0
0.0251376 -0.00706528 0
0.0239829 -0.0065649 0
0.0228537 -0.00609619 0
0.0217522 -0.00565563 0
0.0206795 -0.00524226 0
0.0196364 -0.00485507 0
0.0186233 -0.00449318 0
0.0176408 -0.00415577 0
0.016689 -0.00384204 0
0.0157682 -0.00355115 0
0.0148783 -0.00328218 0
0.0140192 -0.00303468 0
0.0131906 -0.00280795 0
0.0123925 -0.00260016 0
0.0116246 -0.00241012 0
0.0108864 -0.00223769 0
0.0101774 -0.00208212 0
0.00949701 -0.00194206 0
0.00884483 -0.0018163 0
0.0082202 -0.0017039 0
0.00762247 -0.00160391 0
0.00705097 -0.00151528 0
0.006505 -0.00143697 0
0.0059838 -0.00136806 0
0.00548662 -0.00130772 0
0.00501265 -0.00125519 0
0.00456114 -0.00120954 0
0.00413136 -0.00116914 0
0.00372257 -0.00113251 0
0.00333398 -0.00109853 0
0.00296466 -0.00106798 0
0.00261363 -0.0010431 0
-0.052721 -0.0445996 0
-0.0508204 -0.0440823 0
-0.0489199 -0.0435651 0
-0.0470193 -0.0430478 0
-0.0451187 -0.0425306 0
-0.0432181 -0.0420134 0
-0.0413175 -0.0414961 0
-0.039417 -0.0409789 0
-0.0375164 -0.0404616 0
-0.0356158 -0.0399444 0
-0.0337152 -0.0394271 0
-0.0318146 -0.0389099 0
-0.0299141 -0.0383927 0
-0.0280135 -0.0378754 0
-0.0261129 -0.0373582 0
-0.0242123 -0.0368409 0
-0.0223117 -0.0363237 0
-0.0204112 -0.0358065 0
-0.0185106 -0.0352892 0
-0.01661 -0.034772 0
-0.0147094 -0.0342547 0
-0.0128088 -0.0337375 0
-0.0109083 -0.0332202 0
-0.00900769 -0.032703 0
-0.00710711 -0.0321858 0
-0.00520653 -0.0316685 0
-0.00330595 -0.0311513 0
-0.00140537 -0.030634 0
0.00190689 -0.0299614 0
0.00332271 -0.0298498 0
0.00474133 -0.0297825 0
0.00616136 -0.0297597 0
0.0075814 -0.0297814 0
0.00900007 -0.0298477 0
0.010416 -0.0299583 0
0.0118278 -0.0301127 0
0.0132342 -0.0303103 0
0.0146339 -0.0305504 0
0.0160259 -0.0308322 0
0.0174091 -0.0311546 0
0.0187824 -0.0315166 0
0.020145 -0.031917 0
0.0214961 -0.0323546 0
0.0228351 -0.032828 0
0.0241613 -0.0333361 0
0.0254744 -0.0338774 0
0.0267738 -0.0344507 0
0.0280592 -0.0350545 0
0.0293306 -0.0356877 0
0.0305875 -0.0363488 0
0.0318301 -0.0370367 0
0.0330581 -0.0377501 0
0.0342717 -0.0384879 0
0.0354708 -0.0392489 0
0.0366556 -0.0400321 0
0.0378262 -0.0408363 0
0.0389828 -0.0416607 0
0.0401254 -0.0425042 0
0.0412543 -0.0433659 0
0.0423698 -0.0442451 0
0.043472 -0.0451408 0
0.0445612 -0.0460523 0
0.0456375 -0.0469789 0
0.0467013 -0.0479199 0
0.0477529 -0.0488746 0
0.0487923 -0.0498424 0
0.04982 -0.0508227 0
0.0508362 -0.051815 0
0.051841 -0.0528187 0
0.0528348 -0.0538333 0
0.0538178 -0.0548584 0
0.0547903 -0.0558935 0
0.0557524 -0.0569382 0
0.0567045 -0.0579922 0
0.0576467 -0.0590549 0
0.0585792 -0.0601261 0
0.0595024 -0.0612055 0
0.0604163 -0.0622926 0
0.0613212 -0.0633873 0
0.0622174 -0.0644891 0
0.0631049 -0.0655979 0
0.0639841 -0.0667134 0
0.064855 -0.0678353 0
0.0657179 -0.0689633 0
0.0665729 -0.0700974 0
0.0674202 -0.0712372 0
0.06826 -0.0723826 0
0.0690925 -0.0735333 0
0.0699178 -0.0746892 0
0.070736 -0.0758501 0
0.0715473 -0.0770159 0
0.0723518 -0.0781863 0
0.0731498 -0.0793612 0
0.0739412 -0.0805405 0
0.0747264 -0.081724 0
0.0755053 -0.0829116 0
0.0762781 -0.0841033 0
0.0770449 -0.0852987 0
0.0778059 -0.0864979 0
0.0785611 -0.0877007 0
0.0793108 -0.088907 0
0.0814681 -0.0912706 0
0.0828814 -0.0924245 0
0.0842946 -0.0935783 0
0.0857079 -0.0947322 0
0.0871211 -0.095886 0
0.0885344 -0.0970399 0
0.0899476 -0.0981937 0
0.0913609 -0.0993476 0
0.0927741 -0.100501 0
0.0941874 -0.101655 0
0.0956006 -0.102809 0
0.0970139 -0.103963 0
0.0984272 -0.105117 0
0.0998404 -0.106271 0
0.101254 -0.107424 0
0.102667 -0.108578 0
0.10408 -0.109732 0
0.105493 -0.110886 0
0.106907 -0.11204 0
0.10832 -0.113194 0
0.109733 -0.114348 0
0.111146 -0.115501 0
0.11256 -0.116655 0
0.113973 -0.117809 0
0.115386 -0.118963 0
0.116799 -0.120117 0
0.118213 -0.121271 0
0.119626 -0.122424 0
0.121039 -0.123578 0
0.122452 -0.124732 0
0.123866 -0.125886 0
0.125279 -0.12704 0
0.126692 -0.128194 0
0.128105 -0.129348 0
0.129519 -0.130501 0
0.130932 -0.131655 0
0.132345 -0.132809 0
0.133758 -0.133963 0
0.135172 -0.133216 0
0.135172 -0.131316 0
0.135172 -0.129415 0
0.135172 -0.127514 0
0.135172 -0.125614 0
0.135172 -0.123713 0
0.135172 -0.121813 0
0.135172 -0.119912 0
0.135172 -0.118012 0
0.135172 -0.116111 0
0.135172 -0.11421 0
0.135172 -0.11231 0
0.135172 -0.110409 0
0.135172 -0.108509 0
0.135172 -0.106608 0
0.135172 -0.104708 0
0.135172 -0.102807 0
0.135172 -0.100906 0
0.135172 -0.0990058 0
0.135172 -0.0971052 0
0.135172 -0.0952046 0
0.135172 -0.0933041 0
0.135172 -0.0914035 0
0.135172 -0.0895029 0
0.135172 -0.0876023 0
0.135172 -0.0857017 0
0.135172 -0.0838012 0
0.135172 -0.0819006 0
0.133758 -0.0788462 0
0.132345 -0.0776923 0
0.130932 -0.0765385 0
0.129519 -0.0753846 0
0.128105 -0.0742308 0
0.126692 -0.0730769 0
0.125279 -0.0719231 0
0.123866 -0.0707692 0
0.122452 -0.0696154 0
0.121039 -0.0684615 0
0.119626 -0.0673077 0
0.118213 -0.0661538 0
0.116799 -0.065 0
0.115386 -0.0638462 0
0.113973 -0.0626923 0
0.11256 -0.0615385 0
0.111146 -0.0603846 0
0.109733 -0.0592308 0
0.10832 -0.0580769 0
0.106907 -0.0569231 0
0.105493 -0.0557692 0
0.10408 -0.0546154 0
0.102667 -0.0534615 0
0.101254 -0.0523077 0
0.0998404 -0.0511538 0
0.0984272 -0.05 0
0.0970139 -0.0488462 0
0.0956006 -0.0476923 0
[...]
CELL_DATA 13116
SCALARS rho float
LOOKUP_TABLE default
0.578313
0.698369
0.356289
0.713856
0.715399
0.696181
0.28107
0.715199
0.5188
0.714214
0.312537
0.297351
0.715003
0.29865
0.284569
0.697089
0.576324
0.700899
0.711916
0.290213
0.571308
0.318872
0.303408
0.705456
0.592677
0.729148
0.714317
0.302327
0.56818
0.642185
0.566003
0.298716
0.543625
0.437531
0.291207
0.575683
0.672346
0.71903
0.605195
0.709532
0.709333
0.715092
0.441192
0.341662
0.714796
0.712747
0.703374
0.712818
0.296131
0.504248
0.713022
0.446615
0.261118
0.568429
0.543996
0.578905
0.327475
0.70708
0.514149
0.276004
0.300958
0.713573
0.6958
0.587849
0.561061
0.307222
0.70475
0.673857
0.712141
0.560742
0.292296
0.552351
0.326598
0.304177
0.563219
0.342039
0.671057
0.718098
0.297583
0.696336
0.688454
0.729414
0.707791
0.716646
0.719515
0.385367
0.288266
0.663592
0.723728
0.324119
0.299068
0.700232
0.710744
0.721972
0.652102
0.60355
0.594585
0.560956
0.563528
0.570121
0.667774
0.666305
0.710357
0.411204
0.707024
0.287643
0.33196
0.488426
0.298715
0.580644
0.516487
0.723216
0.599894
0.68972
0.697093
0.706657
0.29461
0.370036
0.717965
0.70832
0.672658
0.329976
0.71271
0.298294
0.721678
0.421213
0.28677
0.48394
0.303649
0.503724
0.717868
0.713322
0.454502
0.306713
0.434697
0.62103
0.55978
0.712107
0.665628
0.708346
0.666518
0.703448
0.485184
0.669195
0.686473
0.295249
0.300666
0.73245
0.716336
0.713421
0.503031
0.716064
0.712206
0.339899
0.713977
0.720761
0.303086
0.675241
0.560799
0.662108
0.704994
0.307518
0.710702
0.303905
0.336892
0.713343
0.723718
0.700127
0.287818
0.412796
0.381075
0.55991
0.265323
0.471871
0.706158
0.302664
0.312822
0.323751
0.722677
0.705786
0.292741
0.405953
0.540501
0.670519
0.708912
0.515328
0.315648
0.703248
0.709375
0.440825
0.659187
0.732256
0.560007
0.301415
0.726673
0.697003
0.713498
0.706787
0.722541
0.384972
0.411877
0.588895
0.479219
0.303946
0.716484
0.718926
0.454391
0.610128
0.26758
0.317088
0.345415
0.701433
0.303279
0.298119
0.319721
0.340528
0.359354
0.606581
0.72251
0.368459
0.31992
0.704058
0.511464
0.294136
0.503488
0.713673
0.686235
0.296945
0.705775
0.34573
0.715516
0.299092
0.564735
0.538863
0.560678
0.721145
0.556677
0.282754
0.416961
0.658736
0.563043
0.69937
0.559787
0.555096
0.714998
0.312945
0.712407
0.713765
0.560772
0.320843
0.298548
0.717649
0.717644
0.565899
0.718228
0.572669
0.687953
0.31111
0.299588
0.384307
0.266042
0.700795
0.71326
0.672137
0.29208
0.718716
0.304898
0.380418
0.708108
0.325732
0.732134
0.713734
0.563718
0.707251
0.284015
0.563488
0.695057
0.560461
0.713038
0.298738
0.293779
0.301887
0.617821
0.331028
0.310737
0.317108
0.300494
0.714125
0.255109
0.723891
0.714636
0.303567
0.287773
0.304308
0.423302
0.357309
0.66282
0.646344
0.71689
0.322103
0.709067
0.538155
0.302907
0.279564
0.652229
0.717437
0.705956
0.316181
0.69902
0.419984
0.713546
0.714818
0.712308
0.714641
0.301297
0.704784
0.256388
0.6993
0.71411
0.652274
0.300919
0.313712
0.713553
0.306542
0.705189
0.713528
0.372086
0.685662
0.707485
0.304178
0.718765
0.710598
0.272263
0.71749
0.370916
0.523176
0.713529
0.384883
0.677116
0.293605
0.702915
0.303617
0.559016
0.680034
0.714226
0.300078
0.339235
0.720056
0.337672
0.717306
0.713167
0.400355
0.560126
0.319048
0.332944
0.718218
0.507765
0.674068
0.296027
0.303547
0.711904
0.714861
0.306308
0.714866
0.300195
0.2852
0.707873
0.713877
0.497681
0.333533
0.715312
0.562817
0.697065
0.720582
0.712057
0.507011
0.386043
0.258571
0.290636
0.695453
0.291735
0.541138
0.371398
0.300502
0.333373
0.506086
0.110378
0.336912
0.71962
0.304714
0.711829
0.571224
0.71054
0.653158
0.714085
0.333925
0.293451
0.387705
0.3681
0.717266
0.596841
0.710256
0.571196
0.685534
0.62254
0.729696
0.65246
0.640139
0.71256
0.695245
0.686991
0.387349
0.458561
0.575161
0.321598
0.643593
0.579859
0.269181
0.706123
0.562218
0.301877
0.295437
0.309514
0.31497
0.59566
0.302521
0.301534
0.701983
0.305519
0.541665
0.322495
0.697465
0.696281
0.363907
0.309596
0.718056
0.420367
0.327071
0.313134
0.324516
0.300341
0.296232
0.294664
0.320628
0.385904
0.311673
0.665141
0.363329
0.722084
0.379093
0.297406
0.444577
0.292973
0.321574
0.294457
0.710589
0.397845
0.61384
0.500728
0.306169
0.613928
0.724247
0.381904
0.684758
0.630034
0.632918
0.297299
0.560479
0.371295
0.71107
0.565915
0.302043
0.261042
0.7069
0.371262
0.383482
0.683763
0.332115
0.673488
0.688759
0.287194
0.313006
0.260582
0.467169
0.277291
0.268631
0.27606
0.258191
0.713838
0.713896
0.428746
0.573477
0.439533
0.723359
0.345553
0.326592
0.52428
0.302082
0.718297
0.296902
0.34941
0.449557
0.715562
0.723423
0.515694
0.372662
0.255355
0.515314
0.714955
0.556449
0.512629
0.703312
0.698934
0.311117
0.69465
0.534819
0.656898
0.315042
0.355265
0.688189
0.713391
0.65045
0.714026
0.716387
0.721851
0.703943
0.653061
0.710341
0.303586
0.7161
0.30454
0.271077
0.304614
0.713932
0.718648
0.29899
0.719506
0.584229
0.302217
0.554599
0.71728
0.707911
0.305853
0.327957
0.718155
0.329517
0.326764
0.289684
0.311787
0.715781
0.268815
0.713526
0.356827
0.69718
0.712856
0.709702
0.714798
0.330338
0.290937
0.718962
0.715828
0.670408
0.713744
0.713864
0.432434
0.302403
0.302403
0.708339
0.51569
0.308598
0.420338
0.300532
0.712529
0.703661
0.310864
0.31898
0.72026
0.392126
0.719702
0.635463
0.302764
0.345161
0.667614
0.560616
0.303612
0.723078
0.723035
0.71893
0.33606
0.559988
0.312923
0.560632
0.655175
0.334067
0.356682
0.313456
0.560571
0.298143
0.283874
0.374826
0.580136
0.710739
0.287953
0.299046
0.316581
0.562492
0.326887
0.703731
0.295884
0.555041
0.713791
0.37919
0.303919
0.303545
0.434684
0.302982
0.726891
0.31772
0.323454
0.692649
0.255889
0.700363
0.70382
0.560802
0.30545
0.718719
0.71152
0.71328
0.70849
0.712979
0.7076
0.296678
0.560574
0.374124
0.715631
0.297426
0.71498
0.493152
0.275118
0.560858
0.715611
0.330295
0.64994
0.299592
0.296486
0.701736
0.712538
0.30136
0.29581
0.294866
0.29594
0.712725
0.705523
0.335108
0.293047
0.717034
0.709477
0.558302
0.7117
0.702676
0.3089
0.71428
0.388062
0.71293
0.380184
0.591075
0.425582
0.703669
0.675621
0.536375
0.338957
0.295443
0.707628
0.565851
0.566709
0.711475
0.261029
0.696966
0.71411
0.32414
0.454599
0.712472
0.368871
0.560683
0.65983
0.313038
0.709725
0.649659
0.343592
0.707728
0.301812
0.71842
0.351643
0.701164
0.695964
0.303886
0.610319
0.711057
0.717936
0.587395
0.701163
0.538083
0.317603
0.417011
0.299306
0.303748
0.559967
0.50713
0.711214
0.716494
0.300253
0.339912
0.706638
0.71411
0.717887
0.714052
0.30016
0.694955
0.71382
0.291271
0.278505
0.718081
0.716956
0.719176
0.294954
0.543671
0.395953
0.705389
0.706141
0.559875
0.707053
0.309352
0.710685
0.723171
0.709533
0.716942
0.708846
0.370007
0.712124
0.316808
0.683394
0.713602
0.412977
0.688034
0.554956
0.712685
0.418454
0.39805
0.541599
0.640057
0.328771
0.335072
0.325534
0.313806
0.697263
0.695786
0.557142
0.305625
0.310273
0.712453
0.675819
0.275396
0.340242
0.422027
0.67699
0.705702
0.721205
0.701792
0.318619
0.329116
0.562001
0.298192
0.297567
0.326244
0.705271
0.392668
0.330354
0.572595
0.718244
0.720912
0.666399
0.702771
0.299595
0.248875
0.319103
0.510538
0.398292
0.2994
0.673266
0.699194
0.714087
0.709679
0.29652
0.312019
0.71401
0.317259
0.708591
0.697465
0.560857
0.301325
0.323847
0.715082
0.561001
0.601267
0.271498
0.720047
0.681033
0.569141
0.713048
0.714453
0.562637
0.701594
0.299369
0.701852
0.560442
0.660699
0.704512
0.560114
0.721814
0.560174
0.713885
0.3208
0.324743
0.314505
0.560986
0.496883
0.319429
0.707282
0.716702
0.296253
0.650356
0.393081
0.657455
0.492637
0.28641
0.713962
0.704219
0.311246
0.498978
0.562114
0.3043
0.723068
0.306706
0.286053
0.62127
0.585678
0.444224
0.710797
0.329667
0.711167
0.319199
0.295512
0.700297
0.30779
0.605674
0.300662
0.653103
0.590429
0.55995
0.723617
0.251067
0.323218
0.672987
0.447893
0.717667
0.447132
0.596507
0.695987
0.708873
0.459571
0.577654
0.723707
0.713743
0.706605
0.310167
0.333694
0.492221
0.725541
0.714137
0.371743
0.710324
0.603013
0.386795
0.300927
0.654671
0.676695
0.559938
0.560442
0.679654
0.693267
0.609146
0.680858
0.30009
0.646483
0.42
0.710392
0.716889
0.286866
0.712272
0.716653
0.331935
0.274455
0.304598
0.55983
0.305794
0.618028
0.70987
0.646223
0.273101
0.717869
0.304389
0.545275
0.570686
0.559542
0.671274
0.569382
0.601383
0.68724
0.519296
0.715404
0.353175
0.706997
0.710089
0.428875
0.560348
0.699438
0.302038
0.255919
0.305655
0.712384
0.335048
0.559992
0.316654
0.715102
0.26594
0.425831
0.298583
0.710254
0.713537
0.570785
0.240392
0.604264
0.630845
0.313836
0.559635
0.713993
0.29909
0.580428
0.561495
0.713586
0.708924
0.30162
0.483539
0.717715
0.711399
0.684099
0.332157
0.39365
0.719669
0.560596
0.561317
0.559785
0.560524
0.713798
0.555772
0.709443
0.331795
0.304195
0.559805
0.716312
0.581297
0.305991
0.707338
0.57608
0.62045
0.341704
0.367053
0.714846
0.713784
0.530249
0.378048
0.70969
0.56044
0.291666
0.58853
0.701079
0.29292
0.297536
0.248325
0.717157
0.321574
0.30487
0.719713
0.451922
0.714083
0.65226
0.276659
0.301022
0.71366
0.331142
0.307916
0.561615
0.290329
0.35151
0.584483
0.713161
0.71777
0.31212
0.408052
0.316701
0.703073
0.28753
0.718289
0.277923
0.709451
0.712945
0.716289
0.707998
0.707428
0.70709
0.704401
0.715277
0.718621
0.266755
0.316147
0.70034
0.63633
0.448113
0.716367
0.540314
0.583887
0.658949
0.360889
0.707578
0.713944
0.716424
0.322921
0.710528
0.349789
0.717415
0.435047
0.698481
0.70942
0.288634
0.716643
0.313781
0.432553
0.69453
0.335558
0.677445
0.559798
0.713683
0.315843
0.701826
0.316871
0.301283
0.300228
0.318409
0.659575
0.26566
0.666314
0.560084
0.375813
0.301302
0.427623
0.540159
0.629702
0.690853
0.305227
0.308105
0.304999
0.298547
0.233232
0.633325
0.724633
0.315718
0.557816
0.709751
0.251854
0.714042
0.673617
0.557246
0.32573
0.560101
0.69963
0.713709
0.711248
0.28182
0.717363
0.715788
0.711316
0.653053
0.694206
0.307318
0.300418
0.714882
0.487169
0.328156
0.700001
0.301318
0.52463
0.642384
0.717035
0.719122
0.30015
0.714561
0.382839
0.324467
0.689052
0.717807
0.715183
0.713334
0.667882
0.302056
0.714052
0.27416
0.4463
0.71339
0.564736
0.717721
0.323716
0.301309
0.713536
0.308351
0.718168
0.626834
0.399015
0.319347
0.708509
0.300674
0.709594
0.718105
0.669725
0.300683
0.325855
0.476436
0.51464
0.625903
0.449701
0.696887
0.692587
0.722993
0.559823
0.709161
0.239066
0.319314
0.718157
0.69019
0.67964
0.408492
0.30417
0.69171
0.246934
0.703153
0.582076
0.388054
0.716988
0.304811
0.715833
0.353084
0.715735
0.280895
0.71888
0.699236
0.296959
0.721862
0.640095
0.29977
0.557592
0.712153
0.542015
0.291933
0.367084
0.445752
0.711972
0.682024
0.352097
0.540728
0.710934
0.690968
0.264485
0.632153
0.710386
0.386303
0.696432
0.69915
0.275408
0.717966
0.560187
0.356462
0.60501
0.313
0.661152
0.323366
0.283927
0.712996
0.311814
0.31759
0.248566
0.703472
0.704028
0.392206
0.709863
0.361888
0.68506
0.318733
0.705514
0.371995
0.697018
0.714671
0.665338
0.564549
0.501839
0.702731
0.567252
0.363549
0.615927
0.66571
0.531641
0.708614
0.434312
0.405858
0.714379
0.304991
0.541983
0.399537
0.710353
0.272043
0.301393
0.704082
0.702523
0.288413
0.709657
0.698103
0.560244
0.714013
0.560572
0.299595
0.714287
0.29482
0.303571
0.724518
0.703877
0.715023
0.721505
0.298894
0.330849
0.312888
0.701394
0.565656
0.363825
0.712792
0.307643
0.321634
0.341055
0.723897
0.378139
0.713322
0.718473
0.612791
0.715132
0.718719
0.576377
0.671852
0.381569
0.297276
0.289854
0.560515
0.560274
0.306121
0.634929
0.714235
0.668111
0.302058
0.420984
0.694179
0.284331
0.688569
0.646548
0.297168
0.647372
0.6988
0.32154
0.717758
0.299269
0.710209
0.71456
0.708629
0.249907
0.407566
0.676498
0.291165
0.375776
0.716196
0.304872
0.672745
0.706133
0.732272
0.6977
0.38604
0.561008
0.688541
0.711606
0.328443
0.715291
0.317159
0.28971
0.718447
0.704569
0.567415
0.232588
0.70793
0.611524
0.563907
0.308236
0.2977
0.329428
0.710509
0.29765
0.25789
0.343761
0.644778
0.286505
0.28785
0.38567
0.718678
0.307514
0.561935
0.600098
0.709175
0.31653
0.716249
0.649699
0.568604
0.370454
0.650514
0.303129
0.308112
0.701369
0.288624
0.642295
0.707885
0.559867
0.302128
0.316376
0.331252
0.513141
0.559812
0.239361
0.718811
0.702877
0.700339
0.320672
0.268376
0.310321
0.688019
0.31695
0.559595
0.572196
0.650576
0.719197
0.300681
0.648723
0.297349
0.649344
0.629537
0.714102
0.631082
0.535658
0.655636
0.682387
0.718026
0.311118
0.377622
0.307114
0.697521
0.520746
0.565304
0.301761
0.378856
0.710912
0.716644
0.560887
0.290179
0.709517
0.511048
0.516254
0.684077
0.303119
0.291753
0.28043
0.704108
0.564631
0.649898
0.721661
0.32219
0.713932
0.645106
0.5643
0.552465
0.713894
0.71393
0.695557
0.704339
0.714676
0.301409
0.715924
0.713419
0.70026
0.717295
0.705974
0.616597
0.300204
0.289927
0.666415
0.329686
0.381468
0.709521
0.30385
0.613011
0.711753
0.698632
0.717307
0.303081
0.709998
0.299751
0.305338
0.697496
0.714313
0.709896
0.317233
0.714474
0.710727
0.673356
0.704221
0.318505
0.700937
0.713516
0.696137
0.384567
0.704375
0.317442
0.713079
0.347387
0.302642
0.579472
0.415382
0.713854
0.709021
0.709097
0.340805
0.698302
0.394676
0.289861
0.719373
0.427906
0.328523
0.70945
0.288084
0.456815
0.669522
0.698461
0.716467
0.431154
0.556513
0.656089
0.709687
0.617197
0.715456
0.488401
0.714074
0.721621
0.646499
0.295489
0.300671
0.410278
0.714098
0.30232
0.659788
0.710011
0.603863
0.709614
0.555982
0.679633
0.682648
0.32517
0.709333
0.710872
0.544019
0.710739
0.713562
0.725596
0.662283
0.321018
0.319575
0.715022
0.525474
0.562368
0.709729
0.717984
0.709922
0.713575
0.71439
0.621092
0.692413
0.714199
0.239207
0.303692
0.275916
0.378708
0.560106
0.434476
0.552034
0.716975
0.687749
0.303049
0.717419
0.713801
0.316639
0.354698
0.55992
0.715754
0.303104
0.294305
0.291216
0.55973
0.731314
0.387169
0.244119
0.295684
0.282799
0.362486
0.332099
0.715423
0.713826
0.702957
0.314031
0.700265
0.62394
0.576796
0.329077
0.295587
0.720542
0.559838
0.326405
0.696577
0.319967
0.704285
0.301766
0.709354
0.304184
0.714658
0.714089
0.316329
0.518765
0.309065
0.714254
0.294045
0.629836
0.301075
0.489913
0.310067
0.624159
0.31426
0.566782
0.557594
0.575931
0.706569
0.335271
0.706541
0.645543
0.714483
0.61991
0.685715
0.294614
0.416146
0.3049
0.711007
0.289634
0.716932
0.508951
0.702774
0.713493
0.485052
0.712832
0.294984
0.305667
0.248991
0.489576
0.582759
0.718693
0.318118
0.309173
0.699836
0.334772
0.300444
0.608054
0.356923
0.32862
0.289986
0.715016
0.636249
0.632931
0.303896
0.703275
0.704461
0.296818
0.294744
0.722866
0.701246
0.646829
0.462745
0.356353
0.328314
0.337046
0.713065
0.666903
0.515162
0.687265
0.270767
0.567725
0.304088
0.560926
0.71692
0.293767
0.302981
0.673324
0.603369
0.7153
0.715018
0.713074
0.710811
0.713326
0.341897
0.321243
0.309999
0.299299
0.576353
0.562727
0.638372
0.301586
0.300887
0.443813
0.297618
0.71011
0.696673
0.320798
0.311811
0.710617
0.303289
0.656111
0.712464
0.704003
0.692191
0.578593
0.326145
0.303356
0.689893
0.294188
0.424026
0.38943
0.635947
0.708234
0.258069
0.298451
0.560035
0.312979
0.704757
0.711158
0.311438
0.333242
0.250201
0.712664
0.294531
0.559768
0.703507
0.609274
0.294758
0.483595
0.71817
0.718672
0.284292
0.715045
0.666534
0.297931
0.718236
0.713957
0.320882
0.318553
0.714454
0.315062
0.298478
0.70928
0.313331
0.714165
0.678523
0.708958
0.665908
0.716557
0.705702
0.682034
0.307005
0.362261
0.682288
0.715218
0.405077
0.714187
0.331383
0.713764
0.717374
0.558209
0.64841
0.416692
0.422735
0.717978
0.717558
0.719662
0.713856
0.710203
0.559821
0.714264
0.560076
0.7138
0.720071
0.712752
0.559912
0.69685
0.29885
0.727666
0.361166
0.708399
0.715793
0.707541
0.706594
0.69524
0.332357
0.335682
0.299443
0.291583
0.702004
0.290583
0.327266
0.691667
0.295195
0.703271
0.335488
0.710646
0.717835
0.310437
0.336372
0.385666
0.711825
0.30478
0.718674
0.716164
0.33111
0.720714
0.519221
0.381372
0.294856
0.296467
0.689216
0.319997
0.709407
0.554192
0.31182
0.711733
0.709641
0.712723
0.320443
0.576458
0.300282
0.701188
0.666242
0.706983
0.333631
0.714384
0.711067
0.718284
0.390276
0.71258
0.326141
0.31273
0.718824
0.42931
0.713936
0.407687
0.33208
0.391399
0.71465
0.302723
0.301948
0.35095
0.495515
0.560124
0.717237
0.284396
0.616974
0.711251
0.511475
0.436818
0.39068
0.521508
0.332955
0.304939
0.716631
0.315048
0.320755
0.712629
0.714007
0.31966
0.699083
0.34228
0.559819
0.30577
0.721247
0.561303
0.696664
0.617395
0.321748
0.305974
0.300691
0.690753
0.716811
0.553724
0.520613
0.331332
0.302058
0.707072
0.309997
0.714028
0.339727
0.560764
0.676008
0.309273
0.343312
0.311376
0.298532
0.350387
0.67489
0.701314
0.30483
0.716374
0.639261
0.316049
0.259146
0.714058
0.326181
0.718818
0.374767
0.69841
0.654157
0.715698
0.56018
0.310433
0.714446
0.708474
0.714957
0.316908
0.681882
0.564948
0.381956
0.712572
0.66748
0.713617
0.705685
0.713278
0.720868
0.714506
0.700736
0.711733
0.304303
0.71107
0.310674
0.453441
0.717359
0.300641
0.716344
0.697184
0.30535
0.716189
0.316512
0.299275
0.724663
0.68542
0.713961
0.316853
0.706254
0.601942
0.345384
0.312544
0.722547
0.703844
0.351287
0.341102
0.708117
0.713949
0.322592
0.644414
0.714125
0.638392
0.307385
0.324742
0.299906
0.654392
0.281656
0.715012
0.696508
0.707719
0.629257
0.718706
0.316938
0.720477
0.588
0.714504
0.630519
0.30071
0.298479
0.277561
0.706039
0.717205
0.371932
0.651843
0.408745
0.667503
0.707965
0.265036
0.663712
0.7158
0.623927
0.314307
0.29258
0.383584
0.718135
0.713821
0.599175
0.462783
0.71775
0.324601
0.628978
0.564062
0.713743
0.314856
0.599774
0.306452
0.705073
0.283917
0.718738
0.724027
0.303794
0.718264
0.444535
0.559859
0.65053
0.559617
0.711836
0.413844
0.706705
0.709359
0.707001
0.718941
0.419163
0.563721
0.262991
0.709514
0.272351
0.294418
0.270082
0.34448
0.33139
0.312777
0.7134
0.331619
0.260399
0.665459
0.718219
0.702818
0.388845
0.692905
0.685912
0.683031
0.328502
0.631373
0.705236
0.335745
0.345113
0.306789
0.627034
0.452378
0.307671
0.624517
0.296939
0.560694
0.44629
0.283379
0.421361
0.647834
0.380477
0.704172
0.261505
0.522394
0.348985
0.712668
0.365659
0.665495
0.563683
0.706035
0.433316
0.303312
0.713184
0.713758
0.342205
0.30142
0.694762
0.295284
0.70344
0.314665
0.518861
0.2781
0.704879
0.324139
0.713531
0.292805
0.708104
0.718495
0.717659
0.560104
0.260773
0.302587
0.38711
0.727159
0.690121
0.715215
0.587579
0.310498
0.711765
0.389141
0.715526
0.673795
0.406095
0.316262
0.712541
0.718987
0.300693
0.566015
0.712598
0.714309
0.709164
0.262235
0.6312
0.314905
0.715223
0.280047
0.570314
0.718585
0.712365
0.713765
0.313067
0.714279
0.310451
0.327488
0.703764
0.560103
0.537796
0.716702
0.561478
0.323889
0.702126
0.713853
0.71468
0.301227
0.404602
0.685916
0.294696
0.714622
0.710496
0.717524
0.712303
0.284941
0.440346
0.64224
0.303934
0.718615
0.713885
0.461373
0.724663
0.24535
0.690232
0.7029
0.672613
0.723103
0.291489
0.30139
0.718728
0.714006
0.305594
0.343178
0.324882
0.303892
0.249041
0.297078
0.362052
0.328498
0.718886
0.272376
0.310708
0.707
0.538469
0.559732
0.373214
0.300005
0.712057
0.449781
0.50837
0.71384
0.359059
0.649453
0.554316
0.581707
0.70527
0.307015
0.717542
0.573759
0.329535
0.311256
0.408393
0.694825
0.58355
0.713266
0.69748
0.714212
0.706263
0.380381
0.718416
0.606109
0.717363
0.305276
0.706879
0.654293
0.378841
0.401098
0.253686
0.298939
0.249031
0.586205
0.671204
0.70082
0.306049
0.340905
0.713964
0.296133
0.714674
0.709566
0.716906
0.672212
0.716678
0.334605
0.299756
0.294532
0.575799
0.284405
0.712044
0.293398
0.701789
0.696319
0.71559
0.365142
0.436237
0.409374
0.718688
0.339062
0.306307
0.709815
0.706083
0.654904
0.696584
0.722309
0.703435
0.33203
0.599297
0.715857
0.481414
0.718865
0.714253
0.707949
0.391416
0.372651
0.714774
0.442734
0.636135
0.319473
0.69391
0.719187
0.385449
0.282431
0.697811
0.484715
0.717202
0.713907
0.322075
0.291093
0.560341
0.421529
0.393533
0.721035
0.722876
0.305451
0.718839
0.561033
0.705276
0.33289
0.584014
0.328949
0.722705
0.717179
0.70442
0.697622
0.561111
0.298122
0.360237
0.70742
0.317141
0.577536
0.309825
0.716432
0.292161
0.653289
0.715898
0.560822
0.333731
0.55963
0.560026
0.303142
0.691914
0.295935
0.715089
0.330693
0.305408
0.286673
0.696104
0.716
0.29281
0.296112
0.732609
0.713438
0.428588
0.693937