# vtk DataFile Version 1.0
unstructured grid
ascii
DATASET UNSTRUCTURED_GRID
points 13672 float
0.0796578 -0.059106 0
0.00128732 0.00159165 0
0.00227961 -0.00102548 0
0.0791586 -0.0598787 0
-0.0546216 0.01 0
0.000495206 0.025 0
0.0800549 -0.035 0
0.135172 -0.08 0
-0.0546216 -0.0451168 0
0.000495206 -0.0301168 0
0.0800549 -0.0901168 0
0.135172 -0.135117 0
-0.0546216 -0.0451168 -0.00551168
0.000495206 -0.0301168 -0.00551168
0.0800549 -0.0901168 -0.00551168
0.135172 -0.135117 -0.00551168
0.135172 -0.08 -0.00551168
0.0800549 -0.035 -0.00551168
0.000495206 0.025 -0.00551168
-0.0546216 0.01 -0.00551168
0.00128732 0.00159165 -0.00551168
0.00227961 -0.00102548 -0.00551168
0.0791586 -0.0598787 -0.00551168
0.0796578 -0.059106 -0.00551168
0.00165953 -0.000990923 0
0.00119576 -0.000874076 0
0.000866021 -0.000641801 0
0.000645147 -0.000349912 0
0.00052235 -1.7281e-05 0
0.00049972 0.000348016 0
0.000601632 0.000737716 0
0.000861774 0.0011403 0
0.00157235 0.00183217 0
0.00188647 0.00206725 0
0.00222612 0.00230203 0
0.00258713 0.00254351 0
0.00296826 0.00279524 0
0.00337118 0.00305664 0
0.00379785 0.00332658 0
0.00425045 0.00360349 0
0.00473139 0.00388521 0
0.0052432 0.00416895 0
0.0057881 0.00445204 0
0.00636753 0.00473281 0
0.00698281 0.00500961 0
0.00763526 0.00528058 0
0.00832616 0.00554366 0
0.00905691 0.00579603 0
0.00982918 0.00603333 0
0.0106445 0.00625033 0
0.0115038 0.00644128 0
0.0124073 0.00660297 0
0.0133543 0.00673414 0
0.0143444 0.00683382 0
0.0153769 0.00690031 0
0.0164512 0.00693173 0
0.0175666 0.00692547 0
0.0187219 0.00687822 0
0.0199156 0.00678477 0
0.0211454 0.00663864 0
0.0224084 0.00643275 0
0.0237018 0.00616676 0
0.0250249 0.00584739 0
0.026375 0.00547298 0
0.0277479 0.00503752 0
0.0291386 0.00453545 0
0.0305433 0.0039653 0
0.0319572 0.0033256 0
0.0333681 0.00260019 0
0.034775 0.00179799 0
0.0361793 0.000930615 0
0.0375798 3.12222e-06 0
0.0389689 -0.000988429 0
0.0403357 -0.00205109 0
0.041675 -0.00318283 0
0.0429849 -0.00437751 0
0.0442643 -0.00562904 0
0.0455126 -0.00693089 0
0.0467314 -0.00827518 0
0.0479204 -0.00965638 0
0.0490661 -0.0110799 0
0.0501515 -0.0125519 0
0.0511696 -0.0140695 0
0.0521492 -0.0156071 0
0.0531202 -0.0171411 0
0.0540851 -0.0186663 0
0.0550431 -0.0201798 0
0.0559923 -0.0216793 0
0.0569311 -0.0231626 0
0.0578582 -0.0246273 0
0.0587723 -0.0260715 0
0.0596721 -0.027493 0
0.0605563 -0.02889 0
0.0614241 -0.0302609 0
0.0622742 -0.0316042 0
0.063106 -0.0329183 0
0.0639186 -0.034202 0
0.0647113 -0.0354543 0
0.0654835 -0.0366743 0
0.0662345 -0.0378613 0
0.0669642 -0.0390145 0
0.0676726 -0.0401333 0
0.0683597 -0.0412172 0
0.0690246 -0.0422665 0
0.0696662 -0.0432819 0
0.0702841 -0.0442636 0
0.0708793 -0.0452111 0
0.0714538 -0.0461237 0
0.072009 -0.047001 0
0.0725452 -0.0478434 0
0.0730611 -0.0486524 0
0.073556 -0.0494294 0
0.0740291 -0.0501756 0
0.0744812 -0.0508916 0
0.0749138 -0.0515773 0
0.0753285 -0.0522331 0
0.0757266 -0.0528592 0
0.076109 -0.0534564 0
0.0764753 -0.0540264 0
0.0768243 -0.054571 0
0.0771553 -0.0550919 0
0.0774679 -0.0555901 0
0.0777617 -0.0560669 0
0.0780369 -0.056523 0
0.0782958 -0.0569578 0
0.0785421 -0.0573703 0
0.0787786 -0.0577603 0
0.0790073 -0.0581279 0
0.0792295 -0.058474 0
0.0794462 -0.0587995 0
0.0798803 -0.0594162 0
0.0800272 -0.0596588 0
0.0800357 -0.0598891 0
0.0799275 -0.0600784 0
0.0797205 -0.0601773 0
0.0794593 -0.0601051 0
0.0789155 -0.0596491 0
0.0786707 -0.0593963 0
0.0784111 -0.0591319 0
0.0781372 -0.0588542 0
0.0778566 -0.0585548 0
0.0775715 -0.0582308 0
0.0772803 -0.0578828 0
0.0769832 -0.0575099 0
0.0766822 -0.0571097 0
0.0763801 -0.0566796 0
0.0760759 -0.0562196 0
0.0757623 -0.0557337 0
0.0754359 -0.0552232 0
0.0750951 -0.0546879 0
0.0747379 -0.054128 0
0.0743626 -0.0535435 0
0.0739688 -0.0529338 0
0.0735559 -0.0522981 0
0.0731238 -0.0516357 0
0.0726718 -0.050946 0
0.0721991 -0.0502288 0
0.0717046 -0.049484 0
0.0711872 -0.0487117 0
0.0706461 -0.047912 0
0.0700804 -0.0470849 0
0.0694892 -0.0462308 0
0.0688718 -0.0453499 0
0.0682271 -0.0444431 0
0.0675544 -0.043511 0
0.0668527 -0.0425546 0
0.0661215 -0.0415748 0
0.06536 -0.040573 0
0.0645676 -0.0395504 0
0.0637439 -0.0385087 0
0.0628887 -0.0374493 0
0.062002 -0.0363741 0
0.0610838 -0.0352847 0
0.0601345 -0.0341831 0
0.0591547 -0.033071 0
0.0581456 -0.0319502 0
0.0571083 -0.0308224 0
0.0560444 -0.0296893 0
0.0549562 -0.028552 0
0.053845 -0.0274126 0
0.0527113 -0.0262746 0
0.051554 -0.0251427 0
0.0503724 -0.0240222 0
0.0491675 -0.0229164 0
0.047941 -0.0218282 0
0.0466955 -0.0207597 0
0.0454337 -0.0197126 0
0.0441592 -0.0186878 0
0.0428751 -0.0176863 0
0.0415841 -0.0167097 0
0.0402878 -0.0157609 0
0.0389879 -0.0148428 0
0.0376864 -0.0139575 0
0.0363853 -0.013107 0
0.0350871 -0.0122931 0
0.0337942 -0.0115164 0
0.0325095 -0.0107772 0
0.0312357 -0.0100756 0
0.0299758 -0.00941024 0
0.0287337 -0.00877784 0
0.0275126 -0.00817571 0
0.0263139 -0.00760375 0
0.0251376 -0.00706528 0
0.0239829 -0.0065649 0
0.0228537 -0.00609619 0
0.0217522 -0.00565563 0
0.0206795 -0.00524226 0
0.0196364 -0.00485507 0
0.0186233 -0.00449318 0
0.0176408 -0.00415577 0
0.016689 -0.00384204 0
0.0157682 -0.00355115 0
0.0148783 -0.00328218 0
0.0140192 -0.00303468 0
0.0131906 -0.00280795 0
0.0123925 -0.00260016 0
0.0116246 -0.00241012 0
0.0108864 -0.00223769 0
0.0101774 -0.00208212 0
0.00949701 -0.00194206 0
0.00884483 -0.0018163 0
0.0082202 -0.0017039 0
0.00762247 -0.00160391 0
0.00705097 -0.00151528 0
0.006505 -0.00143697 0
0.0059838 -0.00136806 0
0.00548662 -0.00130772 0
0.00501265 -0.00125519 0
0.00456114 -0.00120954 0
0.00413136 -0.00116914 0
0.00372257 -0.00113251 0
0.00333398 -0.00109853 0
0.00296466 -0.00106798 0
0.00261363 -0.0010431 0
-0.052721 -0.0445996 0
-0.0508204 -0.0440823 0
-0.0489199 -0.0435651 0
-0.0470193 -0.0430478 0
-0.0451187 -0.0425306 0
-0.0432181 -0.0420134 0
-0.0413175 -0.0414961 0
-0.039417 -0.0409789 0
-0.0375164 -0.0404616 0
-0.0356158 -0.0399444 0
-0.0337152 -0.0394271 0
-0.0318146 -0.0389099 0
-0.0299141 -0.0383927 0
-0.0280135 -0.0378754 0
-0.0261129 -0.0373582 0
-0.0242123 -0.0368409 0
-0.0223117 -0.0363237 0
-0.0204112 -0.0358065 0
-0.0185106 -0.0352892 0
-0.01661 -0.034772 0
-0.0147094 -0.0342547 0
-0.0128088 -0.0337375 0
-0.0109083 -0.0332202 0
-0.00900769 -0.032703 0
-0.00710711 -0.0321858 0
-0.00520653 -0.0316685 0
-0.00330595 -0.0311513 0
-0.00140537 -0.030634 0
0.00190689 -0.0299614 0
0.00332271 -0.0298498 0
0.00474133 -0.0297825 0
0.00616136 -0.0297597 0
0.0075814 -0.0297814 0
0.00900007 -0.0298477 0
0.010416 -0.0299583 0
0.0118278 -0.0301127 0
0.0132342 -0.0303103 0
0.0146339 -0.0305504 0
0.0160259 -0.0308322 0
0.0174091 -0.0311546 0
0.0187824 -0.0315166 0
0.020145 -0.031917 0
0.0214961 -0.0323546 0
0.0228351 -0.032828 0
0.0241613 -0.0333361 0
0.0254744 -0.0338774 0
0.0267738 -0.0344507 0
0.0280592 -0.0350545 0
0.0293306 -0.0356877 0
0.0305875 -0.0363488 0
0.0318301 -0.0370367 0
0.0330581 -0.0377501 0
0.0342717 -0.0384879 0
0.0354708 -0.0392489 0
0.0366556 -0.0400321 0
0.0378262 -0.0408363 0
0.0389828 -0.0416607 0
0.0401254 -0.0425042 0
0.0412543 -0.0433659 0
0.0423698 -0.0442451 0
0.043472 -0.0451408 0
0.0445612 -0.0460523 0
0.0456375 -0.0469789 0
0.0467013 -0.0479199 0
0.0477529 -0.0488746 0
0.0487923 -0.0498424 0
0.04982 -0.0508227 0
0.0508362 -0.051815 0
0.051841 -0.0528187 0
0.0528348 -0.0538333 0
0.0538178 -0.0548584 0
0.0547903 -0.0558935 0
0.0557524 -0.0569382 0
0.0567045 -0.0579922 0
0.0576467 -0.0590549 0
0.0585792 -0.0601261 0
0.0595024 -0.0612055 0
0.0604163 -0.0622926 0
0.0613212 -0.0633873 0
0.0622174 -0.0644891 0
0.0631049 -0.0655979 0
0.0639841 -0.0667134 0
0.064855 -0.0678353 0
0.0657179 -0.0689633 0
0.0665729 -0.0700974 0
0.0674202 -0.0712372 0
0.06826 -0.0723826 0
0.0690925 -0.0735333 0
0.0699178 -0.0746892 0
0.070736 -0.0758501 0
0.0715473 -0.0770159 0
0.0723518 -0.0781863 0
0.0731498 -0.0793612 0
0.0739412 -0.0805405 0
0.0747264 -0.081724 0
0.0755053 -0.0829116 0
0.0762781 -0.0841033 0
0.0770449 -0.0852987 0
0.0778059 -0.0864979 0
0.0785611 -0.0877007 0
0.0793108 -0.088907 0
0.0814681 -0.0912706 0
0.0828814 -0.0924245 0
0.0842946 -0.0935783 0
0.0857079 -0.0947322 0
0.0871211 -0.095886 0
0.0885344 -0.0970399 0
0.0899476 -0.0981937 0
0.0913609 -0.0993476 0
0.0927741 -0.100501 0
0.0941874 -0.101655 0
0.0956006 -0.102809 0
0.0970139 -0.103963 0
0.0984272 -0.105117 0
0.0998404 -0.106271 0
0.101254 -0.107424 0
0.102667 -0.108578 0
0.10408 -0.109732 0
0.105493 -0.110886 0
0.106907 -0.11204 0
0.10832 -0.113194 0
0.109733 -0.114348 0
0.111146 -0.115501 0
0.11256 -0.116655 0
0.113973 -0.117809 0
0.115386 -0.118963 0
0.116799 -0.120117 0
0.118213 -0.121271 0
0.119626 -0.122424 0
0.121039 -0.123578 0
0.122452 -0.124732 0
0.123866 -0.125886 0
0.125279 -0.12704 0
0.126692 -0.128194 0
0.128105 -0.129348 0
0.129519 -0.130501 0
0.130932 -0.131655 0
0.132345 -0.132809 0
0.133758 -0.133963 0
0.135172 -0.133216 0
0.135172 -0.131316 0
0.135172 -0.129415 0
0.135172 -0.127514 0
0.135172 -0.125614 0
0.135172 -0.123713 0
0.135172 -0.121813 0
0.135172 -0.119912 0
0.135172 -0.118012 0
0.135172 -0.116111 0
0.135172 -0.11421 0
0.135172 -0.11231 0
0.135172 -0.110409 0
0.135172 -0.108509 0
0.135172 -0.106608 0
0.135172 -0.104708 0
0.135172 -0.102807 0
0.135172 -0.100906 0
0.135172 -0.0990058 0
0.135172 -0.0971052 0
0.135172 -0.0952046 0
0.135172 -0.0933041 0
0.135172 -0.0914035 0
0.135172 -0.0895029 0
0.135172 -0.0876023 0
0.135172 -0.0857017 0
0.135172 -0.0838012 0
0.135172 -0.0819006 0
0.133758 -0.0788462 0
0.132345 -0.0776923 0
0.130932 -0.0765385 0
0.129519 -0.0753846 0
0.128105 -0.0742308 0
0.126692 -0.0730769 0
0.125279 -0.0719231 0
0.123866 -0.0707692 0
0.122452 -0.0696154 0
0.121039 -0.0684615 0
0.119626 -0.0673077 0
0.118213 -0.0661538 0
0.116799 -0.065 0
0.115386 -0.0638462 0
0.113973 -0.0626923 0
0.11256 -0.0615385 0
0.111146 -0.0603846 0
0.109733 -0.0592308 0
0.10832 -0.0580769 0
0.106907 -0.0569231 0
0.105493 -0.0557692 0
0.10408 -0.0546154 0
0.102667 -0.0534615 0
0.101254 -0.0523077 0
0.0998404 -0.0511538 0
0.0984272 -0.05 0
0.0970139 -0.0488462 0
0.0956006 -0.0476923 0
[...]
CELL_DATA 13116
SCALARS rho float
LOOKUP_TABLE default
0.5977
0.689488
0.477329
0.697329
0.700321
0.689518
0.357182
0.701573
0.5977
0.703433
0.33918
0.479581
0.700496
0.422655
0.440981
0.689606
0.5977
0.728971
0.689406
0.336954
0.5977
0.483485
0.455135
0.71305
0.5977
0.703041
0.703694
0.518319
0.5977
0.5977
0.68578
0.465891
0.5977
0.597706
0.363207
0.5977
0.597695
0.68811
0.689411
0.702341
0.689462
0.701888
0.5977
0.452833
0.689578
0.689295
0.708499
0.689482
0.471192
0.5977
0.699954
0.5977
0.385268
0.5977
0.5977
0.5977
0.450551
0.703136
0.5977
0.456373
0.426004
0.701044
0.707826
0.689376
0.688512
0.403523
0.688506
0.597702
0.689572
0.689171
0.440425
0.5977
0.488565
0.431141
0.590748
0.408943
0.591765
0.697584
0.342097
0.614077
0.671573
0.703994
0.707797
0.689258
0.706717
0.565957
0.369509
0.5977
0.705101
0.336286
0.475581
0.689782
0.708279
0.704779
0.5977
0.5977
0.5977
0.663786
0.644865
0.5977
0.5977
0.654634
0.689196
0.597714
0.702367
0.463701
0.540627
0.5977
0.489365
0.5977
0.5977
0.703936
0.5977
0.635643
0.643641
0.696525
0.390349
0.562213
0.696375
0.699101
0.5977
0.502129
0.693189
0.47612
0.70496
0.59488
0.375347
0.597704
0.476107
0.597699
0.696537
0.689522
0.594391
0.475703
0.588813
0.5977
0.557725
0.696904
0.5977
0.699374
0.597706
0.709043
0.597701
0.597699
0.686095
0.436199
0.360816
0.70358
0.700843
0.700884
0.5977
0.689193
0.689591
0.373559
0.703279
0.706054
0.465296
0.5977
0.669675
0.5977
0.711935
0.339348
0.703565
0.467762
0.50849
0.699863
0.704847
0.727616
0.360959
0.579189
0.565462
0.557694
0.437694
0.597704
0.691165
0.454345
0.455168
0.48725
0.703221
0.688843
0.336335
0.5825
0.5977
0.597705
0.688954
0.5977
0.373161
0.689089
0.701234
0.597714
0.5977
0.703591
0.689266
0.476386
0.702676
0.689528
0.705601
0.689174
0.705232
0.59771
0.597707
0.5977
0.597706
0.437274
0.696921
0.689172
0.5977
0.5977
0.446745
0.33595
0.405948
0.689233
0.471248
0.336241
0.336065
0.378184
0.55607
0.689375
0.705149
0.561138
0.443335
0.688873
0.5977
0.336365
0.597702
0.701626
0.685556
0.519586
0.68988
0.550125
0.702248
0.466988
0.689427
0.5977
0.62527
0.704436
0.689145
0.479034
0.59453
0.5977
0.580423
0.689478
0.55783
0.689051
0.702466
0.460096
0.698094
0.702241
0.649146
0.348737
0.475026
0.689394
0.69664
0.689067
0.692374
0.5977
0.597234
0.337795
0.493861
0.589776
0.444433
0.701563
0.705829
0.591115
0.353598
0.697702
0.386022
0.564157
0.703019
0.348337
0.703151
0.700034
0.548197
0.702525
0.476483
0.552823
0.685037
0.663605
0.697044
0.338417
0.361818
0.476437
0.5977
0.497966
0.491297
0.53155
0.519652
0.694769
0.393878
0.704938
0.698726
0.362807
0.336478
0.381061
0.589925
0.511494
0.5977
0.597701
0.702869
0.345327
0.688949
0.5977
0.499659
0.45542
0.688686
0.696751
0.689229
0.377845
0.689411
0.597716
0.689379
0.701585
0.700873
0.701383
0.478408
0.688947
0.421025
0.689002
0.70156
0.5977
0.336323
0.529894
0.701562
0.3814
0.710035
0.700781
0.574311
0.597701
0.707136
0.370715
0.696687
0.708661
0.418904
0.696738
0.564299
0.5977
0.705287
0.566268
0.5977
0.353356
0.713106
0.53493
0.68922
0.698858
0.705503
0.514239
0.543376
0.706314
0.370258
0.696191
0.70176
0.580116
0.558061
0.370475
0.468633
0.69576
0.5977
0.597707
0.367143
0.467931
0.698032
0.698705
0.355761
0.698315
0.404396
0.46867
0.700702
0.7046
0.5977
0.336327
0.697066
0.688401
0.689591
0.704724
0.699165
0.597699
0.575048
0.436115
0.336368
0.68947
0.336406
0.5977
0.57346
0.476052
0.539813
0.5977
0.460944
0.365559
0.705933
0.484646
0.703831
0.5977
0.689247
0.5977
0.698493
0.472464
0.359494
0.597709
0.554564
0.695662
0.5977
0.689143
0.5977
0.686411
0.5977
0.704143
0.5977
0.5977
0.697622
0.59072
0.68916
0.592921
0.5977
0.5977
0.474533
0.597701
0.5977
0.383135
0.691832
0.550665
0.479868
0.336246
0.336232
0.364715
0.5977
0.402333
0.475984
0.689593
0.402827
0.5977
0.336439
0.689156
0.687876
0.537514
0.476047
0.695564
0.587154
0.336237
0.364104
0.336251
0.489158
0.359942
0.336314
0.499315
0.566815
0.335893
0.662031
0.534964
0.705576
0.597708
0.475933
0.58876
0.439613
0.336266
0.441605
0.702045
0.573985
0.5977
0.5977
0.397491
0.5977
0.704998
0.564733
0.597701
0.5977
0.5977
0.358556
0.641322
0.562409
0.702092
0.67619
0.485804
0.391368
0.70141
0.560801
0.565547
0.699928
0.539899
0.5977
0.6844
0.336571
0.450571
0.425233
0.597705
0.451431
0.406386
0.437336
0.418437
0.699035
0.699616
0.592308
0.5977
0.591021
0.702545
0.546887
0.395575
0.5977
0.487725
0.689242
0.520654
0.549424
0.593036
0.689575
0.704706
0.597699
0.574828
0.386463
0.597699
0.701343
0.689474
0.5977
0.7037
0.700223
0.336065
0.687188
0.5977
0.5977
0.528997
0.509533
0.615627
0.705669
0.5977
0.701431
0.705722
0.704737
0.711232
0.5977
0.689208
0.336315
0.689363
0.538627
0.453628
0.336454
0.698593
0.689288
0.524552
0.706388
0.5977
0.336271
0.689505
0.696833
0.695115
0.516283
0.390841
0.696446
0.336216
0.336246
0.449097
0.336187
0.689489
0.4131
0.69774
0.5295
0.690342
0.699754
0.688844
0.699452
0.336237
0.336234
0.6887
0.701842
0.596415
0.699403
0.702645
0.583183
0.366419
0.493265
0.689047
0.5977
0.336213
0.58576
0.47595
0.704436
0.689224
0.527228
0.48874
0.706078
0.56856
0.702802
0.5977
0.470856
0.54958
0.597331
0.55795
0.471186
0.704419
0.70479
0.688943
0.396321
0.557423
0.441594
0.608281
0.5977
0.336284
0.55429
0.493141
0.625217
0.492417
0.351824
0.565422
0.689203
0.694549
0.348922
0.490385
0.336418
0.68885
0.493515
0.68933
0.433738
0.5977
0.701534
0.597661
0.464513
0.458333
0.584034
0.496049
0.703956
0.387125
0.409253
0.689359
0.407834
0.689604
0.709615
0.651651
0.336097
0.688702
0.705311
0.705803
0.688927
0.705715
0.70122
0.452341
0.68942
0.562797
0.688989
0.339254
0.702078
0.5977
0.368046
0.688898
0.700226
0.375894
0.5977
0.474466
0.436524
0.689427
0.702278
0.477564
0.442108
0.344861
0.453256
0.705177
0.715729
0.391912
0.338839
0.696046
0.697247
0.5977
0.705296
0.689195
0.338174
0.704709
0.568889
0.699596
0.571203
0.5977
0.583104
0.689632
0.597707
0.5977
0.542774
0.508102
0.689116
0.5977
0.5977
0.704838
0.437717
0.686296
0.703511
0.553544
0.5977
0.706122
0.567799
0.690022
0.5977
0.528806
0.699675
0.5977
0.478518
0.691855
0.475148
0.705908
0.430652
0.689202
0.713348
0.506147
0.689372
0.7041
0.696697
0.5977
0.688808
0.5977
0.519304
0.597717
0.480674
0.429172
0.557671
0.5977
0.698593
0.700068
0.336282
0.523319
0.689465
0.700803
0.695387
0.700265
0.336178
0.587072
0.701867
0.336458
0.478234
0.696315
0.689452
0.706476
0.45901
0.5977
0.545195
0.688767
0.708313
0.689429
0.690482
0.336241
0.69014
0.705069
0.709144
0.702491
0.689539
0.562214
0.69832
0.335985
0.69638
0.702415
0.579705
0.685885
0.689459
0.699748
0.597699
0.589924
0.5977
0.5977
0.336222
0.33641
0.35219
0.335962
0.689985
0.686069
0.689682
0.523044
0.335743
0.688616
0.5977
0.415954
0.525753
0.58429
0.589223
0.689171
0.705215
0.691571
0.336042
0.336249
0.557747
0.475423
0.336244
0.391857
0.689199
0.542645
0.336337
0.5977
0.689244
0.70262
0.689285
0.689231
0.392428
0.421179
0.347728
0.5977
0.573825
0.469552
0.597704
0.683913
0.708557
0.68942
0.462629
0.336069
0.701953
0.336264
0.689545
0.715225
0.682181
0.477396
0.336246
0.706137
0.687543
0.5977
0.415654
0.70594
0.689307
0.5977
0.70061
0.700951
0.557695
0.703782
0.336316
0.689249
0.689132
0.597705
0.688103
0.557902
0.704285
0.556243
0.697949
0.407041
0.432245
0.336121
0.688465
0.5977
0.336149
0.689906
0.696294
0.477595
0.5977
0.548294
0.5977
0.5977
0.476516
0.701041
0.716135
0.336222
0.597705
0.688365
0.454491
0.704872
0.413094
0.461102
0.5977
0.5977
0.58885
0.689217
0.357095
0.702667
0.44672
0.467737
0.6895
0.336241
0.5977
0.474452
0.5977
0.5977
0.555543
0.704748
0.435519
0.413876
0.639665
0.5977
0.695376
0.597701
0.5977
0.689155
0.708995
0.5977
0.5977
0.702895
0.70527
0.694601
0.537013
0.336257
0.597706
0.702778
0.705805
0.569815
0.689217
0.5977
0.597713
0.476116
0.5977
0.590086
0.557618
0.622556
0.701692
0.683479
0.688612
0.587804
0.468707
0.5977
0.58408
0.700324
0.689468
0.518747
0.706836
0.699769
0.440944
0.469336
0.37892
0.557875
0.338984
0.5977
0.696706
0.5977
0.50719
0.692736
0.435376
0.5977
0.689396
0.689281
0.597702
0.688809
0.5977
0.665367
0.5977
0.689004
0.433664
0.689591
0.689032
0.5977
0.560278
0.686817
0.478642
0.438169
0.458551
0.700805
0.336227
0.550004
0.347813
0.701398
0.394256
0.582882
0.452021
0.701706
0.699775
0.5977
0.509953
0.5977
0.68945
0.336347
0.5977
0.699618
0.46877
0.5977
0.675125
0.701765
0.689549
0.485846
0.5977
0.695517
0.689241
0.686843
0.336197
0.585961
0.699868
0.557969
0.563623
0.557902
0.5977
0.690339
0.5977
0.70004
0.336151
0.438813
0.557905
0.700077
0.689019
0.409908
0.689702
0.5977
0.5977
0.42992
0.558503
0.698594
0.6972
0.5977
0.565486
0.689419
0.555702
0.354977
0.5977
0.689476
0.356286
0.47557
0.423372
0.701099
0.496664
0.336319
0.702034
0.597699
0.704821
0.5977
0.363208
0.363263
0.699348
0.434353
0.402898
0.686482
0.480132
0.550864
0.5977
0.706065
0.688606
0.335745
0.563923
0.341223
0.710446
0.466627
0.688658
0.405433
0.689609
0.705835
0.688929
0.704914
0.690013
0.707361
0.689093
0.69944
0.695506
0.408985
0.33864
0.689863
0.688929
0.589211
0.702325
0.5977
0.689021
0.597706
0.532616
0.700006
0.700226
0.689312
0.35289
0.690343
0.50652
0.689247
0.583753
0.699274
0.68898
0.478008
0.695943
0.336344
0.597708
0.696167
0.396866
0.5977
0.557843
0.703454
0.368745
0.689778
0.335978
0.477145
0.47636
0.336096
0.597577
0.441589
0.597706
0.689638
0.565503
0.477411
0.582331
0.5977
0.5977
0.712531
0.336156
0.387923
0.352425
0.450072
0.508227
0.5977
0.70461
0.523247
0.689653
0.6963
0.420283
0.700029
0.5977
0.689681
0.343173
0.584496
0.688595
0.698303
0.700482
0.451027
0.690415
0.699345
0.69048
0.5977
0.689654
0.493582
0.476519
0.68911
0.597707
0.336208
0.689511
0.464025
0.5977
0.5977
0.706085
0.706295
0.474496
0.702385
0.589884
0.35301
0.597703
0.696892
0.702232
0.698009
0.597705
0.477718
0.700719
0.453747
0.588361
0.699692
0.632541
0.695412
0.348831
0.495923
0.701929
0.502475
0.696405
0.5977
0.576386
0.516313
0.699431
0.47285
0.689046
0.696281
0.595597
0.473653
0.436375
0.597708
0.5977
0.5977
0.597712
0.689843
0.713947
0.705223
0.557729
0.689435
0.371584
0.512797
0.697089
0.689495
0.659631
0.577035
0.431563
0.685399
0.43364
0.689178
0.5977
0.565299
0.69571
0.335868
0.706006
0.479066
0.702096
0.472429
0.688389
0.688933
0.476599
0.705001
0.5977
0.481831
0.689101
0.68971
0.5977
0.436243
0.564998
0.597713
0.705923
0.70796
0.531522
0.5977
0.693633
0.689123
0.508283
0.5977
0.69246
0.567459
0.68991
0.689014
0.517002
0.694552
0.670184
0.470826
0.5977
0.35603
0.597701
0.362838
0.462253
0.705269
0.3365
0.336423
0.431081
0.689415
0.713463
0.59684
0.689322
0.559057
0.68436
0.336048
0.699051
0.574107
0.689234
0.689028
0.597679
0.689456
0.597703
0.689027
0.689658
0.509795
0.5977
0.597693
0.5977
0.689587
0.58463
0.597715
0.70069
0.336463
0.5977
0.552507
0.689139
0.407543
0.475148
0.719971
0.689017
0.336206
0.699804
0.681534
0.557879
0.700304
0.609321
0.336343
0.70016
0.336232
0.470596
0.704596
0.696277
0.701728
0.705745
0.463271
0.367817
0.343607
0.688635
0.689636
0.561095
0.705676
0.402247
0.368154
0.414734
0.705007
0.568592
0.700347
0.695667
0.5977
0.702236
0.693239
0.5977
0.595452
0.564316
0.480047
0.336185
0.597276
0.569179
0.41513
0.5977
0.700328
0.5975
0.484231
0.597698
0.714764
0.51151
0.712211
0.5977
0.336236
0.689592
0.689917
0.336512
0.68911
0.398464
0.698864
0.703999
0.690056
0.437301
0.574202
0.5977
0.521492
0.565996
0.702027
0.526411
0.689267
0.690559
0.703307
0.675855
0.59277
0.688075
0.597706
0.689338
0.542678
0.698145
0.459884
0.429837
0.706215
0.689143
0.689816
0.492142
0.688864
0.5977
0.58335
0.392961
0.402501
0.336249
0.698476
0.351218
0.407529
0.472485
0.5977
0.403807
0.517616
0.566154
0.688424
0.336492
0.689566
0.689588
0.702001
0.373633
0.688432
0.5977
0.689642
0.560063
0.5977
0.364396
0.3364
0.689826
0.336176
0.5977
0.690572
0.55737
0.336348
0.530793
0.3718
0.597699
0.557653
0.49371
0.688555
0.68962
0.693601
0.336153
0.450411
0.535957
0.702712
0.336265
0.557786
0.5977
0.68951
0.693482
0.337659
0.5977
0.454646
0.596888
0.5977
0.701055
0.5977
0.5977
0.5977
0.67565
0.697678
0.346385
0.595551
0.41062
0.676464
0.5977
0.640068
0.336369
0.566329
0.699899
0.688043
0.689324
0.336168
0.702151
0.5977
0.597699
0.709165
0.4914
0.336129
0.518279
0.689068
0.689414
0.5977
0.702164
0.534222
0.703774
0.5977
0.689427
0.689631
0.703015
0.700479
0.689399
0.694944
0.702247
0.488078
0.696576
0.698375
0.689536
0.697006
0.689172
0.5977
0.33634
0.473461
0.597278
0.336388
0.575293
0.70283
0.425508
0.5977
0.688616
0.68749
0.689384
0.48307
0.702019
0.477553
0.426659
0.689406
0.689124
0.689332
0.382113
0.698458
0.689176
0.603849
0.689224
0.472877
0.689524
0.701994
0.689157
0.597711
0.707779
0.337688
0.695367
0.404989
0.336305
0.5977
0.582121
0.70118
0.703724
0.689502
0.465287
0.689705
0.597588
0.431207
0.704232
0.581346
0.336237
0.689446
0.484423
0.592071
0.5977
0.714349
0.707421
0.583262
0.5977
0.5977
0.689274
0.5977
0.70199
0.597707
0.699789
0.702064
0.5977
0.458523
0.341096
0.579654
0.697846
0.47885
0.5977
0.70006
0.5977
0.68923
0.5977
0.5977
0.591974
0.343808
0.699689
0.701363
0.5977
0.701955
0.701078
0.703919
0.689042
0.336154
0.417348
0.689059
0.5977
0.5977
0.696978
0.689048
0.68941
0.705936
0.704638
0.5977
0.712165
0.701557
0.420827
0.486645
0.411967
0.546231
0.553496
0.596017
0.5977
0.695509
0.655551
0.476956
0.689248
0.69656
0.387773
0.552414
0.557849
0.697126
0.497512
0.461766
0.450139
0.557752
0.703174
0.597706
0.370649
0.336238
0.474479
0.556629
0.336372
0.703177
0.689129
0.688527
0.348353
0.687399
0.5977
0.5977
0.52704
0.336386
0.704052
0.558685
0.336411
0.689075
0.336508
0.712216
0.487381
0.702479
0.350418
0.708765
0.699174
0.367756
0.597699
0.505656
0.699852
0.481349
0.5977
0.459813
0.597699
0.362549
0.5977
0.33622
0.689197
0.689862
0.5977
0.690218
0.531893
0.703347
0.689538
0.698384
0.5977
0.684105
0.336269
0.597699
0.411817
0.706576
0.517773
0.699798
0.597699
0.694549
0.701711
0.5977
0.698034
0.432675
0.421387
0.419909
0.5977
0.5977
0.688629
0.343516
0.485555
0.689649
0.553554
0.471148
0.5977
0.553721
0.336363
0.471239
0.701693
0.5977
0.5977
0.450366
0.709831
0.688938
0.469846
0.535485
0.705319
0.689408
0.597655
0.594166
0.560259
0.543081
0.368941
0.705106
0.593243
0.5977
0.597714
0.45171
0.5977
0.336295
0.689679
0.698265
0.336277
0.499326
0.588668
0.5977
0.698563
0.701994
0.705377
0.700482
0.70014
0.384874
0.479918
0.415683
0.33765
0.5977
0.679976
0.5977
0.335997
0.336174
0.5977
0.473833
0.689422
0.71501
0.336115
0.526471
0.688491
0.472708
0.5977
0.70282
0.710494
0.689853
0.5977
0.336267
0.358371
0.709705
0.336315
0.597715
0.595701
0.689008
0.700313
0.511102
0.336279
0.557753
0.336482
0.689506
0.706993
0.336429
0.443557
0.390969
0.68912
0.393858
0.557895
0.68762
0.5977
0.467369
0.597707
0.69657
0.69153
0.350732
0.691836
0.597701
0.480079
0.696177
0.698408
0.346175
0.336445
0.705775
0.337784
0.337711
0.691381
0.540909
0.68921
0.5977
0.706468
0.597705
0.699995
0.688437
0.689585
0.345691
0.557475
0.664227
0.689733
0.573227
0.700447
0.537179
0.69833
0.707181
0.5977
0.5977
0.597698
0.5865
0.68928
0.69774
0.701938
0.699396
0.689124
0.553052
0.701219
0.557701
0.70558
0.704609
0.703238
0.557658
0.689384
0.476855
0.703869
0.504392
0.699908
0.696987
0.69838
0.707453
0.617406
0.435914
0.371022
0.524594
0.346777
0.711448
0.343909
0.346222
0.683739
0.461514
0.6934
0.365274
0.700894
0.691484
0.336487
0.552517
0.569357
0.697276
0.448869
0.688716
0.696033
0.37826
0.704092
0.5977
0.596465
0.511279
0.470847
0.597703
0.336395
0.700349
0.5977
0.512933
0.689176
0.6893
0.706001
0.336434
0.5977
0.460855
0.687185
0.688842
0.698682
0.336249
0.689753
0.696995
0.702484
0.57588
0.696846
0.336393
0.336056
0.704129
0.594367
0.703536
0.597699
0.336289
0.569176
0.704541
0.496723
0.480072
0.433818
0.5977
0.634357
0.6953
0.420221
0.5977
0.689214
0.5977
0.5977
0.565863
0.5977
0.336283
0.335928
0.689394
0.336155
0.335981
0.700426
0.698658
0.391749
0.7155
0.387859
0.55091
0.524234
0.704468
0.689335
0.656977
0.689679
0.455719
0.335724
0.472098
0.689172
0.705232
0.5977
0.5977
0.548558
0.523328
0.689431
0.343411
0.689166
0.547896
0.689466
0.597706
0.365761
0.463457
0.33622
0.336296
0.478814
0.601893
0.713787
0.348365
0.69263
0.5977
0.51992
0.434289
0.699484
0.336243
0.688882
0.562298
0.684832
0.5977
0.688137
0.657193
0.423481
0.704267
0.701251
0.70081
0.336423
0.711714
0.5977
0.570059
0.697859
0.597043
0.702386
0.712425
0.700182
0.704596
0.701016
0.689423
0.689615
0.336286
0.704733
0.336228
0.597698
0.701161
0.470091
0.708741
0.701708
0.479823
0.703435
0.336492
0.476212
0.704775
0.702935
0.698606
0.335885
0.71298
0.5977
0.524245
0.349243
0.70515
0.689114
0.551316
0.445758
0.695389
0.699349
0.336337
0.5977
0.699077
0.5977
0.382837
0.336443
0.467807
0.5977
0.474242
0.688019
0.63058
0.689494
0.5977
0.691117
0.335886
0.706028
0.5977
0.698892
0.5977
0.478116
0.348232
0.456875
0.710019
0.695827
0.56072
0.5977
0.56761
0.597298
0.699528
0.441383
0.597706
0.688203
0.5977
0.353848
0.359363
0.551463
0.696041
0.703474
0.5977
0.594318
0.688392
0.336412
0.5977
0.56407
0.689921
0.357515
0.5977
0.484838
0.702328
0.465739
0.689082
0.70478
0.446278
0.696068
0.5977
0.557646
0.5977
0.557725
0.700746
0.597519
0.689283
0.689478
0.698082
0.688756
0.577878
0.562613
0.403228
0.68944
0.452657
0.33645
0.46659
0.473788
0.336295
0.352552
0.699511
0.545054
0.412377
0.5977
0.696042
0.713414
0.597714
0.604073
0.597707
0.689777
0.491352
0.5977
0.688861
0.515012
0.456568
0.335702
0.5977
0.590659
0.336339
0.5977
0.464418
0.634313
0.588492
0.380986
0.581532
0.5977
0.551896
0.689258
0.44369
0.5977
0.549401
0.704277
0.558845
0.597704
0.547573
0.700341
0.5977
0.336298
0.705355
0.70008
0.460619
0.477767
0.689034
0.336254
0.708181
0.347981
0.5977
0.454759
0.688496
0.48155
0.69964
0.336426
0.699386
0.693893
0.698013
0.556006
0.401374
0.46512
0.597714
0.704529
0.682296
0.704209
0.5977
0.481114
0.697781
0.56427
0.705342
0.703799
0.597717
0.514574
0.703379
0.689076
0.457598
0.689246
0.704957
0.702362
0.708595
0.447327
0.5977
0.336409
0.701645
0.477419
0.689934
0.703907
0.706008
0.699319
0.517413
0.697282
0.336469
0.349517
0.689794
0.555462
0.5977
0.68911
0.554369
0.336312
0.726911
0.704741
0.700967
0.476953
0.580049
0.597541
0.347523
0.697762
0.700648
0.706213
0.703321
0.515389
0.597711
0.5977
0.450761
0.70659
0.69935
0.597704
0.704738
0.511178
0.711472
0.724838
0.5977
0.704841
0.359598
0.478325
0.688494
0.702493
0.471058
0.540226
0.470818
0.463312
0.411273
0.477944
0.524576
0.336248
0.688628
0.45084
0.383303
0.694608
0.5977
0.55779
0.562539
0.336301
0.689195
0.597712
0.5977
0.703606
0.555136
0.5977
0.689566
0.5977
0.688167
0.445362
0.695303
0.689802
0.390842
0.335932
0.597717
0.701507
0.5977
0.700233
0.689693
0.689937
0.689932
0.597729
0.696187
0.689873
0.70611
0.336218
0.68882
0.596083
0.597161
0.576308
0.389875
0.454094
0.413175
0.5977
0.5977
0.689826
0.335982
0.556256
0.69934
0.475611
0.696711
0.689387
0.704418
0.5977
0.688323
0.509854
0.456978
0.453506
0.5977
0.473142
0.689565
0.454567
0.689934
0.689442
0.693694
0.536108
0.597715
0.594291
0.691752
0.431597
0.335987
0.702887
0.691544
0.5977
0.689491
0.705518
0.70518
0.336247
0.5977
0.701712
0.597657
0.688077
0.697007
0.704203
0.568802
0.560182
0.701325
0.587592
0.5977
0.336313
0.703617
0.70703
0.597715
0.474678
0.687994
0.597706
0.698603
0.696688
0.33631
0.336166
0.677138
0.5977
0.597712
0.705895
0.704984
0.488437
0.689285
0.681234
0.708558
0.3363
0.5977
0.336275
0.70379
0.697911
0.703385
0.689249
0.683521
0.520567
0.557789
0.689947
0.336265
0.5977
0.505402
0.690142
0.43157
0.5977
0.701912
0.669411
0.336235
0.557831
0.587254
0.336703
0.691053
0.470197
0.701424
0.336313
0.358484
0.440889
0.688244
0.688814
0.53352
0.523011
0.70332
0.700035
0.588845
0.593677
0.336277
0.5977
0.336297
0.690563
0.335915
0.597703
0.70475
0.512951
0.5977
0.354513
0.689628
0.401398
0.336442
0.703656
0.477975
0.685207
0.597712
0.438896
0.701315
0.684483
0.705384
0.597703
0.503463
0.5977
0.479354
0.335821
0.707905
0.689357
0.68821
0.336269
0.555716
0.5977
0.702889
0.597701
0.704731
0.5977
0.707116
0.539195
0.70156
0.699337
0.5977
0.69881
0.479787
0.68838
0.336198
0.482915
0.46169
0.335938
0.700695
0.696242
0.700981
0.690682
0.690222
0.545436
0.703572
0.509198