# vtk DataFile Version 1.0
unstructured grid
ascii
DATASET UNSTRUCTURED_GRID
points 13672 float
0.0796578 -0.059106 0
0.00128732 0.00159165 0
0.00227961 -0.00102548 0
0.0791586 -0.0598787 0
-0.0546216 0.01 0
0.000495206 0.025 0
0.0800549 -0.035 0
0.135172 -0.08 0
-0.0546216 -0.0451168 0
0.000495206 -0.0301168 0
0.0800549 -0.0901168 0
0.135172 -0.135117 0
-0.0546216 -0.0451168 -0.00551168
0.000495206 -0.0301168 -0.00551168
0.0800549 -0.0901168 -0.00551168
0.135172 -0.135117 -0.00551168
0.135172 -0.08 -0.00551168
0.0800549 -0.035 -0.00551168
0.000495206 0.025 -0.00551168
-0.0546216 0.01 -0.00551168
0.00128732 0.00159165 -0.00551168
0.00227961 -0.00102548 -0.00551168
0.0791586 -0.0598787 -0.00551168
0.0796578 -0.059106 -0.00551168
0.00165953 -0.000990923 0
0.00119576 -0.000874076 0
0.000866021 -0.000641801 0
0.000645147 -0.000349912 0
0.00052235 -1.7281e-05 0
0.00049972 0.000348016 0
0.000601632 0.000737716 0
0.000861774 0.0011403 0
0.00157235 0.00183217 0
0.00188647 0.00206725 0
0.00222612 0.00230203 0
0.00258713 0.00254351 0
0.00296826 0.00279524 0
0.00337118 0.00305664 0
0.00379785 0.00332658 0
0.00425045 0.00360349 0
0.00473139 0.00388521 0
0.0052432 0.00416895 0
0.0057881 0.00445204 0
0.00636753 0.00473281 0
0.00698281 0.00500961 0
0.00763526 0.00528058 0
0.00832616 0.00554366 0
0.00905691 0.00579603 0
0.00982918 0.00603333 0
0.0106445 0.00625033 0
0.0115038 0.00644128 0
0.0124073 0.00660297 0
0.0133543 0.00673414 0
0.0143444 0.00683382 0
0.0153769 0.00690031 0
0.0164512 0.00693173 0
0.0175666 0.00692547 0
0.0187219 0.00687822 0
0.0199156 0.00678477 0
0.0211454 0.00663864 0
0.0224084 0.00643275 0
0.0237018 0.00616676 0
0.0250249 0.00584739 0
0.026375 0.00547298 0
0.0277479 0.00503752 0
0.0291386 0.00453545 0
0.0305433 0.0039653 0
0.0319572 0.0033256 0
0.0333681 0.00260019 0
0.034775 0.00179799 0
0.0361793 0.000930615 0
0.0375798 3.12222e-06 0
0.0389689 -0.000988429 0
0.0403357 -0.00205109 0
0.041675 -0.00318283 0
0.0429849 -0.00437751 0
0.0442643 -0.00562904 0
0.0455126 -0.00693089 0
0.0467314 -0.00827518 0
0.0479204 -0.00965638 0
0.0490661 -0.0110799 0
0.0501515 -0.0125519 0
0.0511696 -0.0140695 0
0.0521492 -0.0156071 0
0.0531202 -0.0171411 0
0.0540851 -0.0186663 0
0.0550431 -0.0201798 0
0.0559923 -0.0216793 0
0.0569311 -0.0231626 0
0.0578582 -0.0246273 0
0.0587723 -0.0260715 0
0.0596721 -0.027493 0
0.0605563 -0.02889 0
0.0614241 -0.0302609 0
0.0622742 -0.0316042 0
0.063106 -0.0329183 0
0.0639186 -0.034202 0
0.0647113 -0.0354543 0
0.0654835 -0.0366743 0
0.0662345 -0.0378613 0
0.0669642 -0.0390145 0
0.0676726 -0.0401333 0
0.0683597 -0.0412172 0
0.0690246 -0.0422665 0
0.0696662 -0.0432819 0
0.0702841 -0.0442636 0
0.0708793 -0.0452111 0
0.0714538 -0.0461237 0
0.072009 -0.047001 0
0.0725452 -0.0478434 0
0.0730611 -0.0486524 0
0.073556 -0.0494294 0
0.0740291 -0.0501756 0
0.0744812 -0.0508916 0
0.0749138 -0.0515773 0
0.0753285 -0.0522331 0
0.0757266 -0.0528592 0
0.076109 -0.0534564 0
0.0764753 -0.0540264 0
0.0768243 -0.054571 0
0.0771553 -0.0550919 0
0.0774679 -0.0555901 0
0.0777617 -0.0560669 0
0.0780369 -0.056523 0
0.0782958 -0.0569578 0
0.0785421 -0.0573703 0
0.0787786 -0.0577603 0
0.0790073 -0.0581279 0
0.0792295 -0.058474 0
0.0794462 -0.0587995 0
0.0798803 -0.0594162 0
0.0800272 -0.0596588 0
0.0800357 -0.0598891 0
0.0799275 -0.0600784 0
0.0797205 -0.0601773 0
0.0794593 -0.0601051 0
0.0789155 -0.0596491 0
0.0786707 -0.0593963 0
0.0784111 -0.0591319 0
0.0781372 -0.0588542 0
0.0778566 -0.0585548 0
0.0775715 -0.0582308 0
0.0772803 -0.0578828 0
0.0769832 -0.0575099 0
0.0766822 -0.0571097 0
0.0763801 -0.0566796 0
0.0760759 -0.0562196 0
0.0757623 -0.0557337 0
0.0754359 -0.0552232 0
0.0750951 -0.0546879 0
0.0747379 -0.054128 0
0.0743626 -0.0535435 0
0.0739688 -0.0529338 0
0.0735559 -0.0522981 0
0.0731238 -0.0516357 0
0.0726718 -0.050946 0
0.0721991 -0.0502288 0
0.0717046 -0.049484 0
0.0711872 -0.0487117 0
0.0706461 -0.047912 0
0.0700804 -0.0470849 0
0.0694892 -0.0462308 0
0.0688718 -0.0453499 0
0.0682271 -0.0444431 0
0.0675544 -0.043511 0
0.0668527 -0.0425546 0
0.0661215 -0.0415748 0
0.06536 -0.040573 0
0.0645676 -0.0395504 0
0.0637439 -0.0385087 0
0.0628887 -0.0374493 0
0.062002 -0.0363741 0
0.0610838 -0.0352847 0
0.0601345 -0.0341831 0
0.0591547 -0.033071 0
0.0581456 -0.0319502 0
0.0571083 -0.0308224 0
0.0560444 -0.0296893 0
0.0549562 -0.028552 0
0.053845 -0.0274126 0
0.0527113 -0.0262746 0
0.051554 -0.0251427 0
0.0503724 -0.0240222 0
0.0491675 -0.0229164 0
0.047941 -0.0218282 0
0.0466955 -0.0207597 0
0.0454337 -0.0197126 0
0.0441592 -0.0186878 0
0.0428751 -0.0176863 0
0.0415841 -0.0167097 0
0.0402878 -0.0157609 0
0.0389879 -0.0148428 0
0.0376864 -0.0139575 0
0.0363853 -0.013107 0
0.0350871 -0.0122931 0
0.0337942 -0.0115164 0
0.0325095 -0.0107772 0
0.0312357 -0.0100756 0
0.0299758 -0.00941024 0
0.0287337 -0.00877784 0
0.0275126 -0.00817571 0
0.0263139 -0.00760375 0
0.0251376 -0.00706528 0
0.0239829 -0.0065649 0
0.0228537 -0.00609619 0
0.0217522 -0.00565563 0
0.0206795 -0.00524226 0
0.0196364 -0.00485507 0
0.0186233 -0.00449318 0
0.0176408 -0.00415577 0
0.016689 -0.00384204 0
0.0157682 -0.00355115 0
0.0148783 -0.00328218 0
0.0140192 -0.00303468 0
0.0131906 -0.00280795 0
0.0123925 -0.00260016 0
0.0116246 -0.00241012 0
0.0108864 -0.00223769 0
0.0101774 -0.00208212 0
0.00949701 -0.00194206 0
0.00884483 -0.0018163 0
0.0082202 -0.0017039 0
0.00762247 -0.00160391 0
0.00705097 -0.00151528 0
0.006505 -0.00143697 0
0.0059838 -0.00136806 0
0.00548662 -0.00130772 0
0.00501265 -0.00125519 0
0.00456114 -0.00120954 0
0.00413136 -0.00116914 0
0.00372257 -0.00113251 0
0.00333398 -0.00109853 0
0.00296466 -0.00106798 0
0.00261363 -0.0010431 0
-0.052721 -0.0445996 0
-0.0508204 -0.0440823 0
-0.0489199 -0.0435651 0
-0.0470193 -0.0430478 0
-0.0451187 -0.0425306 0
-0.0432181 -0.0420134 0
-0.0413175 -0.0414961 0
-0.039417 -0.0409789 0
-0.0375164 -0.0404616 0
-0.0356158 -0.0399444 0
-0.0337152 -0.0394271 0
-0.0318146 -0.0389099 0
-0.0299141 -0.0383927 0
-0.0280135 -0.0378754 0
-0.0261129 -0.0373582 0
-0.0242123 -0.0368409 0
-0.0223117 -0.0363237 0
-0.0204112 -0.0358065 0
-0.0185106 -0.0352892 0
-0.01661 -0.034772 0
-0.0147094 -0.0342547 0
-0.0128088 -0.0337375 0
-0.0109083 -0.0332202 0
-0.00900769 -0.032703 0
-0.00710711 -0.0321858 0
-0.00520653 -0.0316685 0
-0.00330595 -0.0311513 0
-0.00140537 -0.030634 0
0.00190689 -0.0299614 0
0.00332271 -0.0298498 0
0.00474133 -0.0297825 0
0.00616136 -0.0297597 0
0.0075814 -0.0297814 0
0.00900007 -0.0298477 0
0.010416 -0.0299583 0
0.0118278 -0.0301127 0
0.0132342 -0.0303103 0
0.0146339 -0.0305504 0
0.0160259 -0.0308322 0
0.0174091 -0.0311546 0
0.0187824 -0.0315166 0
0.020145 -0.031917 0
0.0214961 -0.0323546 0
0.0228351 -0.032828 0
0.0241613 -0.0333361 0
0.0254744 -0.0338774 0
0.0267738 -0.0344507 0
0.0280592 -0.0350545 0
0.0293306 -0.0356877 0
0.0305875 -0.0363488 0
0.0318301 -0.0370367 0
0.0330581 -0.0377501 0
0.0342717 -0.0384879 0
0.0354708 -0.0392489 0
0.0366556 -0.0400321 0
0.0378262 -0.0408363 0
0.0389828 -0.0416607 0
0.0401254 -0.0425042 0
0.0412543 -0.0433659 0
0.0423698 -0.0442451 0
0.043472 -0.0451408 0
0.0445612 -0.0460523 0
0.0456375 -0.0469789 0
0.0467013 -0.0479199 0
0.0477529 -0.0488746 0
0.0487923 -0.0498424 0
0.04982 -0.0508227 0
0.0508362 -0.051815 0
0.051841 -0.0528187 0
0.0528348 -0.0538333 0
0.0538178 -0.0548584 0
0.0547903 -0.0558935 0
0.0557524 -0.0569382 0
0.0567045 -0.0579922 0
0.0576467 -0.0590549 0
0.0585792 -0.0601261 0
0.0595024 -0.0612055 0
0.0604163 -0.0622926 0
0.0613212 -0.0633873 0
0.0622174 -0.0644891 0
0.0631049 -0.0655979 0
0.0639841 -0.0667134 0
0.064855 -0.0678353 0
0.0657179 -0.0689633 0
0.0665729 -0.0700974 0
0.0674202 -0.0712372 0
0.06826 -0.0723826 0
0.0690925 -0.0735333 0
0.0699178 -0.0746892 0
0.070736 -0.0758501 0
0.0715473 -0.0770159 0
0.0723518 -0.0781863 0
0.0731498 -0.0793612 0
0.0739412 -0.0805405 0
0.0747264 -0.081724 0
0.0755053 -0.0829116 0
0.0762781 -0.0841033 0
0.0770449 -0.0852987 0
0.0778059 -0.0864979 0
0.0785611 -0.0877007 0
0.0793108 -0.088907 0
0.0814681 -0.0912706 0
0.0828814 -0.0924245 0
0.0842946 -0.0935783 0
0.0857079 -0.0947322 0
0.0871211 -0.095886 0
0.0885344 -0.0970399 0
0.0899476 -0.0981937 0
0.0913609 -0.0993476 0
0.0927741 -0.100501 0
0.0941874 -0.101655 0
0.0956006 -0.102809 0
0.0970139 -0.103963 0
0.0984272 -0.105117 0
0.0998404 -0.106271 0
0.101254 -0.107424 0
0.102667 -0.108578 0
0.10408 -0.109732 0
0.105493 -0.110886 0
0.106907 -0.11204 0
0.10832 -0.113194 0
0.109733 -0.114348 0
0.111146 -0.115501 0
0.11256 -0.116655 0
0.113973 -0.117809 0
0.115386 -0.118963 0
0.116799 -0.120117 0
0.118213 -0.121271 0
0.119626 -0.122424 0
0.121039 -0.123578 0
0.122452 -0.124732 0
0.123866 -0.125886 0
0.125279 -0.12704 0
0.126692 -0.128194 0
0.128105 -0.129348 0
0.129519 -0.130501 0
0.130932 -0.131655 0
0.132345 -0.132809 0
0.133758 -0.133963 0
0.135172 -0.133216 0
0.135172 -0.131316 0
0.135172 -0.129415 0
0.135172 -0.127514 0
0.135172 -0.125614 0
0.135172 -0.123713 0
0.135172 -0.121813 0
0.135172 -0.119912 0
0.135172 -0.118012 0
0.135172 -0.116111 0
0.135172 -0.11421 0
0.135172 -0.11231 0
0.135172 -0.110409 0
0.135172 -0.108509 0
0.135172 -0.106608 0
0.135172 -0.104708 0
0.135172 -0.102807 0
0.135172 -0.100906 0
0.135172 -0.0990058 0
0.135172 -0.0971052 0
0.135172 -0.0952046 0
0.135172 -0.0933041 0
0.135172 -0.0914035 0
0.135172 -0.0895029 0
0.135172 -0.0876023 0
0.135172 -0.0857017 0
0.135172 -0.0838012 0
0.135172 -0.0819006 0
0.133758 -0.0788462 0
0.132345 -0.0776923 0
0.130932 -0.0765385 0
0.129519 -0.0753846 0
0.128105 -0.0742308 0
0.126692 -0.0730769 0
0.125279 -0.0719231 0
0.123866 -0.0707692 0
0.122452 -0.0696154 0
0.121039 -0.0684615 0
0.119626 -0.0673077 0
0.118213 -0.0661538 0
0.116799 -0.065 0
0.115386 -0.0638462 0
0.113973 -0.0626923 0
0.11256 -0.0615385 0
0.111146 -0.0603846 0
0.109733 -0.0592308 0
0.10832 -0.0580769 0
0.106907 -0.0569231 0
0.105493 -0.0557692 0
0.10408 -0.0546154 0
0.102667 -0.0534615 0
0.101254 -0.0523077 0
0.0998404 -0.0511538 0
0.0984272 -0.05 0
0.0970139 -0.0488462 0
0.0956006 -0.0476923 0
[...]
CELL_DATA 13116
SCALARS rho float
LOOKUP_TABLE default
0.626519
0.704124
0.315226
0.714542
0.718742
0.695528
0.310247
0.713604
0.558197
0.717775
0.314522
0.288218
0.718392
0.311748
0.300843
0.69678
0.625686
0.723858
0.70239
0.322906
0.620152
0.317006
0.311048
0.723199
0.715482
0.70883
0.7179
0.318874
0.722966
0.731615
0.558891
0.291699
0.583933
0.464801
0.307006
0.623328
0.716155
0.702421
0.700994
0.71225
0.701747
0.714281
0.493149
0.312373
0.702001
0.702303
0.703389
0.703331
0.31249
0.542025
0.713641
0.488498
0.313092
0.618136
0.58439
0.67947
0.312443
0.724175
0.553839
0.303879
0.311917
0.716487
0.704683
0.698452
0.557739
0.317325
0.705283
0.731531
0.70391
0.57879
0.301229
0.737627
0.318259
0.314201
0.565355
0.304474
0.708668
0.711027
0.320098
0.724503
0.719101
0.70858
0.722909
0.703842
0.702073
0.410593
0.322245
0.73098
0.709418
0.328347
0.296593
0.703656
0.722087
0.712017
0.724006
0.692874
0.718
0.559354
0.564822
0.724563
0.728358
0.699607
0.701675
0.420912
0.701772
0.282046
0.367626
0.529202
0.315128
0.71717
0.554964
0.704731
0.690535
0.729218
0.724334
0.708121
0.3203
0.380866
0.706061
0.709262
0.732099
0.321923
0.704035
0.29596
0.711744
0.430987
0.32172
0.518883
0.31426
0.541335
0.705892
0.707163
0.482432
0.314801
0.444298
0.684167
0.55935
0.704958
0.728838
0.709518
0.707558
0.703433
0.520549
0.707139
0.706228
0.289044
0.306998
0.707978
0.721818
0.712648
0.552179
0.703453
0.703288
0.308203
0.719273
0.701937
0.310776
0.727257
0.560438
0.730989
0.723628
0.31624
0.723763
0.312398
0.322995
0.716166
0.71112
0.723987
0.307992
0.420893
0.399074
0.559759
0.298897
0.505361
0.70893
0.30949
0.307531
0.318104
0.704162
0.702086
0.319627
0.404289
0.58023
0.71923
0.702151
0.554449
0.313141
0.699867
0.700234
0.465933
0.712679
0.707504
0.595967
0.307768
0.70501
0.703668
0.720411
0.700121
0.708459
0.362327
0.424503
0.71657
0.513196
0.314884
0.709553
0.70334
0.496586
0.704191
0.295898
0.315897
0.305612
0.704202
0.311397
0.324564
0.323025
0.307739
0.37032
0.698813
0.711476
0.401295
0.312053
0.705067
0.550164
0.319483
0.559977
0.717057
0.706199
0.319344
0.708212
0.38262
0.715308
0.293084
0.624467
0.593079
0.561734
0.710657
0.636014
0.309896
0.422461
0.730841
0.564212
0.703305
0.559738
0.662642
0.712946
0.309116
0.71027
0.718436
0.564049
0.309338
0.31426
0.703192
0.705775
0.572817
0.7051
0.618
0.726458
0.315851
0.315785
0.367975
0.29393
0.700156
0.720637
0.708259
0.324004
0.701439
0.316257
0.403706
0.702023
0.310821
0.708857
0.714272
0.564262
0.72458
0.309451
0.564451
0.726213
0.563119
0.70468
0.324315
0.321656
0.309516
0.679618
0.320599
0.320824
0.353675
0.34096
0.701958
0.306774
0.706044
0.716659
0.317336
0.321309
0.317037
0.429248
0.319731
0.731804
0.7004
0.701937
0.311571
0.703137
0.722221
0.312765
0.304067
0.695476
0.705589
0.700007
0.312906
0.703719
0.43591
0.706756
0.714284
0.71245
0.714207
0.308884
0.706797
0.295218
0.699074
0.716574
0.73047
0.32697
0.35042
0.718014
0.318274
0.704059
0.716441
0.346307
0.725432
0.723085
0.318811
0.701415
0.722196
0.295891
0.706188
0.404797
0.657371
0.713817
0.411433
0.727194
0.323908
0.724188
0.354312
0.686038
0.696482
0.719792
0.318057
0.368643
0.701696
0.307751
0.706107
0.700694
0.399364
0.559534
0.311473
0.312672
0.706889
0.56503
0.72767
0.321692
0.31156
0.710543
0.716881
0.308239
0.715045
0.317703
0.290434
0.710371
0.713582
0.541635
0.332059
0.704591
0.563775
0.699748
0.701427
0.72614
0.555677
0.332106
0.294397
0.320166
0.700519
0.320229
0.580836
0.349272
0.303216
0.36467
0.548304
0.120605
0.308789
0.701429
0.296407
0.723598
0.72198
0.702697
0.733095
0.711016
0.313675
0.32143
0.367572
0.335689
0.707103
0.685063
0.70208
0.721797
0.706932
0.709531
0.708138
0.711003
0.730399
0.722007
0.72473
0.695042
0.371108
0.49625
0.621565
0.314136
0.698758
0.672659
0.315146
0.707851
0.563022
0.309795
0.324825
0.328542
0.31373
0.716247
0.297721
0.308066
0.704556
0.315488
0.605623
0.330326
0.699019
0.710707
0.322199
0.314731
0.706892
0.422275
0.331406
0.314533
0.326111
0.315008
0.320676
0.324837
0.322272
0.406361
0.322303
0.698837
0.326851
0.70312
0.347781
0.29489
0.454413
0.266998
0.327109
0.271501
0.705895
0.406838
0.721134
0.541795
0.316777
0.70521
0.709691
0.408079
0.725831
0.708974
0.708243
0.319601
0.561153
0.38351
0.725414
0.562331
0.313268
0.303643
0.700158
0.33704
0.41015
0.697753
0.366797
0.727191
0.705635
0.320337
0.305946
0.296855
0.49991
0.302809
0.303478
0.299258
0.295632
0.715409
0.715499
0.440852
0.722759
0.454489
0.703886
0.362266
0.30031
0.563246
0.313652
0.705432
0.320897
0.375335
0.471341
0.701973
0.710512
0.570387
0.344596
0.305179
0.643225
0.713528
0.64671
0.632946
0.702327
0.700029
0.325753
0.710779
0.569043
0.730688
0.347616
0.319742
0.729304
0.720801
0.732923
0.717054
0.703532
0.709383
0.724097
0.730308
0.702564
0.32089
0.701794
0.35805
0.298105
0.325815
0.714958
0.703149
0.347229
0.7027
0.716578
0.327027
0.679187
0.705389
0.718239
0.318502
0.301537
0.706643
0.332454
0.330193
0.271711
0.326879
0.70544
0.299187
0.714173
0.325898
0.704334
0.713522
0.704114
0.717393
0.332923
0.32134
0.703953
0.715962
0.712881
0.71559
0.718664
0.447299
0.318833
0.314718
0.703048
0.554738
0.328249
0.421576
0.302182
0.71293
0.699395
0.347462
0.318812
0.703465
0.416158
0.701582
0.730009
0.313886
0.381629
0.712092
0.562054
0.312471
0.710092
0.711157
0.703643
0.303572
0.560449
0.312253
0.562329
0.730843
0.333373
0.367001
0.320949
0.561479
0.315512
0.319464
0.382682
0.692535
0.708713
0.319441
0.312933
0.328217
0.682132
0.319749
0.703123
0.296238
0.740554
0.717086
0.34996
0.312151
0.311669
0.449594
0.315394
0.709802
0.311554
0.29858
0.698906
0.297135
0.704878
0.703803
0.56238
0.323908
0.705331
0.722564
0.720568
0.703034
0.7124
0.709977
0.286337
0.611393
0.404583
0.704042
0.32533
0.712856
0.53088
0.306812
0.550224
0.724786
0.304861
0.710944
0.296972
0.300542
0.704415
0.703121
0.301313
0.28169
0.319544
0.282195
0.712845
0.72312
0.303873
0.318897
0.706504
0.706682
0.738028
0.722795
0.699198
0.316374
0.719583
0.40286
0.713671
0.381585
0.69793
0.435401
0.706067
0.727616
0.682176
0.358417
0.317249
0.700308
0.723348
0.611462
0.723035
0.2935
0.713644
0.719709
0.380675
0.493468
0.722098
0.346743
0.55982
0.730618
0.346838
0.709505
0.724644
0.315349
0.708402
0.309029
0.703757
0.30811
0.704272
0.704568
0.317366
0.693568
0.723499
0.710106
0.715367
0.708548
0.728701
0.333359
0.428185
0.294966
0.314771
0.558801
0.562889
0.704325
0.722545
0.321296
0.328385
0.708855
0.716732
0.706953
0.714034
0.326357
0.724661
0.718362
0.323254
0.292334
0.706235
0.703158
0.703495
0.2802
0.740444
0.32293
0.708432
0.703609
0.629155
0.703735
0.328418
0.705561
0.704244
0.722575
0.703292
0.701574
0.402876
0.72525
0.315564
0.702401
0.717973
0.419351
0.706184
0.665273
0.71329
0.439888
0.388124
0.739191
0.733106
0.331969
0.334044
0.310776
0.321809
0.704973
0.711785
0.658161
0.342622
0.319994
0.70389
0.727185
0.29959
0.329579
0.424915
0.712572
0.700114
0.7013
0.726177
0.316725
0.33206
0.562871
0.295308
0.324121
0.310005
0.700321
0.322571
0.333216
0.65159
0.703889
0.703362
0.698062
0.699781
0.319998
0.296026
0.312018
0.551611
0.408969
0.294751
0.73003
0.72593
0.703746
0.702726
0.286418
0.325587
0.717242
0.327736
0.701561
0.704343
0.560483
0.301425
0.326351
0.703164
0.557116
0.657407
0.299112
0.701448
0.699557
0.637489
0.712711
0.713179
0.563814
0.702328
0.326155
0.699708
0.560004
0.706119
0.708931
0.55881
0.704624
0.560616
0.704529
0.298309
0.301483
0.326123
0.555236
0.534993
0.32826
0.708677
0.707476
0.28648
0.713343
0.323405
0.713531
0.535529
0.312783
0.71655
0.723336
0.328461
0.546718
0.561867
0.313446
0.712417
0.317478
0.283938
0.706556
0.720207
0.452865
0.70181
0.310238
0.72428
0.305222
0.285571
0.704769
0.328319
0.698277
0.301341
0.713661
0.70427
0.560577
0.710681
0.296517
0.29858
0.701927
0.501244
0.706974
0.47792
0.680512
0.696799
0.722651
0.509031
0.717834
0.70429
0.720051
0.705323
0.35882
0.334438
0.549512
0.704786
0.720199
0.361221
0.70143
0.660606
0.366298
0.300815
0.72958
0.712478
0.559952
0.561697
0.698358
0.725916
0.694387
0.717452
0.298674
0.732049
0.422029
0.711792
0.70314
0.341858
0.712362
0.717567
0.304704
0.306216
0.317779
0.558846
0.317315
0.706296
0.718996
0.731679
0.325689
0.702149
0.314933
0.744538
0.6839
0.629251
0.730527
0.673913
0.721476
0.717055
0.558487
0.703778
0.308972
0.701033
0.704139
0.484519
0.561081
0.710812
0.310165
0.29551
0.313292
0.712584
0.335491
0.561539
0.312478
0.71324
0.302353
0.436872
0.294673
0.725324
0.714348
0.615552
0.317009
0.723029
0.700619
0.315836
0.733582
0.715615
0.293421
0.691257
0.562595
0.717231
0.701625
0.313002
0.526139
0.706918
0.702554
0.702924
0.332581
0.384425
0.70143
0.560324
0.562634
0.559774
0.60453
0.707419
0.598303
0.710256
0.332985
0.314638
0.559877
0.719235
0.69477
0.316641
0.701083
0.627376
0.693145
0.305942
0.396469
0.715354
0.713989
0.576351
0.334381
0.702571
0.561479
0.310122
0.720885
0.726732
0.309349
0.294345
0.295285
0.70104
0.32119
0.321409
0.701441
0.484314
0.719702
0.714579
0.308162
0.319606
0.715444
0.303059
0.297845
0.557805
0.2913
0.363843
0.695163
0.71234
0.706122
0.319482
0.325801
0.31249
0.704075
0.283849
0.70613
0.296854
0.708483
0.709726
0.701579
0.702719
0.70602
0.703485
0.70001
0.717462
0.706014
0.301688
0.313259
0.705204
0.695137
0.462167
0.701392
0.581345
0.693553
0.705307
0.32159
0.70953
0.716048
0.703656
0.308371
0.705814
0.320448
0.704106
0.449686
0.724235
0.702896
0.31423
0.707517
0.328632
0.457906
0.704702
0.308942
0.727113
0.558884
0.713181
0.31275
0.704743
0.320327
0.299983
0.303617
0.322819
0.703186
0.299642
0.708862
0.673029
0.335547
0.308144
0.442241
0.724547
0.720414
0.703433
0.32358
0.318494
0.309461
0.296091
0.313693
0.717006
0.706413
0.319696
0.688315
0.71497
0.295626
0.715904
0.727057
0.685657
0.310962
0.561879
0.70869
0.724359
0.712521
0.30327
0.706512
0.724493
0.705965
0.72941
0.699825
0.322534
0.304846
0.70322
0.542221
0.328479
0.704821
0.305718
0.655622
0.709752
0.70344
0.703621
0.298017
0.700982
0.365278
0.308282
0.725726
0.709118
0.722605
0.708771
0.713829
0.300477
0.717659
0.302278
0.459832
0.716123
0.565125
0.707005
0.309255
0.310346
0.718042
0.325221
0.706254
0.726256
0.402267
0.330524
0.710603
0.301288
0.702694
0.706314
0.712127
0.301891
0.302682
0.509821
0.553602
0.70928
0.477186
0.698989
0.703702
0.702472
0.55811
0.708986
0.311568
0.328601
0.709901
0.70019
0.703323
0.419794
0.315245
0.710871
0.297796
0.699402
0.716691
0.330414
0.707132
0.32411
0.711185
0.315374
0.720731
0.30816
0.704367
0.702237
0.289424
0.711949
0.733466
0.294098
0.648251
0.701967
0.582473
0.271986
0.357916
0.472547
0.722231
0.700474
0.329111
0.726316
0.708945
0.698571
0.32769
0.701916
0.702588
0.413076
0.699026
0.698692
0.339645
0.70516
0.559547
0.314354
0.690387
0.314719
0.711751
0.311013
0.288235
0.721128
0.322288
0.327816
0.296384
0.70507
0.704242
0.376052
0.702596
0.35876
0.708991
0.321437
0.703428
0.351535
0.697043
0.703466
0.711057
0.646561
0.56166
0.702376
0.686501
0.318495
0.722526
0.712838
0.573244
0.708749
0.448449
0.402129
0.717885
0.317534
0.580563
0.324221
0.701919
0.304468
0.307288
0.72355
0.699714
0.320993
0.709983
0.725765
0.558967
0.713586
0.561445
0.326439
0.716295
0.323382
0.311703
0.711385
0.726107
0.713888
0.702937
0.293196
0.31006
0.311967
0.703788
0.67105
0.357489
0.712906
0.318195
0.311242
0.304431
0.708139
0.382294
0.717219
0.706431
0.72118
0.702445
0.705764
0.646678
0.707806
0.406577
0.294195
0.321284
0.56146
0.561661
0.316717
0.714686
0.69941
0.708998
0.312872
0.445885
0.704083
0.297074
0.702977
0.701611
0.324402
0.701148
0.704682
0.328339
0.70582
0.298152
0.704359
0.719187
0.7058
0.298132
0.427173
0.727335
0.343798
0.408375
0.700552
0.349426
0.701522
0.704764
0.708567
0.7254
0.334331
0.554692
0.725832
0.7025
0.370071
0.711117
0.309176
0.285214
0.701664
0.700026
0.67231
0.253486
0.703255
0.720563
0.565388
0.318628
0.317466
0.332502
0.708808
0.311064
0.297009
0.314003
0.700235
0.297054
0.341079
0.41021
0.705756
0.326221
0.637643
0.700514
0.711012
0.312453
0.70456
0.734469
0.683414
0.398634
0.730307
0.306007
0.317184
0.704931
0.321275
0.711409
0.708802
0.560363
0.325109
0.351076
0.305752
0.611122
0.559495
0.257911
0.702446
0.704766
0.724862
0.318594
0.301058
0.357389
0.699808
0.32904
0.55844
0.719881
0.702245
0.701473
0.323763
0.71145
0.289182
0.695182
0.727229
0.716818
0.689849
0.580244
0.730237
0.703349
0.712733
0.315125
0.34676
0.314
0.724379
0.559582
0.564931
0.325204
0.39012
0.726292
0.70469
0.594914
0.321574
0.711658
0.582643
0.585613
0.700757
0.31486
0.322153
0.341358
0.699903
0.67166
0.729902
0.703135
0.357851
0.71316
0.731515
0.665332
0.670344
0.712988
0.716185
0.703403
0.727127
0.723649
0.313499
0.704542
0.710307
0.699528
0.70527
0.700155
0.677159
0.326159
0.284148
0.705443
0.328323
0.334407
0.712431
0.298524
0.720595
0.703928
0.704384
0.703721
0.312186
0.713021
0.304424
0.315949
0.703606
0.706458
0.702837
0.311843
0.714414
0.702001
0.703056
0.699859
0.313616
0.699803
0.717917
0.706258
0.363394
0.724214
0.313876
0.713732
0.307196
0.326283
0.627961
0.416995
0.716624
0.7238
0.701758
0.31228
0.699725
0.378672
0.298605
0.707473
0.443854
0.329935
0.701723
0.297485
0.470721
0.732092
0.704331
0.703674
0.445803
0.740174
0.733951
0.702644
0.677452
0.722415
0.544429
0.713826
0.702848
0.733935
0.282076
0.319323
0.414136
0.707691
0.310766
0.731188
0.711102
0.702392
0.702698
0.597325
0.727378
0.718148
0.310671
0.709611
0.700498
0.587166
0.70097
0.717836
0.710034
0.698377
0.318415
0.298388
0.704663
0.56463
0.606253
0.706053
0.704137
0.70286
0.720746
0.719481
0.714025
0.703392
0.716857
0.296362
0.301079
0.303963
0.326813
0.561315
0.453899
0.593338
0.706953
0.723268
0.312273
0.703794
0.714422
0.312184
0.37861
0.561762
0.704643
0.315646
0.281716
0.271564
0.557921
0.709228
0.365905
0.310521
0.323963
0.293391
0.342336
0.330501
0.714946
0.703393
0.708877
0.313912
0.704136
0.700346
0.717484
0.335404
0.324482
0.707681
0.559387
0.331474
0.698746
0.328
0.723674
0.313477
0.711114
0.317088
0.703477
0.71554
0.312377
0.615269
0.329377
0.716108
0.292081
0.704071
0.305131
0.526076
0.306158
0.696634
0.316361
0.603335
0.622556
0.71781
0.705786
0.337024
0.703528
0.698825
0.714986
0.69874
0.709633
0.324414
0.440836
0.31549
0.722163
0.320658
0.717813
0.563823
0.725939
0.717193
0.52913
0.724227
0.299295
0.316584
0.296151
0.525199
0.635967
0.704139
0.312325
0.318642
0.704952
0.383606
0.300148
0.665439
0.373811
0.332348
0.285479
0.714233
0.730061
0.706005
0.313442
0.704144
0.699571
0.289308
0.352104
0.703302
0.699641
0.695537
0.47225
0.397197
0.370414
0.309312
0.713065
0.704038
0.554324
0.726063
0.298821
0.632681
0.322482
0.557599
0.716415
0.324464
0.323491
0.704498
0.659581
0.716877
0.723545
0.721473
0.712435
0.716506
0.307508
0.315877
0.313142
0.325197
0.62308
0.560772
0.730703
0.326665
0.323908
0.474262
0.293388
0.702874
0.704406
0.324081
0.345313
0.703955
0.312953
0.733072
0.725342
0.704122
0.699252
0.629172
0.329961
0.317447
0.702215
0.324563
0.4421
0.372577
0.697521
0.700908
0.330855
0.324936
0.560457
0.315856
0.705122
0.722061
0.326004
0.3057
0.305628
0.703948
0.318778
0.558883
0.713453
0.699306
0.284601
0.534256
0.709308
0.702229
0.314682
0.702038
0.706172
0.296769
0.706444
0.714033
0.310137
0.324386
0.70329
0.313905
0.325428
0.702761
0.36321
0.702933
0.727392
0.722468
0.708316
0.719719
0.704341
0.703012
0.312037
0.395164
0.705907
0.705668
0.424954
0.716234
0.350196
0.704469
0.70364
0.618662
0.734406
0.439741
0.425875
0.703835
0.718748
0.702062
0.715385
0.703399
0.561309
0.713043
0.559726
0.71241
0.708216
0.713107
0.559668
0.702878
0.295864
0.708887
0.317667
0.710668
0.704606
0.726208
0.703452
0.725533
0.303598
0.307133
0.347779
0.315916
0.704141
0.3196
0.31025
0.718461
0.28368
0.727337
0.309383
0.702743
0.706532
0.322108
0.383064
0.331505
0.706599
0.313378
0.703886
0.707871
0.304692
0.70733
0.574107
0.337734
0.317685
0.28847
0.725315
0.3251
0.710297
0.595611
0.332566
0.700886
0.701897
0.721641
0.328252
0.659453
0.301463
0.703893
0.69538
0.708952
0.334851
0.705619
0.70519
0.702325
0.391151
0.705702
0.330096
0.324694
0.71025
0.443922
0.718214
0.42246
0.334048
0.412524
0.702652
0.315952
0.296525
0.307981
0.535527
0.562622
0.70687
0.299987
0.695016
0.703465
0.617565
0.47521
0.329089
0.57394
0.334029
0.326542
0.702822
0.325131
0.32899
0.712808
0.715154
0.31068
0.724155
0.306497
0.561623
0.319868
0.70893
0.582883
0.724937
0.699843
0.308174
0.323877
0.302103
0.69512
0.704777
0.743109
0.563092
0.376532
0.335099
0.701371
0.312533
0.70301
0.378739
0.599757
0.731066
0.315619
0.313642
0.327835
0.325152
0.315305
0.703823
0.70442
0.316962
0.704677
0.72714
0.334722
0.297652
0.715469
0.327459
0.705611
0.403981
0.725039
0.73401
0.704323
0.561757
0.29843
0.719292
0.709805
0.714521
0.323377
0.701482
0.724088
0.333249
0.708675
0.709702
0.714629
0.704103
0.716666
0.712384
0.714308
0.699504
0.702144
0.32167
0.722587
0.328167
0.487416
0.700854
0.302259
0.701951
0.70076
0.316416
0.70199
0.323455
0.297073
0.712286
0.699307
0.715191
0.315874
0.704277
0.720781
0.319977
0.31488
0.710773
0.699542
0.381118
0.308424
0.721605
0.715453
0.327668
0.730442
0.715999
0.730675
0.315405
0.329524
0.297314
0.733695
0.309707
0.702485
0.724514
0.701505
0.700272
0.705949
0.315898
0.703908
0.715048
0.715522
0.689411
0.307499
0.31217
0.294158
0.723282
0.70717
0.401357
0.734414
0.326771
0.710522
0.709335
0.293534
0.706333
0.702734
0.716451
0.313889
0.322505
0.327654
0.706706
0.718223
0.720411
0.470293
0.704852
0.330799
0.729519
0.565125
0.705719
0.313056
0.717008
0.318533
0.701733
0.291684
0.703912
0.712411
0.314067
0.706619
0.492284
0.559495
0.715782
0.558292
0.7124
0.417732
0.70136
0.701954
0.702811
0.704036
0.436316
0.5649
0.303185
0.702339
0.295579
0.321329
0.302508
0.314731
0.333249
0.314817
0.715833
0.373561
0.296274
0.723344
0.70651
0.704414
0.369779
0.726933
0.726359
0.69926
0.305914
0.691287
0.706008
0.325045
0.310984
0.322461
0.722037
0.465864
0.325501
0.687571
0.287451
0.56123
0.459298
0.31983
0.432069
0.734724
0.329068
0.699382
0.298359
0.565686
0.377782
0.713255
0.381525
0.713991
0.565024
0.698301
0.474056
0.327509
0.712833
0.715938
0.311419
0.299927
0.69738
0.323282
0.724357
0.313509
0.574751
0.292028
0.704626
0.316334
0.715848
0.321153
0.709864
0.705277
0.718316
0.560974
0.302518
0.309724
0.366879
0.709739
0.716461
0.702446
0.642878
0.316925
0.721531
0.329369
0.703964
0.698079
0.405031
0.330625
0.724344
0.703593
0.303479
0.562704
0.712917
0.724315
0.722475
0.299149
0.730715
0.32891
0.724127
0.3078
0.689798
0.706148
0.711892
0.71545
0.334495
0.714758
0.32159
0.309294
0.703399
0.561212
0.578054
0.704228
0.562336
0.329191
0.723783
0.712926
0.713708
0.300513
0.404602
0.727959
0.319231
0.704603
0.712503
0.701791
0.713078
0.310697
0.46674
0.733136
0.313076
0.703584
0.715336
0.493841
0.71158
0.322382
0.702858
0.723635
0.727367
0.711724
0.322949
0.308788
0.704332
0.701701
0.313013
0.341988
0.313126
0.312633
0.296541
0.293314
0.320602
0.32816
0.704338
0.296628
0.314675
0.717496
0.578473
0.56046
0.390137
0.325006
0.703877
0.477865
0.549059
0.719131
0.377203
0.731161
0.642907
0.717375
0.703214
0.312988
0.706869
0.697516
0.301923
0.323558
0.410072
0.70027
0.717892
0.717016
0.698201
0.705825
0.703434
0.34643
0.706516
0.701835
0.711273
0.326989
0.704143
0.698278
0.343654
0.406771
0.309608
0.29664
0.296311
0.702203
0.731506
0.70567
0.326635
0.388224
0.715664
0.288852
0.70811
0.702199
0.701722
0.727233
0.70453
0.323629
0.299298
0.277559
0.64223
0.307021
0.703345
0.275741
0.705562
0.698927
0.704368
0.325031
0.460274
0.406319
0.705347
0.305555
0.321208
0.713072
0.703168
0.711121
0.695307
0.710491
0.72441
0.333368
0.717421
0.720507
0.495069
0.705169
0.70874
0.723799
0.416047
0.400525
0.713847
0.455689
0.706145
0.326076
0.704658
0.701564
0.364276
0.310702
0.704262
0.521397
0.721303
0.707935
0.325866
0.323099
0.559863
0.468004
0.37848
0.70153
0.710735
0.320192
0.701689
0.558967
0.703574
0.33396
0.70803
0.331473
0.700712
0.715931
0.724403
0.706051
0.556066
0.342201
0.354424
0.707396
0.318068
0.717315
0.328774
0.704717
0.286761
0.726966
0.721424
0.560847
0.334892
0.558808
0.562963
0.322726
0.704726
0.2876
0.714601
0.333382
0.316856
0.262997
0.710358
0.701377
0.349805
0.346371
0.708154
0.716563
0.435822