# vtk DataFile Version 1.0
unstructured grid
ascii
DATASET UNSTRUCTURED_GRID
points 13672 float
0.0796578 -0.059106 0
0.00128732 0.00159165 0
0.00227961 -0.00102548 0
0.0791586 -0.0598787 0
-0.0546216 0.01 0
0.000495206 0.025 0
0.0800549 -0.035 0
0.135172 -0.08 0
-0.0546216 -0.0451168 0
0.000495206 -0.0301168 0
0.0800549 -0.0901168 0
0.135172 -0.135117 0
-0.0546216 -0.0451168 -0.00551168
0.000495206 -0.0301168 -0.00551168
0.0800549 -0.0901168 -0.00551168
0.135172 -0.135117 -0.00551168
0.135172 -0.08 -0.00551168
0.0800549 -0.035 -0.00551168
0.000495206 0.025 -0.00551168
-0.0546216 0.01 -0.00551168
0.00128732 0.00159165 -0.00551168
0.00227961 -0.00102548 -0.00551168
0.0791586 -0.0598787 -0.00551168
0.0796578 -0.059106 -0.00551168
0.00165953 -0.000990923 0
0.00119576 -0.000874076 0
0.000866021 -0.000641801 0
0.000645147 -0.000349912 0
0.00052235 -1.7281e-05 0
0.00049972 0.000348016 0
0.000601632 0.000737716 0
0.000861774 0.0011403 0
0.00157235 0.00183217 0
0.00188647 0.00206725 0
0.00222612 0.00230203 0
0.00258713 0.00254351 0
0.00296826 0.00279524 0
0.00337118 0.00305664 0
0.00379785 0.00332658 0
0.00425045 0.00360349 0
0.00473139 0.00388521 0
0.0052432 0.00416895 0
0.0057881 0.00445204 0
0.00636753 0.00473281 0
0.00698281 0.00500961 0
0.00763526 0.00528058 0
0.00832616 0.00554366 0
0.00905691 0.00579603 0
0.00982918 0.00603333 0
0.0106445 0.00625033 0
0.0115038 0.00644128 0
0.0124073 0.00660297 0
0.0133543 0.00673414 0
0.0143444 0.00683382 0
0.0153769 0.00690031 0
0.0164512 0.00693173 0
0.0175666 0.00692547 0
0.0187219 0.00687822 0
0.0199156 0.00678477 0
0.0211454 0.00663864 0
0.0224084 0.00643275 0
0.0237018 0.00616676 0
0.0250249 0.00584739 0
0.026375 0.00547298 0
0.0277479 0.00503752 0
0.0291386 0.00453545 0
0.0305433 0.0039653 0
0.0319572 0.0033256 0
0.0333681 0.00260019 0
0.034775 0.00179799 0
0.0361793 0.000930615 0
0.0375798 3.12222e-06 0
0.0389689 -0.000988429 0
0.0403357 -0.00205109 0
0.041675 -0.00318283 0
0.0429849 -0.00437751 0
0.0442643 -0.00562904 0
0.0455126 -0.00693089 0
0.0467314 -0.00827518 0
0.0479204 -0.00965638 0
0.0490661 -0.0110799 0
0.0501515 -0.0125519 0
0.0511696 -0.0140695 0
0.0521492 -0.0156071 0
0.0531202 -0.0171411 0
0.0540851 -0.0186663 0
0.0550431 -0.0201798 0
0.0559923 -0.0216793 0
0.0569311 -0.0231626 0
0.0578582 -0.0246273 0
0.0587723 -0.0260715 0
0.0596721 -0.027493 0
0.0605563 -0.02889 0
0.0614241 -0.0302609 0
0.0622742 -0.0316042 0
0.063106 -0.0329183 0
0.0639186 -0.034202 0
0.0647113 -0.0354543 0
0.0654835 -0.0366743 0
0.0662345 -0.0378613 0
0.0669642 -0.0390145 0
0.0676726 -0.0401333 0
0.0683597 -0.0412172 0
0.0690246 -0.0422665 0
0.0696662 -0.0432819 0
0.0702841 -0.0442636 0
0.0708793 -0.0452111 0
0.0714538 -0.0461237 0
0.072009 -0.047001 0
0.0725452 -0.0478434 0
0.0730611 -0.0486524 0
0.073556 -0.0494294 0
0.0740291 -0.0501756 0
0.0744812 -0.0508916 0
0.0749138 -0.0515773 0
0.0753285 -0.0522331 0
0.0757266 -0.0528592 0
0.076109 -0.0534564 0
0.0764753 -0.0540264 0
0.0768243 -0.054571 0
0.0771553 -0.0550919 0
0.0774679 -0.0555901 0
0.0777617 -0.0560669 0
0.0780369 -0.056523 0
0.0782958 -0.0569578 0
0.0785421 -0.0573703 0
0.0787786 -0.0577603 0
0.0790073 -0.0581279 0
0.0792295 -0.058474 0
0.0794462 -0.0587995 0
0.0798803 -0.0594162 0
0.0800272 -0.0596588 0
0.0800357 -0.0598891 0
0.0799275 -0.0600784 0
0.0797205 -0.0601773 0
0.0794593 -0.0601051 0
0.0789155 -0.0596491 0
0.0786707 -0.0593963 0
0.0784111 -0.0591319 0
0.0781372 -0.0588542 0
0.0778566 -0.0585548 0
0.0775715 -0.0582308 0
0.0772803 -0.0578828 0
0.0769832 -0.0575099 0
0.0766822 -0.0571097 0
0.0763801 -0.0566796 0
0.0760759 -0.0562196 0
0.0757623 -0.0557337 0
0.0754359 -0.0552232 0
0.0750951 -0.0546879 0
0.0747379 -0.054128 0
0.0743626 -0.0535435 0
0.0739688 -0.0529338 0
0.0735559 -0.0522981 0
0.0731238 -0.0516357 0
0.0726718 -0.050946 0
0.0721991 -0.0502288 0
0.0717046 -0.049484 0
0.0711872 -0.0487117 0
0.0706461 -0.047912 0
0.0700804 -0.0470849 0
0.0694892 -0.0462308 0
0.0688718 -0.0453499 0
0.0682271 -0.0444431 0
0.0675544 -0.043511 0
0.0668527 -0.0425546 0
0.0661215 -0.0415748 0
0.06536 -0.040573 0
0.0645676 -0.0395504 0
0.0637439 -0.0385087 0
0.0628887 -0.0374493 0
0.062002 -0.0363741 0
0.0610838 -0.0352847 0
0.0601345 -0.0341831 0
0.0591547 -0.033071 0
0.0581456 -0.0319502 0
0.0571083 -0.0308224 0
0.0560444 -0.0296893 0
0.0549562 -0.028552 0
0.053845 -0.0274126 0
0.0527113 -0.0262746 0
0.051554 -0.0251427 0
0.0503724 -0.0240222 0
0.0491675 -0.0229164 0
0.047941 -0.0218282 0
0.0466955 -0.0207597 0
0.0454337 -0.0197126 0
0.0441592 -0.0186878 0
0.0428751 -0.0176863 0
0.0415841 -0.0167097 0
0.0402878 -0.0157609 0
0.0389879 -0.0148428 0
0.0376864 -0.0139575 0
0.0363853 -0.013107 0
0.0350871 -0.0122931 0
0.0337942 -0.0115164 0
0.0325095 -0.0107772 0
0.0312357 -0.0100756 0
0.0299758 -0.00941024 0
0.0287337 -0.00877784 0
0.0275126 -0.00817571 0
0.0263139 -0.00760375 0
0.0251376 -0.00706528 0
0.0239829 -0.0065649 0
0.0228537 -0.00609619 0
0.0217522 -0.00565563 0
0.0206795 -0.00524226 0
0.0196364 -0.00485507 0
0.0186233 -0.00449318 0
0.0176408 -0.00415577 0
0.016689 -0.00384204 0
0.0157682 -0.00355115 0
0.0148783 -0.00328218 0
0.0140192 -0.00303468 0
0.0131906 -0.00280795 0
0.0123925 -0.00260016 0
0.0116246 -0.00241012 0
0.0108864 -0.00223769 0
0.0101774 -0.00208212 0
0.00949701 -0.00194206 0
0.00884483 -0.0018163 0
0.0082202 -0.0017039 0
0.00762247 -0.00160391 0
0.00705097 -0.00151528 0
0.006505 -0.00143697 0
0.0059838 -0.00136806 0
0.00548662 -0.00130772 0
0.00501265 -0.00125519 0
0.00456114 -0.00120954 0
0.00413136 -0.00116914 0
0.00372257 -0.00113251 0
0.00333398 -0.00109853 0
0.00296466 -0.00106798 0
0.00261363 -0.0010431 0
-0.052721 -0.0445996 0
-0.0508204 -0.0440823 0
-0.0489199 -0.0435651 0
-0.0470193 -0.0430478 0
-0.0451187 -0.0425306 0
-0.0432181 -0.0420134 0
-0.0413175 -0.0414961 0
-0.039417 -0.0409789 0
-0.0375164 -0.0404616 0
-0.0356158 -0.0399444 0
-0.0337152 -0.0394271 0
-0.0318146 -0.0389099 0
-0.0299141 -0.0383927 0
-0.0280135 -0.0378754 0
-0.0261129 -0.0373582 0
-0.0242123 -0.0368409 0
-0.0223117 -0.0363237 0
-0.0204112 -0.0358065 0
-0.0185106 -0.0352892 0
-0.01661 -0.034772 0
-0.0147094 -0.0342547 0
-0.0128088 -0.0337375 0
-0.0109083 -0.0332202 0
-0.00900769 -0.032703 0
-0.00710711 -0.0321858 0
-0.00520653 -0.0316685 0
-0.00330595 -0.0311513 0
-0.00140537 -0.030634 0
0.00190689 -0.0299614 0
0.00332271 -0.0298498 0
0.00474133 -0.0297825 0
0.00616136 -0.0297597 0
0.0075814 -0.0297814 0
0.00900007 -0.0298477 0
0.010416 -0.0299583 0
0.0118278 -0.0301127 0
0.0132342 -0.0303103 0
0.0146339 -0.0305504 0
0.0160259 -0.0308322 0
0.0174091 -0.0311546 0
0.0187824 -0.0315166 0
0.020145 -0.031917 0
0.0214961 -0.0323546 0
0.0228351 -0.032828 0
0.0241613 -0.0333361 0
0.0254744 -0.0338774 0
0.0267738 -0.0344507 0
0.0280592 -0.0350545 0
0.0293306 -0.0356877 0
0.0305875 -0.0363488 0
0.0318301 -0.0370367 0
0.0330581 -0.0377501 0
0.0342717 -0.0384879 0
0.0354708 -0.0392489 0
0.0366556 -0.0400321 0
0.0378262 -0.0408363 0
0.0389828 -0.0416607 0
0.0401254 -0.0425042 0
0.0412543 -0.0433659 0
0.0423698 -0.0442451 0
0.043472 -0.0451408 0
0.0445612 -0.0460523 0
0.0456375 -0.0469789 0
0.0467013 -0.0479199 0
0.0477529 -0.0488746 0
0.0487923 -0.0498424 0
0.04982 -0.0508227 0
0.0508362 -0.051815 0
0.051841 -0.0528187 0
0.0528348 -0.0538333 0
0.0538178 -0.0548584 0
0.0547903 -0.0558935 0
0.0557524 -0.0569382 0
0.0567045 -0.0579922 0
0.0576467 -0.0590549 0
0.0585792 -0.0601261 0
0.0595024 -0.0612055 0
0.0604163 -0.0622926 0
0.0613212 -0.0633873 0
0.0622174 -0.0644891 0
0.0631049 -0.0655979 0
0.0639841 -0.0667134 0
0.064855 -0.0678353 0
0.0657179 -0.0689633 0
0.0665729 -0.0700974 0
0.0674202 -0.0712372 0
0.06826 -0.0723826 0
0.0690925 -0.0735333 0
0.0699178 -0.0746892 0
0.070736 -0.0758501 0
0.0715473 -0.0770159 0
0.0723518 -0.0781863 0
0.0731498 -0.0793612 0
0.0739412 -0.0805405 0
0.0747264 -0.081724 0
0.0755053 -0.0829116 0
0.0762781 -0.0841033 0
0.0770449 -0.0852987 0
0.0778059 -0.0864979 0
0.0785611 -0.0877007 0
0.0793108 -0.088907 0
0.0814681 -0.0912706 0
0.0828814 -0.0924245 0
0.0842946 -0.0935783 0
0.0857079 -0.0947322 0
0.0871211 -0.095886 0
0.0885344 -0.0970399 0
0.0899476 -0.0981937 0
0.0913609 -0.0993476 0
0.0927741 -0.100501 0
0.0941874 -0.101655 0
0.0956006 -0.102809 0
0.0970139 -0.103963 0
0.0984272 -0.105117 0
0.0998404 -0.106271 0
0.101254 -0.107424 0
0.102667 -0.108578 0
0.10408 -0.109732 0
0.105493 -0.110886 0
0.106907 -0.11204 0
0.10832 -0.113194 0
0.109733 -0.114348 0
0.111146 -0.115501 0
0.11256 -0.116655 0
0.113973 -0.117809 0
0.115386 -0.118963 0
0.116799 -0.120117 0
0.118213 -0.121271 0
0.119626 -0.122424 0
0.121039 -0.123578 0
0.122452 -0.124732 0
0.123866 -0.125886 0
0.125279 -0.12704 0
0.126692 -0.128194 0
0.128105 -0.129348 0
0.129519 -0.130501 0
0.130932 -0.131655 0
0.132345 -0.132809 0
0.133758 -0.133963 0
0.135172 -0.133216 0
0.135172 -0.131316 0
0.135172 -0.129415 0
0.135172 -0.127514 0
0.135172 -0.125614 0
0.135172 -0.123713 0
0.135172 -0.121813 0
0.135172 -0.119912 0
0.135172 -0.118012 0
0.135172 -0.116111 0
0.135172 -0.11421 0
0.135172 -0.11231 0
0.135172 -0.110409 0
0.135172 -0.108509 0
0.135172 -0.106608 0
0.135172 -0.104708 0
0.135172 -0.102807 0
0.135172 -0.100906 0
0.135172 -0.0990058 0
0.135172 -0.0971052 0
0.135172 -0.0952046 0
0.135172 -0.0933041 0
0.135172 -0.0914035 0
0.135172 -0.0895029 0
0.135172 -0.0876023 0
0.135172 -0.0857017 0
0.135172 -0.0838012 0
0.135172 -0.0819006 0
0.133758 -0.0788462 0
0.132345 -0.0776923 0
0.130932 -0.0765385 0
0.129519 -0.0753846 0
0.128105 -0.0742308 0
0.126692 -0.0730769 0
0.125279 -0.0719231 0
0.123866 -0.0707692 0
0.122452 -0.0696154 0
0.121039 -0.0684615 0
0.119626 -0.0673077 0
0.118213 -0.0661538 0
0.116799 -0.065 0
0.115386 -0.0638462 0
0.113973 -0.0626923 0
0.11256 -0.0615385 0
0.111146 -0.0603846 0
0.109733 -0.0592308 0
0.10832 -0.0580769 0
0.106907 -0.0569231 0
0.105493 -0.0557692 0
0.10408 -0.0546154 0
0.102667 -0.0534615 0
0.101254 -0.0523077 0
0.0998404 -0.0511538 0
0.0984272 -0.05 0
0.0970139 -0.0488462 0
0.0956006 -0.0476923 0
[...]
CELL_DATA 13116
SCALARS rho float
LOOKUP_TABLE default
0.642193
0.710307
0.305386
0.711895
0.712091
0.705734
0.291898
0.713602
0.59516
0.712928
0.298549
0.283787
0.712111
0.276109
0.277929
0.705684
0.632299
0.713541
0.702198
0.31104
0.637595
0.297387
0.284829
0.712742
0.652054
0.711335
0.712918
0.30723
0.639297
0.695879
0.558991
0.271797
0.609748
0.440676
0.291587
0.640726
0.718117
0.710914
0.690262
0.710802
0.701154
0.713593
0.466127
0.305026
0.704675
0.702053
0.714805
0.702919
0.284767
0.585941
0.71214
0.462593
0.282603
0.624683
0.610495
0.635831
0.304262
0.713049
0.589878
0.272753
0.279659
0.71234
0.71493
0.681665
0.562111
0.297477
0.707539
0.715647
0.708309
0.554693
0.279586
0.623136
0.30176
0.297628
0.560038
0.303266
0.725313
0.71183
0.296521
0.713611
0.717791
0.711889
0.712899
0.704379
0.712165
0.430456
0.294632
0.710057
0.71255
0.315401
0.276001
0.709739
0.712979
0.712167
0.704503
0.655535
0.65474
0.563358
0.560272
0.636987
0.713837
0.706937
0.701578
0.407244
0.71353
0.268437
0.367785
0.525413
0.299586
0.65087
0.576271
0.71209
0.652179
0.715838
0.713588
0.708101
0.291012
0.366883
0.711637
0.709439
0.714964
0.305717
0.708435
0.276626
0.712824
0.415179
0.293735
0.573292
0.299341
0.583591
0.711558
0.716454
0.545188
0.290137
0.492405
0.679994
0.559222
0.709862
0.712776
0.70954
0.715408
0.714661
0.575222
0.716083
0.713127
0.26502
0.292722
0.711574
0.712048
0.712236
0.578072
0.702655
0.702537
0.30462
0.712312
0.711877
0.285903
0.715838
0.563104
0.70925
0.712855
0.297836
0.712794
0.289355
0.308382
0.711845
0.712701
0.713603
0.291527
0.445995
0.379893
0.559866
0.274716
0.573989
0.708171
0.28297
0.288323
0.300379
0.711987
0.700721
0.31505
0.39663
0.609492
0.71718
0.700728
0.591357
0.31138
0.709813
0.710476
0.436672
0.712054
0.711459
0.559724
0.283691
0.711548
0.700862
0.712662
0.709436
0.712718
0.370789
0.408674
0.657094
0.573688
0.291956
0.712718
0.70536
0.472222
0.662132
0.260573
0.306003
0.30469
0.704674
0.287166
0.320623
0.311135
0.304603
0.357204
0.683381
0.712878
0.416785
0.304233
0.707178
0.569041
0.314583
0.577156
0.712724
0.713385
0.307712
0.707932
0.394051
0.714789
0.27269
0.564207
0.611333
0.563562
0.711951
0.585342
0.291907
0.410547
0.707373
0.560266
0.700734
0.559712
0.592869
0.713501
0.289636
0.71102
0.712413
0.560756
0.2981
0.28775
0.703406
0.711257
0.551059
0.71346
0.633076
0.715794
0.299127
0.309454
0.372465
0.257292
0.711777
0.71269
0.724637
0.296839
0.712094
0.306048
0.421003
0.713862
0.304166
0.711711
0.71244
0.559948
0.713113
0.288597
0.559896
0.714999
0.56078
0.70967
0.299152
0.300785
0.285684
0.677583
0.305402
0.300086
0.353059
0.325558
0.712715
0.274005
0.712372
0.711664
0.311186
0.316659
0.306224
0.40806
0.308425
0.709456
0.692442
0.711879
0.304689
0.7027
0.609527
0.3061
0.274043
0.701443
0.711025
0.708384
0.311215
0.701345
0.416783
0.71721
0.713202
0.71173
0.713122
0.285383
0.707605
0.261925
0.708399
0.712559
0.704062
0.310812
0.349781
0.712516
0.303199
0.714017
0.712257
0.351708
0.716069
0.712899
0.305515
0.712268
0.713022
0.234949
0.711484
0.418907
0.595622
0.714639
0.430952
0.716009
0.297987
0.713177
0.358423
0.637593
0.711322
0.712562
0.306161
0.342115
0.711915
0.303385
0.712708
0.710861
0.392531
0.559555
0.308943
0.299439
0.712758
0.58257
0.716757
0.299812
0.287772
0.71096
0.711692
0.294228
0.712126
0.288098
0.274959
0.709219
0.714093
0.537551
0.331948
0.709974
0.55842
0.705329
0.711752
0.712861
0.581811
0.325823
0.259275
0.315963
0.704922
0.315728
0.607975
0.354156
0.279951
0.337438
0.548684
0.128516
0.304294
0.71235
0.277132
0.712719
0.640608
0.702263
0.703226
0.711333
0.300685
0.302424
0.376017
0.336935
0.713431
0.64953
0.701719
0.641305
0.714186
0.675751
0.711847
0.70344
0.694267
0.7129
0.713749
0.705226
0.375998
0.472407
0.63795
0.296695
0.690573
0.636583
0.284608
0.707911
0.560155
0.286419
0.309858
0.310436
0.311601
0.664698
0.286149
0.283963
0.705149
0.301587
0.613773
0.317399
0.707608
0.719733
0.310778
0.291275
0.713071
0.403371
0.322965
0.312301
0.321836
0.298821
0.304025
0.31144
0.303514
0.422407
0.304006
0.705958
0.31383
0.712237
0.355296
0.277155
0.534351
0.261602
0.313618
0.263545
0.710213
0.389642
0.676926
0.541703
0.30125
0.665565
0.712551
0.427629
0.71602
0.681133
0.682788
0.307145
0.563085
0.368484
0.712937
0.55956
0.293755
0.278235
0.710577
0.339546
0.429156
0.712524
0.36116
0.715495
0.712972
0.317263
0.287768
0.27573
0.558185
0.274114
0.253228
0.276556
0.260832
0.7119
0.711903
0.411919
0.639457
0.504742
0.711672
0.348383
0.293445
0.599474
0.294808
0.714687
0.329197
0.351192
0.539453
0.70656
0.712678
0.589985
0.349954
0.281298
0.588048
0.713357
0.590863
0.58484
0.714726
0.712139
0.305244
0.720681
0.607576
0.706238
0.332632
0.308469
0.71616
0.712807
0.701469
0.712904
0.713013
0.711709
0.713001
0.704096
0.702171
0.313447
0.709372
0.360998
0.265556
0.322455
0.711883
0.704691
0.320898
0.712112
0.655091
0.312132
0.636851
0.71091
0.713441
0.306753
0.294789
0.711832
0.327175
0.331773
0.25924
0.30621
0.716361
0.242375
0.711529
0.312731
0.710412
0.711942
0.706927
0.711869
0.326781
0.318219
0.703752
0.715317
0.720566
0.711853
0.712389
0.517154
0.306679
0.297601
0.701044
0.591708
0.31208
0.40559
0.279119
0.71286
0.709576
0.331354
0.298791
0.712282
0.438579
0.7126
0.691745
0.298454
0.392982
0.720845
0.560533
0.29117
0.712576
0.712618
0.70415
0.300757
0.560114
0.302478
0.563663
0.704843
0.333649
0.354841
0.300458
0.562169
0.301061
0.293654
0.369968
0.672307
0.714296
0.294318
0.304739
0.309825
0.657572
0.303129
0.700774
0.267517
0.625597
0.712789
0.357584
0.288492
0.286102
0.520775
0.299061
0.712171
0.310418
0.290054
0.704513
0.276948
0.70481
0.714152
0.564262
0.320819
0.71441
0.712852
0.712641
0.701408
0.713624
0.70903
0.269382
0.572682
0.421458
0.705522
0.299843
0.713346
0.577182
0.289383
0.558613
0.712319
0.298548
0.700193
0.275486
0.280399
0.704826
0.710241
0.278212
0.266068
0.295529
0.267913
0.71328
0.712717
0.300641
0.315913
0.712777
0.709969
0.628135
0.712763
0.709088
0.298637
0.712629
0.384567
0.712016
0.372706
0.645218
0.490956
0.707134
0.716908
0.608701
0.344551
0.304448
0.710967
0.636957
0.621313
0.712757
0.255377
0.716147
0.7123
0.384239
0.46865
0.712724
0.350784
0.55546
0.708237
0.346651
0.710366
0.702572
0.304367
0.714438
0.284903
0.712777
0.305713
0.704473
0.715264
0.303548
0.681724
0.712764
0.712198
0.657524
0.720838
0.610141
0.325318
0.412528
0.280668
0.295298
0.55921
0.580296
0.708749
0.712089
0.31564
0.318731
0.716983
0.712898
0.713036
0.712663
0.306336
0.713754
0.712402
0.311346
0.268856
0.711792
0.703297
0.712402
0.264988
0.61611
0.311537
0.714563
0.713762
0.570663
0.709221
0.309268
0.721018
0.712315
0.713016
0.710664
0.700645
0.418643
0.712946
0.306343
0.714575
0.712667
0.44058
0.712541
0.602707
0.711823
0.418416
0.388804
0.613544
0.694365
0.329094
0.333402
0.305192
0.304433
0.714659
0.717049
0.604772
0.328137
0.302336
0.7082
0.715977
0.234785
0.322647
0.442754
0.721504
0.710141
0.711811
0.713689
0.306827
0.330482
0.559478
0.276235
0.320516
0.309242
0.700519
0.31107
0.323741
0.631343
0.704712
0.711889
0.701719
0.708396
0.292223
0.275488
0.306491
0.553918
0.404772
0.273583
0.716064
0.713846
0.713351
0.70151
0.267623
0.325519
0.712893
0.325407
0.700544
0.715084
0.562657
0.278188
0.323489
0.713111
0.558839
0.660295
0.2358
0.712095
0.703473
0.629126
0.712083
0.712872
0.559659
0.714703
0.307873
0.708381
0.553177
0.707715
0.714394
0.559325
0.712294
0.562593
0.709178
0.289492
0.288421
0.326616
0.55965
0.577586
0.325685
0.717482
0.712777
0.283957
0.702732
0.311985
0.711129
0.530016
0.290024
0.712672
0.71286
0.313296
0.573057
0.55959
0.297036
0.712373
0.29276
0.263114
0.672902
0.648895
0.533837
0.701695
0.305247
0.712834
0.288415
0.271279
0.704599
0.310703
0.657499
0.278825
0.704894
0.645877
0.560918
0.712567
0.267102
0.289283
0.710478
0.474486
0.713379
0.451089
0.64988
0.707259
0.712941
0.486378
0.648128
0.711874
0.712584
0.707809
0.363429
0.335128
0.568834
0.711725
0.712706
0.360355
0.701416
0.663538
0.37477
0.278006
0.705627
0.720743
0.560231
0.561403
0.712388
0.715457
0.69214
0.719079
0.276634
0.698795
0.425323
0.711064
0.703519
0.322785
0.713181
0.711801
0.292648
0.281186
0.305323
0.559548
0.29798
0.670296
0.713327
0.698872
0.324136
0.712228
0.287762
0.616603
0.656309
0.57231
0.715647
0.640889
0.660877
0.718376
0.595793
0.705527
0.306192
0.700864
0.706062
0.455876
0.562778
0.715556
0.287024
0.263199
0.298554
0.711752
0.332638
0.560797
0.307402
0.713484
0.277878
0.49538
0.272947
0.713032
0.712376
0.629344
0.306191
0.663021
0.694315
0.30913
0.628466
0.711953
0.272764
0.637486
0.560771
0.71272
0.700737
0.292931
0.516356
0.712709
0.702459
0.714327
0.325823
0.383951
0.712433
0.559828
0.560326
0.559812
0.6282
0.715674
0.623861
0.710503
0.325155
0.289653
0.560039
0.71202
0.683809
0.296708
0.700934
0.641627
0.672113
0.302375
0.41315
0.712045
0.712546
0.600878
0.333786
0.701773
0.563146
0.292715
0.651554
0.713737
0.292899
0.277392
0.265623
0.710335
0.302359
0.314197
0.712067
0.455232
0.712603
0.706855
0.290722
0.305964
0.711943
0.291553
0.286941
0.559243
0.295002
0.351569
0.640783
0.713732
0.715434
0.302822
0.314085
0.298419
0.714242
0.272196
0.714956
0.282011
0.717033
0.712012
0.711292
0.714639
0.723676
0.713917
0.710055
0.711835
0.713438
0.249089
0.3056
0.719338
0.699279
0.539957
0.711297
0.607179
0.685953
0.704027
0.310088
0.709009
0.712222
0.706616
0.29792
0.722476
0.308998
0.706091
0.520221
0.713536
0.701421
0.291756
0.713516
0.309569
0.433878
0.714567
0.308408
0.71601
0.559699
0.713384
0.310656
0.705377
0.304761
0.277724
0.280132
0.311612
0.700754
0.273587
0.717907
0.621284
0.336636
0.284276
0.505271
0.612214
0.685322
0.716394
0.319854
0.300083
0.294524
0.272919
0.298888
0.687588
0.712251
0.308108
0.648176
0.713382
0.266685
0.712253
0.715661
0.638434
0.301745
0.561386
0.721806
0.712675
0.711502
0.275853
0.715089
0.712375
0.722012
0.704485
0.699771
0.304418
0.281099
0.702258
0.564566
0.327754
0.704419
0.280811
0.597091
0.691526
0.712958
0.712628
0.275874
0.711156
0.370258
0.298602
0.715483
0.712349
0.712191
0.711001
0.717132
0.278163
0.71216
0.27124
0.537813
0.71179
0.560334
0.712855
0.29878
0.303809
0.71256
0.31316
0.711809
0.685925
0.386791
0.322776
0.709725
0.278838
0.701058
0.711876
0.721417
0.279233
0.289135
0.571596
0.591947
0.678574
0.437882
0.703442
0.716328
0.712199
0.559232
0.715931
0.287032
0.319117
0.711837
0.699868
0.711522
0.444481
0.293516
0.721738
0.272392
0.709378
0.652494
0.320706
0.71375
0.301832
0.71307
0.305247
0.712029
0.284697
0.708312
0.700745
0.281954
0.712696
0.694231
0.280941
0.586077
0.701561
0.60836
0.258718
0.356157
0.437042
0.712814
0.713648
0.320072
0.612651
0.714628
0.705263
0.325263
0.681787
0.713118
0.433686
0.701708
0.708134
0.314706
0.712971
0.560386
0.30511
0.656925
0.312164
0.714735
0.30741
0.267703
0.7129
0.313617
0.31032
0.267308
0.706793
0.714075
0.382202
0.701944
0.354084
0.726876
0.305713
0.713532
0.356019
0.707458
0.70312
0.721306
0.577991
0.575409
0.700561
0.643837
0.307075
0.67735
0.719378
0.582452
0.716789
0.519009
0.399432
0.71214
0.312624
0.613319
0.312806
0.70168
0.251747
0.283148
0.713116
0.709698
0.317646
0.710536
0.713956
0.559382
0.712612
0.563017
0.308498
0.712686
0.319267
0.288398
0.712543
0.713497
0.713475
0.712133
0.272892
0.306632
0.297224
0.710585
0.618918
0.354378
0.714091
0.295352
0.308339
0.302883
0.712498
0.37164
0.712308
0.713214
0.67519
0.71041
0.713927
0.635393
0.722332
0.426861
0.279633
0.318115
0.562607
0.561295
0.294866
0.688091
0.70913
0.722627
0.292496
0.422969
0.716378
0.298797
0.716256
0.692675
0.319858
0.694696
0.715011
0.329285
0.715387
0.286357
0.708494
0.712568
0.723028
0.271064
0.46049
0.716067
0.320522
0.424258
0.710844
0.328125
0.699174
0.707766
0.711672
0.713932
0.331272
0.560872
0.715557
0.70241
0.37748
0.711494
0.291209
0.252734
0.712799
0.71023
0.621442
0.244655
0.702719
0.674969
0.560139
0.298987
0.285335
0.325089
0.710542
0.293899
0.278298
0.303524
0.690817
0.283409
0.322701
0.430865
0.714799
0.323137
0.575204
0.688037
0.710458
0.310649
0.710666
0.701196
0.646618
0.415549
0.702641
0.292532
0.311976
0.705263
0.317394
0.692518
0.714874
0.560365
0.321996
0.351438
0.299459
0.585782
0.559544
0.254445
0.708675
0.70619
0.713645
0.306434
0.270475
0.361306
0.713619
0.316035
0.559369
0.64333
0.696561
0.712581
0.299391
0.699271
0.270603
0.694605
0.687883
0.712873
0.680045
0.587524
0.705928
0.712841
0.711791
0.311561
0.353984
0.303031
0.713578
0.595426
0.56029
0.321831
0.374557
0.713042
0.711093
0.558446
0.31804
0.710678
0.583668
0.589059
0.714018
0.298046
0.31804
0.316888
0.710335
0.635632
0.702459
0.711546
0.358337
0.713578
0.698785
0.62697
0.610405
0.713138
0.712318
0.702739
0.713517
0.712329
0.294363
0.709722
0.711154
0.70016
0.711051
0.710362
0.676027
0.315069
0.280988
0.706675
0.324377
0.332703
0.710966
0.282103
0.676191
0.707736
0.712437
0.706392
0.290154
0.711104
0.280622
0.289644
0.703732
0.717097
0.701672
0.310531
0.712108
0.701843
0.70863
0.708347
0.295158
0.700172
0.712619
0.722354
0.37119
0.713042
0.300631
0.711578
0.306695
0.316906
0.633331
0.41521
0.712673
0.712912
0.700792
0.302026
0.699973
0.385113
0.278968
0.712679
0.508487
0.319221
0.701282
0.284697
0.548098
0.713436
0.715857
0.712886
0.513746
0.627287
0.705804
0.70101
0.674929
0.712144
0.56605
0.713559
0.71122
0.699139
0.26639
0.296868
0.41241
0.710968
0.287823
0.707698
0.71086
0.65635
0.700993
0.616339
0.716054
0.718854
0.300846
0.710309
0.710823
0.597232
0.711538
0.71241
0.712334
0.699391
0.306948
0.287509
0.71011
0.599019
0.630777
0.709822
0.705702
0.701894
0.712826
0.712588
0.676199
0.715955
0.712802
0.274215
0.315674
0.241976
0.314412
0.560498
0.418679
0.621204
0.714008
0.717239
0.290781
0.706328
0.711874
0.310675
0.355582
0.56092
0.709872
0.299637
0.264204
0.260837
0.559213
0.71174
0.374522
0.28742
0.319128
0.281299
0.344937
0.329406
0.714706
0.703038
0.71843
0.309843
0.712467
0.673593
0.647496
0.329752
0.307994
0.712544
0.56114
0.319847
0.707361
0.328369
0.712904
0.294285
0.710652
0.314036
0.713264
0.711964
0.309935
0.591368
0.316174
0.712536
0.290855
0.678514
0.279787
0.580804
0.293646
0.674566
0.309547
0.562072
0.563244
0.646651
0.722976
0.332449
0.713697
0.692669
0.712141
0.670447
0.725687
0.30962
0.418933
0.298688
0.713073
0.318312
0.711848
0.583867
0.713536
0.712667
0.519534
0.712823
0.280064
0.288586
0.275757
0.576268
0.639506
0.704442
0.305776
0.29545
0.704558
0.390849
0.277898
0.660492
0.35724
0.321923
0.280225
0.713583
0.692949
0.681491
0.290086
0.714065
0.710538
0.273163
0.35519
0.7123
0.707701
0.693625
0.550416
0.408837
0.378231
0.305643
0.713171
0.704353
0.592108
0.715678
0.266271
0.629033
0.30058
0.557246
0.711592
0.312874
0.30866
0.707137
0.656391
0.711659
0.71226
0.712569
0.711358
0.711938
0.305169
0.297735
0.303659
0.300122
0.637529
0.559922
0.694298
0.303813
0.319883
0.448926
0.27615
0.701977
0.716154
0.310161
0.330872
0.707589
0.292943
0.706156
0.712764
0.714117
0.699469
0.643924
0.331561
0.312205
0.71515
0.314264
0.421643
0.37853
0.693791
0.710222
0.325799
0.31997
0.559264
0.309512
0.708482
0.713066
0.325332
0.293748
0.277699
0.706807
0.287851
0.559655
0.714148
0.660678
0.271494
0.562516
0.711855
0.712295
0.293138
0.712341
0.709752
0.277362
0.711979
0.713421
0.298394
0.318526
0.713083
0.306565
0.300391
0.713152
0.367685
0.70247
0.716083
0.712789
0.716453
0.712033
0.707582
0.699814
0.295921
0.411305
0.711715
0.718056
0.453599
0.712488
0.338756
0.70897
0.712761
0.620026
0.70048
0.418366
0.41793
0.705818
0.712333
0.71098
0.712033
0.703909
0.55993
0.712749
0.559215
0.713654
0.712692
0.712825
0.561572
0.70049
0.277793
0.712071
0.306273
0.70953
0.709422
0.713252
0.714226
0.714157
0.292722
0.302342
0.321716
0.294574
0.714344
0.313589
0.301541
0.717123
0.265362
0.713684
0.305247
0.713693
0.714678
0.313745
0.391331
0.323918
0.71066
0.297242
0.703315
0.713572
0.299017
0.712617
0.594703
0.340836
0.305516
0.275842
0.715938
0.321081
0.710427
0.611639
0.321285
0.707468
0.70132
0.71267
0.328143
0.634285
0.277248
0.711807
0.703859
0.708402
0.329657
0.719002
0.709742
0.711866
0.383359
0.710631
0.331576
0.305251
0.711804
0.417268
0.712681
0.406543
0.326623
0.433262
0.712294
0.302429
0.277698
0.304782
0.537631
0.560593
0.714089
0.241598
0.668309
0.704117
0.583997
0.448568
0.317758
0.59629
0.334274
0.303545
0.703747
0.306171
0.321597
0.71185
0.711957
0.309802
0.713612
0.304126
0.560278
0.308299
0.712634
0.561574
0.7138
0.686033
0.291731
0.30252
0.279264
0.705886
0.712963
0.624122
0.593627
0.384944
0.333117
0.700588
0.296877
0.702221
0.388941
0.566428
0.715836
0.312385
0.304342
0.307439
0.31914
0.304626
0.708258
0.714354
0.314136
0.711063
0.693537
0.325599
0.273741
0.711928
0.3163
0.714493
0.422347
0.713834
0.704282
0.709833
0.561407
0.28384
0.7126
0.709651
0.713528
0.314659
0.714326
0.635949
0.329383
0.710895
0.723318
0.714578
0.713932
0.712038
0.711914
0.712915
0.700705
0.701801
0.315138
0.712958
0.308025
0.459833
0.711016
0.279096
0.712965
0.713777
0.291415
0.712043
0.315399
0.276473
0.712312
0.71313
0.711921
0.303464
0.71408
0.663058
0.308349
0.311612
0.712803
0.710021
0.358373
0.301427
0.713403
0.711893
0.328716
0.697823
0.711742
0.693589
0.308731
0.330769
0.275601
0.704216
0.286586
0.711676
0.713615
0.700537
0.678678
0.714298
0.30416
0.712531
0.657875
0.711961
0.680385
0.28339
0.294589
0.264452
0.712756
0.7132
0.418401
0.702848
0.314976
0.722969
0.709233
0.255138
0.710055
0.710535
0.679582
0.310445
0.300352
0.315416
0.711918
0.712645
0.660514
0.550419
0.712691
0.319047
0.685366
0.560036
0.720162
0.309739
0.666669
0.295208
0.713866
0.271123
0.704541
0.712289
0.290441
0.711985
0.466524
0.560787
0.705079
0.559337
0.711573
0.407618
0.700529
0.701288
0.70989
0.70445
0.490087
0.559906
0.26267
0.701585
0.259939
0.317074
0.276182
0.304087
0.332356
0.311913
0.711801
0.382405
0.278208
0.714354
0.711917
0.714179
0.37786
0.715093
0.71577
0.698852
0.287627
0.681591
0.707629
0.310422
0.302659
0.302204
0.683496
0.544478
0.323786
0.683712
0.268621
0.562797
0.53766
0.289777
0.477459
0.699942
0.317778
0.709495
0.267501
0.5704
0.350357
0.712773
0.364431
0.715972
0.560004
0.708507
0.447109
0.309058
0.713481
0.71201
0.302045
0.277953
0.707206
0.31972
0.713186
0.309151
0.592572
0.259848
0.707434
0.299135
0.711835
0.317261
0.709474
0.713619
0.712114
0.561999
0.267133
0.284406
0.374898
0.71209
0.717907
0.712369
0.644222
0.293444
0.713047
0.318458
0.713023
0.710047
0.400163
0.321957
0.712699
0.705012
0.278384
0.559858
0.713734
0.712462
0.712887
0.267811
0.687222
0.310624
0.712265
0.291622
0.65471
0.712692
0.713675
0.711945
0.324222
0.712582
0.312566
0.300402
0.707864
0.562091
0.605852
0.706921
0.560078
0.315486
0.713469
0.712546
0.713103
0.277803
0.392085
0.716019
0.312782
0.709336
0.711223
0.712861
0.712574
0.306858
0.442467
0.695948
0.288161
0.712605
0.711893
0.488741
0.712465
0.317737
0.715756
0.713267
0.715529
0.712397
0.299001
0.2852
0.706601
0.713177
0.288472
0.337752
0.296974
0.289658
0.277243
0.279586
0.309072
0.326072
0.708367
0.262287
0.309807
0.713533
0.606466
0.559277
0.368553
0.321177
0.705754
0.436495
0.55229
0.712398
0.359632
0.701344
0.57846
0.650543
0.712696
0.299222
0.713785
0.668594
0.295877
0.304421
0.402728
0.713504
0.651208
0.712236
0.70582
0.719719
0.710202
0.354052
0.712633
0.686816
0.713148
0.315275
0.707833
0.699105
0.350283
0.387889
0.278341
0.273819
0.271613
0.642975
0.714143
0.722538
0.304294
0.395658
0.71187
0.282568
0.713596
0.701516
0.712763
0.715425
0.710271
0.308392
0.275459
0.26564
0.635799
0.285098
0.702786
0.263447
0.705802
0.70579
0.709631
0.31282
0.435874
0.401486
0.714045
0.301194
0.301105
0.71117
0.713133
0.705866
0.70624
0.71262
0.713218
0.334319
0.666313
0.712041
0.559424
0.714374
0.712997
0.712958
0.439398
0.418627
0.713166
0.532662
0.684177
0.309462
0.715437
0.712494
0.372388
0.287675
0.711326
0.568581
0.712202
0.713658
0.322973
0.314217
0.561162
0.439812
0.384565
0.711849
0.712588
0.299079
0.712395
0.562899
0.714328
0.334791
0.64313
0.332844
0.711628
0.711624
0.713206
0.722811
0.564006
0.326006
0.35117
0.722309
0.309892
0.648257
0.315898
0.711227
0.258707
0.705022
0.712056
0.563815
0.329949
0.559463
0.560652
0.299862
0.714793
0.276148
0.713618
0.323725
0.312873
0.254918
0.721507
0.712305