# vtk DataFile Version 1.0
unstructured grid
ascii
DATASET UNSTRUCTURED_GRID
points 13672 float
0.0796578 -0.059106 0
0.00128732 0.00159165 0
0.00227961 -0.00102548 0
0.0791586 -0.0598787 0
-0.0546216 0.01 0
0.000495206 0.025 0
0.0800549 -0.035 0
0.135172 -0.08 0
-0.0546216 -0.0451168 0
0.000495206 -0.0301168 0
0.0800549 -0.0901168 0
0.135172 -0.135117 0
-0.0546216 -0.0451168 -0.00551168
0.000495206 -0.0301168 -0.00551168
0.0800549 -0.0901168 -0.00551168
0.135172 -0.135117 -0.00551168
0.135172 -0.08 -0.00551168
0.0800549 -0.035 -0.00551168
0.000495206 0.025 -0.00551168
-0.0546216 0.01 -0.00551168
0.00128732 0.00159165 -0.00551168
0.00227961 -0.00102548 -0.00551168
0.0791586 -0.0598787 -0.00551168
0.0796578 -0.059106 -0.00551168
0.00165953 -0.000990923 0
0.00119576 -0.000874076 0
0.000866021 -0.000641801 0
0.000645147 -0.000349912 0
0.00052235 -1.7281e-05 0
0.00049972 0.000348016 0
0.000601632 0.000737716 0
0.000861774 0.0011403 0
0.00157235 0.00183217 0
0.00188647 0.00206725 0
0.00222612 0.00230203 0
0.00258713 0.00254351 0
0.00296826 0.00279524 0
0.00337118 0.00305664 0
0.00379785 0.00332658 0
0.00425045 0.00360349 0
0.00473139 0.00388521 0
0.0052432 0.00416895 0
0.0057881 0.00445204 0
0.00636753 0.00473281 0
0.00698281 0.00500961 0
0.00763526 0.00528058 0
0.00832616 0.00554366 0
0.00905691 0.00579603 0
0.00982918 0.00603333 0
0.0106445 0.00625033 0
0.0115038 0.00644128 0
0.0124073 0.00660297 0
0.0133543 0.00673414 0
0.0143444 0.00683382 0
0.0153769 0.00690031 0
0.0164512 0.00693173 0
0.0175666 0.00692547 0
0.0187219 0.00687822 0
0.0199156 0.00678477 0
0.0211454 0.00663864 0
0.0224084 0.00643275 0
0.0237018 0.00616676 0
0.0250249 0.00584739 0
0.026375 0.00547298 0
0.0277479 0.00503752 0
0.0291386 0.00453545 0
0.0305433 0.0039653 0
0.0319572 0.0033256 0
0.0333681 0.00260019 0
0.034775 0.00179799 0
0.0361793 0.000930615 0
0.0375798 3.12222e-06 0
0.0389689 -0.000988429 0
0.0403357 -0.00205109 0
0.041675 -0.00318283 0
0.0429849 -0.00437751 0
0.0442643 -0.00562904 0
0.0455126 -0.00693089 0
0.0467314 -0.00827518 0
0.0479204 -0.00965638 0
0.0490661 -0.0110799 0
0.0501515 -0.0125519 0
0.0511696 -0.0140695 0
0.0521492 -0.0156071 0
0.0531202 -0.0171411 0
0.0540851 -0.0186663 0
0.0550431 -0.0201798 0
0.0559923 -0.0216793 0
0.0569311 -0.0231626 0
0.0578582 -0.0246273 0
0.0587723 -0.0260715 0
0.0596721 -0.027493 0
0.0605563 -0.02889 0
0.0614241 -0.0302609 0
0.0622742 -0.0316042 0
0.063106 -0.0329183 0
0.0639186 -0.034202 0
0.0647113 -0.0354543 0
0.0654835 -0.0366743 0
0.0662345 -0.0378613 0
0.0669642 -0.0390145 0
0.0676726 -0.0401333 0
0.0683597 -0.0412172 0
0.0690246 -0.0422665 0
0.0696662 -0.0432819 0
0.0702841 -0.0442636 0
0.0708793 -0.0452111 0
0.0714538 -0.0461237 0
0.072009 -0.047001 0
0.0725452 -0.0478434 0
0.0730611 -0.0486524 0
0.073556 -0.0494294 0
0.0740291 -0.0501756 0
0.0744812 -0.0508916 0
0.0749138 -0.0515773 0
0.0753285 -0.0522331 0
0.0757266 -0.0528592 0
0.076109 -0.0534564 0
0.0764753 -0.0540264 0
0.0768243 -0.054571 0
0.0771553 -0.0550919 0
0.0774679 -0.0555901 0
0.0777617 -0.0560669 0
0.0780369 -0.056523 0
0.0782958 -0.0569578 0
0.0785421 -0.0573703 0
0.0787786 -0.0577603 0
0.0790073 -0.0581279 0
0.0792295 -0.058474 0
0.0794462 -0.0587995 0
0.0798803 -0.0594162 0
0.0800272 -0.0596588 0
0.0800357 -0.0598891 0
0.0799275 -0.0600784 0
0.0797205 -0.0601773 0
0.0794593 -0.0601051 0
0.0789155 -0.0596491 0
0.0786707 -0.0593963 0
0.0784111 -0.0591319 0
0.0781372 -0.0588542 0
0.0778566 -0.0585548 0
0.0775715 -0.0582308 0
0.0772803 -0.0578828 0
0.0769832 -0.0575099 0
0.0766822 -0.0571097 0
0.0763801 -0.0566796 0
0.0760759 -0.0562196 0
0.0757623 -0.0557337 0
0.0754359 -0.0552232 0
0.0750951 -0.0546879 0
0.0747379 -0.054128 0
0.0743626 -0.0535435 0
0.0739688 -0.0529338 0
0.0735559 -0.0522981 0
0.0731238 -0.0516357 0
0.0726718 -0.050946 0
0.0721991 -0.0502288 0
0.0717046 -0.049484 0
0.0711872 -0.0487117 0
0.0706461 -0.047912 0
0.0700804 -0.0470849 0
0.0694892 -0.0462308 0
0.0688718 -0.0453499 0
0.0682271 -0.0444431 0
0.0675544 -0.043511 0
0.0668527 -0.0425546 0
0.0661215 -0.0415748 0
0.06536 -0.040573 0
0.0645676 -0.0395504 0
0.0637439 -0.0385087 0
0.0628887 -0.0374493 0
0.062002 -0.0363741 0
0.0610838 -0.0352847 0
0.0601345 -0.0341831 0
0.0591547 -0.033071 0
0.0581456 -0.0319502 0
0.0571083 -0.0308224 0
0.0560444 -0.0296893 0
0.0549562 -0.028552 0
0.053845 -0.0274126 0
0.0527113 -0.0262746 0
0.051554 -0.0251427 0
0.0503724 -0.0240222 0
0.0491675 -0.0229164 0
0.047941 -0.0218282 0
0.0466955 -0.0207597 0
0.0454337 -0.0197126 0
0.0441592 -0.0186878 0
0.0428751 -0.0176863 0
0.0415841 -0.0167097 0
0.0402878 -0.0157609 0
0.0389879 -0.0148428 0
0.0376864 -0.0139575 0
0.0363853 -0.013107 0
0.0350871 -0.0122931 0
0.0337942 -0.0115164 0
0.0325095 -0.0107772 0
0.0312357 -0.0100756 0
0.0299758 -0.00941024 0
0.0287337 -0.00877784 0
0.0275126 -0.00817571 0
0.0263139 -0.00760375 0
0.0251376 -0.00706528 0
0.0239829 -0.0065649 0
0.0228537 -0.00609619 0
0.0217522 -0.00565563 0
0.0206795 -0.00524226 0
0.0196364 -0.00485507 0
0.0186233 -0.00449318 0
0.0176408 -0.00415577 0
0.016689 -0.00384204 0
0.0157682 -0.00355115 0
0.0148783 -0.00328218 0
0.0140192 -0.00303468 0
0.0131906 -0.00280795 0
0.0123925 -0.00260016 0
0.0116246 -0.00241012 0
0.0108864 -0.00223769 0
0.0101774 -0.00208212 0
0.00949701 -0.00194206 0
0.00884483 -0.0018163 0
0.0082202 -0.0017039 0
0.00762247 -0.00160391 0
0.00705097 -0.00151528 0
0.006505 -0.00143697 0
0.0059838 -0.00136806 0
0.00548662 -0.00130772 0
0.00501265 -0.00125519 0
0.00456114 -0.00120954 0
0.00413136 -0.00116914 0
0.00372257 -0.00113251 0
0.00333398 -0.00109853 0
0.00296466 -0.00106798 0
0.00261363 -0.0010431 0
-0.052721 -0.0445996 0
-0.0508204 -0.0440823 0
-0.0489199 -0.0435651 0
-0.0470193 -0.0430478 0
-0.0451187 -0.0425306 0
-0.0432181 -0.0420134 0
-0.0413175 -0.0414961 0
-0.039417 -0.0409789 0
-0.0375164 -0.0404616 0
-0.0356158 -0.0399444 0
-0.0337152 -0.0394271 0
-0.0318146 -0.0389099 0
-0.0299141 -0.0383927 0
-0.0280135 -0.0378754 0
-0.0261129 -0.0373582 0
-0.0242123 -0.0368409 0
-0.0223117 -0.0363237 0
-0.0204112 -0.0358065 0
-0.0185106 -0.0352892 0
-0.01661 -0.034772 0
-0.0147094 -0.0342547 0
-0.0128088 -0.0337375 0
-0.0109083 -0.0332202 0
-0.00900769 -0.032703 0
-0.00710711 -0.0321858 0
-0.00520653 -0.0316685 0
-0.00330595 -0.0311513 0
-0.00140537 -0.030634 0
0.00190689 -0.0299614 0
0.00332271 -0.0298498 0
0.00474133 -0.0297825 0
0.00616136 -0.0297597 0
0.0075814 -0.0297814 0
0.00900007 -0.0298477 0
0.010416 -0.0299583 0
0.0118278 -0.0301127 0
0.0132342 -0.0303103 0
0.0146339 -0.0305504 0
0.0160259 -0.0308322 0
0.0174091 -0.0311546 0
0.0187824 -0.0315166 0
0.020145 -0.031917 0
0.0214961 -0.0323546 0
0.0228351 -0.032828 0
0.0241613 -0.0333361 0
0.0254744 -0.0338774 0
0.0267738 -0.0344507 0
0.0280592 -0.0350545 0
0.0293306 -0.0356877 0
0.0305875 -0.0363488 0
0.0318301 -0.0370367 0
0.0330581 -0.0377501 0
0.0342717 -0.0384879 0
0.0354708 -0.0392489 0
0.0366556 -0.0400321 0
0.0378262 -0.0408363 0
0.0389828 -0.0416607 0
0.0401254 -0.0425042 0
0.0412543 -0.0433659 0
0.0423698 -0.0442451 0
0.043472 -0.0451408 0
0.0445612 -0.0460523 0
0.0456375 -0.0469789 0
0.0467013 -0.0479199 0
0.0477529 -0.0488746 0
0.0487923 -0.0498424 0
0.04982 -0.0508227 0
0.0508362 -0.051815 0
0.051841 -0.0528187 0
0.0528348 -0.0538333 0
0.0538178 -0.0548584 0
0.0547903 -0.0558935 0
0.0557524 -0.0569382 0
0.0567045 -0.0579922 0
0.0576467 -0.0590549 0
0.0585792 -0.0601261 0
0.0595024 -0.0612055 0
0.0604163 -0.0622926 0
0.0613212 -0.0633873 0
0.0622174 -0.0644891 0
0.0631049 -0.0655979 0
0.0639841 -0.0667134 0
0.064855 -0.0678353 0
0.0657179 -0.0689633 0
0.0665729 -0.0700974 0
0.0674202 -0.0712372 0
0.06826 -0.0723826 0
0.0690925 -0.0735333 0
0.0699178 -0.0746892 0
0.070736 -0.0758501 0
0.0715473 -0.0770159 0
0.0723518 -0.0781863 0
0.0731498 -0.0793612 0
0.0739412 -0.0805405 0
0.0747264 -0.081724 0
0.0755053 -0.0829116 0
0.0762781 -0.0841033 0
0.0770449 -0.0852987 0
0.0778059 -0.0864979 0
0.0785611 -0.0877007 0
0.0793108 -0.088907 0
0.0814681 -0.0912706 0
0.0828814 -0.0924245 0
0.0842946 -0.0935783 0
0.0857079 -0.0947322 0
0.0871211 -0.095886 0
0.0885344 -0.0970399 0
0.0899476 -0.0981937 0
0.0913609 -0.0993476 0
0.0927741 -0.100501 0
0.0941874 -0.101655 0
0.0956006 -0.102809 0
0.0970139 -0.103963 0
0.0984272 -0.105117 0
0.0998404 -0.106271 0
0.101254 -0.107424 0
0.102667 -0.108578 0
0.10408 -0.109732 0
0.105493 -0.110886 0
0.106907 -0.11204 0
0.10832 -0.113194 0
0.109733 -0.114348 0
0.111146 -0.115501 0
0.11256 -0.116655 0
0.113973 -0.117809 0
0.115386 -0.118963 0
0.116799 -0.120117 0
0.118213 -0.121271 0
0.119626 -0.122424 0
0.121039 -0.123578 0
0.122452 -0.124732 0
0.123866 -0.125886 0
0.125279 -0.12704 0
0.126692 -0.128194 0
0.128105 -0.129348 0
0.129519 -0.130501 0
0.130932 -0.131655 0
0.132345 -0.132809 0
0.133758 -0.133963 0
0.135172 -0.133216 0
0.135172 -0.131316 0
0.135172 -0.129415 0
0.135172 -0.127514 0
0.135172 -0.125614 0
0.135172 -0.123713 0
0.135172 -0.121813 0
0.135172 -0.119912 0
0.135172 -0.118012 0
0.135172 -0.116111 0
0.135172 -0.11421 0
0.135172 -0.11231 0
0.135172 -0.110409 0
0.135172 -0.108509 0
0.135172 -0.106608 0
0.135172 -0.104708 0
0.135172 -0.102807 0
0.135172 -0.100906 0
0.135172 -0.0990058 0
0.135172 -0.0971052 0
0.135172 -0.0952046 0
0.135172 -0.0933041 0
0.135172 -0.0914035 0
0.135172 -0.0895029 0
0.135172 -0.0876023 0
0.135172 -0.0857017 0
0.135172 -0.0838012 0
0.135172 -0.0819006 0
0.133758 -0.0788462 0
0.132345 -0.0776923 0
0.130932 -0.0765385 0
0.129519 -0.0753846 0
0.128105 -0.0742308 0
0.126692 -0.0730769 0
0.125279 -0.0719231 0
0.123866 -0.0707692 0
0.122452 -0.0696154 0
0.121039 -0.0684615 0
0.119626 -0.0673077 0
0.118213 -0.0661538 0
0.116799 -0.065 0
0.115386 -0.0638462 0
0.113973 -0.0626923 0
0.11256 -0.0615385 0
0.111146 -0.0603846 0
0.109733 -0.0592308 0
0.10832 -0.0580769 0
0.106907 -0.0569231 0
0.105493 -0.0557692 0
0.10408 -0.0546154 0
0.102667 -0.0534615 0
0.101254 -0.0523077 0
0.0998404 -0.0511538 0
0.0984272 -0.05 0
0.0970139 -0.0488462 0
0.0956006 -0.0476923 0
[...]
CELL_DATA 13116
SCALARS rho float
LOOKUP_TABLE default
0.564599
0.691332
0.333419
0.712631
0.718297
0.696245
0.266345
0.712613
0.507282
0.71554
0.305697
0.306498
0.718544
0.300336
0.283853
0.697608
0.564211
0.696833
0.711454
0.29997
0.557552
0.321926
0.301618
0.702113
0.590702
0.725791
0.715123
0.384114
0.56635
0.63447
0.564296
0.298939
0.532118
0.42477
0.282618
0.56184
0.666298
0.712751
0.588202
0.714725
0.709935
0.712959
0.424113
0.340314
0.712618
0.711658
0.695149
0.711072
0.299791
0.49339
0.714876
0.430881
0.27247
0.555454
0.532207
0.568109
0.344533
0.703189
0.504455
0.283142
0.301104
0.716453
0.695961
0.576071
0.561363
0.316766
0.70628
0.6679
0.711371
0.561246
0.290057
0.553891
0.331953
0.339405
0.561729
0.328775
0.669995
0.717349
0.290173
0.693369
0.682213
0.720232
0.705909
0.713273
0.71258
0.392515
0.308624
0.657452
0.714869
0.334002
0.298936
0.692498
0.707071
0.721402
0.645703
0.590971
0.59279
0.56155
0.562205
0.570952
0.662999
0.653255
0.710091
0.396879
0.692661
0.294784
0.336224
0.472354
0.350431
0.578651
0.50201
0.710102
0.587158
0.684096
0.693972
0.705351
0.306739
0.367017
0.716618
0.709039
0.666517
0.337129
0.711652
0.299133
0.727314
0.411337
0.307812
0.474502
0.351012
0.493341
0.716613
0.707574
0.456766
0.308167
0.43406
0.607304
0.559978
0.714896
0.661019
0.708959
0.654321
0.697212
0.475243
0.657074
0.684973
0.298761
0.288488
0.717671
0.715867
0.710175
0.503846
0.712732
0.71077
0.326209
0.716455
0.713626
0.299433
0.669333
0.562311
0.656085
0.702564
0.300532
0.707628
0.328397
0.342844
0.717996
0.725074
0.696409
0.276918
0.414967
0.383202
0.559752
0.276183
0.461325
0.70318
0.298861
0.313552
0.328636
0.708183
0.702695
0.315934
0.399487
0.527073
0.664738
0.70725
0.504806
0.339547
0.70653
0.694347
0.429772
0.65507
0.715894
0.560743
0.301336
0.70854
0.701165
0.712407
0.709729
0.714787
0.37017
0.397629
0.586101
0.469548
0.320587
0.71281
0.713377
0.438514
0.60105
0.281225
0.325389
0.329355
0.70711
0.298812
0.301503
0.331687
0.326668
0.356484
0.592341
0.727657
0.374234
0.346692
0.705911
0.496802
0.316698
0.506639
0.71664
0.682777
0.390491
0.703053
0.351688
0.71844
0.29895
0.565761
0.540758
0.561283
0.718999
0.557905
0.292127
0.406838
0.652952
0.563261
0.702234
0.560097
0.555748
0.714486
0.312987
0.715461
0.717574
0.56218
0.309624
0.301411
0.712791
0.716079
0.565797
0.716024
0.558827
0.682325
0.306664
0.310525
0.368431
0.283274
0.686057
0.712414
0.669345
0.294986
0.715759
0.322635
0.386754
0.69444
0.322107
0.721503
0.714575
0.561766
0.703002
0.294551
0.561364
0.688977
0.562017
0.71456
0.301381
0.311075
0.299376
0.604059
0.337938
0.316064
0.321053
0.301924
0.70838
0.27009
0.714323
0.718771
0.317332
0.304287
0.321351
0.415159
0.359802
0.656561
0.634757
0.703288
0.323163
0.709831
0.539224
0.31369
0.285628
0.640465
0.715737
0.708879
0.340828
0.70427
0.406181
0.708011
0.712742
0.710137
0.712518
0.30232
0.702798
0.274335
0.697817
0.714506
0.647425
0.314051
0.317974
0.717989
0.320469
0.706041
0.716673
0.352845
0.681118
0.705643
0.319957
0.715483
0.70743
0.288059
0.71652
0.376893
0.525095
0.728182
0.391307
0.67153
0.299616
0.700494
0.306739
0.55622
0.665233
0.712099
0.395767
0.343319
0.713205
0.324591
0.714599
0.697614
0.393876
0.560791
0.334686
0.330018
0.716174
0.512284
0.668615
0.310906
0.310832
0.715209
0.718799
0.293807
0.717645
0.304394
0.294619
0.707341
0.72458
0.478555
0.331575
0.714558
0.565819
0.697311
0.715833
0.708215
0.50651
0.359196
0.281319
0.313702
0.694474
0.313962
0.527426
0.353336
0.299778
0.337824
0.487079
0.104594
0.324882
0.713062
0.313212
0.709339
0.569336
0.710944
0.646981
0.715919
0.33115
0.311484
0.373708
0.34704
0.714191
0.58349
0.710391
0.569075
0.685473
0.616272
0.718544
0.640648
0.632907
0.708028
0.692062
0.68307
0.371583
0.443898
0.561332
0.322537
0.631391
0.567785
0.280035
0.704182
0.562859
0.302889
0.302095
0.324106
0.336777
0.592218
0.28739
0.301179
0.705406
0.323127
0.543122
0.328884
0.696682
0.68879
0.369865
0.311284
0.715778
0.413562
0.329592
0.332579
0.319568
0.353204
0.313119
0.302492
0.328156
0.391374
0.321398
0.65185
0.353912
0.713155
0.360848
0.299513
0.451032
0.297562
0.334909
0.298518
0.718389
0.397159
0.609421
0.483877
0.321054
0.605176
0.714126
0.389161
0.680538
0.621845
0.623534
0.316895
0.562037
0.368859
0.707403
0.563445
0.330164
0.26357
0.692214
0.348845
0.389952
0.668946
0.336994
0.667873
0.688952
0.308969
0.313199
0.252196
0.456304
0.28265
0.283972
0.277505
0.274963
0.714912
0.714353
0.420738
0.574045
0.436853
0.706365
0.344982
0.317152
0.513076
0.33386
0.713934
0.288625
0.352236
0.452198
0.713253
0.724835
0.519068
0.352606
0.256935
0.517681
0.712021
0.557443
0.51518
0.690033
0.684109
0.320351
0.68732
0.536811
0.651195
0.316568
0.357849
0.682672
0.710761
0.644415
0.715713
0.713394
0.729512
0.701606
0.647859
0.710913
0.320984
0.71382
0.308321
0.281121
0.310822
0.712909
0.713145
0.30431
0.712125
0.582407
0.315748
0.55335
0.715321
0.702021
0.383334
0.318034
0.71724
0.331792
0.329075
0.293493
0.321342
0.711499
0.284472
0.71229
0.353083
0.690103
0.715267
0.71073
0.718868
0.332358
0.30336
0.713838
0.718802
0.664907
0.715522
0.717284
0.438482
0.31965
0.376492
0.709714
0.504298
0.323167
0.414372
0.299466
0.723312
0.703878
0.313026
0.323808
0.711589
0.398678
0.713241
0.630147
0.351959
0.351501
0.665683
0.56344
0.345526
0.723574
0.72651
0.713531
0.326476
0.559792
0.350522
0.561235
0.649282
0.332905
0.353343
0.319184
0.561065
0.347113
0.27108
0.370349
0.568497
0.703929
0.274775
0.309929
0.330871
0.55724
0.333804
0.706322
0.299057
0.556204
0.716357
0.361816
0.321716
0.30773
0.440365
0.398729
0.72522
0.339199
0.317791
0.689881
0.243367
0.701853
0.704428
0.561436
0.307847
0.714506
0.71017
0.712956
0.709649
0.731583
0.706534
0.300092
0.561147
0.38025
0.710694
0.30148
0.712791
0.481228
0.268718
0.561029
0.712987
0.319031
0.639374
0.298875
0.29292
0.706429
0.71883
0.298778
0.299484
0.283542
0.299174
0.726733
0.701717
0.325207
0.312838
0.713918
0.713957
0.559213
0.710146
0.701015
0.303914
0.713076
0.389514
0.715323
0.373015
0.581022
0.431921
0.701964
0.670139
0.537292
0.339258
0.389271
0.711338
0.564658
0.552668
0.709507
0.282095
0.690127
0.71598
0.327199
0.439329
0.71151
0.350663
0.560897
0.654366
0.315098
0.710041
0.643444
0.332761
0.700698
0.29974
0.711631
0.331332
0.706501
0.695546
0.409814
0.597416
0.708392
0.716572
0.585419
0.693657
0.538477
0.32307
0.403509
0.305631
0.326332
0.560102
0.510031
0.712472
0.71539
0.311724
0.337249
0.699377
0.715194
0.715609
0.713732
0.305603
0.691482
0.717813
0.297817
0.283342
0.716841
0.712627
0.710823
0.297502
0.5445
0.368779
0.698309
0.706138
0.562189
0.700818
0.322974
0.704504
0.713596
0.707312
0.719316
0.709307
0.37572
0.707982
0.325683
0.671273
0.717319
0.413386
0.688547
0.557409
0.714887
0.404268
0.385445
0.541731
0.633718
0.331279
0.334326
0.323946
0.323731
0.689027
0.688796
0.55794
0.306504
0.317389
0.711102
0.671041
0.289662
0.336173
0.419865
0.669539
0.70944
0.715645
0.696488
0.326759
0.331448
0.560757
0.299315
0.299797
0.334323
0.706977
0.369106
0.331967
0.560568
0.713236
0.70679
0.658843
0.705524
0.30765
0.249402
0.326112
0.492341
0.398658
0.298934
0.667659
0.693787
0.706768
0.710108
0.298445
0.317884
0.71596
0.321984
0.708754
0.696419
0.563673
0.29887
0.3193
0.713592
0.562485
0.587635
0.287189
0.713453
0.675932
0.556993
0.710855
0.711814
0.560949
0.688433
0.306074
0.703462
0.561915
0.648247
0.697553
0.560277
0.710931
0.560361
0.713655
0.315048
0.322357
0.319921
0.564422
0.484765
0.323706
0.700111
0.713211
0.305039
0.645568
0.367485
0.655218
0.474869
0.295664
0.7154
0.700311
0.324754
0.502282
0.56569
0.353833
0.719807
0.311426
0.292785
0.61285
0.585201
0.451011
0.710473
0.324708
0.707935
0.320003
0.299551
0.702718
0.322552
0.594349
0.299929
0.647254
0.582655
0.5606
0.724305
0.279164
0.31813
0.660637
0.430295
0.715083
0.434546
0.582572
0.695645
0.706537
0.442041
0.575683
0.707666
0.712959
0.708544
0.314341
0.334385
0.497223
0.708121
0.711764
0.357863
0.710112
0.588989
0.372677
0.298742
0.649854
0.669612
0.560205
0.560951
0.665662
0.687193
0.592048
0.675168
0.300395
0.640789
0.416489
0.709763
0.712683
0.288243
0.730764
0.718131
0.328348
0.281168
0.321426
0.560232
0.300261
0.610518
0.704371
0.640742
0.299712
0.711482
0.307023
0.54587
0.565263
0.560234
0.66582
0.565303
0.597727
0.680956
0.507581
0.710146
0.332278
0.707595
0.710567
0.411645
0.560621
0.692406
0.299601
0.280299
0.353235
0.711027
0.335526
0.56012
0.327947
0.712599
0.266187
0.432749
0.301541
0.706354
0.715274
0.556935
0.244453
0.600733
0.613378
0.323063
0.560637
0.713891
0.299017
0.571274
0.562601
0.716954
0.709382
0.287334
0.46655
0.715494
0.711303
0.672156
0.332444
0.381541
0.713857
0.5613
0.563467
0.560562
0.546642
0.708095
0.542119
0.709139
0.332483
0.311328
0.56029
0.717831
0.564131
0.318097
0.708023
0.56231
0.605283
0.32952
0.373791
0.717906
0.713522
0.525753
0.353074
0.710588
0.56083
0.274955
0.586757
0.695598
0.276998
0.29997
0.268769
0.699604
0.328984
0.318528
0.715612
0.439239
0.713169
0.65121
0.268067
0.317015
0.715936
0.327746
0.29577
0.562833
0.304184
0.349389
0.575582
0.732117
0.713673
0.319901
0.365109
0.307724
0.704158
0.29609
0.714373
0.247617
0.702562
0.731906
0.714142
0.696637
0.700753
0.704957
0.708316
0.718749
0.71618
0.2822
0.323786
0.693526
0.62051
0.45295
0.700762
0.530893
0.570095
0.646978
0.370367
0.707659
0.714608
0.711068
0.310641
0.70431
0.352377
0.713925
0.440582
0.695723
0.709742
0.296823
0.712739
0.327896
0.419379
0.694809
0.332544
0.672371
0.559777
0.720981
0.338362
0.703425
0.325832
0.298696
0.299466
0.331074
0.648256
0.27477
0.656931
0.562197
0.352181
0.301697
0.434555
0.540605
0.62642
0.679543
0.305723
0.316928
0.291253
0.301562
0.24008
0.630499
0.714849
0.381287
0.554159
0.70391
0.268663
0.714237
0.668669
0.558782
0.316611
0.560587
0.69223
0.709749
0.709356
0.285589
0.713689
0.712819
0.705326
0.647839
0.691399
0.312959
0.299738
0.712125
0.491775
0.325027
0.701292
0.300841
0.52629
0.633134
0.711945
0.710951
0.298704
0.699077
0.366331
0.312078
0.685001
0.716182
0.714047
0.715716
0.660554
0.299302
0.718879
0.280827
0.451399
0.718176
0.56219
0.715417
0.31198
0.312474
0.717702
0.313429
0.717207
0.622582
0.394795
0.325286
0.708088
0.300445
0.709748
0.717008
0.666073
0.300392
0.324061
0.467639
0.502862
0.618914
0.439211
0.69553
0.681205
0.714591
0.559942
0.702068
0.235687
0.32647
0.717372
0.685978
0.667197
0.41203
0.319509
0.684791
0.275562
0.702731
0.580227
0.358987
0.71354
0.310987
0.731923
0.332861
0.71636
0.291248
0.714528
0.693291
0.303887
0.72535
0.633204
0.306649
0.557881
0.711588
0.531513
0.297064
0.353542
0.434522
0.710844
0.668895
0.343011
0.54157
0.704044
0.687856
0.296795
0.617997
0.703872
0.392725
0.695176
0.697889
0.277641
0.715971
0.561517
0.333491
0.59151
0.329159
0.657163
0.329667
0.291966
0.710348
0.323637
0.332374
0.276462
0.704423
0.70001
0.376781
0.710688
0.352464
0.677558
0.327492
0.698218
0.354271
0.697043
0.712092
0.66537
0.564876
0.505081
0.698974
0.567657
0.36098
0.610833
0.663782
0.514157
0.701558
0.440661
0.391611
0.718796
0.315952
0.542186
0.366555
0.710238
0.28672
0.301099
0.699901
0.704109
0.305346
0.70962
0.692768
0.560252
0.713218
0.561042
0.30775
0.714384
0.295123
0.313905
0.71915
0.698759
0.712686
0.71307
0.299591
0.328302
0.302993
0.693815
0.56695
0.352603
0.731163
0.312687
0.3326
0.329223
0.713481
0.372217
0.718607
0.716059
0.607797
0.719085
0.715922
0.563261
0.665193
0.388772
0.302266
0.302803
0.56102
0.560844
0.315616
0.631383
0.697124
0.664766
0.313389
0.406868
0.683302
0.271687
0.676942
0.635558
0.30008
0.632923
0.691039
0.325428
0.713469
0.283343
0.711948
0.712637
0.702051
0.273834
0.414633
0.672087
0.296315
0.381768
0.717481
0.309273
0.662341
0.708865
0.720056
0.692745
0.3612
0.561218
0.684288
0.711361
0.333905
0.716151
0.317119
0.296361
0.712004
0.709001
0.564957
0.229494
0.709685
0.6069
0.561729
0.3157
0.304759
0.33161
0.71444
0.281045
0.235104
0.331528
0.633313
0.263528
0.289942
0.393095
0.714759
0.313801
0.561632
0.58281
0.714096
0.339157
0.713946
0.643002
0.564874
0.377207
0.645737
0.291292
0.316845
0.701699
0.303415
0.635278
0.70073
0.560772
0.307699
0.317963
0.319345
0.515318
0.560029
0.234438
0.712884
0.704708
0.695943
0.328154
0.274794
0.312846
0.674039
0.326699
0.559641
0.570533
0.632735
0.714224
0.303809
0.640097
0.300255
0.634203
0.625162
0.715188
0.618176
0.518777
0.650543
0.670206
0.71741
0.324231
0.359545
0.338803
0.694677
0.509307
0.562435
0.307295
0.376467
0.706967
0.714361
0.561801
0.300556
0.713229
0.513284
0.518512
0.671137
0.356265
0.297108
0.283265
0.708386
0.562454
0.644638
0.704638
0.325194
0.722017
0.640162
0.562586
0.552633
0.718729
0.714832
0.694661
0.699085
0.712783
0.293656
0.712995
0.715741
0.701362
0.715213
0.71016
0.603092
0.310788
0.300648
0.653621
0.325415
0.356684
0.717162
0.299855
0.608156
0.710934
0.69393
0.71206
0.299063
0.714767
0.298894
0.309403
0.697555
0.70917
0.709978
0.339603
0.717014
0.710518
0.660942
0.707428
0.31925
0.70178
0.71762
0.688044
0.36926
0.701637
0.313073
0.712147
0.330455
0.311512
0.56741
0.412103
0.715735
0.705555
0.709023
0.330576
0.698083
0.379223
0.287094
0.719289
0.433723
0.331454
0.709797
0.305148
0.460976
0.663325
0.689843
0.708982
0.437577
0.556313
0.64934
0.709607
0.604135
0.714562
0.493458
0.719851
0.703648
0.638634
0.297672
0.292395
0.408764
0.715822
0.296631
0.653711
0.709529
0.594133
0.709879
0.541611
0.675356
0.676874
0.315075
0.70926
0.695817
0.527734
0.695908
0.718461
0.725591
0.652835
0.32787
0.315115
0.710385
0.514138
0.548446
0.714065
0.714141
0.710516
0.710323
0.712721
0.616894
0.680653
0.71476
0.255566
0.312973
0.289496
0.359086
0.562694
0.425387
0.53835
0.713571
0.681839
0.335113
0.712258
0.712479
0.341931
0.35685
0.560301
0.714158
0.404992
0.297951
0.294608
0.559925
0.724966
0.372772
0.237158
0.297366
0.300147
0.345137
0.329229
0.719612
0.711618
0.695433
0.331761
0.694245
0.609822
0.575251
0.327812
0.300181
0.719652
0.559884
0.329328
0.695927
0.324294
0.701505
0.318816
0.716779
0.314229
0.70691
0.717871
0.337583
0.520662
0.316425
0.714172
0.30607
0.616688
0.30103
0.479115
0.298754
0.609161
0.321635
0.565713
0.558942
0.574199
0.699993
0.330205
0.699247
0.634776
0.71745
0.606114
0.678183
0.300224
0.402509
0.321409
0.708582
0.295348
0.717919
0.512241
0.697565
0.717283
0.467622
0.708646
0.291692
0.307383
0.254196
0.479272
0.571616
0.714215
0.324003
0.313269
0.699584
0.338527
0.300382
0.596016
0.356246
0.33064
0.30009
0.713469
0.631451
0.621001
0.327002
0.698546
0.707967
0.299728
0.298542
0.713905
0.702248
0.632057
0.466941
0.361336
0.333755
0.326925
0.725218
0.654678
0.503418
0.682484
0.278988
0.555668
0.308313
0.561171
0.718114
0.301146
0.313759
0.660554
0.591219
0.718699
0.713349
0.712658
0.709334
0.718421
0.327726
0.323311
0.347563
0.304004
0.562591
0.565575
0.633511
0.306745
0.30333
0.430941
0.299902
0.710578
0.68763
0.332957
0.313271
0.710937
0.354724
0.649152
0.709195
0.704914
0.690305
0.564857
0.328626
0.315518
0.677519
0.301512
0.410687
0.373587
0.621027
0.714902
0.281232
0.302683
0.560484
0.32226
0.7012
0.708261
0.31732
0.329122
0.261378
0.7105
0.305115
0.559828
0.696966
0.598174
0.299677
0.488415
0.717328
0.712024
0.266507
0.709415
0.653593
0.300039
0.716865
0.717604
0.310008
0.315791
0.714711
0.325354
0.303264
0.702459
0.31721
0.711911
0.67425
0.70537
0.654473
0.717513
0.709771
0.679581
0.293156
0.368478
0.671591
0.710797
0.412242
0.714521
0.330731
0.713115
0.709336
0.5494
0.640869
0.402947
0.418159
0.712816
0.715922
0.701894
0.717557
0.710115
0.560053
0.711664
0.560325
0.731426
0.71987
0.720392
0.559978
0.69646
0.306342
0.721265
0.351558
0.707764
0.712896
0.702871
0.703167
0.690651
0.32817
0.323718
0.304578
0.276134
0.702938
0.31184
0.317049
0.685242
0.298028
0.697918
0.326011
0.703739
0.714389
0.322415
0.340275
0.358599
0.715503
0.352571
0.713885
0.71175
0.320413
0.718674
0.522928
0.358728
0.384302
0.30026
0.683218
0.315815
0.709199
0.539472
0.320738
0.711532
0.710179
0.7121
0.324699
0.563996
0.301429
0.694118
0.657116
0.705803
0.334642
0.709741
0.714575
0.704618
0.383927
0.715662
0.328817
0.322688
0.719559
0.420384
0.716192
0.394364
0.333485
0.397946
0.70702
0.346641
0.31048
0.330261
0.479807
0.561578
0.714074
0.294326
0.602345
0.710139
0.514035
0.421856
0.361126
0.525028
0.33389
0.31217
0.713037
0.324983
0.324773
0.712085
0.713793
0.337831
0.695914
0.327392
0.5603
0.380777
0.721009
0.56192
0.692866
0.603815
0.321444
0.313382
0.300845
0.688328
0.715928
0.553756
0.51351
0.335179
0.308211
0.707488
0.299691
0.711813
0.345084
0.564535
0.670011
0.323878
0.341066
0.32245
0.303593
0.339902
0.662303
0.701073
0.314787
0.714139
0.633154
0.321087
0.27194
0.713642
0.333252
0.715257
0.381568
0.693947
0.647485
0.713272
0.560981
0.307726
0.713213
0.711515
0.713989
0.324601
0.669355
0.563554
0.356413
0.715559
0.666345
0.72134
0.699969
0.71843
0.718959
0.713045
0.70193
0.711394
0.314009
0.7096
0.322484
0.44027
0.717051
0.301141
0.709954
0.682854
0.307821
0.703622
0.321446
0.298883
0.716398
0.67113
0.7141
0.321892
0.701196
0.596301
0.378358
0.326542
0.728771
0.70603
0.355703
0.330268
0.702548
0.714136
0.324737
0.636882
0.718414
0.633026
0.327235
0.327846
0.300052
0.647998
0.292371
0.709503
0.69368
0.707943
0.61472
0.71553
0.323746
0.711312
0.585874
0.717996
0.617657
0.300603
0.281722
0.28584
0.703593
0.71407
0.378371
0.644906
0.36723
0.667417
0.708533
0.283178
0.650966
0.710294
0.620583
0.333258
0.309397
0.359187
0.716911
0.716581
0.594211
0.467258
0.715489
0.328764
0.621738
0.561614
0.708814
0.333968
0.595463
0.310297
0.690768
0.293584
0.713531
0.718106
0.322661
0.717
0.427962
0.559813
0.648631
0.559799
0.710251
0.401511
0.706941
0.710352
0.709272
0.713863
0.425341
0.561458
0.276313
0.710519
0.284226
0.306571
0.275903
0.341441
0.332975
0.328475
0.717589
0.336842
0.236552
0.659518
0.717143
0.701113
0.374527
0.687038
0.681015
0.678418
0.326176
0.618748
0.705132
0.339117
0.330414
0.314054
0.623059
0.456915
0.313892
0.611418
0.298815
0.561139
0.45153
0.302363
0.427547
0.64072
0.35628
0.702878
0.277067
0.504178
0.35304
0.722034
0.364587
0.658827
0.561564
0.690865
0.418113
0.315503
0.728506
0.715187
0.330246
0.298889
0.69352
0.2955
0.700452
0.331508
0.522029
0.286589
0.708606
0.32681
0.716384
0.307532
0.708549
0.716165
0.716779
0.560522
0.272344
0.297034
0.372805
0.7276
0.683628
0.705457
0.576862
0.313189
0.707008
0.360092
0.715683
0.660192
0.391595
0.323937
0.709708
0.713468
0.301405
0.566001
0.728345
0.712006
0.706112
0.272047
0.623321
0.329879
0.71327
0.291975
0.56393
0.717373
0.731869
0.715615
0.319794
0.71314
0.325163
0.315659
0.700428
0.561014
0.526914
0.712144
0.562989
0.333617
0.698284
0.722437
0.712035
0.298606
0.399261
0.680245
0.313634
0.713793
0.70959
0.711314
0.720164
0.291142
0.428236
0.636141
0.315217
0.71039
0.713631
0.449874
0.717501
0.248223
0.678221
0.698653
0.668051
0.723198
0.308223
0.302328
0.714494
0.707931
0.306054
0.335416
0.324759
0.333959
0.234817
0.301945
0.368906
0.324133
0.714337
0.283927
0.335052
0.700948
0.527088
0.560366
0.373151
0.304715
0.710365
0.438826
0.491129
0.716387
0.358852
0.64407
0.55923
0.579007
0.697714
0.352426
0.71474
0.569611
0.31993
0.320991
0.394054
0.680397
0.580286
0.718526
0.698015
0.709354
0.699641
0.361498
0.716525
0.594939
0.731675
0.316412
0.710332
0.640524
0.359255
0.398614
0.268712
0.301429
0.256206
0.579003
0.664862
0.69426
0.313394
0.345454
0.718032
0.304055
0.70927
0.710508
0.710817
0.667524
0.71419
0.34002
0.301479
0.297371
0.562879
0.295872
0.710609
0.296197
0.700206
0.694957
0.712699
0.359745
0.424788
0.397821
0.716017
0.329634
0.311281
0.7185
0.698636
0.64298
0.69683
0.729462
0.699977
0.333131
0.595551
0.716808
0.485122
0.715478
0.70931
0.704458
0.397908
0.379652
0.712222
0.44846
0.623599
0.332372
0.69165
0.712579
0.370666
0.29306
0.692486
0.477904
0.715838
0.708231
0.317984
0.296725
0.5613
0.406232
0.379754
0.714234
0.728061
0.310413
0.713956
0.561993
0.702666
0.333801
0.579833
0.330775
0.716632
0.717951
0.700663
0.690031
0.561426
0.299144
0.348863
0.70059
0.322367
0.575878
0.316955
0.714278
0.29714
0.646075
0.715889
0.561207
0.334571
0.559985
0.561296
0.305879
0.690355
0.300451
0.713601
0.332219
0.315762
0.293025
0.688877
0.714089
0.297156
0.300526
0.718629
0.718624