# vtk DataFile Version 1.0
unstructured grid
ascii
DATASET UNSTRUCTURED_GRID
points 13672 float
0.0796578 -0.059106 0
0.00128732 0.00159165 0
0.00227961 -0.00102548 0
0.0791586 -0.0598787 0
-0.0546216 0.01 0
0.000495206 0.025 0
0.0800549 -0.035 0
0.135172 -0.08 0
-0.0546216 -0.0451168 0
0.000495206 -0.0301168 0
0.0800549 -0.0901168 0
0.135172 -0.135117 0
-0.0546216 -0.0451168 -0.00551168
0.000495206 -0.0301168 -0.00551168
0.0800549 -0.0901168 -0.00551168
0.135172 -0.135117 -0.00551168
0.135172 -0.08 -0.00551168
0.0800549 -0.035 -0.00551168
0.000495206 0.025 -0.00551168
-0.0546216 0.01 -0.00551168
0.00128732 0.00159165 -0.00551168
0.00227961 -0.00102548 -0.00551168
0.0791586 -0.0598787 -0.00551168
0.0796578 -0.059106 -0.00551168
0.00165953 -0.000990923 0
0.00119576 -0.000874076 0
0.000866021 -0.000641801 0
0.000645147 -0.000349912 0
0.00052235 -1.7281e-05 0
0.00049972 0.000348016 0
0.000601632 0.000737716 0
0.000861774 0.0011403 0
0.00157235 0.00183217 0
0.00188647 0.00206725 0
0.00222612 0.00230203 0
0.00258713 0.00254351 0
0.00296826 0.00279524 0
0.00337118 0.00305664 0
0.00379785 0.00332658 0
0.00425045 0.00360349 0
0.00473139 0.00388521 0
0.0052432 0.00416895 0
0.0057881 0.00445204 0
0.00636753 0.00473281 0
0.00698281 0.00500961 0
0.00763526 0.00528058 0
0.00832616 0.00554366 0
0.00905691 0.00579603 0
0.00982918 0.00603333 0
0.0106445 0.00625033 0
0.0115038 0.00644128 0
0.0124073 0.00660297 0
0.0133543 0.00673414 0
0.0143444 0.00683382 0
0.0153769 0.00690031 0
0.0164512 0.00693173 0
0.0175666 0.00692547 0
0.0187219 0.00687822 0
0.0199156 0.00678477 0
0.0211454 0.00663864 0
0.0224084 0.00643275 0
0.0237018 0.00616676 0
0.0250249 0.00584739 0
0.026375 0.00547298 0
0.0277479 0.00503752 0
0.0291386 0.00453545 0
0.0305433 0.0039653 0
0.0319572 0.0033256 0
0.0333681 0.00260019 0
0.034775 0.00179799 0
0.0361793 0.000930615 0
0.0375798 3.12222e-06 0
0.0389689 -0.000988429 0
0.0403357 -0.00205109 0
0.041675 -0.00318283 0
0.0429849 -0.00437751 0
0.0442643 -0.00562904 0
0.0455126 -0.00693089 0
0.0467314 -0.00827518 0
0.0479204 -0.00965638 0
0.0490661 -0.0110799 0
0.0501515 -0.0125519 0
0.0511696 -0.0140695 0
0.0521492 -0.0156071 0
0.0531202 -0.0171411 0
0.0540851 -0.0186663 0
0.0550431 -0.0201798 0
0.0559923 -0.0216793 0
0.0569311 -0.0231626 0
0.0578582 -0.0246273 0
0.0587723 -0.0260715 0
0.0596721 -0.027493 0
0.0605563 -0.02889 0
0.0614241 -0.0302609 0
0.0622742 -0.0316042 0
0.063106 -0.0329183 0
0.0639186 -0.034202 0
0.0647113 -0.0354543 0
0.0654835 -0.0366743 0
0.0662345 -0.0378613 0
0.0669642 -0.0390145 0
0.0676726 -0.0401333 0
0.0683597 -0.0412172 0
0.0690246 -0.0422665 0
0.0696662 -0.0432819 0
0.0702841 -0.0442636 0
0.0708793 -0.0452111 0
0.0714538 -0.0461237 0
0.072009 -0.047001 0
0.0725452 -0.0478434 0
0.0730611 -0.0486524 0
0.073556 -0.0494294 0
0.0740291 -0.0501756 0
0.0744812 -0.0508916 0
0.0749138 -0.0515773 0
0.0753285 -0.0522331 0
0.0757266 -0.0528592 0
0.076109 -0.0534564 0
0.0764753 -0.0540264 0
0.0768243 -0.054571 0
0.0771553 -0.0550919 0
0.0774679 -0.0555901 0
0.0777617 -0.0560669 0
0.0780369 -0.056523 0
0.0782958 -0.0569578 0
0.0785421 -0.0573703 0
0.0787786 -0.0577603 0
0.0790073 -0.0581279 0
0.0792295 -0.058474 0
0.0794462 -0.0587995 0
0.0798803 -0.0594162 0
0.0800272 -0.0596588 0
0.0800357 -0.0598891 0
0.0799275 -0.0600784 0
0.0797205 -0.0601773 0
0.0794593 -0.0601051 0
0.0789155 -0.0596491 0
0.0786707 -0.0593963 0
0.0784111 -0.0591319 0
0.0781372 -0.0588542 0
0.0778566 -0.0585548 0
0.0775715 -0.0582308 0
0.0772803 -0.0578828 0
0.0769832 -0.0575099 0
0.0766822 -0.0571097 0
0.0763801 -0.0566796 0
0.0760759 -0.0562196 0
0.0757623 -0.0557337 0
0.0754359 -0.0552232 0
0.0750951 -0.0546879 0
0.0747379 -0.054128 0
0.0743626 -0.0535435 0
0.0739688 -0.0529338 0
0.0735559 -0.0522981 0
0.0731238 -0.0516357 0
0.0726718 -0.050946 0
0.0721991 -0.0502288 0
0.0717046 -0.049484 0
0.0711872 -0.0487117 0
0.0706461 -0.047912 0
0.0700804 -0.0470849 0
0.0694892 -0.0462308 0
0.0688718 -0.0453499 0
0.0682271 -0.0444431 0
0.0675544 -0.043511 0
0.0668527 -0.0425546 0
0.0661215 -0.0415748 0
0.06536 -0.040573 0
0.0645676 -0.0395504 0
0.0637439 -0.0385087 0
0.0628887 -0.0374493 0
0.062002 -0.0363741 0
0.0610838 -0.0352847 0
0.0601345 -0.0341831 0
0.0591547 -0.033071 0
0.0581456 -0.0319502 0
0.0571083 -0.0308224 0
0.0560444 -0.0296893 0
0.0549562 -0.028552 0
0.053845 -0.0274126 0
0.0527113 -0.0262746 0
0.051554 -0.0251427 0
0.0503724 -0.0240222 0
0.0491675 -0.0229164 0
0.047941 -0.0218282 0
0.0466955 -0.0207597 0
0.0454337 -0.0197126 0
0.0441592 -0.0186878 0
0.0428751 -0.0176863 0
0.0415841 -0.0167097 0
0.0402878 -0.0157609 0
0.0389879 -0.0148428 0
0.0376864 -0.0139575 0
0.0363853 -0.013107 0
0.0350871 -0.0122931 0
0.0337942 -0.0115164 0
0.0325095 -0.0107772 0
0.0312357 -0.0100756 0
0.0299758 -0.00941024 0
0.0287337 -0.00877784 0
0.0275126 -0.00817571 0
0.0263139 -0.00760375 0
0.0251376 -0.00706528 0
0.0239829 -0.0065649 0
0.0228537 -0.00609619 0
0.0217522 -0.00565563 0
0.0206795 -0.00524226 0
0.0196364 -0.00485507 0
0.0186233 -0.00449318 0
0.0176408 -0.00415577 0
0.016689 -0.00384204 0
0.0157682 -0.00355115 0
0.0148783 -0.00328218 0
0.0140192 -0.00303468 0
0.0131906 -0.00280795 0
0.0123925 -0.00260016 0
0.0116246 -0.00241012 0
0.0108864 -0.00223769 0
0.0101774 -0.00208212 0
0.00949701 -0.00194206 0
0.00884483 -0.0018163 0
0.0082202 -0.0017039 0
0.00762247 -0.00160391 0
0.00705097 -0.00151528 0
0.006505 -0.00143697 0
0.0059838 -0.00136806 0
0.00548662 -0.00130772 0
0.00501265 -0.00125519 0
0.00456114 -0.00120954 0
0.00413136 -0.00116914 0
0.00372257 -0.00113251 0
0.00333398 -0.00109853 0
0.00296466 -0.00106798 0
0.00261363 -0.0010431 0
-0.052721 -0.0445996 0
-0.0508204 -0.0440823 0
-0.0489199 -0.0435651 0
-0.0470193 -0.0430478 0
-0.0451187 -0.0425306 0
-0.0432181 -0.0420134 0
-0.0413175 -0.0414961 0
-0.039417 -0.0409789 0
-0.0375164 -0.0404616 0
-0.0356158 -0.0399444 0
-0.0337152 -0.0394271 0
-0.0318146 -0.0389099 0
-0.0299141 -0.0383927 0
-0.0280135 -0.0378754 0
-0.0261129 -0.0373582 0
-0.0242123 -0.0368409 0
-0.0223117 -0.0363237 0
-0.0204112 -0.0358065 0
-0.0185106 -0.0352892 0
-0.01661 -0.034772 0
-0.0147094 -0.0342547 0
-0.0128088 -0.0337375 0
-0.0109083 -0.0332202 0
-0.00900769 -0.032703 0
-0.00710711 -0.0321858 0
-0.00520653 -0.0316685 0
-0.00330595 -0.0311513 0
-0.00140537 -0.030634 0
0.00190689 -0.0299614 0
0.00332271 -0.0298498 0
0.00474133 -0.0297825 0
0.00616136 -0.0297597 0
0.0075814 -0.0297814 0
0.00900007 -0.0298477 0
0.010416 -0.0299583 0
0.0118278 -0.0301127 0
0.0132342 -0.0303103 0
0.0146339 -0.0305504 0
0.0160259 -0.0308322 0
0.0174091 -0.0311546 0
0.0187824 -0.0315166 0
0.020145 -0.031917 0
0.0214961 -0.0323546 0
0.0228351 -0.032828 0
0.0241613 -0.0333361 0
0.0254744 -0.0338774 0
0.0267738 -0.0344507 0
0.0280592 -0.0350545 0
0.0293306 -0.0356877 0
0.0305875 -0.0363488 0
0.0318301 -0.0370367 0
0.0330581 -0.0377501 0
0.0342717 -0.0384879 0
0.0354708 -0.0392489 0
0.0366556 -0.0400321 0
0.0378262 -0.0408363 0
0.0389828 -0.0416607 0
0.0401254 -0.0425042 0
0.0412543 -0.0433659 0
0.0423698 -0.0442451 0
0.043472 -0.0451408 0
0.0445612 -0.0460523 0
0.0456375 -0.0469789 0
0.0467013 -0.0479199 0
0.0477529 -0.0488746 0
0.0487923 -0.0498424 0
0.04982 -0.0508227 0
0.0508362 -0.051815 0
0.051841 -0.0528187 0
0.0528348 -0.0538333 0
0.0538178 -0.0548584 0
0.0547903 -0.0558935 0
0.0557524 -0.0569382 0
0.0567045 -0.0579922 0
0.0576467 -0.0590549 0
0.0585792 -0.0601261 0
0.0595024 -0.0612055 0
0.0604163 -0.0622926 0
0.0613212 -0.0633873 0
0.0622174 -0.0644891 0
0.0631049 -0.0655979 0
0.0639841 -0.0667134 0
0.064855 -0.0678353 0
0.0657179 -0.0689633 0
0.0665729 -0.0700974 0
0.0674202 -0.0712372 0
0.06826 -0.0723826 0
0.0690925 -0.0735333 0
0.0699178 -0.0746892 0
0.070736 -0.0758501 0
0.0715473 -0.0770159 0
0.0723518 -0.0781863 0
0.0731498 -0.0793612 0
0.0739412 -0.0805405 0
0.0747264 -0.081724 0
0.0755053 -0.0829116 0
0.0762781 -0.0841033 0
0.0770449 -0.0852987 0
0.0778059 -0.0864979 0
0.0785611 -0.0877007 0
0.0793108 -0.088907 0
0.0814681 -0.0912706 0
0.0828814 -0.0924245 0
0.0842946 -0.0935783 0
0.0857079 -0.0947322 0
0.0871211 -0.095886 0
0.0885344 -0.0970399 0
0.0899476 -0.0981937 0
0.0913609 -0.0993476 0
0.0927741 -0.100501 0
0.0941874 -0.101655 0
0.0956006 -0.102809 0
0.0970139 -0.103963 0
0.0984272 -0.105117 0
0.0998404 -0.106271 0
0.101254 -0.107424 0
0.102667 -0.108578 0
0.10408 -0.109732 0
0.105493 -0.110886 0
0.106907 -0.11204 0
0.10832 -0.113194 0
0.109733 -0.114348 0
0.111146 -0.115501 0
0.11256 -0.116655 0
0.113973 -0.117809 0
0.115386 -0.118963 0
0.116799 -0.120117 0
0.118213 -0.121271 0
0.119626 -0.122424 0
0.121039 -0.123578 0
0.122452 -0.124732 0
0.123866 -0.125886 0
0.125279 -0.12704 0
0.126692 -0.128194 0
0.128105 -0.129348 0
0.129519 -0.130501 0
0.130932 -0.131655 0
0.132345 -0.132809 0
0.133758 -0.133963 0
0.135172 -0.133216 0
0.135172 -0.131316 0
0.135172 -0.129415 0
0.135172 -0.127514 0
0.135172 -0.125614 0
0.135172 -0.123713 0
0.135172 -0.121813 0
0.135172 -0.119912 0
0.135172 -0.118012 0
0.135172 -0.116111 0
0.135172 -0.11421 0
0.135172 -0.11231 0
0.135172 -0.110409 0
0.135172 -0.108509 0
0.135172 -0.106608 0
0.135172 -0.104708 0
0.135172 -0.102807 0
0.135172 -0.100906 0
0.135172 -0.0990058 0
0.135172 -0.0971052 0
0.135172 -0.0952046 0
0.135172 -0.0933041 0
0.135172 -0.0914035 0
0.135172 -0.0895029 0
0.135172 -0.0876023 0
0.135172 -0.0857017 0
0.135172 -0.0838012 0
0.135172 -0.0819006 0
0.133758 -0.0788462 0
0.132345 -0.0776923 0
0.130932 -0.0765385 0
0.129519 -0.0753846 0
0.128105 -0.0742308 0
0.126692 -0.0730769 0
0.125279 -0.0719231 0
0.123866 -0.0707692 0
0.122452 -0.0696154 0
0.121039 -0.0684615 0
0.119626 -0.0673077 0
0.118213 -0.0661538 0
0.116799 -0.065 0
0.115386 -0.0638462 0
0.113973 -0.0626923 0
0.11256 -0.0615385 0
0.111146 -0.0603846 0
0.109733 -0.0592308 0
0.10832 -0.0580769 0
0.106907 -0.0569231 0
0.105493 -0.0557692 0
0.10408 -0.0546154 0
0.102667 -0.0534615 0
0.101254 -0.0523077 0
0.0998404 -0.0511538 0
0.0984272 -0.05 0
0.0970139 -0.0488462 0
0.0956006 -0.0476923 0
[...]
CELL_DATA 13116
SCALARS rho float
LOOKUP_TABLE default
0.5977
0.5977
0.597719
0.597703
0.5977
0.689263
0.429095
0.590682
0.5977
0.5977
0.386823
0.597714
0.5977
0.548552
0.575325
0.689337
0.5977
0.5977
0.689237
0.374262
0.5977
0.597716
0.597105
0.5977
0.5977
0.597701
0.5977
0.5977
0.5977
0.5977
0.68909
0.597721
0.5977
0.5977
0.440641
0.5977
0.5977
0.667728
0.688794
0.687007
0.690266
0.59404
0.5977
0.590114
0.68708
0.688084
0.5977
0.686878
0.597719
0.5977
0.622095
0.5977
0.481082
0.5977
0.5977
0.5977
0.587707
0.5977
0.5977
0.593642
0.554132
0.5977
0.5977
0.688933
0.688841
0.512862
0.690266
0.5977
0.688494
0.688945
0.574255
0.5977
0.597711
0.559675
0.684801
0.522253
0.5977
0.595182
0.396236
0.5977
0.5977
0.597701
0.5977
0.685878
0.636272
0.5977
0.452515
0.5977
0.591033
0.336261
0.597704
0.5977
0.5977
0.590186
0.5977
0.5977
0.5977
0.68929
0.687973
0.5977
0.5977
0.5977
0.690448
0.5977
0.5977
0.597708
0.5977
0.5977
0.597701
0.5977
0.5977
0.5977
0.5977
0.5977
0.5977
0.689237
0.489875
0.5977
0.62239
0.688223
0.5977
0.597698
0.688203
0.597705
0.594109
0.5977
0.463179
0.5977
0.59772
0.5977
0.629382
0.5977
0.5977
0.597717
0.5977
0.5977
0.557588
0.687257
0.5977
0.688284
0.5977
0.5977
0.5977
0.5977
0.5977
0.575263
0.436009
0.5977
0.5977
0.677353
0.5977
0.686945
0.688239
0.459378
0.5977
0.670574
0.59772
0.5977
0.689249
0.5977
0.5977
0.387634
0.5977
0.59772
0.597698
0.597703
0.595692
0.5977
0.436302
0.5977
0.5977
0.555952
0.570662
0.5977
0.689582
0.597162
0.593036
0.597712
0.5977
0.689171
0.352336
0.5977
0.5977
0.5977
0.68898
0.5977
0.458298
0.689053
0.5977
0.5977
0.5977
0.5977
0.689445
0.597697
0.5977
0.689583
0.5977
0.68901
0.592303
0.5977
0.5977
0.5977
0.5977
0.57043
0.5977
0.671088
0.5977
0.5977
0.584849
0.357977
0.516987
0.68946
0.597712
0.336813
0.335641
0.467913
0.5977
0.689811
0.595953
0.5977
0.57865
0.69027
0.5977
0.349876
0.5977
0.5977
0.5977
0.5977
0.68961
0.5977
0.597074
0.597721
0.689325
0.5977
0.688928
0.685001
0.68956
0.597717
0.5977
0.5977
0.677375
0.68972
0.555298
0.688811
0.592896
0.595992
0.685154
0.5977
0.689701
0.411749
0.597719
0.685856
0.668942
0.689073
0.651686
0.5977
0.5977
0.380903
0.597704
0.5977
0.582135
0.5977
0.5977
0.5977
0.422174
0.687828
0.481508
0.5977
0.5977
0.410196
0.597701
0.590312
0.638454
0.5977
0.597717
0.612274
0.5977
0.689844
0.687403
0.383733
0.438079
0.597697
0.5977
0.5977
0.597707
0.5977
0.5977
0.595932
0.496351
0.642872
0.597704
0.439137
0.368505
0.47264
0.5977
0.597698
0.5977
0.5977
0.5977
0.403469
0.689725
0.5977
0.597698
0.592786
0.688932
0.679704
0.688713
0.466787
0.689304
0.5977
0.5977
0.594508
0.686063
0.593267
0.5977
0.689893
0.544572
0.689113
0.5977
0.5977
0.338138
0.5977
0.5977
0.473413
0.5977
0.597701
0.5977
0.5977
0.5977
0.454064
0.686683
0.5977
0.542243
0.642285
0.5977
0.5977
0.5926
0.5977
0.5977
0.421629
0.5977
0.5977
0.68927
0.5977
0.5977
0.5977
0.5977
0.664998
0.453317
0.597701
0.5977
0.5977
0.555157
0.453414
0.597705
0.595988
0.5977
0.5977
0.447907
0.597719
0.686404
0.597704
0.426336
0.592167
0.514819
0.597721
0.688949
0.589262
0.5977
0.336401
0.687818
0.689383
0.689181
0.686532
0.5977
0.5977
0.5977
0.569767
0.352952
0.689032
0.348913
0.5977
0.5977
0.597697
0.5977
0.5977
0.597697
0.444641
0.666868
0.597703
0.5977
0.5977
0.691033
0.5977
0.679407
0.597717
0.433203
0.5977
0.5977
0.597703
0.5977
0.69038
0.5977
0.5977
0.5977
0.597701
0.5977
0.5977
0.5977
0.5977
0.689137
0.5977
0.5977
0.5977
0.597718
0.5977
0.5977
0.477188
0.68947
0.654949
0.5977
0.355299
0.33619
0.44258
0.5977
0.510871
0.597697
0.68959
0.511397
0.5977
0.336196
0.68925
0.5977
0.5977
0.597716
0.59724
0.5977
0.33608
0.441546
0.336234
0.597699
0.434066
0.350419
0.597699
0.5977
0.349339
0.5977
0.5977
0.63234
0.5977
0.597709
0.5977
0.580675
0.336075
0.584193
0.687388
0.5977
0.5977
0.5977
0.502163
0.5977
0.59163
0.5977
0.5977
0.5977
0.5977
0.431235
0.688955
0.5977
0.5977
0.68913
0.597699
0.491673
0.5977
0.5977
0.5977
0.5977
0.5977
0.5977
0.5977
0.368746
0.58799
0.550617
0.5977
0.589038
0.519071
0.569993
0.5402
0.597703
0.597702
0.5977
0.5977
0.5977
0.5977
0.5977
0.498989
0.5977
0.5977
0.591331
0.597699
0.5977
0.5977
0.687094
0.597503
0.5977
0.5977
0.483047
0.5977
0.590582
0.68978
0.5977
0.5977
0.5977
0.342426
0.5977
0.5977
0.5977
0.5977
0.597698
0.5977
0.5977
0.5977
0.5977
0.597551
0.597702
0.5977
0.5977
0.690866
0.3365
0.686976
0.5977
0.592152
0.336365
0.597703
0.682214
0.5977
0.613208
0.5977
0.336737
0.689083
0.683385
0.5977
0.5977
0.490845
0.597392
0.33643
0.336389
0.591548
0.339339
0.597604
0.531365
0.597703
0.5977
0.5977
0.657937
0.689542
0.597702
0.336421
0.353502
0.670273
0.597486
0.5977
0.597703
0.5977
0.5977
0.445983
0.5977
0.688858
0.5977
0.335912
0.5977
0.597697
0.593658
0.689806
0.5977
0.597711
0.594681
0.5977
0.675508
0.5977
0.597722
0.5977
0.5977
0.663309
0.597719
0.597652
0.596347
0.677095
0.500279
0.551892
0.575825
0.68803
0.5977
0.336325
0.5977
0.597705
0.688688
0.5977
0.418845
0.5977
0.689045
0.5977
0.412623
0.597708
0.335982
0.689447
0.597705
0.689673
0.570576
0.5977
0.5977
0.5977
0.59772
0.597657
0.5977
0.5977
0.597702
0.48345
0.522885
0.689171
0.520749
0.689325
0.5977
0.689349
0.33605
0.589774
0.5977
0.5977
0.689174
0.595688
0.689353
0.596276
0.689871
0.5977
0.596505
0.38697
0.593555
0.5977
0.449501
0.689717
0.5977
0.463946
0.5977
0.597706
0.568352
0.689523
0.687248
0.597697
0.585329
0.403297
0.596564
0.589681
0.5977
0.49252
0.383342
0.597701
0.68729
0.5977
0.5977
0.689418
0.382629
0.5977
0.5977
0.637238
0.5977
0.5977
0.5977
0.689687
0.5977
0.5977
0.5977
0.5977
0.689046
0.5977
0.5977
0.5977
0.572616
0.5977
0.5977
0.5977
0.5977
0.5977
0.5977
0.689617
0.5977
0.5977
0.68801
0.5977
0.597716
0.5977
0.597697
0.5949
0.558952
0.689476
0.5977
0.5977
0.689209
0.5977
0.597703
0.5977
0.5977
0.5977
0.5977
0.5977
0.597702
0.556192
0.557693
0.5977
0.688166
0.5977
0.336748
0.5977
0.5977
0.5977
0.597666
0.589927
0.353936
0.5977
0.5977
0.368095
0.597697
0.601333
0.685318
0.590361
0.597629
0.5977
0.5977
0.5977
0.5977
0.689668
0.5977
0.336544
0.5977
0.635214
0.5977
0.687281
0.689804
0.5977
0.5977
0.360213
0.5977
0.5977
0.5977
0.5977
0.689561
0.671178
0.5977
0.5977
0.5977
0.5977
0.336283
0.336392
0.418432
0.347013
0.5977
0.5977
0.689747
0.5977
0.358703
0.688379
0.5977
0.536941
0.5977
0.5977
0.5977
0.689103
0.686294
0.5977
0.352257
0.336165
0.552279
0.597709
0.337167
0.491805
0.68937
0.5977
0.336146
0.5977
0.595453
0.5977
0.688977
0.68849
0.493798
0.544037
0.408836
0.5977
0.5977
0.597718
0.5977
0.5977
0.597575
0.68986
0.597721
0.336295
0.5977
0.336625
0.689861
0.5977
0.689564
0.597697
0.336214
0.597698
0.689745
0.5977
0.536196
0.67275
0.688951
0.5977
0.680794
0.589238
0.568082
0.5977
0.350167
0.688711
0.689701
0.5977
0.5977
0.557751
0.5977
0.574974
0.68721
0.518895
0.561464
0.336411
0.689418
0.5977
0.336519
0.5977
0.5977
0.597717
0.5977
0.5977
0.5977
0.5977
0.597717
0.5977
0.5977
0.335765
0.5977
0.689478
0.592174
0.591388
0.529112
0.597534
0.5977
0.5977
0.5977
0.690378
0.42825
0.5977
0.583212
0.597721
0.689437
0.336154
0.5977
0.597698
0.5977
0.5977
0.574953
0.59678
0.568051
0.530683
0.5977
0.5977
0.597701
0.5977
0.5977
0.688856
0.5977
0.5977
0.5977
0.5977
0.5977
0.690188
0.5977
0.336277
0.5977
0.5977
0.5977
0.5977
0.690194
0.5977
0.5977
0.597697
0.5977
0.5977
0.554206
0.689511
0.5977
0.5977
0.689113
0.5977
0.597717
0.5977
0.5977
0.687363
0.685115
0.5977
0.597661
0.597703
0.575051
0.597702
0.468523
0.557611
0.385841
0.5977
0.5977
0.5977
0.597698
0.60773
0.569134
0.5977
0.689482
0.689123
0.5977
0.689506
0.5977
0.5977
0.5977
0.596587
0.563962
0.68965
0.68977
0.5977
0.637556
0.5977
0.597698
0.572598
0.594995
0.685564
0.336252
0.634281
0.408985
0.589522
0.496891
0.5977
0.596525
0.5977
0.589647
0.5977
0.597698
0.5977
0.689714
0.364045
0.5977
0.597702
0.59772
0.5977
0.689601
0.5977
0.6897
0.5977
0.5977
0.597702
0.68993
0.5977
0.336053
0.5977
0.681482
0.551507
0.66494
0.55708
0.5977
0.5977
0.5977
0.687863
0.336107
0.57408
0.551758
0.5977
0.688992
0.523748
0.689837
0.5977
0.5977
0.557993
0.5977
0.594983
0.597667
0.5977
0.5977
0.690522
0.668192
0.424662
0.5977
0.5977
0.427439
0.597712
0.54855
0.5977
0.597701
0.336296
0.686018
0.5977
0.5977
0.5977
0.440527
0.440237
0.597701
0.564907
0.511898
0.68954
0.597716
0.5977
0.5977
0.596829
0.596175
0.357181
0.5977
0.39384
0.5977
0.59772
0.593712
0.516265
0.5977
0.597704
0.687299
0.5977
0.5977
0.5977
0.689444
0.597702
0.58952
0.523836
0.383241
0.5977
0.68913
0.5977
0.5977
0.5977
0.688965
0.5977
0.5977
0.68876
0.597701
0.592632
0.420209
0.5977
0.597698
0.683996
0.5977
0.5977
0.689556
0.597717
0.597701
0.336015
0.5977
0.5977
0.500734
0.5977
0.557234
0.592812
0.450182
0.689219
0.346781
0.597697
0.597698
0.335696
0.5977
0.576453
0.5977
0.689663
0.5977
0.597699
0.5977
0.5977
0.5977
0.5977
0.335977
0.485304
0.419677
0.595131
0.597698
0.5977
0.5977
0.5977
0.689814
0.5977
0.543089
0.5977
0.5977
0.68967
0.398542
0.686147
0.5977
0.5977
0.686482
0.588511
0.597644
0.5977
0.5977
0.5977
0.689547
0.597704
0.597698
0.687496
0.5977
0.336253
0.689355
0.597719
0.5977
0.5977
0.596768
0.592053
0.597704
0.5977
0.5977
0.420698
0.5977
0.597702
0.5977
0.683654
0.5977
0.597696
0.597701
0.591658
0.5977
0.597703
0.687919
0.597701
0.411994
0.5977
0.5977
0.597698
0.596735
0.5977
0.5977
0.597699
0.687566
0.597702
0.689468
0.597415
0.5977
0.597699
0.56808
0.5977
0.5977
0.5977
0.5977
0.689152
0.5977
0.672733
0.557691
0.5977
0.456489
0.597699
0.596101
0.689508
0.5977
0.5977
0.56101
0.5977
0.564629
0.689695
0.5977
0.5977
0.597702
0.362051
0.597682
0.597718
0.5977
0.597715
0.643196
0.689347
0.597717
0.591893
0.5977
0.597707
0.688958
0.689485
0.5977
0.575066
0.5977
0.5977
0.5977
0.5977
0.5977
0.5977
0.5977
0.689309
0.597698
0.5977
0.5977
0.5977
0.689225
0.68894
0.597699
0.66566
0.689563
0.59772
0.5977
0.42605
0.5977
0.439378
0.597593
0.5977
0.33639
0.335917
0.561077
0.689969
0.5977
0.5977
0.690467
0.5977
0.5977
0.342117
0.5977
0.5977
0.688992
0.687199
0.5977
0.689205
0.5977
0.689452
0.689604
0.597698
0.5977
0.5977
0.5977
0.5977
0.5977
0.5977
0.597701
0.364932
0.5977
0.5977
0.690441
0.521356
0.597697
0.5977
0.689106
0.363041
0.687852
0.5977
0.557563
0.589181
0.685895
0.345628
0.5977
0.34208
0.597715
0.591002
0.5977
0.592638
0.636721
0.597721
0.448674
0.399988
0.5977
0.689578
0.5977
0.595
0.510675
0.449205
0.532217
0.599137
0.5977
0.5977
0.592053
0.5977
0.686905
0.590717
0.5977
0.5977
0.5977
0.597707
0.35814
0.684777
0.685084
0.53285
0.5977
0.5977
0.5977
0.597699
0.5977
0.5977
0.597699
0.5977
0.5977
0.337402
0.68911
0.5977
0.336496
0.59489
0.504144
0.688837
0.5977
0.5977
0.570326
0.5977
0.5977
0.5977
0.5977
0.688402
0.5977
0.689086
0.69021
0.597701
0.5977
0.5977
0.689492
0.5977
0.689635
0.5977
0.669457
0.596016
0.563159
0.623474
0.689574
0.688847
0.597698
0.689512
0.5977
0.683248
0.494234
0.511396
0.336319
0.68659
0.41725
0.520077
0.597699
0.5977
0.513526
0.597699
0.5977
0.590137
0.336496
0.68867
0.689534
0.6871
0.45906
0.685855
0.5977
0.689696
0.5977
0.5977
0.442775
0.364442
0.688935
0.363445
0.5977
0.5977
0.561286
0.336315
0.5977
0.456484
0.5977
0.555409
0.597698
0.668771
0.689853
0.5977
0.344994
0.58827
0.5977
0.5977
0.335852
0.557791
0.5977
0.689479
0.683757
0.379875
0.5977
0.597309
0.5977
0.5977
0.5977
0.5977
0.5977
0.5977
0.5977
0.596675
0.405797
0.5977
0.524818
0.5977
0.5977
0.688118
0.336237
0.5977
0.5977
0.685374
0.689229
0.358374
0.687167
0.5977
0.5977
0.5977
0.597699
0.354293
0.597699
0.689506
0.689624
0.5977
0.5977
0.5977
0.589046
0.5977
0.689645
0.68973
0.60614
0.597701
0.689028
0.5977
0.5977
0.5977
0.68734
0.683026
0.689292
0.683716
0.6892
0.5977
0.336868
0.59772
0.5977
0.336372
0.5977
0.68687
0.550493
0.5977
0.688704
0.5977
0.591811
0.5977
0.687392
0.597699
0.55327
0.689104
0.597701
0.689868
0.474544
0.588507
0.69038
0.5977
0.688499
0.597714
0.689345
0.5977
0.5977
0.5977
0.5977
0.380172
0.597703
0.515164
0.336286
0.5977
0.5977
0.5977
0.5977
0.689767
0.59745
0.689413
0.5977
0.559793
0.597702
0.5977
0.336043
0.690533
0.597713
0.5977
0.5977
0.5977
0.595173
0.5977
0.5977
0.5977
0.688977
0.5977
0.5977
0.5977
0.597609
0.5977
0.5977
0.597639
0.393154
0.5977
0.684003
0.597698
0.5977
0.687554
0.5977
0.689114
0.5977
0.5977
0.5977
0.400272
0.687797
0.5977
0.5977
0.5977
0.5977
0.597702
0.689262
0.344913
0.536774
0.597476
0.5977
0.5977
0.687372
0.681262
0.690532
0.5977
0.5977
0.5977
0.5977
0.5977
0.543367
0.597704
0.529583
0.5977
0.623441
0.5977
0.5977
0.597703
0.5977
0.597703
0.590997
0.597703
0.484934
0.5977
0.666279
0.68748
0.5977
0.597715
0.593083
0.557838
0.597701
0.5977
0.454796
0.340025
0.59772
0.5977
0.336442
0.596532
0.686824
0.5977
0.410562
0.5977
0.5977
0.5977
0.5977
0.365626
0.597702
0.564181
0.336167
0.689203
0.336507
0.5977
0.5977
0.687132
0.414625
0.597056
0.596227
0.448175
0.5977
0.597698
0.5977
0.597715
0.5977
0.597719
0.5977
0.439275
0.5977
0.358557
0.688881
0.689239
0.5977
0.5977
0.5977
0.5977
0.689614
0.590412
0.5977
0.5977
0.360809
0.5977
0.527151
0.5977
0.597698
0.597702
0.5977
0.5977
0.5977
0.5977
0.5977
0.56219
0.54395
0.541121
0.5977
0.5977
0.673987
0.398576
0.597714
0.689221
0.5977
0.59771
0.5977
0.5977
0.336083
0.59772
0.594932
0.5977
0.5977
0.59081
0.5977
0.68945
0.59772
0.5977
0.650852
0.689081
0.5977
0.5977
0.5977
0.5977
0.450943
0.589729
0.5977
0.5977
0.5977
0.590165
0.5977
0.369238
0.689427
0.597704
0.349882
0.597699
0.5977
0.5977
0.597704
0.5977
0.5977
0.686889
0.597702
0.479789
0.597717
0.533566
0.379782
0.5977
0.689392
0.5977
0.360512
0.336335
0.5977
0.597715
0.690442
0.5977
0.335914
0.5977
0.689015
0.597719
0.5977
0.5977
0.5977
0.689249
0.5977
0.336504
0.430711
0.5977
0.345472
0.5977
0.5977
0.689149
0.68894
0.597698
0.336964
0.557579
0.365993
0.689733
0.5977
0.336619
0.579009
0.491098
0.689258
0.496279
0.557777
0.5977
0.5977
0.597721
0.5977
0.597542
0.63477
0.41635
0.593935
0.5977
0.597696
0.590306
0.597631
0.406041
0.336409
0.597703
0.378934
0.380487
0.597701
0.5977
0.686724
0.5977
0.5977
0.5977
0.5977
0.690284
0.689498
0.405133
0.5977
0.5977
0.597701
0.5977
0.5977
0.5977
0.687238
0.592762
0.5977
0.5977
0.5977
0.5977
0.593439
0.597701
0.5977
0.594908
0.690438
0.572637
0.59314
0.557453
0.594983
0.597698
0.62073
0.551476
0.689568
0.597699
0.597701
0.597698
0.687785
0.68695
0.5977
0.5977
0.5977
0.567395
0.454838
0.5977
0.407882
0.5977
0.399929
0.405863
0.5977
0.597713
0.5977
0.444079
0.5977
0.597086
0.336456
0.5977
0.5977
0.686776
0.586083
0.675494
0.5977
0.468325
0.597702
0.5977
0.5977
0.5977
0.59772
0.5977
0.336338
0.68787
0.5977
0.597699
0.690143
0.69017
0.5977
0.33652
0.5977
0.597719
0.5977
0.689006
0.689062
0.336132
0.597704
0.687519
0.5977
0.5977
0.686562
0.336466
0.342447
0.687128
0.5977
0.5977
0.5977
0.336084
0.5977
0.5977
0.597698
0.597699
0.564427
0.5977
0.689388
0.597703
0.544926
0.5977
0.690309
0.5977
0.5977
0.5977
0.5977
0.336144
0.354383
0.685701
0.33928
0.336022
0.683324
0.597703
0.491633
0.5977
0.485353
0.626767
0.5977
0.597699
0.688919
0.5977
0.689173
0.593426
0.357308
0.597704
0.688962
0.597691
0.5977
0.5977
0.5977
0.597699
0.689702
0.399404
0.687198
0.5977
0.689621
0.5977
0.444554
0.59725
0.337706
0.337024
0.597719
0.5977
0.5977
0.41016
0.686756
0.5977
0.5977
0.565364
0.597702
0.33595
0.589819
0.5977
0.5977
0.5977
0.686819
0.689231
0.547128
0.5977
0.687585
0.596626
0.336267
0.5977
0.5977
0.5977
0.684648
0.5977
0.59744
0.5977
0.597702
0.68333
0.59345
0.689431
0.689787
0.336162
0.5977
0.337247
0.5977
0.688009
0.597711
0.591661
0.5977
0.597717
0.5977
0.336381
0.597701
0.60718
0.5977
0.597703
0.36306
0.5977
0.5977
0.5977
0.411925
0.597659
0.6897
0.5977
0.58229
0.5977
0.597703
0.336258
0.5977
0.597703
0.5977
0.475755
0.33641
0.597719
0.5977
0.597716
0.59411
0.5977
0.689716
0.5977
0.590122
0.360835
0.590407
0.5977
0.596121
0.5977
0.5977
0.41073
0.595278
0.5977
0.597702
0.5977
0.5977
0.5977
0.5977
0.688459
0.578067
0.5977
0.592659
0.5977
0.421652
0.433184
0.5977
0.596652
0.5977
0.5977
0.5977
0.678053
0.336055
0.5977
0.659686
0.597704
0.428836
0.5977
0.597714
0.5977
0.59772
0.617281
0.595447
0.585445
0.589499
0.5977
0.55801
0.5977
0.557807
0.686953
0.5977
0.68965
0.689824
0.689306
0.636614
0.5977
0.653433
0.513091
0.690463
0.591768
0.342895
0.597652
0.597719
0.336097
0.419043
0.597703
0.5977
0.52881
0.5977
0.590459
0.5977
0.5977
0.5977
0.5977
0.689294
0.597697
0.5977
0.690166
0.597699
0.594019
0.358876
0.5977
0.5977
0.336584
0.5977
0.597721
0.688556
0.5977
0.473434
0.5977
0.5977
0.5977
0.689912
0.580162
0.5977
0.5977
0.605802
0.5977
0.5977
0.666457
0.5977
0.5977
0.339052
0.590771
0.597702
0.596533
0.597696
0.689033
0.340682
0.5977
0.409649
0.5977
0.594064
0.690363
0.597717
0.597703
0.346541
0.688489
0.618436
0.597702
0.626941
0.509813
0.597719
0.5977
0.597702
0.5977
0.5977
0.5977
0.597716
0.5977
0.5977
0.597703
0.5977
0.5977
0.597699
0.5977
0.669558
0.597712
0.689191
0.591789
0.5977
0.5977
0.584923
0.5977
0.33606
0.5977
0.597717
0.688888
0.597701
0.597175
0.597703
0.5977
0.597703
0.336262
0.413335
0.689471
0.653544
0.5977
0.593787
0.638493
0.336274
0.5977
0.59974
0.59057
0.597697
0.5977
0.5977
0.408477
0.686985
0.687296
0.602114
0.636988
0.597698
0.5977
0.5977
0.592692
0.59152
0.597701
0.5977
0.590798
0.597698
0.5977
0.5977
0.5977
0.591399
0.433676
0.5977
0.66904
0.596265
0.597711
0.5977
0.597717
0.597714
0.526651
0.597711
0.5977
0.336296
0.618994
0.58969
0.476608
0.5977
0.5977
0.553967
0.5977
0.336265
0.689791
0.5977
0.5977
0.5977
0.5977
0.5977
0.689664
0.5977
0.5977
0.581149
0.597702
0.689591
0.490905
0.346614
0.5977
0.5977
0.5977
0.597701
0.689602
0.597704
0.5977
0.5977
0.590435
0.689623
0.597668
0.33605
0.690031
0.5977
0.5977
0.5977
0.489167
0.59729
0.530557
0.5977
0.5977
0.5977
0.34979
0.5977
0.597316
0.597718
0.5977
0.69025
0.595995
0.5977
0.6854
0.597698
0.597674
0.596497
0.5977
0.597717
0.689456
0.596551
0.689161
0.689127
0.687375
0.5977
0.5977
0.5977
0.600896
0.560795
0.365593
0.686544
0.5977
0.5977
0.689221
0.597702
0.5977
0.336356
0.5977
0.5977
0.5977
0.597379
0.5977
0.5977
0.5977
0.5977
0.591835
0.5977
0.5977
0.335868
0.5977
0.641049
0.5977
0.597716
0.5977
0.5977
0.5977
0.5977
0.336242
0.360341
0.689483
0.5977
0.5977
0.680919
0.597613
0.59771
0.68426
0.689122
0.5977
0.336356
0.5977
0.336453
0.686685
0.597703
0.5977
0.5977
0.6887
0.5977
0.5977
0.5977
0.343704
0.5977
0.597698
0.686041
0.566367
0.5977
0.5977
0.68866
0.336189
0.557935
0.687076
0.37411
0.5977
0.59772
0.596008
0.336248
0.430892
0.581107
0.5977
0.687984
0.5977
0.5977
0.597701
0.597703
0.5977
0.5977
0.336316
0.5977
0.337497
0.5977
0.362732
0.5977
0.673251
0.5977
0.5977
0.42309
0.689138
0.509217
0.366184
0.5977
0.597699
0.5977
0.5977
0.578919
0.5977
0.689788
0.597143
0.5977
0.597698
0.5977
0.597697
0.355233
0.596021
0.688752
0.5977
0.336175
0.5977
0.5977
0.5977
0.5977
0.5977
0.5977
0.5977
0.5977
0.5977
0.597701
0.5977
0.597601
0.5977
0.5977
0.337998
0.597716
0.597721
0.350974
0.5977
0.601503
0.5977
0.5977
0.597701
0.5977
0.5977
0.597698
0.591005
0.375459
0.597385
0.342285
0.597701
0.656345
0.372001
0.569482
0.689025
0.597699
0.5977
0.5977
0.5977
0.5977
0.5977
0.5977
0.5977
0.689063
0.678412
0.597701
0.597701
0.5977
0.5977
0.690317
0.597705
0.555339
0.5977
0.5977
0.597699
0.597699
0.335997
0.5977
0.5977
0.5977
0.5977
0.597706
0.5977
0.5977
0.5977
0.386829
0.5977
0.336224
0.5977
0.5977
0.688778
0.597698
0.612805
0.597716
0.597595
0.55375
0.596822
0.5977
0.596958
0.548313
0.496599
0.5977
0.597078
0.5977
0.689067
0.6696
0.5977
0.5977
0.689389
0.5977
0.554785
0.5977
0.5977
0.597703
0.5977
0.5977
0.555326
0.597697
0.5977
0.5977
0.5977
0.5977
0.664866
0.661306
0.597701
0.673239
0.597704
0.374168
0.651003
0.680955
0.5977
0.380808
0.336239
0.496792
0.5977
0.336178
0.534579
0.652004
0.5977
0.411134
0.597706
0.688385
0.5977
0.689273
0.5977
0.552939
0.5977
0.597702
0.597704
0.688084
0.686377
0.5977
0.538447
0.597683
0.5977
0.336167
0.5977
0.601258
0.5977
0.33966
0.689347
0.5977
0.5977
0.430495
0.5977
0.5977
0.336634
0.59772
0.5977
0.590149
0.597718
0.595848
0.597702
0.597702
0.591014
0.548046
0.597708
0.336611
0.5977
0.5977
0.5977
0.5977
0.687271
0.5977
0.341223
0.5977
0.689394
0.5977
0.5977
0.5977
0.5977
0.5977
0.597697
0.573592
0.5977
0.5977
0.337271
0.479899
0.5977
0.597713
0.674834
0.5977
0.597684
0.597448