# vtk DataFile Version 1.0
unstructured grid
ascii
DATASET UNSTRUCTURED_GRID
points 13672 float
0.0796578 -0.059106 0
0.00128732 0.00159165 0
0.00227961 -0.00102548 0
0.0791586 -0.0598787 0
-0.0546216 0.01 0
0.000495206 0.025 0
0.0800549 -0.035 0
0.135172 -0.08 0
-0.0546216 -0.0451168 0
0.000495206 -0.0301168 0
0.0800549 -0.0901168 0
0.135172 -0.135117 0
-0.0546216 -0.0451168 -0.00551168
0.000495206 -0.0301168 -0.00551168
0.0800549 -0.0901168 -0.00551168
0.135172 -0.135117 -0.00551168
0.135172 -0.08 -0.00551168
0.0800549 -0.035 -0.00551168
0.000495206 0.025 -0.00551168
-0.0546216 0.01 -0.00551168
0.00128732 0.00159165 -0.00551168
0.00227961 -0.00102548 -0.00551168
0.0791586 -0.0598787 -0.00551168
0.0796578 -0.059106 -0.00551168
0.00165953 -0.000990923 0
0.00119576 -0.000874076 0
0.000866021 -0.000641801 0
0.000645147 -0.000349912 0
0.00052235 -1.7281e-05 0
0.00049972 0.000348016 0
0.000601632 0.000737716 0
0.000861774 0.0011403 0
0.00157235 0.00183217 0
0.00188647 0.00206725 0
0.00222612 0.00230203 0
0.00258713 0.00254351 0
0.00296826 0.00279524 0
0.00337118 0.00305664 0
0.00379785 0.00332658 0
0.00425045 0.00360349 0
0.00473139 0.00388521 0
0.0052432 0.00416895 0
0.0057881 0.00445204 0
0.00636753 0.00473281 0
0.00698281 0.00500961 0
0.00763526 0.00528058 0
0.00832616 0.00554366 0
0.00905691 0.00579603 0
0.00982918 0.00603333 0
0.0106445 0.00625033 0
0.0115038 0.00644128 0
0.0124073 0.00660297 0
0.0133543 0.00673414 0
0.0143444 0.00683382 0
0.0153769 0.00690031 0
0.0164512 0.00693173 0
0.0175666 0.00692547 0
0.0187219 0.00687822 0
0.0199156 0.00678477 0
0.0211454 0.00663864 0
0.0224084 0.00643275 0
0.0237018 0.00616676 0
0.0250249 0.00584739 0
0.026375 0.00547298 0
0.0277479 0.00503752 0
0.0291386 0.00453545 0
0.0305433 0.0039653 0
0.0319572 0.0033256 0
0.0333681 0.00260019 0
0.034775 0.00179799 0
0.0361793 0.000930615 0
0.0375798 3.12222e-06 0
0.0389689 -0.000988429 0
0.0403357 -0.00205109 0
0.041675 -0.00318283 0
0.0429849 -0.00437751 0
0.0442643 -0.00562904 0
0.0455126 -0.00693089 0
0.0467314 -0.00827518 0
0.0479204 -0.00965638 0
0.0490661 -0.0110799 0
0.0501515 -0.0125519 0
0.0511696 -0.0140695 0
0.0521492 -0.0156071 0
0.0531202 -0.0171411 0
0.0540851 -0.0186663 0
0.0550431 -0.0201798 0
0.0559923 -0.0216793 0
0.0569311 -0.0231626 0
0.0578582 -0.0246273 0
0.0587723 -0.0260715 0
0.0596721 -0.027493 0
0.0605563 -0.02889 0
0.0614241 -0.0302609 0
0.0622742 -0.0316042 0
0.063106 -0.0329183 0
0.0639186 -0.034202 0
0.0647113 -0.0354543 0
0.0654835 -0.0366743 0
0.0662345 -0.0378613 0
0.0669642 -0.0390145 0
0.0676726 -0.0401333 0
0.0683597 -0.0412172 0
0.0690246 -0.0422665 0
0.0696662 -0.0432819 0
0.0702841 -0.0442636 0
0.0708793 -0.0452111 0
0.0714538 -0.0461237 0
0.072009 -0.047001 0
0.0725452 -0.0478434 0
0.0730611 -0.0486524 0
0.073556 -0.0494294 0
0.0740291 -0.0501756 0
0.0744812 -0.0508916 0
0.0749138 -0.0515773 0
0.0753285 -0.0522331 0
0.0757266 -0.0528592 0
0.076109 -0.0534564 0
0.0764753 -0.0540264 0
0.0768243 -0.054571 0
0.0771553 -0.0550919 0
0.0774679 -0.0555901 0
0.0777617 -0.0560669 0
0.0780369 -0.056523 0
0.0782958 -0.0569578 0
0.0785421 -0.0573703 0
0.0787786 -0.0577603 0
0.0790073 -0.0581279 0
0.0792295 -0.058474 0
0.0794462 -0.0587995 0
0.0798803 -0.0594162 0
0.0800272 -0.0596588 0
0.0800357 -0.0598891 0
0.0799275 -0.0600784 0
0.0797205 -0.0601773 0
0.0794593 -0.0601051 0
0.0789155 -0.0596491 0
0.0786707 -0.0593963 0
0.0784111 -0.0591319 0
0.0781372 -0.0588542 0
0.0778566 -0.0585548 0
0.0775715 -0.0582308 0
0.0772803 -0.0578828 0
0.0769832 -0.0575099 0
0.0766822 -0.0571097 0
0.0763801 -0.0566796 0
0.0760759 -0.0562196 0
0.0757623 -0.0557337 0
0.0754359 -0.0552232 0
0.0750951 -0.0546879 0
0.0747379 -0.054128 0
0.0743626 -0.0535435 0
0.0739688 -0.0529338 0
0.0735559 -0.0522981 0
0.0731238 -0.0516357 0
0.0726718 -0.050946 0
0.0721991 -0.0502288 0
0.0717046 -0.049484 0
0.0711872 -0.0487117 0
0.0706461 -0.047912 0
0.0700804 -0.0470849 0
0.0694892 -0.0462308 0
0.0688718 -0.0453499 0
0.0682271 -0.0444431 0
0.0675544 -0.043511 0
0.0668527 -0.0425546 0
0.0661215 -0.0415748 0
0.06536 -0.040573 0
0.0645676 -0.0395504 0
0.0637439 -0.0385087 0
0.0628887 -0.0374493 0
0.062002 -0.0363741 0
0.0610838 -0.0352847 0
0.0601345 -0.0341831 0
0.0591547 -0.033071 0
0.0581456 -0.0319502 0
0.0571083 -0.0308224 0
0.0560444 -0.0296893 0
0.0549562 -0.028552 0
0.053845 -0.0274126 0
0.0527113 -0.0262746 0
0.051554 -0.0251427 0
0.0503724 -0.0240222 0
0.0491675 -0.0229164 0
0.047941 -0.0218282 0
0.0466955 -0.0207597 0
0.0454337 -0.0197126 0
0.0441592 -0.0186878 0
0.0428751 -0.0176863 0
0.0415841 -0.0167097 0
0.0402878 -0.0157609 0
0.0389879 -0.0148428 0
0.0376864 -0.0139575 0
0.0363853 -0.013107 0
0.0350871 -0.0122931 0
0.0337942 -0.0115164 0
0.0325095 -0.0107772 0
0.0312357 -0.0100756 0
0.0299758 -0.00941024 0
0.0287337 -0.00877784 0
0.0275126 -0.00817571 0
0.0263139 -0.00760375 0
0.0251376 -0.00706528 0
0.0239829 -0.0065649 0
0.0228537 -0.00609619 0
0.0217522 -0.00565563 0
0.0206795 -0.00524226 0
0.0196364 -0.00485507 0
0.0186233 -0.00449318 0
0.0176408 -0.00415577 0
0.016689 -0.00384204 0
0.0157682 -0.00355115 0
0.0148783 -0.00328218 0
0.0140192 -0.00303468 0
0.0131906 -0.00280795 0
0.0123925 -0.00260016 0
0.0116246 -0.00241012 0
0.0108864 -0.00223769 0
0.0101774 -0.00208212 0
0.00949701 -0.00194206 0
0.00884483 -0.0018163 0
0.0082202 -0.0017039 0
0.00762247 -0.00160391 0
0.00705097 -0.00151528 0
0.006505 -0.00143697 0
0.0059838 -0.00136806 0
0.00548662 -0.00130772 0
0.00501265 -0.00125519 0
0.00456114 -0.00120954 0
0.00413136 -0.00116914 0
0.00372257 -0.00113251 0
0.00333398 -0.00109853 0
0.00296466 -0.00106798 0
0.00261363 -0.0010431 0
-0.052721 -0.0445996 0
-0.0508204 -0.0440823 0
-0.0489199 -0.0435651 0
-0.0470193 -0.0430478 0
-0.0451187 -0.0425306 0
-0.0432181 -0.0420134 0
-0.0413175 -0.0414961 0
-0.039417 -0.0409789 0
-0.0375164 -0.0404616 0
-0.0356158 -0.0399444 0
-0.0337152 -0.0394271 0
-0.0318146 -0.0389099 0
-0.0299141 -0.0383927 0
-0.0280135 -0.0378754 0
-0.0261129 -0.0373582 0
-0.0242123 -0.0368409 0
-0.0223117 -0.0363237 0
-0.0204112 -0.0358065 0
-0.0185106 -0.0352892 0
-0.01661 -0.034772 0
-0.0147094 -0.0342547 0
-0.0128088 -0.0337375 0
-0.0109083 -0.0332202 0
-0.00900769 -0.032703 0
-0.00710711 -0.0321858 0
-0.00520653 -0.0316685 0
-0.00330595 -0.0311513 0
-0.00140537 -0.030634 0
0.00190689 -0.0299614 0
0.00332271 -0.0298498 0
0.00474133 -0.0297825 0
0.00616136 -0.0297597 0
0.0075814 -0.0297814 0
0.00900007 -0.0298477 0
0.010416 -0.0299583 0
0.0118278 -0.0301127 0
0.0132342 -0.0303103 0
0.0146339 -0.0305504 0
0.0160259 -0.0308322 0
0.0174091 -0.0311546 0
0.0187824 -0.0315166 0
0.020145 -0.031917 0
0.0214961 -0.0323546 0
0.0228351 -0.032828 0
0.0241613 -0.0333361 0
0.0254744 -0.0338774 0
0.0267738 -0.0344507 0
0.0280592 -0.0350545 0
0.0293306 -0.0356877 0
0.0305875 -0.0363488 0
0.0318301 -0.0370367 0
0.0330581 -0.0377501 0
0.0342717 -0.0384879 0
0.0354708 -0.0392489 0
0.0366556 -0.0400321 0
0.0378262 -0.0408363 0
0.0389828 -0.0416607 0
0.0401254 -0.0425042 0
0.0412543 -0.0433659 0
0.0423698 -0.0442451 0
0.043472 -0.0451408 0
0.0445612 -0.0460523 0
0.0456375 -0.0469789 0
0.0467013 -0.0479199 0
0.0477529 -0.0488746 0
0.0487923 -0.0498424 0
0.04982 -0.0508227 0
0.0508362 -0.051815 0
0.051841 -0.0528187 0
0.0528348 -0.0538333 0
0.0538178 -0.0548584 0
0.0547903 -0.0558935 0
0.0557524 -0.0569382 0
0.0567045 -0.0579922 0
0.0576467 -0.0590549 0
0.0585792 -0.0601261 0
0.0595024 -0.0612055 0
0.0604163 -0.0622926 0
0.0613212 -0.0633873 0
0.0622174 -0.0644891 0
0.0631049 -0.0655979 0
0.0639841 -0.0667134 0
0.064855 -0.0678353 0
0.0657179 -0.0689633 0
0.0665729 -0.0700974 0
0.0674202 -0.0712372 0
0.06826 -0.0723826 0
0.0690925 -0.0735333 0
0.0699178 -0.0746892 0
0.070736 -0.0758501 0
0.0715473 -0.0770159 0
0.0723518 -0.0781863 0
0.0731498 -0.0793612 0
0.0739412 -0.0805405 0
0.0747264 -0.081724 0
0.0755053 -0.0829116 0
0.0762781 -0.0841033 0
0.0770449 -0.0852987 0
0.0778059 -0.0864979 0
0.0785611 -0.0877007 0
0.0793108 -0.088907 0
0.0814681 -0.0912706 0
0.0828814 -0.0924245 0
0.0842946 -0.0935783 0
0.0857079 -0.0947322 0
0.0871211 -0.095886 0
0.0885344 -0.0970399 0
0.0899476 -0.0981937 0
0.0913609 -0.0993476 0
0.0927741 -0.100501 0
0.0941874 -0.101655 0
0.0956006 -0.102809 0
0.0970139 -0.103963 0
0.0984272 -0.105117 0
0.0998404 -0.106271 0
0.101254 -0.107424 0
0.102667 -0.108578 0
0.10408 -0.109732 0
0.105493 -0.110886 0
0.106907 -0.11204 0
0.10832 -0.113194 0
0.109733 -0.114348 0
0.111146 -0.115501 0
0.11256 -0.116655 0
0.113973 -0.117809 0
0.115386 -0.118963 0
0.116799 -0.120117 0
0.118213 -0.121271 0
0.119626 -0.122424 0
0.121039 -0.123578 0
0.122452 -0.124732 0
0.123866 -0.125886 0
0.125279 -0.12704 0
0.126692 -0.128194 0
0.128105 -0.129348 0
0.129519 -0.130501 0
0.130932 -0.131655 0
0.132345 -0.132809 0
0.133758 -0.133963 0
0.135172 -0.133216 0
0.135172 -0.131316 0
0.135172 -0.129415 0
0.135172 -0.127514 0
0.135172 -0.125614 0
0.135172 -0.123713 0
0.135172 -0.121813 0
0.135172 -0.119912 0
0.135172 -0.118012 0
0.135172 -0.116111 0
0.135172 -0.11421 0
0.135172 -0.11231 0
0.135172 -0.110409 0
0.135172 -0.108509 0
0.135172 -0.106608 0
0.135172 -0.104708 0
0.135172 -0.102807 0
0.135172 -0.100906 0
0.135172 -0.0990058 0
0.135172 -0.0971052 0
0.135172 -0.0952046 0
0.135172 -0.0933041 0
0.135172 -0.0914035 0
0.135172 -0.0895029 0
0.135172 -0.0876023 0
0.135172 -0.0857017 0
0.135172 -0.0838012 0
0.135172 -0.0819006 0
0.133758 -0.0788462 0
0.132345 -0.0776923 0
0.130932 -0.0765385 0
0.129519 -0.0753846 0
0.128105 -0.0742308 0
0.126692 -0.0730769 0
0.125279 -0.0719231 0
0.123866 -0.0707692 0
0.122452 -0.0696154 0
0.121039 -0.0684615 0
0.119626 -0.0673077 0
0.118213 -0.0661538 0
0.116799 -0.065 0
0.115386 -0.0638462 0
0.113973 -0.0626923 0
0.11256 -0.0615385 0
0.111146 -0.0603846 0
0.109733 -0.0592308 0
0.10832 -0.0580769 0
0.106907 -0.0569231 0
0.105493 -0.0557692 0
0.10408 -0.0546154 0
0.102667 -0.0534615 0
0.101254 -0.0523077 0
0.0998404 -0.0511538 0
0.0984272 -0.05 0
0.0970139 -0.0488462 0
0.0956006 -0.0476923 0
[...]
CELL_DATA 13116
SCALARS rho float
LOOKUP_TABLE default
0.620056
0.725252
0.313265
0.711667
0.710906
0.701895
0.285023
0.713018
0.557354
0.710878
0.292428
0.273018
0.711014
0.272418
0.299579
0.70217
0.632853
0.709066
0.712111
0.292521
0.60961
0.318568
0.279294
0.709995
0.622695
0.714558
0.710902
0.310462
0.593955
0.66834
0.558562
0.275769
0.573744
0.470326
0.286836
0.615939
0.698568
0.717408
0.664071
0.711478
0.706136
0.712925
0.523354
0.293701
0.710113
0.71207
0.72453
0.710247
0.308795
0.529917
0.711814
0.513278
0.256529
0.624685
0.576675
0.606801
0.29208
0.710459
0.536356
0.302108
0.273885
0.711245
0.729514
0.648358
0.562429
0.285538
0.708744
0.698272
0.709492
0.558583
0.3033
0.578754
0.31286
0.286903
0.559341
0.300609
0.702173
0.711259
0.287994
0.708859
0.709884
0.715651
0.710223
0.714477
0.713439
0.409406
0.283504
0.689203
0.713965
0.315164
0.276342
0.7256
0.710446
0.713286
0.679003
0.629437
0.625009
0.561703
0.559453
0.59879
0.691742
0.702928
0.710871
0.449366
0.712106
0.260634
0.36221
0.552734
0.290106
0.60741
0.572239
0.715604
0.626255
0.709312
0.70884
0.70947
0.279541
0.399986
0.711165
0.71041
0.696818
0.317496
0.709746
0.276061
0.714019
0.441966
0.282988
0.50079
0.288514
0.526539
0.710988
0.71455
0.469263
0.319919
0.450861
0.651389
0.560196
0.710116
0.690643
0.71052
0.692164
0.72571
0.504391
0.695071
0.7181
0.274658
0.287694
0.715532
0.710759
0.71223
0.519075
0.715486
0.709893
0.303056
0.710889
0.713198
0.280029
0.695639
0.561212
0.688072
0.709871
0.290848
0.710434
0.281663
0.320377
0.711593
0.714323
0.70901
0.285429
0.433063
0.406379
0.560807
0.293394
0.493758
0.709224
0.278655
0.315599
0.31154
0.715546
0.693885
0.305595
0.42685
0.588665
0.696972
0.695207
0.540374
0.29819
0.707014
0.713207
0.463235
0.685166
0.715377
0.558757
0.279124
0.714831
0.697504
0.710889
0.707969
0.714181
0.366101
0.454389
0.616588
0.495491
0.283052
0.712405
0.722492
0.519922
0.636047
0.284631
0.300942
0.300028
0.704742
0.280516
0.303427
0.307989
0.302841
0.393582
0.652844
0.714259
0.393149
0.292081
0.708309
0.568101
0.306821
0.520949
0.710928
0.716491
0.310524
0.709001
0.373108
0.714188
0.275964
0.553393
0.562526
0.561531
0.712496
0.563163
0.29363
0.438263
0.685582
0.559157
0.696638
0.560538
0.554965
0.713366
0.317414
0.71132
0.710869
0.560348
0.295186
0.311192
0.721158
0.710788
0.554483
0.71272
0.620029
0.706242
0.292353
0.294405
0.43002
0.283566
0.710284
0.710835
0.701979
0.285429
0.711347
0.291095
0.405483
0.712573
0.302164
0.71554
0.711892
0.559321
0.710814
0.297968
0.559353
0.711465
0.561092
0.710074
0.289091
0.287
0.279717
0.649428
0.31747
0.329891
0.343657
0.363674
0.726449
0.243669
0.713408
0.711434
0.293786
0.295654
0.290987
0.440044
0.318971
0.688684
0.684668
0.715629
0.302414
0.705003
0.55827
0.28656
0.302297
0.688414
0.710671
0.707598
0.297752
0.698584
0.450242
0.715275
0.712567
0.711894
0.712444
0.278991
0.708543
0.268872
0.70481
0.710587
0.681363
0.297786
0.339379
0.710915
0.288833
0.719445
0.711304
0.340315
0.704336
0.710168
0.290019
0.711592
0.710427
0.260024
0.710945
0.39435
0.541971
0.714752
0.408078
0.696965
0.286196
0.709457
0.339981
0.583367
0.697299
0.711144
0.307023
0.372733
0.713194
0.302618
0.712489
0.714006
0.422453
0.559137
0.301455
0.313474
0.71297
0.526008
0.699482
0.286704
0.28078
0.711303
0.711374
0.289791
0.711499
0.278426
0.255556
0.710214
0.714435
0.563861
0.332907
0.710216
0.558273
0.701931
0.712131
0.712112
0.52342
0.335084
0.275573
0.303551
0.701352
0.304988
0.590965
0.330757
0.277162
0.366912
0.571354
0.126575
0.30298
0.712745
0.275915
0.710433
0.598632
0.713249
0.679812
0.711447
0.314699
0.288094
0.368186
0.331389
0.71289
0.623718
0.709915
0.598064
0.718156
0.648597
0.71562
0.674855
0.666557
0.712532
0.708757
0.700457
0.432218
0.507736
0.619165
0.314267
0.683931
0.608512
0.264061
0.709215
0.559115
0.279398
0.293125
0.300549
0.299403
0.624498
0.307031
0.27935
0.706402
0.288647
0.56599
0.311653
0.703619
0.713582
0.322795
0.321899
0.712985
0.436834
0.318991
0.298064
0.324956
0.288928
0.289035
0.294114
0.318198
0.410289
0.295458
0.701378
0.326236
0.713556
0.349672
0.275472
0.462927
0.273604
0.311834
0.27411
0.711169
0.419805
0.644581
0.565938
0.288121
0.63948
0.713843
0.40612
0.703956
0.653894
0.655851
0.290602
0.561201
0.400351
0.71135
0.558969
0.282763
0.259888
0.712598
0.333081
0.40702
0.700083
0.362223
0.694472
0.721499
0.297762
0.314709
0.294911
0.489893
0.298421
0.240104
0.297411
0.269016
0.71179
0.711555
0.445142
0.602674
0.454152
0.714994
0.38683
0.30804
0.56141
0.283761
0.716996
0.335301
0.382384
0.465289
0.710504
0.714762
0.535027
0.340221
0.265987
0.533111
0.71274
0.560787
0.529783
0.713364
0.709343
0.296137
0.713464
0.557671
0.684107
0.373298
0.31973
0.70871
0.71086
0.677542
0.710879
0.714693
0.714048
0.709589
0.681411
0.711847
0.312826
0.710707
0.332631
0.28719
0.30739
0.711542
0.722423
0.338394
0.713737
0.611803
0.299254
0.59152
0.71061
0.712929
0.309357
0.303325
0.712019
0.323247
0.32659
0.272308
0.297125
0.719468
0.248837
0.711272
0.325077
0.724023
0.711758
0.708737
0.711279
0.324723
0.299487
0.72019
0.714675
0.699937
0.711744
0.710886
0.452311
0.290497
0.287634
0.70175
0.546774
0.301378
0.436459
0.276502
0.713699
0.707985
0.368196
0.318327
0.714037
0.414968
0.712377
0.667398
0.287571
0.373075
0.69884
0.559195
0.282585
0.714801
0.714194
0.721101
0.300047
0.561518
0.290935
0.561378
0.682421
0.334294
0.392497
0.33121
0.562436
0.29324
0.284357
0.403464
0.643672
0.71327
0.285427
0.290349
0.302707
0.615916
0.314376
0.696703
0.274737
0.581557
0.710896
0.35118
0.281281
0.279945
0.454541
0.290414
0.715365
0.297709
0.313396
0.702961
0.28181
0.70405
0.722012
0.56173
0.321281
0.715843
0.710442
0.71086
0.703176
0.714324
0.710019
0.274904
0.561716
0.398625
0.721536
0.28875
0.713103
0.529669
0.286268
0.564703
0.711287
0.296704
0.671249
0.276442
0.305262
0.705961
0.711109
0.275933
0.274852
0.287075
0.27386
0.714003
0.709977
0.299065
0.298515
0.712502
0.710257
0.585183
0.710423
0.706685
0.291639
0.711172
0.41242
0.711766
0.408951
0.618527
0.445437
0.707852
0.700737
0.557943
0.383941
0.302798
0.709094
0.590481
0.620456
0.710362
0.281218
0.71266
0.710915
0.354336
0.508888
0.710605
0.330483
0.563032
0.686579
0.337124
0.710985
0.676449
0.31764
0.713442
0.279777
0.714533
0.299464
0.703978
0.729392
0.299932
0.655687
0.710361
0.711925
0.614881
0.716536
0.55914
0.345534
0.444926
0.274332
0.285039
0.559186
0.524651
0.709984
0.710855
0.313139
0.322234
0.714075
0.710963
0.713001
0.712086
0.292883
0.708645
0.710903
0.29281
0.265319
0.711412
0.72102
0.714366
0.274597
0.565347
0.324052
0.71358
0.716663
0.556879
0.725338
0.299476
0.72042
0.713473
0.710384
0.711755
0.700324
0.39464
0.712323
0.301535
0.713587
0.710867
0.432679
0.720863
0.561518
0.711745
0.464628
0.424019
0.56283
0.668345
0.321809
0.334141
0.30328
0.296321
0.723048
0.712571
0.572269
0.36967
0.294243
0.709334
0.697029
0.258355
0.321512
0.439372
0.703261
0.707983
0.712514
0.711109
0.301592
0.322376
0.559323
0.275934
0.303819
0.29933
0.706756
0.322612
0.324982
0.602449
0.721099
0.715636
0.692035
0.706542
0.281624
0.294266
0.304098
0.574432
0.420103
0.276132
0.698389
0.710687
0.713892
0.706686
0.275414
0.322727
0.710853
0.310975
0.699068
0.730187
0.560863
0.275815
0.326252
0.714933
0.56087
0.639382
0.254524
0.713031
0.697629
0.600181
0.712112
0.712337
0.559343
0.71488
0.293688
0.706182
0.559003
0.689804
0.713486
0.559327
0.715924
0.560918
0.710032
0.313199
0.315254
0.322371
0.560086
0.536272
0.311623
0.714373
0.712463
0.27163
0.674569
0.325488
0.684331
0.560679
0.31783
0.711101
0.709714
0.30287
0.515253
0.559007
0.287338
0.713534
0.282306
0.256854
0.646393
0.61597
0.462564
0.711055
0.303409
0.710693
0.315884
0.274019
0.703644
0.300272
0.631331
0.276398
0.676987
0.618265
0.560046
0.714391
0.281237
0.314132
0.708096
0.527322
0.71296
0.480907
0.623908
0.702517
0.710349
0.537976
0.604128
0.715292
0.710974
0.709335
0.343796
0.332383
0.508526
0.71502
0.711135
0.415986
0.710835
0.63847
0.364591
0.275958
0.683555
0.702601
0.560118
0.563299
0.702187
0.711249
0.667704
0.705475
0.276108
0.674768
0.437036
0.711251
0.720939
0.34687
0.713787
0.711036
0.313116
0.295857
0.290126
0.559318
0.29052
0.643987
0.712926
0.675041
0.288172
0.718189
0.279985
0.56663
0.615126
0.555415
0.696773
0.602526
0.631917
0.709349
0.560398
0.721972
0.297885
0.70178
0.708542
0.511208
0.560818
0.713104
0.27971
0.281097
0.288155
0.711895
0.333642
0.562908
0.304549
0.712964
0.263723
0.445882
0.276332
0.711426
0.711854
0.620743
0.270567
0.634508
0.672218
0.305646
0.586862
0.711543
0.276045
0.608088
0.560114
0.710911
0.700615
0.282159
0.552877
0.712855
0.714648
0.71268
0.328221
0.420531
0.712518
0.559206
0.55915
0.559219
0.60108
0.713859
0.597196
0.711312
0.327652
0.281395
0.559452
0.710791
0.655998
0.285177
0.70401
0.61372
0.644949
0.310178
0.393556
0.711497
0.711868
0.550789
0.334067
0.706199
0.561074
0.286379
0.61865
0.711241
0.286981
0.275335
0.272733
0.713621
0.313543
0.314727
0.712053
0.487006
0.711106
0.679527
0.285108
0.290135
0.711804
0.314378
0.309122
0.560247
0.263076
0.390918
0.61232
0.714432
0.715216
0.295139
0.330301
0.293517
0.725444
0.259882
0.71432
0.299653
0.714351
0.713124
0.711005
0.713855
0.720812
0.716525
0.707698
0.711228
0.712848
0.243387
0.302272
0.722944
0.681599
0.466171
0.714764
0.564387
0.651907
0.690037
0.321089
0.71005
0.711395
0.723597
0.295789
0.719997
0.321449
0.715078
0.455302
0.709101
0.704123
0.322529
0.71286
0.301308
0.465205
0.728001
0.299646
0.697825
0.559626
0.71382
0.299757
0.706249
0.297446
0.276293
0.277204
0.3094
0.695044
0.291653
0.6915
0.578739
0.334252
0.27906
0.448041
0.562218
0.657411
0.720274
0.321219
0.28689
0.289868
0.276235
0.258762
0.660443
0.715564
0.313275
0.60098
0.713063
0.271861
0.711194
0.695325
0.588078
0.298609
0.564009
0.717018
0.71214
0.711646
0.298179
0.713491
0.711469
0.719335
0.68221
0.701392
0.324365
0.277648
0.714083
0.503023
0.329615
0.703205
0.278779
0.543925
0.664048
0.714771
0.714475
0.276472
0.71442
0.417456
0.296586
0.706834
0.712039
0.710847
0.711236
0.695378
0.276442
0.711201
0.29747
0.464512
0.711582
0.559599
0.712955
0.296178
0.295775
0.710881
0.312072
0.712186
0.658957
0.420317
0.340634
0.710666
0.276649
0.70388
0.712421
0.700459
0.276837
0.315717
0.490828
0.556583
0.651054
0.469305
0.703983
0.721762
0.713186
0.559237
0.71351
0.273683
0.338613
0.711403
0.698757
0.708596
0.429809
0.283682
0.713072
0.288325
0.707306
0.609018
0.332773
0.71285
0.292226
0.714022
0.315695
0.710709
0.29864
0.717718
0.692936
0.273203
0.713841
0.667788
0.27467
0.558053
0.710355
0.568165
0.272791
0.413718
0.468977
0.710518
0.713524
0.325228
0.561254
0.713238
0.702382
0.283291
0.65434
0.729767
0.409128
0.704097
0.704596
0.326218
0.712541
0.562737
0.310892
0.630618
0.299724
0.687806
0.303321
0.249628
0.710752
0.315035
0.303881
0.279026
0.707795
0.73214
0.435977
0.707372
0.406909
0.713593
0.298439
0.731212
0.328709
0.702992
0.712281
0.696813
0.555554
0.518451
0.693601
0.597557
0.311321
0.646884
0.696752
0.590906
0.713972
0.45415
0.438445
0.711138
0.306468
0.565954
0.327162
0.710422
0.245409
0.279182
0.709731
0.706522
0.297758
0.71119
0.710363
0.55929
0.712059
0.561472
0.294576
0.711322
0.299369
0.280952
0.713888
0.711204
0.712833
0.71352
0.275599
0.303187
0.29241
0.726667
0.581065
0.411948
0.714586
0.284013
0.302247
0.302859
0.713779
0.406752
0.71125
0.712881
0.643502
0.711385
0.712934
0.609073
0.699122
0.406219
0.274314
0.298075
0.561668
0.562768
0.283953
0.661213
0.712427
0.697056
0.281772
0.470455
0.722683
0.303077
0.718808
0.682074
0.301477
0.672171
0.723369
0.316653
0.716619
0.305741
0.709859
0.711122
0.720748
0.287025
0.42992
0.69791
0.331055
0.399475
0.710914
0.352088
0.684012
0.709189
0.715594
0.710139
0.33907
0.564066
0.706617
0.712992
0.359007
0.71144
0.317986
0.272025
0.712257
0.708166
0.578792
0.245603
0.704298
0.642028
0.559389
0.28628
0.275959
0.323198
0.710657
0.288262
0.289916
0.317967
0.681485
0.302215
0.349456
0.409978
0.714566
0.308401
0.55409
0.65747
0.711347
0.299369
0.71155
0.676193
0.608144
0.396919
0.68014
0.288718
0.307097
0.70568
0.296897
0.665193
0.71344
0.559619
0.308596
0.341386
0.298228
0.530551
0.559943
0.254328
0.719398
0.707294
0.710208
0.300422
0.295975
0.344354
0.708656
0.306219
0.559322
0.597947
0.679425
0.71227
0.289645
0.670599
0.275361
0.694915
0.661403
0.71087
0.674228
0.593645
0.683553
0.710248
0.7112
0.302343
0.346806
0.289909
0.709121
0.549934
0.559585
0.307146
0.405276
0.711996
0.712033
0.556208
0.297151
0.711487
0.528396
0.534754
0.71495
0.28802
0.297202
0.331823
0.708343
0.59268
0.679927
0.714915
0.348915
0.713875
0.675007
0.588402
0.568839
0.713594
0.711311
0.699515
0.711923
0.710886
0.283298
0.709885
0.711378
0.704495
0.710642
0.708468
0.649141
0.299852
0.266153
0.69626
0.327044
0.33633
0.711561
0.307932
0.643167
0.709111
0.727645
0.723213
0.281028
0.711544
0.277275
0.280788
0.700397
0.715166
0.707001
0.298243
0.711539
0.711061
0.705113
0.707064
0.318494
0.703158
0.710878
0.721483
0.355774
0.709647
0.295268
0.711133
0.299996
0.301776
0.63433
0.4329
0.711048
0.710464
0.699899
0.31715
0.702722
0.437683
0.302762
0.714804
0.448833
0.321729
0.708215
0.263463
0.47369
0.693958
0.726364
0.714943
0.451174
0.579507
0.682334
0.699442
0.651298
0.710827
0.504496
0.713185
0.714473
0.672515
0.274613
0.288763
0.429653
0.711213
0.279963
0.686206
0.711289
0.630154
0.700459
0.607338
0.700433
0.706608
0.297623
0.711163
0.713607
0.601549
0.713806
0.711022
0.715278
0.693152
0.301221
0.313249
0.720809
0.556956
0.603232
0.710192
0.716419
0.707034
0.710956
0.711136
0.648606
0.721453
0.710765
0.288234
0.271976
0.254127
0.328407
0.55928
0.451293
0.594852
0.712825
0.709317
0.281563
0.722471
0.711716
0.296868
0.386842
0.563042
0.710163
0.291797
0.274059
0.27221
0.559336
0.715209
0.369218
0.276817
0.299546
0.255809
0.328001
0.330863
0.714238
0.711096
0.714983
0.303573
0.728195
0.646542
0.602934
0.344583
0.291873
0.714998
0.560253
0.317679
0.703078
0.31483
0.709756
0.28326
0.711402
0.296925
0.713625
0.711549
0.300809
0.537337
0.34857
0.711328
0.264614
0.651528
0.278366
0.515746
0.28968
0.647347
0.305863
0.557789
0.556141
0.602093
0.72128
0.34707
0.731524
0.683492
0.711545
0.643265
0.713414
0.29262
0.481121
0.286748
0.710444
0.311349
0.71098
0.527268
0.711009
0.710994
0.554815
0.712308
0.304912
0.279781
0.294385
0.509256
0.639586
0.718298
0.303369
0.326062
0.703198
0.363092
0.276258
0.652678
0.390384
0.321704
0.267192
0.712915
0.667929
0.654653
0.282441
0.732129
0.708979
0.275075
0.325287
0.713425
0.705924
0.695353
0.479116
0.382164
0.358152
0.303278
0.71401
0.699204
0.55199
0.705803
0.288006
0.600367
0.291364
0.563443
0.711149
0.294592
0.309658
0.702509
0.649696
0.711336
0.710918
0.710737
0.711515
0.711497
0.302513
0.313883
0.290682
0.289609
0.6218
0.55916
0.669906
0.291989
0.312375
0.480077
0.275374
0.707674
0.72502
0.305334
0.373299
0.708966
0.283703
0.682365
0.71118
0.723561
0.703292
0.616768
0.324489
0.294432
0.718958
0.295636
0.452887
0.433794
0.680992
0.710243
0.292713
0.302074
0.55906
0.306292
0.708436
0.710457
0.315544
0.312444
0.249882
0.709315
0.27734
0.559454
0.713071
0.634459
0.273327
0.499437
0.711663
0.715796
0.285629
0.72539
0.694766
0.27574
0.711951
0.712829
0.29499
0.322007
0.714942
0.303184
0.289356
0.729995
0.340906
0.716855
0.699455
0.710332
0.690659
0.71076
0.708811
0.690661
0.290806
0.387535
0.708066
0.718964
0.427617
0.711222
0.38626
0.710076
0.714856
0.583708
0.674466
0.4744
0.439274
0.722071
0.711359
0.714286
0.711572
0.707276
0.560956
0.712266
0.55909
0.714328
0.714711
0.713596
0.560522
0.69438
0.274073
0.715609
0.30906
0.710548
0.709798
0.711841
0.717882
0.709497
0.312983
0.301883
0.341349
0.287367
0.728792
0.294119
0.29888
0.71127
0.27504
0.711893
0.30325
0.730098
0.713268
0.315183
0.363873
0.333844
0.710711
0.287448
0.719388
0.712915
0.297228
0.715193
0.53963
0.341838
0.305854
0.274597
0.706116
0.324319
0.71134
0.608233
0.352867
0.709426
0.706425
0.710672
0.314223
0.606313
0.277249
0.727667
0.694814
0.70965
0.330976
0.719267
0.710118
0.715737
0.415538
0.710672
0.320762
0.296599
0.712237
0.446749
0.710889
0.461356
0.328118
0.415781
0.716317
0.296979
0.27463
0.302522
0.558426
0.561382
0.712841
0.267262
0.641141
0.708595
0.528548
0.497221
0.332123
0.542085
0.329492
0.293062
0.718077
0.29801
0.310579
0.71196
0.711796
0.298055
0.70896
0.301977
0.561548
0.313616
0.714876
0.560734
0.709559
0.654789
0.316343
0.293041
0.277077
0.701125
0.714497
0.575975
0.539628
0.35784
0.323443
0.696519
0.291655
0.714957
0.36746
0.560413
0.699857
0.296048
0.294801
0.29823
0.301142
0.300266
0.704596
0.732044
0.297895
0.711121
0.665925
0.354142
0.291913
0.711619
0.318038
0.713733
0.399703
0.710091
0.680442
0.711105
0.564124
0.310143
0.711157
0.710895
0.712943
0.316992
0.715806
0.589405
0.334767
0.711165
0.697997
0.713842
0.731862
0.711435
0.712496
0.712292
0.704949
0.710867
0.315876
0.710414
0.298587
0.49194
0.710991
0.27709
0.712977
0.709033
0.319603
0.715798
0.318163
0.276461
0.713421
0.707441
0.7118
0.297775
0.730933
0.63216
0.314504
0.301735
0.714675
0.708344
0.382105
0.316281
0.712796
0.711629
0.33026
0.670538
0.71153
0.670099
0.292997
0.318739
0.276158
0.68088
0.30325
0.726293
0.708968
0.697097
0.651479
0.713192
0.298651
0.714246
0.615547
0.711503
0.678013
0.278524
0.288939
0.272417
0.710062
0.712848
0.396358
0.67803
0.331303
0.699525
0.710193
0.277858
0.691812
0.7259
0.651732
0.30238
0.287129
0.329643
0.712555
0.710876
0.629367
0.479195
0.71276
0.314683
0.656575
0.559417
0.718893
0.302304
0.628277
0.322582
0.711235
0.250691
0.720993
0.713433
0.282393
0.712087
0.523328
0.560249
0.678352
0.559311
0.711701
0.439009
0.695054
0.703943
0.710074
0.720244
0.440843
0.559392
0.241493
0.70531
0.281147
0.304762
0.282604
0.296845
0.326499
0.300843
0.711651
0.360788
0.295468
0.692318
0.711986
0.731925
0.368876
0.709135
0.704926
0.701178
0.242423
0.666716
0.70892
0.321038
0.316231
0.29311
0.655019
0.469765
0.314497
0.655387
0.275468
0.562192
0.46435
0.278146
0.441682
0.674265
0.329969
0.708249
0.288684
0.582492
0.380119
0.713738
0.395958
0.693551
0.55944
0.711275
0.50155
0.297101
0.714162
0.71144
0.317146
0.276399
0.70244
0.300756
0.709573
0.30426
0.538626
0.270388
0.708696
0.311302
0.711646
0.303151
0.710411
0.712756
0.71114
0.560756
0.24334
0.279723
0.362421
0.714875
0.710738
0.716218
0.644337
0.325145
0.712663
0.332033
0.714711
0.700441
0.444618
0.339813
0.710719
0.721739
0.27793
0.559199
0.714149
0.710952
0.710356
0.290568
0.658561
0.302723
0.711001
0.286449
0.608556
0.715136
0.714352
0.71184
0.358235
0.712208
0.312313
0.298046
0.707759
0.56062
0.564997
0.721017
0.559121
0.314733
0.70933
0.713551
0.712471
0.276107
0.425007
0.705657
0.293894
0.710041
0.71145
0.712758
0.713448
0.299746
0.468317
0.670641
0.280899
0.71463
0.711205
0.488193
0.713715
0.27782
0.720257
0.709401
0.695206
0.713592
0.286198
0.279092
0.717643
0.725473
0.317472
0.364552
0.311299
0.282062
0.289656
0.274415
0.318612
0.328273
0.718668
0.283679
0.294051
0.712951
0.568216
0.55912
0.400439
0.305149
0.709113
0.471378
0.5719
0.710923
0.391572
0.678202
0.554161
0.608715
0.729218
0.28869
0.712888
0.627807
0.300831
0.295613
0.442537
0.707906
0.610992
0.711312
0.702583
0.718102
0.726265
0.349687
0.712783
0.659167
0.714218
0.301918
0.709088
0.696501
0.345633
0.422526
0.246746
0.276556
0.277016
0.61432
0.695012
0.722411
0.293917
0.367702
0.711551
0.27273
0.713154
0.705092
0.715217
0.694693
0.712278
0.320144
0.276955
0.272636
0.609896
0.294055
0.709474
0.273475
0.706246
0.703375
0.709861
0.326497
0.460139
0.432443
0.712918
0.313781
0.292363
0.711649
0.730303
0.677838
0.702272
0.71464
0.709722
0.329488
0.628167
0.710694
0.496808
0.713737
0.712843
0.710345
0.414074
0.396629
0.712543
0.461387
0.657205
0.30335
0.72597
0.712705
0.359565
0.307987
0.726181
0.498284
0.711067
0.71322
0.325832
0.294211
0.563853
0.504522
0.40476
0.713014
0.71455
0.320869
0.71188
0.561425
0.720678
0.334903
0.612817
0.32561
0.712522
0.711163
0.709981
0.721885
0.562375
0.36087
0.407612
0.718495
0.305249
0.603868
0.339609
0.711524
0.273052
0.679921
0.710742
0.562063
0.331338
0.559244
0.560977
0.290616
0.724046
0.274075
0.71299
0.325508
0.295513
0.271128
0.715186
0.711003
0.330191
0.344914
0.715423