# vtk DataFile Version 1.0
unstructured grid
ascii
DATASET UNSTRUCTURED_GRID
points 13672 float
0.0796578 -0.059106 0
0.00128732 0.00159165 0
0.00227961 -0.00102548 0
0.0791586 -0.0598787 0
-0.0546216 0.01 0
0.000495206 0.025 0
0.0800549 -0.035 0
0.135172 -0.08 0
-0.0546216 -0.0451168 0
0.000495206 -0.0301168 0
0.0800549 -0.0901168 0
0.135172 -0.135117 0
-0.0546216 -0.0451168 -0.00551168
0.000495206 -0.0301168 -0.00551168
0.0800549 -0.0901168 -0.00551168
0.135172 -0.135117 -0.00551168
0.135172 -0.08 -0.00551168
0.0800549 -0.035 -0.00551168
0.000495206 0.025 -0.00551168
-0.0546216 0.01 -0.00551168
0.00128732 0.00159165 -0.00551168
0.00227961 -0.00102548 -0.00551168
0.0791586 -0.0598787 -0.00551168
0.0796578 -0.059106 -0.00551168
0.00165953 -0.000990923 0
0.00119576 -0.000874076 0
0.000866021 -0.000641801 0
0.000645147 -0.000349912 0
0.00052235 -1.7281e-05 0
0.00049972 0.000348016 0
0.000601632 0.000737716 0
0.000861774 0.0011403 0
0.00157235 0.00183217 0
0.00188647 0.00206725 0
0.00222612 0.00230203 0
0.00258713 0.00254351 0
0.00296826 0.00279524 0
0.00337118 0.00305664 0
0.00379785 0.00332658 0
0.00425045 0.00360349 0
0.00473139 0.00388521 0
0.0052432 0.00416895 0
0.0057881 0.00445204 0
0.00636753 0.00473281 0
0.00698281 0.00500961 0
0.00763526 0.00528058 0
0.00832616 0.00554366 0
0.00905691 0.00579603 0
0.00982918 0.00603333 0
0.0106445 0.00625033 0
0.0115038 0.00644128 0
0.0124073 0.00660297 0
0.0133543 0.00673414 0
0.0143444 0.00683382 0
0.0153769 0.00690031 0
0.0164512 0.00693173 0
0.0175666 0.00692547 0
0.0187219 0.00687822 0
0.0199156 0.00678477 0
0.0211454 0.00663864 0
0.0224084 0.00643275 0
0.0237018 0.00616676 0
0.0250249 0.00584739 0
0.026375 0.00547298 0
0.0277479 0.00503752 0
0.0291386 0.00453545 0
0.0305433 0.0039653 0
0.0319572 0.0033256 0
0.0333681 0.00260019 0
0.034775 0.00179799 0
0.0361793 0.000930615 0
0.0375798 3.12222e-06 0
0.0389689 -0.000988429 0
0.0403357 -0.00205109 0
0.041675 -0.00318283 0
0.0429849 -0.00437751 0
0.0442643 -0.00562904 0
0.0455126 -0.00693089 0
0.0467314 -0.00827518 0
0.0479204 -0.00965638 0
0.0490661 -0.0110799 0
0.0501515 -0.0125519 0
0.0511696 -0.0140695 0
0.0521492 -0.0156071 0
0.0531202 -0.0171411 0
0.0540851 -0.0186663 0
0.0550431 -0.0201798 0
0.0559923 -0.0216793 0
0.0569311 -0.0231626 0
0.0578582 -0.0246273 0
0.0587723 -0.0260715 0
0.0596721 -0.027493 0
0.0605563 -0.02889 0
0.0614241 -0.0302609 0
0.0622742 -0.0316042 0
0.063106 -0.0329183 0
0.0639186 -0.034202 0
0.0647113 -0.0354543 0
0.0654835 -0.0366743 0
0.0662345 -0.0378613 0
0.0669642 -0.0390145 0
0.0676726 -0.0401333 0
0.0683597 -0.0412172 0
0.0690246 -0.0422665 0
0.0696662 -0.0432819 0
0.0702841 -0.0442636 0
0.0708793 -0.0452111 0
0.0714538 -0.0461237 0
0.072009 -0.047001 0
0.0725452 -0.0478434 0
0.0730611 -0.0486524 0
0.073556 -0.0494294 0
0.0740291 -0.0501756 0
0.0744812 -0.0508916 0
0.0749138 -0.0515773 0
0.0753285 -0.0522331 0
0.0757266 -0.0528592 0
0.076109 -0.0534564 0
0.0764753 -0.0540264 0
0.0768243 -0.054571 0
0.0771553 -0.0550919 0
0.0774679 -0.0555901 0
0.0777617 -0.0560669 0
0.0780369 -0.056523 0
0.0782958 -0.0569578 0
0.0785421 -0.0573703 0
0.0787786 -0.0577603 0
0.0790073 -0.0581279 0
0.0792295 -0.058474 0
0.0794462 -0.0587995 0
0.0798803 -0.0594162 0
0.0800272 -0.0596588 0
0.0800357 -0.0598891 0
0.0799275 -0.0600784 0
0.0797205 -0.0601773 0
0.0794593 -0.0601051 0
0.0789155 -0.0596491 0
0.0786707 -0.0593963 0
0.0784111 -0.0591319 0
0.0781372 -0.0588542 0
0.0778566 -0.0585548 0
0.0775715 -0.0582308 0
0.0772803 -0.0578828 0
0.0769832 -0.0575099 0
0.0766822 -0.0571097 0
0.0763801 -0.0566796 0
0.0760759 -0.0562196 0
0.0757623 -0.0557337 0
0.0754359 -0.0552232 0
0.0750951 -0.0546879 0
0.0747379 -0.054128 0
0.0743626 -0.0535435 0
0.0739688 -0.0529338 0
0.0735559 -0.0522981 0
0.0731238 -0.0516357 0
0.0726718 -0.050946 0
0.0721991 -0.0502288 0
0.0717046 -0.049484 0
0.0711872 -0.0487117 0
0.0706461 -0.047912 0
0.0700804 -0.0470849 0
0.0694892 -0.0462308 0
0.0688718 -0.0453499 0
0.0682271 -0.0444431 0
0.0675544 -0.043511 0
0.0668527 -0.0425546 0
0.0661215 -0.0415748 0
0.06536 -0.040573 0
0.0645676 -0.0395504 0
0.0637439 -0.0385087 0
0.0628887 -0.0374493 0
0.062002 -0.0363741 0
0.0610838 -0.0352847 0
0.0601345 -0.0341831 0
0.0591547 -0.033071 0
0.0581456 -0.0319502 0
0.0571083 -0.0308224 0
0.0560444 -0.0296893 0
0.0549562 -0.028552 0
0.053845 -0.0274126 0
0.0527113 -0.0262746 0
0.051554 -0.0251427 0
0.0503724 -0.0240222 0
0.0491675 -0.0229164 0
0.047941 -0.0218282 0
0.0466955 -0.0207597 0
0.0454337 -0.0197126 0
0.0441592 -0.0186878 0
0.0428751 -0.0176863 0
0.0415841 -0.0167097 0
0.0402878 -0.0157609 0
0.0389879 -0.0148428 0
0.0376864 -0.0139575 0
0.0363853 -0.013107 0
0.0350871 -0.0122931 0
0.0337942 -0.0115164 0
0.0325095 -0.0107772 0
0.0312357 -0.0100756 0
0.0299758 -0.00941024 0
0.0287337 -0.00877784 0
0.0275126 -0.00817571 0
0.0263139 -0.00760375 0
0.0251376 -0.00706528 0
0.0239829 -0.0065649 0
0.0228537 -0.00609619 0
0.0217522 -0.00565563 0
0.0206795 -0.00524226 0
0.0196364 -0.00485507 0
0.0186233 -0.00449318 0
0.0176408 -0.00415577 0
0.016689 -0.00384204 0
0.0157682 -0.00355115 0
0.0148783 -0.00328218 0
0.0140192 -0.00303468 0
0.0131906 -0.00280795 0
0.0123925 -0.00260016 0
0.0116246 -0.00241012 0
0.0108864 -0.00223769 0
0.0101774 -0.00208212 0
0.00949701 -0.00194206 0
0.00884483 -0.0018163 0
0.0082202 -0.0017039 0
0.00762247 -0.00160391 0
0.00705097 -0.00151528 0
0.006505 -0.00143697 0
0.0059838 -0.00136806 0
0.00548662 -0.00130772 0
0.00501265 -0.00125519 0
0.00456114 -0.00120954 0
0.00413136 -0.00116914 0
0.00372257 -0.00113251 0
0.00333398 -0.00109853 0
0.00296466 -0.00106798 0
0.00261363 -0.0010431 0
-0.052721 -0.0445996 0
-0.0508204 -0.0440823 0
-0.0489199 -0.0435651 0
-0.0470193 -0.0430478 0
-0.0451187 -0.0425306 0
-0.0432181 -0.0420134 0
-0.0413175 -0.0414961 0
-0.039417 -0.0409789 0
-0.0375164 -0.0404616 0
-0.0356158 -0.0399444 0
-0.0337152 -0.0394271 0
-0.0318146 -0.0389099 0
-0.0299141 -0.0383927 0
-0.0280135 -0.0378754 0
-0.0261129 -0.0373582 0
-0.0242123 -0.0368409 0
-0.0223117 -0.0363237 0
-0.0204112 -0.0358065 0
-0.0185106 -0.0352892 0
-0.01661 -0.034772 0
-0.0147094 -0.0342547 0
-0.0128088 -0.0337375 0
-0.0109083 -0.0332202 0
-0.00900769 -0.032703 0
-0.00710711 -0.0321858 0
-0.00520653 -0.0316685 0
-0.00330595 -0.0311513 0
-0.00140537 -0.030634 0
0.00190689 -0.0299614 0
0.00332271 -0.0298498 0
0.00474133 -0.0297825 0
0.00616136 -0.0297597 0
0.0075814 -0.0297814 0
0.00900007 -0.0298477 0
0.010416 -0.0299583 0
0.0118278 -0.0301127 0
0.0132342 -0.0303103 0
0.0146339 -0.0305504 0
0.0160259 -0.0308322 0
0.0174091 -0.0311546 0
0.0187824 -0.0315166 0
0.020145 -0.031917 0
0.0214961 -0.0323546 0
0.0228351 -0.032828 0
0.0241613 -0.0333361 0
0.0254744 -0.0338774 0
0.0267738 -0.0344507 0
0.0280592 -0.0350545 0
0.0293306 -0.0356877 0
0.0305875 -0.0363488 0
0.0318301 -0.0370367 0
0.0330581 -0.0377501 0
0.0342717 -0.0384879 0
0.0354708 -0.0392489 0
0.0366556 -0.0400321 0
0.0378262 -0.0408363 0
0.0389828 -0.0416607 0
0.0401254 -0.0425042 0
0.0412543 -0.0433659 0
0.0423698 -0.0442451 0
0.043472 -0.0451408 0
0.0445612 -0.0460523 0
0.0456375 -0.0469789 0
0.0467013 -0.0479199 0
0.0477529 -0.0488746 0
0.0487923 -0.0498424 0
0.04982 -0.0508227 0
0.0508362 -0.051815 0
0.051841 -0.0528187 0
0.0528348 -0.0538333 0
0.0538178 -0.0548584 0
0.0547903 -0.0558935 0
0.0557524 -0.0569382 0
0.0567045 -0.0579922 0
0.0576467 -0.0590549 0
0.0585792 -0.0601261 0
0.0595024 -0.0612055 0
0.0604163 -0.0622926 0
0.0613212 -0.0633873 0
0.0622174 -0.0644891 0
0.0631049 -0.0655979 0
0.0639841 -0.0667134 0
0.064855 -0.0678353 0
0.0657179 -0.0689633 0
0.0665729 -0.0700974 0
0.0674202 -0.0712372 0
0.06826 -0.0723826 0
0.0690925 -0.0735333 0
0.0699178 -0.0746892 0
0.070736 -0.0758501 0
0.0715473 -0.0770159 0
0.0723518 -0.0781863 0
0.0731498 -0.0793612 0
0.0739412 -0.0805405 0
0.0747264 -0.081724 0
0.0755053 -0.0829116 0
0.0762781 -0.0841033 0
0.0770449 -0.0852987 0
0.0778059 -0.0864979 0
0.0785611 -0.0877007 0
0.0793108 -0.088907 0
0.0814681 -0.0912706 0
0.0828814 -0.0924245 0
0.0842946 -0.0935783 0
0.0857079 -0.0947322 0
0.0871211 -0.095886 0
0.0885344 -0.0970399 0
0.0899476 -0.0981937 0
0.0913609 -0.0993476 0
0.0927741 -0.100501 0
0.0941874 -0.101655 0
0.0956006 -0.102809 0
0.0970139 -0.103963 0
0.0984272 -0.105117 0
0.0998404 -0.106271 0
0.101254 -0.107424 0
0.102667 -0.108578 0
0.10408 -0.109732 0
0.105493 -0.110886 0
0.106907 -0.11204 0
0.10832 -0.113194 0
0.109733 -0.114348 0
0.111146 -0.115501 0
0.11256 -0.116655 0
0.113973 -0.117809 0
0.115386 -0.118963 0
0.116799 -0.120117 0
0.118213 -0.121271 0
0.119626 -0.122424 0
0.121039 -0.123578 0
0.122452 -0.124732 0
0.123866 -0.125886 0
0.125279 -0.12704 0
0.126692 -0.128194 0
0.128105 -0.129348 0
0.129519 -0.130501 0
0.130932 -0.131655 0
0.132345 -0.132809 0
0.133758 -0.133963 0
0.135172 -0.133216 0
0.135172 -0.131316 0
0.135172 -0.129415 0
0.135172 -0.127514 0
0.135172 -0.125614 0
0.135172 -0.123713 0
0.135172 -0.121813 0
0.135172 -0.119912 0
0.135172 -0.118012 0
0.135172 -0.116111 0
0.135172 -0.11421 0
0.135172 -0.11231 0
0.135172 -0.110409 0
0.135172 -0.108509 0
0.135172 -0.106608 0
0.135172 -0.104708 0
0.135172 -0.102807 0
0.135172 -0.100906 0
0.135172 -0.0990058 0
0.135172 -0.0971052 0
0.135172 -0.0952046 0
0.135172 -0.0933041 0
0.135172 -0.0914035 0
0.135172 -0.0895029 0
0.135172 -0.0876023 0
0.135172 -0.0857017 0
0.135172 -0.0838012 0
0.135172 -0.0819006 0
0.133758 -0.0788462 0
0.132345 -0.0776923 0
0.130932 -0.0765385 0
0.129519 -0.0753846 0
0.128105 -0.0742308 0
0.126692 -0.0730769 0
0.125279 -0.0719231 0
0.123866 -0.0707692 0
0.122452 -0.0696154 0
0.121039 -0.0684615 0
0.119626 -0.0673077 0
0.118213 -0.0661538 0
0.116799 -0.065 0
0.115386 -0.0638462 0
0.113973 -0.0626923 0
0.11256 -0.0615385 0
0.111146 -0.0603846 0
0.109733 -0.0592308 0
0.10832 -0.0580769 0
0.106907 -0.0569231 0
0.105493 -0.0557692 0
0.10408 -0.0546154 0
0.102667 -0.0534615 0
0.101254 -0.0523077 0
0.0998404 -0.0511538 0
0.0984272 -0.05 0
0.0970139 -0.0488462 0
0.0956006 -0.0476923 0
[...]
CELL_DATA 13116
SCALARS rho float
LOOKUP_TABLE default
0.53947
0.683689
0.329977
0.716178
0.708656
0.694656
0.263674
0.719067
0.489824
0.711812
0.278722
0.446689
0.710033
0.343365
0.296979
0.699335
0.532516
0.68947
0.710625
0.344129
0.535238
0.321886
0.364394
0.695423
0.573666
0.697671
0.711615
0.328947
0.567478
0.625774
0.563353
0.393182
0.516634
0.404768
0.269742
0.5374
0.660975
0.698707
0.570096
0.717155
0.708532
0.718904
0.398643
0.340617
0.708008
0.709876
0.673321
0.71036
0.315295
0.479011
0.721597
0.407802
0.297803
0.523105
0.516042
0.549566
0.343415
0.692201
0.491738
0.30833
0.338883
0.714966
0.677477
0.569137
0.561991
0.336048
0.707653
0.655709
0.709735
0.562273
0.304952
0.545567
0.323718
0.34366
0.56219
0.328897
0.650757
0.706962
0.27286
0.684115
0.671112
0.69341
0.698061
0.706838
0.705294
0.399448
0.343428
0.644697
0.701599
0.34461
0.384192
0.686283
0.701747
0.705276
0.635215
0.569881
0.577683
0.56513
0.562547
0.559092
0.654062
0.633989
0.708886
0.377127
0.672865
0.304495
0.333969
0.446114
0.338785
0.578986
0.475339
0.685924
0.56656
0.672704
0.685114
0.710216
0.351057
0.354441
0.707758
0.716648
0.653808
0.319794
0.71002
0.38823
0.704719
0.395412
0.345992
0.462018
0.341732
0.479979
0.708218
0.693251
0.449843
0.319335
0.426792
0.583052
0.560256
0.709782
0.652284
0.717388
0.63478
0.675232
0.461917
0.637573
0.663697
0.341594
0.27511
0.691678
0.701863
0.721181
0.49631
0.707251
0.710798
0.314533
0.70734
0.706607
0.358246
0.661056
0.565383
0.643648
0.69471
0.270903
0.696738
0.353584
0.321134
0.716529
0.701604
0.688549
0.275511
0.409289
0.376946
0.560815
0.289305
0.44584
0.711672
0.366693
0.325857
0.322982
0.68457
0.687757
0.338486
0.387519
0.502179
0.658765
0.69803
0.491131
0.326461
0.707603
0.673956
0.413225
0.633973
0.6904
0.562282
0.357644
0.684914
0.692533
0.705342
0.707839
0.700626
0.34758
0.377828
0.585617
0.45673
0.347421
0.69976
0.701231
0.415078
0.579924
0.305217
0.317068
0.327278
0.708082
0.354313
0.350205
0.336957
0.316109
0.34239
0.575341
0.703443
0.386544
0.344747
0.707706
0.470337
0.336955
0.513682
0.713581
0.661399
0.332598
0.709703
0.357244
0.717822
0.390304
0.563476
0.533192
0.564637
0.712488
0.560946
0.317959
0.390228
0.64148
0.562724
0.689795
0.560453
0.560058
0.718104
0.326623
0.718815
0.709805
0.562462
0.283974
0.317268
0.70484
0.708654
0.563714
0.704569
0.531399
0.67083
0.28114
0.32207
0.347469
0.302782
0.667462
0.704813
0.649184
0.321445
0.705498
0.336838
0.384986
0.67404
0.307089
0.69455
0.720369
0.562262
0.691373
0.318942
0.562031
0.677721
0.562579
0.710167
0.299934
0.359048
0.356057
0.579673
0.322715
0.316856
0.316263
0.291861
0.698631
0.291148
0.70788
0.714716
0.338059
0.35505
0.337724
0.402868
0.323723
0.644181
0.614573
0.680853
0.30839
0.707922
0.54998
0.324036
0.305372
0.612424
0.709201
0.707391
0.326992
0.700987
0.386488
0.693188
0.718989
0.722082
0.719244
0.35531
0.707919
0.289542
0.704754
0.713011
0.639945
0.332861
0.313768
0.711328
0.34065
0.687009
0.7152
0.327772
0.671291
0.697402
0.343406
0.704907
0.701628
0.302695
0.708715
0.392184
0.536674
0.714566
0.404764
0.662845
0.326559
0.691593
0.317858
0.557406
0.646939
0.706998
0.333376
0.336519
0.70542
0.311233
0.701291
0.676623
0.381486
0.560864
0.320712
0.33368
0.702014
0.510616
0.658373
0.357666
0.35486
0.720171
0.713972
0.273909
0.717789
0.346439
0.311096
0.716768
0.715271
0.448748
0.344124
0.71106
0.564243
0.702112
0.703828
0.694894
0.49847
0.325298
0.296153
0.343741
0.697083
0.341879
0.501272
0.329482
0.359589
0.331408
0.456645
0.121573
0.311507
0.703009
0.398791
0.69875
0.566296
0.710821
0.637458
0.717528
0.331799
0.360069
0.351933
0.318948
0.699689
0.563011
0.709844
0.567885
0.665265
0.595
0.692109
0.618906
0.622956
0.695162
0.682882
0.670253
0.350641
0.422286
0.535351
0.328377
0.611425
0.548918
0.305047
0.709274
0.562402
0.355236
0.341022
0.338529
0.32538
0.589565
0.277865
0.357735
0.707912
0.334314
0.533422
0.346775
0.702583
0.677756
0.323163
0.320533
0.701102
0.402298
0.345396
0.328298
0.346632
0.339675
0.35825
0.343326
0.316682
0.387565
0.318807
0.63272
0.32008
0.707423
0.33502
0.395547
0.458185
0.345777
0.343262
0.343437
0.707078
0.389033
0.606201
0.455591
0.335766
0.583889
0.703266
0.39439
0.670216
0.599638
0.601013
0.349872
0.564774
0.357332
0.694663
0.563071
0.345984
0.283395
0.672305
0.321043
0.402018
0.65106
0.3335
0.659497
0.668309
0.353497
0.32582
0.288819
0.440194
0.306587
0.298559
0.290214
0.289031
0.717136
0.715864
0.408274
0.562401
0.428653
0.683303
0.331266
0.307423
0.496204
0.344769
0.698103
0.297869
0.345175
0.445536
0.707025
0.699275
0.519253
0.32735
0.281188
0.531395
0.719227
0.564887
0.528907
0.670029
0.66577
0.324442
0.676708
0.529149
0.640367
0.304343
0.323658
0.671257
0.704774
0.635192
0.713197
0.696956
0.70141
0.692779
0.638787
0.710722
0.338811
0.706295
0.319507
0.310793
0.347009
0.715743
0.702722
0.306863
0.705587
0.581027
0.333459
0.557839
0.709391
0.689948
0.329568
0.308231
0.705551
0.344038
0.332606
0.343805
0.328906
0.694919
0.295839
0.71544
0.320132
0.682379
0.721973
0.708869
0.712853
0.344928
0.353328
0.701955
0.718041
0.656775
0.717043
0.709074
0.451535
0.343477
0.341086
0.707035
0.488938
0.339332
0.404207
0.361589
0.712507
0.708322
0.301977
0.319821
0.705161
0.412532
0.701604
0.625837
0.344237
0.35565
0.652397
0.562708
0.350635
0.698079
0.702197
0.702213
0.32011
0.561262
0.346845
0.563936
0.638219
0.34138
0.338618
0.317035
0.561528
0.336915
0.277851
0.356926
0.557563
0.692263
0.275131
0.32135
0.339742
0.554603
0.322075
0.69674
0.340967
0.5485
0.713383
0.336764
0.355996
0.361985
0.454915
0.339034
0.697709
0.325401
0.313868
0.687805
0.282222
0.708186
0.682988
0.563928
0.346745
0.69922
0.701334
0.704871
0.707327
0.710502
0.716447
0.363819
0.566592
0.391707
0.693852
0.315517
0.718509
0.462225
0.279292
0.563423
0.699146
0.305439
0.61697
0.381988
0.304593
0.70795
0.706654
0.370356
0.341873
0.272691
0.361647
0.711939
0.69544
0.316438
0.345126
0.700612
0.710997
0.550909
0.700808
0.707684
0.279207
0.707697
0.382909
0.721681
0.357183
0.561513
0.429543
0.707542
0.659319
0.538572
0.325664
0.333307
0.708196
0.568384
0.521254
0.699936
0.297248
0.679205
0.706229
0.338199
0.417183
0.702338
0.326235
0.563602
0.643275
0.30831
0.72015
0.632095
0.328765
0.68963
0.357313
0.699773
0.337094
0.708111
0.6755
0.336434
0.58013
0.69794
0.704162
0.583899
0.681925
0.545439
0.312958
0.383674
0.404712
0.338616
0.560245
0.516419
0.709442
0.701253
0.344367
0.314218
0.688076
0.71368
0.701036
0.720365
0.331894
0.682576
0.710027
0.340978
0.36418
0.707336
0.705491
0.703891
0.358671
0.554987
0.322209
0.687468
0.683868
0.566745
0.692787
0.33618
0.689085
0.707599
0.700347
0.707864
0.70731
0.38887
0.694869
0.317268
0.650525
0.711518
0.407074
0.66956
0.565556
0.722159
0.384182
0.367075
0.547182
0.627482
0.342442
0.340116
0.309954
0.320087
0.682854
0.677828
0.561943
0.291611
0.308187
0.709872
0.661512
0.315979
0.31271
0.411655
0.666042
0.70806
0.704374
0.684211
0.3207
0.341519
0.561279
0.390566
0.349174
0.323407
0.705404
0.322346
0.346034
0.54226
0.698159
0.683489
0.648337
0.706775
0.350416
0.289751
0.311921
0.462103
0.391472
0.388264
0.656456
0.681994
0.697421
0.7094
0.391098
0.34873
0.712897
0.33662
0.706395
0.676152
0.565314
0.371056
0.347089
0.69567
0.563361
0.562199
0.303174
0.704151
0.670691
0.538752
0.721682
0.720065
0.561608
0.668478
0.335495
0.706517
0.563482
0.628386
0.686673
0.560407
0.686511
0.562935
0.710745
0.308157
0.33628
0.346397
0.565426
0.464903
0.338444
0.688481
0.700059
0.441153
0.623176
0.32254
0.634247
0.446411
0.315414
0.714268
0.693588
0.341807
0.515321
0.564481
0.350525
0.705365
0.335346
0.305274
0.591189
0.571964
0.455703
0.709712
0.311134
0.696305
0.333449
0.403822
0.70822
0.337519
0.573301
0.365093
0.625171
0.563518
0.562401
0.700145
0.295669
0.318602
0.640848
0.403594
0.700249
0.414961
0.561799
0.694242
0.699675
0.41533
0.576447
0.684288
0.706107
0.707723
0.324639
0.335253
0.4991
0.684593
0.706371
0.337023
0.708609
0.564176
0.350547
0.366997
0.642473
0.665825
0.56054
0.561916
0.647414
0.676051
0.565078
0.665956
0.375857
0.631528
0.407721
0.721918
0.705159
0.284542
0.713215
0.708513
0.338426
0.307134
0.339433
0.560483
0.272475
0.588961
0.692011
0.631436
0.315484
0.698757
0.343261
0.55507
0.56493
0.563013
0.65523
0.561131
0.585573
0.670041
0.488662
0.693231
0.337791
0.705165
0.708866
0.385949
0.562508
0.681613
0.354517
0.29785
0.347924
0.722339
0.339615
0.561969
0.313736
0.718838
0.283501
0.432325
0.369944
0.693632
0.72067
0.52846
0.260148
0.58692
0.58616
0.322053
0.550239
0.715688
0.391199
0.552817
0.562776
0.713313
0.707379
0.347044
0.439578
0.701738
0.710716
0.651307
0.343594
0.363363
0.701434
0.561278
0.562653
0.561269
0.525302
0.69391
0.52093
0.718966
0.343478
0.349148
0.561483
0.706189
0.547154
0.333524
0.705567
0.539625
0.582868
0.336481
0.375114
0.717482
0.716333
0.514316
0.322615
0.710301
0.563224
0.268703
0.575764
0.683169
0.270381
0.398368
0.289459
0.677945
0.318084
0.341785
0.70375
0.419607
0.707122
0.630503
0.272699
0.348235
0.71786
0.338406
0.283558
0.563393
0.299807
0.334127
0.556703
0.710066
0.697345
0.310752
0.323494
0.280334
0.683969
0.305433
0.69838
0.28051
0.69044
0.706047
0.706454
0.67528
0.687109
0.682244
0.708017
0.711982
0.702112
0.293848
0.310881
0.687037
0.587859
0.468376
0.67911
0.516923
0.555911
0.626967
0.323387
0.714894
0.715216
0.694153
0.285655
0.689127
0.324596
0.705873
0.457171
0.68628
0.707482
0.31642
0.698537
0.339051
0.399296
0.676778
0.323638
0.663128
0.560751
0.715491
0.323661
0.707812
0.320103
0.375828
0.358476
0.337451
0.628354
0.289842
0.637033
0.561945
0.322495
0.356917
0.442024
0.541992
0.608894
0.658254
0.346552
0.34105
0.27483
0.364722
0.254416
0.610745
0.68939
0.326963
0.554531
0.691737
0.288631
0.714726
0.659496
0.560002
0.297954
0.56255
0.680762
0.696536
0.721157
0.305956
0.697277
0.699173
0.690088
0.641915
0.683993
0.316196
0.357318
0.708223
0.497023
0.347379
0.708297
0.367091
0.536202
0.610242
0.698376
0.701616
0.377447
0.677815
0.345043
0.28946
0.674842
0.703532
0.700674
0.715286
0.654937
0.377284
0.712659
0.304954
0.466106
0.716591
0.562697
0.701312
0.287807
0.31699
0.711167
0.322143
0.705429
0.616623
0.384824
0.312215
0.716243
0.367764
0.707388
0.704759
0.655426
0.36519
0.337451
0.455484
0.483199
0.597275
0.424118
0.699384
0.660039
0.709546
0.560084
0.690556
0.27305
0.313153
0.706614
0.676275
0.646828
0.407611
0.339741
0.675999
0.29012
0.708049
0.580153
0.32417
0.698772
0.304018
0.70636
0.3292
0.703331
0.312076
0.701599
0.670731
0.434001
0.705086
0.627454
0.422872
0.561517
0.710368
0.517094
0.345859
0.33235
0.417963
0.702076
0.649807
0.31544
0.552108
0.692312
0.682463
0.314089
0.595231
0.695805
0.408748
0.697313
0.703944
0.279695
0.705394
0.562918
0.331507
0.570363
0.325896
0.636637
0.316766
0.309401
0.704124
0.340949
0.340435
0.292033
0.707663
0.687589
0.356047
0.710508
0.33228
0.6718
0.324444
0.69035
0.331149
0.697864
0.708656
0.64748
0.562633
0.518263
0.679485
0.56279
0.327375
0.60783
0.650088
0.481346
0.689845
0.450473
0.371331
0.711787
0.33011
0.530893
0.322522
0.709484
0.308818
0.358931
0.69336
0.707471
0.354822
0.720287
0.681272
0.560469
0.720396
0.561303
0.334655
0.714453
0.345242
0.353362
0.702131
0.686413
0.718923
0.707423
0.385622
0.3164
0.276797
0.687236
0.56291
0.331609
0.711874
0.339506
0.319316
0.33142
0.704579
0.357392
0.714118
0.701544
0.605149
0.706661
0.701696
0.543385
0.645066
0.39153
0.418395
0.353819
0.561275
0.561573
0.332804
0.610359
0.675466
0.644719
0.347429
0.386412
0.661893
0.28087
0.655846
0.614953
0.349631
0.602787
0.685208
0.334717
0.69727
0.273537
0.708984
0.708956
0.687728
0.294127
0.424701
0.661853
0.30013
0.397697
0.706815
0.305469
0.63666
0.707797
0.693451
0.681613
0.328297
0.562668
0.673731
0.710736
0.339835
0.715764
0.330763
0.345923
0.701867
0.708165
0.561528
0.235489
0.707766
0.60441
0.562372
0.340153
0.34911
0.345562
0.717696
0.266879
0.282069
0.330329
0.612899
0.27792
0.290289
0.396908
0.699326
0.342704
0.561682
0.560375
0.712342
0.324329
0.708342
0.635489
0.563679
0.377308
0.639019
0.269664
0.329133
0.707793
0.354388
0.61253
0.689644
0.561984
0.351476
0.312279
0.304753
0.527034
0.560351
0.239965
0.698969
0.707744
0.684989
0.323155
0.300515
0.322181
0.655701
0.345115
0.560179
0.572383
0.59157
0.701715
0.294048
0.617444
0.373758
0.614822
0.618745
0.713379
0.59741
0.485373
0.641355
0.649592
0.707072
0.322605
0.333446
0.332806
0.684998
0.494474
0.56288
0.350794
0.366085
0.693697
0.707735
0.563613
0.353144
0.716553
0.523502
0.525003
0.651809
0.34093
0.349547
0.281817
0.708247
0.565643
0.639111
0.681965
0.321485
0.715646
0.632104
0.566491
0.556624
0.716079
0.714999
0.698337
0.686352
0.699632
0.344783
0.710554
0.717428
0.704046
0.708888
0.708233
0.578468
0.341478
0.306681
0.634068
0.345498
0.324938
0.716268
0.308772
0.604819
0.709565
0.68336
0.695781
0.352403
0.718377
0.356099
0.333632
0.705874
0.693864
0.709319
0.325199
0.719114
0.709965
0.641025
0.70708
0.327042
0.702526
0.711649
0.682113
0.346925
0.692147
0.292699
0.715553
0.326391
0.339918
0.536299
0.403876
0.714176
0.694599
0.706667
0.331799
0.696893
0.358539
0.29469
0.694647
0.44959
0.344445
0.708236
0.311588
0.477084
0.650202
0.668128
0.70005
0.447772
0.562873
0.641711
0.705922
0.579401
0.700946
0.495959
0.715844
0.681252
0.631465
0.366365
0.270661
0.401382
0.712872
0.353388
0.641627
0.72116
0.573477
0.706485
0.513481
0.664442
0.666753
0.294065
0.718953
0.675189
0.494593
0.675406
0.712093
0.698238
0.63262
0.324031
0.317861
0.693567
0.499139
0.526116
0.709745
0.704777
0.710648
0.704828
0.708085
0.597021
0.659778
0.713093
0.289639
0.417554
0.319964
0.322064
0.562395
0.411578
0.516362
0.698415
0.670603
0.348902
0.696226
0.716151
0.327006
0.349554
0.56209
0.711185
0.33809
0.359397
0.349168
0.560076
0.697324
0.350923
0.26507
0.347007
0.311696
0.31961
0.345717
0.717656
0.709385
0.684047
0.318789
0.685232
0.587519
0.576536
0.307178
0.33851
0.694001
0.561433
0.346618
0.699339
0.335577
0.693825
0.34516
0.712505
0.337277
0.698772
0.718143
0.322144
0.529244
0.319127
0.714674
0.296329
0.594214
0.370034
0.463543
0.274439
0.586741
0.324082
0.563299
0.562635
0.575486
0.687279
0.306214
0.691325
0.612613
0.718635
0.584072
0.673204
0.340417
0.382212
0.332344
0.701961
0.298453
0.707234
0.50658
0.685372
0.713639
0.439726
0.695566
0.301411
0.333885
0.289388
0.466005
0.541077
0.70332
0.309944
0.317662
0.708333
0.349882
0.371639
0.570613
0.34477
0.346394
0.312831
0.718459
0.625346
0.598322
0.35709
0.687191
0.70843
0.407631
0.309642
0.708471
0.706049
0.612789
0.480895
0.374697
0.340645
0.315138
0.711914
0.635046
0.486633
0.671447
0.308992
0.537431
0.294245
0.563076
0.709817
0.344665
0.325002
0.640766
0.565054
0.713288
0.699817
0.703184
0.721473
0.715734
0.318933
0.325256
0.333409
0.309135
0.535809
0.563906
0.627661
0.322535
0.346764
0.410841
0.399462
0.710812
0.665879
0.336765
0.300599
0.709149
0.348294
0.642033
0.696379
0.685763
0.686416
0.541428
0.331801
0.338382
0.657345
0.346058
0.391014
0.352706
0.590175
0.70832
0.298593
0.349701
0.560675
0.322578
0.709892
0.702176
0.345056
0.338644
0.285872
0.710773
0.351687
0.560672
0.685802
0.576698
0.387907
0.494047
0.705905
0.698664
0.25474
0.698517
0.634131
0.402344
0.706173
0.715882
0.283203
0.346839
0.694314
0.314034
0.314675
0.694673
0.328288
0.70855
0.663782
0.699878
0.634715
0.705022
0.70814
0.661463
0.270942
0.374069
0.65085
0.694344
0.420672
0.714617
0.313989
0.710711
0.70144
0.533808
0.633943
0.382649
0.408414
0.697412
0.702826
0.679969
0.718816
0.70862
0.561405
0.720279
0.560465
0.709846
0.69585
0.71461
0.562035
0.682199
0.367421
0.694285
0.328581
0.715835
0.710934
0.689984
0.680642
0.679829
0.33791
0.309926
0.305732
0.257215
0.682834
0.349218
0.298065
0.674132
0.368121
0.685326
0.313177
0.69594
0.698136
0.341426
0.351338
0.324542
0.712397
0.351245
0.703078
0.697749
0.307161
0.692789
0.518426
0.32856
0.331666
0.411475
0.675146
0.347458
0.717523
0.509809
0.319167
0.708868
0.709247
0.703025
0.336425
0.545145
0.375142
0.686544
0.633328
0.712327
0.343117
0.693372
0.709543
0.681886
0.370152
0.71086
0.334368
0.325361
0.713204
0.406706
0.710684
0.374783
0.345294
0.39685
0.683387
0.334607
0.334088
0.336882
0.452872
0.56235
0.698665
0.340153
0.580228
0.709791
0.527151
0.400248
0.324236
0.522008
0.337843
0.313832
0.70505
0.32842
0.342561
0.722365
0.716696
0.324411
0.687411
0.319044
0.56168
0.326696
0.696159
0.564068
0.682402
0.580259
0.335016
0.30965
0.367005
0.679238
0.695964
0.561357
0.50244
0.345129
0.304682
0.704256
0.273971
0.708824
0.351809
0.565675
0.657629
0.333338
0.338328
0.332433
0.348737
0.334229
0.642338
0.683928
0.335986
0.708622
0.620841
0.312901
0.288091
0.71583
0.343971
0.700408
0.387313
0.683061
0.639621
0.708993
0.562888
0.314091
0.708614
0.709938
0.718055
0.342649
0.649434
0.566663
0.324253
0.716231
0.646826
0.715612
0.68952
0.715357
0.711783
0.719658
0.704473
0.710671
0.344671
0.701243
0.333918
0.420177
0.706468
0.368558
0.701741
0.664401
0.318279
0.681009
0.343834
0.382843
0.705196
0.652844
0.716933
0.309243
0.689857
0.591122
0.32642
0.323979
0.701882
0.708397
0.352538
0.336033
0.690233
0.716169
0.349832
0.627494
0.716764
0.628502
0.33576
0.335493
0.380133
0.638943
0.313807
0.697484
0.684087
0.704987
0.592247
0.70055
0.311872
0.703095
0.584725
0.717646
0.597098
0.355804
0.26409
0.310021
0.696133
0.699944
0.387319
0.637642
0.325121
0.650411
0.715206
0.300139
0.631402
0.69654
0.601425
0.320433
0.355675
0.322892
0.704498
0.71067
0.587835
0.479902
0.705695
0.346708
0.612713
0.562287
0.69272
0.319813
0.592979
0.317461
0.671341
0.311989
0.699487
0.704875
0.355641
0.705889
0.403373
0.561772
0.630877
0.560203
0.722413
0.382138
0.70296
0.709554
0.709667
0.700459
0.442158
0.562153
0.289986
0.710034
0.308537
0.347704
0.309286
0.336214
0.340633
0.324318
0.717293
0.344249
0.286358
0.653471
0.70619
0.68581
0.352999
0.675248
0.669829
0.667808
0.409576
0.596773
0.707663
0.317476
0.333558
0.30777
0.607185
0.472458
0.348953
0.587112
0.400079
0.561482
0.465388
0.336709
0.424592
0.633778
0.32206
0.708623
0.301903
0.471313
0.347975
0.712677
0.354425
0.651472
0.562158
0.670349
0.396124
0.329939
0.71128
0.715706
0.332778
0.377776
0.690564
0.346132
0.690722
0.317617
0.522322
0.308804
0.707902
0.325817
0.716803
0.349266
0.717196
0.70368
0.703893
0.563155
0.287814
0.361099
0.350765
0.699602
0.672547
0.682187
0.547529
0.31907
0.694245
0.324261
0.694816
0.641351
0.371399
0.313674
0.697885
0.701182
0.371962
0.563877
0.713103
0.698916
0.700122
0.303961
0.616072
0.341156
0.699451
0.317847
0.557882
0.691944
0.710604
0.717664
0.314025
0.716882
0.337865
0.295242
0.708632
0.563336
0.512575
0.695717
0.56237
0.344977
0.690846
0.710806
0.719639
0.372876
0.388459
0.668285
0.345869
0.711047
0.720997
0.701595
0.71405
0.288951
0.409555
0.628965
0.359704
0.702232
0.714868
0.432225
0.702865
0.264061
0.657636
0.69184
0.65805
0.704095
0.349077
0.355844
0.702849
0.698999
0.319427
0.310444
0.331598
0.35564
0.284626
0.417314
0.323838
0.346741
0.70045
0.308275
0.334155
0.689068
0.512173
0.560739
0.364873
0.35083
0.710275
0.423062
0.46187
0.70798
0.34872
0.634676
0.562085
0.578734
0.690814
0.349831
0.699462
0.563309
0.310864
0.32011
0.373984
0.66224
0.579107
0.714595
0.701454
0.693316
0.692506
0.335692
0.703316
0.574781
0.705676
0.335546
0.708263
0.621331
0.33227
0.389889
0.293732
0.373436
0.285526
0.560288
0.651563
0.686879
0.317627
0.358056
0.717819
0.431173
0.696215
0.709958
0.700657
0.658048
0.707473
0.319
0.375667
0.35151
0.542966
0.315794
0.711115
0.349798
0.707189
0.698363
0.710466
0.320924
0.407464
0.379746
0.702656
0.336181
0.299056
0.716517
0.691397
0.62166
0.695938
0.701963
0.689803
0.334432
0.594006
0.703965
0.49789
0.701475
0.696607
0.693748
0.413623
0.387027
0.719356
0.460139
0.600682
0.337654
0.670371
0.7036
0.348341
0.313431
0.682696
0.467368
0.702181
0.695478
0.347229
0.342094
0.563072
0.383485
0.359084
0.706084
0.701308
0.316706
0.701459
0.565677
0.680364
0.335369
0.561529
0.33301
0.709287
0.709582
0.69019
0.684024
0.561878
0.287942
0.327627
0.687248
0.328051
0.576906
0.317885
0.708222
0.344871
0.637292
0.702299
0.561584
0.342344
0.560488
0.562004
0.28905
0.66898
0.41304
0.718497
0.345951
0.336424
0.341146
0.678388
0.707277
0.308049
0.296773