# vtk DataFile Version 1.0
unstructured grid
ascii
DATASET UNSTRUCTURED_GRID
points 13672 float
0.0796578 -0.059106 0
0.00128732 0.00159165 0
0.00227961 -0.00102548 0
0.0791586 -0.0598787 0
-0.0546216 0.01 0
0.000495206 0.025 0
0.0800549 -0.035 0
0.135172 -0.08 0
-0.0546216 -0.0451168 0
0.000495206 -0.0301168 0
0.0800549 -0.0901168 0
0.135172 -0.135117 0
-0.0546216 -0.0451168 -0.00551168
0.000495206 -0.0301168 -0.00551168
0.0800549 -0.0901168 -0.00551168
0.135172 -0.135117 -0.00551168
0.135172 -0.08 -0.00551168
0.0800549 -0.035 -0.00551168
0.000495206 0.025 -0.00551168
-0.0546216 0.01 -0.00551168
0.00128732 0.00159165 -0.00551168
0.00227961 -0.00102548 -0.00551168
0.0791586 -0.0598787 -0.00551168
0.0796578 -0.059106 -0.00551168
0.00165953 -0.000990923 0
0.00119576 -0.000874076 0
0.000866021 -0.000641801 0
0.000645147 -0.000349912 0
0.00052235 -1.7281e-05 0
0.00049972 0.000348016 0
0.000601632 0.000737716 0
0.000861774 0.0011403 0
0.00157235 0.00183217 0
0.00188647 0.00206725 0
0.00222612 0.00230203 0
0.00258713 0.00254351 0
0.00296826 0.00279524 0
0.00337118 0.00305664 0
0.00379785 0.00332658 0
0.00425045 0.00360349 0
0.00473139 0.00388521 0
0.0052432 0.00416895 0
0.0057881 0.00445204 0
0.00636753 0.00473281 0
0.00698281 0.00500961 0
0.00763526 0.00528058 0
0.00832616 0.00554366 0
0.00905691 0.00579603 0
0.00982918 0.00603333 0
0.0106445 0.00625033 0
0.0115038 0.00644128 0
0.0124073 0.00660297 0
0.0133543 0.00673414 0
0.0143444 0.00683382 0
0.0153769 0.00690031 0
0.0164512 0.00693173 0
0.0175666 0.00692547 0
0.0187219 0.00687822 0
0.0199156 0.00678477 0
0.0211454 0.00663864 0
0.0224084 0.00643275 0
0.0237018 0.00616676 0
0.0250249 0.00584739 0
0.026375 0.00547298 0
0.0277479 0.00503752 0
0.0291386 0.00453545 0
0.0305433 0.0039653 0
0.0319572 0.0033256 0
0.0333681 0.00260019 0
0.034775 0.00179799 0
0.0361793 0.000930615 0
0.0375798 3.12222e-06 0
0.0389689 -0.000988429 0
0.0403357 -0.00205109 0
0.041675 -0.00318283 0
0.0429849 -0.00437751 0
0.0442643 -0.00562904 0
0.0455126 -0.00693089 0
0.0467314 -0.00827518 0
0.0479204 -0.00965638 0
0.0490661 -0.0110799 0
0.0501515 -0.0125519 0
0.0511696 -0.0140695 0
0.0521492 -0.0156071 0
0.0531202 -0.0171411 0
0.0540851 -0.0186663 0
0.0550431 -0.0201798 0
0.0559923 -0.0216793 0
0.0569311 -0.0231626 0
0.0578582 -0.0246273 0
0.0587723 -0.0260715 0
0.0596721 -0.027493 0
0.0605563 -0.02889 0
0.0614241 -0.0302609 0
0.0622742 -0.0316042 0
0.063106 -0.0329183 0
0.0639186 -0.034202 0
0.0647113 -0.0354543 0
0.0654835 -0.0366743 0
0.0662345 -0.0378613 0
0.0669642 -0.0390145 0
0.0676726 -0.0401333 0
0.0683597 -0.0412172 0
0.0690246 -0.0422665 0
0.0696662 -0.0432819 0
0.0702841 -0.0442636 0
0.0708793 -0.0452111 0
0.0714538 -0.0461237 0
0.072009 -0.047001 0
0.0725452 -0.0478434 0
0.0730611 -0.0486524 0
0.073556 -0.0494294 0
0.0740291 -0.0501756 0
0.0744812 -0.0508916 0
0.0749138 -0.0515773 0
0.0753285 -0.0522331 0
0.0757266 -0.0528592 0
0.076109 -0.0534564 0
0.0764753 -0.0540264 0
0.0768243 -0.054571 0
0.0771553 -0.0550919 0
0.0774679 -0.0555901 0
0.0777617 -0.0560669 0
0.0780369 -0.056523 0
0.0782958 -0.0569578 0
0.0785421 -0.0573703 0
0.0787786 -0.0577603 0
0.0790073 -0.0581279 0
0.0792295 -0.058474 0
0.0794462 -0.0587995 0
0.0798803 -0.0594162 0
0.0800272 -0.0596588 0
0.0800357 -0.0598891 0
0.0799275 -0.0600784 0
0.0797205 -0.0601773 0
0.0794593 -0.0601051 0
0.0789155 -0.0596491 0
0.0786707 -0.0593963 0
0.0784111 -0.0591319 0
0.0781372 -0.0588542 0
0.0778566 -0.0585548 0
0.0775715 -0.0582308 0
0.0772803 -0.0578828 0
0.0769832 -0.0575099 0
0.0766822 -0.0571097 0
0.0763801 -0.0566796 0
0.0760759 -0.0562196 0
0.0757623 -0.0557337 0
0.0754359 -0.0552232 0
0.0750951 -0.0546879 0
0.0747379 -0.054128 0
0.0743626 -0.0535435 0
0.0739688 -0.0529338 0
0.0735559 -0.0522981 0
0.0731238 -0.0516357 0
0.0726718 -0.050946 0
0.0721991 -0.0502288 0
0.0717046 -0.049484 0
0.0711872 -0.0487117 0
0.0706461 -0.047912 0
0.0700804 -0.0470849 0
0.0694892 -0.0462308 0
0.0688718 -0.0453499 0
0.0682271 -0.0444431 0
0.0675544 -0.043511 0
0.0668527 -0.0425546 0
0.0661215 -0.0415748 0
0.06536 -0.040573 0
0.0645676 -0.0395504 0
0.0637439 -0.0385087 0
0.0628887 -0.0374493 0
0.062002 -0.0363741 0
0.0610838 -0.0352847 0
0.0601345 -0.0341831 0
0.0591547 -0.033071 0
0.0581456 -0.0319502 0
0.0571083 -0.0308224 0
0.0560444 -0.0296893 0
0.0549562 -0.028552 0
0.053845 -0.0274126 0
0.0527113 -0.0262746 0
0.051554 -0.0251427 0
0.0503724 -0.0240222 0
0.0491675 -0.0229164 0
0.047941 -0.0218282 0
0.0466955 -0.0207597 0
0.0454337 -0.0197126 0
0.0441592 -0.0186878 0
0.0428751 -0.0176863 0
0.0415841 -0.0167097 0
0.0402878 -0.0157609 0
0.0389879 -0.0148428 0
0.0376864 -0.0139575 0
0.0363853 -0.013107 0
0.0350871 -0.0122931 0
0.0337942 -0.0115164 0
0.0325095 -0.0107772 0
0.0312357 -0.0100756 0
0.0299758 -0.00941024 0
0.0287337 -0.00877784 0
0.0275126 -0.00817571 0
0.0263139 -0.00760375 0
0.0251376 -0.00706528 0
0.0239829 -0.0065649 0
0.0228537 -0.00609619 0
0.0217522 -0.00565563 0
0.0206795 -0.00524226 0
0.0196364 -0.00485507 0
0.0186233 -0.00449318 0
0.0176408 -0.00415577 0
0.016689 -0.00384204 0
0.0157682 -0.00355115 0
0.0148783 -0.00328218 0
0.0140192 -0.00303468 0
0.0131906 -0.00280795 0
0.0123925 -0.00260016 0
0.0116246 -0.00241012 0
0.0108864 -0.00223769 0
0.0101774 -0.00208212 0
0.00949701 -0.00194206 0
0.00884483 -0.0018163 0
0.0082202 -0.0017039 0
0.00762247 -0.00160391 0
0.00705097 -0.00151528 0
0.006505 -0.00143697 0
0.0059838 -0.00136806 0
0.00548662 -0.00130772 0
0.00501265 -0.00125519 0
0.00456114 -0.00120954 0
0.00413136 -0.00116914 0
0.00372257 -0.00113251 0
0.00333398 -0.00109853 0
0.00296466 -0.00106798 0
0.00261363 -0.0010431 0
-0.052721 -0.0445996 0
-0.0508204 -0.0440823 0
-0.0489199 -0.0435651 0
-0.0470193 -0.0430478 0
-0.0451187 -0.0425306 0
-0.0432181 -0.0420134 0
-0.0413175 -0.0414961 0
-0.039417 -0.0409789 0
-0.0375164 -0.0404616 0
-0.0356158 -0.0399444 0
-0.0337152 -0.0394271 0
-0.0318146 -0.0389099 0
-0.0299141 -0.0383927 0
-0.0280135 -0.0378754 0
-0.0261129 -0.0373582 0
-0.0242123 -0.0368409 0
-0.0223117 -0.0363237 0
-0.0204112 -0.0358065 0
-0.0185106 -0.0352892 0
-0.01661 -0.034772 0
-0.0147094 -0.0342547 0
-0.0128088 -0.0337375 0
-0.0109083 -0.0332202 0
-0.00900769 -0.032703 0
-0.00710711 -0.0321858 0
-0.00520653 -0.0316685 0
-0.00330595 -0.0311513 0
-0.00140537 -0.030634 0
0.00190689 -0.0299614 0
0.00332271 -0.0298498 0
0.00474133 -0.0297825 0
0.00616136 -0.0297597 0
0.0075814 -0.0297814 0
0.00900007 -0.0298477 0
0.010416 -0.0299583 0
0.0118278 -0.0301127 0
0.0132342 -0.0303103 0
0.0146339 -0.0305504 0
0.0160259 -0.0308322 0
0.0174091 -0.0311546 0
0.0187824 -0.0315166 0
0.020145 -0.031917 0
0.0214961 -0.0323546 0
0.0228351 -0.032828 0
0.0241613 -0.0333361 0
0.0254744 -0.0338774 0
0.0267738 -0.0344507 0
0.0280592 -0.0350545 0
0.0293306 -0.0356877 0
0.0305875 -0.0363488 0
0.0318301 -0.0370367 0
0.0330581 -0.0377501 0
0.0342717 -0.0384879 0
0.0354708 -0.0392489 0
0.0366556 -0.0400321 0
0.0378262 -0.0408363 0
0.0389828 -0.0416607 0
0.0401254 -0.0425042 0
0.0412543 -0.0433659 0
0.0423698 -0.0442451 0
0.043472 -0.0451408 0
0.0445612 -0.0460523 0
0.0456375 -0.0469789 0
0.0467013 -0.0479199 0
0.0477529 -0.0488746 0
0.0487923 -0.0498424 0
0.04982 -0.0508227 0
0.0508362 -0.051815 0
0.051841 -0.0528187 0
0.0528348 -0.0538333 0
0.0538178 -0.0548584 0
0.0547903 -0.0558935 0
0.0557524 -0.0569382 0
0.0567045 -0.0579922 0
0.0576467 -0.0590549 0
0.0585792 -0.0601261 0
0.0595024 -0.0612055 0
0.0604163 -0.0622926 0
0.0613212 -0.0633873 0
0.0622174 -0.0644891 0
0.0631049 -0.0655979 0
0.0639841 -0.0667134 0
0.064855 -0.0678353 0
0.0657179 -0.0689633 0
0.0665729 -0.0700974 0
0.0674202 -0.0712372 0
0.06826 -0.0723826 0
0.0690925 -0.0735333 0
0.0699178 -0.0746892 0
0.070736 -0.0758501 0
0.0715473 -0.0770159 0
0.0723518 -0.0781863 0
0.0731498 -0.0793612 0
0.0739412 -0.0805405 0
0.0747264 -0.081724 0
0.0755053 -0.0829116 0
0.0762781 -0.0841033 0
0.0770449 -0.0852987 0
0.0778059 -0.0864979 0
0.0785611 -0.0877007 0
0.0793108 -0.088907 0
0.0814681 -0.0912706 0
0.0828814 -0.0924245 0
0.0842946 -0.0935783 0
0.0857079 -0.0947322 0
0.0871211 -0.095886 0
0.0885344 -0.0970399 0
0.0899476 -0.0981937 0
0.0913609 -0.0993476 0
0.0927741 -0.100501 0
0.0941874 -0.101655 0
0.0956006 -0.102809 0
0.0970139 -0.103963 0
0.0984272 -0.105117 0
0.0998404 -0.106271 0
0.101254 -0.107424 0
0.102667 -0.108578 0
0.10408 -0.109732 0
0.105493 -0.110886 0
0.106907 -0.11204 0
0.10832 -0.113194 0
0.109733 -0.114348 0
0.111146 -0.115501 0
0.11256 -0.116655 0
0.113973 -0.117809 0
0.115386 -0.118963 0
0.116799 -0.120117 0
0.118213 -0.121271 0
0.119626 -0.122424 0
0.121039 -0.123578 0
0.122452 -0.124732 0
0.123866 -0.125886 0
0.125279 -0.12704 0
0.126692 -0.128194 0
0.128105 -0.129348 0
0.129519 -0.130501 0
0.130932 -0.131655 0
0.132345 -0.132809 0
0.133758 -0.133963 0
0.135172 -0.133216 0
0.135172 -0.131316 0
0.135172 -0.129415 0
0.135172 -0.127514 0
0.135172 -0.125614 0
0.135172 -0.123713 0
0.135172 -0.121813 0
0.135172 -0.119912 0
0.135172 -0.118012 0
0.135172 -0.116111 0
0.135172 -0.11421 0
0.135172 -0.11231 0
0.135172 -0.110409 0
0.135172 -0.108509 0
0.135172 -0.106608 0
0.135172 -0.104708 0
0.135172 -0.102807 0
0.135172 -0.100906 0
0.135172 -0.0990058 0
0.135172 -0.0971052 0
0.135172 -0.0952046 0
0.135172 -0.0933041 0
0.135172 -0.0914035 0
0.135172 -0.0895029 0
0.135172 -0.0876023 0
0.135172 -0.0857017 0
0.135172 -0.0838012 0
0.135172 -0.0819006 0
0.133758 -0.0788462 0
0.132345 -0.0776923 0
0.130932 -0.0765385 0
0.129519 -0.0753846 0
0.128105 -0.0742308 0
0.126692 -0.0730769 0
0.125279 -0.0719231 0
0.123866 -0.0707692 0
0.122452 -0.0696154 0
0.121039 -0.0684615 0
0.119626 -0.0673077 0
0.118213 -0.0661538 0
0.116799 -0.065 0
0.115386 -0.0638462 0
0.113973 -0.0626923 0
0.11256 -0.0615385 0
0.111146 -0.0603846 0
0.109733 -0.0592308 0
0.10832 -0.0580769 0
0.106907 -0.0569231 0
0.105493 -0.0557692 0
0.10408 -0.0546154 0
0.102667 -0.0534615 0
0.101254 -0.0523077 0
0.0998404 -0.0511538 0
0.0984272 -0.05 0
0.0970139 -0.0488462 0
0.0956006 -0.0476923 0
[...]
CELL_DATA 13116
SCALARS rho float
LOOKUP_TABLE default
0.637275
0.726654
0.304641
0.711873
0.712135
0.703477
0.289267
0.712581
0.579268
0.712005
0.295444
0.264261
0.712115
0.273235
0.28248
0.703451
0.63316
0.711094
0.7033
0.303243
0.625663
0.308247
0.281936
0.711757
0.640561
0.711726
0.712021
0.30342
0.620972
0.686149
0.558228
0.275387
0.595482
0.489641
0.289756
0.633011
0.712637
0.712648
0.684508
0.711285
0.701204
0.712559
0.479389
0.302008
0.712047
0.705558
0.717127
0.708165
0.299411
0.562075
0.711655
0.490121
0.274019
0.626313
0.596397
0.623589
0.300328
0.711494
0.568254
0.292458
0.276247
0.712014
0.716631
0.673385
0.564446
0.291853
0.708052
0.711742
0.708336
0.556231
0.281239
0.606379
0.309361
0.292805
0.559472
0.303253
0.716995
0.711491
0.292476
0.71175
0.715558
0.712539
0.711631
0.711564
0.712798
0.458222
0.289245
0.703327
0.712975
0.313817
0.276571
0.726262
0.711566
0.712751
0.695757
0.644248
0.643425
0.562879
0.559582
0.623814
0.706654
0.702143
0.701377
0.4034
0.714246
0.278466
0.368099
0.555624
0.294994
0.634411
0.583735
0.712451
0.641119
0.713493
0.711659
0.708728
0.285641
0.373334
0.711151
0.709606
0.710575
0.316834
0.708677
0.275814
0.713077
0.486463
0.288742
0.537517
0.295048
0.559646
0.711115
0.715546
0.507098
0.304721
0.493329
0.66987
0.560791
0.710005
0.705273
0.709717
0.709519
0.717164
0.541201
0.712544
0.729339
0.265854
0.290909
0.712028
0.711964
0.712035
0.551391
0.710095
0.707148
0.304258
0.71205
0.712592
0.282528
0.711808
0.560615
0.702019
0.711752
0.294437
0.711314
0.285366
0.318338
0.712208
0.713015
0.711264
0.289427
0.481807
0.438062
0.559054
0.27979
0.533017
0.708321
0.2802
0.290429
0.309633
0.712403
0.699703
0.314302
0.462187
0.603418
0.711059
0.700178
0.570649
0.308838
0.709946
0.713367
0.518846
0.701854
0.711761
0.559468
0.280289
0.711143
0.69999
0.712015
0.710867
0.713166
0.368341
0.405545
0.642564
0.533337
0.287701
0.712031
0.70682
0.509431
0.651406
0.2725
0.30394
0.30495
0.704956
0.283484
0.31525
0.309177
0.304338
0.342214
0.673102
0.713097
0.443817
0.300065
0.707737
0.579241
0.313625
0.552561
0.711889
0.728572
0.303614
0.708284
0.411997
0.71379
0.275706
0.556824
0.590757
0.562717
0.712045
0.576512
0.297206
0.436711
0.699513
0.559587
0.699071
0.561455
0.574559
0.712997
0.293656
0.711046
0.712001
0.559965
0.295879
0.301787
0.704753
0.711158
0.550893
0.711223
0.635239
0.712223
0.295788
0.304341
0.366161
0.26986
0.713883
0.711926
0.717572
0.29155
0.710869
0.299803
0.450523
0.714341
0.303143
0.712318
0.711679
0.559426
0.711457
0.29637
0.559425
0.713299
0.559837
0.709985
0.294397
0.294314
0.282361
0.668278
0.313673
0.311736
0.350294
0.317485
0.71436
0.261028
0.712632
0.711947
0.30467
0.309008
0.299783
0.494349
0.306055
0.703043
0.692743
0.713756
0.30368
0.703567
0.588026
0.302215
0.292405
0.697821
0.711166
0.710354
0.308309
0.701023
0.403269
0.715906
0.712251
0.711682
0.712178
0.281569
0.707958
0.256092
0.707979
0.71148
0.695365
0.305211
0.346232
0.711979
0.29664
0.715543
0.712039
0.349346
0.712552
0.711652
0.298691
0.711028
0.711539
0.233108
0.710952
0.444646
0.572024
0.714136
0.459003
0.71266
0.292414
0.711676
0.3689
0.61751
0.708099
0.712225
0.301704
0.374326
0.712545
0.302824
0.712156
0.713029
0.432205
0.559265
0.308966
0.29503
0.712111
0.557294
0.712722
0.293657
0.284062
0.711047
0.711952
0.292153
0.711198
0.283073
0.279571
0.70925
0.713849
0.554609
0.332212
0.71035
0.556997
0.702776
0.711287
0.711169
0.555408
0.336359
0.267116
0.314905
0.702197
0.314901
0.604799
0.350461
0.277843
0.36928
0.565182
0.125772
0.303736
0.712285
0.272043
0.711392
0.625348
0.701902
0.695971
0.71107
0.296621
0.295801
0.372817
0.338432
0.712474
0.638647
0.70145
0.6249
0.730673
0.664212
0.71239
0.691837
0.684328
0.711443
0.711777
0.702578
0.369574
0.529337
0.635981
0.301774
0.689007
0.624254
0.277838
0.708514
0.55961
0.282671
0.302778
0.306227
0.30975
0.650412
0.286179
0.280666
0.706728
0.29581
0.593708
0.313636
0.706666
0.71636
0.3079
0.305039
0.71216
0.491547
0.319312
0.309192
0.322937
0.294161
0.297292
0.304144
0.316107
0.454812
0.30027
0.701999
0.326019
0.712935
0.355151
0.274712
0.499596
0.263028
0.311557
0.264323
0.710964
0.466197
0.665489
0.565136
0.295303
0.655049
0.712979
0.454078
0.712796
0.670117
0.672493
0.299995
0.560398
0.38738
0.711236
0.558837
0.289338
0.272355
0.713518
0.340642
0.457751
0.710016
0.366807
0.71065
0.727651
0.311626
0.28633
0.27243
0.530688
0.289867
0.237492
0.279344
0.251576
0.712207
0.712065
0.499054
0.627167
0.496213
0.711666
0.335232
0.292889
0.582567
0.290315
0.715455
0.341956
0.382298
0.504009
0.712529
0.713097
0.565504
0.348634
0.276128
0.564078
0.712335
0.57844
0.560909
0.715525
0.713896
0.301258
0.716923
0.586604
0.698148
0.322715
0.305875
0.71394
0.71197
0.694106
0.711894
0.713504
0.711786
0.711708
0.695581
0.701826
0.312226
0.71259
0.375414
0.280771
0.317761
0.711972
0.70566
0.347837
0.712976
0.638951
0.306603
0.624565
0.711159
0.71171
0.302855
0.294194
0.712063
0.323493
0.332423
0.271564
0.302225
0.717945
0.232577
0.71159
0.323932
0.728928
0.711578
0.707501
0.71202
0.323916
0.313582
0.711861
0.714346
0.714966
0.712197
0.712041
0.493145
0.299761
0.292897
0.702669
0.573742
0.307579
0.488547
0.277555
0.713222
0.709585
0.325481
0.311239
0.713261
0.465136
0.712184
0.682621
0.294206
0.409366
0.713901
0.559574
0.286825
0.713082
0.712886
0.708993
0.300405
0.559058
0.297876
0.563943
0.696969
0.333866
0.341476
0.312835
0.565327
0.296545
0.289561
0.368546
0.667531
0.713201
0.290328
0.300563
0.30683
0.646371
0.312536
0.69928
0.267434
0.609197
0.711889
0.357209
0.284771
0.282988
0.49469
0.294342
0.712758
0.307977
0.289982
0.705162
0.273907
0.704944
0.716213
0.565087
0.321571
0.714376
0.711441
0.711949
0.70322
0.713354
0.709031
0.267845
0.568562
0.449017
0.71897
0.294577
0.712775
0.558271
0.287088
0.561174
0.711669
0.297731
0.687831
0.276596
0.27865
0.706263
0.710926
0.27634
0.266349
0.291582
0.268221
0.713387
0.711753
0.300221
0.311539
0.712106
0.709897
0.612616
0.711426
0.709126
0.29523
0.712311
0.449667
0.711576
0.35768
0.634409
0.489338
0.707536
0.713632
0.587222
0.332223
0.299753
0.710913
0.618086
0.627607
0.711372
0.264992
0.714437
0.71207
0.399455
0.517046
0.711608
0.347281
0.55826
0.700282
0.34375
0.7104
0.693463
0.301195
0.71351
0.281718
0.713471
0.305872
0.704603
0.716523
0.298661
0.674558
0.711342
0.712098
0.64153
0.717069
0.588584
0.324424
0.399712
0.274219
0.290551
0.559244
0.555949
0.70929
0.711851
0.314552
0.326477
0.715108
0.71189
0.712237
0.711838
0.300515
0.7117
0.712048
0.303594
0.268497
0.711248
0.703917
0.713368
0.274015
0.595409
0.308723
0.713945
0.715813
0.562783
0.720113
0.305045
0.720192
0.712724
0.711536
0.711456
0.700899
0.445641
0.711283
0.30441
0.711557
0.711963
0.482843
0.730297
0.584785
0.711573
0.416243
0.379896
0.592449
0.685659
0.324407
0.33358
0.304406
0.300916
0.72921
0.714839
0.589594
0.319017
0.298755
0.708066
0.712125
0.231157
0.32729
0.488342
0.717146
0.71079
0.711582
0.711835
0.304737
0.325826
0.559564
0.275539
0.316024
0.308197
0.703615
0.308165
0.322913
0.618464
0.714768
0.712738
0.698365
0.709501
0.287175
0.272112
0.305652
0.572289
0.467501
0.276121
0.71182
0.711935
0.714255
0.70223
0.274821
0.326694
0.711896
0.320321
0.700885
0.716524
0.560194
0.276323
0.324526
0.713646
0.558767
0.658193
0.231303
0.712373
0.70063
0.615742
0.711922
0.712018
0.559512
0.715858
0.301726
0.709322
0.554305
0.707314
0.713785
0.559283
0.712979
0.561146
0.709906
0.289485
0.286675
0.327775
0.558532
0.562185
0.320452
0.715341
0.712099
0.266757
0.690999
0.310022
0.701083
0.553096
0.304713
0.711933
0.711493
0.308937
0.547158
0.55793
0.292841
0.71302
0.287643
0.274609
0.661789
0.637094
0.49966
0.701701
0.304561
0.711319
0.284878
0.275364
0.704699
0.306255
0.646263
0.277178
0.693626
0.634652
0.559693
0.712922
0.273659
0.2893
0.705437
0.489753
0.712344
0.523233
0.638762
0.704834
0.711593
0.505814
0.631131
0.711977
0.712089
0.708768
0.373188
0.335361
0.54121
0.71144
0.712245
0.353292
0.702384
0.658001
0.371686
0.276474
0.697181
0.716498
0.56325
0.563842
0.709392
0.713828
0.685784
0.716537
0.275415
0.691172
0.487765
0.710948
0.704952
0.340754
0.712588
0.711976
0.290626
0.292058
0.298662
0.559421
0.294442
0.659541
0.711563
0.690958
0.314582
0.713197
0.283889
0.596423
0.644613
0.562511
0.710489
0.628849
0.650047
0.716018
0.580288
0.718797
0.305911
0.700486
0.707311
0.463861
0.563099
0.714481
0.283365
0.272151
0.294338
0.711693
0.332954
0.559311
0.306605
0.712534
0.272622
0.489573
0.27125
0.711239
0.711626
0.633681
0.276623
0.65202
0.687453
0.307811
0.613861
0.712036
0.275979
0.625546
0.559995
0.711897
0.700743
0.2885
0.547256
0.712331
0.701877
0.71403
0.326393
0.37545
0.712037
0.559446
0.559592
0.559574
0.61658
0.715058
0.612663
0.71051
0.325718
0.285587
0.559629
0.712096
0.679431
0.291258
0.700465
0.630194
0.661495
0.302614
0.436664
0.7114
0.71169
0.580673
0.33872
0.701597
0.563106
0.290183
0.639819
0.711799
0.290582
0.27477
0.260698
0.711419
0.315033
0.313301
0.711235
0.529688
0.712249
0.696268
0.288453
0.299072
0.712207
0.290555
0.287103
0.559
0.279566
0.339129
0.628923
0.713385
0.714763
0.299432
0.31822
0.295651
0.716327
0.276875
0.713941
0.280939
0.715346
0.71172
0.712413
0.715125
0.720433
0.7159
0.71043
0.71201
0.71177
0.235559
0.304314
0.726714
0.693783
0.503148
0.712881
0.590609
0.676094
0.706667
0.307242
0.709123
0.712065
0.711228
0.295921
0.719223
0.306221
0.712161
0.494981
0.711713
0.702937
0.306075
0.712629
0.306101
0.450929
0.71812
0.307908
0.712753
0.559477
0.713366
0.30953
0.706602
0.301717
0.276539
0.277859
0.309847
0.70437
0.283189
0.708091
0.603979
0.34003
0.280617
0.489664
0.591256
0.674488
0.71468
0.320476
0.294016
0.292144
0.271369
0.267578
0.677585
0.712513
0.304767
0.631171
0.711751
0.260748
0.711818
0.710851
0.620528
0.299831
0.559904
0.717653
0.71147
0.711559
0.290005
0.713774
0.711695
0.718454
0.69624
0.697558
0.312164
0.278224
0.708919
0.536116
0.328454
0.704584
0.278068
0.573942
0.680714
0.713601
0.713464
0.276525
0.713053
0.364535
0.296702
0.712203
0.712093
0.711866
0.710973
0.710796
0.276686
0.712095
0.290174
0.501459
0.71219
0.559632
0.712332
0.296674
0.295901
0.71196
0.316905
0.712098
0.676718
0.454684
0.32294
0.709727
0.276765
0.702291
0.712244
0.715279
0.277042
0.286746
0.528072
0.577264
0.66683
0.517492
0.705475
0.715422
0.712484
0.559242
0.714574
0.282168
0.321593
0.711655
0.697421
0.714387
0.47847
0.288862
0.718473
0.276502
0.709488
0.636032
0.333173
0.712669
0.297661
0.712796
0.304402
0.712076
0.295083
0.714111
0.699002
0.271127
0.713055
0.685424
0.27141
0.572488
0.707856
0.59283
0.261473
0.349581
0.523302
0.711525
0.711484
0.329131
0.591121
0.713556
0.705069
0.317657
0.671773
0.714363
0.458645
0.704641
0.70756
0.338641
0.711155
0.559662
0.304339
0.645392
0.310483
0.704177
0.307116
0.276736
0.711841
0.313062
0.307522
0.270421
0.707506
0.715735
0.37571
0.701696
0.347465
0.723303
0.302663
0.714335
0.351707
0.705477
0.709837
0.711606
0.565481
0.549987
0.698722
0.627086
0.304061
0.66625
0.712003
0.593109
0.715065
0.49348
0.393077
0.712091
0.311579
0.593487
0.31182
0.701249
0.237021
0.279894
0.71155
0.709483
0.311604
0.710526
0.711952
0.559342
0.711799
0.56598
0.302499
0.712053
0.312631
0.284538
0.712952
0.711673
0.712418
0.71296
0.274301
0.30636
0.294469
0.722682
0.602582
0.347688
0.713773
0.289855
0.308368
0.302902
0.71294
0.356808
0.71208
0.711955
0.663686
0.711148
0.711832
0.623865
0.7155
0.454541
0.274212
0.312357
0.565753
0.563448
0.289764
0.678261
0.710711
0.712298
0.28812
0.421113
0.715908
0.308271
0.713627
0.696451
0.313244
0.687519
0.728649
0.32722
0.715562
0.286142
0.709085
0.712229
0.720415
0.279028
0.47722
0.712302
0.343476
0.449361
0.710437
0.351225
0.695077
0.708487
0.712267
0.711985
0.339966
0.564555
0.712334
0.702132
0.386473
0.710927
0.292401
0.257974
0.71272
0.710542
0.603728
0.24784
0.703699
0.663203
0.55947
0.293085
0.279745
0.322256
0.710688
0.29123
0.275924
0.301268
0.693141
0.282902
0.33856
0.458103
0.713642
0.318532
0.563145
0.678456
0.710931
0.309242
0.711242
0.693234
0.632455
0.440142
0.694107
0.291079
0.31088
0.706197
0.310694
0.681856
0.713888
0.559626
0.319435
0.348718
0.298509
0.561731
0.562199
0.259081
0.71257
0.707258
0.711903
0.304075
0.287663
0.368284
0.713164
0.31172
0.559366
0.62495
0.691067
0.712051
0.294857
0.687065
0.269105
0.691727
0.678491
0.711832
0.680012
0.595205
0.697415
0.715702
0.711541
0.310978
0.353899
0.297356
0.711794
0.576315
0.559556
0.318104
0.400329
0.711181
0.711453
0.555188
0.311422
0.711123
0.559739
0.565811
0.712549
0.29322
0.310853
0.341558
0.710345
0.622188
0.694067
0.711823
0.355871
0.713364
0.690069
0.614842
0.591366
0.713191
0.712046
0.701082
0.711503
0.711723
0.289841
0.71051
0.711059
0.702445
0.711122
0.710904
0.668482
0.30852
0.276682
0.712294
0.325324
0.33927
0.711418
0.28017
0.665061
0.707824
0.720249
0.710605
0.28617
0.711603
0.278104
0.285315
0.701676
0.715623
0.702732
0.308343
0.710945
0.701343
0.710494
0.709826
0.301604
0.699626
0.711943
0.727466
0.368527
0.71172
0.297799
0.711141
0.307019
0.310452
0.637672
0.484818
0.711918
0.711349
0.700506
0.299709
0.698564
0.378913
0.276756
0.713108
0.490661
0.319074
0.701033
0.279862
0.510054
0.708052
0.717249
0.713872
0.491702
0.608852
0.698167
0.7003
0.671363
0.711916
0.537457
0.712636
0.711324
0.690115
0.2737
0.292972
0.480526
0.710955
0.284031
0.700273
0.710766
0.64528
0.700537
0.621229
0.71306
0.716489
0.298743
0.710344
0.713292
0.604331
0.71367
0.712031
0.712903
0.700487
0.304734
0.287493
0.719202
0.580827
0.61895
0.709776
0.712645
0.702221
0.712053
0.712268
0.664581
0.715643
0.71171
0.271243
0.261318
0.234592
0.324438
0.559633
0.507028
0.610639
0.712804
0.715258
0.28664
0.712224
0.711881
0.307424
0.385293
0.55947
0.710432
0.294964
0.275477
0.271297
0.559269
0.712211
0.371478
0.28301
0.311989
0.284217
0.342103
0.3299
0.713703
0.709207
0.716103
0.309484
0.718704
0.662335
0.629803
0.328232
0.301124
0.713053
0.5601
0.31702
0.70594
0.325322
0.711676
0.289803
0.711121
0.309278
0.71409
0.711628
0.309552
0.568224
0.316313
0.712008
0.259128
0.668135
0.277385
0.550507
0.292054
0.66419
0.308182
0.558297
0.560123
0.628981
0.721644
0.330459
0.71476
0.687733
0.711158
0.65882
0.722937
0.302457
0.416665
0.293266
0.711506
0.316073
0.711955
0.558842
0.711696
0.711929
0.543855
0.711368
0.277473
0.28414
0.272437
0.545024
0.640202
0.713173
0.304787
0.309318
0.704497
0.410015
0.276217
0.667175
0.372643
0.319982
0.277533
0.712536
0.683141
0.671448
0.286285
0.715225
0.710007
0.274896
0.36959
0.712756
0.709198
0.689436
0.513937
0.432737
0.389435
0.305271
0.713453
0.710912
0.575409
0.712548
0.281783
0.615331
0.296493
0.562414
0.711809
0.305216
0.315333
0.716107
0.663111
0.711928
0.711764
0.711763
0.711361
0.712174
0.305123
0.305632
0.298147
0.295166
0.637717
0.558633
0.684806
0.298544
0.320161
0.512787
0.274898
0.702214
0.716852
0.307901
0.321388
0.707698
0.288413
0.698214
0.711331
0.715886
0.700173
0.633725
0.332145
0.305747
0.715007
0.306443
0.406505
0.372508
0.693692
0.709882
0.322202
0.313084
0.559364
0.308334
0.708539
0.711526
0.325389
0.291644
0.269973
0.70791
0.282476
0.559502
0.713147
0.649545
0.275585
0.532887
0.711934
0.712825
0.28991
0.714222
0.7119
0.274536
0.71143
0.71246
0.296057
0.319543
0.713558
0.305276
0.295201
0.714069
0.383054
0.705044
0.712973
0.711729
0.707809
0.712073
0.707899
0.696368
0.293119
0.434126
0.72389
0.717641
0.474831
0.711953
0.333071
0.7098
0.713706
0.60638
0.69182
0.416132
0.490095
0.711944
0.711865
0.711497
0.711583
0.705556
0.559401
0.711998
0.559305
0.713471
0.713148
0.713197
0.560144
0.698126
0.27526
0.712772
0.30302
0.709618
0.710374
0.711434
0.71604
0.711968
0.291709
0.301673
0.348963
0.29126
0.716629
0.306207
0.299801
0.714967
0.275309
0.711518
0.304728
0.714788
0.713285
0.313252
0.411049
0.335343
0.71064
0.292942
0.712207
0.712725
0.298298
0.713062
0.569257
0.343814
0.301148
0.274403
0.711722
0.322268
0.710496
0.619672
0.320653
0.7121
0.701404
0.7117
0.324322
0.621657
0.275144
0.719357
0.700598
0.708728
0.329848
0.718093
0.709865
0.713478
0.379424
0.710572
0.330546
0.301423
0.711775
0.503643
0.712035
0.403464
0.32646
0.463671
0.7149
0.297982
0.275335
0.305297
0.561933
0.559748
0.712727
0.244116
0.656557
0.706621
0.559596
0.461941
0.330025
0.571759
0.331953
0.298902
0.709671
0.302562
0.31665
0.711746
0.712148
0.307888
0.711477
0.303917
0.559463
0.304937
0.713163
0.561784
0.711972
0.675727
0.289204
0.298464
0.276552
0.70321
0.713291
0.605533
0.570321
0.402722
0.328559
0.700744
0.294032
0.706632
0.405821
0.562416
0.712892
0.307345
0.301001
0.303435
0.311754
0.301161
0.714541
0.716366
0.310243
0.711022
0.683558
0.324418
0.276841
0.712057
0.31562
0.712742
0.447931
0.712053
0.696632
0.711147
0.560161
0.282742
0.712302
0.710339
0.712622
0.31459
0.711173
0.616953
0.337592
0.710924
0.712761
0.713596
0.715646
0.712143
0.712166
0.712053
0.704806
0.704513
0.314414
0.711432
0.303893
0.531608
0.710474
0.276033
0.713508
0.714809
0.306407
0.714125
0.315634
0.276829
0.712954
0.711916
0.712148
0.300774
0.715719
0.652634
0.305273
0.310913
0.713008
0.709916
0.387276
0.301065
0.711525
0.71211
0.329339
0.688159
0.711918
0.684752
0.302798
0.328897
0.275486
0.696898
0.297514
0.714115
0.711791
0.700813
0.668861
0.712302
0.301653
0.713372
0.641946
0.71153
0.678161
0.279561
0.291749
0.277139
0.711773
0.712408
0.445623
0.694794
0.320364
0.714011
0.709371
0.266468
0.709071
0.713671
0.667879
0.310155
0.294095
0.326571
0.712245
0.71201
0.649912
0.513748
0.711435
0.315457
0.674074
0.559466
0.717848
0.309632
0.653607
0.308575
0.714448
0.279385
0.713014
0.712969
0.286502
0.711665
0.482664
0.559692
0.695027
0.559323
0.711534
0.387885
0.700694
0.701364
0.709461
0.713578
0.48451
0.559467
0.247941
0.701447
0.272761
0.315874
0.285734
0.300372
0.328455
0.311065
0.712202
0.395941
0.275865
0.706894
0.711706
0.716139
0.37454
0.711667
0.712752
0.698009
0.261268
0.686342
0.708269
0.322561
0.302502
0.298281
0.672064
0.506194
0.323985
0.673761
0.274772
0.565814
0.500841
0.284554
0.486537
0.691611
0.330695
0.709256
0.281294
0.580613
0.382314
0.7133
0.388103
0.70942
0.559506
0.712099
0.454358
0.303909
0.713496
0.712078
0.300792
0.276821
0.704987
0.314173
0.711717
0.308638
0.569038
0.272593
0.707877
0.305673
0.712186
0.315548
0.709571
0.711323
0.711889
0.559895
0.255294
0.281157
0.371846
0.712386
0.715486
0.714768
0.643647
0.307665
0.711416
0.330847
0.713378
0.706812
0.395034
0.322183
0.711428
0.707931
0.276288
0.558969
0.713439
0.711658
0.711636
0.282679
0.676331
0.307393
0.711715
0.294433
0.638582
0.713095
0.713289
0.712233
0.32301
0.712247
0.311423
0.298616
0.708557
0.559898
0.589804
0.718277
0.559636
0.313637
0.711241
0.713141
0.712123
0.276196
0.466251
0.712612
0.305672
0.710069
0.711289
0.713085
0.713105
0.305936
0.514516
0.687771
0.284568
0.713516
0.7117
0.530978
0.712929
0.292296
0.715073
0.711224
0.709913
0.712812
0.292997
0.281403
0.713551
0.714284
0.302385
0.334961
0.297853
0.285739
0.2747
0.274178
0.306491
0.326916
0.714986
0.27524
0.304265
0.711908
0.591297
0.559451
0.403474
0.316238
0.707632
0.522553
0.572642
0.712063
0.383398
0.693166
0.565672
0.635308
0.714113
0.294729
0.712447
0.656145
0.295438
0.300572
0.397469
0.71438
0.637082
0.712096
0.704041
0.717116
0.717982
0.354085
0.711924
0.678425
0.712962
0.309628
0.708197
0.694104
0.350482
0.467582
0.268661
0.272109
0.266138
0.631297
0.709026
0.72498
0.299753
0.415674
0.711803
0.270746
0.712546
0.701481
0.713366
0.709834
0.711665
0.31968
0.273704
0.271313
0.624675
0.293232
0.707252
0.273224
0.70673
0.705802
0.710405
0.3189
0.510242
0.378121
0.711562
0.301059
0.29729
0.711603
0.713808
0.695213
0.704078
0.712756
0.711698
0.334542
0.653163
0.712117
0.53042
0.712337
0.712005
0.71143
0.463583
0.445698
0.712166
0.498482
0.67431
0.306789
0.718458
0.712533
0.369605
0.299541
0.723621
0.533958
0.711789
0.712527
0.324061
0.306012
0.560122
0.442233
0.380925
0.712288
0.712863
0.30977
0.712155
0.561205
0.716359
0.334968
0.63101
0.333113
0.71186
0.711729
0.71168
0.726567
0.565932
0.32262
0.345041
0.717496
0.308039
0.630818
0.317045
0.711163
0.261685
0.696538
0.712055
0.566177
0.330198
0.559358
0.559774
0.295667
0.7208
0.274607
0.712659
0.323352
0.30712
0.25879
0.717581
0.71192
0.368973
0.347087
0.711976