# vtk DataFile Version 1.0
unstructured grid
ascii
DATASET UNSTRUCTURED_GRID
points 13672 float
0.0796578 -0.059106 0
0.00128732 0.00159165 0
0.00227961 -0.00102548 0
0.0791586 -0.0598787 0
-0.0546216 0.01 0
0.000495206 0.025 0
0.0800549 -0.035 0
0.135172 -0.08 0
-0.0546216 -0.0451168 0
0.000495206 -0.0301168 0
0.0800549 -0.0901168 0
0.135172 -0.135117 0
-0.0546216 -0.0451168 -0.00551168
0.000495206 -0.0301168 -0.00551168
0.0800549 -0.0901168 -0.00551168
0.135172 -0.135117 -0.00551168
0.135172 -0.08 -0.00551168
0.0800549 -0.035 -0.00551168
0.000495206 0.025 -0.00551168
-0.0546216 0.01 -0.00551168
0.00128732 0.00159165 -0.00551168
0.00227961 -0.00102548 -0.00551168
0.0791586 -0.0598787 -0.00551168
0.0796578 -0.059106 -0.00551168
0.00165953 -0.000990923 0
0.00119576 -0.000874076 0
0.000866021 -0.000641801 0
0.000645147 -0.000349912 0
0.00052235 -1.7281e-05 0
0.00049972 0.000348016 0
0.000601632 0.000737716 0
0.000861774 0.0011403 0
0.00157235 0.00183217 0
0.00188647 0.00206725 0
0.00222612 0.00230203 0
0.00258713 0.00254351 0
0.00296826 0.00279524 0
0.00337118 0.00305664 0
0.00379785 0.00332658 0
0.00425045 0.00360349 0
0.00473139 0.00388521 0
0.0052432 0.00416895 0
0.0057881 0.00445204 0
0.00636753 0.00473281 0
0.00698281 0.00500961 0
0.00763526 0.00528058 0
0.00832616 0.00554366 0
0.00905691 0.00579603 0
0.00982918 0.00603333 0
0.0106445 0.00625033 0
0.0115038 0.00644128 0
0.0124073 0.00660297 0
0.0133543 0.00673414 0
0.0143444 0.00683382 0
0.0153769 0.00690031 0
0.0164512 0.00693173 0
0.0175666 0.00692547 0
0.0187219 0.00687822 0
0.0199156 0.00678477 0
0.0211454 0.00663864 0
0.0224084 0.00643275 0
0.0237018 0.00616676 0
0.0250249 0.00584739 0
0.026375 0.00547298 0
0.0277479 0.00503752 0
0.0291386 0.00453545 0
0.0305433 0.0039653 0
0.0319572 0.0033256 0
0.0333681 0.00260019 0
0.034775 0.00179799 0
0.0361793 0.000930615 0
0.0375798 3.12222e-06 0
0.0389689 -0.000988429 0
0.0403357 -0.00205109 0
0.041675 -0.00318283 0
0.0429849 -0.00437751 0
0.0442643 -0.00562904 0
0.0455126 -0.00693089 0
0.0467314 -0.00827518 0
0.0479204 -0.00965638 0
0.0490661 -0.0110799 0
0.0501515 -0.0125519 0
0.0511696 -0.0140695 0
0.0521492 -0.0156071 0
0.0531202 -0.0171411 0
0.0540851 -0.0186663 0
0.0550431 -0.0201798 0
0.0559923 -0.0216793 0
0.0569311 -0.0231626 0
0.0578582 -0.0246273 0
0.0587723 -0.0260715 0
0.0596721 -0.027493 0
0.0605563 -0.02889 0
0.0614241 -0.0302609 0
0.0622742 -0.0316042 0
0.063106 -0.0329183 0
0.0639186 -0.034202 0
0.0647113 -0.0354543 0
0.0654835 -0.0366743 0
0.0662345 -0.0378613 0
0.0669642 -0.0390145 0
0.0676726 -0.0401333 0
0.0683597 -0.0412172 0
0.0690246 -0.0422665 0
0.0696662 -0.0432819 0
0.0702841 -0.0442636 0
0.0708793 -0.0452111 0
0.0714538 -0.0461237 0
0.072009 -0.047001 0
0.0725452 -0.0478434 0
0.0730611 -0.0486524 0
0.073556 -0.0494294 0
0.0740291 -0.0501756 0
0.0744812 -0.0508916 0
0.0749138 -0.0515773 0
0.0753285 -0.0522331 0
0.0757266 -0.0528592 0
0.076109 -0.0534564 0
0.0764753 -0.0540264 0
0.0768243 -0.054571 0
0.0771553 -0.0550919 0
0.0774679 -0.0555901 0
0.0777617 -0.0560669 0
0.0780369 -0.056523 0
0.0782958 -0.0569578 0
0.0785421 -0.0573703 0
0.0787786 -0.0577603 0
0.0790073 -0.0581279 0
0.0792295 -0.058474 0
0.0794462 -0.0587995 0
0.0798803 -0.0594162 0
0.0800272 -0.0596588 0
0.0800357 -0.0598891 0
0.0799275 -0.0600784 0
0.0797205 -0.0601773 0
0.0794593 -0.0601051 0
0.0789155 -0.0596491 0
0.0786707 -0.0593963 0
0.0784111 -0.0591319 0
0.0781372 -0.0588542 0
0.0778566 -0.0585548 0
0.0775715 -0.0582308 0
0.0772803 -0.0578828 0
0.0769832 -0.0575099 0
0.0766822 -0.0571097 0
0.0763801 -0.0566796 0
0.0760759 -0.0562196 0
0.0757623 -0.0557337 0
0.0754359 -0.0552232 0
0.0750951 -0.0546879 0
0.0747379 -0.054128 0
0.0743626 -0.0535435 0
0.0739688 -0.0529338 0
0.0735559 -0.0522981 0
0.0731238 -0.0516357 0
0.0726718 -0.050946 0
0.0721991 -0.0502288 0
0.0717046 -0.049484 0
0.0711872 -0.0487117 0
0.0706461 -0.047912 0
0.0700804 -0.0470849 0
0.0694892 -0.0462308 0
0.0688718 -0.0453499 0
0.0682271 -0.0444431 0
0.0675544 -0.043511 0
0.0668527 -0.0425546 0
0.0661215 -0.0415748 0
0.06536 -0.040573 0
0.0645676 -0.0395504 0
0.0637439 -0.0385087 0
0.0628887 -0.0374493 0
0.062002 -0.0363741 0
0.0610838 -0.0352847 0
0.0601345 -0.0341831 0
0.0591547 -0.033071 0
0.0581456 -0.0319502 0
0.0571083 -0.0308224 0
0.0560444 -0.0296893 0
0.0549562 -0.028552 0
0.053845 -0.0274126 0
0.0527113 -0.0262746 0
0.051554 -0.0251427 0
0.0503724 -0.0240222 0
0.0491675 -0.0229164 0
0.047941 -0.0218282 0
0.0466955 -0.0207597 0
0.0454337 -0.0197126 0
0.0441592 -0.0186878 0
0.0428751 -0.0176863 0
0.0415841 -0.0167097 0
0.0402878 -0.0157609 0
0.0389879 -0.0148428 0
0.0376864 -0.0139575 0
0.0363853 -0.013107 0
0.0350871 -0.0122931 0
0.0337942 -0.0115164 0
0.0325095 -0.0107772 0
0.0312357 -0.0100756 0
0.0299758 -0.00941024 0
0.0287337 -0.00877784 0
0.0275126 -0.00817571 0
0.0263139 -0.00760375 0
0.0251376 -0.00706528 0
0.0239829 -0.0065649 0
0.0228537 -0.00609619 0
0.0217522 -0.00565563 0
0.0206795 -0.00524226 0
0.0196364 -0.00485507 0
0.0186233 -0.00449318 0
0.0176408 -0.00415577 0
0.016689 -0.00384204 0
0.0157682 -0.00355115 0
0.0148783 -0.00328218 0
0.0140192 -0.00303468 0
0.0131906 -0.00280795 0
0.0123925 -0.00260016 0
0.0116246 -0.00241012 0
0.0108864 -0.00223769 0
0.0101774 -0.00208212 0
0.00949701 -0.00194206 0
0.00884483 -0.0018163 0
0.0082202 -0.0017039 0
0.00762247 -0.00160391 0
0.00705097 -0.00151528 0
0.006505 -0.00143697 0
0.0059838 -0.00136806 0
0.00548662 -0.00130772 0
0.00501265 -0.00125519 0
0.00456114 -0.00120954 0
0.00413136 -0.00116914 0
0.00372257 -0.00113251 0
0.00333398 -0.00109853 0
0.00296466 -0.00106798 0
0.00261363 -0.0010431 0
-0.052721 -0.0445996 0
-0.0508204 -0.0440823 0
-0.0489199 -0.0435651 0
-0.0470193 -0.0430478 0
-0.0451187 -0.0425306 0
-0.0432181 -0.0420134 0
-0.0413175 -0.0414961 0
-0.039417 -0.0409789 0
-0.0375164 -0.0404616 0
-0.0356158 -0.0399444 0
-0.0337152 -0.0394271 0
-0.0318146 -0.0389099 0
-0.0299141 -0.0383927 0
-0.0280135 -0.0378754 0
-0.0261129 -0.0373582 0
-0.0242123 -0.0368409 0
-0.0223117 -0.0363237 0
-0.0204112 -0.0358065 0
-0.0185106 -0.0352892 0
-0.01661 -0.034772 0
-0.0147094 -0.0342547 0
-0.0128088 -0.0337375 0
-0.0109083 -0.0332202 0
-0.00900769 -0.032703 0
-0.00710711 -0.0321858 0
-0.00520653 -0.0316685 0
-0.00330595 -0.0311513 0
-0.00140537 -0.030634 0
0.00190689 -0.0299614 0
0.00332271 -0.0298498 0
0.00474133 -0.0297825 0
0.00616136 -0.0297597 0
0.0075814 -0.0297814 0
0.00900007 -0.0298477 0
0.010416 -0.0299583 0
0.0118278 -0.0301127 0
0.0132342 -0.0303103 0
0.0146339 -0.0305504 0
0.0160259 -0.0308322 0
0.0174091 -0.0311546 0
0.0187824 -0.0315166 0
0.020145 -0.031917 0
0.0214961 -0.0323546 0
0.0228351 -0.032828 0
0.0241613 -0.0333361 0
0.0254744 -0.0338774 0
0.0267738 -0.0344507 0
0.0280592 -0.0350545 0
0.0293306 -0.0356877 0
0.0305875 -0.0363488 0
0.0318301 -0.0370367 0
0.0330581 -0.0377501 0
0.0342717 -0.0384879 0
0.0354708 -0.0392489 0
0.0366556 -0.0400321 0
0.0378262 -0.0408363 0
0.0389828 -0.0416607 0
0.0401254 -0.0425042 0
0.0412543 -0.0433659 0
0.0423698 -0.0442451 0
0.043472 -0.0451408 0
0.0445612 -0.0460523 0
0.0456375 -0.0469789 0
0.0467013 -0.0479199 0
0.0477529 -0.0488746 0
0.0487923 -0.0498424 0
0.04982 -0.0508227 0
0.0508362 -0.051815 0
0.051841 -0.0528187 0
0.0528348 -0.0538333 0
0.0538178 -0.0548584 0
0.0547903 -0.0558935 0
0.0557524 -0.0569382 0
0.0567045 -0.0579922 0
0.0576467 -0.0590549 0
0.0585792 -0.0601261 0
0.0595024 -0.0612055 0
0.0604163 -0.0622926 0
0.0613212 -0.0633873 0
0.0622174 -0.0644891 0
0.0631049 -0.0655979 0
0.0639841 -0.0667134 0
0.064855 -0.0678353 0
0.0657179 -0.0689633 0
0.0665729 -0.0700974 0
0.0674202 -0.0712372 0
0.06826 -0.0723826 0
0.0690925 -0.0735333 0
0.0699178 -0.0746892 0
0.070736 -0.0758501 0
0.0715473 -0.0770159 0
0.0723518 -0.0781863 0
0.0731498 -0.0793612 0
0.0739412 -0.0805405 0
0.0747264 -0.081724 0
0.0755053 -0.0829116 0
0.0762781 -0.0841033 0
0.0770449 -0.0852987 0
0.0778059 -0.0864979 0
0.0785611 -0.0877007 0
0.0793108 -0.088907 0
0.0814681 -0.0912706 0
0.0828814 -0.0924245 0
0.0842946 -0.0935783 0
0.0857079 -0.0947322 0
0.0871211 -0.095886 0
0.0885344 -0.0970399 0
0.0899476 -0.0981937 0
0.0913609 -0.0993476 0
0.0927741 -0.100501 0
0.0941874 -0.101655 0
0.0956006 -0.102809 0
0.0970139 -0.103963 0
0.0984272 -0.105117 0
0.0998404 -0.106271 0
0.101254 -0.107424 0
0.102667 -0.108578 0
0.10408 -0.109732 0
0.105493 -0.110886 0
0.106907 -0.11204 0
0.10832 -0.113194 0
0.109733 -0.114348 0
0.111146 -0.115501 0
0.11256 -0.116655 0
0.113973 -0.117809 0
0.115386 -0.118963 0
0.116799 -0.120117 0
0.118213 -0.121271 0
0.119626 -0.122424 0
0.121039 -0.123578 0
0.122452 -0.124732 0
0.123866 -0.125886 0
0.125279 -0.12704 0
0.126692 -0.128194 0
0.128105 -0.129348 0
0.129519 -0.130501 0
0.130932 -0.131655 0
0.132345 -0.132809 0
0.133758 -0.133963 0
0.135172 -0.133216 0
0.135172 -0.131316 0
0.135172 -0.129415 0
0.135172 -0.127514 0
0.135172 -0.125614 0
0.135172 -0.123713 0
0.135172 -0.121813 0
0.135172 -0.119912 0
0.135172 -0.118012 0
0.135172 -0.116111 0
0.135172 -0.11421 0
0.135172 -0.11231 0
0.135172 -0.110409 0
0.135172 -0.108509 0
0.135172 -0.106608 0
0.135172 -0.104708 0
0.135172 -0.102807 0
0.135172 -0.100906 0
0.135172 -0.0990058 0
0.135172 -0.0971052 0
0.135172 -0.0952046 0
0.135172 -0.0933041 0
0.135172 -0.0914035 0
0.135172 -0.0895029 0
0.135172 -0.0876023 0
0.135172 -0.0857017 0
0.135172 -0.0838012 0
0.135172 -0.0819006 0
0.133758 -0.0788462 0
0.132345 -0.0776923 0
0.130932 -0.0765385 0
0.129519 -0.0753846 0
0.128105 -0.0742308 0
0.126692 -0.0730769 0
0.125279 -0.0719231 0
0.123866 -0.0707692 0
0.122452 -0.0696154 0
0.121039 -0.0684615 0
0.119626 -0.0673077 0
0.118213 -0.0661538 0
0.116799 -0.065 0
0.115386 -0.0638462 0
0.113973 -0.0626923 0
0.11256 -0.0615385 0
0.111146 -0.0603846 0
0.109733 -0.0592308 0
0.10832 -0.0580769 0
0.106907 -0.0569231 0
0.105493 -0.0557692 0
0.10408 -0.0546154 0
0.102667 -0.0534615 0
0.101254 -0.0523077 0
0.0998404 -0.0511538 0
0.0984272 -0.05 0
0.0970139 -0.0488462 0
0.0956006 -0.0476923 0
[...]
CELL_DATA 13116
SCALARS rho float
LOOKUP_TABLE default
0.615457
0.699016
0.373604
0.698901
0.703846
0.696286
0.333234
0.700505
0.585886
0.704206
0.334181
0.375755
0.703724
0.359812
0.383376
0.69639
0.655779
0.713678
0.704253
0.333096
0.595218
0.409982
0.373306
0.710993
0.597702
0.696474
0.704271
0.383596
0.597519
0.698951
0.622128
0.382578
0.591631
0.547029
0.334909
0.599352
0.718435
0.701588
0.688889
0.698456
0.698268
0.700046
0.573963
0.364353
0.701728
0.704071
0.689969
0.70531
0.407886
0.574169
0.699731
0.567651
0.341115
0.650875
0.592688
0.597703
0.363555
0.709545
0.576782
0.393861
0.36092
0.701808
0.695567
0.688939
0.658317
0.346003
0.697458
0.729349
0.697154
0.680836
0.383314
0.593892
0.403899
0.357638
0.552651
0.355367
0.694288
0.70184
0.332643
0.714312
0.72503
0.696018
0.709313
0.709032
0.695997
0.502355
0.332856
0.72568
0.697173
0.33626
0.372893
0.699769
0.708307
0.698527
0.702097
0.59377
0.597701
0.569721
0.560366
0.597679
0.738159
0.683029
0.699781
0.523554
0.688585
0.390682
0.472242
0.58696
0.37797
0.597704
0.593929
0.69265
0.596842
0.721928
0.713919
0.698072
0.34171
0.490237
0.69935
0.698364
0.728725
0.40667
0.697409
0.371727
0.698767
0.524113
0.335039
0.559237
0.372736
0.572306
0.699598
0.713277
0.537739
0.411764
0.526615
0.679737
0.557556
0.698548
0.741522
0.698473
0.686758
0.690471
0.561292
0.686667
0.693799
0.370206
0.334644
0.695324
0.704342
0.700174
0.567362
0.708468
0.70435
0.341083
0.704699
0.696389
0.376966
0.729249
0.576749
0.730324
0.710709
0.333817
0.707277
0.376173
0.403392
0.701925
0.697859
0.713976
0.334183
0.514897
0.4981
0.557858
0.380161
0.5564
0.698118
0.374616
0.396068
0.406489
0.692298
0.689416
0.336218
0.511893
0.59748
0.720191
0.689293
0.57867
0.334829
0.698108
0.688303
0.539647
0.691304
0.694899
0.684369
0.380502
0.69242
0.69143
0.707619
0.698339
0.696466
0.471578
0.525082
0.597701
0.556507
0.361695
0.70271
0.704487
0.57173
0.590006
0.38395
0.33572
0.352421
0.696274
0.379362
0.336019
0.336383
0.342766
0.483057
0.689363
0.698634
0.496466
0.360968
0.697338
0.592408
0.336245
0.56688
0.703399
0.692905
0.384821
0.698057
0.4832
0.699999
0.380749
0.688983
0.587889
0.546869
0.698027
0.6876
0.409836
0.522088
0.735589
0.552796
0.689678
0.557586
0.689083
0.700237
0.399596
0.699168
0.704067
0.558061
0.334216
0.411188
0.705245
0.698997
0.682952
0.710775
0.618866
0.718547
0.33428
0.420548
0.486269
0.381863
0.687076
0.707677
0.692459
0.33087
0.697555
0.337411
0.498668
0.689065
0.335281
0.696261
0.700686
0.557157
0.709354
0.408297
0.557759
0.723287
0.559249
0.698419
0.332915
0.330541
0.380651
0.678518
0.403246
0.422077
0.461495
0.450048
0.700542
0.346574
0.69734
0.701829
0.330973
0.334146
0.335507
0.521885
0.382228
0.721882
0.681553
0.691388
0.335326
0.69532
0.585617
0.418285
0.393587
0.690449
0.698767
0.698401
0.336095
0.693449
0.532236
0.71241
0.699873
0.699381
0.700119
0.380693
0.697868
0.36569
0.697433
0.703686
0.755119
0.335452
0.459101
0.703962
0.335761
0.693785
0.701714
0.450766
0.721985
0.709503
0.332149
0.697367
0.708241
0.36213
0.70025
0.499544
0.577826
0.701101
0.502957
0.729084
0.330712
0.71122
0.462186
0.689269
0.682159
0.707241
0.383589
0.474463
0.696169
0.34018
0.704465
0.689537
0.508625
0.557745
0.336399
0.391043
0.711181
0.570388
0.728838
0.331706
0.377261
0.699183
0.701975
0.333869
0.701558
0.348482
0.395424
0.698054
0.700524
0.597272
0.336239
0.698583
0.643851
0.696396
0.697111
0.704969
0.569657
0.409647
0.376472
0.336147
0.696054
0.33622
0.597681
0.457633
0.378566
0.470987
0.597603
0.246875
0.33838
0.69721
0.378795
0.707004
0.597688
0.705338
0.69562
0.699429
0.391034
0.33039
0.47996
0.427676
0.714617
0.597232
0.703186
0.597683
0.694502
0.677896
0.695551
0.688851
0.699296
0.704056
0.715223
0.694205
0.490387
0.566326
0.613107
0.403313
0.681278
0.597704
0.339784
0.698017
0.556823
0.381544
0.33403
0.335853
0.333516
0.597699
0.356526
0.380639
0.696826
0.344865
0.589277
0.33652
0.697006
0.716699
0.386628
0.4114
0.71281
0.519333
0.336294
0.332613
0.33624
0.378758
0.330371
0.334391
0.417449
0.501234
0.335101
0.682474
0.401674
0.696952
0.446404
0.367213
0.531845
0.373778
0.336269
0.374755
0.697746
0.506731
0.597701
0.593932
0.342687
0.588722
0.69763
0.500613
0.721768
0.69801
0.697217
0.330228
0.554927
0.491189
0.706694
0.581037
0.381381
0.346409
0.687637
0.429507
0.50198
0.682871
0.471511
0.732759
0.695168
0.334672
0.392615
0.370969
0.554658
0.390555
0.353737
0.38025
0.363741
0.700974
0.700537
0.525277
0.597702
0.529218
0.691906
0.474706
0.353533
0.587225
0.381711
0.710548
0.432122
0.480372
0.535179
0.701768
0.69697
0.574984
0.446547
0.34361
0.57284
0.700374
0.687949
0.571152
0.689176
0.686891
0.335119
0.715578
0.585977
0.735299
0.458371
0.38263
0.724557
0.708405
0.69061
0.7038
0.69493
0.697728
0.710708
0.73753
0.705104
0.336056
0.701023
0.464899
0.389425
0.336278
0.699303
0.704441
0.45511
0.695962
0.597703
0.335683
0.68927
0.698604
0.714149
0.383107
0.350567
0.700634
0.336239
0.336284
0.38173
0.335263
0.708574
0.358368
0.698267
0.400317
0.699331
0.699509
0.696426
0.702474
0.336268
0.335506
0.706924
0.699977
0.702341
0.701252
0.704181
0.524597
0.331166
0.382335
0.694796
0.581441
0.335966
0.518838
0.378018
0.699351
0.697836
0.457224
0.412457
0.696525
0.505867
0.698551
0.595822
0.371293
0.482419
0.698998
0.55469
0.376583
0.696409
0.697931
0.705912
0.35364
0.557916
0.360492
0.55412
0.721697
0.336265
0.480886
0.421339
0.549984
0.378053
0.331622
0.492884
0.689095
0.718687
0.331854
0.416678
0.33603
0.688801
0.405454
0.689612
0.368375
0.594801
0.703592
0.451003
0.375226
0.373907
0.525775
0.382461
0.697042
0.339605
0.362369
0.69439
0.358034
0.696591
0.692179
0.551441
0.336053
0.711114
0.707378
0.707343
0.694952
0.700882
0.698015
0.381436
0.68342
0.498412
0.705559
0.33254
0.700231
0.574929
0.336039
0.63857
0.705248
0.342211
0.689903
0.375132
0.380642
0.696696
0.697699
0.376183
0.374464
0.332327
0.382147
0.699761
0.710978
0.351458
0.33417
0.705353
0.698648
0.595762
0.707279
0.697778
0.334101
0.706403
0.501579
0.699584
0.49626
0.597706
0.521851
0.697665
0.729083
0.586044
0.470816
0.382442
0.698113
0.597118
0.628483
0.707134
0.377326
0.723679
0.705087
0.484218
0.567201
0.707474
0.45417
0.668052
0.741058
0.45643
0.698505
0.70191
0.381394
0.719954
0.380567
0.695414
0.358625
0.695996
0.694686
0.383777
0.68898
0.707087
0.701241
0.597702
0.7124
0.586514
0.442717
0.528321
0.372257
0.357296
0.557702
0.569027
0.697799
0.704356
0.336236
0.419739
0.715453
0.703518
0.712615
0.700707
0.334064
0.715497
0.704032
0.333463
0.372304
0.699442
0.704941
0.696039
0.385663
0.588721
0.388211
0.720968
0.691394
0.688384
0.701465
0.33568
0.707006
0.697157
0.708152
0.697607
0.691033
0.497515
0.704334
0.335743
0.686866
0.704036
0.514845
0.69558
0.689356
0.699604
0.534611
0.509666
0.58829
0.681718
0.336198
0.336219
0.335643
0.335311
0.700802
0.722959
0.688985
0.452802
0.334821
0.697003
0.73182
0.359578
0.423674
0.519467
0.710438
0.698218
0.69712
0.710489
0.335862
0.336202
0.557709
0.370047
0.336071
0.342457
0.698086
0.387493
0.336378
0.597686
0.706211
0.691993
0.691477
0.698165
0.342224
0.36809
0.335563
0.597397
0.507084
0.379232
0.730202
0.711451
0.69521
0.694456
0.383185
0.336046
0.703942
0.336258
0.689362
0.694116
0.590454
0.376268
0.336269
0.694829
0.637488
0.669515
0.359835
0.696537
0.693491
0.597599
0.70011
0.700449
0.557786
0.689054
0.33434
0.697983
0.667172
0.685942
0.7218
0.557761
0.692895
0.558244
0.698278
0.360606
0.379146
0.336128
0.634061
0.577728
0.336205
0.714637
0.704107
0.374718
0.691547
0.388991
0.692192
0.593964
0.410647
0.702598
0.711718
0.336131
0.56311
0.642981
0.366253
0.698595
0.35122
0.390223
0.66737
0.597702
0.531626
0.700838
0.336328
0.707007
0.389733
0.377713
0.696297
0.335822
0.593689
0.378593
0.69073
0.597704
0.55755
0.697152
0.376836
0.365643
0.685627
0.580142
0.714015
0.552747
0.595707
0.696325
0.708619
0.583326
0.597704
0.692198
0.707149
0.697763
0.46568
0.336275
0.560488
0.692336
0.707765
0.479821
0.699195
0.671253
0.478139
0.376703
0.761742
0.71249
0.557494
0.552291
0.6838
0.724663
0.68899
0.723235
0.381295
0.685234
0.518195
0.69873
0.704358
0.449405
0.702457
0.702604
0.383236
0.402475
0.334811
0.557778
0.333739
0.627417
0.709735
0.685252
0.43378
0.700643
0.362597
0.589428
0.689098
0.68613
0.730271
0.688858
0.597704
0.723722
0.587386
0.704854
0.358984
0.691232
0.696479
0.570361
0.559323
0.721875
0.38101
0.378457
0.367205
0.699533
0.336311
0.557983
0.335733
0.700463
0.348361
0.52228
0.378891
0.707158
0.700805
0.623041
0.428523
0.597705
0.689288
0.335962
0.59614
0.700439
0.379423
0.597704
0.576086
0.703527
0.691925
0.381845
0.58764
0.70855
0.705207
0.687047
0.336242
0.505765
0.698126
0.557708
0.556162
0.557627
0.59768
0.714383
0.59769
0.698302
0.336298
0.363332
0.55759
0.703611
0.6891
0.349004
0.693848
0.593696
0.683751
0.363193
0.492611
0.701645
0.697292
0.582855
0.419232
0.698385
0.558574
0.333177
0.597701
0.710113
0.333379
0.360815
0.367853
0.689688
0.413437
0.336109
0.697079
0.555369
0.706656
0.693612
0.334469
0.330638
0.70114
0.380069
0.357145
0.631111
0.396961
0.477711
0.597704
0.701174
0.711342
0.335046
0.393634
0.334192
0.69363
0.391749
0.711838
0.357536
0.714679
0.699862
0.699448
0.689947
0.707736
0.691054
0.698101
0.702479
0.712257
0.355728
0.33556
0.704119
0.689148
0.533039
0.690701
0.588347
0.68874
0.685501
0.385443
0.698111
0.700876
0.703315
0.334479
0.708061
0.386981
0.709334
0.525686
0.713521
0.694862
0.412327
0.716017
0.335919
0.544072
0.695897
0.344826
0.730267
0.557692
0.699946
0.334571
0.696923
0.335519
0.37546
0.378609
0.336373
0.684163
0.382773
0.688212
0.68918
0.422631
0.380537
0.522789
0.587912
0.694979
0.68775
0.336093
0.338658
0.33352
0.377636
0.424443
0.698742
0.694083
0.384157
0.689504
0.713876
0.365537
0.701037
0.733043
0.689284
0.334876
0.554064
0.712181
0.703981
0.699045
0.390553
0.713383
0.704838
0.708904
0.782758
0.689421
0.425904
0.37918
0.708273
0.556927
0.336294
0.696185
0.379618
0.578935
0.692936
0.695062
0.695912
0.37621
0.690121
0.482145
0.33459
0.718548
0.701095
0.705656
0.699185
0.707832
0.375635
0.703433
0.391436
0.531935
0.70189
0.549851
0.71089
0.334334
0.413825
0.703976
0.431334
0.700194
0.596431
0.507065
0.436913
0.698235
0.379517
0.694769
0.700525
0.700438
0.379194
0.382211
0.553529
0.586038
0.692939
0.542604
0.695364
0.687739
0.69688
0.557754
0.716319
0.335959
0.432554
0.701803
0.689336
0.686593
0.512888
0.358797
0.713706
0.376585
0.697823
0.597703
0.40581
0.715863
0.334168
0.699884
0.375172
0.704571
0.405206
0.709206
0.689355
0.362074
0.698807
0.682399
0.360543
0.688723
0.701456
0.589793
0.371518
0.475867
0.542922
0.707562
0.685782
0.415572
0.586789
0.71822
0.694157
0.435532
0.686604
0.699226
0.504222
0.694614
0.697545
0.44741
0.7089
0.573793
0.371582
0.590228
0.332909
0.691351
0.33679
0.391786
0.708488
0.336189
0.336113
0.373694
0.697264
0.697884
0.496857
0.701431
0.476857
0.703994
0.335701
0.698602
0.462358
0.696652
0.708286
0.695741
0.688393
0.56486
0.689171
0.689247
0.380164
0.597704
0.698451
0.597388
0.715239
0.526096
0.516656
0.703563
0.33621
0.589259
0.390219
0.701776
0.353941
0.380422
0.712112
0.697953
0.334832
0.698478
0.711904
0.557776
0.700514
0.557839
0.334677
0.701967
0.335627
0.37799
0.697929
0.709811
0.700133
0.696708
0.383629
0.338194
0.333858
0.699276
0.689211
0.475345
0.701204
0.345946
0.336671
0.357983
0.697566
0.494862
0.703068
0.712508
0.597704
0.697682
0.712579
0.597712
0.689869
0.499721
0.362603
0.335106
0.552825
0.554262
0.351699
0.699474
0.68829
0.69132
0.381353
0.538728
0.688244
0.409381
0.687453
0.682128
0.3359
0.689203
0.701892
0.336367
0.710644
0.353834
0.697695
0.705947
0.707386
0.378946
0.512596
0.730826
0.451843
0.502133
0.697732
0.457196
0.689351
0.697454
0.695945
0.712357
0.413689
0.628132
0.718692
0.704841
0.474148
0.699711
0.398759
0.367303
0.699215
0.698009
0.689426
0.363728
0.695285
0.597702
0.54987
0.341095
0.34804
0.336277
0.699162
0.333065
0.358122
0.378862
0.681427
0.356835
0.448357
0.50226
0.711728
0.336315
0.688389
0.689364
0.697956
0.335737
0.705188
0.691673
0.689482
0.494406
0.759
0.335704
0.336195
0.697024
0.334613
0.694482
0.718918
0.557577
0.33621
0.459606
0.340234
0.571988
0.557436
0.365852
0.701993
0.697053
0.711531
0.335942
0.388706
0.464591
0.685136
0.336338
0.557744
0.597683
0.689252
0.698836
0.333188
0.691045
0.381237
0.680152
0.594163
0.70377
0.678678
0.596419
0.75012
0.686882
0.701993
0.334774
0.44558
0.348179
0.713727
0.582782
0.566744
0.336216
0.495814
0.70591
0.707549
0.677302
0.334912
0.698248
0.570806
0.574469
0.68623
0.381039
0.334992
0.448945
0.697946
0.688992
0.756659
0.691572
0.464712
0.70009
0.678264
0.689046
0.689636
0.699778
0.701188
0.69342
0.707054
0.705886
0.382142
0.697885
0.699267
0.694472
0.698598
0.698171
0.677235
0.335774
0.392091
0.685436
0.336192
0.416182
0.698474
0.372812
0.5977
0.696773
0.697839
0.703763
0.382368
0.699031
0.379138
0.358109
0.695269
0.712414
0.694727
0.337863
0.700944
0.702354
0.686072
0.698288
0.404671
0.691132
0.703972
0.702446
0.475115
0.710515
0.334738
0.696912
0.349546
0.335982
0.657106
0.515546
0.702755
0.708365
0.691784
0.37878
0.689943
0.49945
0.376249
0.695301
0.522337
0.336223
0.698715
0.403795
0.537537
0.726412
0.689911
0.694848
0.524315
0.594212
0.709012
0.693236
0.676769
0.705443
0.558077
0.698134
0.691209
0.69633
0.384094
0.332951
0.513346
0.699264
0.381013
0.729412
0.698515
0.59656
0.694394
0.594393
0.725264
0.72397
0.334702
0.698405
0.688854
0.595855
0.689094
0.703866
0.697091
0.689963
0.336007
0.367857
0.706406
0.585439
0.59742
0.698617
0.70904
0.698034
0.708473
0.706369
0.657767
0.687422
0.704014
0.367091
0.390982
0.356732
0.398133
0.557419
0.530026
0.597663
0.715864
0.726402
0.379436
0.704524
0.697874
0.339501
0.483252
0.556355
0.698668
0.382549
0.385052
0.381775
0.557795
0.696843
0.477434
0.335893
0.335655
0.39933
0.447976
0.33622
0.70058
0.707385
0.714442
0.33536
0.698214
0.689787
0.597703
0.444286
0.333403
0.69531
0.557831
0.336487
0.69666
0.336347
0.711057
0.381774
0.698021
0.331949
0.696044
0.701394
0.335149
0.575724
0.436622
0.701453
0.393993
0.695275
0.378796
0.567511
0.3354
0.68497
0.336011
0.684448
0.68767
0.597702
0.707023
0.446079
0.698634
0.689125
0.701436
0.68035
0.705916
0.333739
0.533787
0.349451
0.708057
0.435667
0.70269
0.571388
0.710277
0.703346
0.591382
0.704058
0.37765
0.355902
0.366792
0.563777
0.661844
0.708413
0.335468
0.418527
0.696266
0.485279
0.380193
0.672637
0.482641
0.336417
0.390777
0.69965
0.591528
0.694719
0.367986
0.697862
0.697849
0.36292
0.459801
0.696979
0.69787
0.679694
0.541338
0.494316
0.474311
0.339125
0.699639
0.685083
0.583733
0.718967
0.388422
0.597647
0.333961
0.662612
0.702178
0.334496
0.428674
0.686156
0.670416
0.70199
0.705783
0.70714
0.698978
0.702141
0.34443
0.405908
0.350177
0.333037
0.628535
0.609353
0.597455
0.333762
0.336187
0.552691
0.36264
0.700937
0.689604
0.336286
0.455994
0.696577
0.376028
0.710322
0.706228
0.694296
0.690289
0.597934
0.336335
0.330687
0.686871
0.334846
0.535566
0.492029
0.689072
0.697682
0.439081
0.33597
0.557528
0.33602
0.697808
0.708207
0.336316
0.383433
0.345521
0.696887
0.343636
0.557701
0.721756
0.590877
0.380686
0.554814
0.70157
0.700774
0.332365
0.700767
0.685827
0.372916
0.700475
0.697119
0.334216
0.336241
0.694818
0.335687
0.332895
0.699197
0.468911
0.70763
0.728141
0.709018
0.687597
0.703602
0.696932
0.688697
0.333467
0.491973
0.688576
0.708958
0.511399
0.701732
0.464326
0.698123
0.695203
0.594846
0.695484
0.533539
0.520427
0.704921
0.703057
0.69071
0.701277
0.696111
0.55776
0.700235
0.557613
0.700477
0.695377
0.699531
0.557735
0.688725
0.373711
0.696171
0.378766
0.698174
0.69806
0.707798
0.690854
0.714194
0.380119
0.340445
0.455446
0.332516
0.69418
0.332022
0.334825
0.725355
0.383621
0.707726
0.338201
0.698957
0.71325
0.336196
0.484376
0.408504
0.699161
0.364084
0.707538
0.716619
0.343602
0.695465
0.577455
0.422852
0.382525
0.360199
0.718694
0.336281
0.698194
0.594809
0.441685
0.69846
0.700538
0.707451
0.33631
0.597702
0.380132
0.698676
0.691609
0.698113
0.336276
0.708522
0.698563
0.691695
0.502745
0.699078
0.336352
0.335239
0.69807
0.526948
0.704354
0.520368
0.336305
0.504666
0.691957
0.378608
0.37027
0.360824
0.589136
0.55237
0.715445
0.361318
0.674489
0.696277
0.570601
0.559297
0.401834
0.578706
0.336234
0.334288
0.703307
0.335478
0.336133
0.699917
0.700359
0.341714
0.713874
0.346781
0.556663
0.384484
0.695645
0.681072
0.713741
0.689289
0.394961
0.334428
0.379922
0.694979
0.694957
0.593072
0.577937
0.479141
0.447415
0.689038
0.333775
0.707981
0.480251
0.685547
0.728289
0.332093
0.367903
0.33543
0.33589
0.372492
0.686264
0.696398
0.332587
0.701276
0.700818
0.445301
0.377308
0.700301
0.336203
0.712139
0.49803
0.712453
0.701824
0.704037
0.563541
0.371627
0.705864
0.697832
0.699273
0.336195
0.686577
0.59681
0.413825
0.699143
0.69347
0.699738
0.698225
0.702257
0.697909
0.700155
0.696643
0.702774
0.336141
0.70747
0.335496
0.558354
0.697676
0.380424
0.698596
0.68745
0.415125
0.691531
0.336195
0.373817
0.698319
0.68472
0.700559
0.3353
0.698125
0.597701
0.383934
0.334293
0.698163
0.697842
0.483411
0.370115
0.71019
0.700464
0.336342
0.701504
0.701551
0.590678
0.33635
0.336339
0.381084
0.699552
0.407164
0.700766
0.714221
0.688948
0.686961
0.712597
0.335433
0.696539
0.597702
0.701534
0.678533
0.380668
0.333064
0.389876
0.710478
0.713481
0.496041
0.697986
0.395464
0.696683
0.698191
0.379646
0.685942
0.701173
0.677894
0.334628
0.330508
0.399642
0.701332
0.70428
0.5977
0.541556
0.710486
0.336484
0.665982
0.553888
0.708896
0.334742
0.5977
0.418857
0.688456
0.39477
0.706184
0.698446
0.365974
0.70022
0.572467
0.557671
0.69631
0.557759
0.69908
0.52347
0.689249
0.697879
0.69793
0.707076
0.517931
0.555844
0.352291
0.697605
0.387749
0.33625
0.399155
0.371107
0.336229
0.333613
0.701701
0.476798
0.361808
0.718074
0.699527
0.697202
0.484296
0.713461
0.71935
0.68916
0.380962
0.680091
0.697695
0.410555
0.371487
0.334525
0.687613
0.535355
0.33624
0.679728
0.380316
0.549432
0.531955
0.337829
0.519735
0.691141
0.404336
0.697929
0.382994
0.597698
0.481167
0.69953
0.488258
0.705517
0.556684
0.68633
0.5591
0.335295
0.700033
0.700872
0.375245
0.375348
0.696158
0.335863
0.710608
0.335644
0.576877
0.387954
0.697106
0.404058
0.701496
0.336163
0.698379
0.711351
0.702736
0.557439
0.351597
0.377843
0.479728
0.697537
0.724307
0.691829
0.665005
0.414734
0.70503
0.403252
0.694901
0.683166
0.516354
0.438309
0.706631
0.70523
0.378621
0.666203
0.700408
0.70605
0.708687
0.385663
0.669357
0.336101
0.705715
0.407773
0.689248
0.694923
0.701338
0.701202
0.44476
0.698874
0.3362
0.334679
0.697792
0.557146
0.588616
0.706624
0.556724
0.336313
0.713174
0.699172
0.700389
0.375941
0.510526
0.715996
0.331399
0.698358
0.698887
0.699597
0.699457
0.427367
0.54424
0.68135
0.36924
0.695809
0.700049
0.554548
0.698136
0.433144
0.687257
0.712448
0.733781
0.698583
0.330658
0.380835
0.70893
0.700441
0.408265
0.453571
0.399398
0.373999
0.360764
0.355768
0.383557
0.33626
0.708906
0.386859
0.336678
0.716424
0.589767
0.557551
0.493262
0.336149
0.696759
0.544547
0.596347
0.704701
0.484577
0.698654
0.688318
0.597704
0.699147
0.362439
0.714815
0.689183
0.3508
0.335111
0.519659
0.686627
0.597703
0.702738
0.696595
0.709726
0.700663
0.443427
0.708924
0.689019
0.699742
0.335993
0.697063
0.681504
0.438175
0.508525
0.344087
0.379428
0.361046
0.597704
0.72538
0.705391
0.334584
0.488727
0.701405
0.368786
0.716627
0.699484
0.700386
0.734355
0.709024
0.4072
0.380005
0.382796
0.597712
0.404968
0.701558
0.384068
0.697473
0.69608
0.697616
0.394371
0.538225
0.518158
0.712171
0.365837
0.334369
0.698703
0.699019
0.68863
0.696411
0.698386
0.710452
0.336298
0.5977
0.704313
0.552372
0.712011
0.709381
0.70911
0.506012
0.495371
0.700253
0.530372
0.691385
0.336083
0.694384
0.697156
0.475935
0.408161
0.698087
0.557373
0.703644
0.716903
0.336278
0.334067
0.595588
0.555486
0.493886
0.696598
0.698042
0.422046
0.700187
0.59435
0.690983
0.336263
0.597703
0.336337
0.697352
0.702093
0.710172
0.703482
0.616085
0.450869
0.4713
0.710592
0.33606
0.597703
0.436035
0.703683
0.367826
0.704166
0.7047
0.572844
0.336289
0.557737
0.554275
0.333657
0.694731
0.366732
0.699645
0.336396
0.331042
0.376397
0.713673
0.697968
0.457811
0.453863
0.695579
0.702124