# vtk DataFile Version 1.0
unstructured grid
ascii
DATASET UNSTRUCTURED_GRID
points 13672 float
0.0796578 -0.059106 0
0.00128732 0.00159165 0
0.00227961 -0.00102548 0
0.0791586 -0.0598787 0
-0.0546216 0.01 0
0.000495206 0.025 0
0.0800549 -0.035 0
0.135172 -0.08 0
-0.0546216 -0.0451168 0
0.000495206 -0.0301168 0
0.0800549 -0.0901168 0
0.135172 -0.135117 0
-0.0546216 -0.0451168 -0.00551168
0.000495206 -0.0301168 -0.00551168
0.0800549 -0.0901168 -0.00551168
0.135172 -0.135117 -0.00551168
0.135172 -0.08 -0.00551168
0.0800549 -0.035 -0.00551168
0.000495206 0.025 -0.00551168
-0.0546216 0.01 -0.00551168
0.00128732 0.00159165 -0.00551168
0.00227961 -0.00102548 -0.00551168
0.0791586 -0.0598787 -0.00551168
0.0796578 -0.059106 -0.00551168
0.00165953 -0.000990923 0
0.00119576 -0.000874076 0
0.000866021 -0.000641801 0
0.000645147 -0.000349912 0
0.00052235 -1.7281e-05 0
0.00049972 0.000348016 0
0.000601632 0.000737716 0
0.000861774 0.0011403 0
0.00157235 0.00183217 0
0.00188647 0.00206725 0
0.00222612 0.00230203 0
0.00258713 0.00254351 0
0.00296826 0.00279524 0
0.00337118 0.00305664 0
0.00379785 0.00332658 0
0.00425045 0.00360349 0
0.00473139 0.00388521 0
0.0052432 0.00416895 0
0.0057881 0.00445204 0
0.00636753 0.00473281 0
0.00698281 0.00500961 0
0.00763526 0.00528058 0
0.00832616 0.00554366 0
0.00905691 0.00579603 0
0.00982918 0.00603333 0
0.0106445 0.00625033 0
0.0115038 0.00644128 0
0.0124073 0.00660297 0
0.0133543 0.00673414 0
0.0143444 0.00683382 0
0.0153769 0.00690031 0
0.0164512 0.00693173 0
0.0175666 0.00692547 0
0.0187219 0.00687822 0
0.0199156 0.00678477 0
0.0211454 0.00663864 0
0.0224084 0.00643275 0
0.0237018 0.00616676 0
0.0250249 0.00584739 0
0.026375 0.00547298 0
0.0277479 0.00503752 0
0.0291386 0.00453545 0
0.0305433 0.0039653 0
0.0319572 0.0033256 0
0.0333681 0.00260019 0
0.034775 0.00179799 0
0.0361793 0.000930615 0
0.0375798 3.12222e-06 0
0.0389689 -0.000988429 0
0.0403357 -0.00205109 0
0.041675 -0.00318283 0
0.0429849 -0.00437751 0
0.0442643 -0.00562904 0
0.0455126 -0.00693089 0
0.0467314 -0.00827518 0
0.0479204 -0.00965638 0
0.0490661 -0.0110799 0
0.0501515 -0.0125519 0
0.0511696 -0.0140695 0
0.0521492 -0.0156071 0
0.0531202 -0.0171411 0
0.0540851 -0.0186663 0
0.0550431 -0.0201798 0
0.0559923 -0.0216793 0
0.0569311 -0.0231626 0
0.0578582 -0.0246273 0
0.0587723 -0.0260715 0
0.0596721 -0.027493 0
0.0605563 -0.02889 0
0.0614241 -0.0302609 0
0.0622742 -0.0316042 0
0.063106 -0.0329183 0
0.0639186 -0.034202 0
0.0647113 -0.0354543 0
0.0654835 -0.0366743 0
0.0662345 -0.0378613 0
0.0669642 -0.0390145 0
0.0676726 -0.0401333 0
0.0683597 -0.0412172 0
0.0690246 -0.0422665 0
0.0696662 -0.0432819 0
0.0702841 -0.0442636 0
0.0708793 -0.0452111 0
0.0714538 -0.0461237 0
0.072009 -0.047001 0
0.0725452 -0.0478434 0
0.0730611 -0.0486524 0
0.073556 -0.0494294 0
0.0740291 -0.0501756 0
0.0744812 -0.0508916 0
0.0749138 -0.0515773 0
0.0753285 -0.0522331 0
0.0757266 -0.0528592 0
0.076109 -0.0534564 0
0.0764753 -0.0540264 0
0.0768243 -0.054571 0
0.0771553 -0.0550919 0
0.0774679 -0.0555901 0
0.0777617 -0.0560669 0
0.0780369 -0.056523 0
0.0782958 -0.0569578 0
0.0785421 -0.0573703 0
0.0787786 -0.0577603 0
0.0790073 -0.0581279 0
0.0792295 -0.058474 0
0.0794462 -0.0587995 0
0.0798803 -0.0594162 0
0.0800272 -0.0596588 0
0.0800357 -0.0598891 0
0.0799275 -0.0600784 0
0.0797205 -0.0601773 0
0.0794593 -0.0601051 0
0.0789155 -0.0596491 0
0.0786707 -0.0593963 0
0.0784111 -0.0591319 0
0.0781372 -0.0588542 0
0.0778566 -0.0585548 0
0.0775715 -0.0582308 0
0.0772803 -0.0578828 0
0.0769832 -0.0575099 0
0.0766822 -0.0571097 0
0.0763801 -0.0566796 0
0.0760759 -0.0562196 0
0.0757623 -0.0557337 0
0.0754359 -0.0552232 0
0.0750951 -0.0546879 0
0.0747379 -0.054128 0
0.0743626 -0.0535435 0
0.0739688 -0.0529338 0
0.0735559 -0.0522981 0
0.0731238 -0.0516357 0
0.0726718 -0.050946 0
0.0721991 -0.0502288 0
0.0717046 -0.049484 0
0.0711872 -0.0487117 0
0.0706461 -0.047912 0
0.0700804 -0.0470849 0
0.0694892 -0.0462308 0
0.0688718 -0.0453499 0
0.0682271 -0.0444431 0
0.0675544 -0.043511 0
0.0668527 -0.0425546 0
0.0661215 -0.0415748 0
0.06536 -0.040573 0
0.0645676 -0.0395504 0
0.0637439 -0.0385087 0
0.0628887 -0.0374493 0
0.062002 -0.0363741 0
0.0610838 -0.0352847 0
0.0601345 -0.0341831 0
0.0591547 -0.033071 0
0.0581456 -0.0319502 0
0.0571083 -0.0308224 0
0.0560444 -0.0296893 0
0.0549562 -0.028552 0
0.053845 -0.0274126 0
0.0527113 -0.0262746 0
0.051554 -0.0251427 0
0.0503724 -0.0240222 0
0.0491675 -0.0229164 0
0.047941 -0.0218282 0
0.0466955 -0.0207597 0
0.0454337 -0.0197126 0
0.0441592 -0.0186878 0
0.0428751 -0.0176863 0
0.0415841 -0.0167097 0
0.0402878 -0.0157609 0
0.0389879 -0.0148428 0
0.0376864 -0.0139575 0
0.0363853 -0.013107 0
0.0350871 -0.0122931 0
0.0337942 -0.0115164 0
0.0325095 -0.0107772 0
0.0312357 -0.0100756 0
0.0299758 -0.00941024 0
0.0287337 -0.00877784 0
0.0275126 -0.00817571 0
0.0263139 -0.00760375 0
0.0251376 -0.00706528 0
0.0239829 -0.0065649 0
0.0228537 -0.00609619 0
0.0217522 -0.00565563 0
0.0206795 -0.00524226 0
0.0196364 -0.00485507 0
0.0186233 -0.00449318 0
0.0176408 -0.00415577 0
0.016689 -0.00384204 0
0.0157682 -0.00355115 0
0.0148783 -0.00328218 0
0.0140192 -0.00303468 0
0.0131906 -0.00280795 0
0.0123925 -0.00260016 0
0.0116246 -0.00241012 0
0.0108864 -0.00223769 0
0.0101774 -0.00208212 0
0.00949701 -0.00194206 0
0.00884483 -0.0018163 0
0.0082202 -0.0017039 0
0.00762247 -0.00160391 0
0.00705097 -0.00151528 0
0.006505 -0.00143697 0
0.0059838 -0.00136806 0
0.00548662 -0.00130772 0
0.00501265 -0.00125519 0
0.00456114 -0.00120954 0
0.00413136 -0.00116914 0
0.00372257 -0.00113251 0
0.00333398 -0.00109853 0
0.00296466 -0.00106798 0
0.00261363 -0.0010431 0
-0.052721 -0.0445996 0
-0.0508204 -0.0440823 0
-0.0489199 -0.0435651 0
-0.0470193 -0.0430478 0
-0.0451187 -0.0425306 0
-0.0432181 -0.0420134 0
-0.0413175 -0.0414961 0
-0.039417 -0.0409789 0
-0.0375164 -0.0404616 0
-0.0356158 -0.0399444 0
-0.0337152 -0.0394271 0
-0.0318146 -0.0389099 0
-0.0299141 -0.0383927 0
-0.0280135 -0.0378754 0
-0.0261129 -0.0373582 0
-0.0242123 -0.0368409 0
-0.0223117 -0.0363237 0
-0.0204112 -0.0358065 0
-0.0185106 -0.0352892 0
-0.01661 -0.034772 0
-0.0147094 -0.0342547 0
-0.0128088 -0.0337375 0
-0.0109083 -0.0332202 0
-0.00900769 -0.032703 0
-0.00710711 -0.0321858 0
-0.00520653 -0.0316685 0
-0.00330595 -0.0311513 0
-0.00140537 -0.030634 0
0.00190689 -0.0299614 0
0.00332271 -0.0298498 0
0.00474133 -0.0297825 0
0.00616136 -0.0297597 0
0.0075814 -0.0297814 0
0.00900007 -0.0298477 0
0.010416 -0.0299583 0
0.0118278 -0.0301127 0
0.0132342 -0.0303103 0
0.0146339 -0.0305504 0
0.0160259 -0.0308322 0
0.0174091 -0.0311546 0
0.0187824 -0.0315166 0
0.020145 -0.031917 0
0.0214961 -0.0323546 0
0.0228351 -0.032828 0
0.0241613 -0.0333361 0
0.0254744 -0.0338774 0
0.0267738 -0.0344507 0
0.0280592 -0.0350545 0
0.0293306 -0.0356877 0
0.0305875 -0.0363488 0
0.0318301 -0.0370367 0
0.0330581 -0.0377501 0
0.0342717 -0.0384879 0
0.0354708 -0.0392489 0
0.0366556 -0.0400321 0
0.0378262 -0.0408363 0
0.0389828 -0.0416607 0
0.0401254 -0.0425042 0
0.0412543 -0.0433659 0
0.0423698 -0.0442451 0
0.043472 -0.0451408 0
0.0445612 -0.0460523 0
0.0456375 -0.0469789 0
0.0467013 -0.0479199 0
0.0477529 -0.0488746 0
0.0487923 -0.0498424 0
0.04982 -0.0508227 0
0.0508362 -0.051815 0
0.051841 -0.0528187 0
0.0528348 -0.0538333 0
0.0538178 -0.0548584 0
0.0547903 -0.0558935 0
0.0557524 -0.0569382 0
0.0567045 -0.0579922 0
0.0576467 -0.0590549 0
0.0585792 -0.0601261 0
0.0595024 -0.0612055 0
0.0604163 -0.0622926 0
0.0613212 -0.0633873 0
0.0622174 -0.0644891 0
0.0631049 -0.0655979 0
0.0639841 -0.0667134 0
0.064855 -0.0678353 0
0.0657179 -0.0689633 0
0.0665729 -0.0700974 0
0.0674202 -0.0712372 0
0.06826 -0.0723826 0
0.0690925 -0.0735333 0
0.0699178 -0.0746892 0
0.070736 -0.0758501 0
0.0715473 -0.0770159 0
0.0723518 -0.0781863 0
0.0731498 -0.0793612 0
0.0739412 -0.0805405 0
0.0747264 -0.081724 0
0.0755053 -0.0829116 0
0.0762781 -0.0841033 0
0.0770449 -0.0852987 0
0.0778059 -0.0864979 0
0.0785611 -0.0877007 0
0.0793108 -0.088907 0
0.0814681 -0.0912706 0
0.0828814 -0.0924245 0
0.0842946 -0.0935783 0
0.0857079 -0.0947322 0
0.0871211 -0.095886 0
0.0885344 -0.0970399 0
0.0899476 -0.0981937 0
0.0913609 -0.0993476 0
0.0927741 -0.100501 0
0.0941874 -0.101655 0
0.0956006 -0.102809 0
0.0970139 -0.103963 0
0.0984272 -0.105117 0
0.0998404 -0.106271 0
0.101254 -0.107424 0
0.102667 -0.108578 0
0.10408 -0.109732 0
0.105493 -0.110886 0
0.106907 -0.11204 0
0.10832 -0.113194 0
0.109733 -0.114348 0
0.111146 -0.115501 0
0.11256 -0.116655 0
0.113973 -0.117809 0
0.115386 -0.118963 0
0.116799 -0.120117 0
0.118213 -0.121271 0
0.119626 -0.122424 0
0.121039 -0.123578 0
0.122452 -0.124732 0
0.123866 -0.125886 0
0.125279 -0.12704 0
0.126692 -0.128194 0
0.128105 -0.129348 0
0.129519 -0.130501 0
0.130932 -0.131655 0
0.132345 -0.132809 0
0.133758 -0.133963 0
0.135172 -0.133216 0
0.135172 -0.131316 0
0.135172 -0.129415 0
0.135172 -0.127514 0
0.135172 -0.125614 0
0.135172 -0.123713 0
0.135172 -0.121813 0
0.135172 -0.119912 0
0.135172 -0.118012 0
0.135172 -0.116111 0
0.135172 -0.11421 0
0.135172 -0.11231 0
0.135172 -0.110409 0
0.135172 -0.108509 0
0.135172 -0.106608 0
0.135172 -0.104708 0
0.135172 -0.102807 0
0.135172 -0.100906 0
0.135172 -0.0990058 0
0.135172 -0.0971052 0
0.135172 -0.0952046 0
0.135172 -0.0933041 0
0.135172 -0.0914035 0
0.135172 -0.0895029 0
0.135172 -0.0876023 0
0.135172 -0.0857017 0
0.135172 -0.0838012 0
0.135172 -0.0819006 0
0.133758 -0.0788462 0
0.132345 -0.0776923 0
0.130932 -0.0765385 0
0.129519 -0.0753846 0
0.128105 -0.0742308 0
0.126692 -0.0730769 0
0.125279 -0.0719231 0
0.123866 -0.0707692 0
0.122452 -0.0696154 0
0.121039 -0.0684615 0
0.119626 -0.0673077 0
0.118213 -0.0661538 0
0.116799 -0.065 0
0.115386 -0.0638462 0
0.113973 -0.0626923 0
0.11256 -0.0615385 0
0.111146 -0.0603846 0
0.109733 -0.0592308 0
0.10832 -0.0580769 0
0.106907 -0.0569231 0
0.105493 -0.0557692 0
0.10408 -0.0546154 0
0.102667 -0.0534615 0
0.101254 -0.0523077 0
0.0998404 -0.0511538 0
0.0984272 -0.05 0
0.0970139 -0.0488462 0
0.0956006 -0.0476923 0
[...]
CELL_DATA 13116
SCALARS rho float
LOOKUP_TABLE default
0.5977
0.667041
0.521566
0.698141
0.696574
0.689788
0.376139
0.704321
0.5977
0.699502
0.349451
0.530824
0.696753
0.458433
0.478545
0.689616
0.5977
0.5977
0.689011
0.343116
0.5977
0.529207
0.505395
0.597705
0.5977
0.712073
0.700437
0.590757
0.5977
0.5977
0.688944
0.520237
0.5977
0.5977
0.383774
0.5977
0.5977
0.69001
0.689243
0.701207
0.689273
0.703116
0.5977
0.492222
0.689195
0.688675
0.66929
0.689665
0.514693
0.5977
0.70051
0.5977
0.410946
0.5977
0.5977
0.5977
0.489471
0.597339
0.5977
0.497483
0.462624
0.698894
0.661428
0.689333
0.689305
0.433038
0.689065
0.5977
0.689523
0.689724
0.477798
0.5977
0.535174
0.466102
0.643572
0.439455
0.5977
0.693477
0.354877
0.5977
0.5977
0.712988
0.597149
0.689927
0.689793
0.596245
0.391557
0.5977
0.713
0.336126
0.532387
0.679001
0.582524
0.70957
0.5977
0.5977
0.5977
0.684272
0.674128
0.5977
0.5977
0.5977
0.68923
0.5977
0.680403
0.510431
0.584229
0.5977
0.5483
0.5977
0.5977
0.716804
0.5977
0.5977
0.5977
0.688986
0.417184
0.597717
0.690344
0.689398
0.5977
0.55091
0.689489
0.532137
0.710855
0.597698
0.398797
0.5977
0.521983
0.5977
0.690176
0.68687
0.597699
0.520002
0.597704
0.5977
0.557774
0.689238
0.5977
0.689267
0.5977
0.676978
0.5977
0.5977
0.597675
0.478678
0.380706
0.710984
0.694125
0.701709
0.5977
0.689731
0.689656
0.396373
0.699665
0.689575
0.524846
0.5977
0.68569
0.5977
0.597705
0.349907
0.601084
0.525379
0.558226
0.698441
0.711096
0.5977
0.380935
0.597712
0.597715
0.557602
0.474718
0.5977
0.689061
0.505837
0.495529
0.533631
0.718302
0.689425
0.336863
0.59771
0.5977
0.5977
0.689487
0.5977
0.395877
0.689949
0.730737
0.5977
0.5977
0.711403
0.689602
0.550447
0.715529
0.689211
0.700893
0.689866
0.714282
0.5977
0.5977
0.5977
0.5977
0.474377
0.687475
0.689665
0.5977
0.5977
0.487172
0.337454
0.435804
0.689589
0.537555
0.336282
0.336451
0.40207
0.59753
0.68978
0.710916
0.59334
0.480812
0.689164
0.5977
0.336652
0.5977
0.698765
0.597704
0.597499
0.689012
0.588684
0.704506
0.522296
0.689302
0.5977
0.667664
0.703068
0.689699
0.525046
0.597698
0.5977
0.624603
0.689175
0.557712
0.689566
0.705414
0.501451
0.70161
0.698267
0.678622
0.364753
0.519242
0.68979
0.689824
0.689239
0.690186
0.5977
0.5977
0.346254
0.541636
0.597699
0.484624
0.636162
0.701282
0.5977
0.371257
0.689944
0.41169
0.597476
0.677723
0.36384
0.712115
0.700815
0.555343
0.596997
0.521971
0.553759
0.597702
0.685105
0.689211
0.347626
0.381873
0.553328
0.5977
0.5461
0.538336
0.576437
0.570175
0.690012
0.421526
0.703422
0.696993
0.383113
0.34097
0.405661
0.5977
0.562089
0.5977
0.5977
0.726286
0.359516
0.689424
0.5977
0.548986
0.496213
0.689761
0.689754
0.6898
0.401642
0.689231
0.5977
0.687051
0.702001
0.702822
0.701513
0.556836
0.689022
0.455191
0.689557
0.697987
0.5977
0.336319
0.574822
0.698082
0.406093
0.687667
0.698625
0.597714
0.5977
0.597385
0.393021
0.689842
0.582858
0.453708
0.688742
0.594424
0.5977
0.708966
0.595547
0.5977
0.37091
0.597702
0.577633
0.689727
0.597704
0.705661
0.596935
0.589369
0.689768
0.392299
0.688115
0.726313
0.597712
0.557687
0.392511
0.511521
0.69002
0.5977
0.5977
0.388551
0.528096
0.702375
0.696945
0.374199
0.698821
0.434353
0.515445
0.689325
0.707961
0.5977
0.33623
0.689198
0.689329
0.689451
0.689928
0.682341
0.5977
0.597714
0.474114
0.33695
0.689458
0.336508
0.5977
0.597715
0.542336
0.586353
0.5977
0.549509
0.386444
0.689777
0.53841
0.660266
0.5977
0.689002
0.5977
0.70189
0.516028
0.378901
0.5977
0.597569
0.688673
0.5977
0.689481
0.5977
0.597647
0.5977
0.71282
0.5977
0.5977
0.685837
0.5977
0.68986
0.597698
0.5977
0.5977
0.518656
0.5977
0.5977
0.408284
0.688952
0.574197
0.560235
0.336885
0.3363
0.385347
0.5977
0.431683
0.550391
0.689413
0.432026
0.5977
0.336138
0.689224
0.596475
0.590834
0.520413
0.689887
0.597704
0.336086
0.384629
0.336282
0.551713
0.379475
0.336371
0.547717
0.597704
0.33598
0.5977
0.58682
0.687755
0.5977
0.530531
0.597705
0.483374
0.33617
0.486534
0.689456
0.597714
0.5977
0.5977
0.425615
0.5977
0.712356
0.596023
0.5977
0.5977
0.5977
0.377768
0.673516
0.59771
0.649197
0.687254
0.570164
0.418421
0.731647
0.597711
0.59542
0.597704
0.584108
0.5977
0.594463
0.341098
0.490047
0.459642
0.5977
0.491373
0.437297
0.474192
0.452084
0.69913
0.698303
0.597698
0.5977
0.597701
0.717631
0.594561
0.42342
0.5977
0.573798
0.68983
0.569157
0.593941
0.5977
0.689523
0.711792
0.5977
0.597714
0.412491
0.5977
0.703504
0.689603
0.5977
0.653291
0.592717
0.335702
0.59748
0.5977
0.5977
0.579852
0.559716
0.5977
0.70526
0.5977
0.697746
0.709403
0.710608
0.597703
0.5977
0.689138
0.336284
0.689829
0.579886
0.495317
0.336074
0.698253
0.68956
0.572213
0.689507
0.5977
0.336416
0.689131
0.689628
0.640956
0.586684
0.417703
0.689323
0.336175
0.336272
0.494451
0.335799
0.689734
0.445994
0.697555
0.581616
0.642747
0.700625
0.689437
0.697001
0.336152
0.336937
0.690202
0.704016
0.5977
0.698873
0.698606
0.597709
0.387645
0.583711
0.689277
0.5977
0.336458
0.597707
0.540592
0.707346
0.689582
0.577789
0.535386
0.687574
0.596323
0.689775
0.5977
0.515163
0.588784
0.5977
0.588944
0.529413
0.712136
0.710658
0.690003
0.424248
0.556688
0.478734
0.657634
0.5977
0.336283
0.597297
0.540489
0.665933
0.548997
0.36905
0.597718
0.689192
0.685575
0.365082
0.538154
0.335894
0.689693
0.540936
0.689259
0.475033
0.5977
0.698452
0.597699
0.519954
0.510173
0.597709
0.586025
0.712296
0.413009
0.440005
0.68938
0.438458
0.689536
0.68689
0.679113
0.336532
0.68991
0.663844
0.700889
0.689319
0.711023
0.689127
0.502652
0.689584
0.594282
0.690144
0.349438
0.70471
0.5977
0.389848
0.68891
0.686897
0.399309
0.5977
0.531844
0.473038
0.689437
0.689561
0.539069
0.48756
0.359231
0.503334
0.708231
0.597705
0.418867
0.347933
0.687533
0.689115
0.5977
0.668419
0.689672
0.347171
0.70329
0.597715
0.700508
0.597717
0.5977
0.59771
0.689071
0.5977
0.5977
0.591856
0.583995
0.690149
0.5977
0.5977
0.647274
0.476345
0.597644
0.699837
0.589093
0.5977
0.690139
0.597715
0.689145
0.5977
0.573567
0.690436
0.5977
0.522972
0.678127
0.550091
0.703857
0.465531
0.68962
0.649094
0.595144
0.689547
0.617084
0.688017
0.5977
0.619286
0.5977
0.570183
0.5977
0.536056
0.463757
0.557667
0.5977
0.689242
0.693051
0.336539
0.574739
0.68182
0.698577
0.689822
0.701301
0.336641
0.5977
0.698209
0.340471
0.539505
0.690477
0.689735
0.687258
0.50845
0.5977
0.597713
0.633202
0.686844
0.688918
0.686887
0.336222
0.687795
0.696487
0.589793
0.688924
0.688726
0.593751
0.68445
0.337976
0.597702
0.698957
0.597712
0.594749
0.689066
0.700937
0.5977
0.597698
0.5977
0.5977
0.336201
0.336164
0.369119
0.335813
0.634381
0.597698
0.689239
0.573864
0.337448
0.689449
0.5977
0.449931
0.577194
0.597709
0.5977
0.690005
0.689809
0.597702
0.336384
0.336158
0.556774
0.530683
0.336293
0.418732
0.689013
0.59773
0.336249
0.5977
0.690381
0.72034
0.689322
0.689984
0.419815
0.454739
0.362977
0.5977
0.597714
0.525803
0.5977
0.5977
0.6888
0.689056
0.513739
0.336414
0.69806
0.336314
0.688833
0.664111
0.688995
0.539394
0.336347
0.707622
0.689786
0.5977
0.449416
0.689697
0.689407
0.5977
0.701708
0.702157
0.553252
0.617493
0.336321
0.68999
0.689689
0.5977
0.600201
0.557803
0.717103
0.550091
0.689108
0.437276
0.467885
0.336344
0.688891
0.5977
0.336375
0.683347
0.68702
0.528314
0.5977
0.597629
0.5977
0.5977
0.521155
0.698737
0.597702
0.336414
0.5977
0.689107
0.494562
0.709694
0.44458
0.507089
0.5977
0.5977
0.597705
0.689341
0.375578
0.628919
0.485431
0.518488
0.689573
0.33639
0.5977
0.538127
0.5977
0.5977
0.552471
0.711458
0.472751
0.445569
0.5977
0.5977
0.68951
0.5977
0.5977
0.690233
0.595822
0.5977
0.5977
0.717597
0.701756
0.689073
0.57925
0.336294
0.5977
0.716065
0.705981
0.597716
0.689057
0.5977
0.5977
0.538171
0.5977
0.5977
0.55758
0.667231
0.597703
0.597701
0.689606
0.5977
0.528642
0.5977
0.597709
0.703985
0.689644
0.56822
0.711685
0.698048
0.478351
0.513691
0.402996
0.557813
0.348998
0.5977
0.67697
0.5977
0.554867
0.690323
0.473724
0.5977
0.689749
0.689503
0.5977
0.689617
0.5977
0.5977
0.5977
0.68991
0.469125
0.689534
0.68946
0.5977
0.563333
0.595556
0.559186
0.476324
0.499207
0.702634
0.336355
0.554257
0.363069
0.704511
0.421984
0.59771
0.503365
0.612298
0.700628
0.5977
0.558631
0.5977
0.689873
0.339336
0.5977
0.698158
0.523967
0.5977
0.688241
0.698896
0.688729
0.576006
0.5977
0.689282
0.688959
0.597702
0.336234
0.597702
0.68967
0.557256
0.590816
0.557641
0.5977
0.686634
0.5977
0.689907
0.336322
0.477543
0.557176
0.695915
0.689294
0.440664
0.689489
0.5977
0.5977
0.464852
0.59435
0.698731
0.698539
0.5977
0.597715
0.689074
0.584797
0.373242
0.5977
0.597702
0.37497
0.529679
0.457969
0.723495
0.544638
0.336304
0.689904
0.5977
0.702934
0.5977
0.383796
0.383729
0.699023
0.470458
0.432353
0.689537
0.529483
0.596595
0.5977
0.711659
0.689623
0.337103
0.597721
0.353401
0.686618
0.513864
0.689795
0.435408
0.686252
0.71016
0.689727
0.680101
0.685912
0.68573
0.689939
0.697248
0.690001
0.44066
0.347695
0.672086
0.689704
0.597705
0.722379
0.5977
0.689746
0.5977
0.586248
0.689233
0.697976
0.690816
0.370353
0.687275
0.556173
0.690066
0.597709
0.5977
0.689295
0.522879
0.688444
0.336001
0.5977
0.642822
0.424814
0.5977
0.557703
0.70689
0.390397
0.689369
0.335861
0.537699
0.54337
0.336419
0.5977
0.479502
0.5977
0.688961
0.597716
0.553123
0.59771
0.5977
0.5977
0.597696
0.336469
0.414119
0.369805
0.500156
0.557312
0.5977
0.71523
0.593208
0.689176
0.680231
0.454141
0.698419
0.5977
0.688958
0.356481
0.637612
0.594873
0.686226
0.703758
0.490824
0.688648
0.687016
0.687139
0.5977
0.6891
0.540979
0.545377
0.689483
0.5977
0.336339
0.689509
0.52563
0.5977
0.5977
0.70097
0.694206
0.532992
0.724348
0.597699
0.370566
0.5977
0.688255
0.693077
0.697828
0.5977
0.538202
0.696296
0.494486
0.597706
0.698099
0.669526
0.68939
0.364916
0.545679
0.698248
0.550228
0.689964
0.5977
0.597714
0.566885
0.689413
0.53635
0.689123
0.690178
0.5977
0.538127
0.472928
0.5977
0.5977
0.5977
0.5977
0.689047
0.59723
0.687997
0.557701
0.685943
0.394225
0.563035
0.690098
0.689291
0.5977
0.597713
0.467047
0.597707
0.469996
0.689724
0.5977
0.597714
0.688833
0.338472
0.710958
0.523638
0.695858
0.517149
0.69019
0.689467
0.527782
0.71053
0.5977
0.534152
0.689506
0.689373
0.5977
0.478521
0.597716
0.5977
0.685229
0.597703
0.583381
0.5977
0.686663
0.689631
0.556106
0.5977
0.688217
0.595691
0.689054
0.689787
0.565033
0.69029
0.686086
0.513777
0.5977
0.374342
0.5977
0.382957
0.507875
0.697153
0.336136
0.335886
0.467333
0.689232
0.686739
0.597699
0.689051
0.597675
0.597704
0.335758
0.68644
0.597715
0.690103
0.689661
0.5977
0.689172
0.5977
0.689404
0.689051
0.561188
0.5977
0.5977
0.5977
0.685897
0.597708
0.5977
0.696448
0.339782
0.5977
0.597708
0.689431
0.438849
0.547808
0.597701
0.68993
0.339019
0.692412
0.5977
0.557815
0.701543
0.651593
0.336024
0.698829
0.336251
0.533967
0.710616
0.597706
0.703448
0.687631
0.518736
0.389196
0.357195
0.682671
0.689059
0.597708
0.710599
0.431556
0.389615
0.446491
0.711433
0.597718
0.697785
0.690114
0.5977
0.689459
0.689773
0.5977
0.5977
0.596336
0.532544
0.337791
0.646433
0.631678
0.447022
0.5977
0.723086
0.5977
0.569029
0.5977
0.595661
0.565782
0.597703
0.5977
0.336298
0.689465
0.661168
0.336169
0.689798
0.427028
0.689407
0.702359
0.686809
0.47452
0.597659
0.5977
0.569177
0.595119
0.689759
0.575377
0.689302
0.689048
0.711577
0.5977
0.597697
0.689094
0.5977
0.689067
0.58392
0.701455
0.501227
0.469244
0.689795
0.689974
0.689327
0.557943
0.689413
0.5977
0.636843
0.420231
0.432054
0.336118
0.693755
0.368265
0.437981
0.515848
0.5977
0.433492
0.567254
0.596866
0.689949
0.336054
0.689154
0.689332
0.687845
0.39642
0.689198
0.5977
0.689014
0.595363
0.5977
0.385237
0.339585
0.68934
0.339136
0.5977
0.681198
0.555762
0.336146
0.575392
0.394276
0.5977
0.557753
0.559891
0.690046
0.689316
0.5977
0.335917
0.490541
0.57862
0.59763
0.336306
0.557765
0.5977
0.689269
0.689891
0.345667
0.5977
0.506343
0.5977
0.5977
0.697941
0.5977
0.5977
0.5977
0.597701
0.697259
0.361155
0.597698
0.441333
0.5977
0.5977
0.668613
0.33615
0.597717
0.666728
0.689589
0.68958
0.337837
0.695045
0.5977
0.5977
0.597703
0.566905
0.337052
0.566648
0.689863
0.689695
0.5977
0.719273
0.578595
0.707193
0.5977
0.689822
0.689419
0.706088
0.698226
0.68951
0.59725
0.687368
0.579384
0.688697
0.701551
0.688779
0.689462
0.690052
0.5977
0.336293
0.522365
0.5977
0.336156
0.597714
0.701994
0.459668
0.5977
0.689521
0.679846
0.69087
0.57016
0.70645
0.545445
0.461618
0.689595
0.687308
0.689097
0.406909
0.699089
0.689447
0.5977
0.689879
0.516701
0.688928
0.698505
0.602979
0.5977
0.597704
0.345988
0.696578
0.434601
0.336294
0.5977
0.597711
0.698682
0.589019
0.688791
0.507388
0.689005
0.597699
0.466574
0.715026
0.59771
0.336152
0.689328
0.533347
0.597702
0.5977
0.58958
0.687675
0.597709
0.5977
0.5977
0.689336
0.5977
0.694187
0.5977
0.702776
0.718652
0.5977
0.508426
0.353114
0.597712
0.694
0.559963
0.5977
0.700076
0.5977
0.689161
0.5977
0.5977
0.5977
0.357537
0.687443
0.729132
0.5977
0.731192
0.697114
0.712271
0.689486
0.335937
0.449818
0.689998
0.5977
0.5977
0.689442
0.690168
0.68895
0.706453
0.704135
0.5977
0.596691
0.697736
0.454365
0.539218
0.444627
0.594979
0.554239
0.597698
0.5977
0.688954
0.5977
0.54567
0.690717
0.697547
0.413923
0.595649
0.591502
0.689205
0.588835
0.511017
0.496356
0.557805
0.712769
0.5977
0.393101
0.336258
0.521966
0.597626
0.336162
0.705678
0.689707
0.637826
0.364039
0.68251
0.5977
0.5977
0.578447
0.339532
0.714149
0.560436
0.336208
0.689559
0.336145
0.597703
0.575571
0.689336
0.366891
0.688922
0.69836
0.389103
0.5977
0.554961
0.698643
0.53132
0.5977
0.517134
0.5977
0.382902
0.5977
0.337751
0.689089
0.689246
0.5977
0.685288
0.583237
0.68655
0.688689
0.698795
0.5977
0.597704
0.338114
0.5977
0.442931
0.584717
0.565393
0.697861
0.5977
0.597703
0.698897
0.5977
0.687202
0.468361
0.455118
0.453042
0.5977
0.5977
0.690242
0.356605
0.531626
0.689408
0.589026
0.532922
0.5977
0.596896
0.336139
0.519837
0.703175
0.5977
0.5977
0.493526
0.686092
0.689612
0.521845
0.577867
0.689917
0.689827
0.5977
0.5977
0.592615
0.583953
0.390666
0.708213
0.5977
0.5977
0.5977
0.492792
0.5977
0.340953
0.689289
0.69783
0.336392
0.546953
0.5977
0.5977
0.69715
0.689406
0.695097
0.704466
0.698274
0.410228
0.525009
0.447476
0.345605
0.5977
0.688218
0.5977
0.337976
0.336483
0.5977
0.527803
0.689043
0.590146
0.336365
0.577419
0.689531
0.529103
0.5977
0.681201
0.687086
0.689026
0.5977
0.336294
0.377498
0.597557
0.336218
0.5977
0.597698
0.689357
0.689787
0.55867
0.336266
0.557969
0.339987
0.689203
0.580499
0.33607
0.481497
0.417936
0.689383
0.421492
0.557752
0.588101
0.5977
0.51751
0.5977
0.688573
0.690426
0.367685
0.690286
0.5977
0.5374
0.69051
0.700665
0.361131
0.336314
0.715007
0.345471
0.345901
0.687694
0.581454
0.689129
0.5977
0.597546
0.5977
0.695332
0.689096
0.688911
0.360401
0.592792
0.5977
0.68935
0.597638
0.698819
0.587955
0.689123
0.687628
0.5977
0.5977
0.5977
0.597706
0.690568
0.688557
0.720389
0.699063
0.689593
0.547579
0.701877
0.557814
0.711135
0.714333
0.706069
0.558469
0.689054
0.538204
0.713085
0.554263
0.689446
0.688834
0.589383
0.686578
0.5977
0.472263
0.39328
0.57272
0.362162
0.686251
0.357618
0.361058
0.597702
0.51137
0.597668
0.38604
0.687751
0.689326
0.336175
0.588477
0.597715
0.688276
0.487542
0.690208
0.688235
0.402267
0.715192
0.5977
0.597698
0.58304
0.52252
0.5977
0.336366
0.687412
0.5977
0.563198
0.688947
0.689363
0.692868
0.336199
0.5977
0.518841
0.682568
0.689845
0.689038
0.336226
0.688726
0.68936
0.724257
0.597715
0.687684
0.336287
0.335705
0.698679
0.597698
0.700661
0.5977
0.336222
0.597698
0.717369
0.553469
0.539234
0.469438
0.5977
0.671364
0.689214
0.455696
0.5977
0.689524
0.5977
0.5977
0.597714
0.5977
0.336241
0.336703
0.689358
0.335793
0.336405
0.701975
0.699004
0.418587
0.5977
0.413928
0.556627
0.595616
0.713309
0.689636
0.5977
0.689292
0.496205
0.33711
0.536388
0.69001
0.716528
0.5977
0.5977
0.58624
0.569242
0.689467
0.356863
0.689225
0.587048
0.688813
0.5977
0.386725
0.504948
0.335977
0.336264
0.523298
0.5977
0.685925
0.364029
0.68903
0.5977
0.570866
0.47062
0.698237
0.336169
0.689823
0.595009
0.5977
0.5977
0.689009
0.678696
0.457227
0.702496
0.689297
0.702609
0.336179
0.597702
0.5977
0.597715
0.697661
0.5977
0.706036
0.686919
0.698396
0.70711
0.700999
0.688804
0.689364
0.336335
0.620105
0.336063
0.5977
0.689965
0.533809
0.689809
0.587019
0.524912
0.726845
0.336188
0.53349
0.709924
0.5977
0.699133
0.33879
0.687091
0.5977
0.588562
0.365173
0.711054
0.689583
0.59334
0.48394
0.632523
0.698384
0.336408
0.5977
0.6978
0.5977
0.407812
0.336222
0.526203
0.5977
0.519144
0.690571
0.5977
0.689253
0.5977
0.689921
0.338193
0.69717
0.5977
0.698353
0.5977
0.55178
0.36408
0.500323
0.597707
0.688393
0.593812
0.5977
0.597719
0.5977
0.689372
0.480926
0.5977
0.690716
0.5977
0.37142
0.378675
0.596871
0.690365
0.699225
0.5977
0.5977
0.690228
0.336155
0.5977
0.593583
0.688068
0.376188
0.5977
0.530797
0.669952
0.511804
0.690196
0.709745
0.487295
0.690505
0.5977
0.557746
0.5977
0.557773
0.703711
0.597699
0.68945
0.689413
0.689416
0.690216
0.597706
0.589137
0.43322
0.689248
0.494878
0.336218
0.51101
0.517292
0.336141
0.36976
0.698462
0.585145
0.443932
0.5977
0.690462
0.686553
0.5977
0.5977
0.5977
0.688937
0.550671
0.5977
0.689038
0.56558
0.496916
0.337386
0.5977
0.597704
0.336133
0.5977
0.516183
0.670304
0.597706
0.405713
0.59771
0.5977
0.596907
0.689452
0.48276
0.5977
0.592673
0.707166
0.597639
0.5977
0.581352
0.729076
0.5977
0.33629
0.709111
0.697959
0.501834
0.537847
0.690203
0.336258
0.597703
0.363472
0.5977
0.49815
0.68908
0.526937
0.698411
0.336321
0.689496
0.689947
0.695534
0.560945
0.430831
0.525891
0.5977
0.712358
0.597701
0.721129
0.5977
0.526416
0.685728
0.597711
0.717096
0.597701
0.5977
0.564977
0.677584
0.689831
0.513166
0.689507
0.708194
0.685905
0.596744
0.487181
0.5977
0.336003
0.687652
0.523417
0.689574
0.716824
0.711327
0.699158
0.568133
0.698779
0.336077
0.365783
0.689319
0.574932
0.5977
0.690574
0.565744
0.336169
0.5977
0.708113
0.702201
0.538014
0.597712
0.5977
0.362982
0.689129
0.705356
0.689763
0.705585
0.564486
0.5977
0.5977
0.495921
0.68771
0.697976
0.5977
0.710725
0.5592
0.597593
0.5977
0.5977
0.710159
0.379
0.556098
0.690191
0.689538
0.514523
0.59081
0.514219
0.515562
0.442593
0.53072
0.577254
0.336268
0.690098
0.492285
0.408402
0.615598
0.5977
0.557715
0.597705
0.336223
0.689504
0.5977
0.5977
0.699105
0.597086
0.5977
0.68889
0.5977
0.686313
0.483198
0.689495
0.689035
0.417713
0.335816
0.5977
0.589261
0.5977
0.698139
0.689551
0.688451
0.686945
0.5977
0.690263
0.689036
0.711028
0.336441
0.689141
0.5977
0.597699
0.597714
0.416562
0.506872
0.445225
0.5977
0.5977
0.673538
0.336099
0.590522
0.698101
0.526692
0.687607
0.689387
0.689954
0.5977
0.689707
0.559738
0.511944
0.502325
0.5977
0.518275
0.689516
0.502549
0.689268
0.68921
0.688668
0.58778
0.5977
0.597698
0.689771
0.466912
0.339484
0.706577
0.686494
0.5977
0.689928
0.712085
0.597703
0.336336
0.5977
0.695141
0.5977
0.689782
0.685218
0.594916
0.596188
0.594029
0.702329
0.597706
0.5977
0.335991
0.589623
0.689775
0.5977
0.519394
0.673848
0.5977
0.691943
0.687141
0.336371
0.338191
0.686783
0.5977
0.5977
0.689449
0.710801
0.535036
0.689812
0.688946
0.686835
0.336186
0.5977
0.336339
0.689199
0.697809
0.597705
0.628771
0.688596
0.570947
0.597696
0.686237
0.336026
0.5977
0.554656
0.68931
0.471718
0.5977
0.695413
0.684961
0.336288
0.557798
0.641527
0.342924
0.590822
0.521286
0.702756
0.336342
0.377615
0.48379
0.593671
0.68951
0.576584
0.571885
0.710883
0.697608
0.597703
0.5977
0.336162
0.5977
0.336302
0.68353
0.338669
0.5977
0.70874
0.595599
0.5977
0.372458
0.689246
0.430321
0.340135
0.701515
0.555626
0.597703
0.5977
0.481827
0.697195
0.689618
0.710656
0.5977
0.552484
0.5977
0.537956
0.33676
0.688786
0.689724
0.603136
0.336185
0.597549
0.5977
0.698426
0.5977
0.699795
0.5977
0.607147
0.589858
0.698504
0.698408
0.5977
0.700435
0.534681
0.590422
0.336124
0.528577
0.51745
0.336202
0.699207
0.690489
0.698583
0.681251
0.687244
0.584311
0.5977
0.557527
0.493948
0.343816
0.507232
0.335779
0.68836
0.689968
0.342021
0.473535
0.689467
0.56568
0.597699
0.678479
0.5977
0.5977
0.5977
0.668991
0.597699
0.689627
0.690274
0.715925
0.698222
0.5977
0.694446
0.689386
0.540111
0.463239
0.684443
0.597215
0.54515
0.571653
0.335903
0.5977