# vtk DataFile Version 1.0
unstructured grid
ascii
DATASET UNSTRUCTURED_GRID
points 13672 float
0.0796578 -0.059106 0
0.00128732 0.00159165 0
0.00227961 -0.00102548 0
0.0791586 -0.0598787 0
-0.0546216 0.01 0
0.000495206 0.025 0
0.0800549 -0.035 0
0.135172 -0.08 0
-0.0546216 -0.0451168 0
0.000495206 -0.0301168 0
0.0800549 -0.0901168 0
0.135172 -0.135117 0
-0.0546216 -0.0451168 -0.00551168
0.000495206 -0.0301168 -0.00551168
0.0800549 -0.0901168 -0.00551168
0.135172 -0.135117 -0.00551168
0.135172 -0.08 -0.00551168
0.0800549 -0.035 -0.00551168
0.000495206 0.025 -0.00551168
-0.0546216 0.01 -0.00551168
0.00128732 0.00159165 -0.00551168
0.00227961 -0.00102548 -0.00551168
0.0791586 -0.0598787 -0.00551168
0.0796578 -0.059106 -0.00551168
0.00165953 -0.000990923 0
0.00119576 -0.000874076 0
0.000866021 -0.000641801 0
0.000645147 -0.000349912 0
0.00052235 -1.7281e-05 0
0.00049972 0.000348016 0
0.000601632 0.000737716 0
0.000861774 0.0011403 0
0.00157235 0.00183217 0
0.00188647 0.00206725 0
0.00222612 0.00230203 0
0.00258713 0.00254351 0
0.00296826 0.00279524 0
0.00337118 0.00305664 0
0.00379785 0.00332658 0
0.00425045 0.00360349 0
0.00473139 0.00388521 0
0.0052432 0.00416895 0
0.0057881 0.00445204 0
0.00636753 0.00473281 0
0.00698281 0.00500961 0
0.00763526 0.00528058 0
0.00832616 0.00554366 0
0.00905691 0.00579603 0
0.00982918 0.00603333 0
0.0106445 0.00625033 0
0.0115038 0.00644128 0
0.0124073 0.00660297 0
0.0133543 0.00673414 0
0.0143444 0.00683382 0
0.0153769 0.00690031 0
0.0164512 0.00693173 0
0.0175666 0.00692547 0
0.0187219 0.00687822 0
0.0199156 0.00678477 0
0.0211454 0.00663864 0
0.0224084 0.00643275 0
0.0237018 0.00616676 0
0.0250249 0.00584739 0
0.026375 0.00547298 0
0.0277479 0.00503752 0
0.0291386 0.00453545 0
0.0305433 0.0039653 0
0.0319572 0.0033256 0
0.0333681 0.00260019 0
0.034775 0.00179799 0
0.0361793 0.000930615 0
0.0375798 3.12222e-06 0
0.0389689 -0.000988429 0
0.0403357 -0.00205109 0
0.041675 -0.00318283 0
0.0429849 -0.00437751 0
0.0442643 -0.00562904 0
0.0455126 -0.00693089 0
0.0467314 -0.00827518 0
0.0479204 -0.00965638 0
0.0490661 -0.0110799 0
0.0501515 -0.0125519 0
0.0511696 -0.0140695 0
0.0521492 -0.0156071 0
0.0531202 -0.0171411 0
0.0540851 -0.0186663 0
0.0550431 -0.0201798 0
0.0559923 -0.0216793 0
0.0569311 -0.0231626 0
0.0578582 -0.0246273 0
0.0587723 -0.0260715 0
0.0596721 -0.027493 0
0.0605563 -0.02889 0
0.0614241 -0.0302609 0
0.0622742 -0.0316042 0
0.063106 -0.0329183 0
0.0639186 -0.034202 0
0.0647113 -0.0354543 0
0.0654835 -0.0366743 0
0.0662345 -0.0378613 0
0.0669642 -0.0390145 0
0.0676726 -0.0401333 0
0.0683597 -0.0412172 0
0.0690246 -0.0422665 0
0.0696662 -0.0432819 0
0.0702841 -0.0442636 0
0.0708793 -0.0452111 0
0.0714538 -0.0461237 0
0.072009 -0.047001 0
0.0725452 -0.0478434 0
0.0730611 -0.0486524 0
0.073556 -0.0494294 0
0.0740291 -0.0501756 0
0.0744812 -0.0508916 0
0.0749138 -0.0515773 0
0.0753285 -0.0522331 0
0.0757266 -0.0528592 0
0.076109 -0.0534564 0
0.0764753 -0.0540264 0
0.0768243 -0.054571 0
0.0771553 -0.0550919 0
0.0774679 -0.0555901 0
0.0777617 -0.0560669 0
0.0780369 -0.056523 0
0.0782958 -0.0569578 0
0.0785421 -0.0573703 0
0.0787786 -0.0577603 0
0.0790073 -0.0581279 0
0.0792295 -0.058474 0
0.0794462 -0.0587995 0
0.0798803 -0.0594162 0
0.0800272 -0.0596588 0
0.0800357 -0.0598891 0
0.0799275 -0.0600784 0
0.0797205 -0.0601773 0
0.0794593 -0.0601051 0
0.0789155 -0.0596491 0
0.0786707 -0.0593963 0
0.0784111 -0.0591319 0
0.0781372 -0.0588542 0
0.0778566 -0.0585548 0
0.0775715 -0.0582308 0
0.0772803 -0.0578828 0
0.0769832 -0.0575099 0
0.0766822 -0.0571097 0
0.0763801 -0.0566796 0
0.0760759 -0.0562196 0
0.0757623 -0.0557337 0
0.0754359 -0.0552232 0
0.0750951 -0.0546879 0
0.0747379 -0.054128 0
0.0743626 -0.0535435 0
0.0739688 -0.0529338 0
0.0735559 -0.0522981 0
0.0731238 -0.0516357 0
0.0726718 -0.050946 0
0.0721991 -0.0502288 0
0.0717046 -0.049484 0
0.0711872 -0.0487117 0
0.0706461 -0.047912 0
0.0700804 -0.0470849 0
0.0694892 -0.0462308 0
0.0688718 -0.0453499 0
0.0682271 -0.0444431 0
0.0675544 -0.043511 0
0.0668527 -0.0425546 0
0.0661215 -0.0415748 0
0.06536 -0.040573 0
0.0645676 -0.0395504 0
0.0637439 -0.0385087 0
0.0628887 -0.0374493 0
0.062002 -0.0363741 0
0.0610838 -0.0352847 0
0.0601345 -0.0341831 0
0.0591547 -0.033071 0
0.0581456 -0.0319502 0
0.0571083 -0.0308224 0
0.0560444 -0.0296893 0
0.0549562 -0.028552 0
0.053845 -0.0274126 0
0.0527113 -0.0262746 0
0.051554 -0.0251427 0
0.0503724 -0.0240222 0
0.0491675 -0.0229164 0
0.047941 -0.0218282 0
0.0466955 -0.0207597 0
0.0454337 -0.0197126 0
0.0441592 -0.0186878 0
0.0428751 -0.0176863 0
0.0415841 -0.0167097 0
0.0402878 -0.0157609 0
0.0389879 -0.0148428 0
0.0376864 -0.0139575 0
0.0363853 -0.013107 0
0.0350871 -0.0122931 0
0.0337942 -0.0115164 0
0.0325095 -0.0107772 0
0.0312357 -0.0100756 0
0.0299758 -0.00941024 0
0.0287337 -0.00877784 0
0.0275126 -0.00817571 0
0.0263139 -0.00760375 0
0.0251376 -0.00706528 0
0.0239829 -0.0065649 0
0.0228537 -0.00609619 0
0.0217522 -0.00565563 0
0.0206795 -0.00524226 0
0.0196364 -0.00485507 0
0.0186233 -0.00449318 0
0.0176408 -0.00415577 0
0.016689 -0.00384204 0
0.0157682 -0.00355115 0
0.0148783 -0.00328218 0
0.0140192 -0.00303468 0
0.0131906 -0.00280795 0
0.0123925 -0.00260016 0
0.0116246 -0.00241012 0
0.0108864 -0.00223769 0
0.0101774 -0.00208212 0
0.00949701 -0.00194206 0
0.00884483 -0.0018163 0
0.0082202 -0.0017039 0
0.00762247 -0.00160391 0
0.00705097 -0.00151528 0
0.006505 -0.00143697 0
0.0059838 -0.00136806 0
0.00548662 -0.00130772 0
0.00501265 -0.00125519 0
0.00456114 -0.00120954 0
0.00413136 -0.00116914 0
0.00372257 -0.00113251 0
0.00333398 -0.00109853 0
0.00296466 -0.00106798 0
0.00261363 -0.0010431 0
-0.052721 -0.0445996 0
-0.0508204 -0.0440823 0
-0.0489199 -0.0435651 0
-0.0470193 -0.0430478 0
-0.0451187 -0.0425306 0
-0.0432181 -0.0420134 0
-0.0413175 -0.0414961 0
-0.039417 -0.0409789 0
-0.0375164 -0.0404616 0
-0.0356158 -0.0399444 0
-0.0337152 -0.0394271 0
-0.0318146 -0.0389099 0
-0.0299141 -0.0383927 0
-0.0280135 -0.0378754 0
-0.0261129 -0.0373582 0
-0.0242123 -0.0368409 0
-0.0223117 -0.0363237 0
-0.0204112 -0.0358065 0
-0.0185106 -0.0352892 0
-0.01661 -0.034772 0
-0.0147094 -0.0342547 0
-0.0128088 -0.0337375 0
-0.0109083 -0.0332202 0
-0.00900769 -0.032703 0
-0.00710711 -0.0321858 0
-0.00520653 -0.0316685 0
-0.00330595 -0.0311513 0
-0.00140537 -0.030634 0
0.00190689 -0.0299614 0
0.00332271 -0.0298498 0
0.00474133 -0.0297825 0
0.00616136 -0.0297597 0
0.0075814 -0.0297814 0
0.00900007 -0.0298477 0
0.010416 -0.0299583 0
0.0118278 -0.0301127 0
0.0132342 -0.0303103 0
0.0146339 -0.0305504 0
0.0160259 -0.0308322 0
0.0174091 -0.0311546 0
0.0187824 -0.0315166 0
0.020145 -0.031917 0
0.0214961 -0.0323546 0
0.0228351 -0.032828 0
0.0241613 -0.0333361 0
0.0254744 -0.0338774 0
0.0267738 -0.0344507 0
0.0280592 -0.0350545 0
0.0293306 -0.0356877 0
0.0305875 -0.0363488 0
0.0318301 -0.0370367 0
0.0330581 -0.0377501 0
0.0342717 -0.0384879 0
0.0354708 -0.0392489 0
0.0366556 -0.0400321 0
0.0378262 -0.0408363 0
0.0389828 -0.0416607 0
0.0401254 -0.0425042 0
0.0412543 -0.0433659 0
0.0423698 -0.0442451 0
0.043472 -0.0451408 0
0.0445612 -0.0460523 0
0.0456375 -0.0469789 0
0.0467013 -0.0479199 0
0.0477529 -0.0488746 0
0.0487923 -0.0498424 0
0.04982 -0.0508227 0
0.0508362 -0.051815 0
0.051841 -0.0528187 0
0.0528348 -0.0538333 0
0.0538178 -0.0548584 0
0.0547903 -0.0558935 0
0.0557524 -0.0569382 0
0.0567045 -0.0579922 0
0.0576467 -0.0590549 0
0.0585792 -0.0601261 0
0.0595024 -0.0612055 0
0.0604163 -0.0622926 0
0.0613212 -0.0633873 0
0.0622174 -0.0644891 0
0.0631049 -0.0655979 0
0.0639841 -0.0667134 0
0.064855 -0.0678353 0
0.0657179 -0.0689633 0
0.0665729 -0.0700974 0
0.0674202 -0.0712372 0
0.06826 -0.0723826 0
0.0690925 -0.0735333 0
0.0699178 -0.0746892 0
0.070736 -0.0758501 0
0.0715473 -0.0770159 0
0.0723518 -0.0781863 0
0.0731498 -0.0793612 0
0.0739412 -0.0805405 0
0.0747264 -0.081724 0
0.0755053 -0.0829116 0
0.0762781 -0.0841033 0
0.0770449 -0.0852987 0
0.0778059 -0.0864979 0
0.0785611 -0.0877007 0
0.0793108 -0.088907 0
0.0814681 -0.0912706 0
0.0828814 -0.0924245 0
0.0842946 -0.0935783 0
0.0857079 -0.0947322 0
0.0871211 -0.095886 0
0.0885344 -0.0970399 0
0.0899476 -0.0981937 0
0.0913609 -0.0993476 0
0.0927741 -0.100501 0
0.0941874 -0.101655 0
0.0956006 -0.102809 0
0.0970139 -0.103963 0
0.0984272 -0.105117 0
0.0998404 -0.106271 0
0.101254 -0.107424 0
0.102667 -0.108578 0
0.10408 -0.109732 0
0.105493 -0.110886 0
0.106907 -0.11204 0
0.10832 -0.113194 0
0.109733 -0.114348 0
0.111146 -0.115501 0
0.11256 -0.116655 0
0.113973 -0.117809 0
0.115386 -0.118963 0
0.116799 -0.120117 0
0.118213 -0.121271 0
0.119626 -0.122424 0
0.121039 -0.123578 0
0.122452 -0.124732 0
0.123866 -0.125886 0
0.125279 -0.12704 0
0.126692 -0.128194 0
0.128105 -0.129348 0
0.129519 -0.130501 0
0.130932 -0.131655 0
0.132345 -0.132809 0
0.133758 -0.133963 0
0.135172 -0.133216 0
0.135172 -0.131316 0
0.135172 -0.129415 0
0.135172 -0.127514 0
0.135172 -0.125614 0
0.135172 -0.123713 0
0.135172 -0.121813 0
0.135172 -0.119912 0
0.135172 -0.118012 0
0.135172 -0.116111 0
0.135172 -0.11421 0
0.135172 -0.11231 0
0.135172 -0.110409 0
0.135172 -0.108509 0
0.135172 -0.106608 0
0.135172 -0.104708 0
0.135172 -0.102807 0
0.135172 -0.100906 0
0.135172 -0.0990058 0
0.135172 -0.0971052 0
0.135172 -0.0952046 0
0.135172 -0.0933041 0
0.135172 -0.0914035 0
0.135172 -0.0895029 0
0.135172 -0.0876023 0
0.135172 -0.0857017 0
0.135172 -0.0838012 0
0.135172 -0.0819006 0
0.133758 -0.0788462 0
0.132345 -0.0776923 0
0.130932 -0.0765385 0
0.129519 -0.0753846 0
0.128105 -0.0742308 0
0.126692 -0.0730769 0
0.125279 -0.0719231 0
0.123866 -0.0707692 0
0.122452 -0.0696154 0
0.121039 -0.0684615 0
0.119626 -0.0673077 0
0.118213 -0.0661538 0
0.116799 -0.065 0
0.115386 -0.0638462 0
0.113973 -0.0626923 0
0.11256 -0.0615385 0
0.111146 -0.0603846 0
0.109733 -0.0592308 0
0.10832 -0.0580769 0
0.106907 -0.0569231 0
0.105493 -0.0557692 0
0.10408 -0.0546154 0
0.102667 -0.0534615 0
0.101254 -0.0523077 0
0.0998404 -0.0511538 0
0.0984272 -0.05 0
0.0970139 -0.0488462 0
0.0956006 -0.0476923 0
[...]
CELL_DATA 13116
SCALARS rho float
LOOKUP_TABLE default
0.663759
0.699922
0.359381
0.699703
0.703166
0.69611
0.331865
0.701267
0.576042
0.705197
0.333374
0.361708
0.703126
0.351515
0.37573
0.696017
0.663778
0.712423
0.703293
0.33088
0.651043
0.387637
0.362105
0.711239
0.592837
0.695202
0.705438
0.368863
0.593237
0.70258
0.597195
0.359643
0.583323
0.528623
0.33284
0.662804
0.718263
0.700914
0.692559
0.697986
0.704148
0.700695
0.54851
0.352275
0.701827
0.702952
0.692123
0.708361
0.398379
0.563933
0.700035
0.543619
0.335765
0.662716
0.584528
0.594477
0.351845
0.708653
0.566873
0.385156
0.352308
0.701656
0.695775
0.691561
0.641499
0.337993
0.697618
0.730222
0.697533
0.67276
0.375795
0.586796
0.381667
0.347772
0.554607
0.341118
0.695206
0.703677
0.331693
0.714218
0.720798
0.694279
0.710245
0.70858
0.699131
0.492914
0.329062
0.745269
0.695999
0.335932
0.358061
0.700291
0.708833
0.697376
0.706732
0.681655
0.591483
0.559425
0.555836
0.594358
0.73321
0.680549
0.703203
0.495554
0.687185
0.377139
0.462454
0.572065
0.364637
0.597113
0.584198
0.691736
0.668202
0.727123
0.713924
0.697799
0.335381
0.479818
0.709642
0.698358
0.732127
0.384111
0.697554
0.357537
0.697825
0.513019
0.330353
0.549063
0.360366
0.562087
0.70749
0.710634
0.528324
0.395735
0.517144
0.676882
0.557912
0.698462
0.736784
0.698351
0.687817
0.692888
0.551029
0.688942
0.695016
0.360943
0.332892
0.69345
0.702938
0.699648
0.557704
0.707971
0.707955
0.331911
0.70557
0.698227
0.364347
0.727896
0.564562
0.745774
0.711105
0.332927
0.707597
0.363703
0.38187
0.701779
0.697011
0.713076
0.33241
0.505525
0.488815
0.557728
0.372292
0.545981
0.69757
0.363749
0.382103
0.383972
0.691245
0.689934
0.334906
0.502255
0.587687
0.720182
0.69135
0.568759
0.327239
0.697187
0.688206
0.528716
0.691217
0.693086
0.677689
0.365312
0.691276
0.694959
0.706229
0.697085
0.695719
0.444179
0.496754
0.597701
0.546362
0.351878
0.718016
0.704242
0.549424
0.688358
0.374642
0.33498
0.339031
0.69683
0.365931
0.334734
0.335609
0.332392
0.470069
0.689124
0.697697
0.486712
0.349713
0.697615
0.582144
0.335434
0.557402
0.702982
0.694114
0.370064
0.697457
0.473399
0.700824
0.360256
0.686951
0.579399
0.547981
0.697389
0.685264
0.399542
0.509531
0.745103
0.554908
0.694196
0.557944
0.688773
0.701168
0.383295
0.699819
0.704885
0.55488
0.333563
0.400694
0.705487
0.707274
0.674603
0.711197
0.659936
0.7243
0.333361
0.408951
0.458879
0.372572
0.685353
0.706549
0.693481
0.329125
0.696934
0.330336
0.489354
0.687769
0.334584
0.694439
0.700467
0.557184
0.708923
0.398434
0.557499
0.722913
0.551162
0.698304
0.331727
0.327577
0.365968
0.67653
0.381297
0.401857
0.45121
0.438566
0.699886
0.340491
0.695405
0.701797
0.326537
0.331386
0.329007
0.512177
0.366593
0.743638
0.679695
0.689651
0.334776
0.695742
0.576996
0.404379
0.385099
0.695927
0.705387
0.697288
0.327917
0.695193
0.508333
0.710296
0.700404
0.699281
0.700523
0.365359
0.697441
0.357942
0.697216
0.703564
0.751049
0.33375
0.448633
0.704206
0.329598
0.695829
0.701639
0.424063
0.720611
0.710421
0.327292
0.697987
0.708947
0.354191
0.700633
0.489664
0.568693
0.701358
0.49341
0.72747
0.328901
0.711301
0.451161
0.689376
0.681202
0.705707
0.368971
0.465314
0.699019
0.333162
0.716657
0.689021
0.498739
0.557716
0.328126
0.370585
0.714394
0.560868
0.725939
0.32795
0.364528
0.699676
0.701856
0.332777
0.701015
0.341108
0.382463
0.698131
0.701394
0.582822
0.336239
0.698247
0.626377
0.695771
0.697031
0.7186
0.560002
0.387006
0.367892
0.334252
0.69563
0.334873
0.589965
0.430908
0.363441
0.461792
0.585662
0.212816
0.332445
0.699774
0.366883
0.707945
0.594543
0.705244
0.746276
0.700271
0.370575
0.327605
0.452256
0.402664
0.714631
0.65729
0.704106
0.59448
0.696165
0.690956
0.693876
0.684521
0.699326
0.720664
0.714934
0.696091
0.462803
0.549213
0.661466
0.381671
0.679084
0.592014
0.334588
0.697568
0.557215
0.36629
0.332194
0.334579
0.327126
0.597703
0.350415
0.365542
0.697198
0.336643
0.580965
0.335816
0.696854
0.71454
0.37039
0.393304
0.714091
0.509772
0.336142
0.326747
0.336285
0.365288
0.327336
0.332508
0.393911
0.491905
0.333919
0.679999
0.381119
0.695363
0.419219
0.354661
0.522738
0.36434
0.335766
0.365086
0.697346
0.497426
0.592029
0.580533
0.334979
0.68874
0.695914
0.491183
0.720258
0.687771
0.686558
0.327049
0.552655
0.481405
0.710171
0.56291
0.367035
0.340542
0.687408
0.404324
0.492436
0.682288
0.46179
0.728812
0.695719
0.331673
0.379218
0.363561
0.544224
0.382213
0.346648
0.37256
0.356056
0.701285
0.700989
0.515523
0.595456
0.519675
0.690735
0.461832
0.347354
0.577665
0.367268
0.709003
0.418971
0.471243
0.525783
0.701595
0.696235
0.565589
0.420109
0.338229
0.563511
0.701044
0.68595
0.561807
0.687494
0.684947
0.333908
0.713973
0.577222
0.744542
0.446108
0.36669
0.72674
0.706798
0.747299
0.703633
0.694225
0.69688
0.711124
0.744011
0.704897
0.336225
0.701227
0.453661
0.379841
0.335483
0.700012
0.704388
0.445387
0.69842
0.597586
0.333967
0.689735
0.705995
0.720424
0.368478
0.344722
0.712866
0.336294
0.33626
0.370198
0.334099
0.707371
0.350883
0.69907
0.380029
0.700342
0.699988
0.697453
0.702156
0.336284
0.333003
0.706119
0.700865
0.705968
0.701455
0.705183
0.515544
0.326832
0.36782
0.695118
0.57146
0.334553
0.509317
0.36306
0.699892
0.697386
0.446277
0.389698
0.696308
0.496441
0.699897
0.759514
0.35924
0.472654
0.702213
0.555985
0.363881
0.695651
0.69704
0.705591
0.340652
0.557642
0.349577
0.556453
0.747889
0.336255
0.466689
0.399472
0.550357
0.364674
0.330431
0.481889
0.691842
0.715715
0.330835
0.404876
0.33513
0.691801
0.383014
0.694087
0.359401
0.588077
0.703285
0.42373
0.363135
0.362447
0.516719
0.367993
0.695637
0.330288
0.355482
0.696669
0.351329
0.696759
0.694799
0.55026
0.336007
0.709368
0.708656
0.706428
0.695364
0.700409
0.698179
0.370671
0.677322
0.488776
0.704987
0.331178
0.701081
0.564185
0.333111
0.61434
0.709958
0.337823
0.68608
0.359297
0.373265
0.697083
0.69708
0.361797
0.364662
0.331387
0.370228
0.700028
0.71127
0.339549
0.330835
0.717045
0.698438
0.589552
0.708646
0.697383
0.333159
0.70571
0.49229
0.699991
0.481682
0.590757
0.51253
0.697374
0.72616
0.577419
0.457924
0.368097
0.696996
0.592008
0.658772
0.70862
0.36851
0.71935
0.705682
0.473428
0.547318
0.708032
0.427661
0.653643
0.742073
0.445666
0.699109
0.703607
0.3641
0.715707
0.365916
0.695134
0.345659
0.696642
0.69495
0.369292
0.69304
0.708063
0.713839
0.597688
0.711974
0.57798
0.42025
0.505057
0.35855
0.347711
0.5577
0.559561
0.69833
0.70379
0.336154
0.395596
0.713414
0.702972
0.714454
0.70072
0.33256
0.715437
0.704642
0.331266
0.357662
0.710621
0.705126
0.69703
0.366728
0.580469
0.37173
0.716233
0.694598
0.686274
0.701504
0.334433
0.707193
0.695056
0.709364
0.696707
0.701516
0.487757
0.72024
0.335007
0.687639
0.704596
0.505442
0.697076
0.68918
0.699988
0.506447
0.488204
0.579979
0.711601
0.336284
0.336282
0.33366
0.334151
0.701938
0.718646
0.687603
0.440083
0.333709
0.697154
0.726619
0.351834
0.398998
0.509976
0.711672
0.697095
0.69706
0.719085
0.33513
0.336289
0.557612
0.355239
0.334772
0.332126
0.698097
0.371266
0.336171
0.593171
0.705247
0.690652
0.695399
0.697228
0.33565
0.360838
0.33386
0.586341
0.497712
0.358687
0.727671
0.719186
0.698062
0.700282
0.354787
0.336139
0.704035
0.335836
0.7002
0.694818
0.57122
0.361886
0.336339
0.694056
0.615224
0.671402
0.352173
0.699445
0.695549
0.592538
0.699662
0.700976
0.557591
0.687653
0.332746
0.697225
0.653769
0.683726
0.717158
0.55773
0.691938
0.557805
0.697926
0.354316
0.36716
0.336199
0.609436
0.566984
0.335891
0.712723
0.717605
0.358405
0.689842
0.372066
0.692858
0.577805
0.401729
0.702136
0.711247
0.334834
0.5537
0.622866
0.355084
0.69721
0.342924
0.37763
0.6885
0.597617
0.522486
0.703387
0.332798
0.707255
0.375486
0.338774
0.69663
0.334437
0.682969
0.363306
0.688989
0.591193
0.557715
0.69645
0.368472
0.358193
0.682974
0.55533
0.714169
0.537482
0.667804
0.696774
0.709673
0.559965
0.59643
0.691138
0.705894
0.697888
0.454906
0.336259
0.551011
0.691243
0.705877
0.454259
0.702269
0.671727
0.450487
0.362045
0.746378
0.713121
0.55811
0.553834
0.682026
0.722692
0.69469
0.719462
0.365429
0.747959
0.508663
0.69937
0.704324
0.440069
0.701913
0.701506
0.364909
0.392666
0.328697
0.557733
0.332794
0.689013
0.720887
0.751337
0.422766
0.700148
0.353053
0.58129
0.691014
0.681431
0.727087
0.691333
0.590657
0.720096
0.577558
0.704449
0.346298
0.697843
0.697121
0.543765
0.558911
0.718071
0.366198
0.369872
0.355718
0.699546
0.336258
0.557606
0.333038
0.701262
0.342265
0.513004
0.367691
0.711444
0.70053
0.659194
0.415201
0.609774
0.689092
0.335467
0.590142
0.701021
0.357329
0.595332
0.559734
0.70319
0.69985
0.367238
0.570295
0.715715
0.704175
0.688891
0.3363
0.484538
0.699914
0.557697
0.556681
0.557745
0.606085
0.711241
0.591607
0.69867
0.336302
0.353557
0.55776
0.702339
0.692922
0.340569
0.698765
0.661431
0.682784
0.348228
0.483231
0.701291
0.698333
0.573632
0.39518
0.704933
0.558577
0.332081
0.597651
0.722918
0.332206
0.351125
0.360104
0.688856
0.390106
0.336315
0.697978
0.541501
0.705698
0.69489
0.332312
0.326908
0.701338
0.363493
0.351105
0.609329
0.381894
0.463303
0.594386
0.700545
0.709858
0.333964
0.375047
0.333554
0.69523
0.378009
0.710347
0.351111
0.712064
0.698963
0.701023
0.68957
0.706801
0.693811
0.697172
0.702085
0.71266
0.348536
0.334974
0.703778
0.695331
0.523971
0.689544
0.579605
0.693594
0.682677
0.369605
0.698129
0.70121
0.702769
0.33359
0.707909
0.36953
0.708631
0.516682
0.713427
0.695188
0.403528
0.714824
0.334896
0.523087
0.695966
0.333871
0.726327
0.557715
0.700965
0.327239
0.697212
0.334473
0.361147
0.363552
0.335673
0.681728
0.374657
0.689549
0.688558
0.398202
0.365182
0.513654
0.579542
0.69348
0.689489
0.336042
0.331968
0.332664
0.366877
0.410345
0.690939
0.692993
0.369176
0.688945
0.71976
0.357916
0.701094
0.728311
0.689164
0.334287
0.556028
0.711566
0.718955
0.698817
0.382422
0.711088
0.712967
0.708515
0.752108
0.694093
0.408448
0.364031
0.707942
0.547504
0.336284
0.696471
0.366589
0.569838
0.686415
0.695078
0.695637
0.359993
0.689244
0.454606
0.333735
0.717772
0.715022
0.704004
0.699701
0.711266
0.361317
0.702846
0.382658
0.522909
0.701753
0.548655
0.71526
0.333695
0.399705
0.704454
0.421313
0.713561
0.65512
0.497757
0.413399
0.698306
0.364036
0.694808
0.714557
0.703782
0.363898
0.36818
0.543473
0.575922
0.688611
0.532348
0.697058
0.689501
0.69578
0.557716
0.713588
0.33224
0.408918
0.70622
0.692632
0.687303
0.503563
0.349232
0.712561
0.368661
0.697404
0.59734
0.38414
0.713924
0.332984
0.699092
0.360394
0.703647
0.395492
0.707448
0.689601
0.344891
0.697825
0.709588
0.349425
0.687065
0.702531
0.581214
0.362322
0.450449
0.532066
0.708352
0.683049
0.392099
0.578283
0.715159
0.696586
0.425042
0.68358
0.700148
0.494641
0.697309
0.697241
0.437703
0.71141
0.56045
0.35769
0.683413
0.327917
0.691902
0.329667
0.379263
0.707336
0.336162
0.335267
0.365515
0.697486
0.696823
0.468961
0.705318
0.453584
0.705742
0.334629
0.698581
0.435539
0.696885
0.708538
0.69799
0.686964
0.55544
0.690115
0.688845
0.365719
0.600472
0.701913
0.611768
0.71283
0.51699
0.489425
0.702997
0.334779
0.580896
0.372797
0.703948
0.346762
0.365382
0.71151
0.697167
0.332006
0.699005
0.717269
0.55772
0.700754
0.556811
0.333055
0.701764
0.333574
0.364806
0.696587
0.71738
0.700797
0.696032
0.367496
0.329921
0.333277
0.699837
0.688659
0.45096
0.70091
0.338247
0.328541
0.343404
0.695503
0.482192
0.702386
0.713259
0.590958
0.696876
0.711779
0.589785
0.691745
0.490299
0.355396
0.332422
0.554553
0.556209
0.343101
0.6895
0.687698
0.692832
0.366978
0.510738
0.690426
0.394979
0.68858
0.680723
0.3343
0.689543
0.702488
0.336269
0.709224
0.347896
0.69829
0.705892
0.706987
0.370729
0.50331
0.724732
0.442032
0.492323
0.696572
0.447906
0.689176
0.697777
0.694083
0.713867
0.390001
0.602727
0.716989
0.703724
0.464028
0.700417
0.380566
0.358606
0.699857
0.697158
0.689487
0.348007
0.695901
0.592868
0.553007
0.333973
0.340907
0.336244
0.698914
0.332276
0.351474
0.362036
0.680141
0.350539
0.439001
0.492862
0.710143
0.335625
0.686562
0.689193
0.698103
0.327672
0.710459
0.732904
0.689047
0.485091
0.75574
0.333442
0.335227
0.69712
0.331857
0.687133
0.715086
0.557768
0.335673
0.449041
0.336575
0.562619
0.558079
0.350162
0.701157
0.697397
0.711871
0.335091
0.379946
0.453839
0.68396
0.335367
0.557722
0.594605
0.689058
0.700085
0.33204
0.687405
0.368815
0.67868
0.661027
0.703407
0.677645
0.630223
0.740633
0.688625
0.70233
0.330366
0.418363
0.339204
0.713556
0.573005
0.560484
0.335451
0.48645
0.717313
0.710567
0.668062
0.332288
0.698176
0.561394
0.56513
0.683503
0.366976
0.332458
0.43939
0.697274
0.688788
0.759307
0.690308
0.454512
0.701078
0.75926
0.688954
0.688835
0.700692
0.701353
0.695666
0.723615
0.704723
0.367532
0.703231
0.700064
0.697895
0.708335
0.697068
0.675961
0.334002
0.375808
0.685073
0.336173
0.392426
0.697787
0.365883
0.596078
0.697165
0.698614
0.7031
0.367453
0.698031
0.364045
0.349151
0.695754
0.710261
0.69875
0.328885
0.700554
0.703706
0.684778
0.697249
0.38357
0.697198
0.704336
0.703615
0.447288
0.710875
0.33398
0.697959
0.337382
0.334358
0.664305
0.506051
0.702242
0.707794
0.696957
0.36155
0.696041
0.471378
0.368942
0.694153
0.513293
0.336165
0.703843
0.390085
0.528454
0.736523
0.692122
0.697643
0.515201
0.587233
0.732759
0.694186
0.675988
0.70368
0.548629
0.699089
0.689945
0.712639
0.36542
0.33201
0.503941
0.699518
0.366365
0.747321
0.699175
0.669364
0.694311
0.64582
0.721186
0.719869
0.334107
0.698731
0.688585
0.640752
0.688715
0.70353
0.695802
0.695693
0.335203
0.360746
0.705804
0.575914
0.62532
0.698432
0.708121
0.705188
0.706646
0.705729
0.695425
0.688583
0.703921
0.359757
0.376222
0.349296
0.378413
0.557551
0.52009
0.590358
0.713209
0.721878
0.365805
0.703919
0.698843
0.330415
0.474101
0.556785
0.698417
0.36807
0.364934
0.370659
0.55776
0.695377
0.44986
0.332328
0.333745
0.386107
0.421866
0.336235
0.701273
0.708572
0.71324
0.330815
0.698875
0.683715
0.595931
0.419958
0.331539
0.694052
0.557846
0.336036
0.696756
0.336196
0.711071
0.367274
0.697858
0.328223
0.698403
0.701275
0.327691
0.566456
0.420773
0.701451
0.379423
0.684698
0.36638
0.557047
0.333421
0.683732
0.33551
0.678829
0.684071
0.595826
0.705962
0.421283
0.698632
0.691016
0.70087
0.682957
0.707011
0.331828
0.505747
0.340738
0.70879
0.422775
0.7015
0.561833
0.71726
0.702862
0.57305
0.719827
0.370444
0.347351
0.359571
0.553495
0.666222
0.707276
0.33485
0.399564
0.696452
0.474832
0.364464
0.673504
0.472518
0.336115
0.373733
0.700421
0.735643
0.685349
0.35739
0.697212
0.697268
0.330321
0.448306
0.695298
0.697305
0.677806
0.532186
0.484262
0.464116
0.330894
0.699947
0.683927
0.573714
0.717764
0.379171
0.591806
0.332824
0.645413
0.70105
0.332518
0.418743
0.686648
0.67213
0.701791
0.704373
0.707106
0.699032
0.701852
0.332975
0.383811
0.340785
0.331756
0.661321
0.590757
0.771027
0.332399
0.335952
0.535122
0.348311
0.705839
0.691606
0.335409
0.443059
0.697462
0.363434
0.727296
0.708314
0.695555
0.696937
0.664558
0.336265
0.32681
0.685871
0.332864
0.513422
0.464146
0.694531
0.69721
0.428858
0.334459
0.557754
0.335541
0.697584
0.708736
0.336308
0.364554
0.339685
0.697253
0.337083
0.557731
0.719505
0.68892
0.350524
0.545415
0.709797
0.700334
0.331442
0.699873
0.686074
0.360151
0.712855
0.698085
0.333593
0.336354
0.693343
0.335117
0.331549
0.700034
0.457959
0.706873
0.722525
0.70981
0.688324
0.7022
0.697811
0.691059
0.332848
0.482389
0.690567
0.707775
0.502118
0.701547
0.447389
0.697904
0.697675
0.587918
0.719173
0.505409
0.510876
0.704296
0.710457
0.689532
0.701019
0.695777
0.557554
0.700774
0.557705
0.699986
0.694547
0.700286
0.557645
0.691891
0.359256
0.694502
0.364626
0.698216
0.700485
0.719126
0.693486
0.7128
0.362234
0.334314
0.445903
0.331736
0.695136
0.32909
0.334278
0.720894
0.361599
0.724073
0.331369
0.699736
0.711337
0.336249
0.474007
0.386237
0.698898
0.353195
0.706715
0.714944
0.338185
0.694094
0.568142
0.397599
0.368114
0.330299
0.719114
0.336372
0.698518
0.647195
0.42308
0.697797
0.704263
0.70751
0.336136
0.591925
0.367449
0.699308
0.695943
0.69795
0.336235
0.707564
0.698445
0.689998
0.491605
0.698788
0.336275
0.334012
0.697228
0.517041
0.705422
0.492269
0.336211
0.495311
0.690189
0.365053
0.35573
0.347263
0.575716
0.552216
0.713072
0.353327
0.683157
0.696019
0.561236
0.533657
0.381045
0.569477
0.336287
0.333047
0.702634
0.334291
0.335766
0.699849
0.700876
0.33181
0.713448
0.334731
0.556811
0.36946
0.694824
0.67273
0.712842
0.689573
0.376489
0.33322
0.36467
0.696281
0.693758
0.585748
0.568317
0.468607
0.43594
0.694228
0.33313
0.707371
0.470293
0.679751
0.730491
0.326548
0.355542
0.334284
0.334263
0.359438
0.686177
0.695816
0.328781
0.710308
0.696039
0.423966
0.369447
0.700909
0.335951
0.710543
0.488595
0.712495
0.736506
0.710069
0.555453
0.36471
0.705763
0.697862
0.700143
0.336103
0.683875
0.591541
0.390548
0.699458
0.694753
0.700293
0.697298
0.701882
0.697387
0.700361
0.697938
0.702877
0.336286
0.708866
0.334328
0.543417
0.696293
0.365388
0.699063
0.685367
0.399657
0.689621
0.336198
0.359168
0.69643
0.68324
0.701041
0.334522
0.697069
0.59394
0.368917
0.32954
0.697215
0.697344
0.474144
0.354181
0.72146
0.700971
0.336308
0.702689
0.701655
0.79086
0.329106
0.336267
0.364444
0.742471
0.39772
0.7004
0.714016
0.696232
0.68383
0.711382
0.334681
0.695313
0.59769
0.701359
0.677401
0.365074
0.332378
0.379432
0.711001
0.715358
0.486429
0.731255
0.376428
0.698686
0.698239
0.370523
0.685106
0.700774
0.695039
0.329294
0.327973
0.379505
0.71469
0.70532
0.59536
0.53238
0.710646
0.335922
0.698808
0.554642
0.708006
0.328873
0.597702
0.401931
0.686479
0.382578
0.7054
0.696803
0.355673
0.713189
0.547315
0.557624
0.698488
0.557733
0.699153
0.503467
0.69133
0.704026
0.697501
0.706005
0.508829
0.55687
0.345498
0.704532
0.377925
0.334964
0.388978
0.358365
0.336303
0.32885
0.701679
0.466658
0.354941
0.720208
0.712643
0.696133
0.456332
0.726142
0.719785
0.69546
0.36543
0.678005
0.697557
0.387627
0.356062
0.333354
0.696101
0.526227
0.336227
0.677598
0.351412
0.549799
0.522896
0.332509
0.510366
0.724129
0.383109
0.697375
0.374278
0.597704
0.471917
0.700077
0.478809
0.709014
0.557499
0.686299
0.532498
0.333754
0.700033
0.701195
0.358856
0.361105
0.696743
0.333958
0.710719
0.331586
0.567583
0.377544
0.697744
0.381915
0.70158
0.334414
0.698191
0.711521
0.70598
0.557497
0.344978
0.365151
0.4519
0.696403
0.720474
0.689804
0.667546
0.395456
0.72109
0.382141
0.693319
0.681305
0.48822
0.415962
0.706868
0.704962
0.366635
0.650065
0.700595
0.70538
0.709597
0.376838
0.699841
0.335151
0.705011
0.397006
0.689716
0.693482
0.700698
0.701418
0.424983
0.69978
0.336
0.334056
0.697551
0.557333
0.579789
0.705533
0.557142
0.335972
0.711943
0.699255
0.700869
0.361603
0.501111
0.730765
0.328455
0.697856
0.698873
0.699593
0.700067
0.413291
0.530111
0.721846
0.358602
0.696527
0.700544
0.543808
0.696519
0.420854
0.687094
0.711469
0.726908
0.697422
0.328147
0.365435
0.70749
0.699534
0.393904
0.428793
0.378028
0.362231
0.353882
0.351379
0.368226
0.336242
0.707124
0.377237
0.329043
0.720125
0.581034
0.557805
0.484069
0.335108
0.696285
0.534041
0.584574
0.705585
0.475044
0.749722
0.68672
0.597243
0.69957
0.351552
0.713441
0.689812
0.344224
0.333897
0.492156
0.685084
0.597531
0.702145
0.696234
0.708591
0.700953
0.416165
0.71414
0.690389
0.698954
0.334374
0.697867
0.679314
0.411292
0.499204
0.338377
0.367764
0.353959
0.594498
0.737594
0.704639
0.333314
0.478403
0.701446
0.349174
0.716101
0.704499
0.699516
0.727937
0.710238
0.384891
0.367764
0.370161
0.60316
0.394789
0.70768
0.371837
0.697104
0.696783
0.70543
0.375679
0.52605
0.500923
0.711268
0.350026
0.333237
0.697687
0.69935
0.684515
0.696383
0.697468
0.710222
0.336253
0.597705
0.703389
0.543023
0.710189
0.718673
0.708331
0.496514
0.485852
0.700768
0.521374
0.684542
0.335157
0.693758
0.699773
0.448176
0.398948
0.698965
0.547396
0.706622
0.716576
0.336365
0.331755
0.574784
0.528223
0.465776
0.698062
0.697115
0.406001
0.700197
0.574397
0.693831
0.336309
0.596444
0.336256
0.696372
0.700839
0.709599
0.704124
0.591436
0.440266
0.446793
0.709283
0.335508
0.596235
0.418563
0.71063
0.358982
0.710944
0.703247
0.559562
0.336236
0.557714
0.555936
0.332537
0.694046
0.335875
0.700422
0.33619
0.326861
0.366492
0.712565
0.700346
0.44632
0.444534
0.693651