# vtk DataFile Version 1.0
unstructured grid
ascii
DATASET UNSTRUCTURED_GRID
points 13672 float
0.0796578 -0.059106 0
0.00128732 0.00159165 0
0.00227961 -0.00102548 0
0.0791586 -0.0598787 0
-0.0546216 0.01 0
0.000495206 0.025 0
0.0800549 -0.035 0
0.135172 -0.08 0
-0.0546216 -0.0451168 0
0.000495206 -0.0301168 0
0.0800549 -0.0901168 0
0.135172 -0.135117 0
-0.0546216 -0.0451168 -0.00551168
0.000495206 -0.0301168 -0.00551168
0.0800549 -0.0901168 -0.00551168
0.135172 -0.135117 -0.00551168
0.135172 -0.08 -0.00551168
0.0800549 -0.035 -0.00551168
0.000495206 0.025 -0.00551168
-0.0546216 0.01 -0.00551168
0.00128732 0.00159165 -0.00551168
0.00227961 -0.00102548 -0.00551168
0.0791586 -0.0598787 -0.00551168
0.0796578 -0.059106 -0.00551168
0.00165953 -0.000990923 0
0.00119576 -0.000874076 0
0.000866021 -0.000641801 0
0.000645147 -0.000349912 0
0.00052235 -1.7281e-05 0
0.00049972 0.000348016 0
0.000601632 0.000737716 0
0.000861774 0.0011403 0
0.00157235 0.00183217 0
0.00188647 0.00206725 0
0.00222612 0.00230203 0
0.00258713 0.00254351 0
0.00296826 0.00279524 0
0.00337118 0.00305664 0
0.00379785 0.00332658 0
0.00425045 0.00360349 0
0.00473139 0.00388521 0
0.0052432 0.00416895 0
0.0057881 0.00445204 0
0.00636753 0.00473281 0
0.00698281 0.00500961 0
0.00763526 0.00528058 0
0.00832616 0.00554366 0
0.00905691 0.00579603 0
0.00982918 0.00603333 0
0.0106445 0.00625033 0
0.0115038 0.00644128 0
0.0124073 0.00660297 0
0.0133543 0.00673414 0
0.0143444 0.00683382 0
0.0153769 0.00690031 0
0.0164512 0.00693173 0
0.0175666 0.00692547 0
0.0187219 0.00687822 0
0.0199156 0.00678477 0
0.0211454 0.00663864 0
0.0224084 0.00643275 0
0.0237018 0.00616676 0
0.0250249 0.00584739 0
0.026375 0.00547298 0
0.0277479 0.00503752 0
0.0291386 0.00453545 0
0.0305433 0.0039653 0
0.0319572 0.0033256 0
0.0333681 0.00260019 0
0.034775 0.00179799 0
0.0361793 0.000930615 0
0.0375798 3.12222e-06 0
0.0389689 -0.000988429 0
0.0403357 -0.00205109 0
0.041675 -0.00318283 0
0.0429849 -0.00437751 0
0.0442643 -0.00562904 0
0.0455126 -0.00693089 0
0.0467314 -0.00827518 0
0.0479204 -0.00965638 0
0.0490661 -0.0110799 0
0.0501515 -0.0125519 0
0.0511696 -0.0140695 0
0.0521492 -0.0156071 0
0.0531202 -0.0171411 0
0.0540851 -0.0186663 0
0.0550431 -0.0201798 0
0.0559923 -0.0216793 0
0.0569311 -0.0231626 0
0.0578582 -0.0246273 0
0.0587723 -0.0260715 0
0.0596721 -0.027493 0
0.0605563 -0.02889 0
0.0614241 -0.0302609 0
0.0622742 -0.0316042 0
0.063106 -0.0329183 0
0.0639186 -0.034202 0
0.0647113 -0.0354543 0
0.0654835 -0.0366743 0
0.0662345 -0.0378613 0
0.0669642 -0.0390145 0
0.0676726 -0.0401333 0
0.0683597 -0.0412172 0
0.0690246 -0.0422665 0
0.0696662 -0.0432819 0
0.0702841 -0.0442636 0
0.0708793 -0.0452111 0
0.0714538 -0.0461237 0
0.072009 -0.047001 0
0.0725452 -0.0478434 0
0.0730611 -0.0486524 0
0.073556 -0.0494294 0
0.0740291 -0.0501756 0
0.0744812 -0.0508916 0
0.0749138 -0.0515773 0
0.0753285 -0.0522331 0
0.0757266 -0.0528592 0
0.076109 -0.0534564 0
0.0764753 -0.0540264 0
0.0768243 -0.054571 0
0.0771553 -0.0550919 0
0.0774679 -0.0555901 0
0.0777617 -0.0560669 0
0.0780369 -0.056523 0
0.0782958 -0.0569578 0
0.0785421 -0.0573703 0
0.0787786 -0.0577603 0
0.0790073 -0.0581279 0
0.0792295 -0.058474 0
0.0794462 -0.0587995 0
0.0798803 -0.0594162 0
0.0800272 -0.0596588 0
0.0800357 -0.0598891 0
0.0799275 -0.0600784 0
0.0797205 -0.0601773 0
0.0794593 -0.0601051 0
0.0789155 -0.0596491 0
0.0786707 -0.0593963 0
0.0784111 -0.0591319 0
0.0781372 -0.0588542 0
0.0778566 -0.0585548 0
0.0775715 -0.0582308 0
0.0772803 -0.0578828 0
0.0769832 -0.0575099 0
0.0766822 -0.0571097 0
0.0763801 -0.0566796 0
0.0760759 -0.0562196 0
0.0757623 -0.0557337 0
0.0754359 -0.0552232 0
0.0750951 -0.0546879 0
0.0747379 -0.054128 0
0.0743626 -0.0535435 0
0.0739688 -0.0529338 0
0.0735559 -0.0522981 0
0.0731238 -0.0516357 0
0.0726718 -0.050946 0
0.0721991 -0.0502288 0
0.0717046 -0.049484 0
0.0711872 -0.0487117 0
0.0706461 -0.047912 0
0.0700804 -0.0470849 0
0.0694892 -0.0462308 0
0.0688718 -0.0453499 0
0.0682271 -0.0444431 0
0.0675544 -0.043511 0
0.0668527 -0.0425546 0
0.0661215 -0.0415748 0
0.06536 -0.040573 0
0.0645676 -0.0395504 0
0.0637439 -0.0385087 0
0.0628887 -0.0374493 0
0.062002 -0.0363741 0
0.0610838 -0.0352847 0
0.0601345 -0.0341831 0
0.0591547 -0.033071 0
0.0581456 -0.0319502 0
0.0571083 -0.0308224 0
0.0560444 -0.0296893 0
0.0549562 -0.028552 0
0.053845 -0.0274126 0
0.0527113 -0.0262746 0
0.051554 -0.0251427 0
0.0503724 -0.0240222 0
0.0491675 -0.0229164 0
0.047941 -0.0218282 0
0.0466955 -0.0207597 0
0.0454337 -0.0197126 0
0.0441592 -0.0186878 0
0.0428751 -0.0176863 0
0.0415841 -0.0167097 0
0.0402878 -0.0157609 0
0.0389879 -0.0148428 0
0.0376864 -0.0139575 0
0.0363853 -0.013107 0
0.0350871 -0.0122931 0
0.0337942 -0.0115164 0
0.0325095 -0.0107772 0
0.0312357 -0.0100756 0
0.0299758 -0.00941024 0
0.0287337 -0.00877784 0
0.0275126 -0.00817571 0
0.0263139 -0.00760375 0
0.0251376 -0.00706528 0
0.0239829 -0.0065649 0
0.0228537 -0.00609619 0
0.0217522 -0.00565563 0
0.0206795 -0.00524226 0
0.0196364 -0.00485507 0
0.0186233 -0.00449318 0
0.0176408 -0.00415577 0
0.016689 -0.00384204 0
0.0157682 -0.00355115 0
0.0148783 -0.00328218 0
0.0140192 -0.00303468 0
0.0131906 -0.00280795 0
0.0123925 -0.00260016 0
0.0116246 -0.00241012 0
0.0108864 -0.00223769 0
0.0101774 -0.00208212 0
0.00949701 -0.00194206 0
0.00884483 -0.0018163 0
0.0082202 -0.0017039 0
0.00762247 -0.00160391 0
0.00705097 -0.00151528 0
0.006505 -0.00143697 0
0.0059838 -0.00136806 0
0.00548662 -0.00130772 0
0.00501265 -0.00125519 0
0.00456114 -0.00120954 0
0.00413136 -0.00116914 0
0.00372257 -0.00113251 0
0.00333398 -0.00109853 0
0.00296466 -0.00106798 0
0.00261363 -0.0010431 0
-0.052721 -0.0445996 0
-0.0508204 -0.0440823 0
-0.0489199 -0.0435651 0
-0.0470193 -0.0430478 0
-0.0451187 -0.0425306 0
-0.0432181 -0.0420134 0
-0.0413175 -0.0414961 0
-0.039417 -0.0409789 0
-0.0375164 -0.0404616 0
-0.0356158 -0.0399444 0
-0.0337152 -0.0394271 0
-0.0318146 -0.0389099 0
-0.0299141 -0.0383927 0
-0.0280135 -0.0378754 0
-0.0261129 -0.0373582 0
-0.0242123 -0.0368409 0
-0.0223117 -0.0363237 0
-0.0204112 -0.0358065 0
-0.0185106 -0.0352892 0
-0.01661 -0.034772 0
-0.0147094 -0.0342547 0
-0.0128088 -0.0337375 0
-0.0109083 -0.0332202 0
-0.00900769 -0.032703 0
-0.00710711 -0.0321858 0
-0.00520653 -0.0316685 0
-0.00330595 -0.0311513 0
-0.00140537 -0.030634 0
0.00190689 -0.0299614 0
0.00332271 -0.0298498 0
0.00474133 -0.0297825 0
0.00616136 -0.0297597 0
0.0075814 -0.0297814 0
0.00900007 -0.0298477 0
0.010416 -0.0299583 0
0.0118278 -0.0301127 0
0.0132342 -0.0303103 0
0.0146339 -0.0305504 0
0.0160259 -0.0308322 0
0.0174091 -0.0311546 0
0.0187824 -0.0315166 0
0.020145 -0.031917 0
0.0214961 -0.0323546 0
0.0228351 -0.032828 0
0.0241613 -0.0333361 0
0.0254744 -0.0338774 0
0.0267738 -0.0344507 0
0.0280592 -0.0350545 0
0.0293306 -0.0356877 0
0.0305875 -0.0363488 0
0.0318301 -0.0370367 0
0.0330581 -0.0377501 0
0.0342717 -0.0384879 0
0.0354708 -0.0392489 0
0.0366556 -0.0400321 0
0.0378262 -0.0408363 0
0.0389828 -0.0416607 0
0.0401254 -0.0425042 0
0.0412543 -0.0433659 0
0.0423698 -0.0442451 0
0.043472 -0.0451408 0
0.0445612 -0.0460523 0
0.0456375 -0.0469789 0
0.0467013 -0.0479199 0
0.0477529 -0.0488746 0
0.0487923 -0.0498424 0
0.04982 -0.0508227 0
0.0508362 -0.051815 0
0.051841 -0.0528187 0
0.0528348 -0.0538333 0
0.0538178 -0.0548584 0
0.0547903 -0.0558935 0
0.0557524 -0.0569382 0
0.0567045 -0.0579922 0
0.0576467 -0.0590549 0
0.0585792 -0.0601261 0
0.0595024 -0.0612055 0
0.0604163 -0.0622926 0
0.0613212 -0.0633873 0
0.0622174 -0.0644891 0
0.0631049 -0.0655979 0
0.0639841 -0.0667134 0
0.064855 -0.0678353 0
0.0657179 -0.0689633 0
0.0665729 -0.0700974 0
0.0674202 -0.0712372 0
0.06826 -0.0723826 0
0.0690925 -0.0735333 0
0.0699178 -0.0746892 0
0.070736 -0.0758501 0
0.0715473 -0.0770159 0
0.0723518 -0.0781863 0
0.0731498 -0.0793612 0
0.0739412 -0.0805405 0
0.0747264 -0.081724 0
0.0755053 -0.0829116 0
0.0762781 -0.0841033 0
0.0770449 -0.0852987 0
0.0778059 -0.0864979 0
0.0785611 -0.0877007 0
0.0793108 -0.088907 0
0.0814681 -0.0912706 0
0.0828814 -0.0924245 0
0.0842946 -0.0935783 0
0.0857079 -0.0947322 0
0.0871211 -0.095886 0
0.0885344 -0.0970399 0
0.0899476 -0.0981937 0
0.0913609 -0.0993476 0
0.0927741 -0.100501 0
0.0941874 -0.101655 0
0.0956006 -0.102809 0
0.0970139 -0.103963 0
0.0984272 -0.105117 0
0.0998404 -0.106271 0
0.101254 -0.107424 0
0.102667 -0.108578 0
0.10408 -0.109732 0
0.105493 -0.110886 0
0.106907 -0.11204 0
0.10832 -0.113194 0
0.109733 -0.114348 0
0.111146 -0.115501 0
0.11256 -0.116655 0
0.113973 -0.117809 0
0.115386 -0.118963 0
0.116799 -0.120117 0
0.118213 -0.121271 0
0.119626 -0.122424 0
0.121039 -0.123578 0
0.122452 -0.124732 0
0.123866 -0.125886 0
0.125279 -0.12704 0
0.126692 -0.128194 0
0.128105 -0.129348 0
0.129519 -0.130501 0
0.130932 -0.131655 0
0.132345 -0.132809 0
0.133758 -0.133963 0
0.135172 -0.133216 0
0.135172 -0.131316 0
0.135172 -0.129415 0
0.135172 -0.127514 0
0.135172 -0.125614 0
0.135172 -0.123713 0
0.135172 -0.121813 0
0.135172 -0.119912 0
0.135172 -0.118012 0
0.135172 -0.116111 0
0.135172 -0.11421 0
0.135172 -0.11231 0
0.135172 -0.110409 0
0.135172 -0.108509 0
0.135172 -0.106608 0
0.135172 -0.104708 0
0.135172 -0.102807 0
0.135172 -0.100906 0
0.135172 -0.0990058 0
0.135172 -0.0971052 0
0.135172 -0.0952046 0
0.135172 -0.0933041 0
0.135172 -0.0914035 0
0.135172 -0.0895029 0
0.135172 -0.0876023 0
0.135172 -0.0857017 0
0.135172 -0.0838012 0
0.135172 -0.0819006 0
0.133758 -0.0788462 0
0.132345 -0.0776923 0
0.130932 -0.0765385 0
0.129519 -0.0753846 0
0.128105 -0.0742308 0
0.126692 -0.0730769 0
0.125279 -0.0719231 0
0.123866 -0.0707692 0
0.122452 -0.0696154 0
0.121039 -0.0684615 0
0.119626 -0.0673077 0
0.118213 -0.0661538 0
0.116799 -0.065 0
0.115386 -0.0638462 0
0.113973 -0.0626923 0
0.11256 -0.0615385 0
0.111146 -0.0603846 0
0.109733 -0.0592308 0
0.10832 -0.0580769 0
0.106907 -0.0569231 0
0.105493 -0.0557692 0
0.10408 -0.0546154 0
0.102667 -0.0534615 0
0.101254 -0.0523077 0
0.0998404 -0.0511538 0
0.0984272 -0.05 0
0.0970139 -0.0488462 0
0.0956006 -0.0476923 0
[...]
CELL_DATA 13116
SCALARS rho float
LOOKUP_TABLE default
0.633156
0.707682
0.310777
0.713052
0.715216
0.703427
0.302791
0.713687
0.547865
0.715165
0.307838
0.28087
0.714991
0.295489
0.290239
0.704196
0.626275
0.720538
0.702048
0.322062
0.632604
0.310603
0.300145
0.719105
0.69411
0.710145
0.715206
0.313959
0.687002
0.720547
0.560914
0.28186
0.629259
0.456857
0.300763
0.63168
0.728184
0.702894
0.701486
0.711821
0.701403
0.713755
0.480398
0.308373
0.702367
0.702319
0.705757
0.703253
0.301523
0.52912
0.712086
0.476951
0.301297
0.617205
0.618187
0.67993
0.308816
0.720232
0.53606
0.290706
0.297237
0.714138
0.7072
0.698788
0.555263
0.313688
0.706494
0.724398
0.703956
0.560681
0.291238
0.681161
0.312447
0.310592
0.565072
0.302904
0.712678
0.714838
0.310267
0.720792
0.726104
0.710566
0.718352
0.703652
0.705194
0.391744
0.313812
0.724081
0.711432
0.323034
0.286857
0.707452
0.717356
0.711415
0.726756
0.690208
0.69604
0.560402
0.565065
0.6845
0.722844
0.705241
0.701326
0.419474
0.706687
0.269917
0.342622
0.515875
0.309868
0.688116
0.545013
0.709665
0.687325
0.723122
0.720868
0.707147
0.310155
0.373839
0.710128
0.70943
0.724263
0.316288
0.704275
0.286356
0.712009
0.435204
0.312495
0.507481
0.309381
0.528722
0.71088
0.705945
0.482179
0.306159
0.458878
0.681053
0.558709
0.70928
0.722968
0.709761
0.712306
0.705752
0.508825
0.71218
0.708467
0.271884
0.301221
0.709818
0.716292
0.712404
0.524342
0.703678
0.703034
0.306434
0.7156
0.707035
0.300929
0.722111
0.563865
0.724002
0.719349
0.308503
0.718507
0.304429
0.317695
0.713606
0.7117
0.720737
0.301357
0.434754
0.395122
0.558595
0.287637
0.494238
0.708013
0.297852
0.299968
0.312116
0.709483
0.701429
0.317864
0.421577
0.578366
0.727872
0.701587
0.539262
0.312401
0.699887
0.706663
0.458976
0.711754
0.709524
0.575452
0.297808
0.709003
0.702518
0.715607
0.700456
0.711479
0.363848
0.42161
0.691403
0.502316
0.307591
0.719731
0.703759
0.48432
0.698142
0.280067
0.311862
0.304286
0.70314
0.30209
0.323187
0.318017
0.306053
0.35661
0.695941
0.712002
0.372267
0.308897
0.706071
0.539164
0.317553
0.633301
0.714606
0.70857
0.314558
0.707665
0.355216
0.715163
0.283058
0.59935
0.683645
0.560206
0.712537
0.616055
0.29427
0.429657
0.724181
0.56537
0.702141
0.558732
0.642793
0.713691
0.301702
0.711188
0.71537
0.564304
0.304831
0.303582
0.703641
0.708916
0.55976
0.704592
0.621542
0.722374
0.308816
0.299305
0.369291
0.277638
0.705122
0.715687
0.712683
0.315512
0.70114
0.315666
0.393384
0.706854
0.30816
0.710317
0.712717
0.564777
0.720495
0.294044
0.564578
0.723877
0.563754
0.708253
0.314447
0.319266
0.299987
0.677676
0.315053
0.312651
0.330387
0.326489
0.704884
0.295062
0.711903
0.714025
0.316619
0.320337
0.316537
0.440368
0.315126
0.724378
0.700194
0.708797
0.308765
0.702448
0.691109
0.296879
0.29141
0.696653
0.70843
0.700551
0.312225
0.702735
0.431498
0.706604
0.71344
0.711508
0.713344
0.299529
0.707299
0.280727
0.700244
0.714316
0.724022
0.325343
0.327399
0.715085
0.317485
0.704698
0.714058
0.339204
0.721628
0.718551
0.318339
0.70117
0.717406
0.272693
0.712481
0.374193
0.694344
0.714695
0.383043
0.721971
0.317054
0.72043
0.330329
0.673998
0.702559
0.715463
0.313227
0.345864
0.705082
0.305887
0.718977
0.707521
0.414605
0.561068
0.310254
0.30722
0.707202
0.647249
0.725713
0.31852
0.302784
0.71101
0.714179
0.302581
0.713006
0.307117
0.273669
0.708629
0.714207
0.530334
0.331341
0.70763
0.56238
0.703707
0.703152
0.719083
0.524269
0.327367
0.279418
0.318542
0.703481
0.318465
0.578279
0.34129
0.292947
0.34224
0.537818
0.106681
0.306878
0.70325
0.28738
0.71781
0.686457
0.702031
0.723891
0.711555
0.308303
0.320054
0.374659
0.330039
0.713255
0.683585
0.701509
0.687217
0.708669
0.70954
0.710331
0.706274
0.719957
0.720383
0.72066
0.700301
0.376722
0.484431
0.627252
0.307873
0.698305
0.6766
0.303264
0.707398
0.56478
0.30072
0.323994
0.324713
0.312854
0.693772
0.292247
0.298173
0.704336
0.314502
0.682562
0.328164
0.698753
0.719811
0.31758
0.30669
0.706754
0.437919
0.331578
0.313709
0.3229
0.309799
0.319961
0.324042
0.315946
0.402382
0.314814
0.704666
0.321682
0.71148
0.341299
0.285217
0.469272
0.258041
0.321439
0.264773
0.71249
0.416294
0.703634
0.529768
0.315469
0.701118
0.711577
0.389494
0.721492
0.709402
0.707624
0.319125
0.563838
0.376997
0.718992
0.563597
0.307369
0.293453
0.706113
0.331361
0.383327
0.70357
0.342129
0.722166
0.708413
0.319394
0.298609
0.286468
0.488888
0.290406
0.288669
0.288582
0.280962
0.713278
0.713505
0.446738
0.685582
0.463147
0.709069
0.345951
0.29718
0.554814
0.308037
0.704702
0.299643
0.353767
0.476749
0.702561
0.711673
0.687365
0.338
0.295409
0.683965
0.713437
0.632554
0.673
0.705823
0.704819
0.317719
0.718193
0.6878
0.724245
0.333176
0.315272
0.723417
0.71589
0.723097
0.714747
0.710868
0.71083
0.720014
0.723788
0.701903
0.318085
0.702584
0.333867
0.282532
0.32426
0.7132
0.703728
0.327314
0.707084
0.689265
0.325633
0.670057
0.706693
0.723825
0.31359
0.298522
0.715594
0.332683
0.330532
0.262339
0.319164
0.705174
0.280901
0.712805
0.320698
0.70771
0.711786
0.703032
0.714443
0.333207
0.320197
0.703994
0.715773
0.714079
0.713317
0.715471
0.444932
0.318351
0.309424
0.702277
0.542058
0.325862
0.438643
0.291978
0.712733
0.704348
0.332128
0.312498
0.710421
0.388915
0.703086
0.715786
0.309148
0.354554
0.712062
0.564403
0.305887
0.711584
0.71168
0.703799
0.301812
0.558765
0.309274
0.560143
0.724167
0.333035
0.352422
0.313444
0.559745
0.310317
0.308938
0.380133
0.689513
0.721346
0.309032
0.296767
0.321413
0.674013
0.313968
0.702027
0.277516
0.682397
0.714679
0.343163
0.303679
0.301607
0.444039
0.310102
0.711178
0.310935
0.294191
0.698951
0.287556
0.703407
0.705057
0.560513
0.321779
0.704594
0.717065
0.715677
0.702293
0.713353
0.708191
0.276804
0.596357
0.37629
0.704948
0.316831
0.713514
0.518182
0.299671
0.554551
0.717209
0.301982
0.707815
0.286999
0.291169
0.703715
0.712153
0.290889
0.270917
0.309516
0.274251
0.71312
0.719043
0.301988
0.318061
0.719496
0.709912
0.682671
0.717174
0.702862
0.308924
0.71552
0.404434
0.711891
0.383856
0.687739
0.451354
0.707114
0.725649
0.684219
0.342811
0.312153
0.700351
0.686315
0.611139
0.717516
0.277923
0.725741
0.715659
0.353194
0.481816
0.716484
0.339331
0.556929
0.72395
0.323824
0.710496
0.725937
0.310514
0.723189
0.299245
0.71101
0.305608
0.703007
0.707121
0.312098
0.695304
0.718147
0.716862
0.690117
0.708002
0.686994
0.324817
0.426711
0.285817
0.309967
0.559698
0.650866
0.706061
0.716568
0.319005
0.322638
0.710919
0.714587
0.709244
0.712856
0.323536
0.720538
0.715329
0.322402
0.283273
0.710693
0.703471
0.709711
0.272433
0.689642
0.318286
0.723686
0.705534
0.608688
0.705826
0.323787
0.706239
0.711704
0.717733
0.713272
0.701575
0.373444
0.719619
0.311776
0.7085
0.715079
0.434177
0.708338
0.650984
0.711689
0.433543
0.402248
0.685546
0.717783
0.332013
0.333101
0.308475
0.314733
0.707758
0.725938
0.642051
0.328887
0.312663
0.70336
0.722323
0.27708
0.323651
0.443231
0.719287
0.700172
0.70536
0.721937
0.312697
0.332044
0.562744
0.285743
0.322726
0.309255
0.700608
0.317731
0.33229
0.671002
0.704533
0.709316
0.702529
0.70005
0.310933
0.285779
0.309692
0.541163
0.417824
0.284649
0.725022
0.721897
0.705366
0.702133
0.277372
0.32432
0.714828
0.326937
0.701406
0.706636
0.564578
0.291001
0.323546
0.71057
0.558894
0.658011
0.278137
0.703723
0.703074
0.665862
0.712172
0.712925
0.563612
0.705594
0.3243
0.699747
0.554781
0.709949
0.72438
0.559973
0.709923
0.558901
0.706006
0.29379
0.295672
0.325169
0.559023
0.522245
0.327706
0.707978
0.719885
0.280543
0.71456
0.318932
0.71292
0.523014
0.298915
0.714401
0.719449
0.326325
0.609779
0.56227
0.309114
0.71167
0.310184
0.266612
0.707072
0.69113
0.470907
0.701409
0.308125
0.718524
0.298449
0.277209
0.703098
0.325241
0.693737
0.291268
0.712082
0.689537
0.560288
0.711532
0.28265
0.293836
0.707736
0.486977
0.709068
0.468815
0.680148
0.699727
0.717955
0.494642
0.687623
0.709323
0.715465
0.706507
0.334343
0.334659
0.575499
0.709176
0.715623
0.351334
0.701325
0.661122
0.371874
0.290411
0.724003
0.723299
0.558885
0.559747
0.704448
0.724286
0.693883
0.727134
0.288449
0.721235
0.439965
0.710844
0.70334
0.324634
0.713085
0.715101
0.299323
0.291432
0.317281
0.559957
0.309132
0.70557
0.723123
0.721239
0.307671
0.703807
0.305019
0.686656
0.680633
0.608512
0.725196
0.663332
0.698689
0.726446
0.548508
0.704902
0.306361
0.700989
0.702566
0.472436
0.559096
0.725118
0.301312
0.280829
0.309166
0.711582
0.334194
0.559903
0.310299
0.713573
0.292292
0.451671
0.283051
0.71946
0.712637
0.61788
0.298884
0.699849
0.699446
0.313019
0.681985
0.713663
0.283448
0.683007
0.56403
0.714674
0.701787
0.306673
0.512551
0.716134
0.702119
0.708718
0.328594
0.396516
0.702682
0.562349
0.564691
0.559923
0.618233
0.705281
0.610857
0.710865
0.329027
0.305491
0.559587
0.715525
0.694259
0.312772
0.700967
0.637758
0.685698
0.302996
0.374025
0.713208
0.71318
0.674446
0.329233
0.702137
0.559115
0.303059
0.692381
0.721988
0.302688
0.28481
0.281765
0.707524
0.315062
0.318642
0.70174
0.47424
0.715456
0.719384
0.301061
0.319076
0.71319
0.297762
0.292626
0.559078
0.284691
0.348766
0.685437
0.713458
0.705233
0.312616
0.32149
0.306694
0.705077
0.267882
0.704953
0.289489
0.706116
0.711249
0.702457
0.706476
0.70632
0.705915
0.700036
0.714564
0.703879
0.286129
0.310035
0.706949
0.695845
0.473631
0.708282
0.652831
0.690587
0.708578
0.316805
0.707781
0.71394
0.703965
0.304203
0.70654
0.315649
0.703732
0.432144
0.72102
0.702146
0.30066
0.715195
0.322541
0.450214
0.707545
0.30816
0.721993
0.558531
0.71355
0.311847
0.704986
0.313939
0.289778
0.293254
0.318098
0.707095
0.287567
0.713107
0.659556
0.330266
0.29836
0.451453
0.68261
0.716076
0.707535
0.321332
0.316448
0.303406
0.283392
0.296387
0.717641
0.710187
0.314602
0.678971
0.723925
0.282396
0.71384
0.722438
0.674585
0.307175
0.561227
0.707859
0.718789
0.711346
0.291392
0.705416
0.717501
0.706741
0.72429
0.699907
0.313083
0.294343
0.703593
0.573014
0.326767
0.702997
0.29423
0.695561
0.709756
0.710831
0.710945
0.287681
0.707855
0.363712
0.304399
0.721328
0.717259
0.716197
0.711319
0.725508
0.290232
0.714638
0.28895
0.465844
0.713582
0.565319
0.714111
0.305037
0.295085
0.715131
0.308008
0.714974
0.711192
0.41488
0.32278
0.710307
0.291178
0.702051
0.715148
0.711975
0.291768
0.296847
0.499267
0.542422
0.710199
0.469314
0.699456
0.706858
0.711935
0.559027
0.710349
0.301638
0.321247
0.715101
0.700049
0.708775
0.430057
0.30887
0.715216
0.285455
0.702969
0.688443
0.325677
0.710399
0.315099
0.712475
0.310977
0.715954
0.293193
0.704356
0.701465
0.281147
0.71189
0.717893
0.284976
0.62846
0.701738
0.643428
0.256015
0.347039
0.464827
0.716682
0.705517
0.323763
0.692412
0.717882
0.69871
0.309606
0.694692
0.705692
0.381164
0.69955
0.702149
0.320976
0.704457
0.56169
0.309934
0.68897
0.313689
0.71222
0.309217
0.271529
0.716137
0.318858
0.321104
0.282701
0.706039
0.705353
0.386658
0.702116
0.347168
0.709465
0.315013
0.705578
0.342917
0.700989
0.70358
0.712318
0.623033
0.620892
0.701515
0.67576
0.313306
0.705014
0.713447
0.566006
0.707621
0.45666
0.40979
0.71473
0.31568
0.68349
0.319861
0.701391
0.288506
0.29722
0.719929
0.699662
0.319986
0.710681
0.721879
0.560074
0.712725
0.55972
0.324543
0.714302
0.32225
0.303293
0.711577
0.721845
0.713593
0.710987
0.283141
0.308283
0.305939
0.707161
0.656309
0.346287
0.713855
0.312778
0.309799
0.302538
0.711564
0.382896
0.71438
0.703987
0.703353
0.712415
0.70427
0.660292
0.71277
0.391362
0.285098
0.32029
0.559653
0.559342
0.311206
0.716959
0.706157
0.713219
0.306499
0.438933
0.70689
0.276594
0.707777
0.70071
0.323149
0.699838
0.707501
0.328122
0.704988
0.292725
0.706104
0.715446
0.706304
0.285088
0.418382
0.722445
0.324286
0.376891
0.70752
0.330724
0.700842
0.706292
0.71017
0.721698
0.329767
0.557017
0.721529
0.702012
0.344187
0.711964
0.302197
0.2578
0.70388
0.700086
0.657715
0.232516
0.702548
0.702544
0.565341
0.315616
0.305633
0.33281
0.710676
0.304041
0.287954
0.309316
0.698925
0.290473
0.324151
0.396352
0.7047
0.324713
0.615254
0.69774
0.712006
0.311617
0.703785
0.722947
0.674073
0.379232
0.723293
0.300575
0.315183
0.705048
0.320286
0.713353
0.720642
0.560446
0.323408
0.327694
0.302907
0.674356
0.558806
0.237741
0.703068
0.705493
0.721533
0.313639
0.287541
0.333015
0.704784
0.327305
0.558514
0.687296
0.700708
0.702573
0.313977
0.710457
0.278911
0.700605
0.712849
0.714607
0.687968
0.573195
0.724052
0.708756
0.715024
0.313718
0.340281
0.313072
0.720967
0.546391
0.565182
0.323564
0.389444
0.719546
0.703922
0.5785
0.320524
0.711721
0.667564
0.68701
0.7054
0.309774
0.321102
0.322812
0.700812
0.666292
0.72358
0.708906
0.33399
0.713741
0.721215
0.657397
0.65432
0.713355
0.714058
0.703321
0.722234
0.716387
0.30755
0.7036
0.711385
0.700106
0.70514
0.700214
0.675786
0.325105
0.275115
0.709802
0.325258
0.329488
0.711924
0.290582
0.702698
0.70318
0.707163
0.703905
0.304798
0.711747
0.293895
0.306505
0.70338
0.706627
0.702206
0.311151
0.712478
0.701402
0.708569
0.700307
0.307031
0.700123
0.715024
0.707818
0.364637
0.720304
0.30838
0.712491
0.306156
0.325128
0.628776
0.434643
0.714426
0.719305
0.701778
0.307601
0.699943
0.390514
0.289085
0.711236
0.425053
0.325306
0.701274
0.281246
0.511546
0.724413
0.706183
0.708148
0.452127
0.686495
0.725051
0.701851
0.675949
0.716209
0.564632
0.7139
0.708572
0.722121
0.274428
0.309875
0.429986
0.71142
0.302165
0.724196
0.710843
0.69429
0.701945
0.598133
0.722015
0.726727
0.306674
0.710704
0.707035
0.581826
0.707292
0.714864
0.711409
0.69858
0.31375
0.292902
0.705046
0.555462
0.618597
0.709376
0.703874
0.702216
0.715906
0.715524
0.710488
0.706143
0.714576
0.285123
0.291067
0.285802
0.322057
0.563447
0.452032
0.602378
0.706974
0.725391
0.305244
0.704342
0.713068
0.311611
0.358808
0.560854
0.706304
0.310358
0.273067
0.265442
0.558702
0.710499
0.371603
0.301067
0.32283
0.277666
0.335559
0.328822
0.715033
0.70349
0.710802
0.312227
0.706819
0.697136
0.687539
0.32755
0.323613
0.711105
0.558828
0.330075
0.698631
0.327563
0.719599
0.30764
0.712331
0.316248
0.70476
0.713161
0.311288
0.690346
0.318293
0.714124
0.283215
0.700083
0.293087
0.513774
0.301162
0.689763
0.313517
0.582982
0.600024
0.687433
0.706045
0.329256
0.705685
0.698554
0.712825
0.696304
0.708743
0.323636
0.433957
0.312976
0.717174
0.298989
0.715282
0.616186
0.721775
0.714608
0.515768
0.719459
0.290144
0.306423
0.28577
0.513141
0.6363
0.70396
0.309586
0.310286
0.70315
0.356262
0.289969
0.664199
0.357004
0.33161
0.27493
0.713772
0.716515
0.70287
0.305721
0.705455
0.703645
0.280678
0.32856
0.711804
0.699736
0.699793
0.516929
0.368134
0.34444
0.307479
0.712996
0.708746
0.542924
0.72189
0.283764
0.660783
0.313459
0.555614
0.714816
0.323594
0.306707
0.709298
0.65874
0.714302
0.716371
0.716018
0.711237
0.713856
0.306011
0.309671
0.311995
0.316065
0.62743
0.56219
0.717688
0.320829
0.322111
0.465555
0.284015
0.702208
0.706492
0.318269
0.331462
0.703374
0.307246
0.725534
0.718038
0.704791
0.699671
0.638056
0.330245
0.316674
0.705571
0.323612
0.437141
0.380565
0.697762
0.70962
0.31243
0.323644
0.560893
0.31323
0.708793
0.717149
0.324651
0.300353
0.294838
0.702741
0.307729
0.558596
0.724545
0.696098
0.276194
0.559799
0.71579
0.703382
0.305862
0.704511
0.7106
0.287289
0.709428
0.7139
0.305397
0.3209
0.710509
0.310771
0.316922
0.705811
0.338433
0.703481
0.722083
0.718006
0.712726
0.715686
0.705159
0.70193
0.305427
0.368253
0.709197
0.705519
0.417079
0.714133
0.337855
0.705274
0.708434
0.674438
0.722738
0.433279
0.44264
0.704287
0.716694
0.708265
0.712999
0.70219
0.560472
0.712828
0.560451
0.713285
0.711381
0.712849
0.558777
0.701848
0.286724
0.710896
0.31254
0.710001
0.703709
0.721144
0.705661
0.721456
0.298509
0.305089
0.328241
0.307091
0.705401
0.318851
0.30667
0.726137
0.275773
0.722447
0.307462
0.705582
0.705019
0.318844
0.355784
0.326725
0.711085
0.309261
0.703829
0.716356
0.302014
0.711131
0.69418
0.332993
0.31276
0.280085
0.721807
0.321887
0.710993
0.594595
0.322239
0.701409
0.701571
0.716164
0.327843
0.671269
0.289841
0.706784
0.697206
0.707157
0.334414
0.705727
0.709025
0.709041
0.401557
0.711023
0.330271
0.316918
0.712586
0.446381
0.715264
0.419523
0.333605
0.408974
0.709002
0.310893
0.288219
0.305121
0.522618
0.563287
0.706025
0.273023
0.690676
0.702314
0.668631
0.464745
0.32439
0.695585
0.334063
0.318177
0.703012
0.317655
0.328749
0.711792
0.713302
0.31002
0.720943
0.304968
0.561199
0.31476
0.711461
0.567379
0.721139
0.696884
0.301617
0.315196
0.291778
0.700158
0.711078
0.685752
0.542713
0.350045
0.313002
0.701111
0.306105
0.703511
0.351649
0.584253
0.724192
0.314884
0.309219
0.320993
0.32391
0.310307
0.708946
0.70556
0.316057
0.703859
0.720102
0.325447
0.285971
0.713582
0.322789
0.704567
0.38084
0.721579
0.724371
0.703706
0.562751
0.291232
0.715518
0.710968
0.71384
0.319529
0.706552
0.685996
0.328339
0.711171
0.713163
0.714949
0.705331
0.713975
0.712164
0.713156
0.700129
0.701699
0.319065
0.717227
0.322194
0.476713
0.705207
0.291568
0.704449
0.70511
0.307277
0.708793
0.31975
0.287303
0.711888
0.704553
0.713259
0.310754
0.705277
0.69738
0.314775
0.313584
0.711854
0.703334
0.358223
0.304381
0.723173
0.713469
0.327082
0.72221
0.713545
0.717424
0.31474
0.329568
0.28712
0.724243
0.294845
0.704154
0.72083
0.701214
0.693343
0.704503
0.311075
0.71111
0.690525
0.713229
0.688053
0.297162
0.304935
0.276809
0.718914
0.71657
0.374635
0.723854
0.32238
0.712115
0.708517
0.277494
0.7107
0.703524
0.712348
0.312487
0.319381
0.322914
0.713929
0.715245
0.696214
0.507702
0.704417
0.329557
0.712816
0.565178
0.706136
0.31164
0.694821
0.309521
0.706334
0.273488
0.704314
0.711727
0.306249
0.710725
0.480043
0.558639
0.72449
0.558605
0.711176
0.422617
0.701087
0.701982
0.710287
0.704284
0.403436
0.564784
0.28997
0.702127
0.278986
0.319657
0.2874
0.309966
0.333228
0.313649
0.713392
0.347211
0.287116
0.728196
0.71221
0.705359
0.378228
0.722289
0.722048
0.69972
0.294393
0.688739
0.706962
0.319624
0.30675
0.314049
0.714172
0.491225
0.323818
0.684534
0.278157
0.559711
0.464235
0.308688
0.446371
0.722262
0.324213
0.70658
0.283968
0.557198
0.354603
0.712575
0.369785
0.724864
0.564862
0.704565
0.463612
0.324705
0.713257
0.713759
0.30698
0.289796
0.698798
0.322104
0.720717
0.311669
0.693829
0.273716
0.705578
0.310327
0.713408
0.319578
0.709586
0.704421
0.716162
0.560172
0.289991
0.299007
0.372547
0.711072
0.726307
0.708975
0.643095
0.308998
0.721115
0.32466
0.710803
0.70434
0.410378
0.32231
0.717687
0.703807
0.291389
0.562086
0.713706
0.716684
0.71789
0.284667
0.713553
0.322995
0.716585
0.292153
0.680574
0.710771
0.713147
0.713224
0.324513
0.713445
0.318123
0.305647
0.70853
0.561309
0.616852
0.704788
0.564402
0.323763
0.720322
0.712147
0.713238
0.290113
0.421243
0.722809
0.318522
0.706053
0.711305
0.704309
0.712489
0.288925
0.458833
0.719058
0.304015
0.710245
0.713467
0.483015
0.711649
0.303799
0.706193
0.720056
0.722872
0.711565
0.318457
0.299332
0.704156
0.705044
0.304215
0.333824
0.307072
0.304914
0.286998
0.284355
0.315601
0.325824
0.704507
0.280838
0.314052
0.724058
0.608679
0.560596
0.383288
0.323485
0.702555
0.469716
0.538053
0.715537
0.36133
0.722712
0.621429
0.688999
0.705888
0.309557
0.706402
0.691888
0.299125
0.315769
0.413719
0.704801
0.689954
0.714239
0.7051
0.706312
0.706101
0.340415
0.70566
0.699458
0.71251
0.32587
0.705467
0.703565
0.337937
0.419312
0.297974
0.284744
0.284806
0.687942
0.72419
0.706843
0.318521
0.360151
0.713277
0.279751
0.720869
0.702049
0.704625
0.722674
0.703757
0.318195
0.287369
0.271463
0.655665
0.292077
0.702974
0.26894
0.706776
0.699029
0.70363
0.320275
0.453267
0.418098
0.704502
0.302285
0.312852
0.711853
0.705762
0.706845
0.703704
0.711787
0.720896
0.333641
0.695183
0.715895
0.574188
0.704537
0.721954
0.719674
0.384191
0.374576
0.713295
0.461497
0.702011
0.31943
0.707836
0.703539
0.367338
0.296082
0.707495
0.510261
0.716504
0.721706
0.32303
0.322076
0.562495
0.457852
0.389443
0.706564
0.711713
0.310593
0.702527
0.562422
0.705459
0.334318
0.688139
0.331782
0.712288
0.714802
0.720819
0.707513
0.557281
0.326952
0.343651
0.707071
0.314767
0.687685
0.318406
0.703935
0.26416
0.726877
0.716122
0.559824
0.333988
0.558966
0.563419
0.313356
0.70811
0.279026
0.71389
0.331751
0.316083
0.253768
0.710943
0.702122
0.326558
0.327632
0.709823
0.71388