# vtk DataFile Version 1.0
unstructured grid
ascii
DATASET UNSTRUCTURED_GRID
points 13672 float
0.0796578 -0.059106 0
0.00128732 0.00159165 0
0.00227961 -0.00102548 0
0.0791586 -0.0598787 0
-0.0546216 0.01 0
0.000495206 0.025 0
0.0800549 -0.035 0
0.135172 -0.08 0
-0.0546216 -0.0451168 0
0.000495206 -0.0301168 0
0.0800549 -0.0901168 0
0.135172 -0.135117 0
-0.0546216 -0.0451168 -0.00551168
0.000495206 -0.0301168 -0.00551168
0.0800549 -0.0901168 -0.00551168
0.135172 -0.135117 -0.00551168
0.135172 -0.08 -0.00551168
0.0800549 -0.035 -0.00551168
0.000495206 0.025 -0.00551168
-0.0546216 0.01 -0.00551168
0.00128732 0.00159165 -0.00551168
0.00227961 -0.00102548 -0.00551168
0.0791586 -0.0598787 -0.00551168
0.0796578 -0.059106 -0.00551168
0.00165953 -0.000990923 0
0.00119576 -0.000874076 0
0.000866021 -0.000641801 0
0.000645147 -0.000349912 0
0.00052235 -1.7281e-05 0
0.00049972 0.000348016 0
0.000601632 0.000737716 0
0.000861774 0.0011403 0
0.00157235 0.00183217 0
0.00188647 0.00206725 0
0.00222612 0.00230203 0
0.00258713 0.00254351 0
0.00296826 0.00279524 0
0.00337118 0.00305664 0
0.00379785 0.00332658 0
0.00425045 0.00360349 0
0.00473139 0.00388521 0
0.0052432 0.00416895 0
0.0057881 0.00445204 0
0.00636753 0.00473281 0
0.00698281 0.00500961 0
0.00763526 0.00528058 0
0.00832616 0.00554366 0
0.00905691 0.00579603 0
0.00982918 0.00603333 0
0.0106445 0.00625033 0
0.0115038 0.00644128 0
0.0124073 0.00660297 0
0.0133543 0.00673414 0
0.0143444 0.00683382 0
0.0153769 0.00690031 0
0.0164512 0.00693173 0
0.0175666 0.00692547 0
0.0187219 0.00687822 0
0.0199156 0.00678477 0
0.0211454 0.00663864 0
0.0224084 0.00643275 0
0.0237018 0.00616676 0
0.0250249 0.00584739 0
0.026375 0.00547298 0
0.0277479 0.00503752 0
0.0291386 0.00453545 0
0.0305433 0.0039653 0
0.0319572 0.0033256 0
0.0333681 0.00260019 0
0.034775 0.00179799 0
0.0361793 0.000930615 0
0.0375798 3.12222e-06 0
0.0389689 -0.000988429 0
0.0403357 -0.00205109 0
0.041675 -0.00318283 0
0.0429849 -0.00437751 0
0.0442643 -0.00562904 0
0.0455126 -0.00693089 0
0.0467314 -0.00827518 0
0.0479204 -0.00965638 0
0.0490661 -0.0110799 0
0.0501515 -0.0125519 0
0.0511696 -0.0140695 0
0.0521492 -0.0156071 0
0.0531202 -0.0171411 0
0.0540851 -0.0186663 0
0.0550431 -0.0201798 0
0.0559923 -0.0216793 0
0.0569311 -0.0231626 0
0.0578582 -0.0246273 0
0.0587723 -0.0260715 0
0.0596721 -0.027493 0
0.0605563 -0.02889 0
0.0614241 -0.0302609 0
0.0622742 -0.0316042 0
0.063106 -0.0329183 0
0.0639186 -0.034202 0
0.0647113 -0.0354543 0
0.0654835 -0.0366743 0
0.0662345 -0.0378613 0
0.0669642 -0.0390145 0
0.0676726 -0.0401333 0
0.0683597 -0.0412172 0
0.0690246 -0.0422665 0
0.0696662 -0.0432819 0
0.0702841 -0.0442636 0
0.0708793 -0.0452111 0
0.0714538 -0.0461237 0
0.072009 -0.047001 0
0.0725452 -0.0478434 0
0.0730611 -0.0486524 0
0.073556 -0.0494294 0
0.0740291 -0.0501756 0
0.0744812 -0.0508916 0
0.0749138 -0.0515773 0
0.0753285 -0.0522331 0
0.0757266 -0.0528592 0
0.076109 -0.0534564 0
0.0764753 -0.0540264 0
0.0768243 -0.054571 0
0.0771553 -0.0550919 0
0.0774679 -0.0555901 0
0.0777617 -0.0560669 0
0.0780369 -0.056523 0
0.0782958 -0.0569578 0
0.0785421 -0.0573703 0
0.0787786 -0.0577603 0
0.0790073 -0.0581279 0
0.0792295 -0.058474 0
0.0794462 -0.0587995 0
0.0798803 -0.0594162 0
0.0800272 -0.0596588 0
0.0800357 -0.0598891 0
0.0799275 -0.0600784 0
0.0797205 -0.0601773 0
0.0794593 -0.0601051 0
0.0789155 -0.0596491 0
0.0786707 -0.0593963 0
0.0784111 -0.0591319 0
0.0781372 -0.0588542 0
0.0778566 -0.0585548 0
0.0775715 -0.0582308 0
0.0772803 -0.0578828 0
0.0769832 -0.0575099 0
0.0766822 -0.0571097 0
0.0763801 -0.0566796 0
0.0760759 -0.0562196 0
0.0757623 -0.0557337 0
0.0754359 -0.0552232 0
0.0750951 -0.0546879 0
0.0747379 -0.054128 0
0.0743626 -0.0535435 0
0.0739688 -0.0529338 0
0.0735559 -0.0522981 0
0.0731238 -0.0516357 0
0.0726718 -0.050946 0
0.0721991 -0.0502288 0
0.0717046 -0.049484 0
0.0711872 -0.0487117 0
0.0706461 -0.047912 0
0.0700804 -0.0470849 0
0.0694892 -0.0462308 0
0.0688718 -0.0453499 0
0.0682271 -0.0444431 0
0.0675544 -0.043511 0
0.0668527 -0.0425546 0
0.0661215 -0.0415748 0
0.06536 -0.040573 0
0.0645676 -0.0395504 0
0.0637439 -0.0385087 0
0.0628887 -0.0374493 0
0.062002 -0.0363741 0
0.0610838 -0.0352847 0
0.0601345 -0.0341831 0
0.0591547 -0.033071 0
0.0581456 -0.0319502 0
0.0571083 -0.0308224 0
0.0560444 -0.0296893 0
0.0549562 -0.028552 0
0.053845 -0.0274126 0
0.0527113 -0.0262746 0
0.051554 -0.0251427 0
0.0503724 -0.0240222 0
0.0491675 -0.0229164 0
0.047941 -0.0218282 0
0.0466955 -0.0207597 0
0.0454337 -0.0197126 0
0.0441592 -0.0186878 0
0.0428751 -0.0176863 0
0.0415841 -0.0167097 0
0.0402878 -0.0157609 0
0.0389879 -0.0148428 0
0.0376864 -0.0139575 0
0.0363853 -0.013107 0
0.0350871 -0.0122931 0
0.0337942 -0.0115164 0
0.0325095 -0.0107772 0
0.0312357 -0.0100756 0
0.0299758 -0.00941024 0
0.0287337 -0.00877784 0
0.0275126 -0.00817571 0
0.0263139 -0.00760375 0
0.0251376 -0.00706528 0
0.0239829 -0.0065649 0
0.0228537 -0.00609619 0
0.0217522 -0.00565563 0
0.0206795 -0.00524226 0
0.0196364 -0.00485507 0
0.0186233 -0.00449318 0
0.0176408 -0.00415577 0
0.016689 -0.00384204 0
0.0157682 -0.00355115 0
0.0148783 -0.00328218 0
0.0140192 -0.00303468 0
0.0131906 -0.00280795 0
0.0123925 -0.00260016 0
0.0116246 -0.00241012 0
0.0108864 -0.00223769 0
0.0101774 -0.00208212 0
0.00949701 -0.00194206 0
0.00884483 -0.0018163 0
0.0082202 -0.0017039 0
0.00762247 -0.00160391 0
0.00705097 -0.00151528 0
0.006505 -0.00143697 0
0.0059838 -0.00136806 0
0.00548662 -0.00130772 0
0.00501265 -0.00125519 0
0.00456114 -0.00120954 0
0.00413136 -0.00116914 0
0.00372257 -0.00113251 0
0.00333398 -0.00109853 0
0.00296466 -0.00106798 0
0.00261363 -0.0010431 0
-0.052721 -0.0445996 0
-0.0508204 -0.0440823 0
-0.0489199 -0.0435651 0
-0.0470193 -0.0430478 0
-0.0451187 -0.0425306 0
-0.0432181 -0.0420134 0
-0.0413175 -0.0414961 0
-0.039417 -0.0409789 0
-0.0375164 -0.0404616 0
-0.0356158 -0.0399444 0
-0.0337152 -0.0394271 0
-0.0318146 -0.0389099 0
-0.0299141 -0.0383927 0
-0.0280135 -0.0378754 0
-0.0261129 -0.0373582 0
-0.0242123 -0.0368409 0
-0.0223117 -0.0363237 0
-0.0204112 -0.0358065 0
-0.0185106 -0.0352892 0
-0.01661 -0.034772 0
-0.0147094 -0.0342547 0
-0.0128088 -0.0337375 0
-0.0109083 -0.0332202 0
-0.00900769 -0.032703 0
-0.00710711 -0.0321858 0
-0.00520653 -0.0316685 0
-0.00330595 -0.0311513 0
-0.00140537 -0.030634 0
0.00190689 -0.0299614 0
0.00332271 -0.0298498 0
0.00474133 -0.0297825 0
0.00616136 -0.0297597 0
0.0075814 -0.0297814 0
0.00900007 -0.0298477 0
0.010416 -0.0299583 0
0.0118278 -0.0301127 0
0.0132342 -0.0303103 0
0.0146339 -0.0305504 0
0.0160259 -0.0308322 0
0.0174091 -0.0311546 0
0.0187824 -0.0315166 0
0.020145 -0.031917 0
0.0214961 -0.0323546 0
0.0228351 -0.032828 0
0.0241613 -0.0333361 0
0.0254744 -0.0338774 0
0.0267738 -0.0344507 0
0.0280592 -0.0350545 0
0.0293306 -0.0356877 0
0.0305875 -0.0363488 0
0.0318301 -0.0370367 0
0.0330581 -0.0377501 0
0.0342717 -0.0384879 0
0.0354708 -0.0392489 0
0.0366556 -0.0400321 0
0.0378262 -0.0408363 0
0.0389828 -0.0416607 0
0.0401254 -0.0425042 0
0.0412543 -0.0433659 0
0.0423698 -0.0442451 0
0.043472 -0.0451408 0
0.0445612 -0.0460523 0
0.0456375 -0.0469789 0
0.0467013 -0.0479199 0
0.0477529 -0.0488746 0
0.0487923 -0.0498424 0
0.04982 -0.0508227 0
0.0508362 -0.051815 0
0.051841 -0.0528187 0
0.0528348 -0.0538333 0
0.0538178 -0.0548584 0
0.0547903 -0.0558935 0
0.0557524 -0.0569382 0
0.0567045 -0.0579922 0
0.0576467 -0.0590549 0
0.0585792 -0.0601261 0
0.0595024 -0.0612055 0
0.0604163 -0.0622926 0
0.0613212 -0.0633873 0
0.0622174 -0.0644891 0
0.0631049 -0.0655979 0
0.0639841 -0.0667134 0
0.064855 -0.0678353 0
0.0657179 -0.0689633 0
0.0665729 -0.0700974 0
0.0674202 -0.0712372 0
0.06826 -0.0723826 0
0.0690925 -0.0735333 0
0.0699178 -0.0746892 0
0.070736 -0.0758501 0
0.0715473 -0.0770159 0
0.0723518 -0.0781863 0
0.0731498 -0.0793612 0
0.0739412 -0.0805405 0
0.0747264 -0.081724 0
0.0755053 -0.0829116 0
0.0762781 -0.0841033 0
0.0770449 -0.0852987 0
0.0778059 -0.0864979 0
0.0785611 -0.0877007 0
0.0793108 -0.088907 0
0.0814681 -0.0912706 0
0.0828814 -0.0924245 0
0.0842946 -0.0935783 0
0.0857079 -0.0947322 0
0.0871211 -0.095886 0
0.0885344 -0.0970399 0
0.0899476 -0.0981937 0
0.0913609 -0.0993476 0
0.0927741 -0.100501 0
0.0941874 -0.101655 0
0.0956006 -0.102809 0
0.0970139 -0.103963 0
0.0984272 -0.105117 0
0.0998404 -0.106271 0
0.101254 -0.107424 0
0.102667 -0.108578 0
0.10408 -0.109732 0
0.105493 -0.110886 0
0.106907 -0.11204 0
0.10832 -0.113194 0
0.109733 -0.114348 0
0.111146 -0.115501 0
0.11256 -0.116655 0
0.113973 -0.117809 0
0.115386 -0.118963 0
0.116799 -0.120117 0
0.118213 -0.121271 0
0.119626 -0.122424 0
0.121039 -0.123578 0
0.122452 -0.124732 0
0.123866 -0.125886 0
0.125279 -0.12704 0
0.126692 -0.128194 0
0.128105 -0.129348 0
0.129519 -0.130501 0
0.130932 -0.131655 0
0.132345 -0.132809 0
0.133758 -0.133963 0
0.135172 -0.133216 0
0.135172 -0.131316 0
0.135172 -0.129415 0
0.135172 -0.127514 0
0.135172 -0.125614 0
0.135172 -0.123713 0
0.135172 -0.121813 0
0.135172 -0.119912 0
0.135172 -0.118012 0
0.135172 -0.116111 0
0.135172 -0.11421 0
0.135172 -0.11231 0
0.135172 -0.110409 0
0.135172 -0.108509 0
0.135172 -0.106608 0
0.135172 -0.104708 0
0.135172 -0.102807 0
0.135172 -0.100906 0
0.135172 -0.0990058 0
0.135172 -0.0971052 0
0.135172 -0.0952046 0
0.135172 -0.0933041 0
0.135172 -0.0914035 0
0.135172 -0.0895029 0
0.135172 -0.0876023 0
0.135172 -0.0857017 0
0.135172 -0.0838012 0
0.135172 -0.0819006 0
0.133758 -0.0788462 0
0.132345 -0.0776923 0
0.130932 -0.0765385 0
0.129519 -0.0753846 0
0.128105 -0.0742308 0
0.126692 -0.0730769 0
0.125279 -0.0719231 0
0.123866 -0.0707692 0
0.122452 -0.0696154 0
0.121039 -0.0684615 0
0.119626 -0.0673077 0
0.118213 -0.0661538 0
0.116799 -0.065 0
0.115386 -0.0638462 0
0.113973 -0.0626923 0
0.11256 -0.0615385 0
0.111146 -0.0603846 0
0.109733 -0.0592308 0
0.10832 -0.0580769 0
0.106907 -0.0569231 0
0.105493 -0.0557692 0
0.10408 -0.0546154 0
0.102667 -0.0534615 0
0.101254 -0.0523077 0
0.0998404 -0.0511538 0
0.0984272 -0.05 0
0.0970139 -0.0488462 0
0.0956006 -0.0476923 0
[...]
CELL_DATA 13116
SCALARS rho float
LOOKUP_TABLE default
0.5977
0.5977
0.5977
0.5977
0.5977
0.687018
0.591638
0.5977
0.5977
0.5977
0.521538
0.5977
0.5977
0.5977
0.5977
0.686838
0.5977
0.5977
0.5977
0.495483
0.5977
0.5977
0.5977
0.5977
0.5977
0.5977
0.5977
0.5977
0.5977
0.5977
0.689799
0.5977
0.5977
0.5977
0.597126
0.5977
0.5977
0.5977
0.689849
0.5977
0.59672
0.5977
0.5977
0.5977
0.5977
0.5977
0.5977
0.5977
0.5977
0.5977
0.5977
0.5977
0.597704
0.5977
0.5977
0.5977
0.5977
0.5977
0.5977
0.5977
0.5977
0.5977
0.5977
0.690168
0.689346
0.5977
0.597705
0.5977
0.5977
0.68978
0.5977
0.5977
0.5977
0.5977
0.689551
0.5977
0.5977
0.5977
0.540415
0.5977
0.5977
0.5977
0.5977
0.5977
0.5977
0.5977
0.597736
0.5977
0.5977
0.33819
0.5977
0.5977
0.5977
0.5977
0.5977
0.5977
0.5977
0.689027
0.689721
0.5977
0.5977
0.5977
0.594519
0.5977
0.5977
0.5977
0.5977
0.5977
0.5977
0.5977
0.5977
0.5977
0.5977
0.5977
0.5977
0.597701
0.597698
0.5977
0.5977
0.5977
0.5977
0.5977
0.5977
0.5977
0.5977
0.5977
0.597727
0.5977
0.5977
0.5977
0.5977
0.5977
0.5977
0.5977
0.5977
0.5977
0.54879
0.5977
0.5977
0.5977
0.5977
0.5977
0.5977
0.5977
0.5977
0.5977
0.595425
0.5977
0.5977
0.5977
0.5977
0.5977
0.5977
0.597724
0.5977
0.5977
0.5977
0.5977
0.689268
0.5977
0.5977
0.524254
0.5977
0.5977
0.5977
0.5977
0.5977
0.5977
0.59631
0.5977
0.5977
0.565974
0.5977
0.5977
0.597696
0.5977
0.5977
0.5977
0.5977
0.686005
0.443489
0.5977
0.5977
0.5977
0.686108
0.5977
0.597719
0.593124
0.5977
0.5977
0.5977
0.5977
0.689384
0.5977
0.5977
0.68705
0.5977
0.594496
0.5977
0.5977
0.5977
0.5977
0.5977
0.5977
0.5977
0.5977
0.5977
0.5977
0.5977
0.457928
0.5977
0.60895
0.5977
0.380728
0.358792
0.597714
0.5977
0.688719
0.5977
0.5977
0.5977
0.597708
0.5977
0.43684
0.5977
0.5977
0.5977
0.5977
0.597679
0.5977
0.5977
0.5977
0.690434
0.5977
0.688504
0.5977
0.689675
0.5977
0.5977
0.5977
0.689653
0.685889
0.603294
0.690428
0.5977
0.5977
0.5977
0.5977
0.689515
0.568786
0.5977
0.5977
0.5977
0.690403
0.5977
0.5977
0.5977
0.509946
0.5977
0.5977
0.5977
0.5977
0.5977
0.5977
0.585175
0.5977
0.5977
0.5977
0.5977
0.567951
0.5977
0.5977
0.689024
0.5977
0.5977
0.686943
0.5977
0.689233
0.5977
0.515071
0.597646
0.5977
0.5977
0.5977
0.5977
0.5977
0.5977
0.5977
0.597697
0.5977
0.5977
0.597342
0.48268
0.597709
0.5977
0.5977
0.5977
0.5977
0.5977
0.555299
0.608567
0.5977
0.5977
0.5977
0.688583
0.5977
0.592389
0.597714
0.687791
0.5977
0.5977
0.5977
0.5977
0.5977
0.5977
0.597654
0.5977
0.683112
0.5977
0.5977
0.395326
0.5977
0.5977
0.597709
0.5977
0.5977
0.5977
0.5977
0.5977
0.597723
0.5977
0.5977
0.5977
0.5977
0.5977
0.5977
0.5977
0.5977
0.5977
0.584432
0.5977
0.5977
0.690494
0.5977
0.5977
0.5977
0.5977
0.5977
0.597724
0.5977
0.5977
0.5977
0.568533
0.59772
0.5977
0.5977
0.5977
0.5977
0.597742
0.5977
0.5977
0.5977
0.589187
0.5977
0.5977
0.5977
0.5977
0.5977
0.5977
0.336293
0.5977
0.690949
0.687492
0.5977
0.5977
0.5977
0.5977
0.5977
0.445202
0.687417
0.434346
0.5977
0.5977
0.5977
0.5977
0.5977
0.5977
0.597693
0.5977
0.5977
0.5977
0.5977
0.597701
0.5977
0.5977
0.5977
0.595177
0.5977
0.5977
0.5977
0.5977
0.595634
0.5977
0.5977
0.5977
0.5977
0.5977
0.5977
0.5977
0.5977
0.687576
0.5977
0.5977
0.5977
0.5977
0.5977
0.5977
0.597708
0.597701
0.689463
0.5977
0.451699
0.372743
0.5974
0.5977
0.5977
0.5977
0.592027
0.5977
0.5977
0.338055
0.687179
0.5977
0.5977
0.5977
0.5977
0.5977
0.336351
0.597419
0.336319
0.5977
0.595597
0.439129
0.5977
0.5977
0.435987
0.5977
0.5977
0.5977
0.5977
0.5977
0.5977
0.5977
0.342317
0.5977
0.5977
0.5977
0.5977
0.5977
0.597699
0.5977
0.5977
0.5977
0.5977
0.5977
0.5977
0.594889
0.688904
0.5977
0.5977
0.689483
0.5977
0.597698
0.5977
0.5977
0.5977
0.5977
0.5977
0.5977
0.5977
0.48347
0.5977
0.5977
0.5977
0.5977
0.5977
0.5977
0.5977
0.5977
0.5977
0.5977
0.5977
0.5977
0.5977
0.5977
0.597699
0.5977
0.5977
0.5977
0.5977
0.5977
0.5977
0.5977
0.5977
0.5977
0.5977
0.597701
0.5977
0.5977
0.689572
0.5977
0.5977
0.5977
0.416492
0.5977
0.5977
0.5977
0.5977
0.5977
0.5977
0.5977
0.5977
0.5977
0.5977
0.5977
0.5977
0.5977
0.597702
0.37434
0.5977
0.5977
0.5977
0.355577
0.5977
0.5977
0.5977
0.5977
0.5977
0.383625
0.689879
0.5977
0.5977
0.5977
0.597698
0.5977
0.336492
0.336279
0.5977
0.404738
0.5977
0.5977
0.5977
0.5977
0.5977
0.5977
0.597702
0.5977
0.33653
0.446796
0.5977
0.5977
0.5977
0.5977
0.5977
0.5977
0.5977
0.5977
0.681623
0.5977
0.367359
0.5977
0.5977
0.5977
0.595305
0.5977
0.5977
0.5977
0.5977
0.5977
0.5977
0.5977
0.5977
0.5977
0.689983
0.5977
0.5977
0.5977
0.5977
0.597699
0.633453
0.5977
0.688417
0.5977
0.336254
0.5977
0.5977
0.689267
0.5977
0.580061
0.5977
0.689763
0.5977
0.570139
0.5977
0.363775
0.689693
0.5977
0.685642
0.5977
0.5977
0.5977
0.5977
0.5977
0.5977
0.5977
0.5977
0.5977
0.5977
0.5977
0.687011
0.5977
0.659188
0.5977
0.688742
0.3439
0.5977
0.5977
0.5977
0.668991
0.5977
0.5977
0.5977
0.689736
0.5977
0.5977
0.52153
0.5977
0.5977
0.597703
0.689278
0.5977
0.597717
0.5977
0.5977
0.5977
0.591528
0.5977
0.5977
0.5977
0.553544
0.5977
0.5977
0.5977
0.597698
0.515244
0.5977
0.5977
0.5977
0.5977
0.593452
0.513105
0.5977
0.5977
0.5977
0.5977
0.5977
0.5977
0.596678
0.5977
0.5977
0.5977
0.5977
0.597679
0.5977
0.5977
0.5977
0.5977
0.5977
0.5977
0.5977
0.5977
0.5977
0.5977
0.689914
0.5977
0.5977
0.5977
0.5977
0.5977
0.5977
0.5977
0.5977
0.5977
0.646735
0.5977
0.5977
0.688942
0.5977
0.5977
0.5977
0.5977
0.5977
0.5977
0.5977
0.5977
0.5977
0.55742
0.5977
0.5977
0.5977
0.381574
0.5977
0.5977
0.5977
0.5977
0.5977
0.448259
0.5977
0.5977
0.481585
0.5977
0.5977
0.5977
0.5977
0.5977
0.5977
0.5977
0.5977
0.5977
0.689653
0.5977
0.380529
0.5977
0.5977
0.5977
0.5977
0.660532
0.5977
0.5977
0.463729
0.5977
0.5977
0.5977
0.5977
0.689694
0.5977
0.5977
0.5977
0.5977
0.5977
0.336309
0.33649
0.581267
0.429343
0.5977
0.5977
0.689584
0.5977
0.460238
0.5977
0.5977
0.5977
0.5977
0.5977
0.5977
0.59508
0.5977
0.5977
0.443896
0.336266
0.648913
0.5977
0.383613
0.597698
0.681484
0.5977
0.336415
0.5977
0.5977
0.5977
0.687128
0.620422
0.597698
0.5977
0.564958
0.5977
0.5977
0.5977
0.5977
0.5977
0.5977
0.594968
0.5977
0.337755
0.5977
0.338768
0.68026
0.5977
0.68982
0.5977
0.336434
0.5977
0.689197
0.5977
0.5977
0.5977
0.686942
0.5977
0.5977
0.5977
0.679045
0.5977
0.438699
0.651226
0.689052
0.5977
0.5977
0.553549
0.5977
0.683097
0.5977
0.5977
0.5977
0.336765
0.690472
0.5977
0.337516
0.5977
0.5977
0.5977
0.5977
0.5977
0.5977
0.5977
0.5977
0.5977
0.5977
0.358286
0.5977
0.691149
0.5977
0.5977
0.5977
0.5977
0.5977
0.5977
0.5977
0.597109
0.592337
0.5977
0.5977
0.5977
0.669175
0.374578
0.5977
0.5977
0.5977
0.5977
0.676192
0.5977
0.5977
0.5977
0.5977
0.5977
0.5977
0.5977
0.5977
0.687688
0.5977
0.5977
0.5977
0.5977
0.5977
0.5977
0.5977
0.336395
0.5977
0.5977
0.5977
0.5977
0.594202
0.5977
0.5977
0.5977
0.5977
0.5977
0.644597
0.689073
0.5977
0.5977
0.689241
0.5977
0.5977
0.5977
0.5977
0.5977
0.5977
0.5977
0.5977
0.5977
0.5977
0.5977
0.597715
0.54705
0.519501
0.5977
0.5977
0.5977
0.5977
0.5977
0.5977
0.5977
0.689144
0.689395
0.5977
0.689848
0.5977
0.5977
0.5977
0.5977
0.5977
0.686217
0.597701
0.5977
0.689079
0.5977
0.5977
0.5977
0.5977
0.5977
0.336016
0.688385
0.564775
0.5977
0.597698
0.5977
0.5977
0.5977
0.5977
0.5977
0.5977
0.5977
0.688444
0.472027
0.5977
0.5977
0.5977
0.5977
0.689773
0.5977
0.661381
0.5977
0.5977
0.5977
0.597701
0.5977
0.335923
0.5977
0.5977
0.624325
0.689842
0.586254
0.5977
0.5977
0.5977
0.5977
0.335793
0.5977
0.605694
0.5977
0.689756
0.5977
0.682453
0.5977
0.5977
0.5977
0.5977
0.5977
0.5977
0.5977
0.5977
0.597395
0.68882
0.58726
0.5977
0.5977
0.591376
0.5977
0.5977
0.5977
0.5977
0.367466
0.5977
0.5977
0.5977
0.5977
0.597424
0.597461
0.5977
0.5977
0.5977
0.689529
0.5977
0.5977
0.5977
0.5977
0.5977
0.455196
0.5977
0.536066
0.5977
0.5977
0.5977
0.5977
0.5977
0.5977
0.5977
0.5977
0.5977
0.5977
0.593843
0.5977
0.5977
0.5977
0.514268
0.5977
0.687819
0.5977
0.5977
0.5977
0.688681
0.5977
0.5977
0.5977
0.5977
0.5977
0.582132
0.5977
0.5977
0.5977
0.5977
0.5977
0.64534
0.5977
0.5977
0.368988
0.5977
0.5977
0.597699
0.5977
0.551738
0.5977
0.597718
0.591805
0.4283
0.5977
0.5977
0.356594
0.5977
0.5977
0.5977
0.690316
0.5977
0.5977
0.5977
0.5977
0.5977
0.5977
0.345452
0.597698
0.581308
0.5977
0.5977
0.5977
0.5977
0.5977
0.689386
0.5977
0.5977
0.5977
0.5977
0.689917
0.545276
0.689817
0.5977
0.5977
0.5977
0.5977
0.5977
0.5977
0.5977
0.5977
0.686196
0.5977
0.5977
0.5977
0.5977
0.336105
0.682135
0.5977
0.5977
0.5977
0.5977
0.5977
0.5977
0.5977
0.5977
0.583414
0.5977
0.5977
0.5977
0.5977
0.5977
0.5977
0.5977
0.5977
0.5977
0.5977
0.689354
0.5977
0.569653
0.5977
0.5977
0.5977
0.5977
0.5977
0.5977
0.5977
0.5977
0.5977
0.651201
0.5977
0.5977
0.5977
0.5977
0.5977
0.5977
0.5977
0.5977
0.687697
0.5977
0.5977
0.558167
0.5977
0.597724
0.5977
0.5977
0.686682
0.5977
0.5977
0.5977
0.5977
0.5977
0.592824
0.5977
0.5977
0.5977
0.468263
0.5977
0.5977
0.5977
0.5977
0.5977
0.686396
0.5977
0.5977
0.5977
0.5977
0.690082
0.597701
0.5977
0.5977
0.5977
0.5977
0.5977
0.5977
0.5977
0.5977
0.5977
0.687578
0.5977
0.5977
0.5977
0.5977
0.687339
0.681403
0.5977
0.5977
0.689442
0.5977
0.5977
0.59079
0.5977
0.597456
0.5977
0.5977
0.353631
0.359459
0.5977
0.597489
0.5977
0.5977
0.597666
0.5977
0.5977
0.413697
0.5977
0.5977
0.687527
0.5977
0.5977
0.690145
0.5977
0.686797
0.690197
0.5977
0.5977
0.5977
0.5977
0.5977
0.5977
0.5977
0.5977
0.474358
0.5977
0.5977
0.594677
0.5977
0.5977
0.5977
0.597286
0.470287
0.5977
0.5977
0.550109
0.5977
0.689065
0.42646
0.5977
0.412504
0.5977
0.5977
0.5977
0.5977
0.5977
0.5977
0.597716
0.548155
0.5977
0.690652
0.5977
0.5977
0.597699
0.597723
0.5977
0.5977
0.5977
0.5977
0.5977
0.5977
0.5977
0.5977
0.5977
0.5977
0.5977
0.5977
0.458808
0.689164
0.689255
0.5977
0.5977
0.5977
0.5977
0.5977
0.5977
0.5977
0.5977
0.5977
0.5977
0.388905
0.687397
0.5977
0.336388
0.5977
0.597699
0.5977
0.5977
0.5977
0.5977
0.5977
0.5977
0.5977
0.5977
0.5977
0.5977
0.686412
0.597701
0.5977
0.5977
0.5977
0.688212
0.5977
0.597701
0.5977
0.5977
0.5977
0.5977
0.5977
0.595447
0.689737
0.5977
0.632949
0.5977
0.689457
0.597697
0.597699
0.336546
0.5977
0.578305
0.5977
0.5977
0.5977
0.5977
0.5977
0.5977
0.5977
0.349608
0.69002
0.689573
0.5977
0.597718
0.5977
0.5977
0.689437
0.5977
0.5977
0.597415
0.473392
0.593343
0.471222
0.5977
0.5977
0.660187
0.358319
0.5977
0.597721
0.5977
0.583058
0.5977
0.5977
0.59602
0.5977
0.422956
0.5977
0.5977
0.5977
0.344397
0.557918
0.5977
0.68945
0.5977
0.507157
0.5977
0.5977
0.5977
0.5977
0.5977
0.5977
0.5977
0.5977
0.5977
0.5977
0.56075
0.5977
0.5977
0.5977
0.5977
0.68954
0.361005
0.5977
0.5977
0.5977
0.689154
0.459409
0.5977
0.5977
0.5977
0.5977
0.5977
0.449115
0.5977
0.596147
0.689695
0.5977
0.5977
0.5977
0.5977
0.5977
0.689583
0.689253
0.5977
0.5977
0.687533
0.5977
0.5977
0.5977
0.5977
0.5977
0.687313
0.5977
0.597177
0.5977
0.382912
0.5977
0.5977
0.33604
0.5977
0.5977
0.5977
0.5977
0.597701
0.5977
0.5977
0.5977
0.5977
0.5977
0.5977
0.687664
0.5977
0.595561
0.597706
0.5977
0.597182
0.5977
0.596934
0.5977
0.685604
0.5977
0.5977
0.5977
0.5977
0.507603
0.5977
0.5977
0.371529
0.5977
0.5977
0.5977
0.5977
0.67901
0.5977
0.685527
0.5977
0.5977
0.5977
0.5977
0.33591
0.593159
0.5977
0.5977
0.5977
0.5977
0.5977
0.5977
0.5977
0.5977
0.687128
0.5977
0.5977
0.5977
0.5977
0.5977
0.5977
0.5977
0.534461
0.5977
0.5977
0.5977
0.5977
0.5977
0.5977
0.682423
0.5977
0.5977
0.5977
0.548802
0.5977
0.5977
0.5977
0.5977
0.5977
0.5977
0.687898
0.422354
0.5977
0.5977
0.5977
0.5977
0.5977
0.5977
0.597702
0.5977
0.5977
0.5977
0.5977
0.5977
0.5977
0.5977
0.5977
0.5977
0.689234
0.5977
0.5977
0.5977
0.5977
0.5977
0.5977
0.5977
0.597699
0.5977
0.689626
0.5977
0.5977
0.5977
0.5977
0.554917
0.5977
0.5977
0.597722
0.404081
0.5977
0.5977
0.336255
0.5977
0.5977
0.5977
0.568996
0.5977
0.5977
0.5977
0.5977
0.476059
0.5977
0.576343
0.336403
0.687854
0.336953
0.5977
0.5977
0.5977
0.575888
0.5977
0.5977
0.597661
0.5977
0.5977
0.5977
0.5977
0.5977
0.5977
0.5977
0.597064
0.5977
0.4597
0.690255
0.689921
0.5977
0.5977
0.5977
0.5977
0.68864
0.5977
0.5977
0.5977
0.46488
0.5977
0.5977
0.5977
0.5977
0.5977
0.5977
0.5977
0.5977
0.5977
0.5977
0.5977
0.5977
0.5977
0.5977
0.5977
0.5977
0.545419
0.5977
0.684043
0.5977
0.5977
0.5977
0.5977
0.336407
0.5977
0.5977
0.5977
0.5977
0.5977
0.5977
0.597615
0.5977
0.5977
0.5977
0.677193
0.5977
0.5977
0.5977
0.5977
0.597727
0.5977
0.5977
0.5977
0.5977
0.5977
0.5977
0.483926
0.688671
0.5977
0.437625
0.5977
0.5977
0.5977
0.5977
0.5977
0.5977
0.5977
0.5977
0.597701
0.5977
0.5977
0.50645
0.5977
0.690848
0.5977
0.463984
0.358755
0.5977
0.5977
0.597702
0.5977
0.363199
0.5977
0.597701
0.5977
0.5977
0.5977
0.5977
0.686208
0.5977
0.335979
0.594745
0.5977
0.424881
0.5977
0.5977
0.688599
0.5977
0.5977
0.382587
0.571421
0.476803
0.596879
0.5977
0.33921
0.5977
0.597697
0.5977
0.597698
0.55175
0.5977
0.5977
0.5977
0.5977
0.5977
0.5977
0.576381
0.5977
0.5977
0.5977
0.5977
0.5977
0.55879
0.338663
0.5977
0.505088
0.508075
0.5977
0.5977
0.5977
0.5977
0.5977
0.5977
0.5977
0.597702
0.687721
0.557643
0.5977
0.5977
0.5977
0.5977
0.5977
0.5977
0.5977
0.5977
0.5977
0.5977
0.5977
0.5977
0.5977
0.5977
0.5977
0.5977
0.596151
0.680504
0.5977
0.548559
0.5977
0.5977
0.5977
0.602878
0.6865
0.5977
0.5977
0.5977
0.5977
0.5977
0.5977
0.5977
0.5977
0.5977
0.597724
0.5977
0.563089
0.5977
0.548774
0.559369
0.5977
0.5977
0.5977
0.597723
0.5977
0.5977
0.355563
0.5977
0.5977
0.5977
0.5977
0.5977
0.5977
0.597711
0.5977
0.5977
0.5977
0.5977
0.5977
0.5977
0.337125
0.5977
0.5977
0.5977
0.597703
0.591854
0.5977
0.336909
0.5977
0.5977
0.5977
0.688139
0.5977
0.336436
0.5977
0.5977
0.5977
0.5977
0.5977
0.335853
0.415997
0.5977
0.5977
0.5977
0.5977
0.336526
0.5977
0.5977
0.5977
0.5977
0.5977
0.5977
0.689145
0.5977
0.5977
0.5977
0.597699
0.5977
0.5977
0.5977
0.5977
0.33616
0.449617
0.5977
0.402417
0.337669
0.5977
0.5977
0.597699
0.5977
0.597698
0.688703
0.5977
0.5977
0.689902
0.5977
0.687876
0.5977
0.457168
0.5977
0.687671
0.5977
0.5977
0.5977
0.5977
0.5977
0.686967
0.546613
0.5977
0.5977
0.691062
0.5977
0.597656
0.5977
0.392758
0.383844
0.5977
0.5977
0.5977
0.567763
0.5977
0.5977
0.5977
0.5977
0.5977
0.337283
0.5977
0.5977
0.5977
0.5977
0.5977
0.689817
0.5977
0.5977
0.5977
0.5977
0.344706
0.5977
0.5977
0.5977
0.5977
0.5977
0.5977
0.5977
0.5977
0.5977
0.5977
0.687541
0.597702
0.366127
0.5977
0.388747
0.5977
0.5977
0.5977
0.5977
0.5977
0.5977
0.5977
0.34376
0.5977
0.5977
0.5977
0.5977
0.470094
0.5977
0.5977
0.5977
0.571959
0.5977
0.596645
0.5977
0.5977
0.5977
0.5977
0.336317
0.5977
0.5977
0.5977
0.597705
0.336078
0.5977
0.5977
0.5977
0.5977
0.5977
0.686266
0.5977
0.5977
0.464735
0.5977
0.5977
0.5977
0.5977
0.5977
0.56778
0.5977
0.5977
0.5977
0.5977
0.5977
0.5977
0.5977
0.5977
0.5977
0.5977
0.5977
0.5977
0.586069
0.595777
0.5977
0.5977
0.5977
0.5977
0.5977
0.5977
0.336685
0.5977
0.68949
0.5977
0.593746
0.5977
0.5977
0.5977
0.5977
0.5977
0.5977
0.5977
0.5977
0.5977
0.598543
0.5977
0.557992
0.5977
0.5977
0.686776
0.592279
0.5977
0.5977
0.5977
0.689177
0.597699
0.595722
0.5977
0.415539
0.5977
0.5977
0.336389
0.582667
0.5977
0.5977
0.5977
0.5977
0.5977
0.5977
0.5977
0.5977
0.5977
0.68683
0.5977
0.5977
0.597703
0.5977
0.5977
0.460665
0.5977
0.5977
0.342569
0.5977
0.5977
0.689247
0.5977
0.597711
0.5977
0.5977
0.5977
0.59636
0.5977
0.5977
0.5977
0.5977
0.5977
0.5977
0.689545
0.5977
0.5977
0.400187
0.5977
0.5977
0.5977
0.5977
0.688168
0.406484
0.5977
0.566421
0.5977
0.5977
0.597702
0.5977
0.5977
0.427174
0.5977
0.5977
0.5977
0.686759
0.597699
0.5977
0.5977
0.5977
0.5977
0.5977
0.5977
0.5977
0.5977
0.5977
0.5977
0.5977
0.5977
0.5977
0.5977
0.5977
0.5977
0.690275
0.5977
0.5977
0.5977
0.5977
0.5977
0.360337
0.5977
0.5977
0.68967
0.5977
0.5977
0.5977
0.5977
0.5977
0.362381
0.572706
0.594656
0.688532
0.5977
0.5977
0.689216
0.338297
0.5977
0.5977
0.5977
0.5977
0.5977
0.5977
0.564752
0.5977
0.5977
0.5977
0.5977
0.5977
0.5977
0.5977
0.5977
0.5977
0.5977
0.5977
0.5977
0.5977
0.5977
0.5977
0.5977
0.5977
0.596041
0.5977
0.5977
0.5977
0.5977
0.5977
0.5977
0.5977
0.5977
0.5977
0.5977
0.335992
0.5977
0.5977
0.597703
0.5977
0.5977
0.579314
0.5977
0.369609
0.597702
0.5977
0.5977
0.5977
0.5977
0.5977
0.691
0.5977
0.5977
0.5977
0.5977
0.689602
0.597698
0.428713
0.5977
0.5977
0.5977
0.5977
0.686846
0.5977
0.5977
0.5977
0.5977
0.689367
0.5977
0.367298
0.597701
0.5977
0.5977
0.5977
0.597698
0.5977
0.5977
0.5977
0.5977
0.5977
0.438294
0.5977
0.5977
0.5977
0.5977
0.594584
0.5977
0.5977
0.5977
0.5977
0.5977
0.5977
0.5977
0.5977
0.5977
0.5977
0.592439
0.687344
0.5977
0.5977
0.5977
0.5977
0.5977
0.5977
0.475832
0.5977
0.5977
0.5977
0.687422
0.5977
0.5977
0.336143
0.5977
0.5977
0.5977
0.5977
0.5977
0.5977
0.5977
0.5977
0.5977
0.5977
0.5977
0.366134
0.5977
0.5977
0.5977
0.5977
0.5977
0.5977
0.5977
0.5977
0.336614
0.463809
0.689817
0.5977
0.5977
0.5977
0.5977
0.5977
0.5977
0.689493
0.5977
0.336283
0.5977
0.335882
0.5977
0.5977
0.5977
0.5977
0.689775
0.5977
0.5977
0.5977
0.418416
0.5977
0.5977
0.5977
0.5977
0.5977
0.5977
0.689448
0.336282
0.554672
0.689201
0.49512
0.5977
0.5977
0.5977
0.336217
0.594411
0.5977
0.5977
0.5977
0.5977
0.5977
0.5977
0.5977
0.5977
0.5977
0.336519
0.5977
0.386292
0.5977
0.469461
0.5977
0.5977
0.5977
0.5977
0.588367
0.690154
0.5977
0.477313
0.5977
0.5977
0.5977
0.5977
0.5977
0.5977
0.689386
0.5977
0.5977
0.5977
0.5977
0.5977
0.451086
0.5977
0.690007
0.5977
0.336573
0.5977
0.5977
0.5977
0.5977
0.5977
0.5977
0.5977
0.5977
0.5977
0.5977
0.5977
0.5977
0.5977
0.5977
0.393388
0.5977
0.5977
0.440066
0.5977
0.5977
0.5977
0.5977
0.5977
0.5977
0.5977
0.5977
0.5977
0.498094
0.5977
0.414016
0.5977
0.5977
0.489298
0.5977
0.689578
0.5977
0.5977
0.5977
0.5977
0.5977
0.5977
0.5977
0.5977
0.643765
0.5977
0.5977
0.5977
0.5977
0.5977
0.597702
0.5977
0.5977
0.5977
0.5977
0.5977
0.5977
0.36843
0.5977
0.5977
0.5977
0.5977
0.5977
0.5977
0.5977
0.5977
0.522356
0.5977
0.335855
0.5977
0.5977
0.5977
0.5977
0.5977
0.5977
0.5977
0.581476
0.5977
0.5977
0.5977
0.5977
0.597697
0.5977
0.5977
0.5977
0.5977
0.689173
0.5977
0.5977
0.6875
0.5977
0.586682
0.5977
0.5977
0.5977
0.5977
0.5977
0.585103
0.5977
0.5977
0.5977
0.5977
0.5977
0.5977
0.689036
0.5977
0.689101
0.5977
0.495293
0.68899
0.5977
0.5977
0.509484
0.336308
0.597698
0.5977
0.337024
0.5977
0.5977
0.5977
0.56859
0.5977
0.5977
0.5977
0.595137
0.5977
0.628223
0.5977
0.5977
0.5977
0.5977
0.5977
0.5977
0.5977
0.5977
0.5977
0.356316
0.5977
0.5977
0.5977
0.403486
0.690462
0.5977
0.5977
0.593695
0.5977
0.5977
0.336906
0.5977
0.5977
0.5977
0.5977
0.5977
0.5977
0.5977
0.5977
0.662386
0.5977
0.336948
0.5977
0.5977
0.5977
0.5977
0.5977
0.5977
0.412242
0.5977
0.689598
0.5977
0.5977
0.5977
0.5977
0.5977
0.5977
0.5977
0.5977
0.5977
0.38767
0.597704
0.5977
0.5977
0.5977
0.5977
0.5977
0.5977
0.5977
0.5977
0.5977
0.5977
0.394808
0.340187
0.5977
0.5977
0.551898
0.5977
0.5977
0.5977
0.5977
0.5977
0.5977
0.5977
0.386472
0.5977
0.5977
0.5977
0.5977
0.366706
0.5977
0.5977
0.5977
0.5977
0.5977
0.5977
0.34868
0.470984
0.5977
0.5977
0.685992
0.5977
0.377615
0.5977
0.362429
0.5977
0.5977
0.5977
0.490978
0.5977
0.688168
0.5977
0.5977
0.5977
0.5977
0.686139
0.5977
0.5977
0.5977
0.501459
0.5977
0.5977
0.552648
0.593185
0.5977
0.5977
0.5977
0.5977
0.5977
0.68919
0.689483
0.5977
0.5977
0.5977
0.5977
0.689704
0.597699
0.337399
0.5977
0.5977
0.5977
0.351815
0.687859
0.5977
0.5977
0.5977
0.5977
0.5977
0.5977
0.578224
0.689846
0.5977
0.543697
0.596563
0.5977
0.5977
0.5977
0.5977
0.5977
0.5977
0.495877
0.613825
0.5977
0.5977
0.338065
0.690141
0.5977
0.5977
0.5977
0.5977
0.5977
0.5977
0.5977
0.597699
0.5977
0.5977
0.5977
0.688906
0.5977
0.5977
0.5977
0.5977
0.5977
0.5977
0.5977
0.5977
0.493726
0.5977
0.5977
0.5977
0.686699
0.5977
0.5977
0.5977
0.5977
0.67643
0.5977
0.5977
0.5977
0.336221
0.625838
0.401646
0.5977
0.5977
0.5977
0.5977
0.5977
0.5977
0.5977
0.5977
0.597719
0.5977
0.597981
0.59599
0.623888
0.5977
0.5977
0.5977
0.592625
0.5977
0.5977
0.5977
0.5977
0.5977
0.39053
0.5977
0.687687
0.5977
0.5977
0.5977
0.5977
0.5977
0.5977
0.5977
0.5977
0.5977
0.428515
0.5977
0.5977
0.59326
0.686088
0.5977
0.5977
0.5977
0.5977
0.597697
0.5977
0.612556
0.5977
0.688075
0.5977
0.5977
0.536449
0.5977
0.5977
0.5977
0.5977
0.5977
0.5977
0.5977
0.5977
0.597699
0.5977
0.5977
0.5977