# vtk DataFile Version 1.0
unstructured grid
ascii
DATASET UNSTRUCTURED_GRID
points 13672 float
0.0796578 -0.059106 0
0.00128732 0.00159165 0
0.00227961 -0.00102548 0
0.0791586 -0.0598787 0
-0.0546216 0.01 0
0.000495206 0.025 0
0.0800549 -0.035 0
0.135172 -0.08 0
-0.0546216 -0.0451168 0
0.000495206 -0.0301168 0
0.0800549 -0.0901168 0
0.135172 -0.135117 0
-0.0546216 -0.0451168 -0.00551168
0.000495206 -0.0301168 -0.00551168
0.0800549 -0.0901168 -0.00551168
0.135172 -0.135117 -0.00551168
0.135172 -0.08 -0.00551168
0.0800549 -0.035 -0.00551168
0.000495206 0.025 -0.00551168
-0.0546216 0.01 -0.00551168
0.00128732 0.00159165 -0.00551168
0.00227961 -0.00102548 -0.00551168
0.0791586 -0.0598787 -0.00551168
0.0796578 -0.059106 -0.00551168
0.00165953 -0.000990923 0
0.00119576 -0.000874076 0
0.000866021 -0.000641801 0
0.000645147 -0.000349912 0
0.00052235 -1.7281e-05 0
0.00049972 0.000348016 0
0.000601632 0.000737716 0
0.000861774 0.0011403 0
0.00157235 0.00183217 0
0.00188647 0.00206725 0
0.00222612 0.00230203 0
0.00258713 0.00254351 0
0.00296826 0.00279524 0
0.00337118 0.00305664 0
0.00379785 0.00332658 0
0.00425045 0.00360349 0
0.00473139 0.00388521 0
0.0052432 0.00416895 0
0.0057881 0.00445204 0
0.00636753 0.00473281 0
0.00698281 0.00500961 0
0.00763526 0.00528058 0
0.00832616 0.00554366 0
0.00905691 0.00579603 0
0.00982918 0.00603333 0
0.0106445 0.00625033 0
0.0115038 0.00644128 0
0.0124073 0.00660297 0
0.0133543 0.00673414 0
0.0143444 0.00683382 0
0.0153769 0.00690031 0
0.0164512 0.00693173 0
0.0175666 0.00692547 0
0.0187219 0.00687822 0
0.0199156 0.00678477 0
0.0211454 0.00663864 0
0.0224084 0.00643275 0
0.0237018 0.00616676 0
0.0250249 0.00584739 0
0.026375 0.00547298 0
0.0277479 0.00503752 0
0.0291386 0.00453545 0
0.0305433 0.0039653 0
0.0319572 0.0033256 0
0.0333681 0.00260019 0
0.034775 0.00179799 0
0.0361793 0.000930615 0
0.0375798 3.12222e-06 0
0.0389689 -0.000988429 0
0.0403357 -0.00205109 0
0.041675 -0.00318283 0
0.0429849 -0.00437751 0
0.0442643 -0.00562904 0
0.0455126 -0.00693089 0
0.0467314 -0.00827518 0
0.0479204 -0.00965638 0
0.0490661 -0.0110799 0
0.0501515 -0.0125519 0
0.0511696 -0.0140695 0
0.0521492 -0.0156071 0
0.0531202 -0.0171411 0
0.0540851 -0.0186663 0
0.0550431 -0.0201798 0
0.0559923 -0.0216793 0
0.0569311 -0.0231626 0
0.0578582 -0.0246273 0
0.0587723 -0.0260715 0
0.0596721 -0.027493 0
0.0605563 -0.02889 0
0.0614241 -0.0302609 0
0.0622742 -0.0316042 0
0.063106 -0.0329183 0
0.0639186 -0.034202 0
0.0647113 -0.0354543 0
0.0654835 -0.0366743 0
0.0662345 -0.0378613 0
0.0669642 -0.0390145 0
0.0676726 -0.0401333 0
0.0683597 -0.0412172 0
0.0690246 -0.0422665 0
0.0696662 -0.0432819 0
0.0702841 -0.0442636 0
0.0708793 -0.0452111 0
0.0714538 -0.0461237 0
0.072009 -0.047001 0
0.0725452 -0.0478434 0
0.0730611 -0.0486524 0
0.073556 -0.0494294 0
0.0740291 -0.0501756 0
0.0744812 -0.0508916 0
0.0749138 -0.0515773 0
0.0753285 -0.0522331 0
0.0757266 -0.0528592 0
0.076109 -0.0534564 0
0.0764753 -0.0540264 0
0.0768243 -0.054571 0
0.0771553 -0.0550919 0
0.0774679 -0.0555901 0
0.0777617 -0.0560669 0
0.0780369 -0.056523 0
0.0782958 -0.0569578 0
0.0785421 -0.0573703 0
0.0787786 -0.0577603 0
0.0790073 -0.0581279 0
0.0792295 -0.058474 0
0.0794462 -0.0587995 0
0.0798803 -0.0594162 0
0.0800272 -0.0596588 0
0.0800357 -0.0598891 0
0.0799275 -0.0600784 0
0.0797205 -0.0601773 0
0.0794593 -0.0601051 0
0.0789155 -0.0596491 0
0.0786707 -0.0593963 0
0.0784111 -0.0591319 0
0.0781372 -0.0588542 0
0.0778566 -0.0585548 0
0.0775715 -0.0582308 0
0.0772803 -0.0578828 0
0.0769832 -0.0575099 0
0.0766822 -0.0571097 0
0.0763801 -0.0566796 0
0.0760759 -0.0562196 0
0.0757623 -0.0557337 0
0.0754359 -0.0552232 0
0.0750951 -0.0546879 0
0.0747379 -0.054128 0
0.0743626 -0.0535435 0
0.0739688 -0.0529338 0
0.0735559 -0.0522981 0
0.0731238 -0.0516357 0
0.0726718 -0.050946 0
0.0721991 -0.0502288 0
0.0717046 -0.049484 0
0.0711872 -0.0487117 0
0.0706461 -0.047912 0
0.0700804 -0.0470849 0
0.0694892 -0.0462308 0
0.0688718 -0.0453499 0
0.0682271 -0.0444431 0
0.0675544 -0.043511 0
0.0668527 -0.0425546 0
0.0661215 -0.0415748 0
0.06536 -0.040573 0
0.0645676 -0.0395504 0
0.0637439 -0.0385087 0
0.0628887 -0.0374493 0
0.062002 -0.0363741 0
0.0610838 -0.0352847 0
0.0601345 -0.0341831 0
0.0591547 -0.033071 0
0.0581456 -0.0319502 0
0.0571083 -0.0308224 0
0.0560444 -0.0296893 0
0.0549562 -0.028552 0
0.053845 -0.0274126 0
0.0527113 -0.0262746 0
0.051554 -0.0251427 0
0.0503724 -0.0240222 0
0.0491675 -0.0229164 0
0.047941 -0.0218282 0
0.0466955 -0.0207597 0
0.0454337 -0.0197126 0
0.0441592 -0.0186878 0
0.0428751 -0.0176863 0
0.0415841 -0.0167097 0
0.0402878 -0.0157609 0
0.0389879 -0.0148428 0
0.0376864 -0.0139575 0
0.0363853 -0.013107 0
0.0350871 -0.0122931 0
0.0337942 -0.0115164 0
0.0325095 -0.0107772 0
0.0312357 -0.0100756 0
0.0299758 -0.00941024 0
0.0287337 -0.00877784 0
0.0275126 -0.00817571 0
0.0263139 -0.00760375 0
0.0251376 -0.00706528 0
0.0239829 -0.0065649 0
0.0228537 -0.00609619 0
0.0217522 -0.00565563 0
0.0206795 -0.00524226 0
0.0196364 -0.00485507 0
0.0186233 -0.00449318 0
0.0176408 -0.00415577 0
0.016689 -0.00384204 0
0.0157682 -0.00355115 0
0.0148783 -0.00328218 0
0.0140192 -0.00303468 0
0.0131906 -0.00280795 0
0.0123925 -0.00260016 0
0.0116246 -0.00241012 0
0.0108864 -0.00223769 0
0.0101774 -0.00208212 0
0.00949701 -0.00194206 0
0.00884483 -0.0018163 0
0.0082202 -0.0017039 0
0.00762247 -0.00160391 0
0.00705097 -0.00151528 0
0.006505 -0.00143697 0
0.0059838 -0.00136806 0
0.00548662 -0.00130772 0
0.00501265 -0.00125519 0
0.00456114 -0.00120954 0
0.00413136 -0.00116914 0
0.00372257 -0.00113251 0
0.00333398 -0.00109853 0
0.00296466 -0.00106798 0
0.00261363 -0.0010431 0
-0.052721 -0.0445996 0
-0.0508204 -0.0440823 0
-0.0489199 -0.0435651 0
-0.0470193 -0.0430478 0
-0.0451187 -0.0425306 0
-0.0432181 -0.0420134 0
-0.0413175 -0.0414961 0
-0.039417 -0.0409789 0
-0.0375164 -0.0404616 0
-0.0356158 -0.0399444 0
-0.0337152 -0.0394271 0
-0.0318146 -0.0389099 0
-0.0299141 -0.0383927 0
-0.0280135 -0.0378754 0
-0.0261129 -0.0373582 0
-0.0242123 -0.0368409 0
-0.0223117 -0.0363237 0
-0.0204112 -0.0358065 0
-0.0185106 -0.0352892 0
-0.01661 -0.034772 0
-0.0147094 -0.0342547 0
-0.0128088 -0.0337375 0
-0.0109083 -0.0332202 0
-0.00900769 -0.032703 0
-0.00710711 -0.0321858 0
-0.00520653 -0.0316685 0
-0.00330595 -0.0311513 0
-0.00140537 -0.030634 0
0.00190689 -0.0299614 0
0.00332271 -0.0298498 0
0.00474133 -0.0297825 0
0.00616136 -0.0297597 0
0.0075814 -0.0297814 0
0.00900007 -0.0298477 0
0.010416 -0.0299583 0
0.0118278 -0.0301127 0
0.0132342 -0.0303103 0
0.0146339 -0.0305504 0
0.0160259 -0.0308322 0
0.0174091 -0.0311546 0
0.0187824 -0.0315166 0
0.020145 -0.031917 0
0.0214961 -0.0323546 0
0.0228351 -0.032828 0
0.0241613 -0.0333361 0
0.0254744 -0.0338774 0
0.0267738 -0.0344507 0
0.0280592 -0.0350545 0
0.0293306 -0.0356877 0
0.0305875 -0.0363488 0
0.0318301 -0.0370367 0
0.0330581 -0.0377501 0
0.0342717 -0.0384879 0
0.0354708 -0.0392489 0
0.0366556 -0.0400321 0
0.0378262 -0.0408363 0
0.0389828 -0.0416607 0
0.0401254 -0.0425042 0
0.0412543 -0.0433659 0
0.0423698 -0.0442451 0
0.043472 -0.0451408 0
0.0445612 -0.0460523 0
0.0456375 -0.0469789 0
0.0467013 -0.0479199 0
0.0477529 -0.0488746 0
0.0487923 -0.0498424 0
0.04982 -0.0508227 0
0.0508362 -0.051815 0
0.051841 -0.0528187 0
0.0528348 -0.0538333 0
0.0538178 -0.0548584 0
0.0547903 -0.0558935 0
0.0557524 -0.0569382 0
0.0567045 -0.0579922 0
0.0576467 -0.0590549 0
0.0585792 -0.0601261 0
0.0595024 -0.0612055 0
0.0604163 -0.0622926 0
0.0613212 -0.0633873 0
0.0622174 -0.0644891 0
0.0631049 -0.0655979 0
0.0639841 -0.0667134 0
0.064855 -0.0678353 0
0.0657179 -0.0689633 0
0.0665729 -0.0700974 0
0.0674202 -0.0712372 0
0.06826 -0.0723826 0
0.0690925 -0.0735333 0
0.0699178 -0.0746892 0
0.070736 -0.0758501 0
0.0715473 -0.0770159 0
0.0723518 -0.0781863 0
0.0731498 -0.0793612 0
0.0739412 -0.0805405 0
0.0747264 -0.081724 0
0.0755053 -0.0829116 0
0.0762781 -0.0841033 0
0.0770449 -0.0852987 0
0.0778059 -0.0864979 0
0.0785611 -0.0877007 0
0.0793108 -0.088907 0
0.0814681 -0.0912706 0
0.0828814 -0.0924245 0
0.0842946 -0.0935783 0
0.0857079 -0.0947322 0
0.0871211 -0.095886 0
0.0885344 -0.0970399 0
0.0899476 -0.0981937 0
0.0913609 -0.0993476 0
0.0927741 -0.100501 0
0.0941874 -0.101655 0
0.0956006 -0.102809 0
0.0970139 -0.103963 0
0.0984272 -0.105117 0
0.0998404 -0.106271 0
0.101254 -0.107424 0
0.102667 -0.108578 0
0.10408 -0.109732 0
0.105493 -0.110886 0
0.106907 -0.11204 0
0.10832 -0.113194 0
0.109733 -0.114348 0
0.111146 -0.115501 0
0.11256 -0.116655 0
0.113973 -0.117809 0
0.115386 -0.118963 0
0.116799 -0.120117 0
0.118213 -0.121271 0
0.119626 -0.122424 0
0.121039 -0.123578 0
0.122452 -0.124732 0
0.123866 -0.125886 0
0.125279 -0.12704 0
0.126692 -0.128194 0
0.128105 -0.129348 0
0.129519 -0.130501 0
0.130932 -0.131655 0
0.132345 -0.132809 0
0.133758 -0.133963 0
0.135172 -0.133216 0
0.135172 -0.131316 0
0.135172 -0.129415 0
0.135172 -0.127514 0
0.135172 -0.125614 0
0.135172 -0.123713 0
0.135172 -0.121813 0
0.135172 -0.119912 0
0.135172 -0.118012 0
0.135172 -0.116111 0
0.135172 -0.11421 0
0.135172 -0.11231 0
0.135172 -0.110409 0
0.135172 -0.108509 0
0.135172 -0.106608 0
0.135172 -0.104708 0
0.135172 -0.102807 0
0.135172 -0.100906 0
0.135172 -0.0990058 0
0.135172 -0.0971052 0
0.135172 -0.0952046 0
0.135172 -0.0933041 0
0.135172 -0.0914035 0
0.135172 -0.0895029 0
0.135172 -0.0876023 0
0.135172 -0.0857017 0
0.135172 -0.0838012 0
0.135172 -0.0819006 0
0.133758 -0.0788462 0
0.132345 -0.0776923 0
0.130932 -0.0765385 0
0.129519 -0.0753846 0
0.128105 -0.0742308 0
0.126692 -0.0730769 0
0.125279 -0.0719231 0
0.123866 -0.0707692 0
0.122452 -0.0696154 0
0.121039 -0.0684615 0
0.119626 -0.0673077 0
0.118213 -0.0661538 0
0.116799 -0.065 0
0.115386 -0.0638462 0
0.113973 -0.0626923 0
0.11256 -0.0615385 0
0.111146 -0.0603846 0
0.109733 -0.0592308 0
0.10832 -0.0580769 0
0.106907 -0.0569231 0
0.105493 -0.0557692 0
0.10408 -0.0546154 0
0.102667 -0.0534615 0
0.101254 -0.0523077 0
0.0998404 -0.0511538 0
0.0984272 -0.05 0
0.0970139 -0.0488462 0
0.0956006 -0.0476923 0
[...]
CELL_DATA 13116
SCALARS rho float
LOOKUP_TABLE default
0.61681
0.718029
0.314526
0.711049
0.711323
0.702458
0.294943
0.713544
0.548
0.711136
0.29098
0.275389
0.711201
0.27857
0.312362
0.702652
0.613914
0.708506
0.716025
0.289525
0.606414
0.333426
0.280046
0.709342
0.613607
0.714845
0.711116
0.311905
0.583621
0.661663
0.558947
0.276187
0.564476
0.464491
0.301187
0.6134
0.691461
0.723677
0.651523
0.711782
0.709694
0.713258
0.502184
0.305646
0.715183
0.716709
0.723594
0.715744
0.321654
0.521735
0.712472
0.502457
0.254153
0.606616
0.567357
0.597422
0.302138
0.711475
0.528272
0.292056
0.279191
0.711117
0.718445
0.633397
0.560409
0.284146
0.707935
0.690732
0.70943
0.557799
0.318059
0.568529
0.331907
0.283692
0.559455
0.31683
0.692645
0.711926
0.286042
0.7079
0.705005
0.715454
0.710231
0.71863
0.713909
0.395974
0.282157
0.680786
0.714741
0.316925
0.276404
0.719079
0.710141
0.714313
0.671021
0.622631
0.615892
0.561015
0.559939
0.588745
0.685282
0.701938
0.708909
0.440281
0.716246
0.262837
0.347063
0.541127
0.302298
0.597869
0.565333
0.714845
0.619244
0.70446
0.708147
0.709294
0.277291
0.382329
0.712358
0.710531
0.689375
0.3323
0.709479
0.2762
0.715359
0.42968
0.28134
0.492936
0.300786
0.518594
0.712307
0.718292
0.459033
0.344044
0.439156
0.644587
0.559892
0.710566
0.683666
0.710648
0.683959
0.724275
0.496464
0.686474
0.707296
0.275228
0.303261
0.715146
0.711806
0.71279
0.510099
0.718919
0.715352
0.300323
0.710656
0.712713
0.281169
0.690611
0.561443
0.6796
0.70992
0.289163
0.711331
0.28499
0.320642
0.711119
0.715332
0.708593
0.298853
0.420198
0.391212
0.560787
0.302561
0.485502
0.708159
0.279586
0.332241
0.330685
0.714413
0.69468
0.299143
0.413588
0.585647
0.689063
0.695412
0.532268
0.293226
0.705646
0.708449
0.453168
0.678532
0.715002
0.557783
0.279252
0.714574
0.696536
0.710285
0.706543
0.715198
0.413264
0.447859
0.607122
0.487625
0.280938
0.712522
0.72055
0.509
0.629087
0.260936
0.3008
0.313812
0.704346
0.283704
0.300359
0.309709
0.30291
0.374427
0.645662
0.715542
0.379875
0.297964
0.707263
0.560839
0.300376
0.510871
0.71117
0.706012
0.312424
0.708012
0.360024
0.714283
0.276718
0.555215
0.552308
0.56064
0.712703
0.55763
0.279641
0.425699
0.677274
0.559694
0.695793
0.55991
0.553824
0.713797
0.332401
0.711453
0.710806
0.563383
0.296112
0.325235
0.719579
0.712227
0.557248
0.71462
0.612675
0.701053
0.291143
0.289082
0.403103
0.25611
0.708423
0.710282
0.692415
0.284112
0.711722
0.288022
0.391346
0.718036
0.301642
0.715181
0.71261
0.559268
0.711598
0.281571
0.559265
0.708554
0.563992
0.710393
0.287859
0.285749
0.282459
0.644137
0.33079
0.353567
0.332362
0.33527
0.726171
0.238246
0.71384
0.71098
0.289957
0.291464
0.28799
0.428954
0.317489
0.679909
0.679528
0.712159
0.302385
0.704127
0.548903
0.283779
0.296712
0.680361
0.712043
0.705788
0.29276
0.697822
0.441033
0.718661
0.712924
0.712379
0.712924
0.281659
0.70739
0.277094
0.703819
0.711123
0.674108
0.296022
0.328504
0.710895
0.286476
0.730484
0.711105
0.406977
0.699001
0.710378
0.287591
0.711532
0.710113
0.266464
0.711632
0.381762
0.532609
0.715504
0.395187
0.692182
0.28519
0.710195
0.32714
0.574275
0.711544
0.710431
0.310076
0.354399
0.712988
0.301584
0.712422
0.710253
0.408509
0.559394
0.295514
0.329256
0.713152
0.516432
0.691569
0.285583
0.283439
0.711582
0.71099
0.302106
0.711418
0.27723
0.261158
0.710574
0.714909
0.546227
0.333188
0.710376
0.56016
0.702019
0.712056
0.711897
0.514237
0.330667
0.276496
0.297503
0.700727
0.29884
0.586719
0.404334
0.277786
0.348775
0.552742
0.120206
0.299444
0.715856
0.278748
0.711248
0.587744
0.718078
0.672024
0.711224
0.32697
0.286391
0.434763
0.327598
0.713519
0.616921
0.713523
0.587383
0.70746
0.641482
0.715476
0.668355
0.659942
0.712236
0.707081
0.698862
0.405868
0.502528
0.614836
0.325063
0.680168
0.599613
0.263897
0.708648
0.559648
0.283526
0.291048
0.299227
0.294093
0.613881
0.311251
0.279734
0.705345
0.286211
0.555893
0.313289
0.703047
0.71309
0.32059
0.347325
0.713681
0.425759
0.320612
0.292951
0.325613
0.301495
0.287012
0.292012
0.3493
0.396246
0.294872
0.704029
0.323708
0.713821
0.341557
0.275728
0.452294
0.275285
0.313723
0.275294
0.711606
0.406168
0.635267
0.551624
0.285915
0.632561
0.714462
0.39253
0.698438
0.646665
0.648895
0.287997
0.561416
0.383111
0.711619
0.559008
0.295646
0.256392
0.707673
0.324778
0.394019
0.71227
0.34676
0.689574
0.710889
0.292734
0.326012
0.303846
0.481719
0.29858
0.249046
0.308434
0.277739
0.711376
0.711049
0.434353
0.592302
0.443149
0.71413
0.364845
0.32035
0.551367
0.297026
0.718979
0.326438
0.364196
0.454497
0.716472
0.715545
0.525315
0.399867
0.255178
0.52407
0.713307
0.557267
0.520888
0.722144
0.709262
0.295446
0.712488
0.547902
0.676042
0.344642
0.318411
0.703449
0.710342
0.670026
0.711311
0.714651
0.715311
0.710349
0.673854
0.717626
0.31352
0.715586
0.318582
0.26098
0.30405
0.71092
0.720125
0.320003
0.713042
0.601126
0.29735
0.576773
0.711952
0.712264
0.311026
0.320918
0.712207
0.324628
0.322242
0.27022
0.296411
0.719714
0.25782
0.710597
0.322901
0.717022
0.712181
0.70837
0.711012
0.3259
0.294621
0.720318
0.714699
0.692417
0.711338
0.710763
0.441134
0.287873
0.300309
0.700762
0.537606
0.299734
0.425177
0.277899
0.714115
0.706551
0.340516
0.339233
0.713192
0.402123
0.717526
0.659101
0.298147
0.359954
0.690506
0.560538
0.288147
0.715573
0.715304
0.720226
0.319626
0.561355
0.292426
0.560295
0.67448
0.334459
0.372882
0.357002
0.560704
0.304091
0.284382
0.386152
0.627139
0.714252
0.284736
0.282198
0.302616
0.596753
0.332776
0.695999
0.276054
0.571449
0.711216
0.346263
0.283117
0.280503
0.443419
0.302014
0.715526
0.291876
0.321235
0.701085
0.282637
0.703971
0.728858
0.560561
0.316157
0.718723
0.710602
0.710316
0.702023
0.715807
0.710265
0.276919
0.560654
0.385285
0.720424
0.287423
0.713617
0.522735
0.295565
0.563671
0.712097
0.317497
0.665446
0.276643
0.320893
0.705028
0.711577
0.277602
0.275279
0.285364
0.276324
0.714773
0.709161
0.319036
0.293195
0.712456
0.710754
0.575153
0.710794
0.705449
0.290307
0.710517
0.397691
0.71226
0.391574
0.609546
0.433909
0.706449
0.69302
0.548406
0.360537
0.307679
0.70784
0.580586
0.605668
0.71092
0.275247
0.710891
0.710664
0.341104
0.502533
0.71062
0.402956
0.562864
0.678213
0.326975
0.711156
0.668816
0.319211
0.714154
0.28114
0.714243
0.311684
0.703903
0.718078
0.306884
0.64487
0.711216
0.712318
0.604481
0.716783
0.549992
0.362113
0.434683
0.276398
0.28275
0.559261
0.514783
0.709771
0.711957
0.309241
0.347247
0.717423
0.711362
0.713367
0.712841
0.291077
0.706697
0.710882
0.28992
0.26623
0.712359
0.719619
0.712738
0.272396
0.555311
0.322221
0.714003
0.728602
0.557326
0.722766
0.298309
0.720368
0.713929
0.710111
0.711778
0.703562
0.381499
0.712044
0.301488
0.703541
0.710904
0.419783
0.710724
0.556473
0.712167
0.462192
0.409033
0.554026
0.660604
0.323201
0.334303
0.301454
0.295776
0.716374
0.710641
0.5672
0.340448
0.293637
0.709346
0.6912
0.264861
0.362955
0.426826
0.698023
0.706707
0.712303
0.710794
0.301376
0.323639
0.559347
0.276124
0.300498
0.293018
0.704433
0.321064
0.326063
0.593092
0.720424
0.713761
0.68625
0.704967
0.280186
0.302729
0.301908
0.557442
0.406545
0.276836
0.690498
0.709575
0.725486
0.706515
0.273608
0.316685
0.711263
0.308407
0.70204
0.719462
0.561505
0.277625
0.326829
0.714468
0.563934
0.637101
0.261391
0.713657
0.694056
0.5907
0.712637
0.713129
0.559286
0.721717
0.291905
0.704669
0.562485
0.680346
0.713398
0.559373
0.714872
0.559977
0.710118
0.319845
0.321161
0.316351
0.561091
0.529419
0.309913
0.718019
0.712494
0.273368
0.66837
0.323465
0.678049
0.544671
0.297531
0.711276
0.708944
0.301397
0.505646
0.5605
0.289024
0.714525
0.281199
0.26057
0.639259
0.606076
0.451897
0.710377
0.300357
0.711466
0.3196
0.272014
0.703702
0.298758
0.624262
0.278052
0.670776
0.608894
0.560775
0.715264
0.283654
0.321165
0.696278
0.508003
0.713791
0.475429
0.617646
0.702694
0.710033
0.518488
0.594422
0.714448
0.710321
0.709363
0.329817
0.331418
0.499395
0.714588
0.710445
0.387853
0.707882
0.636825
0.427773
0.277595
0.675878
0.69748
0.559805
0.561237
0.712098
0.707431
0.653817
0.699523
0.278149
0.667205
0.424774
0.71169
0.720011
0.320994
0.715251
0.711464
0.328227
0.278702
0.287372
0.559344
0.288841
0.636926
0.712216
0.667524
0.260845
0.725195
0.280305
0.556983
0.600968
0.557941
0.688653
0.589172
0.622681
0.704527
0.552063
0.720828
0.310315
0.703097
0.707983
0.490767
0.559895
0.712424
0.284768
0.28116
0.293421
0.712343
0.333987
0.562503
0.301021
0.713497
0.260774
0.43465
0.277527
0.71161
0.71255
0.610666
0.25671
0.625983
0.667738
0.303476
0.577156
0.711017
0.276496
0.598525
0.563301
0.711124
0.702228
0.294414
0.538165
0.712548
0.717641
0.703778
0.328907
0.404603
0.715213
0.559437
0.560221
0.560126
0.597252
0.717778
0.592887
0.71102
0.328415
0.280219
0.56033
0.7116
0.638843
0.283824
0.704024
0.610667
0.638696
0.318299
0.379821
0.71139
0.711653
0.541549
0.331102
0.713541
0.560042
0.296229
0.608567
0.71066
0.298884
0.275656
0.283069
0.711637
0.339691
0.315049
0.711714
0.480878
0.71042
0.673352
0.296954
0.287729
0.711586
0.327583
0.313601
0.563525
0.266581
0.3698
0.602874
0.716094
0.718473
0.294537
0.328029
0.292085
0.728863
0.26089
0.718082
0.303157
0.718242
0.715075
0.712998
0.723436
0.720181
0.727561
0.706374
0.711106
0.714665
0.253488
0.302496
0.71831
0.670615
0.456304
0.711591
0.555431
0.633575
0.679693
0.319099
0.710312
0.711103
0.721808
0.299987
0.720031
0.320639
0.718858
0.443868
0.709247
0.702647
0.301598
0.71363
0.300512
0.458984
0.717301
0.295603
0.69239
0.559904
0.714075
0.29446
0.70521
0.296998
0.277202
0.277605
0.311167
0.683797
0.296885
0.683718
0.570863
0.330555
0.280072
0.436892
0.552647
0.650716
0.71045
0.316661
0.285302
0.298883
0.277355
0.244765
0.653423
0.71574
0.313747
0.587543
0.712328
0.27909
0.711116
0.689604
0.575015
0.297982
0.563124
0.71618
0.712194
0.712244
0.303034
0.71762
0.712228
0.719782
0.675204
0.701149
0.346145
0.277353
0.718573
0.493826
0.330024
0.703272
0.278485
0.534208
0.657694
0.714033
0.713738
0.276884
0.710854
0.403086
0.29925
0.701935
0.712353
0.711527
0.711186
0.687829
0.277585
0.710981
0.288024
0.454383
0.711099
0.559325
0.712814
0.296082
0.284469
0.710859
0.305991
0.712199
0.650221
0.406464
0.367008
0.710698
0.278128
0.70208
0.712186
0.692451
0.27805
0.322209
0.482678
0.549665
0.643894
0.460133
0.702321
0.712396
0.713614
0.559239
0.717243
0.272488
0.36902
0.71205
0.699208
0.699753
0.416977
0.28173
0.711287
0.294624
0.705978
0.599161
0.328778
0.714226
0.291364
0.715889
0.316299
0.711463
0.282082
0.719872
0.693351
0.273857
0.715038
0.66039
0.276444
0.557976
0.711918
0.559101
0.274303
0.384357
0.459439
0.710521
0.707353
0.318993
0.55142
0.715136
0.700465
0.254708
0.648684
0.725011
0.396356
0.702094
0.703889
0.302931
0.713574
0.564412
0.313462
0.624276
0.294105
0.680778
0.298176
0.257071
0.710328
0.316698
0.304269
0.286716
0.706659
0.725162
0.410818
0.715967
0.380761
0.706233
0.298113
0.723844
0.400075
0.703226
0.717755
0.688041
0.555191
0.508961
0.694206
0.586075
0.312063
0.637197
0.68854
0.573469
0.717933
0.443177
0.42429
0.711039
0.29988
0.556273
0.325078
0.711666
0.256941
0.278687
0.708866
0.705348
0.292995
0.711192
0.708884
0.559179
0.71288
0.56034
0.292838
0.711374
0.296022
0.285141
0.714752
0.711381
0.713275
0.713492
0.277419
0.2976
0.291902
0.719924
0.57468
0.382424
0.715854
0.282989
0.296322
0.317509
0.714318
0.389422
0.710965
0.714358
0.633969
0.711646
0.715814
0.601377
0.690093
0.39242
0.275536
0.293431
0.56042
0.560879
0.28265
0.654003
0.709967
0.688115
0.293879
0.468852
0.713237
0.292744
0.708728
0.67505
0.298668
0.665193
0.717374
0.313584
0.718896
0.310239
0.709728
0.710556
0.72028
0.290393
0.417489
0.691764
0.31252
0.386617
0.711442
0.329486
0.680497
0.708954
0.715193
0.708654
0.334602
0.561885
0.701635
0.716774
0.345371
0.711076
0.324516
0.274062
0.722774
0.706855
0.570695
0.238236
0.703512
0.632723
0.559236
0.284837
0.275833
0.32453
0.711459
0.295225
0.289386
0.319784
0.676188
0.305674
0.322774
0.396277
0.718162
0.304932
0.552792
0.646227
0.711238
0.294026
0.713212
0.668868
0.596285
0.382931
0.673207
0.306015
0.300974
0.704762
0.292394
0.658629
0.715094
0.560641
0.304808
0.331144
0.31451
0.521443
0.559745
0.246996
0.723304
0.706141
0.710083
0.300269
0.287212
0.331689
0.712231
0.306074
0.559445
0.587838
0.674468
0.715467
0.288499
0.664732
0.27716
0.694329
0.652958
0.711313
0.670435
0.576492
0.675539
0.701982
0.711811
0.296299
0.339559
0.286342
0.708816
0.540829
0.559294
0.303676
0.389192
0.71173
0.714037
0.560218
0.292778
0.711526
0.5191
0.525129
0.708313
0.300516
0.29314
0.309158
0.706861
0.581626
0.673148
0.713579
0.336839
0.714239
0.667843
0.578676
0.563364
0.713811
0.711123
0.697864
0.711841
0.711563
0.296292
0.71102
0.711273
0.703205
0.712024
0.707196
0.645247
0.297704
0.267053
0.685915
0.327696
0.332502
0.711981
0.318517
0.633961
0.709146
0.719101
0.721556
0.290116
0.71221
0.27733
0.28027
0.699297
0.718685
0.706394
0.292643
0.711511
0.712133
0.694745
0.705293
0.327701
0.702908
0.710902
0.715461
0.41898
0.710812
0.294766
0.710665
0.306512
0.299373
0.617201
0.420735
0.711244
0.711381
0.699654
0.318646
0.702122
0.414241
0.316521
0.716377
0.43706
0.322953
0.709127
0.27052
0.464406
0.686219
0.71739
0.714864
0.440064
0.56989
0.673848
0.6981
0.647993
0.711573
0.495309
0.713427
0.713326
0.665579
0.273582
0.286778
0.416771
0.711022
0.286238
0.67775
0.71146
0.622593
0.699267
0.598199
0.694301
0.70088
0.296177
0.710919
0.709412
0.583749
0.710194
0.710939
0.715581
0.686353
0.301066
0.318803
0.720131
0.547145
0.600622
0.710576
0.719431
0.713192
0.710414
0.710474
0.641737
0.713299
0.711296
0.295039
0.274623
0.264433
0.325425
0.56063
0.441076
0.59166
0.714922
0.704019
0.29022
0.721101
0.711066
0.291496
0.369007
0.563098
0.710427
0.302677
0.270449
0.271756
0.559361
0.715243
0.43395
0.276953
0.296589
0.254355
0.39743
0.331253
0.714457
0.717054
0.716921
0.297916
0.719952
0.640409
0.592232
0.3713
0.289721
0.716318
0.559728
0.31944
0.702611
0.311765
0.709649
0.296398
0.711525
0.292085
0.725507
0.711479
0.295257
0.527782
0.342813
0.71134
0.272027
0.645303
0.278556
0.507774
0.307546
0.641508
0.30384
0.55877
0.555406
0.592069
0.720309
0.374008
0.724605
0.676315
0.711542
0.636925
0.706749
0.290367
0.476015
0.284857
0.710173
0.299781
0.711579
0.517891
0.710994
0.711108
0.539161
0.712149
0.319615
0.279728
0.301854
0.501502
0.621284
0.720057
0.302584
0.34986
0.703216
0.349878
0.278181
0.645987
0.371347
0.323166
0.266914
0.713148
0.659973
0.648259
0.280738
0.723541
0.707412
0.274051
0.309647
0.713849
0.704467
0.691403
0.469352
0.369304
0.344423
0.298326
0.714648
0.688186
0.542498
0.700573
0.269885
0.590982
0.290483
0.561713
0.71139
0.292294
0.299428
0.693235
0.641452
0.711061
0.711648
0.710573
0.712032
0.711006
0.303964
0.327413
0.28633
0.288395
0.615895
0.560661
0.662099
0.290331
0.30769
0.475313
0.275521
0.715473
0.715417
0.306577
0.344147
0.708894
0.290983
0.673757
0.711663
0.729807
0.700691
0.613923
0.320754
0.2903
0.71238
0.293313
0.444571
0.408759
0.670883
0.710799
0.263406
0.299413
0.559542
0.303221
0.706623
0.710182
0.310609
0.329183
0.242704
0.709162
0.275937
0.559848
0.712559
0.62763
0.270944
0.490092
0.712156
0.724457
0.288986
0.726054
0.685159
0.27604
0.712318
0.712899
0.294121
0.323042
0.71483
0.30281
0.288014
0.724758
0.327316
0.71894
0.693355
0.70982
0.683022
0.71172
0.708253
0.687786
0.292201
0.374437
0.700682
0.719728
0.415119
0.711243
0.359315
0.709971
0.71376
0.574173
0.667372
0.472498
0.427515
0.720912
0.7123
0.712686
0.711649
0.706558
0.562467
0.713101
0.559282
0.715803
0.716292
0.713729
0.559838
0.693437
0.276311
0.715594
0.310724
0.710687
0.710684
0.711729
0.727556
0.707058
0.327908
0.305387
0.321562
0.287909
0.727497
0.290297
0.297876
0.707123
0.271796
0.711807
0.298553
0.725785
0.717265
0.316834
0.350801
0.329566
0.711142
0.286727
0.720094
0.713717
0.317821
0.716366
0.529917
0.337456
0.309116
0.273776
0.700938
0.325148
0.710912
0.595312
0.350049
0.708581
0.711635
0.7105
0.31175
0.597397
0.278402
0.720156
0.688973
0.709619
0.331498
0.719906
0.710533
0.712626
0.399979
0.710935
0.319119
0.295993
0.712364
0.43585
0.710799
0.471898
0.328892
0.40206
0.714615
0.305585
0.277244
0.314311
0.547257
0.563947
0.715129
0.272589
0.634893
0.708083
0.519525
0.489638
0.328496
0.532357
0.330003
0.292013
0.721051
0.297429
0.31095
0.712423
0.711266
0.291618
0.708856
0.31006
0.563059
0.314191
0.716163
0.559538
0.708248
0.644321
0.321316
0.292256
0.278141
0.70047
0.715753
0.56632
0.530827
0.345184
0.311797
0.700281
0.291112
0.718655
0.354304
0.560304
0.692626
0.291509
0.306251
0.297362
0.298668
0.308075
0.695299
0.724953
0.29279
0.712099
0.659233
0.358497
0.299727
0.711035
0.319622
0.717624
0.386062
0.709218
0.67245
0.713062
0.564227
0.31699
0.710545
0.710946
0.712977
0.318363
0.704696
0.579665
0.330854
0.711273
0.688906
0.713957
0.725896
0.710985
0.712858
0.712835
0.703751
0.713225
0.314799
0.71048
0.297652
0.486487
0.711501
0.278116
0.725633
0.716539
0.341276
0.712437
0.319474
0.276376
0.714174
0.711485
0.71132
0.297542
0.727301
0.621586
0.314294
0.29595
0.715726
0.706875
0.366204
0.319285
0.712161
0.711081
0.330809
0.663656
0.711174
0.661964
0.289425
0.316926
0.277993
0.672885
0.28557
0.725055
0.708144
0.700689
0.645779
0.716788
0.298441
0.714138
0.605531
0.711389
0.670935
0.278443
0.292608
0.244657
0.709888
0.713022
0.383058
0.670454
0.329242
0.690571
0.710421
0.266779
0.682538
0.72445
0.645024
0.29668
0.285896
0.326403
0.712183
0.710787
0.618764
0.469375
0.71539
0.316495
0.650246
0.559257
0.719859
0.296743
0.61758
0.345154
0.717845
0.256392
0.720558
0.714336
0.28031
0.712271
0.505331
0.560037
0.671553
0.559329
0.712219
0.426515
0.699058
0.711445
0.709936
0.72047
0.428603
0.559254
0.245108
0.712525
0.243676
0.299433
0.267992
0.306823
0.327446
0.294896
0.711272
0.347008
0.300037
0.683538
0.71226
0.725736
0.426614
0.705381
0.699436
0.697741
0.256268
0.664155
0.708201
0.327999
0.318759
0.292431
0.64858
0.460224
0.309672
0.647826
0.274124
0.560655
0.454224
0.277027
0.429884
0.667121
0.326334
0.706782
0.278965
0.565071
0.363732
0.714019
0.378352
0.685936
0.55926
0.705552
0.489652
0.295677
0.715179
0.711044
0.319106
0.277198
0.702224
0.297275
0.710801
0.298977
0.5288
0.245402
0.707945
0.328243
0.711233
0.297779
0.710649
0.714729
0.71211
0.56077
0.245368
0.280118
0.425523
0.715447
0.706424
0.713884
0.626564
0.350361
0.712218
0.328278
0.71541
0.711217
0.429823
0.36172
0.711491
0.720436
0.278647
0.560302
0.715004
0.711653
0.70993
0.279702
0.652174
0.302339
0.711797
0.275021
0.593577
0.71615
0.715988
0.71156
0.353707
0.711738
0.313967
0.296643
0.705968
0.561015
0.555853
0.720009
0.559899
0.316527
0.70877
0.71408
0.713119
0.277383
0.41183
0.699997
0.290148
0.710189
0.711927
0.725077
0.713575
0.289348
0.459764
0.662812
0.28024
0.712944
0.710888
0.480131
0.714525
0.263321
0.711779
0.708635
0.688707
0.714758
0.285038
0.281348
0.719894
0.726939
0.339898
0.375893
0.326318
0.283624
0.29289
0.275401
0.317139
0.328804
0.720009
0.255637
0.290224
0.712313
0.558897
0.560607
0.384275
0.302016
0.708807
0.46215
0.557015
0.710605
0.373101
0.670884
0.552641
0.599244
0.722884
0.28839
0.714612
0.61203
0.322025
0.294987
0.429483
0.714669
0.601223
0.710975
0.703087
0.719648
0.722698
0.345636
0.712814
0.647569
0.715983
0.29959
0.708839
0.69523
0.340723
0.408987
0.241736
0.277699
0.283167
0.604666
0.687706
0.718501
0.292893
0.354856
0.711398
0.273597
0.713209
0.713251
0.726282
0.688558
0.715417
0.327002
0.278202
0.274395
0.602434
0.27826
0.713576
0.272133
0.70503
0.702348
0.71104
0.324091
0.450115
0.419353
0.715818
0.319274
0.29169
0.712268
0.723666
0.671115
0.702943
0.715764
0.71097
0.328734
0.618108
0.711517
0.487168
0.717659
0.712487
0.711372
0.40128
0.38347
0.713091
0.450906
0.651181
0.303795
0.714644
0.717628
0.421083
0.288777
0.718298
0.490169
0.712188
0.713073
0.326471
0.291019
0.564589
0.484706
0.434995
0.71252
0.715558
0.341702
0.718074
0.561382
0.727684
0.332794
0.603056
0.323693
0.712645
0.711416
0.711202
0.716507
0.560521
0.333074
0.380953
0.719306
0.305259
0.593533
0.346444
0.712569
0.274711
0.671664
0.711592
0.56043
0.331791
0.559472
0.563586
0.28959
0.712896
0.272875
0.713133
0.32654
0.291021
0.274373
0.714043
0.710762
0.314554
0.322865
0.714972