# vtk DataFile Version 1.0
unstructured grid
ascii
DATASET UNSTRUCTURED_GRID
points 13672 float
0.0796578 -0.059106 0
0.00128732 0.00159165 0
0.00227961 -0.00102548 0
0.0791586 -0.0598787 0
-0.0546216 0.01 0
0.000495206 0.025 0
0.0800549 -0.035 0
0.135172 -0.08 0
-0.0546216 -0.0451168 0
0.000495206 -0.0301168 0
0.0800549 -0.0901168 0
0.135172 -0.135117 0
-0.0546216 -0.0451168 -0.00551168
0.000495206 -0.0301168 -0.00551168
0.0800549 -0.0901168 -0.00551168
0.135172 -0.135117 -0.00551168
0.135172 -0.08 -0.00551168
0.0800549 -0.035 -0.00551168
0.000495206 0.025 -0.00551168
-0.0546216 0.01 -0.00551168
0.00128732 0.00159165 -0.00551168
0.00227961 -0.00102548 -0.00551168
0.0791586 -0.0598787 -0.00551168
0.0796578 -0.059106 -0.00551168
0.00165953 -0.000990923 0
0.00119576 -0.000874076 0
0.000866021 -0.000641801 0
0.000645147 -0.000349912 0
0.00052235 -1.7281e-05 0
0.00049972 0.000348016 0
0.000601632 0.000737716 0
0.000861774 0.0011403 0
0.00157235 0.00183217 0
0.00188647 0.00206725 0
0.00222612 0.00230203 0
0.00258713 0.00254351 0
0.00296826 0.00279524 0
0.00337118 0.00305664 0
0.00379785 0.00332658 0
0.00425045 0.00360349 0
0.00473139 0.00388521 0
0.0052432 0.00416895 0
0.0057881 0.00445204 0
0.00636753 0.00473281 0
0.00698281 0.00500961 0
0.00763526 0.00528058 0
0.00832616 0.00554366 0
0.00905691 0.00579603 0
0.00982918 0.00603333 0
0.0106445 0.00625033 0
0.0115038 0.00644128 0
0.0124073 0.00660297 0
0.0133543 0.00673414 0
0.0143444 0.00683382 0
0.0153769 0.00690031 0
0.0164512 0.00693173 0
0.0175666 0.00692547 0
0.0187219 0.00687822 0
0.0199156 0.00678477 0
0.0211454 0.00663864 0
0.0224084 0.00643275 0
0.0237018 0.00616676 0
0.0250249 0.00584739 0
0.026375 0.00547298 0
0.0277479 0.00503752 0
0.0291386 0.00453545 0
0.0305433 0.0039653 0
0.0319572 0.0033256 0
0.0333681 0.00260019 0
0.034775 0.00179799 0
0.0361793 0.000930615 0
0.0375798 3.12222e-06 0
0.0389689 -0.000988429 0
0.0403357 -0.00205109 0
0.041675 -0.00318283 0
0.0429849 -0.00437751 0
0.0442643 -0.00562904 0
0.0455126 -0.00693089 0
0.0467314 -0.00827518 0
0.0479204 -0.00965638 0
0.0490661 -0.0110799 0
0.0501515 -0.0125519 0
0.0511696 -0.0140695 0
0.0521492 -0.0156071 0
0.0531202 -0.0171411 0
0.0540851 -0.0186663 0
0.0550431 -0.0201798 0
0.0559923 -0.0216793 0
0.0569311 -0.0231626 0
0.0578582 -0.0246273 0
0.0587723 -0.0260715 0
0.0596721 -0.027493 0
0.0605563 -0.02889 0
0.0614241 -0.0302609 0
0.0622742 -0.0316042 0
0.063106 -0.0329183 0
0.0639186 -0.034202 0
0.0647113 -0.0354543 0
0.0654835 -0.0366743 0
0.0662345 -0.0378613 0
0.0669642 -0.0390145 0
0.0676726 -0.0401333 0
0.0683597 -0.0412172 0
0.0690246 -0.0422665 0
0.0696662 -0.0432819 0
0.0702841 -0.0442636 0
0.0708793 -0.0452111 0
0.0714538 -0.0461237 0
0.072009 -0.047001 0
0.0725452 -0.0478434 0
0.0730611 -0.0486524 0
0.073556 -0.0494294 0
0.0740291 -0.0501756 0
0.0744812 -0.0508916 0
0.0749138 -0.0515773 0
0.0753285 -0.0522331 0
0.0757266 -0.0528592 0
0.076109 -0.0534564 0
0.0764753 -0.0540264 0
0.0768243 -0.054571 0
0.0771553 -0.0550919 0
0.0774679 -0.0555901 0
0.0777617 -0.0560669 0
0.0780369 -0.056523 0
0.0782958 -0.0569578 0
0.0785421 -0.0573703 0
0.0787786 -0.0577603 0
0.0790073 -0.0581279 0
0.0792295 -0.058474 0
0.0794462 -0.0587995 0
0.0798803 -0.0594162 0
0.0800272 -0.0596588 0
0.0800357 -0.0598891 0
0.0799275 -0.0600784 0
0.0797205 -0.0601773 0
0.0794593 -0.0601051 0
0.0789155 -0.0596491 0
0.0786707 -0.0593963 0
0.0784111 -0.0591319 0
0.0781372 -0.0588542 0
0.0778566 -0.0585548 0
0.0775715 -0.0582308 0
0.0772803 -0.0578828 0
0.0769832 -0.0575099 0
0.0766822 -0.0571097 0
0.0763801 -0.0566796 0
0.0760759 -0.0562196 0
0.0757623 -0.0557337 0
0.0754359 -0.0552232 0
0.0750951 -0.0546879 0
0.0747379 -0.054128 0
0.0743626 -0.0535435 0
0.0739688 -0.0529338 0
0.0735559 -0.0522981 0
0.0731238 -0.0516357 0
0.0726718 -0.050946 0
0.0721991 -0.0502288 0
0.0717046 -0.049484 0
0.0711872 -0.0487117 0
0.0706461 -0.047912 0
0.0700804 -0.0470849 0
0.0694892 -0.0462308 0
0.0688718 -0.0453499 0
0.0682271 -0.0444431 0
0.0675544 -0.043511 0
0.0668527 -0.0425546 0
0.0661215 -0.0415748 0
0.06536 -0.040573 0
0.0645676 -0.0395504 0
0.0637439 -0.0385087 0
0.0628887 -0.0374493 0
0.062002 -0.0363741 0
0.0610838 -0.0352847 0
0.0601345 -0.0341831 0
0.0591547 -0.033071 0
0.0581456 -0.0319502 0
0.0571083 -0.0308224 0
0.0560444 -0.0296893 0
0.0549562 -0.028552 0
0.053845 -0.0274126 0
0.0527113 -0.0262746 0
0.051554 -0.0251427 0
0.0503724 -0.0240222 0
0.0491675 -0.0229164 0
0.047941 -0.0218282 0
0.0466955 -0.0207597 0
0.0454337 -0.0197126 0
0.0441592 -0.0186878 0
0.0428751 -0.0176863 0
0.0415841 -0.0167097 0
0.0402878 -0.0157609 0
0.0389879 -0.0148428 0
0.0376864 -0.0139575 0
0.0363853 -0.013107 0
0.0350871 -0.0122931 0
0.0337942 -0.0115164 0
0.0325095 -0.0107772 0
0.0312357 -0.0100756 0
0.0299758 -0.00941024 0
0.0287337 -0.00877784 0
0.0275126 -0.00817571 0
0.0263139 -0.00760375 0
0.0251376 -0.00706528 0
0.0239829 -0.0065649 0
0.0228537 -0.00609619 0
0.0217522 -0.00565563 0
0.0206795 -0.00524226 0
0.0196364 -0.00485507 0
0.0186233 -0.00449318 0
0.0176408 -0.00415577 0
0.016689 -0.00384204 0
0.0157682 -0.00355115 0
0.0148783 -0.00328218 0
0.0140192 -0.00303468 0
0.0131906 -0.00280795 0
0.0123925 -0.00260016 0
0.0116246 -0.00241012 0
0.0108864 -0.00223769 0
0.0101774 -0.00208212 0
0.00949701 -0.00194206 0
0.00884483 -0.0018163 0
0.0082202 -0.0017039 0
0.00762247 -0.00160391 0
0.00705097 -0.00151528 0
0.006505 -0.00143697 0
0.0059838 -0.00136806 0
0.00548662 -0.00130772 0
0.00501265 -0.00125519 0
0.00456114 -0.00120954 0
0.00413136 -0.00116914 0
0.00372257 -0.00113251 0
0.00333398 -0.00109853 0
0.00296466 -0.00106798 0
0.00261363 -0.0010431 0
-0.052721 -0.0445996 0
-0.0508204 -0.0440823 0
-0.0489199 -0.0435651 0
-0.0470193 -0.0430478 0
-0.0451187 -0.0425306 0
-0.0432181 -0.0420134 0
-0.0413175 -0.0414961 0
-0.039417 -0.0409789 0
-0.0375164 -0.0404616 0
-0.0356158 -0.0399444 0
-0.0337152 -0.0394271 0
-0.0318146 -0.0389099 0
-0.0299141 -0.0383927 0
-0.0280135 -0.0378754 0
-0.0261129 -0.0373582 0
-0.0242123 -0.0368409 0
-0.0223117 -0.0363237 0
-0.0204112 -0.0358065 0
-0.0185106 -0.0352892 0
-0.01661 -0.034772 0
-0.0147094 -0.0342547 0
-0.0128088 -0.0337375 0
-0.0109083 -0.0332202 0
-0.00900769 -0.032703 0
-0.00710711 -0.0321858 0
-0.00520653 -0.0316685 0
-0.00330595 -0.0311513 0
-0.00140537 -0.030634 0
0.00190689 -0.0299614 0
0.00332271 -0.0298498 0
0.00474133 -0.0297825 0
0.00616136 -0.0297597 0
0.0075814 -0.0297814 0
0.00900007 -0.0298477 0
0.010416 -0.0299583 0
0.0118278 -0.0301127 0
0.0132342 -0.0303103 0
0.0146339 -0.0305504 0
0.0160259 -0.0308322 0
0.0174091 -0.0311546 0
0.0187824 -0.0315166 0
0.020145 -0.031917 0
0.0214961 -0.0323546 0
0.0228351 -0.032828 0
0.0241613 -0.0333361 0
0.0254744 -0.0338774 0
0.0267738 -0.0344507 0
0.0280592 -0.0350545 0
0.0293306 -0.0356877 0
0.0305875 -0.0363488 0
0.0318301 -0.0370367 0
0.0330581 -0.0377501 0
0.0342717 -0.0384879 0
0.0354708 -0.0392489 0
0.0366556 -0.0400321 0
0.0378262 -0.0408363 0
0.0389828 -0.0416607 0
0.0401254 -0.0425042 0
0.0412543 -0.0433659 0
0.0423698 -0.0442451 0
0.043472 -0.0451408 0
0.0445612 -0.0460523 0
0.0456375 -0.0469789 0
0.0467013 -0.0479199 0
0.0477529 -0.0488746 0
0.0487923 -0.0498424 0
0.04982 -0.0508227 0
0.0508362 -0.051815 0
0.051841 -0.0528187 0
0.0528348 -0.0538333 0
0.0538178 -0.0548584 0
0.0547903 -0.0558935 0
0.0557524 -0.0569382 0
0.0567045 -0.0579922 0
0.0576467 -0.0590549 0
0.0585792 -0.0601261 0
0.0595024 -0.0612055 0
0.0604163 -0.0622926 0
0.0613212 -0.0633873 0
0.0622174 -0.0644891 0
0.0631049 -0.0655979 0
0.0639841 -0.0667134 0
0.064855 -0.0678353 0
0.0657179 -0.0689633 0
0.0665729 -0.0700974 0
0.0674202 -0.0712372 0
0.06826 -0.0723826 0
0.0690925 -0.0735333 0
0.0699178 -0.0746892 0
0.070736 -0.0758501 0
0.0715473 -0.0770159 0
0.0723518 -0.0781863 0
0.0731498 -0.0793612 0
0.0739412 -0.0805405 0
0.0747264 -0.081724 0
0.0755053 -0.0829116 0
0.0762781 -0.0841033 0
0.0770449 -0.0852987 0
0.0778059 -0.0864979 0
0.0785611 -0.0877007 0
0.0793108 -0.088907 0
0.0814681 -0.0912706 0
0.0828814 -0.0924245 0
0.0842946 -0.0935783 0
0.0857079 -0.0947322 0
0.0871211 -0.095886 0
0.0885344 -0.0970399 0
0.0899476 -0.0981937 0
0.0913609 -0.0993476 0
0.0927741 -0.100501 0
0.0941874 -0.101655 0
0.0956006 -0.102809 0
0.0970139 -0.103963 0
0.0984272 -0.105117 0
0.0998404 -0.106271 0
0.101254 -0.107424 0
0.102667 -0.108578 0
0.10408 -0.109732 0
0.105493 -0.110886 0
0.106907 -0.11204 0
0.10832 -0.113194 0
0.109733 -0.114348 0
0.111146 -0.115501 0
0.11256 -0.116655 0
0.113973 -0.117809 0
0.115386 -0.118963 0
0.116799 -0.120117 0
0.118213 -0.121271 0
0.119626 -0.122424 0
0.121039 -0.123578 0
0.122452 -0.124732 0
0.123866 -0.125886 0
0.125279 -0.12704 0
0.126692 -0.128194 0
0.128105 -0.129348 0
0.129519 -0.130501 0
0.130932 -0.131655 0
0.132345 -0.132809 0
0.133758 -0.133963 0
0.135172 -0.133216 0
0.135172 -0.131316 0
0.135172 -0.129415 0
0.135172 -0.127514 0
0.135172 -0.125614 0
0.135172 -0.123713 0
0.135172 -0.121813 0
0.135172 -0.119912 0
0.135172 -0.118012 0
0.135172 -0.116111 0
0.135172 -0.11421 0
0.135172 -0.11231 0
0.135172 -0.110409 0
0.135172 -0.108509 0
0.135172 -0.106608 0
0.135172 -0.104708 0
0.135172 -0.102807 0
0.135172 -0.100906 0
0.135172 -0.0990058 0
0.135172 -0.0971052 0
0.135172 -0.0952046 0
0.135172 -0.0933041 0
0.135172 -0.0914035 0
0.135172 -0.0895029 0
0.135172 -0.0876023 0
0.135172 -0.0857017 0
0.135172 -0.0838012 0
0.135172 -0.0819006 0
0.133758 -0.0788462 0
0.132345 -0.0776923 0
0.130932 -0.0765385 0
0.129519 -0.0753846 0
0.128105 -0.0742308 0
0.126692 -0.0730769 0
0.125279 -0.0719231 0
0.123866 -0.0707692 0
0.122452 -0.0696154 0
0.121039 -0.0684615 0
0.119626 -0.0673077 0
0.118213 -0.0661538 0
0.116799 -0.065 0
0.115386 -0.0638462 0
0.113973 -0.0626923 0
0.11256 -0.0615385 0
0.111146 -0.0603846 0
0.109733 -0.0592308 0
0.10832 -0.0580769 0
0.106907 -0.0569231 0
0.105493 -0.0557692 0
0.10408 -0.0546154 0
0.102667 -0.0534615 0
0.101254 -0.0523077 0
0.0998404 -0.0511538 0
0.0984272 -0.05 0
0.0970139 -0.0488462 0
0.0956006 -0.0476923 0
[...]
CELL_DATA 13116
SCALARS rho float
LOOKUP_TABLE default
0.627244
0.732652
0.301497
0.711259
0.711495
0.701657
0.287186
0.713066
0.566825
0.711828
0.293691
0.278901
0.711466
0.272637
0.297858
0.701502
0.642074
0.710645
0.710606
0.296974
0.617801
0.311957
0.280091
0.710528
0.632226
0.712195
0.711785
0.299587
0.606327
0.677141
0.558467
0.274164
0.584185
0.489598
0.288598
0.623972
0.707199
0.71225
0.676057
0.711639
0.701158
0.712958
0.5187
0.298504
0.71193
0.711511
0.71611
0.7101
0.310315
0.542685
0.71151
0.516122
0.265507
0.635077
0.586342
0.614931
0.296805
0.710339
0.549378
0.293999
0.274595
0.711559
0.730437
0.66258
0.564947
0.288165
0.708109
0.705424
0.709236
0.558123
0.299917
0.590683
0.314434
0.289422
0.559475
0.303302
0.709381
0.71146
0.289705
0.710128
0.713021
0.712997
0.710644
0.712101
0.713524
0.429223
0.28555
0.696401
0.713298
0.313865
0.274454
0.732139
0.711247
0.713106
0.686806
0.636137
0.634714
0.562038
0.559704
0.611244
0.699562
0.699647
0.707408
0.436978
0.715833
0.271179
0.390911
0.555898
0.291181
0.620072
0.575765
0.714427
0.632762
0.712197
0.710285
0.708859
0.281442
0.427186
0.711303
0.710128
0.704253
0.31883
0.709434
0.273732
0.713675
0.461652
0.285068
0.51555
0.29176
0.539457
0.711318
0.714301
0.483884
0.306918
0.467253
0.660538
0.560926
0.710482
0.698169
0.710211
0.701135
0.716208
0.518521
0.703762
0.727088
0.266736
0.289896
0.712826
0.711594
0.711423
0.53289
0.712288
0.709503
0.304085
0.711276
0.712958
0.280702
0.703753
0.560391
0.695256
0.710365
0.292371
0.710912
0.283298
0.321173
0.711488
0.713515
0.71068
0.287888
0.451476
0.428563
0.559329
0.292252
0.50871
0.708626
0.278445
0.302518
0.313796
0.714574
0.695809
0.311673
0.448495
0.595172
0.705612
0.696848
0.553197
0.303931
0.709597
0.713884
0.480959
0.692285
0.712879
0.559566
0.278791
0.714128
0.699869
0.711148
0.710112
0.713534
0.366373
0.430227
0.629905
0.510686
0.284906
0.711814
0.720211
0.523167
0.642857
0.273963
0.30213
0.304369
0.706218
0.281269
0.308374
0.308025
0.3042
0.412122
0.661916
0.713722
0.412785
0.296407
0.707987
0.571406
0.31191
0.533999
0.711754
0.725804
0.299526
0.708424
0.397168
0.714177
0.274501
0.553969
0.57539
0.56193
0.712536
0.56959
0.292879
0.460489
0.692915
0.559221
0.698572
0.561611
0.56216
0.713161
0.303464
0.710485
0.71143
0.559706
0.295103
0.313425
0.716752
0.711117
0.552659
0.711999
0.624983
0.710378
0.2938
0.309946
0.360753
0.272706
0.712925
0.711158
0.709532
0.287976
0.71127
0.294766
0.427724
0.716292
0.302198
0.712648
0.711999
0.559295
0.710299
0.291704
0.559281
0.7127
0.559595
0.710416
0.291235
0.289894
0.279736
0.65914
0.317833
0.308899
0.370551
0.343465
0.71294
0.247331
0.712934
0.711518
0.298576
0.301759
0.294657
0.458899
0.312101
0.695832
0.695791
0.714956
0.302659
0.705222
0.570808
0.323378
0.295648
0.693515
0.710884
0.710269
0.30336
0.700567
0.476982
0.714436
0.712577
0.711179
0.71252
0.279741
0.708131
0.26589
0.706262
0.711582
0.688436
0.300896
0.364755
0.711518
0.292037
0.716425
0.711516
0.344293
0.709132
0.710602
0.293599
0.711384
0.711197
0.240987
0.711246
0.411668
0.55508
0.714665
0.427551
0.7046
0.288796
0.710288
0.363539
0.598987
0.705553
0.711127
0.297004
0.399204
0.713137
0.302483
0.711777
0.714409
0.445931
0.559378
0.306443
0.310457
0.712154
0.539499
0.70661
0.289404
0.282075
0.710506
0.711513
0.291178
0.711646
0.279637
0.269737
0.709989
0.714156
0.574353
0.332586
0.710449
0.556893
0.70123
0.711623
0.711217
0.536877
0.337404
0.271396
0.310458
0.701007
0.311459
0.596901
0.344892
0.277661
0.393693
0.581968
0.135975
0.303347
0.713228
0.276346
0.711077
0.610562
0.702453
0.687955
0.710662
0.310934
0.291125
0.370862
0.335583
0.712672
0.630303
0.701889
0.610103
0.726873
0.655388
0.713098
0.682167
0.675165
0.71169
0.710112
0.701255
0.362116
0.518894
0.625298
0.309987
0.692968
0.615717
0.271095
0.70855
0.559275
0.280467
0.297245
0.303068
0.305192
0.636496
0.286918
0.278914
0.707177
0.291644
0.578705
0.311615
0.704478
0.715096
0.318766
0.305398
0.712487
0.456299
0.318022
0.303967
0.32408
0.290447
0.292308
0.298396
0.317005
0.431664
0.297156
0.697156
0.327979
0.712985
0.352995
0.273243
0.478452
0.271055
0.310975
0.271618
0.71114
0.44066
0.655724
0.571372
0.291108
0.64618
0.713304
0.426919
0.708728
0.660823
0.66307
0.294468
0.560206
0.426873
0.710831
0.55893
0.286046
0.264006
0.713644
0.337685
0.426708
0.707632
0.391446
0.702909
0.730162
0.304298
0.301987
0.292045
0.505275
0.294387
0.228369
0.295277
0.263134
0.711468
0.711356
0.463558
0.61486
0.470612
0.714534
0.38718
0.293282
0.57088
0.286785
0.713703
0.350839
0.409031
0.479905
0.71175
0.713434
0.548683
0.344018
0.268719
0.546674
0.712813
0.568228
0.543055
0.716078
0.712601
0.298027
0.715462
0.570921
0.691566
0.349907
0.314167
0.712137
0.711263
0.685728
0.711894
0.714465
0.712756
0.710259
0.688921
0.701736
0.311833
0.711532
0.354843
0.279403
0.312082
0.711217
0.71861
0.36589
0.71348
0.623346
0.302356
0.608713
0.710791
0.712307
0.298442
0.294968
0.711102
0.322313
0.331465
0.272643
0.299113
0.716011
0.232759
0.710909
0.326548
0.731853
0.711125
0.708101
0.711474
0.323519
0.306086
0.717355
0.71465
0.707199
0.711452
0.711402
0.468475
0.294352
0.288811
0.702344
0.558669
0.304076
0.456038
0.277269
0.713206
0.7088
0.349449
0.313602
0.713378
0.434106
0.713068
0.674786
0.291048
0.398213
0.705429
0.559053
0.284526
0.713332
0.713443
0.71878
0.30043
0.559451
0.294398
0.562611
0.690118
0.33411
0.401085
0.311294
0.565279
0.292517
0.28658
0.431995
0.65779
0.713598
0.287371
0.304228
0.304537
0.632832
0.316063
0.698264
0.266974
0.593648
0.711798
0.354598
0.282816
0.281131
0.470175
0.290021
0.713067
0.303179
0.289713
0.704658
0.283519
0.705413
0.716361
0.56346
0.322922
0.71366
0.711171
0.71114
0.703104
0.714222
0.709728
0.274298
0.56455
0.418645
0.722164
0.291098
0.712942
0.542568
0.285365
0.563729
0.711475
0.29761
0.679564
0.274931
0.300332
0.706911
0.71104
0.276591
0.271072
0.288768
0.274187
0.71366
0.710618
0.300131
0.304788
0.711933
0.710461
0.597397
0.711152
0.708813
0.293174
0.711243
0.434073
0.71132
0.438943
0.625575
0.461525
0.70798
0.70739
0.571082
0.373912
0.294745
0.709283
0.602963
0.628706
0.711113
0.273105
0.713705
0.711235
0.371406
0.518629
0.711179
0.342
0.561586
0.693774
0.359276
0.710747
0.684423
0.31052
0.71355
0.279245
0.713979
0.303689
0.70532
0.72886
0.293628
0.666547
0.711005
0.71131
0.626589
0.71549
0.572641
0.3168
0.47509
0.276116
0.287338
0.55926
0.537827
0.709696
0.711585
0.314251
0.325436
0.714683
0.711878
0.712368
0.712184
0.296011
0.710215
0.711458
0.297306
0.267378
0.711304
0.716017
0.713562
0.273171
0.577444
0.319844
0.713429
0.716492
0.558521
0.730098
0.301934
0.719238
0.712892
0.71099
0.711344
0.701036
0.413795
0.711421
0.30271
0.720161
0.711609
0.451414
0.729757
0.571239
0.710912
0.46208
0.453817
0.576666
0.6763
0.321814
0.333858
0.303688
0.297938
0.729105
0.713876
0.578528
0.347797
0.295925
0.709092
0.703997
0.233627
0.326005
0.457629
0.711474
0.709686
0.711829
0.710156
0.30295
0.32276
0.559273
0.273513
0.309054
0.304512
0.707043
0.318017
0.323622
0.609829
0.720532
0.714638
0.696021
0.709336
0.283418
0.291519
0.30499
0.582443
0.440481
0.274606
0.705679
0.710022
0.71496
0.704517
0.273609
0.326647
0.711862
0.315156
0.700747
0.725613
0.559758
0.276489
0.325506
0.714677
0.558725
0.648474
0.233439
0.71306
0.699253
0.607408
0.711232
0.712371
0.559255
0.715423
0.29705
0.708603
0.555257
0.699361
0.713219
0.559334
0.714517
0.561035
0.710189
0.28895
0.301335
0.327065
0.558533
0.548256
0.315489
0.714868
0.711904
0.276486
0.682516
0.322335
0.691723
0.568289
0.304305
0.711777
0.71056
0.305523
0.528765
0.557494
0.289832
0.713402
0.284173
0.271137
0.652947
0.627161
0.478124
0.708272
0.304036
0.710936
0.303223
0.271348
0.704717
0.302867
0.637931
0.277187
0.684584
0.626083
0.559245
0.713329
0.278167
0.291535
0.712233
0.523458
0.712624
0.498925
0.630889
0.703049
0.710859
0.539747
0.61666
0.714561
0.711129
0.708665
0.368152
0.334754
0.522511
0.71436
0.711204
0.341918
0.709493
0.648505
0.369191
0.276342
0.69026
0.710909
0.561815
0.564803
0.705337
0.712776
0.677666
0.711164
0.276281
0.682603
0.455867
0.711054
0.714857
0.342331
0.713642
0.711637
0.302521
0.289843
0.293669
0.55945
0.292233
0.650525
0.712108
0.682783
0.329898
0.712782
0.281353
0.579068
0.631064
0.556468
0.704496
0.616079
0.640648
0.713027
0.569245
0.723618
0.30315
0.700306
0.707789
0.50097
0.562217
0.713668
0.280598
0.275018
0.2912
0.711088
0.333299
0.560199
0.306205
0.712994
0.265516
0.462248
0.274449
0.710734
0.711955
0.625558
0.28991
0.64285
0.679247
0.306688
0.598969
0.711352
0.274334
0.616765
0.559703
0.711733
0.701274
0.285159
0.555662
0.711898
0.706952
0.721765
0.327188
0.448118
0.712461
0.559489
0.559151
0.559352
0.608199
0.714188
0.60391
0.710833
0.326596
0.282985
0.559285
0.711588
0.669885
0.287657
0.701572
0.622361
0.652761
0.302096
0.417743
0.711651
0.711602
0.562799
0.337938
0.702963
0.562203
0.2883
0.629825
0.710491
0.289038
0.273732
0.270886
0.713926
0.316401
0.313373
0.711605
0.503257
0.711198
0.687309
0.286705
0.293797
0.71157
0.300218
0.286886
0.559035
0.268886
0.389176
0.620408
0.714339
0.713961
0.29669
0.328543
0.294254
0.716108
0.264801
0.713856
0.289931
0.714675
0.712906
0.711308
0.71692
0.718662
0.716572
0.709634
0.711509
0.712661
0.228778
0.30306
0.725071
0.688389
0.481601
0.714717
0.576308
0.66525
0.699861
0.316044
0.709685
0.71149
0.724629
0.295459
0.717677
0.318994
0.712312
0.470373
0.710094
0.703629
0.307396
0.712965
0.303546
0.487953
0.732263
0.304581
0.704861
0.559353
0.713386
0.305437
0.707243
0.29899
0.276441
0.277586
0.309018
0.704946
0.290903
0.699721
0.589265
0.338473
0.279125
0.464517
0.575425
0.664941
0.720438
0.321963
0.28982
0.290954
0.273685
0.277706
0.667636
0.714042
0.302678
0.614241
0.712392
0.270408
0.711467
0.702877
0.603008
0.298628
0.561497
0.715828
0.711519
0.711388
0.296588
0.714016
0.711502
0.716565
0.688703
0.699082
0.316293
0.277612
0.711764
0.516994
0.329103
0.70362
0.277115
0.556678
0.672104
0.714269
0.713733
0.275545
0.714649
0.359296
0.296231
0.709754
0.711341
0.711289
0.710504
0.703449
0.276693
0.711449
0.290685
0.479659
0.711487
0.559599
0.712104
0.295932
0.305631
0.711527
0.331173
0.711078
0.667956
0.442002
0.318836
0.710353
0.277397
0.703252
0.711134
0.707264
0.277479
0.302458
0.506293
0.565727
0.657942
0.485343
0.705081
0.718735
0.712699
0.559266
0.714449
0.278012
0.318967
0.71137
0.696676
0.7186
0.448415
0.28576
0.715926
0.287967
0.708884
0.621313
0.334711
0.713009
0.294356
0.713824
0.303101
0.711495
0.291817
0.714328
0.694748
0.275495
0.713559
0.675964
0.276801
0.563053
0.711891
0.579469
0.267566
0.339765
0.485302
0.711181
0.705503
0.3281
0.573333
0.713825
0.704152
0.332812
0.662959
0.71906
0.427015
0.704889
0.706372
0.350986
0.711556
0.559776
0.30083
0.637596
0.305725
0.694943
0.306542
0.278383
0.7113
0.313656
0.305393
0.277993
0.707879
0.71901
0.366652
0.702518
0.338143
0.718687
0.300021
0.726009
0.345967
0.703166
0.711276
0.703286
0.558862
0.531814
0.694675
0.610876
0.300326
0.656233
0.703305
0.60253
0.71469
0.470438
0.427683
0.711437
0.310621
0.578848
0.324492
0.703583
0.231176
0.278505
0.710704
0.7092
0.304239
0.710867
0.709938
0.559267
0.712131
0.565015
0.29789
0.711838
0.304811
0.282379
0.713402
0.710154
0.712878
0.713047
0.274656
0.305924
0.29319
0.732734
0.589444
0.336077
0.714503
0.286323
0.30667
0.303004
0.713202
0.435637
0.711511
0.712679
0.653806
0.711086
0.713059
0.61494
0.707014
0.427196
0.275706
0.30447
0.565015
0.564354
0.286237
0.668317
0.712775
0.70435
0.285061
0.47063
0.721024
0.318816
0.719294
0.694651
0.306315
0.67949
0.727895
0.321894
0.713875
0.284872
0.709518
0.711201
0.718814
0.285694
0.447325
0.704368
0.358994
0.416417
0.71089
0.36829
0.689148
0.708432
0.712712
0.709738
0.340672
0.565247
0.709653
0.70892
0.384272
0.710946
0.30493
0.262416
0.713784
0.709363
0.589731
0.257606
0.704663
0.653339
0.559436
0.289161
0.276371
0.321892
0.710688
0.289548
0.287444
0.30756
0.693986
0.288294
0.337061
0.430195
0.713716
0.313045
0.557035
0.668064
0.711138
0.305018
0.710489
0.68483
0.61939
0.420662
0.687024
0.29042
0.310179
0.707017
0.303224
0.672959
0.713861
0.559214
0.313733
0.365412
0.298183
0.543856
0.561241
0.264676
0.712038
0.707676
0.709693
0.301922
0.288763
0.368484
0.708808
0.308452
0.559368
0.61022
0.684424
0.712109
0.291779
0.679035
0.274485
0.683582
0.670287
0.711839
0.682565
0.606767
0.690852
0.720647
0.711523
0.307986
0.351079
0.293129
0.709955
0.56183
0.559483
0.312054
0.430713
0.710975
0.710723
0.553934
0.303497
0.711392
0.541643
0.548082
0.706595
0.28949
0.303153
0.353975
0.709033
0.607336
0.686509
0.714619
0.376701
0.71355
0.682571
0.601591
0.576389
0.713083
0.711554
0.700347
0.711253
0.71119
0.286296
0.710446
0.710531
0.704634
0.710845
0.709462
0.659212
0.303567
0.258325
0.705549
0.326224
0.339595
0.71194
0.299834
0.654881
0.708703
0.733338
0.723797
0.283064
0.711891
0.277534
0.282296
0.700636
0.714419
0.705321
0.303784
0.711562
0.705884
0.714135
0.70995
0.308855
0.702166
0.711578
0.725789
0.364463
0.710238
0.295927
0.71083
0.304736
0.30549
0.641109
0.452208
0.711756
0.710646
0.701235
0.305806
0.701224
0.367797
0.298936
0.71404
0.464747
0.320179
0.701949
0.28004
0.489397
0.701543
0.72129
0.714025
0.467536
0.591847
0.690579
0.701029
0.661271
0.711398
0.518371
0.713141
0.714454
0.681387
0.273706
0.290364
0.449046
0.710501
0.281181
0.693489
0.710997
0.636715
0.701882
0.611536
0.706199
0.711751
0.297609
0.710736
0.714301
0.614313
0.714857
0.711495
0.71321
0.698462
0.302674
0.294062
0.720154
0.567903
0.61091
0.710396
0.712983
0.705137
0.711298
0.711178
0.655842
0.715094
0.711775
0.28749
0.268165
0.234636
0.329562
0.559179
0.469063
0.601771
0.713205
0.712667
0.284016
0.723954
0.711224
0.302308
0.41326
0.560065
0.71044
0.290444
0.272184
0.272958
0.559302
0.712602
0.369708
0.27942
0.304598
0.262865
0.337281
0.330384
0.714204
0.710861
0.714908
0.308052
0.732794
0.653983
0.61421
0.323322
0.295785
0.713898
0.560257
0.316374
0.704167
0.319817
0.710376
0.286329
0.711494
0.302964
0.714713
0.711638
0.306213
0.550366
0.332262
0.71173
0.277503
0.659221
0.276111
0.529112
0.291508
0.65549
0.306969
0.557668
0.557993
0.614196
0.720037
0.326411
0.722778
0.686343
0.711647
0.650406
0.717651
0.296793
0.430426
0.289485
0.711208
0.330413
0.711647
0.540973
0.710045
0.711706
0.560643
0.711531
0.29985
0.281
0.292239
0.523132
0.647706
0.714303
0.303776
0.308312
0.70331
0.381276
0.276996
0.65881
0.415001
0.320178
0.260883
0.712907
0.675893
0.662234
0.283974
0.723813
0.70879
0.272981
0.350067
0.712894
0.707714
0.683821
0.494092
0.400189
0.382847
0.305005
0.713589
0.709096
0.5621
0.709552
0.280905
0.607343
0.293471
0.563972
0.71168
0.2991
0.324776
0.712631
0.654924
0.711553
0.711277
0.711113
0.711299
0.711476
0.304793
0.3115
0.29397
0.291837
0.627363
0.558314
0.677378
0.294529
0.317871
0.498097
0.27349
0.705054
0.722769
0.306184
0.349622
0.708464
0.285933
0.690629
0.711042
0.716139
0.703226
0.625437
0.330175
0.299534
0.710263
0.300225
0.479176
0.366607
0.689259
0.710261
0.335612
0.306693
0.559357
0.307346
0.708513
0.711243
0.321361
0.302788
0.25901
0.708435
0.278758
0.559422
0.713009
0.641193
0.269879
0.51319
0.711247
0.712978
0.287348
0.712485
0.703851
0.274168
0.711211
0.712805
0.295085
0.320882
0.714763
0.304049
0.291696
0.722232
0.362715
0.711587
0.705472
0.710924
0.699413
0.71162
0.708207
0.69314
0.291712
0.410583
0.719372
0.715683
0.445108
0.711651
0.356754
0.710007
0.713854
0.594531
0.683316
0.438177
0.458318
0.723126
0.711542
0.714428
0.711677
0.707055
0.559184
0.712206
0.559292
0.714213
0.713846
0.713002
0.560192
0.695491
0.275713
0.713126
0.298489
0.710283
0.710348
0.710593
0.716661
0.709773
0.29982
0.301247
0.367341
0.288767
0.716065
0.299522
0.298785
0.713285
0.273161
0.711542
0.304439
0.715538
0.713828
0.313856
0.383093
0.3363
0.71061
0.28984
0.715519
0.713104
0.298075
0.714094
0.552916
0.344274
0.296166
0.272564
0.709877
0.32347
0.710796
0.61241
0.327618
0.710761
0.700946
0.711144
0.318858
0.613154
0.27632
0.732971
0.697963
0.709133
0.330301
0.716671
0.710412
0.714825
0.443183
0.710545
0.325742
0.298328
0.712319
0.464876
0.711589
0.405647
0.327106
0.435656
0.714903
0.293633
0.275958
0.303579
0.56059
0.559557
0.713217
0.249814
0.648358
0.707283
0.541692
0.504618
0.333089
0.5555
0.329725
0.295237
0.711728
0.299715
0.312811
0.711003
0.71143
0.303493
0.710456
0.303858
0.559295
0.303215
0.713649
0.561489
0.709622
0.664961
0.305385
0.295104
0.277651
0.701816
0.714448
0.588261
0.552172
0.377972
0.343451
0.699184
0.292617
0.711494
0.39097
0.560296
0.706588
0.301529
0.297582
0.300399
0.305631
0.297313
0.714707
0.71841
0.303991
0.71047
0.674164
0.318265
0.29055
0.711351
0.316485
0.713604
0.421441
0.709668
0.688833
0.710406
0.561128
0.299513
0.711251
0.710445
0.712838
0.315513
0.709515
0.602035
0.338017
0.710478
0.704851
0.714137
0.71753
0.711476
0.712613
0.712362
0.70562
0.711501
0.314672
0.711171
0.30085
0.507003
0.710905
0.277543
0.714266
0.713265
0.311019
0.715052
0.316751
0.274815
0.713341
0.707337
0.711431
0.298673
0.715493
0.641878
0.304161
0.307616
0.713627
0.70881
0.408348
0.299636
0.712038
0.711346
0.329815
0.679237
0.711568
0.676832
0.297337
0.323565
0.27562
0.689058
0.294337
0.714028
0.709977
0.699893
0.6599
0.713469
0.29962
0.713528
0.627811
0.711625
0.681821
0.278486
0.290024
0.278986
0.710406
0.712495
0.418399
0.686725
0.329825
0.706006
0.70992
0.270282
0.701166
0.715203
0.659077
0.307572
0.28994
0.330835
0.711183
0.71157
0.639388
0.493866
0.711716
0.314046
0.665126
0.559352
0.716322
0.307281
0.639896
0.310695
0.715748
0.278637
0.72018
0.713344
0.284008
0.711162
0.520543
0.559484
0.686004
0.559346
0.711148
0.469914
0.698257
0.701293
0.709644
0.717922
0.457226
0.559333
0.236332
0.702235
0.274058
0.31151
0.28401
0.296823
0.326275
0.306901
0.711513
0.384835
0.291047
0.700795
0.711132
0.717547
0.371542
0.711256
0.709297
0.70135
0.232968
0.677818
0.708199
0.32265
0.300921
0.295114
0.662914
0.485259
0.320264
0.664078
0.273511
0.565427
0.479546
0.280733
0.458006
0.682976
0.332059
0.708795
0.282476
0.593026
0.40684
0.71319
0.422068
0.7013
0.559427
0.711824
0.500563
0.29989
0.713911
0.711395
0.302587
0.2764
0.703368
0.306433
0.710168
0.307829
0.552213
0.275089
0.708091
0.312356
0.711427
0.310191
0.710122
0.71231
0.711568
0.559624
0.240003
0.279376
0.368963
0.712962
0.713347
0.715104
0.652086
0.306805
0.711768
0.333351
0.714643
0.701615
0.406854
0.315604
0.711072
0.720543
0.275631
0.55907
0.713976
0.711206
0.710935
0.28345
0.667335
0.304902
0.711334
0.29232
0.623645
0.714359
0.714287
0.711557
0.324743
0.711871
0.311311
0.297799
0.708439
0.559525
0.576187
0.719633
0.559295
0.313502
0.71074
0.713133
0.712561
0.276471
0.446154
0.710698
0.299284
0.710301
0.711291
0.713964
0.71286
0.317213
0.485646
0.67848
0.282335
0.713737
0.711235
0.504192
0.713366
0.298825
0.712743
0.710657
0.702286
0.713286
0.288971
0.279695
0.714124
0.712666
0.307314
0.32926
0.309679
0.28369
0.288244
0.27539
0.311573
0.327682
0.714746
0.275477
0.298752
0.712452
0.57865
0.559311
0.42558
0.309944
0.707869
0.487671
0.578311
0.711309
0.417239
0.685905
0.5574
0.621689
0.730616
0.291473
0.71296
0.642648
0.296066
0.297379
0.436274
0.712143
0.623912
0.711503
0.701854
0.715433
0.730818
0.35234
0.711829
0.669529
0.713934
0.305275
0.708468
0.692845
0.349067
0.443133
0.25595
0.274805
0.275969
0.622733
0.702627
0.72344
0.296104
0.385404
0.711618
0.27537
0.713037
0.70155
0.713738
0.702114
0.710962
0.321215
0.275413
0.273843
0.615629
0.289011
0.709129
0.273165
0.707464
0.704796
0.710363
0.326844
0.478613
0.464036
0.712841
0.300072
0.294373
0.712206
0.728443
0.68487
0.70202
0.713531
0.710066
0.333063
0.640525
0.711544
0.510944
0.71346
0.712214
0.710509
0.432345
0.419174
0.712618
0.476952
0.665306
0.304737
0.730285
0.713613
0.36633
0.297586
0.733356
0.513762
0.711612
0.713012
0.325072
0.299147
0.560736
0.475381
0.378862
0.712566
0.713436
0.316461
0.712164
0.560858
0.716521
0.33518
0.622297
0.330664
0.711974
0.711692
0.710135
0.724868
0.565644
0.341355
0.334597
0.715503
0.306546
0.615557
0.32739
0.710489
0.263441
0.687884
0.711543
0.565629
0.330698
0.55939
0.559484
0.292721
0.730354
0.271476
0.712932
0.324207
0.300952
0.271417
0.716007
0.711
0.353758
0.362117
0.712572
0.711467