# vtk DataFile Version 1.0
unstructured grid
ascii
DATASET UNSTRUCTURED_GRID
points 13672 float
0.0796578 -0.059106 0
0.00128732 0.00159165 0
0.00227961 -0.00102548 0
0.0791586 -0.0598787 0
-0.0546216 0.01 0
0.000495206 0.025 0
0.0800549 -0.035 0
0.135172 -0.08 0
-0.0546216 -0.0451168 0
0.000495206 -0.0301168 0
0.0800549 -0.0901168 0
0.135172 -0.135117 0
-0.0546216 -0.0451168 -0.00551168
0.000495206 -0.0301168 -0.00551168
0.0800549 -0.0901168 -0.00551168
0.135172 -0.135117 -0.00551168
0.135172 -0.08 -0.00551168
0.0800549 -0.035 -0.00551168
0.000495206 0.025 -0.00551168
-0.0546216 0.01 -0.00551168
0.00128732 0.00159165 -0.00551168
0.00227961 -0.00102548 -0.00551168
0.0791586 -0.0598787 -0.00551168
0.0796578 -0.059106 -0.00551168
0.00165953 -0.000990923 0
0.00119576 -0.000874076 0
0.000866021 -0.000641801 0
0.000645147 -0.000349912 0
0.00052235 -1.7281e-05 0
0.00049972 0.000348016 0
0.000601632 0.000737716 0
0.000861774 0.0011403 0
0.00157235 0.00183217 0
0.00188647 0.00206725 0
0.00222612 0.00230203 0
0.00258713 0.00254351 0
0.00296826 0.00279524 0
0.00337118 0.00305664 0
0.00379785 0.00332658 0
0.00425045 0.00360349 0
0.00473139 0.00388521 0
0.0052432 0.00416895 0
0.0057881 0.00445204 0
0.00636753 0.00473281 0
0.00698281 0.00500961 0
0.00763526 0.00528058 0
0.00832616 0.00554366 0
0.00905691 0.00579603 0
0.00982918 0.00603333 0
0.0106445 0.00625033 0
0.0115038 0.00644128 0
0.0124073 0.00660297 0
0.0133543 0.00673414 0
0.0143444 0.00683382 0
0.0153769 0.00690031 0
0.0164512 0.00693173 0
0.0175666 0.00692547 0
0.0187219 0.00687822 0
0.0199156 0.00678477 0
0.0211454 0.00663864 0
0.0224084 0.00643275 0
0.0237018 0.00616676 0
0.0250249 0.00584739 0
0.026375 0.00547298 0
0.0277479 0.00503752 0
0.0291386 0.00453545 0
0.0305433 0.0039653 0
0.0319572 0.0033256 0
0.0333681 0.00260019 0
0.034775 0.00179799 0
0.0361793 0.000930615 0
0.0375798 3.12222e-06 0
0.0389689 -0.000988429 0
0.0403357 -0.00205109 0
0.041675 -0.00318283 0
0.0429849 -0.00437751 0
0.0442643 -0.00562904 0
0.0455126 -0.00693089 0
0.0467314 -0.00827518 0
0.0479204 -0.00965638 0
0.0490661 -0.0110799 0
0.0501515 -0.0125519 0
0.0511696 -0.0140695 0
0.0521492 -0.0156071 0
0.0531202 -0.0171411 0
0.0540851 -0.0186663 0
0.0550431 -0.0201798 0
0.0559923 -0.0216793 0
0.0569311 -0.0231626 0
0.0578582 -0.0246273 0
0.0587723 -0.0260715 0
0.0596721 -0.027493 0
0.0605563 -0.02889 0
0.0614241 -0.0302609 0
0.0622742 -0.0316042 0
0.063106 -0.0329183 0
0.0639186 -0.034202 0
0.0647113 -0.0354543 0
0.0654835 -0.0366743 0
0.0662345 -0.0378613 0
0.0669642 -0.0390145 0
0.0676726 -0.0401333 0
0.0683597 -0.0412172 0
0.0690246 -0.0422665 0
0.0696662 -0.0432819 0
0.0702841 -0.0442636 0
0.0708793 -0.0452111 0
0.0714538 -0.0461237 0
0.072009 -0.047001 0
0.0725452 -0.0478434 0
0.0730611 -0.0486524 0
0.073556 -0.0494294 0
0.0740291 -0.0501756 0
0.0744812 -0.0508916 0
0.0749138 -0.0515773 0
0.0753285 -0.0522331 0
0.0757266 -0.0528592 0
0.076109 -0.0534564 0
0.0764753 -0.0540264 0
0.0768243 -0.054571 0
0.0771553 -0.0550919 0
0.0774679 -0.0555901 0
0.0777617 -0.0560669 0
0.0780369 -0.056523 0
0.0782958 -0.0569578 0
0.0785421 -0.0573703 0
0.0787786 -0.0577603 0
0.0790073 -0.0581279 0
0.0792295 -0.058474 0
0.0794462 -0.0587995 0
0.0798803 -0.0594162 0
0.0800272 -0.0596588 0
0.0800357 -0.0598891 0
0.0799275 -0.0600784 0
0.0797205 -0.0601773 0
0.0794593 -0.0601051 0
0.0789155 -0.0596491 0
0.0786707 -0.0593963 0
0.0784111 -0.0591319 0
0.0781372 -0.0588542 0
0.0778566 -0.0585548 0
0.0775715 -0.0582308 0
0.0772803 -0.0578828 0
0.0769832 -0.0575099 0
0.0766822 -0.0571097 0
0.0763801 -0.0566796 0
0.0760759 -0.0562196 0
0.0757623 -0.0557337 0
0.0754359 -0.0552232 0
0.0750951 -0.0546879 0
0.0747379 -0.054128 0
0.0743626 -0.0535435 0
0.0739688 -0.0529338 0
0.0735559 -0.0522981 0
0.0731238 -0.0516357 0
0.0726718 -0.050946 0
0.0721991 -0.0502288 0
0.0717046 -0.049484 0
0.0711872 -0.0487117 0
0.0706461 -0.047912 0
0.0700804 -0.0470849 0
0.0694892 -0.0462308 0
0.0688718 -0.0453499 0
0.0682271 -0.0444431 0
0.0675544 -0.043511 0
0.0668527 -0.0425546 0
0.0661215 -0.0415748 0
0.06536 -0.040573 0
0.0645676 -0.0395504 0
0.0637439 -0.0385087 0
0.0628887 -0.0374493 0
0.062002 -0.0363741 0
0.0610838 -0.0352847 0
0.0601345 -0.0341831 0
0.0591547 -0.033071 0
0.0581456 -0.0319502 0
0.0571083 -0.0308224 0
0.0560444 -0.0296893 0
0.0549562 -0.028552 0
0.053845 -0.0274126 0
0.0527113 -0.0262746 0
0.051554 -0.0251427 0
0.0503724 -0.0240222 0
0.0491675 -0.0229164 0
0.047941 -0.0218282 0
0.0466955 -0.0207597 0
0.0454337 -0.0197126 0
0.0441592 -0.0186878 0
0.0428751 -0.0176863 0
0.0415841 -0.0167097 0
0.0402878 -0.0157609 0
0.0389879 -0.0148428 0
0.0376864 -0.0139575 0
0.0363853 -0.013107 0
0.0350871 -0.0122931 0
0.0337942 -0.0115164 0
0.0325095 -0.0107772 0
0.0312357 -0.0100756 0
0.0299758 -0.00941024 0
0.0287337 -0.00877784 0
0.0275126 -0.00817571 0
0.0263139 -0.00760375 0
0.0251376 -0.00706528 0
0.0239829 -0.0065649 0
0.0228537 -0.00609619 0
0.0217522 -0.00565563 0
0.0206795 -0.00524226 0
0.0196364 -0.00485507 0
0.0186233 -0.00449318 0
0.0176408 -0.00415577 0
0.016689 -0.00384204 0
0.0157682 -0.00355115 0
0.0148783 -0.00328218 0
0.0140192 -0.00303468 0
0.0131906 -0.00280795 0
0.0123925 -0.00260016 0
0.0116246 -0.00241012 0
0.0108864 -0.00223769 0
0.0101774 -0.00208212 0
0.00949701 -0.00194206 0
0.00884483 -0.0018163 0
0.0082202 -0.0017039 0
0.00762247 -0.00160391 0
0.00705097 -0.00151528 0
0.006505 -0.00143697 0
0.0059838 -0.00136806 0
0.00548662 -0.00130772 0
0.00501265 -0.00125519 0
0.00456114 -0.00120954 0
0.00413136 -0.00116914 0
0.00372257 -0.00113251 0
0.00333398 -0.00109853 0
0.00296466 -0.00106798 0
0.00261363 -0.0010431 0
-0.052721 -0.0445996 0
-0.0508204 -0.0440823 0
-0.0489199 -0.0435651 0
-0.0470193 -0.0430478 0
-0.0451187 -0.0425306 0
-0.0432181 -0.0420134 0
-0.0413175 -0.0414961 0
-0.039417 -0.0409789 0
-0.0375164 -0.0404616 0
-0.0356158 -0.0399444 0
-0.0337152 -0.0394271 0
-0.0318146 -0.0389099 0
-0.0299141 -0.0383927 0
-0.0280135 -0.0378754 0
-0.0261129 -0.0373582 0
-0.0242123 -0.0368409 0
-0.0223117 -0.0363237 0
-0.0204112 -0.0358065 0
-0.0185106 -0.0352892 0
-0.01661 -0.034772 0
-0.0147094 -0.0342547 0
-0.0128088 -0.0337375 0
-0.0109083 -0.0332202 0
-0.00900769 -0.032703 0
-0.00710711 -0.0321858 0
-0.00520653 -0.0316685 0
-0.00330595 -0.0311513 0
-0.00140537 -0.030634 0
0.00190689 -0.0299614 0
0.00332271 -0.0298498 0
0.00474133 -0.0297825 0
0.00616136 -0.0297597 0
0.0075814 -0.0297814 0
0.00900007 -0.0298477 0
0.010416 -0.0299583 0
0.0118278 -0.0301127 0
0.0132342 -0.0303103 0
0.0146339 -0.0305504 0
0.0160259 -0.0308322 0
0.0174091 -0.0311546 0
0.0187824 -0.0315166 0
0.020145 -0.031917 0
0.0214961 -0.0323546 0
0.0228351 -0.032828 0
0.0241613 -0.0333361 0
0.0254744 -0.0338774 0
0.0267738 -0.0344507 0
0.0280592 -0.0350545 0
0.0293306 -0.0356877 0
0.0305875 -0.0363488 0
0.0318301 -0.0370367 0
0.0330581 -0.0377501 0
0.0342717 -0.0384879 0
0.0354708 -0.0392489 0
0.0366556 -0.0400321 0
0.0378262 -0.0408363 0
0.0389828 -0.0416607 0
0.0401254 -0.0425042 0
0.0412543 -0.0433659 0
0.0423698 -0.0442451 0
0.043472 -0.0451408 0
0.0445612 -0.0460523 0
0.0456375 -0.0469789 0
0.0467013 -0.0479199 0
0.0477529 -0.0488746 0
0.0487923 -0.0498424 0
0.04982 -0.0508227 0
0.0508362 -0.051815 0
0.051841 -0.0528187 0
0.0528348 -0.0538333 0
0.0538178 -0.0548584 0
0.0547903 -0.0558935 0
0.0557524 -0.0569382 0
0.0567045 -0.0579922 0
0.0576467 -0.0590549 0
0.0585792 -0.0601261 0
0.0595024 -0.0612055 0
0.0604163 -0.0622926 0
0.0613212 -0.0633873 0
0.0622174 -0.0644891 0
0.0631049 -0.0655979 0
0.0639841 -0.0667134 0
0.064855 -0.0678353 0
0.0657179 -0.0689633 0
0.0665729 -0.0700974 0
0.0674202 -0.0712372 0
0.06826 -0.0723826 0
0.0690925 -0.0735333 0
0.0699178 -0.0746892 0
0.070736 -0.0758501 0
0.0715473 -0.0770159 0
0.0723518 -0.0781863 0
0.0731498 -0.0793612 0
0.0739412 -0.0805405 0
0.0747264 -0.081724 0
0.0755053 -0.0829116 0
0.0762781 -0.0841033 0
0.0770449 -0.0852987 0
0.0778059 -0.0864979 0
0.0785611 -0.0877007 0
0.0793108 -0.088907 0
0.0814681 -0.0912706 0
0.0828814 -0.0924245 0
0.0842946 -0.0935783 0
0.0857079 -0.0947322 0
0.0871211 -0.095886 0
0.0885344 -0.0970399 0
0.0899476 -0.0981937 0
0.0913609 -0.0993476 0
0.0927741 -0.100501 0
0.0941874 -0.101655 0
0.0956006 -0.102809 0
0.0970139 -0.103963 0
0.0984272 -0.105117 0
0.0998404 -0.106271 0
0.101254 -0.107424 0
0.102667 -0.108578 0
0.10408 -0.109732 0
0.105493 -0.110886 0
0.106907 -0.11204 0
0.10832 -0.113194 0
0.109733 -0.114348 0
0.111146 -0.115501 0
0.11256 -0.116655 0
0.113973 -0.117809 0
0.115386 -0.118963 0
0.116799 -0.120117 0
0.118213 -0.121271 0
0.119626 -0.122424 0
0.121039 -0.123578 0
0.122452 -0.124732 0
0.123866 -0.125886 0
0.125279 -0.12704 0
0.126692 -0.128194 0
0.128105 -0.129348 0
0.129519 -0.130501 0
0.130932 -0.131655 0
0.132345 -0.132809 0
0.133758 -0.133963 0
0.135172 -0.133216 0
0.135172 -0.131316 0
0.135172 -0.129415 0
0.135172 -0.127514 0
0.135172 -0.125614 0
0.135172 -0.123713 0
0.135172 -0.121813 0
0.135172 -0.119912 0
0.135172 -0.118012 0
0.135172 -0.116111 0
0.135172 -0.11421 0
0.135172 -0.11231 0
0.135172 -0.110409 0
0.135172 -0.108509 0
0.135172 -0.106608 0
0.135172 -0.104708 0
0.135172 -0.102807 0
0.135172 -0.100906 0
0.135172 -0.0990058 0
0.135172 -0.0971052 0
0.135172 -0.0952046 0
0.135172 -0.0933041 0
0.135172 -0.0914035 0
0.135172 -0.0895029 0
0.135172 -0.0876023 0
0.135172 -0.0857017 0
0.135172 -0.0838012 0
0.135172 -0.0819006 0
0.133758 -0.0788462 0
0.132345 -0.0776923 0
0.130932 -0.0765385 0
0.129519 -0.0753846 0
0.128105 -0.0742308 0
0.126692 -0.0730769 0
0.125279 -0.0719231 0
0.123866 -0.0707692 0
0.122452 -0.0696154 0
0.121039 -0.0684615 0
0.119626 -0.0673077 0
0.118213 -0.0661538 0
0.116799 -0.065 0
0.115386 -0.0638462 0
0.113973 -0.0626923 0
0.11256 -0.0615385 0
0.111146 -0.0603846 0
0.109733 -0.0592308 0
0.10832 -0.0580769 0
0.106907 -0.0569231 0
0.105493 -0.0557692 0
0.10408 -0.0546154 0
0.102667 -0.0534615 0
0.101254 -0.0523077 0
0.0998404 -0.0511538 0
0.0984272 -0.05 0
0.0970139 -0.0488462 0
0.0956006 -0.0476923 0
[...]
CELL_DATA 13116
SCALARS rho float
LOOKUP_TABLE default
0.5977
0.709636
0.460842
0.697546
0.700518
0.68881
0.350511
0.70176
0.5977
0.703595
0.336951
0.459522
0.700512
0.40617
0.426341
0.688871
0.5977
0.716045
0.689342
0.336285
0.5977
0.4662
0.432729
0.711071
0.5977
0.7025
0.703611
0.4778
0.5977
0.5977
0.68155
0.446803
0.5977
0.597697
0.355755
0.5977
0.603734
0.703484
0.689407
0.701526
0.689603
0.701147
0.5977
0.438169
0.688744
0.689342
0.702036
0.688626
0.454814
0.597702
0.699466
0.597699
0.374912
0.5977
0.5977
0.5977
0.435506
0.70818
0.597701
0.440476
0.408746
0.701337
0.707511
0.689373
0.687632
0.391978
0.698005
0.591588
0.69726
0.689082
0.425938
0.5977
0.470922
0.415227
0.569662
0.397608
0.680181
0.698604
0.338706
0.721061
0.686088
0.701417
0.710253
0.688775
0.703428
0.55077
0.361565
0.5977
0.702362
0.336242
0.454748
0.707901
0.709713
0.702591
0.5977
0.5977
0.5977
0.64838
0.62472
0.5977
0.5977
0.696053
0.689799
0.597296
0.698461
0.446322
0.523371
0.5977
0.456813
0.5977
0.5977
0.699891
0.5977
0.685891
0.719512
0.698763
0.379768
0.543344
0.696841
0.699492
0.595686
0.483479
0.696795
0.455254
0.70294
0.579126
0.366813
0.597677
0.448013
0.597704
0.697016
0.694755
0.583833
0.458872
0.575172
0.5977
0.557693
0.697977
0.5977
0.700012
0.597473
0.702406
0.597706
0.631374
0.712421
0.418871
0.353681
0.70106
0.700718
0.700718
0.597707
0.688616
0.688758
0.365212
0.70261
0.702922
0.441072
0.597699
0.655938
0.597699
0.711615
0.337007
0.706729
0.442108
0.489381
0.699864
0.702846
0.717013
0.353789
0.56403
0.548604
0.557728
0.423065
0.597703
0.699047
0.432485
0.439949
0.469718
0.699353
0.689561
0.336319
0.565004
0.5977
0.589213
0.689479
0.5977
0.364777
0.689548
0.696092
0.592655
0.597232
0.700664
0.689457
0.452524
0.699122
0.689711
0.706334
0.689196
0.702448
0.597576
0.597684
0.5977
0.597519
0.418056
0.698866
0.68917
0.597699
0.5977
0.430872
0.336161
0.394827
0.689374
0.446101
0.336485
0.336231
0.369405
0.536664
0.689527
0.70307
0.545727
0.429192
0.696177
0.5977
0.336343
0.597706
0.702006
0.711847
0.478677
0.699375
0.533648
0.701485
0.447629
0.689875
0.5977
0.598499
0.701922
0.689442
0.46167
0.577984
0.5977
0.56506
0.689675
0.557779
0.689616
0.701697
0.444526
0.698524
0.702047
0.627315
0.343514
0.458412
0.689186
0.696583
0.689456
0.695268
0.5977
0.672575
0.336298
0.475719
0.56843
0.428674
0.697439
0.706467
0.679797
0.347619
0.702444
0.376375
0.548055
0.698694
0.343322
0.702067
0.700108
0.550451
0.708038
0.45933
0.554873
0.693097
0.646184
0.697427
0.336677
0.354606
0.451619
0.5977
0.479614
0.473353
0.513995
0.501436
0.707086
0.382285
0.70285
0.699821
0.355418
0.336211
0.371823
0.574341
0.488552
0.5977
0.590956
0.700221
0.341037
0.689356
0.5977
0.480108
0.439663
0.689318
0.696404
0.689564
0.369037
0.689739
0.594824
0.694447
0.700695
0.700135
0.70084
0.453803
0.698335
0.407005
0.689169
0.702131
0.5977
0.336159
0.512262
0.70191
0.372171
0.703481
0.701172
0.551679
0.5889
0.710459
0.362475
0.702791
0.709874
0.404345
0.697444
0.549156
0.597702
0.704562
0.551327
0.597699
0.347405
0.711713
0.517145
0.689579
0.695656
0.705734
0.474635
0.525682
0.703122
0.362229
0.698083
0.697215
0.562049
0.557911
0.362353
0.452497
0.696231
0.597706
0.589745
0.359368
0.442742
0.698693
0.699884
0.349304
0.699438
0.39125
0.451092
0.699796
0.703931
0.5977
0.336322
0.696903
0.685402
0.689069
0.702278
0.702626
0.597707
0.547702
0.421046
0.336349
0.689209
0.336343
0.5977
0.550843
0.453602
0.522149
0.5977
0.416244
0.358021
0.704181
0.460304
0.705981
0.5977
0.689294
0.5977
0.698897
0.456075
0.352608
0.597647
0.532487
0.696726
0.5977
0.689904
0.5977
0.710379
0.5977
0.700969
0.597702
0.5977
0.700367
0.724892
0.688905
0.572427
0.597703
0.5977
0.457935
0.591589
0.5977
0.373175
0.699256
0.548696
0.45484
0.336252
0.336279
0.35723
0.5977
0.39116
0.451978
0.688677
0.391763
0.5977
0.336363
0.68937
0.68918
0.499364
0.459184
0.696067
0.571272
0.336277
0.356662
0.336269
0.456741
0.352992
0.336292
0.480839
0.5507
0.336152
0.694423
0.51417
0.702836
0.586892
0.455923
0.577022
0.422534
0.336293
0.424219
0.70169
0.55743
0.5977
0.5977
0.38691
0.5977
0.702403
0.549286
0.589536
0.5977
0.5977
0.351743
0.619649
0.543848
0.704589
0.664088
0.456252
0.380381
0.696069
0.538456
0.550499
0.69478
0.522597
0.597699
0.713533
0.336202
0.435729
0.411568
0.597692
0.435939
0.393073
0.422832
0.404569
0.698989
0.700273
0.577403
0.5977
0.577858
0.698784
0.527722
0.385275
0.5977
0.457468
0.693778
0.499454
0.531657
0.581688
0.689647
0.702788
0.597704
0.55216
0.376129
0.597706
0.701455
0.6893
0.597706
0.700807
0.697359
0.336308
0.689224
0.5977
0.5977
0.510426
0.488929
0.686227
0.705587
0.5977
0.702112
0.702281
0.703397
0.711655
0.5977
0.689474
0.336418
0.693152
0.520814
0.43746
0.336525
0.698607
0.689201
0.5069
0.703034
0.5977
0.336105
0.68941
0.69592
0.700349
0.476263
0.38088
0.697966
0.336394
0.336321
0.432189
0.336375
0.689277
0.399188
0.697426
0.509038
0.707921
0.699727
0.694088
0.700203
0.336369
0.336324
0.689304
0.701237
0.656524
0.69918
0.702335
0.570405
0.358632
0.460951
0.689564
0.597699
0.336166
0.570092
0.453703
0.704067
0.689783
0.508933
0.471072
0.702779
0.553842
0.704917
0.5977
0.444159
0.53294
0.64307
0.552318
0.444423
0.702674
0.702748
0.689512
0.385976
0.557545
0.426804
0.581569
0.5977
0.336319
0.534757
0.475048
0.601028
0.459087
0.345999
0.546417
0.68962
0.696375
0.343654
0.472195
0.336448
0.689372
0.475504
0.689685
0.416511
0.5977
0.702056
0.586694
0.439662
0.435047
0.571442
0.462626
0.702808
0.377515
0.397753
0.689674
0.395385
0.689444
0.703291
0.630516
0.336077
0.694453
0.706287
0.70673
0.689498
0.704199
0.699171
0.433986
0.68932
0.547463
0.68904
0.337172
0.701302
0.597699
0.360064
0.68661
0.701522
0.367279
0.5977
0.45376
0.422373
0.688857
0.701875
0.455063
0.4244
0.340593
0.435068
0.704149
0.711132
0.381939
0.336976
0.698011
0.698755
0.5977
0.706061
0.688557
0.336464
0.705186
0.552135
0.699488
0.551403
0.5977
0.569393
0.694308
0.605378
0.5977
0.523723
0.470147
0.689602
0.5977
0.5977
0.706145
0.422426
0.692809
0.702524
0.537114
0.597701
0.706241
0.545246
0.68946
0.5977
0.510922
0.700152
0.5977
0.461749
0.69696
0.450705
0.701999
0.417531
0.689445
0.706598
0.469429
0.689256
0.706486
0.69847
0.5977
0.690489
0.5977
0.499462
0.591094
0.452899
0.412581
0.557715
0.597706
0.696643
0.700444
0.336205
0.503168
0.695964
0.701403
0.696299
0.700502
0.336258
0.728318
0.701596
0.336208
0.44817
0.696912
0.689078
0.702654
0.441157
0.5977
0.501586
0.697309
0.702193
0.689514
0.70351
0.336302
0.688688
0.70277
0.709374
0.702338
0.689127
0.546859
0.701526
0.336141
0.703335
0.702757
0.564373
0.713703
0.689405
0.699659
0.597716
0.569676
0.5977
0.5977
0.336427
0.336292
0.346445
0.336159
0.691854
0.690707
0.689363
0.50454
0.335887
0.697281
0.597701
0.401443
0.505459
0.569276
0.681772
0.688873
0.702439
0.705544
0.336274
0.336412
0.557896
0.455087
0.336415
0.381834
0.689549
0.498744
0.336198
0.5977
0.688909
0.699201
0.689194
0.689748
0.381713
0.407808
0.342904
0.5977
0.557519
0.449774
0.590246
0.706094
0.703379
0.689277
0.444483
0.336273
0.702524
0.336278
0.689097
0.705487
0.671384
0.45479
0.33621
0.702617
0.68443
0.5977
0.401366
0.703395
0.68924
0.5977
0.700225
0.700782
0.557874
0.700878
0.336296
0.689729
0.688402
0.590821
0.697247
0.55787
0.700373
0.558193
0.696422
0.395684
0.41901
0.336302
0.685899
0.597699
0.336257
0.695603
0.698381
0.458336
0.5977
0.505707
0.597608
0.5977
0.459657
0.701246
0.710947
0.336212
0.597432
0.685709
0.432415
0.702759
0.398958
0.443897
0.5977
0.5977
0.577037
0.689861
0.350601
0.706079
0.432242
0.449322
0.689456
0.336209
0.5977
0.452591
0.597703
0.5977
0.556404
0.702763
0.420672
0.402034
0.701193
0.5977
0.696262
0.597714
0.5977
0.688834
0.709607
0.5977
0.5977
0.699097
0.70632
0.697804
0.519497
0.336271
0.596836
0.699119
0.705805
0.547526
0.689662
0.5977
0.596901
0.45407
0.5977
0.67944
0.557607
0.594491
0.69658
0.690603
0.689429
0.684771
0.448007
0.5977
0.568656
0.700845
0.689028
0.501005
0.705369
0.699602
0.426969
0.45249
0.369895
0.557838
0.336888
0.5977
0.700678
0.5977
0.489031
0.705932
0.416376
0.5977
0.689165
0.689439
0.593388
0.689487
0.5977
0.685465
0.5977
0.688896
0.420327
0.689484
0.690737
0.5977
0.560276
0.695078
0.453187
0.423059
0.436228
0.7
0.336236
0.55279
0.34301
0.70174
0.382956
0.56938
0.432915
0.704455
0.699694
0.5977
0.490425
0.5977
0.689533
0.336163
0.5977
0.700429
0.449383
0.5977
0.661897
0.702185
0.689105
0.456946
0.5977
0.697424
0.689317
0.70559
0.336297
0.565261
0.70451
0.557806
0.558392
0.557731
0.5977
0.694905
0.5977
0.701183
0.336271
0.418949
0.55762
0.700424
0.689613
0.397355
0.689391
0.5977
0.5977
0.416872
0.542275
0.699593
0.697588
0.597699
0.542954
0.6894
0.55448
0.348618
0.5977
0.703198
0.349703
0.455704
0.409321
0.697871
0.478413
0.336417
0.702589
0.597713
0.705606
0.597703
0.355758
0.355866
0.699144
0.420907
0.391732
0.68223
0.461252
0.531325
0.5977
0.704374
0.694626
0.335906
0.519926
0.338077
0.703632
0.449024
0.694745
0.393644
0.695295
0.703812
0.697042
0.70045
0.689229
0.701637
0.689151
0.699985
0.695223
0.395477
0.336872
0.688077
0.689065
0.577868
0.698649
0.5977
0.689083
0.592048
0.495794
0.698755
0.701179
0.687788
0.346925
0.688718
0.487778
0.690058
0.571222
0.714652
0.689455
0.461163
0.696446
0.336447
0.597674
0.709011
0.38642
0.597703
0.5576
0.70336
0.360797
0.688844
0.336061
0.454788
0.45378
0.336208
0.670704
0.426638
0.590961
0.689638
0.54298
0.4533
0.569125
0.5977
0.5977
0.702778
0.336067
0.378203
0.346476
0.431068
0.488305
0.5977
0.700689
0.481786
0.689114
0.699864
0.406439
0.700884
0.597699
0.689584
0.339433
0.565592
0.689869
0.700579
0.701153
0.435616
0.694854
0.701094
0.689188
0.5977
0.689083
0.475639
0.453694
0.688776
0.595308
0.336317
0.689479
0.441978
0.597701
0.5977
0.702007
0.702301
0.453541
0.698153
0.568564
0.347031
0.658936
0.698532
0.702525
0.69856
0.589311
0.455151
0.700758
0.437937
0.576789
0.699909
0.609941
0.696994
0.343591
0.476297
0.702255
0.48466
0.697591
0.5977
0.559046
0.496591
0.700715
0.451223
0.689439
0.697351
0.663023
0.451775
0.422819
0.596711
0.5977
0.5977
0.593257
0.689605
0.702449
0.702791
0.557745
0.69575
0.363165
0.493294
0.698418
0.689181
0.707677
0.561778
0.413836
0.68895
0.419186
0.68864
0.5977
0.53967
0.696159
0.335897
0.703881
0.462436
0.701621
0.455486
0.690441
0.689582
0.457352
0.702956
0.5977
0.460506
0.689559
0.689303
0.5977
0.419391
0.54278
0.595147
0.706132
0.695547
0.510808
0.5977
0.696137
0.689649
0.490209
0.5977
0.708119
0.552693
0.689612
0.689189
0.499342
0.695278
0.65628
0.454836
0.5977
0.349625
0.594764
0.355589
0.445141
0.706026
0.336381
0.336417
0.416557
0.693572
0.705938
0.579776
0.689437
0.53761
0.688237
0.336114
0.708709
0.551507
0.688816
0.688764
0.61679
0.689595
0.597641
0.689648
0.689637
0.47609
0.5977
0.607066
0.5977
0.695623
0.571985
0.588956
0.700648
0.336271
0.5977
0.509576
0.689921
0.393937
0.451538
0.711216
0.68947
0.336207
0.700807
0.706525
0.557886
0.700263
0.589376
0.336276
0.700758
0.336373
0.444904
0.702593
0.705843
0.701347
0.702845
0.443753
0.360026
0.339676
0.710447
0.689618
0.539206
0.70444
0.390537
0.360281
0.402913
0.702666
0.549161
0.701084
0.695547
0.5977
0.702183
0.695109
0.5977
0.668393
0.548648
0.459211
0.336272
0.575168
0.552238
0.401193
0.5977
0.696517
0.637396
0.455517
0.597715
0.703565
0.486729
0.701408
0.594817
0.336441
0.689125
0.689427
0.336214
0.694131
0.387645
0.696687
0.704744
0.689135
0.422514
0.559942
0.597705
0.503819
0.551145
0.701375
0.50864
0.689338
0.698193
0.70163
0.708941
0.558012
0.684485
0.652789
0.689358
0.525715
0.699161
0.444398
0.413556
0.7052
0.688792
0.689079
0.460914
0.689391
0.5977
0.563523
0.382765
0.389611
0.336333
0.699347
0.345485
0.395256
0.456202
0.594611
0.392306
0.499876
0.550757
0.694839
0.336474
0.689124
0.689473
0.700962
0.365206
0.69578
0.5977
0.689288
0.543883
0.5977
0.35684
0.336244
0.688973
0.336193
0.5977
0.696548
0.557421
0.336484
0.513091
0.363574
0.597706
0.557707
0.462454
0.698556
0.690857
0.710319
0.336203
0.434775
0.518393
0.69655
0.336284
0.557727
0.5977
0.689558
0.704825
0.33635
0.5977
0.435753
0.688802
0.5977
0.701821
0.597705
0.5977
0.5977
0.707454
0.698853
0.34184
0.576945
0.398993
0.715182
0.597699
0.623714
0.336528
0.548127
0.703775
0.695736
0.689075
0.336272
0.701478
0.597706
0.597705
0.696164
0.458896
0.336306
0.500581
0.689394
0.689226
0.5977
0.698638
0.516824
0.70328
0.5977
0.689224
0.689092
0.703004
0.701239
0.689606
0.701732
0.702795
0.458218
0.695591
0.698628
0.689338
0.695598
0.688512
0.5977
0.336182
0.455114
0.658502
0.336457
0.551479
0.7015
0.41232
0.5977
0.696357
0.710839
0.68752
0.456056
0.701597
0.454828
0.409245
0.689617
0.694371
0.689258
0.372922
0.698973
0.689864
0.706049
0.689702
0.456395
0.689168
0.70246
0.688097
0.588881
0.710997
0.336257
0.696107
0.393906
0.336179
0.5977
0.566406
0.701388
0.707733
0.689078
0.44951
0.689068
0.584042
0.417327
0.702279
0.568326
0.336263
0.689672
0.465585
0.581623
0.597695
0.702643
0.702235
0.57036
0.5977
0.5977
0.689297
0.5977
0.702466
0.595923
0.698995
0.698585
0.5977
0.44062
0.338109
0.563753
0.698605
0.453
0.5977
0.700988
0.5977
0.689354
0.5977
0.597447
0.684987
0.33985
0.700805
0.696543
0.5977
0.697081
0.701416
0.702794
0.689852
0.336224
0.4052
0.688411
0.5977
0.5977
0.69842
0.689272
0.689389
0.705542
0.705064
0.5977
0.700812
0.702304
0.407329
0.465203
0.397778
0.523304
0.555082
0.582442
0.5977
0.695766
0.686428
0.449458
0.688058
0.696622
0.37809
0.534612
0.552336
0.696497
0.463586
0.443922
0.433017
0.557828
0.702903
0.597731
0.362384
0.336396
0.456515
0.534524
0.336359
0.702452
0.688719
0.693803
0.343352
0.710737
0.5977
0.5977
0.506586
0.33622
0.701977
0.55868
0.336267
0.689349
0.336271
0.710864
0.457469
0.701222
0.344906
0.703428
0.69955
0.359936
0.597704
0.487284
0.700739
0.462124
0.5977
0.438468
0.597707
0.355212
0.5977
0.336169
0.689318
0.689313
0.5977
0.689369
0.511116
0.707913
0.68939
0.699214
0.5977
0.688325
0.33623
0.597705
0.399457
0.709347
0.498031
0.699764
0.597706
0.706179
0.702119
0.5977
0.700708
0.418787
0.404988
0.406563
0.597709
0.5977
0.6889
0.339809
0.468023
0.689441
0.537279
0.449919
0.5977
0.535113
0.336223
0.453122
0.700909
0.5977
0.5977
0.427835
0.707094
0.692878
0.451233
0.517198
0.70281
0.689685
0.671147
0.584738
0.544683
0.526087
0.361042
0.704244
0.698198
0.5977
0.640614
0.435735
0.5977
0.335912
0.689086
0.699364
0.336302
0.4816
0.706648
0.5977
0.699652
0.702726
0.706228
0.701277
0.7002
0.375488
0.462913
0.403677
0.336404
0.5977
0.671859
0.5977
0.336112
0.336036
0.597714
0.454191
0.689365
0.703432
0.336238
0.50789
0.696303
0.445097
0.5977
0.704628
0.703573
0.689319
0.5977
0.336272
0.351543
0.698896
0.336317
0.595321
0.577379
0.689813
0.70042
0.493165
0.336472
0.557673
0.336205
0.695555
0.709738
0.33632
0.42936
0.379924
0.692369
0.382523
0.557634
0.697089
0.5977
0.449103
0.594297
0.698301
0.70564
0.345104
0.706784
0.632049
0.455038
0.696576
0.69782
0.341533
0.336217
0.702763
0.336544
0.33641
0.708141
0.52344
0.689268
0.597708
0.709259
0.589646
0.700375
0.697572
0.689745
0.341124
0.541486
0.709032
0.690523
0.558814
0.70103
0.517763
0.696185
0.702282
0.5977
0.5977
0.597711
0.571209
0.688571
0.699489
0.698526
0.699546
0.688882
0.554864
0.70032
0.557715
0.703969
0.702835
0.703594
0.557938
0.689738
0.44217
0.701627
0.472167
0.700582
0.69576
0.703712
0.701582
0.709867
0.422345
0.362899
0.506959
0.341974
0.703604
0.339975
0.341653
0.687379
0.443558
0.701088
0.357775
0.707176
0.694943
0.33643
0.536214
0.543808
0.698898
0.428521
0.689143
0.696292
0.369424
0.701474
0.597702
0.569825
0.472466
0.452195
0.587409
0.336173
0.701054
0.5977
0.493969
0.688754
0.689722
0.706365
0.336276
0.5977
0.440198
0.710831
0.689126
0.698571
0.336186
0.689037
0.698075
0.699871
0.556926
0.698488
0.336139
0.336306
0.701861
0.579767
0.703663
0.597709
0.336195
0.553598
0.701114
0.462135
0.445749
0.420445
0.5977
0.610015
0.695692
0.404922
0.5977
0.688873
0.597706
0.597702
0.535588
0.597701
0.336259
0.33615
0.688656
0.336358
0.33617
0.699763
0.698834
0.381765
0.716244
0.378224
0.551654
0.482448
0.702832
0.689165
0.712713
0.688985
0.440575
0.335956
0.450375
0.688851
0.702584
0.5977
0.5977
0.531829
0.504831
0.689292
0.339542
0.689181
0.531245
0.689717
0.591271
0.35811
0.446649
0.336366
0.336416
0.45737
0.707587
0.704753
0.343303
0.695478
0.5977
0.500259
0.419865
0.70007
0.336385
0.694997
0.546717
0.710513
0.5977
0.696005
0.641371
0.410599
0.704564
0.700928
0.700282
0.336199
0.697444
0.5977
0.546632
0.698588
0.639518
0.701624
0.706347
0.700431
0.701843
0.700514
0.689532
0.689417
0.336334
0.707052
0.336333
0.597712
0.701516
0.448489
0.704429
0.698243
0.462722
0.700696
0.336222
0.454904
0.702816
0.696456
0.698881
0.335901
0.705477
0.5977
0.483223
0.344048
0.703453
0.690494
0.534091
0.431505
0.701019
0.699648
0.336136
0.5977
0.699875
0.5977
0.373503
0.336171
0.447508
0.5977
0.457247
0.707261
0.717861
0.68917
0.5977
0.69502
0.335992
0.702561
0.5977
0.699521
0.597705
0.454502
0.343101
0.440224
0.711493
0.697204
0.54518
0.5977
0.523712
0.654612
0.698972
0.425824
0.598431
0.705586
0.5977
0.347815
0.352505
0.527295
0.697056
0.703526
0.5977
0.584943
0.695769
0.336299
0.5977
0.558079
0.689828
0.350933
0.5977
0.467399
0.699128
0.448459
0.689122
0.702792
0.424655
0.696764
0.5977
0.557609
0.597701
0.557764
0.700489
0.58326
0.689338
0.689422
0.699879
0.689036
0.564385
0.55582
0.39044
0.6894
0.436363
0.336298
0.449708
0.453401
0.336377
0.346708
0.699779
0.528255
0.399789
0.597121
0.696993
0.704854
0.595089
0.693437
0.613751
0.689372
0.464508
0.597701
0.698314
0.495432
0.441474
0.335903
0.5977
0.579759
0.33631
0.5977
0.445986
0.609925
0.576912
0.371617
0.567489
0.5977
0.529718
0.692317
0.428321
0.5977
0.532033
0.704098
0.54049
0.590861
0.545852
0.694758
0.597699
0.336187
0.704142
0.700901
0.445208
0.455186
0.689021
0.336356
0.711093
0.343098
0.597703
0.438173
0.697441
0.464432
0.699285
0.33634
0.700096
0.695123
0.699711
0.556068
0.388991
0.441507
0.595127
0.703567
0.686556
0.70098
0.5977
0.463887
0.700565
0.536888
0.702607
0.694024
0.594186
0.495048
0.705079
0.68944
0.436837
0.689361
0.703995
0.70329
0.709654
0.431729
0.5977
0.336465
0.702646
0.459992
0.688926
0.701379
0.704413
0.699056
0.498094
0.698295
0.336382
0.344206
0.691144
0.554043
0.5977
0.688455
0.553131
0.336221
0.713035
0.703691
0.701141
0.454692
0.562863
0.677923
0.342604
0.69641
0.701484
0.705099
0.703389
0.494571
0.597162
0.5977
0.428382
0.702345
0.700459
0.597704
0.702665
0.492248
0.699704
0.710952
0.5977
0.702803
0.352715
0.453858
0.6896
0.706286
0.45457
0.519016
0.454517
0.438318
0.398665
0.458369
0.489961
0.336366
0.689307
0.434735
0.373964
0.69981
0.5977
0.557443
0.544804
0.336529
0.68984
0.595284
0.5977
0.702867
0.536761
0.5977
0.689651
0.5977
0.710267
0.427297
0.695872
0.689515
0.380972
0.336215
0.592723
0.697216
0.5977
0.7009
0.688884
0.691843
0.707752
0.589616
0.696072
0.689537
0.704008
0.336046
0.697963
0.69057
0.580991
0.559633
0.378807
0.434677
0.400042
0.5977
0.59763
0.68935
0.33622
0.540242
0.699818
0.456287
0.696648
0.689499
0.705066
0.597699
0.695608
0.490632
0.437019
0.435792
0.5977
0.456036
0.688713
0.437062
0.689049
0.689549
0.695768
0.51442
0.592705
0.576084
0.695145
0.418445
0.335836
0.70153
0.709249
0.597705
0.688763
0.703944
0.709991
0.336242
0.5977
0.701134
0.592653
0.695285
0.698338
0.708247
0.554175
0.544488
0.701122
0.575686
0.5977
0.336353
0.707279
0.704521
0.592845
0.457781
0.711132
0.597421
0.699872
0.696864
0.336169
0.336235
0.667491
0.597699
0.597016
0.70283
0.70326
0.470834
0.70445
0.672056
0.702277
0.336305
0.5977
0.336212
0.702596
0.699394
0.708673
0.688722
0.678074
0.502453
0.535938
0.690996
0.336345
0.5977
0.486874
0.695618
0.414908
0.5977
0.701696
0.656298
0.336178
0.557784
0.567201
0.335982
0.709734
0.451667
0.700609
0.336192
0.351671
0.424517
0.68949
0.698338
0.515172
0.505258
0.701369
0.700151
0.574081
0.734266
0.33642
0.5977
0.336272
0.689194
0.33593
0.592261
0.702208
0.47374
0.597698
0.348276
0.68933
0.390673
0.336219
0.703771
0.453458
0.687712
0.597103
0.422271
0.701214
0.677708
0.703395
0.59248
0.484704
0.5977
0.450338
0.335951
0.702567
0.689139
0.696642
0.336343
0.534958
0.5977
0.703026
0.597709
0.704299
0.5977
0.700925
0.519322
0.702138
0.700308
0.5977
0.69919
0.456355