# vtk DataFile Version 1.0
unstructured grid
ascii
DATASET UNSTRUCTURED_GRID
points 13672 float
0.0796578 -0.059106 0
0.00128732 0.00159165 0
0.00227961 -0.00102548 0
0.0791586 -0.0598787 0
-0.0546216 0.01 0
0.000495206 0.025 0
0.0800549 -0.035 0
0.135172 -0.08 0
-0.0546216 -0.0451168 0
0.000495206 -0.0301168 0
0.0800549 -0.0901168 0
0.135172 -0.135117 0
-0.0546216 -0.0451168 -0.00551168
0.000495206 -0.0301168 -0.00551168
0.0800549 -0.0901168 -0.00551168
0.135172 -0.135117 -0.00551168
0.135172 -0.08 -0.00551168
0.0800549 -0.035 -0.00551168
0.000495206 0.025 -0.00551168
-0.0546216 0.01 -0.00551168
0.00128732 0.00159165 -0.00551168
0.00227961 -0.00102548 -0.00551168
0.0791586 -0.0598787 -0.00551168
0.0796578 -0.059106 -0.00551168
0.00165953 -0.000990923 0
0.00119576 -0.000874076 0
0.000866021 -0.000641801 0
0.000645147 -0.000349912 0
0.00052235 -1.7281e-05 0
0.00049972 0.000348016 0
0.000601632 0.000737716 0
0.000861774 0.0011403 0
0.00157235 0.00183217 0
0.00188647 0.00206725 0
0.00222612 0.00230203 0
0.00258713 0.00254351 0
0.00296826 0.00279524 0
0.00337118 0.00305664 0
0.00379785 0.00332658 0
0.00425045 0.00360349 0
0.00473139 0.00388521 0
0.0052432 0.00416895 0
0.0057881 0.00445204 0
0.00636753 0.00473281 0
0.00698281 0.00500961 0
0.00763526 0.00528058 0
0.00832616 0.00554366 0
0.00905691 0.00579603 0
0.00982918 0.00603333 0
0.0106445 0.00625033 0
0.0115038 0.00644128 0
0.0124073 0.00660297 0
0.0133543 0.00673414 0
0.0143444 0.00683382 0
0.0153769 0.00690031 0
0.0164512 0.00693173 0
0.0175666 0.00692547 0
0.0187219 0.00687822 0
0.0199156 0.00678477 0
0.0211454 0.00663864 0
0.0224084 0.00643275 0
0.0237018 0.00616676 0
0.0250249 0.00584739 0
0.026375 0.00547298 0
0.0277479 0.00503752 0
0.0291386 0.00453545 0
0.0305433 0.0039653 0
0.0319572 0.0033256 0
0.0333681 0.00260019 0
0.034775 0.00179799 0
0.0361793 0.000930615 0
0.0375798 3.12222e-06 0
0.0389689 -0.000988429 0
0.0403357 -0.00205109 0
0.041675 -0.00318283 0
0.0429849 -0.00437751 0
0.0442643 -0.00562904 0
0.0455126 -0.00693089 0
0.0467314 -0.00827518 0
0.0479204 -0.00965638 0
0.0490661 -0.0110799 0
0.0501515 -0.0125519 0
0.0511696 -0.0140695 0
0.0521492 -0.0156071 0
0.0531202 -0.0171411 0
0.0540851 -0.0186663 0
0.0550431 -0.0201798 0
0.0559923 -0.0216793 0
0.0569311 -0.0231626 0
0.0578582 -0.0246273 0
0.0587723 -0.0260715 0
0.0596721 -0.027493 0
0.0605563 -0.02889 0
0.0614241 -0.0302609 0
0.0622742 -0.0316042 0
0.063106 -0.0329183 0
0.0639186 -0.034202 0
0.0647113 -0.0354543 0
0.0654835 -0.0366743 0
0.0662345 -0.0378613 0
0.0669642 -0.0390145 0
0.0676726 -0.0401333 0
0.0683597 -0.0412172 0
0.0690246 -0.0422665 0
0.0696662 -0.0432819 0
0.0702841 -0.0442636 0
0.0708793 -0.0452111 0
0.0714538 -0.0461237 0
0.072009 -0.047001 0
0.0725452 -0.0478434 0
0.0730611 -0.0486524 0
0.073556 -0.0494294 0
0.0740291 -0.0501756 0
0.0744812 -0.0508916 0
0.0749138 -0.0515773 0
0.0753285 -0.0522331 0
0.0757266 -0.0528592 0
0.076109 -0.0534564 0
0.0764753 -0.0540264 0
0.0768243 -0.054571 0
0.0771553 -0.0550919 0
0.0774679 -0.0555901 0
0.0777617 -0.0560669 0
0.0780369 -0.056523 0
0.0782958 -0.0569578 0
0.0785421 -0.0573703 0
0.0787786 -0.0577603 0
0.0790073 -0.0581279 0
0.0792295 -0.058474 0
0.0794462 -0.0587995 0
0.0798803 -0.0594162 0
0.0800272 -0.0596588 0
0.0800357 -0.0598891 0
0.0799275 -0.0600784 0
0.0797205 -0.0601773 0
0.0794593 -0.0601051 0
0.0789155 -0.0596491 0
0.0786707 -0.0593963 0
0.0784111 -0.0591319 0
0.0781372 -0.0588542 0
0.0778566 -0.0585548 0
0.0775715 -0.0582308 0
0.0772803 -0.0578828 0
0.0769832 -0.0575099 0
0.0766822 -0.0571097 0
0.0763801 -0.0566796 0
0.0760759 -0.0562196 0
0.0757623 -0.0557337 0
0.0754359 -0.0552232 0
0.0750951 -0.0546879 0
0.0747379 -0.054128 0
0.0743626 -0.0535435 0
0.0739688 -0.0529338 0
0.0735559 -0.0522981 0
0.0731238 -0.0516357 0
0.0726718 -0.050946 0
0.0721991 -0.0502288 0
0.0717046 -0.049484 0
0.0711872 -0.0487117 0
0.0706461 -0.047912 0
0.0700804 -0.0470849 0
0.0694892 -0.0462308 0
0.0688718 -0.0453499 0
0.0682271 -0.0444431 0
0.0675544 -0.043511 0
0.0668527 -0.0425546 0
0.0661215 -0.0415748 0
0.06536 -0.040573 0
0.0645676 -0.0395504 0
0.0637439 -0.0385087 0
0.0628887 -0.0374493 0
0.062002 -0.0363741 0
0.0610838 -0.0352847 0
0.0601345 -0.0341831 0
0.0591547 -0.033071 0
0.0581456 -0.0319502 0
0.0571083 -0.0308224 0
0.0560444 -0.0296893 0
0.0549562 -0.028552 0
0.053845 -0.0274126 0
0.0527113 -0.0262746 0
0.051554 -0.0251427 0
0.0503724 -0.0240222 0
0.0491675 -0.0229164 0
0.047941 -0.0218282 0
0.0466955 -0.0207597 0
0.0454337 -0.0197126 0
0.0441592 -0.0186878 0
0.0428751 -0.0176863 0
0.0415841 -0.0167097 0
0.0402878 -0.0157609 0
0.0389879 -0.0148428 0
0.0376864 -0.0139575 0
0.0363853 -0.013107 0
0.0350871 -0.0122931 0
0.0337942 -0.0115164 0
0.0325095 -0.0107772 0
0.0312357 -0.0100756 0
0.0299758 -0.00941024 0
0.0287337 -0.00877784 0
0.0275126 -0.00817571 0
0.0263139 -0.00760375 0
0.0251376 -0.00706528 0
0.0239829 -0.0065649 0
0.0228537 -0.00609619 0
0.0217522 -0.00565563 0
0.0206795 -0.00524226 0
0.0196364 -0.00485507 0
0.0186233 -0.00449318 0
0.0176408 -0.00415577 0
0.016689 -0.00384204 0
0.0157682 -0.00355115 0
0.0148783 -0.00328218 0
0.0140192 -0.00303468 0
0.0131906 -0.00280795 0
0.0123925 -0.00260016 0
0.0116246 -0.00241012 0
0.0108864 -0.00223769 0
0.0101774 -0.00208212 0
0.00949701 -0.00194206 0
0.00884483 -0.0018163 0
0.0082202 -0.0017039 0
0.00762247 -0.00160391 0
0.00705097 -0.00151528 0
0.006505 -0.00143697 0
0.0059838 -0.00136806 0
0.00548662 -0.00130772 0
0.00501265 -0.00125519 0
0.00456114 -0.00120954 0
0.00413136 -0.00116914 0
0.00372257 -0.00113251 0
0.00333398 -0.00109853 0
0.00296466 -0.00106798 0
0.00261363 -0.0010431 0
-0.052721 -0.0445996 0
-0.0508204 -0.0440823 0
-0.0489199 -0.0435651 0
-0.0470193 -0.0430478 0
-0.0451187 -0.0425306 0
-0.0432181 -0.0420134 0
-0.0413175 -0.0414961 0
-0.039417 -0.0409789 0
-0.0375164 -0.0404616 0
-0.0356158 -0.0399444 0
-0.0337152 -0.0394271 0
-0.0318146 -0.0389099 0
-0.0299141 -0.0383927 0
-0.0280135 -0.0378754 0
-0.0261129 -0.0373582 0
-0.0242123 -0.0368409 0
-0.0223117 -0.0363237 0
-0.0204112 -0.0358065 0
-0.0185106 -0.0352892 0
-0.01661 -0.034772 0
-0.0147094 -0.0342547 0
-0.0128088 -0.0337375 0
-0.0109083 -0.0332202 0
-0.00900769 -0.032703 0
-0.00710711 -0.0321858 0
-0.00520653 -0.0316685 0
-0.00330595 -0.0311513 0
-0.00140537 -0.030634 0
0.00190689 -0.0299614 0
0.00332271 -0.0298498 0
0.00474133 -0.0297825 0
0.00616136 -0.0297597 0
0.0075814 -0.0297814 0
0.00900007 -0.0298477 0
0.010416 -0.0299583 0
0.0118278 -0.0301127 0
0.0132342 -0.0303103 0
0.0146339 -0.0305504 0
0.0160259 -0.0308322 0
0.0174091 -0.0311546 0
0.0187824 -0.0315166 0
0.020145 -0.031917 0
0.0214961 -0.0323546 0
0.0228351 -0.032828 0
0.0241613 -0.0333361 0
0.0254744 -0.0338774 0
0.0267738 -0.0344507 0
0.0280592 -0.0350545 0
0.0293306 -0.0356877 0
0.0305875 -0.0363488 0
0.0318301 -0.0370367 0
0.0330581 -0.0377501 0
0.0342717 -0.0384879 0
0.0354708 -0.0392489 0
0.0366556 -0.0400321 0
0.0378262 -0.0408363 0
0.0389828 -0.0416607 0
0.0401254 -0.0425042 0
0.0412543 -0.0433659 0
0.0423698 -0.0442451 0
0.043472 -0.0451408 0
0.0445612 -0.0460523 0
0.0456375 -0.0469789 0
0.0467013 -0.0479199 0
0.0477529 -0.0488746 0
0.0487923 -0.0498424 0
0.04982 -0.0508227 0
0.0508362 -0.051815 0
0.051841 -0.0528187 0
0.0528348 -0.0538333 0
0.0538178 -0.0548584 0
0.0547903 -0.0558935 0
0.0557524 -0.0569382 0
0.0567045 -0.0579922 0
0.0576467 -0.0590549 0
0.0585792 -0.0601261 0
0.0595024 -0.0612055 0
0.0604163 -0.0622926 0
0.0613212 -0.0633873 0
0.0622174 -0.0644891 0
0.0631049 -0.0655979 0
0.0639841 -0.0667134 0
0.064855 -0.0678353 0
0.0657179 -0.0689633 0
0.0665729 -0.0700974 0
0.0674202 -0.0712372 0
0.06826 -0.0723826 0
0.0690925 -0.0735333 0
0.0699178 -0.0746892 0
0.070736 -0.0758501 0
0.0715473 -0.0770159 0
0.0723518 -0.0781863 0
0.0731498 -0.0793612 0
0.0739412 -0.0805405 0
0.0747264 -0.081724 0
0.0755053 -0.0829116 0
0.0762781 -0.0841033 0
0.0770449 -0.0852987 0
0.0778059 -0.0864979 0
0.0785611 -0.0877007 0
0.0793108 -0.088907 0
0.0814681 -0.0912706 0
0.0828814 -0.0924245 0
0.0842946 -0.0935783 0
0.0857079 -0.0947322 0
0.0871211 -0.095886 0
0.0885344 -0.0970399 0
0.0899476 -0.0981937 0
0.0913609 -0.0993476 0
0.0927741 -0.100501 0
0.0941874 -0.101655 0
0.0956006 -0.102809 0
0.0970139 -0.103963 0
0.0984272 -0.105117 0
0.0998404 -0.106271 0
0.101254 -0.107424 0
0.102667 -0.108578 0
0.10408 -0.109732 0
0.105493 -0.110886 0
0.106907 -0.11204 0
0.10832 -0.113194 0
0.109733 -0.114348 0
0.111146 -0.115501 0
0.11256 -0.116655 0
0.113973 -0.117809 0
0.115386 -0.118963 0
0.116799 -0.120117 0
0.118213 -0.121271 0
0.119626 -0.122424 0
0.121039 -0.123578 0
0.122452 -0.124732 0
0.123866 -0.125886 0
0.125279 -0.12704 0
0.126692 -0.128194 0
0.128105 -0.129348 0
0.129519 -0.130501 0
0.130932 -0.131655 0
0.132345 -0.132809 0
0.133758 -0.133963 0
0.135172 -0.133216 0
0.135172 -0.131316 0
0.135172 -0.129415 0
0.135172 -0.127514 0
0.135172 -0.125614 0
0.135172 -0.123713 0
0.135172 -0.121813 0
0.135172 -0.119912 0
0.135172 -0.118012 0
0.135172 -0.116111 0
0.135172 -0.11421 0
0.135172 -0.11231 0
0.135172 -0.110409 0
0.135172 -0.108509 0
0.135172 -0.106608 0
0.135172 -0.104708 0
0.135172 -0.102807 0
0.135172 -0.100906 0
0.135172 -0.0990058 0
0.135172 -0.0971052 0
0.135172 -0.0952046 0
0.135172 -0.0933041 0
0.135172 -0.0914035 0
0.135172 -0.0895029 0
0.135172 -0.0876023 0
0.135172 -0.0857017 0
0.135172 -0.0838012 0
0.135172 -0.0819006 0
0.133758 -0.0788462 0
0.132345 -0.0776923 0
0.130932 -0.0765385 0
0.129519 -0.0753846 0
0.128105 -0.0742308 0
0.126692 -0.0730769 0
0.125279 -0.0719231 0
0.123866 -0.0707692 0
0.122452 -0.0696154 0
0.121039 -0.0684615 0
0.119626 -0.0673077 0
0.118213 -0.0661538 0
0.116799 -0.065 0
0.115386 -0.0638462 0
0.113973 -0.0626923 0
0.11256 -0.0615385 0
0.111146 -0.0603846 0
0.109733 -0.0592308 0
0.10832 -0.0580769 0
0.106907 -0.0569231 0
0.105493 -0.0557692 0
0.10408 -0.0546154 0
0.102667 -0.0534615 0
0.101254 -0.0523077 0
0.0998404 -0.0511538 0
0.0984272 -0.05 0
0.0970139 -0.0488462 0
0.0956006 -0.0476923 0
[...]
CELL_DATA 13116
SCALARS rho float
LOOKUP_TABLE default
0.64457
0.702943
0.328274
0.720269
0.712475
0.695964
0.328685
0.711359
0.587067
0.727266
0.330147
0.315138
0.712391
0.330485
0.328658
0.695855
0.647622
0.737132
0.701603
0.325394
0.638977
0.336695
0.329608
0.735407
0.663808
0.700457
0.728545
0.332989
0.650164
0.729739
0.552628
0.317504
0.614023
0.461939
0.3245
0.642251
0.716177
0.70164
0.695743
0.699718
0.702116
0.713406
0.511077
0.324567
0.701305
0.70165
0.695647
0.704826
0.340899
0.559601
0.711402
0.492482
0.32621
0.643155
0.614404
0.644319
0.32462
0.716271
0.57373
0.337856
0.330073
0.720712
0.699747
0.695728
0.579694
0.321337
0.703889
0.721418
0.707369
0.629556
0.327366
0.633545
0.335341
0.324457
0.557481
0.312999
0.704671
0.709836
0.329066
0.736384
0.714986
0.699879
0.729314
0.704899
0.700385
0.458574
0.324403
0.726118
0.698704
0.332861
0.322575
0.703128
0.734474
0.7001
0.7215
0.666585
0.674868
0.555705
0.556229
0.647377
0.744274
0.688516
0.701245
0.430653
0.694897
0.327955
0.413657
0.555878
0.33058
0.684015
0.584551
0.697508
0.661659
0.717148
0.736684
0.699925
0.323918
0.414476
0.708528
0.701948
0.722685
0.338267
0.707394
0.322487
0.700591
0.448069
0.324243
0.503191
0.329308
0.55044
0.708651
0.707847
0.494276
0.338554
0.474167
0.679197
0.557739
0.709164
0.744818
0.69982
0.698343
0.695807
0.50326
0.698394
0.700384
0.331809
0.323534
0.699443
0.713004
0.710064
0.529094
0.704562
0.704659
0.313161
0.713404
0.700186
0.328355
0.742644
0.55874
0.72815
0.732901
0.330449
0.715034
0.329562
0.338288
0.712102
0.699507
0.736894
0.326116
0.460947
0.436249
0.557396
0.328765
0.491531
0.696085
0.329141
0.329546
0.336011
0.697038
0.702861
0.324111
0.440735
0.610522
0.717019
0.703212
0.578658
0.315657
0.699692
0.693332
0.465809
0.707881
0.699052
0.642481
0.326346
0.696977
0.698774
0.728611
0.699906
0.698496
0.384756
0.432274
0.781647
0.5002
0.327076
0.710696
0.702886
0.507822
0.685693
0.33489
0.326547
0.312878
0.70395
0.328536
0.328016
0.333092
0.31247
0.402938
0.69967
0.700552
0.456399
0.323558
0.703359
0.578988
0.324322
0.531636
0.722766
0.700043
0.333556
0.696822
0.433442
0.715643
0.318775
0.661481
0.606316
0.559444
0.69966
0.668287
0.350709
0.443097
0.733399
0.558182
0.700727
0.5581
0.685877
0.707797
0.330697
0.710213
0.712606
0.559222
0.322656
0.342185
0.70352
0.708126
0.617244
0.706241
0.639608
0.721476
0.330606
0.360041
0.394259
0.334265
0.692657
0.72704
0.70381
0.326094
0.700401
0.317948
0.444716
0.695348
0.318419
0.70025
0.711981
0.557282
0.716033
0.349282
0.557544
0.715851
0.557209
0.708882
0.328713
0.323176
0.327292
0.676358
0.336729
0.34395
0.403283
0.373683
0.701623
0.327408
0.699503
0.711635
0.319365
0.324375
0.31856
0.454025
0.332893
0.725615
0.685124
0.696303
0.319201
0.705462
0.550774
0.357394
0.336697
0.69618
0.70796
0.699928
0.315233
0.698694
0.441566
0.707696
0.713415
0.708504
0.712742
0.326805
0.698019
0.32869
0.69583
0.72879
0.74916
0.329486
0.40157
0.712527
0.31971
0.698114
0.719232
0.366127
0.740205
0.727927
0.320425
0.700496
0.733692
0.331714
0.709194
0.462375
0.542452
0.704987
0.464572
0.741938
0.325598
0.731866
0.411354
0.696011
0.687855
0.732538
0.332496
0.407986
0.700276
0.313695
0.710006
0.694244
0.435509
0.557744
0.314847
0.328925
0.707793
0.535199
0.71925
0.32299
0.329039
0.710305
0.711627
0.324455
0.711192
0.324918
0.336439
0.696265
0.7045
0.573526
0.335221
0.708192
0.574095
0.695719
0.70036
0.713403
0.52895
0.345521
0.331495
0.324248
0.695651
0.32459
0.611208
0.370747
0.324495
0.405184
0.580167
0.158284
0.314654
0.700528
0.319119
0.714778
0.652054
0.702656
0.728209
0.710139
0.329527
0.323059
0.391777
0.351936
0.708697
0.658122
0.701935
0.651893
0.701343
0.711415
0.699561
0.701975
0.729594
0.712236
0.736754
0.696102
0.398115
0.497217
0.641689
0.33305
0.683968
0.644645
0.32572
0.698572
0.557764
0.327469
0.327449
0.330678
0.316663
0.826351
0.315902
0.32666
0.702758
0.319296
0.617161
0.331929
0.69543
0.712029
0.335402
0.337361
0.707802
0.453161
0.33231
0.317187
0.333971
0.330699
0.322378
0.327654
0.341727
0.445963
0.33113
0.687422
0.340572
0.699724
0.365431
0.321856
0.497379
0.327512
0.332827
0.326844
0.699984
0.444392
0.773684
0.571218
0.319547
0.694549
0.699272
0.455293
0.739595
0.711031
0.709551
0.321485
0.559064
0.417439
0.715178
0.551635
0.329491
0.326662
0.693017
0.353269
0.46239
0.689028
0.411435
0.742467
0.700633
0.323668
0.327455
0.325023
0.48784
0.334704
0.329428
0.327808
0.32881
0.716588
0.7217
0.458743
0.65034
0.475852
0.696435
0.394871
0.312213
0.593352
0.329887
0.705507
0.380296
0.412694
0.490774
0.701355
0.699012
0.538967
0.363492
0.326748
0.537431
0.711336
0.673639
0.535897
0.695386
0.692504
0.330732
0.711946
0.595056
0.736634
0.379976
0.332926
0.717381
0.732548
0.730239
0.726659
0.698277
0.70129
0.73052
0.745191
0.702548
0.328196
0.701236
0.418373
0.337047
0.329292
0.722088
0.703103
0.390368
0.700248
0.807563
0.329697
0.691955
0.707654
0.712157
0.332754
0.312093
0.709619
0.332773
0.332364
0.313996
0.330713
0.705282
0.33081
0.721049
0.339701
0.703471
0.711345
0.707368
0.711961
0.333092
0.32491
0.703846
0.716666
0.711767
0.715828
0.712789
0.490876
0.32057
0.330672
0.705075
0.581656
0.330552
0.455131
0.324272
0.70093
0.698681
0.381042
0.338439
0.699842
0.468413
0.700623
0.758715
0.328936
0.431075
0.709915
0.558404
0.329801
0.698506
0.699832
0.703506
0.311236
0.557458
0.323863
0.561907
0.734483
0.335579
0.399262
0.343064
0.560677
0.330781
0.32805
0.415978
0.695358
0.710408
0.328429
0.35635
0.331447
0.692546
0.336658
0.702153
0.332791
0.636516
0.724225
0.368414
0.329522
0.329532
0.492398
0.331024
0.700697
0.314151
0.31453
0.695642
0.323465
0.6992
0.696985
0.560477
0.329635
0.705521
0.720209
0.724054
0.705201
0.703061
0.696217
0.313677
0.648354
0.457923
0.704245
0.32797
0.708564
0.552514
0.325771
0.554574
0.712987
0.31305
0.705651
0.322483
0.325457
0.703536
0.699894
0.32447
0.32844
0.328865
0.302947
0.701567
0.735987
0.311038
0.322245
0.710058
0.709256
0.639477
0.717328
0.697821
0.330551
0.730805
0.439684
0.71139
0.4139
0.653717
0.478094
0.697448
0.719259
0.543673
0.390978
0.332088
0.699962
0.615581
0.636566
0.716442
0.332369
0.714072
0.713508
0.442848
0.495215
0.718416
0.36795
0.589792
0.736147
0.400449
0.703193
0.722406
0.32939
0.710526
0.327247
0.69882
0.318584
0.70338
0.699144
0.332391
0.695464
0.715248
0.710421
0.820848
0.709955
0.547313
0.358173
0.437948
0.322095
0.324778
0.557758
0.533791
0.708381
0.712772
0.327139
0.345522
0.71022
0.727729
0.708173
0.711893
0.328439
0.736985
0.712186
0.325879
0.318417
0.708694
0.703253
0.699854
0.298254
0.554895
0.336186
0.710977
0.696609
0.665385
0.70356
0.330601
0.706272
0.699492
0.731483
0.699661
0.702787
0.458569
0.71292
0.325691
0.693684
0.716698
0.458937
0.70164
0.685209
0.711367
0.442112
0.420427
0.545234
0.734966
0.332449
0.335484
0.317321
0.331416
0.704389
0.713947
0.679382
0.374287
0.331088
0.70725
0.742921
0.331394
0.347367
0.461846
0.713202
0.699883
0.700417
0.716773
0.327228
0.33254
0.557805
0.32219
0.327693
0.313346
0.700542
0.335754
0.333207
0.640434
0.704002
0.696658
0.695784
0.699816
0.323095
0.323922
0.318282
0.582716
0.446887
0.320368
0.720366
0.717394
0.699243
0.704454
0.307368
0.330571
0.726016
0.330834
0.702607
0.698548
0.556736
0.324447
0.33396
0.698108
0.559419
0.66401
0.331635
0.700422
0.695728
0.63772
0.710383
0.710915
0.557711
0.695354
0.328458
0.699445
0.589959
0.694747
0.711557
0.557752
0.697662
0.559177
0.708437
0.314445
0.320245
0.330781
0.557016
0.559153
0.331078
0.709922
0.71037
0.318188
0.710501
0.336703
0.709685
0.56488
0.348271
0.726316
0.736195
0.330813
0.52839
0.568152
0.327455
0.700304
0.32395
0.330372
0.705349
0.656463
0.496334
0.701272
0.316325
0.715034
0.325632
0.316057
0.700033
0.330477
0.671191
0.323981
0.70887
0.654624
0.557982
0.698857
0.330546
0.315513
0.692123
0.523701
0.708259
0.470406
0.657944
0.696202
0.73202
0.532313
0.651977
0.696915
0.728408
0.70616
0.414619
0.334788
0.525654
0.696962
0.73261
0.388154
0.700974
0.664999
0.390166
0.323954
0.748548
0.713912
0.558595
0.561089
0.689521
0.715757
0.695982
0.716132
0.322315
0.735385
0.458495
0.702824
0.702942
0.379241
0.706724
0.711159
0.321669
0.345099
0.319285
0.557764
0.330341
0.702857
0.711781
0.739407
0.373191
0.701428
0.328492
0.554677
0.693419
0.658684
0.720988
0.68945
0.720997
0.714794
0.587403
0.704159
0.31958
0.701321
0.706971
0.498748
0.560505
0.713114
0.327393
0.33167
0.327467
0.709792
0.335401
0.559228
0.318201
0.710414
0.326393
0.480056
0.325025
0.715322
0.711861
0.638279
0.367143
0.721962
0.700725
0.323245
0.639921
0.723348
0.319521
0.645748
0.553755
0.720997
0.703139
0.328804
0.551735
0.709229
0.701848
0.694417
0.33401
0.41666
0.700604
0.557714
0.558162
0.557515
0.628994
0.708013
0.624546
0.698178
0.333863
0.328136
0.557484
0.712249
0.695739
0.32208
0.701319
0.643022
0.682164
0.31768
0.441373
0.711342
0.71689
0.59962
0.348837
0.70389
0.561152
0.32828
0.662027
0.716802
0.327401
0.321771
0.328097
0.693765
0.339815
0.328447
0.700525
0.474326
0.729728
0.712817
0.326952
0.32131
0.713409
0.319965
0.315321
0.560956
0.333942
0.395872
0.648388
0.703501
0.706279
0.331328
0.339151
0.328061
0.697665
0.328587
0.706203
0.319408
0.70932
0.702381
0.701072
0.695835
0.706706
0.696228
0.699761
0.711741
0.706637
0.330033
0.321679
0.705506
0.696063
0.499946
0.695229
0.612027
0.695889
0.692945
0.334793
0.700049
0.724614
0.703228
0.320765
0.706756
0.333921
0.704996
0.492688
0.734513
0.705254
0.348517
0.708758
0.331091
0.456673
0.700272
0.313176
0.742759
0.557561
0.703484
0.315735
0.700581
0.331671
0.324215
0.324501
0.333047
0.690414
0.33091
0.701399
0.684895
0.350432
0.326424
0.486175
0.553201
0.726728
0.694868
0.329499
0.3202
0.326354
0.327518
0.362425
0.720762
0.698469
0.333428
0.693982
0.71132
0.327714
0.726423
0.743332
0.690936
0.321635
0.561173
0.709996
0.712729
0.701678
0.333893
0.707184
0.712652
0.706945
0.748561
0.699834
0.347798
0.324844
0.704535
0.522403
0.334592
0.698602
0.327387
0.543762
0.709545
0.698695
0.699221
0.322717
0.69488
0.390622
0.319836
0.73765
0.710511
0.713864
0.709723
0.7148
0.324447
0.712143
0.336887
0.498821
0.711934
0.554956
0.708855
0.321756
0.353467
0.713449
0.369529
0.709402
0.762681
0.439275
0.35356
0.696412
0.323806
0.705171
0.709377
0.710308
0.324175
0.321403
0.499891
0.581758
0.711579
0.474631
0.69601
0.694862
0.699651
0.557729
0.710101
0.327829
0.350721
0.709741
0.700253
0.693837
0.459783
0.325769
0.711683
0.329164
0.698449
0.734547
0.34379
0.708449
0.329968
0.702535
0.32856
0.713456
0.347026
0.704805
0.70266
0.317322
0.700443
0.733503
0.319157
0.674637
0.701266
0.613275
0.331009
0.384605
0.470149
0.721021
0.691814
0.344845
0.552513
0.71027
0.695724
0.374653
0.694946
0.701855
0.468318
0.696591
0.695797
0.382514
0.706418
0.554767
0.32724
0.667276
0.317958
0.707022
0.315463
0.334367
0.732405
0.330778
0.331685
0.32955
0.701729
0.700096
0.404309
0.703561
0.386783
0.706784
0.331869
0.701461
0.374033
0.696143
0.704797
0.707563
0.674523
0.529979
0.702511
0.690817
0.332029
0.76004
0.710588
0.604388
0.709855
0.491456
0.423591
0.712237
0.322615
0.618132
0.337461
0.701661
0.329157
0.326301
0.736669
0.699233
0.324284
0.700859
0.717803
0.557725
0.71141
0.560924
0.328756
0.727906
0.326853
0.32873
0.699229
0.716282
0.712352
0.699844
0.318399
0.314497
0.328068
0.702631
0.683912
0.384731
0.70373
0.322097
0.314958
0.314189
0.699419
0.415074
0.712234
0.707012
0.764915
0.699757
0.706272
0.642595
0.70237
0.451352
0.322023
0.324646
0.561009
0.561295
0.323409
0.717133
0.692275
0.703834
0.32895
0.446381
0.695374
0.355104
0.694422
0.686357
0.327861
0.701824
0.704731
0.331336
0.705838
0.316011
0.708146
0.732746
0.706695
0.330644
0.474252
0.741535
0.387739
0.465505
0.700048
0.388297
0.702124
0.706411
0.699967
0.719323
0.348047
0.556119
0.73522
0.701679
0.422023
0.709956
0.329741
0.33345
0.700798
0.699782
0.690833
0.30972
0.705413
0.772491
0.557196
0.320714
0.325388
0.332776
0.709633
0.328837
0.322241
0.327884
0.68515
0.317972
0.377657
0.45552
0.705853
0.329688
0.669606
0.698947
0.699747
0.315176
0.706092
0.729798
0.692113
0.442258
0.75005
0.321788
0.322682
0.698563
0.324495
0.711863
0.710434
0.55763
0.328806
0.403152
0.313812
0.536594
0.557959
0.313432
0.701697
0.702153
0.719676
0.330374
0.335387
0.412302
0.691649
0.331344
0.55772
0.642786
0.700282
0.700711
0.329044
0.708405
0.314776
0.681666
0.760699
0.727876
0.679472
0.611283
0.744815
0.69446
0.70996
0.319127
0.364399
0.319392
0.734228
0.587323
0.556055
0.328766
0.424743
0.714254
0.706107
0.630168
0.324913
0.699497
0.535452
0.539312
0.692319
0.330823
0.325504
0.382919
0.699703
0.686671
0.749847
0.695903
0.40683
0.70445
0.748013
0.68499
0.687712
0.70364
0.725051
0.695467
0.715397
0.714014
0.329481
0.706923
0.710068
0.69989
0.707338
0.69988
0.675624
0.329237
0.326664
0.694209
0.3342
0.348276
0.700239
0.320808
0.77933
0.707299
0.70155
0.703004
0.328292
0.69926
0.324787
0.326967
0.695452
0.70767
0.70461
0.314314
0.710791
0.701496
0.692842
0.699859
0.333379
0.700329
0.714741
0.705272
0.386638
0.725436
0.328458
0.718188
0.313436
0.329463
0.64844
0.454826
0.725444
0.715597
0.703405
0.326607
0.699962
0.406935
0.324506
0.697809
0.488953
0.333263
0.701801
0.343851
0.504277
0.724355
0.696337
0.699499
0.489422
0.548835
0.726462
0.704449
0.676324
0.713764
0.523396
0.713339
0.695416
0.729409
0.296072
0.329449
0.452744
0.709394
0.327519
0.729486
0.701021
0.670755
0.704723
0.625572
0.737947
0.715883
0.322245
0.699084
0.693942
0.616939
0.694564
0.711916
0.700508
0.6959
0.329797
0.316607
0.704497
0.594031
0.630553
0.709268
0.704757
0.704188
0.733545
0.732212
0.718236
0.694547
0.728844
0.325132
0.331657
0.330778
0.340174
0.55827
0.461821
0.62074
0.708236
0.715636
0.329289
0.703517
0.720426
0.314603
0.415189
0.559708
0.707926
0.33111
0.307538
0.303332
0.557755
0.700894
0.3897
0.328263
0.327382
0.339575
0.36294
0.334733
0.714511
0.704818
0.71023
0.318404
0.701573
0.692576
0.696695
0.358974
0.326927
0.698038
0.557573
0.332357
0.695636
0.331117
0.734495
0.329527
0.70011
0.319894
0.699429
0.711746
0.31563
0.54047
0.357131
0.727324
0.331506
0.701098
0.327837
0.524083
0.321019
0.687518
0.323914
0.644353
0.662543
0.650317
0.706474
0.360221
0.701381
0.696626
0.711226
0.687555
0.70756
0.327003
0.442274
0.321563
0.731818
0.378591
0.711168
0.53401
0.716496
0.719076
0.556457
0.712669
0.324144
0.326616
0.32419
0.508515
0.65409
0.704329
0.319505
0.341854
0.697032
0.444294
0.323174
0.670256
0.407919
0.332713
0.325656
0.71391
0.758135
0.70511
0.329026
0.700515
0.699588
0.318608
0.412222
0.699634
0.699223
0.681228
0.507995
0.455651
0.423243
0.314144
0.701279
0.692667
0.582297
0.730333
0.336473
0.636674
0.3299
0.58141
0.71054
0.327412
0.366873
0.694456
0.666933
0.711395
0.713862
0.716796
0.70091
0.712126
0.311991
0.334762
0.319635
0.328597
0.642832
0.560578
0.757343
0.32871
0.328516
0.467629
0.32119
0.703928
0.696239
0.332727
0.377027
0.707466
0.330043
0.725587
0.714849
0.698081
0.697845
0.644882
0.332207
0.319648
0.69385
0.327651
0.446625
0.399843
0.695907
0.699643
0.377963
0.328315
0.557763
0.322827
0.696361
0.733051
0.330183
0.322248
0.327334
0.70631
0.324301
0.557621
0.712837
0.677873
0.313744
0.520484
0.709795
0.701339
0.329522
0.701688
0.695439
0.323171
0.708382
0.71432
0.323921
0.332597
0.697664
0.321936
0.328309
0.701956
0.422682
0.703962
0.740839
0.734681
0.699882
0.712258
0.706992
0.699433
0.328903
0.444681
0.697963
0.705733
0.471568
0.727168
0.380469
0.70828
0.699723
0.62837
0.729289
0.441799
0.458838
0.703436
0.711432
0.694857
0.711882
0.705847
0.557897
0.710747
0.557799
0.702432
0.697644
0.701376
0.557725
0.701325
0.320862
0.699852
0.331384
0.69652
0.707169
0.715688
0.696011
0.723313
0.319979
0.313617
0.389456
0.329667
0.697791
0.322068
0.320444
0.714961
0.304496
0.715298
0.314694
0.701564
0.706962
0.330239
0.442953
0.344957
0.709391
0.326598
0.703984
0.708822
0.312443
0.698494
0.535672
0.352124
0.332331
0.318514
0.740259
0.333112
0.697858
0.624331
0.359275
0.700565
0.702264
0.719047
0.331154
0.642751
0.325286
0.70197
0.69624
0.698793
0.334636
0.705767
0.709259
0.696454
0.425614
0.709133
0.332002
0.331024
0.699699
0.457694
0.722968
0.429588
0.333852
0.453895
0.696454
0.331008
0.320021
0.319069
0.563261
0.559292
0.708091
0.332177
0.681009
0.705511
0.535363
0.469494
0.342368
0.537465
0.334206
0.32975
0.702328
0.331207
0.331445
0.710849
0.719393
0.313794
0.736759
0.311578
0.558482
0.33354
0.697933
0.631204
0.727449
0.701659
0.327702
0.330255
0.324149
0.696234
0.69776
0.550724
0.576735
0.435942
0.391273
0.701978
0.329016
0.704247
0.431078
0.639402
0.720965
0.317903
0.326575
0.330686
0.32848
0.328793
0.693754
0.699028
0.319988
0.706366
0.727749
0.360618
0.327753
0.723027
0.333359
0.705887
0.452356
0.721614
0.727621
0.705911
0.559251
0.319431
0.731527
0.699421
0.715561
0.332425
0.692774
0.631237
0.347026
0.709716
0.705139
0.712696
0.700396
0.7123
0.699714
0.712773
0.699902
0.701367
0.32826
0.723429
0.330648
0.476777
0.700092
0.324102
0.700509
0.693622
0.341146
0.69645
0.332105
0.322899
0.699875
0.690792
0.718302
0.329029
0.700129
0.755754
0.333594
0.318638
0.700969
0.699251
0.421151
0.321638
0.712591
0.721073
0.333789
0.728145
0.711755
0.756421
0.317194
0.331725
0.321801
0.727782
0.348357
0.701966
0.735405
0.702229
0.693891
0.706224
0.328385
0.699365
0.816808
0.711525
0.679068
0.326055
0.329537
0.337047
0.732914
0.70899
0.452151
0.728559
0.340131
0.707174
0.70207
0.333199
0.695463
0.70211
0.722792
0.317798
0.323925
0.340987
0.70905
0.720398
0.743006
0.508169
0.706152
0.332116
0.734837
0.557038
0.706305
0.316982
0.813454
0.343006
0.694717
0.336734
0.703763
0.700053
0.328563
0.70857
0.506682
0.557424
0.716286
0.55775
0.707735
0.435739
0.702056
0.70315
0.699096
0.703989
0.484396
0.557336
0.328849
0.703725
0.336602
0.325578
0.342957
0.328262
0.333387
0.318316
0.712048
0.426769
0.321862
0.719407
0.708875
0.699414
0.394986
0.718193
0.72952
0.697261
0.326812
0.681538
0.702304
0.341233
0.324204
0.330459
0.729298
0.502097
0.329732
0.681743
0.309984
0.560334
0.498763
0.32444
0.474491
0.730141
0.342595
0.698205
0.333379
0.598006
0.417563
0.700835
0.415879
0.714334
0.557444
0.690986
0.47051
0.329712
0.701776
0.72157
0.325306
0.324278
0.696112
0.326855
0.725146
0.318343
0.540039
0.335957
0.706093
0.334325
0.714682
0.3252
0.698207
0.706277
0.711261
0.558833
0.328369
0.328148
0.391105
0.701427
0.71473
0.696573
0.658414
0.339377
0.712104
0.342682
0.697649
0.688657
0.423237
0.3548
0.714697
0.703187
0.327231
0.578187
0.703281
0.714216
0.733807
0.334663
0.73517
0.331291
0.713609
0.349217
0.698606
0.697968
0.703849
0.714275
0.361029
0.719299
0.33042
0.319933
0.696428
0.5594
0.608706
0.704392
0.557789
0.332634
0.736722
0.7008
0.711593
0.324189
0.442004
0.719888
0.32157
0.70828
0.699323
0.70085
0.700794
0.369729
0.46449
0.734445
0.329492
0.699546
0.725468
0.482061
0.699427
0.372616
0.694201
0.736677
0.742085
0.700074
0.324351
0.326782
0.704663
0.701296
0.337045
0.366058
0.331275
0.329802
0.322702
0.321282
0.333785
0.334434
0.704754
0.336106
0.316547
0.712392
0.608785
0.557594
0.425558
0.328448
0.706095
0.474425
0.57953
0.714384
0.41171
0.743476
0.670304
0.661555
0.702218
0.325543
0.707996
0.693904
0.311586
0.330971
0.426539
0.69284
0.664964
0.712361
0.69593
0.706703
0.703213
0.363432
0.707538
0.694482
0.70236
0.329955
0.707322
0.68438
0.360008
0.444607
0.327058
0.324705
0.325653
0.651133
0.723826
0.705775
0.329943
0.448538
0.711867
0.319277
0.709818
0.703343
0.700986
0.743377
0.705899
0.339522
0.325214
0.290369
0.642375
0.346706
0.704792
0.293723
0.696131
0.695504
0.706711
0.338367
0.460838
0.4331
0.706101
0.317982
0.330425
0.700319
0.701956
0.701243
0.696119
0.701693
0.721923
0.333917
0.807995
0.713242
0.518292
0.70575
0.711083
0.716254
0.470074
0.449418
0.712058
0.497044
0.703738
0.331949
0.699055
0.700573
0.387735
0.348306
0.702108
0.50896
0.711935
0.710208
0.333668
0.326001
0.555215
0.467717
0.403777
0.700231
0.700619
0.345787
0.700886
0.557085
0.696125
0.334631
0.651538
0.332785
0.699889
0.7104
0.718906
0.70539
0.554387
0.375911
0.381019
0.707625
0.32697
0.683921
0.355443
0.70625
0.332291
0.722529
0.713468
0.558724
0.334695
0.557723
0.559634
0.329597
0.699352
0.316985
0.715113
0.333332
0.319218
0.325644
0.710616
0.70083
0.409217
0.385962