# vtk DataFile Version 1.0
unstructured grid
ascii
DATASET UNSTRUCTURED_GRID
points 13672 float
0.0796578 -0.059106 0
0.00128732 0.00159165 0
0.00227961 -0.00102548 0
0.0791586 -0.0598787 0
-0.0546216 0.01 0
0.000495206 0.025 0
0.0800549 -0.035 0
0.135172 -0.08 0
-0.0546216 -0.0451168 0
0.000495206 -0.0301168 0
0.0800549 -0.0901168 0
0.135172 -0.135117 0
-0.0546216 -0.0451168 -0.00551168
0.000495206 -0.0301168 -0.00551168
0.0800549 -0.0901168 -0.00551168
0.135172 -0.135117 -0.00551168
0.135172 -0.08 -0.00551168
0.0800549 -0.035 -0.00551168
0.000495206 0.025 -0.00551168
-0.0546216 0.01 -0.00551168
0.00128732 0.00159165 -0.00551168
0.00227961 -0.00102548 -0.00551168
0.0791586 -0.0598787 -0.00551168
0.0796578 -0.059106 -0.00551168
0.00165953 -0.000990923 0
0.00119576 -0.000874076 0
0.000866021 -0.000641801 0
0.000645147 -0.000349912 0
0.00052235 -1.7281e-05 0
0.00049972 0.000348016 0
0.000601632 0.000737716 0
0.000861774 0.0011403 0
0.00157235 0.00183217 0
0.00188647 0.00206725 0
0.00222612 0.00230203 0
0.00258713 0.00254351 0
0.00296826 0.00279524 0
0.00337118 0.00305664 0
0.00379785 0.00332658 0
0.00425045 0.00360349 0
0.00473139 0.00388521 0
0.0052432 0.00416895 0
0.0057881 0.00445204 0
0.00636753 0.00473281 0
0.00698281 0.00500961 0
0.00763526 0.00528058 0
0.00832616 0.00554366 0
0.00905691 0.00579603 0
0.00982918 0.00603333 0
0.0106445 0.00625033 0
0.0115038 0.00644128 0
0.0124073 0.00660297 0
0.0133543 0.00673414 0
0.0143444 0.00683382 0
0.0153769 0.00690031 0
0.0164512 0.00693173 0
0.0175666 0.00692547 0
0.0187219 0.00687822 0
0.0199156 0.00678477 0
0.0211454 0.00663864 0
0.0224084 0.00643275 0
0.0237018 0.00616676 0
0.0250249 0.00584739 0
0.026375 0.00547298 0
0.0277479 0.00503752 0
0.0291386 0.00453545 0
0.0305433 0.0039653 0
0.0319572 0.0033256 0
0.0333681 0.00260019 0
0.034775 0.00179799 0
0.0361793 0.000930615 0
0.0375798 3.12222e-06 0
0.0389689 -0.000988429 0
0.0403357 -0.00205109 0
0.041675 -0.00318283 0
0.0429849 -0.00437751 0
0.0442643 -0.00562904 0
0.0455126 -0.00693089 0
0.0467314 -0.00827518 0
0.0479204 -0.00965638 0
0.0490661 -0.0110799 0
0.0501515 -0.0125519 0
0.0511696 -0.0140695 0
0.0521492 -0.0156071 0
0.0531202 -0.0171411 0
0.0540851 -0.0186663 0
0.0550431 -0.0201798 0
0.0559923 -0.0216793 0
0.0569311 -0.0231626 0
0.0578582 -0.0246273 0
0.0587723 -0.0260715 0
0.0596721 -0.027493 0
0.0605563 -0.02889 0
0.0614241 -0.0302609 0
0.0622742 -0.0316042 0
0.063106 -0.0329183 0
0.0639186 -0.034202 0
0.0647113 -0.0354543 0
0.0654835 -0.0366743 0
0.0662345 -0.0378613 0
0.0669642 -0.0390145 0
0.0676726 -0.0401333 0
0.0683597 -0.0412172 0
0.0690246 -0.0422665 0
0.0696662 -0.0432819 0
0.0702841 -0.0442636 0
0.0708793 -0.0452111 0
0.0714538 -0.0461237 0
0.072009 -0.047001 0
0.0725452 -0.0478434 0
0.0730611 -0.0486524 0
0.073556 -0.0494294 0
0.0740291 -0.0501756 0
0.0744812 -0.0508916 0
0.0749138 -0.0515773 0
0.0753285 -0.0522331 0
0.0757266 -0.0528592 0
0.076109 -0.0534564 0
0.0764753 -0.0540264 0
0.0768243 -0.054571 0
0.0771553 -0.0550919 0
0.0774679 -0.0555901 0
0.0777617 -0.0560669 0
0.0780369 -0.056523 0
0.0782958 -0.0569578 0
0.0785421 -0.0573703 0
0.0787786 -0.0577603 0
0.0790073 -0.0581279 0
0.0792295 -0.058474 0
0.0794462 -0.0587995 0
0.0798803 -0.0594162 0
0.0800272 -0.0596588 0
0.0800357 -0.0598891 0
0.0799275 -0.0600784 0
0.0797205 -0.0601773 0
0.0794593 -0.0601051 0
0.0789155 -0.0596491 0
0.0786707 -0.0593963 0
0.0784111 -0.0591319 0
0.0781372 -0.0588542 0
0.0778566 -0.0585548 0
0.0775715 -0.0582308 0
0.0772803 -0.0578828 0
0.0769832 -0.0575099 0
0.0766822 -0.0571097 0
0.0763801 -0.0566796 0
0.0760759 -0.0562196 0
0.0757623 -0.0557337 0
0.0754359 -0.0552232 0
0.0750951 -0.0546879 0
0.0747379 -0.054128 0
0.0743626 -0.0535435 0
0.0739688 -0.0529338 0
0.0735559 -0.0522981 0
0.0731238 -0.0516357 0
0.0726718 -0.050946 0
0.0721991 -0.0502288 0
0.0717046 -0.049484 0
0.0711872 -0.0487117 0
0.0706461 -0.047912 0
0.0700804 -0.0470849 0
0.0694892 -0.0462308 0
0.0688718 -0.0453499 0
0.0682271 -0.0444431 0
0.0675544 -0.043511 0
0.0668527 -0.0425546 0
0.0661215 -0.0415748 0
0.06536 -0.040573 0
0.0645676 -0.0395504 0
0.0637439 -0.0385087 0
0.0628887 -0.0374493 0
0.062002 -0.0363741 0
0.0610838 -0.0352847 0
0.0601345 -0.0341831 0
0.0591547 -0.033071 0
0.0581456 -0.0319502 0
0.0571083 -0.0308224 0
0.0560444 -0.0296893 0
0.0549562 -0.028552 0
0.053845 -0.0274126 0
0.0527113 -0.0262746 0
0.051554 -0.0251427 0
0.0503724 -0.0240222 0
0.0491675 -0.0229164 0
0.047941 -0.0218282 0
0.0466955 -0.0207597 0
0.0454337 -0.0197126 0
0.0441592 -0.0186878 0
0.0428751 -0.0176863 0
0.0415841 -0.0167097 0
0.0402878 -0.0157609 0
0.0389879 -0.0148428 0
0.0376864 -0.0139575 0
0.0363853 -0.013107 0
0.0350871 -0.0122931 0
0.0337942 -0.0115164 0
0.0325095 -0.0107772 0
0.0312357 -0.0100756 0
0.0299758 -0.00941024 0
0.0287337 -0.00877784 0
0.0275126 -0.00817571 0
0.0263139 -0.00760375 0
0.0251376 -0.00706528 0
0.0239829 -0.0065649 0
0.0228537 -0.00609619 0
0.0217522 -0.00565563 0
0.0206795 -0.00524226 0
0.0196364 -0.00485507 0
0.0186233 -0.00449318 0
0.0176408 -0.00415577 0
0.016689 -0.00384204 0
0.0157682 -0.00355115 0
0.0148783 -0.00328218 0
0.0140192 -0.00303468 0
0.0131906 -0.00280795 0
0.0123925 -0.00260016 0
0.0116246 -0.00241012 0
0.0108864 -0.00223769 0
0.0101774 -0.00208212 0
0.00949701 -0.00194206 0
0.00884483 -0.0018163 0
0.0082202 -0.0017039 0
0.00762247 -0.00160391 0
0.00705097 -0.00151528 0
0.006505 -0.00143697 0
0.0059838 -0.00136806 0
0.00548662 -0.00130772 0
0.00501265 -0.00125519 0
0.00456114 -0.00120954 0
0.00413136 -0.00116914 0
0.00372257 -0.00113251 0
0.00333398 -0.00109853 0
0.00296466 -0.00106798 0
0.00261363 -0.0010431 0
-0.052721 -0.0445996 0
-0.0508204 -0.0440823 0
-0.0489199 -0.0435651 0
-0.0470193 -0.0430478 0
-0.0451187 -0.0425306 0
-0.0432181 -0.0420134 0
-0.0413175 -0.0414961 0
-0.039417 -0.0409789 0
-0.0375164 -0.0404616 0
-0.0356158 -0.0399444 0
-0.0337152 -0.0394271 0
-0.0318146 -0.0389099 0
-0.0299141 -0.0383927 0
-0.0280135 -0.0378754 0
-0.0261129 -0.0373582 0
-0.0242123 -0.0368409 0
-0.0223117 -0.0363237 0
-0.0204112 -0.0358065 0
-0.0185106 -0.0352892 0
-0.01661 -0.034772 0
-0.0147094 -0.0342547 0
-0.0128088 -0.0337375 0
-0.0109083 -0.0332202 0
-0.00900769 -0.032703 0
-0.00710711 -0.0321858 0
-0.00520653 -0.0316685 0
-0.00330595 -0.0311513 0
-0.00140537 -0.030634 0
0.00190689 -0.0299614 0
0.00332271 -0.0298498 0
0.00474133 -0.0297825 0
0.00616136 -0.0297597 0
0.0075814 -0.0297814 0
0.00900007 -0.0298477 0
0.010416 -0.0299583 0
0.0118278 -0.0301127 0
0.0132342 -0.0303103 0
0.0146339 -0.0305504 0
0.0160259 -0.0308322 0
0.0174091 -0.0311546 0
0.0187824 -0.0315166 0
0.020145 -0.031917 0
0.0214961 -0.0323546 0
0.0228351 -0.032828 0
0.0241613 -0.0333361 0
0.0254744 -0.0338774 0
0.0267738 -0.0344507 0
0.0280592 -0.0350545 0
0.0293306 -0.0356877 0
0.0305875 -0.0363488 0
0.0318301 -0.0370367 0
0.0330581 -0.0377501 0
0.0342717 -0.0384879 0
0.0354708 -0.0392489 0
0.0366556 -0.0400321 0
0.0378262 -0.0408363 0
0.0389828 -0.0416607 0
0.0401254 -0.0425042 0
0.0412543 -0.0433659 0
0.0423698 -0.0442451 0
0.043472 -0.0451408 0
0.0445612 -0.0460523 0
0.0456375 -0.0469789 0
0.0467013 -0.0479199 0
0.0477529 -0.0488746 0
0.0487923 -0.0498424 0
0.04982 -0.0508227 0
0.0508362 -0.051815 0
0.051841 -0.0528187 0
0.0528348 -0.0538333 0
0.0538178 -0.0548584 0
0.0547903 -0.0558935 0
0.0557524 -0.0569382 0
0.0567045 -0.0579922 0
0.0576467 -0.0590549 0
0.0585792 -0.0601261 0
0.0595024 -0.0612055 0
0.0604163 -0.0622926 0
0.0613212 -0.0633873 0
0.0622174 -0.0644891 0
0.0631049 -0.0655979 0
0.0639841 -0.0667134 0
0.064855 -0.0678353 0
0.0657179 -0.0689633 0
0.0665729 -0.0700974 0
0.0674202 -0.0712372 0
0.06826 -0.0723826 0
0.0690925 -0.0735333 0
0.0699178 -0.0746892 0
0.070736 -0.0758501 0
0.0715473 -0.0770159 0
0.0723518 -0.0781863 0
0.0731498 -0.0793612 0
0.0739412 -0.0805405 0
0.0747264 -0.081724 0
0.0755053 -0.0829116 0
0.0762781 -0.0841033 0
0.0770449 -0.0852987 0
0.0778059 -0.0864979 0
0.0785611 -0.0877007 0
0.0793108 -0.088907 0
0.0814681 -0.0912706 0
0.0828814 -0.0924245 0
0.0842946 -0.0935783 0
0.0857079 -0.0947322 0
0.0871211 -0.095886 0
0.0885344 -0.0970399 0
0.0899476 -0.0981937 0
0.0913609 -0.0993476 0
0.0927741 -0.100501 0
0.0941874 -0.101655 0
0.0956006 -0.102809 0
0.0970139 -0.103963 0
0.0984272 -0.105117 0
0.0998404 -0.106271 0
0.101254 -0.107424 0
0.102667 -0.108578 0
0.10408 -0.109732 0
0.105493 -0.110886 0
0.106907 -0.11204 0
0.10832 -0.113194 0
0.109733 -0.114348 0
0.111146 -0.115501 0
0.11256 -0.116655 0
0.113973 -0.117809 0
0.115386 -0.118963 0
0.116799 -0.120117 0
0.118213 -0.121271 0
0.119626 -0.122424 0
0.121039 -0.123578 0
0.122452 -0.124732 0
0.123866 -0.125886 0
0.125279 -0.12704 0
0.126692 -0.128194 0
0.128105 -0.129348 0
0.129519 -0.130501 0
0.130932 -0.131655 0
0.132345 -0.132809 0
0.133758 -0.133963 0
0.135172 -0.133216 0
0.135172 -0.131316 0
0.135172 -0.129415 0
0.135172 -0.127514 0
0.135172 -0.125614 0
0.135172 -0.123713 0
0.135172 -0.121813 0
0.135172 -0.119912 0
0.135172 -0.118012 0
0.135172 -0.116111 0
0.135172 -0.11421 0
0.135172 -0.11231 0
0.135172 -0.110409 0
0.135172 -0.108509 0
0.135172 -0.106608 0
0.135172 -0.104708 0
0.135172 -0.102807 0
0.135172 -0.100906 0
0.135172 -0.0990058 0
0.135172 -0.0971052 0
0.135172 -0.0952046 0
0.135172 -0.0933041 0
0.135172 -0.0914035 0
0.135172 -0.0895029 0
0.135172 -0.0876023 0
0.135172 -0.0857017 0
0.135172 -0.0838012 0
0.135172 -0.0819006 0
0.133758 -0.0788462 0
0.132345 -0.0776923 0
0.130932 -0.0765385 0
0.129519 -0.0753846 0
0.128105 -0.0742308 0
0.126692 -0.0730769 0
0.125279 -0.0719231 0
0.123866 -0.0707692 0
0.122452 -0.0696154 0
0.121039 -0.0684615 0
0.119626 -0.0673077 0
0.118213 -0.0661538 0
0.116799 -0.065 0
0.115386 -0.0638462 0
0.113973 -0.0626923 0
0.11256 -0.0615385 0
0.111146 -0.0603846 0
0.109733 -0.0592308 0
0.10832 -0.0580769 0
0.106907 -0.0569231 0
0.105493 -0.0557692 0
0.10408 -0.0546154 0
0.102667 -0.0534615 0
0.101254 -0.0523077 0
0.0998404 -0.0511538 0
0.0984272 -0.05 0
0.0970139 -0.0488462 0
0.0956006 -0.0476923 0
[...]
CELL_DATA 13116
SCALARS rho float
LOOKUP_TABLE default
0.5977
0.5977
0.5977
0.5977
0.5977
0.68952
0.493802
0.5977
0.5977
0.5977
0.434481
0.5977
0.5977
0.597722
0.597699
0.689706
0.5977
0.5977
0.672563
0.416675
0.5977
0.5977
0.5977
0.5977
0.5977
0.5977
0.5977
0.5977
0.5977
0.5977
0.689826
0.5977
0.5977
0.5977
0.50958
0.5977
0.5977
0.597701
0.689026
0.597675
0.686481
0.5977
0.5977
0.597699
0.594869
0.640834
0.5977
0.58987
0.5977
0.5977
0.5977
0.5977
0.561829
0.5977
0.5977
0.5977
0.597698
0.5977
0.5977
0.5977
0.597721
0.5977
0.5977
0.689295
0.689362
0.593974
0.685928
0.5977
0.655202
0.689727
0.5977
0.5977
0.5977
0.597714
0.689921
0.597242
0.5977
0.5977
0.4479
0.5977
0.5977
0.5977
0.5977
0.597703
0.5977
0.5977
0.525017
0.5977
0.5977
0.335975
0.5977
0.5977
0.5977
0.5977
0.5977
0.5977
0.5977
0.689623
0.689956
0.5977
0.5977
0.5977
0.686944
0.5977
0.5977
0.5977
0.5977
0.5977
0.5977
0.5977
0.5977
0.5977
0.5977
0.5977
0.5977
0.685011
0.572643
0.5977
0.5977
0.597548
0.5977
0.5977
0.622127
0.5977
0.5977
0.5977
0.539028
0.5977
0.5977
0.5977
0.5977
0.5977
0.5977
0.5977
0.5977
0.5977
0.551655
0.597299
0.5977
0.595949
0.5977
0.5977
0.5977
0.5977
0.5977
0.597699
0.503161
0.5977
0.5977
0.5977
0.5977
0.597628
0.602216
0.534295
0.5977
0.5977
0.5977
0.5977
0.689201
0.5977
0.5977
0.436084
0.5977
0.5977
0.5977
0.5977
0.5977
0.5977
0.503579
0.5977
0.5977
0.545947
0.597702
0.5977
0.685922
0.5977
0.5977
0.5977
0.5977
0.690415
0.383079
0.5977
0.5977
0.5977
0.690828
0.5977
0.53345
0.686976
0.5977
0.5977
0.5977
0.5977
0.689933
0.5977
0.5977
0.690124
0.5977
0.687316
0.5977
0.5977
0.5977
0.5977
0.5977
0.597705
0.5977
0.597701
0.5977
0.5977
0.597698
0.392201
0.595847
0.687872
0.5977
0.346302
0.338967
0.545533
0.5977
0.690136
0.5977
0.5977
0.597699
0.687057
0.5977
0.378934
0.5977
0.5977
0.5977
0.5977
0.687371
0.5977
0.5977
0.5977
0.689009
0.5977
0.68956
0.597701
0.690012
0.5977
0.5977
0.5977
0.687936
0.690202
0.552762
0.689464
0.5977
0.5977
0.597701
0.5977
0.689446
0.469157
0.5977
0.597703
0.5977
0.689335
0.5977
0.5977
0.5977
0.426339
0.5977
0.5977
0.597698
0.5977
0.5977
0.5977
0.483714
0.593142
0.563596
0.5977
0.5977
0.467491
0.5977
0.5977
0.679243
0.5977
0.5977
0.664689
0.5977
0.689324
0.596928
0.430221
0.505891
0.5977
0.5977
0.5977
0.5977
0.5977
0.5977
0.5977
0.579292
0.5977
0.5977
0.50771
0.407952
0.552383
0.5977
0.5977
0.5977
0.5977
0.5977
0.458262
0.687644
0.5977
0.5977
0.597699
0.689274
0.5977
0.686674
0.54487
0.690092
0.5977
0.5977
0.5977
0.597701
0.5977
0.5977
0.688135
0.59772
0.689001
0.5977
0.5977
0.354025
0.5977
0.5977
0.553097
0.5977
0.5977
0.5977
0.5977
0.5977
0.527741
0.594911
0.5977
0.597721
0.5977
0.5977
0.5977
0.5977
0.5977
0.5977
0.482979
0.5977
0.5977
0.689731
0.5977
0.5977
0.5977
0.5977
0.5977
0.526023
0.5977
0.5977
0.5977
0.549087
0.526967
0.5977
0.5977
0.5977
0.5977
0.518963
0.5977
0.597701
0.5977
0.489818
0.5977
0.594328
0.5977
0.643405
0.5977
0.5977
0.336072
0.597685
0.689073
0.689555
0.597611
0.5977
0.5977
0.5977
0.597703
0.384075
0.689489
0.377296
0.5977
0.5977
0.5977
0.5977
0.5977
0.5977
0.514457
0.5977
0.5977
0.5977
0.5977
0.684502
0.5977
0.5977
0.5977
0.49885
0.5977
0.5977
0.5977
0.5977
0.686624
0.5977
0.5977
0.5977
0.5977
0.5977
0.5977
0.5977
0.5977
0.688901
0.5977
0.5977
0.5977
0.5977
0.5977
0.5977
0.556745
0.687393
0.682837
0.5977
0.388377
0.343063
0.512077
0.5977
0.592107
0.5977
0.686225
0.592844
0.5977
0.335961
0.689274
0.5977
0.5977
0.5977
0.5977
0.5977
0.336249
0.510844
0.336152
0.5977
0.500271
0.380283
0.5977
0.5977
0.378266
0.5977
0.5977
0.5977
0.5977
0.5977
0.5977
0.597697
0.33582
0.597697
0.593327
0.5977
0.5977
0.5977
0.585798
0.5977
0.5977
0.5977
0.5977
0.5977
0.5977
0.496581
0.689083
0.5977
0.5977
0.690038
0.5977
0.574332
0.5977
0.5977
0.5977
0.5977
0.5977
0.5977
0.5977
0.408522
0.597699
0.597716
0.5977
0.597699
0.59577
0.597702
0.597721
0.5977
0.5977
0.5977
0.5977
0.5977
0.5977
0.5977
0.582939
0.5977
0.5977
0.5977
0.5977
0.5977
0.5977
0.591432
0.5977
0.5977
0.5977
0.564516
0.5977
0.5977
0.690052
0.5977
0.5977
0.5977
0.365878
0.5977
0.5977
0.5977
0.5977
0.5977
0.5977
0.5977
0.5977
0.5977
0.5977
0.5977
0.5977
0.5977
0.686937
0.34357
0.592641
0.5977
0.597699
0.337661
0.5977
0.597702
0.5977
0.5977
0.5977
0.347929
0.689421
0.597701
0.5977
0.5977
0.574046
0.5977
0.336179
0.336076
0.597699
0.358709
0.5977
0.597662
0.5977
0.5977
0.5977
0.5977
0.68694
0.5977
0.3361
0.384927
0.5977
0.5977
0.5977
0.5977
0.5977
0.5977
0.516704
0.5977
0.689717
0.5977
0.341097
0.5977
0.5977
0.5977
0.688151
0.5977
0.5977
0.5977
0.5977
0.597701
0.5977
0.5977
0.5977
0.5977
0.684922
0.5977
0.5977
0.5977
0.597701
0.584848
0.566231
0.597699
0.689118
0.5977
0.336167
0.5977
0.5977
0.68949
0.5977
0.478959
0.5977
0.689211
0.5977
0.470385
0.5977
0.339466
0.689686
0.5977
0.690311
0.597703
0.5977
0.5977
0.5977
0.5977
0.5977
0.5977
0.5977
0.5977
0.566327
0.597329
0.688573
0.596671
0.687994
0.5977
0.689134
0.33666
0.5977
0.5977
0.5977
0.689031
0.5977
0.674712
0.5977
0.690084
0.5977
0.5977
0.434776
0.5977
0.5977
0.52147
0.688399
0.5977
0.540036
0.5977
0.5977
0.597703
0.686688
0.593528
0.5977
0.597697
0.457591
0.5977
0.5977
0.5977
0.576263
0.429599
0.5977
0.595479
0.5977
0.5977
0.687991
0.428761
0.5977
0.5977
0.5977
0.5977
0.5977
0.5977
0.688106
0.5977
0.5977
0.5977
0.5977
0.686469
0.5977
0.5977
0.5977
0.597701
0.5977
0.5977
0.5977
0.5977
0.5977
0.5977
0.688649
0.5977
0.5977
0.596242
0.5977
0.5977
0.5977
0.5977
0.5977
0.597712
0.688713
0.5977
0.5977
0.689432
0.5977
0.5977
0.5977
0.5977
0.5977
0.5977
0.5977
0.5977
0.597717
0.557934
0.5977
0.59485
0.5977
0.347344
0.5977
0.5977
0.5977
0.5977
0.5977
0.386171
0.5977
0.5977
0.407594
0.5977
0.5977
0.59769
0.5977
0.5977
0.5977
0.5977
0.5977
0.5977
0.68931
0.5977
0.346342
0.5977
0.5977
0.5977
0.597157
0.68886
0.5977
0.5977
0.395791
0.5977
0.5977
0.5977
0.5977
0.689575
0.5977
0.5977
0.5977
0.5977
0.5977
0.336009
0.336136
0.478793
0.373966
0.5977
0.5977
0.689138
0.5977
0.39359
0.662179
0.5977
0.597714
0.5977
0.5977
0.5977
0.687629
0.5977
0.5977
0.383153
0.335971
0.583019
0.5977
0.347775
0.575965
0.688946
0.5977
0.336167
0.5977
0.5977
0.5977
0.689508
0.68849
0.577237
0.597717
0.465562
0.5977
0.5977
0.5977
0.5977
0.5977
0.5977
0.686112
0.5977
0.336119
0.5977
0.335756
0.689549
0.5977
0.689251
0.5977
0.336177
0.5977
0.689018
0.5977
0.597714
0.5977
0.689495
0.5977
0.5977
0.5977
0.635211
0.5977
0.379955
0.689301
0.68886
0.5977
0.5977
0.556332
0.5977
0.644233
0.59442
0.596245
0.597708
0.336112
0.689252
0.5977
0.335852
0.5977
0.5977
0.5977
0.5977
0.5977
0.5977
0.5977
0.5977
0.5977
0.5977
0.338475
0.5977
0.689116
0.597699
0.5977
0.597648
0.5977
0.5977
0.5977
0.5977
0.686718
0.492216
0.5977
0.597698
0.5977
0.688533
0.343732
0.5977
0.5977
0.5977
0.5977
0.634187
0.5977
0.597704
0.597696
0.5977
0.5977
0.5977
0.5977
0.5977
0.689631
0.5977
0.5977
0.5977
0.5977
0.5977
0.680328
0.5977
0.336209
0.5977
0.5977
0.5977
0.5977
0.686819
0.5977
0.5977
0.5977
0.5977
0.5977
0.574787
0.689399
0.5977
0.5977
0.68925
0.5977
0.5977
0.5977
0.5977
0.597693
0.597644
0.5977
0.5977
0.5977
0.597698
0.5977
0.546824
0.554034
0.433327
0.5977
0.5977
0.5977
0.5977
0.5977
0.597706
0.5977
0.689483
0.689036
0.5977
0.689681
0.5977
0.5977
0.5977
0.5977
0.597707
0.689904
0.686658
0.5977
0.67961
0.5977
0.5977
0.597701
0.597699
0.5977
0.336205
0.67539
0.465541
0.5977
0.579974
0.5977
0.5977
0.5977
0.5977
0.5977
0.5977
0.5977
0.690208
0.401584
0.5977
0.5977
0.5977
0.5977
0.689415
0.5977
0.689036
0.5977
0.5977
0.5977
0.671988
0.5977
0.336204
0.5977
0.597703
0.561379
0.686518
0.556645
0.5977
0.5977
0.5977
0.596199
0.33621
0.597702
0.554905
0.5977
0.689407
0.597156
0.689183
0.5977
0.5977
0.597712
0.5977
0.5977
0.5977
0.5977
0.5977
0.685394
0.686673
0.487537
0.5977
0.5977
0.491482
0.5977
0.597718
0.5977
0.5977
0.341012
0.597109
0.5977
0.5977
0.5977
0.509467
0.50874
0.5977
0.597704
0.592806
0.689201
0.5977
0.5977
0.5977
0.5977
0.5977
0.390719
0.5977
0.444376
0.5977
0.5977
0.5977
0.595127
0.5977
0.5977
0.592126
0.5977
0.5977
0.5977
0.687036
0.5977
0.5977
0.597158
0.429866
0.5977
0.688772
0.5977
0.5977
0.5977
0.689105
0.5977
0.5977
0.642972
0.5977
0.5977
0.481016
0.5977
0.5977
0.597702
0.5977
0.5977
0.688432
0.5977
0.5977
0.341298
0.5977
0.5977
0.58522
0.5977
0.554484
0.5977
0.522551
0.686337
0.373392
0.5977
0.5977
0.338552
0.5977
0.597699
0.5977
0.68825
0.5977
0.5977
0.5977
0.5977
0.5977
0.5977
0.336846
0.567585
0.480523
0.597699
0.5977
0.5977
0.5977
0.5977
0.689432
0.5977
0.597716
0.5977
0.5977
0.688406
0.451079
0.689118
0.5977
0.5977
0.597701
0.597699
0.5977
0.5977
0.5977
0.5977
0.688833
0.5977
0.5977
0.5967
0.5977
0.336235
0.689228
0.5977
0.5977
0.5977
0.5977
0.5977
0.5977
0.5977
0.5977
0.48188
0.5977
0.5977
0.5977
0.597701
0.5977
0.5977
0.5977
0.597699
0.5977
0.5977
0.690059
0.5977
0.469719
0.5977
0.5977
0.5977
0.5977
0.5977
0.5977
0.5977
0.595386
0.5977
0.688911
0.5977
0.5977
0.5977
0.597702
0.5977
0.5977
0.5977
0.5977
0.688835
0.5977
0.5977
0.557734
0.5977
0.530218
0.5977
0.5977
0.688914
0.5977
0.5977
0.597715
0.5977
0.597706
0.687789
0.5977
0.5977
0.5977
0.398884
0.5977
0.5977
0.5977
0.5977
0.5977
0.690209
0.5977
0.5977
0.5977
0.5977
0.689331
0.677881
0.5977
0.597699
0.5977
0.5977
0.5977
0.5977
0.5977
0.5977
0.5977
0.688648
0.5977
0.5977
0.5977
0.5977
0.689164
0.68873
0.5977
0.5977
0.689331
0.5977
0.5977
0.489368
0.5977
0.507661
0.5977
0.5977
0.3369
0.338118
0.59771
0.687283
0.5977
0.5977
0.685974
0.5977
0.5977
0.364467
0.5977
0.5977
0.689676
0.596245
0.5977
0.689307
0.5977
0.690124
0.688291
0.5977
0.5977
0.5977
0.5977
0.5977
0.5977
0.5977
0.5977
0.402448
0.5977
0.5977
0.68625
0.596674
0.5977
0.5977
0.687319
0.39985
0.596455
0.5977
0.554767
0.5977
0.688982
0.372149
0.5977
0.363316
0.5977
0.5977
0.5977
0.5977
0.5977
0.5977
0.520085
0.453003
0.5977
0.688331
0.5977
0.5977
0.592557
0.521209
0.59768
0.5977
0.5977
0.5977
0.5977
0.5977
0.595029
0.5977
0.5977
0.5977
0.5977
0.5977
0.392434
0.689192
0.68916
0.597715
0.5977
0.5977
0.5977
0.5977
0.5977
0.5977
0.5977
0.5977
0.5977
0.350163
0.689922
0.5977
0.336608
0.5977
0.58717
0.612766
0.5977
0.5977
0.597702
0.5977
0.5977
0.5977
0.5977
0.594704
0.5977
0.689858
0.683477
0.5977
0.5977
0.5977
0.688998
0.5977
0.674687
0.5977
0.5977
0.5977
0.597711
0.5977
0.686612
0.689679
0.5977
0.688149
0.5977
0.689485
0.577864
0.592548
0.336129
0.597703
0.477331
0.596495
0.5977
0.5977
0.593685
0.5977
0.5977
0.5977
0.3366
0.689535
0.689912
0.59585
0.534453
0.597703
0.5977
0.689427
0.5977
0.5977
0.512489
0.401818
0.686965
0.400374
0.5977
0.5977
0.602694
0.338341
0.5977
0.530254
0.5977
0.549671
0.5977
0.597701
0.686606
0.5977
0.370063
0.597699
0.5977
0.5977
0.336435
0.557752
0.5977
0.689889
0.597704
0.42479
0.5977
0.5977
0.5977
0.5977
0.5977
0.5977
0.5977
0.5977
0.5977
0.5977
0.461269
0.5977
0.5973
0.5977
0.5977
0.690289
0.338824
0.5977
0.5977
0.597702
0.688966
0.392721
0.59751
0.5977
0.5977
0.5977
0.5977
0.386154
0.5977
0.686603
0.689974
0.5977
0.5977
0.5977
0.5977
0.5977
0.689858
0.689122
0.5977
0.5977
0.689979
0.5977
0.5977
0.5977
0.5974
0.5977
0.690561
0.597701
0.686991
0.5977
0.347959
0.5977
0.5977
0.336064
0.5977
0.59768
0.597716
0.5977
0.678135
0.5977
0.5977
0.5977
0.597701
0.5977
0.59772
0.690548
0.5977
0.686893
0.555066
0.5977
0.686791
0.5977
0.687195
0.5977
0.689469
0.5977
0.5977
0.5977
0.5977
0.424775
0.5977
0.595217
0.342928
0.5977
0.5977
0.5977
0.5977
0.689799
0.5977
0.68917
0.5977
0.59771
0.5977
0.5977
0.336196
0.686533
0.5977
0.5977
0.5977
0.5977
0.5977
0.5977
0.5977
0.5977
0.690765
0.5977
0.5977
0.5977
0.5977
0.5977
0.5977
0.5977
0.443645
0.5977
0.597701
0.5977
0.5977
0.597492
0.5977
0.690466
0.5977
0.5977
0.5977
0.45332
0.595119
0.5977
0.5977
0.5977
0.5977
0.5977
0.688856
0.36982
0.597719
0.5977
0.5977
0.5977
0.594432
0.597701
0.683949
0.5977
0.5977
0.5977
0.5977
0.5977
0.597717
0.5977
0.597609
0.5977
0.673113
0.5977
0.5977
0.5977
0.5977
0.5977
0.5977
0.5977
0.567995
0.5977
0.685108
0.597636
0.5977
0.5977
0.597699
0.557866
0.5977
0.5977
0.528021
0.35846
0.5977
0.5977
0.336003
0.5977
0.59304
0.5977
0.467798
0.5977
0.5977
0.5977
0.5977
0.404151
0.5977
0.565344
0.336012
0.689213
0.336361
0.5977
0.5977
0.596978
0.473686
0.5977
0.5977
0.519747
0.5977
0.5977
0.5977
0.5977
0.5977
0.5977
0.5977
0.507573
0.5977
0.393369
0.689344
0.689448
0.5977
0.5977
0.5977
0.5977
0.689244
0.5977
0.5977
0.5977
0.396833
0.5977
0.597405
0.5977
0.5977
0.5977
0.5977
0.5977
0.5977
0.5977
0.5977
0.597708
0.597723
0.597713
0.5977
0.5977
0.597701
0.451299
0.5977
0.68936
0.5977
0.5977
0.5977
0.5977
0.336061
0.5977
0.5977
0.5977
0.5977
0.597698
0.5977
0.68796
0.5977
0.5977
0.5977
0.690003
0.5977
0.5977
0.5977
0.5977
0.523135
0.5977
0.5977
0.5977
0.5977
0.597699
0.5977
0.409413
0.688887
0.5977
0.37929
0.5977
0.5977
0.5977
0.5977
0.5977
0.5977
0.597702
0.5977
0.560843
0.5977
0.597676
0.424536
0.5977
0.689061
0.5977
0.396308
0.338577
0.5977
0.5977
0.683987
0.5977
0.339927
0.5977
0.684456
0.5977
0.5977
0.5977
0.5977
0.689669
0.5977
0.336215
0.496301
0.5977
0.371256
0.5977
0.5977
0.689077
0.646436
0.5977
0.347301
0.55881
0.404424
0.68827
0.5977
0.336337
0.597698
0.573469
0.670348
0.579794
0.556946
0.5977
0.5977
0.5977
0.5977
0.5977
0.5977
0.475919
0.5977
0.5977
0.5977
0.5977
0.5977
0.461145
0.335752
0.5977
0.423647
0.425587
0.5977
0.5977
0.594774
0.5977
0.5977
0.5977
0.5977
0.686278
0.689318
0.460331
0.5977
0.5977
0.5977
0.5977
0.5977
0.5977
0.591214
0.5977
0.5977
0.5977
0.5977
0.5977
0.5977
0.5977
0.5977
0.5977
0.687633
0.641074
0.5977
0.555962
0.5977
0.5977
0.5977
0.547927
0.689785
0.5977
0.5977
0.5977
0.606269
0.596857
0.5977
0.5977
0.5977
0.597702
0.527931
0.5977
0.464353
0.5977
0.45302
0.461358
0.5977
0.5977
0.5977
0.513794
0.5977
0.5977
0.337285
0.5977
0.5977
0.597703
0.597698
0.597701
0.5977
0.545763
0.5977
0.5977
0.5977
0.5977
0.5977
0.5977
0.336005
0.5955
0.5977
0.5977
0.685844
0.686117
0.5977
0.336135
0.5977
0.5977
0.5977
0.689235
0.67943
0.336293
0.5977
0.595747
0.5977
0.5977
0.597703
0.336714
0.365725
0.597701
0.5977
0.5977
0.5977
0.336218
0.5977
0.5977
0.5977
0.5977
0.597707
0.5977
0.689296
0.5977
0.597723
0.5977
0.686768
0.5977
0.5977
0.5977
0.5977
0.336477
0.387067
0.597314
0.357744
0.336601
0.5977
0.5977
0.57571
0.5977
0.567753
0.672816
0.5977
0.5977
0.689614
0.5977
0.690175
0.5977
0.39173
0.5977
0.689398
0.5977
0.5977
0.5977
0.5977
0.5977
0.690391
0.452211
0.594087
0.5977
0.688671
0.5977
0.514932
0.5977
0.352316
0.347974
0.5977
0.5977
0.5977
0.467371
0.597702
0.5977
0.5977
0.597706
0.5977
0.336001
0.5977
0.5977
0.5977
0.5977
0.597699
0.688948
0.597718
0.5977
0.595384
0.5977
0.336108
0.5977
0.5977
0.5977
0.597701
0.5977
0.5977
0.5977
0.5977
0.597701
0.5977
0.690856
0.680612
0.340883
0.5977
0.350355
0.5977
0.592503
0.5977
0.5977
0.5977
0.5977
0.5977
0.335902
0.5977
0.5977
0.5977
0.5977
0.399745
0.5977
0.5977
0.5977
0.469748
0.5977
0.687969
0.5977
0.597698
0.5977
0.5977
0.336229
0.5977
0.5977
0.5977
0.556349
0.336693
0.5977
0.5977
0.5977
0.5977
0.5977
0.69043
0.5977
0.5977
0.396342
0.5977
0.5977
0.5977
0.5977
0.5977
0.468401
0.5977
0.5977
0.5977
0.5977
0.5977
0.5977
0.5977
0.614319
0.597698
0.5977
0.5977
0.5977
0.483169
0.498807
0.5977
0.5977
0.5977
0.5977
0.5977
0.5977
0.33603
0.5977
0.684977
0.5977
0.493205
0.5977
0.5977
0.5977
0.5977
0.5977
0.5977
0.597698
0.5977
0.5977
0.562392
0.5977
0.557736
0.597701
0.5977
0.689984
0.686486
0.677827
0.5977
0.5977
0.682416
0.593002
0.685689
0.597699
0.365693
0.5977
0.5977
0.336122
0.479609
0.5977
0.5977
0.597523
0.5977
0.5977
0.5977
0.5977
0.5977
0.5977
0.689305
0.5977
0.5977
0.686607
0.5977
0.597699
0.394114
0.5977
0.5977
0.336248
0.5977
0.5977
0.689376
0.5977
0.552042
0.5977
0.5977
0.5977
0.688038
0.597698
0.5977
0.5977
0.5977
0.5977
0.5977
0.688614
0.5977
0.5977
0.356627
0.5977
0.5977
0.5977
0.5977
0.68938
0.359955
0.5977
0.466495
0.5977
0.5977
0.68542
0.5977
0.5977
0.372845
0.602738
0.5977
0.5977
0.670603
0.590875
0.5977
0.5977
0.5977
0.5977
0.5977
0.5977
0.5977
0.5977
0.5977
0.5977
0.5977
0.5977
0.5977
0.5977
0.5977
0.5977
0.689467
0.5977
0.5977
0.5977
0.597698
0.5977
0.338429
0.5977
0.5977
0.68966
0.5977
0.5977
0.5977
0.5977
0.5977
0.339347
0.471762
0.687938
0.682509
0.5977
0.5977
0.678719
0.33599
0.5977
0.5977
0.5977
0.5977
0.5977
0.5977
0.465125
0.59639
0.597702
0.5977
0.5977
0.5977
0.5977
0.5977
0.597698
0.5977
0.5977
0.5977
0.5977
0.5977
0.5977
0.5977
0.5977
0.5977
0.499524
0.5977
0.5977
0.5977
0.5977
0.5977
0.5977
0.5977
0.597403
0.5977
0.5977
0.336131
0.5977
0.597699
0.557527
0.5977
0.5977
0.549181
0.5977
0.341573
0.682227
0.5977
0.5977
0.5977
0.5977
0.5977
0.688382
0.5977
0.5977
0.597698
0.5977
0.688549
0.573819
0.373699
0.5977
0.5977
0.5977
0.5977
0.690036
0.5977
0.5977
0.5977
0.5977
0.688724
0.5977
0.341065
0.684972
0.5977
0.5977
0.5977
0.571488
0.5977
0.59762
0.5977
0.5977
0.5977
0.379631
0.5977
0.5977
0.5977
0.5977
0.686437
0.5977
0.5977
0.597702
0.5977
0.5977
0.5977
0.5977
0.5977
0.622563
0.5977
0.686941
0.688846
0.596704
0.5977
0.5977
0.5977
0.5977
0.59771
0.404125
0.5977
0.5977
0.5977
0.689903
0.5977
0.5977
0.336276
0.5977
0.5977
0.5977
0.5977
0.5977
0.5977
0.5977
0.5977
0.5977
0.5977
0.5977
0.340278
0.5977
0.5977
0.5977
0.5977
0.5977
0.5977
0.5977
0.5977
0.336155
0.395865
0.689186
0.5977
0.5977
0.597701
0.5977
0.5977
0.597703
0.689158
0.5977
0.336445
0.5977
0.336365
0.597702
0.5977
0.5977
0.5977
0.688905
0.5977
0.5977
0.5977
0.367149
0.5977
0.5977
0.597703
0.597708
0.5977
0.5977
0.688881
0.336331
0.55752
0.689535
0.416608
0.5977
0.5977
0.5977
0.336287
0.496486
0.597698
0.5977
0.591921
0.5977
0.5977
0.5977
0.5977
0.5977
0.5977
0.335993
0.5977
0.349249
0.5977
0.399943
0.5977
0.5977
0.5977
0.5977
0.485564
0.689564
0.592557
0.40463
0.5977
0.5977
0.5977
0.5977
0.597698
0.5977
0.689162
0.5977
0.5977
0.5977
0.5977
0.5977
0.38781
0.5977
0.689543
0.5977
0.336432
0.5977
0.5977
0.5977
0.5977
0.5977
0.5977
0.5977
0.5977
0.5977
0.5977
0.5977
0.5977
0.5977
0.5977
0.353288
0.5977
0.5977
0.380712
0.5977
0.5977
0.5977
0.5977
0.5977
0.5977
0.5977
0.5977
0.597699
0.41835
0.5977
0.364636
0.5977
0.5977
0.413239
0.597703
0.689428
0.5977
0.5977
0.5977
0.5977
0.5977
0.5977
0.5977
0.5977
0.688802
0.5977
0.5977
0.5977
0.5977
0.5977
0.686172
0.5977
0.597718
0.5977
0.5977
0.5977
0.5977
0.341142
0.5977
0.5977
0.5977
0.5977
0.5977
0.5977
0.5977
0.5977
0.434624
0.5977
0.336157
0.5977
0.5977
0.673633
0.5977
0.5977
0.5977
0.5977
0.548805
0.5977
0.5977
0.5977
0.597719
0.579211
0.5977
0.5977
0.5977
0.650315
0.687659
0.5977
0.5977
0.689768
0.5977
0.551072
0.5977
0.5977
0.5977
0.5977
0.5977
0.554475
0.5977
0.5977
0.5977
0.5977
0.5977
0.5977
0.686231
0.5977
0.68863
0.5977
0.416205
0.68497
0.597701
0.5977
0.425695
0.336098
0.580352
0.5977
0.336512
0.597711
0.5977
0.5977
0.468424
0.5977
0.616144
0.5977
0.687748
0.5977
0.563388
0.5977
0.5977
0.5977
0.590886
0.597702
0.5977
0.597707
0.5977
0.5977
0.338131
0.5977
0.5977
0.5977
0.358509
0.689096
0.5977
0.5977
0.495083
0.5977
0.5977
0.336347
0.5977
0.5977
0.597698
0.5977
0.5977
0.5977
0.5977
0.5977
0.592283
0.5977
0.336274
0.5977
0.5977
0.5977
0.5977
0.597701
0.5977
0.363246
0.5977
0.689688
0.5977
0.5977
0.5977
0.5977
0.5977
0.5977
0.5977
0.5977
0.5977
0.350197
0.56039
0.5977
0.5977
0.5977
0.5977
0.5977
0.5977
0.5977
0.5977
0.5977
0.5977
0.353344
0.336117
0.5977
0.597701
0.557578
0.5977
0.5977
0.5977
0.5977
0.5977
0.5977
0.5977
0.349614
0.5977
0.597702
0.5977
0.5977
0.340947
0.597641
0.597717
0.5977
0.5977
0.5977
0.5977
0.336805
0.4009
0.5977
0.5977
0.689249
0.5977
0.345297
0.5977
0.339566
0.5977
0.602425
0.5977
0.413598
0.5977
0.689441
0.5977
0.5977
0.5977
0.597702
0.688941
0.5977
0.5977
0.5977
0.420374
0.5977
0.5977
0.55721
0.493641
0.5977
0.597702
0.5977
0.5977
0.5977
0.68979
0.684646
0.5977
0.5977
0.597701
0.5977
0.689537
0.584133
0.33617
0.5977
0.5977
0.5977
0.337386
0.689539
0.5977
0.5977
0.5977
0.597699
0.5977
0.5977
0.476113
0.689744
0.5977
0.449619
0.686661
0.5977
0.5977
0.5977
0.5977
0.5977
0.5977
0.41744
0.687414
0.5977
0.5977
0.335849
0.689441
0.5977
0.5977
0.5977
0.5977
0.592378
0.5977
0.5977
0.564663
0.5977
0.5977
0.59698
0.689295
0.5977
0.593226
0.597701
0.596884
0.5977
0.5977
0.5977
0.59772
0.415693
0.5977
0.5977
0.5977
0.691105
0.5977
0.5977
0.5977
0.5977
0.688887