# vtk DataFile Version 1.0
unstructured grid
ascii
DATASET UNSTRUCTURED_GRID
points 13672 float
0.0796578 -0.059106 0
0.00128732 0.00159165 0
0.00227961 -0.00102548 0
0.0791586 -0.0598787 0
-0.0546216 0.01 0
0.000495206 0.025 0
0.0800549 -0.035 0
0.135172 -0.08 0
-0.0546216 -0.0451168 0
0.000495206 -0.0301168 0
0.0800549 -0.0901168 0
0.135172 -0.135117 0
-0.0546216 -0.0451168 -0.00551168
0.000495206 -0.0301168 -0.00551168
0.0800549 -0.0901168 -0.00551168
0.135172 -0.135117 -0.00551168
0.135172 -0.08 -0.00551168
0.0800549 -0.035 -0.00551168
0.000495206 0.025 -0.00551168
-0.0546216 0.01 -0.00551168
0.00128732 0.00159165 -0.00551168
0.00227961 -0.00102548 -0.00551168
0.0791586 -0.0598787 -0.00551168
0.0796578 -0.059106 -0.00551168
0.00165953 -0.000990923 0
0.00119576 -0.000874076 0
0.000866021 -0.000641801 0
0.000645147 -0.000349912 0
0.00052235 -1.7281e-05 0
0.00049972 0.000348016 0
0.000601632 0.000737716 0
0.000861774 0.0011403 0
0.00157235 0.00183217 0
0.00188647 0.00206725 0
0.00222612 0.00230203 0
0.00258713 0.00254351 0
0.00296826 0.00279524 0
0.00337118 0.00305664 0
0.00379785 0.00332658 0
0.00425045 0.00360349 0
0.00473139 0.00388521 0
0.0052432 0.00416895 0
0.0057881 0.00445204 0
0.00636753 0.00473281 0
0.00698281 0.00500961 0
0.00763526 0.00528058 0
0.00832616 0.00554366 0
0.00905691 0.00579603 0
0.00982918 0.00603333 0
0.0106445 0.00625033 0
0.0115038 0.00644128 0
0.0124073 0.00660297 0
0.0133543 0.00673414 0
0.0143444 0.00683382 0
0.0153769 0.00690031 0
0.0164512 0.00693173 0
0.0175666 0.00692547 0
0.0187219 0.00687822 0
0.0199156 0.00678477 0
0.0211454 0.00663864 0
0.0224084 0.00643275 0
0.0237018 0.00616676 0
0.0250249 0.00584739 0
0.026375 0.00547298 0
0.0277479 0.00503752 0
0.0291386 0.00453545 0
0.0305433 0.0039653 0
0.0319572 0.0033256 0
0.0333681 0.00260019 0
0.034775 0.00179799 0
0.0361793 0.000930615 0
0.0375798 3.12222e-06 0
0.0389689 -0.000988429 0
0.0403357 -0.00205109 0
0.041675 -0.00318283 0
0.0429849 -0.00437751 0
0.0442643 -0.00562904 0
0.0455126 -0.00693089 0
0.0467314 -0.00827518 0
0.0479204 -0.00965638 0
0.0490661 -0.0110799 0
0.0501515 -0.0125519 0
0.0511696 -0.0140695 0
0.0521492 -0.0156071 0
0.0531202 -0.0171411 0
0.0540851 -0.0186663 0
0.0550431 -0.0201798 0
0.0559923 -0.0216793 0
0.0569311 -0.0231626 0
0.0578582 -0.0246273 0
0.0587723 -0.0260715 0
0.0596721 -0.027493 0
0.0605563 -0.02889 0
0.0614241 -0.0302609 0
0.0622742 -0.0316042 0
0.063106 -0.0329183 0
0.0639186 -0.034202 0
0.0647113 -0.0354543 0
0.0654835 -0.0366743 0
0.0662345 -0.0378613 0
0.0669642 -0.0390145 0
0.0676726 -0.0401333 0
0.0683597 -0.0412172 0
0.0690246 -0.0422665 0
0.0696662 -0.0432819 0
0.0702841 -0.0442636 0
0.0708793 -0.0452111 0
0.0714538 -0.0461237 0
0.072009 -0.047001 0
0.0725452 -0.0478434 0
0.0730611 -0.0486524 0
0.073556 -0.0494294 0
0.0740291 -0.0501756 0
0.0744812 -0.0508916 0
0.0749138 -0.0515773 0
0.0753285 -0.0522331 0
0.0757266 -0.0528592 0
0.076109 -0.0534564 0
0.0764753 -0.0540264 0
0.0768243 -0.054571 0
0.0771553 -0.0550919 0
0.0774679 -0.0555901 0
0.0777617 -0.0560669 0
0.0780369 -0.056523 0
0.0782958 -0.0569578 0
0.0785421 -0.0573703 0
0.0787786 -0.0577603 0
0.0790073 -0.0581279 0
0.0792295 -0.058474 0
0.0794462 -0.0587995 0
0.0798803 -0.0594162 0
0.0800272 -0.0596588 0
0.0800357 -0.0598891 0
0.0799275 -0.0600784 0
0.0797205 -0.0601773 0
0.0794593 -0.0601051 0
0.0789155 -0.0596491 0
0.0786707 -0.0593963 0
0.0784111 -0.0591319 0
0.0781372 -0.0588542 0
0.0778566 -0.0585548 0
0.0775715 -0.0582308 0
0.0772803 -0.0578828 0
0.0769832 -0.0575099 0
0.0766822 -0.0571097 0
0.0763801 -0.0566796 0
0.0760759 -0.0562196 0
0.0757623 -0.0557337 0
0.0754359 -0.0552232 0
0.0750951 -0.0546879 0
0.0747379 -0.054128 0
0.0743626 -0.0535435 0
0.0739688 -0.0529338 0
0.0735559 -0.0522981 0
0.0731238 -0.0516357 0
0.0726718 -0.050946 0
0.0721991 -0.0502288 0
0.0717046 -0.049484 0
0.0711872 -0.0487117 0
0.0706461 -0.047912 0
0.0700804 -0.0470849 0
0.0694892 -0.0462308 0
0.0688718 -0.0453499 0
0.0682271 -0.0444431 0
0.0675544 -0.043511 0
0.0668527 -0.0425546 0
0.0661215 -0.0415748 0
0.06536 -0.040573 0
0.0645676 -0.0395504 0
0.0637439 -0.0385087 0
0.0628887 -0.0374493 0
0.062002 -0.0363741 0
0.0610838 -0.0352847 0
0.0601345 -0.0341831 0
0.0591547 -0.033071 0
0.0581456 -0.0319502 0
0.0571083 -0.0308224 0
0.0560444 -0.0296893 0
0.0549562 -0.028552 0
0.053845 -0.0274126 0
0.0527113 -0.0262746 0
0.051554 -0.0251427 0
0.0503724 -0.0240222 0
0.0491675 -0.0229164 0
0.047941 -0.0218282 0
0.0466955 -0.0207597 0
0.0454337 -0.0197126 0
0.0441592 -0.0186878 0
0.0428751 -0.0176863 0
0.0415841 -0.0167097 0
0.0402878 -0.0157609 0
0.0389879 -0.0148428 0
0.0376864 -0.0139575 0
0.0363853 -0.013107 0
0.0350871 -0.0122931 0
0.0337942 -0.0115164 0
0.0325095 -0.0107772 0
0.0312357 -0.0100756 0
0.0299758 -0.00941024 0
0.0287337 -0.00877784 0
0.0275126 -0.00817571 0
0.0263139 -0.00760375 0
0.0251376 -0.00706528 0
0.0239829 -0.0065649 0
0.0228537 -0.00609619 0
0.0217522 -0.00565563 0
0.0206795 -0.00524226 0
0.0196364 -0.00485507 0
0.0186233 -0.00449318 0
0.0176408 -0.00415577 0
0.016689 -0.00384204 0
0.0157682 -0.00355115 0
0.0148783 -0.00328218 0
0.0140192 -0.00303468 0
0.0131906 -0.00280795 0
0.0123925 -0.00260016 0
0.0116246 -0.00241012 0
0.0108864 -0.00223769 0
0.0101774 -0.00208212 0
0.00949701 -0.00194206 0
0.00884483 -0.0018163 0
0.0082202 -0.0017039 0
0.00762247 -0.00160391 0
0.00705097 -0.00151528 0
0.006505 -0.00143697 0
0.0059838 -0.00136806 0
0.00548662 -0.00130772 0
0.00501265 -0.00125519 0
0.00456114 -0.00120954 0
0.00413136 -0.00116914 0
0.00372257 -0.00113251 0
0.00333398 -0.00109853 0
0.00296466 -0.00106798 0
0.00261363 -0.0010431 0
-0.052721 -0.0445996 0
-0.0508204 -0.0440823 0
-0.0489199 -0.0435651 0
-0.0470193 -0.0430478 0
-0.0451187 -0.0425306 0
-0.0432181 -0.0420134 0
-0.0413175 -0.0414961 0
-0.039417 -0.0409789 0
-0.0375164 -0.0404616 0
-0.0356158 -0.0399444 0
-0.0337152 -0.0394271 0
-0.0318146 -0.0389099 0
-0.0299141 -0.0383927 0
-0.0280135 -0.0378754 0
-0.0261129 -0.0373582 0
-0.0242123 -0.0368409 0
-0.0223117 -0.0363237 0
-0.0204112 -0.0358065 0
-0.0185106 -0.0352892 0
-0.01661 -0.034772 0
-0.0147094 -0.0342547 0
-0.0128088 -0.0337375 0
-0.0109083 -0.0332202 0
-0.00900769 -0.032703 0
-0.00710711 -0.0321858 0
-0.00520653 -0.0316685 0
-0.00330595 -0.0311513 0
-0.00140537 -0.030634 0
0.00190689 -0.0299614 0
0.00332271 -0.0298498 0
0.00474133 -0.0297825 0
0.00616136 -0.0297597 0
0.0075814 -0.0297814 0
0.00900007 -0.0298477 0
0.010416 -0.0299583 0
0.0118278 -0.0301127 0
0.0132342 -0.0303103 0
0.0146339 -0.0305504 0
0.0160259 -0.0308322 0
0.0174091 -0.0311546 0
0.0187824 -0.0315166 0
0.020145 -0.031917 0
0.0214961 -0.0323546 0
0.0228351 -0.032828 0
0.0241613 -0.0333361 0
0.0254744 -0.0338774 0
0.0267738 -0.0344507 0
0.0280592 -0.0350545 0
0.0293306 -0.0356877 0
0.0305875 -0.0363488 0
0.0318301 -0.0370367 0
0.0330581 -0.0377501 0
0.0342717 -0.0384879 0
0.0354708 -0.0392489 0
0.0366556 -0.0400321 0
0.0378262 -0.0408363 0
0.0389828 -0.0416607 0
0.0401254 -0.0425042 0
0.0412543 -0.0433659 0
0.0423698 -0.0442451 0
0.043472 -0.0451408 0
0.0445612 -0.0460523 0
0.0456375 -0.0469789 0
0.0467013 -0.0479199 0
0.0477529 -0.0488746 0
0.0487923 -0.0498424 0
0.04982 -0.0508227 0
0.0508362 -0.051815 0
0.051841 -0.0528187 0
0.0528348 -0.0538333 0
0.0538178 -0.0548584 0
0.0547903 -0.0558935 0
0.0557524 -0.0569382 0
0.0567045 -0.0579922 0
0.0576467 -0.0590549 0
0.0585792 -0.0601261 0
0.0595024 -0.0612055 0
0.0604163 -0.0622926 0
0.0613212 -0.0633873 0
0.0622174 -0.0644891 0
0.0631049 -0.0655979 0
0.0639841 -0.0667134 0
0.064855 -0.0678353 0
0.0657179 -0.0689633 0
0.0665729 -0.0700974 0
0.0674202 -0.0712372 0
0.06826 -0.0723826 0
0.0690925 -0.0735333 0
0.0699178 -0.0746892 0
0.070736 -0.0758501 0
0.0715473 -0.0770159 0
0.0723518 -0.0781863 0
0.0731498 -0.0793612 0
0.0739412 -0.0805405 0
0.0747264 -0.081724 0
0.0755053 -0.0829116 0
0.0762781 -0.0841033 0
0.0770449 -0.0852987 0
0.0778059 -0.0864979 0
0.0785611 -0.0877007 0
0.0793108 -0.088907 0
0.0814681 -0.0912706 0
0.0828814 -0.0924245 0
0.0842946 -0.0935783 0
0.0857079 -0.0947322 0
0.0871211 -0.095886 0
0.0885344 -0.0970399 0
0.0899476 -0.0981937 0
0.0913609 -0.0993476 0
0.0927741 -0.100501 0
0.0941874 -0.101655 0
0.0956006 -0.102809 0
0.0970139 -0.103963 0
0.0984272 -0.105117 0
0.0998404 -0.106271 0
0.101254 -0.107424 0
0.102667 -0.108578 0
0.10408 -0.109732 0
0.105493 -0.110886 0
0.106907 -0.11204 0
0.10832 -0.113194 0
0.109733 -0.114348 0
0.111146 -0.115501 0
0.11256 -0.116655 0
0.113973 -0.117809 0
0.115386 -0.118963 0
0.116799 -0.120117 0
0.118213 -0.121271 0
0.119626 -0.122424 0
0.121039 -0.123578 0
0.122452 -0.124732 0
0.123866 -0.125886 0
0.125279 -0.12704 0
0.126692 -0.128194 0
0.128105 -0.129348 0
0.129519 -0.130501 0
0.130932 -0.131655 0
0.132345 -0.132809 0
0.133758 -0.133963 0
0.135172 -0.133216 0
0.135172 -0.131316 0
0.135172 -0.129415 0
0.135172 -0.127514 0
0.135172 -0.125614 0
0.135172 -0.123713 0
0.135172 -0.121813 0
0.135172 -0.119912 0
0.135172 -0.118012 0
0.135172 -0.116111 0
0.135172 -0.11421 0
0.135172 -0.11231 0
0.135172 -0.110409 0
0.135172 -0.108509 0
0.135172 -0.106608 0
0.135172 -0.104708 0
0.135172 -0.102807 0
0.135172 -0.100906 0
0.135172 -0.0990058 0
0.135172 -0.0971052 0
0.135172 -0.0952046 0
0.135172 -0.0933041 0
0.135172 -0.0914035 0
0.135172 -0.0895029 0
0.135172 -0.0876023 0
0.135172 -0.0857017 0
0.135172 -0.0838012 0
0.135172 -0.0819006 0
0.133758 -0.0788462 0
0.132345 -0.0776923 0
0.130932 -0.0765385 0
0.129519 -0.0753846 0
0.128105 -0.0742308 0
0.126692 -0.0730769 0
0.125279 -0.0719231 0
0.123866 -0.0707692 0
0.122452 -0.0696154 0
0.121039 -0.0684615 0
0.119626 -0.0673077 0
0.118213 -0.0661538 0
0.116799 -0.065 0
0.115386 -0.0638462 0
0.113973 -0.0626923 0
0.11256 -0.0615385 0
0.111146 -0.0603846 0
0.109733 -0.0592308 0
0.10832 -0.0580769 0
0.106907 -0.0569231 0
0.105493 -0.0557692 0
0.10408 -0.0546154 0
0.102667 -0.0534615 0
0.101254 -0.0523077 0
0.0998404 -0.0511538 0
0.0984272 -0.05 0
0.0970139 -0.0488462 0
0.0956006 -0.0476923 0
[...]
CELL_DATA 13116
SCALARS rho float
LOOKUP_TABLE default
0.658574
0.701906
0.337249
0.697669
0.715878
0.695952
0.330647
0.700586
0.583681
0.711068
0.331779
0.335274
0.716016
0.336846
0.346292
0.696036
0.661613
0.728558
0.701952
0.326971
0.652659
0.350388
0.340589
0.723502
0.672533
0.694341
0.709477
0.342897
0.570616
0.727807
0.558053
0.325052
0.618783
0.48122
0.331052
0.656065
0.717871
0.701693
0.695072
0.697207
0.702266
0.700946
0.502544
0.332584
0.701393
0.701885
0.694346
0.705315
0.359186
0.539197
0.706446
0.497705
0.328152
0.658467
0.62356
0.655207
0.332493
0.719853
0.544889
0.357719
0.33693
0.71081
0.698389
0.695033
0.600723
0.325243
0.69682
0.723147
0.707918
0.651305
0.344555
0.561144
0.347644
0.330975
0.557125
0.319991
0.702055
0.711493
0.329913
0.727768
0.71689
0.695944
0.722949
0.705066
0.698832
0.475458
0.325192
0.732406
0.698424
0.33384
0.332431
0.702135
0.716897
0.698653
0.720961
0.669922
0.674791
0.553362
0.55459
0.657588
0.740448
0.682942
0.701382
0.448781
0.690049
0.347878
0.436344
0.554454
0.340456
0.586465
0.597037
0.693375
0.668315
0.720114
0.729067
0.697143
0.326371
0.435995
0.709384
0.697647
0.724558
0.35038
0.708501
0.332249
0.698476
0.4684
0.325196
0.525987
0.338442
0.540017
0.709654
0.708551
0.510802
0.355139
0.495492
0.675629
0.557674
0.709066
0.741172
0.697909
0.695128
0.695058
0.526762
0.695241
0.698921
0.342973
0.330995
0.694634
0.71491
0.698949
0.539519
0.704621
0.705383
0.317236
0.719031
0.698788
0.340262
0.747326
0.556956
0.7342
0.723665
0.331196
0.719181
0.340298
0.34964
0.713858
0.698744
0.730818
0.331017
0.482743
0.458825
0.557893
0.346953
0.514772
0.697266
0.341415
0.344396
0.348777
0.693269
0.700944
0.327271
0.462045
0.624903
0.718903
0.701761
0.543978
0.318016
0.697623
0.691508
0.485677
0.702924
0.694367
0.66037
0.337726
0.693543
0.695392
0.718251
0.699765
0.698196
0.400794
0.450327
0.669689
0.521909
0.334494
0.711664
0.703867
0.503196
0.676362
0.354149
0.332442
0.319339
0.696295
0.340882
0.330283
0.333762
0.316754
0.424116
0.696846
0.698549
0.468898
0.33104
0.696677
0.59067
0.327675
0.539609
0.712774
0.698407
0.343634
0.697171
0.453375
0.70104
0.328429
0.672518
0.560225
0.55466
0.699678
0.679284
0.372415
0.463217
0.73679
0.557513
0.695243
0.557588
0.687742
0.700126
0.345259
0.710054
0.717975
0.554938
0.330558
0.360345
0.703749
0.709502
0.640736
0.707241
0.655846
0.724685
0.331594
0.382174
0.412023
0.35271
0.689423
0.719487
0.700337
0.327028
0.699639
0.320261
0.466628
0.690474
0.323726
0.695172
0.706831
0.557768
0.719022
0.370857
0.557951
0.718026
0.5511
0.709324
0.329668
0.324391
0.339265
0.674095
0.348464
0.360331
0.426385
0.394745
0.700816
0.330742
0.699152
0.715066
0.321096
0.326461
0.32037
0.475336
0.3425
0.731074
0.680182
0.692556
0.324551
0.704618
0.558869
0.379567
0.356187
0.69602
0.709659
0.699761
0.317703
0.695482
0.460282
0.708036
0.701321
0.699032
0.701858
0.338177
0.696872
0.343195
0.696554
0.701627
0.745904
0.330732
0.424452
0.717326
0.321503
0.696698
0.71138
0.381021
0.731505
0.723136
0.321809
0.699751
0.718803
0.339465
0.71106
0.471261
0.550551
0.700882
0.475909
0.74801
0.326638
0.724285
0.430886
0.693601
0.685363
0.710659
0.342552
0.430368
0.69889
0.318096
0.710592
0.692147
0.456691
0.557751
0.317661
0.339869
0.709025
0.542822
0.720394
0.324115
0.340524
0.708625
0.715165
0.331538
0.713829
0.329086
0.356513
0.697161
0.700862
0.586282
0.335595
0.710182
0.586609
0.696101
0.699424
0.71564
0.541715
0.35559
0.34947
0.327154
0.69608
0.327622
0.625979
0.386381
0.33607
0.42748
0.59321
0.172876
0.318842
0.699544
0.333425
0.719648
0.606174
0.703275
0.735454
0.711757
0.340411
0.324342
0.408368
0.364577
0.709704
0.666192
0.70215
0.582827
0.699911
0.689139
0.695434
0.695043
0.726653
0.714264
0.728777
0.695821
0.415952
0.503979
0.657124
0.345968
0.678958
0.655851
0.327457
0.697166
0.557673
0.339231
0.328778
0.331811
0.319064
0.626232
0.329804
0.338139
0.696384
0.323518
0.55896
0.333152
0.696664
0.712351
0.344831
0.353159
0.709062
0.474699
0.333593
0.31937
0.335084
0.340701
0.323764
0.328999
0.355691
0.468097
0.331933
0.682566
0.350606
0.698677
0.378969
0.331231
0.506054
0.344592
0.333724
0.344169
0.69797
0.4667
0.809113
0.58144
0.323051
0.679459
0.698816
0.473353
0.729427
0.69187
0.692178
0.323098
0.555059
0.439131
0.717286
0.550526
0.34084
0.331377
0.690812
0.365931
0.475051
0.686417
0.434178
0.748551
0.698877
0.326038
0.342184
0.34249
0.51029
0.353765
0.3344
0.345527
0.34173
0.705219
0.70242
0.479979
0.663833
0.497218
0.693346
0.416337
0.322264
0.593012
0.341002
0.706563
0.39787
0.435242
0.508159
0.70144
0.698583
0.547371
0.377943
0.330363
0.545517
0.70061
0.681943
0.543938
0.690972
0.688967
0.331791
0.711962
0.558919
0.738087
0.401434
0.342499
0.71995
0.714995
0.73749
0.708586
0.696945
0.69505
0.724006
0.740849
0.703045
0.332762
0.701219
0.434229
0.357399
0.331296
0.69787
0.703606
0.413495
0.69855
0.574908
0.330988
0.694634
0.709523
0.715062
0.342627
0.321189
0.710621
0.333895
0.334458
0.338107
0.331867
0.70661
0.337236
0.696586
0.349834
0.702314
0.707497
0.706112
0.715607
0.334017
0.327392
0.704678
0.701021
0.710161
0.707085
0.718333
0.498801
0.322007
0.341187
0.701617
0.550524
0.331761
0.476963
0.33593
0.698996
0.696303
0.402598
0.352199
0.698171
0.479223
0.700074
0.772679
0.337855
0.451804
0.708498
0.557136
0.340255
0.698367
0.698376
0.704284
0.318169
0.557901
0.331186
0.558926
0.738439
0.335875
0.420353
0.358656
0.556335
0.340617
0.328895
0.437202
0.696166
0.711338
0.329271
0.37873
0.33272
0.694762
0.34899
0.69593
0.342555
0.563922
0.711774
0.382546
0.340202
0.340392
0.499927
0.341307
0.69683
0.317528
0.326498
0.696536
0.338014
0.69596
0.696198
0.556541
0.332972
0.70663
0.721684
0.720054
0.702751
0.699515
0.697063
0.335523
0.662709
0.471203
0.704858
0.328985
0.69991
0.528027
0.330587
0.566524
0.71481
0.319574
0.697462
0.332788
0.342288
0.696435
0.698633
0.335349
0.344181
0.329699
0.326572
0.699339
0.723882
0.317664
0.324629
0.710796
0.704457
0.575846
0.721135
0.69621
0.331364
0.7135
0.462149
0.707902
0.434414
0.664534
0.495179
0.696843
0.719867
0.559314
0.412473
0.342003
0.699601
0.575732
0.652439
0.72087
0.350166
0.71465
0.719104
0.453535
0.501619
0.721039
0.383313
0.613466
0.736713
0.422712
0.698459
0.721266
0.338724
0.712222
0.339184
0.697253
0.325914
0.695976
0.697644
0.34248
0.695217
0.719777
0.711398
0.577601
0.709733
0.559846
0.375707
0.456799
0.334825
0.331261
0.557691
0.541706
0.708038
0.714482
0.330748
0.35847
0.710259
0.704528
0.709245
0.704917
0.329595
0.731869
0.717654
0.327433
0.332772
0.709373
0.703483
0.697885
0.302446
0.562457
0.3456
0.713096
0.695536
0.678068
0.702754
0.331716
0.706869
0.698832
0.721616
0.699588
0.703364
0.46986
0.71513
0.33177
0.691655
0.717148
0.480981
0.69988
0.690738
0.706261
0.460254
0.439815
0.561934
0.744202
0.3338
0.335774
0.321882
0.332179
0.703358
0.714367
0.686602
0.395413
0.331735
0.708045
0.736922
0.337796
0.360719
0.483923
0.711326
0.699212
0.699357
0.720547
0.332831
0.333839
0.557643
0.331643
0.330107
0.317533
0.700604
0.345197
0.334042
0.650293
0.704892
0.693059
0.69576
0.697759
0.325862
0.341069
0.32272
0.595484
0.46922
0.330365
0.721716
0.721833
0.697924
0.705354
0.30591
0.333529
0.710427
0.332612
0.703116
0.697328
0.556018
0.335406
0.335168
0.696707
0.5689
0.669946
0.338198
0.699252
0.695898
0.647166
0.699184
0.701249
0.557721
0.690933
0.329643
0.6969
0.612727
0.690573
0.713783
0.557764
0.693717
0.557534
0.709557
0.326707
0.333245
0.333537
0.566779
0.531259
0.332845
0.710026
0.711279
0.338261
0.704958
0.346011
0.704901
0.574439
0.369209
0.706028
0.72567
0.332052
0.536239
0.579842
0.335471
0.699063
0.329093
0.350464
0.685414
0.671615
0.505806
0.701464
0.320616
0.718449
0.339579
0.320147
0.69584
0.33164
0.67213
0.335571
0.70337
0.666272
0.557809
0.6986
0.349096
0.327935
0.687229
0.510774
0.709265
0.491544
0.665641
0.69615
0.72175
0.521895
0.574864
0.693337
0.717678
0.697999
0.434624
0.335534
0.533436
0.693508
0.712028
0.406838
0.701162
0.670009
0.406631
0.335363
0.744713
0.712666
0.55752
0.557581
0.685996
0.718112
0.696058
0.717103
0.334402
0.742354
0.480546
0.698206
0.703122
0.401174
0.700951
0.714579
0.333201
0.366433
0.321023
0.557755
0.331017
0.684044
0.714762
0.743647
0.395761
0.700587
0.336059
0.563332
0.694441
0.668829
0.722111
0.693222
0.679678
0.716482
0.592271
0.704506
0.326897
0.701849
0.706409
0.496828
0.557872
0.714125
0.339505
0.350475
0.335695
0.699217
0.335511
0.557665
0.322242
0.700308
0.332585
0.496011
0.340964
0.717345
0.708279
0.654771
0.390478
0.680051
0.697309
0.32793
0.60153
0.700547
0.328846
0.657209
0.548779
0.71422
0.703767
0.340637
0.550203
0.709942
0.702627
0.692711
0.334642
0.436161
0.700155
0.557764
0.557351
0.557837
0.643976
0.70892
0.639475
0.698266
0.334494
0.335968
0.557866
0.715164
0.69637
0.326765
0.701604
0.655864
0.676958
0.325737
0.462362
0.714017
0.697807
0.553062
0.36013
0.703823
0.558241
0.330999
0.675067
0.720202
0.331246
0.331219
0.344296
0.693144
0.353184
0.332807
0.699569
0.496271
0.715642
0.709195
0.330707
0.32276
0.708736
0.331618
0.328794
0.568545
0.354602
0.416954
0.66045
0.699442
0.707275
0.332
0.348191
0.332228
0.696915
0.34895
0.707456
0.334618
0.709964
0.696881
0.700995
0.692174
0.707006
0.695073
0.698361
0.715388
0.708303
0.335627
0.327346
0.704877
0.695886
0.507251
0.692584
0.574351
0.695855
0.68863
0.344307
0.697309
0.702814
0.703899
0.32882
0.707126
0.343649
0.705097
0.499851
0.725779
0.70449
0.369112
0.710133
0.332312
0.47545
0.698751
0.318039
0.740641
0.557819
0.700118
0.318229
0.696401
0.332458
0.334614
0.336176
0.333979
0.685233
0.349424
0.698266
0.690419
0.362134
0.337704
0.496949
0.561622
0.715255
0.692908
0.332922
0.322425
0.331726
0.342003
0.385869
0.711326
0.694405
0.343226
0.695572
0.714213
0.343004
0.700625
0.739811
0.693678
0.32866
0.55756
0.709592
0.714528
0.698782
0.352579
0.707883
0.714264
0.707265
0.758233
0.697078
0.365621
0.336438
0.704547
0.530143
0.335359
0.695961
0.340096
0.551672
0.697459
0.697107
0.697477
0.333405
0.692111
0.408108
0.32764
0.727205
0.711227
0.716444
0.711187
0.715247
0.33486
0.716352
0.356901
0.506149
0.714086
0.553191
0.709677
0.329604
0.374799
0.717517
0.391984
0.710256
0.770854
0.461142
0.370064
0.697699
0.335291
0.704723
0.710122
0.709008
0.335584
0.334182
0.520175
0.583279
0.690458
0.494869
0.696586
0.692772
0.698932
0.557732
0.710399
0.328419
0.366618
0.711252
0.697655
0.692052
0.481523
0.332589
0.711433
0.347264
0.696294
0.578775
0.353603
0.709555
0.330857
0.697667
0.337604
0.715999
0.368316
0.705466
0.699446
0.331033
0.69866
0.74168
0.330375
0.681522
0.70124
0.597437
0.34389
0.403217
0.489909
0.72153
0.686746
0.356748
0.560185
0.710978
0.696512
0.397338
0.684107
0.700718
0.476869
0.696579
0.696488
0.405834
0.707454
0.551611
0.336025
0.669424
0.320518
0.702888
0.318832
0.353591
0.716449
0.334638
0.332931
0.347319
0.69649
0.699089
0.422219
0.703527
0.406074
0.707696
0.33261
0.700182
0.390222
0.696232
0.705099
0.706207
0.678101
0.53787
0.697999
0.693459
0.341699
0.782063
0.708871
0.621743
0.710127
0.50025
0.441947
0.716254
0.32612
0.557082
0.346654
0.701829
0.334233
0.337685
0.72609
0.696831
0.326656
0.698428
0.722292
0.557771
0.703755
0.557767
0.329951
0.700479
0.32913
0.340351
0.698954
0.719471
0.700694
0.698631
0.33054
0.317958
0.332062
0.70164
0.689641
0.403656
0.70013
0.325962
0.317909
0.321573
0.698855
0.435888
0.716275
0.708603
0.780141
0.699126
0.707887
0.652134
0.698888
0.47123
0.333414
0.327069
0.557602
0.55783
0.328681
0.706917
0.691759
0.701598
0.340692
0.464702
0.693702
0.372672
0.692135
0.681368
0.330011
0.699219
0.703808
0.333134
0.706866
0.329649
0.706583
0.705839
0.706919
0.349146
0.486407
0.73221
0.411209
0.47398
0.699417
0.410462
0.70074
0.698527
0.695081
0.722907
0.35813
0.563179
0.726748
0.702263
0.442923
0.712306
0.343533
0.342287
0.699826
0.698325
0.686941
0.326465
0.702998
0.794541
0.557109
0.323401
0.32935
0.333859
0.705028
0.331248
0.337283
0.337019
0.680216
0.332849
0.399055
0.474542
0.707156
0.331604
0.673388
0.693585
0.696746
0.317751
0.706956
0.733825
0.694796
0.463544
0.75041
0.330335
0.326423
0.696477
0.326749
0.701244
0.711504
0.557849
0.331114
0.425751
0.320026
0.544665
0.557676
0.32938
0.702063
0.696467
0.722805
0.333229
0.355225
0.433065
0.687266
0.33259
0.557739
0.574882
0.694489
0.700428
0.329983
0.70025
0.333288
0.678509
0.766734
0.705027
0.675044
0.62999
0.739291
0.692818
0.711925
0.322131
0.377954
0.324591
0.725731
0.555339
0.556349
0.33097
0.446586
0.716426
0.706662
0.644298
0.327214
0.697196
0.543475
0.547059
0.687425
0.341125
0.327734
0.406001
0.697593
0.690514
0.759942
0.693292
0.429827
0.700444
0.747579
0.690149
0.692229
0.699816
0.703704
0.695759
0.717205
0.716644
0.340927
0.708876
0.711237
0.69727
0.709116
0.699191
0.673174
0.330668
0.346231
0.690792
0.335135
0.359034
0.697281
0.336484
0.817941
0.707688
0.700594
0.704254
0.340739
0.697527
0.336598
0.333598
0.695971
0.707769
0.705838
0.317262
0.713024
0.701723
0.689688
0.698857
0.346817
0.697895
0.717241
0.704893
0.402987
0.723291
0.332515
0.696596
0.319366
0.330971
0.66237
0.476884
0.707932
0.719278
0.703959
0.335867
0.697115
0.42483
0.341466
0.697171
0.496359
0.334226
0.70189
0.365033
0.511725
0.726651
0.694795
0.697414
0.498437
0.569839
0.729494
0.703711
0.673057
0.716118
0.531157
0.699663
0.693443
0.729395
0.301932
0.330237
0.474801
0.711534
0.339837
0.735423
0.698269
0.672373
0.70389
0.641289
0.729286
0.717272
0.329684
0.69843
0.691452
0.635097
0.691148
0.716896
0.697323
0.696489
0.333388
0.329882
0.70576
0.575372
0.64589
0.705592
0.705013
0.704541
0.712304
0.709965
0.693743
0.691769
0.702631
0.342273
0.347104
0.336153
0.349598
0.55757
0.482736
0.63601
0.709161
0.718108
0.340701
0.704596
0.696308
0.317845
0.437713
0.557451
0.710026
0.341315
0.315594
0.334934
0.557753
0.694964
0.406234
0.328802
0.329519
0.360008
0.378313
0.335375
0.701413
0.705159
0.710319
0.321692
0.700619
0.680233
0.579239
0.375758
0.328262
0.696876
0.557778
0.333554
0.696551
0.332908
0.72366
0.340865
0.696935
0.322093
0.698178
0.713788
0.318286
0.548357
0.376538
0.699985
0.351454
0.685253
0.340933
0.5303
0.32978
0.679161
0.328636
0.656317
0.675771
0.574318
0.70663
0.37698
0.699989
0.696581
0.713581
0.678251
0.708668
0.328384
0.460486
0.326472
0.720456
0.399352
0.714418
0.54361
0.720138
0.714814
0.561137
0.714663
0.340814
0.332693
0.34096
0.530137
0.665973
0.704983
0.324576
0.358333
0.696169
0.455721
0.334944
0.671387
0.429879
0.333792
0.342183
0.700475
0.764332
0.688779
0.337758
0.699522
0.697082
0.324614
0.42856
0.69888
0.69669
0.677472
0.515433
0.465645
0.443651
0.317883
0.699241
0.68873
0.566864
0.726175
0.356614
0.645783
0.33077
0.602072
0.71387
0.328874
0.389156
0.691673
0.670798
0.714955
0.716239
0.720454
0.698421
0.715057
0.316512
0.347848
0.325332
0.329602
0.65843
0.564219
0.764161
0.329825
0.331249
0.488384
0.329984
0.704289
0.694709
0.333353
0.398278
0.706916
0.340115
0.727159
0.717248
0.69694
0.69665
0.65725
0.334157
0.321491
0.689604
0.329172
0.465413
0.417606
0.696428
0.697926
0.400904
0.330317
0.557577
0.327301
0.696396
0.718998
0.332403
0.333478
0.330675
0.708057
0.32724
0.557805
0.71449
0.674149
0.322098
0.52816
0.711178
0.700751
0.330101
0.700897
0.69222
0.333786
0.709114
0.698608
0.331284
0.335019
0.696416
0.327313
0.329321
0.700719
0.438774
0.703891
0.730775
0.719375
0.696374
0.714922
0.699907
0.694495
0.331695
0.463583
0.695316
0.706923
0.485268
0.701333
0.401166
0.709528
0.697524
0.635325
0.730518
0.459891
0.480684
0.704695
0.712655
0.693436
0.713437
0.70628
0.557755
0.700899
0.557617
0.699155
0.697619
0.699169
0.557763
0.694997
0.33353
0.696594
0.341017
0.697423
0.709112
0.717302
0.694894
0.724365
0.331263
0.318399
0.412284
0.330275
0.697315
0.324066
0.327323
0.716429
0.307782
0.717062
0.318609
0.700208
0.707995
0.334487
0.455141
0.355038
0.709701
0.334285
0.704682
0.710395
0.318853
0.69662
0.549821
0.363091
0.342231
0.326086
0.739235
0.33513
0.698034
0.640119
0.37825
0.700358
0.702449
0.720867
0.332949
0.653143
0.339169
0.70101
0.695871
0.697244
0.334878
0.707043
0.708123
0.692864
0.446602
0.710388
0.33373
0.332016
0.699509
0.478583
0.716627
0.447214
0.334378
0.474839
0.693874
0.34086
0.330455
0.326739
0.567933
0.555167
0.708944
0.339039
0.675954
0.707292
0.543387
0.487757
0.35185
0.551169
0.334706
0.330708
0.702363
0.3323
0.332947
0.700016
0.70128
0.317789
0.728108
0.316667
0.557436
0.343378
0.69793
0.651891
0.724497
0.696472
0.34084
0.331109
0.335656
0.695865
0.697028
0.5682
0.549301
0.449727
0.412789
0.702415
0.331842
0.70417
0.450562
0.65838
0.72245
0.319831
0.335069
0.331867
0.330315
0.337788
0.691272
0.698489
0.322335
0.707665
0.72362
0.378912
0.345976
0.699775
0.334232
0.707267
0.47054
0.723315
0.731664
0.706896
0.554302
0.334413
0.710795
0.69674
0.700084
0.334768
0.688089
0.574693
0.357614
0.710478
0.703459
0.700641
0.699082
0.715329
0.69955
0.703047
0.697387
0.701487
0.332309
0.722098
0.331793
0.498104
0.69945
0.336034
0.699302
0.688542
0.358301
0.692621
0.334855
0.332787
0.699436
0.686753
0.702586
0.332931
0.698752
0.682716
0.343248
0.321525
0.697636
0.696642
0.443934
0.330421
0.715465
0.701721
0.33569
0.725605
0.714309
0.770134
0.3193
0.333482
0.333593
0.733564
0.369675
0.701258
0.726532
0.702601
0.682831
0.707789
0.333007
0.697783
0.602831
0.714024
0.673902
0.337338
0.331214
0.356437
0.723264
0.710044
0.468641
0.731449
0.349165
0.706004
0.697387
0.351304
0.692048
0.701669
0.700802
0.320724
0.325108
0.350434
0.709726
0.717402
0.681864
0.515599
0.706516
0.333357
0.731214
0.557095
0.707161
0.319912
0.690163
0.360188
0.689836
0.356711
0.704812
0.699254
0.336848
0.709214
0.501003
0.557824
0.714404
0.55774
0.698913
0.455018
0.702421
0.70336
0.696289
0.704972
0.491761
0.557875
0.33379
0.7037
0.356227
0.328405
0.364625
0.337126
0.3342
0.321101
0.71271
0.446641
0.337932
0.720374
0.709488
0.698642
0.411815
0.722802
0.726446
0.696629
0.340246
0.676979
0.696727
0.353184
0.332877
0.331285
0.716005
0.509453
0.332118
0.676856
0.309712
0.556405
0.506173
0.32594
0.492573
0.733207
0.352379
0.696124
0.352811
0.614649
0.440264
0.699029
0.437943
0.714356
0.557865
0.690106
0.486795
0.330881
0.699363
0.705429
0.33427
0.334622
0.696233
0.329249
0.723318
0.32184
0.549342
0.354768
0.697995
0.346964
0.70968
0.327945
0.697814
0.707596
0.713248
0.557642
0.333588
0.340702
0.407679
0.695477
0.71607
0.69333
0.667599
0.355201
0.714408
0.352318
0.696612
0.684195
0.441357
0.371977
0.718271
0.7042
0.340904
0.600386
0.700016
0.716812
0.720216
0.354373
0.7353
0.332515
0.715777
0.370931
0.692287
0.695869
0.699509
0.707685
0.379883
0.698339
0.334484
0.327096
0.696289
0.557578
0.591089
0.705154
0.557612
0.333699
0.728634
0.698656
0.701488
0.335007
0.463678
0.723024
0.323509
0.709717
0.698139
0.699797
0.698856
0.38981
0.483758
0.742705
0.338573
0.697543
0.69908
0.504726
0.69907
0.39562
0.690717
0.727292
0.733339
0.69873
0.325446
0.338112
0.705244
0.700479
0.353677
0.383447
0.343646
0.33997
0.338397
0.332176
0.343398
0.335264
0.70554
0.355831
0.318787
0.715068
0.607174
0.557697
0.447943
0.330669
0.707902
0.494389
0.591578
0.71925
0.43382
0.742555
0.68129
0.634462
0.701052
0.333003
0.708979
0.694766
0.320201
0.331902
0.44482
0.688081
0.664934
0.715968
0.69612
0.707161
0.702275
0.376563
0.708819
0.694889
0.697707
0.331343
0.701618
0.680259
0.372768
0.466762
0.329629
0.340542
0.340335
0.663098
0.726737
0.705585
0.33093
0.459373
0.713835
0.330382
0.711386
0.703361
0.700051
0.736374
0.706214
0.351354
0.339926
0.318199
0.652014
0.368215
0.705855
0.316665
0.696908
0.696576
0.708474
0.347846
0.480487
0.452767
0.707484
0.326395
0.331208
0.697461
0.700704
0.694712
0.696019
0.696796
0.722724
0.334927
0.669144
0.715734
0.526011
0.706872
0.712393
0.719814
0.478932
0.467598
0.701281
0.504744
0.68925
0.333059
0.697196
0.69937
0.404089
0.369563
0.701045
0.527709
0.713423
0.711605
0.335188
0.327752
0.553898
0.482815
0.420959
0.698853
0.697985
0.363594
0.700891
0.556628
0.69538
0.335991
0.664279
0.334387
0.699538
0.713555
0.721836
0.705166
0.559413
0.397167
0.399701
0.708537
0.332214
0.576389
0.374367
0.707288
0.342433
0.722111
0.715685
0.555788
0.33493
0.557747
0.557281
0.330501
0.697532
0.322918
0.700584
0.334122
0.321147
0.344402
0.71035
0.700678
0.426537
0.408381