# vtk DataFile Version 1.0
unstructured grid
ascii
DATASET UNSTRUCTURED_GRID
points 13672 float
0.0796578 -0.059106 0
0.00128732 0.00159165 0
0.00227961 -0.00102548 0
0.0791586 -0.0598787 0
-0.0546216 0.01 0
0.000495206 0.025 0
0.0800549 -0.035 0
0.135172 -0.08 0
-0.0546216 -0.0451168 0
0.000495206 -0.0301168 0
0.0800549 -0.0901168 0
0.135172 -0.135117 0
-0.0546216 -0.0451168 -0.00551168
0.000495206 -0.0301168 -0.00551168
0.0800549 -0.0901168 -0.00551168
0.135172 -0.135117 -0.00551168
0.135172 -0.08 -0.00551168
0.0800549 -0.035 -0.00551168
0.000495206 0.025 -0.00551168
-0.0546216 0.01 -0.00551168
0.00128732 0.00159165 -0.00551168
0.00227961 -0.00102548 -0.00551168
0.0791586 -0.0598787 -0.00551168
0.0796578 -0.059106 -0.00551168
0.00165953 -0.000990923 0
0.00119576 -0.000874076 0
0.000866021 -0.000641801 0
0.000645147 -0.000349912 0
0.00052235 -1.7281e-05 0
0.00049972 0.000348016 0
0.000601632 0.000737716 0
0.000861774 0.0011403 0
0.00157235 0.00183217 0
0.00188647 0.00206725 0
0.00222612 0.00230203 0
0.00258713 0.00254351 0
0.00296826 0.00279524 0
0.00337118 0.00305664 0
0.00379785 0.00332658 0
0.00425045 0.00360349 0
0.00473139 0.00388521 0
0.0052432 0.00416895 0
0.0057881 0.00445204 0
0.00636753 0.00473281 0
0.00698281 0.00500961 0
0.00763526 0.00528058 0
0.00832616 0.00554366 0
0.00905691 0.00579603 0
0.00982918 0.00603333 0
0.0106445 0.00625033 0
0.0115038 0.00644128 0
0.0124073 0.00660297 0
0.0133543 0.00673414 0
0.0143444 0.00683382 0
0.0153769 0.00690031 0
0.0164512 0.00693173 0
0.0175666 0.00692547 0
0.0187219 0.00687822 0
0.0199156 0.00678477 0
0.0211454 0.00663864 0
0.0224084 0.00643275 0
0.0237018 0.00616676 0
0.0250249 0.00584739 0
0.026375 0.00547298 0
0.0277479 0.00503752 0
0.0291386 0.00453545 0
0.0305433 0.0039653 0
0.0319572 0.0033256 0
0.0333681 0.00260019 0
0.034775 0.00179799 0
0.0361793 0.000930615 0
0.0375798 3.12222e-06 0
0.0389689 -0.000988429 0
0.0403357 -0.00205109 0
0.041675 -0.00318283 0
0.0429849 -0.00437751 0
0.0442643 -0.00562904 0
0.0455126 -0.00693089 0
0.0467314 -0.00827518 0
0.0479204 -0.00965638 0
0.0490661 -0.0110799 0
0.0501515 -0.0125519 0
0.0511696 -0.0140695 0
0.0521492 -0.0156071 0
0.0531202 -0.0171411 0
0.0540851 -0.0186663 0
0.0550431 -0.0201798 0
0.0559923 -0.0216793 0
0.0569311 -0.0231626 0
0.0578582 -0.0246273 0
0.0587723 -0.0260715 0
0.0596721 -0.027493 0
0.0605563 -0.02889 0
0.0614241 -0.0302609 0
0.0622742 -0.0316042 0
0.063106 -0.0329183 0
0.0639186 -0.034202 0
0.0647113 -0.0354543 0
0.0654835 -0.0366743 0
0.0662345 -0.0378613 0
0.0669642 -0.0390145 0
0.0676726 -0.0401333 0
0.0683597 -0.0412172 0
0.0690246 -0.0422665 0
0.0696662 -0.0432819 0
0.0702841 -0.0442636 0
0.0708793 -0.0452111 0
0.0714538 -0.0461237 0
0.072009 -0.047001 0
0.0725452 -0.0478434 0
0.0730611 -0.0486524 0
0.073556 -0.0494294 0
0.0740291 -0.0501756 0
0.0744812 -0.0508916 0
0.0749138 -0.0515773 0
0.0753285 -0.0522331 0
0.0757266 -0.0528592 0
0.076109 -0.0534564 0
0.0764753 -0.0540264 0
0.0768243 -0.054571 0
0.0771553 -0.0550919 0
0.0774679 -0.0555901 0
0.0777617 -0.0560669 0
0.0780369 -0.056523 0
0.0782958 -0.0569578 0
0.0785421 -0.0573703 0
0.0787786 -0.0577603 0
0.0790073 -0.0581279 0
0.0792295 -0.058474 0
0.0794462 -0.0587995 0
0.0798803 -0.0594162 0
0.0800272 -0.0596588 0
0.0800357 -0.0598891 0
0.0799275 -0.0600784 0
0.0797205 -0.0601773 0
0.0794593 -0.0601051 0
0.0789155 -0.0596491 0
0.0786707 -0.0593963 0
0.0784111 -0.0591319 0
0.0781372 -0.0588542 0
0.0778566 -0.0585548 0
0.0775715 -0.0582308 0
0.0772803 -0.0578828 0
0.0769832 -0.0575099 0
0.0766822 -0.0571097 0
0.0763801 -0.0566796 0
0.0760759 -0.0562196 0
0.0757623 -0.0557337 0
0.0754359 -0.0552232 0
0.0750951 -0.0546879 0
0.0747379 -0.054128 0
0.0743626 -0.0535435 0
0.0739688 -0.0529338 0
0.0735559 -0.0522981 0
0.0731238 -0.0516357 0
0.0726718 -0.050946 0
0.0721991 -0.0502288 0
0.0717046 -0.049484 0
0.0711872 -0.0487117 0
0.0706461 -0.047912 0
0.0700804 -0.0470849 0
0.0694892 -0.0462308 0
0.0688718 -0.0453499 0
0.0682271 -0.0444431 0
0.0675544 -0.043511 0
0.0668527 -0.0425546 0
0.0661215 -0.0415748 0
0.06536 -0.040573 0
0.0645676 -0.0395504 0
0.0637439 -0.0385087 0
0.0628887 -0.0374493 0
0.062002 -0.0363741 0
0.0610838 -0.0352847 0
0.0601345 -0.0341831 0
0.0591547 -0.033071 0
0.0581456 -0.0319502 0
0.0571083 -0.0308224 0
0.0560444 -0.0296893 0
0.0549562 -0.028552 0
0.053845 -0.0274126 0
0.0527113 -0.0262746 0
0.051554 -0.0251427 0
0.0503724 -0.0240222 0
0.0491675 -0.0229164 0
0.047941 -0.0218282 0
0.0466955 -0.0207597 0
0.0454337 -0.0197126 0
0.0441592 -0.0186878 0
0.0428751 -0.0176863 0
0.0415841 -0.0167097 0
0.0402878 -0.0157609 0
0.0389879 -0.0148428 0
0.0376864 -0.0139575 0
0.0363853 -0.013107 0
0.0350871 -0.0122931 0
0.0337942 -0.0115164 0
0.0325095 -0.0107772 0
0.0312357 -0.0100756 0
0.0299758 -0.00941024 0
0.0287337 -0.00877784 0
0.0275126 -0.00817571 0
0.0263139 -0.00760375 0
0.0251376 -0.00706528 0
0.0239829 -0.0065649 0
0.0228537 -0.00609619 0
0.0217522 -0.00565563 0
0.0206795 -0.00524226 0
0.0196364 -0.00485507 0
0.0186233 -0.00449318 0
0.0176408 -0.00415577 0
0.016689 -0.00384204 0
0.0157682 -0.00355115 0
0.0148783 -0.00328218 0
0.0140192 -0.00303468 0
0.0131906 -0.00280795 0
0.0123925 -0.00260016 0
0.0116246 -0.00241012 0
0.0108864 -0.00223769 0
0.0101774 -0.00208212 0
0.00949701 -0.00194206 0
0.00884483 -0.0018163 0
0.0082202 -0.0017039 0
0.00762247 -0.00160391 0
0.00705097 -0.00151528 0
0.006505 -0.00143697 0
0.0059838 -0.00136806 0
0.00548662 -0.00130772 0
0.00501265 -0.00125519 0
0.00456114 -0.00120954 0
0.00413136 -0.00116914 0
0.00372257 -0.00113251 0
0.00333398 -0.00109853 0
0.00296466 -0.00106798 0
0.00261363 -0.0010431 0
-0.052721 -0.0445996 0
-0.0508204 -0.0440823 0
-0.0489199 -0.0435651 0
-0.0470193 -0.0430478 0
-0.0451187 -0.0425306 0
-0.0432181 -0.0420134 0
-0.0413175 -0.0414961 0
-0.039417 -0.0409789 0
-0.0375164 -0.0404616 0
-0.0356158 -0.0399444 0
-0.0337152 -0.0394271 0
-0.0318146 -0.0389099 0
-0.0299141 -0.0383927 0
-0.0280135 -0.0378754 0
-0.0261129 -0.0373582 0
-0.0242123 -0.0368409 0
-0.0223117 -0.0363237 0
-0.0204112 -0.0358065 0
-0.0185106 -0.0352892 0
-0.01661 -0.034772 0
-0.0147094 -0.0342547 0
-0.0128088 -0.0337375 0
-0.0109083 -0.0332202 0
-0.00900769 -0.032703 0
-0.00710711 -0.0321858 0
-0.00520653 -0.0316685 0
-0.00330595 -0.0311513 0
-0.00140537 -0.030634 0
0.00190689 -0.0299614 0
0.00332271 -0.0298498 0
0.00474133 -0.0297825 0
0.00616136 -0.0297597 0
0.0075814 -0.0297814 0
0.00900007 -0.0298477 0
0.010416 -0.0299583 0
0.0118278 -0.0301127 0
0.0132342 -0.0303103 0
0.0146339 -0.0305504 0
0.0160259 -0.0308322 0
0.0174091 -0.0311546 0
0.0187824 -0.0315166 0
0.020145 -0.031917 0
0.0214961 -0.0323546 0
0.0228351 -0.032828 0
0.0241613 -0.0333361 0
0.0254744 -0.0338774 0
0.0267738 -0.0344507 0
0.0280592 -0.0350545 0
0.0293306 -0.0356877 0
0.0305875 -0.0363488 0
0.0318301 -0.0370367 0
0.0330581 -0.0377501 0
0.0342717 -0.0384879 0
0.0354708 -0.0392489 0
0.0366556 -0.0400321 0
0.0378262 -0.0408363 0
0.0389828 -0.0416607 0
0.0401254 -0.0425042 0
0.0412543 -0.0433659 0
0.0423698 -0.0442451 0
0.043472 -0.0451408 0
0.0445612 -0.0460523 0
0.0456375 -0.0469789 0
0.0467013 -0.0479199 0
0.0477529 -0.0488746 0
0.0487923 -0.0498424 0
0.04982 -0.0508227 0
0.0508362 -0.051815 0
0.051841 -0.0528187 0
0.0528348 -0.0538333 0
0.0538178 -0.0548584 0
0.0547903 -0.0558935 0
0.0557524 -0.0569382 0
0.0567045 -0.0579922 0
0.0576467 -0.0590549 0
0.0585792 -0.0601261 0
0.0595024 -0.0612055 0
0.0604163 -0.0622926 0
0.0613212 -0.0633873 0
0.0622174 -0.0644891 0
0.0631049 -0.0655979 0
0.0639841 -0.0667134 0
0.064855 -0.0678353 0
0.0657179 -0.0689633 0
0.0665729 -0.0700974 0
0.0674202 -0.0712372 0
0.06826 -0.0723826 0
0.0690925 -0.0735333 0
0.0699178 -0.0746892 0
0.070736 -0.0758501 0
0.0715473 -0.0770159 0
0.0723518 -0.0781863 0
0.0731498 -0.0793612 0
0.0739412 -0.0805405 0
0.0747264 -0.081724 0
0.0755053 -0.0829116 0
0.0762781 -0.0841033 0
0.0770449 -0.0852987 0
0.0778059 -0.0864979 0
0.0785611 -0.0877007 0
0.0793108 -0.088907 0
0.0814681 -0.0912706 0
0.0828814 -0.0924245 0
0.0842946 -0.0935783 0
0.0857079 -0.0947322 0
0.0871211 -0.095886 0
0.0885344 -0.0970399 0
0.0899476 -0.0981937 0
0.0913609 -0.0993476 0
0.0927741 -0.100501 0
0.0941874 -0.101655 0
0.0956006 -0.102809 0
0.0970139 -0.103963 0
0.0984272 -0.105117 0
0.0998404 -0.106271 0
0.101254 -0.107424 0
0.102667 -0.108578 0
0.10408 -0.109732 0
0.105493 -0.110886 0
0.106907 -0.11204 0
0.10832 -0.113194 0
0.109733 -0.114348 0
0.111146 -0.115501 0
0.11256 -0.116655 0
0.113973 -0.117809 0
0.115386 -0.118963 0
0.116799 -0.120117 0
0.118213 -0.121271 0
0.119626 -0.122424 0
0.121039 -0.123578 0
0.122452 -0.124732 0
0.123866 -0.125886 0
0.125279 -0.12704 0
0.126692 -0.128194 0
0.128105 -0.129348 0
0.129519 -0.130501 0
0.130932 -0.131655 0
0.132345 -0.132809 0
0.133758 -0.133963 0
0.135172 -0.133216 0
0.135172 -0.131316 0
0.135172 -0.129415 0
0.135172 -0.127514 0
0.135172 -0.125614 0
0.135172 -0.123713 0
0.135172 -0.121813 0
0.135172 -0.119912 0
0.135172 -0.118012 0
0.135172 -0.116111 0
0.135172 -0.11421 0
0.135172 -0.11231 0
0.135172 -0.110409 0
0.135172 -0.108509 0
0.135172 -0.106608 0
0.135172 -0.104708 0
0.135172 -0.102807 0
0.135172 -0.100906 0
0.135172 -0.0990058 0
0.135172 -0.0971052 0
0.135172 -0.0952046 0
0.135172 -0.0933041 0
0.135172 -0.0914035 0
0.135172 -0.0895029 0
0.135172 -0.0876023 0
0.135172 -0.0857017 0
0.135172 -0.0838012 0
0.135172 -0.0819006 0
0.133758 -0.0788462 0
0.132345 -0.0776923 0
0.130932 -0.0765385 0
0.129519 -0.0753846 0
0.128105 -0.0742308 0
0.126692 -0.0730769 0
0.125279 -0.0719231 0
0.123866 -0.0707692 0
0.122452 -0.0696154 0
0.121039 -0.0684615 0
0.119626 -0.0673077 0
0.118213 -0.0661538 0
0.116799 -0.065 0
0.115386 -0.0638462 0
0.113973 -0.0626923 0
0.11256 -0.0615385 0
0.111146 -0.0603846 0
0.109733 -0.0592308 0
0.10832 -0.0580769 0
0.106907 -0.0569231 0
0.105493 -0.0557692 0
0.10408 -0.0546154 0
0.102667 -0.0534615 0
0.101254 -0.0523077 0
0.0998404 -0.0511538 0
0.0984272 -0.05 0
0.0970139 -0.0488462 0
0.0956006 -0.0476923 0
[...]
CELL_DATA 13116
SCALARS rho float
LOOKUP_TABLE default
0.5977
0.5977
0.5977
0.5977
0.5977
0.682084
0.597712
0.5977
0.5977
0.5977
0.58367
0.5977
0.5977
0.5977
0.5977
0.679624
0.5977
0.5977
0.5977
0.559031
0.5977
0.5977
0.5977
0.5977
0.5977
0.5977
0.5977
0.5977
0.5977
0.5977
0.68957
0.5977
0.5977
0.5977
0.597701
0.5977
0.5977
0.5977
0.686074
0.5977
0.597701
0.5977
0.5977
0.5977
0.5977
0.5977
0.5977
0.5977
0.5977
0.5977
0.5977
0.5977
0.5977
0.5977
0.5977
0.5977
0.5977
0.5977
0.5977
0.5977
0.5977
0.5977
0.5977
0.68683
0.689665
0.5977
0.5977
0.5977
0.5977
0.68895
0.5977
0.5977
0.5977
0.5977
0.689497
0.5977
0.5977
0.5977
0.595066
0.5977
0.5977
0.5977
0.5977
0.5977
0.5977
0.5977
0.597697
0.5977
0.5977
0.346196
0.5977
0.5977
0.5977
0.5977
0.5977
0.5977
0.5977
0.689999
0.689676
0.5977
0.5977
0.5977
0.5977
0.5977
0.5977
0.5977
0.5977
0.5977
0.5977
0.5977
0.5977
0.5977
0.5977
0.5977
0.5977
0.5977
0.5977
0.5977
0.5977
0.5977
0.5977
0.5977
0.5977
0.5977
0.5977
0.5977
0.597699
0.5977
0.5977
0.5977
0.5977
0.5977
0.5977
0.5977
0.5977
0.5977
0.577557
0.5977
0.5977
0.5977
0.5977
0.5977
0.5977
0.5977
0.5977
0.5977
0.597705
0.5977
0.5977
0.5977
0.5977
0.5977
0.5977
0.597699
0.5977
0.5977
0.5977
0.5977
0.691208
0.5977
0.5977
0.58617
0.5977
0.5977
0.5977
0.5977
0.5977
0.5977
0.597705
0.5977
0.5977
0.606625
0.5977
0.5977
0.5977
0.5977
0.5977
0.5977
0.5977
0.686121
0.497255
0.5977
0.5977
0.5977
0.681432
0.5977
0.597699
0.597696
0.5977
0.5977
0.5977
0.5977
0.689196
0.5977
0.5977
0.683825
0.5977
0.5977
0.5977
0.5977
0.5977
0.5977
0.5977
0.5977
0.5977
0.5977
0.5977
0.5977
0.5977
0.514336
0.5977
0.597703
0.5977
0.413375
0.383196
0.5977
0.5977
0.685667
0.5977
0.5977
0.5977
0.5977
0.5977
0.488469
0.5977
0.5977
0.5977
0.5977
0.5977
0.5977
0.5977
0.5977
0.688231
0.5977
0.690261
0.5977
0.688208
0.5977
0.5977
0.5977
0.690819
0.686113
0.644267
0.687303
0.5977
0.5977
0.5977
0.5977
0.690425
0.597714
0.5977
0.5977
0.5977
0.689092
0.5977
0.5977
0.5977
0.573824
0.5977
0.5977
0.5977
0.5977
0.5977
0.5977
0.597727
0.5977
0.5977
0.5977
0.5977
0.59772
0.5977
0.5977
0.689304
0.5977
0.5977
0.68903
0.5977
0.690588
0.5977
0.579047
0.597699
0.5977
0.5977
0.5977
0.5977
0.5977
0.5977
0.5977
0.5977
0.5977
0.5977
0.597699
0.544901
0.5977
0.5977
0.5977
0.5977
0.5977
0.5977
0.597577
0.597684
0.5977
0.5977
0.5977
0.688344
0.5977
0.597701
0.5977
0.678816
0.5977
0.5977
0.5977
0.5977
0.5977
0.5977
0.5977
0.5977
0.593309
0.5977
0.5977
0.432885
0.5977
0.5977
0.5977
0.5977
0.5977
0.5977
0.5977
0.5977
0.597698
0.5977
0.5977
0.5977
0.5977
0.5977
0.5977
0.5977
0.5977
0.5977
0.597728
0.5977
0.5977
0.686331
0.5977
0.5977
0.5977
0.5977
0.5977
0.597699
0.5977
0.5977
0.5977
0.601553
0.597699
0.5977
0.5977
0.5977
0.5977
0.597696
0.5977
0.5977
0.5977
0.597714
0.5977
0.5977
0.5977
0.5977
0.5977
0.5977
0.33609
0.5977
0.689317
0.680392
0.5977
0.5977
0.5977
0.5977
0.5977
0.499384
0.682676
0.485483
0.5977
0.5977
0.5977
0.5977
0.5977
0.5977
0.597698
0.5977
0.5977
0.5977
0.5977
0.5977
0.5977
0.5977
0.5977
0.597708
0.5977
0.5977
0.5977
0.5977
0.5977
0.5977
0.5977
0.5977
0.5977
0.5977
0.5977
0.5977
0.5977
0.687413
0.5977
0.5977
0.5977
0.5977
0.5977
0.5977
0.5977
0.5977
0.690747
0.5977
0.506463
0.403485
0.597699
0.5977
0.5977
0.5977
0.597701
0.5977
0.5977
0.344926
0.661986
0.5977
0.5977
0.5977
0.5977
0.5977
0.336526
0.597699
0.338688
0.5977
0.597707
0.490637
0.5977
0.5977
0.48619
0.5977
0.5977
0.5977
0.5977
0.5977
0.5977
0.5977
0.354877
0.5977
0.5977
0.5977
0.5977
0.5977
0.5977
0.5977
0.5977
0.5977
0.5977
0.5977
0.5977
0.597709
0.691508
0.5977
0.5977
0.689879
0.5977
0.5977
0.5977
0.5977
0.5977
0.5977
0.5977
0.5977
0.5977
0.545926
0.5977
0.5977
0.5977
0.5977
0.5977
0.5977
0.5977
0.5977
0.5977
0.5977
0.5977
0.5977
0.5977
0.5977
0.5977
0.5977
0.5977
0.5977
0.5977
0.5977
0.5977
0.5977
0.5977
0.5977
0.5977
0.5977
0.5977
0.5977
0.688893
0.5977
0.5977
0.5977
0.460936
0.5977
0.5977
0.5977
0.5977
0.5977
0.5977
0.5977
0.5977
0.5977
0.5977
0.5977
0.5977
0.5977
0.5977
0.404681
0.5977
0.5977
0.5977
0.377627
0.5977
0.5977
0.5977
0.5977
0.5977
0.417281
0.687397
0.5977
0.5977
0.5977
0.5977
0.5977
0.33612
0.335834
0.5977
0.445891
0.5977
0.5977
0.5977
0.5977
0.5977
0.5977
0.5977
0.5977
0.336169
0.500675
0.5977
0.5977
0.5977
0.5977
0.5977
0.5977
0.597697
0.5977
0.591843
0.5977
0.395567
0.5977
0.5977
0.5977
0.5977
0.5977
0.5977
0.5977
0.5977
0.5977
0.5977
0.5977
0.5977
0.5977
0.68998
0.5977
0.5977
0.5977
0.5977
0.5977
0.662604
0.5977
0.690231
0.5977
0.336277
0.5977
0.5977
0.690039
0.5977
0.597726
0.5977
0.687529
0.5977
0.597726
0.5977
0.390075
0.687801
0.5977
0.684725
0.5977
0.5977
0.5977
0.5977
0.5977
0.5977
0.5977
0.5977
0.5977
0.5977
0.5977
0.686519
0.5977
0.597393
0.5977
0.68993
0.357761
0.5977
0.5977
0.5977
0.594918
0.5977
0.5977
0.5977
0.688822
0.5977
0.5977
0.584905
0.5977
0.5977
0.597698
0.689968
0.5977
0.5977
0.5977
0.5977
0.5977
0.597702
0.5977
0.5977
0.5977
0.597351
0.5977
0.5977
0.5977
0.5977
0.579154
0.5977
0.5977
0.5977
0.5977
0.597702
0.576367
0.5977
0.5977
0.5977
0.5977
0.5977
0.5977
0.5977
0.5977
0.5977
0.5977
0.5977
0.5977
0.5977
0.5977
0.5977
0.5977
0.5977
0.5977
0.5977
0.5977
0.5977
0.5977
0.689074
0.5977
0.5977
0.5977
0.5977
0.5977
0.5977
0.5977
0.5977
0.5977
0.59761
0.5977
0.5977
0.687294
0.5977
0.5977
0.5977
0.5977
0.5977
0.5977
0.5977
0.5977
0.5977
0.554832
0.5977
0.5977
0.5977
0.415416
0.5977
0.5977
0.5977
0.5977
0.5977
0.50209
0.5977
0.5977
0.543193
0.5977
0.5977
0.5977
0.5977
0.5977
0.5977
0.5977
0.5977
0.5977
0.688545
0.5977
0.414057
0.5977
0.5977
0.5977
0.5977
0.596276
0.5977
0.5977
0.521863
0.5977
0.5977
0.5977
0.5977
0.688278
0.5977
0.5977
0.5977
0.5977
0.5977
0.33583
0.336135
0.597721
0.478012
0.5977
0.5977
0.687542
0.5977
0.517264
0.5977
0.5977
0.5977
0.5977
0.5977
0.5977
0.5977
0.5977
0.5977
0.497035
0.336044
0.67099
0.5977
0.417225
0.5977
0.592964
0.5977
0.336232
0.5977
0.5977
0.5977
0.689177
0.597649
0.5977
0.5977
0.597725
0.5977
0.5977
0.5977
0.5977
0.5977
0.5977
0.5977
0.5977
0.342313
0.5977
0.346823
0.593721
0.5977
0.691226
0.5977
0.338132
0.5977
0.689908
0.5977
0.5977
0.5977
0.687733
0.5977
0.5977
0.5977
0.686982
0.5977
0.48981
0.597308
0.689597
0.5977
0.5977
0.555628
0.5977
0.687764
0.5977
0.5977
0.5977
0.340135
0.690687
0.5977
0.343011
0.5977
0.5977
0.5977
0.5977
0.5977
0.5977
0.5977
0.5977
0.5977
0.5977
0.382587
0.5977
0.689103
0.5977
0.5977
0.5977
0.5977
0.5977
0.5977
0.5977
0.5977
0.597711
0.5977
0.5977
0.5977
0.596198
0.405763
0.5977
0.5977
0.5977
0.5977
0.686359
0.5977
0.5977
0.5977
0.5977
0.5977
0.5977
0.5977
0.5977
0.681656
0.5977
0.5977
0.5977
0.5977
0.5977
0.5977
0.5977
0.335937
0.5977
0.5977
0.5977
0.5977
0.5977
0.5977
0.5977
0.5977
0.5977
0.5977
0.672984
0.690495
0.5977
0.5977
0.687594
0.5977
0.5977
0.5977
0.5977
0.5977
0.5977
0.5977
0.5977
0.5977
0.5977
0.5977
0.5977
0.552926
0.581633
0.5977
0.5977
0.5977
0.5977
0.5977
0.5977
0.5977
0.686823
0.688642
0.5977
0.687441
0.5977
0.5977
0.5977
0.5977
0.5977
0.59215
0.5977
0.5977
0.689087
0.5977
0.5977
0.5977
0.5977
0.5977
0.336272
0.688581
0.597722
0.5977
0.5977
0.5977
0.5977
0.5977
0.5977
0.5977
0.5977
0.5977
0.686171
0.531966
0.5977
0.5977
0.5977
0.5977
0.690141
0.5977
0.59667
0.5977
0.5977
0.5977
0.5977
0.5977
0.336027
0.5977
0.5977
0.657705
0.690336
0.622142
0.5977
0.5977
0.5977
0.5977
0.336303
0.5977
0.643096
0.5977
0.687386
0.5977
0.59259
0.5977
0.5977
0.5977
0.5977
0.5977
0.5977
0.5977
0.5977
0.5977
0.689846
0.597716
0.5977
0.5977
0.597715
0.5977
0.5977
0.5977
0.5977
0.395188
0.5977
0.5977
0.5977
0.5977
0.5977
0.597699
0.5977
0.5977
0.5977
0.689682
0.5977
0.5977
0.5977
0.5977
0.5977
0.510497
0.5977
0.593366
0.5977
0.5977
0.5977
0.5977
0.5977
0.5977
0.5977
0.5977
0.5977
0.5977
0.5977
0.5977
0.5977
0.5977
0.579472
0.5977
0.687273
0.5977
0.5977
0.5977
0.68713
0.5977
0.5977
0.5977
0.5977
0.5977
0.597719
0.5977
0.5977
0.5977
0.5977
0.5977
0.597013
0.5977
0.5977
0.398006
0.5977
0.5977
0.5977
0.5977
0.557419
0.5977
0.597698
0.597701
0.476785
0.5977
0.5977
0.380219
0.5977
0.5977
0.5977
0.686801
0.5977
0.5977
0.5977
0.5977
0.5977
0.5977
0.361198
0.5977
0.597719
0.5977
0.5977
0.5977
0.5977
0.5977
0.687125
0.5977
0.5977
0.5977
0.5977
0.686614
0.596778
0.688884
0.5977
0.5977
0.5977
0.5977
0.5977
0.5977
0.5977
0.5977
0.686662
0.5977
0.5977
0.5977
0.5977
0.336514
0.593298
0.5977
0.5977
0.5977
0.5977
0.5977
0.5977
0.5977
0.5977
0.597719
0.5977
0.5977
0.5977
0.5977
0.5977
0.5977
0.5977
0.5977
0.5977
0.5977
0.689934
0.5977
0.597718
0.5977
0.5977
0.5977
0.5977
0.5977
0.5977
0.5977
0.5977
0.5977
0.597244
0.5977
0.5977
0.5977
0.5977
0.5977
0.5977
0.5977
0.5977
0.678604
0.5977
0.5977
0.558692
0.5977
0.597698
0.5977
0.5977
0.686963
0.5977
0.5977
0.5977
0.5977
0.5977
0.597701
0.5977
0.5977
0.5977
0.526611
0.5977
0.5977
0.5977
0.5977
0.5977
0.686126
0.5977
0.5977
0.5977
0.5977
0.687736
0.5977
0.5977
0.5977
0.5977
0.5977
0.5977
0.5977
0.5977
0.5977
0.5977
0.68711
0.5977
0.5977
0.5977
0.5977
0.679136
0.593209
0.5977
0.5977
0.690627
0.5977
0.5977
0.597714
0.5977
0.597698
0.5977
0.5977
0.374323
0.38351
0.5977
0.5977
0.5977
0.5977
0.5977
0.5977
0.5977
0.457941
0.5977
0.5977
0.666207
0.5977
0.5977
0.686466
0.5977
0.686457
0.686587
0.5977
0.5977
0.5977
0.5977
0.5977
0.5977
0.5977
0.5977
0.534707
0.5977
0.5977
0.5977
0.5977
0.5977
0.5977
0.597701
0.529956
0.5977
0.5977
0.557114
0.5977
0.689674
0.473941
0.5977
0.455505
0.5977
0.5977
0.5977
0.5977
0.5977
0.5977
0.597698
0.596442
0.5977
0.686549
0.5977
0.5977
0.5977
0.597698
0.5977
0.5977
0.5977
0.5977
0.5977
0.5977
0.5977
0.5977
0.5977
0.5977
0.5977
0.5977
0.515726
0.689678
0.689724
0.5977
0.5977
0.5977
0.5977
0.5977
0.5977
0.5977
0.5977
0.5977
0.5977
0.424754
0.687137
0.5977
0.338429
0.5977
0.5977
0.5977
0.5977
0.5977
0.5977
0.5977
0.5977
0.5977
0.5977
0.5977
0.5977
0.6877
0.5977
0.5977
0.5977
0.5977
0.691018
0.5977
0.5977
0.5977
0.5977
0.5977
0.5977
0.5977
0.5977
0.686151
0.5977
0.597503
0.5977
0.689345
0.5977
0.5977
0.336092
0.5977
0.59772
0.5977
0.5977
0.5977
0.5977
0.5977
0.5977
0.5977
0.368236
0.686977
0.685162
0.5977
0.597699
0.5977
0.5977
0.686524
0.5977
0.5977
0.5977
0.532832
0.597702
0.531121
0.5977
0.5977
0.678952
0.382019
0.5977
0.597699
0.5977
0.631232
0.5977
0.5977
0.5977
0.5977
0.469979
0.5977
0.5977
0.5977
0.360136
0.557894
0.5977
0.685957
0.5977
0.570814
0.5977
0.5977
0.5977
0.5977
0.5977
0.5977
0.5977
0.5977
0.5977
0.5977
0.597725
0.5977
0.5977
0.5977
0.5977
0.689946
0.385945
0.5977
0.5977
0.5977
0.689125
0.516566
0.5977
0.5977
0.5977
0.5977
0.5977
0.50329
0.5977
0.5977
0.688376
0.5977
0.5977
0.5977
0.5977
0.5977
0.687601
0.688314
0.5977
0.5977
0.686776
0.5977
0.5977
0.5977
0.5977
0.5977
0.660634
0.5977
0.5977
0.5977
0.417465
0.5977
0.5977
0.335948
0.5977
0.5977
0.5977
0.5977
0.5977
0.5977
0.5977
0.5977
0.5977
0.5977
0.5977
0.683701
0.5977
0.5977
0.5977
0.5977
0.5977
0.5977
0.597698
0.5977
0.677381
0.5977
0.5977
0.5977
0.5977
0.570917
0.5977
0.5977
0.402024
0.5977
0.5977
0.5977
0.5977
0.594533
0.5977
0.685922
0.5977
0.5977
0.5977
0.5977
0.337641
0.597704
0.5977
0.5977
0.5977
0.5977
0.5977
0.5977
0.5977
0.5977
0.593726
0.5977
0.5977
0.5977
0.5977
0.5977
0.5977
0.5977
0.592118
0.5977
0.5977
0.5977
0.5977
0.5977
0.5977
0.591806
0.5977
0.5977
0.5977
0.597227
0.5977
0.5977
0.5977
0.5977
0.5977
0.5977
0.687975
0.468701
0.5977
0.5977
0.5977
0.5977
0.5977
0.5977
0.5977
0.5977
0.5977
0.5977
0.5977
0.5977
0.5977
0.5977
0.5977
0.5977
0.689874
0.5977
0.5977
0.5977
0.5977
0.5977
0.5977
0.5977
0.5977
0.5977
0.688891
0.5977
0.5977
0.5977
0.5977
0.550132
0.5977
0.5977
0.597698
0.444719
0.5977
0.5977
0.335866
0.5977
0.5977
0.5977
0.597732
0.5977
0.5977
0.5977
0.5977
0.536232
0.5977
0.600686
0.337874
0.676512
0.340083
0.5977
0.5977
0.5977
0.597721
0.5977
0.5977
0.597698
0.5977
0.5977
0.5977
0.5977
0.5977
0.5977
0.5977
0.597701
0.5977
0.516927
0.687168
0.689541
0.5977
0.5977
0.5977
0.5977
0.686294
0.5977
0.5977
0.5977
0.522658
0.5977
0.5977
0.5977
0.5977
0.5977
0.5977
0.5977
0.5977
0.5977
0.5977
0.5977
0.5977
0.5977
0.5977
0.5977
0.5977
0.596947
0.5977
0.592324
0.5977
0.5977
0.5977
0.5977
0.33642
0.5977
0.5977
0.5977
0.5977
0.5977
0.5977
0.5977
0.5977
0.5977
0.5977
0.595191
0.5977
0.5977
0.5977
0.5977
0.597698
0.5977
0.5977
0.5977
0.5977
0.5977
0.5977
0.545521
0.691431
0.5977
0.488777
0.5977
0.5977
0.5977
0.5977
0.5977
0.5977
0.5977
0.5977
0.5977
0.5977
0.5977
0.570064
0.5977
0.689819
0.5977
0.521497
0.383066
0.5977
0.5977
0.5977
0.5977
0.389151
0.5977
0.5977
0.5977
0.5977
0.5977
0.5977
0.689919
0.5977
0.336228
0.597707
0.5977
0.472492
0.5977
0.5977
0.687711
0.5977
0.5977
0.415977
0.600538
0.537747
0.5977
0.5977
0.349709
0.5977
0.5977
0.5977
0.5977
0.549094
0.5977
0.5977
0.5977
0.5977
0.5977
0.5977
0.597726
0.5977
0.5977
0.5977
0.5977
0.5977
0.597614
0.345595
0.5977
0.570561
0.572415
0.5977
0.5977
0.5977
0.5977
0.5977
0.5977
0.5977
0.5977
0.686712
0.597508
0.5977
0.5977
0.5977
0.5977
0.5977
0.5977
0.5977
0.5977
0.5977
0.5977
0.5977
0.5977
0.5977
0.5977
0.5977
0.5977
0.5977
0.687506
0.5977
0.554547
0.5977
0.5977
0.5977
0.646893
0.686319
0.5977
0.5977
0.5977
0.5977
0.5977
0.5977
0.5977
0.5977
0.5977
0.597699
0.5977
0.597733
0.5977
0.596986
0.597644
0.5977
0.5977
0.5977
0.597698
0.5977
0.5977
0.377027
0.5977
0.5977
0.5977
0.5977
0.5977
0.5977
0.5977
0.5977
0.5977
0.5977
0.5977
0.5977
0.5977
0.340223
0.5977
0.5977
0.5977
0.5977
0.597702
0.5977
0.340008
0.5977
0.5977
0.5977
0.688778
0.5977
0.336182
0.5977
0.5977
0.5977
0.5977
0.5977
0.336624
0.460364
0.5977
0.5977
0.5977
0.5977
0.336151
0.5977
0.5977
0.5977
0.5977
0.5977
0.5977
0.690528
0.5977
0.5977
0.5977
0.5977
0.5977
0.5977
0.5977
0.5977
0.33642
0.502993
0.5977
0.442561
0.343462
0.5977
0.5977
0.5977
0.5977
0.5977
0.689294
0.5977
0.5977
0.687532
0.5977
0.686891
0.5977
0.512877
0.5977
0.686797
0.5977
0.5977
0.5977
0.5977
0.5977
0.612811
0.596024
0.5977
0.5977
0.688571
0.5977
0.597698
0.5977
0.430404
0.418277
0.5977
0.5977
0.5977
0.597723
0.5977
0.5977
0.5977
0.5977
0.5977
0.342512
0.5977
0.5977
0.5977
0.5977
0.5977
0.689864
0.5977
0.5977
0.5977
0.5977
0.359901
0.5977
0.5977
0.5977
0.5977
0.5977
0.5977
0.5977
0.5977
0.5977
0.5977
0.619227
0.5977
0.393884
0.5977
0.424843
0.5977
0.5977
0.5977
0.5977
0.5977
0.5977
0.5977
0.35763
0.5977
0.5977
0.5977
0.5977
0.528872
0.5977
0.5977
0.5977
0.597729
0.5977
0.5977
0.5977
0.5977
0.5977
0.5977
0.336139
0.5977
0.5977
0.5977
0.5977
0.336943
0.5977
0.5977
0.5977
0.5977
0.5977
0.597216
0.5977
0.5977
0.522281
0.5977
0.5977
0.5977
0.5977
0.5977
0.597694
0.5977
0.5977
0.5977
0.5977
0.5977
0.5977
0.5977
0.5977
0.5977
0.5977
0.5977
0.5977
0.597721
0.597708
0.5977
0.5977
0.5977
0.5977
0.5977
0.5977
0.339828
0.5977
0.689319
0.5977
0.597708
0.5977
0.5977
0.5977
0.5977
0.5977
0.5977
0.5977
0.5977
0.5977
0.633587
0.5977
0.558323
0.5977
0.5977
0.647761
0.597702
0.5977
0.5977
0.5977
0.688996
0.5977
0.5977
0.5977
0.460753
0.5977
0.5977
0.336277
0.597723
0.5977
0.5977
0.5977
0.5977
0.5977
0.5977
0.5977
0.5977
0.5977
0.688849
0.5977
0.5977
0.5977
0.5977
0.5977
0.517556
0.5977
0.5977
0.3569
0.5977
0.5977
0.69022
0.5977
0.5977
0.5977
0.5977
0.5977
0.5977
0.5977
0.5977
0.5977
0.5977
0.5977
0.5977
0.688935
0.5977
0.5977
0.439441
0.5977
0.5977
0.5977
0.5977
0.682315
0.447452
0.5977
0.597736
0.5977
0.5977
0.5977
0.5977
0.5977
0.47598
0.5977
0.5977
0.5977
0.689743
0.5977
0.5977
0.5977
0.5977
0.5977
0.5977
0.5977
0.5977
0.5977
0.5977
0.5977
0.5977
0.5977
0.5977
0.5977
0.5977
0.5977
0.690012
0.5977
0.5977
0.5977
0.5977
0.5977
0.385694
0.5977
0.5977
0.685983
0.5977
0.5977
0.5977
0.5977
0.5977
0.387503
0.597713
0.5977
0.690867
0.5977
0.5977
0.690547
0.346052
0.5977
0.5977
0.5977
0.5977
0.5977
0.5977
0.597655
0.5977
0.5977
0.5977
0.5977
0.5977
0.5977
0.5977
0.5977
0.5977
0.5977
0.5977
0.5977
0.5977
0.5977
0.5977
0.5977
0.5977
0.597708
0.5977
0.5977
0.5977
0.5977
0.5977
0.5977
0.5977
0.5977
0.5977
0.5977
0.336684
0.5977
0.5977
0.5977
0.5977
0.5977
0.618058
0.5977
0.398091
0.5977
0.5977
0.5977
0.5977
0.5977
0.5977
0.687372
0.5977
0.5977
0.5977
0.5977
0.687143
0.5977
0.476713
0.5977
0.5977
0.5977
0.5977
0.657464
0.5977
0.5977
0.5977
0.5977
0.687853
0.5977
0.395213
0.5977
0.5977
0.5977
0.5977
0.5977
0.5977
0.5977
0.5977
0.5977
0.5977
0.488548
0.5977
0.5977
0.5977
0.5977
0.5977
0.5977
0.5977
0.5977
0.5977
0.5977
0.5977
0.5977
0.5977
0.5977
0.5977
0.597701
0.682316
0.5977
0.5977
0.5977
0.5977
0.5977
0.5977
0.535977
0.5977
0.5977
0.5977
0.679096
0.5977
0.5977
0.336078
0.5977
0.5977
0.5977
0.5977
0.5977
0.5977
0.5977
0.5977
0.5977
0.5977
0.5977
0.393075
0.5977
0.5977
0.5977
0.5977
0.5977
0.5977
0.5977
0.5977
0.3383
0.521871
0.690305
0.5977
0.5977
0.5977
0.5977
0.5977
0.5977
0.690609
0.5977
0.336884
0.5977
0.336176
0.5977
0.5977
0.5977
0.5977
0.68989
0.5977
0.5977
0.5977
0.463492
0.5977
0.5977
0.5977
0.5977
0.5977
0.5977
0.690253
0.336221
0.550519
0.690089
0.558115
0.5977
0.5977
0.5977
0.336313
0.597708
0.5977
0.5977
0.5977
0.5977
0.5977
0.5977
0.5977
0.5977
0.5977
0.336114
0.5977
0.421345
0.5977
0.527393
0.5977
0.5977
0.5977
0.5977
0.597717
0.687969
0.5977
0.538471
0.5977
0.5977
0.5977
0.5977
0.5977
0.5977
0.690482
0.5977
0.5977
0.5977
0.5977
0.5977
0.506031
0.5977
0.687697
0.5977
0.336581
0.5977
0.5977
0.5977
0.5977
0.5977
0.5977
0.5977
0.5977
0.5977
0.5977
0.5977
0.5977
0.5977
0.5977
0.431383
0.5977
0.5977
0.492032
0.5977
0.5977
0.5977
0.5977
0.5977
0.5977
0.5977
0.5977
0.5977
0.562191
0.5977
0.457944
0.5977
0.5977
0.55242
0.5977
0.686883
0.5977
0.5977
0.5977
0.5977
0.5977
0.5977
0.5977
0.5977
0.59734
0.5977
0.5977
0.5977
0.5977
0.5977
0.5977
0.5977
0.5977
0.5977
0.5977
0.5977
0.5977
0.396271
0.5977
0.5977
0.5977
0.5977
0.5977
0.5977
0.5977
0.5977
0.584903
0.5977
0.336222
0.5977
0.5977
0.5977
0.5977
0.5977
0.5977
0.5977
0.617189
0.5977
0.5977
0.5977
0.5977
0.5977
0.5977
0.5977
0.5977
0.5977
0.688994
0.5977
0.5977
0.655945
0.5977
0.625803
0.5977
0.5977
0.5977
0.5977
0.5977
0.622262
0.5977
0.5977
0.5977
0.5977
0.5977
0.5977
0.689855
0.5977
0.68893
0.5977
0.558809
0.689909
0.5977
0.5977
0.573968
0.335994
0.5977
0.5977
0.340925
0.5977
0.5977
0.5977
0.597734
0.5977
0.5977
0.5977
0.597701
0.5977
0.658635
0.5977
0.5977
0.5977
0.5977
0.5977
0.5977
0.5977
0.5977
0.5977
0.378624
0.5977
0.5977
0.5977
0.443695
0.690305
0.5977
0.5977
0.597715
0.5977
0.5977
0.343354
0.5977
0.5977
0.5977
0.5977
0.5977
0.5977
0.5977
0.5977
0.680981
0.5977
0.342506
0.5977
0.5977
0.5977
0.5977
0.5977
0.5977
0.455702
0.5977
0.689643
0.5977
0.5977
0.5977
0.5977
0.5977
0.5977
0.5977
0.5977
0.5977
0.423675
0.5977
0.5977
0.5977
0.5977
0.5977
0.5977
0.5977
0.5977
0.5977
0.5977
0.5977
0.432213
0.351144
0.5977
0.5977
0.547391
0.5977
0.5977
0.5977
0.5977
0.5977
0.5977
0.5977
0.421787
0.5977
0.5977
0.5977
0.5977
0.393694
0.5977
0.5977
0.5977
0.5977
0.5977
0.5977
0.366624
0.529792
0.5977
0.5977
0.686597
0.5977
0.409409
0.5977
0.387774
0.5977
0.5977
0.5977
0.553658
0.5977
0.687924
0.5977
0.5977
0.5977
0.5977
0.686933
0.5977
0.5977
0.5977
0.566224
0.5977
0.5977
0.548253
0.59771
0.5977
0.5977
0.5977
0.5977
0.5977
0.69026
0.68924
0.5977
0.5977
0.5977
0.5977
0.687126
0.5977
0.343907
0.5977
0.5977
0.5977
0.371972
0.681482
0.5977
0.5977
0.5977
0.5977
0.5977
0.5977
0.597726
0.689301
0.5977
0.596191
0.5977
0.5977
0.5977
0.5977
0.5977
0.5977
0.5977
0.559565
0.597702
0.5977
0.5977
0.344435
0.686456
0.5977
0.5977
0.5977
0.5977
0.5977
0.5977
0.5977
0.5977
0.5977
0.5977
0.5977
0.686849
0.5977
0.5977
0.5977
0.5977
0.5977
0.5977
0.5977
0.5977
0.557095
0.5977
0.5977
0.5977
0.670355
0.5977
0.5977
0.5977
0.5977
0.595228
0.5977
0.5977
0.5977
0.336344
0.65647
0.442264
0.5977
0.5977
0.5977
0.5977
0.5977
0.5977
0.5977
0.5977
0.5977
0.5977
0.636342
0.597704
0.656033
0.5977
0.5977
0.5977
0.597703
0.5977
0.5977
0.5977
0.5977
0.5977
0.427555
0.5977
0.688686
0.5977
0.5977
0.5977
0.5977
0.5977
0.5977
0.5977
0.5977
0.5977
0.476749
0.5977
0.5977
0.597702
0.594007
0.5977
0.5977
0.5977
0.5977
0.5977
0.5977
0.597695
0.5977
0.686424
0.5977
0.5977
0.593669
0.5977
0.5977
0.5977
0.5977
0.5977
0.5977
0.5977
0.5977
0.5977
0.5977
0.5977
0.5977
0.5977
0.597699
0.5977
0.5977
0.336431
0.381775
0.5977
0.5977
0.5977
0.592172
0.687953
0.5977
0.5977
0.581163
0.5977
0.5977
0.5977
0.5977
0.597718
0.5977
0.597721
0.5977
0.5977
0.5977