# vtk DataFile Version 1.0
unstructured grid
ascii
DATASET UNSTRUCTURED_GRID
points 13672 float
0.0796578 -0.059106 0
0.00128732 0.00159165 0
0.00227961 -0.00102548 0
0.0791586 -0.0598787 0
-0.0546216 0.01 0
0.000495206 0.025 0
0.0800549 -0.035 0
0.135172 -0.08 0
-0.0546216 -0.0451168 0
0.000495206 -0.0301168 0
0.0800549 -0.0901168 0
0.135172 -0.135117 0
-0.0546216 -0.0451168 -0.00551168
0.000495206 -0.0301168 -0.00551168
0.0800549 -0.0901168 -0.00551168
0.135172 -0.135117 -0.00551168
0.135172 -0.08 -0.00551168
0.0800549 -0.035 -0.00551168
0.000495206 0.025 -0.00551168
-0.0546216 0.01 -0.00551168
0.00128732 0.00159165 -0.00551168
0.00227961 -0.00102548 -0.00551168
0.0791586 -0.0598787 -0.00551168
0.0796578 -0.059106 -0.00551168
0.00165953 -0.000990923 0
0.00119576 -0.000874076 0
0.000866021 -0.000641801 0
0.000645147 -0.000349912 0
0.00052235 -1.7281e-05 0
0.00049972 0.000348016 0
0.000601632 0.000737716 0
0.000861774 0.0011403 0
0.00157235 0.00183217 0
0.00188647 0.00206725 0
0.00222612 0.00230203 0
0.00258713 0.00254351 0
0.00296826 0.00279524 0
0.00337118 0.00305664 0
0.00379785 0.00332658 0
0.00425045 0.00360349 0
0.00473139 0.00388521 0
0.0052432 0.00416895 0
0.0057881 0.00445204 0
0.00636753 0.00473281 0
0.00698281 0.00500961 0
0.00763526 0.00528058 0
0.00832616 0.00554366 0
0.00905691 0.00579603 0
0.00982918 0.00603333 0
0.0106445 0.00625033 0
0.0115038 0.00644128 0
0.0124073 0.00660297 0
0.0133543 0.00673414 0
0.0143444 0.00683382 0
0.0153769 0.00690031 0
0.0164512 0.00693173 0
0.0175666 0.00692547 0
0.0187219 0.00687822 0
0.0199156 0.00678477 0
0.0211454 0.00663864 0
0.0224084 0.00643275 0
0.0237018 0.00616676 0
0.0250249 0.00584739 0
0.026375 0.00547298 0
0.0277479 0.00503752 0
0.0291386 0.00453545 0
0.0305433 0.0039653 0
0.0319572 0.0033256 0
0.0333681 0.00260019 0
0.034775 0.00179799 0
0.0361793 0.000930615 0
0.0375798 3.12222e-06 0
0.0389689 -0.000988429 0
0.0403357 -0.00205109 0
0.041675 -0.00318283 0
0.0429849 -0.00437751 0
0.0442643 -0.00562904 0
0.0455126 -0.00693089 0
0.0467314 -0.00827518 0
0.0479204 -0.00965638 0
0.0490661 -0.0110799 0
0.0501515 -0.0125519 0
0.0511696 -0.0140695 0
0.0521492 -0.0156071 0
0.0531202 -0.0171411 0
0.0540851 -0.0186663 0
0.0550431 -0.0201798 0
0.0559923 -0.0216793 0
0.0569311 -0.0231626 0
0.0578582 -0.0246273 0
0.0587723 -0.0260715 0
0.0596721 -0.027493 0
0.0605563 -0.02889 0
0.0614241 -0.0302609 0
0.0622742 -0.0316042 0
0.063106 -0.0329183 0
0.0639186 -0.034202 0
0.0647113 -0.0354543 0
0.0654835 -0.0366743 0
0.0662345 -0.0378613 0
0.0669642 -0.0390145 0
0.0676726 -0.0401333 0
0.0683597 -0.0412172 0
0.0690246 -0.0422665 0
0.0696662 -0.0432819 0
0.0702841 -0.0442636 0
0.0708793 -0.0452111 0
0.0714538 -0.0461237 0
0.072009 -0.047001 0
0.0725452 -0.0478434 0
0.0730611 -0.0486524 0
0.073556 -0.0494294 0
0.0740291 -0.0501756 0
0.0744812 -0.0508916 0
0.0749138 -0.0515773 0
0.0753285 -0.0522331 0
0.0757266 -0.0528592 0
0.076109 -0.0534564 0
0.0764753 -0.0540264 0
0.0768243 -0.054571 0
0.0771553 -0.0550919 0
0.0774679 -0.0555901 0
0.0777617 -0.0560669 0
0.0780369 -0.056523 0
0.0782958 -0.0569578 0
0.0785421 -0.0573703 0
0.0787786 -0.0577603 0
0.0790073 -0.0581279 0
0.0792295 -0.058474 0
0.0794462 -0.0587995 0
0.0798803 -0.0594162 0
0.0800272 -0.0596588 0
0.0800357 -0.0598891 0
0.0799275 -0.0600784 0
0.0797205 -0.0601773 0
0.0794593 -0.0601051 0
0.0789155 -0.0596491 0
0.0786707 -0.0593963 0
0.0784111 -0.0591319 0
0.0781372 -0.0588542 0
0.0778566 -0.0585548 0
0.0775715 -0.0582308 0
0.0772803 -0.0578828 0
0.0769832 -0.0575099 0
0.0766822 -0.0571097 0
0.0763801 -0.0566796 0
0.0760759 -0.0562196 0
0.0757623 -0.0557337 0
0.0754359 -0.0552232 0
0.0750951 -0.0546879 0
0.0747379 -0.054128 0
0.0743626 -0.0535435 0
0.0739688 -0.0529338 0
0.0735559 -0.0522981 0
0.0731238 -0.0516357 0
0.0726718 -0.050946 0
0.0721991 -0.0502288 0
0.0717046 -0.049484 0
0.0711872 -0.0487117 0
0.0706461 -0.047912 0
0.0700804 -0.0470849 0
0.0694892 -0.0462308 0
0.0688718 -0.0453499 0
0.0682271 -0.0444431 0
0.0675544 -0.043511 0
0.0668527 -0.0425546 0
0.0661215 -0.0415748 0
0.06536 -0.040573 0
0.0645676 -0.0395504 0
0.0637439 -0.0385087 0
0.0628887 -0.0374493 0
0.062002 -0.0363741 0
0.0610838 -0.0352847 0
0.0601345 -0.0341831 0
0.0591547 -0.033071 0
0.0581456 -0.0319502 0
0.0571083 -0.0308224 0
0.0560444 -0.0296893 0
0.0549562 -0.028552 0
0.053845 -0.0274126 0
0.0527113 -0.0262746 0
0.051554 -0.0251427 0
0.0503724 -0.0240222 0
0.0491675 -0.0229164 0
0.047941 -0.0218282 0
0.0466955 -0.0207597 0
0.0454337 -0.0197126 0
0.0441592 -0.0186878 0
0.0428751 -0.0176863 0
0.0415841 -0.0167097 0
0.0402878 -0.0157609 0
0.0389879 -0.0148428 0
0.0376864 -0.0139575 0
0.0363853 -0.013107 0
0.0350871 -0.0122931 0
0.0337942 -0.0115164 0
0.0325095 -0.0107772 0
0.0312357 -0.0100756 0
0.0299758 -0.00941024 0
0.0287337 -0.00877784 0
0.0275126 -0.00817571 0
0.0263139 -0.00760375 0
0.0251376 -0.00706528 0
0.0239829 -0.0065649 0
0.0228537 -0.00609619 0
0.0217522 -0.00565563 0
0.0206795 -0.00524226 0
0.0196364 -0.00485507 0
0.0186233 -0.00449318 0
0.0176408 -0.00415577 0
0.016689 -0.00384204 0
0.0157682 -0.00355115 0
0.0148783 -0.00328218 0
0.0140192 -0.00303468 0
0.0131906 -0.00280795 0
0.0123925 -0.00260016 0
0.0116246 -0.00241012 0
0.0108864 -0.00223769 0
0.0101774 -0.00208212 0
0.00949701 -0.00194206 0
0.00884483 -0.0018163 0
0.0082202 -0.0017039 0
0.00762247 -0.00160391 0
0.00705097 -0.00151528 0
0.006505 -0.00143697 0
0.0059838 -0.00136806 0
0.00548662 -0.00130772 0
0.00501265 -0.00125519 0
0.00456114 -0.00120954 0
0.00413136 -0.00116914 0
0.00372257 -0.00113251 0
0.00333398 -0.00109853 0
0.00296466 -0.00106798 0
0.00261363 -0.0010431 0
-0.052721 -0.0445996 0
-0.0508204 -0.0440823 0
-0.0489199 -0.0435651 0
-0.0470193 -0.0430478 0
-0.0451187 -0.0425306 0
-0.0432181 -0.0420134 0
-0.0413175 -0.0414961 0
-0.039417 -0.0409789 0
-0.0375164 -0.0404616 0
-0.0356158 -0.0399444 0
-0.0337152 -0.0394271 0
-0.0318146 -0.0389099 0
-0.0299141 -0.0383927 0
-0.0280135 -0.0378754 0
-0.0261129 -0.0373582 0
-0.0242123 -0.0368409 0
-0.0223117 -0.0363237 0
-0.0204112 -0.0358065 0
-0.0185106 -0.0352892 0
-0.01661 -0.034772 0
-0.0147094 -0.0342547 0
-0.0128088 -0.0337375 0
-0.0109083 -0.0332202 0
-0.00900769 -0.032703 0
-0.00710711 -0.0321858 0
-0.00520653 -0.0316685 0
-0.00330595 -0.0311513 0
-0.00140537 -0.030634 0
0.00190689 -0.0299614 0
0.00332271 -0.0298498 0
0.00474133 -0.0297825 0
0.00616136 -0.0297597 0
0.0075814 -0.0297814 0
0.00900007 -0.0298477 0
0.010416 -0.0299583 0
0.0118278 -0.0301127 0
0.0132342 -0.0303103 0
0.0146339 -0.0305504 0
0.0160259 -0.0308322 0
0.0174091 -0.0311546 0
0.0187824 -0.0315166 0
0.020145 -0.031917 0
0.0214961 -0.0323546 0
0.0228351 -0.032828 0
0.0241613 -0.0333361 0
0.0254744 -0.0338774 0
0.0267738 -0.0344507 0
0.0280592 -0.0350545 0
0.0293306 -0.0356877 0
0.0305875 -0.0363488 0
0.0318301 -0.0370367 0
0.0330581 -0.0377501 0
0.0342717 -0.0384879 0
0.0354708 -0.0392489 0
0.0366556 -0.0400321 0
0.0378262 -0.0408363 0
0.0389828 -0.0416607 0
0.0401254 -0.0425042 0
0.0412543 -0.0433659 0
0.0423698 -0.0442451 0
0.043472 -0.0451408 0
0.0445612 -0.0460523 0
0.0456375 -0.0469789 0
0.0467013 -0.0479199 0
0.0477529 -0.0488746 0
0.0487923 -0.0498424 0
0.04982 -0.0508227 0
0.0508362 -0.051815 0
0.051841 -0.0528187 0
0.0528348 -0.0538333 0
0.0538178 -0.0548584 0
0.0547903 -0.0558935 0
0.0557524 -0.0569382 0
0.0567045 -0.0579922 0
0.0576467 -0.0590549 0
0.0585792 -0.0601261 0
0.0595024 -0.0612055 0
0.0604163 -0.0622926 0
0.0613212 -0.0633873 0
0.0622174 -0.0644891 0
0.0631049 -0.0655979 0
0.0639841 -0.0667134 0
0.064855 -0.0678353 0
0.0657179 -0.0689633 0
0.0665729 -0.0700974 0
0.0674202 -0.0712372 0
0.06826 -0.0723826 0
0.0690925 -0.0735333 0
0.0699178 -0.0746892 0
0.070736 -0.0758501 0
0.0715473 -0.0770159 0
0.0723518 -0.0781863 0
0.0731498 -0.0793612 0
0.0739412 -0.0805405 0
0.0747264 -0.081724 0
0.0755053 -0.0829116 0
0.0762781 -0.0841033 0
0.0770449 -0.0852987 0
0.0778059 -0.0864979 0
0.0785611 -0.0877007 0
0.0793108 -0.088907 0
0.0814681 -0.0912706 0
0.0828814 -0.0924245 0
0.0842946 -0.0935783 0
0.0857079 -0.0947322 0
0.0871211 -0.095886 0
0.0885344 -0.0970399 0
0.0899476 -0.0981937 0
0.0913609 -0.0993476 0
0.0927741 -0.100501 0
0.0941874 -0.101655 0
0.0956006 -0.102809 0
0.0970139 -0.103963 0
0.0984272 -0.105117 0
0.0998404 -0.106271 0
0.101254 -0.107424 0
0.102667 -0.108578 0
0.10408 -0.109732 0
0.105493 -0.110886 0
0.106907 -0.11204 0
0.10832 -0.113194 0
0.109733 -0.114348 0
0.111146 -0.115501 0
0.11256 -0.116655 0
0.113973 -0.117809 0
0.115386 -0.118963 0
0.116799 -0.120117 0
0.118213 -0.121271 0
0.119626 -0.122424 0
0.121039 -0.123578 0
0.122452 -0.124732 0
0.123866 -0.125886 0
0.125279 -0.12704 0
0.126692 -0.128194 0
0.128105 -0.129348 0
0.129519 -0.130501 0
0.130932 -0.131655 0
0.132345 -0.132809 0
0.133758 -0.133963 0
0.135172 -0.133216 0
0.135172 -0.131316 0
0.135172 -0.129415 0
0.135172 -0.127514 0
0.135172 -0.125614 0
0.135172 -0.123713 0
0.135172 -0.121813 0
0.135172 -0.119912 0
0.135172 -0.118012 0
0.135172 -0.116111 0
0.135172 -0.11421 0
0.135172 -0.11231 0
0.135172 -0.110409 0
0.135172 -0.108509 0
0.135172 -0.106608 0
0.135172 -0.104708 0
0.135172 -0.102807 0
0.135172 -0.100906 0
0.135172 -0.0990058 0
0.135172 -0.0971052 0
0.135172 -0.0952046 0
0.135172 -0.0933041 0
0.135172 -0.0914035 0
0.135172 -0.0895029 0
0.135172 -0.0876023 0
0.135172 -0.0857017 0
0.135172 -0.0838012 0
0.135172 -0.0819006 0
0.133758 -0.0788462 0
0.132345 -0.0776923 0
0.130932 -0.0765385 0
0.129519 -0.0753846 0
0.128105 -0.0742308 0
0.126692 -0.0730769 0
0.125279 -0.0719231 0
0.123866 -0.0707692 0
0.122452 -0.0696154 0
0.121039 -0.0684615 0
0.119626 -0.0673077 0
0.118213 -0.0661538 0
0.116799 -0.065 0
0.115386 -0.0638462 0
0.113973 -0.0626923 0
0.11256 -0.0615385 0
0.111146 -0.0603846 0
0.109733 -0.0592308 0
0.10832 -0.0580769 0
0.106907 -0.0569231 0
0.105493 -0.0557692 0
0.10408 -0.0546154 0
0.102667 -0.0534615 0
0.101254 -0.0523077 0
0.0998404 -0.0511538 0
0.0984272 -0.05 0
0.0970139 -0.0488462 0
0.0956006 -0.0476923 0
[...]
CELL_DATA 13116
SCALARS rho float
LOOKUP_TABLE default
0.635555
0.709799
0.307088
0.712654
0.712693
0.706691
0.296555
0.713577
0.598056
0.7128
0.302658
0.273295
0.712686
0.282549
0.282183
0.706588
0.629561
0.715928
0.701915
0.319533
0.638475
0.304435
0.290796
0.715595
0.667657
0.711775
0.712883
0.310077
0.659389
0.706689
0.56138
0.275809
0.634638
0.446981
0.295534
0.634819
0.721994
0.704746
0.698036
0.710432
0.70142
0.713694
0.469629
0.306414
0.702079
0.702142
0.711394
0.702519
0.292497
0.584135
0.712435
0.466217
0.29105
0.620518
0.633674
0.654214
0.30684
0.715514
0.62745
0.280611
0.286241
0.712811
0.708708
0.692144
0.556117
0.305284
0.70582
0.72014
0.706187
0.552772
0.283719
0.646158
0.307498
0.304438
0.561877
0.302894
0.715816
0.712368
0.302441
0.717859
0.720209
0.71199
0.714852
0.703858
0.712657
0.397646
0.302913
0.717999
0.711762
0.31859
0.279815
0.709369
0.714535
0.712442
0.714688
0.672178
0.67021
0.562958
0.562466
0.656035
0.719057
0.708484
0.701358
0.413262
0.710276
0.267138
0.35135
0.510079
0.305341
0.668427
0.552455
0.71111
0.669447
0.719614
0.717475
0.708259
0.299177
0.376363
0.712765
0.709366
0.719761
0.311682
0.707251
0.279392
0.712839
0.426819
0.301666
0.474651
0.305202
0.597241
0.712587
0.719651
0.473675
0.298168
0.440348
0.675562
0.558636
0.709553
0.718942
0.709485
0.708127
0.711168
0.482045
0.70935
0.71154
0.267249
0.296486
0.711597
0.713284
0.712051
0.62899
0.703744
0.702467
0.305155
0.713336
0.712387
0.292062
0.718799
0.563822
0.717526
0.715387
0.302441
0.714807
0.295573
0.313303
0.713044
0.71246
0.716184
0.295795
0.42046
0.390834
0.559948
0.279073
0.484693
0.707459
0.288706
0.293149
0.306784
0.710947
0.700697
0.316379
0.410799
0.594168
0.721604
0.700872
0.625138
0.311393
0.705009
0.710027
0.449705
0.720949
0.711309
0.562629
0.289307
0.710415
0.70159
0.714062
0.703038
0.711724
0.371995
0.415064
0.673023
0.479599
0.298469
0.714235
0.703831
0.473858
0.678619
0.269239
0.308564
0.304353
0.703547
0.293371
0.322045
0.313979
0.305027
0.365455
0.691271
0.712827
0.413865
0.307251
0.70547
0.543761
0.315928
0.622503
0.712586
0.712058
0.310577
0.706861
0.363985
0.714717
0.276752
0.578208
0.638629
0.563049
0.710788
0.597083
0.283091
0.421804
0.716258
0.562689
0.701433
0.558629
0.617403
0.713316
0.294903
0.711344
0.712762
0.562269
0.301109
0.294613
0.70364
0.712253
0.554068
0.708952
0.626693
0.71847
0.303337
0.285204
0.37543
0.265339
0.709838
0.714037
0.713362
0.304913
0.712286
0.312862
0.392388
0.710349
0.305791
0.71206
0.712996
0.561168
0.715528
0.282894
0.561002
0.719567
0.562097
0.709531
0.305692
0.309689
0.291509
0.671585
0.310607
0.304646
0.334466
0.316882
0.706162
0.284788
0.711397
0.712915
0.315895
0.319831
0.31339
0.428137
0.310958
0.71773
0.698256
0.711042
0.306364
0.701719
0.639841
0.285442
0.281703
0.701587
0.711803
0.701698
0.311344
0.70146
0.423859
0.717503
0.713467
0.711334
0.713446
0.291275
0.705827
0.270642
0.707176
0.712337
0.713778
0.318791
0.330182
0.712522
0.311182
0.711598
0.712848
0.345995
0.718557
0.714935
0.313558
0.711612
0.714527
0.249049
0.71203
0.425917
0.630203
0.714486
0.431147
0.718728
0.306348
0.715571
0.332825
0.657661
0.707796
0.714044
0.309423
0.354797
0.712562
0.304205
0.71414
0.710182
0.405011
0.560248
0.309372
0.302986
0.715209
0.626234
0.720707
0.308598
0.293955
0.711286
0.712898
0.298036
0.712498
0.296204
0.267193
0.709496
0.713996
0.526208
0.331527
0.710081
0.560052
0.705816
0.71289
0.715069
0.628256
0.323002
0.268403
0.317212
0.705154
0.317059
0.591977
0.351527
0.285045
0.349829
0.535908
0.101109
0.305117
0.711955
0.278618
0.714522
0.65909
0.701968
0.712929
0.711599
0.30419
0.311514
0.37774
0.324234
0.715641
0.667479
0.701476
0.660008
0.711577
0.689644
0.71182
0.710364
0.705526
0.71561
0.718326
0.706276
0.379447
0.474011
0.630718
0.302264
0.695731
0.655082
0.292622
0.707376
0.562128
0.292432
0.318829
0.316765
0.311729
0.67743
0.288316
0.289642
0.705117
0.309014
0.638787
0.322368
0.702511
0.722424
0.313603
0.299103
0.715515
0.424563
0.328482
0.312618
0.321521
0.304692
0.313074
0.32025
0.31003
0.396756
0.308463
0.707886
0.317791
0.711736
0.350282
0.278462
0.504301
0.260128
0.316927
0.264141
0.711018
0.404466
0.687801
0.526738
0.308934
0.681909
0.711826
0.390488
0.71872
0.695979
0.698792
0.315631
0.56403
0.378125
0.71493
0.562828
0.300057
0.28487
0.709906
0.326006
0.42455
0.708791
0.350809
0.718924
0.710638
0.318445
0.292092
0.27896
0.479291
0.280846
0.273146
0.280435
0.270219
0.712977
0.712832
0.434347
0.658474
0.445503
0.710471
0.354465
0.294968
0.611582
0.30106
0.704504
0.307016
0.363165
0.459738
0.702178
0.712249
0.62803
0.342372
0.287182
0.626618
0.713409
0.610242
0.625889
0.710875
0.709799
0.310645
0.722776
0.63644
0.715434
0.330571
0.311019
0.719712
0.714232
0.711566
0.712627
0.711595
0.712008
0.715422
0.713704
0.70176
0.315619
0.702158
0.351882
0.272363
0.3234
0.712696
0.70361
0.327042
0.71252
0.672344
0.319973
0.653879
0.71151
0.717174
0.309746
0.296307
0.713149
0.331719
0.331178
0.258844
0.311922
0.70434
0.26255
0.712325
0.31679
0.710118
0.712194
0.704771
0.712862
0.331483
0.319161
0.704123
0.715325
0.727745
0.712995
0.712927
0.488887
0.314714
0.303774
0.701687
0.611905
0.318729
0.42466
0.28422
0.713121
0.709522
0.329157
0.306371
0.712081
0.438793
0.7105
0.703478
0.304511
0.364542
0.727304
0.563238
0.297359
0.712064
0.71249
0.703969
0.301083
0.560591
0.306977
0.562038
0.714354
0.333296
0.362449
0.306104
0.559695
0.306443
0.300099
0.379962
0.681245
0.718532
0.300584
0.283489
0.31475
0.665938
0.309125
0.701357
0.269882
0.648111
0.712591
0.354474
0.294723
0.292382
0.493102
0.304999
0.712384
0.310306
0.291487
0.69957
0.280549
0.704508
0.711435
0.562439
0.320563
0.705156
0.714223
0.714022
0.701709
0.713546
0.70936
0.271704
0.581951
0.414321
0.705524
0.30717
0.713185
0.511107
0.293532
0.556665
0.714298
0.299879
0.71111
0.279905
0.284144
0.704716
0.711294
0.283385
0.267595
0.30158
0.269735
0.713407
0.715705
0.301051
0.317094
0.714217
0.709479
0.64942
0.714284
0.70884
0.303065
0.713944
0.396501
0.712291
0.382987
0.663206
0.429766
0.705695
0.720547
0.639496
0.349316
0.308463
0.707467
0.65982
0.617544
0.71439
0.265216
0.720311
0.713582
0.390041
0.471233
0.714131
0.346415
0.554865
0.716856
0.325019
0.710276
0.713322
0.307067
0.719536
0.290701
0.711672
0.304869
0.702995
0.7089
0.308086
0.689846
0.714648
0.713181
0.673459
0.723455
0.640598
0.314062
0.419844
0.278655
0.302131
0.559391
0.623104
0.708922
0.713402
0.317174
0.317687
0.723166
0.712728
0.715516
0.713101
0.314418
0.718436
0.712681
0.319788
0.276163
0.712946
0.703346
0.712146
0.268406
0.644897
0.31432
0.720515
0.711594
0.585985
0.707904
0.315551
0.705448
0.711427
0.714564
0.711042
0.701436
0.42039
0.715362
0.308717
0.711591
0.712658
0.420131
0.71081
0.626747
0.712074
0.425637
0.398533
0.643016
0.705256
0.332148
0.333105
0.306391
0.308736
0.710106
0.720403
0.622815
0.32112
0.306629
0.705262
0.718648
0.251485
0.318396
0.428553
0.725808
0.705036
0.712666
0.716699
0.309338
0.332406
0.560083
0.278838
0.321505
0.308894
0.700792
0.313897
0.327353
0.650488
0.70457
0.710875
0.703406
0.702042
0.300255
0.278427
0.307726
0.54055
0.40558
0.277985
0.720488
0.717416
0.711587
0.701886
0.27142
0.324508
0.71262
0.327144
0.701356
0.709048
0.563511
0.283448
0.322847
0.711594
0.559144
0.655359
0.253411
0.712487
0.704171
0.648451
0.711934
0.713038
0.560402
0.711293
0.316177
0.702375
0.552866
0.705853
0.720132
0.559435
0.711358
0.560561
0.70939
0.290989
0.291157
0.325588
0.559219
0.519934
0.327959
0.72325
0.714244
0.273112
0.715022
0.314955
0.721655
0.517995
0.28849
0.712781
0.715731
0.319613
0.623278
0.560753
0.303456
0.712604
0.300344
0.254682
0.687488
0.665301
0.502931
0.70147
0.306226
0.714808
0.292325
0.271702
0.703904
0.317333
0.673979
0.283523
0.716779
0.663069
0.563036
0.712143
0.273056
0.290772
0.711198
0.476808
0.715735
0.458548
0.667338
0.705692
0.714696
0.485781
0.666119
0.710757
0.713977
0.707496
0.33738
0.334905
0.62071
0.710569
0.714216
0.364939
0.701294
0.656884
0.376176
0.283031
0.715096
0.724453
0.558447
0.560633
0.709954
0.719688
0.694957
0.720517
0.280899
0.709485
0.42563
0.710689
0.703162
0.31741
0.712944
0.712874
0.295453
0.280285
0.312882
0.559791
0.302768
0.685661
0.716496
0.709534
0.296965
0.705882
0.294036
0.645129
0.669407
0.588096
0.720416
0.65151
0.676152
0.720335
0.589277
0.705677
0.305433
0.700732
0.704473
0.460741
0.559821
0.720777
0.292944
0.27052
0.304653
0.711512
0.332776
0.561408
0.308594
0.713405
0.28397
0.440081
0.276413
0.715095
0.712903
0.624044
0.291693
0.678184
0.697875
0.310824
0.649258
0.712894
0.277059
0.655471
0.562371
0.712564
0.701433
0.299062
0.505882
0.714745
0.702004
0.712031
0.326083
0.393644
0.710095
0.560712
0.562933
0.561453
0.629932
0.720122
0.625813
0.710054
0.325876
0.295955
0.561879
0.712736
0.688818
0.304553
0.700905
0.642328
0.686362
0.302192
0.381601
0.712628
0.712866
0.630937
0.324112
0.701656
0.560733
0.297281
0.667649
0.717132
0.297199
0.278107
0.272323
0.709353
0.309446
0.316253
0.712498
0.463986
0.713944
0.718663
0.295017
0.314472
0.713077
0.293907
0.288966
0.559493
0.277413
0.358235
0.658699
0.713715
0.708404
0.306935
0.317918
0.302153
0.711343
0.266655
0.709496
0.284162
0.722603
0.711955
0.702319
0.710677
0.706681
0.711478
0.705898
0.712871
0.713338
0.269443
0.307572
0.708996
0.702178
0.509502
0.71047
0.632933
0.692497
0.705601
0.312921
0.709124
0.712913
0.705814
0.300696
0.704454
0.312038
0.703831
0.493514
0.716811
0.701817
0.290181
0.715978
0.315124
0.440801
0.708883
0.307988
0.718655
0.559916
0.713377
0.310799
0.705205
0.308663
0.282584
0.285276
0.314311
0.70741
0.278538
0.711977
0.641132
0.324943
0.289963
0.477846
0.641766
0.698415
0.710504
0.319886
0.308316
0.298571
0.276404
0.288916
0.701664
0.711578
0.31076
0.664927
0.716789
0.273232
0.712717
0.718765
0.658204
0.304188
0.561586
0.723581
0.715093
0.710925
0.282222
0.714852
0.714289
0.70448
0.71445
0.700335
0.303978
0.28623
0.703329
0.614947
0.326984
0.703772
0.285727
0.631745
0.707092
0.711668
0.711777
0.280587
0.710354
0.37223
0.301135
0.718566
0.713321
0.714096
0.7112
0.724662
0.282995
0.712662
0.278874
0.507314
0.713038
0.562626
0.715097
0.301527
0.282889
0.712594
0.293433
0.713318
0.697955
0.403919
0.31388
0.709816
0.283354
0.701884
0.713616
0.727469
0.283899
0.292113
0.477228
0.570866
0.692395
0.4593
0.699511
0.710518
0.711499
0.559237
0.722199
0.29303
0.313424
0.71253
0.7004
0.712774
0.416273
0.300154
0.723737
0.276625
0.709106
0.67018
0.321617
0.716114
0.307396
0.713131
0.307222
0.713295
0.282305
0.704097
0.700774
0.274425
0.712794
0.705105
0.276913
0.605628
0.70192
0.634153
0.25566
0.360621
0.454882
0.71413
0.711296
0.318991
0.642437
0.71941
0.700126
0.299133
0.697298
0.706476
0.438237
0.699662
0.707807
0.315202
0.709536
0.560782
0.306521
0.673203
0.312553
0.721187
0.308077
0.261647
0.714254
0.31569
0.314873
0.273134
0.705387
0.708944
0.386097
0.701688
0.359278
0.720121
0.309693
0.708068
0.354941
0.706191
0.703272
0.724181
0.598207
0.624291
0.700827
0.661049
0.309527
0.68887
0.727054
0.570758
0.722791
0.491245
0.40533
0.712661
0.313909
0.636949
0.315923
0.701445
0.269633
0.28874
0.715942
0.706354
0.319165
0.710301
0.71769
0.559489
0.712944
0.558808
0.316669
0.713008
0.321424
0.29463
0.712263
0.716254
0.713533
0.711956
0.276816
0.307156
0.301176
0.709063
0.637932
0.359095
0.713935
0.303268
0.308874
0.302414
0.711654
0.381954
0.712639
0.71437
0.686745
0.711345
0.711706
0.654328
0.712178
0.389461
0.27811
0.319383
0.558972
0.5602
0.302437
0.702988
0.708297
0.716064
0.298827
0.430159
0.710275
0.281443
0.710758
0.698623
0.322164
0.697684
0.709693
0.328537
0.705403
0.288677
0.708692
0.713723
0.70596
0.275909
0.447863
0.718522
0.322127
0.430813
0.712899
0.330292
0.699884
0.706603
0.711915
0.717663
0.325129
0.559039
0.718581
0.701873
0.351556
0.711721
0.296024
0.248646
0.710082
0.70731
0.640865
0.228486
0.701627
0.686246
0.562001
0.307032
0.293937
0.33025
0.7106
0.298473
0.281318
0.306005
0.696973
0.28565
0.315214
0.392424
0.707355
0.324096
0.594094
0.694264
0.710182
0.310651
0.704127
0.710986
0.661321
0.385053
0.712457
0.296055
0.31328
0.705279
0.319662
0.707929
0.720483
0.562765
0.322249
0.330592
0.300793
0.625093
0.55849
0.236908
0.704632
0.705302
0.716701
0.309513
0.277541
0.336098
0.710959
0.32168
0.559076
0.66308
0.699317
0.707819
0.30565
0.711852
0.273435
0.698486
0.699526
0.712627
0.685315
0.57717
0.715242
0.712586
0.712387
0.312481
0.347929
0.309626
0.71728
0.621707
0.56278
0.322412
0.385684
0.715091
0.70377
0.566
0.319824
0.710174
0.62438
0.626672
0.711206
0.304044
0.320507
0.317291
0.708874
0.651654
0.712514
0.710367
0.339393
0.713468
0.70927
0.64214
0.632518
0.713131
0.71289
0.702288
0.71677
0.714278
0.300515
0.708837
0.71145
0.700458
0.711331
0.706642
0.669469
0.322492
0.266973
0.709782
0.324047
0.324555
0.710603
0.285002
0.68723
0.704834
0.709018
0.705158
0.296296
0.711037
0.285781
0.29642
0.702432
0.716113
0.701934
0.310386
0.712236
0.701521
0.71219
0.701819
0.301063
0.700485
0.712569
0.709374
0.372283
0.715475
0.304079
0.712085
0.30626
0.323307
0.632819
0.420536
0.712709
0.715201
0.701362
0.304416
0.700397
0.38906
0.282233
0.711692
0.484132
0.321342
0.701388
0.269207
0.521011
0.719307
0.710335
0.711738
0.486613
0.655055
0.714858
0.701247
0.670413
0.713959
0.616927
0.71343
0.709971
0.709141
0.269198
0.302464
0.416214
0.711093
0.29378
0.716552
0.710533
0.672737
0.701379
0.607283
0.718606
0.720406
0.30343
0.709998
0.710112
0.587819
0.710416
0.71245
0.712448
0.698285
0.309836
0.289308
0.705476
0.623774
0.628189
0.709281
0.704003
0.701903
0.714295
0.713913
0.689958
0.710879
0.712554
0.277393
0.28264
0.262608
0.318296
0.563124
0.441246
0.618038
0.716375
0.72014
0.297107
0.704784
0.712651
0.311002
0.367373
0.561626
0.710126
0.305504
0.268997
0.261513
0.559104
0.7122
0.376168
0.292949
0.322039
0.266952
0.33539
0.328787
0.714553
0.702903
0.723608
0.310922
0.708822
0.688559
0.667431
0.318229
0.317195
0.711739
0.559124
0.324749
0.702846
0.327934
0.715532
0.300511
0.710356
0.31551
0.711449
0.712826
0.310277
0.627801
0.306254
0.712902
0.274488
0.69456
0.284693
0.500809
0.296995
0.689625
0.311273
0.570334
0.576664
0.665614
0.70712
0.321271
0.70793
0.697285
0.71247
0.685005
0.722818
0.318707
0.425987
0.306285
0.714401
0.292513
0.71286
0.627481
0.71641
0.712599
0.509581
0.715334
0.283488
0.296005
0.278549
0.4941
0.638979
0.704138
0.307338
0.302217
0.704351
0.393935
0.282211
0.66395
0.365878
0.326549
0.268329
0.713629
0.703657
0.698087
0.296368
0.708613
0.709853
0.274447
0.342553
0.711574
0.701181
0.696862
0.534959
0.415164
0.3511
0.306168
0.713398
0.71077
0.597939
0.718584
0.273661
0.648006
0.30603
0.555655
0.712705
0.321086
0.291739
0.712914
0.659466
0.712885
0.714213
0.714079
0.710822
0.712941
0.305378
0.303969
0.309455
0.306952
0.631312
0.561225
0.705196
0.31118
0.320528
0.455224
0.277431
0.701996
0.710026
0.313522
0.326514
0.704826
0.299156
0.715099
0.714689
0.711358
0.70021
0.641112
0.330854
0.316137
0.711373
0.321807
0.42915
0.381818
0.695799
0.711838
0.303893
0.32269
0.559816
0.311123
0.708228
0.71442
0.324469
0.296664
0.285523
0.703236
0.296317
0.559976
0.719341
0.676857
0.270607
0.608848
0.712848
0.705735
0.298693
0.706077
0.708973
0.280411
0.71346
0.713407
0.301515
0.318712
0.711541
0.308427
0.307497
0.706906
0.354353
0.703029
0.718589
0.714895
0.709277
0.712748
0.70545
0.701147
0.300249
0.375963
0.713675
0.703659
0.437143
0.712854
0.339564
0.709221
0.711889
0.642419
0.710235
0.425432
0.428289
0.704475
0.712901
0.709828
0.712831
0.702733
0.56133
0.712903
0.559592
0.713654
0.711716
0.713058
0.559854
0.701191
0.279737
0.712109
0.308777
0.709892
0.709004
0.715604
0.711322
0.718111
0.295018
0.30329
0.32736
0.300034
0.711101
0.318202
0.303831
0.720011
0.269718
0.717272
0.305911
0.706496
0.714194
0.315751
0.392004
0.322453
0.710571
0.303632
0.704081
0.716358
0.300126
0.711863
0.630172
0.328739
0.309033
0.273962
0.717873
0.320545
0.709891
0.603718
0.310076
0.701176
0.701409
0.714074
0.328237
0.653016
0.281832
0.708808
0.704256
0.708631
0.331014
0.703799
0.709331
0.711015
0.394544
0.710452
0.330707
0.310291
0.710615
0.435353
0.712972
0.413372
0.329338
0.400895
0.711509
0.3073
0.281512
0.304142
0.518471
0.561794
0.716333
0.250037
0.682664
0.702466
0.625272
0.454236
0.320604
0.631453
0.334348
0.30964
0.702908
0.311171
0.327237
0.71182
0.712916
0.309511
0.716527
0.304313
0.561562
0.31091
0.711832
0.562046
0.717782
0.69253
0.296028
0.307803
0.283828
0.706252
0.711571
0.651791
0.630117
0.377661
0.310061
0.700721
0.301034
0.703032
0.358897
0.573009
0.720085
0.314137
0.306573
0.313317
0.322979
0.307022
0.712905
0.709877
0.315234
0.706937
0.705381
0.314193
0.277566
0.712818
0.318888
0.70841
0.384682
0.717371
0.713547
0.703374
0.561679
0.286349
0.713819
0.710516
0.713645
0.316439
0.711132
0.658615
0.323643
0.711102
0.719455
0.714437
0.708726
0.712862
0.710866
0.713337
0.700348
0.701822
0.316932
0.714276
0.314135
0.466322
0.712989
0.283575
0.711124
0.710589
0.298926
0.711172
0.316814
0.280281
0.71219
0.710648
0.712921
0.306683
0.709239
0.679095
0.311004
0.312371
0.712777
0.709532
0.367981
0.302405
0.716808
0.712868
0.327829
0.708612
0.712977
0.705137
0.313804
0.330022
0.279829
0.713656
0.2841
0.706065
0.717738
0.700978
0.694448
0.711155
0.307244
0.711758
0.673592
0.712742
0.685005
0.288829
0.299279
0.267084
0.715242
0.715307
0.389325
0.712278
0.318899
0.72417
0.709238
0.263985
0.707068
0.706217
0.692774
0.311269
0.309209
0.319111
0.713807
0.71292
0.676641
0.535042
0.704906
0.324158
0.697573
0.561463
0.703475
0.310518
0.679329
0.301036
0.710202
0.264144
0.704284
0.712411
0.296794
0.713549
0.469585
0.560935
0.716276
0.559205
0.711123
0.416431
0.70056
0.701419
0.7107
0.704308
0.472819
0.561137
0.277143
0.701547
0.267841
0.318312
0.276206
0.306857
0.333616
0.312476
0.713083
0.353669
0.280663
0.720511
0.71331
0.709738
0.379954
0.718675
0.7187
0.70024
0.290485
0.684406
0.706345
0.315112
0.304052
0.307143
0.696169
0.514322
0.323175
0.677914
0.272107
0.559299
0.507672
0.29771
0.423638
0.709835
0.320201
0.709579
0.273964
0.559303
0.364669
0.713176
0.374124
0.72472
0.561246
0.708464
0.452974
0.316536
0.71358
0.712887
0.304095
0.282614
0.704726
0.321036
0.715626
0.310299
0.628709
0.266053
0.705523
0.304976
0.713015
0.318338
0.709448
0.7106
0.712824
0.563133
0.278718
0.290292
0.376465
0.712505
0.72015
0.711498
0.64469
0.30133
0.715871
0.32077
0.711537
0.709467
0.405573
0.312384
0.71454
0.703925
0.283138
0.561849
0.713665
0.714394
0.714741
0.274881
0.699153
0.315838
0.714243
0.280974
0.669283
0.711625
0.713533
0.713059
0.312622
0.713122
0.314911
0.302674
0.708516
0.56347
0.632428
0.705283
0.562302
0.318973
0.715907
0.712965
0.713329
0.282814
0.409244
0.718843
0.31786
0.709598
0.710763
0.709814
0.712947
0.282842
0.448983
0.706912
0.294245
0.711944
0.712568
0.472798
0.712232
0.296717
0.711102
0.715891
0.718566
0.712485
0.307725
0.291045
0.704142
0.706809
0.296299
0.330314
0.301883
0.295932
0.28014
0.277416
0.31186
0.325421
0.704495
0.270472
0.313482
0.717611
0.632163
0.560208
0.382518
0.32233
0.703068
0.459507
0.53746
0.713326
0.368751
0.711519
0.597574
0.66765
0.708233
0.305244
0.716032
0.682386
0.297129
0.309188
0.408557
0.710479
0.668196
0.712708
0.706567
0.704352
0.708034
0.346902
0.714463
0.695012
0.71323
0.322556
0.705809
0.701912
0.341106
0.406894
0.287818
0.277763
0.276582
0.660359
0.719294
0.708347
0.310342
0.399639
0.712927
0.273024
0.716935
0.701442
0.70838
0.718767
0.703028
0.31371
0.279878
0.266962
0.654594
0.281082
0.702376
0.265362
0.705833
0.699993
0.707254
0.316619
0.444456
0.412155
0.710068
0.301185
0.306056
0.710975
0.708034
0.711003
0.706762
0.712803
0.71573
0.33395
0.679427
0.713072
0.598443
0.706529
0.715667
0.715355
0.442096
0.380803
0.71337
0.503774
0.701395
0.313645
0.709373
0.711999
0.373588
0.285472
0.709434
0.515541
0.712972
0.716948
0.322279
0.321015
0.561457
0.446077
0.387866
0.712289
0.712523
0.301717
0.70542
0.563446
0.711316
0.334599
0.660127
0.33223
0.711593
0.712607
0.715711
0.708945
0.558361
0.318994
0.354893
0.715688
0.312023
0.667566
0.307099
0.705694
0.257374
0.714737
0.71346
0.559111
0.330788
0.559689
0.561934
0.30563
0.709688
0.272961
0.713755
0.326721
0.315501
0.252475
0.724014
0.702681
0.335567