# vtk DataFile Version 1.0
unstructured grid
ascii
DATASET UNSTRUCTURED_GRID
points 13672 float
0.0796578 -0.059106 0
0.00128732 0.00159165 0
0.00227961 -0.00102548 0
0.0791586 -0.0598787 0
-0.0546216 0.01 0
0.000495206 0.025 0
0.0800549 -0.035 0
0.135172 -0.08 0
-0.0546216 -0.0451168 0
0.000495206 -0.0301168 0
0.0800549 -0.0901168 0
0.135172 -0.135117 0
-0.0546216 -0.0451168 -0.00551168
0.000495206 -0.0301168 -0.00551168
0.0800549 -0.0901168 -0.00551168
0.135172 -0.135117 -0.00551168
0.135172 -0.08 -0.00551168
0.0800549 -0.035 -0.00551168
0.000495206 0.025 -0.00551168
-0.0546216 0.01 -0.00551168
0.00128732 0.00159165 -0.00551168
0.00227961 -0.00102548 -0.00551168
0.0791586 -0.0598787 -0.00551168
0.0796578 -0.059106 -0.00551168
0.00165953 -0.000990923 0
0.00119576 -0.000874076 0
0.000866021 -0.000641801 0
0.000645147 -0.000349912 0
0.00052235 -1.7281e-05 0
0.00049972 0.000348016 0
0.000601632 0.000737716 0
0.000861774 0.0011403 0
0.00157235 0.00183217 0
0.00188647 0.00206725 0
0.00222612 0.00230203 0
0.00258713 0.00254351 0
0.00296826 0.00279524 0
0.00337118 0.00305664 0
0.00379785 0.00332658 0
0.00425045 0.00360349 0
0.00473139 0.00388521 0
0.0052432 0.00416895 0
0.0057881 0.00445204 0
0.00636753 0.00473281 0
0.00698281 0.00500961 0
0.00763526 0.00528058 0
0.00832616 0.00554366 0
0.00905691 0.00579603 0
0.00982918 0.00603333 0
0.0106445 0.00625033 0
0.0115038 0.00644128 0
0.0124073 0.00660297 0
0.0133543 0.00673414 0
0.0143444 0.00683382 0
0.0153769 0.00690031 0
0.0164512 0.00693173 0
0.0175666 0.00692547 0
0.0187219 0.00687822 0
0.0199156 0.00678477 0
0.0211454 0.00663864 0
0.0224084 0.00643275 0
0.0237018 0.00616676 0
0.0250249 0.00584739 0
0.026375 0.00547298 0
0.0277479 0.00503752 0
0.0291386 0.00453545 0
0.0305433 0.0039653 0
0.0319572 0.0033256 0
0.0333681 0.00260019 0
0.034775 0.00179799 0
0.0361793 0.000930615 0
0.0375798 3.12222e-06 0
0.0389689 -0.000988429 0
0.0403357 -0.00205109 0
0.041675 -0.00318283 0
0.0429849 -0.00437751 0
0.0442643 -0.00562904 0
0.0455126 -0.00693089 0
0.0467314 -0.00827518 0
0.0479204 -0.00965638 0
0.0490661 -0.0110799 0
0.0501515 -0.0125519 0
0.0511696 -0.0140695 0
0.0521492 -0.0156071 0
0.0531202 -0.0171411 0
0.0540851 -0.0186663 0
0.0550431 -0.0201798 0
0.0559923 -0.0216793 0
0.0569311 -0.0231626 0
0.0578582 -0.0246273 0
0.0587723 -0.0260715 0
0.0596721 -0.027493 0
0.0605563 -0.02889 0
0.0614241 -0.0302609 0
0.0622742 -0.0316042 0
0.063106 -0.0329183 0
0.0639186 -0.034202 0
0.0647113 -0.0354543 0
0.0654835 -0.0366743 0
0.0662345 -0.0378613 0
0.0669642 -0.0390145 0
0.0676726 -0.0401333 0
0.0683597 -0.0412172 0
0.0690246 -0.0422665 0
0.0696662 -0.0432819 0
0.0702841 -0.0442636 0
0.0708793 -0.0452111 0
0.0714538 -0.0461237 0
0.072009 -0.047001 0
0.0725452 -0.0478434 0
0.0730611 -0.0486524 0
0.073556 -0.0494294 0
0.0740291 -0.0501756 0
0.0744812 -0.0508916 0
0.0749138 -0.0515773 0
0.0753285 -0.0522331 0
0.0757266 -0.0528592 0
0.076109 -0.0534564 0
0.0764753 -0.0540264 0
0.0768243 -0.054571 0
0.0771553 -0.0550919 0
0.0774679 -0.0555901 0
0.0777617 -0.0560669 0
0.0780369 -0.056523 0
0.0782958 -0.0569578 0
0.0785421 -0.0573703 0
0.0787786 -0.0577603 0
0.0790073 -0.0581279 0
0.0792295 -0.058474 0
0.0794462 -0.0587995 0
0.0798803 -0.0594162 0
0.0800272 -0.0596588 0
0.0800357 -0.0598891 0
0.0799275 -0.0600784 0
0.0797205 -0.0601773 0
0.0794593 -0.0601051 0
0.0789155 -0.0596491 0
0.0786707 -0.0593963 0
0.0784111 -0.0591319 0
0.0781372 -0.0588542 0
0.0778566 -0.0585548 0
0.0775715 -0.0582308 0
0.0772803 -0.0578828 0
0.0769832 -0.0575099 0
0.0766822 -0.0571097 0
0.0763801 -0.0566796 0
0.0760759 -0.0562196 0
0.0757623 -0.0557337 0
0.0754359 -0.0552232 0
0.0750951 -0.0546879 0
0.0747379 -0.054128 0
0.0743626 -0.0535435 0
0.0739688 -0.0529338 0
0.0735559 -0.0522981 0
0.0731238 -0.0516357 0
0.0726718 -0.050946 0
0.0721991 -0.0502288 0
0.0717046 -0.049484 0
0.0711872 -0.0487117 0
0.0706461 -0.047912 0
0.0700804 -0.0470849 0
0.0694892 -0.0462308 0
0.0688718 -0.0453499 0
0.0682271 -0.0444431 0
0.0675544 -0.043511 0
0.0668527 -0.0425546 0
0.0661215 -0.0415748 0
0.06536 -0.040573 0
0.0645676 -0.0395504 0
0.0637439 -0.0385087 0
0.0628887 -0.0374493 0
0.062002 -0.0363741 0
0.0610838 -0.0352847 0
0.0601345 -0.0341831 0
0.0591547 -0.033071 0
0.0581456 -0.0319502 0
0.0571083 -0.0308224 0
0.0560444 -0.0296893 0
0.0549562 -0.028552 0
0.053845 -0.0274126 0
0.0527113 -0.0262746 0
0.051554 -0.0251427 0
0.0503724 -0.0240222 0
0.0491675 -0.0229164 0
0.047941 -0.0218282 0
0.0466955 -0.0207597 0
0.0454337 -0.0197126 0
0.0441592 -0.0186878 0
0.0428751 -0.0176863 0
0.0415841 -0.0167097 0
0.0402878 -0.0157609 0
0.0389879 -0.0148428 0
0.0376864 -0.0139575 0
0.0363853 -0.013107 0
0.0350871 -0.0122931 0
0.0337942 -0.0115164 0
0.0325095 -0.0107772 0
0.0312357 -0.0100756 0
0.0299758 -0.00941024 0
0.0287337 -0.00877784 0
0.0275126 -0.00817571 0
0.0263139 -0.00760375 0
0.0251376 -0.00706528 0
0.0239829 -0.0065649 0
0.0228537 -0.00609619 0
0.0217522 -0.00565563 0
0.0206795 -0.00524226 0
0.0196364 -0.00485507 0
0.0186233 -0.00449318 0
0.0176408 -0.00415577 0
0.016689 -0.00384204 0
0.0157682 -0.00355115 0
0.0148783 -0.00328218 0
0.0140192 -0.00303468 0
0.0131906 -0.00280795 0
0.0123925 -0.00260016 0
0.0116246 -0.00241012 0
0.0108864 -0.00223769 0
0.0101774 -0.00208212 0
0.00949701 -0.00194206 0
0.00884483 -0.0018163 0
0.0082202 -0.0017039 0
0.00762247 -0.00160391 0
0.00705097 -0.00151528 0
0.006505 -0.00143697 0
0.0059838 -0.00136806 0
0.00548662 -0.00130772 0
0.00501265 -0.00125519 0
0.00456114 -0.00120954 0
0.00413136 -0.00116914 0
0.00372257 -0.00113251 0
0.00333398 -0.00109853 0
0.00296466 -0.00106798 0
0.00261363 -0.0010431 0
-0.052721 -0.0445996 0
-0.0508204 -0.0440823 0
-0.0489199 -0.0435651 0
-0.0470193 -0.0430478 0
-0.0451187 -0.0425306 0
-0.0432181 -0.0420134 0
-0.0413175 -0.0414961 0
-0.039417 -0.0409789 0
-0.0375164 -0.0404616 0
-0.0356158 -0.0399444 0
-0.0337152 -0.0394271 0
-0.0318146 -0.0389099 0
-0.0299141 -0.0383927 0
-0.0280135 -0.0378754 0
-0.0261129 -0.0373582 0
-0.0242123 -0.0368409 0
-0.0223117 -0.0363237 0
-0.0204112 -0.0358065 0
-0.0185106 -0.0352892 0
-0.01661 -0.034772 0
-0.0147094 -0.0342547 0
-0.0128088 -0.0337375 0
-0.0109083 -0.0332202 0
-0.00900769 -0.032703 0
-0.00710711 -0.0321858 0
-0.00520653 -0.0316685 0
-0.00330595 -0.0311513 0
-0.00140537 -0.030634 0
0.00190689 -0.0299614 0
0.00332271 -0.0298498 0
0.00474133 -0.0297825 0
0.00616136 -0.0297597 0
0.0075814 -0.0297814 0
0.00900007 -0.0298477 0
0.010416 -0.0299583 0
0.0118278 -0.0301127 0
0.0132342 -0.0303103 0
0.0146339 -0.0305504 0
0.0160259 -0.0308322 0
0.0174091 -0.0311546 0
0.0187824 -0.0315166 0
0.020145 -0.031917 0
0.0214961 -0.0323546 0
0.0228351 -0.032828 0
0.0241613 -0.0333361 0
0.0254744 -0.0338774 0
0.0267738 -0.0344507 0
0.0280592 -0.0350545 0
0.0293306 -0.0356877 0
0.0305875 -0.0363488 0
0.0318301 -0.0370367 0
0.0330581 -0.0377501 0
0.0342717 -0.0384879 0
0.0354708 -0.0392489 0
0.0366556 -0.0400321 0
0.0378262 -0.0408363 0
0.0389828 -0.0416607 0
0.0401254 -0.0425042 0
0.0412543 -0.0433659 0
0.0423698 -0.0442451 0
0.043472 -0.0451408 0
0.0445612 -0.0460523 0
0.0456375 -0.0469789 0
0.0467013 -0.0479199 0
0.0477529 -0.0488746 0
0.0487923 -0.0498424 0
0.04982 -0.0508227 0
0.0508362 -0.051815 0
0.051841 -0.0528187 0
0.0528348 -0.0538333 0
0.0538178 -0.0548584 0
0.0547903 -0.0558935 0
0.0557524 -0.0569382 0
0.0567045 -0.0579922 0
0.0576467 -0.0590549 0
0.0585792 -0.0601261 0
0.0595024 -0.0612055 0
0.0604163 -0.0622926 0
0.0613212 -0.0633873 0
0.0622174 -0.0644891 0
0.0631049 -0.0655979 0
0.0639841 -0.0667134 0
0.064855 -0.0678353 0
0.0657179 -0.0689633 0
0.0665729 -0.0700974 0
0.0674202 -0.0712372 0
0.06826 -0.0723826 0
0.0690925 -0.0735333 0
0.0699178 -0.0746892 0
0.070736 -0.0758501 0
0.0715473 -0.0770159 0
0.0723518 -0.0781863 0
0.0731498 -0.0793612 0
0.0739412 -0.0805405 0
0.0747264 -0.081724 0
0.0755053 -0.0829116 0
0.0762781 -0.0841033 0
0.0770449 -0.0852987 0
0.0778059 -0.0864979 0
0.0785611 -0.0877007 0
0.0793108 -0.088907 0
0.0814681 -0.0912706 0
0.0828814 -0.0924245 0
0.0842946 -0.0935783 0
0.0857079 -0.0947322 0
0.0871211 -0.095886 0
0.0885344 -0.0970399 0
0.0899476 -0.0981937 0
0.0913609 -0.0993476 0
0.0927741 -0.100501 0
0.0941874 -0.101655 0
0.0956006 -0.102809 0
0.0970139 -0.103963 0
0.0984272 -0.105117 0
0.0998404 -0.106271 0
0.101254 -0.107424 0
0.102667 -0.108578 0
0.10408 -0.109732 0
0.105493 -0.110886 0
0.106907 -0.11204 0
0.10832 -0.113194 0
0.109733 -0.114348 0
0.111146 -0.115501 0
0.11256 -0.116655 0
0.113973 -0.117809 0
0.115386 -0.118963 0
0.116799 -0.120117 0
0.118213 -0.121271 0
0.119626 -0.122424 0
0.121039 -0.123578 0
0.122452 -0.124732 0
0.123866 -0.125886 0
0.125279 -0.12704 0
0.126692 -0.128194 0
0.128105 -0.129348 0
0.129519 -0.130501 0
0.130932 -0.131655 0
0.132345 -0.132809 0
0.133758 -0.133963 0
0.135172 -0.133216 0
0.135172 -0.131316 0
0.135172 -0.129415 0
0.135172 -0.127514 0
0.135172 -0.125614 0
0.135172 -0.123713 0
0.135172 -0.121813 0
0.135172 -0.119912 0
0.135172 -0.118012 0
0.135172 -0.116111 0
0.135172 -0.11421 0
0.135172 -0.11231 0
0.135172 -0.110409 0
0.135172 -0.108509 0
0.135172 -0.106608 0
0.135172 -0.104708 0
0.135172 -0.102807 0
0.135172 -0.100906 0
0.135172 -0.0990058 0
0.135172 -0.0971052 0
0.135172 -0.0952046 0
0.135172 -0.0933041 0
0.135172 -0.0914035 0
0.135172 -0.0895029 0
0.135172 -0.0876023 0
0.135172 -0.0857017 0
0.135172 -0.0838012 0
0.135172 -0.0819006 0
0.133758 -0.0788462 0
0.132345 -0.0776923 0
0.130932 -0.0765385 0
0.129519 -0.0753846 0
0.128105 -0.0742308 0
0.126692 -0.0730769 0
0.125279 -0.0719231 0
0.123866 -0.0707692 0
0.122452 -0.0696154 0
0.121039 -0.0684615 0
0.119626 -0.0673077 0
0.118213 -0.0661538 0
0.116799 -0.065 0
0.115386 -0.0638462 0
0.113973 -0.0626923 0
0.11256 -0.0615385 0
0.111146 -0.0603846 0
0.109733 -0.0592308 0
0.10832 -0.0580769 0
0.106907 -0.0569231 0
0.105493 -0.0557692 0
0.10408 -0.0546154 0
0.102667 -0.0534615 0
0.101254 -0.0523077 0
0.0998404 -0.0511538 0
0.0984272 -0.05 0
0.0970139 -0.0488462 0
0.0956006 -0.0476923 0
[...]
CELL_DATA 13116
SCALARS rho float
LOOKUP_TABLE default
0.631053
0.703888
0.320819
0.717209
0.71835
0.696005
0.319648
0.717088
0.572858
0.723994
0.32277
0.29612
0.719421
0.324543
0.313557
0.696009
0.63305
0.728327
0.702034
0.324013
0.62448
0.325422
0.320189
0.727983
0.719253
0.704236
0.724123
0.325516
0.778173
0.725544
0.556449
0.305227
0.599264
0.458806
0.315001
0.628223
0.717185
0.701655
0.695403
0.705921
0.702082
0.717506
0.506178
0.317881
0.701301
0.701959
0.700386
0.703947
0.325413
0.555272
0.71155
0.498339
0.323636
0.626301
0.599072
0.638047
0.318086
0.729184
0.567845
0.319984
0.323626
0.720678
0.701345
0.694674
0.564921
0.318764
0.706538
0.720296
0.705755
0.603496
0.31305
0.620678
0.325698
0.318744
0.562082
0.307903
0.707226
0.708536
0.32794
0.729894
0.714757
0.700767
0.728444
0.704318
0.701026
0.436934
0.323637
0.736756
0.701821
0.332007
0.309841
0.704012
0.727472
0.706047
0.720226
0.689172
0.725345
0.557582
0.56212
0.659463
0.735558
0.692864
0.701613
0.4142
0.697617
0.303904
0.391873
0.543118
0.322012
0.774075
0.569867
0.699646
0.681873
0.715317
0.729614
0.706023
0.3227
0.396245
0.706999
0.707874
0.722994
0.329136
0.705757
0.309106
0.708289
0.430595
0.323648
0.525604
0.321242
0.554664
0.706976
0.707419
0.474449
0.325339
0.455003
0.682897
0.560188
0.706624
0.735345
0.708304
0.703104
0.700763
0.529414
0.703122
0.702051
0.31386
0.314519
0.700082
0.711191
0.713041
0.560556
0.704137
0.703747
0.31043
0.726715
0.701009
0.318613
0.733559
0.559328
0.738251
0.728339
0.325264
0.727646
0.320042
0.329869
0.71869
0.704736
0.728643
0.316415
0.441097
0.416606
0.560026
0.312918
0.511696
0.703605
0.319286
0.317399
0.325778
0.699339
0.702707
0.321622
0.422544
0.593674
0.717687
0.702813
0.568651
0.314251
0.699571
0.696835
0.447818
0.7092
0.699557
0.620261
0.316758
0.69865
0.703497
0.726777
0.699929
0.702017
0.372416
0.415676
0.758509
0.517328
0.320348
0.7097
0.703075
0.507348
0.707916
0.314236
0.320676
0.308341
0.70546
0.318814
0.326079
0.328854
0.309785
0.385236
0.69998
0.707475
0.431817
0.31735
0.706368
0.565105
0.321689
0.51703
0.722331
0.702059
0.326169
0.704856
0.409911
0.718388
0.306544
0.647442
0.610107
0.56125
0.700268
0.654322
0.32949
0.426019
0.738927
0.560429
0.703615
0.561015
0.677867
0.716843
0.318678
0.707294
0.725479
0.561619
0.31538
0.326831
0.702854
0.706835
0.594129
0.706231
0.624957
0.733798
0.324287
0.336983
0.37981
0.313301
0.695527
0.727003
0.706205
0.325167
0.700894
0.316961
0.424202
0.698088
0.314178
0.701925
0.715338
0.559287
0.727639
0.328485
0.559029
0.713019
0.56004
0.706312
0.327946
0.322291
0.317332
0.678051
0.327799
0.331004
0.379406
0.355644
0.702194
0.319304
0.700369
0.716365
0.318028
0.322706
0.317662
0.436114
0.325483
0.73409
0.692172
0.698934
0.314942
0.704673
0.586298
0.333175
0.319357
0.695358
0.706808
0.699884
0.313904
0.703554
0.423558
0.707119
0.717319
0.71058
0.71707
0.317384
0.705632
0.311048
0.698143
0.721998
0.738875
0.328353
0.37664
0.724432
0.318892
0.701133
0.720438
0.354885
0.731852
0.728713
0.319503
0.700957
0.72756
0.316131
0.70718
0.437201
0.531935
0.71583
0.441607
0.73312
0.324657
0.728466
0.383461
0.693734
0.692398
0.726343
0.325012
0.387673
0.701081
0.310451
0.709079
0.6976
0.417456
0.558082
0.31293
0.319852
0.707308
0.559969
0.717527
0.322196
0.319376
0.707203
0.716267
0.315584
0.710178
0.322103
0.312445
0.706399
0.716204
0.558411
0.334472
0.706312
0.565055
0.696006
0.700833
0.71068
0.567665
0.33807
0.31221
0.321912
0.695974
0.322183
0.59416
0.358638
0.31446
0.38457
0.565142
0.137861
0.311442
0.701454
0.306296
0.727774
0.761947
0.702822
0.735986
0.707604
0.320788
0.322148
0.378693
0.342674
0.708225
0.67202
0.702219
0.77636
0.70258
0.716562
0.700192
0.707264
0.725561
0.711427
0.730053
0.695743
0.38349
0.505729
0.62741
0.322216
0.690707
0.637774
0.324147
0.70583
0.559817
0.317998
0.326067
0.329612
0.31497
0.752302
0.305452
0.316842
0.705885
0.316852
0.611443
0.33082
0.696998
0.710674
0.327979
0.324738
0.707313
0.435074
0.331482
0.315669
0.330276
0.32179
0.321424
0.326184
0.330585
0.425727
0.329355
0.692305
0.332922
0.700287
0.355307
0.307851
0.480123
0.296687
0.331711
0.296119
0.700188
0.425021
0.747036
0.556676
0.317735
0.710374
0.701407
0.433734
0.732225
0.715077
0.713723
0.320395
0.560243
0.399082
0.720403
0.559299
0.320561
0.31524
0.69638
0.344009
0.439651
0.693698
0.390048
0.733931
0.702052
0.321804
0.315567
0.309881
0.504715
0.317831
0.318905
0.312457
0.311416
0.717873
0.718509
0.440769
0.697829
0.456798
0.698749
0.377165
0.304909
0.578156
0.32085
0.705661
0.349426
0.392971
0.471174
0.701327
0.703286
0.578339
0.352794
0.316408
0.52651
0.716894
0.662025
0.526417
0.698097
0.695382
0.329794
0.710584
0.606517
0.739078
0.3621
0.325531
0.714789
0.726704
0.737694
0.722527
0.70144
0.707147
0.728698
0.739338
0.702638
0.324192
0.701326
0.388547
0.316538
0.327464
0.717762
0.702742
0.369045
0.700682
0.765234
0.328528
0.686833
0.706695
0.712211
0.325206
0.305539
0.70805
0.332335
0.330736
0.286804
0.329828
0.705171
0.316894
0.717038
0.331987
0.704105
0.709487
0.705279
0.717773
0.33276
0.322936
0.703852
0.718854
0.711689
0.71802
0.725949
0.474346
0.319543
0.321459
0.704055
0.56931
0.329454
0.436644
0.313738
0.714152
0.699541
0.36255
0.327183
0.700124
0.446128
0.701621
0.743353
0.320821
0.408084
0.710482
0.560414
0.320055
0.702328
0.705993
0.703517
0.306524
0.560873
0.317704
0.562178
0.739863
0.334878
0.381715
0.330604
0.56155
0.32252
0.327093
0.397891
0.693873
0.709962
0.327244
0.333715
0.330645
0.688502
0.327147
0.703645
0.318573
0.619426
0.722496
0.357865
0.320028
0.320121
0.477007
0.321927
0.703869
0.312495
0.305209
0.696531
0.309055
0.704452
0.701298
0.561651
0.326538
0.705866
0.728268
0.727243
0.704296
0.713366
0.705283
0.297438
0.631223
0.43426
0.704239
0.326962
0.716751
0.543507
0.315783
0.549671
0.709233
0.308341
0.709714
0.310113
0.311773
0.705809
0.700447
0.312863
0.304114
0.327651
0.289234
0.714086
0.72796
0.306635
0.320331
0.709277
0.706876
0.617697
0.728335
0.699502
0.325168
0.72631
0.420215
0.710107
0.396391
0.674407
0.457742
0.705195
0.717279
0.610827
0.373224
0.324169
0.69998
0.781862
0.620487
0.728431
0.312549
0.712101
0.727024
0.413339
0.502897
0.728034
0.355968
0.570609
0.738243
0.373969
0.71032
0.720561
0.321526
0.710846
0.317091
0.70078
0.312604
0.705148
0.701248
0.324185
0.694205
0.728019
0.708867
0.76022
0.709349
0.609757
0.344215
0.420709
0.307191
0.319168
0.557655
0.52102
0.706078
0.709426
0.324065
0.335896
0.709192
0.721873
0.707526
0.71574
0.327269
0.729791
0.725048
0.324434
0.304643
0.707149
0.702478
0.700128
0.291604
0.636695
0.328666
0.711202
0.701313
0.647914
0.703386
0.329546
0.704893
0.700314
0.728074
0.700647
0.702407
0.433892
0.710846
0.320109
0.699854
0.7246
0.439285
0.702612
0.675553
0.709208
0.428733
0.404035
0.611674
0.740841
0.331957
0.335433
0.313673
0.329042
0.705176
0.712033
0.669355
0.356743
0.328119
0.705433
0.732916
0.318551
0.337325
0.442685
0.712941
0.699803
0.700904
0.726435
0.32148
0.332094
0.557559
0.308547
0.325694
0.311142
0.700051
0.328271
0.332961
0.627764
0.703808
0.699201
0.6956
0.699523
0.32162
0.308924
0.314783
0.567699
0.427297
0.308128
0.718318
0.729685
0.700766
0.703336
0.299474
0.327807
0.722925
0.329168
0.70218
0.701163
0.557459
0.312917
0.330276
0.70158
0.555023
0.657088
0.317726
0.701343
0.695728
0.623771
0.711945
0.715929
0.55801
0.698087
0.327237
0.699338
0.57023
0.700247
0.711612
0.557716
0.70016
0.561457
0.705764
0.30502
0.309717
0.328165
0.552606
0.548318
0.32948
0.708626
0.709503
0.295245
0.712857
0.329213
0.710356
0.550527
0.329435
0.721239
0.727849
0.329662
0.521661
0.561056
0.319791
0.704354
0.320222
0.305928
0.713617
0.735863
0.478132
0.701777
0.312955
0.726054
0.314305
0.301526
0.704537
0.329418
0.697756
0.313591
0.711101
0.683148
0.560804
0.703513
0.312613
0.305853
0.696742
0.514787
0.707676
0.481761
0.666749
0.695373
0.728089
0.522161
0.782283
0.699089
0.726648
0.706638
0.387737
0.334407
0.509437
0.698846
0.726483
0.373233
0.701436
0.659059
0.377188
0.312616
0.7376
0.713867
0.561356
0.561936
0.694113
0.713443
0.695115
0.715222
0.312124
0.742056
0.439526
0.7111
0.702098
0.35965
0.714545
0.709727
0.312043
0.324726
0.318414
0.557816
0.326321
0.713213
0.712013
0.74257
0.348935
0.701607
0.321485
0.645715
0.689866
0.647183
0.718375
0.68329
0.730396
0.714916
0.573087
0.70381
0.313512
0.701269
0.705033
0.496862
0.561727
0.711506
0.317757
0.312668
0.319909
0.710221
0.335454
0.561776
0.315001
0.716846
0.31391
0.459674
0.309675
0.720624
0.714401
0.623287
0.340589
0.726507
0.70064
0.319251
0.620991
0.718704
0.30695
0.643812
0.557953
0.722684
0.702639
0.320154
0.539528
0.708279
0.702567
0.700708
0.333923
0.40023
0.701584
0.55852
0.560216
0.559342
0.612899
0.70764
0.608217
0.710343
0.333788
0.320784
0.559803
0.71244
0.695137
0.318744
0.701204
0.629815
0.692264
0.31121
0.419992
0.711294
0.716928
0.591368
0.340712
0.702788
0.561808
0.319057
0.741995
0.723639
0.317817
0.307216
0.310694
0.697169
0.329121
0.324634
0.700959
0.490404
0.726395
0.714133
0.317144
0.320335
0.717401
0.310358
0.305326
0.556896
0.309743
0.378453
0.657041
0.713146
0.705875
0.327452
0.331696
0.319831
0.701194
0.30468
0.706162
0.306595
0.707929
0.709841
0.701273
0.699141
0.706024
0.701102
0.699693
0.715974
0.706893
0.317619
0.317063
0.706229
0.695475
0.48843
0.698233
0.597496
0.694859
0.699077
0.32736
0.707303
0.719695
0.702668
0.313945
0.705403
0.326404
0.70442
0.478615
0.72951
0.704194
0.330208
0.708609
0.330116
0.446846
0.701464
0.310348
0.732816
0.558802
0.716131
0.314061
0.705661
0.327519
0.312141
0.314605
0.328412
0.69646
0.314477
0.705468
0.679731
0.342044
0.316954
0.466905
0.613899
0.722673
0.699235
0.326303
0.319128
0.31721
0.312368
0.336242
0.721029
0.700119
0.326002
0.693262
0.71201
0.310587
0.719939
0.733402
0.689043
0.315863
0.562055
0.709512
0.710637
0.711265
0.317413
0.70644
0.709169
0.705678
0.738109
0.699848
0.333626
0.315346
0.704037
0.511325
0.331947
0.704155
0.316718
0.553506
0.714333
0.700963
0.700311
0.310807
0.697955
0.376608
0.31344
0.731475
0.708999
0.718986
0.70745
0.715441
0.312437
0.721226
0.318902
0.486389
0.718318
0.561874
0.708019
0.314968
0.329973
0.724742
0.346893
0.707879
0.746575
0.420525
0.340421
0.706804
0.313827
0.703878
0.707866
0.710629
0.314124
0.310856
0.505563
0.568056
0.716287
0.458871
0.698786
0.698964
0.700629
0.5577
0.708781
0.322781
0.338091
0.7084
0.700089
0.700319
0.439735
0.319786
0.710512
0.312202
0.699563
0.769526
0.336444
0.708143
0.329077
0.710696
0.321069
0.718137
0.326823
0.704706
0.702786
0.300957
0.707933
0.737857
0.30606
0.664707
0.701512
0.598855
0.304357
0.369817
0.45758
0.727978
0.69613
0.335955
0.593574
0.709357
0.695871
0.350924
0.701214
0.702118
0.444921
0.699164
0.697534
0.361021
0.706223
0.556307
0.319897
0.685864
0.316058
0.708411
0.312949
0.311139
0.726858
0.326244
0.330938
0.311858
0.706255
0.70108
0.389413
0.70272
0.371146
0.709516
0.328374
0.702015
0.361416
0.695486
0.704194
0.709412
0.664898
0.523014
0.702957
0.690904
0.324479
0.748247
0.711124
0.588175
0.708383
0.473825
0.40789
0.72074
0.319829
0.609361
0.33002
0.702012
0.319741
0.316527
0.72795
0.699449
0.322474
0.710802
0.73099
0.55767
0.715403
0.561469
0.327584
0.720626
0.324914
0.319235
0.702602
0.725208
0.71721
0.700371
0.30679
0.312014
0.3196
0.703667
0.67987
0.369523
0.714314
0.319636
0.312834
0.30852
0.700972
0.397242
0.721706
0.707008
0.748767
0.700618
0.706729
0.631763
0.705474
0.430197
0.306253
0.322813
0.561643
0.562164
0.319455
0.71997
0.695833
0.707246
0.320157
0.437807
0.699476
0.32473
0.699094
0.69429
0.325914
0.701903
0.705543
0.32954
0.705678
0.3057
0.706302
0.726005
0.705582
0.313337
0.453817
0.733048
0.365919
0.440828
0.70055
0.368294
0.702057
0.706595
0.701129
0.731677
0.340285
0.553646
0.732047
0.702267
0.397822
0.707636
0.318202
0.314961
0.701546
0.699676
0.684352
0.280479
0.704691
0.748188
0.562055
0.319319
0.322739
0.332331
0.707198
0.319794
0.308049
0.320097
0.692692
0.305999
0.358384
0.434348
0.706172
0.327903
0.657447
0.701779
0.70181
0.313654
0.705167
0.731443
0.689092
0.421153
0.738684
0.313086
0.319727
0.705052
0.322742
0.716811
0.710384
0.560481
0.32685
0.377801
0.309274
0.522305
0.560813
0.284776
0.701704
0.706037
0.730804
0.324347
0.317681
0.385889
0.69595
0.330118
0.557819
0.788699
0.702834
0.701626
0.328291
0.711924
0.302057
0.68953
0.745686
0.722119
0.686917
0.594462
0.738029
0.7009
0.708797
0.316804
0.354288
0.316093
0.729963
0.57439
0.561925
0.32687
0.406124
0.713151
0.705133
0.613536
0.323126
0.705704
0.519892
0.546861
0.69648
0.321453
0.323685
0.362033
0.699609
0.68003
0.737749
0.698522
0.383515
0.716212
0.740557
0.6764
0.682133
0.716185
0.720038
0.698176
0.713809
0.719795
0.320652
0.705549
0.707509
0.699579
0.706523
0.699814
0.675755
0.327743
0.304892
0.70003
0.332222
0.340461
0.703965
0.308504
0.746778
0.705322
0.702854
0.702761
0.319251
0.708748
0.315107
0.321346
0.699169
0.706881
0.703551
0.312847
0.708543
0.701982
0.698587
0.699704
0.322116
0.699833
0.724415
0.705994
0.373807
0.72929
0.320693
0.716515
0.309374
0.327884
0.635217
0.435838
0.721419
0.728355
0.702692
0.318648
0.699792
0.392027
0.310338
0.701683
0.472838
0.332606
0.701854
0.319269
0.495336
0.727795
0.700498
0.700397
0.471371
0.728556
0.725675
0.702833
0.676326
0.716931
0.509173
0.716698
0.69815
0.725688
0.291771
0.327755
0.43353
0.707465
0.318054
0.738757
0.711219
0.701548
0.703016
0.608474
0.73357
0.715019
0.315977
0.71034
0.697291
0.599758
0.697695
0.723389
0.70408
0.695704
0.323803
0.306439
0.704707
0.579862
0.614599
0.706689
0.70441
0.703081
0.726655
0.726222
0.720081
0.698423
0.72233
0.309718
0.313097
0.320579
0.332777
0.560501
0.442926
0.604443
0.707854
0.714554
0.319875
0.703057
0.716674
0.313004
0.395744
0.561795
0.706121
0.32211
0.296649
0.280227
0.557722
0.704096
0.376756
0.321612
0.325465
0.31604
0.351306
0.333634
0.718005
0.704145
0.709637
0.31584
0.703008
0.702855
0.782939
0.345533
0.325586
0.701214
0.560478
0.331527
0.696072
0.329356
0.728119
0.320654
0.700735
0.318252
0.700974
0.713844
0.31378
0.541598
0.341637
0.7203
0.307198
0.706911
0.316752
0.538114
0.312785
0.696514
0.319823
0.627086
0.645389
0.786356
0.705855
0.346928
0.701811
0.69891
0.710248
0.701151
0.709906
0.325608
0.43472
0.31793
0.727564
0.348857
0.708891
0.574718
0.726209
0.722444
0.543059
0.710995
0.310449
0.321777
0.308982
0.535556
0.642826
0.704278
0.315542
0.328873
0.703286
0.415578
0.313218
0.667239
0.389514
0.332177
0.306073
0.717507
0.742948
0.709662
0.320387
0.70157
0.699641
0.303332
0.382355
0.700412
0.69929
0.689636
0.498362
0.429263
0.398587
0.311456
0.713894
0.698501
0.568848
0.733328
0.31686
0.622662
0.32885
0.56595
0.708992
0.325855
0.344541
0.699972
0.661925
0.71466
0.717214
0.727932
0.711411
0.719603
0.309246
0.323924
0.315738
0.327694
0.628946
0.557747
0.741935
0.327582
0.325999
0.477755
0.306797
0.703055
0.700267
0.330117
0.359476
0.705454
0.320273
0.722693
0.720161
0.701028
0.699441
0.632032
0.330586
0.318242
0.697539
0.326006
0.428315
0.385246
0.695533
0.700155
0.354311
0.326422
0.557992
0.319107
0.698206
0.727444
0.328044
0.312903
0.317658
0.704515
0.322777
0.558451
0.712347
0.701582
0.297284
0.509686
0.708379
0.701554
0.324627
0.702133
0.70092
0.308808
0.707218
0.7169
0.316371
0.328386
0.701845
0.317556
0.327312
0.70206
0.393638
0.703609
0.733062
0.727807
0.704305
0.710786
0.706296
0.703286
0.320217
0.42185
0.70151
0.70515
0.450842
0.720437
0.363876
0.705636
0.700291
0.615547
0.726475
0.431877
0.440233
0.703204
0.709271
0.697899
0.713833
0.705082
0.561097
0.715494
0.55763
0.713026
0.701797
0.715133
0.56085
0.703416
0.307838
0.70111
0.323756
0.705512
0.705484
0.717373
0.700998
0.73202
0.310685
0.310101
0.368663
0.325798
0.701154
0.320637
0.314856
0.714104
0.296131
0.713082
0.311762
0.702032
0.706459
0.325861
0.414627
0.337512
0.707144
0.319397
0.703987
0.708716
0.308061
0.701375
0.590943
0.343869
0.324592
0.302018
0.731126
0.329039
0.709104
0.607062
0.344355
0.700465
0.702265
0.727851
0.329472
0.632293
0.314101
0.703275
0.695485
0.706238
0.334663
0.705033
0.706522
0.699074
0.407714
0.707152
0.330671
0.329942
0.700162
0.439616
0.725132
0.414288
0.333801
0.43339
0.699855
0.322993
0.308271
0.312844
0.549898
0.560966
0.707582
0.320439
0.694608
0.704601
0.524431
0.482693
0.335135
0.594329
0.334073
0.328819
0.701675
0.330081
0.330004
0.710306
0.717828
0.311726
0.728972
0.308448
0.561445
0.326172
0.701691
0.606473
0.731253
0.701608
0.316686
0.329253
0.314452
0.695692
0.701967
0.703274
0.577239
0.407441
0.362824
0.701633
0.320531
0.703789
0.406916
0.61728
0.720251
0.316472
0.31951
0.329683
0.326648
0.321267
0.699641
0.701003
0.318247
0.705638
0.724117
0.346182
0.311747
0.718397
0.332004
0.706368
0.430222
0.731483
0.728941
0.704939
0.560826
0.307844
0.726124
0.700002
0.717724
0.32777
0.69715
0.775676
0.339316
0.707218
0.708193
0.717256
0.701089
0.720154
0.69989
0.716902
0.699487
0.701727
0.32473
0.728248
0.329589
0.495055
0.700602
0.314614
0.701683
0.69643
0.327339
0.699083
0.327605
0.310277
0.700937
0.69537
0.717807
0.321984
0.700879
0.744577
0.326094
0.316427
0.707062
0.699544
0.400839
0.314364
0.712009
0.718243
0.330222
0.72332
0.71584
0.742281
0.316104
0.330258
0.310967
0.732961
0.328168
0.702253
0.730088
0.701808
0.700395
0.706618
0.321655
0.700345
0.758813
0.712748
0.68616
0.31687
0.321056
0.314783
0.728312
0.708545
0.42921
0.728102
0.332648
0.709201
0.707483
0.312942
0.700824
0.70227
0.721602
0.315529
0.323052
0.333651
0.707726
0.725217
0.743968
0.497589
0.705582
0.331076
0.730221
0.560156
0.705132
0.314711
0.749475
0.329307
0.697335
0.313599
0.703667
0.702387
0.320576
0.707371
0.504529
0.560423
0.717784
0.557741
0.7102
0.41912
0.701611
0.70258
0.699903
0.70394
0.466612
0.559799
0.317236
0.702745
0.314906
0.323266
0.321857
0.320839
0.33322
0.316233
0.7177
0.402024
0.307568
0.718368
0.707472
0.700865
0.381451
0.73025
0.733891
0.699407
0.315628
0.689517
0.706422
0.332223
0.316793
0.329124
0.724155
0.491611
0.327537
0.686167
0.300155
0.561157
0.485525
0.323818
0.454047
0.730088
0.335117
0.69953
0.315159
0.582053
0.397222
0.713751
0.397338
0.714832
0.560375
0.694602
0.481605
0.328665
0.713781
0.719253
0.317531
0.312092
0.695306
0.324858
0.729407
0.315613
0.587494
0.313604
0.70636
0.324029
0.718361
0.322944
0.708149
0.706508
0.708942
0.5612
0.316098
0.318065
0.377972
0.705937
0.714429
0.699544
0.648906
0.326831
0.711628
0.335401
0.70191
0.69314
0.407642
0.341162
0.725079
0.70333
0.315938
0.566662
0.714845
0.719716
0.727847
0.316162
0.732114
0.330358
0.71365
0.327501
0.696335
0.701536
0.713049
0.717619
0.346283
0.717616
0.325702
0.314085
0.697934
0.561245
0.594216
0.704589
0.559863
0.331934
0.728029
0.712051
0.716668
0.312396
0.423431
0.73052
0.320175
0.705836
0.711344
0.70166
0.714281
0.339025
0.455729
0.740865
0.320608
0.700127
0.719013
0.498612
0.701943
0.34653
0.698054
0.727815
0.734265
0.705946
0.323488
0.317363
0.704517
0.702044
0.323742
0.352306
0.320883
0.320288
0.308128
0.305507
0.326346
0.331893
0.70471
0.315213
0.315386
0.712356
0.594262
0.558998
0.406548
0.326552
0.704564
0.464694
0.564429
0.726746
0.393122
0.741308
0.656731
0.77288
0.702763
0.318813
0.707451
0.696533
0.305545
0.329759
0.41065
0.696088
0.765184
0.72119
0.695876
0.705425
0.703255
0.353654
0.707174
0.700142
0.710415
0.328633
0.706418
0.691193
0.350565
0.425493
0.321277
0.311467
0.309813
0.670397
0.728828
0.706603
0.328954
0.4204
0.71495
0.30358
0.709024
0.702605
0.701614
0.733962
0.704853
0.33072
0.313201
0.281495
0.630834
0.325919
0.7038
0.284682
0.703392
0.697305
0.705327
0.330949
0.442244
0.416569
0.706524
0.311218
0.328718
0.704672
0.702332
0.706695
0.695954
0.707664
0.72976
0.333382
0.750095
0.717125
0.510688
0.706205
0.710213
0.729051
0.447394
0.427172
0.716911
0.481731
0.708808
0.3309
0.701321
0.7014
0.374871
0.328573
0.703129
0.521606
0.708749
0.709283
0.329728
0.324413
0.556693
0.475607
0.389556
0.701051
0.706471
0.331432
0.701651
0.557717
0.701185
0.3339
0.677193
0.331718
0.700952
0.708673
0.729934
0.706378
0.554062
0.357482
0.366132
0.707167
0.322076
0.780993
0.340484
0.705472
0.315165
0.720451
0.71581
0.560258
0.334734
0.557947
0.561806
0.328687
0.701307
0.301566
0.717796
0.333142
0.317716
0.291303
0.710049
0.701041
0.379646
0.365746