# vtk DataFile Version 1.0
unstructured grid
ascii
DATASET UNSTRUCTURED_GRID
points 13672 float
0.0796578 -0.059106 0
0.00128732 0.00159165 0
0.00227961 -0.00102548 0
0.0791586 -0.0598787 0
-0.0546216 0.01 0
0.000495206 0.025 0
0.0800549 -0.035 0
0.135172 -0.08 0
-0.0546216 -0.0451168 0
0.000495206 -0.0301168 0
0.0800549 -0.0901168 0
0.135172 -0.135117 0
-0.0546216 -0.0451168 -0.00551168
0.000495206 -0.0301168 -0.00551168
0.0800549 -0.0901168 -0.00551168
0.135172 -0.135117 -0.00551168
0.135172 -0.08 -0.00551168
0.0800549 -0.035 -0.00551168
0.000495206 0.025 -0.00551168
-0.0546216 0.01 -0.00551168
0.00128732 0.00159165 -0.00551168
0.00227961 -0.00102548 -0.00551168
0.0791586 -0.0598787 -0.00551168
0.0796578 -0.059106 -0.00551168
0.00165953 -0.000990923 0
0.00119576 -0.000874076 0
0.000866021 -0.000641801 0
0.000645147 -0.000349912 0
0.00052235 -1.7281e-05 0
0.00049972 0.000348016 0
0.000601632 0.000737716 0
0.000861774 0.0011403 0
0.00157235 0.00183217 0
0.00188647 0.00206725 0
0.00222612 0.00230203 0
0.00258713 0.00254351 0
0.00296826 0.00279524 0
0.00337118 0.00305664 0
0.00379785 0.00332658 0
0.00425045 0.00360349 0
0.00473139 0.00388521 0
0.0052432 0.00416895 0
0.0057881 0.00445204 0
0.00636753 0.00473281 0
0.00698281 0.00500961 0
0.00763526 0.00528058 0
0.00832616 0.00554366 0
0.00905691 0.00579603 0
0.00982918 0.00603333 0
0.0106445 0.00625033 0
0.0115038 0.00644128 0
0.0124073 0.00660297 0
0.0133543 0.00673414 0
0.0143444 0.00683382 0
0.0153769 0.00690031 0
0.0164512 0.00693173 0
0.0175666 0.00692547 0
0.0187219 0.00687822 0
0.0199156 0.00678477 0
0.0211454 0.00663864 0
0.0224084 0.00643275 0
0.0237018 0.00616676 0
0.0250249 0.00584739 0
0.026375 0.00547298 0
0.0277479 0.00503752 0
0.0291386 0.00453545 0
0.0305433 0.0039653 0
0.0319572 0.0033256 0
0.0333681 0.00260019 0
0.034775 0.00179799 0
0.0361793 0.000930615 0
0.0375798 3.12222e-06 0
0.0389689 -0.000988429 0
0.0403357 -0.00205109 0
0.041675 -0.00318283 0
0.0429849 -0.00437751 0
0.0442643 -0.00562904 0
0.0455126 -0.00693089 0
0.0467314 -0.00827518 0
0.0479204 -0.00965638 0
0.0490661 -0.0110799 0
0.0501515 -0.0125519 0
0.0511696 -0.0140695 0
0.0521492 -0.0156071 0
0.0531202 -0.0171411 0
0.0540851 -0.0186663 0
0.0550431 -0.0201798 0
0.0559923 -0.0216793 0
0.0569311 -0.0231626 0
0.0578582 -0.0246273 0
0.0587723 -0.0260715 0
0.0596721 -0.027493 0
0.0605563 -0.02889 0
0.0614241 -0.0302609 0
0.0622742 -0.0316042 0
0.063106 -0.0329183 0
0.0639186 -0.034202 0
0.0647113 -0.0354543 0
0.0654835 -0.0366743 0
0.0662345 -0.0378613 0
0.0669642 -0.0390145 0
0.0676726 -0.0401333 0
0.0683597 -0.0412172 0
0.0690246 -0.0422665 0
0.0696662 -0.0432819 0
0.0702841 -0.0442636 0
0.0708793 -0.0452111 0
0.0714538 -0.0461237 0
0.072009 -0.047001 0
0.0725452 -0.0478434 0
0.0730611 -0.0486524 0
0.073556 -0.0494294 0
0.0740291 -0.0501756 0
0.0744812 -0.0508916 0
0.0749138 -0.0515773 0
0.0753285 -0.0522331 0
0.0757266 -0.0528592 0
0.076109 -0.0534564 0
0.0764753 -0.0540264 0
0.0768243 -0.054571 0
0.0771553 -0.0550919 0
0.0774679 -0.0555901 0
0.0777617 -0.0560669 0
0.0780369 -0.056523 0
0.0782958 -0.0569578 0
0.0785421 -0.0573703 0
0.0787786 -0.0577603 0
0.0790073 -0.0581279 0
0.0792295 -0.058474 0
0.0794462 -0.0587995 0
0.0798803 -0.0594162 0
0.0800272 -0.0596588 0
0.0800357 -0.0598891 0
0.0799275 -0.0600784 0
0.0797205 -0.0601773 0
0.0794593 -0.0601051 0
0.0789155 -0.0596491 0
0.0786707 -0.0593963 0
0.0784111 -0.0591319 0
0.0781372 -0.0588542 0
0.0778566 -0.0585548 0
0.0775715 -0.0582308 0
0.0772803 -0.0578828 0
0.0769832 -0.0575099 0
0.0766822 -0.0571097 0
0.0763801 -0.0566796 0
0.0760759 -0.0562196 0
0.0757623 -0.0557337 0
0.0754359 -0.0552232 0
0.0750951 -0.0546879 0
0.0747379 -0.054128 0
0.0743626 -0.0535435 0
0.0739688 -0.0529338 0
0.0735559 -0.0522981 0
0.0731238 -0.0516357 0
0.0726718 -0.050946 0
0.0721991 -0.0502288 0
0.0717046 -0.049484 0
0.0711872 -0.0487117 0
0.0706461 -0.047912 0
0.0700804 -0.0470849 0
0.0694892 -0.0462308 0
0.0688718 -0.0453499 0
0.0682271 -0.0444431 0
0.0675544 -0.043511 0
0.0668527 -0.0425546 0
0.0661215 -0.0415748 0
0.06536 -0.040573 0
0.0645676 -0.0395504 0
0.0637439 -0.0385087 0
0.0628887 -0.0374493 0
0.062002 -0.0363741 0
0.0610838 -0.0352847 0
0.0601345 -0.0341831 0
0.0591547 -0.033071 0
0.0581456 -0.0319502 0
0.0571083 -0.0308224 0
0.0560444 -0.0296893 0
0.0549562 -0.028552 0
0.053845 -0.0274126 0
0.0527113 -0.0262746 0
0.051554 -0.0251427 0
0.0503724 -0.0240222 0
0.0491675 -0.0229164 0
0.047941 -0.0218282 0
0.0466955 -0.0207597 0
0.0454337 -0.0197126 0
0.0441592 -0.0186878 0
0.0428751 -0.0176863 0
0.0415841 -0.0167097 0
0.0402878 -0.0157609 0
0.0389879 -0.0148428 0
0.0376864 -0.0139575 0
0.0363853 -0.013107 0
0.0350871 -0.0122931 0
0.0337942 -0.0115164 0
0.0325095 -0.0107772 0
0.0312357 -0.0100756 0
0.0299758 -0.00941024 0
0.0287337 -0.00877784 0
0.0275126 -0.00817571 0
0.0263139 -0.00760375 0
0.0251376 -0.00706528 0
0.0239829 -0.0065649 0
0.0228537 -0.00609619 0
0.0217522 -0.00565563 0
0.0206795 -0.00524226 0
0.0196364 -0.00485507 0
0.0186233 -0.00449318 0
0.0176408 -0.00415577 0
0.016689 -0.00384204 0
0.0157682 -0.00355115 0
0.0148783 -0.00328218 0
0.0140192 -0.00303468 0
0.0131906 -0.00280795 0
0.0123925 -0.00260016 0
0.0116246 -0.00241012 0
0.0108864 -0.00223769 0
0.0101774 -0.00208212 0
0.00949701 -0.00194206 0
0.00884483 -0.0018163 0
0.0082202 -0.0017039 0
0.00762247 -0.00160391 0
0.00705097 -0.00151528 0
0.006505 -0.00143697 0
0.0059838 -0.00136806 0
0.00548662 -0.00130772 0
0.00501265 -0.00125519 0
0.00456114 -0.00120954 0
0.00413136 -0.00116914 0
0.00372257 -0.00113251 0
0.00333398 -0.00109853 0
0.00296466 -0.00106798 0
0.00261363 -0.0010431 0
-0.052721 -0.0445996 0
-0.0508204 -0.0440823 0
-0.0489199 -0.0435651 0
-0.0470193 -0.0430478 0
-0.0451187 -0.0425306 0
-0.0432181 -0.0420134 0
-0.0413175 -0.0414961 0
-0.039417 -0.0409789 0
-0.0375164 -0.0404616 0
-0.0356158 -0.0399444 0
-0.0337152 -0.0394271 0
-0.0318146 -0.0389099 0
-0.0299141 -0.0383927 0
-0.0280135 -0.0378754 0
-0.0261129 -0.0373582 0
-0.0242123 -0.0368409 0
-0.0223117 -0.0363237 0
-0.0204112 -0.0358065 0
-0.0185106 -0.0352892 0
-0.01661 -0.034772 0
-0.0147094 -0.0342547 0
-0.0128088 -0.0337375 0
-0.0109083 -0.0332202 0
-0.00900769 -0.032703 0
-0.00710711 -0.0321858 0
-0.00520653 -0.0316685 0
-0.00330595 -0.0311513 0
-0.00140537 -0.030634 0
0.00190689 -0.0299614 0
0.00332271 -0.0298498 0
0.00474133 -0.0297825 0
0.00616136 -0.0297597 0
0.0075814 -0.0297814 0
0.00900007 -0.0298477 0
0.010416 -0.0299583 0
0.0118278 -0.0301127 0
0.0132342 -0.0303103 0
0.0146339 -0.0305504 0
0.0160259 -0.0308322 0
0.0174091 -0.0311546 0
0.0187824 -0.0315166 0
0.020145 -0.031917 0
0.0214961 -0.0323546 0
0.0228351 -0.032828 0
0.0241613 -0.0333361 0
0.0254744 -0.0338774 0
0.0267738 -0.0344507 0
0.0280592 -0.0350545 0
0.0293306 -0.0356877 0
0.0305875 -0.0363488 0
0.0318301 -0.0370367 0
0.0330581 -0.0377501 0
0.0342717 -0.0384879 0
0.0354708 -0.0392489 0
0.0366556 -0.0400321 0
0.0378262 -0.0408363 0
0.0389828 -0.0416607 0
0.0401254 -0.0425042 0
0.0412543 -0.0433659 0
0.0423698 -0.0442451 0
0.043472 -0.0451408 0
0.0445612 -0.0460523 0
0.0456375 -0.0469789 0
0.0467013 -0.0479199 0
0.0477529 -0.0488746 0
0.0487923 -0.0498424 0
0.04982 -0.0508227 0
0.0508362 -0.051815 0
0.051841 -0.0528187 0
0.0528348 -0.0538333 0
0.0538178 -0.0548584 0
0.0547903 -0.0558935 0
0.0557524 -0.0569382 0
0.0567045 -0.0579922 0
0.0576467 -0.0590549 0
0.0585792 -0.0601261 0
0.0595024 -0.0612055 0
0.0604163 -0.0622926 0
0.0613212 -0.0633873 0
0.0622174 -0.0644891 0
0.0631049 -0.0655979 0
0.0639841 -0.0667134 0
0.064855 -0.0678353 0
0.0657179 -0.0689633 0
0.0665729 -0.0700974 0
0.0674202 -0.0712372 0
0.06826 -0.0723826 0
0.0690925 -0.0735333 0
0.0699178 -0.0746892 0
0.070736 -0.0758501 0
0.0715473 -0.0770159 0
0.0723518 -0.0781863 0
0.0731498 -0.0793612 0
0.0739412 -0.0805405 0
0.0747264 -0.081724 0
0.0755053 -0.0829116 0
0.0762781 -0.0841033 0
0.0770449 -0.0852987 0
0.0778059 -0.0864979 0
0.0785611 -0.0877007 0
0.0793108 -0.088907 0
0.0814681 -0.0912706 0
0.0828814 -0.0924245 0
0.0842946 -0.0935783 0
0.0857079 -0.0947322 0
0.0871211 -0.095886 0
0.0885344 -0.0970399 0
0.0899476 -0.0981937 0
0.0913609 -0.0993476 0
0.0927741 -0.100501 0
0.0941874 -0.101655 0
0.0956006 -0.102809 0
0.0970139 -0.103963 0
0.0984272 -0.105117 0
0.0998404 -0.106271 0
0.101254 -0.107424 0
0.102667 -0.108578 0
0.10408 -0.109732 0
0.105493 -0.110886 0
0.106907 -0.11204 0
0.10832 -0.113194 0
0.109733 -0.114348 0
0.111146 -0.115501 0
0.11256 -0.116655 0
0.113973 -0.117809 0
0.115386 -0.118963 0
0.116799 -0.120117 0
0.118213 -0.121271 0
0.119626 -0.122424 0
0.121039 -0.123578 0
0.122452 -0.124732 0
0.123866 -0.125886 0
0.125279 -0.12704 0
0.126692 -0.128194 0
0.128105 -0.129348 0
0.129519 -0.130501 0
0.130932 -0.131655 0
0.132345 -0.132809 0
0.133758 -0.133963 0
0.135172 -0.133216 0
0.135172 -0.131316 0
0.135172 -0.129415 0
0.135172 -0.127514 0
0.135172 -0.125614 0
0.135172 -0.123713 0
0.135172 -0.121813 0
0.135172 -0.119912 0
0.135172 -0.118012 0
0.135172 -0.116111 0
0.135172 -0.11421 0
0.135172 -0.11231 0
0.135172 -0.110409 0
0.135172 -0.108509 0
0.135172 -0.106608 0
0.135172 -0.104708 0
0.135172 -0.102807 0
0.135172 -0.100906 0
0.135172 -0.0990058 0
0.135172 -0.0971052 0
0.135172 -0.0952046 0
0.135172 -0.0933041 0
0.135172 -0.0914035 0
0.135172 -0.0895029 0
0.135172 -0.0876023 0
0.135172 -0.0857017 0
0.135172 -0.0838012 0
0.135172 -0.0819006 0
0.133758 -0.0788462 0
0.132345 -0.0776923 0
0.130932 -0.0765385 0
0.129519 -0.0753846 0
0.128105 -0.0742308 0
0.126692 -0.0730769 0
0.125279 -0.0719231 0
0.123866 -0.0707692 0
0.122452 -0.0696154 0
0.121039 -0.0684615 0
0.119626 -0.0673077 0
0.118213 -0.0661538 0
0.116799 -0.065 0
0.115386 -0.0638462 0
0.113973 -0.0626923 0
0.11256 -0.0615385 0
0.111146 -0.0603846 0
0.109733 -0.0592308 0
0.10832 -0.0580769 0
0.106907 -0.0569231 0
0.105493 -0.0557692 0
0.10408 -0.0546154 0
0.102667 -0.0534615 0
0.101254 -0.0523077 0
0.0998404 -0.0511538 0
0.0984272 -0.05 0
0.0970139 -0.0488462 0
0.0956006 -0.0476923 0
[...]
CELL_DATA 13116
SCALARS rho float
LOOKUP_TABLE default
0.565848
0.6806
0.389372
0.702616
0.70709
0.681726
0.328875
0.703247
0.513021
0.704763
0.348978
0.325511
0.707397
0.329661
0.323604
0.688076
0.565632
0.685113
0.70707
0.321145
0.559654
0.362355
0.338513
0.690705
0.585464
0.715137
0.704368
0.365178
0.562595
0.627584
1.14633
0.33059
0.535746
0.440344
0.335088
0.563497
0.657657
0.703761
0.988764
0.707082
0.702374
0.703347
0.44131
0.388846
0.707983
0.707342
0.685536
0.707144
0.336317
0.499897
0.707292
0.447309
0.277297
0.55817
0.535807
0.568455
0.373949
0.692042
0.509712
0.3081
0.331556
0.706013
0.684321
1.04359
1.13958
0.342337
0.702629
0.658501
0.707267
1.14007
0.332575
0.549107
0.369152
0.339327
1.14367
0.374013
0.660293
0.707295
0.336851
0.682417
0.672161
0.709252
0.694641
0.707449
0.703578
0.395719
0.321944
0.648503
0.704043
0.354749
0.332586
0.682487
0.69558
0.7103
0.637353
0.59008
0.586892
1.13824
1.14506
0.565511
0.65354
0.647133
0.704239
0.416631
0.683709
0.314345
0.348409
0.483861
0.333756
0.573904
0.509892
0.69947
0.586673
0.673783
0.682927
0.701201
0.32233
0.383387
0.707534
0.703168
0.657185
0.370566
0.707382
0.33147
0.715565
0.425463
0.320436
0.482473
0.343212
0.499573
0.707688
0.696971
0.460039
0.35016
0.441264
0.60514
1.13367
0.708618
0.651671
0.702877
0.64807
0.68724
0.48323
0.650627
0.67514
0.324474
0.34036
0.70704
0.704427
0.703484
0.504851
0.707504
0.706977
0.373052
0.705289
0.704891
0.338061
0.658513
1.13903
0.647121
0.691295
0.344719
0.696314
0.339863
0.376202
0.707596
0.713343
0.684836
0.332705
0.422235
0.39364
1.13543
0.297833
0.470812
0.699594
0.337592
0.356695
0.367056
0.697708
0.677626
0.323483
0.41326
0.531931
0.656215
0.686
0.510265
0.347136
0.702216
0.685038
0.442594
0.647567
0.705418
1.14087
0.336258
0.698085
0.674147
0.701041
0.704255
0.703515
0.395775
0.417355
0.581168
0.477999
0.341445
0.701588
0.705165
0.453946
0.598469
0.29385
0.351163
0.378061
0.702969
0.338548
0.329644
0.348162
0.373413
0.374554
0.957031
0.716138
0.379748
0.361002
0.702406
0.505329
0.324456
0.50448
0.70607
0.673537
0.323796
0.699562
0.359475
0.707477
0.331333
1.14616
0.537331
1.13687
0.710912
1.13257
0.308049
0.421817
0.644147
1.13659
0.67767
1.13364
1.13641
0.705007
0.356791
0.707944
0.706492
1.14393
0.355625
0.338726
0.707001
0.707715
1.14704
0.706967
0.560576
0.672009
0.347205
0.322813
0.39367
0.289356
0.677464
0.701025
0.660413
0.326755
0.709698
0.337618
0.393015
0.685356
0.35829
0.710793
0.706253
1.13555
0.691877
0.311768
1.13553
0.678587
1.14389
0.708485
0.33384
0.322019
0.337143
0.602261
0.370828
0.350267
0.332079
0.332399
0.697664
0.250913
0.705884
0.708137
0.333682
0.320188
0.337732
0.427717
0.389035
0.647739
0.629839
0.69335
0.353784
0.703785
0.535474
0.327056
0.314753
0.821742
0.707765
0.703571
0.34792
0.680492
0.424365
0.697331
0.703384
0.7035
0.703576
0.336292
0.699513
0.281355
0.696663
0.703819
0.639176
0.330042
0.328117
0.706958
0.341508
0.693847
0.706228
0.385801
0.670815
0.694402
0.336358
0.709162
0.695947
0.288348
0.707962
0.38096
0.522342
0.716491
0.394858
0.660608
0.32648
0.689297
0.324651
1.10402
0.658193
0.700836
0.329267
0.355668
0.704397
0.370142
0.703321
0.688043
0.408593
1.13411
0.351658
0.371632
0.705409
0.509113
0.659243
0.322562
0.339022
0.707751
0.708059
0.344973
0.708252
0.331816
0.311722
0.701577
0.713217
0.490352
0.365405
0.708022
1.14017
0.687447
0.708564
0.696842
0.507948
0.405468
0.282126
0.323239
0.680846
0.324714
0.53245
0.384159
0.335034
0.349514
0.497947
0.111569
0.370355
0.704233
0.3322
0.697948
0.564962
0.706349
0.638914
0.708177
0.372127
0.321623
0.398056
0.388028
0.703006
0.583428
0.704401
0.565084
0.675003
0.611731
0.707574
0.635319
0.625691
0.696804
0.681146
0.697799
0.396261
0.458267
0.56299
0.365344
0.626938
0.568411
0.29282
0.700392
1.13622
0.336893
0.325289
0.337855
0.346021
0.585844
0.336793
0.336525
0.70209
0.341629
0.540344
0.352505
0.691014
0.679033
0.40947
0.353341
0.704868
0.425403
0.357025
0.343844
0.3579
0.334932
0.321973
0.324488
0.360886
0.398164
0.344177
0.645985
0.401584
0.704495
0.392152
0.329994
0.450646
0.321753
0.352306
0.323632
0.710983
0.408103
0.602816
0.494622
0.343095
0.602237
0.704277
0.392865
0.670247
0.617499
0.619232
0.323379
1.1382
0.384528
0.696065
1.14615
0.339844
0.267558
0.683132
0.388996
0.393723
0.661497
0.348422
0.657241
0.678195
0.319083
0.355552
0.293112
0.466343
0.313271
0.270387
0.31343
0.282294
0.705022
0.704225
0.432574
0.568294
0.444823
0.695998
0.362662
0.359302
0.518041
0.34007
0.703214
0.325655
0.366026
0.455584
0.708237
0.713267
0.515569
0.386815
0.27006
0.515226
0.703054
1.13636
0.51289
0.68124
0.675663
0.342679
0.677659
0.533894
0.642546
0.336647
0.387646
0.672414
0.699321
0.636523
0.705205
0.700739
0.718712
0.690406
0.639506
0.705948
0.338557
0.70837
0.31791
0.293719
0.335552
0.702743
0.706037
0.315989
0.70306
0.576489
0.332048
1.11154
0.707657
0.691168
0.372371
0.360593
0.706632
0.359727
0.357428
0.315369
0.341988
0.700478
0.279405
0.702261
0.397483
0.679462
0.707708
0.706582
0.707937
0.360598
0.323562
0.705693
0.707739
0.654977
0.705568
0.706187
0.439035
0.333298
0.340699
0.701838
0.510096
0.338155
0.425948
0.334906
0.712614
0.700033
0.332449
0.361949
0.702402
0.401618
0.704562
0.622321
0.337963
0.359519
0.654772
1.13708
0.340171
0.712028
0.714887
0.705824
0.367966
1.13633
0.347432
1.13608
0.640736
0.366158
0.372119
0.35344
1.13563
0.3395
0.328149
0.387215
1.03376
0.693657
0.330936
0.31997
0.344003
1.08238
0.369043
0.681414
0.325386
0.551138
0.705807
0.391891
0.339476
0.338494
0.44103
0.341429
0.714326
0.35091
0.356079
0.674135
0.281835
0.699083
0.693075
1.13684
0.338222
0.704014
0.698796
0.701608
0.702475
0.720206
0.701263
0.326518
1.13925
0.385127
0.699593
0.331041
0.703756
0.489655
0.316945
1.14351
0.701558
0.363031
0.634317
0.333166
0.335695
0.702808
0.711527
0.335756
0.325088
0.335285
0.325526
0.715166
0.690221
0.36697
0.318553
0.702646
0.707746
0.554098
0.698763
0.698127
0.345125
0.701922
0.399943
0.707665
0.391361
0.580532
0.433879
0.698891
0.660588
0.533676
0.357025
0.335707
0.705673
0.5602
0.55548
0.698124
0.284478
0.679953
0.704766
0.337728
0.454699
0.700139
0.382348
1.14431
0.6455
0.32734
0.703355
0.635182
0.377714
0.690463
0.337037
0.700011
0.385698
0.702392
0.68446
0.341869
0.983899
0.697045
0.705556
0.57926
0.683717
0.535629
0.348206
0.421701
0.331071
0.340818
1.13249
0.507724
0.707643
0.703894
0.33348
0.376306
0.689334
0.704747
0.704584
0.705514
0.330983
0.680501
0.706715
0.321696
0.321303
0.707416
0.707225
0.701238
0.324109
0.540494
0.444202
0.688064
0.694881
1.13376
0.690558
0.337026
0.693977
0.705042
0.695961
0.711605
0.700517
0.381092
0.696644
0.350715
0.663723
0.706405
0.421934
0.677254
1.12532
0.70749
0.422854
0.404815
0.538779
0.626984
0.35899
0.366338
0.357633
0.346418
0.679257
0.678735
1.1338
0.334268
0.343585
0.707166
0.660727
0.289791
0.374803
0.429093
0.661016
0.704114
0.707903
0.68561
0.352711
0.359424
1.13374
0.331183
0.329282
0.363893
0.70108
0.449248
0.360602
0.561634
0.70304
0.69643
0.739942
0.7016
0.327766
0.282495
0.350295
0.502489
0.408895
0.332235
0.65831
0.682975
0.69539
0.704357
0.326749
0.343386
0.70538
0.347207
0.699991
0.685464
1.13943
0.335603
0.357716
0.700821
1.1445
0.587354
0.28444
0.704731
0.696531
0.558478
0.70419
0.703821
1.13464
0.679721
0.329105
0.700345
1.14436
0.641974
0.687225
1.13258
0.70015
1.13446
0.708006
0.353818
0.360675
0.345459
1.13987
0.492955
0.349314
0.690066
0.70198
0.324699
0.63889
0.434342
0.647153
0.486768
0.316699
0.705018
0.688747
0.341252
0.500928
1.13964
0.337411
0.70928
0.33972
0.31091
0.609145
0.579228
0.450252
0.705139
0.36243
0.696606
0.359569
0.325558
0.699734
0.33664
0.592855
0.334564
0.640593
0.581111
1.1359
0.712674
0.265036
0.35648
0.653655
0.44651
0.703979
0.448837
0.582438
0.683665
0.695203
0.45654
0.571235
0.697238
0.701661
0.704367
0.328588
0.364946
0.494591
0.697665
0.700395
0.383952
0.704308
0.588693
0.397557
0.334964
0.641457
0.661046
1.13381
1.13614
0.658537
0.676864
0.949007
0.66548
0.3332
0.63296
0.426736
0.70303
0.707237
0.318592
0.719246
0.707191
0.367158
0.299086
0.33902
1.13288
0.343299
0.606771
0.693417
0.632838
0.317264
0.701481
0.340918
0.5419
1.08109
1.14045
0.656689
1.08202
0.591549
0.671002
0.513141
0.699
0.388475
0.699679
0.706343
0.431101
1.13445
0.682217
0.337244
0.277248
0.339224
0.704332
0.366221
1.13842
0.347797
0.703261
0.275192
0.433884
0.329555
0.695048
0.706979
0.55898
0.25772
0.594396
0.881704
0.347067
0.555964
0.703722
0.331559
0.571222
1.14421
0.70631
0.700408
0.339114
0.478665
0.704331
0.706943
0.664557
0.362569
0.401297
0.705578
1.13476
1.1369
1.13519
0.549717
0.69746
0.545331
0.702454
0.362221
0.341869
1.13499
0.706568
0.990589
0.342834
0.70023
0.564078
0.602799
0.374668
0.379687
0.708267
0.703251
0.527785
0.396642
0.704865
1.13499
0.334387
0.580761
0.684781
0.338365
0.329889
0.265597
0.689655
0.363347
0.339283
0.70861
0.452969
0.701968
0.642514
0.324026
0.328642
0.706145
0.365789
0.341887
1.14474
0.31832
0.367892
0.575118
0.720966
0.702734
0.34526
0.430105
0.352786
0.692437
0.315283
0.703574
0.311754
0.692393
0.72095
0.708584
0.687245
0.690548
0.694105
0.703337
0.707805
0.705875
0.271064
0.348053
0.683908
0.887677
0.453313
0.690955
0.533943
1.02096
0.640656
0.399423
0.702422
0.704347
0.700071
0.357229
0.693821
0.382457
0.707369
0.441235
0.684731
0.702553
0.319617
0.701607
0.34117
0.435835
0.683048
0.374349
0.661925
1.13351
0.710617
0.347242
0.700411
0.349732
0.335287
0.334982
0.348752
0.641976
0.295163
0.650351
1.11325
0.393938
0.336093
0.434873
0.536976
0.618415
0.671438
0.338182
0.341738
0.344792
0.329326
0.255644
0.622947
0.703828
0.383649
1.10546
0.693106
0.27552
0.703921
0.658451
1.08893
0.360127
1.13959
0.682332
0.698375
0.702527
0.321171
0.702663
0.701358
0.694766
0.638689
0.681104
0.343235
0.335149
0.707476
0.489512
0.361505
0.698633
0.33602
0.52368
0.628418
0.699743
0.700303
0.333775
0.689422
0.392333
0.358713
0.674481
0.705044
0.702721
0.708172
0.652023
0.33619
0.707862
0.30184
0.451668
0.707771
1.14488
0.704283
0.358047
0.323887
0.706704
0.324496
0.706615
0.615368
0.408102
0.352126
0.701759
0.334386
0.701973
0.70626
0.655372
0.334624
0.362306
0.475732
0.508909
0.614436
0.45058
0.681401
0.673079
0.70615
1.13188
0.691924
0.282046
0.353791
0.707175
0.691383
0.659686
0.41862
0.341834
0.675382
0.26646
0.699285
0.575045
0.409897
0.70239
0.337969
0.720825
0.385909
0.705009
0.307841
0.705513
0.686744
0.32582
0.713567
0.626776
0.329502
1.13574
0.707092
0.534933
0.320707
0.38031
0.44693
0.699474
0.661614
0.386189
0.537133
0.693786
0.681326
0.319419
0.614694
0.693495
0.395592
0.681683
0.696678
0.293062
0.707219
1.14365
0.390451
0.590678
0.34372
0.649708
0.356155
0.309085
0.698895
0.346722
0.345328
0.260414
0.701178
0.688114
0.4003
0.70533
0.376643
0.668308
0.350861
0.687614
0.384206
0.691684
0.707426
0.65518
1.14074
0.503531
0.686928
1.09211
0.403542
0.604953
0.653056
0.521829
0.691449
0.440982
0.411787
0.707732
0.33145
0.540729
0.433712
0.704282
0.279255
0.336307
0.688258
0.700573
0.321178
0.702973
0.681943
1.13186
0.705239
1.13491
0.328698
0.703895
0.326284
0.339169
0.707873
0.687798
0.703196
0.704347
0.330717
0.36483
0.350169
0.683508
1.11658
0.37822
0.719673
0.340075
0.354549
0.373319
0.704217
0.389827
0.707754
0.705506
0.602011
0.711674
0.7057
0.564139
0.657592
0.393096
0.328945
0.322381
1.13485
1.13502
0.341906
0.624522
0.687603
0.656639
0.339472
0.42519
0.674955
0.311145
0.669024
0.630242
0.328535
0.843478
0.681472
0.351672
0.702565
0.334077
0.707313
0.701359
0.691739
0.265575
0.416207
0.661934
0.307558
0.385733
0.711214
0.321636
0.75865
0.704778
0.70936
0.681903
0.403575
1.14017
0.673769
0.706913
0.344654
0.708191
0.360758
0.318455
0.702532
0.703886
1.11231
0.245272
0.703606
0.600843
1.14322
0.341311
0.32817
0.359576
0.707328
0.339325
0.290121
0.377723
0.628404
0.320926
0.324955
0.396589
0.704184
0.338143
1.14337
1.01742
0.706598
0.348381
0.707577
0.635761
1.1039
0.383166
0.637507
0.342536
0.335687
0.698935
0.321185
0.62991
0.690548
1.13588
0.333573
0.33142
0.363594
0.513193
1.13363
0.251743
0.704002
0.701501
0.684976
0.353551
0.289351
0.330912
0.666314
0.347081
1.13276
0.566059
0.893784
0.706364
0.335355
0.634745
0.32757
0.629543
0.617768
0.704726
0.61468
0.526022
0.642039
0.662643
0.707256
0.342412
0.391174
0.339994
0.683731
0.5148
1.14447
0.333124
0.391152
0.695635
0.707592
1.14369
0.322438
0.705743
0.511305
0.515912
0.66376
0.339764
0.323367
0.298527
0.70345
1.11771
0.635772
0.694371
0.33775
0.711114
0.632331
1.1178
1.12146
0.709028
0.704537
0.664601
0.688131
0.701467
0.339237
0.707082
0.708101
0.694581
0.707552
0.704687
0.601245
0.330966
0.317104
0.646919
0.361436
0.39929
0.709311
0.338184
0.601424
0.706954
0.682276
0.701462
0.338844
0.707069
0.334676
0.340565
0.675476
0.698373
0.704594
0.349799
0.708305
0.705136
0.653657
0.702692
0.362654
0.687802
0.706675
0.678591
0.395355
0.690492
0.352058
0.702003
0.382252
0.333275
0.56829
0.42253
0.705325
0.694329
0.699867
0.37473
0.678678
0.402224
0.327397
0.707514
0.43465
0.358632
0.702625
0.301811
0.461178
0.654139
0.680564
0.697997
0.43804
0.551689
0.641647
0.699662
0.60231
0.703199
0.491029
0.708631
0.693398
0.632041
0.324813
0.339164
0.418644
0.708257
0.337658
0.644842
0.702813
0.592291
0.700156
0.545523
0.665135
0.667057
0.359761
0.702628
0.686429
0.533898
0.686597
0.707425
0.714522
0.784699
0.353766
0.353273
0.699323
0.5193
0.551429
0.708086
0.707085
0.705625
0.698948
0.70157
0.61119
0.672619
0.7042
0.263874
0.330077
0.28943
0.413285
1.13708
0.437393
0.541957
0.702448
0.671691
0.339581
0.701631
0.702426
0.348802
0.370786
1.13993
0.707705
0.341724
0.32364
0.317954
1.13194
0.714269
0.397426
0.284092
0.327002
0.307541
0.379194
0.363902
0.708536
0.70733
0.685449
0.345087
0.682942
0.607208
0.569269
0.357425
0.326521
0.70812
1.13351
0.356314
0.685693
0.350073
0.690197
0.339659
0.709
0.332638
0.696201
0.708184
0.347847
0.518247
0.3383
0.703699
0.320038
0.61362
0.335933
0.486783
0.34612
0.606339
0.347072
1.14503
1.1412
0.569414
0.68981
0.361457
0.688674
0.872334
0.70828
0.603767
0.669208
0.324958
0.421479
0.342378
0.697157
0.300845
0.70692
0.510718
0.686649
0.706595
0.479974
0.697325
0.331119
0.338009
0.278218
0.48698
0.571726
0.706464
0.349303
0.350589
0.697276
0.348211
0.333831
0.594733
0.372414
0.358635
0.317989
0.703447
0.623848
0.6175
0.340285
0.686797
0.703002
0.3279
0.30889
0.70541
0.699612
0.627362
0.466779
0.367855
0.343503
0.370991
0.713935
0.647789
0.509644
0.672071
0.290761
0.557264
0.338154
1.14192
0.707487
0.323919
0.321143
0.653255
0.590231
0.707975
0.702019
0.701319
0.702566
0.707815
0.375169
0.365105
0.341828
0.33314
0.56405
1.13871
0.625849
0.333757
0.333087
0.44603
0.329928
0.705959
0.678637
0.346945
0.335838
0.706856
0.339982
0.641683
0.697837
0.692861
0.685089
0.56647
0.356659
0.332603
0.669721
0.324753
0.427983
0.397863
0.879896
0.708697
0.300395
0.329655
1.13722
0.345809
0.698355
0.696801
0.342135
0.368843
0.249658
0.706614
0.322961
1.13362
0.686427
0.596325
0.32442
0.486208
0.706808
0.702436
0.331223
0.698658
0.647139
0.330655
0.707079
0.706999
0.355623
0.352395
0.702082
0.347559
0.331935
0.692199
0.326677
0.707584
0.664037
0.693887
0.648154
0.706207
0.705666
0.744878
0.345464
0.374724
0.66397
0.699811
0.413868
0.704175
0.35146
0.707805
0.698957
0.550691
0.634134
0.42181
0.42885
0.702513
0.704547
0.691827
0.708104
0.705307
1.14016
0.704002
1.13428
0.719849
0.708034
0.710812
1.13386
0.694842
0.333038
0.710206
0.403508
0.701539
0.707051
0.691701
0.692552
0.679818
0.366528
0.368214
0.316622
0.335815
0.691335
0.315688
0.36163
0.67511
0.324679
0.687048
0.369339
0.693383
0.703425
0.345212
0.349544
0.40691
0.708262
0.338043
0.706375
0.700712
0.363874
0.707066
0.519527
0.396287
0.350413
0.327071
0.672125
0.353944
0.702424
0.543752
0.34228
0.70644
0.703031
0.700737
0.350473
0.564889
0.334082
0.683336
0.77098
0.701376
0.364466
0.698813
0.708553
0.694538
0.400145
0.708436
0.356407
0.344182
0.711473
0.432859
0.70525
0.413724
0.36259
0.402819
0.696446
0.354836
0.334512
0.38371
0.490431
1.14371
0.702956
0.307971
0.600304
0.705854
0.511728
0.439482
0.413909
0.521204
0.363819
0.33705
0.70747
0.345156
0.350633
0.705302
0.703825
0.354578
0.684735
0.374996
1.14124
0.377851
0.70936
1.13887
0.682
0.920599
0.36344
0.338715
0.334541
0.686619
0.703381
0.549315
0.517429
0.343945
0.313259
0.6977
0.347554
0.707507
0.35361
1.13603
0.660382
0.339434
0.389395
0.339816
0.329562
0.39535
0.654859
0.689045
0.333264
0.707556
0.625368
0.345964
0.28895
0.703502
0.356835
0.7049
0.386468
0.683059
0.639792
0.707491
1.14255
0.344386
0.70215
0.704662
0.703764
0.351411
0.66216
0.559594
0.40125
0.708055
0.65718
0.710811
0.688391
0.707767
0.710917
0.704196
0.698057
0.706828
0.337876
0.698228
0.338261
0.454146
0.710922
0.334468
0.700006
0.674428
0.347283
0.693617
0.350952
0.332879
0.707123
0.663626
0.704189
0.350476
0.689369
0.591395
0.39927
0.343698
0.717674
0.701593
0.367582
0.374285
0.691567
0.704045
0.355826
0.629678
0.708158
0.625043
0.337723
0.354875
0.332879
0.639987
0.308977
0.698574
0.68274
0.698873
0.611649
0.705081
0.350859
0.701345
0.580054
0.708257
0.614307
0.335282
0.340921
0.301176
0.692311
0.70286
0.383044
0.637615
0.430259
0.656822
0.703003
0.287849
0.644702
0.699356
0.613816
0.345354
0.323013
0.414591
0.706203
0.705623
0.589014
0.466953
0.707367
0.354477
0.614987
1.13851
0.697968
0.345966
0.588809
0.346963
0.681967
0.310568
0.703991
0.708158
0.340724
0.706949
0.444902
1.13388
0.638911
1.13236
0.703579
0.418991
0.694339
0.702991
0.70351
0.704737
0.426198
1.13868
0.25943
0.704158
0.296834
0.32723
0.288171
0.392131
0.361956
0.342809
0.70742
0.346321
0.294744
0.651528
0.707035
0.688919
0.398741
0.676489
0.67068
0.712903
0.309303
0.614924
0.701543
0.37621
0.377978
0.339775
0.615109
0.457117
0.338857
0.608704
0.327697
1.13573
0.45176
0.317677
0.430284
0.633884
0.408946
0.699197
0.283595
0.51301
0.365647
0.711871
0.379852
0.649782
1.14041
0.682051
0.4365
0.33197
0.71663
0.704963
0.375624
0.335331
0.67934
0.326946
0.689333
0.345786
0.518394
0.300842
0.70469
0.367389
0.706275
0.325796
0.702545
0.706598
0.705578
1.13605
0.257794
0.337413
0.39767
0.71677
0.673599
0.695134
0.576237
0.353486
0.695849
0.412363
0.703194
0.653461
0.412077
0.3483
0.698357
0.705127
0.335244
1.14472
0.716524
0.700671
0.694678
0.281857
0.617171
0.343104
0.701897
0.305321
1.07514
0.705707
0.720846
0.70579
0.343471
0.703021
0.344697
0.361824
0.697941
1.13671
0.530808
0.701202
1.13659
0.35446
0.686627
0.711989
0.703521
0.335415
0.412542
0.670152
0.318546
0.707893
0.702711
0.701551
0.71107
0.295452
0.442587
0.629038
0.340155
0.700126
0.703366
0.461018
0.706831
0.261771
0.670351
0.686967
0.658229
0.711471
0.323486
0.33638
0.706244
0.697378
0.349655
0.365292
0.367463
0.339786
0.282521
0.328523
0.394742
0.361393
0.704776
0.299305
0.341208
0.690139
0.531078
1.13947
0.386761
0.331414
0.706369
0.450466
0.501211
0.705253
0.374286
0.635893
1.13396
0.57468
0.687595
0.339581
0.703644
1.0252
0.361774
0.343497
0.413934
0.67216
0.576003
0.70774
0.694735
0.69848
0.689596
0.393409
0.706148
0.935233
0.720553
0.335712
0.706078
0.635424
0.392225
0.410756
0.256405
0.330627
0.272992
0.577765
0.6556
0.684553
0.33794
0.354089
0.708125
0.324679
0.698513
0.703828
0.700772
0.657602
0.707572
0.374792
0.332807
0.323209
0.563752
0.311895
0.7068
0.321616
0.697666
0.676795
0.707093
0.407593
0.438629
0.414801
0.706171
0.372633
0.340066
0.710549
0.688414
0.637387
0.687732
0.718621
0.688892
0.363075
0.589429
0.705453
0.48408
0.70549
0.698404
0.693261
0.400468
0.383631
0.70337
0.448661
0.619955
0.34554
0.681226
0.703479
0.396275
0.310783
0.680964
0.484754
0.704366
0.697597
0.356079
0.321631
1.14349
0.425955
0.402326
0.705688
0.716902
0.343435
0.706186
1.13947
0.691998
0.364185
0.576908
0.35963
0.708608
0.707458
0.689596
0.680557
1.13796
0.329681
0.375632
0.690503
0.345355
0.570526
0.340134
0.707584
0.321351
0.638419
0.704498
1.13658
0.364639
1.13323
1.14357
0.337722
0.680017
0.326086
0.703555
0.360988
0.335114
0.311375
0.679144
0.708816
0.30675
0.313225
0.708065
0.707971
0.433687
0.679049
0.361492
0.494336
0.329081
0.688467
0.337379
0.653375
0.709831
0.331789
0.425319
0.333947
1.12678
0.371435
0.319313
0.704426
0.336443