# vtk DataFile Version 1.0
unstructured grid
ascii
DATASET UNSTRUCTURED_GRID
points 13672 float
0.0796578 -0.059106 0
0.00128732 0.00159165 0
0.00227961 -0.00102548 0
0.0791586 -0.0598787 0
-0.0546216 0.01 0
0.000495206 0.025 0
0.0800549 -0.035 0
0.135172 -0.08 0
-0.0546216 -0.0451168 0
0.000495206 -0.0301168 0
0.0800549 -0.0901168 0
0.135172 -0.135117 0
-0.0546216 -0.0451168 -0.00551168
0.000495206 -0.0301168 -0.00551168
0.0800549 -0.0901168 -0.00551168
0.135172 -0.135117 -0.00551168
0.135172 -0.08 -0.00551168
0.0800549 -0.035 -0.00551168
0.000495206 0.025 -0.00551168
-0.0546216 0.01 -0.00551168
0.00128732 0.00159165 -0.00551168
0.00227961 -0.00102548 -0.00551168
0.0791586 -0.0598787 -0.00551168
0.0796578 -0.059106 -0.00551168
0.00165953 -0.000990923 0
0.00119576 -0.000874076 0
0.000866021 -0.000641801 0
0.000645147 -0.000349912 0
0.00052235 -1.7281e-05 0
0.00049972 0.000348016 0
0.000601632 0.000737716 0
0.000861774 0.0011403 0
0.00157235 0.00183217 0
0.00188647 0.00206725 0
0.00222612 0.00230203 0
0.00258713 0.00254351 0
0.00296826 0.00279524 0
0.00337118 0.00305664 0
0.00379785 0.00332658 0
0.00425045 0.00360349 0
0.00473139 0.00388521 0
0.0052432 0.00416895 0
0.0057881 0.00445204 0
0.00636753 0.00473281 0
0.00698281 0.00500961 0
0.00763526 0.00528058 0
0.00832616 0.00554366 0
0.00905691 0.00579603 0
0.00982918 0.00603333 0
0.0106445 0.00625033 0
0.0115038 0.00644128 0
0.0124073 0.00660297 0
0.0133543 0.00673414 0
0.0143444 0.00683382 0
0.0153769 0.00690031 0
0.0164512 0.00693173 0
0.0175666 0.00692547 0
0.0187219 0.00687822 0
0.0199156 0.00678477 0
0.0211454 0.00663864 0
0.0224084 0.00643275 0
0.0237018 0.00616676 0
0.0250249 0.00584739 0
0.026375 0.00547298 0
0.0277479 0.00503752 0
0.0291386 0.00453545 0
0.0305433 0.0039653 0
0.0319572 0.0033256 0
0.0333681 0.00260019 0
0.034775 0.00179799 0
0.0361793 0.000930615 0
0.0375798 3.12222e-06 0
0.0389689 -0.000988429 0
0.0403357 -0.00205109 0
0.041675 -0.00318283 0
0.0429849 -0.00437751 0
0.0442643 -0.00562904 0
0.0455126 -0.00693089 0
0.0467314 -0.00827518 0
0.0479204 -0.00965638 0
0.0490661 -0.0110799 0
0.0501515 -0.0125519 0
0.0511696 -0.0140695 0
0.0521492 -0.0156071 0
0.0531202 -0.0171411 0
0.0540851 -0.0186663 0
0.0550431 -0.0201798 0
0.0559923 -0.0216793 0
0.0569311 -0.0231626 0
0.0578582 -0.0246273 0
0.0587723 -0.0260715 0
0.0596721 -0.027493 0
0.0605563 -0.02889 0
0.0614241 -0.0302609 0
0.0622742 -0.0316042 0
0.063106 -0.0329183 0
0.0639186 -0.034202 0
0.0647113 -0.0354543 0
0.0654835 -0.0366743 0
0.0662345 -0.0378613 0
0.0669642 -0.0390145 0
0.0676726 -0.0401333 0
0.0683597 -0.0412172 0
0.0690246 -0.0422665 0
0.0696662 -0.0432819 0
0.0702841 -0.0442636 0
0.0708793 -0.0452111 0
0.0714538 -0.0461237 0
0.072009 -0.047001 0
0.0725452 -0.0478434 0
0.0730611 -0.0486524 0
0.073556 -0.0494294 0
0.0740291 -0.0501756 0
0.0744812 -0.0508916 0
0.0749138 -0.0515773 0
0.0753285 -0.0522331 0
0.0757266 -0.0528592 0
0.076109 -0.0534564 0
0.0764753 -0.0540264 0
0.0768243 -0.054571 0
0.0771553 -0.0550919 0
0.0774679 -0.0555901 0
0.0777617 -0.0560669 0
0.0780369 -0.056523 0
0.0782958 -0.0569578 0
0.0785421 -0.0573703 0
0.0787786 -0.0577603 0
0.0790073 -0.0581279 0
0.0792295 -0.058474 0
0.0794462 -0.0587995 0
0.0798803 -0.0594162 0
0.0800272 -0.0596588 0
0.0800357 -0.0598891 0
0.0799275 -0.0600784 0
0.0797205 -0.0601773 0
0.0794593 -0.0601051 0
0.0789155 -0.0596491 0
0.0786707 -0.0593963 0
0.0784111 -0.0591319 0
0.0781372 -0.0588542 0
0.0778566 -0.0585548 0
0.0775715 -0.0582308 0
0.0772803 -0.0578828 0
0.0769832 -0.0575099 0
0.0766822 -0.0571097 0
0.0763801 -0.0566796 0
0.0760759 -0.0562196 0
0.0757623 -0.0557337 0
0.0754359 -0.0552232 0
0.0750951 -0.0546879 0
0.0747379 -0.054128 0
0.0743626 -0.0535435 0
0.0739688 -0.0529338 0
0.0735559 -0.0522981 0
0.0731238 -0.0516357 0
0.0726718 -0.050946 0
0.0721991 -0.0502288 0
0.0717046 -0.049484 0
0.0711872 -0.0487117 0
0.0706461 -0.047912 0
0.0700804 -0.0470849 0
0.0694892 -0.0462308 0
0.0688718 -0.0453499 0
0.0682271 -0.0444431 0
0.0675544 -0.043511 0
0.0668527 -0.0425546 0
0.0661215 -0.0415748 0
0.06536 -0.040573 0
0.0645676 -0.0395504 0
0.0637439 -0.0385087 0
0.0628887 -0.0374493 0
0.062002 -0.0363741 0
0.0610838 -0.0352847 0
0.0601345 -0.0341831 0
0.0591547 -0.033071 0
0.0581456 -0.0319502 0
0.0571083 -0.0308224 0
0.0560444 -0.0296893 0
0.0549562 -0.028552 0
0.053845 -0.0274126 0
0.0527113 -0.0262746 0
0.051554 -0.0251427 0
0.0503724 -0.0240222 0
0.0491675 -0.0229164 0
0.047941 -0.0218282 0
0.0466955 -0.0207597 0
0.0454337 -0.0197126 0
0.0441592 -0.0186878 0
0.0428751 -0.0176863 0
0.0415841 -0.0167097 0
0.0402878 -0.0157609 0
0.0389879 -0.0148428 0
0.0376864 -0.0139575 0
0.0363853 -0.013107 0
0.0350871 -0.0122931 0
0.0337942 -0.0115164 0
0.0325095 -0.0107772 0
0.0312357 -0.0100756 0
0.0299758 -0.00941024 0
0.0287337 -0.00877784 0
0.0275126 -0.00817571 0
0.0263139 -0.00760375 0
0.0251376 -0.00706528 0
0.0239829 -0.0065649 0
0.0228537 -0.00609619 0
0.0217522 -0.00565563 0
0.0206795 -0.00524226 0
0.0196364 -0.00485507 0
0.0186233 -0.00449318 0
0.0176408 -0.00415577 0
0.016689 -0.00384204 0
0.0157682 -0.00355115 0
0.0148783 -0.00328218 0
0.0140192 -0.00303468 0
0.0131906 -0.00280795 0
0.0123925 -0.00260016 0
0.0116246 -0.00241012 0
0.0108864 -0.00223769 0
0.0101774 -0.00208212 0
0.00949701 -0.00194206 0
0.00884483 -0.0018163 0
0.0082202 -0.0017039 0
0.00762247 -0.00160391 0
0.00705097 -0.00151528 0
0.006505 -0.00143697 0
0.0059838 -0.00136806 0
0.00548662 -0.00130772 0
0.00501265 -0.00125519 0
0.00456114 -0.00120954 0
0.00413136 -0.00116914 0
0.00372257 -0.00113251 0
0.00333398 -0.00109853 0
0.00296466 -0.00106798 0
0.00261363 -0.0010431 0
-0.052721 -0.0445996 0
-0.0508204 -0.0440823 0
-0.0489199 -0.0435651 0
-0.0470193 -0.0430478 0
-0.0451187 -0.0425306 0
-0.0432181 -0.0420134 0
-0.0413175 -0.0414961 0
-0.039417 -0.0409789 0
-0.0375164 -0.0404616 0
-0.0356158 -0.0399444 0
-0.0337152 -0.0394271 0
-0.0318146 -0.0389099 0
-0.0299141 -0.0383927 0
-0.0280135 -0.0378754 0
-0.0261129 -0.0373582 0
-0.0242123 -0.0368409 0
-0.0223117 -0.0363237 0
-0.0204112 -0.0358065 0
-0.0185106 -0.0352892 0
-0.01661 -0.034772 0
-0.0147094 -0.0342547 0
-0.0128088 -0.0337375 0
-0.0109083 -0.0332202 0
-0.00900769 -0.032703 0
-0.00710711 -0.0321858 0
-0.00520653 -0.0316685 0
-0.00330595 -0.0311513 0
-0.00140537 -0.030634 0
0.00190689 -0.0299614 0
0.00332271 -0.0298498 0
0.00474133 -0.0297825 0
0.00616136 -0.0297597 0
0.0075814 -0.0297814 0
0.00900007 -0.0298477 0
0.010416 -0.0299583 0
0.0118278 -0.0301127 0
0.0132342 -0.0303103 0
0.0146339 -0.0305504 0
0.0160259 -0.0308322 0
0.0174091 -0.0311546 0
0.0187824 -0.0315166 0
0.020145 -0.031917 0
0.0214961 -0.0323546 0
0.0228351 -0.032828 0
0.0241613 -0.0333361 0
0.0254744 -0.0338774 0
0.0267738 -0.0344507 0
0.0280592 -0.0350545 0
0.0293306 -0.0356877 0
0.0305875 -0.0363488 0
0.0318301 -0.0370367 0
0.0330581 -0.0377501 0
0.0342717 -0.0384879 0
0.0354708 -0.0392489 0
0.0366556 -0.0400321 0
0.0378262 -0.0408363 0
0.0389828 -0.0416607 0
0.0401254 -0.0425042 0
0.0412543 -0.0433659 0
0.0423698 -0.0442451 0
0.043472 -0.0451408 0
0.0445612 -0.0460523 0
0.0456375 -0.0469789 0
0.0467013 -0.0479199 0
0.0477529 -0.0488746 0
0.0487923 -0.0498424 0
0.04982 -0.0508227 0
0.0508362 -0.051815 0
0.051841 -0.0528187 0
0.0528348 -0.0538333 0
0.0538178 -0.0548584 0
0.0547903 -0.0558935 0
0.0557524 -0.0569382 0
0.0567045 -0.0579922 0
0.0576467 -0.0590549 0
0.0585792 -0.0601261 0
0.0595024 -0.0612055 0
0.0604163 -0.0622926 0
0.0613212 -0.0633873 0
0.0622174 -0.0644891 0
0.0631049 -0.0655979 0
0.0639841 -0.0667134 0
0.064855 -0.0678353 0
0.0657179 -0.0689633 0
0.0665729 -0.0700974 0
0.0674202 -0.0712372 0
0.06826 -0.0723826 0
0.0690925 -0.0735333 0
0.0699178 -0.0746892 0
0.070736 -0.0758501 0
0.0715473 -0.0770159 0
0.0723518 -0.0781863 0
0.0731498 -0.0793612 0
0.0739412 -0.0805405 0
0.0747264 -0.081724 0
0.0755053 -0.0829116 0
0.0762781 -0.0841033 0
0.0770449 -0.0852987 0
0.0778059 -0.0864979 0
0.0785611 -0.0877007 0
0.0793108 -0.088907 0
0.0814681 -0.0912706 0
0.0828814 -0.0924245 0
0.0842946 -0.0935783 0
0.0857079 -0.0947322 0
0.0871211 -0.095886 0
0.0885344 -0.0970399 0
0.0899476 -0.0981937 0
0.0913609 -0.0993476 0
0.0927741 -0.100501 0
0.0941874 -0.101655 0
0.0956006 -0.102809 0
0.0970139 -0.103963 0
0.0984272 -0.105117 0
0.0998404 -0.106271 0
0.101254 -0.107424 0
0.102667 -0.108578 0
0.10408 -0.109732 0
0.105493 -0.110886 0
0.106907 -0.11204 0
0.10832 -0.113194 0
0.109733 -0.114348 0
0.111146 -0.115501 0
0.11256 -0.116655 0
0.113973 -0.117809 0
0.115386 -0.118963 0
0.116799 -0.120117 0
0.118213 -0.121271 0
0.119626 -0.122424 0
0.121039 -0.123578 0
0.122452 -0.124732 0
0.123866 -0.125886 0
0.125279 -0.12704 0
0.126692 -0.128194 0
0.128105 -0.129348 0
0.129519 -0.130501 0
0.130932 -0.131655 0
0.132345 -0.132809 0
0.133758 -0.133963 0
0.135172 -0.133216 0
0.135172 -0.131316 0
0.135172 -0.129415 0
0.135172 -0.127514 0
0.135172 -0.125614 0
0.135172 -0.123713 0
0.135172 -0.121813 0
0.135172 -0.119912 0
0.135172 -0.118012 0
0.135172 -0.116111 0
0.135172 -0.11421 0
0.135172 -0.11231 0
0.135172 -0.110409 0
0.135172 -0.108509 0
0.135172 -0.106608 0
0.135172 -0.104708 0
0.135172 -0.102807 0
0.135172 -0.100906 0
0.135172 -0.0990058 0
0.135172 -0.0971052 0
0.135172 -0.0952046 0
0.135172 -0.0933041 0
0.135172 -0.0914035 0
0.135172 -0.0895029 0
0.135172 -0.0876023 0
0.135172 -0.0857017 0
0.135172 -0.0838012 0
0.135172 -0.0819006 0
0.133758 -0.0788462 0
0.132345 -0.0776923 0
0.130932 -0.0765385 0
0.129519 -0.0753846 0
0.128105 -0.0742308 0
0.126692 -0.0730769 0
0.125279 -0.0719231 0
0.123866 -0.0707692 0
0.122452 -0.0696154 0
0.121039 -0.0684615 0
0.119626 -0.0673077 0
0.118213 -0.0661538 0
0.116799 -0.065 0
0.115386 -0.0638462 0
0.113973 -0.0626923 0
0.11256 -0.0615385 0
0.111146 -0.0603846 0
0.109733 -0.0592308 0
0.10832 -0.0580769 0
0.106907 -0.0569231 0
0.105493 -0.0557692 0
0.10408 -0.0546154 0
0.102667 -0.0534615 0
0.101254 -0.0523077 0
0.0998404 -0.0511538 0
0.0984272 -0.05 0
0.0970139 -0.0488462 0
0.0956006 -0.0476923 0
[...]
CELL_DATA 13116
SCALARS rho float
LOOKUP_TABLE default
0.5977
0.5977
0.597716
0.597703
0.5977
0.680745
0.441187
0.592009
0.5977
0.5977
0.402341
0.597712
0.5977
0.552138
0.576933
0.680782
0.5977
0.5977
0.680647
0.391389
0.5977
0.597712
0.597125
0.5977
0.5977
0.597701
0.5977
0.5977
0.5977
0.5977
0.680616
0.597717
0.5977
0.5977
0.451943
0.5977
0.5977
0.657868
0.680621
0.680456
0.681072
0.594966
0.5977
0.590584
0.680794
0.680401
0.5977
0.680201
0.597715
0.5977
0.610099
0.5977
0.489543
0.5977
0.5977
0.5977
0.588383
0.5977
0.5977
0.593866
0.557323
0.5977
0.5977
0.680715
0.680693
0.519106
0.681184
0.5977
0.680626
0.680696
0.575932
0.5977
0.597708
0.56249
0.668469
0.527857
0.5977
0.59604
0.410953
0.5977
0.5977
0.597701
0.5977
0.6795
0.62473
0.5977
0.463017
0.5977
0.591782
0.367685
0.597703
0.5977
0.5977
0.590877
0.5977
0.5977
0.5977
0.675278
0.66838
0.5977
0.5977
0.5977
0.680987
0.5977
0.5977
0.597704
0.5977
0.5977
0.597701
0.5977
0.5977
0.5977
0.5977
0.5977
0.5977
0.680436
0.497689
0.5977
0.611882
0.681022
0.5977
0.597698
0.680964
0.597704
0.595064
0.5977
0.472767
0.5977
0.597717
0.5977
0.618029
0.5977
0.5977
0.597713
0.5977
0.5977
1.12567
0.680958
0.5977
0.681
0.5977
0.5977
0.5977
0.5977
0.5977
0.576903
0.447662
0.5977
0.5977
0.666624
0.5977
0.680725
0.680843
0.469376
0.5977
0.659431
0.597716
0.5977
0.675599
0.5977
0.5977
0.403122
0.5977
0.597716
0.597699
0.597703
0.596324
0.5977
0.447835
0.5977
0.5977
1.12522
0.572634
0.5977
0.680768
0.597178
0.593302
0.59771
0.5977
0.680692
0.374462
0.5977
0.5977
0.5977
0.680643
0.5977
0.468453
0.681138
0.5977
0.5977
0.5977
0.5977
0.680919
0.597698
0.5977
0.680851
0.5977
0.680675
0.593379
0.5977
0.5977
0.5977
0.5977
0.572364
0.5977
0.660453
0.5977
0.5977
0.585731
0.378166
0.52289
0.680717
0.59771
0.368076
0.367244
0.477314
0.5977
0.681006
0.59653
0.5977
0.580014
0.681158
0.5977
0.372904
0.5977
0.5977
0.5977
0.5977
0.680718
0.5977
0.597366
0.597717
0.681003
0.5977
0.661889
0.677464
0.680908
0.597714
0.5977
0.5977
0.699915
0.681019
1.12134
0.680611
0.590577
0.596055
0.677804
0.5977
0.672661
0.425293
0.597715
0.679491
0.657179
0.680835
0.638514
0.5977
0.5977
0.397188
0.597704
0.5977
0.583232
0.5977
0.5977
0.5977
0.434877
0.681653
0.489929
0.5977
0.5977
0.423808
0.597701
0.591557
0.837818
0.5977
0.597714
0.904523
0.5977
0.67605
0.681062
0.399671
0.449587
0.597698
0.5977
0.5977
0.597706
0.5977
0.5977
0.596416
0.503674
0.630373
0.597703
0.450549
0.386559
0.481752
0.5977
0.597699
0.5977
0.5977
0.5977
0.417642
0.680771
0.5977
0.597699
0.593069
0.680384
0.670467
0.680642
0.476294
0.680668
0.5977
0.5977
0.59536
0.678153
0.594296
0.5977
0.680967
0.548498
0.680825
0.5977
0.5977
0.367776
0.5977
0.5977
0.482426
0.5977
0.597701
0.5977
0.5977
0.5977
0.464429
0.68062
0.5977
0.546303
0.627776
0.5977
0.5977
0.593804
0.5977
0.5977
0.434299
0.5977
0.5977
0.68089
0.5977
0.5977
0.5977
0.5977
0.65314
0.463762
0.597701
0.5977
0.5977
1.12516
0.463889
0.597702
0.596641
0.5977
0.5977
0.458651
0.597716
0.679195
0.597703
0.438673
0.593563
0.520861
0.597717
0.680986
0.59051
0.5977
0.367896
0.681079
0.680752
0.680628
0.680249
0.5977
0.5977
0.5977
0.571791
0.374855
0.68052
0.37236
0.5977
0.5977
0.597698
0.5977
0.5977
0.597698
0.455734
0.656465
0.597703
0.5977
0.5977
0.681654
0.5977
0.670356
0.597713
0.444847
0.5977
0.5977
0.597702
0.5977
0.681
0.5977
0.5977
0.5977
0.597701
0.5977
0.5977
0.5977
0.5977
0.680783
0.5977
0.5977
0.5977
0.597714
0.5977
0.5977
0.485918
0.680451
0.801987
0.5977
0.376289
0.367575
0.453848
0.5977
0.517218
0.597698
0.68074
0.517717
0.5977
0.367665
0.680928
0.5977
0.5977
0.597712
0.597483
0.5977
0.367831
0.452921
0.367849
0.597699
0.445801
0.373139
0.597699
0.5977
0.37251
0.5977
0.5977
0.620081
0.5977
0.597708
0.5977
0.581869
0.367705
0.58514
0.68068
0.5977
0.5977
0.5977
0.509179
0.5977
0.591044
0.5977
0.5977
0.5977
0.5977
0.443207
0.666056
0.5977
0.5977
0.679777
0.597699
0.499304
0.5977
0.5977
0.5977
0.5977
0.5977
0.5977
0.5977
0.386762
0.58862
0.55406
0.5977
0.589612
0.524793
0.571992
0.544424
0.597703
0.597702
0.5977
0.5977
0.5977
0.5977
0.5977
0.506155
0.5977
0.5977
0.592508
0.597699
0.5977
0.5977
0.680996
0.59761
0.5977
0.5977
0.49136
0.5977
0.591858
0.68083
0.5977
0.5977
0.5977
0.369033
0.5977
0.5977
0.5977
0.5977
0.597699
0.5977
0.5977
0.5977
0.5977
0.597635
0.597702
0.5977
0.5977
0.681406
0.367925
0.680778
0.5977
0.592487
0.368292
0.597702
0.67507
0.5977
0.60469
0.5977
0.367447
0.680609
0.67512
0.5977
0.5977
0.498671
0.597572
0.368167
0.368023
0.591934
0.368
0.597671
0.536195
0.597703
0.5977
0.5977
0.643653
0.680338
0.597702
0.368197
0.375248
0.659469
0.597619
0.5977
0.597703
0.5977
0.5977
0.456954
0.5977
0.680716
0.5977
0.367277
0.5977
0.597698
0.590806
0.681239
0.5977
0.597708
0.59184
0.5977
0.665479
0.5977
0.597718
0.5977
0.5977
0.748489
0.597715
0.597682
0.596821
0.668386
0.507364
1.11614
0.577441
0.658318
0.5977
0.367831
0.5977
0.597704
0.665805
0.5977
0.431741
0.5977
0.680457
0.5977
0.426021
0.597707
0.368102
0.680681
0.597704
0.681021
0.572563
0.5977
0.5977
0.5977
0.597716
0.597654
0.5977
0.5977
0.597701
0.491736
0.528441
0.680584
0.526403
0.680792
0.5977
0.669542
0.36759
0.590615
0.5977
0.5977
0.680996
0.596367
0.681052
0.59634
0.680916
0.5977
0.596993
0.402603
0.590769
0.5977
0.460105
0.680863
0.5977
0.473663
0.5977
0.597705
0.570495
0.680694
0.680642
0.597698
0.586185
0.417368
0.596609
0.590732
0.5977
0.500222
0.399359
0.597701
0.680866
0.5977
0.5977
0.680968
0.398652
0.5977
0.5977
0.623153
0.5977
0.5977
0.5977
0.680923
0.5977
0.5977
0.5977
0.5977
0.680282
0.5977
0.5977
0.5977
0.574455
0.5977
0.5977
0.5977
0.5977
0.5977
0.5977
0.680843
0.5977
0.5977
0.681486
0.5977
0.597713
0.5977
0.597698
0.595752
0.561785
0.680842
0.5977
0.5977
0.681235
0.5977
0.597702
0.5977
0.5977
0.5977
0.5977
0.5977
0.597702
0.559209
1.12686
0.5977
0.681138
0.5977
0.367669
0.5977
0.5977
0.5977
0.597693
0.591113
0.375388
0.5977
0.5977
0.386178
0.597697
0.596295
0.679375
0.590766
0.597625
0.5977
0.5977
0.5977
0.5977
0.680771
0.5977
0.367664
0.5977
0.622757
0.5977
0.680872
0.680719
0.5977
0.5977
0.379928
0.5977
0.5977
0.5977
0.5977
0.680676
0.658945
0.5977
0.5977
0.5977
0.5977
0.367884
0.367911
0.431405
0.37115
0.5977
0.5977
0.680711
0.5977
0.378706
0.680343
0.5977
0.541375
0.5977
0.5977
0.5977
0.680782
0.67963
0.5977
0.374153
0.367676
1.10582
0.597707
0.368079
0.499585
0.680914
0.5977
0.367701
0.5977
0.59289
0.5977
0.680945
0.68045
0.501372
0.548056
0.422584
0.5977
0.5977
0.597715
0.5977
0.5977
0.597643
0.680421
0.597717
0.367784
0.5977
0.36817
0.680908
0.5977
0.679558
0.597698
0.367828
0.597702
0.680911
0.5977
0.540721
0.662564
0.680697
0.5977
0.670851
0.589897
1.04724
0.5977
0.372987
0.680382
0.680929
0.5977
0.5977
1.1268
0.5977
1.01584
0.680983
0.524701
0.564138
0.368004
0.680991
0.5977
0.368057
0.5977
0.5977
0.597714
0.5977
0.5977
0.5977
0.5977
0.597713
0.5977
0.5977
0.367245
0.5977
0.680837
0.5925
0.590962
0.534123
0.59753
0.5977
0.5977
0.5977
0.680912
0.4405
0.5977
0.584241
0.597717
0.680875
0.367445
0.5977
0.597699
0.5977
0.5977
1.04093
0.597159
0.570202
0.535613
0.5977
0.5977
0.597702
0.5977
0.5977
0.680456
0.5977
0.5977
0.5977
0.5977
0.5977
0.681209
0.5977
0.3678
0.5977
0.5977
0.5977
0.5977
0.680851
0.5977
0.5977
0.597698
0.5977
0.5977
1.11372
0.664022
0.5977
0.5977
0.680328
0.5977
0.597714
0.5977
0.5977
0.680875
0.679188
0.5977
0.597691
0.597702
0.576656
0.597698
0.477791
1.12652
0.401401
0.5977
0.5977
0.5977
0.597698
0.60203
0.571209
0.5977
0.681272
0.680769
0.5977
0.680713
0.5977
0.5977
0.5977
0.59704
0.566427
0.680859
0.68037
0.5977
0.870881
0.5977
0.597699
0.574434
0.595128
0.677376
0.36772
0.888597
0.422712
0.59083
0.504224
0.5977
0.596573
0.5977
0.590607
0.5977
0.597698
0.5977
0.68095
0.382801
0.5977
0.597702
0.597716
0.5977
0.679548
0.5977
0.680653
0.5977
0.5977
0.597702
0.681104
0.5977
0.367614
0.5977
0.674074
1.12008
0.747602
1.12282
0.5977
0.5977
0.5977
0.681401
0.367646
0.575757
1.12147
0.5977
0.680439
0.529173
0.680977
0.5977
0.5977
0.560846
0.5977
0.595924
0.597693
0.5977
0.5977
0.680955
0.746282
0.437029
0.5977
0.5977
0.439677
0.59771
0.552208
0.5977
0.597701
0.367968
0.679657
0.5977
0.5977
0.5977
0.451826
0.451537
0.597702
0.567252
0.518199
0.680807
0.597714
0.5977
0.5977
0.59719
0.59682
0.377448
0.5977
0.408839
0.5977
0.597717
0.594835
0.522277
0.5977
0.597703
0.681035
0.5977
0.5977
0.5977
0.681338
0.597702
0.590287
0.529283
0.399361
0.5977
0.680791
0.5977
0.5977
0.5977
0.680568
0.5977
0.5977
0.680757
0.597701
0.593251
0.433018
0.5977
0.597699
0.677123
0.5977
0.5977
0.681123
0.597713
0.597701
0.367726
0.5977
0.5977
0.507833
0.5977
1.1267
0.590195
0.46092
0.680596
0.371045
0.597697
0.597698
0.367201
0.5977
0.577967
0.5977
0.681008
0.5977
0.597699
0.5977
0.5977
0.5977
0.5977
0.367562
0.493515
0.432519
0.595268
0.597698
0.5977
0.5977
0.5977
0.680924
0.5977
0.547127
0.5977
0.5977
0.681012
0.41319
0.672716
0.5977
0.5977
0.679499
0.589114
0.597689
0.5977
0.5977
0.5977
0.680932
0.597703
0.597699
0.681564
0.5977
0.367827
0.680815
0.597716
0.5977
0.5977
0.597148
0.593145
0.597703
0.5977
0.5977
0.433522
0.5977
0.597702
0.5977
0.675807
0.5977
0.597697
0.5977
0.592028
0.5977
0.597703
0.667578
0.597702
0.425474
0.5977
0.5977
0.597699
0.597143
0.5977
0.5977
0.5977
0.680444
0.597702
0.681002
0.597574
0.5977
0.597699
0.570207
0.5977
0.5977
0.5977
0.5977
0.680783
0.5977
0.661785
1.12671
0.5977
0.466667
0.597699
0.596742
0.680879
0.5977
0.5977
0.563729
0.5977
0.567056
0.681256
0.5977
0.5977
0.597702
0.38128
0.597697
0.597715
0.5977
0.597711
0.631469
0.680713
0.597714
0.593094
0.5977
0.597706
0.680695
0.680719
0.5977
0.576716
0.5977
0.5977
0.5977
0.5977
0.5977
0.5977
0.5977
0.680608
0.597698
0.5977
0.5977
0.5977
0.680849
0.680739
0.597699
0.653297
0.678569
0.597716
0.5977
0.438435
0.5977
0.450864
0.597589
0.5977
0.367938
0.368176
0.563767
0.680922
0.5977
0.5977
0.680941
0.5977
0.5977
0.368923
0.5977
0.5977
0.680559
0.681121
0.5977
0.681067
0.5977
0.680747
0.681007
0.597699
0.5977
0.5977
0.5977
0.5977
0.5977
0.5977
0.5977
0.383676
0.5977
0.5977
0.681055
0.526967
0.597697
0.5977
0.681061
0.382135
0.68136
0.5977
1.12691
0.589989
0.669707
0.370408
0.5977
0.369323
0.597713
0.592124
0.5977
0.593769
0.624695
0.597717
0.459434
0.414407
0.5977
0.680939
0.5977
0.595815
0.517065
0.459959
0.536955
0.594776
0.5977
0.5977
0.593359
0.5977
0.680621
0.590614
0.5977
0.5977
0.5977
0.597706
0.378418
0.674452
0.672034
0.537661
0.5977
0.5977
0.5977
0.597699
0.5977
0.5977
0.597699
0.5977
0.5977
0.3681
0.680763
0.5977
0.36772
0.595785
0.510969
0.681425
0.5977
0.5977
0.572289
0.5977
0.5977
0.5977
0.5977
0.68132
0.5977
0.680679
0.681196
0.597701
0.5977
0.5977
0.680688
0.5977
0.680829
0.5977
0.657912
0.59608
0.565676
0.6141
0.681147
0.680769
0.597698
0.680909
0.5977
0.67102
0.50178
0.517694
0.368075
0.679976
0.430206
0.525775
0.597695
0.5977
0.519694
0.5977
0.5977
0.59132
0.368323
0.680756
0.68076
0.680747
0.469097
0.679501
0.5977
0.680747
0.5977
0.5977
0.453947
0.383128
0.680487
0.382466
0.5977
0.5977
1.08384
0.368079
0.5977
0.466763
0.5977
1.12505
0.597698
0.658085
0.680858
0.5977
0.370176
0.588877
0.5977
0.5977
0.367371
1.12663
0.5977
0.680699
0.676805
0.396295
0.5977
0.597313
0.5977
0.5977
0.5977
0.5977
0.5977
0.5977
0.5977
0.59716
0.419708
0.5977
0.530213
0.5977
0.5977
0.662591
0.368126
0.5977
0.5977
0.678725
0.680767
0.378624
0.680761
0.5977
0.5977
0.5977
0.597699
0.375792
0.597699
0.681145
0.680965
0.5977
0.5977
0.5977
0.58971
0.5977
0.681102
0.680925
0.597622
0.5977
0.680644
0.5977
0.5977
0.5977
0.68089
0.674938
0.680694
0.675426
0.68058
0.5977
0.367891
0.597716
0.5977
0.36795
0.5977
0.680279
0.55401
0.5977
0.680215
0.5977
0.591869
0.5977
0.680445
0.597699
0.556528
0.680587
0.597701
0.680448
0.483525
0.588872
0.680925
0.5977
0.680561
0.59771
0.68073
0.5977
0.5977
0.5977
0.5977
0.396631
0.597703
0.521249
0.368071
0.5977
0.5977
0.5977
0.5977
0.680951
0.597447
0.68075
0.5977
0.562562
0.597702
0.5977
0.367598
0.681273
0.597711
0.5977
0.5977
0.5977
0.595972
0.5977
0.5977
0.5977
0.680919
0.5977
0.5977
0.5977
0.59768
0.5977
0.5977
0.597634
0.408119
0.5977
0.67582
0.597698
0.5977
0.681087
0.5977
0.680952
0.5977
0.5977
0.5977
0.414748
0.681262
0.5977
0.5977
0.5977
0.5977
0.597701
0.680553
0.370231
0.541293
0.597602
0.5977
0.5977
0.680999
0.673227
0.680902
0.5977
0.5977
0.5977
0.5977
0.5977
0.547392
0.597704
0.534591
0.5977
0.879907
0.5977
0.5977
0.597702
0.5977
0.597703
0.591526
0.597703
0.493179
0.5977
0.759785
0.680708
0.5977
0.59771
0.593357
1.1269
0.597701
0.5977
0.465069
0.368591
0.597716
0.5977
0.367948
0.596961
0.680657
0.5977
0.424217
0.5977
0.5977
0.5977
0.5977
0.384146
0.597702
1.1234
0.367679
0.68084
0.367751
0.5977
0.5977
0.680604
0.427905
0.59734
0.596833
0.459009
0.5977
0.597698
0.5977
0.597712
0.5977
0.597715
0.5977
0.45072
0.5977
0.378573
0.680945
0.680785
0.5977
0.5977
0.5977
0.5977
0.680947
0.591845
0.5977
0.5977
0.380367
0.5977
0.532346
0.5977
0.597699
0.597702
0.5977
0.5977
0.5977
0.5977
0.5977
0.564805
0.547887
0.545271
0.5977
0.5977
0.66427
0.413145
0.597711
0.680556
0.5977
0.597708
0.5977
0.5977
0.367655
0.597717
0.595701
0.5977
0.5977
0.591259
0.5977
0.681001
0.597717
0.5977
0.637593
0.680516
0.5977
0.5977
0.5977
0.5977
0.46158
0.590174
0.5977
0.5977
0.5977
0.590645
0.5977
0.387109
0.680717
0.597703
0.372832
0.5977
0.5977
0.5977
0.597703
0.5977
0.5977
0.68013
0.597702
0.488362
0.597714
0.538306
0.396173
0.5977
0.679633
0.5977
0.380159
0.367938
0.5977
0.597712
0.680925
0.5977
0.367856
0.5977
0.680204
0.597716
0.5977
0.5977
0.5977
0.680821
0.5977
0.36805
0.442762
0.5977
0.370425
0.5977
0.5977
0.680548
0.681149
0.597698
0.368114
1.12562
0.384558
0.681093
0.5977
0.3682
0.580318
0.498768
0.680782
0.503684
1.12683
0.5977
0.5977
0.597717
0.5977
0.597645
0.623491
0.429372
0.59473
0.5977
0.597697
0.589545
0.597685
0.41999
0.367943
0.597702
0.395536
0.396826
0.597701
0.5977
0.680938
0.5977
0.5977
0.5977
0.5977
0.681074
0.680928
0.419134
0.5977
0.5977
0.597703
0.5977
0.5977
0.5977
0.680895
0.593939
0.5977
0.5977
0.5977
0.5977
0.591821
0.597701
0.5977
0.595816
0.680962
1.04336
0.590632
1.12711
0.595813
0.597701
0.608789
1.11999
0.680918
0.5977
0.597701
0.597699
0.680411
0.680541
0.5977
0.5977
0.5977
0.569629
0.46522
0.5977
0.421627
0.5977
0.414395
0.419909
0.5977
0.597709
0.5977
0.455215
0.597701
0.59741
0.367976
0.5977
0.5977
0.679919
0.586878
0.666666
0.5977
0.47777
0.597701
0.5977
0.5977
0.5977
0.597716
0.5977
0.367874
0.681467
0.5977
0.597699
0.68097
0.680865
0.5977
0.367792
0.5977
0.597716
0.5977
0.680623
0.680498
0.367659
0.597704
0.681224
0.5977
0.5977
0.679454
0.367832
0.369013
0.67996
0.5977
0.5977
0.5977
0.367646
0.5977
0.5977
0.597699
0.5977
0.566903
0.5977
0.663764
0.597703
0.548786
0.5977
0.68097
0.5977
0.5977
0.5977
0.5977
0.367641
0.37569
0.679732
0.368031
0.367705
0.67415
0.597703
0.499394
0.5977
0.493582
0.883066
0.5977
0.597701
0.68069
0.5977
0.680782
0.593658
0.377594
0.597704
0.680599
0.5977
0.5977
0.5977
0.5977
0.597699
0.680873
0.4139
0.681203
0.5977
0.681008
0.5977
0.455598
0.597259
0.367737
0.368151
0.597716
0.5977
0.5977
0.423804
0.679918
0.5977
0.5977
0.567728
0.597702
0.367649
0.590436
0.5977
0.5977
0.5977
0.680628
0.671843
0.550853
0.5977
0.680631
0.597021
0.367866
0.5977
0.5977
0.5977
0.67751
0.5977
0.597606
0.5977
0.597701
0.675248
0.594469
0.680903
0.680791
0.367841
0.5977
0.367758
0.5977
0.681219
0.597709
0.592225
0.5977
0.597714
0.5977
0.367946
0.597701
0.600031
0.5977
0.597703
0.382159
0.5977
0.5977
0.5977
0.425313
0.597683
0.681258
0.5977
0.583312
0.5977
0.597702
0.367752
0.5977
0.597704
0.5977
0.484603
0.367709
0.597716
0.5977
0.597713
0.594884
0.5977
0.680895
0.5977
0.591041
0.38042
0.591262
0.5977
0.596775
0.5977
0.5977
0.424187
0.595387
0.5977
0.597702
0.5977
0.5977
0.5977
0.5977
0.6809
0.579459
0.5977
0.593225
0.5977
0.434372
0.444983
0.5977
0.597113
0.5977
0.5977
0.5977
0.669405
0.367573
0.5977
0.767414
0.597703
0.441043
0.5977
0.597711
0.5977
0.597716
0.607754
0.59274
0.586284
0.590379
0.5977
1.12097
0.5977
1.12653
0.679648
0.5977
0.680993
0.680426
0.681011
0.625004
0.5977
0.807167
0.519243
0.680945
0.592132
0.36949
0.597647
0.597716
0.367592
0.431883
0.597703
0.5977
0.533911
0.5977
0.591577
0.5977
0.5977
0.5977
0.5977
0.680859
0.597698
0.5977
0.681003
0.597699
0.59419
0.378737
0.5977
0.5977
0.36819
0.5977
0.597717
0.673196
0.5977
0.48239
0.5977
0.5977
0.5977
0.681265
0.581401
0.5977
0.5977
0.597555
0.5977
0.5977
0.732941
0.5977
0.5977
0.368014
0.592133
0.597701
0.596567
0.597697
0.68069
0.368846
0.5977
0.423352
0.5977
0.594261
0.68117
0.597713
0.597703
0.371172
0.680967
0.608754
0.597701
0.923685
0.516197
0.597716
0.5977
0.597701
0.5977
0.5977
0.5977
0.597713
0.5977
0.5977
0.597702
0.5977
0.5977
0.597699
0.5977
0.657679
0.597709
0.680799
0.593085
0.5977
0.5977
0.585796
0.5977
0.367916
0.5977
0.597714
0.680813
0.597701
0.597425
0.597703
0.5977
0.597703
0.367777
0.426758
0.680904
0.829127
0.5977
0.594772
0.847409
0.367683
0.5977
0.594503
0.591824
0.597698
0.5977
0.5977
0.422244
0.680749
0.680532
0.598369
0.62344
0.597699
0.5977
0.5977
0.593003
0.5925
0.597701
0.5977
0.591315
0.597698
0.5977
0.5977
0.5977
0.592499
0.445489
0.5977
0.658166
0.596704
0.597707
0.5977
0.597713
0.59771
0.531878
0.597709
0.5977
0.367907
0.610361
0.590218
0.485453
0.5977
0.5977
1.12383
0.5977
0.368102
0.680828
0.5977
0.5977
0.5977
0.5977
0.5977
0.680999
0.5977
0.5977
0.582332
0.597703
0.681025
0.498723
0.370882
0.5977
0.5977
0.5977
0.597701
0.680958
0.597703
0.5977
0.5977
0.591688
0.681048
0.597693
0.367651
0.680989
0.5977
0.5977
0.5977
0.49699
0.597298
0.535523
0.5977
0.5977
0.5977
0.372652
0.5977
0.597526
0.597715
0.5977
0.680761
0.594567
0.5977
0.678913
0.597699
0.59767
0.596541
0.5977
0.597714
0.681409
0.596589
0.680742
0.680746
0.681087
0.5977
0.5977
0.5977
0.595596
0.563549
0.38399
0.679747
0.5977
0.5977
0.680676
0.597702
0.5977
0.367913
0.5977
0.5977
0.5977
0.593397
0.5977
0.5977
0.5977
0.5977
0.593035
0.5977
0.5977
0.367788
0.5977
0.629426
0.5977
0.597713
0.5977
0.5977
0.5977
0.5977
0.367833
0.380032
0.678315
0.5977
0.5977
0.672546
0.597663
0.597708
0.677321
0.679397
0.5977
0.367907
0.5977
0.36797
0.679462
0.597703
0.5977
0.5977
0.680245
0.5977
0.5977
0.5977
0.369554
0.5977
0.597698
0.679029
0.568658
0.5977
0.5977
0.67757
0.367752
1.12649
0.660695
0.391243
0.5977
0.597717
0.596554
0.367825
0.442886
0.582297
0.5977
0.681393
0.5977
0.5977
0.5977
0.597702
0.5977
0.5977
0.367965
0.5977
0.368123
0.5977
0.382014
0.5977
0.662223
0.5977
0.5977
0.43571
0.680699
0.51578
0.384633
0.5977
0.597699
0.5977
0.5977
0.580245
0.5977
0.680799
0.597369
0.5977
0.597699
0.5977
0.597698
0.376132
0.596635
0.680616
0.5977
0.367849
0.5977
0.5977
0.5977
0.5977
0.5977
0.5977
0.5977
0.5977
0.5977
0.5977
0.5977
0.597666
0.5977
0.5977
0.367648
0.597713
0.597717
0.373434
0.5977
0.596312
0.5977
0.5977
0.597701
0.5977
0.5977
0.597698
0.591427
0.392401
0.597392
0.368982
0.597701
0.643359
0.389397
0.5715
0.680357
0.597699
0.5977
0.5977
0.5977
0.5977
0.5977
0.5977
0.5977
0.680813
0.669755
0.597701
0.597701
0.5977
0.5977
0.680983
0.597704
0.558442
0.5977
0.5977
0.5977
0.5977
0.36807
0.5977
0.5977
0.5977
0.5977
0.597701
0.5977
0.5977
0.5977
0.402464
0.5977
0.367747
0.5977
0.5977
0.680615
0.5977
0.605267
0.597713
0.597591
1.12438
0.597235
0.5977
0.597308
0.552023
0.50394
0.5977
0.597085
0.5977
0.680935
0.718421
0.5977
0.5977
0.680744
0.5977
1.12431
0.5977
0.5977
0.597703
0.5977
0.5977
1.12354
0.597698
0.5977
0.5977
0.5977
0.5977
0.652498
0.76435
0.5977
0.717227
0.597703
0.391338
0.802257
0.672095
0.5977
0.3971
0.367751
0.504146
0.5977
0.36788
0.539276
0.638373
0.5977
0.424655
0.597705
0.680659
0.5977
0.680703
0.5977
1.11584
0.5977
0.597701
0.597704
0.681623
0.679647
0.5977
0.542766
0.597692
0.5977
0.367725
0.5977
0.596591
0.5977
0.368174
0.678312
0.5977
0.5977
0.442518
0.5977
0.5977
0.368234
0.597716
0.5977
0.59064
0.597714
0.591335
0.597702
0.597702
0.590682
1.08574
0.597707
0.368226
0.5977
0.5977
0.5977
0.5977
0.680556
0.5977
0.368583
0.5977
0.680484
0.5977
0.5977
0.5977
0.5977
0.5977
0.597698
0.575348
0.5977
0.5977
0.367743
0.48839
0.5977
0.597709
0.663955
0.5977
0.597696
0.597577
0.597699
0.5977
0.597699
0.5977
0.367871
0.368056