# vtk DataFile Version 1.0
unstructured grid
ascii
DATASET UNSTRUCTURED_GRID
points 13672 float
0.0796578 -0.059106 0
0.00128732 0.00159165 0
0.00227961 -0.00102548 0
0.0791586 -0.0598787 0
-0.0546216 0.01 0
0.000495206 0.025 0
0.0800549 -0.035 0
0.135172 -0.08 0
-0.0546216 -0.0451168 0
0.000495206 -0.0301168 0
0.0800549 -0.0901168 0
0.135172 -0.135117 0
-0.0546216 -0.0451168 -0.00551168
0.000495206 -0.0301168 -0.00551168
0.0800549 -0.0901168 -0.00551168
0.135172 -0.135117 -0.00551168
0.135172 -0.08 -0.00551168
0.0800549 -0.035 -0.00551168
0.000495206 0.025 -0.00551168
-0.0546216 0.01 -0.00551168
0.00128732 0.00159165 -0.00551168
0.00227961 -0.00102548 -0.00551168
0.0791586 -0.0598787 -0.00551168
0.0796578 -0.059106 -0.00551168
0.00165953 -0.000990923 0
0.00119576 -0.000874076 0
0.000866021 -0.000641801 0
0.000645147 -0.000349912 0
0.00052235 -1.7281e-05 0
0.00049972 0.000348016 0
0.000601632 0.000737716 0
0.000861774 0.0011403 0
0.00157235 0.00183217 0
0.00188647 0.00206725 0
0.00222612 0.00230203 0
0.00258713 0.00254351 0
0.00296826 0.00279524 0
0.00337118 0.00305664 0
0.00379785 0.00332658 0
0.00425045 0.00360349 0
0.00473139 0.00388521 0
0.0052432 0.00416895 0
0.0057881 0.00445204 0
0.00636753 0.00473281 0
0.00698281 0.00500961 0
0.00763526 0.00528058 0
0.00832616 0.00554366 0
0.00905691 0.00579603 0
0.00982918 0.00603333 0
0.0106445 0.00625033 0
0.0115038 0.00644128 0
0.0124073 0.00660297 0
0.0133543 0.00673414 0
0.0143444 0.00683382 0
0.0153769 0.00690031 0
0.0164512 0.00693173 0
0.0175666 0.00692547 0
0.0187219 0.00687822 0
0.0199156 0.00678477 0
0.0211454 0.00663864 0
0.0224084 0.00643275 0
0.0237018 0.00616676 0
0.0250249 0.00584739 0
0.026375 0.00547298 0
0.0277479 0.00503752 0
0.0291386 0.00453545 0
0.0305433 0.0039653 0
0.0319572 0.0033256 0
0.0333681 0.00260019 0
0.034775 0.00179799 0
0.0361793 0.000930615 0
0.0375798 3.12222e-06 0
0.0389689 -0.000988429 0
0.0403357 -0.00205109 0
0.041675 -0.00318283 0
0.0429849 -0.00437751 0
0.0442643 -0.00562904 0
0.0455126 -0.00693089 0
0.0467314 -0.00827518 0
0.0479204 -0.00965638 0
0.0490661 -0.0110799 0
0.0501515 -0.0125519 0
0.0511696 -0.0140695 0
0.0521492 -0.0156071 0
0.0531202 -0.0171411 0
0.0540851 -0.0186663 0
0.0550431 -0.0201798 0
0.0559923 -0.0216793 0
0.0569311 -0.0231626 0
0.0578582 -0.0246273 0
0.0587723 -0.0260715 0
0.0596721 -0.027493 0
0.0605563 -0.02889 0
0.0614241 -0.0302609 0
0.0622742 -0.0316042 0
0.063106 -0.0329183 0
0.0639186 -0.034202 0
0.0647113 -0.0354543 0
0.0654835 -0.0366743 0
0.0662345 -0.0378613 0
0.0669642 -0.0390145 0
0.0676726 -0.0401333 0
0.0683597 -0.0412172 0
0.0690246 -0.0422665 0
0.0696662 -0.0432819 0
0.0702841 -0.0442636 0
0.0708793 -0.0452111 0
0.0714538 -0.0461237 0
0.072009 -0.047001 0
0.0725452 -0.0478434 0
0.0730611 -0.0486524 0
0.073556 -0.0494294 0
0.0740291 -0.0501756 0
0.0744812 -0.0508916 0
0.0749138 -0.0515773 0
0.0753285 -0.0522331 0
0.0757266 -0.0528592 0
0.076109 -0.0534564 0
0.0764753 -0.0540264 0
0.0768243 -0.054571 0
0.0771553 -0.0550919 0
0.0774679 -0.0555901 0
0.0777617 -0.0560669 0
0.0780369 -0.056523 0
0.0782958 -0.0569578 0
0.0785421 -0.0573703 0
0.0787786 -0.0577603 0
0.0790073 -0.0581279 0
0.0792295 -0.058474 0
0.0794462 -0.0587995 0
0.0798803 -0.0594162 0
0.0800272 -0.0596588 0
0.0800357 -0.0598891 0
0.0799275 -0.0600784 0
0.0797205 -0.0601773 0
0.0794593 -0.0601051 0
0.0789155 -0.0596491 0
0.0786707 -0.0593963 0
0.0784111 -0.0591319 0
0.0781372 -0.0588542 0
0.0778566 -0.0585548 0
0.0775715 -0.0582308 0
0.0772803 -0.0578828 0
0.0769832 -0.0575099 0
0.0766822 -0.0571097 0
0.0763801 -0.0566796 0
0.0760759 -0.0562196 0
0.0757623 -0.0557337 0
0.0754359 -0.0552232 0
0.0750951 -0.0546879 0
0.0747379 -0.054128 0
0.0743626 -0.0535435 0
0.0739688 -0.0529338 0
0.0735559 -0.0522981 0
0.0731238 -0.0516357 0
0.0726718 -0.050946 0
0.0721991 -0.0502288 0
0.0717046 -0.049484 0
0.0711872 -0.0487117 0
0.0706461 -0.047912 0
0.0700804 -0.0470849 0
0.0694892 -0.0462308 0
0.0688718 -0.0453499 0
0.0682271 -0.0444431 0
0.0675544 -0.043511 0
0.0668527 -0.0425546 0
0.0661215 -0.0415748 0
0.06536 -0.040573 0
0.0645676 -0.0395504 0
0.0637439 -0.0385087 0
0.0628887 -0.0374493 0
0.062002 -0.0363741 0
0.0610838 -0.0352847 0
0.0601345 -0.0341831 0
0.0591547 -0.033071 0
0.0581456 -0.0319502 0
0.0571083 -0.0308224 0
0.0560444 -0.0296893 0
0.0549562 -0.028552 0
0.053845 -0.0274126 0
0.0527113 -0.0262746 0
0.051554 -0.0251427 0
0.0503724 -0.0240222 0
0.0491675 -0.0229164 0
0.047941 -0.0218282 0
0.0466955 -0.0207597 0
0.0454337 -0.0197126 0
0.0441592 -0.0186878 0
0.0428751 -0.0176863 0
0.0415841 -0.0167097 0
0.0402878 -0.0157609 0
0.0389879 -0.0148428 0
0.0376864 -0.0139575 0
0.0363853 -0.013107 0
0.0350871 -0.0122931 0
0.0337942 -0.0115164 0
0.0325095 -0.0107772 0
0.0312357 -0.0100756 0
0.0299758 -0.00941024 0
0.0287337 -0.00877784 0
0.0275126 -0.00817571 0
0.0263139 -0.00760375 0
0.0251376 -0.00706528 0
0.0239829 -0.0065649 0
0.0228537 -0.00609619 0
0.0217522 -0.00565563 0
0.0206795 -0.00524226 0
0.0196364 -0.00485507 0
0.0186233 -0.00449318 0
0.0176408 -0.00415577 0
0.016689 -0.00384204 0
0.0157682 -0.00355115 0
0.0148783 -0.00328218 0
0.0140192 -0.00303468 0
0.0131906 -0.00280795 0
0.0123925 -0.00260016 0
0.0116246 -0.00241012 0
0.0108864 -0.00223769 0
0.0101774 -0.00208212 0
0.00949701 -0.00194206 0
0.00884483 -0.0018163 0
0.0082202 -0.0017039 0
0.00762247 -0.00160391 0
0.00705097 -0.00151528 0
0.006505 -0.00143697 0
0.0059838 -0.00136806 0
0.00548662 -0.00130772 0
0.00501265 -0.00125519 0
0.00456114 -0.00120954 0
0.00413136 -0.00116914 0
0.00372257 -0.00113251 0
0.00333398 -0.00109853 0
0.00296466 -0.00106798 0
0.00261363 -0.0010431 0
-0.052721 -0.0445996 0
-0.0508204 -0.0440823 0
-0.0489199 -0.0435651 0
-0.0470193 -0.0430478 0
-0.0451187 -0.0425306 0
-0.0432181 -0.0420134 0
-0.0413175 -0.0414961 0
-0.039417 -0.0409789 0
-0.0375164 -0.0404616 0
-0.0356158 -0.0399444 0
-0.0337152 -0.0394271 0
-0.0318146 -0.0389099 0
-0.0299141 -0.0383927 0
-0.0280135 -0.0378754 0
-0.0261129 -0.0373582 0
-0.0242123 -0.0368409 0
-0.0223117 -0.0363237 0
-0.0204112 -0.0358065 0
-0.0185106 -0.0352892 0
-0.01661 -0.034772 0
-0.0147094 -0.0342547 0
-0.0128088 -0.0337375 0
-0.0109083 -0.0332202 0
-0.00900769 -0.032703 0
-0.00710711 -0.0321858 0
-0.00520653 -0.0316685 0
-0.00330595 -0.0311513 0
-0.00140537 -0.030634 0
0.00190689 -0.0299614 0
0.00332271 -0.0298498 0
0.00474133 -0.0297825 0
0.00616136 -0.0297597 0
0.0075814 -0.0297814 0
0.00900007 -0.0298477 0
0.010416 -0.0299583 0
0.0118278 -0.0301127 0
0.0132342 -0.0303103 0
0.0146339 -0.0305504 0
0.0160259 -0.0308322 0
0.0174091 -0.0311546 0
0.0187824 -0.0315166 0
0.020145 -0.031917 0
0.0214961 -0.0323546 0
0.0228351 -0.032828 0
0.0241613 -0.0333361 0
0.0254744 -0.0338774 0
0.0267738 -0.0344507 0
0.0280592 -0.0350545 0
0.0293306 -0.0356877 0
0.0305875 -0.0363488 0
0.0318301 -0.0370367 0
0.0330581 -0.0377501 0
0.0342717 -0.0384879 0
0.0354708 -0.0392489 0
0.0366556 -0.0400321 0
0.0378262 -0.0408363 0
0.0389828 -0.0416607 0
0.0401254 -0.0425042 0
0.0412543 -0.0433659 0
0.0423698 -0.0442451 0
0.043472 -0.0451408 0
0.0445612 -0.0460523 0
0.0456375 -0.0469789 0
0.0467013 -0.0479199 0
0.0477529 -0.0488746 0
0.0487923 -0.0498424 0
0.04982 -0.0508227 0
0.0508362 -0.051815 0
0.051841 -0.0528187 0
0.0528348 -0.0538333 0
0.0538178 -0.0548584 0
0.0547903 -0.0558935 0
0.0557524 -0.0569382 0
0.0567045 -0.0579922 0
0.0576467 -0.0590549 0
0.0585792 -0.0601261 0
0.0595024 -0.0612055 0
0.0604163 -0.0622926 0
0.0613212 -0.0633873 0
0.0622174 -0.0644891 0
0.0631049 -0.0655979 0
0.0639841 -0.0667134 0
0.064855 -0.0678353 0
0.0657179 -0.0689633 0
0.0665729 -0.0700974 0
0.0674202 -0.0712372 0
0.06826 -0.0723826 0
0.0690925 -0.0735333 0
0.0699178 -0.0746892 0
0.070736 -0.0758501 0
0.0715473 -0.0770159 0
0.0723518 -0.0781863 0
0.0731498 -0.0793612 0
0.0739412 -0.0805405 0
0.0747264 -0.081724 0
0.0755053 -0.0829116 0
0.0762781 -0.0841033 0
0.0770449 -0.0852987 0
0.0778059 -0.0864979 0
0.0785611 -0.0877007 0
0.0793108 -0.088907 0
0.0814681 -0.0912706 0
0.0828814 -0.0924245 0
0.0842946 -0.0935783 0
0.0857079 -0.0947322 0
0.0871211 -0.095886 0
0.0885344 -0.0970399 0
0.0899476 -0.0981937 0
0.0913609 -0.0993476 0
0.0927741 -0.100501 0
0.0941874 -0.101655 0
0.0956006 -0.102809 0
0.0970139 -0.103963 0
0.0984272 -0.105117 0
0.0998404 -0.106271 0
0.101254 -0.107424 0
0.102667 -0.108578 0
0.10408 -0.109732 0
0.105493 -0.110886 0
0.106907 -0.11204 0
0.10832 -0.113194 0
0.109733 -0.114348 0
0.111146 -0.115501 0
0.11256 -0.116655 0
0.113973 -0.117809 0
0.115386 -0.118963 0
0.116799 -0.120117 0
0.118213 -0.121271 0
0.119626 -0.122424 0
0.121039 -0.123578 0
0.122452 -0.124732 0
0.123866 -0.125886 0
0.125279 -0.12704 0
0.126692 -0.128194 0
0.128105 -0.129348 0
0.129519 -0.130501 0
0.130932 -0.131655 0
0.132345 -0.132809 0
0.133758 -0.133963 0
0.135172 -0.133216 0
0.135172 -0.131316 0
0.135172 -0.129415 0
0.135172 -0.127514 0
0.135172 -0.125614 0
0.135172 -0.123713 0
0.135172 -0.121813 0
0.135172 -0.119912 0
0.135172 -0.118012 0
0.135172 -0.116111 0
0.135172 -0.11421 0
0.135172 -0.11231 0
0.135172 -0.110409 0
0.135172 -0.108509 0
0.135172 -0.106608 0
0.135172 -0.104708 0
0.135172 -0.102807 0
0.135172 -0.100906 0
0.135172 -0.0990058 0
0.135172 -0.0971052 0
0.135172 -0.0952046 0
0.135172 -0.0933041 0
0.135172 -0.0914035 0
0.135172 -0.0895029 0
0.135172 -0.0876023 0
0.135172 -0.0857017 0
0.135172 -0.0838012 0
0.135172 -0.0819006 0
0.133758 -0.0788462 0
0.132345 -0.0776923 0
0.130932 -0.0765385 0
0.129519 -0.0753846 0
0.128105 -0.0742308 0
0.126692 -0.0730769 0
0.125279 -0.0719231 0
0.123866 -0.0707692 0
0.122452 -0.0696154 0
0.121039 -0.0684615 0
0.119626 -0.0673077 0
0.118213 -0.0661538 0
0.116799 -0.065 0
0.115386 -0.0638462 0
0.113973 -0.0626923 0
0.11256 -0.0615385 0
0.111146 -0.0603846 0
0.109733 -0.0592308 0
0.10832 -0.0580769 0
0.106907 -0.0569231 0
0.105493 -0.0557692 0
0.10408 -0.0546154 0
0.102667 -0.0534615 0
0.101254 -0.0523077 0
0.0998404 -0.0511538 0
0.0984272 -0.05 0
0.0970139 -0.0488462 0
0.0956006 -0.0476923 0
[...]
CELL_DATA 13116
SCALARS rho float
LOOKUP_TABLE default
0.5977
0.5977
0.587428
0.631571
0.595431
0.68078
0.420965
0.678052
0.5977
0.597703
0.388165
0.595354
0.594004
0.51849
0.541775
0.680669
0.5977
0.5977
0.681018
0.37971
0.5977
0.593052
0.571406
0.5977
0.5977
0.585067
0.597703
0.597698
0.5977
0.5977
0.680097
0.588605
0.5977
0.5977
0.430109
0.5977
0.5977
0.680263
0.681053
0.681376
0.681003
0.675903
0.5977
0.55753
0.680748
0.681299
0.5977
0.681008
0.580798
0.5977
0.680094
0.5977
0.462723
0.5977
0.5977
0.5977
0.554342
0.5977
0.5977
0.563224
0.523297
0.592989
0.5977
0.681088
0.680629
0.488603
0.680622
0.5977
0.680954
0.68087
0.540796
0.5977
0.596029
0.527364
0.688939
0.496328
0.5977
0.675511
0.394972
0.5977
0.5977
0.590021
0.5977
0.681104
0.680462
0.5977
0.439616
0.5977
0.679903
0.367451
0.597578
0.597701
0.5977
0.679485
0.5977
0.5977
0.5977
0.665997
0.663611
0.5977
0.5977
0.5977
0.680833
0.5977
0.5977
0.577194
0.597699
0.5977
0.597677
0.5977
0.5977
0.597541
0.5977
0.5977
0.5977
0.680875
0.469909
0.5977
0.680728
0.680973
0.5977
0.597715
0.681097
0.59751
0.67873
0.5977
0.448162
0.5977
0.587511
0.5977
0.680809
0.596535
0.5977
0.585517
0.5977
0.5977
1.12709
0.68073
0.5977
0.680901
0.5977
0.5977
0.5977
0.5977
0.5977
0.541764
0.426349
0.595202
0.597704
0.680724
0.5977
0.680946
0.68107
0.445197
0.597702
0.681442
0.589469
0.5977
0.669068
0.5977
0.5977
0.388894
0.5977
0.590026
0.597712
0.598096
0.674499
0.5977
0.426641
0.5977
0.5977
1.12632
0.537474
0.5977
0.680687
0.571868
0.560611
0.595299
0.597693
0.681137
0.369614
0.5977
0.5977
0.5977
0.681141
0.5977
0.444286
0.680609
0.5977
0.5977
0.5977
0.596494
0.680615
0.597713
0.597701
0.680423
0.5977
0.680599
0.678469
0.5977
0.5977
0.5977
0.5977
0.536756
0.597526
0.679613
0.5977
0.5977
0.551824
0.37113
0.491952
0.680847
0.596498
0.368123
0.367623
0.452077
0.5977
0.680845
0.675923
0.597699
0.544484
0.680396
0.5977
0.36894
0.5977
0.597436
0.5977
0.5977
0.680861
0.597698
0.704316
0.590608
0.680746
0.5977
0.657273
0.681424
0.680727
0.58968
0.5977
0.5977
0.757223
0.680317
1.12557
0.680802
0.678973
0.566978
0.681171
0.597704
0.664386
0.407152
0.584915
0.680967
0.680797
0.680712
0.680362
0.5977
0.5977
0.384147
0.597494
0.5977
0.548906
0.5977
0.5977
0.5977
0.415352
0.680834
0.463152
0.5977
0.5977
0.405952
0.591022
0.679537
0.924876
0.5977
0.587199
0.985923
0.5977
0.66684
0.680873
0.38581
0.427889
0.597715
0.5977
0.597711
0.596862
0.597705
0.597708
0.654494
0.475188
0.681399
0.620874
0.428996
0.376487
0.456014
0.5977
0.597714
0.5977
0.5977
0.597702
0.400765
0.680755
0.5977
0.597717
0.561775
0.680634
0.681004
0.680782
0.451044
0.680742
0.5977
0.594895
0.67632
0.680587
0.677417
0.59771
0.68082
0.514664
0.680613
0.597704
0.5977
0.367518
0.597707
0.597704
0.456555
0.59733
0.591825
0.5977
0.5977
0.5977
0.440979
0.681267
0.5977
0.513035
0.681025
0.597699
0.5977
0.675865
0.597699
0.5977
0.414849
0.5977
0.597707
0.68089
0.5977
0.5977
0.597699
0.597698
0.68116
0.44026
0.590428
0.5977
0.5977
1.12611
0.440508
0.577913
0.671738
0.5977
0.5977
0.435802
0.591968
0.681196
0.608034
0.418564
0.678412
0.49028
0.582033
0.681132
0.67731
0.5977
0.367882
0.681103
0.680099
0.680785
0.681512
0.5977
0.5977
0.5977
0.536793
0.369846
0.680813
0.368793
0.5977
0.5977
0.597721
0.597698
0.5977
0.597716
0.433291
0.680164
0.597658
0.5977
0.5977
0.680403
0.5977
0.681241
0.582539
0.423848
0.5977
0.5977
0.589829
0.5977
0.680986
0.5977
0.5977
0.5977
0.592037
0.5977
0.5977
0.5977
0.5977
0.680845
0.5977
0.5977
0.5977
0.584402
0.5977
0.5977
0.459622
0.680891
0.900081
0.597706
0.370231
0.367535
0.431693
0.5977
0.486941
0.597714
0.680538
0.487245
0.5977
0.367562
0.680312
0.5977
0.597698
0.585859
0.662062
0.5977
0.368215
0.430848
0.368005
0.597708
0.424708
0.368946
0.597714
0.5977
0.3689
0.5977
0.597699
0.680079
0.5977
0.596939
0.5977
0.546914
0.367485
0.550527
0.680828
0.5977
0.5977
0.5977
0.479781
0.5977
0.680918
0.5977
0.5977
0.5977
0.5977
0.422597
0.665643
0.5977
0.5977
0.676398
0.597712
0.471279
0.5977
0.5977
0.597699
0.5977
0.597698
0.5977
0.5977
0.376657
0.554504
0.519732
0.5977
0.556446
0.493864
0.536799
0.511027
0.62689
0.586555
0.5977
0.5977
0.5977
0.597702
0.597699
0.477397
0.5977
0.597708
0.673246
0.597712
0.597699
0.5977
0.6804
0.666
0.5977
0.5977
0.464256
0.5977
0.678376
0.68093
0.5977
0.5977
0.5977
0.367907
0.5977
0.5977
0.5977
0.5977
0.597714
0.5977
0.5977
0.5977
0.597703
0.651378
0.582904
0.5977
0.5977
0.680418
0.367907
0.680338
0.597706
0.560919
0.368009
0.586831
0.680317
0.597708
0.679903
0.5977
0.367578
0.680814
0.681013
0.5977
0.597699
0.470679
0.669007
0.368021
0.367755
0.559547
0.367771
0.639359
0.503967
0.590094
0.5977
0.5977
0.680882
0.681208
0.587835
0.368046
0.370104
0.680894
0.708594
0.5977
0.615209
0.597703
0.5977
0.43455
0.597699
0.680557
0.5977
0.367565
0.5977
0.597723
0.679708
0.680152
0.597702
0.596072
0.679719
0.5977
0.680863
0.5977
0.581556
0.597698
0.5977
0.819475
0.592829
0.660115
0.673678
0.680704
0.478461
1.12218
0.542026
0.666852
0.5977
0.367868
0.5977
0.597355
0.66337
0.59771
0.412394
0.5977
0.680789
0.597701
0.407508
0.596959
0.368013
0.680887
0.597466
0.680572
0.537582
0.5977
0.597651
0.5977
0.585622
0.576444
0.5977
0.597698
0.595303
0.46456
0.497058
0.680721
0.494857
0.680886
0.597702
0.660682
0.367891
0.676863
0.5977
0.5977
0.680544
0.673669
0.681129
0.568392
0.68097
0.597699
0.653354
0.388191
0.679371
0.5977
0.437291
0.680726
0.597702
0.448773
0.5977
0.597426
0.535338
0.680611
0.680761
0.597731
0.551648
0.400285
0.569345
0.678103
0.5977
0.472094
0.386011
0.593839
0.680978
0.5977
0.5977
0.680346
0.385324
0.5977
0.5977
0.68047
0.5977
0.5977
0.5977
0.680611
0.5977
0.5977
0.597699
0.5977
0.680772
0.5977
0.5977
0.5977
0.539502
0.5977
0.597702
0.597699
0.5977
0.5977
0.5977
0.680984
0.5977
0.597709
0.681155
0.5977
0.588856
0.5977
0.597716
0.6728
0.526595
0.680903
0.5977
0.597699
0.680654
0.5977
0.598623
0.5977
0.5977
0.5977
0.597708
0.5977
0.597677
0.524393
1.12678
0.5977
0.680829
0.597704
0.367611
0.597705
0.5977
0.597612
0.646503
0.67943
0.369705
0.5977
0.597704
0.376004
0.597722
0.680678
0.681067
0.678735
0.575576
0.5977
0.5977
0.5977
0.597702
0.680997
0.596788
0.367507
0.595587
0.680804
0.5977
0.680802
0.681008
0.597699
0.5977
0.372111
0.5977
0.597704
0.5977
0.5977
0.681028
0.681048
0.5977
0.5977
0.5977
0.5977
0.367933
0.367839
0.412386
0.368438
0.5977
0.5977
0.680904
0.597705
0.371659
0.681007
0.5977
0.50859
0.597703
0.5977
0.5977
0.680603
0.681259
0.5977
0.369155
0.367943
1.11862
0.597097
0.368059
0.471463
0.680788
0.5977
0.367762
0.5977
0.678362
0.597702
0.68077
0.681126
0.473082
0.514288
0.404922
0.5977
0.5977
0.59391
0.5977
0.5977
0.6313
0.680794
0.581614
0.367732
0.597704
0.367579
0.680818
0.5977
0.674551
0.597731
0.367928
0.626413
0.680198
0.5977
0.508026
0.680561
0.680779
0.5977
0.680708
0.680056
1.09247
0.5977
0.368814
0.681148
0.68068
0.5977
0.5977
1.12685
0.59736
1.06881
0.680893
0.493746
0.529427
0.367687
0.680221
0.5977
0.367662
0.5977
0.596856
0.593869
0.5977
0.5977
0.5977
0.5977
0.586594
0.596105
0.5977
0.367694
0.5977
0.680325
0.55984
0.679433
0.50212
0.573658
0.5977
0.5977
0.5977
0.68077
0.42013
0.5977
0.549304
0.586451
0.680805
0.367508
0.5977
0.597717
0.5977
0.5977
1.08035
0.671887
0.535193
0.503485
0.5977
0.5977
0.6226
0.5977
0.5977
0.680766
0.5977
0.5977
0.5977
0.597702
0.5977
0.680653
0.597705
0.367793
0.5977
0.597702
0.5977
0.5977
0.680801
0.5977
0.5977
0.597725
0.5977
0.5977
1.12191
0.663821
0.5977
0.5977
0.680719
0.5977
0.594908
0.5977
0.5977
0.680758
0.681457
0.59771
0.711596
0.588608
0.541357
0.579809
0.452651
1.12678
0.387584
0.5977
0.5977
0.5977
0.597715
0.680156
0.536028
0.5977
0.680536
0.680719
0.5977
0.680847
0.5977
0.5977
0.5977
0.652937
0.530887
0.680739
0.681163
0.5977
0.9619
0.5977
0.597712
0.539465
0.565063
0.680784
0.367708
0.982766
0.405006
0.678528
0.475502
0.5977
0.568893
0.5977
0.679743
0.5977
0.597716
0.5977
0.680882
0.374035
0.5977
0.586623
0.592308
0.5977
0.674962
0.597615
0.68105
0.5977
0.5977
0.602221
0.680676
0.5977
0.367745
0.5977
0.680942
1.1239
0.823465
1.12512
0.5977
0.596589
0.5977
0.680405
0.367636
0.540377
1.12437
0.594558
0.680723
0.497547
0.680746
0.5977
0.5977
0.525899
0.597699
0.676535
0.688874
0.5977
0.5977
0.681277
0.832404
0.417393
0.5977
0.5977
0.419585
0.596497
0.517949
0.597701
0.597664
0.367862
0.681606
0.5977
0.5977
0.5977
0.430158
0.429823
0.658865
0.532389
0.487813
0.680081
0.59363
0.5977
0.5977
0.674627
0.660657
0.370983
0.5977
0.393238
0.597698
0.580655
0.669892
0.491257
0.597703
0.670818
0.68056
0.5977
0.597704
0.597702
0.680523
0.58758
0.678843
0.497802
0.385848
0.5977
0.680528
0.5977
0.597701
0.5977
0.680615
0.5977
0.597699
0.681102
0.59084
0.672986
0.41379
0.596688
0.597713
0.681222
0.5977
0.5977
0.680611
0.587997
0.591818
0.367717
0.5977
0.5977
0.47873
0.5977
1.12681
0.679183
0.437858
0.680632
0.368237
0.597729
0.597723
0.367706
0.5977
0.542942
0.5977
0.680783
0.5977
0.597712
0.5977
0.5977
0.5977
0.5977
0.367879
0.466114
0.413296
0.565457
0.597716
0.5977
0.594462
0.597699
0.680698
0.5977
0.513377
0.593303
0.5977
0.680766
0.396932
0.703485
0.5977
0.597701
0.680247
0.555816
0.639218
0.597703
0.59589
0.5977
0.680877
0.597361
0.59772
0.68087
0.5977
0.36797
0.680724
0.59012
0.5977
0.5977
0.663667
0.676347
0.597589
0.597701
0.5977
0.414174
0.5977
0.588656
0.597701
0.680952
0.5977
0.59773
0.592369
0.559941
0.5977
0.610727
0.668745
0.614127
0.407267
0.597714
0.597704
0.597705
0.672873
0.5977
0.5977
0.597711
0.680869
0.59768
0.68058
0.667377
0.5977
0.597714
0.53513
0.5977
0.5977
0.5977
0.5977
0.680619
0.5977
0.680727
1.12683
0.597701
0.442608
0.597713
0.674775
0.680737
0.5977
0.5977
0.528499
0.5977
0.532003
0.680165
0.5977
0.5977
0.589455
0.373067
0.662371
0.589168
0.597704
0.583016
0.680778
0.681154
0.594091
0.679577
0.5977
0.597225
0.680774
0.68133
0.5977
0.541597
0.5977
0.5977
0.5977
0.5977
0.597699
0.5977
0.597701
0.680703
0.597715
0.5977
0.593076
0.597699
0.680922
0.680763
0.597712
0.680262
0.672353
0.580848
0.5977
0.418474
0.5977
0.429052
0.574433
0.5977
0.367833
0.367988
0.528891
0.680412
0.597681
0.5977
0.681003
0.5977
0.5977
0.367733
0.597569
0.5977
0.680638
0.680757
0.5977
0.680831
0.5977
0.681133
0.680905
0.597715
0.5977
0.5977
0.5977
0.597701
0.5977
0.5977
0.592795
0.37445
0.5977
0.5977
0.680884
0.49575
0.597715
0.5977
0.680612
0.373627
0.680772
0.5977
1.12693
0.679835
0.684939
0.367942
0.595174
0.368274
0.595092
0.678689
0.5977
0.676801
0.680162
0.586391
0.436533
0.397878
0.597701
0.680964
0.5977
0.675559
0.486874
0.437061
0.504503
0.681677
0.5977
0.59315
0.67684
0.5977
0.680746
0.679358
0.5977
0.5977
0.5977
0.597277
0.371622
0.690038
0.70907
0.505121
0.5977
0.597701
0.5977
0.597712
0.5977
0.5977
0.597713
0.5977
0.5977
0.368165
0.680906
0.5977
0.367704
0.665189
0.481442
0.680563
0.5977
0.597687
0.53724
0.5977
0.5977
0.59771
0.597699
0.681043
0.597704
0.680701
0.680586
0.592599
0.5977
0.5977
0.680388
0.5977
0.680694
0.597699
0.680777
0.566752
0.530925
0.678801
0.680573
0.68095
0.597715
0.680838
0.5977
0.699397
0.473363
0.487519
0.368143
0.681219
0.411471
0.494341
0.582691
0.5977
0.489078
0.59771
0.5977
0.676135
0.367883
0.680873
0.681038
0.681483
0.444977
0.680594
0.5977
0.680842
0.597699
0.5977
0.431782
0.374018
0.680814
0.373829
0.5977
0.5977
1.10557
0.36809
0.597707
0.442746
0.5977
1.12657
0.597714
0.680252
0.680409
0.5977
0.367767
0.555521
0.597705
0.5977
0.367967
1.12682
0.5977
0.680973
0.680829
0.383215
0.5977
0.572423
0.5977
0.5977
0.597702
0.5977
0.5977
0.5977
0.5977
0.673549
0.402429
0.5977
0.498262
0.5977
0.5977
0.671304
0.36808
0.5977
0.5977
0.680657
0.680761
0.37174
0.681467
0.5977
0.5977
0.5977
0.597713
0.37036
0.597711
0.680604
0.680814
0.5977
0.597702
0.597703
0.678207
0.5977
0.680583
0.680664
0.679579
0.59223
0.68106
0.5977
0.597701
0.597698
0.681107
0.681244
0.681013
0.680793
0.680585
0.5977
0.367986
0.588666
0.5977
0.368001
0.5977
0.681133
0.519823
0.5977
0.681063
0.5977
0.677134
0.597698
0.681038
0.597725
0.522231
0.681136
0.591809
0.680779
0.457434
0.680314
0.680739
0.5977
0.680935
0.582569
0.680987
0.597704
0.5977
0.5977
0.5977
0.383611
0.673905
0.490474
0.368005
0.5977
0.5977
0.596412
0.5977
0.680895
0.573971
0.680943
0.5977
0.527772
0.613344
0.5977
0.367528
0.680865
0.595435
0.5977
0.5977
0.5977
0.668873
0.5977
0.5977
0.5977
0.680737
0.5977
0.597702
0.5977
0.712483
0.597702
0.5977
0.575519
0.392748
0.5977
0.680889
0.597713
0.5977
0.680635
0.5977
0.680665
0.5977
0.5977
0.5977
0.398223
0.680518
0.5977
0.5977
0.5977
0.59735
0.611796
0.680901
0.367829
0.508482
0.632443
0.5977
0.5977
0.68082
0.68096
0.680657
0.5977
0.5977
0.5977
0.5977
0.597704
0.513563
0.597625
0.502536
0.597699
0.971352
0.5977
0.5977
0.592178
0.5977
0.597632
0.675581
0.632036
0.465708
0.5977
0.840505
0.68105
0.597698
0.578353
0.561759
1.12693
0.586976
0.5977
0.441248
0.368154
0.587812
0.5977
0.367931
0.702808
0.680736
0.5977
0.406192
0.597701
0.5977
0.5977
0.597701
0.374734
0.598098
1.12603
0.367657
0.680547
0.367675
0.5977
0.597705
0.681365
0.409433
0.650517
0.674504
0.436265
0.5977
0.597714
0.594194
0.594856
0.5977
0.582847
0.5977
0.429016
0.5977
0.37152
0.680753
0.680663
0.5977
0.597704
0.597699
0.596876
0.680887
0.679084
0.5977
0.5977
0.372431
0.5977
0.500206
0.5977
0.597714
0.587301
0.5977
0.5977
0.597189
0.5977
0.5977
0.529912
0.514533
0.51173
0.5977
0.5977
0.680797
0.397073
0.594433
0.68074
0.597699
0.597085
0.5977
0.5977
0.367801
0.586525
0.675195
0.5977
0.5977
0.558485
0.5977
0.680734
0.590116
0.597707
0.680637
0.681187
0.5977
0.5977
0.597699
0.5977
0.43837
0.678968
0.5977
0.5977
0.5977
0.558093
0.5977
0.376844
0.680668
0.638075
0.368879
0.59768
0.5977
0.5977
0.613422
0.597701
0.5977
0.680392
0.587992
0.461705
0.589791
0.505467
0.383118
0.5977
0.676397
0.5977
0.372127
0.367921
0.5977
0.595492
0.680455
0.5977
0.367654
0.597702
0.681109
0.592715
0.5977
0.5977
0.597638
0.681161
0.5977
0.367735
0.422254
0.5977
0.368232
0.5977
0.5977
0.680869
0.680671
0.597715
0.368179
1.12583
0.375138
0.681003
0.5977
0.367949
0.545036
0.470834
0.680895
0.475136
1.12694
0.5977
0.5977
0.585202
0.5977
0.667505
0.680446
0.410698
0.669538
0.5977
0.597726
0.680862
0.710709
0.402635
0.367701
0.605629
0.382922
0.383624
0.593255
0.597704
0.680795
0.5977
0.5977
0.5977
0.595551
0.680471
0.680584
0.40193
0.597699
0.5977
0.615234
0.5977
0.59456
0.597698
0.680834
0.674236
0.5977
0.5977
0.5977
0.5977
0.677596
0.592536
0.597702
0.676484
0.680574
1.09494
0.68053
1.12667
0.673625
0.639036
0.680517
1.12503
0.680696
0.597717
0.588876
0.597714
0.68105
0.680965
0.5977
0.597702
0.5977
0.534642
0.441465
0.597707
0.404079
0.597702
0.398233
0.402596
0.5977
0.578853
0.5977
0.432807
0.59285
0.658731
0.367771
0.597699
0.5977
0.680876
0.552133
0.680954
0.594942
0.452331
0.589968
0.5977
0.5977
0.5977
0.590609
0.5977
0.367713
0.680559
0.5977
0.597713
0.681031
0.681134
0.5977
0.36764
0.5977
0.584551
0.597701
0.680768
0.680804
0.367832
0.596953
0.680619
0.597702
0.5977
0.680628
0.367686
0.368055
0.681369
0.5977
0.597703
0.5977
0.367887
0.5977
0.597703
0.597714
0.597718
0.531352
0.5977
0.656916
0.601922
0.515336
0.5977
0.680865
0.5977
0.5977
0.5977
0.5977
0.368019
0.369985
0.681641
0.368048
0.368293
0.680757
0.616647
0.471191
0.5977
0.466275
0.9711
0.597699
0.642172
0.680926
0.5977
0.681036
0.561204
0.370939
0.597604
0.680896
0.640818
0.5977
0.5977
0.5977
0.597713
0.680614
0.397504
0.680853
0.597699
0.68075
0.5977
0.433185
0.571563
0.367727
0.368174
0.58891
0.5977
0.597702
0.405992
0.680707
0.5977
0.597708
0.53269
0.58573
0.36781
0.678628
0.597699
0.5977
0.5977
0.680476
0.667894
0.517009
0.5977
0.681287
0.675316
0.367885
0.5977
0.5977
0.5977
0.680953
0.5977
0.714827
0.597368
0.588512
0.681364
0.677684
0.680872
0.681138
0.367791
0.5977
0.36759
0.5977
0.6806
0.596859
0.673744
0.5977
0.589795
0.597702
0.367811
0.597686
0.67967
0.5977
0.626798
0.373471
0.596809
0.5977
0.597698
0.407304
0.661245
0.680369
0.597699
0.548009
0.5977
0.585967
0.367693
0.5977
0.661534
0.5977
0.458442
0.367701
0.593394
0.5977
0.584761
0.666115
0.5977
0.680615
0.5977
0.678778
0.372399
0.67894
0.5977
0.674552
0.5977
0.597716
0.406395
0.566259
0.5977
0.589065
0.597699
0.5977
0.5977
0.5977
0.681067
0.544689
0.5977
0.673858
0.5977
0.415001
0.423967
0.5977
0.670716
0.597703
0.5977
0.5977
0.681178
0.367743
0.5977
0.841342
0.589979
0.42067
0.5977
0.59369
0.5977
0.578434
0.679593
0.679512
0.551607
0.680439
0.5977
1.12431
0.5977
1.12682
0.680459
0.5977
0.680647
0.68125
0.680552
0.68024
0.5977
0.883918
0.488978
0.681403
0.560405
0.368025
0.577186
0.583738
0.367983
0.412922
0.638067
0.597699
0.501465
0.5977
0.679903
0.597702
0.5977
0.5977
0.5977
0.681036
0.597717
0.5977
0.680926
0.597711
0.562829
0.371532
0.5977
0.5977
0.367987
0.5977
0.584295
0.670348
0.5977
0.456563
0.5977
0.5977
0.5977
0.680343
0.546856
0.5977
0.597699
0.680052
0.5977
0.5977
0.809132
0.5977
0.5977
0.367358
0.676931
0.588776
0.568124
0.59773
0.68085
0.368141
0.5977
0.405451
0.5977
0.563901
0.680332
0.591473
0.60007
0.368536
0.680914
0.680121
0.588191
1.00184
0.486173
0.590254
0.5977
0.584389
0.5977
0.597703
0.5977
0.590793
0.5977
0.5977
0.61593
0.5977
0.5977
0.597712
0.5977
0.679933
0.579058
0.680781
0.675453
0.5977
0.5977
0.551809
0.5977
0.367672
0.597701
0.588421
0.681033
0.590323
0.681912
0.650682
0.59771
0.664649
0.367864
0.40835
0.680869
0.916183
0.5977
0.66849
0.94041
0.367345
0.5977
0.680039
0.678941
0.597728
0.5977
0.5977
0.404776
0.681149
0.680258
0.678065
0.680739
0.597714
0.5977
0.5977
0.561234
0.676521
0.59099
0.5977
0.679055
0.597716
0.5977
0.5977
0.5977
0.679507
0.424346
0.59771
0.680822
0.652045
0.580583
0.597699
0.580107
0.581748
0.499674
0.596649
0.597704
0.368009
0.680494
0.557554
0.459095
0.5977
0.5977
1.12519
0.5977
0.36812
0.680932
0.5977
0.5977
0.597702
0.5977
0.5977
0.680747
0.5977
0.597616
0.547128
0.622319
0.680843
0.470648
0.368413
0.5977
0.5977
0.5977
0.591593
0.680601
0.590073
0.597362
0.5977
0.678854
0.680792
0.662944
0.367816
0.680492
0.5977
0.5977
0.5977
0.469263
0.572571
0.502809
0.5977
0.5977
0.5977
0.368681
0.597699
0.670776
0.593024
0.5977
0.68132
0.678642
0.5977
0.680985
0.597713
0.57788
0.56852
0.5977
0.584063
0.68113
0.568868
0.680781
0.68052
0.681123
0.597699
0.5977
0.5977
0.680596
0.528524
0.374711
0.680692
0.597359
0.5977
0.680741
0.639151
0.5977
0.367736
0.5977
0.597704
0.5977
0.681056
0.597703
0.5977
0.5977
0.597699
0.678111
0.5977
0.5977
0.367688
0.5977
0.679784
0.5977
0.585079
0.5977
0.5977
0.596916
0.597703
0.36783
0.372314
0.674247
0.5977
0.5977
0.681315
0.663439
0.595994
0.681346
0.674225
0.597702
0.367894
0.5977
0.3677
0.680491
0.654868
0.5977
0.5977
0.678921
0.597708
0.5977
0.597703
0.367936
0.5977
0.597714
0.680557
0.533775
0.5977
0.597703
0.672747
0.367769
1.12702
0.686695
0.379554
0.5977
0.589203
0.674539
0.367613
0.422314
0.547531
0.5977
0.680876
0.597708
0.597707
0.594423
0.589323
0.5977
0.5977
0.367902
0.5977
0.367935
0.597703
0.373481
0.5977
0.680672
0.597699
0.5977
0.416145
0.680671
0.48572
0.375315
0.597702
0.597711
0.5977
0.5977
0.545233
0.597638
0.679343
0.671791
0.5977
0.597712
0.5977
0.597723
0.370081
0.662968
0.680942
0.5977
0.367981
0.5977
0.5977
0.597703
0.5977
0.5977
0.5977
0.5977
0.597699
0.597207
0.592901
0.5977
0.679671
0.597708
0.5977
0.367305
0.592474
0.584568
0.368938
0.597448
0.68072
0.594925
0.597701
0.593072
0.597702
0.5977
0.597716
0.559211
0.380547
0.573471
0.368025
0.590863
0.680865
0.378164
0.536093
0.68069
0.597714
0.5977
0.5977
0.5977
0.5977
0.5977
0.5977
0.5977
0.680929
0.680589
0.59014
0.590147
0.5977
0.597701
0.680819
0.597502
0.524072
0.5977
0.5977
0.597717
0.597709
0.368037
0.5977
0.5977
0.5977
0.5977
0.579459
0.597699
0.5977
0.5977
0.388076
0.5977
0.367724
0.5977
0.5977
0.680412
0.643004
0.680317
0.593833
0.575176
1.12615
0.658014
0.5977
0.672333
0.517808
0.475345
0.5977
0.570843
0.597712
0.68112
0.78553
0.5977
0.5977
0.680815
0.597708
1.12598
0.5977
0.5977
0.598678
0.5977
0.5977
1.12499
0.597722
0.5977
0.5977
0.5977
0.5977
0.680624
0.849581
0.594345
0.8036
0.679768
0.379573
0.895795
0.68057
0.594349
0.383963
0.367727
0.475613
0.5977
0.36825
0.506737
0.68096
0.597704
0.406428
0.597534
0.680969
0.5977
0.680461
0.5977
1.12242
0.5977
0.585607
0.655601
0.680715