# vtk DataFile Version 1.0
unstructured grid
ascii
DATASET UNSTRUCTURED_GRID
points 13672 float
0.0796578 -0.059106 0
0.00128732 0.00159165 0
0.00227961 -0.00102548 0
0.0791586 -0.0598787 0
-0.0546216 0.01 0
0.000495206 0.025 0
0.0800549 -0.035 0
0.135172 -0.08 0
-0.0546216 -0.0451168 0
0.000495206 -0.0301168 0
0.0800549 -0.0901168 0
0.135172 -0.135117 0
-0.0546216 -0.0451168 -0.00551168
0.000495206 -0.0301168 -0.00551168
0.0800549 -0.0901168 -0.00551168
0.135172 -0.135117 -0.00551168
0.135172 -0.08 -0.00551168
0.0800549 -0.035 -0.00551168
0.000495206 0.025 -0.00551168
-0.0546216 0.01 -0.00551168
0.00128732 0.00159165 -0.00551168
0.00227961 -0.00102548 -0.00551168
0.0791586 -0.0598787 -0.00551168
0.0796578 -0.059106 -0.00551168
0.00165953 -0.000990923 0
0.00119576 -0.000874076 0
0.000866021 -0.000641801 0
0.000645147 -0.000349912 0
0.00052235 -1.7281e-05 0
0.00049972 0.000348016 0
0.000601632 0.000737716 0
0.000861774 0.0011403 0
0.00157235 0.00183217 0
0.00188647 0.00206725 0
0.00222612 0.00230203 0
0.00258713 0.00254351 0
0.00296826 0.00279524 0
0.00337118 0.00305664 0
0.00379785 0.00332658 0
0.00425045 0.00360349 0
0.00473139 0.00388521 0
0.0052432 0.00416895 0
0.0057881 0.00445204 0
0.00636753 0.00473281 0
0.00698281 0.00500961 0
0.00763526 0.00528058 0
0.00832616 0.00554366 0
0.00905691 0.00579603 0
0.00982918 0.00603333 0
0.0106445 0.00625033 0
0.0115038 0.00644128 0
0.0124073 0.00660297 0
0.0133543 0.00673414 0
0.0143444 0.00683382 0
0.0153769 0.00690031 0
0.0164512 0.00693173 0
0.0175666 0.00692547 0
0.0187219 0.00687822 0
0.0199156 0.00678477 0
0.0211454 0.00663864 0
0.0224084 0.00643275 0
0.0237018 0.00616676 0
0.0250249 0.00584739 0
0.026375 0.00547298 0
0.0277479 0.00503752 0
0.0291386 0.00453545 0
0.0305433 0.0039653 0
0.0319572 0.0033256 0
0.0333681 0.00260019 0
0.034775 0.00179799 0
0.0361793 0.000930615 0
0.0375798 3.12222e-06 0
0.0389689 -0.000988429 0
0.0403357 -0.00205109 0
0.041675 -0.00318283 0
0.0429849 -0.00437751 0
0.0442643 -0.00562904 0
0.0455126 -0.00693089 0
0.0467314 -0.00827518 0
0.0479204 -0.00965638 0
0.0490661 -0.0110799 0
0.0501515 -0.0125519 0
0.0511696 -0.0140695 0
0.0521492 -0.0156071 0
0.0531202 -0.0171411 0
0.0540851 -0.0186663 0
0.0550431 -0.0201798 0
0.0559923 -0.0216793 0
0.0569311 -0.0231626 0
0.0578582 -0.0246273 0
0.0587723 -0.0260715 0
0.0596721 -0.027493 0
0.0605563 -0.02889 0
0.0614241 -0.0302609 0
0.0622742 -0.0316042 0
0.063106 -0.0329183 0
0.0639186 -0.034202 0
0.0647113 -0.0354543 0
0.0654835 -0.0366743 0
0.0662345 -0.0378613 0
0.0669642 -0.0390145 0
0.0676726 -0.0401333 0
0.0683597 -0.0412172 0
0.0690246 -0.0422665 0
0.0696662 -0.0432819 0
0.0702841 -0.0442636 0
0.0708793 -0.0452111 0
0.0714538 -0.0461237 0
0.072009 -0.047001 0
0.0725452 -0.0478434 0
0.0730611 -0.0486524 0
0.073556 -0.0494294 0
0.0740291 -0.0501756 0
0.0744812 -0.0508916 0
0.0749138 -0.0515773 0
0.0753285 -0.0522331 0
0.0757266 -0.0528592 0
0.076109 -0.0534564 0
0.0764753 -0.0540264 0
0.0768243 -0.054571 0
0.0771553 -0.0550919 0
0.0774679 -0.0555901 0
0.0777617 -0.0560669 0
0.0780369 -0.056523 0
0.0782958 -0.0569578 0
0.0785421 -0.0573703 0
0.0787786 -0.0577603 0
0.0790073 -0.0581279 0
0.0792295 -0.058474 0
0.0794462 -0.0587995 0
0.0798803 -0.0594162 0
0.0800272 -0.0596588 0
0.0800357 -0.0598891 0
0.0799275 -0.0600784 0
0.0797205 -0.0601773 0
0.0794593 -0.0601051 0
0.0789155 -0.0596491 0
0.0786707 -0.0593963 0
0.0784111 -0.0591319 0
0.0781372 -0.0588542 0
0.0778566 -0.0585548 0
0.0775715 -0.0582308 0
0.0772803 -0.0578828 0
0.0769832 -0.0575099 0
0.0766822 -0.0571097 0
0.0763801 -0.0566796 0
0.0760759 -0.0562196 0
0.0757623 -0.0557337 0
0.0754359 -0.0552232 0
0.0750951 -0.0546879 0
0.0747379 -0.054128 0
0.0743626 -0.0535435 0
0.0739688 -0.0529338 0
0.0735559 -0.0522981 0
0.0731238 -0.0516357 0
0.0726718 -0.050946 0
0.0721991 -0.0502288 0
0.0717046 -0.049484 0
0.0711872 -0.0487117 0
0.0706461 -0.047912 0
0.0700804 -0.0470849 0
0.0694892 -0.0462308 0
0.0688718 -0.0453499 0
0.0682271 -0.0444431 0
0.0675544 -0.043511 0
0.0668527 -0.0425546 0
0.0661215 -0.0415748 0
0.06536 -0.040573 0
0.0645676 -0.0395504 0
0.0637439 -0.0385087 0
0.0628887 -0.0374493 0
0.062002 -0.0363741 0
0.0610838 -0.0352847 0
0.0601345 -0.0341831 0
0.0591547 -0.033071 0
0.0581456 -0.0319502 0
0.0571083 -0.0308224 0
0.0560444 -0.0296893 0
0.0549562 -0.028552 0
0.053845 -0.0274126 0
0.0527113 -0.0262746 0
0.051554 -0.0251427 0
0.0503724 -0.0240222 0
0.0491675 -0.0229164 0
0.047941 -0.0218282 0
0.0466955 -0.0207597 0
0.0454337 -0.0197126 0
0.0441592 -0.0186878 0
0.0428751 -0.0176863 0
0.0415841 -0.0167097 0
0.0402878 -0.0157609 0
0.0389879 -0.0148428 0
0.0376864 -0.0139575 0
0.0363853 -0.013107 0
0.0350871 -0.0122931 0
0.0337942 -0.0115164 0
0.0325095 -0.0107772 0
0.0312357 -0.0100756 0
0.0299758 -0.00941024 0
0.0287337 -0.00877784 0
0.0275126 -0.00817571 0
0.0263139 -0.00760375 0
0.0251376 -0.00706528 0
0.0239829 -0.0065649 0
0.0228537 -0.00609619 0
0.0217522 -0.00565563 0
0.0206795 -0.00524226 0
0.0196364 -0.00485507 0
0.0186233 -0.00449318 0
0.0176408 -0.00415577 0
0.016689 -0.00384204 0
0.0157682 -0.00355115 0
0.0148783 -0.00328218 0
0.0140192 -0.00303468 0
0.0131906 -0.00280795 0
0.0123925 -0.00260016 0
0.0116246 -0.00241012 0
0.0108864 -0.00223769 0
0.0101774 -0.00208212 0
0.00949701 -0.00194206 0
0.00884483 -0.0018163 0
0.0082202 -0.0017039 0
0.00762247 -0.00160391 0
0.00705097 -0.00151528 0
0.006505 -0.00143697 0
0.0059838 -0.00136806 0
0.00548662 -0.00130772 0
0.00501265 -0.00125519 0
0.00456114 -0.00120954 0
0.00413136 -0.00116914 0
0.00372257 -0.00113251 0
0.00333398 -0.00109853 0
0.00296466 -0.00106798 0
0.00261363 -0.0010431 0
-0.052721 -0.0445996 0
-0.0508204 -0.0440823 0
-0.0489199 -0.0435651 0
-0.0470193 -0.0430478 0
-0.0451187 -0.0425306 0
-0.0432181 -0.0420134 0
-0.0413175 -0.0414961 0
-0.039417 -0.0409789 0
-0.0375164 -0.0404616 0
-0.0356158 -0.0399444 0
-0.0337152 -0.0394271 0
-0.0318146 -0.0389099 0
-0.0299141 -0.0383927 0
-0.0280135 -0.0378754 0
-0.0261129 -0.0373582 0
-0.0242123 -0.0368409 0
-0.0223117 -0.0363237 0
-0.0204112 -0.0358065 0
-0.0185106 -0.0352892 0
-0.01661 -0.034772 0
-0.0147094 -0.0342547 0
-0.0128088 -0.0337375 0
-0.0109083 -0.0332202 0
-0.00900769 -0.032703 0
-0.00710711 -0.0321858 0
-0.00520653 -0.0316685 0
-0.00330595 -0.0311513 0
-0.00140537 -0.030634 0
0.00190689 -0.0299614 0
0.00332271 -0.0298498 0
0.00474133 -0.0297825 0
0.00616136 -0.0297597 0
0.0075814 -0.0297814 0
0.00900007 -0.0298477 0
0.010416 -0.0299583 0
0.0118278 -0.0301127 0
0.0132342 -0.0303103 0
0.0146339 -0.0305504 0
0.0160259 -0.0308322 0
0.0174091 -0.0311546 0
0.0187824 -0.0315166 0
0.020145 -0.031917 0
0.0214961 -0.0323546 0
0.0228351 -0.032828 0
0.0241613 -0.0333361 0
0.0254744 -0.0338774 0
0.0267738 -0.0344507 0
0.0280592 -0.0350545 0
0.0293306 -0.0356877 0
0.0305875 -0.0363488 0
0.0318301 -0.0370367 0
0.0330581 -0.0377501 0
0.0342717 -0.0384879 0
0.0354708 -0.0392489 0
0.0366556 -0.0400321 0
0.0378262 -0.0408363 0
0.0389828 -0.0416607 0
0.0401254 -0.0425042 0
0.0412543 -0.0433659 0
0.0423698 -0.0442451 0
0.043472 -0.0451408 0
0.0445612 -0.0460523 0
0.0456375 -0.0469789 0
0.0467013 -0.0479199 0
0.0477529 -0.0488746 0
0.0487923 -0.0498424 0
0.04982 -0.0508227 0
0.0508362 -0.051815 0
0.051841 -0.0528187 0
0.0528348 -0.0538333 0
0.0538178 -0.0548584 0
0.0547903 -0.0558935 0
0.0557524 -0.0569382 0
0.0567045 -0.0579922 0
0.0576467 -0.0590549 0
0.0585792 -0.0601261 0
0.0595024 -0.0612055 0
0.0604163 -0.0622926 0
0.0613212 -0.0633873 0
0.0622174 -0.0644891 0
0.0631049 -0.0655979 0
0.0639841 -0.0667134 0
0.064855 -0.0678353 0
0.0657179 -0.0689633 0
0.0665729 -0.0700974 0
0.0674202 -0.0712372 0
0.06826 -0.0723826 0
0.0690925 -0.0735333 0
0.0699178 -0.0746892 0
0.070736 -0.0758501 0
0.0715473 -0.0770159 0
0.0723518 -0.0781863 0
0.0731498 -0.0793612 0
0.0739412 -0.0805405 0
0.0747264 -0.081724 0
0.0755053 -0.0829116 0
0.0762781 -0.0841033 0
0.0770449 -0.0852987 0
0.0778059 -0.0864979 0
0.0785611 -0.0877007 0
0.0793108 -0.088907 0
0.0814681 -0.0912706 0
0.0828814 -0.0924245 0
0.0842946 -0.0935783 0
0.0857079 -0.0947322 0
0.0871211 -0.095886 0
0.0885344 -0.0970399 0
0.0899476 -0.0981937 0
0.0913609 -0.0993476 0
0.0927741 -0.100501 0
0.0941874 -0.101655 0
0.0956006 -0.102809 0
0.0970139 -0.103963 0
0.0984272 -0.105117 0
0.0998404 -0.106271 0
0.101254 -0.107424 0
0.102667 -0.108578 0
0.10408 -0.109732 0
0.105493 -0.110886 0
0.106907 -0.11204 0
0.10832 -0.113194 0
0.109733 -0.114348 0
0.111146 -0.115501 0
0.11256 -0.116655 0
0.113973 -0.117809 0
0.115386 -0.118963 0
0.116799 -0.120117 0
0.118213 -0.121271 0
0.119626 -0.122424 0
0.121039 -0.123578 0
0.122452 -0.124732 0
0.123866 -0.125886 0
0.125279 -0.12704 0
0.126692 -0.128194 0
0.128105 -0.129348 0
0.129519 -0.130501 0
0.130932 -0.131655 0
0.132345 -0.132809 0
0.133758 -0.133963 0
0.135172 -0.133216 0
0.135172 -0.131316 0
0.135172 -0.129415 0
0.135172 -0.127514 0
0.135172 -0.125614 0
0.135172 -0.123713 0
0.135172 -0.121813 0
0.135172 -0.119912 0
0.135172 -0.118012 0
0.135172 -0.116111 0
0.135172 -0.11421 0
0.135172 -0.11231 0
0.135172 -0.110409 0
0.135172 -0.108509 0
0.135172 -0.106608 0
0.135172 -0.104708 0
0.135172 -0.102807 0
0.135172 -0.100906 0
0.135172 -0.0990058 0
0.135172 -0.0971052 0
0.135172 -0.0952046 0
0.135172 -0.0933041 0
0.135172 -0.0914035 0
0.135172 -0.0895029 0
0.135172 -0.0876023 0
0.135172 -0.0857017 0
0.135172 -0.0838012 0
0.135172 -0.0819006 0
0.133758 -0.0788462 0
0.132345 -0.0776923 0
0.130932 -0.0765385 0
0.129519 -0.0753846 0
0.128105 -0.0742308 0
0.126692 -0.0730769 0
0.125279 -0.0719231 0
0.123866 -0.0707692 0
0.122452 -0.0696154 0
0.121039 -0.0684615 0
0.119626 -0.0673077 0
0.118213 -0.0661538 0
0.116799 -0.065 0
0.115386 -0.0638462 0
0.113973 -0.0626923 0
0.11256 -0.0615385 0
0.111146 -0.0603846 0
0.109733 -0.0592308 0
0.10832 -0.0580769 0
0.106907 -0.0569231 0
0.105493 -0.0557692 0
0.10408 -0.0546154 0
0.102667 -0.0534615 0
0.101254 -0.0523077 0
0.0998404 -0.0511538 0
0.0984272 -0.05 0
0.0970139 -0.0488462 0
0.0956006 -0.0476923 0
[...]
CELL_DATA 13116
SCALARS rho float
LOOKUP_TABLE default
0.597206
0.694227
0.346553
0.700881
0.701974
0.689312
0.331207
0.702987
0.540722
0.701201
0.324869
0.303235
0.702045
0.312349
0.339694
0.693495
0.591289
0.694566
0.706795
0.319126
0.591803
0.384391
0.31601
0.699052
0.596236
0.702311
0.701138
0.344078
0.57062
0.642982
1.13245
0.304073
0.552051
0.467578
0.33682
0.595312
0.671041
0.709975
0.88167
0.702818
0.704712
0.702782
0.483636
0.339803
0.708058
0.707035
0.693487
0.707497
0.343447
0.517098
0.702332
0.484422
0.292179
0.584056
0.555424
0.580693
0.337832
0.697711
0.520705
0.315844
0.31266
0.701397
0.693244
0.958996
1.14601
0.313203
0.699791
0.670655
0.700729
1.14372
0.345931
0.556763
0.399736
0.316543
1.13211
0.353586
0.669995
0.703046
0.320379
0.690823
0.686559
0.700276
0.699901
0.707363
0.71404
0.396776
0.31576
0.659761
0.70523
0.34982
0.304665
0.696031
0.701352
0.703561
0.651593
0.605028
0.597981
1.13891
1.13308
0.574407
0.666554
0.677316
0.704939
0.449613
0.703015
0.291124
0.352574
0.519095
0.337286
0.582583
0.543671
0.708276
0.601368
0.686327
0.691569
0.700065
0.316366
0.384464
0.705797
0.701398
0.668804
0.403377
0.701074
0.304518
0.703863
0.434397
0.316834
0.490835
0.335874
0.513554
0.7051
0.706115
0.457901
0.359523
0.439672
0.631779
1.13642
0.701966
0.664872
0.701492
0.659967
0.694922
0.494446
0.662224
0.683015
0.307163
0.338515
0.698876
0.701529
0.702571
0.505474
0.707323
0.707311
0.346183
0.701486
0.71348
0.323071
0.672109
1.1369
0.658788
0.698399
0.323304
0.700076
0.328752
0.408119
0.701995
0.702553
0.693962
0.334505
0.420661
0.393248
1.13627
0.329064
0.486716
0.700073
0.312607
0.370498
0.394855
0.707795
0.68532
0.32941
0.415595
0.565224
0.669201
0.69447
0.5247
0.31956
0.699251
0.710971
0.459221
0.65592
0.698298
1.14145
0.323275
0.701594
0.67697
0.700701
0.699362
0.707911
0.44784
0.452566
0.591142
0.486413
0.313847
0.705533
0.708518
0.490711
0.611891
0.251306
0.331753
0.349337
0.698971
0.327359
0.331791
0.343431
0.347285
0.376448
0.857841
0.703612
0.382135
0.336607
0.699791
0.539022
0.330968
0.506087
0.701478
0.681233
0.344889
0.699976
0.363429
0.70327
0.304339
1.12861
0.54278
1.13799
0.702588
1.11658
0.302387
0.4313
0.656734
1.13162
0.676662
1.13804
1.11345
0.703366
0.372763
0.702237
0.701772
1.14119
0.341353
0.34455
0.707862
0.7055
1.13271
0.707692
0.590542
0.681547
0.322133
0.308975
0.408835
0.246942
0.707366
0.700729
0.669406
0.315099
0.705966
0.316726
0.393084
0.701484
0.329204
0.700515
0.702693
1.13157
0.697655
0.30385
1.13166
0.691649
1.14286
0.701877
0.316683
0.314609
0.326998
0.629531
0.405253
0.36113
0.336531
0.340571
0.708928
0.261312
0.706531
0.702123
0.318501
0.321179
0.316943
0.430985
0.347667
0.659143
0.657951
0.708002
0.328708
0.699112
0.539427
0.317285
0.32263
0.738347
0.705112
0.698992
0.319393
0.687046
0.449653
0.706497
0.702607
0.702275
0.702622
0.326333
0.699903
0.292029
0.697476
0.70075
0.653006
0.326949
0.332449
0.701872
0.31579
0.703636
0.701443
0.398688
0.681162
0.699586
0.316603
0.708392
0.701202
0.279362
0.702646
0.383224
0.524972
0.70436
0.396151
0.673769
0.314249
0.696411
0.337128
1.05047
0.692137
0.700761
0.343572
0.359698
0.713626
0.349836
0.706338
0.709826
0.410451
1.13143
0.323705
0.396049
0.707543
0.511257
0.672157
0.314358
0.327004
0.702078
0.702094
0.338921
0.702342
0.317145
0.294828
0.701157
0.704142
0.528093
0.364896
0.702244
1.13609
0.693291
0.708031
0.701816
0.509295
0.343563
0.273089
0.327729
0.688479
0.32954
0.565692
0.396345
0.312107
0.354548
0.534848
0.12425
0.342865
0.71271
0.305162
0.700625
0.574596
0.706269
0.651443
0.702309
0.393477
0.315494
0.444794
0.404057
0.707461
0.599062
0.705377
0.574229
0.683649
0.626164
0.700225
0.646593
0.641552
0.703645
0.689866
0.67959
0.414055
0.491013
0.59386
0.391564
0.654668
0.582621
0.303522
0.699956
1.13128
0.328054
0.321443
0.33062
0.321285
0.597634
0.357313
0.323885
0.699642
0.31444
0.545811
0.346319
0.694702
0.693451
0.347917
0.365562
0.707629
0.427349
0.353071
0.320872
0.357863
0.337036
0.31615
0.322683
0.38352
0.397701
0.32594
0.6762
0.359393
0.712493
0.443386
0.304261
0.450894
0.304053
0.346774
0.305311
0.70209
0.406812
0.616571
0.530844
0.315038
0.615937
0.704728
0.393877
0.680525
0.631558
0.633035
0.316774
1.13626
0.385318
0.700214
1.13214
0.335179
0.284359
0.710376
0.407336
0.395096
0.695215
0.352213
0.670797
0.686507
0.322122
0.371392
0.329476
0.483704
0.324906
0.252707
0.335273
0.294357
0.701541
0.701006
0.436375
0.57786
0.443585
0.70538
0.36663
0.35663
0.544144
0.33571
0.70802
0.328187
0.368279
0.453606
0.708531
0.701737
0.519228
0.399881
0.290269
0.51671
0.702829
1.12777
0.514021
0.695358
0.705951
0.326352
0.69198
0.538709
0.655508
0.348295
0.348602
0.685261
0.700933
0.649473
0.701298
0.714193
0.703626
0.697171
0.65303
0.706078
0.346301
0.709146
0.324282
0.266295
0.335168
0.700804
0.708279
0.324772
0.714549
0.585433
0.328358
1.06514
0.705517
0.701941
0.343515
0.357189
0.705278
0.356786
0.354318
0.293313
0.327334
0.708173
0.264492
0.700405
0.365762
0.693074
0.702049
0.69965
0.702085
0.357965
0.325192
0.708116
0.703503
0.669755
0.7016
0.701695
0.439437
0.316618
0.337191
0.697664
0.531438
0.33122
0.426742
0.309612
0.703862
0.70005
0.345174
0.383715
0.714746
0.402568
0.71199
0.636555
0.334459
0.363278
0.66815
1.13255
0.331378
0.701619
0.702895
0.708167
0.359693
1.13852
0.333432
1.13901
0.653685
0.366117
0.374708
0.367387
1.14563
0.33819
0.322693
0.388047
0.94438
0.704359
0.323321
0.306559
0.335371
1.01944
0.400981
0.683637
0.30767
0.559246
0.701421
0.441408
0.326482
0.319975
0.441677
0.338228
0.701835
0.323357
0.370414
0.677128
0.307333
0.698397
0.701338
1.14062
0.347592
0.707909
0.700734
0.700762
0.698375
0.704533
0.700886
0.30432
1.13669
0.38713
0.708415
0.315964
0.703188
0.51779
0.331289
1.14629
0.70192
0.356044
0.644831
0.304759
0.350193
0.699549
0.701888
0.307035
0.306905
0.322297
0.302742
0.704074
0.699106
0.358602
0.32177
0.706262
0.701561
0.562406
0.700742
0.699397
0.321639
0.70078
0.399135
0.702166
0.393879
0.59238
0.432997
0.699805
0.67368
0.539341
0.36226
0.34166
0.700083
0.567588
0.582623
0.700625
0.272462
0.694077
0.701401
0.344597
0.488688
0.700895
0.393839
1.1456
0.657919
0.330821
0.701694
0.649652
0.360274
0.702421
0.325652
0.714364
0.345149
0.698506
0.692603
0.341662
0.878319
0.700354
0.704852
0.588778
0.697732
0.540313
0.361741
0.444363
0.30441
0.312711
1.13172
0.509687
0.701037
0.701629
0.341256
0.396746
0.701801
0.701202
0.707601
0.702743
0.321471
0.689696
0.701864
0.319769
0.297364
0.705903
0.707955
0.714787
0.298424
0.545234
0.347771
0.700771
0.70338
1.1215
0.702741
0.329425
0.705573
0.709269
0.700771
0.70172
0.705498
0.383532
0.702499
0.332365
0.678616
0.701612
0.420661
0.686662
1.10518
0.701898
0.458912
0.41498
0.543803
0.640932
0.355537
0.365988
0.328561
0.326957
0.692875
0.693047
1.11836
0.344929
0.324153
0.700901
0.672997
0.274013
0.391049
0.428266
0.675234
0.69961
0.708841
0.693156
0.332555
0.355989
1.13196
0.304458
0.332053
0.3338
0.698196
0.34729
0.35802
0.576772
0.708649
0.708453
0.693621
0.698636
0.315144
0.32848
0.328445
0.538549
0.407382
0.304516
0.670847
0.690774
0.709967
0.706698
0.300872
0.347912
0.701332
0.340592
0.704909
0.693473
1.13668
0.306919
0.358974
0.71388
1.14456
0.613775
0.271168
0.713047
0.680349
0.575145
0.70234
0.702776
1.13179
0.694066
0.322415
0.698401
1.14324
0.660864
0.700093
1.13188
0.71001
1.13627
0.701849
0.368896
0.381419
0.347597
1.13659
0.522313
0.342574
0.702282
0.705878
0.30215
0.648407
0.348563
0.655775
0.524636
0.319439
0.701253
0.697923
0.333435
0.501033
1.13596
0.330403
0.703703
0.311283
0.287924
0.623656
0.589899
0.450447
0.705523
0.331436
0.700211
0.377798
0.300396
0.698138
0.329959
0.606739
0.308596
0.649796
0.5922
1.13354
0.701787
0.295447
0.374609
0.678645
0.489513
0.70766
0.476857
0.600386
0.690785
0.700624
0.499194
0.579655
0.70617
0.700691
0.700069
0.339212
0.363501
0.495568
0.703419
0.70082
0.389592
0.70472
0.61628
0.443204
0.307034
0.655269
0.67511
1.13654
1.14559
0.691029
0.690232
0.837221
0.679462
0.306022
0.646685
0.426354
0.70201
0.708197
0.327801
0.704046
0.701931
0.390424
0.298803
0.316506
1.13171
0.321557
0.621096
0.703086
0.646814
0.30459
0.710317
0.310789
0.546538
1.00986
1.13019
0.668948
1.02267
0.604103
0.685496
0.543047
0.708402
0.344451
0.701074
0.699633
0.473882
1.13751
0.696218
0.328867
0.283586
0.332675
0.702034
0.365647
1.14269
0.328228
0.702949
0.290727
0.433516
0.306989
0.699831
0.702717
0.588079
0.262436
0.607026
0.779895
0.333036
0.563845
0.700903
0.304403
0.582365
1.14163
0.701531
0.705977
0.335002
0.51588
0.707163
0.706635
0.677111
0.360845
0.409297
0.711761
1.13144
1.13194
1.13158
0.581976
0.706236
0.577451
0.701929
0.360385
0.312369
1.13208
0.701865
0.884614
0.312581
0.701381
0.596335
0.623646
0.355712
0.38194
0.702347
0.701231
0.532772
0.415235
0.706381
1.13783
0.333017
0.592234
0.693029
0.335373
0.304153
0.294172
0.709311
0.388289
0.347483
0.709297
0.481496
0.700744
0.652693
0.332277
0.316592
0.701988
0.388136
0.36113
1.14372
0.295714
0.371267
0.586367
0.704682
0.707921
0.32533
0.350246
0.329717
0.701192
0.292766
0.707809
0.341084
0.703644
0.703951
0.709215
0.697837
0.703106
0.702528
0.699589
0.702045
0.707703
0.257622
0.332
0.696575
0.783843
0.454047
0.708585
0.543657
0.919093
0.662781
0.347411
0.700882
0.701035
0.709102
0.345317
0.705427
0.348955
0.707394
0.442279
0.69246
0.69983
0.322941
0.707135
0.332604
0.463185
0.69233
0.339232
0.674312
1.13246
0.703686
0.320624
0.699534
0.328239
0.306231
0.313198
0.34481
0.668986
0.323333
0.659633
1.06877
0.417129
0.324584
0.435444
0.543009
0.634198
0.683139
0.348113
0.314537
0.336982
0.307477
0.252624
0.63742
0.707062
0.344855
1.04871
0.703352
0.292334
0.700923
0.671209
1.02661
0.329513
1.14453
0.696451
0.703049
0.702855
0.330952
0.707763
0.702396
0.705896
0.653298
0.677471
0.351214
0.316215
0.707364
0.490478
0.361939
0.697653
0.31392
0.526709
0.639999
0.714272
0.714472
0.305065
0.708741
0.408994
0.346173
0.683846
0.705166
0.701271
0.702427
0.666092
0.306699
0.70211
0.310923
0.452282
0.702066
1.13195
0.707399
0.342204
0.312581
0.701765
0.322097
0.705754
0.630448
0.407942
0.366561
0.701404
0.308583
0.70155
0.706217
0.66973
0.30964
0.385607
0.4818
0.539634
0.628839
0.463748
0.690576
0.684845
0.709249
1.13171
0.703354
0.313072
0.37015
0.703584
0.679827
0.67471
0.417167
0.312294
0.689379
0.318775
0.699741
0.583736
0.34317
0.707483
0.321553
0.704357
0.347489
0.701503
0.304726
0.707955
0.675914
0.302548
0.70385
0.640865
0.30433
1.11578
0.706948
0.546786
0.303358
0.385793
0.465162
0.700799
0.689896
0.408194
0.541512
0.704427
0.676871
0.300315
0.631135
0.705645
0.397157
0.688669
0.697539
0.30879
0.7077
1.14473
0.346111
0.607097
0.322385
0.657933
0.326617
0.287414
0.700995
0.34982
0.337393
0.29863
0.699778
0.70047
0.424038
0.706158
0.381837
0.682529
0.329575
0.701227
0.395435
0.694729
0.707516
0.665801
1.1122
0.50388
0.674328
1.02748
0.344045
0.619094
0.666126
0.553908
0.703093
0.441503
0.437434
0.702107
0.328731
0.545944
0.349287
0.705204
0.259799
0.322013
0.697675
0.69914
0.322851
0.701849
0.689754
1.13175
0.702715
1.14404
0.323513
0.700958
0.327562
0.328536
0.70225
0.694971
0.702782
0.713522
0.304538
0.331694
0.332626
0.697081
1.07137
0.383422
0.704594
0.311725
0.325157
0.355484
0.706434
0.391455
0.701989
0.707651
0.615695
0.701745
0.707737
0.58627
0.666478
0.393742
0.303978
0.323751
1.14448
1.1449
0.311914
0.638169
0.709319
0.665345
0.334516
0.461792
0.684931
0.29561
0.682746
0.65814
0.330117
0.760828
0.694608
0.34593
0.708044
0.35516
0.700752
0.700551
0.704026
0.312656
0.416473
0.673527
0.317498
0.387857
0.700974
0.334365
0.705754
0.69993
0.699866
0.689566
0.350246
1.14678
0.683265
0.706643
0.350598
0.70226
0.379755
0.301929
0.711682
0.699838
1.06282
0.24462
0.698424
0.614285
1.1318
0.314105
0.315939
0.356653
0.701895
0.333573
0.319199
0.358612
0.656314
0.347478
0.330059
0.397217
0.707812
0.336061
1.11976
0.900334
0.702181
0.320481
0.707872
0.648954
1.05576
0.38484
0.651583
0.3405
0.329945
0.699237
0.322359
0.641325
0.70253
1.13257
0.336108
0.33527
0.355129
0.514821
1.13565
0.251334
0.709635
0.699743
0.692077
0.331973
0.310686
0.340527
0.695704
0.339184
1.13195
0.573904
0.783469
0.711275
0.31739
0.644949
0.304551
0.658012
0.632668
0.701215
0.64157
0.556019
0.655111
0.675038
0.702691
0.324549
0.423884
0.314745
0.691466
0.533443
1.13171
0.33493
0.391194
0.700796
0.707816
1.1392
0.323243
0.702554
0.513157
0.51894
0.690504
0.337385
0.323931
0.315502
0.700096
1.08748
0.650729
0.706383
0.341828
0.703666
0.646359
1.08399
1.09002
0.703629
0.70109
0.677493
0.697198
0.701172
0.335609
0.705781
0.702329
0.695542
0.706368
0.69988
0.628265
0.328845
0.297444
0.665753
0.359752
0.377304
0.702994
0.357588
0.615158
0.700411
0.695026
0.709227
0.332341
0.703277
0.314451
0.311382
0.6895
0.707019
0.706555
0.321207
0.702329
0.705578
0.674288
0.698822
0.385749
0.693433
0.701717
0.692071
0.436462
0.696856
0.323721
0.700343
0.344621
0.330497
0.593795
0.422107
0.701303
0.699108
0.705779
0.36612
0.686269
0.429949
0.344479
0.70968
0.435715
0.35529
0.704453
0.288228
0.46187
0.665173
0.688863
0.713367
0.438499
0.558315
0.65423
0.701574
0.629122
0.70131
0.491885
0.702752
0.705515
0.646398
0.299734
0.321079
0.417875
0.702463
0.329769
0.656967
0.701994
0.604911
0.701668
0.577331
0.675947
0.681142
0.332935
0.701785
0.709766
0.563192
0.708563
0.702005
0.701825
0.717331
0.332873
0.373588
0.708113
0.539152
0.583721
0.701578
0.707465
0.706717
0.701034
0.700747
0.625853
0.686417
0.701049
0.318862
0.299654
0.270377
0.348873
1.13225
0.443751
0.574507
0.707571
0.685812
0.332315
0.709119
0.700879
0.320744
0.372621
1.14279
0.702604
0.338729
0.297618
0.295247
1.13193
0.702162
0.446938
0.316703
0.328097
0.286564
0.389645
0.363064
0.703385
0.707562
0.699145
0.326209
0.696347
0.623696
0.577343
0.36911
0.319625
0.707888
1.13491
0.351875
0.69227
0.344011
0.697991
0.335526
0.702452
0.320566
0.710391
0.702403
0.321579
0.520998
0.34475
0.700897
0.299262
0.628454
0.311048
0.505818
0.342308
0.625115
0.333794
1.12288
1.13762
0.577515
0.702423
0.3719
0.702175
0.776856
0.702398
0.620391
0.683171
0.32053
0.459751
0.312845
0.701007
0.304912
0.701934
0.512128
0.693935
0.70162
0.518505
0.703079
0.349556
0.311536
0.326898
0.498805
0.597597
0.707756
0.329966
0.360373
0.697357
0.353621
0.307037
0.619964
0.374183
0.355263
0.296696
0.702644
0.638124
0.63154
0.320315
0.699486
0.700371
0.302364
0.318779
0.710342
0.697926
0.655445
0.467308
0.371878
0.349555
0.338681
0.704223
0.67022
0.535924
0.681803
0.277715
0.575616
0.320018
1.14626
0.701962
0.323094
0.317858
0.670251
0.615151
0.702063
0.701234
0.70098
0.702594
0.701997
0.346629
0.390617
0.317791
0.317117
0.594108
1.13585
0.639846
0.320462
0.339328
0.474969
0.304017
0.706519
0.687181
0.340214
0.347444
0.699942
0.332657
0.654431
0.70071
0.702357
0.681908
0.598643
0.353032
0.31885
0.689804
0.324402
0.452515
0.420886
0.783247
0.701076
0.288849
0.330718
1.13171
0.332438
0.700183
0.701152
0.341795
0.389443
0.272966
0.704052
0.316109
1.13215
0.699215
0.610338
0.299493
0.487211
0.70428
0.710342
0.32763
0.709455
0.663538
0.304687
0.706659
0.702124
0.338667
0.355484
0.713873
0.332701
0.316779
0.704675
0.331997
0.707374
0.6753
0.700976
0.658588
0.701837
0.699749
0.691212
0.333507
0.377569
0.672728
0.708074
0.414147
0.701077
0.359121
0.701751
0.713975
0.560602
0.647971
0.459441
0.429204
0.709032
0.703225
0.707023
0.702498
0.700271
1.1373
0.702736
1.13171
0.704524
0.707971
0.703747
1.13523
0.67516
0.304613
0.700748
0.343167
0.701335
0.704671
0.698528
0.700781
0.68791
0.385615
0.352642
0.32658
0.327141
0.699915
0.319055
0.334059
0.689353
0.298659
0.696795
0.337149
0.705803
0.707728
0.349863
0.354306
0.342065
0.702406
0.328394
0.70784
0.706892
0.356735
0.708896
0.522785
0.352907
0.342474
0.30214
0.6832
0.357407
0.701911
0.574924
0.352262
0.70311
0.705119
0.700894
0.344191
0.580607
0.308377
0.696971
0.707308
0.70025
0.363254
0.707882
0.701818
0.708421
0.401724
0.702399
0.351729
0.327016
0.702599
0.438571
0.701259
0.453963
0.36075
0.40256
0.708606
0.339266
0.305159
0.346257
0.525275
1.14248
0.707674
0.291404
0.618655
0.704003
0.512803
0.475004
0.350807
0.525045
0.362038
0.322718
0.70858
0.328608
0.344006
0.701975
0.701236
0.328248
0.693298
0.350632
1.13978
0.345131
0.705235
1.14001
0.689643
0.825289
0.386437
0.322878
0.309568
0.680663
0.713759
0.555172
0.523157
0.348584
0.316236
0.702001
0.331295
0.707357
0.358004
1.12594
0.672759
0.319961
0.339845
0.328381
0.329961
0.340927
0.672442
0.698969
0.321223
0.707764
0.641255
0.35865
0.325008
0.700895
0.352231
0.707753
0.388133
0.690453
0.65254
0.707921
1.14486
0.363851
0.700808
0.701529
0.702481
0.351265
0.686503
0.566763
0.371552
0.702386
0.666482
0.70324
0.70169
0.701948
0.702969
0.702671
0.696249
0.706654
0.346829
0.70067
0.32861
0.484122
0.701071
0.309638
0.711507
0.699632
0.354659
0.70769
0.352293
0.304795
0.702763
0.694319
0.70136
0.327562
0.702407
0.604645
0.344988
0.324176
0.703372
0.700201
0.370117
0.361742
0.7017
0.701039
0.3627
0.644892
0.702245
0.639242
0.317563
0.349582
0.305421
0.652479
0.307603
0.70922
0.690742
0.703307
0.628565
0.707723
0.328906
0.714096
0.589741
0.702359
0.640963
0.322675
0.332588
0.26342
0.699213
0.707223
0.385143
0.65072
0.351117
0.668146
0.70114
0.263706
0.661366
0.709397
0.629068
0.32463
0.314629
0.348021
0.706613
0.701362
0.601888
0.467475
0.707654
0.349223
0.631697
1.13172
0.707573
0.3238
0.600947
0.354925
0.701552
0.290356
0.708552
0.703249
0.317447
0.706542
0.485818
1.13405
0.651688
1.13191
0.702095
0.435149
0.700283
0.705862
0.700773
0.70832
0.42749
1.13179
0.257333
0.706265
0.24778
0.330964
0.28052
0.340171
0.359503
0.323289
0.702069
0.351313
0.330171
0.663924
0.706116
0.700014
0.442077
0.685794
0.680583
0.684807
0.306896
0.64202
0.699861
0.40496
0.351231
0.32293
0.631672
0.457815
0.340899
0.635342
0.301814
1.14556
0.452273
0.315249
0.4289
0.647527
0.342271
0.700184
0.293013
0.546114
0.368189
0.704083
0.381017
0.663969
1.13175
0.711329
0.473602
0.326455
0.704292
0.701128
0.360812
0.306321
0.686835
0.328872
0.695886
0.32718
0.522267
0.272773
0.69975
0.396316
0.701642
0.328909
0.701407
0.707733
0.70269
1.13496
0.26343
0.320666
0.441785
0.70308
0.688048
0.707935
0.601709
0.365233
0.703573
0.348911
0.713951
0.685466
0.443224
0.362171
0.700734
0.708421
0.309264
1.13407
0.703943
0.701133
0.700906
0.295793
0.633313
0.335087
0.701298
0.299141
0.99866
0.711897
0.704665
0.70188
0.355228
0.701459
0.347402
0.341374
0.699922
1.13497
0.544152
0.708449
1.1313
0.34944
0.695792
0.704054
0.702754
0.30654
0.413445
0.680324
0.318827
0.702071
0.702676
0.711393
0.703765
0.29501
0.466282
0.642849
0.317919
0.714675
0.700659
0.483612
0.702366
0.26859
0.687526
0.69648
0.670174
0.703496
0.313744
0.326107
0.707801
0.708922
0.359575
0.374065
0.397005
0.327185
0.320438
0.303781
0.346802
0.360796
0.708101
0.250825
0.317687
0.701375
0.547328
1.13164
0.386843
0.333304
0.703421
0.467004
0.537028
0.701425
0.375996
0.649888
1.11738
0.584054
0.700969
0.329913
0.707695
0.935471
0.359194
0.326033
0.442449
0.699895
0.586069
0.701954
0.695571
0.707693
0.702061
0.448726
0.707454
0.831882
0.704356
0.330792
0.699856
0.663964
0.427964
0.409905
0.271876
0.307053
0.298491
0.588457
0.666462
0.697263
0.32371
0.358428
0.702356
0.302024
0.706137
0.705921
0.710752
0.670087
0.707768
0.4061
0.307492
0.299715
0.588408
0.301172
0.707251
0.2971
0.699249
0.687674
0.706638
0.35109
0.457583
0.426123
0.707731
0.362499
0.321524
0.703304
0.701776
0.648604
0.69259
0.703712
0.695411
0.360933
0.601322
0.70158
0.484276
0.707743
0.705417
0.698493
0.401809
0.385404
0.702726
0.449173
0.63358
0.336839
0.689237
0.71293
0.439949
0.310803
0.694145
0.487865
0.702371
0.705867
0.358629
0.321334
1.14505
0.467137
0.444153
0.712563
0.703009
0.350431
0.71083
1.13771
0.69996
0.364392
0.587106
0.356164
0.704053
0.702
0.695932
0.693758
1.14625
0.338639
0.38147
0.702835
0.337785
0.578689
0.34779
0.70782
0.303928
0.652371
0.701429
1.1459
0.363575
1.13176
1.14084
0.318816
0.68789
0.301444
0.702653
0.358494
0.319615
0.293386
0.69327
0.708391
0.327324
0.327958
0.699212
0.702057
0.434368
0.688566
0.359024
0.529612
0.332757
0.701377
0.321269
0.666245
0.703082
0.343285
0.466274
0.319867
1.1022
0.356475