# vtk DataFile Version 1.0
unstructured grid
ascii
DATASET UNSTRUCTURED_GRID
points 13672 float
0.0796578 -0.059106 0
0.00128732 0.00159165 0
0.00227961 -0.00102548 0
0.0791586 -0.0598787 0
-0.0546216 0.01 0
0.000495206 0.025 0
0.0800549 -0.035 0
0.135172 -0.08 0
-0.0546216 -0.0451168 0
0.000495206 -0.0301168 0
0.0800549 -0.0901168 0
0.135172 -0.135117 0
-0.0546216 -0.0451168 -0.00551168
0.000495206 -0.0301168 -0.00551168
0.0800549 -0.0901168 -0.00551168
0.135172 -0.135117 -0.00551168
0.135172 -0.08 -0.00551168
0.0800549 -0.035 -0.00551168
0.000495206 0.025 -0.00551168
-0.0546216 0.01 -0.00551168
0.00128732 0.00159165 -0.00551168
0.00227961 -0.00102548 -0.00551168
0.0791586 -0.0598787 -0.00551168
0.0796578 -0.059106 -0.00551168
0.00165953 -0.000990923 0
0.00119576 -0.000874076 0
0.000866021 -0.000641801 0
0.000645147 -0.000349912 0
0.00052235 -1.7281e-05 0
0.00049972 0.000348016 0
0.000601632 0.000737716 0
0.000861774 0.0011403 0
0.00157235 0.00183217 0
0.00188647 0.00206725 0
0.00222612 0.00230203 0
0.00258713 0.00254351 0
0.00296826 0.00279524 0
0.00337118 0.00305664 0
0.00379785 0.00332658 0
0.00425045 0.00360349 0
0.00473139 0.00388521 0
0.0052432 0.00416895 0
0.0057881 0.00445204 0
0.00636753 0.00473281 0
0.00698281 0.00500961 0
0.00763526 0.00528058 0
0.00832616 0.00554366 0
0.00905691 0.00579603 0
0.00982918 0.00603333 0
0.0106445 0.00625033 0
0.0115038 0.00644128 0
0.0124073 0.00660297 0
0.0133543 0.00673414 0
0.0143444 0.00683382 0
0.0153769 0.00690031 0
0.0164512 0.00693173 0
0.0175666 0.00692547 0
0.0187219 0.00687822 0
0.0199156 0.00678477 0
0.0211454 0.00663864 0
0.0224084 0.00643275 0
0.0237018 0.00616676 0
0.0250249 0.00584739 0
0.026375 0.00547298 0
0.0277479 0.00503752 0
0.0291386 0.00453545 0
0.0305433 0.0039653 0
0.0319572 0.0033256 0
0.0333681 0.00260019 0
0.034775 0.00179799 0
0.0361793 0.000930615 0
0.0375798 3.12222e-06 0
0.0389689 -0.000988429 0
0.0403357 -0.00205109 0
0.041675 -0.00318283 0
0.0429849 -0.00437751 0
0.0442643 -0.00562904 0
0.0455126 -0.00693089 0
0.0467314 -0.00827518 0
0.0479204 -0.00965638 0
0.0490661 -0.0110799 0
0.0501515 -0.0125519 0
0.0511696 -0.0140695 0
0.0521492 -0.0156071 0
0.0531202 -0.0171411 0
0.0540851 -0.0186663 0
0.0550431 -0.0201798 0
0.0559923 -0.0216793 0
0.0569311 -0.0231626 0
0.0578582 -0.0246273 0
0.0587723 -0.0260715 0
0.0596721 -0.027493 0
0.0605563 -0.02889 0
0.0614241 -0.0302609 0
0.0622742 -0.0316042 0
0.063106 -0.0329183 0
0.0639186 -0.034202 0
0.0647113 -0.0354543 0
0.0654835 -0.0366743 0
0.0662345 -0.0378613 0
0.0669642 -0.0390145 0
0.0676726 -0.0401333 0
0.0683597 -0.0412172 0
0.0690246 -0.0422665 0
0.0696662 -0.0432819 0
0.0702841 -0.0442636 0
0.0708793 -0.0452111 0
0.0714538 -0.0461237 0
0.072009 -0.047001 0
0.0725452 -0.0478434 0
0.0730611 -0.0486524 0
0.073556 -0.0494294 0
0.0740291 -0.0501756 0
0.0744812 -0.0508916 0
0.0749138 -0.0515773 0
0.0753285 -0.0522331 0
0.0757266 -0.0528592 0
0.076109 -0.0534564 0
0.0764753 -0.0540264 0
0.0768243 -0.054571 0
0.0771553 -0.0550919 0
0.0774679 -0.0555901 0
0.0777617 -0.0560669 0
0.0780369 -0.056523 0
0.0782958 -0.0569578 0
0.0785421 -0.0573703 0
0.0787786 -0.0577603 0
0.0790073 -0.0581279 0
0.0792295 -0.058474 0
0.0794462 -0.0587995 0
0.0798803 -0.0594162 0
0.0800272 -0.0596588 0
0.0800357 -0.0598891 0
0.0799275 -0.0600784 0
0.0797205 -0.0601773 0
0.0794593 -0.0601051 0
0.0789155 -0.0596491 0
0.0786707 -0.0593963 0
0.0784111 -0.0591319 0
0.0781372 -0.0588542 0
0.0778566 -0.0585548 0
0.0775715 -0.0582308 0
0.0772803 -0.0578828 0
0.0769832 -0.0575099 0
0.0766822 -0.0571097 0
0.0763801 -0.0566796 0
0.0760759 -0.0562196 0
0.0757623 -0.0557337 0
0.0754359 -0.0552232 0
0.0750951 -0.0546879 0
0.0747379 -0.054128 0
0.0743626 -0.0535435 0
0.0739688 -0.0529338 0
0.0735559 -0.0522981 0
0.0731238 -0.0516357 0
0.0726718 -0.050946 0
0.0721991 -0.0502288 0
0.0717046 -0.049484 0
0.0711872 -0.0487117 0
0.0706461 -0.047912 0
0.0700804 -0.0470849 0
0.0694892 -0.0462308 0
0.0688718 -0.0453499 0
0.0682271 -0.0444431 0
0.0675544 -0.043511 0
0.0668527 -0.0425546 0
0.0661215 -0.0415748 0
0.06536 -0.040573 0
0.0645676 -0.0395504 0
0.0637439 -0.0385087 0
0.0628887 -0.0374493 0
0.062002 -0.0363741 0
0.0610838 -0.0352847 0
0.0601345 -0.0341831 0
0.0591547 -0.033071 0
0.0581456 -0.0319502 0
0.0571083 -0.0308224 0
0.0560444 -0.0296893 0
0.0549562 -0.028552 0
0.053845 -0.0274126 0
0.0527113 -0.0262746 0
0.051554 -0.0251427 0
0.0503724 -0.0240222 0
0.0491675 -0.0229164 0
0.047941 -0.0218282 0
0.0466955 -0.0207597 0
0.0454337 -0.0197126 0
0.0441592 -0.0186878 0
0.0428751 -0.0176863 0
0.0415841 -0.0167097 0
0.0402878 -0.0157609 0
0.0389879 -0.0148428 0
0.0376864 -0.0139575 0
0.0363853 -0.013107 0
0.0350871 -0.0122931 0
0.0337942 -0.0115164 0
0.0325095 -0.0107772 0
0.0312357 -0.0100756 0
0.0299758 -0.00941024 0
0.0287337 -0.00877784 0
0.0275126 -0.00817571 0
0.0263139 -0.00760375 0
0.0251376 -0.00706528 0
0.0239829 -0.0065649 0
0.0228537 -0.00609619 0
0.0217522 -0.00565563 0
0.0206795 -0.00524226 0
0.0196364 -0.00485507 0
0.0186233 -0.00449318 0
0.0176408 -0.00415577 0
0.016689 -0.00384204 0
0.0157682 -0.00355115 0
0.0148783 -0.00328218 0
0.0140192 -0.00303468 0
0.0131906 -0.00280795 0
0.0123925 -0.00260016 0
0.0116246 -0.00241012 0
0.0108864 -0.00223769 0
0.0101774 -0.00208212 0
0.00949701 -0.00194206 0
0.00884483 -0.0018163 0
0.0082202 -0.0017039 0
0.00762247 -0.00160391 0
0.00705097 -0.00151528 0
0.006505 -0.00143697 0
0.0059838 -0.00136806 0
0.00548662 -0.00130772 0
0.00501265 -0.00125519 0
0.00456114 -0.00120954 0
0.00413136 -0.00116914 0
0.00372257 -0.00113251 0
0.00333398 -0.00109853 0
0.00296466 -0.00106798 0
0.00261363 -0.0010431 0
-0.052721 -0.0445996 0
-0.0508204 -0.0440823 0
-0.0489199 -0.0435651 0
-0.0470193 -0.0430478 0
-0.0451187 -0.0425306 0
-0.0432181 -0.0420134 0
-0.0413175 -0.0414961 0
-0.039417 -0.0409789 0
-0.0375164 -0.0404616 0
-0.0356158 -0.0399444 0
-0.0337152 -0.0394271 0
-0.0318146 -0.0389099 0
-0.0299141 -0.0383927 0
-0.0280135 -0.0378754 0
-0.0261129 -0.0373582 0
-0.0242123 -0.0368409 0
-0.0223117 -0.0363237 0
-0.0204112 -0.0358065 0
-0.0185106 -0.0352892 0
-0.01661 -0.034772 0
-0.0147094 -0.0342547 0
-0.0128088 -0.0337375 0
-0.0109083 -0.0332202 0
-0.00900769 -0.032703 0
-0.00710711 -0.0321858 0
-0.00520653 -0.0316685 0
-0.00330595 -0.0311513 0
-0.00140537 -0.030634 0
0.00190689 -0.0299614 0
0.00332271 -0.0298498 0
0.00474133 -0.0297825 0
0.00616136 -0.0297597 0
0.0075814 -0.0297814 0
0.00900007 -0.0298477 0
0.010416 -0.0299583 0
0.0118278 -0.0301127 0
0.0132342 -0.0303103 0
0.0146339 -0.0305504 0
0.0160259 -0.0308322 0
0.0174091 -0.0311546 0
0.0187824 -0.0315166 0
0.020145 -0.031917 0
0.0214961 -0.0323546 0
0.0228351 -0.032828 0
0.0241613 -0.0333361 0
0.0254744 -0.0338774 0
0.0267738 -0.0344507 0
0.0280592 -0.0350545 0
0.0293306 -0.0356877 0
0.0305875 -0.0363488 0
0.0318301 -0.0370367 0
0.0330581 -0.0377501 0
0.0342717 -0.0384879 0
0.0354708 -0.0392489 0
0.0366556 -0.0400321 0
0.0378262 -0.0408363 0
0.0389828 -0.0416607 0
0.0401254 -0.0425042 0
0.0412543 -0.0433659 0
0.0423698 -0.0442451 0
0.043472 -0.0451408 0
0.0445612 -0.0460523 0
0.0456375 -0.0469789 0
0.0467013 -0.0479199 0
0.0477529 -0.0488746 0
0.0487923 -0.0498424 0
0.04982 -0.0508227 0
0.0508362 -0.051815 0
0.051841 -0.0528187 0
0.0528348 -0.0538333 0
0.0538178 -0.0548584 0
0.0547903 -0.0558935 0
0.0557524 -0.0569382 0
0.0567045 -0.0579922 0
0.0576467 -0.0590549 0
0.0585792 -0.0601261 0
0.0595024 -0.0612055 0
0.0604163 -0.0622926 0
0.0613212 -0.0633873 0
0.0622174 -0.0644891 0
0.0631049 -0.0655979 0
0.0639841 -0.0667134 0
0.064855 -0.0678353 0
0.0657179 -0.0689633 0
0.0665729 -0.0700974 0
0.0674202 -0.0712372 0
0.06826 -0.0723826 0
0.0690925 -0.0735333 0
0.0699178 -0.0746892 0
0.070736 -0.0758501 0
0.0715473 -0.0770159 0
0.0723518 -0.0781863 0
0.0731498 -0.0793612 0
0.0739412 -0.0805405 0
0.0747264 -0.081724 0
0.0755053 -0.0829116 0
0.0762781 -0.0841033 0
0.0770449 -0.0852987 0
0.0778059 -0.0864979 0
0.0785611 -0.0877007 0
0.0793108 -0.088907 0
0.0814681 -0.0912706 0
0.0828814 -0.0924245 0
0.0842946 -0.0935783 0
0.0857079 -0.0947322 0
0.0871211 -0.095886 0
0.0885344 -0.0970399 0
0.0899476 -0.0981937 0
0.0913609 -0.0993476 0
0.0927741 -0.100501 0
0.0941874 -0.101655 0
0.0956006 -0.102809 0
0.0970139 -0.103963 0
0.0984272 -0.105117 0
0.0998404 -0.106271 0
0.101254 -0.107424 0
0.102667 -0.108578 0
0.10408 -0.109732 0
0.105493 -0.110886 0
0.106907 -0.11204 0
0.10832 -0.113194 0
0.109733 -0.114348 0
0.111146 -0.115501 0
0.11256 -0.116655 0
0.113973 -0.117809 0
0.115386 -0.118963 0
0.116799 -0.120117 0
0.118213 -0.121271 0
0.119626 -0.122424 0
0.121039 -0.123578 0
0.122452 -0.124732 0
0.123866 -0.125886 0
0.125279 -0.12704 0
0.126692 -0.128194 0
0.128105 -0.129348 0
0.129519 -0.130501 0
0.130932 -0.131655 0
0.132345 -0.132809 0
0.133758 -0.133963 0
0.135172 -0.133216 0
0.135172 -0.131316 0
0.135172 -0.129415 0
0.135172 -0.127514 0
0.135172 -0.125614 0
0.135172 -0.123713 0
0.135172 -0.121813 0
0.135172 -0.119912 0
0.135172 -0.118012 0
0.135172 -0.116111 0
0.135172 -0.11421 0
0.135172 -0.11231 0
0.135172 -0.110409 0
0.135172 -0.108509 0
0.135172 -0.106608 0
0.135172 -0.104708 0
0.135172 -0.102807 0
0.135172 -0.100906 0
0.135172 -0.0990058 0
0.135172 -0.0971052 0
0.135172 -0.0952046 0
0.135172 -0.0933041 0
0.135172 -0.0914035 0
0.135172 -0.0895029 0
0.135172 -0.0876023 0
0.135172 -0.0857017 0
0.135172 -0.0838012 0
0.135172 -0.0819006 0
0.133758 -0.0788462 0
0.132345 -0.0776923 0
0.130932 -0.0765385 0
0.129519 -0.0753846 0
0.128105 -0.0742308 0
0.126692 -0.0730769 0
0.125279 -0.0719231 0
0.123866 -0.0707692 0
0.122452 -0.0696154 0
0.121039 -0.0684615 0
0.119626 -0.0673077 0
0.118213 -0.0661538 0
0.116799 -0.065 0
0.115386 -0.0638462 0
0.113973 -0.0626923 0
0.11256 -0.0615385 0
0.111146 -0.0603846 0
0.109733 -0.0592308 0
0.10832 -0.0580769 0
0.106907 -0.0569231 0
0.105493 -0.0557692 0
0.10408 -0.0546154 0
0.102667 -0.0534615 0
0.101254 -0.0523077 0
0.0998404 -0.0511538 0
0.0984272 -0.05 0
0.0970139 -0.0488462 0
0.0956006 -0.0476923 0
[...]
CELL_DATA 13116
SCALARS rho float
LOOKUP_TABLE default
0.632692
0.698908
0.329697
0.700604
0.700493
0.696496
0.327697
0.701623
0.603453
0.701112
0.334054
0.29329
0.700465
0.311675
0.310105
0.696341
0.626021
0.701721
0.692747
0.350708
0.633182
0.322446
0.315049
0.701363
0.649586
0.700306
0.701185
0.326026
0.639316
0.687984
1.13901
0.295386
0.613383
0.451915
0.326624
0.631967
0.70713
0.698875
0.67519
0.699613
0.692342
0.7017
0.475453
0.333932
0.693252
0.692491
0.702938
0.69257
0.311161
0.601009
0.700416
0.471502
0.320367
0.6191
0.615098
0.635661
0.33434
0.701797
0.600227
0.302477
0.313572
0.700388
0.702319
0.701486
1.13084
0.333634
0.697015
0.704631
0.697672
1.1054
0.311934
0.625932
0.325257
0.332084
1.1447
0.333642
0.712059
0.700535
0.333722
0.70207
0.706185
0.700711
0.701796
0.692867
0.700792
0.446463
0.33271
0.699781
0.700895
0.351194
0.297346
0.698538
0.701871
0.700735
0.695917
0.652072
0.651907
1.14613
1.1446
0.635721
0.703517
0.694929
0.692504
0.421936
0.702136
0.27782
0.361657
0.520237
0.324604
0.648731
0.565792
0.700791
0.649204
0.705149
0.702045
0.697983
0.327865
0.388089
0.700249
0.698881
0.704103
0.328042
0.697717
0.296666
0.701453
0.432255
0.331287
0.599044
0.32802
0.600955
0.700093
0.705286
0.54149
0.316613
0.448305
0.669115
1.12988
0.698814
0.70266
0.69894
0.7003
0.702912
0.599937
0.700106
0.701431
0.286439
0.327592
0.700322
0.700934
0.700524
0.594225
0.692276
0.692468
0.335579
0.700779
0.700617
0.313766
0.704665
1.14635
0.699092
0.70166
0.333894
0.701646
0.317324
0.329233
0.700327
0.70136
0.701966
0.326894
0.41653
0.399041
1.13036
0.308278
0.477153
0.697974
0.3132
0.317336
0.324488
0.700743
0.692096
0.346893
0.417667
0.601652
0.706399
0.692251
0.600911
0.341386
0.699465
0.699815
0.454508
0.703309
0.700283
1.06391
0.30732
0.700443
0.692067
0.701426
0.698896
0.701038
0.38546
0.423476
0.653948
0.582974
0.325569
0.701556
0.694659
0.479038
0.658003
0.293748
0.339481
0.334844
0.695098
0.313505
0.352748
0.346022
0.335551
0.378792
0.679459
0.701534
0.435056
0.335287
0.696599
0.55767
0.346521
0.591539
0.700721
0.701541
0.32619
0.697664
0.400183
0.702867
0.296394
1.06037
0.61675
1.14343
0.700644
0.963941
0.296966
0.42802
0.697671
1.14628
0.691763
1.13004
0.909468
0.701641
0.317493
0.699828
0.700625
1.14328
0.332166
0.312476
0.69324
0.699983
1.11578
0.701979
0.622798
0.705011
0.334831
0.312836
0.388882
0.29081
0.700649
0.701434
0.710347
0.335401
0.701228
0.341924
0.393626
0.702331
0.3364
0.700533
0.700681
1.1457
0.701856
0.297377
1.14545
0.704497
1.14291
0.698631
0.336972
0.339601
0.309036
0.665427
0.327419
0.320252
0.345834
0.344252
0.700565
0.315116
0.700672
0.700325
0.345765
0.3503
0.342535
0.433925
0.328024
0.699247
0.683157
0.70055
0.337059
0.693208
0.615566
0.32427
0.304162
0.681183
0.699878
0.697891
0.341222
0.692619
0.431322
0.705856
0.7014
0.700172
0.701272
0.30805
0.697207
0.303612
0.698502
0.700492
0.694932
0.35134
0.342961
0.700619
0.340343
0.702259
0.700357
0.366214
0.704469
0.701763
0.343052
0.701389
0.701919
0.278432
0.699855
0.437765
0.603804
0.702907
0.449994
0.704667
0.3368
0.701869
0.374463
0.793249
0.700108
0.701324
0.325244
0.369304
0.700689
0.33462
0.701174
0.700095
0.412036
1.13794
0.339523
0.325276
0.701701
0.594395
0.705575
0.33821
0.315308
0.699795
0.700282
0.329122
0.700657
0.324619
0.275982
0.698802
0.70239
0.534482
0.363289
0.698903
1.13816
0.696035
0.700614
0.702051
0.596143
0.336032
0.298086
0.347692
0.695769
0.347594
0.598929
0.36962
0.302532
0.365297
0.544773
0.140379
0.335503
0.701161
0.318045
0.701654
0.639798
0.692707
0.693879
0.699901
0.32558
0.341611
0.39067
0.341193
0.702044
0.647076
0.692462
0.640504
0.701158
0.670294
0.700656
0.694858
0.686544
0.702156
0.702225
0.694278
0.392576
0.479296
0.628125
0.322007
0.681424
0.635806
0.322381
0.697657
1.14592
0.30853
0.35057
0.349612
0.341853
0.660031
0.320315
0.307595
0.695142
0.337485
0.618366
0.355703
0.69768
0.708231
0.328898
0.317738
0.701953
0.430839
0.361464
0.342744
0.353743
0.323447
0.343039
0.351819
0.325665
0.396968
0.340348
0.693965
0.332599
0.700658
0.369098
0.295434
0.524889
0.272014
0.349434
0.280633
0.699293
0.412412
0.670418
0.537021
0.337554
0.661457
0.700842
0.440003
0.704369
0.674088
0.676158
0.345599
1.14723
0.389119
0.702036
1.14326
0.316799
0.315975
0.699803
0.345209
0.448159
0.70112
0.362596
0.704528
0.701716
0.348827
0.317358
0.311321
0.467545
0.304876
0.306973
0.309719
0.303496
0.700457
0.700278
0.439526
0.637909
0.446954
0.700584
0.369689
0.326337
0.606848
0.317752
0.702378
0.343925
0.376276
0.518451
0.694629
0.701397
0.599682
0.363944
0.318031
0.597354
0.701388
0.998995
0.594641
0.703236
0.700901
0.342597
0.709021
0.613901
0.696834
0.352747
0.328179
0.705301
0.701669
0.692403
0.700889
0.701291
0.700609
0.701794
0.694976
0.692699
0.346521
0.697168
0.37928
0.293512
0.354597
0.700344
0.694125
0.347563
0.700644
0.652684
0.352589
0.813118
0.699921
0.702641
0.325875
0.32755
0.700597
0.363959
0.362846
0.274613
0.34388
0.701387
0.296406
0.700149
0.331911
0.69854
0.700335
0.69636
0.700289
0.363998
0.349694
0.693297
0.703292
0.710533
0.70037
0.700656
0.491341
0.344385
0.319955
0.692332
0.600566
0.351791
0.430379
0.302443
0.701328
0.699112
0.351542
0.323596
0.70069
0.456791
0.701435
0.683673
0.328099
0.389127
0.710809
1.14598
0.318679
0.701331
0.701362
0.693745
0.332003
1.13153
0.334619
1.13946
0.695716
0.364965
0.376346
0.321853
1.13602
0.325771
0.331145
0.390891
0.710855
0.703958
0.331716
0.30855
0.347104
0.78287
0.326309
0.692143
0.292109
0.627932
0.700796
0.371885
0.317047
0.315751
0.49698
0.320873
0.701016
0.340028
0.323498
0.694959
0.312969
0.695314
0.702644
1.14164
0.352201
0.702304
0.701655
0.70138
0.692411
0.702133
0.69879
0.2923
1.07796
0.439914
0.695005
0.338298
0.701446
0.565723
0.324694
1.13959
0.701505
0.330806
0.693051
0.297949
0.313721
0.695025
0.699287
0.301341
0.28665
0.332787
0.288945
0.701743
0.701113
0.331824
0.347298
0.701315
0.698995
0.629771
0.701634
0.69904
0.334587
0.701289
0.404589
0.700354
0.393935
0.643137
0.480625
0.696788
0.705624
0.61473
0.365731
0.324835
0.700166
0.638453
0.614605
0.701642
0.294708
0.705173
0.700878
0.40445
0.4763
0.701546
0.366373
1.12511
0.698363
0.347155
0.699203
0.694083
0.328236
0.703998
0.308736
0.701023
0.334768
0.694965
0.702669
0.32395
0.685983
0.70165
0.700568
0.65461
0.710429
0.616425
0.333005
0.42763
0.305647
0.329784
1.13319
0.593421
0.698073
0.701007
0.348146
0.331238
0.706334
0.700849
0.701821
0.700793
0.3464
0.70201
0.700604
0.351027
0.302709
0.700415
0.6931
0.700755
0.287071
0.620812
0.329178
0.704102
0.702136
1.02175
0.697743
0.348205
0.704197
0.700659
0.701907
0.699526
0.692251
0.437607
0.702121
0.33959
0.702779
0.700836
0.416619
0.700928
0.941032
0.700304
0.43271
0.407837
0.618947
0.685639
0.364023
0.364841
0.336856
0.340515
0.699436
0.705822
0.935784
0.346914
0.338396
0.697472
0.704875
0.284318
0.331562
0.424575
0.710291
0.699559
0.70056
0.702529
0.340332
0.364159
1.14243
0.296151
0.352211
0.338597
0.691525
0.328868
0.360477
0.631818
0.693935
0.700683
0.687509
0.698033
0.328694
0.311666
0.338225
0.549681
0.412097
0.297209
0.705015
0.702757
0.701554
0.692141
0.290852
0.356339
0.700936
0.359028
0.692321
0.702544
1.14437
0.301517
0.355052
0.70146
1.13942
0.647773
0.289024
0.700947
0.692852
0.630067
0.700455
0.700864
1.14407
0.703139
0.348269
0.69806
1.12442
0.692244
0.703896
1.13428
0.700994
1.13136
0.698251
0.323177
0.321481
0.357419
1.13925
0.568386
0.359929
0.706761
0.701471
0.289424
0.69494
0.329756
0.702542
0.527013
0.303904
0.700602
0.701149
0.352856
0.587099
1.13714
0.329264
0.700901
0.328549
0.264704
0.667955
0.646723
0.522711
0.69251
0.336632
0.701756
0.318902
0.289114
0.695162
0.350244
0.653737
0.30228
0.69713
0.643858
1.13836
0.701274
0.302216
0.322822
0.698945
0.482147
0.702082
0.462956
0.647522
0.697625
0.701859
0.490878
0.646521
0.700668
0.70131
0.697589
0.37803
0.366496
0.584118
0.700558
0.701501
0.379172
0.692403
0.651631
0.389321
0.301898
0.696101
0.709401
1.13068
1.13729
0.700705
0.704936
0.680963
0.707514
0.299931
0.690042
0.426856
0.699748
0.693235
0.343341
0.702191
0.700208
0.324403
0.296712
0.342078
1.13407
0.3343
0.666025
0.702448
0.69015
0.325221
0.700718
0.321253
0.621137
0.749266
1.01051
0.704725
0.788478
0.656598
0.706521
0.600548
0.695969
0.334974
0.692319
0.695548
0.46725
1.1317
0.704762
0.309782
0.29822
0.330178
0.700245
0.36478
1.13627
0.33902
0.701514
0.315487
0.482748
0.298656
0.702063
0.700633
0.619596
0.332244
0.658507
0.669868
0.341694
0.629519
0.700304
0.296335
0.637199
1.14286
0.700736
0.692314
0.315376
0.514124
0.701249
0.69285
0.702788
0.358488
0.403501
0.701384
1.14137
1.14589
1.13515
0.626155
0.70454
0.622318
0.699301
0.358401
0.322742
1.1345
0.700411
0.682932
0.332676
0.692337
0.636527
0.667413
0.332641
0.396544
0.700667
0.700861
0.607251
0.338388
0.692529
1.13377
0.328403
0.648991
0.702713
0.328274
0.295023
0.304916
0.69993
0.325721
0.347196
0.701087
0.468452
0.701273
0.698251
0.326091
0.344329
0.700524
0.324177
0.321124
1.14013
0.283297
0.372947
0.639494
0.702238
0.703946
0.338643
0.332442
0.333337
0.702638
0.277347
0.70357
0.316942
0.706326
0.701016
0.699454
0.70305
0.70831
0.702303
0.699569
0.700246
0.702535
0.303733
0.338344
0.702115
0.677465
0.536809
0.700414
0.610084
0.698428
0.689873
0.32848
0.698788
0.700309
0.695922
0.33174
0.707834
0.329122
0.694063
0.498593
0.702008
0.692343
0.305488
0.702273
0.347553
0.446376
0.702179
0.337699
0.704766
1.12972
0.70173
0.340944
0.695309
0.340254
0.300057
0.302508
0.346291
0.690919
0.306306
0.705274
0.842805
0.340772
0.307756
0.485118
0.617694
0.678252
0.703718
0.351418
0.33726
0.329646
0.298936
0.332538
0.680243
0.700971
0.326514
0.77439
0.702573
0.306154
0.700319
0.704689
0.782232
0.334958
1.14
0.711046
0.701967
0.700036
0.306722
0.703985
0.70152
0.708444
0.694823
0.690387
0.318126
0.303393
0.692214
0.582933
0.358929
0.695019
0.306982
0.605428
0.685351
0.701208
0.700917
0.29922
0.700244
0.386246
0.332151
0.704387
0.700696
0.701278
0.699786
0.70677
0.300245
0.700424
0.30143
0.530176
0.700328
1.14522
0.701478
0.332549
0.320491
0.70068
0.324524
0.700676
0.678697
0.411992
0.328037
0.698982
0.301889
0.692149
0.700726
0.711524
0.30222
0.321693
0.583601
0.59321
0.672114
0.464056
0.693701
0.703572
0.700607
1.13097
0.705228
0.323764
0.326574
0.700513
0.689577
0.700939
0.416288
0.327641
0.710115
0.307242
0.699152
0.650267
0.335047
0.702436
0.339087
0.701822
0.329203
0.700885
0.297906
0.695387
0.691215
0.290009
0.701306
0.685541
0.301564
0.937398
0.692105
0.61101
0.267266
0.375322
0.460076
0.7016
0.701613
0.332463
0.617723
0.704167
0.694844
0.327461
0.677102
0.700927
0.451181
0.692226
0.698316
0.34045
0.701661
1.14174
0.330596
0.653415
0.342738
0.705446
0.338381
0.271292
0.701766
0.347123
0.347216
0.303982
0.696297
0.701833
0.398238
0.692621
0.373726
0.714822
0.341313
0.700764
0.371793
0.697667
0.692359
0.710598
0.964943
0.588351
0.691044
0.784412
0.327227
0.671141
0.709396
0.57638
0.706067
0.496686
0.414634
0.700439
0.344381
0.617572
0.33055
0.692473
0.303902
0.306969
0.701285
0.699438
0.349623
0.699317
0.702877
1.13474
0.700685
1.13397
0.348895
0.700405
0.351963
0.315201
0.701036
0.702388
0.701561
0.700621
0.296186
0.337495
0.33238
0.698895
0.864441
0.373808
0.702458
0.331565
0.339071
0.333289
0.70078
0.392901
0.700398
0.702295
0.669378
0.69939
0.702837
0.634851
0.707475
0.427298
0.295956
0.349892
1.13419
1.13478
0.330277
0.680822
0.699025
0.709891
0.315566
0.436703
0.703578
0.314036
0.703727
0.682238
0.352801
0.672423
0.699637
0.36028
0.703391
0.32046
0.697969
0.701091
0.707067
0.30501
0.469139
0.704886
0.344022
0.443089
0.700064
0.351179
0.678122
0.697442
0.700457
0.702826
0.338368
1.13917
0.704583
0.692855
0.378084
0.699924
0.318994
0.267528
0.701391
0.699634
0.843322
0.264166
0.693283
0.669017
1.14522
0.33584
0.323198
0.363048
0.699362
0.329557
0.314641
0.32868
0.681329
0.317756
0.342234
0.437671
0.703272
0.355506
0.984805
0.687183
0.69949
0.34071
0.699084
0.692053
0.798395
0.391927
0.693443
0.3272
0.343815
0.695313
0.350119
0.685947
0.704353
1.1381
0.353364
0.346196
0.331629
0.595459
1.13034
0.273573
0.696711
0.695806
0.702257
0.34086
0.301244
0.373094
0.70213
0.355073
1.12946
0.642812
0.674124
0.701517
0.337004
0.69245
0.29406
0.682444
0.680606
0.700888
0.671301
0.581447
0.696532
0.7019
0.700527
0.342822
0.367327
0.337994
0.702062
0.603261
1.14516
0.35347
0.395087
0.702152
0.699409
1.08146
0.350315
0.699517
0.59422
0.599631
0.702029
0.321316
0.35105
0.342506
0.699749
0.871961
0.693024
0.700569
0.349476
0.701863
0.690101
0.853219
0.874861
0.701495
0.700322
0.693945
0.70264
0.701499
0.31673
0.698711
0.699851
0.691199
0.700109
0.699676
0.662369
0.354175
0.277502
0.693302
0.356226
0.338651
0.699785
0.316949
0.66971
0.69706
0.700148
0.695751
0.313189
0.699849
0.302639
0.324152
0.694657
0.70557
0.692152
0.340228
0.700477
0.692513
0.698246
0.697928
0.32096
0.691485
0.700738
0.705405
0.385818
0.701856
0.33524
0.70031
0.336303
0.35489
0.626849
0.424461
0.700612
0.701706
0.692443
0.32853
0.69128
0.400639
0.313316
0.701378
0.486067
0.353908
0.692452
0.295748
0.556074
0.702899
0.703148
0.701182
0.489935
0.630291
0.695919
0.692583
0.660766
0.701198
0.582991
0.702491
0.700445
0.690689
0.288261
0.333815
0.420629
0.699762
0.31103
0.697818
0.699572
0.652749
0.692511
0.607767
0.704427
0.707128
0.334324
0.69917
0.699995
0.590902
0.700465
0.700522
0.701159
0.678217
0.341112
0.32138
0.695011
0.605366
0.625701
0.698878
0.693702
0.692476
0.701705
0.701291
0.671076
0.703303
0.700887
0.309939
0.305477
0.297727
0.333022
1.14466
0.445711
0.617945
0.702752
0.705811
0.316046
0.695911
0.700469
0.340656
0.379625
1.13881
0.698844
0.321131
0.287937
0.277461
1.13003
0.700614
0.389136
0.323844
0.352618
0.279717
0.359366
0.360713
0.702767
0.69244
0.707927
0.341257
0.699942
0.667917
0.646056
0.339574
0.348884
0.701315
1.12964
0.357977
0.69759
0.359667
0.701579
0.317
0.699591
0.345636
0.70154
0.700634
0.340439
0.601118
0.322454
0.700278
0.282268
0.672683
0.306581
0.586877
0.328153
0.669594
0.342167
1.04814
1.03479
0.645446
0.70614
0.344114
0.701278
0.674452
0.700608
0.665381
0.714434
0.350332
0.432868
0.334487
0.701944
0.33628
0.700227
0.596802
0.702387
0.700658
0.51765
0.702064
0.314141
0.324166
0.313892
0.601574
0.632716
0.69301
0.338002
0.318968
0.695134
0.409638
0.3012
0.65165
0.378786
0.35974
0.281123
0.701725
0.684787
0.675567
0.322063
0.701394
0.699815
0.292114
0.3731
0.700687
0.697358
0.681209
0.566956
0.428216
0.385657
0.336556
0.701632
0.694208
0.600527
0.704708
0.296051
0.629548
0.337639
1.12973
0.70027
0.352427
0.321238
0.696606
0.647635
0.700274
0.701399
0.701423
0.699943
0.700318
0.335853
0.322719
0.337839
0.338163
0.627387
1.14479
0.685909
0.342871
0.35162
0.4597
0.294716
0.692519
0.703392
0.345648
0.350557
0.69701
0.320641
0.696295
0.701936
0.702432
0.690383
0.636643
0.362556
0.346163
0.702902
0.353012
0.435938
0.394491
0.670877
0.699537
0.330538
0.353414
1.13662
0.341946
0.69818
0.701948
0.356191
0.324961
0.316495
0.695662
0.325321
1.13005
0.703571
0.656655
0.287925
0.582152
0.700497
0.700811
0.329883
0.700124
0.69449
0.299701
0.700783
0.701816
0.332595
0.350791
0.701525
0.339223
0.338676
0.700772
0.385285
0.692769
0.704628
0.701701
0.702736
0.700483
0.697085
0.683082
0.331413
0.420025
0.70037
0.703837
0.46665
0.700463
0.359206
0.698077
0.701057
0.621784
0.691714
0.432352
0.431562
0.695439
0.7007
0.700355
0.700645
0.694078
1.13657
0.700756
1.13566
0.702149
0.70135
0.701246
1.12975
0.689547
0.308273
0.700899
0.327283
0.698868
0.698434
0.702364
0.702698
0.703236
0.325019
0.333848
0.348531
0.331213
0.702693
0.348568
0.334598
0.705915
0.289089
0.702805
0.336304
0.701749
0.703668
0.347078
0.409287
0.335605
0.69956
0.330198
0.692881
0.702453
0.331026
0.701394
0.602494
0.346476
0.325397
0.290844
0.70431
0.352761
0.699295
0.603806
0.329544
0.696399
0.692359
0.70148
0.360019
0.633836
0.303211
0.699425
0.686179
0.698321
0.363701
0.704073
0.698766
0.700606
0.40311
0.699546
0.362398
0.342179
0.700541
0.440446
0.701021
0.421498
0.362345
0.415284
0.700728
0.326065
0.309221
0.334004
0.529815
1.14264
0.702817
0.279245
0.663624
0.693795
0.594062
0.459583
0.334642
0.603473
0.365948
0.34161
0.693279
0.343027
0.359948
0.70038
0.700548
0.339207
0.702072
0.3349
1.1386
0.326575
0.701348
1.09276
0.702537
0.679701
0.320395
0.33972
0.302089
0.695859
0.701342
0.627528
0.601733
0.401586
0.343929
0.692294
0.332272
0.692545
0.399247
1.05179
0.7047
0.344166
0.332467
0.345444
0.353799
0.330085
0.69821
0.702176
0.345352
0.699781
0.685971
0.336052
0.307954
0.700373
0.351396
0.703048
0.433923
0.702562
0.694608
0.698232
1.14204
0.318415
0.701258
0.698918
0.701797
0.348295
0.702186
0.637397
0.336868
0.699751
0.711192
0.702984
0.701839
0.700325
0.70065
0.701105
0.6914
0.692488
0.347902
0.701754
0.346451
0.470914
0.700305
0.302412
0.701388
0.70254
0.316405
0.700571
0.348659
0.297774
0.70071
0.701616
0.700518
0.337791
0.702191
0.658833
0.326887
0.342724
0.701482
0.699423
0.379448
0.330957
0.702532
0.70041
0.35973
0.689758
0.700475
0.684997
0.343124
0.361723
0.299249
0.694589
0.29951
0.699177
0.702106
0.692354
0.673846
0.70317
0.338243
0.700843
0.654896
0.70063
0.671181
0.3068
0.330355
0.286674
0.701645
0.701799
0.43314
0.693498
0.333377
0.712156
0.698866
0.290561
0.694572
0.697952
0.673664
0.34158
0.339221
0.333582
0.700822
0.700954
0.656528
0.567354
0.700902
0.357484
0.678493
1.14561
0.706067
0.34078
0.661457
0.317518
0.702529
0.273229
0.693981
0.700784
0.323047
0.700835
0.475236
1.13009
0.696412
1.12982
0.700073
0.424163
0.692157
0.692349
0.699297
0.69345
0.477152
1.14519
0.310221
0.692457
0.289194
0.348952
0.292733
0.330948
0.365243
0.34278
0.700391
0.39152
0.314998
0.703863
0.700737
0.702056
0.392603
0.704442
0.704615
0.687656
0.302742
0.670296
0.697184
0.330137
0.330753
0.339036
0.676924
0.547764
0.354796
0.671368
0.291017
1.13582
0.530264
0.327254
0.47416
0.691015
0.334131
0.698972
0.30006
0.56555
0.377243
0.701262
0.38563
0.705875
1.14504
0.698364
0.458615
0.34903
0.701943
0.700309
0.329552
0.299877
0.697477
0.351631
0.701954
0.340661
0.601887
0.284688
0.696869
0.323546
0.700335
0.348925
0.698947
0.702267
0.700443
1.13917
0.310618
0.311775
0.389488
0.700972
0.706298
0.700729
0.637637
0.319115
0.702248
0.334583
0.701456
0.698394
0.414917
0.327686
0.701746
0.694379
0.305325
1.13844
0.702129
0.701644
0.701791
0.299423
0.679841
0.348433
0.701433
0.294235
0.745762
0.701436
0.702168
0.700506
0.334883
0.70117
0.346226
0.333575
0.697593
1.14217
0.608943
0.693977
1.14551
0.35167
0.701679
0.701068
0.701151
0.300856
0.416904
0.705048
0.348123
0.698354
0.699853
0.701402
0.701049
0.328132
0.454025
0.687125
0.319798
0.700917
0.700084
0.474507
0.700904
0.328284
0.703278
0.701389
0.7046
0.701007
0.337762
0.308085
0.694172
0.701209
0.315747
0.35542
0.322622
0.31886
0.313713
0.293934
0.32799
0.357467
0.695043
0.293021
0.342901
0.702796
0.610441
1.13559
0.392332
0.353186
0.694914
0.464868
0.547364
0.700807
0.381137
0.692551
0.963763
0.648226
0.699629
0.332106
0.702479
0.705499
0.328528
0.341078
0.417568
0.702313
0.648779
0.700373
0.696278
0.70662
0.698211
0.36725
0.701588
0.670843
0.701879
0.354855
0.697479
0.687464
0.362224
0.414941
0.317899
0.299867
0.309342
0.641524
0.703559
0.705357
0.342367
0.414787
0.700585
0.288231
0.702776
0.692447
0.701243
0.704503
0.698368
0.329394
0.30162
0.28488
0.635467
0.296252
0.692547
0.28306
0.695713
0.696274
0.698551
0.331836
0.449584
0.419648
0.702631
0.331659
0.337812
0.69999
0.700193
0.696634
0.696825
0.701437
0.701943
0.365571
0.662056
0.700809
0.581698
0.702596
0.702376
0.701726
0.455579
0.427938
0.701243
0.519805
0.678887
0.345787
0.70321
0.701146
0.386982
0.300798
0.699652
0.602266
0.700835
0.702963
0.354462
0.351981
1.14164
0.452281
0.399732
0.700649
0.701351
0.316948
0.70113
1.14569
0.702877
0.366126
0.641899
0.363909
0.700128
0.700333
0.701915
0.705904
1.13798
0.345244
0.370369
0.711051
0.342984
0.646699
0.321517
0.69984
0.277255
0.696256
0.700959
1.1366
0.363299
1.13115
1.14212
0.337109
0.702932
0.289722
0.701795
0.359804
0.345529
0.261212
0.710158
0.700777
0.371232
0.347731
0.700293
0.700303
0.434909
0.702178
0.365059
0.536057
0.35142
0.711202
0.339541
0.705595
0.700557
0.325105
0.447511