# vtk DataFile Version 1.0
unstructured grid
ascii
DATASET UNSTRUCTURED_GRID
points 13672 float
0.0796578 -0.059106 0
0.00128732 0.00159165 0
0.00227961 -0.00102548 0
0.0791586 -0.0598787 0
-0.0546216 0.01 0
0.000495206 0.025 0
0.0800549 -0.035 0
0.135172 -0.08 0
-0.0546216 -0.0451168 0
0.000495206 -0.0301168 0
0.0800549 -0.0901168 0
0.135172 -0.135117 0
-0.0546216 -0.0451168 -0.00551168
0.000495206 -0.0301168 -0.00551168
0.0800549 -0.0901168 -0.00551168
0.135172 -0.135117 -0.00551168
0.135172 -0.08 -0.00551168
0.0800549 -0.035 -0.00551168
0.000495206 0.025 -0.00551168
-0.0546216 0.01 -0.00551168
0.00128732 0.00159165 -0.00551168
0.00227961 -0.00102548 -0.00551168
0.0791586 -0.0598787 -0.00551168
0.0796578 -0.059106 -0.00551168
0.00165953 -0.000990923 0
0.00119576 -0.000874076 0
0.000866021 -0.000641801 0
0.000645147 -0.000349912 0
0.00052235 -1.7281e-05 0
0.00049972 0.000348016 0
0.000601632 0.000737716 0
0.000861774 0.0011403 0
0.00157235 0.00183217 0
0.00188647 0.00206725 0
0.00222612 0.00230203 0
0.00258713 0.00254351 0
0.00296826 0.00279524 0
0.00337118 0.00305664 0
0.00379785 0.00332658 0
0.00425045 0.00360349 0
0.00473139 0.00388521 0
0.0052432 0.00416895 0
0.0057881 0.00445204 0
0.00636753 0.00473281 0
0.00698281 0.00500961 0
0.00763526 0.00528058 0
0.00832616 0.00554366 0
0.00905691 0.00579603 0
0.00982918 0.00603333 0
0.0106445 0.00625033 0
0.0115038 0.00644128 0
0.0124073 0.00660297 0
0.0133543 0.00673414 0
0.0143444 0.00683382 0
0.0153769 0.00690031 0
0.0164512 0.00693173 0
0.0175666 0.00692547 0
0.0187219 0.00687822 0
0.0199156 0.00678477 0
0.0211454 0.00663864 0
0.0224084 0.00643275 0
0.0237018 0.00616676 0
0.0250249 0.00584739 0
0.026375 0.00547298 0
0.0277479 0.00503752 0
0.0291386 0.00453545 0
0.0305433 0.0039653 0
0.0319572 0.0033256 0
0.0333681 0.00260019 0
0.034775 0.00179799 0
0.0361793 0.000930615 0
0.0375798 3.12222e-06 0
0.0389689 -0.000988429 0
0.0403357 -0.00205109 0
0.041675 -0.00318283 0
0.0429849 -0.00437751 0
0.0442643 -0.00562904 0
0.0455126 -0.00693089 0
0.0467314 -0.00827518 0
0.0479204 -0.00965638 0
0.0490661 -0.0110799 0
0.0501515 -0.0125519 0
0.0511696 -0.0140695 0
0.0521492 -0.0156071 0
0.0531202 -0.0171411 0
0.0540851 -0.0186663 0
0.0550431 -0.0201798 0
0.0559923 -0.0216793 0
0.0569311 -0.0231626 0
0.0578582 -0.0246273 0
0.0587723 -0.0260715 0
0.0596721 -0.027493 0
0.0605563 -0.02889 0
0.0614241 -0.0302609 0
0.0622742 -0.0316042 0
0.063106 -0.0329183 0
0.0639186 -0.034202 0
0.0647113 -0.0354543 0
0.0654835 -0.0366743 0
0.0662345 -0.0378613 0
0.0669642 -0.0390145 0
0.0676726 -0.0401333 0
0.0683597 -0.0412172 0
0.0690246 -0.0422665 0
0.0696662 -0.0432819 0
0.0702841 -0.0442636 0
0.0708793 -0.0452111 0
0.0714538 -0.0461237 0
0.072009 -0.047001 0
0.0725452 -0.0478434 0
0.0730611 -0.0486524 0
0.073556 -0.0494294 0
0.0740291 -0.0501756 0
0.0744812 -0.0508916 0
0.0749138 -0.0515773 0
0.0753285 -0.0522331 0
0.0757266 -0.0528592 0
0.076109 -0.0534564 0
0.0764753 -0.0540264 0
0.0768243 -0.054571 0
0.0771553 -0.0550919 0
0.0774679 -0.0555901 0
0.0777617 -0.0560669 0
0.0780369 -0.056523 0
0.0782958 -0.0569578 0
0.0785421 -0.0573703 0
0.0787786 -0.0577603 0
0.0790073 -0.0581279 0
0.0792295 -0.058474 0
0.0794462 -0.0587995 0
0.0798803 -0.0594162 0
0.0800272 -0.0596588 0
0.0800357 -0.0598891 0
0.0799275 -0.0600784 0
0.0797205 -0.0601773 0
0.0794593 -0.0601051 0
0.0789155 -0.0596491 0
0.0786707 -0.0593963 0
0.0784111 -0.0591319 0
0.0781372 -0.0588542 0
0.0778566 -0.0585548 0
0.0775715 -0.0582308 0
0.0772803 -0.0578828 0
0.0769832 -0.0575099 0
0.0766822 -0.0571097 0
0.0763801 -0.0566796 0
0.0760759 -0.0562196 0
0.0757623 -0.0557337 0
0.0754359 -0.0552232 0
0.0750951 -0.0546879 0
0.0747379 -0.054128 0
0.0743626 -0.0535435 0
0.0739688 -0.0529338 0
0.0735559 -0.0522981 0
0.0731238 -0.0516357 0
0.0726718 -0.050946 0
0.0721991 -0.0502288 0
0.0717046 -0.049484 0
0.0711872 -0.0487117 0
0.0706461 -0.047912 0
0.0700804 -0.0470849 0
0.0694892 -0.0462308 0
0.0688718 -0.0453499 0
0.0682271 -0.0444431 0
0.0675544 -0.043511 0
0.0668527 -0.0425546 0
0.0661215 -0.0415748 0
0.06536 -0.040573 0
0.0645676 -0.0395504 0
0.0637439 -0.0385087 0
0.0628887 -0.0374493 0
0.062002 -0.0363741 0
0.0610838 -0.0352847 0
0.0601345 -0.0341831 0
0.0591547 -0.033071 0
0.0581456 -0.0319502 0
0.0571083 -0.0308224 0
0.0560444 -0.0296893 0
0.0549562 -0.028552 0
0.053845 -0.0274126 0
0.0527113 -0.0262746 0
0.051554 -0.0251427 0
0.0503724 -0.0240222 0
0.0491675 -0.0229164 0
0.047941 -0.0218282 0
0.0466955 -0.0207597 0
0.0454337 -0.0197126 0
0.0441592 -0.0186878 0
0.0428751 -0.0176863 0
0.0415841 -0.0167097 0
0.0402878 -0.0157609 0
0.0389879 -0.0148428 0
0.0376864 -0.0139575 0
0.0363853 -0.013107 0
0.0350871 -0.0122931 0
0.0337942 -0.0115164 0
0.0325095 -0.0107772 0
0.0312357 -0.0100756 0
0.0299758 -0.00941024 0
0.0287337 -0.00877784 0
0.0275126 -0.00817571 0
0.0263139 -0.00760375 0
0.0251376 -0.00706528 0
0.0239829 -0.0065649 0
0.0228537 -0.00609619 0
0.0217522 -0.00565563 0
0.0206795 -0.00524226 0
0.0196364 -0.00485507 0
0.0186233 -0.00449318 0
0.0176408 -0.00415577 0
0.016689 -0.00384204 0
0.0157682 -0.00355115 0
0.0148783 -0.00328218 0
0.0140192 -0.00303468 0
0.0131906 -0.00280795 0
0.0123925 -0.00260016 0
0.0116246 -0.00241012 0
0.0108864 -0.00223769 0
0.0101774 -0.00208212 0
0.00949701 -0.00194206 0
0.00884483 -0.0018163 0
0.0082202 -0.0017039 0
0.00762247 -0.00160391 0
0.00705097 -0.00151528 0
0.006505 -0.00143697 0
0.0059838 -0.00136806 0
0.00548662 -0.00130772 0
0.00501265 -0.00125519 0
0.00456114 -0.00120954 0
0.00413136 -0.00116914 0
0.00372257 -0.00113251 0
0.00333398 -0.00109853 0
0.00296466 -0.00106798 0
0.00261363 -0.0010431 0
-0.052721 -0.0445996 0
-0.0508204 -0.0440823 0
-0.0489199 -0.0435651 0
-0.0470193 -0.0430478 0
-0.0451187 -0.0425306 0
-0.0432181 -0.0420134 0
-0.0413175 -0.0414961 0
-0.039417 -0.0409789 0
-0.0375164 -0.0404616 0
-0.0356158 -0.0399444 0
-0.0337152 -0.0394271 0
-0.0318146 -0.0389099 0
-0.0299141 -0.0383927 0
-0.0280135 -0.0378754 0
-0.0261129 -0.0373582 0
-0.0242123 -0.0368409 0
-0.0223117 -0.0363237 0
-0.0204112 -0.0358065 0
-0.0185106 -0.0352892 0
-0.01661 -0.034772 0
-0.0147094 -0.0342547 0
-0.0128088 -0.0337375 0
-0.0109083 -0.0332202 0
-0.00900769 -0.032703 0
-0.00710711 -0.0321858 0
-0.00520653 -0.0316685 0
-0.00330595 -0.0311513 0
-0.00140537 -0.030634 0
0.00190689 -0.0299614 0
0.00332271 -0.0298498 0
0.00474133 -0.0297825 0
0.00616136 -0.0297597 0
0.0075814 -0.0297814 0
0.00900007 -0.0298477 0
0.010416 -0.0299583 0
0.0118278 -0.0301127 0
0.0132342 -0.0303103 0
0.0146339 -0.0305504 0
0.0160259 -0.0308322 0
0.0174091 -0.0311546 0
0.0187824 -0.0315166 0
0.020145 -0.031917 0
0.0214961 -0.0323546 0
0.0228351 -0.032828 0
0.0241613 -0.0333361 0
0.0254744 -0.0338774 0
0.0267738 -0.0344507 0
0.0280592 -0.0350545 0
0.0293306 -0.0356877 0
0.0305875 -0.0363488 0
0.0318301 -0.0370367 0
0.0330581 -0.0377501 0
0.0342717 -0.0384879 0
0.0354708 -0.0392489 0
0.0366556 -0.0400321 0
0.0378262 -0.0408363 0
0.0389828 -0.0416607 0
0.0401254 -0.0425042 0
0.0412543 -0.0433659 0
0.0423698 -0.0442451 0
0.043472 -0.0451408 0
0.0445612 -0.0460523 0
0.0456375 -0.0469789 0
0.0467013 -0.0479199 0
0.0477529 -0.0488746 0
0.0487923 -0.0498424 0
0.04982 -0.0508227 0
0.0508362 -0.051815 0
0.051841 -0.0528187 0
0.0528348 -0.0538333 0
0.0538178 -0.0548584 0
0.0547903 -0.0558935 0
0.0557524 -0.0569382 0
0.0567045 -0.0579922 0
0.0576467 -0.0590549 0
0.0585792 -0.0601261 0
0.0595024 -0.0612055 0
0.0604163 -0.0622926 0
0.0613212 -0.0633873 0
0.0622174 -0.0644891 0
0.0631049 -0.0655979 0
0.0639841 -0.0667134 0
0.064855 -0.0678353 0
0.0657179 -0.0689633 0
0.0665729 -0.0700974 0
0.0674202 -0.0712372 0
0.06826 -0.0723826 0
0.0690925 -0.0735333 0
0.0699178 -0.0746892 0
0.070736 -0.0758501 0
0.0715473 -0.0770159 0
0.0723518 -0.0781863 0
0.0731498 -0.0793612 0
0.0739412 -0.0805405 0
0.0747264 -0.081724 0
0.0755053 -0.0829116 0
0.0762781 -0.0841033 0
0.0770449 -0.0852987 0
0.0778059 -0.0864979 0
0.0785611 -0.0877007 0
0.0793108 -0.088907 0
0.0814681 -0.0912706 0
0.0828814 -0.0924245 0
0.0842946 -0.0935783 0
0.0857079 -0.0947322 0
0.0871211 -0.095886 0
0.0885344 -0.0970399 0
0.0899476 -0.0981937 0
0.0913609 -0.0993476 0
0.0927741 -0.100501 0
0.0941874 -0.101655 0
0.0956006 -0.102809 0
0.0970139 -0.103963 0
0.0984272 -0.105117 0
0.0998404 -0.106271 0
0.101254 -0.107424 0
0.102667 -0.108578 0
0.10408 -0.109732 0
0.105493 -0.110886 0
0.106907 -0.11204 0
0.10832 -0.113194 0
0.109733 -0.114348 0
0.111146 -0.115501 0
0.11256 -0.116655 0
0.113973 -0.117809 0
0.115386 -0.118963 0
0.116799 -0.120117 0
0.118213 -0.121271 0
0.119626 -0.122424 0
0.121039 -0.123578 0
0.122452 -0.124732 0
0.123866 -0.125886 0
0.125279 -0.12704 0
0.126692 -0.128194 0
0.128105 -0.129348 0
0.129519 -0.130501 0
0.130932 -0.131655 0
0.132345 -0.132809 0
0.133758 -0.133963 0
0.135172 -0.133216 0
0.135172 -0.131316 0
0.135172 -0.129415 0
0.135172 -0.127514 0
0.135172 -0.125614 0
0.135172 -0.123713 0
0.135172 -0.121813 0
0.135172 -0.119912 0
0.135172 -0.118012 0
0.135172 -0.116111 0
0.135172 -0.11421 0
0.135172 -0.11231 0
0.135172 -0.110409 0
0.135172 -0.108509 0
0.135172 -0.106608 0
0.135172 -0.104708 0
0.135172 -0.102807 0
0.135172 -0.100906 0
0.135172 -0.0990058 0
0.135172 -0.0971052 0
0.135172 -0.0952046 0
0.135172 -0.0933041 0
0.135172 -0.0914035 0
0.135172 -0.0895029 0
0.135172 -0.0876023 0
0.135172 -0.0857017 0
0.135172 -0.0838012 0
0.135172 -0.0819006 0
0.133758 -0.0788462 0
0.132345 -0.0776923 0
0.130932 -0.0765385 0
0.129519 -0.0753846 0
0.128105 -0.0742308 0
0.126692 -0.0730769 0
0.125279 -0.0719231 0
0.123866 -0.0707692 0
0.122452 -0.0696154 0
0.121039 -0.0684615 0
0.119626 -0.0673077 0
0.118213 -0.0661538 0
0.116799 -0.065 0
0.115386 -0.0638462 0
0.113973 -0.0626923 0
0.11256 -0.0615385 0
0.111146 -0.0603846 0
0.109733 -0.0592308 0
0.10832 -0.0580769 0
0.106907 -0.0569231 0
0.105493 -0.0557692 0
0.10408 -0.0546154 0
0.102667 -0.0534615 0
0.101254 -0.0523077 0
0.0998404 -0.0511538 0
0.0984272 -0.05 0
0.0970139 -0.0488462 0
0.0956006 -0.0476923 0
[...]
CELL_DATA 13116
SCALARS rho float
LOOKUP_TABLE default
0.5977
0.69448
0.448515
0.689056
0.691653
0.680701
0.368641
0.691669
0.597702
0.692632
0.367527
0.449854
0.691606
0.404691
0.424782
0.680713
0.5977
0.700522
0.680169
0.367831
0.5977
0.459474
0.424885
0.699913
0.5977
0.690119
0.692608
0.45359
0.5977
0.5977
0.703641
0.439772
0.5977
0.587797
0.370486
0.5977
0.682594
0.692974
0.680802
0.690234
0.68084
0.691263
0.597699
0.42846
0.690587
0.681013
0.687382
0.685662
0.449907
0.597686
0.690336
0.597711
0.380815
0.5977
0.597699
0.5977
0.425198
0.697777
0.597706
0.436823
0.406548
0.690882
0.690477
0.680833
0.67301
0.392751
0.687549
0.676553
0.687378
0.667223
0.424511
0.5977
0.463461
0.409508
1.06944
0.401025
0.69704
0.689744
0.367621
0.705638
0.686811
0.689862
0.698194
0.68605
0.690464
0.539094
0.372794
0.596214
0.689755
0.367811
0.443887
0.69505
0.696871
0.690832
0.596965
0.5977
0.5977
0.849735
0.937998
0.5977
0.59771
0.681
0.680778
0.580629
0.685059
0.440838
0.512709
0.5977
0.440027
0.5977
0.5977
0.68672
0.5977
0.690571
0.706073
0.688547
0.383809
0.530427
0.688541
0.689363
0.672954
0.474257
0.687622
0.443914
0.690877
0.563505
0.375563
0.591278
0.433263
0.597537
0.688638
0.687013
0.571797
0.453551
0.562324
0.5977
1.12686
0.688482
0.597707
0.689429
0.696805
0.687583
0.592841
0.697877
0.692046
0.415728
0.369769
0.689329
0.692473
0.690939
0.594444
0.685896
0.685165
0.375984
0.692685
0.690667
0.431324
0.595533
0.865201
0.597649
0.699371
0.367535
0.695843
0.43145
0.479443
0.691204
0.690476
0.702865
0.369681
0.55133
0.536262
1.12676
0.421769
0.590506
0.68831
0.424967
0.436941
0.462432
0.686374
0.68076
0.367563
0.550726
0.5977
0.678708
0.68077
0.597706
0.375684
0.684716
0.68528
0.578204
0.64994
0.688901
0.674405
0.441333
0.686819
0.680955
0.694472
0.685967
0.689614
0.579448
0.58534
0.5977
0.589438
0.412115
0.690745
0.687339
0.59771
0.5977
0.427989
0.367773
0.39869
0.682118
0.435418
0.367929
0.368118
0.378817
0.523928
0.680667
0.690855
0.534138
0.421062
0.687522
0.597699
0.367673
0.593472
0.69255
0.691551
0.454264
0.688037
0.522537
0.69133
0.440192
0.675309
0.597702
1.00775
0.690403
0.679676
0.455394
0.561999
0.597705
1.10986
0.68088
1.12681
0.680513
0.691617
0.440907
0.689068
0.692865
0.908446
0.36771
0.453124
0.680741
0.688276
0.664087
0.686875
0.5977
0.698942
0.367596
0.467809
0.548805
0.426032
0.684359
0.694722
0.699694
0.368394
0.691502
0.383686
0.536151
0.685538
0.36786
0.690035
0.690668
1.12126
0.697601
0.453394
1.12379
0.69237
0.882296
0.688254
0.36782
0.370298
0.440198
0.5977
0.470953
0.466114
0.503691
0.491785
0.692206
0.386442
0.690135
0.69139
0.370734
0.367831
0.380419
0.559945
0.462593
0.595432
0.685711
0.687125
0.367772
0.680536
0.597704
0.470614
0.436198
0.680812
0.688104
0.682609
0.378478
0.680927
0.577402
0.686738
0.690843
0.690747
0.690893
0.441867
0.687659
0.407432
0.680419
0.692972
0.5977
0.367573
0.502022
0.693016
0.380289
0.689149
0.690957
0.533274
0.720847
0.698357
0.37432
0.691676
0.696681
0.404394
0.688644
0.537243
0.597622
0.693024
0.539642
0.587412
0.368418
0.700214
0.506068
0.680607
0.680932
0.694654
0.451705
0.514702
0.690643
0.37419
0.689729
0.686332
0.547818
1.12661
0.374263
0.447706
0.687941
0.595504
0.680378
0.372298
0.43232
0.689164
0.69153
0.368448
0.690392
0.39228
0.445151
0.689195
0.692741
0.5977
0.367787
0.688172
0.681916
0.680713
0.691456
0.693428
0.595605
0.512918
0.419484
0.367535
0.680761
0.367526
0.5977
0.532543
0.442295
0.511451
0.5977
0.39081
0.371918
0.691028
0.445699
0.695821
0.5977
0.680824
0.597704
0.689767
0.450783
0.369742
0.582468
0.516577
0.688724
0.5977
0.680817
0.5977
0.693124
0.5977
0.689699
0.590952
0.5977
0.692585
0.706253
0.680679
0.55244
0.597684
0.5977
0.452314
0.683436
0.5977
0.379517
0.688259
1.12434
0.442617
0.36777
0.367859
0.371594
0.5977
0.395012
0.440877
0.687547
0.393589
0.597701
0.367686
0.680764
0.686038
0.468383
0.453725
0.68792
0.557173
0.367921
0.371246
0.367988
0.440368
0.369949
0.367775
0.472079
0.53859
0.367988
0.680996
0.496912
0.690395
0.55583
0.446178
0.565311
0.419159
0.367832
0.420496
0.690253
0.544481
0.5977
0.5977
0.390025
0.5977
0.689909
0.537577
0.717005
0.5977
0.5977
0.369443
0.984854
0.531063
0.69437
0.776185
0.441806
0.385423
0.684545
0.521595
0.538806
0.680707
0.511978
0.596888
0.691769
0.367744
0.433237
0.411809
0.589561
0.432951
0.395014
0.421662
0.405306
0.689904
0.690224
0.562939
0.5977
0.564907
0.686322
0.515765
0.390741
0.597701
0.442465
0.686215
0.486287
0.520227
0.569527
0.691959
0.690408
0.597182
0.53375
0.382205
0.596446
0.691393
0.678348
0.595613
0.686274
0.684514
0.367934
0.685589
0.597703
0.597702
0.499938
0.464772
0.68848
0.695375
0.597701
0.692903
0.689082
0.690432
0.699256
0.597699
0.680845
0.367781
0.69227
0.509094
0.43384
0.367593
0.689763
0.684836
0.497173
0.690489
0.5977
0.367598
0.681019
0.687834
0.693103
0.452614
0.38732
0.6898
0.367952
0.367846
0.428175
0.367934
0.684699
0.400149
0.689106
0.493893
0.694815
0.69036
0.686916
0.691888
0.367926
0.36772
0.683905
0.691093
0.680496
0.690116
0.692664
0.558657
0.372256
0.444329
0.680966
0.597705
0.367795
0.556281
0.442327
0.692043
0.689636
0.498683
0.463669
0.690686
0.542089
0.6915
0.5977
0.430535
0.521821
0.67916
1.10799
0.432861
0.690225
0.69047
0.682988
0.391496
1.12668
0.418285
1.04008
0.597701
0.367792
0.522028
0.467418
0.983365
0.441193
0.367868
0.533124
0.681028
0.689821
0.367674
0.464516
0.367781
0.680896
0.467404
0.680789
0.41362
0.5977
0.692748
0.55941
0.429629
0.42645
0.559724
0.44515
0.690175
0.384672
0.400803
0.680599
0.397861
0.681058
0.68866
0.925657
0.367978
0.686388
0.695617
0.694664
0.680949
0.692498
0.68913
0.428787
0.671872
0.535788
0.692092
0.36789
0.691314
0.597708
0.372315
0.672121
0.692708
0.377326
0.596293
0.443348
0.421478
0.686655
0.690241
0.442667
0.420499
0.367616
0.429921
0.692221
0.700439
0.388284
0.367727
0.689717
0.688897
0.5977
0.695734
0.688005
0.367604
0.694628
0.539492
0.690153
0.53712
0.5977
0.55713
0.687855
0.679788
0.597703
0.512053
0.448966
0.689964
0.5977
0.5977
0.695817
0.420626
0.689601
0.693045
0.525135
0.597701
0.695545
0.527679
0.658367
0.597705
0.500503
0.68952
0.597621
0.455827
0.689397
0.439659
0.689579
0.417951
0.680592
0.690041
0.448866
0.680844
0.695817
0.690243
0.5977
0.6861
0.597703
0.489077
0.572899
0.424122
0.407612
1.12679
0.594642
0.687939
0.692041
0.367724
0.491167
0.687507
0.692517
0.688124
0.690819
0.367583
0.707332
0.69308
0.367869
0.433116
0.688717
0.680664
0.690612
0.435607
0.597701
0.469608
0.689792
0.688358
0.676441
0.694775
0.367886
0.686358
0.69013
0.696537
0.69034
0.680948
0.535177
0.693331
0.367871
0.687263
0.692804
0.5515
0.692979
0.680334
0.690448
0.592501
0.552674
0.597702
0.5977
0.367957
0.367842
0.36823
0.367971
0.696643
0.688576
0.680209
0.494519
0.367924
0.686984
0.589732
0.401804
0.493153
0.556123
0.679995
0.688025
0.691368
0.699241
0.367732
0.367926
1.12679
0.444402
0.367951
0.388133
0.680971
0.467472
0.367688
0.5977
0.686042
0.686288
0.680782
0.680606
0.385111
0.408555
0.3679
0.5977
0.544656
0.441508
0.678698
0.700951
0.689858
0.68065
0.438243
0.367982
0.692974
0.367733
0.680847
0.689582
0.758185
0.442364
0.367908
0.689031
0.68394
0.5977
0.401882
0.691001
0.680781
0.5977
0.690913
0.690925
1.12663
0.686161
0.367583
0.680238
0.663701
0.695354
0.690513
1.12664
0.686715
1.12662
0.687966
0.398986
0.418789
0.367972
0.672583
0.597707
0.36785
0.687129
0.690123
0.449631
0.594612
0.473051
0.636162
0.5977
0.453969
0.691351
0.699872
0.367805
0.590953
0.675253
0.422175
0.691113
0.397689
0.438687
0.5977
0.5977
0.56527
0.680636
0.369131
0.695383
0.430212
0.442518
0.680439
0.367825
0.5977
0.441947
0.590483
0.5977
1.12617
0.690304
0.419327
0.404351
0.685346
0.597698
0.688214
0.59128
0.5977
0.680708
0.697258
0.597698
0.5977
0.686417
0.694233
0.687834
0.508534
0.367812
0.589467
0.686655
0.694565
0.531356
0.680661
0.5977
0.578668
0.442519
0.5977
0.680077
1.12682
1.02345
0.681855
0.691187
0.680909
0.681005
0.439453
0.5977
0.555262
0.690022
0.682878
0.491566
0.693118
0.691387
0.425795
0.447225
0.379003
1.12669
0.367559
0.5977
0.69299
0.5977
0.480003
0.692355
0.411421
0.597701
0.680888
0.676115
0.674583
0.681026
0.5977
0.685224
0.597701
0.69481
0.420441
0.680609
0.687079
0.597699
1.12283
0.690003
0.441168
0.42135
0.42467
0.690793
0.36772
1.12485
0.367942
0.691673
0.387522
0.557261
0.427199
0.694507
0.690522
0.5977
0.480146
0.5977
0.680675
0.368013
0.5977
0.690264
0.441678
0.5977
0.788445
0.692728
0.680959
0.442562
0.597699
0.68911
0.680441
0.687606
0.367875
0.548681
0.691919
1.12656
1.10934
1.12685
0.5977
0.687359
0.5977
0.689808
0.367843
0.413183
1.12693
0.691412
0.681013
0.396616
0.680663
0.5977
0.5977
0.417252
0.530666
0.690692
0.688151
0.597705
0.520999
0.680846
1.11319
0.368282
0.5977
0.698504
0.368418
0.444397
0.409521
0.686269
0.469897
0.367741
0.691643
0.593054
0.69436
0.590303
0.370354
0.37098
0.689892
0.420554
0.395562
0.687941
0.453501
0.51889
0.5977
0.692663
0.686614
0.367917
0.484658
0.367491
0.689036
0.443108
0.686727
0.396667
0.687167
0.691626
0.692078
0.686243
0.686733
0.688059
0.687667
0.691796
0.68745
0.39711
0.367866
0.697997
0.68086
0.566276
0.686784
0.597701
0.680917
0.695273
0.46576
0.688821
0.690487
0.694717
0.368159
0.683944
0.474107
0.685866
0.559485
0.704103
0.680826
0.455358
0.688948
0.367885
0.586125
0.69085
0.391793
0.59133
1.12686
0.692176
0.373391
0.687482
0.367892
0.442496
0.442349
0.368094
0.685841
0.424774
0.690351
0.680395
0.523055
0.441754
0.557242
0.597702
0.5977
0.687568
0.367909
0.383659
0.367889
0.425541
0.477847
0.5977
0.688651
0.456079
0.680876
0.69217
0.406982
0.6906
0.592072
0.680838
0.367716
1.07976
0.685821
0.692279
0.690116
0.43272
0.687149
0.692075
0.684026
0.5977
0.681061
0.468369
0.442293
0.685893
0.586745
0.36787
0.680385
0.433359
0.597683
0.597703
0.689443
0.690028
0.443165
0.686617
0.54862
0.368153
0.715015
0.690148
0.693495
0.688919
0.677618
0.442539
0.691675
0.434522
0.565173
0.691179
0.954722
0.688672
0.367693
0.467098
0.69294
0.476315
0.689632
0.5977
0.545558
0.486292
0.689502
0.441257
0.680767
0.689504
0.679721
0.441451
0.422069
0.586917
0.597702
0.5977
0.579806
0.680618
0.687383
0.690134
1.12681
0.687988
0.373493
0.483245
0.689755
0.680988
0.687366
0.549252
0.408769
0.683919
0.418228
0.68919
0.5977
0.507059
0.688505
0.367824
0.691686
0.45223
0.693454
0.449947
0.685599
0.680705
0.448477
0.690954
0.5977
0.446368
0.67978
0.681601
0.5977
0.416486
0.527194
0.581235
0.69556
0.683974
0.497903
0.597703
0.689492
0.68065
0.481268
0.5977
0.692552
0.540886
0.680637
0.680343
0.49009
0.687033
0.823712
0.444711
0.5977
0.36889
0.669541
0.370824
0.440022
0.695957
0.367679
0.367764
0.415772
0.687711
0.690105
0.559277
0.680834
0.523209
0.683853
0.367921
0.691541
0.533226
0.680786
0.686057
0.679951
0.67985
0.592097
0.680646
0.680762
0.452136
0.5977
0.678186
0.5977
0.687387
0.560183
0.569171
0.691632
0.367872
0.597701
0.47611
0.680794
0.395621
0.440704
0.700083
0.684286
0.36775
0.689782
0.701714
1.12665
0.690706
1.03776
0.367549
0.690847
0.367956
0.433972
0.69025
0.697948
0.691388
0.690404
0.436799
0.373003
0.367439
0.693808
0.680138
0.524301
0.692732
0.391597
0.373126
0.405445
0.689979
0.535337
0.691723
0.687648
0.5977
0.690341
0.687144
0.5977
0.699926
0.53691
0.439049
0.367755
1.04276
1.10434
0.399341
0.5977
0.685202
0.693133
0.441574
0.595035
0.687805
0.472593
0.687348
0.687984
0.367948
0.680878
0.697971
0.367619
0.686317
0.3921
0.68794
0.695481
0.686902
0.421047
0.548116
0.60832
0.494299
0.539435
0.690624
0.498738
0.680889
0.6877
0.689771
0.702127
0.518302
0.688713
0.715073
0.68033
0.514837
0.68976
0.440716
0.411539
0.691361
0.689101
0.68046
0.443884
0.680585
0.5977
1.06588
0.386475
0.391207
0.36794
0.689829
0.367757
0.397782
0.451119
0.684818
0.395692
0.490488
0.539044
0.686576
0.367519
0.677325
0.680689
0.690117
0.375996
0.6864
0.597702
0.68081
0.532224
0.5977
0.371035
0.367911
0.686585
0.367792
0.597703
0.688928
1.12667
0.367808
0.502693
0.374901
0.596024
1.12698
0.446499
0.693489
0.687868
0.701338
0.367715
0.431704
0.507519
0.68387
0.367825
1.12683
0.5977
0.680735
0.692144
0.367798
0.597285
0.430136
0.681111
0.5977
0.692904
0.639737
0.5977
0.5977
0.68779
0.690017
0.367833
0.551386
0.399377
0.704316
0.597705
0.967806
0.367764
0.535185
0.693507
0.686312
0.66904
0.367814
0.690004
0.595503
0.597005
0.684317
0.442674
0.367874
0.491273
0.689784
0.680495
0.5977
0.686407
0.506437
0.692301
0.5977
0.680701
0.680676
0.691813
0.690457
0.680795
0.695352
0.693416
0.443185
0.687293
0.68937
0.680988
0.687664
0.689554
0.5977
0.367658
0.448195
0.692685
0.36787
0.520627
0.690465
0.412851
0.5977
0.686849
0.692322
0.693718
0.442807
0.690684
0.443093
0.40584
0.680757
0.686821
0.680422
0.381263
0.689896
0.680744
0.687496
0.681218
0.451026
0.681137
0.692952
0.697663
0.567828
0.698923
0.367671
0.687082
0.397923
0.367667
0.5977
0.552953
0.691557
0.696468
0.680872
0.44518
0.681138
0.563215
0.416952
0.689257
0.556575
0.367865
0.680815
0.4576
0.570222
0.6153
0.687991
0.689827
0.558539
0.5977
0.597642
0.680693
0.597703
0.693613
0.587717
0.689332
0.686544
0.597702
0.434962
0.36761
0.550558
0.688861
0.440844
0.597707
0.689976
0.5977
0.680676
0.5977
0.672218
0.681792
0.36771
0.689625
0.685756
0.5977
0.685879
0.692473
0.690161
0.680694
0.367638
0.406955
0.687222
0.597703
0.5977
0.688557
0.685775
0.680473
0.695339
0.695095
0.5977
0.686818
0.693193
0.407887
0.454539
0.398737
0.494863
1.12344
0.567844
0.5977
0.688173
0.686772
0.437168
0.692227
0.688686
0.385098
0.522942
1.11594
0.688158
0.445661
0.438103
0.428758
1.12683
0.690468
0.583425
0.373176
0.367996
0.449943
0.518334
0.367797
0.692121
0.685883
0.686536
0.367967
0.692313
0.5977
0.5977
0.494968
0.367844
0.689471
1.12701
0.367662
0.680746
0.367593
0.699983
0.442588
0.690207
0.36797
0.69017
0.691132
0.372972
0.597335
0.4788
0.690594
0.453699
0.5977
0.430586
0.596697
0.370403
0.5977
0.368044
0.67643
0.676435
0.5977
0.690822
0.498818
0.691441
0.680627
0.690332
0.5977
0.679863
0.367846
0.597621
0.398258
0.696253
0.486787
0.691392
0.596121
0.698599
0.692478
0.597699
0.692739
0.418342
0.40273
0.407094
0.594296
0.5977
0.685371
0.367798
0.461509
0.680269
0.52549
0.440604
0.597702
0.522977
0.367714
0.446593
0.691107
0.5977
0.5977
0.419998
0.690645
0.689917
0.443956
0.505393
0.690183
0.680301
0.678952
0.573591
0.532874
0.515075
0.373488
0.692242
0.688024
0.597704
0.708845
0.432381
0.5977
0.367781
0.661254
0.690398
0.367833
0.473604
0.690195
0.5977
0.691316
0.693462
0.695282
0.690184
0.691753
0.383255
0.456593
0.402908
0.36786
0.5977
0.750824
0.5977
0.367677
0.367988
0.592
0.444899
0.680499
0.688175
0.367973
0.497596
0.686901
0.432889
0.597173
0.694191
0.68921
0.680826
0.5977
0.367821
0.369282
0.685915
0.36783
0.578711
0.556804
0.680834
0.690314
0.48413
0.367866
1.12682
0.368014
0.68861
0.696501
0.367829
0.42793
0.38486
0.686527
0.385815
1.12683
0.691702
0.5977
0.44253
0.585126
0.689928
0.692243
0.367682
0.692254
0.695913
0.439859
0.688494
0.688625
0.367605
0.367772
0.688742
0.367921
0.367858
0.692479
0.511917
0.683075
0.644727
0.698092
0.693578
0.691376
0.687362
0.68084
0.367458
0.53007
0.691212
0.684898
0.547007
0.690902
0.506228
0.687787
0.690127
0.5977
0.597703
0.59707
0.55759
0.690338
0.690987
0.686663
0.691111
0.68535
1.12661
0.690733
1.12681
0.692219
0.68954
0.691692
1.12721
0.680738
0.423722
0.689803
0.449386
0.689585
0.687504
0.695467
0.687875
0.703887
0.421869
0.374591
0.497278
0.36748
0.688867
0.367751
0.367743
0.688841
0.437649
0.695394
0.371785
0.691716
0.687161
0.367602
0.524541
0.511006
0.689122
0.419307
0.684757
0.68899
0.378779
0.689375
0.597669
0.530193
0.450274
0.444551
0.723777
0.367768
0.689757
0.5977
0.484642
0.688201
0.680852
0.695381
0.367643
0.5977
0.432591
0.692768
0.680759
0.68863
0.367704
0.684358
0.68835
0.686826
0.542717
0.688828
0.3677
0.367984
0.69052
0.565054
0.692396
0.597318
0.367731
0.541557
0.687641
0.443138
0.423345
0.420447
0.597699
0.992451
0.687965
0.404469
0.5977
0.686139
0.595353
0.597708
0.501011
0.597694
0.367834
0.367791
0.689795
0.367966
0.368029
0.690834
0.689826
0.388037
0.704678
0.385348
1.12307
0.456526
0.689804
0.669058
0.703875
0.680841
0.437399
0.367868
0.440583
0.680648
0.688709
0.5977
0.597705
0.520245
0.494207
0.680634
0.36744
0.68471
0.520115
0.669984
0.678643
0.371912
0.432899
0.367929
0.36781
0.439524
0.688726
0.689196
0.367848
0.686902
0.5977
0.490048
0.418909
0.690323
0.367865
0.686725
0.535222
0.702261
0.597702
0.686264
0.916549
0.411444
0.695191
0.690242
0.690544
0.367931
0.685112
0.5977
0.517364
0.68881
0.688698
0.691416
0.690326
0.691797
0.690553
0.690679
0.680907
0.680239
0.367732
0.695754
0.3679
0.595255
0.690849
0.439242
0.69082
0.685038
0.456985
0.687496
0.367842
0.443342
0.691069
0.683093
0.689775
0.367676
0.690025
0.5977
0.456884
0.367976
0.690672
0.689919
0.522692
0.42973
0.693929
0.690146
0.367721
0.597702
0.691228
0.5977
0.381726
0.367664
0.439359
0.597705
0.451562
0.69273
0.705209
0.68071
0.5977
0.687001
0.367659
0.690236
0.5977
0.691005
0.65509
0.442818
0.367542
0.435964
0.699279
0.689131
0.533634
0.597703
0.487789
0.682157
0.689093
0.423533
0.696087
0.693326
0.5977
0.36853
0.36967
0.497376
0.689026
0.692285
0.5977
0.573805
0.686444
0.367704
0.5977
1.10836
0.684456
0.369213
0.5977
0.46107
0.684871
0.442942
0.684929
0.691098
0.417458
0.68871
0.597704
1.12696
0.593978
1.12682
0.690384
0.565691
0.680681
0.680914
0.689984
0.684478
0.552612
1.11782
0.393024
0.680898
0.432737
0.36753
0.44455
0.436676
0.367885
0.368255
0.690598
0.51726
0.401612
0.659609
0.689102
0.689493
0.575785
0.699684
0.702489
0.680729
0.450523
0.591653
0.687794
0.484547
0.438456
0.367903
0.5977
0.568253
0.367882
0.597703
0.439555
0.954527
0.565292
0.378391
0.555224
0.597702
0.50383
0.689458
0.425978
0.5977
0.520724
0.692051
0.5281
0.676302
1.12249
0.683702
0.597711
0.367654
0.692232
0.690506
0.441577
0.442491
0.680687
0.367956
0.699403
0.367941
0.59757
0.434087
0.687457
0.457885
0.690416
0.367539
0.689277
0.687024
0.691185
1.12304
0.391946
0.43196
0.575966
0.690726
0.68776
0.687752
0.5977
0.457815
0.692996
0.503371
0.688599
0.680892
0.574361
0.485185
0.695012
0.684344
0.429516
0.660862
0.692395
0.693567
0.697505
0.428954
0.5977
0.367836
0.693544
0.453813
0.680864
0.689005
0.692771
0.689889
0.488265
0.688978
0.367715
0.367837
0.688928
1.11772
0.597701
0.686215
1.1248
0.367829
0.700081
0.691682
0.691127
0.442563
0.549017
0.692951
0.367837
0.688135
0.690274
0.69133
0.691465
0.48258
0.583851
0.5977
0.42082
0.690247
0.69017
0.590493
0.690541
0.482379
0.686503
0.699685
0.591377
0.690736
0.36962
0.442041
0.68542
0.691699
0.449794
0.505936
0.449363
0.428228
0.400631
0.44457
0.461663
0.367905
0.685412
0.431371
0.38211
0.692987
0.5977
1.1268
0.532361
0.367828
0.686753
0.582049
0.5977
0.692737
0.524632
0.5977
0.678259
0.5977
0.692531
0.41839
0.687988
0.68088
0.387392
0.367982
0.573248
0.684755
0.5977
0.691715
0.680736
0.685347
0.694196
0.5536
0.687988
0.680893
0.691661
0.36768
0.687425
0.679778
0.547098
0.546403
0.38372
0.42854
0.401632
0.5977
0.635275
0.696911
0.367843
0.528403
0.691308
0.447362
0.689742
0.680905
0.691398
0.593427
0.686071
0.480445
0.430192
0.430918
0.5977
0.45034
0.685467
0.43219
0.687541
0.680642
0.686849
0.488381
0.577613
0.55928
0.686916
0.41863
0.367846
0.690709
0.69218
0.590328
0.680721
0.690851
0.699392
0.367803
0.5977
0.693162
0.58293
0.686568
0.691449
0.697304
0.5424
0.532941
0.691118
0.563987
0.5977
0.367823
0.689277
0.690856
0.572245
0.452157
0.692859
0.58918
0.690994
0.690221
0.367848
0.367913
0.79965
0.597708
0.580368
0.691032
0.690633
0.464137
0.692173
0.790341
0.688012
0.367873
0.5977
0.367788
0.690759
0.690189
0.698593
0.697646
0.721795
0.492742
0.521241
0.685566
0.367877
0.5977
0.478418
0.686676
0.412507
0.596761
0.693419
0.830154
0.367684
1.12679
1.07898
0.367772
0.689681
0.444462
0.690775
0.367666
0.369339
0.421445
0.685482
0.691801
0.503439
0.495604
0.689522
0.69182
0.56042
0.708826
0.367925
0.597699
0.367939
0.685094
0.367802
0.674689
0.690908
0.451205
0.597711
0.368447
0.680449
0.395312
0.367674
0.692746
0.441759
0.699076
0.580704
0.419221
0.692773
0.719255
0.690926
0.673075
0.475437
0.5977
0.43386
0.367797
0.689868
0.670716
0.689178
0.367922
0.521299
0.5977
0.692492
0.593071
0.694591
0.5977