# vtk DataFile Version 1.0
unstructured grid
ascii
DATASET UNSTRUCTURED_GRID
points 13672 float
0.0796578 -0.059106 0
0.00128732 0.00159165 0
0.00227961 -0.00102548 0
0.0791586 -0.0598787 0
-0.0546216 0.01 0
0.000495206 0.025 0
0.0800549 -0.035 0
0.135172 -0.08 0
-0.0546216 -0.0451168 0
0.000495206 -0.0301168 0
0.0800549 -0.0901168 0
0.135172 -0.135117 0
-0.0546216 -0.0451168 -0.00551168
0.000495206 -0.0301168 -0.00551168
0.0800549 -0.0901168 -0.00551168
0.135172 -0.135117 -0.00551168
0.135172 -0.08 -0.00551168
0.0800549 -0.035 -0.00551168
0.000495206 0.025 -0.00551168
-0.0546216 0.01 -0.00551168
0.00128732 0.00159165 -0.00551168
0.00227961 -0.00102548 -0.00551168
0.0791586 -0.0598787 -0.00551168
0.0796578 -0.059106 -0.00551168
0.00165953 -0.000990923 0
0.00119576 -0.000874076 0
0.000866021 -0.000641801 0
0.000645147 -0.000349912 0
0.00052235 -1.7281e-05 0
0.00049972 0.000348016 0
0.000601632 0.000737716 0
0.000861774 0.0011403 0
0.00157235 0.00183217 0
0.00188647 0.00206725 0
0.00222612 0.00230203 0
0.00258713 0.00254351 0
0.00296826 0.00279524 0
0.00337118 0.00305664 0
0.00379785 0.00332658 0
0.00425045 0.00360349 0
0.00473139 0.00388521 0
0.0052432 0.00416895 0
0.0057881 0.00445204 0
0.00636753 0.00473281 0
0.00698281 0.00500961 0
0.00763526 0.00528058 0
0.00832616 0.00554366 0
0.00905691 0.00579603 0
0.00982918 0.00603333 0
0.0106445 0.00625033 0
0.0115038 0.00644128 0
0.0124073 0.00660297 0
0.0133543 0.00673414 0
0.0143444 0.00683382 0
0.0153769 0.00690031 0
0.0164512 0.00693173 0
0.0175666 0.00692547 0
0.0187219 0.00687822 0
0.0199156 0.00678477 0
0.0211454 0.00663864 0
0.0224084 0.00643275 0
0.0237018 0.00616676 0
0.0250249 0.00584739 0
0.026375 0.00547298 0
0.0277479 0.00503752 0
0.0291386 0.00453545 0
0.0305433 0.0039653 0
0.0319572 0.0033256 0
0.0333681 0.00260019 0
0.034775 0.00179799 0
0.0361793 0.000930615 0
0.0375798 3.12222e-06 0
0.0389689 -0.000988429 0
0.0403357 -0.00205109 0
0.041675 -0.00318283 0
0.0429849 -0.00437751 0
0.0442643 -0.00562904 0
0.0455126 -0.00693089 0
0.0467314 -0.00827518 0
0.0479204 -0.00965638 0
0.0490661 -0.0110799 0
0.0501515 -0.0125519 0
0.0511696 -0.0140695 0
0.0521492 -0.0156071 0
0.0531202 -0.0171411 0
0.0540851 -0.0186663 0
0.0550431 -0.0201798 0
0.0559923 -0.0216793 0
0.0569311 -0.0231626 0
0.0578582 -0.0246273 0
0.0587723 -0.0260715 0
0.0596721 -0.027493 0
0.0605563 -0.02889 0
0.0614241 -0.0302609 0
0.0622742 -0.0316042 0
0.063106 -0.0329183 0
0.0639186 -0.034202 0
0.0647113 -0.0354543 0
0.0654835 -0.0366743 0
0.0662345 -0.0378613 0
0.0669642 -0.0390145 0
0.0676726 -0.0401333 0
0.0683597 -0.0412172 0
0.0690246 -0.0422665 0
0.0696662 -0.0432819 0
0.0702841 -0.0442636 0
0.0708793 -0.0452111 0
0.0714538 -0.0461237 0
0.072009 -0.047001 0
0.0725452 -0.0478434 0
0.0730611 -0.0486524 0
0.073556 -0.0494294 0
0.0740291 -0.0501756 0
0.0744812 -0.0508916 0
0.0749138 -0.0515773 0
0.0753285 -0.0522331 0
0.0757266 -0.0528592 0
0.076109 -0.0534564 0
0.0764753 -0.0540264 0
0.0768243 -0.054571 0
0.0771553 -0.0550919 0
0.0774679 -0.0555901 0
0.0777617 -0.0560669 0
0.0780369 -0.056523 0
0.0782958 -0.0569578 0
0.0785421 -0.0573703 0
0.0787786 -0.0577603 0
0.0790073 -0.0581279 0
0.0792295 -0.058474 0
0.0794462 -0.0587995 0
0.0798803 -0.0594162 0
0.0800272 -0.0596588 0
0.0800357 -0.0598891 0
0.0799275 -0.0600784 0
0.0797205 -0.0601773 0
0.0794593 -0.0601051 0
0.0789155 -0.0596491 0
0.0786707 -0.0593963 0
0.0784111 -0.0591319 0
0.0781372 -0.0588542 0
0.0778566 -0.0585548 0
0.0775715 -0.0582308 0
0.0772803 -0.0578828 0
0.0769832 -0.0575099 0
0.0766822 -0.0571097 0
0.0763801 -0.0566796 0
0.0760759 -0.0562196 0
0.0757623 -0.0557337 0
0.0754359 -0.0552232 0
0.0750951 -0.0546879 0
0.0747379 -0.054128 0
0.0743626 -0.0535435 0
0.0739688 -0.0529338 0
0.0735559 -0.0522981 0
0.0731238 -0.0516357 0
0.0726718 -0.050946 0
0.0721991 -0.0502288 0
0.0717046 -0.049484 0
0.0711872 -0.0487117 0
0.0706461 -0.047912 0
0.0700804 -0.0470849 0
0.0694892 -0.0462308 0
0.0688718 -0.0453499 0
0.0682271 -0.0444431 0
0.0675544 -0.043511 0
0.0668527 -0.0425546 0
0.0661215 -0.0415748 0
0.06536 -0.040573 0
0.0645676 -0.0395504 0
0.0637439 -0.0385087 0
0.0628887 -0.0374493 0
0.062002 -0.0363741 0
0.0610838 -0.0352847 0
0.0601345 -0.0341831 0
0.0591547 -0.033071 0
0.0581456 -0.0319502 0
0.0571083 -0.0308224 0
0.0560444 -0.0296893 0
0.0549562 -0.028552 0
0.053845 -0.0274126 0
0.0527113 -0.0262746 0
0.051554 -0.0251427 0
0.0503724 -0.0240222 0
0.0491675 -0.0229164 0
0.047941 -0.0218282 0
0.0466955 -0.0207597 0
0.0454337 -0.0197126 0
0.0441592 -0.0186878 0
0.0428751 -0.0176863 0
0.0415841 -0.0167097 0
0.0402878 -0.0157609 0
0.0389879 -0.0148428 0
0.0376864 -0.0139575 0
0.0363853 -0.013107 0
0.0350871 -0.0122931 0
0.0337942 -0.0115164 0
0.0325095 -0.0107772 0
0.0312357 -0.0100756 0
0.0299758 -0.00941024 0
0.0287337 -0.00877784 0
0.0275126 -0.00817571 0
0.0263139 -0.00760375 0
0.0251376 -0.00706528 0
0.0239829 -0.0065649 0
0.0228537 -0.00609619 0
0.0217522 -0.00565563 0
0.0206795 -0.00524226 0
0.0196364 -0.00485507 0
0.0186233 -0.00449318 0
0.0176408 -0.00415577 0
0.016689 -0.00384204 0
0.0157682 -0.00355115 0
0.0148783 -0.00328218 0
0.0140192 -0.00303468 0
0.0131906 -0.00280795 0
0.0123925 -0.00260016 0
0.0116246 -0.00241012 0
0.0108864 -0.00223769 0
0.0101774 -0.00208212 0
0.00949701 -0.00194206 0
0.00884483 -0.0018163 0
0.0082202 -0.0017039 0
0.00762247 -0.00160391 0
0.00705097 -0.00151528 0
0.006505 -0.00143697 0
0.0059838 -0.00136806 0
0.00548662 -0.00130772 0
0.00501265 -0.00125519 0
0.00456114 -0.00120954 0
0.00413136 -0.00116914 0
0.00372257 -0.00113251 0
0.00333398 -0.00109853 0
0.00296466 -0.00106798 0
0.00261363 -0.0010431 0
-0.052721 -0.0445996 0
-0.0508204 -0.0440823 0
-0.0489199 -0.0435651 0
-0.0470193 -0.0430478 0
-0.0451187 -0.0425306 0
-0.0432181 -0.0420134 0
-0.0413175 -0.0414961 0
-0.039417 -0.0409789 0
-0.0375164 -0.0404616 0
-0.0356158 -0.0399444 0
-0.0337152 -0.0394271 0
-0.0318146 -0.0389099 0
-0.0299141 -0.0383927 0
-0.0280135 -0.0378754 0
-0.0261129 -0.0373582 0
-0.0242123 -0.0368409 0
-0.0223117 -0.0363237 0
-0.0204112 -0.0358065 0
-0.0185106 -0.0352892 0
-0.01661 -0.034772 0
-0.0147094 -0.0342547 0
-0.0128088 -0.0337375 0
-0.0109083 -0.0332202 0
-0.00900769 -0.032703 0
-0.00710711 -0.0321858 0
-0.00520653 -0.0316685 0
-0.00330595 -0.0311513 0
-0.00140537 -0.030634 0
0.00190689 -0.0299614 0
0.00332271 -0.0298498 0
0.00474133 -0.0297825 0
0.00616136 -0.0297597 0
0.0075814 -0.0297814 0
0.00900007 -0.0298477 0
0.010416 -0.0299583 0
0.0118278 -0.0301127 0
0.0132342 -0.0303103 0
0.0146339 -0.0305504 0
0.0160259 -0.0308322 0
0.0174091 -0.0311546 0
0.0187824 -0.0315166 0
0.020145 -0.031917 0
0.0214961 -0.0323546 0
0.0228351 -0.032828 0
0.0241613 -0.0333361 0
0.0254744 -0.0338774 0
0.0267738 -0.0344507 0
0.0280592 -0.0350545 0
0.0293306 -0.0356877 0
0.0305875 -0.0363488 0
0.0318301 -0.0370367 0
0.0330581 -0.0377501 0
0.0342717 -0.0384879 0
0.0354708 -0.0392489 0
0.0366556 -0.0400321 0
0.0378262 -0.0408363 0
0.0389828 -0.0416607 0
0.0401254 -0.0425042 0
0.0412543 -0.0433659 0
0.0423698 -0.0442451 0
0.043472 -0.0451408 0
0.0445612 -0.0460523 0
0.0456375 -0.0469789 0
0.0467013 -0.0479199 0
0.0477529 -0.0488746 0
0.0487923 -0.0498424 0
0.04982 -0.0508227 0
0.0508362 -0.051815 0
0.051841 -0.0528187 0
0.0528348 -0.0538333 0
0.0538178 -0.0548584 0
0.0547903 -0.0558935 0
0.0557524 -0.0569382 0
0.0567045 -0.0579922 0
0.0576467 -0.0590549 0
0.0585792 -0.0601261 0
0.0595024 -0.0612055 0
0.0604163 -0.0622926 0
0.0613212 -0.0633873 0
0.0622174 -0.0644891 0
0.0631049 -0.0655979 0
0.0639841 -0.0667134 0
0.064855 -0.0678353 0
0.0657179 -0.0689633 0
0.0665729 -0.0700974 0
0.0674202 -0.0712372 0
0.06826 -0.0723826 0
0.0690925 -0.0735333 0
0.0699178 -0.0746892 0
0.070736 -0.0758501 0
0.0715473 -0.0770159 0
0.0723518 -0.0781863 0
0.0731498 -0.0793612 0
0.0739412 -0.0805405 0
0.0747264 -0.081724 0
0.0755053 -0.0829116 0
0.0762781 -0.0841033 0
0.0770449 -0.0852987 0
0.0778059 -0.0864979 0
0.0785611 -0.0877007 0
0.0793108 -0.088907 0
0.0814681 -0.0912706 0
0.0828814 -0.0924245 0
0.0842946 -0.0935783 0
0.0857079 -0.0947322 0
0.0871211 -0.095886 0
0.0885344 -0.0970399 0
0.0899476 -0.0981937 0
0.0913609 -0.0993476 0
0.0927741 -0.100501 0
0.0941874 -0.101655 0
0.0956006 -0.102809 0
0.0970139 -0.103963 0
0.0984272 -0.105117 0
0.0998404 -0.106271 0
0.101254 -0.107424 0
0.102667 -0.108578 0
0.10408 -0.109732 0
0.105493 -0.110886 0
0.106907 -0.11204 0
0.10832 -0.113194 0
0.109733 -0.114348 0
0.111146 -0.115501 0
0.11256 -0.116655 0
0.113973 -0.117809 0
0.115386 -0.118963 0
0.116799 -0.120117 0
0.118213 -0.121271 0
0.119626 -0.122424 0
0.121039 -0.123578 0
0.122452 -0.124732 0
0.123866 -0.125886 0
0.125279 -0.12704 0
0.126692 -0.128194 0
0.128105 -0.129348 0
0.129519 -0.130501 0
0.130932 -0.131655 0
0.132345 -0.132809 0
0.133758 -0.133963 0
0.135172 -0.133216 0
0.135172 -0.131316 0
0.135172 -0.129415 0
0.135172 -0.127514 0
0.135172 -0.125614 0
0.135172 -0.123713 0
0.135172 -0.121813 0
0.135172 -0.119912 0
0.135172 -0.118012 0
0.135172 -0.116111 0
0.135172 -0.11421 0
0.135172 -0.11231 0
0.135172 -0.110409 0
0.135172 -0.108509 0
0.135172 -0.106608 0
0.135172 -0.104708 0
0.135172 -0.102807 0
0.135172 -0.100906 0
0.135172 -0.0990058 0
0.135172 -0.0971052 0
0.135172 -0.0952046 0
0.135172 -0.0933041 0
0.135172 -0.0914035 0
0.135172 -0.0895029 0
0.135172 -0.0876023 0
0.135172 -0.0857017 0
0.135172 -0.0838012 0
0.135172 -0.0819006 0
0.133758 -0.0788462 0
0.132345 -0.0776923 0
0.130932 -0.0765385 0
0.129519 -0.0753846 0
0.128105 -0.0742308 0
0.126692 -0.0730769 0
0.125279 -0.0719231 0
0.123866 -0.0707692 0
0.122452 -0.0696154 0
0.121039 -0.0684615 0
0.119626 -0.0673077 0
0.118213 -0.0661538 0
0.116799 -0.065 0
0.115386 -0.0638462 0
0.113973 -0.0626923 0
0.11256 -0.0615385 0
0.111146 -0.0603846 0
0.109733 -0.0592308 0
0.10832 -0.0580769 0
0.106907 -0.0569231 0
0.105493 -0.0557692 0
0.10408 -0.0546154 0
0.102667 -0.0534615 0
0.101254 -0.0523077 0
0.0998404 -0.0511538 0
0.0984272 -0.05 0
0.0970139 -0.0488462 0
0.0956006 -0.0476923 0
[...]
CELL_DATA 13116
SCALARS rho float
LOOKUP_TABLE default
0.5977
0.680782
0.484727
0.68886
0.690191
0.680967
0.376016
0.691769
0.5977
0.692892
0.36765
0.486959
0.690392
0.434067
0.451007
0.680951
0.5977
0.718317
0.680787
0.367715
0.5977
0.490467
0.464142
0.703213
0.5977
0.692557
0.693071
0.52292
0.5977
0.5977
0.668915
0.474006
0.5977
0.597706
0.380629
0.5977
0.597696
0.679991
0.680703
0.692035
0.680782
0.691912
0.5977
0.461983
0.680843
0.680693
0.698687
0.681065
0.479052
0.5977
0.690193
0.5977
0.399628
0.5977
0.5977
0.5977
0.45986
0.695071
0.5977
0.465309
0.437124
0.69113
0.697727
0.680661
0.66973
0.416314
0.680057
0.597702
0.681751
0.676955
0.450475
0.5977
0.495174
0.441843
0.964189
0.42131
0.591975
0.688049
0.368293
0.612955
0.666619
0.693657
0.69904
0.680982
0.696184
0.567115
0.385755
0.5977
0.694102
0.367886
0.482984
0.680746
0.699168
0.693507
0.5977
0.5977
0.5977
0.727281
0.803045
0.5977
0.5977
0.650438
0.680696
0.597712
0.692894
0.47213
0.543573
0.5977
0.495964
0.5977
0.5977
0.693125
0.5977
0.633473
0.638663
0.68789
0.404167
0.563588
0.687202
0.689107
0.5977
0.507754
0.685155
0.4835
0.694115
0.594262
0.39074
0.597704
0.483708
0.597699
0.68736
0.680319
0.59407
0.48324
0.588644
0.5977
1.12691
0.6877
0.5977
0.689433
0.597705
0.698882
0.597702
0.5977
0.68022
0.446555
0.378763
0.693348
0.690775
0.69091
0.597701
0.680899
0.681287
0.389212
0.692948
0.695564
0.473543
0.5977
0.745384
0.5977
0.702709
0.367636
0.69397
0.475878
0.513638
0.69044
0.693956
0.7148
0.378826
0.579526
0.566677
1.12684
0.447963
0.597704
0.682932
0.463399
0.46416
0.493944
0.692349
0.680664
0.367798
0.582541
0.5977
0.597705
0.680793
0.5977
0.388897
0.68089
0.691597
0.597711
0.5977
0.693346
0.680382
0.483775
0.691846
0.680719
0.695212
0.680971
0.694274
0.597708
0.597707
0.5977
0.597705
0.447617
0.687424
0.680976
0.5977
0.5977
0.45637
0.36789
0.418535
0.680666
0.479019
0.367874
0.367503
0.393254
0.55784
0.680665
0.694324
0.562546
0.453162
0.680193
0.5977
0.367819
0.597702
0.691459
0.679762
0.52374
0.68157
0.552365
0.691679
0.47502
0.680581
0.5977
0.864498
0.693662
0.680731
0.486406
0.593917
0.5977
1.05503
0.680651
1.12685
0.680656
0.691782
0.468733
0.689042
0.692101
0.775333
0.370801
0.482607
0.680696
0.687323
0.677617
0.684113
0.5977
0.597242
0.367462
0.50023
0.589205
0.454209
0.69181
0.695481
0.591365
0.373628
0.688977
0.40033
0.565464
0.693219
0.37061
0.692938
0.690425
1.10724
0.694347
0.484018
1.11596
0.678752
0.743149
0.687739
0.367727
0.379502
0.483808
0.5977
0.503903
0.497697
0.53515
0.524062
0.686305
0.407459
0.693963
0.689296
0.380325
0.367671
0.395875
0.589595
0.516415
0.5977
0.597701
0.692519
0.369314
0.680696
0.5977
0.505731
0.464417
0.680794
0.687392
0.681014
0.392994
0.680701
0.597713
0.680199
0.691587
0.690777
0.69157
0.485644
0.680118
0.43252
0.680645
0.691723
0.5977
0.367755
0.533612
0.691415
0.396155
0.699043
0.690956
0.574637
0.597701
0.698556
0.386779
0.688215
0.699626
0.430549
0.687497
0.565425
0.5977
0.694003
0.567352
0.5977
0.373433
0.703719
0.538257
0.680671
0.69138
0.695178
0.518982
0.546085
0.695823
0.386389
0.68676
0.691401
0.580276
1.12709
0.386629
0.476666
0.686643
0.5977
0.597707
0.383759
0.475992
0.688924
0.689357
0.37504
0.689028
0.417066
0.476776
0.690261
0.69368
0.5977
0.367882
0.687742
0.664402
0.680971
0.694393
0.689124
0.5977
0.575305
0.446464
0.367921
0.681043
0.367881
0.5977
0.573819
0.483445
0.542805
0.5977
0.473512
0.382482
0.695865
0.491645
0.693887
0.5977
0.680956
0.5977
0.689157
0.480229
0.377675
0.597708
0.556371
0.686499
0.5977
0.680717
0.5977
0.680546
0.5977
0.693793
0.5977
0.5977
0.687832
0.590976
0.680925
0.592254
0.5977
0.5977
0.482163
0.597701
0.5977
0.397713
0.683831
1.1166
0.48686
0.36796
0.367657
0.381845
0.5977
0.415213
0.483393
0.680917
0.415659
0.5977
0.367931
0.680799
0.681183
0.5407
0.483578
0.686481
0.586971
0.36776
0.381342
0.367746
0.495763
0.378102
0.367952
0.505166
0.567937
0.367549
0.657829
0.538164
0.694857
0.597674
0.48332
0.588612
0.449686
0.367938
0.451531
0.691872
0.574625
0.5977
0.5977
0.410795
0.5977
0.693928
0.565979
0.597701
0.5977
0.5977
0.37702
0.858347
0.563765
0.692076
0.689225
0.49259
0.405169
0.692249
0.56207
0.566675
0.691872
0.542892
0.5977
0.678221
0.367822
0.459871
0.436397
0.597705
0.460719
0.41898
0.44762
0.430152
0.689844
0.690044
0.591855
0.5977
0.590755
0.691834
0.549317
0.408987
0.5977
0.494376
0.680928
0.525025
0.551735
0.592739
0.680843
0.693578
0.597699
0.575122
0.40072
0.597699
0.691558
0.680738
0.5977
0.694758
0.690716
0.367723
0.680711
0.5977
0.5977
0.532731
0.514578
0.614836
0.695018
0.5977
0.691511
0.694758
0.693962
0.702391
0.5977
0.68086
0.368148
0.680651
0.541599
0.462763
0.368069
0.689439
0.680856
0.528654
0.695886
0.5977
0.367684
0.680617
0.687411
0.686083
0.521044
0.404712
0.68751
0.3677
0.36784
0.458504
0.367804
0.680734
0.425199
0.688603
0.533151
0.681744
0.690178
0.680407
0.690058
0.367759
0.36784
0.680589
0.691318
0.596493
0.690008
0.692452
0.583273
0.38318
0.49953
0.680703
0.5977
0.367601
0.585654
0.48334
0.693803
0.680747
0.531072
0.495336
0.695381
0.569489
0.693448
0.5977
0.478826
0.551874
0.597359
1.06708
0.479056
0.69332
0.693903
0.680741
0.409628
1.1266
0.451559
0.92357
0.5977
0.367883
0.556189
0.499418
0.848651
0.498836
0.372511
0.566553
0.680551
0.684722
0.370916
0.497008
0.368078
0.680714
0.499769
0.680635
0.444265
0.5977
0.691447
0.597593
0.47287
0.467109
0.584071
0.502111
0.693306
0.401282
0.421578
0.68091
0.420307
0.680814
0.698726
0.780315
0.36768
0.680625
0.695476
0.695352
0.680644
0.69445
0.690611
0.461434
0.679656
0.564117
0.680591
0.367893
0.691506
0.5977
0.384555
0.658438
0.690002
0.391255
0.5977
0.481928
0.446847
0.680792
0.691994
0.484852
0.452014
0.369182
0.462302
0.693955
0.704758
0.405618
0.368021
0.686522
0.688037
0.5977
0.695354
0.680784
0.367512
0.694115
0.569836
0.690051
0.571873
0.5977
0.583239
0.680699
0.597707
0.5977
0.545529
0.51333
0.680882
0.5977
0.5977
0.695013
0.447994
0.679956
0.693058
0.555439
0.5977
0.695981
0.568591
0.670071
0.5977
0.532612
0.689919
0.5977
0.485814
0.682745
0.482599
0.694967
0.441362
0.680661
0.70296
0.511206
0.680744
0.694384
0.687677
0.5977
0.680793
0.5977
0.523665
0.597714
0.487749
0.439911
1.12696
0.597701
0.688705
0.690137
0.367906
0.52739
0.680424
0.690722
0.686342
0.690562
0.368057
0.58761
0.691725
0.367732
0.485315
0.687124
0.680732
0.695802
0.46767
0.5977
0.548044
0.68033
0.697647
0.680514
0.681164
0.367681
0.680851
0.694237
0.699803
0.692216
0.680843
0.563544
0.688483
0.367894
0.688811
0.69225
0.580012
0.679613
0.680729
0.690144
0.5977
0.589336
0.5977
0.5977
0.36774
0.367925
0.37278
0.367596
0.68148
0.679767
0.680926
0.527206
0.367427
0.680397
0.5977
0.427818
0.52967
0.584313
0.589449
0.680958
0.694639
0.684828
0.367937
0.367773
1.1266
0.48283
0.367806
0.405636
0.680738
0.545682
0.367738
0.5977
0.681215
0.691768
0.680922
0.680844
0.40609
0.432664
0.370389
0.5977
0.574473
0.47737
0.597704
0.677747
0.697687
0.680896
0.471009
0.367774
0.692009
0.367815
0.68085
0.704526
0.675642
0.484681
0.367779
0.695115
0.661293
0.5977
0.427565
0.695575
0.681039
0.5977
0.690592
0.690664
1.12595
0.695124
0.368028
0.680728
0.670722
0.597705
0.680039
1.12708
0.693434
1.12485
0.688433
0.4195
0.442875
0.367781
0.652751
0.5977
0.367733
0.680673
0.686889
0.485105
0.5977
0.550901
0.5977
0.5977
0.484026
0.690782
0.706105
0.367652
0.597704
0.660214
0.463553
0.693617
0.425048
0.469721
0.5977
0.5977
0.588702
0.680814
0.37599
0.692904
0.456281
0.475781
0.68078
0.367624
0.5977
0.481932
0.5977
0.5977
1.12363
0.693832
0.445954
0.425824
0.635879
0.5977
0.686302
0.597702
0.5977
0.681005
0.699706
0.5977
0.5977
0.692058
0.694815
0.686273
0.540172
0.367847
0.597705
0.691966
0.695311
0.570464
0.680644
0.5977
0.59771
0.483512
0.5977
0.590349
1.12655
0.886808
0.694482
0.677262
0.680696
0.588084
0.476581
0.5977
0.584094
0.690409
0.680748
0.523241
0.69491
0.6902
0.450945
0.477366
0.393882
1.127
0.367615
0.5977
0.687051
0.5977
0.512558
0.684705
0.445868
0.5977
0.680839
0.680114
0.597702
0.680629
0.5977
0.661046
0.5977
0.680625
0.444183
0.681007
0.680741
0.5977
1.11284
0.680441
0.485879
0.448415
0.467325
0.690693
0.367783
1.11997
0.370474
0.691475
0.407817
0.58304
0.461184
0.692118
0.689873
0.5977
0.51529
0.5977
0.680753
0.367762
0.5977
0.68986
0.476641
0.5977
0.693643
0.691619
0.680875
0.49263
0.5977
0.686677
0.680723
0.680301
0.367726
0.585591
0.691041
1.12715
1.06958
1.12655
0.5977
0.681165
0.5977
0.690224
0.367593
0.449103
1.12658
0.689855
0.680524
0.422184
0.681023
0.5977
0.5977
0.440696
0.560156
0.68926
0.687748
0.5977
0.566447
0.680925
1.0831
0.374501
0.5977
0.682757
0.375342
0.482992
0.434702
0.690625
0.502686
0.368134
0.692545
0.5977
0.694264
0.5977
0.380601
0.380616
0.689665
0.444827
0.415722
0.662505
0.487502
0.552983
0.5977
0.694966
0.680177
0.36747
0.565467
0.36797
0.699448
0.474859
0.680526
0.418062
0.680282
0.695079
0.680159
0.695002
0.680672
0.696931
0.680954
0.690045
0.686467
0.421414
0.367781
0.68084
0.680808
0.588996
0.692028
0.5977
0.680834
0.597706
0.536167
0.689689
0.690486
0.680949
0.373141
0.680969
0.511831
0.68093
0.583762
0.690942
0.680671
0.485408
0.686539
0.367918
0.597707
0.687203
0.410195
0.5977
1.12696
0.692957
0.385172
0.681023
0.367566
0.484483
0.483744
0.367482
0.597583
0.451575
0.597706
0.680806
0.566461
0.48473
0.582488
0.5977
0.5977
0.703898
0.367727
0.402045
0.372847
0.459388
0.513766
0.5977
0.694014
0.527561
0.680814
0.686645
0.431842
0.690189
0.5977
0.680785
0.368499
0.991315
0.680842
0.688302
0.690566
0.460335
0.682131
0.689266
0.681145
0.5977
0.680709
0.499822
0.483904
0.68079
0.597706
0.367784
0.680817
0.472278
0.5977
0.5977
0.695136
0.695472
0.481963
0.691943
0.589314
0.373209
0.597703
0.687784
0.691721
0.68896
0.597705
0.485014
0.690773
0.462872
0.588184
0.690308
0.832075
0.686444
0.37079
0.502271
0.691796
0.508176
0.687526
0.5977
0.57685
0.520918
0.689691
0.480424
0.680674
0.687382
0.59571
0.481171
0.446673
0.597707
0.5977
0.5977
0.59771
0.68098
0.705127
0.694453
1.12688
0.680198
0.387504
0.517652
0.687707
0.680635
0.655129
0.577514
0.442286
0.679308
0.444196
0.680794
0.5977
0.566263
0.686412
0.367576
0.695251
0.486374
0.691707
0.480239
0.680409
0.680619
0.484116
0.69402
0.5977
0.489041
0.680639
0.681061
0.5977
0.446583
0.566036
0.597711
0.695882
0.699903
0.535013
0.5977
0.683887
0.680875
0.513598
0.5977
0.684104
0.568414
0.680987
0.680651
0.521635
0.685788
0.713402
0.478728
0.5977
0.375303
0.597701
0.380264
0.470798
0.694684
0.368089
0.368143
0.44184
0.68061
0.702223
0.596402
0.680948
0.560504
0.67854
0.367578
0.689462
0.574456
0.681006
0.680739
0.597681
0.680851
0.597703
0.680555
0.680838
0.514911
0.5977
0.597694
0.5977
0.680349
0.584662
0.597705
0.690692
0.367855
0.5977
0.554789
0.68071
0.420067
0.482607
0.708696
0.680717
0.367827
0.69002
0.675034
1.12713
0.690188
0.927932
0.367952
0.690099
0.367695
0.478446
0.693644
0.689116
0.691893
0.695075
0.471576
0.384337
0.368655
0.67949
0.680834
0.562395
0.694196
0.415102
0.384663
0.426624
0.694019
0.569471
0.690453
0.686552
0.5977
0.691995
0.684815
0.5977
0.59558
0.565591
0.487165
0.367771
0.930303
1.03007
0.426991
0.5977
0.690222
0.597517
0.491143
0.597699
0.705856
0.517395
0.703537
0.5977
0.36785
0.680849
0.681153
0.36792
0.68061
0.41167
0.689054
0.693467
0.680602
0.447594
0.57482
0.5977
0.525818
0.567049
0.692285
0.530353
0.680735
0.682789
0.693142
0.669963
0.592429
0.657061
0.597706
0.680761
0.545448
0.688683
0.46854
0.440626
0.696159
0.680989
0.681069
0.500284
0.680612
0.5977
0.963834
0.406618
0.415355
0.367764
0.688991
0.372124
0.419978
0.480238
0.5977
0.416582
0.522182
0.567323
0.680372
0.368075
0.680778
0.681003
0.691853
0.38932
0.680418
0.5977
0.680843
0.561634
0.5977
0.38156
0.367808
0.681015
0.367712
0.5977
0.681546
1.12548
0.368021
0.534445
0.387696
0.5977
1.12664
0.502495
0.6803
0.680861
0.686468
0.367777
0.459768
0.53921
0.695018
0.367786
1.12685
0.5977
0.680925
0.685581
0.367658
0.5977
0.463573
0.59698
0.5977
0.691099
0.5977
0.5977
0.5977
0.67003
0.688096
0.369818
0.594941
0.422868
0.670628
0.5977
0.858427
0.368028
0.567422
0.690026
0.679883
0.676797
0.367715
0.691956
0.5977
0.597699
0.700739
0.497804
0.367685
0.522833
0.680907
0.680876
0.5977
0.691558
0.53763
0.693114
0.5977
0.680903
0.680863
0.692418
0.69065
0.681001
0.687704
0.691976
0.494709
0.687531
0.689193
0.68062
0.687477
0.680982
0.5977
0.367941
0.481245
0.59731
0.367932
0.575514
0.692397
0.436638
0.5977
0.680215
0.678638
0.681064
0.489863
0.691708
0.484779
0.437744
0.681013
0.680008
0.680835
0.396824
0.688959
0.680793
0.602966
0.680981
0.480617
0.680624
0.691884
0.681265
0.597699
0.699624
0.367535
0.686764
0.417634
0.367925
0.5977
0.582248
0.690902
0.694924
0.680832
0.473536
0.680731
0.597449
0.441863
0.693231
0.581512
0.367814
0.680809
0.4915
0.591757
0.5977
0.70506
0.696654
0.583361
0.5977
0.5977
0.68075
0.5977
0.691471
0.597706
0.689764
0.691591
0.5977
0.467216
0.368041
0.57994
0.688776
0.486072
0.5977
0.690214
0.5977
0.680713
0.5977
0.5977
0.591927
0.368688
0.689973
0.691273
0.5977
0.691788
0.690937
0.693095
0.680721
0.367758
0.429034
0.680544
0.5977
0.5977
0.687675
0.680731
0.681005
0.695199
0.694199
0.5977
0.703496
0.691688
0.432275
0.493743
0.424162
0.54861
1.11438
0.595497
0.5977
0.686218
0.65213
0.484329
0.681005
0.68875
0.401884
0.554498
1.08715
0.687711
0.503457
0.470232
0.459467
1.12682
0.692691
0.597705
0.3867
0.367752
0.482196
0.558227
0.367906
0.692688
0.680753
0.680373
0.370681
0.678406
0.5977
0.5977
0.530852
0.36794
0.693214
1.12665
0.36788
0.680818
0.36793
0.702503
0.494071
0.69216
0.371851
0.697825
0.689659
0.384322
0.5977
0.511054
0.689967
0.488663
0.5977
0.46841
0.597699
0.380091
0.5977
0.367805
0.680368
0.680369
0.5977
0.68102
0.535332
0.693524
0.680634
0.68904
0.5977
0.67833
0.367904
0.597699
0.423925
0.697467
0.522459
0.690202
0.5977
0.687682
0.691537
0.5977
0.688237
0.443281
0.432892
0.43117
0.5977
0.5977
0.68048
0.368758
0.492383
0.680888
0.555423
0.478842
0.5977
0.555689
0.367804
0.479173
0.691562
0.5977
0.5977
0.459825
0.699173
0.680532
0.477698
0.538738
0.694506
0.680721
0.59767
0.593838
0.561688
0.5458
0.385285
0.69407
0.593429
0.5977
0.597714
0.460972
0.5977
0.367513
0.666655
0.689009
0.367862
0.505265
0.588899
0.5977
0.689228
0.691534
0.694949
0.690522
0.690534
0.399234
0.487156
0.427537
0.36778
0.5977
0.685289
0.5977
0.368013
0.367572
0.597701
0.481362
0.681127
0.705936
0.3677
0.530397
0.680074
0.480485
0.5977
0.69275
0.699402
0.680881
0.5977
0.367822
0.376952
0.701928
0.367873
0.597713
0.595092
0.680596
0.690915
0.516201
0.367926
1.12711
0.367767
0.680305
0.697915
0.367939
0.453392
0.404804
0.680875
0.407422
1.12688
0.680206
0.5977
0.475453
0.597706
0.687529
0.683603
0.371852
0.683623
0.597701
0.487227
0.686888
0.688779
0.369562
0.367942
0.694852
0.367767
0.36779
0.683036
0.543734
0.680814
0.5977
0.697741
0.597705
0.689851
0.679996
0.680775
0.3694
0.5592
0.659552
0.680854
0.573901
0.69049
0.540288
0.688661
0.696489
0.5977
0.5977
0.597699
0.586368
0.681089
0.688275
0.691634
0.689938
0.680755
1.12587
0.690783
1.12707
0.69443
0.693528
0.692675
1.127
0.680655
0.483573
0.693472
0.509895
0.689961
0.687753
0.690093
0.697172
0.616599
0.446296
0.387039
0.528697
0.369856
0.700402
0.369118
0.369616
0.677583
0.470006
0.68637
0.382252
0.691934
0.68314
0.368111
0.554457
0.570018
0.688268
0.458324
0.680473
0.686514
0.393329
0.693321
0.5977
0.596077
0.516322
0.478654
0.597702
0.367885
0.690504
0.5977
0.517779
0.680762
0.68069
0.695671
0.367893
0.5977
0.469327
0.678127
0.680827
0.689201
0.367644
0.680837
0.687764
0.692
0.576289
0.68799
0.367861
0.367723
0.693533
0.593828
0.693014
0.597699
0.367694
0.570139
0.693825
0.502826
0.486667
0.444359
0.5977
0.851251
0.686138
0.431756
0.5977
0.680856
0.5977
0.5977
0.566788
0.5977
0.367817
0.3678
0.680706
0.367853
0.367494
0.690429
0.689667
0.405488
0.703315
0.401961
1.11392
0.528461
0.693434
0.677919
0.653109
0.680861
0.464661
0.367543
0.479731
0.680947
0.694277
0.5977
0.5977
0.550803
0.52756
0.680974
0.368694
0.680801
0.550271
0.679612
0.597705
0.382652
0.471847
0.367799
0.36792
0.486101
0.601148
0.7026
0.370801
0.684488
0.5977
0.524261
0.44479
0.689906
0.367929
0.681024
0.56372
0.67796
0.5977
0.679996
0.787821
0.434762
0.693727
0.691113
0.690482
0.367898
0.70379
0.5977
0.570678
0.688835
0.597083
0.69217
0.701244
0.690455
0.693702
0.69136
0.680607
0.681038
0.368029
0.695146
0.367752
0.597699
0.691739
0.477866
0.697903
0.693537
0.487071
0.692991
0.367974
0.483564
0.693685
0.695314
0.689679
0.367765
0.701681
0.5977
0.528531
0.371148
0.694141
0.680738
0.553507
0.455424
0.686495
0.689962
0.367869
0.5977
0.689347
0.5977
0.397451
0.367889
0.475751
0.5977
0.481938
0.679544
0.62857
0.680941
0.5977
0.683079
0.367818
0.695171
0.5977
0.689432
0.5977
0.485297
0.370564
0.465806
0.701235
0.686624
0.562209
0.5977
0.568915
0.597332
0.689274
0.451387
0.597706
0.679621
0.5977
0.373829
0.377604
0.553401
0.687201
0.692996
0.5977
0.593996
0.680316
0.367913
0.5977
1.07131
0.680822
0.376217
0.5977
0.49171
0.693239
0.474052
0.681102
0.693625
0.456039
0.686887
0.5977
1.12676
0.5977
1.12683
0.690717
0.597315
0.680919
0.680802
0.689264
0.680829
0.578208
1.09109
0.416078
0.680861
0.461869
0.367842
0.474809
0.481446
0.36781
0.373013
0.690041
0.54764
0.424434
0.5977
0.686995
0.702124
0.597712
0.603863
0.597707
0.680857
0.498705
0.5977
0.680721
0.519716
0.465471
0.367472
0.5977
0.590395
0.367916
0.5977
0.472666
0.815515
0.588324
0.395778
0.581736
0.5977
0.553823
0.680515
0.453547
0.5977
0.551715
0.693701
0.560469
0.597703
1.08513
0.69112
0.5977
0.367716
0.693966
0.690396
0.469241
0.485029
0.680912
0.367692
0.70006
0.37051
0.5977
0.463834
0.680037
0.488675
0.690106
0.367886
0.689397
0.685284
0.688557
1.11507
0.414382
0.47331
0.597711
0.693765
0.676383
0.693573
0.5977
0.488262
0.688019
0.565272
0.694433
0.696123
0.597714
0.519291
0.693289
0.680935
0.466342
0.668157
0.693564
0.692283
0.699486
0.456913
0.5977
0.367977
0.691176
0.484916
0.68102
0.693106
0.694936
0.68977
0.521918
0.688511
0.368082
0.371165
0.68083
1.09929
0.5977
0.680768
1.11753
0.367878
0.716254
0.693756
0.691367
0.484299
0.58027
0.597544
0.370426
0.68826
0.690608
0.696066
0.692591
0.520312
0.59771
0.5977
0.460206
0.695842
0.689643
0.597704
0.69368
0.516363
0.703249
0.713441
0.5977
0.693785
0.377766
0.485573
0.680384
0.693111
0.478938
0.543021
0.478707
0.471755
0.423389
0.485296
0.528598
0.367763
0.680752
0.460174
0.397914
0.685819
0.5977
1.12711
0.563913
0.367981
0.680937
0.59771
0.5977
0.69326
0.557013
0.5977
0.680632
0.5977
0.679015
0.455024
0.686193
0.680762
0.404661
0.367594
0.597713
0.693531
0.5977
0.690353
0.68092
0.680778
0.680572
0.597722
0.686905
0.680809
0.695271
0.367737
0.680767
0.596263
0.596844
0.576787
0.403778
0.463094
0.425278
0.5977
0.5977
0.680781
0.367767
0.557933
0.689666
0.483213
0.686627
0.680797
0.694801
0.5977
0.680034
0.514929
0.465748
0.462561
0.5977
0.480918
0.681367
0.463562
0.681069
0.680901
0.685579
0.539226
0.597712
0.59359
0.683623
0.442304
0.367428
0.692406
0.682371
0.5977
0.68095
0.694441
0.697286
0.367846
0.5977
0.691461
0.597594
0.680134
0.686919
0.695776
0.569694
0.561707
0.691642
0.587472
0.5977
0.368107
0.695104
0.696754
0.597712
0.48232
0.679114
0.597706
0.688877
0.686484
0.367828
0.367652
0.705427
0.5977
0.597711
0.695393
0.693933
0.495067
0.681308
0.68737
0.698082
0.367857
0.5977
0.367827
0.693331
0.688583
0.695675
0.680992
0.672579
0.524919
0.559316
0.680743
0.367987
0.5977
0.51082
0.682334
0.442258
0.5977
0.691496
0.718242
0.367709
1.12679
0.993093
0.367525
0.683923
0.47807
0.691048
0.367728
0.377045
0.450899
0.681491
0.68005
0.536859
0.527217
0.693187
0.690518
0.588601
0.593986
0.367786
0.5977
0.367674
0.681408
0.367665
0.597703
0.693763
0.517833
0.5977
0.374295
0.68063
0.414348
0.367881
0.693018
0.485261
0.67946
0.59771
0.449039
0.691119
0.662372
0.694591
0.597703
0.508994
0.5977
0.486861
0.367582
0.697079
0.678125
0.680187
0.367929
0.557425
0.5977
0.692603
0.597702
0.693912
0.5977
0.69795
0.542145
0.691433
0.68953
0.5977
0.68887
0.486986
0.681231
0.367543
0.489943
0.470098
0.367635
0.690479
0.686994
0.69084
0.681502
0.681015
0.547927
0.693549
0.514559
0.460109
0.367723
0.468898
0.367726
0.68655
0.687353
0.367924
0.447372