# vtk DataFile Version 1.0
unstructured grid
ascii
DATASET UNSTRUCTURED_GRID
points 13672 float
0.0796578 -0.059106 0
0.00128732 0.00159165 0
0.00227961 -0.00102548 0
0.0791586 -0.0598787 0
-0.0546216 0.01 0
0.000495206 0.025 0
0.0800549 -0.035 0
0.135172 -0.08 0
-0.0546216 -0.0451168 0
0.000495206 -0.0301168 0
0.0800549 -0.0901168 0
0.135172 -0.135117 0
-0.0546216 -0.0451168 -0.00551168
0.000495206 -0.0301168 -0.00551168
0.0800549 -0.0901168 -0.00551168
0.135172 -0.135117 -0.00551168
0.135172 -0.08 -0.00551168
0.0800549 -0.035 -0.00551168
0.000495206 0.025 -0.00551168
-0.0546216 0.01 -0.00551168
0.00128732 0.00159165 -0.00551168
0.00227961 -0.00102548 -0.00551168
0.0791586 -0.0598787 -0.00551168
0.0796578 -0.059106 -0.00551168
0.00165953 -0.000990923 0
0.00119576 -0.000874076 0
0.000866021 -0.000641801 0
0.000645147 -0.000349912 0
0.00052235 -1.7281e-05 0
0.00049972 0.000348016 0
0.000601632 0.000737716 0
0.000861774 0.0011403 0
0.00157235 0.00183217 0
0.00188647 0.00206725 0
0.00222612 0.00230203 0
0.00258713 0.00254351 0
0.00296826 0.00279524 0
0.00337118 0.00305664 0
0.00379785 0.00332658 0
0.00425045 0.00360349 0
0.00473139 0.00388521 0
0.0052432 0.00416895 0
0.0057881 0.00445204 0
0.00636753 0.00473281 0
0.00698281 0.00500961 0
0.00763526 0.00528058 0
0.00832616 0.00554366 0
0.00905691 0.00579603 0
0.00982918 0.00603333 0
0.0106445 0.00625033 0
0.0115038 0.00644128 0
0.0124073 0.00660297 0
0.0133543 0.00673414 0
0.0143444 0.00683382 0
0.0153769 0.00690031 0
0.0164512 0.00693173 0
0.0175666 0.00692547 0
0.0187219 0.00687822 0
0.0199156 0.00678477 0
0.0211454 0.00663864 0
0.0224084 0.00643275 0
0.0237018 0.00616676 0
0.0250249 0.00584739 0
0.026375 0.00547298 0
0.0277479 0.00503752 0
0.0291386 0.00453545 0
0.0305433 0.0039653 0
0.0319572 0.0033256 0
0.0333681 0.00260019 0
0.034775 0.00179799 0
0.0361793 0.000930615 0
0.0375798 3.12222e-06 0
0.0389689 -0.000988429 0
0.0403357 -0.00205109 0
0.041675 -0.00318283 0
0.0429849 -0.00437751 0
0.0442643 -0.00562904 0
0.0455126 -0.00693089 0
0.0467314 -0.00827518 0
0.0479204 -0.00965638 0
0.0490661 -0.0110799 0
0.0501515 -0.0125519 0
0.0511696 -0.0140695 0
0.0521492 -0.0156071 0
0.0531202 -0.0171411 0
0.0540851 -0.0186663 0
0.0550431 -0.0201798 0
0.0559923 -0.0216793 0
0.0569311 -0.0231626 0
0.0578582 -0.0246273 0
0.0587723 -0.0260715 0
0.0596721 -0.027493 0
0.0605563 -0.02889 0
0.0614241 -0.0302609 0
0.0622742 -0.0316042 0
0.063106 -0.0329183 0
0.0639186 -0.034202 0
0.0647113 -0.0354543 0
0.0654835 -0.0366743 0
0.0662345 -0.0378613 0
0.0669642 -0.0390145 0
0.0676726 -0.0401333 0
0.0683597 -0.0412172 0
0.0690246 -0.0422665 0
0.0696662 -0.0432819 0
0.0702841 -0.0442636 0
0.0708793 -0.0452111 0
0.0714538 -0.0461237 0
0.072009 -0.047001 0
0.0725452 -0.0478434 0
0.0730611 -0.0486524 0
0.073556 -0.0494294 0
0.0740291 -0.0501756 0
0.0744812 -0.0508916 0
0.0749138 -0.0515773 0
0.0753285 -0.0522331 0
0.0757266 -0.0528592 0
0.076109 -0.0534564 0
0.0764753 -0.0540264 0
0.0768243 -0.054571 0
0.0771553 -0.0550919 0
0.0774679 -0.0555901 0
0.0777617 -0.0560669 0
0.0780369 -0.056523 0
0.0782958 -0.0569578 0
0.0785421 -0.0573703 0
0.0787786 -0.0577603 0
0.0790073 -0.0581279 0
0.0792295 -0.058474 0
0.0794462 -0.0587995 0
0.0798803 -0.0594162 0
0.0800272 -0.0596588 0
0.0800357 -0.0598891 0
0.0799275 -0.0600784 0
0.0797205 -0.0601773 0
0.0794593 -0.0601051 0
0.0789155 -0.0596491 0
0.0786707 -0.0593963 0
0.0784111 -0.0591319 0
0.0781372 -0.0588542 0
0.0778566 -0.0585548 0
0.0775715 -0.0582308 0
0.0772803 -0.0578828 0
0.0769832 -0.0575099 0
0.0766822 -0.0571097 0
0.0763801 -0.0566796 0
0.0760759 -0.0562196 0
0.0757623 -0.0557337 0
0.0754359 -0.0552232 0
0.0750951 -0.0546879 0
0.0747379 -0.054128 0
0.0743626 -0.0535435 0
0.0739688 -0.0529338 0
0.0735559 -0.0522981 0
0.0731238 -0.0516357 0
0.0726718 -0.050946 0
0.0721991 -0.0502288 0
0.0717046 -0.049484 0
0.0711872 -0.0487117 0
0.0706461 -0.047912 0
0.0700804 -0.0470849 0
0.0694892 -0.0462308 0
0.0688718 -0.0453499 0
0.0682271 -0.0444431 0
0.0675544 -0.043511 0
0.0668527 -0.0425546 0
0.0661215 -0.0415748 0
0.06536 -0.040573 0
0.0645676 -0.0395504 0
0.0637439 -0.0385087 0
0.0628887 -0.0374493 0
0.062002 -0.0363741 0
0.0610838 -0.0352847 0
0.0601345 -0.0341831 0
0.0591547 -0.033071 0
0.0581456 -0.0319502 0
0.0571083 -0.0308224 0
0.0560444 -0.0296893 0
0.0549562 -0.028552 0
0.053845 -0.0274126 0
0.0527113 -0.0262746 0
0.051554 -0.0251427 0
0.0503724 -0.0240222 0
0.0491675 -0.0229164 0
0.047941 -0.0218282 0
0.0466955 -0.0207597 0
0.0454337 -0.0197126 0
0.0441592 -0.0186878 0
0.0428751 -0.0176863 0
0.0415841 -0.0167097 0
0.0402878 -0.0157609 0
0.0389879 -0.0148428 0
0.0376864 -0.0139575 0
0.0363853 -0.013107 0
0.0350871 -0.0122931 0
0.0337942 -0.0115164 0
0.0325095 -0.0107772 0
0.0312357 -0.0100756 0
0.0299758 -0.00941024 0
0.0287337 -0.00877784 0
0.0275126 -0.00817571 0
0.0263139 -0.00760375 0
0.0251376 -0.00706528 0
0.0239829 -0.0065649 0
0.0228537 -0.00609619 0
0.0217522 -0.00565563 0
0.0206795 -0.00524226 0
0.0196364 -0.00485507 0
0.0186233 -0.00449318 0
0.0176408 -0.00415577 0
0.016689 -0.00384204 0
0.0157682 -0.00355115 0
0.0148783 -0.00328218 0
0.0140192 -0.00303468 0
0.0131906 -0.00280795 0
0.0123925 -0.00260016 0
0.0116246 -0.00241012 0
0.0108864 -0.00223769 0
0.0101774 -0.00208212 0
0.00949701 -0.00194206 0
0.00884483 -0.0018163 0
0.0082202 -0.0017039 0
0.00762247 -0.00160391 0
0.00705097 -0.00151528 0
0.006505 -0.00143697 0
0.0059838 -0.00136806 0
0.00548662 -0.00130772 0
0.00501265 -0.00125519 0
0.00456114 -0.00120954 0
0.00413136 -0.00116914 0
0.00372257 -0.00113251 0
0.00333398 -0.00109853 0
0.00296466 -0.00106798 0
0.00261363 -0.0010431 0
-0.052721 -0.0445996 0
-0.0508204 -0.0440823 0
-0.0489199 -0.0435651 0
-0.0470193 -0.0430478 0
-0.0451187 -0.0425306 0
-0.0432181 -0.0420134 0
-0.0413175 -0.0414961 0
-0.039417 -0.0409789 0
-0.0375164 -0.0404616 0
-0.0356158 -0.0399444 0
-0.0337152 -0.0394271 0
-0.0318146 -0.0389099 0
-0.0299141 -0.0383927 0
-0.0280135 -0.0378754 0
-0.0261129 -0.0373582 0
-0.0242123 -0.0368409 0
-0.0223117 -0.0363237 0
-0.0204112 -0.0358065 0
-0.0185106 -0.0352892 0
-0.01661 -0.034772 0
-0.0147094 -0.0342547 0
-0.0128088 -0.0337375 0
-0.0109083 -0.0332202 0
-0.00900769 -0.032703 0
-0.00710711 -0.0321858 0
-0.00520653 -0.0316685 0
-0.00330595 -0.0311513 0
-0.00140537 -0.030634 0
0.00190689 -0.0299614 0
0.00332271 -0.0298498 0
0.00474133 -0.0297825 0
0.00616136 -0.0297597 0
0.0075814 -0.0297814 0
0.00900007 -0.0298477 0
0.010416 -0.0299583 0
0.0118278 -0.0301127 0
0.0132342 -0.0303103 0
0.0146339 -0.0305504 0
0.0160259 -0.0308322 0
0.0174091 -0.0311546 0
0.0187824 -0.0315166 0
0.020145 -0.031917 0
0.0214961 -0.0323546 0
0.0228351 -0.032828 0
0.0241613 -0.0333361 0
0.0254744 -0.0338774 0
0.0267738 -0.0344507 0
0.0280592 -0.0350545 0
0.0293306 -0.0356877 0
0.0305875 -0.0363488 0
0.0318301 -0.0370367 0
0.0330581 -0.0377501 0
0.0342717 -0.0384879 0
0.0354708 -0.0392489 0
0.0366556 -0.0400321 0
0.0378262 -0.0408363 0
0.0389828 -0.0416607 0
0.0401254 -0.0425042 0
0.0412543 -0.0433659 0
0.0423698 -0.0442451 0
0.043472 -0.0451408 0
0.0445612 -0.0460523 0
0.0456375 -0.0469789 0
0.0467013 -0.0479199 0
0.0477529 -0.0488746 0
0.0487923 -0.0498424 0
0.04982 -0.0508227 0
0.0508362 -0.051815 0
0.051841 -0.0528187 0
0.0528348 -0.0538333 0
0.0538178 -0.0548584 0
0.0547903 -0.0558935 0
0.0557524 -0.0569382 0
0.0567045 -0.0579922 0
0.0576467 -0.0590549 0
0.0585792 -0.0601261 0
0.0595024 -0.0612055 0
0.0604163 -0.0622926 0
0.0613212 -0.0633873 0
0.0622174 -0.0644891 0
0.0631049 -0.0655979 0
0.0639841 -0.0667134 0
0.064855 -0.0678353 0
0.0657179 -0.0689633 0
0.0665729 -0.0700974 0
0.0674202 -0.0712372 0
0.06826 -0.0723826 0
0.0690925 -0.0735333 0
0.0699178 -0.0746892 0
0.070736 -0.0758501 0
0.0715473 -0.0770159 0
0.0723518 -0.0781863 0
0.0731498 -0.0793612 0
0.0739412 -0.0805405 0
0.0747264 -0.081724 0
0.0755053 -0.0829116 0
0.0762781 -0.0841033 0
0.0770449 -0.0852987 0
0.0778059 -0.0864979 0
0.0785611 -0.0877007 0
0.0793108 -0.088907 0
0.0814681 -0.0912706 0
0.0828814 -0.0924245 0
0.0842946 -0.0935783 0
0.0857079 -0.0947322 0
0.0871211 -0.095886 0
0.0885344 -0.0970399 0
0.0899476 -0.0981937 0
0.0913609 -0.0993476 0
0.0927741 -0.100501 0
0.0941874 -0.101655 0
0.0956006 -0.102809 0
0.0970139 -0.103963 0
0.0984272 -0.105117 0
0.0998404 -0.106271 0
0.101254 -0.107424 0
0.102667 -0.108578 0
0.10408 -0.109732 0
0.105493 -0.110886 0
0.106907 -0.11204 0
0.10832 -0.113194 0
0.109733 -0.114348 0
0.111146 -0.115501 0
0.11256 -0.116655 0
0.113973 -0.117809 0
0.115386 -0.118963 0
0.116799 -0.120117 0
0.118213 -0.121271 0
0.119626 -0.122424 0
0.121039 -0.123578 0
0.122452 -0.124732 0
0.123866 -0.125886 0
0.125279 -0.12704 0
0.126692 -0.128194 0
0.128105 -0.129348 0
0.129519 -0.130501 0
0.130932 -0.131655 0
0.132345 -0.132809 0
0.133758 -0.133963 0
0.135172 -0.133216 0
0.135172 -0.131316 0
0.135172 -0.129415 0
0.135172 -0.127514 0
0.135172 -0.125614 0
0.135172 -0.123713 0
0.135172 -0.121813 0
0.135172 -0.119912 0
0.135172 -0.118012 0
0.135172 -0.116111 0
0.135172 -0.11421 0
0.135172 -0.11231 0
0.135172 -0.110409 0
0.135172 -0.108509 0
0.135172 -0.106608 0
0.135172 -0.104708 0
0.135172 -0.102807 0
0.135172 -0.100906 0
0.135172 -0.0990058 0
0.135172 -0.0971052 0
0.135172 -0.0952046 0
0.135172 -0.0933041 0
0.135172 -0.0914035 0
0.135172 -0.0895029 0
0.135172 -0.0876023 0
0.135172 -0.0857017 0
0.135172 -0.0838012 0
0.135172 -0.0819006 0
0.133758 -0.0788462 0
0.132345 -0.0776923 0
0.130932 -0.0765385 0
0.129519 -0.0753846 0
0.128105 -0.0742308 0
0.126692 -0.0730769 0
0.125279 -0.0719231 0
0.123866 -0.0707692 0
0.122452 -0.0696154 0
0.121039 -0.0684615 0
0.119626 -0.0673077 0
0.118213 -0.0661538 0
0.116799 -0.065 0
0.115386 -0.0638462 0
0.113973 -0.0626923 0
0.11256 -0.0615385 0
0.111146 -0.0603846 0
0.109733 -0.0592308 0
0.10832 -0.0580769 0
0.106907 -0.0569231 0
0.105493 -0.0557692 0
0.10408 -0.0546154 0
0.102667 -0.0534615 0
0.101254 -0.0523077 0
0.0998404 -0.0511538 0
0.0984272 -0.05 0
0.0970139 -0.0488462 0
0.0956006 -0.0476923 0
[...]
CELL_DATA 13116
SCALARS rho float
LOOKUP_TABLE default
0.597201
0.689658
0.401599
0.689424
0.692682
0.684575
0.365084
0.691043
0.592916
0.694221
0.366933
0.410294
0.692545
0.382342
0.404218
0.685793
0.609209
0.69978
0.692482
0.367102
0.597702
0.436308
0.396543
0.698593
0.5977
0.688173
0.694538
0.40949
0.597704
0.668861
0.80228
0.411118
0.596426
0.559297
0.365426
0.597646
0.704395
0.691309
0.680679
0.688838
0.681194
0.69054
0.592035
0.390418
0.689732
0.692715
0.682703
0.687595
0.427362
0.582997
0.690401
0.581616
0.366638
0.595014
0.597036
0.597702
0.389048
0.697689
0.585068
0.414567
0.383475
0.692324
0.684592
0.680702
0.72059
0.370455
0.687786
0.699273
0.687619
0.665722
0.404081
0.597303
0.435762
0.381518
1.1129
0.384598
0.684461
0.690904
0.365741
0.703032
0.704559
0.68672
0.698079
0.696063
0.687615
0.515597
0.362751
0.692751
0.687951
0.367811
0.403012
0.690221
0.698343
0.688827
0.688629
0.597702
0.5977
0.985633
1.04755
0.597703
0.735123
0.67691
0.689082
0.547209
0.682088
0.414668
0.487985
0.594939
0.402725
0.5977
0.597677
0.685169
0.5977
0.700117
0.702671
0.688483
0.366712
0.504926
0.689828
0.688712
0.699876
0.439524
0.687801
0.401145
0.689359
0.536985
0.363226
0.56943
0.397243
0.581305
0.689836
0.704633
0.548771
0.430962
0.538458
0.676676
1.12694
0.688855
0.741694
0.68869
0.681248
0.683076
0.571397
0.681313
0.683925
0.392198
0.365695
0.686363
0.693816
0.689752
0.576335
0.696611
0.686637
0.369036
0.695109
0.687688
0.400796
0.724261
0.98525
0.690742
0.698655
0.366681
0.696523
0.400035
0.436831
0.691589
0.68916
0.700075
0.365272
0.527492
0.511933
1.12684
0.401316
0.567103
0.688236
0.39742
0.415813
0.436852
0.684801
0.680895
0.367883
0.52519
0.597706
0.70231
0.68089
0.586751
0.366953
0.689028
0.681493
0.551688
0.686057
0.686105
0.661012
0.406505
0.684916
0.680429
0.695417
0.68926
0.688039
0.5056
0.55026
0.5977
0.566926
0.385014
0.692661
0.695002
0.583999
0.597704
0.405533
0.36787
0.38178
0.686505
0.403584
0.367524
0.367977
0.370223
0.498158
0.680751
0.689421
0.510196
0.386492
0.687663
0.597527
0.367861
0.575576
0.692953
0.68324
0.410499
0.688159
0.498133
0.690545
0.409651
0.662796
0.593631
1.09749
0.688485
0.670643
0.430546
0.535102
0.683355
1.12352
0.680633
1.12696
0.676772
0.691282
0.419399
0.690039
0.694143
1.02805
0.366755
0.430401
0.696209
0.689698
0.662273
0.689885
0.597038
0.706573
0.367038
0.44112
0.514537
0.40362
0.679853
0.695496
0.683977
0.363939
0.688663
0.365041
0.512305
0.682275
0.367697
0.68742
0.690676
1.12563
0.697567
0.42882
1.12632
0.696616
1.01474
0.688746
0.365976
0.362951
0.406252
0.671931
0.436172
0.44262
0.478213
0.467104
0.690526
0.370637
0.687866
0.691875
0.364624
0.367807
0.363967
0.534553
0.410563
0.68868
0.675355
0.682883
0.367793
0.68604
0.591827
0.440361
0.414205
0.680351
0.689562
0.689261
0.367136
0.680791
0.547395
0.703985
0.690393
0.689567
0.69049
0.406554
0.687902
0.387771
0.688076
0.692552
0.614868
0.367945
0.476252
0.693365
0.363626
0.684605
0.692102
0.48397
0.709425
0.697965
0.362955
0.688755
0.69825
0.384275
0.689486
0.513112
0.585318
0.691567
0.516108
0.720063
0.363899
0.700651
0.479413
0.680344
0.676794
0.695443
0.409265
0.490013
0.687708
0.368383
0.691254
0.682014
0.522176
1.12699
0.368567
0.422432
0.688918
0.578864
0.69785
0.362715
0.401112
0.689867
0.691967
0.365879
0.690369
0.372085
0.418548
0.688585
0.69179
0.597716
0.367826
0.688941
0.751682
0.685348
0.688589
0.69582
0.578384
0.443453
0.398213
0.367977
0.683699
0.367987
0.597705
0.489924
0.405734
0.486789
0.597711
0.302598
0.36791
0.68766
0.397302
0.696409
0.597703
0.691761
0.677182
0.690279
0.423025
0.363361
0.513447
0.461703
0.689904
0.597699
0.686457
0.597703
0.68512
0.59282
0.686198
0.685332
0.662911
0.694655
0.70369
0.681133
0.518261
0.577296
0.59735
0.429827
0.674501
0.597701
0.365693
0.688282
1.12649
0.407396
0.367472
0.367796
0.36749
0.5977
0.379093
0.406456
0.68722
0.370011
0.59464
0.367935
0.686213
0.708087
0.414914
0.431131
0.689474
0.532061
0.367801
0.366764
0.367698
0.4034
0.363399
0.367591
0.446437
0.514702
0.36771
0.67656
0.434483
0.687328
0.481159
0.395623
0.542891
0.395707
0.367861
0.396707
0.68878
0.52006
0.5977
0.597673
0.368131
0.597705
0.68774
0.514003
0.710553
0.60893
0.649383
0.363855
1.06907
0.505763
0.696367
0.906788
0.406318
0.37053
0.681153
0.463655
0.515208
0.677342
0.487295
0.727488
0.684104
0.367871
0.41252
0.392502
0.565516
0.411297
0.376627
0.401316
0.385936
0.690837
0.69069
0.537722
0.597702
0.540946
0.684288
0.490254
0.376516
0.593845
0.406636
0.700961
0.453284
0.495505
0.546379
0.689783
0.689027
0.582928
0.480151
0.368505
0.580915
0.690895
0.668824
0.579354
0.681489
0.679447
0.367717
0.707582
0.592206
0.678483
0.474852
0.411418
0.699597
0.695767
0.673443
0.693028
0.686719
0.688867
0.69979
0.658104
0.690748
0.367532
0.689019
0.481872
0.410865
0.367747
0.689659
0.695028
0.472146
0.687323
0.5977
0.367957
0.679982
0.689089
0.694464
0.408916
0.374138
0.691291
0.367729
0.367817
0.40429
0.367735
0.699616
0.380872
0.688941
0.433029
0.690001
0.690143
0.687439
0.692205
0.367769
0.367915
0.697357
0.690537
0.69297
0.690953
0.694559
0.53607
0.36316
0.407384
0.685221
0.589251
0.367874
0.531456
0.40541
0.690465
0.688676
0.473764
0.439729
0.686896
0.518717
0.687661
0.5977
0.395701
0.497409
0.688988
1.12159
0.400569
0.688672
0.689115
0.696373
0.377776
1.1267
0.385371
1.09788
0.676934
0.36782
0.496162
0.443833
1.07726
0.402994
0.364592
0.507423
0.681036
0.698139
0.364943
0.43775
0.36778
0.679548
0.437567
0.680671
0.390343
0.59762
0.69301
0.485549
0.39893
0.397329
0.537193
0.40757
0.688439
0.369144
0.384225
0.681388
0.380452
0.686685
0.684399
1.04441
0.367779
0.700702
0.696544
0.69546
0.686032
0.690971
0.688545
0.403596
0.661404
0.511956
0.695734
0.365696
0.69108
0.584218
0.365298
0.757642
0.694211
0.368859
0.688837
0.40432
0.401478
0.686952
0.688638
0.403777
0.396466
0.365446
0.404621
0.69071
0.698359
0.375395
0.367753
0.691515
0.688599
0.597694
0.696494
0.688529
0.366909
0.695473
0.515185
0.690287
0.510707
0.597699
0.533764
0.687848
0.698805
0.592173
0.486587
0.407831
0.689003
0.597703
0.595354
0.696658
0.39909
0.701916
0.695194
0.499315
0.578551
0.695967
0.486408
0.682162
0.68668
0.474155
0.689304
0.686452
0.412376
0.699879
0.406078
0.687108
0.387253
0.686436
0.683789
0.408947
0.680591
0.696615
0.691666
0.5977
0.704946
0.592521
0.464028
0.543245
0.391962
0.380856
1.12679
0.577491
0.68844
0.69365
0.367831
0.452979
0.70635
0.693005
0.689102
0.690874
0.36741
0.704335
0.693765
0.367289
0.397406
0.689979
0.695913
0.686905
0.410065
0.594169
0.416186
0.701138
0.684797
0.66332
0.691711
0.367776
0.697854
0.687548
0.698354
0.688495
0.680387
0.511194
0.695366
0.3678
0.680397
0.693837
0.527513
0.685865
0.673837
0.690077
0.55864
0.5245
0.593831
0.598517
0.367787
0.367823
0.367703
0.367821
0.69114
0.705477
0.675384
0.469655
0.367538
0.687615
0.718182
0.381984
0.456588
0.531951
0.700311
0.689206
0.68826
0.700227
0.367961
0.367853
1.12692
0.402085
0.367588
0.372001
0.685645
0.415144
0.367974
0.597704
0.696734
0.684225
0.680325
0.688935
0.36714
0.389785
0.367838
0.59771
0.520345
0.408438
0.696694
0.701208
0.686282
0.685749
0.411103
0.367706
0.69321
0.367953
0.680543
0.683587
0.888647
0.403705
0.367744
0.686271
0.775693
0.648293
0.382175
0.687825
0.680746
0.597704
0.689761
0.691008
1.12699
0.681123
0.367584
0.688766
0.691256
0.679421
0.69862
1.1269
0.685368
1.12679
0.688496
0.382673
0.399708
0.367687
0.760202
0.586637
0.367928
0.705933
0.6922
0.410583
0.691895
0.417569
0.687469
0.597691
0.4305
0.692925
0.699914
0.367851
0.572069
0.747917
0.390218
0.688793
0.374746
0.413384
0.595228
0.5977
0.542727
0.689529
0.367687
0.696397
0.409832
0.413869
0.686559
0.367859
0.597702
0.406106
0.689703
0.5977
1.12682
0.689034
0.398385
0.387172
0.678055
0.595463
0.689686
0.564424
0.5977
0.684984
0.698399
0.596244
0.597701
0.684689
0.695284
0.688003
0.482398
0.367858
0.569829
0.684846
0.695324
0.502751
0.689645
0.643786
0.51176
0.404713
0.640022
0.703114
1.12695
1.09636
0.676846
0.696771
0.680523
0.708094
0.407702
0.637049
0.53082
0.689387
0.69541
0.466794
0.691361
0.69264
0.406176
0.42327
0.363479
1.12691
0.366634
0.597375
0.694491
0.612838
0.453697
0.689741
0.385637
0.594662
0.680503
0.667875
0.694539
0.68024
0.5977
0.707391
0.594129
0.694847
0.387062
0.680271
0.687189
0.590995
1.12562
0.704194
0.406729
0.40002
0.3913
0.689658
0.367833
1.12574
0.367808
0.691161
0.37208
0.534087
0.40122
0.696504
0.690789
0.596361
0.450249
0.5977
0.680738
0.367797
0.597699
0.690635
0.410084
0.597701
0.92544
0.693013
0.68067
0.407025
0.595608
0.690153
0.694414
0.680772
0.367712
0.520769
0.687907
1.12703
1.12185
1.12697
0.597702
0.704687
0.597704
0.68925
0.367764
0.386503
1.12693
0.692821
0.680977
0.37307
0.680317
0.597702
0.595828
0.393491
0.506713
0.690497
0.688839
0.589888
0.453634
0.685142
1.12299
0.365351
0.5977
0.699976
0.365412
0.393703
0.389801
0.681882
0.443459
0.367589
0.688723
0.566836
0.695347
0.693366
0.365077
0.363252
0.691293
0.401462
0.379649
0.774806
0.423068
0.493144
0.5977
0.691039
0.70177
0.367684
0.423725
0.366866
0.684277
0.416208
0.700988
0.379962
0.705417
0.689915
0.688588
0.682553
0.698101
0.684479
0.689109
0.69227
0.69106
0.378442
0.367794
0.693686
0.68045
0.54405
0.682437
0.594222
0.680639
0.678388
0.413468
0.68867
0.691803
0.693397
0.366734
0.698747
0.417734
0.69712
0.53705
0.701616
0.685997
0.431971
0.690828
0.367726
0.556951
0.685083
0.374143
0.716367
1.12678
0.691314
0.367735
0.687341
0.367939
0.403475
0.405691
0.367913
0.67707
0.40385
0.682763
0.676319
0.457008
0.406505
0.53445
0.593573
0.596056
0.680814
0.367745
0.365025
0.365939
0.399838
0.446899
0.645677
0.685609
0.410388
0.680497
0.693689
0.387569
0.69231
0.721625
0.679589
0.367382
1.11482
0.703801
0.694779
0.689238
0.411211
0.701161
0.693974
0.699657
0.586731
0.680751
0.444689
0.406071
0.695037
0.566514
0.367783
0.686614
0.403588
0.586273
0.69137
0.686903
0.686976
0.405556
0.682171
0.51173
0.36688
0.707751
0.691758
0.694414
0.68996
0.697581
0.403326
0.69242
0.412328
0.542954
0.691661
1.05461
0.689553
0.366872
0.436193
0.693694
0.450636
0.691333
0.597701
0.520558
0.460966
0.688684
0.406805
0.685943
0.691303
0.690605
0.406402
0.402604
0.564103
0.593198
0.588666
0.554226
0.682438
0.681012
0.687912
1.12682
0.705551
0.364469
0.45787
0.690919
0.680811
0.680354
0.525545
0.382208
0.705934
0.397938
0.688656
0.5977
0.438982
0.691523
0.367154
0.689986
0.403907
0.694178
0.425863
0.698958
0.680888
0.403335
0.689298
0.605917
0.381339
0.673862
0.68998
0.595269
0.393418
0.498778
0.554795
0.696221
0.678118
0.449375
0.592752
0.701102
0.681275
0.455069
0.682431
0.690849
0.517298
0.681559
0.687858
0.464948
0.688451
0.955431
0.399355
0.597704
0.367686
0.685377
0.367907
0.414757
0.696141
0.367806
0.36782
0.395334
0.687648
0.686025
0.524528
0.685644
0.49613
0.694221
0.367944
0.688815
0.493811
0.686516
0.692362
0.685727
0.675558
0.573646
0.680925
0.679506
0.406581
0.5977
0.688901
0.597699
0.705633
0.537546
0.537892
0.692432
0.367729
0.594651
0.419225
0.687209
0.376799
0.406343
0.70005
0.688796
0.36788
0.689304
0.702045
1.12688
0.690974
1.097
0.367754
0.692537
0.367571
0.402021
0.688486
0.699358
0.69058
0.687278
0.408606
0.368319
0.366606
0.689914
0.674798
0.496695
0.691343
0.370195
0.368368
0.387307
0.687537
0.509292
0.692409
0.690706
0.5977
0.688558
0.693755
0.597701
0.683085
0.513237
0.379397
0.367885
1.10106
1.12295
0.375348
0.668033
0.68091
0.683941
0.406367
0.562352
0.681467
0.434049
0.680345
0.676575
0.367483
0.680848
0.691887
0.367909
0.701511
0.376774
0.688238
0.69586
0.698012
0.400242
0.524969
0.716565
0.469155
0.515243
0.688522
0.473948
0.680877
0.687901
0.686948
0.702624
0.447652
0.795208
0.70764
0.693401
0.489848
0.690033
0.419343
0.389234
0.687232
0.689002
0.676369
0.395114
0.686047
0.5977
1.11377
0.366633
0.371666
0.367804
0.689564
0.365666
0.380506
0.409626
0.675865
0.379328
0.4658
0.515528
0.700399
0.367836
0.66472
0.680923
0.688922
0.367886
0.687428
0.676936
0.680048
0.508341
0.593628
0.365894
0.367729
0.687292
0.367853
0.692316
0.703161
1.12693
0.367667
0.476768
0.368019
0.580112
1.12703
0.397874
0.692184
0.687534
0.701581
0.368121
0.409725
0.481412
0.679345
0.367816
1.12687
0.597703
0.680948
0.688103
0.366235
0.691362
0.404235
0.675064
0.597703
0.693001
0.672947
0.597698
0.674553
0.6807
0.690908
0.367794
0.479931
0.373241
0.702033
0.590271
1.05141
0.36766
0.510073
0.696265
0.68803
0.670862
0.367857
0.688909
0.579076
0.582368
0.678515
0.405762
0.367777
0.466357
0.688929
0.677211
0.590243
0.683605
0.481164
0.691454
0.591704
0.678619
0.677207
0.691007
0.692154
0.680784
0.698041
0.694816
0.40724
0.688491
0.690245
0.681292
0.688872
0.689132
0.673944
0.367809
0.41845
0.679504
0.367746
0.450594
0.688865
0.394033
0.5977
0.687519
0.688302
0.693921
0.40769
0.688917
0.406142
0.381226
0.682193
0.703652
0.685764
0.368277
0.690647
0.6891
0.679136
0.689139
0.428868
0.680544
0.693583
0.692944
0.508384
0.699767
0.367305
0.688038
0.378989
0.367806
0.610134
0.528365
0.692913
0.696953
0.680606
0.410089
0.680647
0.527508
0.397327
0.686863
0.533948
0.367749
0.683421
0.427868
0.54831
0.698533
0.682226
0.686772
0.535873
0.597425
0.679583
0.68082
0.675114
0.694358
0.567621
0.688683
0.683244
0.674285
0.408979
0.366003
0.526242
0.689801
0.406534
0.684537
0.689399
0.5977
0.681883
0.597703
0.714342
0.708286
0.367233
0.689147
0.681811
0.597698
0.682092
0.692714
0.688528
0.680685
0.368097
0.389288
0.697165
0.592345
0.597701
0.688532
0.698153
0.6851
0.695701
0.695608
0.595734
0.680753
0.693031
0.38886
0.419065
0.379316
0.430099
1.12598
0.542271
0.597704
0.693552
0.700878
0.403672
0.694571
0.689033
0.368537
0.498186
1.12339
0.6888
0.407709
0.411353
0.404548
1.12684
0.688394
0.511044
0.364588
0.367488
0.422547
0.479967
0.367799
0.690957
0.689952
0.7065
0.367745
0.688699
0.588055
0.597702
0.468782
0.367059
0.686529
1.12667
0.367982
0.685161
0.367921
0.699551
0.406817
0.688813
0.367197
0.686339
0.690674
0.368115
0.583465
0.45449
0.692355
0.420869
0.624298
0.402081
0.577236
0.366083
0.616356
0.367731
0.66897
0.66431
0.597702
0.697209
0.471948
0.688652
0.680858
0.690363
0.591005
0.695975
0.3673
0.562555
0.373636
0.697776
0.456861
0.692748
0.579832
0.700037
0.692926
0.59758
0.694964
0.398647
0.379096
0.388333
0.57365
0.644001
0.698256
0.367885
0.438339
0.6867
0.500201
0.407217
0.668087
0.497658
0.367971
0.41744
0.690342
0.597704
0.655148
0.391312
0.687257
0.688804
0.407993
0.477429
0.687679
0.688732
0.674676
0.551828
0.508417
0.489971
0.36832
0.690626
0.678706
0.591265
0.708305
0.409795
0.597704
0.366923
0.702757
0.692114
0.367562
0.44817
0.679915
0.66469
0.692001
0.694541
0.695545
0.689272
0.691834
0.372617
0.433438
0.375255
0.36613
0.596263
0.86333
0.597589
0.36708
0.367812
0.564566
0.399453
0.685276
0.681966
0.367936
0.472638
0.687506
0.400089
0.678847
0.696116
0.684277
0.68049
0.597642
0.367855
0.36533
0.679994
0.367562
0.549104
0.520783
0.680901
0.688712
0.458177
0.3675
1.12685
0.367826
0.688237
0.697869
0.367738
0.408073
0.369853
0.687232
0.368083
1.12684
0.695095
0.597704
0.411481
0.564561
0.691084
0.689478
0.365202
0.690681
0.680172
0.400106
0.689826
0.688312
0.366819
0.367801
0.685918
0.367852
0.366018
0.690453
0.485362
0.696158
0.714818
0.698461
0.681865
0.692906
0.687678
0.680988
0.366301
0.506119
0.68118
0.700047
0.523831
0.69278
0.480635
0.688417
0.686902
0.597599
0.676717
0.561224
0.532947
0.695216
0.692483
0.682599
0.690366
0.686506
1.12669
0.69081
1.1268
0.69068
0.687593
0.690605
1.1267
0.680951
0.397883
0.686994
0.404943
0.688652
0.688526
0.697135
0.683994
0.703482
0.402728
0.368403
0.47241
0.365548
0.684141
0.366862
0.36737
0.701561
0.410619
0.698127
0.367962
0.690001
0.700121
0.367798
0.499346
0.442089
0.689484
0.388032
0.697874
0.691709
0.36954
0.686146
0.585139
0.457692
0.408081
0.405168
0.708453
0.367829
0.689117
0.597704
0.459965
0.689714
0.681793
0.695722
0.36794
0.597702
0.403914
0.689266
0.680397
0.688518
0.367889
0.699429
0.688633
0.683332
0.516737
0.68944
0.367915
0.367763
0.688483
0.539412
0.694942
0.551152
0.367927
0.51784
0.684298
0.403771
0.391649
0.389936
0.596294
1.07923
0.693674
0.383544
0.592432
0.686743
0.57886
0.575524
0.434304
0.586193
0.36789
0.367409
0.694468
0.367818
0.367724
0.689851
0.690347
0.370792
0.700988
0.373844
1.12571
0.410746
0.687859
0.666404
0.702623
0.680899
0.416425
0.367365
0.406836
0.681994
0.686924
0.596942
0.585858
0.494613
0.466608
0.680726
0.366581
0.695197
0.495441
0.653811
0.700695
0.365613
0.393707
0.367731
0.367516
0.398459
0.679834
0.68456
0.367553
0.6876
0.666003
0.464966
0.398627
0.690477
0.367816
0.698787
0.511632
0.702398
0.678902
0.687218
1.03443
0.392918
0.695641
0.688702
0.690447
0.36777
0.678743
0.597703
0.447999
0.689787
0.684181
0.690252
0.686434
0.691934
0.688663
0.690414
0.68336
0.690431
0.367634
0.697102
0.367739
0.569678
0.68854
0.406764
0.686639
0.680028
0.4341
0.683069
0.36779
0.402689
0.688321
0.678526
0.690585
0.367823
0.685587
0.5977
0.410386
0.367788
0.689213
0.688794
0.498258
0.400917
0.695201
0.690426
0.36798
0.674281
0.691699
0.597703
0.365029
0.367931
0.408096
0.678288
0.427611
0.691667
0.702464
0.68071
0.665223
0.697011
0.3679
0.68696
0.5977
0.690649
0.672186
0.406932
0.365876
0.412023
0.698069
0.689678
0.509825
0.678343
0.425882
0.685679
0.688719
0.401482
0.680053
0.692066
0.591962
0.367782
0.363291
0.431787
0.691067
0.694796
0.5977
0.552019
0.690731
0.367944
0.593104
1.12199
0.699761
0.367801
0.5977
0.437903
0.681699
0.417387
0.696749
0.688509
0.389289
0.690233
0.588978
1.12659
0.694212
1.12685
0.689434
0.537112
0.680841
0.682406
0.688621
0.697481
0.529805
1.12511
0.375404
0.684648
0.409528
0.368066
0.42039
0.396841
0.367875
0.367781
0.691573
0.492329
0.383843
0.69564
0.690726
0.684915
0.517299
0.703818
0.709543
0.680622
0.408241
0.673752
0.687995
0.444159
0.401532
0.36737
0.590991
0.546257
0.367702
0.677322
0.411649
1.06032
0.543012
0.364341
0.531838
0.674217
0.437227
0.688505
0.404342
0.597701
0.496206
0.690578
0.502972
0.695689
1.125
0.679596
0.578162
0.36794
0.690772
0.691236
0.406122
0.403049
0.683887
0.367643
0.700466
0.367753
0.58457
0.410207
0.687667
0.433647
0.691085
0.368034
0.688629
0.690332
0.692622
1.12582
0.374785
0.401714
0.513109
0.688998
0.705481
0.683786
0.65516
0.434966
0.694695
0.436039
0.6862
0.676198
0.540838
0.460192
0.696125
0.695761
0.401697
0.705795
0.691117
0.695236
0.698488
0.406967
0.591994
0.367752
0.694481
0.428952
0.680135
0.685796
0.691132
0.691208
0.463365
0.689868
0.367832
0.367186
0.688249
1.12432
0.594496
0.697247
1.12659
0.367838
0.700825
0.689918
0.690829
0.403914
0.523824
0.706005
0.366383
0.688612
0.689177
0.687171
0.69042
0.450122
0.556294
0.609799
0.392451
0.686874
0.691355
0.565652
0.688254
0.45393
0.680107
0.700599
0.722039
0.689032
0.363235
0.40674
0.698442
0.689274
0.427467
0.478824
0.426917
0.397618
0.382875
0.377722
0.411236
0.367754
0.698943
0.408465
0.36562
0.694344
0.595312
1.12692
0.507565
0.367582
0.687034
0.556188
0.597711
0.695257
0.499492
0.630256
0.666474
0.5977
0.689895
0.386599
0.691515
0.680685
0.374289
0.367714
0.541329
0.679701
0.5977
0.692254
0.687074
0.700821
0.691256
0.47814
0.68873
0.680874
0.689962
0.367917
0.687699
0.675317
0.473091
0.5218
0.368751
0.402017
0.383274
0.5977
0.702132
0.694961
0.367584
0.503387
0.691175
0.407419
0.6917
0.683808
0.687599
0.722599
0.689558
0.440612
0.402885
0.405916
0.5977
0.425859
0.685888
0.407302
0.687483
0.683004
0.688228
0.425918
0.550468
0.531577
0.693054
0.396172
0.367197
0.688933
0.689647
0.684339
0.68571
0.689285
0.700543
0.367884
0.5977
0.693857
0.562167
0.697938
0.69309
0.697341
0.518912
0.509163
0.690615
0.541525
0.684719
0.36789
0.682656
0.687604
0.509391
0.428439
0.688769
0.567469
0.692728
0.691614
0.367789
0.367583
0.93189
0.580671
0.526346
0.68782
0.689268
0.440734
0.688284
0.929835
0.684054
0.367792
0.5977
0.367894
0.688003
0.691779
0.699881
0.693989
0.833972
0.467974
0.493577
0.702004
0.367702
0.597701
0.45418
0.687311
0.389783
0.685688
0.694193
0.968374
0.367873
1.12689
1.11218
0.366652
0.682718
0.411398
0.690518
0.367962
0.36587
0.398481
0.704623
0.688675
0.47558
0.470847
0.68666
0.691884
0.53582
0.704536
0.367779
0.597395
0.367753
0.698198
0.367131
0.700505
0.688869
0.409171
0.577778
0.366448
0.674761