# vtk DataFile Version 1.0
unstructured grid
ascii
DATASET UNSTRUCTURED_GRID
points 13672 float
0.0796578 -0.059106 0
0.00128732 0.00159165 0
0.00227961 -0.00102548 0
0.0791586 -0.0598787 0
-0.0546216 0.01 0
0.000495206 0.025 0
0.0800549 -0.035 0
0.135172 -0.08 0
-0.0546216 -0.0451168 0
0.000495206 -0.0301168 0
0.0800549 -0.0901168 0
0.135172 -0.135117 0
-0.0546216 -0.0451168 -0.00551168
0.000495206 -0.0301168 -0.00551168
0.0800549 -0.0901168 -0.00551168
0.135172 -0.135117 -0.00551168
0.135172 -0.08 -0.00551168
0.0800549 -0.035 -0.00551168
0.000495206 0.025 -0.00551168
-0.0546216 0.01 -0.00551168
0.00128732 0.00159165 -0.00551168
0.00227961 -0.00102548 -0.00551168
0.0791586 -0.0598787 -0.00551168
0.0796578 -0.059106 -0.00551168
0.00165953 -0.000990923 0
0.00119576 -0.000874076 0
0.000866021 -0.000641801 0
0.000645147 -0.000349912 0
0.00052235 -1.7281e-05 0
0.00049972 0.000348016 0
0.000601632 0.000737716 0
0.000861774 0.0011403 0
0.00157235 0.00183217 0
0.00188647 0.00206725 0
0.00222612 0.00230203 0
0.00258713 0.00254351 0
0.00296826 0.00279524 0
0.00337118 0.00305664 0
0.00379785 0.00332658 0
0.00425045 0.00360349 0
0.00473139 0.00388521 0
0.0052432 0.00416895 0
0.0057881 0.00445204 0
0.00636753 0.00473281 0
0.00698281 0.00500961 0
0.00763526 0.00528058 0
0.00832616 0.00554366 0
0.00905691 0.00579603 0
0.00982918 0.00603333 0
0.0106445 0.00625033 0
0.0115038 0.00644128 0
0.0124073 0.00660297 0
0.0133543 0.00673414 0
0.0143444 0.00683382 0
0.0153769 0.00690031 0
0.0164512 0.00693173 0
0.0175666 0.00692547 0
0.0187219 0.00687822 0
0.0199156 0.00678477 0
0.0211454 0.00663864 0
0.0224084 0.00643275 0
0.0237018 0.00616676 0
0.0250249 0.00584739 0
0.026375 0.00547298 0
0.0277479 0.00503752 0
0.0291386 0.00453545 0
0.0305433 0.0039653 0
0.0319572 0.0033256 0
0.0333681 0.00260019 0
0.034775 0.00179799 0
0.0361793 0.000930615 0
0.0375798 3.12222e-06 0
0.0389689 -0.000988429 0
0.0403357 -0.00205109 0
0.041675 -0.00318283 0
0.0429849 -0.00437751 0
0.0442643 -0.00562904 0
0.0455126 -0.00693089 0
0.0467314 -0.00827518 0
0.0479204 -0.00965638 0
0.0490661 -0.0110799 0
0.0501515 -0.0125519 0
0.0511696 -0.0140695 0
0.0521492 -0.0156071 0
0.0531202 -0.0171411 0
0.0540851 -0.0186663 0
0.0550431 -0.0201798 0
0.0559923 -0.0216793 0
0.0569311 -0.0231626 0
0.0578582 -0.0246273 0
0.0587723 -0.0260715 0
0.0596721 -0.027493 0
0.0605563 -0.02889 0
0.0614241 -0.0302609 0
0.0622742 -0.0316042 0
0.063106 -0.0329183 0
0.0639186 -0.034202 0
0.0647113 -0.0354543 0
0.0654835 -0.0366743 0
0.0662345 -0.0378613 0
0.0669642 -0.0390145 0
0.0676726 -0.0401333 0
0.0683597 -0.0412172 0
0.0690246 -0.0422665 0
0.0696662 -0.0432819 0
0.0702841 -0.0442636 0
0.0708793 -0.0452111 0
0.0714538 -0.0461237 0
0.072009 -0.047001 0
0.0725452 -0.0478434 0
0.0730611 -0.0486524 0
0.073556 -0.0494294 0
0.0740291 -0.0501756 0
0.0744812 -0.0508916 0
0.0749138 -0.0515773 0
0.0753285 -0.0522331 0
0.0757266 -0.0528592 0
0.076109 -0.0534564 0
0.0764753 -0.0540264 0
0.0768243 -0.054571 0
0.0771553 -0.0550919 0
0.0774679 -0.0555901 0
0.0777617 -0.0560669 0
0.0780369 -0.056523 0
0.0782958 -0.0569578 0
0.0785421 -0.0573703 0
0.0787786 -0.0577603 0
0.0790073 -0.0581279 0
0.0792295 -0.058474 0
0.0794462 -0.0587995 0
0.0798803 -0.0594162 0
0.0800272 -0.0596588 0
0.0800357 -0.0598891 0
0.0799275 -0.0600784 0
0.0797205 -0.0601773 0
0.0794593 -0.0601051 0
0.0789155 -0.0596491 0
0.0786707 -0.0593963 0
0.0784111 -0.0591319 0
0.0781372 -0.0588542 0
0.0778566 -0.0585548 0
0.0775715 -0.0582308 0
0.0772803 -0.0578828 0
0.0769832 -0.0575099 0
0.0766822 -0.0571097 0
0.0763801 -0.0566796 0
0.0760759 -0.0562196 0
0.0757623 -0.0557337 0
0.0754359 -0.0552232 0
0.0750951 -0.0546879 0
0.0747379 -0.054128 0
0.0743626 -0.0535435 0
0.0739688 -0.0529338 0
0.0735559 -0.0522981 0
0.0731238 -0.0516357 0
0.0726718 -0.050946 0
0.0721991 -0.0502288 0
0.0717046 -0.049484 0
0.0711872 -0.0487117 0
0.0706461 -0.047912 0
0.0700804 -0.0470849 0
0.0694892 -0.0462308 0
0.0688718 -0.0453499 0
0.0682271 -0.0444431 0
0.0675544 -0.043511 0
0.0668527 -0.0425546 0
0.0661215 -0.0415748 0
0.06536 -0.040573 0
0.0645676 -0.0395504 0
0.0637439 -0.0385087 0
0.0628887 -0.0374493 0
0.062002 -0.0363741 0
0.0610838 -0.0352847 0
0.0601345 -0.0341831 0
0.0591547 -0.033071 0
0.0581456 -0.0319502 0
0.0571083 -0.0308224 0
0.0560444 -0.0296893 0
0.0549562 -0.028552 0
0.053845 -0.0274126 0
0.0527113 -0.0262746 0
0.051554 -0.0251427 0
0.0503724 -0.0240222 0
0.0491675 -0.0229164 0
0.047941 -0.0218282 0
0.0466955 -0.0207597 0
0.0454337 -0.0197126 0
0.0441592 -0.0186878 0
0.0428751 -0.0176863 0
0.0415841 -0.0167097 0
0.0402878 -0.0157609 0
0.0389879 -0.0148428 0
0.0376864 -0.0139575 0
0.0363853 -0.013107 0
0.0350871 -0.0122931 0
0.0337942 -0.0115164 0
0.0325095 -0.0107772 0
0.0312357 -0.0100756 0
0.0299758 -0.00941024 0
0.0287337 -0.00877784 0
0.0275126 -0.00817571 0
0.0263139 -0.00760375 0
0.0251376 -0.00706528 0
0.0239829 -0.0065649 0
0.0228537 -0.00609619 0
0.0217522 -0.00565563 0
0.0206795 -0.00524226 0
0.0196364 -0.00485507 0
0.0186233 -0.00449318 0
0.0176408 -0.00415577 0
0.016689 -0.00384204 0
0.0157682 -0.00355115 0
0.0148783 -0.00328218 0
0.0140192 -0.00303468 0
0.0131906 -0.00280795 0
0.0123925 -0.00260016 0
0.0116246 -0.00241012 0
0.0108864 -0.00223769 0
0.0101774 -0.00208212 0
0.00949701 -0.00194206 0
0.00884483 -0.0018163 0
0.0082202 -0.0017039 0
0.00762247 -0.00160391 0
0.00705097 -0.00151528 0
0.006505 -0.00143697 0
0.0059838 -0.00136806 0
0.00548662 -0.00130772 0
0.00501265 -0.00125519 0
0.00456114 -0.00120954 0
0.00413136 -0.00116914 0
0.00372257 -0.00113251 0
0.00333398 -0.00109853 0
0.00296466 -0.00106798 0
0.00261363 -0.0010431 0
-0.052721 -0.0445996 0
-0.0508204 -0.0440823 0
-0.0489199 -0.0435651 0
-0.0470193 -0.0430478 0
-0.0451187 -0.0425306 0
-0.0432181 -0.0420134 0
-0.0413175 -0.0414961 0
-0.039417 -0.0409789 0
-0.0375164 -0.0404616 0
-0.0356158 -0.0399444 0
-0.0337152 -0.0394271 0
-0.0318146 -0.0389099 0
-0.0299141 -0.0383927 0
-0.0280135 -0.0378754 0
-0.0261129 -0.0373582 0
-0.0242123 -0.0368409 0
-0.0223117 -0.0363237 0
-0.0204112 -0.0358065 0
-0.0185106 -0.0352892 0
-0.01661 -0.034772 0
-0.0147094 -0.0342547 0
-0.0128088 -0.0337375 0
-0.0109083 -0.0332202 0
-0.00900769 -0.032703 0
-0.00710711 -0.0321858 0
-0.00520653 -0.0316685 0
-0.00330595 -0.0311513 0
-0.00140537 -0.030634 0
0.00190689 -0.0299614 0
0.00332271 -0.0298498 0
0.00474133 -0.0297825 0
0.00616136 -0.0297597 0
0.0075814 -0.0297814 0
0.00900007 -0.0298477 0
0.010416 -0.0299583 0
0.0118278 -0.0301127 0
0.0132342 -0.0303103 0
0.0146339 -0.0305504 0
0.0160259 -0.0308322 0
0.0174091 -0.0311546 0
0.0187824 -0.0315166 0
0.020145 -0.031917 0
0.0214961 -0.0323546 0
0.0228351 -0.032828 0
0.0241613 -0.0333361 0
0.0254744 -0.0338774 0
0.0267738 -0.0344507 0
0.0280592 -0.0350545 0
0.0293306 -0.0356877 0
0.0305875 -0.0363488 0
0.0318301 -0.0370367 0
0.0330581 -0.0377501 0
0.0342717 -0.0384879 0
0.0354708 -0.0392489 0
0.0366556 -0.0400321 0
0.0378262 -0.0408363 0
0.0389828 -0.0416607 0
0.0401254 -0.0425042 0
0.0412543 -0.0433659 0
0.0423698 -0.0442451 0
0.043472 -0.0451408 0
0.0445612 -0.0460523 0
0.0456375 -0.0469789 0
0.0467013 -0.0479199 0
0.0477529 -0.0488746 0
0.0487923 -0.0498424 0
0.04982 -0.0508227 0
0.0508362 -0.051815 0
0.051841 -0.0528187 0
0.0528348 -0.0538333 0
0.0538178 -0.0548584 0
0.0547903 -0.0558935 0
0.0557524 -0.0569382 0
0.0567045 -0.0579922 0
0.0576467 -0.0590549 0
0.0585792 -0.0601261 0
0.0595024 -0.0612055 0
0.0604163 -0.0622926 0
0.0613212 -0.0633873 0
0.0622174 -0.0644891 0
0.0631049 -0.0655979 0
0.0639841 -0.0667134 0
0.064855 -0.0678353 0
0.0657179 -0.0689633 0
0.0665729 -0.0700974 0
0.0674202 -0.0712372 0
0.06826 -0.0723826 0
0.0690925 -0.0735333 0
0.0699178 -0.0746892 0
0.070736 -0.0758501 0
0.0715473 -0.0770159 0
0.0723518 -0.0781863 0
0.0731498 -0.0793612 0
0.0739412 -0.0805405 0
0.0747264 -0.081724 0
0.0755053 -0.0829116 0
0.0762781 -0.0841033 0
0.0770449 -0.0852987 0
0.0778059 -0.0864979 0
0.0785611 -0.0877007 0
0.0793108 -0.088907 0
0.0814681 -0.0912706 0
0.0828814 -0.0924245 0
0.0842946 -0.0935783 0
0.0857079 -0.0947322 0
0.0871211 -0.095886 0
0.0885344 -0.0970399 0
0.0899476 -0.0981937 0
0.0913609 -0.0993476 0
0.0927741 -0.100501 0
0.0941874 -0.101655 0
0.0956006 -0.102809 0
0.0970139 -0.103963 0
0.0984272 -0.105117 0
0.0998404 -0.106271 0
0.101254 -0.107424 0
0.102667 -0.108578 0
0.10408 -0.109732 0
0.105493 -0.110886 0
0.106907 -0.11204 0
0.10832 -0.113194 0
0.109733 -0.114348 0
0.111146 -0.115501 0
0.11256 -0.116655 0
0.113973 -0.117809 0
0.115386 -0.118963 0
0.116799 -0.120117 0
0.118213 -0.121271 0
0.119626 -0.122424 0
0.121039 -0.123578 0
0.122452 -0.124732 0
0.123866 -0.125886 0
0.125279 -0.12704 0
0.126692 -0.128194 0
0.128105 -0.129348 0
0.129519 -0.130501 0
0.130932 -0.131655 0
0.132345 -0.132809 0
0.133758 -0.133963 0
0.135172 -0.133216 0
0.135172 -0.131316 0
0.135172 -0.129415 0
0.135172 -0.127514 0
0.135172 -0.125614 0
0.135172 -0.123713 0
0.135172 -0.121813 0
0.135172 -0.119912 0
0.135172 -0.118012 0
0.135172 -0.116111 0
0.135172 -0.11421 0
0.135172 -0.11231 0
0.135172 -0.110409 0
0.135172 -0.108509 0
0.135172 -0.106608 0
0.135172 -0.104708 0
0.135172 -0.102807 0
0.135172 -0.100906 0
0.135172 -0.0990058 0
0.135172 -0.0971052 0
0.135172 -0.0952046 0
0.135172 -0.0933041 0
0.135172 -0.0914035 0
0.135172 -0.0895029 0
0.135172 -0.0876023 0
0.135172 -0.0857017 0
0.135172 -0.0838012 0
0.135172 -0.0819006 0
0.133758 -0.0788462 0
0.132345 -0.0776923 0
0.130932 -0.0765385 0
0.129519 -0.0753846 0
0.128105 -0.0742308 0
0.126692 -0.0730769 0
0.125279 -0.0719231 0
0.123866 -0.0707692 0
0.122452 -0.0696154 0
0.121039 -0.0684615 0
0.119626 -0.0673077 0
0.118213 -0.0661538 0
0.116799 -0.065 0
0.115386 -0.0638462 0
0.113973 -0.0626923 0
0.11256 -0.0615385 0
0.111146 -0.0603846 0
0.109733 -0.0592308 0
0.10832 -0.0580769 0
0.106907 -0.0569231 0
0.105493 -0.0557692 0
0.10408 -0.0546154 0
0.102667 -0.0534615 0
0.101254 -0.0523077 0
0.0998404 -0.0511538 0
0.0984272 -0.05 0
0.0970139 -0.0488462 0
0.0956006 -0.0476923 0
[...]
CELL_DATA 13116
SCALARS rho float
LOOKUP_TABLE default
0.538121
0.672313
0.380924
0.704411
0.700059
0.676954
0.293859
0.70816
0.492542
0.700752
0.337635
0.346359
0.701063
0.375164
0.335329
0.677239
0.532084
0.676755
0.700888
0.360213
0.534198
0.370537
0.380725
0.682488
0.568677
0.691074
0.70055
0.384339
0.562247
0.61713
1.15442
0.350499
0.516507
0.415908
0.302169
0.536205
0.650703
0.692767
1.07818
0.711374
0.701356
0.707706
0.410657
0.381366
0.699403
0.700177
0.663287
0.70175
0.355152
0.482595
0.711832
0.419258
0.311235
0.523585
0.516042
0.546828
0.379388
0.680486
0.493775
0.321962
0.38716
0.703504
0.666551
1.10782
1.13943
0.39235
0.703168
0.645393
0.704295
1.13971
0.34293
0.542267
0.372746
0.376159
1.14702
0.357538
0.641865
0.699031
0.327373
0.671837
0.660556
0.686483
0.685085
0.699699
0.698877
0.404823
0.348152
0.634879
0.692911
0.373525
0.334912
0.674909
0.68832
0.69826
0.626114
0.565805
0.572242
1.13924
1.14814
0.554765
0.64332
0.626601
0.701946
0.390943
0.663508
0.336426
0.349604
0.452705
0.395905
0.572714
0.479764
0.677566
0.562748
0.661747
0.672731
0.709186
0.348602
0.370029
0.700871
0.713077
0.643532
0.370738
0.704601
0.329232
0.69776
0.406647
0.345613
0.466584
0.396138
0.483265
0.700978
0.683825
0.453819
0.36582
0.4328
0.578395
1.13419
0.704755
0.641695
0.713328
0.626563
0.665125
0.466705
0.629223
0.653743
0.353523
0.311306
0.684655
0.692432
0.711463
0.496825
0.699643
0.701819
0.351493
0.697278
0.700402
0.407903
0.649154
1.14318
0.633885
0.682008
0.334755
0.684868
0.409132
0.370128
0.705435
0.694962
0.675877
0.298001
0.416541
0.387546
1.13376
0.315491
0.452449
0.711004
0.378437
0.369594
0.372208
0.676136
0.686697
0.364812
0.399029
0.50407
0.648563
0.679131
0.493367
0.362358
0.703968
0.664976
0.422808
0.625641
0.683344
1.13893
0.426024
0.676946
0.685077
0.693906
0.70359
0.691866
0.367508
0.391626
0.579011
0.461789
0.378926
0.688924
0.694804
0.425547
0.574805
0.323411
0.358518
0.357896
0.700733
0.415446
0.345793
0.37257
0.352637
0.359581
1.04871
0.696732
0.393932
0.372631
0.702828
0.475178
0.365681
0.511248
0.702302
0.651686
0.388095
0.708664
0.366974
0.706833
0.363036
1.15495
0.531017
1.1386
0.703503
1.13575
0.341257
0.402063
0.631714
1.14979
0.692689
1.13464
1.15024
0.70781
0.371916
0.713863
0.699592
1.14176
0.333175
0.357285
0.69738
0.701909
1.15553
0.698066
0.53084
0.660148
0.339393
0.347645
0.366224
0.322489
0.658102
0.693231
0.640378
0.346522
0.698003
0.381198
0.393871
0.664693
0.347206
0.68784
0.709505
1.14857
0.679839
0.343078
1.14764
0.666708
1.14046
0.704313
0.335734
0.360114
0.420124
0.575261
0.372143
0.360551
0.335417
0.340226
0.692091
0.295556
0.69794
0.705242
0.382928
0.361051
0.384891
0.412845
0.375066
0.634395
0.608582
0.672177
0.348775
0.700386
0.544179
0.350991
0.328085
0.917718
0.702419
0.703353
0.363571
0.677277
0.399256
0.684028
0.707699
0.712809
0.708058
0.416801
0.705186
0.308522
0.701553
0.701576
0.62968
0.359582
0.333368
0.700876
0.393696
0.677537
0.703758
0.353097
0.659505
0.684543
0.392382
0.697276
0.688168
0.322075
0.701994
0.398634
0.532212
0.70488
0.40994
0.650838
0.350733
0.679251
0.329535
1.13676
0.638456
0.695781
0.388466
0.352331
0.699641
0.349542
0.691427
0.667867
0.393855
1.13584
0.355835
0.375997
0.694955
0.509938
0.648274
0.360848
0.411696
0.714335
0.704684
0.317866
0.708996
0.366913
0.341324
0.712926
0.705572
0.455342
0.363183
0.704203
1.15561
0.679857
0.697476
0.68257
0.498753
0.36468
0.318697
0.359684
0.683799
0.359158
0.503325
0.353218
0.444449
0.347511
0.462688
0.113759
0.349454
0.69791
0.349868
0.68669
0.561484
0.70166
0.628329
0.712715
0.375507
0.362773
0.370306
0.35327
0.690989
0.559484
0.701697
0.56303
0.655176
0.588602
0.685003
0.611437
0.6145
0.682902
0.670539
0.745742
0.368853
0.432022
0.534462
0.37345
0.605682
0.546239
0.320689
0.707888
1.14726
0.416094
0.347365
0.368617
0.361113
0.58173
0.305355
0.426206
0.70197
0.382023
0.531225
0.373048
0.685603
0.666852
0.375175
0.368006
0.693796
0.411894
0.369522
0.364701
0.366275
0.396537
0.370643
0.346528
0.365918
0.396529
0.360057
0.625448
0.366449
0.698616
0.359896
0.32966
0.459108
0.329532
0.373381
0.337459
0.703147
0.398936
0.597948
0.461656
0.387571
0.578434
0.694144
0.400499
0.658618
0.593099
0.594514
0.382919
1.14157
0.372185
0.683046
1.15331
0.401659
0.279737
0.66322
0.353464
0.40777
0.642178
0.350205
0.647682
0.657864
0.36304
0.366981
0.308399
0.447407
0.330075
0.317752
0.323061
0.308855
0.705359
0.704101
0.417632
0.55778
0.434651
0.674941
0.349583
0.340725
0.498162
0.400228
0.691613
0.311554
0.360026
0.449836
0.69887
0.692713
0.517925
0.353328
0.269992
0.52744
0.708287
1.14465
0.525128
0.66029
0.656415
0.364032
0.666113
0.527295
0.630533
0.325552
0.373927
0.660363
0.69275
0.626114
0.70192
0.688154
0.69444
0.680355
0.628821
0.701693
0.361952
0.698287
0.330659
0.324025
0.351624
0.70403
0.695984
0.320063
0.698263
0.573087
0.360412
1.12896
0.70286
0.678087
0.384997
0.342154
0.69654
0.36567
0.362488
0.33011
0.366607
0.687977
0.320009
0.703551
0.366801
0.671093
0.712777
0.703061
0.703585
0.366421
0.357972
0.695433
0.707026
0.646877
0.705305
0.698924
0.453469
0.390942
0.396613
0.700373
0.491501
0.366382
0.41334
0.451214
0.70364
0.705108
0.323401
0.369228
0.696553
0.417096
0.696477
0.615907
0.396221
0.365935
0.642927
1.14471
0.409026
0.69139
0.695618
0.695619
0.353221
1.13406
0.37153
1.13842
0.628574
0.364208
0.356241
0.361971
1.13719
0.393205
0.307246
0.372396
1.09283
0.680921
0.311475
0.344183
0.374597
1.1136
0.372108
0.683599
0.361164
0.54507
0.702122
0.360663
0.404204
0.387283
0.456796
0.394995
0.691128
0.36204
0.3435
0.698648
0.298066
0.700906
0.673345
1.13876
0.354738
0.692691
0.688656
0.693475
0.700427
0.701822
0.713226
0.358326
1.14273
0.398426
0.68695
0.333925
0.708172
0.467709
0.285454
1.13772
0.687532
0.34394
0.6096
0.35514
0.342146
0.701597
0.701879
0.452864
0.353889
0.321384
0.337479
0.703071
0.682458
0.351276
0.376667
0.69045
0.709829
0.547184
0.688246
0.704667
0.337576
0.69663
0.39329
0.712332
0.373213
0.558066
0.434183
0.704
0.649093
0.535864
0.344463
0.388213
0.703446
0.561566
0.521705
0.68741
0.320588
0.668202
0.696175
0.350325
0.427646
0.690037
0.351213
1.13894
0.633415
0.331087
0.7146
0.623254
0.375152
0.678073
0.421426
0.690906
0.364855
0.700429
0.664706
0.392156
1.0743
0.685855
0.694064
0.57594
0.670808
0.541061
0.344805
0.39675
0.344443
0.378871
1.13495
0.51401
0.704323
0.691121
0.35616
0.360536
0.676519
0.702251
0.693378
0.709454
0.349133
0.670058
0.699938
0.358351
0.330506
0.700347
0.697782
0.695246
0.331592
0.548688
0.37532
0.675897
0.674462
1.15063
0.683301
0.368467
0.679977
0.69799
0.68707
0.703772
0.700888
0.396039
0.682476
0.358377
0.641981
0.700774
0.414727
0.659038
1.14733
0.713162
0.397349
0.381987
0.542861
0.618557
0.364155
0.365
0.348576
0.361584
0.671616
0.666898
1.14365
0.336106
0.353233
0.70407
0.650135
0.324426
0.357029
0.419276
0.655962
0.703865
0.698962
0.67289
0.361214
0.363748
1.14282
0.331597
0.347816
0.359149
0.701397
0.376569
0.3706
0.540119
0.692027
0.674943
0.827011
0.703045
0.361315
0.307856
0.350744
0.467649
0.400939
0.362734
0.646281
0.670662
0.688456
0.701252
0.328979
0.352292
0.701721
0.360509
0.700874
0.66543
1.14815
0.448642
0.364834
0.686889
1.14417
0.559445
0.321764
0.698962
0.748402
0.536864
0.71213
0.709381
1.145
0.658678
0.350335
0.702816
1.14577
0.620814
0.675151
1.13518
0.678044
1.1366
0.704581
0.340926
0.360713
0.354805
1.15183
0.470157
0.361966
0.67708
0.689493
0.344585
0.615264
0.374853
0.625941
0.453129
0.341216
0.702714
0.68076
0.367292
0.512705
1.15511
0.382663
0.698169
0.392625
0.334157
0.585177
0.566678
0.456866
0.702033
0.349037
0.684649
0.368328
0.336798
0.700611
0.366892
0.568847
0.443898
0.617247
0.559794
1.13587
0.693577
0.317335
0.347264
0.63285
0.414774
0.692311
0.425174
0.558322
0.675278
0.68643
0.424941
0.5704
0.675935
0.694896
0.703913
0.335951
0.366405
0.49826
0.676458
0.69493
0.356906
0.702024
0.561227
0.369483
0.454599
0.631996
0.655765
1.13523
1.1367
0.638758
0.665106
1.04065
0.655989
0.395348
0.622284
0.416097
0.714275
0.697632
0.331875
0.702775
0.700798
0.369068
0.317415
0.389191
1.13438
0.335085
0.583071
0.680013
0.621981
0.351662
0.694139
0.384525
0.548682
1.12286
1.14957
0.645183
1.11202
0.579592
0.659663
0.491545
0.686365
0.366786
0.700833
0.702758
0.399507
1.13697
0.67042
0.414362
0.318763
0.387267
0.713202
0.367326
1.13499
0.352006
0.708086
0.287852
0.436167
0.384841
0.682002
0.710054
0.528019
0.270208
0.580884
0.99067
0.361395
0.546642
0.703867
0.353037
0.549831
1.1443
0.702154
0.70074
0.402673
0.446248
0.693138
0.701053
0.642707
0.370639
0.378733
0.695707
1.13867
1.14628
1.1341
0.524932
0.684422
0.520797
0.713585
0.371339
0.380231
1.13414
0.698307
1.06995
0.388187
0.701101
0.538284
0.577971
0.365943
0.383829
0.708419
0.704942
0.5137
0.359156
0.70145
1.13765
0.304108
0.570144
0.671886
0.303054
0.330286
0.308233
0.669381
0.368664
0.358799
0.696699
0.429419
0.696046
0.622184
0.286855
0.387112
0.706253
0.365157
0.31664
1.14592
0.345439
0.352417
0.553492
0.701428
0.690393
0.355042
0.373193
0.335372
0.674224
0.338294
0.691501
0.273343
0.679446
0.697961
0.698391
0.665699
0.677286
0.672783
0.704144
0.703126
0.695574
0.317082
0.352242
0.675869
0.987483
0.469889
0.670459
0.516437
1.08166
0.619615
0.37579
0.712729
0.70351
0.6882
0.333476
0.67952
0.372017
0.698914
0.459842
0.674137
0.700464
0.343385
0.689114
0.372456
0.410998
0.665775
0.359159
0.651499
1.13365
0.705901
0.358864
0.702108
0.362181
0.441859
0.441246
0.371661
0.621168
0.313225
0.62857
1.14414
0.357295
0.421251
0.444046
0.538991
0.60134
0.648988
0.35862
0.395297
0.3182
0.384236
0.272988
0.603215
0.681358
0.382313
1.13716
0.679884
0.308225
0.702994
0.648158
1.13397
0.342782
1.1356
0.670023
0.684267
0.712546
0.337498
0.689903
0.687385
0.68051
0.63084
0.714077
0.355603
0.435017
0.700277
0.495705
0.362576
0.700561
0.401969
0.531929
0.603117
0.689541
0.692709
0.383254
0.669098
0.364568
0.335421
0.662827
0.693435
0.690122
0.712374
0.644754
0.444632
0.702768
0.313102
0.467533
0.705681
1.15037
0.693039
0.33549
0.350611
0.700616
0.352847
0.696872
0.607575
0.395974
0.347946
0.711714
0.436372
0.700467
0.696338
0.645738
0.44041
0.364225
0.46036
0.486672
0.590767
0.432537
0.678274
0.650629
0.700913
1.1343
0.679275
0.264615
0.351748
0.69794
0.73267
0.638369
0.414781
0.380554
0.665819
0.314325
0.704927
0.573307
0.366471
0.690039
0.349979
0.698537
0.378869
0.694498
0.327065
0.695204
0.729438
0.343364
0.698143
0.618551
0.345986
1.14937
0.701093
0.516738
0.328095
0.353212
0.427097
0.689481
0.641183
0.360653
0.545801
0.681082
0.714538
0.353449
0.589532
0.687262
0.413985
0.686965
0.701205
0.309291
0.699003
1.13876
0.381942
0.566242
0.361569
0.628142
0.352969
0.335008
0.691757
0.363263
0.375293
0.313033
0.70274
0.677402
0.373147
0.701525
0.351982
0.66184
0.365959
0.680223
0.353936
0.681238
0.700955
0.638542
1.15067
0.515236
0.729259
1.13378
0.382131
0.59961
0.640713
0.485304
0.678606
0.45197
0.385947
0.702232
0.368709
0.528998
0.37378
0.701822
0.321949
0.427884
0.680493
0.703982
0.360217
0.714294
0.669857
1.13644
0.709676
1.13741
0.353807
0.702697
0.35398
0.412856
0.695131
0.675081
0.707847
0.699153
0.379258
0.35247
0.331058
0.676046
1.14541
0.351804
0.702876
0.393058
0.354971
0.358768
0.695018
0.373195
0.703371
0.694862
0.597037
0.701765
0.695064
0.541263
0.636443
0.398184
0.340064
0.359027
1.13726
1.13658
0.38876
0.602925
0.667
0.636007
0.404071
0.399459
0.652282
0.29437
0.646856
0.608871
0.346349
0.945075
0.673853
0.359113
0.690525
0.298832
0.704224
0.697591
0.678079
0.316026
0.427936
0.650737
0.312136
0.403917
0.700551
0.318769
0.841927
0.703315
0.686683
0.670095
0.365306
1.13753
0.661989
0.701102
0.351084
0.711325
0.374033
0.326892
0.696643
0.704127
1.13692
0.250064
0.700323
0.596278
1.14844
0.394138
0.35165
0.367578
0.714253
0.311404
0.295929
0.376069
0.607063
0.281544
0.340081
0.402846
0.692611
0.35439
1.15221
1.09405
0.710264
0.359484
0.701603
0.62633
1.13346
0.386161
0.628645
0.312489
0.367765
0.702
0.360337
0.605182
0.678112
1.13534
0.345006
0.333213
0.344455
0.523083
1.13454
0.254007
0.69273
0.702399
0.673418
0.363826
0.309883
0.333987
0.646581
0.369672
1.13317
0.566087
1.00012
0.694964
0.339386
0.609944
0.37142
0.608909
0.609555
0.702026
0.592528
0.489021
0.631269
0.641012
0.699677
0.360252
0.358645
0.376403
0.672903
0.496424
1.15129
0.346158
0.379443
0.681641
0.701035
1.14905
0.360028
0.711853
0.520013
0.522016
0.643071
0.397616
0.360059
0.307437
0.704314
1.13836
0.628158
0.673545
0.339571
0.705874
0.622123
1.13685
1.14204
0.706468
0.703317
0.687209
0.674684
0.688494
0.401248
0.70414
0.713078
0.690875
0.7026
0.703861
0.574002
0.355289
0.341639
0.626112
0.367216
0.361412
0.71054
0.337613
0.596609
0.703702
0.672128
0.689642
0.408962
0.710709
0.435319
0.38845
0.670248
0.685119
0.701212
0.361308
0.71065
0.701971
0.632816
0.703283
0.373135
0.68129
0.700963
0.671065
0.36648
0.679927
0.342691
0.703941
0.359011
0.356887
0.5357
0.412581
0.702675
0.6828
0.700648
0.376437
0.683201
0.375166
0.326166
0.686735
0.452166
0.373666
0.701476
0.329488
0.478202
0.640153
0.658076
0.691225
0.449373
0.555569
0.632206
0.700205
0.575222
0.690729
0.49517
0.70562
0.67287
0.622497
0.32815
0.330318
0.410121
0.710857
0.413055
0.63193
0.714252
0.568941
0.700333
0.514381
0.653487
0.656699
0.340661
0.71378
0.666299
0.497302
0.666467
0.701737
0.691688
0.879035
0.364471
0.346771
0.686395
0.50053
0.525788
0.707749
0.697904
0.701612
0.69286
0.69691
0.590381
0.650377
0.701714
0.307018
0.337311
0.325244
0.368452
1.14127
0.420837
0.516768
0.689981
0.659968
0.409907
0.689928
0.704159
0.364894
0.364036
1.13509
0.704476
0.394264
0.334981
0.331026
1.13328
0.690587
0.369482
0.26445
0.349556
0.344057
0.347876
0.363595
0.706728
0.701378
0.672524
0.35666
0.674112
0.58223
0.568621
0.344601
0.350448
0.686288
1.13434
0.373599
0.679193
0.3584
0.681134
0.401118
0.70982
0.377776
0.689986
0.708389
0.357403
0.525593
0.347001
0.702859
0.346772
0.5884
0.384942
0.468707
0.31916
0.581563
0.363123
1.15308
1.13792
0.568953
0.677622
0.343
0.681381
0.983111
0.709652
0.578957
0.663149
0.350313
0.395904
0.383089
0.688688
0.320761
0.699641
0.506478
0.674053
0.702468
0.446966
0.683229
0.336522
0.391806
0.306131
0.470497
0.539852
0.696577
0.35034
0.362947
0.700707
0.3616
0.420109
0.567409
0.361013
0.371926
0.340557
0.707254
0.615405
0.592188
0.376417
0.676838
0.704703
0.332981
0.321702
0.6993
0.702207
0.606822
0.481234
0.383476
0.351757
0.351772
0.703165
0.627176
0.48969
0.660274
0.322391
0.535597
0.345301
1.13802
0.702306
0.347854
0.349522
0.632421
0.562297
0.704374
0.688871
0.69148
0.71313
0.704827
0.354464
0.37234
0.375253
0.337916
0.534997
1.15422
0.61757
0.347902
0.349782
0.421511
0.330959
0.70169
0.655958
0.374034
0.330273
0.703477
0.406278
0.632467
0.684765
0.676132
0.717946
0.540004
0.362064
0.382203
0.648174
0.345831
0.403219
0.370594
0.984331
0.703581
0.349108
0.347421
1.13529
0.361727
0.70957
0.688832
0.352808
0.371056
0.278217
0.703631
0.345065
1.13353
0.67432
0.571934
0.337747
0.492841
0.696548
0.693842
0.300106
0.692777
0.626078
0.327239
0.699505
0.705195
0.333876
0.363559
0.685599
0.354683
0.336567
0.685673
0.339134
0.699836
0.652636
0.686516
0.62641
0.697076
0.702896
0.825507
0.325635
0.382676
0.64195
0.68698
0.424147
0.702918
0.334762
0.704732
0.69266
0.532194
0.624834
0.396087
0.416961
0.691198
0.69211
0.671482
0.708879
0.701153
1.13411
0.709805
1.13548
0.701406
0.688053
0.705498
1.13507
0.737894
0.343933
0.687371
0.383057
0.711411
0.704566
0.678229
0.671028
0.668141
0.366409
0.34893
0.319388
0.3113
0.67291
0.376928
0.342242
0.663363
0.333693
0.673743
0.350356
0.687276
0.690988
0.362003
0.362862
0.365003
0.710992
0.376355
0.696268
0.687964
0.345735
0.68495
0.517574
0.360098
0.386699
0.336555
0.662615
0.364344
0.713009
0.511097
0.34344
0.702313
0.701364
0.690999
0.359174
0.542799
0.384952
0.675463
0.858576
0.711312
0.367426
0.685577
0.705418
0.673231
0.383881
0.708505
0.361982
0.364829
0.705027
0.416638
0.699747
0.388977
0.368307
0.404136
0.674416
0.390238
0.345505
0.36743
0.459087
1.1386
0.690574
0.326925
0.575448
0.702193
0.523097
0.412628
0.367789
0.520831
0.365966
0.354723
0.697608
0.368167
0.368153
0.713167
0.704877
0.360711
0.674983
0.354152
1.13491
0.382015
0.688789
1.14006
0.670572
1.0099
0.37428
0.353303
0.43189
0.71514
0.687329
0.554394
0.503008
0.356826
0.327266
0.696612
0.33083
0.700276
0.361884
1.15381
0.647157
0.372356
0.387495
0.368382
0.348289
0.387356
0.633982
0.673735
0.375499
0.702075
0.612586
0.342998
0.307969
0.703961
0.371923
0.693709
0.394361
0.671445
0.630277
0.702046
1.13666
0.3458
0.697487
0.706676
0.70672
0.363955
0.64099
0.560573
0.36242
0.712922
0.638004
0.70559
0.679466
0.704432
0.702756
0.708367
0.698022
0.701348
0.357232
0.688297
0.368996
0.42999
0.699937
0.420637
0.694652
0.654959
0.36276
0.67228
0.363114
0.335847
0.697074
0.643768
0.705123
0.353578
0.679867
0.58448
0.381468
0.360735
0.695201
0.704853
0.366092
0.375033
0.67824
0.704383
0.35782
0.618797
0.706859
0.61808
0.376113
0.36101
0.386117
0.629628
0.332075
0.692076
0.671936
0.699101
0.586697
0.69381
0.355253
0.694065
0.577274
0.708275
0.592465
0.422649
0.314866
0.329077
0.68325
0.690869
0.39377
0.628356
0.374657
0.641332
0.712732
0.322177
0.623538
0.691645
0.594435
0.357063
0.357378
0.368416
0.696641
0.699812
0.581438
0.48005
0.699061
0.373073
0.604939
1.1489
0.684401
0.356284
0.584888
0.361093
0.661862
0.338074
0.693354
0.697563
0.375295
0.698913
0.415255
1.13447
0.622322
1.13306
0.713447
0.395243
0.690293
0.701147
0.706021
0.694214
0.445378
1.14781
0.308748
0.701322
0.325821
0.35407
0.324293
0.388197
0.364853
0.35941
0.706111
0.355067
0.293241
0.643369
0.698771
0.675685
0.37129
0.664259
0.658891
0.783725
0.33485
0.591401
0.703998
0.366921
0.377541
0.352391
0.599753
0.473566
0.349223
0.582162
0.32844
1.13745
0.466123
0.338543
0.429947
0.624676
0.366706
0.705694
0.320008
0.476195
0.362365
0.703917
0.369295
0.641491
1.14759
0.661545
0.40921
0.361781
0.702563
0.704052
0.377038
0.442158
0.679836
0.354706
0.678621
0.355381
0.520771
0.327685
0.702742
0.372846
0.705215
0.354081
0.713187
0.697189
0.69426
1.13692
0.302995
0.408172
0.369439
0.69282
0.661925
0.673276
0.545802
0.366241
0.681999
0.36737
0.686152
0.633284
0.38593
0.346281
0.686189
0.694835
0.382821
1.15539
0.703778
0.687556
0.686719
0.318945
0.608031
0.373082
0.688311
0.34017
1.12028
0.683761
0.701727
0.705957
0.342655
0.705238
0.365944
0.340005
0.708354
1.13785
0.512599
0.689243
1.14522
0.374258
0.678148
0.702441
0.708673
0.452481
0.399417
0.657768
0.38238
0.704642
0.712863
0.695999
0.705179
0.314313
0.419953
0.619965
0.377015
0.693388
0.703018
0.440408
0.695393
0.281369
0.648438
0.679014
0.647242
0.697289
0.354274
0.41863
0.696259
0.691949
0.366252
0.340386
0.374659
0.399822
0.300029
0.33905
0.377003
0.365075
0.694215
0.324548
0.373516
0.677287
0.512372
1.1339
0.37768
0.34634
0.703179
0.431664
0.467437
0.697613
0.364179
0.624932
1.15351
0.572932
0.680576
0.373658
0.691638
1.0965
0.344563
0.361144
0.388186
0.652899
0.573303
0.703733
0.688635
0.685094
0.682507
0.360614
0.696731
1.03133
0.698101
0.36059
0.703229
0.614751
0.358667
0.400062
0.296847
0.384601
0.304653
0.556703
0.641394
0.675945
0.357264
0.368763
0.707826
0.343279
0.685494
0.701275
0.695201
0.647019
0.700694
0.36913
0.384833
0.327433
0.540939
0.33112
0.702208
0.331728
0.702966
0.674734
0.703752
0.368626
0.417787
0.392899
0.696064
0.367473
0.348119
0.709542
0.681352
0.614005
0.678317
0.695029
0.677862
0.365415
0.586456
0.69542
0.496829
0.694839
0.685236
0.681872
0.418263
0.393296
0.708282
0.461217
0.594447
0.375395
0.659855
0.698056
0.367606
0.334308
0.671377
0.470651
0.691704
0.684508
0.364546
0.357996
1.13806
0.398436
0.376022
0.700478
0.694752
0.357719
0.694527
1.14199
0.670604
0.366118
0.557828
0.363652
0.703263
0.70236
0.678364
0.672877
1.1387
0.337436
0.348916
0.676366
0.367181
0.569648
0.34739
0.701596
0.333928
0.628042
0.693036
1.13801
0.367859
1.1332
1.13773
0.342002
0.658508
0.337966
0.707172
0.371475
0.378239
0.327251
0.667906
0.699301
0.320499
0.311971
0.685593
0.704931
0.421172
0.668641
0.364776
0.462362
0.351171
0.67588
0.350162
0.64604
0.700459
0.387879
0.398564
0.378923
1.13313
0.355404
0.364091
0.699673