# vtk DataFile Version 1.0
unstructured grid
ascii
DATASET UNSTRUCTURED_GRID
points 13672 float
0.0796578 -0.059106 0
0.00128732 0.00159165 0
0.00227961 -0.00102548 0
0.0791586 -0.0598787 0
-0.0546216 0.01 0
0.000495206 0.025 0
0.0800549 -0.035 0
0.135172 -0.08 0
-0.0546216 -0.0451168 0
0.000495206 -0.0301168 0
0.0800549 -0.0901168 0
0.135172 -0.135117 0
-0.0546216 -0.0451168 -0.00551168
0.000495206 -0.0301168 -0.00551168
0.0800549 -0.0901168 -0.00551168
0.135172 -0.135117 -0.00551168
0.135172 -0.08 -0.00551168
0.0800549 -0.035 -0.00551168
0.000495206 0.025 -0.00551168
-0.0546216 0.01 -0.00551168
0.00128732 0.00159165 -0.00551168
0.00227961 -0.00102548 -0.00551168
0.0791586 -0.0598787 -0.00551168
0.0796578 -0.059106 -0.00551168
0.00165953 -0.000990923 0
0.00119576 -0.000874076 0
0.000866021 -0.000641801 0
0.000645147 -0.000349912 0
0.00052235 -1.7281e-05 0
0.00049972 0.000348016 0
0.000601632 0.000737716 0
0.000861774 0.0011403 0
0.00157235 0.00183217 0
0.00188647 0.00206725 0
0.00222612 0.00230203 0
0.00258713 0.00254351 0
0.00296826 0.00279524 0
0.00337118 0.00305664 0
0.00379785 0.00332658 0
0.00425045 0.00360349 0
0.00473139 0.00388521 0
0.0052432 0.00416895 0
0.0057881 0.00445204 0
0.00636753 0.00473281 0
0.00698281 0.00500961 0
0.00763526 0.00528058 0
0.00832616 0.00554366 0
0.00905691 0.00579603 0
0.00982918 0.00603333 0
0.0106445 0.00625033 0
0.0115038 0.00644128 0
0.0124073 0.00660297 0
0.0133543 0.00673414 0
0.0143444 0.00683382 0
0.0153769 0.00690031 0
0.0164512 0.00693173 0
0.0175666 0.00692547 0
0.0187219 0.00687822 0
0.0199156 0.00678477 0
0.0211454 0.00663864 0
0.0224084 0.00643275 0
0.0237018 0.00616676 0
0.0250249 0.00584739 0
0.026375 0.00547298 0
0.0277479 0.00503752 0
0.0291386 0.00453545 0
0.0305433 0.0039653 0
0.0319572 0.0033256 0
0.0333681 0.00260019 0
0.034775 0.00179799 0
0.0361793 0.000930615 0
0.0375798 3.12222e-06 0
0.0389689 -0.000988429 0
0.0403357 -0.00205109 0
0.041675 -0.00318283 0
0.0429849 -0.00437751 0
0.0442643 -0.00562904 0
0.0455126 -0.00693089 0
0.0467314 -0.00827518 0
0.0479204 -0.00965638 0
0.0490661 -0.0110799 0
0.0501515 -0.0125519 0
0.0511696 -0.0140695 0
0.0521492 -0.0156071 0
0.0531202 -0.0171411 0
0.0540851 -0.0186663 0
0.0550431 -0.0201798 0
0.0559923 -0.0216793 0
0.0569311 -0.0231626 0
0.0578582 -0.0246273 0
0.0587723 -0.0260715 0
0.0596721 -0.027493 0
0.0605563 -0.02889 0
0.0614241 -0.0302609 0
0.0622742 -0.0316042 0
0.063106 -0.0329183 0
0.0639186 -0.034202 0
0.0647113 -0.0354543 0
0.0654835 -0.0366743 0
0.0662345 -0.0378613 0
0.0669642 -0.0390145 0
0.0676726 -0.0401333 0
0.0683597 -0.0412172 0
0.0690246 -0.0422665 0
0.0696662 -0.0432819 0
0.0702841 -0.0442636 0
0.0708793 -0.0452111 0
0.0714538 -0.0461237 0
0.072009 -0.047001 0
0.0725452 -0.0478434 0
0.0730611 -0.0486524 0
0.073556 -0.0494294 0
0.0740291 -0.0501756 0
0.0744812 -0.0508916 0
0.0749138 -0.0515773 0
0.0753285 -0.0522331 0
0.0757266 -0.0528592 0
0.076109 -0.0534564 0
0.0764753 -0.0540264 0
0.0768243 -0.054571 0
0.0771553 -0.0550919 0
0.0774679 -0.0555901 0
0.0777617 -0.0560669 0
0.0780369 -0.056523 0
0.0782958 -0.0569578 0
0.0785421 -0.0573703 0
0.0787786 -0.0577603 0
0.0790073 -0.0581279 0
0.0792295 -0.058474 0
0.0794462 -0.0587995 0
0.0798803 -0.0594162 0
0.0800272 -0.0596588 0
0.0800357 -0.0598891 0
0.0799275 -0.0600784 0
0.0797205 -0.0601773 0
0.0794593 -0.0601051 0
0.0789155 -0.0596491 0
0.0786707 -0.0593963 0
0.0784111 -0.0591319 0
0.0781372 -0.0588542 0
0.0778566 -0.0585548 0
0.0775715 -0.0582308 0
0.0772803 -0.0578828 0
0.0769832 -0.0575099 0
0.0766822 -0.0571097 0
0.0763801 -0.0566796 0
0.0760759 -0.0562196 0
0.0757623 -0.0557337 0
0.0754359 -0.0552232 0
0.0750951 -0.0546879 0
0.0747379 -0.054128 0
0.0743626 -0.0535435 0
0.0739688 -0.0529338 0
0.0735559 -0.0522981 0
0.0731238 -0.0516357 0
0.0726718 -0.050946 0
0.0721991 -0.0502288 0
0.0717046 -0.049484 0
0.0711872 -0.0487117 0
0.0706461 -0.047912 0
0.0700804 -0.0470849 0
0.0694892 -0.0462308 0
0.0688718 -0.0453499 0
0.0682271 -0.0444431 0
0.0675544 -0.043511 0
0.0668527 -0.0425546 0
0.0661215 -0.0415748 0
0.06536 -0.040573 0
0.0645676 -0.0395504 0
0.0637439 -0.0385087 0
0.0628887 -0.0374493 0
0.062002 -0.0363741 0
0.0610838 -0.0352847 0
0.0601345 -0.0341831 0
0.0591547 -0.033071 0
0.0581456 -0.0319502 0
0.0571083 -0.0308224 0
0.0560444 -0.0296893 0
0.0549562 -0.028552 0
0.053845 -0.0274126 0
0.0527113 -0.0262746 0
0.051554 -0.0251427 0
0.0503724 -0.0240222 0
0.0491675 -0.0229164 0
0.047941 -0.0218282 0
0.0466955 -0.0207597 0
0.0454337 -0.0197126 0
0.0441592 -0.0186878 0
0.0428751 -0.0176863 0
0.0415841 -0.0167097 0
0.0402878 -0.0157609 0
0.0389879 -0.0148428 0
0.0376864 -0.0139575 0
0.0363853 -0.013107 0
0.0350871 -0.0122931 0
0.0337942 -0.0115164 0
0.0325095 -0.0107772 0
0.0312357 -0.0100756 0
0.0299758 -0.00941024 0
0.0287337 -0.00877784 0
0.0275126 -0.00817571 0
0.0263139 -0.00760375 0
0.0251376 -0.00706528 0
0.0239829 -0.0065649 0
0.0228537 -0.00609619 0
0.0217522 -0.00565563 0
0.0206795 -0.00524226 0
0.0196364 -0.00485507 0
0.0186233 -0.00449318 0
0.0176408 -0.00415577 0
0.016689 -0.00384204 0
0.0157682 -0.00355115 0
0.0148783 -0.00328218 0
0.0140192 -0.00303468 0
0.0131906 -0.00280795 0
0.0123925 -0.00260016 0
0.0116246 -0.00241012 0
0.0108864 -0.00223769 0
0.0101774 -0.00208212 0
0.00949701 -0.00194206 0
0.00884483 -0.0018163 0
0.0082202 -0.0017039 0
0.00762247 -0.00160391 0
0.00705097 -0.00151528 0
0.006505 -0.00143697 0
0.0059838 -0.00136806 0
0.00548662 -0.00130772 0
0.00501265 -0.00125519 0
0.00456114 -0.00120954 0
0.00413136 -0.00116914 0
0.00372257 -0.00113251 0
0.00333398 -0.00109853 0
0.00296466 -0.00106798 0
0.00261363 -0.0010431 0
-0.052721 -0.0445996 0
-0.0508204 -0.0440823 0
-0.0489199 -0.0435651 0
-0.0470193 -0.0430478 0
-0.0451187 -0.0425306 0
-0.0432181 -0.0420134 0
-0.0413175 -0.0414961 0
-0.039417 -0.0409789 0
-0.0375164 -0.0404616 0
-0.0356158 -0.0399444 0
-0.0337152 -0.0394271 0
-0.0318146 -0.0389099 0
-0.0299141 -0.0383927 0
-0.0280135 -0.0378754 0
-0.0261129 -0.0373582 0
-0.0242123 -0.0368409 0
-0.0223117 -0.0363237 0
-0.0204112 -0.0358065 0
-0.0185106 -0.0352892 0
-0.01661 -0.034772 0
-0.0147094 -0.0342547 0
-0.0128088 -0.0337375 0
-0.0109083 -0.0332202 0
-0.00900769 -0.032703 0
-0.00710711 -0.0321858 0
-0.00520653 -0.0316685 0
-0.00330595 -0.0311513 0
-0.00140537 -0.030634 0
0.00190689 -0.0299614 0
0.00332271 -0.0298498 0
0.00474133 -0.0297825 0
0.00616136 -0.0297597 0
0.0075814 -0.0297814 0
0.00900007 -0.0298477 0
0.010416 -0.0299583 0
0.0118278 -0.0301127 0
0.0132342 -0.0303103 0
0.0146339 -0.0305504 0
0.0160259 -0.0308322 0
0.0174091 -0.0311546 0
0.0187824 -0.0315166 0
0.020145 -0.031917 0
0.0214961 -0.0323546 0
0.0228351 -0.032828 0
0.0241613 -0.0333361 0
0.0254744 -0.0338774 0
0.0267738 -0.0344507 0
0.0280592 -0.0350545 0
0.0293306 -0.0356877 0
0.0305875 -0.0363488 0
0.0318301 -0.0370367 0
0.0330581 -0.0377501 0
0.0342717 -0.0384879 0
0.0354708 -0.0392489 0
0.0366556 -0.0400321 0
0.0378262 -0.0408363 0
0.0389828 -0.0416607 0
0.0401254 -0.0425042 0
0.0412543 -0.0433659 0
0.0423698 -0.0442451 0
0.043472 -0.0451408 0
0.0445612 -0.0460523 0
0.0456375 -0.0469789 0
0.0467013 -0.0479199 0
0.0477529 -0.0488746 0
0.0487923 -0.0498424 0
0.04982 -0.0508227 0
0.0508362 -0.051815 0
0.051841 -0.0528187 0
0.0528348 -0.0538333 0
0.0538178 -0.0548584 0
0.0547903 -0.0558935 0
0.0557524 -0.0569382 0
0.0567045 -0.0579922 0
0.0576467 -0.0590549 0
0.0585792 -0.0601261 0
0.0595024 -0.0612055 0
0.0604163 -0.0622926 0
0.0613212 -0.0633873 0
0.0622174 -0.0644891 0
0.0631049 -0.0655979 0
0.0639841 -0.0667134 0
0.064855 -0.0678353 0
0.0657179 -0.0689633 0
0.0665729 -0.0700974 0
0.0674202 -0.0712372 0
0.06826 -0.0723826 0
0.0690925 -0.0735333 0
0.0699178 -0.0746892 0
0.070736 -0.0758501 0
0.0715473 -0.0770159 0
0.0723518 -0.0781863 0
0.0731498 -0.0793612 0
0.0739412 -0.0805405 0
0.0747264 -0.081724 0
0.0755053 -0.0829116 0
0.0762781 -0.0841033 0
0.0770449 -0.0852987 0
0.0778059 -0.0864979 0
0.0785611 -0.0877007 0
0.0793108 -0.088907 0
0.0814681 -0.0912706 0
0.0828814 -0.0924245 0
0.0842946 -0.0935783 0
0.0857079 -0.0947322 0
0.0871211 -0.095886 0
0.0885344 -0.0970399 0
0.0899476 -0.0981937 0
0.0913609 -0.0993476 0
0.0927741 -0.100501 0
0.0941874 -0.101655 0
0.0956006 -0.102809 0
0.0970139 -0.103963 0
0.0984272 -0.105117 0
0.0998404 -0.106271 0
0.101254 -0.107424 0
0.102667 -0.108578 0
0.10408 -0.109732 0
0.105493 -0.110886 0
0.106907 -0.11204 0
0.10832 -0.113194 0
0.109733 -0.114348 0
0.111146 -0.115501 0
0.11256 -0.116655 0
0.113973 -0.117809 0
0.115386 -0.118963 0
0.116799 -0.120117 0
0.118213 -0.121271 0
0.119626 -0.122424 0
0.121039 -0.123578 0
0.122452 -0.124732 0
0.123866 -0.125886 0
0.125279 -0.12704 0
0.126692 -0.128194 0
0.128105 -0.129348 0
0.129519 -0.130501 0
0.130932 -0.131655 0
0.132345 -0.132809 0
0.133758 -0.133963 0
0.135172 -0.133216 0
0.135172 -0.131316 0
0.135172 -0.129415 0
0.135172 -0.127514 0
0.135172 -0.125614 0
0.135172 -0.123713 0
0.135172 -0.121813 0
0.135172 -0.119912 0
0.135172 -0.118012 0
0.135172 -0.116111 0
0.135172 -0.11421 0
0.135172 -0.11231 0
0.135172 -0.110409 0
0.135172 -0.108509 0
0.135172 -0.106608 0
0.135172 -0.104708 0
0.135172 -0.102807 0
0.135172 -0.100906 0
0.135172 -0.0990058 0
0.135172 -0.0971052 0
0.135172 -0.0952046 0
0.135172 -0.0933041 0
0.135172 -0.0914035 0
0.135172 -0.0895029 0
0.135172 -0.0876023 0
0.135172 -0.0857017 0
0.135172 -0.0838012 0
0.135172 -0.0819006 0
0.133758 -0.0788462 0
0.132345 -0.0776923 0
0.130932 -0.0765385 0
0.129519 -0.0753846 0
0.128105 -0.0742308 0
0.126692 -0.0730769 0
0.125279 -0.0719231 0
0.123866 -0.0707692 0
0.122452 -0.0696154 0
0.121039 -0.0684615 0
0.119626 -0.0673077 0
0.118213 -0.0661538 0
0.116799 -0.065 0
0.115386 -0.0638462 0
0.113973 -0.0626923 0
0.11256 -0.0615385 0
0.111146 -0.0603846 0
0.109733 -0.0592308 0
0.10832 -0.0580769 0
0.106907 -0.0569231 0
0.105493 -0.0557692 0
0.10408 -0.0546154 0
0.102667 -0.0534615 0
0.101254 -0.0523077 0
0.0998404 -0.0511538 0
0.0984272 -0.05 0
0.0970139 -0.0488462 0
0.0956006 -0.0476923 0
[...]
CELL_DATA 13116
SCALARS rho float
LOOKUP_TABLE default
0.5977
0.689157
0.423048
0.689892
0.691922
0.680465
0.366423
0.691146
0.597691
0.693188
0.367636
0.430615
0.691642
0.392621
0.413835
0.680334
0.597695
0.69873
0.688729
0.367906
0.5977
0.44702
0.409756
0.699487
0.5977
0.688699
0.693336
0.42925
0.5977
0.595756
0.745528
0.425097
0.597705
0.572981
0.367295
0.5977
0.681239
0.690346
0.680801
0.689471
0.680566
0.690671
0.597716
0.407723
0.691372
0.690598
0.6848
0.685834
0.437868
0.592571
0.690267
0.594484
0.372883
0.597701
0.597704
0.5977
0.405496
0.698779
0.593794
0.424987
0.39408
0.691571
0.68665
0.68082
0.68917
0.38068
0.687873
0.685836
0.687404
0.663407
0.413614
0.597703
0.450532
0.394235
1.09768
0.392684
0.690009
0.690536
0.367096
0.705203
0.693272
0.687643
0.697661
0.685269
0.688842
0.5267
0.366786
0.666502
0.689037
0.367891
0.42383
0.689518
0.696555
0.689673
0.658902
0.5977
0.5977
0.920095
0.998951
0.5977
0.638099
0.67789
0.681185
0.563205
0.683715
0.427261
0.499658
0.597709
0.419597
0.5977
0.597703
0.68675
0.5977
0.698666
0.704057
0.688453
0.374415
0.516872
0.689199
0.688866
0.684066
0.46027
0.68771
0.423003
0.690477
0.549462
0.368357
0.580613
0.413627
0.591104
0.689414
0.687924
0.559895
0.441478
0.549813
0.591423
1.12681
0.688739
0.607941
0.688926
0.687545
0.685038
0.582522
0.686969
0.686389
0.403231
0.367203
0.68726
0.693111
0.690692
0.586114
0.685231
0.685895
0.371721
0.694206
0.689142
0.415182
0.750175
0.92875
0.645289
0.699176
0.367533
0.696756
0.414641
0.46269
0.691752
0.689791
0.699531
0.366885
0.538747
0.523415
1.12676
0.410891
0.578942
0.68844
0.410337
0.425657
0.449643
0.686041
0.680835
0.367652
0.537241
0.597699
0.680955
0.680829
0.595033
0.371499
0.689344
0.683557
0.564307
0.695374
0.687063
0.667487
0.423371
0.686076
0.680948
0.695266
0.689941
0.688954
0.543004
0.567611
0.5977
0.578297
0.397411
0.691869
0.697861
0.595929
0.5977
0.416097
0.367703
0.390634
0.687076
0.418505
0.367602
0.368105
0.373748
0.510187
0.680923
0.690443
0.521556
0.402153
0.687707
0.597705
0.367697
0.585139
0.693028
0.685798
0.430125
0.688225
0.50968
0.690207
0.42482
0.669311
0.597668
1.06126
0.689382
0.676352
0.442319
0.547732
0.594157
1.11932
0.680937
1.12688
0.679756
0.69122
0.429428
0.68949
0.693458
0.973912
0.367446
0.440978
0.695973
0.689039
0.658941
0.687451
0.5977
0.705394
0.367754
0.453784
0.531996
0.414229
0.681395
0.695576
0.688822
0.366167
0.689678
0.374144
0.523566
0.6841
0.367786
0.687961
0.690964
1.12413
0.698423
0.440511
1.12523
0.69759
0.954716
0.68861
0.36748
0.366352
0.422456
0.591813
0.457118
0.453472
0.49034
0.478581
0.688667
0.37776
0.689135
0.691545
0.368458
0.367847
0.372048
0.546562
0.433851
0.668827
0.6786
0.684364
0.367839
0.685644
0.597288
0.455016
0.424503
0.681033
0.688971
0.689337
0.373463
0.680908
0.561359
0.689663
0.690511
0.690159
0.690682
0.42357
0.68793
0.396848
0.68681
0.692616
0.5977
0.367867
0.488545
0.693141
0.371259
0.686422
0.691249
0.513203
0.712895
0.69811
0.368497
0.689679
0.696633
0.39363
0.689699
0.524631
0.593213
0.692195
0.527303
0.743389
0.366255
0.700162
0.492187
0.680802
0.678278
0.694909
0.428314
0.501589
0.689114
0.370576
0.690699
0.684164
0.534284
1.12691
0.370582
0.435689
0.689299
0.588094
0.68453
0.366853
0.415699
0.68942
0.69146
0.36693
0.69076
0.381312
0.431427
0.689045
0.69196
0.597698
0.367753
0.688677
0.709261
0.680311
0.689101
0.695166
0.587946
0.476143
0.408119
0.367732
0.680455
0.367741
0.597699
0.514838
0.423754
0.498342
0.597699
0.349364
0.369261
0.689295
0.420759
0.69657
0.5977
0.680522
0.588936
0.690085
0.438568
0.366564
0.550338
0.492572
0.690744
0.5977
0.680272
0.5977
0.686945
0.597701
0.687516
0.691071
0.597074
0.693647
0.705832
0.680876
0.53548
0.590067
0.5977
0.440227
0.678326
0.5977
0.371724
0.688256
1.12578
0.424305
0.36767
0.367815
0.369113
0.5977
0.386318
0.423074
0.687015
0.380853
0.5977
0.367747
0.680318
0.688922
0.438716
0.44164
0.689389
0.543939
0.367828
0.36888
0.367767
0.420176
0.366858
0.367653
0.458905
0.52597
0.367945
0.677627
0.465444
0.688948
0.517062
0.422292
0.553706
0.406743
0.367933
0.407888
0.689428
0.531581
0.5977
0.597703
0.378178
0.5977
0.689033
0.525118
0.713524
0.597707
0.597604
0.367314
1.03392
0.517639
0.69585
0.839275
0.422827
0.377163
0.682869
0.495349
0.526398
0.678904
0.498925
0.741846
0.686819
0.36775
0.422167
0.401519
0.577572
0.421443
0.385104
0.410832
0.394872
0.690956
0.690454
0.549677
0.5977
0.552357
0.685456
0.502159
0.383039
0.597702
0.423243
0.688976
0.468975
0.507114
0.55751
0.691283
0.689037
0.591443
0.511299
0.374494
0.589741
0.691015
0.674511
0.588396
0.683778
0.68138
0.367832
0.689988
0.597454
0.591551
0.48655
0.435395
0.697247
0.696155
0.592587
0.692953
0.687798
0.689865
0.699662
0.59738
0.679936
0.367446
0.691064
0.494918
0.421739
0.367521
0.690236
0.697358
0.483871
0.688642
0.5977
0.367907
0.680559
0.68863
0.693985
0.428518
0.380117
0.690057
0.367824
0.367723
0.415556
0.367787
0.698867
0.389801
0.689575
0.463541
0.689874
0.690408
0.687138
0.691253
0.367803
0.367807
0.696181
0.690074
0.696297
0.691124
0.69366
0.546873
0.367983
0.424293
0.680535
0.596679
0.367925
0.543198
0.42357
0.690993
0.689171
0.485376
0.450965
0.688792
0.529835
0.689558
0.5977
0.411619
0.508935
0.697358
1.11694
0.41552
0.688395
0.689901
0.697277
0.384043
1.12676
0.400197
1.07546
0.592312
0.367737
0.508233
0.454684
1.03779
0.420192
0.366198
0.51947
0.680698
0.692349
0.366449
0.450512
0.367678
0.680586
0.454198
0.680885
0.401233
0.597703
0.693034
0.521531
0.413228
0.410926
0.547954
0.424662
0.688629
0.378292
0.391928
0.680717
0.388498
0.687116
0.68628
0.992456
0.368044
0.686786
0.696742
0.695403
0.681171
0.692101
0.68912
0.415362
0.665558
0.523229
0.698941
0.367465
0.691072
0.594165
0.367941
0.705197
0.693752
0.372408
0.669772
0.424136
0.410787
0.686971
0.689424
0.422398
0.407796
0.366834
0.416381
0.691425
0.699616
0.381255
0.367703
0.690901
0.688506
0.597701
0.696848
0.688831
0.367702
0.694822
0.526661
0.690158
0.523058
0.5977
0.544848
0.687798
0.686824
0.597425
0.498467
0.426336
0.689869
0.5977
0.5977
0.696886
0.409115
0.693409
0.694423
0.511665
0.591564
0.696621
0.510507
0.662989
0.597009
0.486756
0.689407
0.632435
0.437293
0.692506
0.422126
0.688605
0.405099
0.686706
0.686287
0.426902
0.680741
0.696726
0.690711
0.5977
0.696492
0.597528
0.475589
0.55697
0.399391
0.393033
1.12685
0.586841
0.688594
0.692966
0.367798
0.475797
0.689015
0.693052
0.689624
0.690986
0.36759
0.705423
0.693319
0.367902
0.413702
0.689319
0.696122
0.688693
0.4221
0.597659
0.439891
0.692468
0.685828
0.670151
0.692781
0.367791
0.701092
0.689002
0.696692
0.689382
0.68067
0.522583
0.694711
0.367736
0.683089
0.693232
0.53884
0.687464
0.678358
0.690442
0.575667
0.537591
0.597671
0.597705
0.367861
0.367841
0.367838
0.367928
0.692002
0.692626
0.678687
0.481206
0.368013
0.687276
0.735354
0.391196
0.478168
0.543403
0.689473
0.689783
0.689073
0.699116
0.36773
0.367875
1.12666
0.424625
0.367718
0.381282
0.680463
0.438369
0.367826
0.5977
0.698543
0.685349
0.680667
0.688114
0.375289
0.398535
0.367847
0.597699
0.531815
0.425065
0.683718
0.70064
0.687657
0.683809
0.424219
0.367908
0.692944
0.367828
0.680707
0.685975
0.820904
0.422267
0.367789
0.687609
0.720763
0.597467
0.391325
0.689356
0.680664
0.5977
0.690628
0.690916
1.1266
0.683434
0.367597
0.687625
0.670561
0.684519
0.692667
1.12685
0.686999
1.12681
0.688278
0.390215
0.408653
0.367812
0.707254
0.59586
0.367882
0.688871
0.691378
0.431646
0.674001
0.442164
0.694321
0.597702
0.441449
0.692707
0.700552
0.367924
0.581915
0.703605
0.404788
0.68969
0.385388
0.425457
0.5977
0.5977
0.553607
0.682713
0.36807
0.696316
0.419344
0.427505
0.686761
0.367886
0.5977
0.423781
0.686595
0.5977
1.12651
0.68937
0.408174
0.395174
0.6806
0.597716
0.689844
0.577719
0.5977
0.680384
0.696819
0.597712
0.5977
0.685924
0.694844
0.688137
0.49491
0.367774
0.579906
0.686066
0.695019
0.516015
0.683015
0.597647
0.547867
0.423237
0.597662
0.684066
1.12682
1.06842
0.67911
0.697298
0.681006
0.68867
0.423154
0.59764
0.542391
0.689429
0.695578
0.478326
0.692603
0.691687
0.415261
0.434605
0.37083
1.12684
0.367564
0.5977
0.693847
0.597703
0.466199
0.689827
0.397477
0.597692
0.680723
0.671928
0.680701
0.680904
0.5977
0.692152
0.597702
0.698318
0.405052
0.681068
0.687001
0.597712
1.12488
0.693417
0.423127
0.409994
0.406547
0.690143
0.367794
1.12538
0.367836
0.69122
0.379012
0.54509
0.413565
0.696107
0.690926
0.5977
0.464472
0.5977
0.680881
0.367992
0.597701
0.69038
0.426113
0.5977
0.855409
0.69305
0.680694
0.423647
0.597708
0.690479
0.68428
0.68337
0.367769
0.533753
0.689565
1.12697
1.11757
1.12689
0.5977
0.687736
0.597699
0.689354
0.367804
0.398744
1.12692
0.691757
0.680717
0.383888
0.680992
0.5977
0.597706
0.40763
0.518022
0.690727
0.687923
0.596555
0.486947
0.681254
1.1196
0.366515
0.5977
0.699132
0.36656
0.421212
0.398946
0.683722
0.456755
0.36745
0.689295
0.580028
0.69468
0.68087
0.366988
0.367429
0.691168
0.410397
0.386877
0.723509
0.438118
0.505151
0.5977
0.692327
0.686775
0.368001
0.450918
0.367572
0.686607
0.429187
0.686234
0.38769
0.688545
0.691575
0.690875
0.684343
0.701261
0.685492
0.689563
0.691374
0.688614
0.387061
0.36792
0.695914
0.680939
0.55474
0.684316
0.5977
0.680932
0.682907
0.436709
0.688492
0.690724
0.696357
0.367441
0.701691
0.44449
0.685624
0.547736
0.70209
0.682091
0.442864
0.691026
0.367669
0.570848
0.687092
0.384462
0.733234
1.12701
0.691394
0.370055
0.68698
0.367954
0.422211
0.423693
0.368072
0.681176
0.413656
0.690192
0.679232
0.490208
0.42356
0.545323
0.59766
0.597704
0.68311
0.367965
0.373503
0.366842
0.412051
0.461647
0.597472
0.687863
0.43081
0.68083
0.693105
0.396536
0.691665
0.734866
0.680575
0.367784
1.10177
0.699446
0.693889
0.689829
0.421288
0.687067
0.69334
0.701542
0.597702
0.680614
0.455684
0.423827
0.684729
0.576755
0.367733
0.685417
0.417857
0.593925
0.592583
0.688214
0.688811
0.424294
0.68424
0.531526
0.367505
0.710594
0.690804
0.693853
0.689504
0.680073
0.422023
0.691348
0.422737
0.553626
0.691857
1.0095
0.690267
0.367462
0.451153
0.693235
0.462817
0.689914
0.5977
0.53236
0.472652
0.689167
0.423754
0.680966
0.68992
0.697487
0.423679
0.411724
0.575495
0.597679
0.597703
0.566523
0.680766
0.683103
0.689221
1.12685
0.689369
0.368086
0.469693
0.690368
0.680596
0.682925
0.536726
0.394375
0.69398
0.407429
0.689045
0.5977
0.470987
0.690529
0.367916
0.691488
0.426447
0.693517
0.437252
0.690185
0.680875
0.428611
0.690324
0.597704
0.412732
0.67772
0.690527
0.597705
0.404254
0.511988
0.567477
0.696707
0.681377
0.477752
0.597567
0.691682
0.680693
0.467521
0.596576
0.687868
0.528546
0.680867
0.687428
0.476765
0.68774
0.891164
0.42028
0.5977
0.367971
0.69542
0.368721
0.426883
0.696628
0.367773
0.367752
0.404865
0.68755
0.687781
0.541953
0.681037
0.508571
0.696299
0.367937
0.688088
0.51629
0.680327
0.685133
0.69672
0.678701
0.583366
0.680909
0.680508
0.426822
0.5977
0.697432
0.5977
0.688312
0.548389
0.552354
0.691392
0.367775
0.597702
0.444474
0.680398
0.385473
0.423
0.700575
0.689024
0.367779
0.689428
0.701479
1.12685
0.690855
1.07349
0.367667
0.692282
0.367715
0.41695
0.689311
0.698124
0.690777
0.688873
0.422093
0.369873
0.367364
0.688432
0.678455
0.509384
0.692315
0.379955
0.369916
0.396723
0.689031
0.521481
0.691897
0.689019
0.5977
0.689449
0.687901
0.5977
0.688105
0.5244
0.405047
0.367802
1.0785
1.11736
0.386426
0.59699
0.682845
0.691359
0.422819
0.579336
0.683774
0.452241
0.682787
0.67911
0.367573
0.680809
0.69353
0.367837
0.68867
0.383709
0.688553
0.695382
0.701248
0.409977
0.535941
0.727581
0.480981
0.526976
0.689631
0.4855
0.680808
0.688029
0.687619
0.702221
0.480796
0.733563
0.709904
0.686175
0.501716
0.690333
0.429312
0.399699
0.689371
0.689491
0.679337
0.418231
0.685031
0.5977
1.09827
0.375676
0.380573
0.367822
0.689522
0.36664
0.388514
0.433605
0.67842
0.38685
0.477283
0.526624
0.686215
0.367542
0.672391
0.680834
0.689356
0.371714
0.686845
0.591433
0.680705
0.519613
0.597703
0.367777
0.367849
0.686963
0.367817
0.591976
0.692163
1.1267
0.367667
0.489142
0.370785
0.589069
1.12672
0.42088
0.690474
0.687346
0.700428
0.368023
0.420036
0.493898
0.681142
0.367874
1.12687
0.5977
0.680894
0.689803
0.367581
0.653148
0.416449
0.676697
0.5977
0.693052
0.674069
0.5977
0.595357
0.683202
0.690562
0.367739
0.515333
0.385252
0.70335
0.597146
1.01364
0.367599
0.521895
0.695544
0.68676
0.666937
0.367841
0.689329
0.588212
0.590959
0.681301
0.422645
0.36784
0.478009
0.689442
0.679454
0.5977
0.684858
0.493183
0.691498
0.597703
0.680091
0.679699
0.691151
0.691118
0.680815
0.696632
0.694004
0.42392
0.687659
0.689759
0.680703
0.688461
0.689774
0.591234
0.367728
0.433238
0.683779
0.367765
0.483956
0.689616
0.402759
0.5977
0.687193
0.68758
0.696852
0.424332
0.689881
0.424304
0.39256
0.680708
0.689209
0.685315
0.375586
0.690313
0.681146
0.682221
0.688776
0.439072
0.680675
0.693157
0.694845
0.54207
0.699631
0.367771
0.687649
0.389941
0.367719
0.597703
0.53999
0.692751
0.697628
0.680743
0.431713
0.680653
0.545648
0.406475
0.687353
0.544728
0.367836
0.6804
0.442179
0.558893
0.680754
0.684844
0.688042
0.546715
0.597703
0.638409
0.68092
0.591237
0.69384
0.577829
0.688321
0.684559
0.591986
0.421278
0.36725
0.537717
0.689465
0.422796
0.613146
0.68943
0.5977
0.680872
0.5977
0.72058
0.690377
0.367714
0.689276
0.683968
0.5977
0.68417
0.692741
0.688585
0.68073
0.367934
0.397495
0.69991
0.597615
0.5977
0.688337
0.686658
0.684519
0.696107
0.695107
0.5977
0.682493
0.692965
0.397741
0.436716
0.388317
0.460206
1.12512
0.554386
0.597699
0.689945
0.694033
0.419233
0.697829
0.689499
0.378336
0.509823
1.12058
0.688525
0.424918
0.424509
0.415955
1.1268
0.688861
0.548622
0.368005
0.36764
0.435793
0.502116
0.367764
0.690891
0.685476
0.689447
0.367764
0.687435
0.597703
0.5977
0.480943
0.367754
0.687462
1.12694
0.3678
0.680322
0.367816
0.69984
0.423441
0.689322
0.367725
0.687933
0.690712
0.369858
0.59182
0.465797
0.691896
0.437406
0.597699
0.415762
0.588045
0.367668
0.597708
0.367972
0.672893
0.670793
0.5977
0.70028
0.484563
0.687957
0.680901
0.690754
0.5977
0.699056
0.367759
0.586431
0.384928
0.696848
0.471215
0.691827
0.589014
0.698732
0.69302
0.597704
0.694124
0.407816
0.389986
0.397103
0.584573
0.596822
0.690428
0.367893
0.449088
0.685109
0.512272
0.423611
0.598246
0.509506
0.367819
0.431921
0.690343
0.5977
0.597593
0.404495
0.687912
0.68937
0.42837
0.490825
0.689073
0.685283
0.675531
0.562458
0.520078
0.501901
0.370118
0.691305
0.682644
0.597577
0.709381
0.420426
0.5977
0.36789
0.67366
0.691076
0.367675
0.460227
0.683921
0.593853
0.691426
0.6939
0.695939
0.689664
0.691495
0.37723
0.444256
0.387988
0.367592
0.5977
0.802721
0.5977
0.367644
0.368023
0.578156
0.424599
0.684507
0.684613
0.368
0.484247
0.687183
0.415208
0.651501
0.695608
0.686605
0.680838
0.5977
0.367748
0.368012
0.681629
0.367628
0.56294
0.539452
0.680706
0.689424
0.470513
0.367508
1.12684
0.368007
0.688676
0.696789
0.367709
0.417214
0.376548
0.686807
0.376122
1.12693
0.693567
0.5977
0.427868
0.574896
0.690249
0.689984
0.366404
0.688877
0.685003
0.418218
0.689055
0.687733
0.367472
0.36784
0.687401
0.367964
0.367575
0.687866
0.498069
0.685377
0.725189
0.696686
0.688792
0.691845
0.68769
0.680915
0.367087
0.517404
0.685228
0.698923
0.534797
0.692358
0.492539
0.688221
0.688274
0.597702
0.59073
0.582465
0.544614
0.698153
0.692042
0.684168
0.690799
0.686409
1.12664
0.690733
1.12686
0.691847
0.687481
0.690965
1.12712
0.680917
0.41033
0.687651
0.424737
0.689184
0.687722
0.6968
0.685382
0.704478
0.411602
0.370802
0.48402
0.366657
0.68653
0.367824
0.367751
0.694055
0.423881
0.696573
0.369175
0.687838
0.687399
0.367638
0.511348
0.474589
0.689365
0.402193
0.693384
0.690977
0.37349
0.687735
0.593198
0.49199
0.427026
0.42787
0.71196
0.367849
0.689241
0.5977
0.471418
0.69041
0.68053
0.696317
0.367836
0.5977
0.417663
0.687635
0.681019
0.688498
0.367791
0.700238
0.688467
0.684567
0.528955
0.68923
0.367881
0.367854
0.689433
0.551543
0.693864
0.581708
0.367806
0.529051
0.685075
0.421482
0.402407
0.408249
0.597708
1.04399
0.689627
0.393304
0.5977
0.686244
0.587987
0.589879
0.465127
0.593942
0.367901
0.367859
0.691973
0.367816
0.367928
0.690408
0.690616
0.381028
0.701248
0.378915
1.12473
0.431173
0.687555
0.665061
0.704333
0.680839
0.426182
0.367949
0.423391
0.6808
0.68748
0.597704
0.594114
0.506845
0.479816
0.680863
0.367335
0.684753
0.507125
0.660801
0.689381
0.369255
0.411347
0.367771
0.367491
0.416904
0.683246
0.687043
0.367732
0.687364
0.596872
0.476572
0.408122
0.690578
0.367916
0.686511
0.522758
0.702005
0.605317
0.686759
0.980426
0.401499
0.695107
0.689205
0.689903
0.36794
0.68179
0.5977
0.48115
0.689395
0.692856
0.690294
0.687746
0.691321
0.689297
0.690651
0.680602
0.689329
0.367585
0.696927
0.367771
0.582869
0.689658
0.422629
0.68868
0.682155
0.444743
0.684544
0.367903
0.42278
0.689527
0.680309
0.690746
0.367815
0.687555
0.5977
0.431167
0.367743
0.689917
0.689305
0.509788
0.418717
0.694677
0.690625
0.367971
0.591865
0.691396
0.5977
0.37388
0.36788
0.423428
0.596097
0.438887
0.688902
0.704873
0.680814
0.59765
0.687408
0.367765
0.688919
0.5977
0.690687
0.67404
0.424361
0.366767
0.423449
0.698419
0.691058
0.521062
0.591367
0.453496
0.69551
0.688628
0.411812
0.685528
0.689692
0.597701
0.367883
0.366337
0.462293
0.6897
0.69378
0.5977
0.562661
0.68685
0.367794
0.597701
1.11714
0.700422
0.368076
0.5977
0.448675
0.68321
0.42967
0.698464
0.689547
0.402142
0.689292
0.597669
1.12707
0.670543
1.12681
0.689754
0.55038
0.680794
0.680528
0.689321
0.697119
0.540689
1.12277
0.383474
0.680565
0.420545
0.367897
0.431862
0.414715
0.367881
0.367817
0.691775
0.504175
0.392128
0.680833
0.689541
0.687406
0.550842
0.702844
0.710069
0.68085
0.42889
0.677622
0.688019
0.468759
0.423273
0.367998
0.597702
0.556894
0.367752
0.59171
0.425274
1.01483
0.553735
0.370396
0.542927
0.592329
0.469075
0.689112
0.414498
0.5977
0.507758
0.690999
0.514771
0.681556
1.12471
0.681268
0.592746
0.367882
0.691604
0.690487
0.427737
0.421895
0.680478
0.367759
0.699758
0.367783
0.592734
0.42155
0.687782
0.445362
0.691282
0.367853
0.688871
0.687713
0.692128
1.12477
0.382617
0.4161
0.54808
0.689659
0.693126
0.684866
0.594093
0.445561
0.693838
0.467414
0.687319
0.67921
0.556899
0.471694
0.696089
0.698389
0.415048
0.67365
0.691727
0.694328
0.696702
0.417304
0.597702
0.36763
0.69397
0.440686
0.680719
0.687693
0.692427
0.691203
0.474907
0.689617
0.367815
0.367646
0.68858
1.122
0.597705
0.699191
1.12604
0.367893
0.69958
0.690464
0.690957
0.422513
0.535725
0.704051
0.367795
0.688356
0.689528
0.689305
0.690761
0.465583
0.56945
0.597707
0.405448
0.688665
0.690431
0.578144
0.689338
0.46747
0.681909
0.700103
0.708324
0.689901
0.366157
0.423776
0.689664
0.688717
0.437854
0.491459
0.437414
0.411811
0.391163
0.412438
0.433667
0.367723
0.692794
0.419309
0.374708
0.693931
0.597705
1.12677
0.51926
0.367558
0.686659
0.568671
0.5977
0.694262
0.511278
0.597686
0.673788
0.5977
0.688345
0.400983
0.689592
0.680847
0.380258
0.367916
0.556194
0.681865
0.5977
0.691596
0.680538
0.698467
0.691172
0.514025
0.689032
0.680853
0.691418
0.367928
0.687717
0.67704
0.508597
0.533404
0.37541
0.414685
0.391752
0.5977
0.682179
0.697114
0.367877
0.515308
0.690852
0.429557
0.690739
0.68048
0.68939
0.712327
0.686395
0.464964
0.415942
0.417611
0.5977
0.437576
0.685951
0.418953
0.687278
0.680589
0.687357
0.454778
0.563308
0.544498
0.687417
0.408887
0.367997
0.689875
0.688227
0.694065
0.680425
0.690261
0.699618
0.367795
0.5977
0.693189
0.572536
0.686334
0.692112
0.698416
0.530122
0.520356
0.690831
0.552326
0.596092
0.367857
0.68591
0.689122
0.544109
0.439559
0.688173
0.578484
0.691949
0.691066
0.367841
0.36788
0.864734
0.597437
0.558104
0.689348
0.689813
0.451617
0.690207
0.859993
0.685658
0.367826
0.5977
0.367804
0.689555
0.69069
0.699385
0.696167
0.770981
0.479501
0.506337
0.701433
0.367744
0.5977
0.465446
0.687141
0.400441
0.659259
0.693598
0.900567
0.367808
1.12686
1.09997
0.367778
0.686069
0.428753
0.690229
0.367852
0.368084
0.409338
0.696312
0.690846
0.48896
0.482382
0.687401
0.691559
0.547479
0.705268
0.367831
0.597706
0.367876
0.701265
0.367876
0.679989
0.68937
0.428027
0.597268
0.367841
0.678501
0.387504
0.367705
0.694019
0.423588
0.690215
0.555802
0.407035
0.692847
0.777056
0.69061
0.679985
0.458721
0.5977