# vtk DataFile Version 1.0
unstructured grid
ascii
DATASET UNSTRUCTURED_GRID
points 13672 float
0.0796578 -0.059106 0
0.00128732 0.00159165 0
0.00227961 -0.00102548 0
0.0791586 -0.0598787 0
-0.0546216 0.01 0
0.000495206 0.025 0
0.0800549 -0.035 0
0.135172 -0.08 0
-0.0546216 -0.0451168 0
0.000495206 -0.0301168 0
0.0800549 -0.0901168 0
0.135172 -0.135117 0
-0.0546216 -0.0451168 -0.00551168
0.000495206 -0.0301168 -0.00551168
0.0800549 -0.0901168 -0.00551168
0.135172 -0.135117 -0.00551168
0.135172 -0.08 -0.00551168
0.0800549 -0.035 -0.00551168
0.000495206 0.025 -0.00551168
-0.0546216 0.01 -0.00551168
0.00128732 0.00159165 -0.00551168
0.00227961 -0.00102548 -0.00551168
0.0791586 -0.0598787 -0.00551168
0.0796578 -0.059106 -0.00551168
0.00165953 -0.000990923 0
0.00119576 -0.000874076 0
0.000866021 -0.000641801 0
0.000645147 -0.000349912 0
0.00052235 -1.7281e-05 0
0.00049972 0.000348016 0
0.000601632 0.000737716 0
0.000861774 0.0011403 0
0.00157235 0.00183217 0
0.00188647 0.00206725 0
0.00222612 0.00230203 0
0.00258713 0.00254351 0
0.00296826 0.00279524 0
0.00337118 0.00305664 0
0.00379785 0.00332658 0
0.00425045 0.00360349 0
0.00473139 0.00388521 0
0.0052432 0.00416895 0
0.0057881 0.00445204 0
0.00636753 0.00473281 0
0.00698281 0.00500961 0
0.00763526 0.00528058 0
0.00832616 0.00554366 0
0.00905691 0.00579603 0
0.00982918 0.00603333 0
0.0106445 0.00625033 0
0.0115038 0.00644128 0
0.0124073 0.00660297 0
0.0133543 0.00673414 0
0.0143444 0.00683382 0
0.0153769 0.00690031 0
0.0164512 0.00693173 0
0.0175666 0.00692547 0
0.0187219 0.00687822 0
0.0199156 0.00678477 0
0.0211454 0.00663864 0
0.0224084 0.00643275 0
0.0237018 0.00616676 0
0.0250249 0.00584739 0
0.026375 0.00547298 0
0.0277479 0.00503752 0
0.0291386 0.00453545 0
0.0305433 0.0039653 0
0.0319572 0.0033256 0
0.0333681 0.00260019 0
0.034775 0.00179799 0
0.0361793 0.000930615 0
0.0375798 3.12222e-06 0
0.0389689 -0.000988429 0
0.0403357 -0.00205109 0
0.041675 -0.00318283 0
0.0429849 -0.00437751 0
0.0442643 -0.00562904 0
0.0455126 -0.00693089 0
0.0467314 -0.00827518 0
0.0479204 -0.00965638 0
0.0490661 -0.0110799 0
0.0501515 -0.0125519 0
0.0511696 -0.0140695 0
0.0521492 -0.0156071 0
0.0531202 -0.0171411 0
0.0540851 -0.0186663 0
0.0550431 -0.0201798 0
0.0559923 -0.0216793 0
0.0569311 -0.0231626 0
0.0578582 -0.0246273 0
0.0587723 -0.0260715 0
0.0596721 -0.027493 0
0.0605563 -0.02889 0
0.0614241 -0.0302609 0
0.0622742 -0.0316042 0
0.063106 -0.0329183 0
0.0639186 -0.034202 0
0.0647113 -0.0354543 0
0.0654835 -0.0366743 0
0.0662345 -0.0378613 0
0.0669642 -0.0390145 0
0.0676726 -0.0401333 0
0.0683597 -0.0412172 0
0.0690246 -0.0422665 0
0.0696662 -0.0432819 0
0.0702841 -0.0442636 0
0.0708793 -0.0452111 0
0.0714538 -0.0461237 0
0.072009 -0.047001 0
0.0725452 -0.0478434 0
0.0730611 -0.0486524 0
0.073556 -0.0494294 0
0.0740291 -0.0501756 0
0.0744812 -0.0508916 0
0.0749138 -0.0515773 0
0.0753285 -0.0522331 0
0.0757266 -0.0528592 0
0.076109 -0.0534564 0
0.0764753 -0.0540264 0
0.0768243 -0.054571 0
0.0771553 -0.0550919 0
0.0774679 -0.0555901 0
0.0777617 -0.0560669 0
0.0780369 -0.056523 0
0.0782958 -0.0569578 0
0.0785421 -0.0573703 0
0.0787786 -0.0577603 0
0.0790073 -0.0581279 0
0.0792295 -0.058474 0
0.0794462 -0.0587995 0
0.0798803 -0.0594162 0
0.0800272 -0.0596588 0
0.0800357 -0.0598891 0
0.0799275 -0.0600784 0
0.0797205 -0.0601773 0
0.0794593 -0.0601051 0
0.0789155 -0.0596491 0
0.0786707 -0.0593963 0
0.0784111 -0.0591319 0
0.0781372 -0.0588542 0
0.0778566 -0.0585548 0
0.0775715 -0.0582308 0
0.0772803 -0.0578828 0
0.0769832 -0.0575099 0
0.0766822 -0.0571097 0
0.0763801 -0.0566796 0
0.0760759 -0.0562196 0
0.0757623 -0.0557337 0
0.0754359 -0.0552232 0
0.0750951 -0.0546879 0
0.0747379 -0.054128 0
0.0743626 -0.0535435 0
0.0739688 -0.0529338 0
0.0735559 -0.0522981 0
0.0731238 -0.0516357 0
0.0726718 -0.050946 0
0.0721991 -0.0502288 0
0.0717046 -0.049484 0
0.0711872 -0.0487117 0
0.0706461 -0.047912 0
0.0700804 -0.0470849 0
0.0694892 -0.0462308 0
0.0688718 -0.0453499 0
0.0682271 -0.0444431 0
0.0675544 -0.043511 0
0.0668527 -0.0425546 0
0.0661215 -0.0415748 0
0.06536 -0.040573 0
0.0645676 -0.0395504 0
0.0637439 -0.0385087 0
0.0628887 -0.0374493 0
0.062002 -0.0363741 0
0.0610838 -0.0352847 0
0.0601345 -0.0341831 0
0.0591547 -0.033071 0
0.0581456 -0.0319502 0
0.0571083 -0.0308224 0
0.0560444 -0.0296893 0
0.0549562 -0.028552 0
0.053845 -0.0274126 0
0.0527113 -0.0262746 0
0.051554 -0.0251427 0
0.0503724 -0.0240222 0
0.0491675 -0.0229164 0
0.047941 -0.0218282 0
0.0466955 -0.0207597 0
0.0454337 -0.0197126 0
0.0441592 -0.0186878 0
0.0428751 -0.0176863 0
0.0415841 -0.0167097 0
0.0402878 -0.0157609 0
0.0389879 -0.0148428 0
0.0376864 -0.0139575 0
0.0363853 -0.013107 0
0.0350871 -0.0122931 0
0.0337942 -0.0115164 0
0.0325095 -0.0107772 0
0.0312357 -0.0100756 0
0.0299758 -0.00941024 0
0.0287337 -0.00877784 0
0.0275126 -0.00817571 0
0.0263139 -0.00760375 0
0.0251376 -0.00706528 0
0.0239829 -0.0065649 0
0.0228537 -0.00609619 0
0.0217522 -0.00565563 0
0.0206795 -0.00524226 0
0.0196364 -0.00485507 0
0.0186233 -0.00449318 0
0.0176408 -0.00415577 0
0.016689 -0.00384204 0
0.0157682 -0.00355115 0
0.0148783 -0.00328218 0
0.0140192 -0.00303468 0
0.0131906 -0.00280795 0
0.0123925 -0.00260016 0
0.0116246 -0.00241012 0
0.0108864 -0.00223769 0
0.0101774 -0.00208212 0
0.00949701 -0.00194206 0
0.00884483 -0.0018163 0
0.0082202 -0.0017039 0
0.00762247 -0.00160391 0
0.00705097 -0.00151528 0
0.006505 -0.00143697 0
0.0059838 -0.00136806 0
0.00548662 -0.00130772 0
0.00501265 -0.00125519 0
0.00456114 -0.00120954 0
0.00413136 -0.00116914 0
0.00372257 -0.00113251 0
0.00333398 -0.00109853 0
0.00296466 -0.00106798 0
0.00261363 -0.0010431 0
-0.052721 -0.0445996 0
-0.0508204 -0.0440823 0
-0.0489199 -0.0435651 0
-0.0470193 -0.0430478 0
-0.0451187 -0.0425306 0
-0.0432181 -0.0420134 0
-0.0413175 -0.0414961 0
-0.039417 -0.0409789 0
-0.0375164 -0.0404616 0
-0.0356158 -0.0399444 0
-0.0337152 -0.0394271 0
-0.0318146 -0.0389099 0
-0.0299141 -0.0383927 0
-0.0280135 -0.0378754 0
-0.0261129 -0.0373582 0
-0.0242123 -0.0368409 0
-0.0223117 -0.0363237 0
-0.0204112 -0.0358065 0
-0.0185106 -0.0352892 0
-0.01661 -0.034772 0
-0.0147094 -0.0342547 0
-0.0128088 -0.0337375 0
-0.0109083 -0.0332202 0
-0.00900769 -0.032703 0
-0.00710711 -0.0321858 0
-0.00520653 -0.0316685 0
-0.00330595 -0.0311513 0
-0.00140537 -0.030634 0
0.00190689 -0.0299614 0
0.00332271 -0.0298498 0
0.00474133 -0.0297825 0
0.00616136 -0.0297597 0
0.0075814 -0.0297814 0
0.00900007 -0.0298477 0
0.010416 -0.0299583 0
0.0118278 -0.0301127 0
0.0132342 -0.0303103 0
0.0146339 -0.0305504 0
0.0160259 -0.0308322 0
0.0174091 -0.0311546 0
0.0187824 -0.0315166 0
0.020145 -0.031917 0
0.0214961 -0.0323546 0
0.0228351 -0.032828 0
0.0241613 -0.0333361 0
0.0254744 -0.0338774 0
0.0267738 -0.0344507 0
0.0280592 -0.0350545 0
0.0293306 -0.0356877 0
0.0305875 -0.0363488 0
0.0318301 -0.0370367 0
0.0330581 -0.0377501 0
0.0342717 -0.0384879 0
0.0354708 -0.0392489 0
0.0366556 -0.0400321 0
0.0378262 -0.0408363 0
0.0389828 -0.0416607 0
0.0401254 -0.0425042 0
0.0412543 -0.0433659 0
0.0423698 -0.0442451 0
0.043472 -0.0451408 0
0.0445612 -0.0460523 0
0.0456375 -0.0469789 0
0.0467013 -0.0479199 0
0.0477529 -0.0488746 0
0.0487923 -0.0498424 0
0.04982 -0.0508227 0
0.0508362 -0.051815 0
0.051841 -0.0528187 0
0.0528348 -0.0538333 0
0.0538178 -0.0548584 0
0.0547903 -0.0558935 0
0.0557524 -0.0569382 0
0.0567045 -0.0579922 0
0.0576467 -0.0590549 0
0.0585792 -0.0601261 0
0.0595024 -0.0612055 0
0.0604163 -0.0622926 0
0.0613212 -0.0633873 0
0.0622174 -0.0644891 0
0.0631049 -0.0655979 0
0.0639841 -0.0667134 0
0.064855 -0.0678353 0
0.0657179 -0.0689633 0
0.0665729 -0.0700974 0
0.0674202 -0.0712372 0
0.06826 -0.0723826 0
0.0690925 -0.0735333 0
0.0699178 -0.0746892 0
0.070736 -0.0758501 0
0.0715473 -0.0770159 0
0.0723518 -0.0781863 0
0.0731498 -0.0793612 0
0.0739412 -0.0805405 0
0.0747264 -0.081724 0
0.0755053 -0.0829116 0
0.0762781 -0.0841033 0
0.0770449 -0.0852987 0
0.0778059 -0.0864979 0
0.0785611 -0.0877007 0
0.0793108 -0.088907 0
0.0814681 -0.0912706 0
0.0828814 -0.0924245 0
0.0842946 -0.0935783 0
0.0857079 -0.0947322 0
0.0871211 -0.095886 0
0.0885344 -0.0970399 0
0.0899476 -0.0981937 0
0.0913609 -0.0993476 0
0.0927741 -0.100501 0
0.0941874 -0.101655 0
0.0956006 -0.102809 0
0.0970139 -0.103963 0
0.0984272 -0.105117 0
0.0998404 -0.106271 0
0.101254 -0.107424 0
0.102667 -0.108578 0
0.10408 -0.109732 0
0.105493 -0.110886 0
0.106907 -0.11204 0
0.10832 -0.113194 0
0.109733 -0.114348 0
0.111146 -0.115501 0
0.11256 -0.116655 0
0.113973 -0.117809 0
0.115386 -0.118963 0
0.116799 -0.120117 0
0.118213 -0.121271 0
0.119626 -0.122424 0
0.121039 -0.123578 0
0.122452 -0.124732 0
0.123866 -0.125886 0
0.125279 -0.12704 0
0.126692 -0.128194 0
0.128105 -0.129348 0
0.129519 -0.130501 0
0.130932 -0.131655 0
0.132345 -0.132809 0
0.133758 -0.133963 0
0.135172 -0.133216 0
0.135172 -0.131316 0
0.135172 -0.129415 0
0.135172 -0.127514 0
0.135172 -0.125614 0
0.135172 -0.123713 0
0.135172 -0.121813 0
0.135172 -0.119912 0
0.135172 -0.118012 0
0.135172 -0.116111 0
0.135172 -0.11421 0
0.135172 -0.11231 0
0.135172 -0.110409 0
0.135172 -0.108509 0
0.135172 -0.106608 0
0.135172 -0.104708 0
0.135172 -0.102807 0
0.135172 -0.100906 0
0.135172 -0.0990058 0
0.135172 -0.0971052 0
0.135172 -0.0952046 0
0.135172 -0.0933041 0
0.135172 -0.0914035 0
0.135172 -0.0895029 0
0.135172 -0.0876023 0
0.135172 -0.0857017 0
0.135172 -0.0838012 0
0.135172 -0.0819006 0
0.133758 -0.0788462 0
0.132345 -0.0776923 0
0.130932 -0.0765385 0
0.129519 -0.0753846 0
0.128105 -0.0742308 0
0.126692 -0.0730769 0
0.125279 -0.0719231 0
0.123866 -0.0707692 0
0.122452 -0.0696154 0
0.121039 -0.0684615 0
0.119626 -0.0673077 0
0.118213 -0.0661538 0
0.116799 -0.065 0
0.115386 -0.0638462 0
0.113973 -0.0626923 0
0.11256 -0.0615385 0
0.111146 -0.0603846 0
0.109733 -0.0592308 0
0.10832 -0.0580769 0
0.106907 -0.0569231 0
0.105493 -0.0557692 0
0.10408 -0.0546154 0
0.102667 -0.0534615 0
0.101254 -0.0523077 0
0.0998404 -0.0511538 0
0.0984272 -0.05 0
0.0970139 -0.0488462 0
0.0956006 -0.0476923 0
[...]
CELL_DATA 13116
SCALARS rho float
LOOKUP_TABLE default
0.623677
0.693114
0.335505
0.703822
0.708422
0.686397
0.35135
0.702816
0.567727
0.707294
0.35463
0.297029
0.708018
0.348773
0.331559
0.686662
0.625403
0.712099
0.692032
0.354736
0.6172
0.338665
0.337435
0.711399
0.708138
0.697112
0.707314
0.338797
0.747081
0.713916
1.11284
0.316552
0.590441
0.476193
0.34667
0.620976
0.703483
0.692456
0.677576
0.699506
0.691644
0.702962
0.507304
0.335773
0.691566
0.692019
0.691406
0.693213
0.339048
0.55231
0.702562
0.501269
0.35445
0.619417
0.590536
0.646401
0.336556
0.713884
0.563331
0.335028
0.347036
0.705695
0.69331
0.666103
1.06663
0.347358
0.695059
0.713929
0.693957
0.961033
0.331351
0.595543
0.338701
0.34206
1.13568
0.335914
0.696017
0.695939
0.359092
0.713349
0.7007
0.69591
0.712054
0.693576
0.691387
0.438752
0.353935
0.722398
0.693826
0.363795
0.322922
0.693358
0.711752
0.701082
0.706431
0.685174
0.712028
1.13375
1.13899
0.719597
0.717574
0.687385
0.691328
0.420737
0.690084
0.315152
0.397407
0.540743
0.336062
0.724216
0.56463
0.69102
0.681929
0.711363
0.713013
0.696911
0.35288
0.402751
0.695732
0.698964
0.716906
0.341612
0.693867
0.322132
0.70054
0.431978
0.353884
0.530416
0.33655
0.551768
0.695808
0.696349
0.471064
0.338786
0.455547
0.67574
1.12846
0.694894
0.717785
0.699417
0.694702
0.691791
0.531789
0.694665
0.693254
0.334722
0.346209
0.69519
0.710417
0.701987
0.562207
0.693345
0.693215
0.341257
0.710122
0.691113
0.333946
0.716279
1.12729
0.72196
0.711811
0.357058
0.714009
0.335266
0.342265
0.70588
0.699311
0.712313
0.348085
0.44435
0.421552
1.12754
0.331554
0.516544
0.697321
0.336232
0.332933
0.338778
0.69078
0.692464
0.353006
0.427359
0.585898
0.703366
0.692426
0.56362
0.344561
0.689937
0.688995
0.469692
0.699396
0.694633
0.874784
0.329739
0.691602
0.694134
0.710724
0.690188
0.692892
0.381557
0.424996
0.721506
0.525085
0.34197
0.697251
0.693109
0.508916
0.695446
0.330955
0.352778
0.337008
0.694465
0.333309
0.357507
0.361233
0.340592
0.392682
0.679237
0.700076
0.432563
0.337326
0.694934
0.55988
0.353054
0.550985
0.706659
0.693309
0.339267
0.696657
0.413441
0.703782
0.318349
0.882836
0.601919
1.1357
0.692814
0.769786
0.341452
0.428232
0.721865
1.13225
0.693749
1.1307
0.725846
0.702608
0.333641
0.696414
0.709027
1.13539
0.346951
0.340189
0.693068
0.695324
1.00586
0.695085
0.617017
0.717757
0.356186
0.347017
0.388014
0.330426
0.688975
0.711021
0.695649
0.355774
0.691061
0.346789
0.428234
0.690318
0.345562
0.696423
0.70315
1.12754
0.7142
0.340756
1.12688
0.703869
1.13489
0.694879
0.358936
0.352689
0.331771
0.67211
0.340483
0.343563
0.385637
0.36567
0.692021
0.350314
0.691588
0.70555
0.348352
0.353454
0.347553
0.437647
0.338695
0.722187
0.686753
0.690621
0.346346
0.693521
0.657379
0.342855
0.334674
0.684121
0.695105
0.690146
0.344181
0.69423
0.432961
0.696185
0.702927
0.701496
0.702916
0.330831
0.695519
0.335768
0.689696
0.705702
0.719793
0.359458
0.382795
0.708285
0.348768
0.692883
0.70565
0.365257
0.71525
0.712153
0.349591
0.691238
0.71181
0.341413
0.695872
0.436994
0.580256
0.70303
0.441871
0.716186
0.355229
0.712545
0.387878
0.678428
0.685848
0.709717
0.338176
0.394686
0.691291
0.34138
0.697103
0.689399
0.422647
1.12656
0.343454
0.334196
0.696219
0.57506
0.70683
0.352447
0.334498
0.69698
0.70567
0.34726
0.703087
0.350533
0.325324
0.698823
0.703
0.553874
0.366585
0.695115
1.09183
0.688456
0.69141
0.707994
0.56484
0.349774
0.331211
0.353269
0.689221
0.353571
0.58655
0.368651
0.328402
0.391749
0.559789
0.13905
0.342395
0.69162
0.30444
0.713671
0.744839
0.692273
0.724073
0.696335
0.334787
0.352568
0.387281
0.354043
0.696787
0.674487
0.691675
0.742592
0.693456
0.701268
0.695265
0.697539
0.712498
0.699126
0.713466
0.686558
0.391442
0.508397
0.620008
0.336074
0.685605
0.643659
0.354899
0.6967
1.13057
0.331716
0.356989
0.360872
0.345365
0.719635
0.335404
0.33025
0.694751
0.34586
0.602692
0.362401
0.689531
0.699685
0.340773
0.338184
0.696329
0.437611
0.363113
0.345959
0.362869
0.335742
0.351797
0.357085
0.343008
0.429811
0.360926
0.686747
0.344996
0.691461
0.365835
0.319623
0.480229
0.31568
0.363586
0.313739
0.690893
0.429415
0.719644
0.552502
0.347049
0.697131
0.693676
0.436025
0.715376
0.700939
0.700368
0.350828
1.13387
0.405279
0.713636
1.13123
0.334199
0.346692
0.68885
0.355261
0.440338
0.686944
0.395613
0.716359
0.693417
0.352745
0.331786
0.332421
0.511162
0.333777
0.347698
0.331306
0.337013
0.70481
0.704562
0.440757
0.72469
0.456051
0.690657
0.385185
0.335645
0.572838
0.334442
0.694639
0.354649
0.399666
0.468976
0.691559
0.698275
0.587053
0.363368
0.347828
0.522152
0.702735
0.788692
0.520566
0.69062
0.688994
0.361108
0.699674
0.59853
0.721761
0.371592
0.338706
0.710393
0.710954
0.724491
0.706602
0.692572
0.6983
0.712367
0.72034
0.692114
0.356206
0.691476
0.391612
0.331996
0.359033
0.704078
0.693106
0.377216
0.691263
0.719711
0.359588
0.681013
0.694945
0.698767
0.338545
0.336622
0.696776
0.36401
0.362639
0.293727
0.361161
0.694511
0.344068
0.703582
0.344211
0.693245
0.701759
0.694449
0.706432
0.364425
0.354045
0.693583
0.704282
0.701408
0.704944
0.709369
0.473469
0.349719
0.334675
0.693307
0.563831
0.36064
0.439525
0.326801
0.70224
0.689759
0.371895
0.340119
0.691847
0.446183
0.691633
0.721896
0.336631
0.412003
0.700063
1.13311
0.335056
0.697461
0.699616
0.693336
0.336685
1.12945
0.338242
1.13589
0.722503
0.366924
0.389498
0.34322
1.13636
0.336537
0.358103
0.404236
0.663981
0.698784
0.358349
0.344186
0.362246
0.678528
0.33993
0.693554
0.34001
0.618152
0.706687
0.368192
0.335792
0.336825
0.475777
0.335063
0.697645
0.342789
0.333222
0.689588
0.33782
0.694842
0.692828
1.13452
0.358273
0.694593
0.712485
0.711035
0.693335
0.701881
0.698352
0.308872
0.899715
0.435132
0.693983
0.35787
0.702579
0.542043
0.347348
1.11243
0.708388
0.339651
0.700891
0.322837
0.331147
0.694574
0.690253
0.324365
0.321845
0.358831
0.296652
0.702288
0.711269
0.337254
0.351121
0.697178
0.695409
0.655457
0.712748
0.689538
0.35703
0.709469
0.424844
0.702247
0.40292
0.680566
0.459729
0.695076
0.707046
0.597133
0.381609
0.337528
0.690396
0.751021
0.612414
0.7131
0.331145
0.700077
0.7107
0.414526
0.505772
0.712179
0.366159
1.03869
0.721079
0.379865
0.698763
0.70735
0.335619
0.699232
0.331624
0.692613
0.33504
0.694539
0.693305
0.337306
0.673218
0.713723
0.696185
0.71855
0.698046
0.612277
0.355365
0.425895
0.318138
0.342997
1.12679
0.56557
0.694308
0.709275
0.355608
0.34766
0.698353
0.706174
0.69655
0.703041
0.358449
0.713149
0.708983
0.355171
0.317792
0.695905
0.692907
0.692044
0.297516
0.683558
0.341303
0.699468
0.692592
0.846487
0.693543
0.360829
0.695317
0.691428
0.712038
0.690479
0.691637
0.434372
0.704099
0.35207
0.691532
0.707942
0.442636
0.693328
0.741897
0.701355
0.447017
0.410174
0.618296
0.725913
0.363657
0.367128
0.344917
0.360826
0.694005
0.700398
0.752362
0.366758
0.359857
0.693986
0.716901
0.344391
0.34896
0.445358
0.702279
0.690165
0.69145
0.715121
0.35361
0.3638
1.12629
0.321131
0.35712
0.341333
0.690425
0.34099
0.364643
0.624722
0.69392
0.690543
0.68706
0.689978
0.351379
0.333214
0.346061
0.561918
0.431518
0.32001
0.709777
0.715915
0.692047
0.692628
0.307158
0.359665
0.706847
0.360771
0.691568
0.6931
1.11678
0.324236
0.36287
0.6926
1.10948
0.650489
0.344
0.69146
0.688403
0.617683
0.701815
0.702772
1.12613
0.690592
0.358382
0.689969
1.04195
0.694058
0.699476
1.12675
0.691004
1.13435
0.694769
0.33369
0.330433
0.360028
1.09429
0.545725
0.361059
0.698041
0.697357
0.297538
0.704268
0.341788
0.70097
0.547222
0.342504
0.705791
0.711369
0.360878
0.515093
1.08747
0.337977
0.701085
0.347398
0.318971
0.699344
0.714968
0.478473
0.691429
0.34406
0.714041
0.331292
0.3125
0.694851
0.360635
0.690435
0.326799
0.702739
0.687175
1.13162
0.6986
0.33202
0.332464
0.689799
0.514613
0.696621
0.491464
0.668503
0.687206
0.711984
0.521144
0.727758
0.690939
0.710333
0.695053
0.391891
0.366123
0.531472
0.691315
0.710196
0.38183
0.691198
0.653246
0.38593
0.323924
0.719236
0.703018
1.13275
1.13678
0.687373
0.703177
0.677327
0.702668
0.325697
0.724631
0.442582
0.699206
0.692754
0.368606
0.701793
0.705245
0.330546
0.338048
0.348448
1.12669
0.358026
0.698757
0.698654
0.723895
0.357797
0.692301
0.343517
0.697552
0.670283
0.826012
0.709703
0.676473
0.714928
0.700837
0.567657
0.693921
0.335305
0.69104
0.694316
0.499863
1.13585
0.699998
0.331932
0.331157
0.337401
0.701362
0.367028
1.13575
0.346169
0.702659
0.345293
0.461488
0.326377
0.713717
0.703204
0.614972
0.347882
0.712259
0.686875
0.35052
0.639243
0.704469
0.318596
0.657659
1.13277
0.706905
0.691747
0.3337
0.538019
0.696964
0.692244
0.692025
0.365557
0.406688
0.691492
1.12669
1.1324
1.12695
0.605889
0.696407
0.601051
0.699582
0.3654
0.342
1.12774
0.708055
0.669887
0.34653
0.69104
0.622403
0.684044
0.333314
0.423539
0.703615
0.702846
0.584863
0.352202
0.692144
1.13615
0.350806
0.715977
0.714937
0.349509
0.318985
0.33441
0.689281
0.341649
0.356641
0.691372
0.4976
0.70975
0.704833
0.348727
0.350593
0.704901
0.330467
0.335086
1.11017
0.319367
0.386447
0.671101
0.701762
0.695254
0.359406
0.343898
0.35165
0.692989
0.316216
0.69507
0.335997
0.69765
0.699298
0.691393
0.690953
0.695798
0.692356
0.690057
0.706228
0.695338
0.345819
0.348577
0.695111
0.681353
0.487015
0.689902
0.588952
0.671931
0.693109
0.340261
0.698389
0.704896
0.69337
0.34545
0.695575
0.339292
0.693808
0.47675
0.713464
0.693188
0.343133
0.696817
0.361523
0.467388
0.693344
0.340247
0.716377
1.1266
0.702518
0.344485
0.694864
0.359784
0.324298
0.32869
0.360765
0.690242
0.332187
0.695233
0.703154
0.353461
0.329992
0.467497
0.594472
0.707042
0.692666
0.358057
0.348834
0.348862
0.329854
0.344164
0.705752
0.692388
0.339173
0.674521
0.698355
0.335775
0.704941
0.717101
0.675602
0.347426
1.13753
0.698041
0.701961
0.701446
0.333509
0.69588
0.704797
0.695685
0.718705
0.69063
0.345919
0.329309
0.693262
0.505726
0.364572
0.69484
0.332241
0.586723
0.702154
0.692757
0.692592
0.322839
0.689648
0.385163
0.344944
0.715015
0.696408
0.713064
0.695536
0.703989
0.324616
0.707443
0.334101
0.484996
0.705823
1.13864
0.696818
0.346515
0.339584
0.708275
0.356467
0.696802
0.722246
0.425443
0.351916
0.699525
0.32764
0.692997
0.696891
0.700292
0.328045
0.330386
0.520995
0.562929
0.701515
0.483725
0.690053
0.692434
0.690991
1.12685
0.698171
0.354047
0.349852
0.69604
0.690799
0.691486
0.442994
0.342883
0.699685
0.332057
0.689653
0.722604
0.348242
0.696624
0.360266
0.700368
0.335501
0.711523
0.339615
0.694204
0.692689
0.312777
0.700874
0.724828
0.316495
0.759052
0.691583
0.589715
0.325747
0.378693
0.481114
0.712199
0.688844
0.34773
0.672632
0.698481
0.688845
0.359587
0.691952
0.692087
0.444351
0.690066
0.689348
0.369803
0.695179
1.12986
0.335106
0.682177
0.346489
0.698467
0.343718
0.324239
0.711253
0.358596
0.362628
0.332777
0.694931
0.692553
0.396948
0.692135
0.379864
0.697924
0.360649
0.692298
0.371167
0.687391
0.693297
0.698215
0.769389
0.515608
0.692936
0.680813
0.338086
0.721981
0.700603
0.580275
0.697957
0.47376
0.412792
0.707629
0.351038
0.601814
0.342505
0.691522
0.34816
0.329733
0.711502
0.689855
0.353394
0.699122
0.716048
1.12683
0.702882
1.13648
0.358742
0.705036
0.35609
0.333901
0.69891
0.714451
0.702755
0.691278
0.319906
0.342739
0.351337
0.693032
0.717646
0.378292
0.702333
0.348437
0.343421
0.335042
0.692546
0.403682
0.707057
0.695646
0.720862
0.690285
0.695051
0.627394
0.695175
0.433063
0.316903
0.353816
1.13654
1.13715
0.346294
0.70469
0.688268
0.695684
0.333742
0.456764
0.692676
0.330526
0.692369
0.688431
0.357258
0.685172
0.69438
0.361216
0.694931
0.336426
0.694217
0.7087
0.695668
0.33227
0.4543
0.7172
0.374407
0.440472
0.69073
0.376576
0.690058
0.694925
0.695989
0.71559
0.351662
1.11716
0.715472
0.692111
0.40182
0.696336
0.33333
0.340279
0.691909
0.690139
0.703589
0.287996
0.693617
0.719918
1.13541
0.348825
0.351691
0.363999
0.696326
0.351522
0.336974
0.334645
0.686983
0.335703
0.36735
0.436865
0.694765
0.359486
0.79668
0.679819
0.698392
0.344065
0.694277
0.722405
0.68504
0.425054
0.719361
0.344785
0.350899
0.694813
0.353598
0.703554
0.699047
1.12998
0.358406
0.383634
0.340545
0.554577
1.13018
0.292288
0.692537
0.69485
0.714765
0.356822
0.333486
0.39039
0.688845
0.361418
1.12675
0.739228
0.688291
0.691506
0.359353
0.70284
0.313545
0.683556
0.722853
0.706307
0.680419
0.585948
0.720433
0.69186
0.696186
0.347519
0.364858
0.344025
0.713683
0.568944
1.13778
0.358423
0.411832
0.711202
0.694428
0.938747
0.354028
0.699408
0.561767
0.586091
0.689214
0.335031
0.35459
0.37093
0.690174
0.706302
0.718725
0.690299
0.389451
0.702615
0.722614
0.700847
0.717444
0.702322
0.705049
0.692995
0.710731
0.713131
0.334193
0.694631
0.696005
0.690188
0.694918
0.690253
0.670179
0.358838
0.310523
0.693014
0.364664
0.351998
0.69928
0.331213
0.719741
0.694151
0.692679
0.693325
0.332309
0.700308
0.329178
0.34555
0.693343
0.696101
0.692892
0.343214
0.702007
0.691549
0.690917
0.690038
0.336116
0.690427
0.70797
0.695395
0.382783
0.712823
0.352684
0.702734
0.338254
0.35908
0.626963
0.43941
0.705972
0.714021
0.691856
0.333604
0.690493
0.399296
0.331275
0.693109
0.471279
0.364357
0.691557
0.33109
0.494235
0.720277
0.692204
0.69231
0.471266
0.754233
0.718558
0.692597
0.67028
0.712833
0.514386
0.703168
0.690128
0.716868
0.297141
0.359052
0.437446
0.695159
0.332117
0.722254
0.698996
0.692519
0.692766
0.600643
0.716754
0.702329
0.347578
0.699538
0.689184
0.591687
0.689532
0.70799
0.697939
0.68671
0.356202
0.33189
0.694027
0.57413
0.607553
0.695101
0.693818
0.692466
0.710867
0.709229
0.702298
0.691801
0.706275
0.334098
0.314969
0.347541
0.344843
1.13249
0.443445
0.597072
0.696478
0.701827
0.334169
0.693654
0.703486
0.343239
0.402168
1.13657
0.695063
0.335189
0.304326
0.285915
1.12686
0.697225
0.385484
0.352976
0.356647
0.327599
0.361897
0.365879
0.703524
0.693223
0.69832
0.346649
0.692522
0.69288
0.728627
0.356658
0.356501
0.693667
1.12869
0.363215
0.688971
0.360996
0.711794
0.334223
0.697701
0.34866
0.691598
0.704354
0.344282
0.585241
0.35298
0.704744
0.31661
0.69662
0.332905
0.537303
0.344418
0.688437
0.351093
0.879621
0.840059
0.730717
0.695702
0.357807
0.692336
0.685604
0.703049
0.691058
0.698199
0.35648
0.451037
0.34546
0.711865
0.355122
0.704984
0.57352
0.714793
0.706846
0.540779
0.701782
0.330993
0.347179
0.33429
0.536538
0.633972
0.693756
0.346929
0.341731
0.694784
0.416748
0.326647
0.658604
0.396466
0.363873
0.313583
0.702879
0.723604
0.698278
0.338958
0.692452
0.690146
0.314899
0.385804
0.691274
0.689959
0.683637
0.497783
0.429505
0.402353
0.342254
0.702436
0.69145
0.563851
0.716185
0.332289
0.615835
0.360088
1.06316
0.703378
0.356713
0.354529
0.692168
0.653192
0.705385
0.713016
0.711853
0.700618
0.706235
0.339912
0.337388
0.342771
0.358708
0.621026
1.12355
0.723508
0.35882
0.357443
0.4878
0.318614
0.692428
0.69255
0.362357
0.369248
0.694328
0.3353
0.715011
0.71342
0.692936
0.690279
0.624582
0.362454
0.348643
0.690648
0.356905
0.442015
0.39313
0.681171
0.690129
0.362724
0.357786
1.12637
0.350337
0.691427
0.711787
0.359663
0.330729
0.348994
0.693873
0.352684
1.12661
0.699004
0.692045
0.30823
0.501882
0.696238
0.692295
0.356325
0.692159
0.693847
0.320602
0.695838
0.702736
0.347986
0.360885
0.692238
0.349014
0.358309
0.692307
0.396449
0.693102
0.716734
0.711641
0.694982
0.708025
0.694765
0.693031
0.351941
0.424594
0.693375
0.69491
0.451727
0.705248
0.373077
0.694601
0.692231
0.606384
0.718522
0.449531
0.442744
0.693629
0.697627
0.689849
0.704177
0.693476
1.13216
0.70279
1.12664
0.701806
0.693881
0.702212
1.13003
0.693457
0.319022
0.69629
0.33753
0.699005
0.694682
0.713212
0.692189
0.71563
0.330435
0.341083
0.37692
0.357421
0.693067
0.351265
0.346396
0.700247
0.303349
0.709692
0.342661
0.691735
0.695686
0.358179
0.416007
0.349252
0.695379
0.338595
0.693514
0.696902
0.33933
0.693246
0.586826
0.355077
0.337989
0.313708
0.714798
0.361558
0.699749
0.59918
0.355467
0.690866
0.691742
0.711873
0.361144
0.632765
0.329148
0.692551
0.685853
0.697608
0.366265
0.694951
0.694834
0.690627
0.413518
0.695157
0.362401
0.361354
0.692935
0.439548
0.708074
0.427133
0.365439
0.43676
0.691592
0.33686
0.319711
0.334182
0.546264
1.13617
0.696448
0.344517
0.686594
0.693561
0.530921
0.488678
0.347025
0.590949
0.365712
0.360051
0.692312
0.361642
0.361369
0.701499
0.704442
0.341839
0.712807
0.33909
1.13519
0.339283
0.695033
0.945057
0.714598
0.683899
0.33246
0.360469
0.328493
0.686598
0.692085
0.744554
0.572375
0.409447
0.369152
0.691461
0.352295
0.693207
0.410317
0.887158
0.713952
0.346794
0.335907
0.361022
0.357935
0.336313
0.691587
0.693056
0.348667
0.694492
0.710057
0.357165
0.33129
0.704406
0.363954
0.69474
0.432573
0.714989
0.720844
0.694043
1.13581
0.331166
0.709016
0.695395
0.703173
0.360183
0.689952
0.754729
0.350922
0.69576
0.696439
0.70358
0.692285
0.706359
0.694824
0.703013
0.690126
0.691749
0.3566
0.712443
0.360907
0.500281
0.690737
0.32825
0.691521
0.689881
0.340459
0.690851
0.360033
0.323511
0.698437
0.688293
0.704543
0.354254
0.69234
0.720493
0.339253
0.347045
0.699091
0.690003
0.406787
0.332363
0.699907
0.704587
0.362706
0.712024
0.705159
0.722302
0.34606
0.361961
0.324328
0.722945
0.340622
0.692274
0.713569
0.691514
0.691995
0.694995
0.35396
0.692354
0.719901
0.704077
0.680086
0.329449
0.352849
0.328864
0.711702
0.696921
0.431032
0.720413
0.344735
0.697867
0.698488
0.330563
0.694088
0.692398
0.704255
0.346102
0.353488
0.345641
0.696681
0.708172
0.719954
0.497117
0.694855
0.362697
0.714752
1.12962
0.695361
0.345307
0.718374
0.342139
0.69015
0.326307
0.693748
0.700477
0.340055
0.69604
0.505888
1.1281
0.705752
1.1268
0.701181
0.42225
0.691514
0.69191
0.690172
0.693828
0.465072
1.12868
0.346915
0.692042
0.330589
0.354607
0.335273
0.336269
0.364908
0.346728
0.705533
0.405545
0.334965
0.704353
0.696285
0.692844
0.389821
0.717991
0.716435
0.690355
0.320547
0.681565
0.695429
0.34431
0.333089
0.36045
0.707451
0.49034
0.359143
0.679174
0.308637
1.13591
0.484429
0.354172
0.456287
0.721434
0.347003
0.689548
0.332388
0.574698
0.403524
0.702503
0.403597
0.703963
1.12994
0.687567
0.487594
0.359865
0.702286
0.704955
0.33317
0.324563
0.687474
0.356134
0.713191
0.346543
0.59052
0.327738
0.694844
0.337354
0.705256
0.354257
0.699564
0.695102
0.699563
1.13411
0.346267
0.333238
0.386652
0.698
0.700353
0.691382
0.639803
0.339988
0.699038
0.347257
0.692007
0.686709
0.412535
0.352603
0.713717
0.693271
0.332117
1.09466
0.702366
0.713236
0.711814
0.332474
0.717732
0.361828
0.712349
0.339355
0.671055
0.691825
0.701282
0.70489
0.357177
0.703803
0.357989
0.345598
0.690218
1.13468
0.585672
0.694037
1.13084
0.363646
0.711942
0.702305
0.702829
0.323911
0.428191
0.718676
0.350769
0.694918
0.70019
0.691941
0.702191
0.345723
0.476686
0.725807
0.338936
0.692479
0.704323
0.50578
0.698517
0.353985
0.691426
0.711558
0.717622
0.700514
0.353916
0.330682
0.694009
0.691828
0.337611
0.362709
0.334989
0.336299
0.335805
0.316269
0.339449
0.364499
0.694221
0.331301
0.345432
0.698721
0.586019
1.12648
0.412088
0.358058
0.69382
0.486926
0.559142
0.709801
0.399709
0.721523
0.773943
0.726027
0.692601
0.338661
0.696455
0.668722
0.336557
0.361152
0.415198
0.689518
0.726823
0.706792
0.687092
0.695639
0.69341
0.364196
0.695812
0.678488
0.700289
0.359691
0.694656
0.685817
0.361428
0.430075
0.352411
0.327549
0.337139
0.682444
0.72012
0.69548
0.360136
0.421211
0.70473
0.312134
0.698038
0.691971
0.692
0.717469
0.694298
0.342988
0.328854
0.284478
0.625737
0.338713
0.693272
0.289451
0.694732
0.689737
0.694464
0.343201
0.462214
0.420589
0.694953
0.332644
0.360165
0.699522
0.692514
0.696253
0.686277
0.699012
0.713564
0.365136
0.718803
0.710897
0.509953
0.694676
0.698309
0.713692
0.446863
0.429452
0.702756
0.481112
0.697974
0.362795
0.693615
0.69168
0.383765
0.341147
0.692817
0.532636
0.702808
0.698444
0.362279
0.355129
1.13097
0.482575
0.396903
0.691075
0.699031
0.343987
0.691614
1.12512
0.69236
0.365649
0.692048
0.363537
0.69098
0.70231
0.713674
0.695389
1.12068
0.367245
0.375312
0.696755
0.353834
0.728359
0.351944
0.694475
0.338609
0.7069
0.711758
1.13245
0.366341
1.12664
1.1368
0.359877
0.693672
0.312812
0.703185
0.364818
0.34808
0.310435
0.698742
0.691242
0.383265
0.374378
0.695538
0.706225
0.445447
0.713393
0.364749
0.55043
0.356584
0.696079
0.3601
0.703875
0.697082
0.338264
0.476097