# vtk DataFile Version 1.0
unstructured grid
ascii
DATASET UNSTRUCTURED_GRID
points 13672 float
0.0796578 -0.059106 0
0.00128732 0.00159165 0
0.00227961 -0.00102548 0
0.0791586 -0.0598787 0
-0.0546216 0.01 0
0.000495206 0.025 0
0.0800549 -0.035 0
0.135172 -0.08 0
-0.0546216 -0.0451168 0
0.000495206 -0.0301168 0
0.0800549 -0.0901168 0
0.135172 -0.135117 0
-0.0546216 -0.0451168 -0.00551168
0.000495206 -0.0301168 -0.00551168
0.0800549 -0.0901168 -0.00551168
0.135172 -0.135117 -0.00551168
0.135172 -0.08 -0.00551168
0.0800549 -0.035 -0.00551168
0.000495206 0.025 -0.00551168
-0.0546216 0.01 -0.00551168
0.00128732 0.00159165 -0.00551168
0.00227961 -0.00102548 -0.00551168
0.0791586 -0.0598787 -0.00551168
0.0796578 -0.059106 -0.00551168
0.00165953 -0.000990923 0
0.00119576 -0.000874076 0
0.000866021 -0.000641801 0
0.000645147 -0.000349912 0
0.00052235 -1.7281e-05 0
0.00049972 0.000348016 0
0.000601632 0.000737716 0
0.000861774 0.0011403 0
0.00157235 0.00183217 0
0.00188647 0.00206725 0
0.00222612 0.00230203 0
0.00258713 0.00254351 0
0.00296826 0.00279524 0
0.00337118 0.00305664 0
0.00379785 0.00332658 0
0.00425045 0.00360349 0
0.00473139 0.00388521 0
0.0052432 0.00416895 0
0.0057881 0.00445204 0
0.00636753 0.00473281 0
0.00698281 0.00500961 0
0.00763526 0.00528058 0
0.00832616 0.00554366 0
0.00905691 0.00579603 0
0.00982918 0.00603333 0
0.0106445 0.00625033 0
0.0115038 0.00644128 0
0.0124073 0.00660297 0
0.0133543 0.00673414 0
0.0143444 0.00683382 0
0.0153769 0.00690031 0
0.0164512 0.00693173 0
0.0175666 0.00692547 0
0.0187219 0.00687822 0
0.0199156 0.00678477 0
0.0211454 0.00663864 0
0.0224084 0.00643275 0
0.0237018 0.00616676 0
0.0250249 0.00584739 0
0.026375 0.00547298 0
0.0277479 0.00503752 0
0.0291386 0.00453545 0
0.0305433 0.0039653 0
0.0319572 0.0033256 0
0.0333681 0.00260019 0
0.034775 0.00179799 0
0.0361793 0.000930615 0
0.0375798 3.12222e-06 0
0.0389689 -0.000988429 0
0.0403357 -0.00205109 0
0.041675 -0.00318283 0
0.0429849 -0.00437751 0
0.0442643 -0.00562904 0
0.0455126 -0.00693089 0
0.0467314 -0.00827518 0
0.0479204 -0.00965638 0
0.0490661 -0.0110799 0
0.0501515 -0.0125519 0
0.0511696 -0.0140695 0
0.0521492 -0.0156071 0
0.0531202 -0.0171411 0
0.0540851 -0.0186663 0
0.0550431 -0.0201798 0
0.0559923 -0.0216793 0
0.0569311 -0.0231626 0
0.0578582 -0.0246273 0
0.0587723 -0.0260715 0
0.0596721 -0.027493 0
0.0605563 -0.02889 0
0.0614241 -0.0302609 0
0.0622742 -0.0316042 0
0.063106 -0.0329183 0
0.0639186 -0.034202 0
0.0647113 -0.0354543 0
0.0654835 -0.0366743 0
0.0662345 -0.0378613 0
0.0669642 -0.0390145 0
0.0676726 -0.0401333 0
0.0683597 -0.0412172 0
0.0690246 -0.0422665 0
0.0696662 -0.0432819 0
0.0702841 -0.0442636 0
0.0708793 -0.0452111 0
0.0714538 -0.0461237 0
0.072009 -0.047001 0
0.0725452 -0.0478434 0
0.0730611 -0.0486524 0
0.073556 -0.0494294 0
0.0740291 -0.0501756 0
0.0744812 -0.0508916 0
0.0749138 -0.0515773 0
0.0753285 -0.0522331 0
0.0757266 -0.0528592 0
0.076109 -0.0534564 0
0.0764753 -0.0540264 0
0.0768243 -0.054571 0
0.0771553 -0.0550919 0
0.0774679 -0.0555901 0
0.0777617 -0.0560669 0
0.0780369 -0.056523 0
0.0782958 -0.0569578 0
0.0785421 -0.0573703 0
0.0787786 -0.0577603 0
0.0790073 -0.0581279 0
0.0792295 -0.058474 0
0.0794462 -0.0587995 0
0.0798803 -0.0594162 0
0.0800272 -0.0596588 0
0.0800357 -0.0598891 0
0.0799275 -0.0600784 0
0.0797205 -0.0601773 0
0.0794593 -0.0601051 0
0.0789155 -0.0596491 0
0.0786707 -0.0593963 0
0.0784111 -0.0591319 0
0.0781372 -0.0588542 0
0.0778566 -0.0585548 0
0.0775715 -0.0582308 0
0.0772803 -0.0578828 0
0.0769832 -0.0575099 0
0.0766822 -0.0571097 0
0.0763801 -0.0566796 0
0.0760759 -0.0562196 0
0.0757623 -0.0557337 0
0.0754359 -0.0552232 0
0.0750951 -0.0546879 0
0.0747379 -0.054128 0
0.0743626 -0.0535435 0
0.0739688 -0.0529338 0
0.0735559 -0.0522981 0
0.0731238 -0.0516357 0
0.0726718 -0.050946 0
0.0721991 -0.0502288 0
0.0717046 -0.049484 0
0.0711872 -0.0487117 0
0.0706461 -0.047912 0
0.0700804 -0.0470849 0
0.0694892 -0.0462308 0
0.0688718 -0.0453499 0
0.0682271 -0.0444431 0
0.0675544 -0.043511 0
0.0668527 -0.0425546 0
0.0661215 -0.0415748 0
0.06536 -0.040573 0
0.0645676 -0.0395504 0
0.0637439 -0.0385087 0
0.0628887 -0.0374493 0
0.062002 -0.0363741 0
0.0610838 -0.0352847 0
0.0601345 -0.0341831 0
0.0591547 -0.033071 0
0.0581456 -0.0319502 0
0.0571083 -0.0308224 0
0.0560444 -0.0296893 0
0.0549562 -0.028552 0
0.053845 -0.0274126 0
0.0527113 -0.0262746 0
0.051554 -0.0251427 0
0.0503724 -0.0240222 0
0.0491675 -0.0229164 0
0.047941 -0.0218282 0
0.0466955 -0.0207597 0
0.0454337 -0.0197126 0
0.0441592 -0.0186878 0
0.0428751 -0.0176863 0
0.0415841 -0.0167097 0
0.0402878 -0.0157609 0
0.0389879 -0.0148428 0
0.0376864 -0.0139575 0
0.0363853 -0.013107 0
0.0350871 -0.0122931 0
0.0337942 -0.0115164 0
0.0325095 -0.0107772 0
0.0312357 -0.0100756 0
0.0299758 -0.00941024 0
0.0287337 -0.00877784 0
0.0275126 -0.00817571 0
0.0263139 -0.00760375 0
0.0251376 -0.00706528 0
0.0239829 -0.0065649 0
0.0228537 -0.00609619 0
0.0217522 -0.00565563 0
0.0206795 -0.00524226 0
0.0196364 -0.00485507 0
0.0186233 -0.00449318 0
0.0176408 -0.00415577 0
0.016689 -0.00384204 0
0.0157682 -0.00355115 0
0.0148783 -0.00328218 0
0.0140192 -0.00303468 0
0.0131906 -0.00280795 0
0.0123925 -0.00260016 0
0.0116246 -0.00241012 0
0.0108864 -0.00223769 0
0.0101774 -0.00208212 0
0.00949701 -0.00194206 0
0.00884483 -0.0018163 0
0.0082202 -0.0017039 0
0.00762247 -0.00160391 0
0.00705097 -0.00151528 0
0.006505 -0.00143697 0
0.0059838 -0.00136806 0
0.00548662 -0.00130772 0
0.00501265 -0.00125519 0
0.00456114 -0.00120954 0
0.00413136 -0.00116914 0
0.00372257 -0.00113251 0
0.00333398 -0.00109853 0
0.00296466 -0.00106798 0
0.00261363 -0.0010431 0
-0.052721 -0.0445996 0
-0.0508204 -0.0440823 0
-0.0489199 -0.0435651 0
-0.0470193 -0.0430478 0
-0.0451187 -0.0425306 0
-0.0432181 -0.0420134 0
-0.0413175 -0.0414961 0
-0.039417 -0.0409789 0
-0.0375164 -0.0404616 0
-0.0356158 -0.0399444 0
-0.0337152 -0.0394271 0
-0.0318146 -0.0389099 0
-0.0299141 -0.0383927 0
-0.0280135 -0.0378754 0
-0.0261129 -0.0373582 0
-0.0242123 -0.0368409 0
-0.0223117 -0.0363237 0
-0.0204112 -0.0358065 0
-0.0185106 -0.0352892 0
-0.01661 -0.034772 0
-0.0147094 -0.0342547 0
-0.0128088 -0.0337375 0
-0.0109083 -0.0332202 0
-0.00900769 -0.032703 0
-0.00710711 -0.0321858 0
-0.00520653 -0.0316685 0
-0.00330595 -0.0311513 0
-0.00140537 -0.030634 0
0.00190689 -0.0299614 0
0.00332271 -0.0298498 0
0.00474133 -0.0297825 0
0.00616136 -0.0297597 0
0.0075814 -0.0297814 0
0.00900007 -0.0298477 0
0.010416 -0.0299583 0
0.0118278 -0.0301127 0
0.0132342 -0.0303103 0
0.0146339 -0.0305504 0
0.0160259 -0.0308322 0
0.0174091 -0.0311546 0
0.0187824 -0.0315166 0
0.020145 -0.031917 0
0.0214961 -0.0323546 0
0.0228351 -0.032828 0
0.0241613 -0.0333361 0
0.0254744 -0.0338774 0
0.0267738 -0.0344507 0
0.0280592 -0.0350545 0
0.0293306 -0.0356877 0
0.0305875 -0.0363488 0
0.0318301 -0.0370367 0
0.0330581 -0.0377501 0
0.0342717 -0.0384879 0
0.0354708 -0.0392489 0
0.0366556 -0.0400321 0
0.0378262 -0.0408363 0
0.0389828 -0.0416607 0
0.0401254 -0.0425042 0
0.0412543 -0.0433659 0
0.0423698 -0.0442451 0
0.043472 -0.0451408 0
0.0445612 -0.0460523 0
0.0456375 -0.0469789 0
0.0467013 -0.0479199 0
0.0477529 -0.0488746 0
0.0487923 -0.0498424 0
0.04982 -0.0508227 0
0.0508362 -0.051815 0
0.051841 -0.0528187 0
0.0528348 -0.0538333 0
0.0538178 -0.0548584 0
0.0547903 -0.0558935 0
0.0557524 -0.0569382 0
0.0567045 -0.0579922 0
0.0576467 -0.0590549 0
0.0585792 -0.0601261 0
0.0595024 -0.0612055 0
0.0604163 -0.0622926 0
0.0613212 -0.0633873 0
0.0622174 -0.0644891 0
0.0631049 -0.0655979 0
0.0639841 -0.0667134 0
0.064855 -0.0678353 0
0.0657179 -0.0689633 0
0.0665729 -0.0700974 0
0.0674202 -0.0712372 0
0.06826 -0.0723826 0
0.0690925 -0.0735333 0
0.0699178 -0.0746892 0
0.070736 -0.0758501 0
0.0715473 -0.0770159 0
0.0723518 -0.0781863 0
0.0731498 -0.0793612 0
0.0739412 -0.0805405 0
0.0747264 -0.081724 0
0.0755053 -0.0829116 0
0.0762781 -0.0841033 0
0.0770449 -0.0852987 0
0.0778059 -0.0864979 0
0.0785611 -0.0877007 0
0.0793108 -0.088907 0
0.0814681 -0.0912706 0
0.0828814 -0.0924245 0
0.0842946 -0.0935783 0
0.0857079 -0.0947322 0
0.0871211 -0.095886 0
0.0885344 -0.0970399 0
0.0899476 -0.0981937 0
0.0913609 -0.0993476 0
0.0927741 -0.100501 0
0.0941874 -0.101655 0
0.0956006 -0.102809 0
0.0970139 -0.103963 0
0.0984272 -0.105117 0
0.0998404 -0.106271 0
0.101254 -0.107424 0
0.102667 -0.108578 0
0.10408 -0.109732 0
0.105493 -0.110886 0
0.106907 -0.11204 0
0.10832 -0.113194 0
0.109733 -0.114348 0
0.111146 -0.115501 0
0.11256 -0.116655 0
0.113973 -0.117809 0
0.115386 -0.118963 0
0.116799 -0.120117 0
0.118213 -0.121271 0
0.119626 -0.122424 0
0.121039 -0.123578 0
0.122452 -0.124732 0
0.123866 -0.125886 0
0.125279 -0.12704 0
0.126692 -0.128194 0
0.128105 -0.129348 0
0.129519 -0.130501 0
0.130932 -0.131655 0
0.132345 -0.132809 0
0.133758 -0.133963 0
0.135172 -0.133216 0
0.135172 -0.131316 0
0.135172 -0.129415 0
0.135172 -0.127514 0
0.135172 -0.125614 0
0.135172 -0.123713 0
0.135172 -0.121813 0
0.135172 -0.119912 0
0.135172 -0.118012 0
0.135172 -0.116111 0
0.135172 -0.11421 0
0.135172 -0.11231 0
0.135172 -0.110409 0
0.135172 -0.108509 0
0.135172 -0.106608 0
0.135172 -0.104708 0
0.135172 -0.102807 0
0.135172 -0.100906 0
0.135172 -0.0990058 0
0.135172 -0.0971052 0
0.135172 -0.0952046 0
0.135172 -0.0933041 0
0.135172 -0.0914035 0
0.135172 -0.0895029 0
0.135172 -0.0876023 0
0.135172 -0.0857017 0
0.135172 -0.0838012 0
0.135172 -0.0819006 0
0.133758 -0.0788462 0
0.132345 -0.0776923 0
0.130932 -0.0765385 0
0.129519 -0.0753846 0
0.128105 -0.0742308 0
0.126692 -0.0730769 0
0.125279 -0.0719231 0
0.123866 -0.0707692 0
0.122452 -0.0696154 0
0.121039 -0.0684615 0
0.119626 -0.0673077 0
0.118213 -0.0661538 0
0.116799 -0.065 0
0.115386 -0.0638462 0
0.113973 -0.0626923 0
0.11256 -0.0615385 0
0.111146 -0.0603846 0
0.109733 -0.0592308 0
0.10832 -0.0580769 0
0.106907 -0.0569231 0
0.105493 -0.0557692 0
0.10408 -0.0546154 0
0.102667 -0.0534615 0
0.101254 -0.0523077 0
0.0998404 -0.0511538 0
0.0984272 -0.05 0
0.0970139 -0.0488462 0
0.0956006 -0.0476923 0
[...]
CELL_DATA 13116
SCALARS rho float
LOOKUP_TABLE default
0.629759
0.697845
0.329697
0.701143
0.701863
0.696931
0.333843
0.701761
0.558236
0.701651
0.339315
0.295941
0.70186
0.323769
0.314398
0.696838
0.622512
0.704764
0.692013
0.352725
0.629649
0.326391
0.321869
0.704046
0.668573
0.700046
0.701636
0.328665
0.660591
0.699611
1.1348
0.298716
0.638354
0.460669
0.331906
0.628377
0.712369
0.693715
0.669855
0.69906
0.692093
0.701869
0.482054
0.333094
0.692267
0.692113
0.697913
0.692633
0.318151
0.522677
0.70074
0.478975
0.331107
0.614947
0.633883
0.657693
0.334052
0.704726
0.57653
0.309737
0.324249
0.70156
0.697848
0.677756
1.11353
0.342255
0.695666
0.70938
0.69468
1.06584
0.31574
0.651083
0.327964
0.338104
1.14512
0.333469
0.700715
0.701606
0.341779
0.706483
0.709756
0.700238
0.703904
0.693582
0.70092
0.420047
0.343947
0.708471
0.700599
0.355833
0.30122
0.69753
0.703022
0.700969
0.706249
0.67122
0.670652
1.13887
1.14467
0.659085
0.708114
0.696769
0.691631
0.428634
0.69907
0.276884
0.358527
0.516966
0.327023
0.668033
0.547397
0.699653
0.669364
0.708534
0.706115
0.697195
0.338829
0.396165
0.701735
0.698181
0.709108
0.330822
0.695336
0.300365
0.701275
0.443366
0.342367
0.507569
0.329656
0.518204
0.701529
0.702266
0.482825
0.322377
0.461039
0.666719
1.13203
0.698591
0.708308
0.698328
0.698681
0.697829
0.508556
0.700222
0.69912
0.293176
0.332387
0.700074
0.701962
0.700314
0.646517
0.693335
0.692601
0.336927
0.701826
0.701011
0.319655
0.706809
1.14228
0.708049
0.70439
0.34002
0.703593
0.323261
0.332078
0.701508
0.700922
0.705096
0.33249
0.441695
0.412054
1.13307
0.312844
0.49444
0.69662
0.319481
0.320457
0.327606
0.699547
0.692398
0.348477
0.430722
0.58585
0.71192
0.692388
0.564077
0.342326
0.693334
0.698361
0.462836
0.703747
0.699992
1.01098
0.313147
0.69926
0.692865
0.702509
0.691828
0.700549
0.383912
0.430402
0.670311
0.502054
0.333627
0.70392
0.693456
0.485593
0.67693
0.301019
0.342949
0.334728
0.693397
0.319434
0.354063
0.350131
0.336576
0.381323
0.672423
0.701178
0.399132
0.335436
0.695681
0.540787
0.34824
0.651147
0.701679
0.699617
0.328952
0.696208
0.380304
0.702756
0.299993
1.01369
0.647275
1.13707
0.699835
0.896211
0.309229
0.43821
0.707069
1.14612
0.692684
1.13317
0.841692
0.701543
0.321024
0.699488
0.701679
1.14307
0.336009
0.319743
0.693141
0.700712
1.09365
0.69457
0.62057
0.707084
0.340399
0.311953
0.389474
0.300204
0.698299
0.702554
0.701219
0.346262
0.699066
0.345267
0.414464
0.699221
0.33875
0.700305
0.70122
1.14535
0.704772
0.309148
1.14509
0.70855
1.14267
0.698604
0.346067
0.349334
0.314978
0.664319
0.329986
0.327389
0.33804
0.337676
0.695228
0.325534
0.700513
0.701468
0.346552
0.351076
0.346192
0.44693
0.330447
0.708514
0.6874
0.699627
0.339321
0.692071
0.650826
0.308377
0.310771
0.681415
0.700329
0.691287
0.342035
0.692824
0.439078
0.69821
0.701666
0.699677
0.701616
0.31406
0.695824
0.312205
0.696375
0.701
0.705252
0.356636
0.334451
0.701708
0.347042
0.699426
0.701541
0.35019
0.707312
0.704031
0.348295
0.697714
0.703112
0.306206
0.700926
0.394929
0.649433
0.702333
0.412812
0.706942
0.347722
0.704892
0.336811
0.74068
0.69562
0.70218
0.327748
0.365611
0.700738
0.336429
0.704305
0.698589
0.424871
1.13288
0.340374
0.325814
0.703461
0.654208
0.710172
0.348406
0.321105
0.699414
0.701495
0.333749
0.701108
0.335261
0.285842
0.698452
0.702011
0.530988
0.363256
0.699043
1.13226
0.695941
0.701279
0.70417
0.652535
0.340283
0.305453
0.349126
0.695169
0.349111
0.584664
0.353285
0.307119
0.357305
0.538513
0.109404
0.337383
0.698784
0.299619
0.703182
0.661343
0.692066
0.704998
0.699789
0.326214
0.35019
0.391605
0.342776
0.705662
0.667292
0.691882
0.661352
0.699557
0.687031
0.700154
0.694936
0.698636
0.704456
0.706711
0.695254
0.394078
0.486197
0.625482
0.32496
0.684826
0.658313
0.333057
0.696422
1.14499
0.314953
0.35485
0.356864
0.342923
0.673147
0.324231
0.313295
0.695229
0.343449
0.647732
0.360775
0.691744
0.712223
0.331951
0.32301
0.703849
0.444614
0.363561
0.343806
0.355164
0.326472
0.350058
0.354935
0.330313
0.418919
0.347106
0.696224
0.335276
0.70079
0.354461
0.299108
0.476842
0.270224
0.354121
0.277472
0.700363
0.426751
0.683255
0.53092
0.344468
0.679245
0.70069
0.417248
0.707572
0.693148
0.694585
0.349224
1.14337
0.398335
0.703985
1.14144
0.322598
0.324633
0.698315
0.343863
0.414549
0.696715
0.35753
0.706858
0.698231
0.349955
0.320399
0.316136
0.489933
0.310975
0.3197
0.314096
0.312771
0.701387
0.701263
0.452322
0.660474
0.464939
0.699186
0.363262
0.32854
0.576036
0.323405
0.69431
0.305139
0.378881
0.478808
0.692226
0.700611
0.652015
0.348958
0.326624
0.65311
0.701614
0.936864
0.651904
0.698266
0.6982
0.35016
0.712263
0.647271
0.706444
0.342112
0.330612
0.708669
0.702679
0.70365
0.701673
0.700391
0.700126
0.704727
0.704864
0.691977
0.349354
0.692017
0.337476
0.300928
0.355306
0.701068
0.69318
0.335128
0.701004
0.669477
0.356922
0.756283
0.699919
0.707214
0.32842
0.329686
0.702687
0.364369
0.362183
0.273696
0.351593
0.695167
0.313654
0.700731
0.33449
0.697905
0.700503
0.694276
0.701667
0.364946
0.35083
0.693716
0.703203
0.713682
0.701394
0.701689
0.474027
0.348351
0.324484
0.692415
0.551465
0.357705
0.4451
0.306832
0.701342
0.698952
0.340965
0.327739
0.700869
0.417786
0.696577
0.695554
0.330486
0.38024
0.710399
1.14413
0.324576
0.700438
0.700945
0.693642
0.332671
1.13456
0.335875
1.13622
0.705559
0.364818
0.376215
0.328208
1.13662
0.32746
0.339952
0.400073
0.681756
0.709414
0.340156
0.30958
0.353837
0.732139
0.329105
0.692704
0.301459
0.651834
0.701693
0.358195
0.323144
0.322351
0.488482
0.325009
0.700435
0.340644
0.325678
0.689997
0.319674
0.694537
0.699038
1.1359
0.35315
0.693941
0.70302
0.702508
0.692355
0.701509
0.698381
0.293504
1.03599
0.406659
0.694449
0.34837
0.701441
0.518397
0.330777
1.13557
0.702578
0.332963
0.69753
0.30199
0.317106
0.694546
0.700825
0.306564
0.287814
0.340867
0.289539
0.701514
0.703822
0.332805
0.348564
0.704357
0.698322
0.652982
0.703016
0.698112
0.340509
0.702144
0.418237
0.700599
0.402189
0.664708
0.45557
0.696055
0.710001
0.650147
0.355547
0.327239
0.6951
0.661927
0.610062
0.703145
0.302667
0.710118
0.701943
0.353013
0.483644
0.702762
0.35021
1.11057
0.707506
0.330642
0.69905
0.704948
0.328398
0.710397
0.314317
0.700527
0.334292
0.693123
0.697772
0.326919
0.675464
0.703399
0.702972
0.670549
0.707553
0.651613
0.337865
0.434908
0.301427
0.337361
1.13054
0.654201
0.697531
0.702078
0.350036
0.336131
0.710179
0.701644
0.704535
0.701303
0.354777
0.706385
0.701707
0.353143
0.30184
0.702248
0.692941
0.700892
0.286471
0.655166
0.332419
0.711069
0.699928
0.975325
0.697039
0.356061
0.695436
0.700622
0.703398
0.700586
0.692199
0.398598
0.704375
0.342822
0.698861
0.701644
0.441293
0.69864
0.876701
0.700363
0.440559
0.414134
0.652512
0.69802
0.363696
0.364986
0.338928
0.346983
0.698345
0.710479
0.869997
0.339542
0.344752
0.694121
0.707279
0.310362
0.336978
0.448192
0.714448
0.69303
0.701521
0.706589
0.343795
0.36375
1.14227
0.29985
0.353597
0.339121
0.691711
0.331838
0.364633
0.653831
0.694035
0.699453
0.689938
0.691378
0.339631
0.316925
0.340072
0.541875
0.427876
0.301091
0.709893
0.707023
0.699859
0.69226
0.293315
0.355953
0.701677
0.358544
0.692151
0.697535
1.14083
0.306674
0.35576
0.700434
1.13511
0.650126
0.311968
0.700068
0.69326
0.651768
0.700171
0.701282
1.1442
0.698173
0.355375
0.691576
1.10886
0.697173
0.710825
1.13042
0.699844
1.13503
0.698326
0.32554
0.3232
0.356859
1.13323
0.522449
0.359394
0.708991
0.704156
0.294903
0.70458
0.333096
0.706648
0.524133
0.314091
0.701617
0.70411
0.358214
0.63658
1.1308
0.333624
0.701087
0.33829
0.275412
0.684975
0.665899
0.467842
0.691642
0.338607
0.70359
0.321314
0.292499
0.693994
0.357211
0.673252
0.306409
0.703987
0.664619
1.13519
0.700645
0.309003
0.324982
0.698272
0.488366
0.705072
0.471737
0.665877
0.695614
0.703538
0.495777
0.66641
0.699422
0.702368
0.69639
0.342076
0.366214
0.621377
0.699332
0.702443
0.374295
0.691553
0.651969
0.389821
0.306709
0.706247
0.714219
1.13353
1.13661
0.696704
0.708738
0.672176
0.710847
0.30405
0.701476
0.445851
0.699496
0.692815
0.334767
0.701566
0.7016
0.32473
0.307384
0.347017
1.13032
0.340748
0.682515
0.706054
0.701367
0.319187
0.694299
0.331325
0.654992
0.710132
0.954195
0.709961
0.735321
0.675782
0.710127
0.556057
0.694261
0.334455
0.691726
0.693778
0.474663
1.13578
0.710696
0.31618
0.305904
0.332971
0.699769
0.366402
1.13691
0.340684
0.701619
0.323799
0.455311
0.303
0.704251
0.701158
0.616977
0.3092
0.677894
0.674672
0.343948
0.653791
0.701265
0.300132
0.658873
1.14165
0.701663
0.69222
0.3211
0.513864
0.704784
0.692108
0.699219
0.361338
0.4101
0.695934
1.13611
1.14441
1.13298
0.620202
0.70522
0.615512
0.699044
0.361804
0.331107
1.13311
0.70191
0.668072
0.341125
0.691712
0.633115
0.676871
0.331717
0.402954
0.701136
0.701008
0.649459
0.341917
0.692021
1.1361
0.334137
0.667741
0.706933
0.333768
0.298855
0.312309
0.697832
0.329641
0.3499
0.699571
0.476914
0.702216
0.708983
0.332145
0.349139
0.701423
0.32481
0.324603
1.1359
0.288949
0.36881
0.66133
0.701586
0.69381
0.344675
0.335272
0.338079
0.698577
0.273567
0.694344
0.321774
0.707974
0.700101
0.691812
0.699169
0.695931
0.699827
0.693966
0.701609
0.699483
0.317745
0.340773
0.697883
0.677425
0.519558
0.698945
0.647736
0.678898
0.696506
0.331277
0.698002
0.701392
0.694306
0.33532
0.695236
0.330832
0.693736
0.498781
0.705985
0.692334
0.315785
0.706217
0.355
0.454932
0.697874
0.338082
0.707443
1.13057
0.701518
0.341931
0.695434
0.34594
0.304915
0.307151
0.350181
0.69569
0.311483
0.697981
0.787871
0.342887
0.313474
0.44911
0.650811
0.694
0.69867
0.352667
0.345663
0.334571
0.304089
0.307552
0.697311
0.699942
0.329166
0.726158
0.706569
0.313785
0.701306
0.70698
0.735517
0.338174
1.13859
0.707233
0.703746
0.699736
0.312124
0.698003
0.702606
0.6947
0.70542
0.691015
0.327404
0.30864
0.693043
0.594581
0.358976
0.693896
0.312152
0.648592
0.69865
0.700509
0.700672
0.303562
0.698845
0.385791
0.335456
0.706969
0.703256
0.70224
0.699447
0.714875
0.305452
0.701861
0.308359
0.514735
0.70148
1.14523
0.704864
0.336174
0.306866
0.701663
0.320304
0.702935
0.690767
0.425209
0.336273
0.698846
0.306107
0.692395
0.703474
0.710891
0.306561
0.323168
0.4998
0.546416
0.690306
0.472004
0.690449
0.698712
0.700787
1.12833
0.710381
0.332342
0.334943
0.701798
0.690775
0.699639
0.4384
0.335758
0.711487
0.3122
0.69831
0.668535
0.338796
0.706063
0.34715
0.701125
0.329454
0.701872
0.308683
0.693822
0.692255
0.295286
0.701307
0.697834
0.299282
0.874724
0.692014
0.645865
0.270771
0.366113
0.467695
0.702875
0.697895
0.337019
0.652967
0.709924
0.689735
0.320694
0.684048
0.695471
0.411801
0.690766
0.697467
0.33066
0.695521
1.14035
0.330082
0.671461
0.344003
0.702659
0.3396
0.284774
0.702779
0.350347
0.353476
0.310645
0.695801
0.696633
0.400775
0.691947
0.365843
0.700627
0.34709
0.696757
0.357039
0.696208
0.693024
0.705863
0.899489
0.642787
0.692296
0.737697
0.328996
0.684882
0.712014
0.567202
0.709404
0.462066
0.419943
0.70185
0.346316
0.647582
0.333941
0.691796
0.319766
0.312732
0.704355
0.69474
0.350644
0.699129
0.707065
1.13079
0.701193
1.13674
0.3557
0.701253
0.353103
0.320954
0.700932
0.705964
0.701735
0.700855
0.299846
0.338701
0.337296
0.697617
0.808438
0.363819
0.701781
0.341276
0.340013
0.332917
0.700653
0.401529
0.701795
0.701162
0.682711
0.700989
0.696985
0.651148
0.701014
0.416843
0.299781
0.35094
1.13673
1.13664
0.33914
0.698582
0.696927
0.700256
0.321445
0.444972
0.698626
0.282496
0.698716
0.688678
0.354035
0.675297
0.698032
0.3598
0.694109
0.324669
0.697128
0.701607
0.695819
0.310627
0.434314
0.707572
0.332586
0.400639
0.70158
0.338743
0.683514
0.695782
0.700215
0.706972
0.34241
1.13436
0.707015
0.692038
0.35989
0.700097
0.321942
0.282989
0.69645
0.695183
0.788388
0.241174
0.692123
0.681791
1.14559
0.34467
0.334521
0.364631
0.698892
0.335143
0.320432
0.328307
0.686704
0.322481
0.334673
0.420614
0.693785
0.355877
0.924839
0.676413
0.699248
0.341603
0.693055
0.703424
0.74685
0.40624
0.703928
0.331766
0.345896
0.695449
0.351034
0.700995
0.710966
1.13483
0.35444
0.334869
0.333865
0.653963
1.13242
0.246169
0.69336
0.695736
0.706442
0.345065
0.308087
0.340891
0.697456
0.359499
1.12901
0.663455
0.677596
0.693819
0.345655
0.700507
0.296561
0.688449
0.692063
0.701586
0.6748
0.574327
0.706261
0.699625
0.701464
0.34421
0.352479
0.341953
0.70638
0.580461
1.145
0.354569
0.406751
0.704438
0.693003
1.04562
0.351275
0.699025
0.654627
0.652323
0.697749
0.325291
0.35193
0.332389
0.697256
0.810033
0.703642
0.699014
0.34276
0.701554
0.701147
0.794003
0.814632
0.701371
0.701433
0.693157
0.706655
0.702562
0.322413
0.696324
0.69961
0.691327
0.699469
0.694394
0.663415
0.356132
0.28099
0.699547
0.357707
0.342166
0.69919
0.319922
0.68222
0.694
0.697913
0.693979
0.319654
0.699471
0.307438
0.333776
0.693164
0.696966
0.692228
0.340956
0.700968
0.691747
0.699097
0.691372
0.3243
0.691475
0.70166
0.698853
0.384586
0.704917
0.339859
0.700569
0.336307
0.356138
0.624684
0.441787
0.701636
0.704189
0.692212
0.327727
0.691349
0.403625
0.316996
0.700163
0.481499
0.358179
0.691978
0.295787
0.535228
0.70892
0.698297
0.700601
0.455014
0.660329
0.706665
0.692198
0.664289
0.702097
0.601172
0.702267
0.698679
0.701736
0.289787
0.34144
0.438115
0.69949
0.317488
0.707314
0.699348
0.672679
0.692163
0.600092
0.707967
0.710597
0.337748
0.698972
0.698556
0.583635
0.699038
0.701796
0.700506
0.680318
0.345082
0.323783
0.694782
0.599264
0.618707
0.698271
0.693704
0.692069
0.702694
0.702006
0.686311
0.698622
0.701463
0.315956
0.294952
0.3182
0.335646
1.14141
0.457081
0.607499
0.705882
0.709415
0.321931
0.69394
0.70094
0.341258
0.384831
1.13812
0.698989
0.325199
0.288384
0.276004
1.12733
0.700425
0.389457
0.331908
0.35372
0.291552
0.34686
0.361018
0.702594
0.692791
0.71026
0.342712
0.697877
0.684583
0.665828
0.340722
0.354426
0.700108
1.13222
0.362633
0.692153
0.359225
0.704394
0.322715
0.699306
0.346638
0.699587
0.701238
0.341428
0.651054
0.331678
0.70113
0.285751
0.689146
0.311936
0.513576
0.332301
0.680765
0.344543
1.00258
0.979676
0.665334
0.696533
0.341872
0.696285
0.6764
0.701105
0.681861
0.703012
0.354466
0.441175
0.341441
0.703088
0.30688
0.701675
0.657402
0.70622
0.701678
0.516905
0.704151
0.317471
0.334361
0.319105
0.51283
0.631226
0.693659
0.340071
0.325469
0.694402
0.361046
0.305402
0.65594
0.382609
0.363953
0.282109
0.701817
0.696444
0.69215
0.329259
0.697141
0.69907
0.296205
0.332331
0.700731
0.690987
0.686718
0.543773
0.381511
0.359667
0.337961
0.701602
0.698812
0.547912
0.707074
0.303046
0.650495
0.345369
1.11679
0.701341
0.354513
0.319366
0.70038
0.651447
0.70145
0.702414
0.702549
0.699661
0.70164
0.336477
0.325945
0.34083
0.347691
0.625596
1.14348
0.697729
0.352499
0.353133
0.468579
0.298401
0.692067
0.698447
0.350442
0.341111
0.694256
0.326117
0.706618
0.703453
0.698837
0.691032
0.632861
0.361883
0.34676
0.69834
0.354593
0.443942
0.396362
0.670856
0.700865
0.322835
0.354533
1.1357
0.344107
0.698393
0.703042
0.356128
0.32501
0.325567
0.692644
0.336404
1.13037
0.709945
0.675497
0.291036
0.579999
0.702149
0.694058
0.336895
0.695188
0.699639
0.302253
0.702467
0.701688
0.336639
0.352767
0.700369
0.341481
0.348532
0.695707
0.343404
0.692962
0.707923
0.703362
0.697781
0.701974
0.695323
0.688149
0.336734
0.399254
0.701018
0.695053
0.434444
0.701456
0.346823
0.697909
0.700738
0.649734
0.70277
0.440361
0.448268
0.69392
0.702646
0.698454
0.701231
0.692176
1.1369
0.701184
1.13361
0.701631
0.700215
0.701252
1.13306
0.691835
0.302653
0.700275
0.328658
0.698878
0.696854
0.705266
0.699405
0.706952
0.325261
0.335782
0.336274
0.338248
0.698058
0.349204
0.337605
0.709573
0.291544
0.707189
0.337969
0.695149
0.697896
0.350259
0.363551
0.339757
0.698996
0.334847
0.693617
0.70658
0.332963
0.700195
0.650213
0.34518
0.327777
0.295416
0.706318
0.353884
0.69904
0.596259
0.335399
0.691406
0.692058
0.702652
0.359535
0.656019
0.308297
0.697718
0.688018
0.69761
0.366426
0.695106
0.698412
0.699576
0.414394
0.699002
0.361885
0.34935
0.699773
0.45225
0.7016
0.428194
0.365697
0.425298
0.700103
0.327558
0.303039
0.333332
0.523445
1.14297
0.705281
0.305197
0.678914
0.692198
0.652901
0.468286
0.337797
0.649686
0.365689
0.350259
0.692612
0.350067
0.360626
0.700032
0.701367
0.33982
0.70549
0.335557
1.13851
0.32925
0.700252
1.05269
0.706869
0.676858
0.322506
0.347347
0.306842
0.695868
0.700265
0.659498
0.649055
0.358155
0.320202
0.69196
0.337459
0.692924
0.372812
1.00977
0.709174
0.344888
0.331689
0.353421
0.35484
0.329618
0.69988
0.6972
0.346498
0.69407
0.698857
0.338397
0.312483
0.701277
0.35553
0.694165
0.411472
0.706876
0.705748
0.693006
1.14124
0.321188
0.701941
0.699786
0.701868
0.351378
0.698309
0.660982
0.341094
0.699332
0.701266
0.702732
0.696172
0.70168
0.699744
0.701502
0.691272
0.691959
0.350289
0.703139
0.354576
0.479263
0.701342
0.307442
0.69785
0.697909
0.322933
0.699832
0.351515
0.301643
0.700703
0.697008
0.701366
0.342152
0.696196
0.67688
0.329431
0.344052
0.700808
0.698746
0.384917
0.329598
0.706718
0.701342
0.359046
0.701328
0.701332
0.697159
0.34441
0.361209
0.303122
0.705754
0.309966
0.695507
0.706577
0.692007
0.683952
0.695871
0.342396
0.700718
0.670736
0.70118
0.674512
0.312849
0.336101
0.294351
0.704151
0.705516
0.406539
0.704681
0.336055
0.704726
0.69805
0.300308
0.698286
0.695464
0.689073
0.342875
0.34956
0.336398
0.703595
0.701594
0.675015
0.543959
0.692947
0.362016
0.691721
1.14554
0.694905
0.342015
0.675009
0.324641
0.698706
0.285951
0.693888
0.700924
0.33063
0.702869
0.481819
1.13253
0.708582
1.12846
0.699601
0.431466
0.692005
0.692113
0.699798
0.693818
0.470014
1.14524
0.321152
0.692057
0.297509
0.350394
0.303258
0.330364
0.364886
0.344066
0.701411
0.364133
0.320158
0.710751
0.702896
0.696944
0.394228
0.707393
0.707292
0.689795
0.29598
0.676563
0.695832
0.333511
0.32959
0.346164
0.691795
0.527232
0.355134
0.670061
0.294256
1.13655
0.511835
0.338045
0.451654
0.702345
0.337426
0.699391
0.306681
0.557543
0.380812
0.701395
0.393593
0.714828
1.14522
0.69694
0.467296
0.356312
0.701642
0.70141
0.328441
0.304844
0.694293
0.352919
0.705162
0.342115
0.650905
0.291435
0.695472
0.326435
0.701409
0.350217
0.698277
0.6961
0.702287
1.13581
0.32155
0.317788
0.390133
0.700576
0.709879
0.700108
0.636773
0.324725
0.704844
0.337924
0.700285
0.696578
0.420516
0.335711
0.703169
0.693674
0.310535
1.13261
0.701605
0.702741
0.703367
0.305859
0.692845
0.355481
0.702446
0.307286
0.708442
0.700132
0.701259
0.701434
0.337518
0.701503
0.3496
0.336629
0.698586
1.13756
0.641312
0.694578
1.1438
0.356557
0.704646
0.701279
0.701516
0.305868
0.430164
0.707634
0.348777
0.698537
0.699586
0.696007
0.70114
0.297146
0.462619
0.699436
0.327362
0.700781
0.701002
0.484877
0.700882
0.314093
0.698621
0.704478
0.707251
0.701035
0.348716
0.314022
0.693731
0.694928
0.321123
0.345229
0.324813
0.325182
0.319453
0.298796
0.330401
0.358128
0.693979
0.300154
0.34367
0.707827
0.635771
1.1354
0.403442
0.354397
0.692501
0.472084
0.539024
0.701805
0.386652
0.702806
0.901648
0.667886
0.697161
0.335586
0.704813
0.681295
0.330188
0.348153
0.423395
0.697838
0.667998
0.701757
0.696881
0.694321
0.697078
0.352273
0.702364
0.66747
0.701206
0.357039
0.695257
0.691083
0.349424
0.428883
0.328291
0.304816
0.316913
0.662659
0.708747
0.697618
0.350749
0.367588
0.701276
0.293975
0.706843
0.692025
0.694786
0.70714
0.693323
0.33241
0.306767
0.285016
0.64823
0.307678
0.69253
0.281337
0.696136
0.690285
0.694588
0.33419
0.458151
0.427527
0.695283
0.33064
0.344854
0.699442
0.696814
0.694989
0.69711
0.700804
0.705298
0.365171
0.675361
0.701872
0.570815
0.693536
0.704915
0.704443
0.416553
0.405844
0.701568
0.494354
0.692288
0.351722
0.697939
0.69931
0.386463
0.311219
0.697826
0.509267
0.702346
0.706927
0.355139
0.352968
1.14027
0.461319
0.402781
0.701076
0.700676
0.32532
0.693011
1.14121
0.698963
0.365848
0.662709
0.363364
0.701159
0.701293
0.705166
0.69831
1.13244
0.337562
0.357782
0.69569
0.346061
0.666137
0.331878
0.69331
0.286509
0.706195
0.701912
1.13563
0.366182
1.12999
1.14281
0.345116
0.697816
0.294283
0.701922
0.364318
0.346225
0.263737
0.710907
0.691454
0.330822
0.336343
0.700082
0.701634
0.453395
0.706478
0.364873
0.528613
0.352888
0.695706
0.347786
0.712017
0.699917
0.327665
0.456753
0.346542
0.845941