# vtk DataFile Version 1.0
unstructured grid
ascii
DATASET UNSTRUCTURED_GRID
points 13672 float
0.0796578 -0.059106 0
0.00128732 0.00159165 0
0.00227961 -0.00102548 0
0.0791586 -0.0598787 0
-0.0546216 0.01 0
0.000495206 0.025 0
0.0800549 -0.035 0
0.135172 -0.08 0
-0.0546216 -0.0451168 0
0.000495206 -0.0301168 0
0.0800549 -0.0901168 0
0.135172 -0.135117 0
-0.0546216 -0.0451168 -0.00551168
0.000495206 -0.0301168 -0.00551168
0.0800549 -0.0901168 -0.00551168
0.135172 -0.135117 -0.00551168
0.135172 -0.08 -0.00551168
0.0800549 -0.035 -0.00551168
0.000495206 0.025 -0.00551168
-0.0546216 0.01 -0.00551168
0.00128732 0.00159165 -0.00551168
0.00227961 -0.00102548 -0.00551168
0.0791586 -0.0598787 -0.00551168
0.0796578 -0.059106 -0.00551168
0.00165953 -0.000990923 0
0.00119576 -0.000874076 0
0.000866021 -0.000641801 0
0.000645147 -0.000349912 0
0.00052235 -1.7281e-05 0
0.00049972 0.000348016 0
0.000601632 0.000737716 0
0.000861774 0.0011403 0
0.00157235 0.00183217 0
0.00188647 0.00206725 0
0.00222612 0.00230203 0
0.00258713 0.00254351 0
0.00296826 0.00279524 0
0.00337118 0.00305664 0
0.00379785 0.00332658 0
0.00425045 0.00360349 0
0.00473139 0.00388521 0
0.0052432 0.00416895 0
0.0057881 0.00445204 0
0.00636753 0.00473281 0
0.00698281 0.00500961 0
0.00763526 0.00528058 0
0.00832616 0.00554366 0
0.00905691 0.00579603 0
0.00982918 0.00603333 0
0.0106445 0.00625033 0
0.0115038 0.00644128 0
0.0124073 0.00660297 0
0.0133543 0.00673414 0
0.0143444 0.00683382 0
0.0153769 0.00690031 0
0.0164512 0.00693173 0
0.0175666 0.00692547 0
0.0187219 0.00687822 0
0.0199156 0.00678477 0
0.0211454 0.00663864 0
0.0224084 0.00643275 0
0.0237018 0.00616676 0
0.0250249 0.00584739 0
0.026375 0.00547298 0
0.0277479 0.00503752 0
0.0291386 0.00453545 0
0.0305433 0.0039653 0
0.0319572 0.0033256 0
0.0333681 0.00260019 0
0.034775 0.00179799 0
0.0361793 0.000930615 0
0.0375798 3.12222e-06 0
0.0389689 -0.000988429 0
0.0403357 -0.00205109 0
0.041675 -0.00318283 0
0.0429849 -0.00437751 0
0.0442643 -0.00562904 0
0.0455126 -0.00693089 0
0.0467314 -0.00827518 0
0.0479204 -0.00965638 0
0.0490661 -0.0110799 0
0.0501515 -0.0125519 0
0.0511696 -0.0140695 0
0.0521492 -0.0156071 0
0.0531202 -0.0171411 0
0.0540851 -0.0186663 0
0.0550431 -0.0201798 0
0.0559923 -0.0216793 0
0.0569311 -0.0231626 0
0.0578582 -0.0246273 0
0.0587723 -0.0260715 0
0.0596721 -0.027493 0
0.0605563 -0.02889 0
0.0614241 -0.0302609 0
0.0622742 -0.0316042 0
0.063106 -0.0329183 0
0.0639186 -0.034202 0
0.0647113 -0.0354543 0
0.0654835 -0.0366743 0
0.0662345 -0.0378613 0
0.0669642 -0.0390145 0
0.0676726 -0.0401333 0
0.0683597 -0.0412172 0
0.0690246 -0.0422665 0
0.0696662 -0.0432819 0
0.0702841 -0.0442636 0
0.0708793 -0.0452111 0
0.0714538 -0.0461237 0
0.072009 -0.047001 0
0.0725452 -0.0478434 0
0.0730611 -0.0486524 0
0.073556 -0.0494294 0
0.0740291 -0.0501756 0
0.0744812 -0.0508916 0
0.0749138 -0.0515773 0
0.0753285 -0.0522331 0
0.0757266 -0.0528592 0
0.076109 -0.0534564 0
0.0764753 -0.0540264 0
0.0768243 -0.054571 0
0.0771553 -0.0550919 0
0.0774679 -0.0555901 0
0.0777617 -0.0560669 0
0.0780369 -0.056523 0
0.0782958 -0.0569578 0
0.0785421 -0.0573703 0
0.0787786 -0.0577603 0
0.0790073 -0.0581279 0
0.0792295 -0.058474 0
0.0794462 -0.0587995 0
0.0798803 -0.0594162 0
0.0800272 -0.0596588 0
0.0800357 -0.0598891 0
0.0799275 -0.0600784 0
0.0797205 -0.0601773 0
0.0794593 -0.0601051 0
0.0789155 -0.0596491 0
0.0786707 -0.0593963 0
0.0784111 -0.0591319 0
0.0781372 -0.0588542 0
0.0778566 -0.0585548 0
0.0775715 -0.0582308 0
0.0772803 -0.0578828 0
0.0769832 -0.0575099 0
0.0766822 -0.0571097 0
0.0763801 -0.0566796 0
0.0760759 -0.0562196 0
0.0757623 -0.0557337 0
0.0754359 -0.0552232 0
0.0750951 -0.0546879 0
0.0747379 -0.054128 0
0.0743626 -0.0535435 0
0.0739688 -0.0529338 0
0.0735559 -0.0522981 0
0.0731238 -0.0516357 0
0.0726718 -0.050946 0
0.0721991 -0.0502288 0
0.0717046 -0.049484 0
0.0711872 -0.0487117 0
0.0706461 -0.047912 0
0.0700804 -0.0470849 0
0.0694892 -0.0462308 0
0.0688718 -0.0453499 0
0.0682271 -0.0444431 0
0.0675544 -0.043511 0
0.0668527 -0.0425546 0
0.0661215 -0.0415748 0
0.06536 -0.040573 0
0.0645676 -0.0395504 0
0.0637439 -0.0385087 0
0.0628887 -0.0374493 0
0.062002 -0.0363741 0
0.0610838 -0.0352847 0
0.0601345 -0.0341831 0
0.0591547 -0.033071 0
0.0581456 -0.0319502 0
0.0571083 -0.0308224 0
0.0560444 -0.0296893 0
0.0549562 -0.028552 0
0.053845 -0.0274126 0
0.0527113 -0.0262746 0
0.051554 -0.0251427 0
0.0503724 -0.0240222 0
0.0491675 -0.0229164 0
0.047941 -0.0218282 0
0.0466955 -0.0207597 0
0.0454337 -0.0197126 0
0.0441592 -0.0186878 0
0.0428751 -0.0176863 0
0.0415841 -0.0167097 0
0.0402878 -0.0157609 0
0.0389879 -0.0148428 0
0.0376864 -0.0139575 0
0.0363853 -0.013107 0
0.0350871 -0.0122931 0
0.0337942 -0.0115164 0
0.0325095 -0.0107772 0
0.0312357 -0.0100756 0
0.0299758 -0.00941024 0
0.0287337 -0.00877784 0
0.0275126 -0.00817571 0
0.0263139 -0.00760375 0
0.0251376 -0.00706528 0
0.0239829 -0.0065649 0
0.0228537 -0.00609619 0
0.0217522 -0.00565563 0
0.0206795 -0.00524226 0
0.0196364 -0.00485507 0
0.0186233 -0.00449318 0
0.0176408 -0.00415577 0
0.016689 -0.00384204 0
0.0157682 -0.00355115 0
0.0148783 -0.00328218 0
0.0140192 -0.00303468 0
0.0131906 -0.00280795 0
0.0123925 -0.00260016 0
0.0116246 -0.00241012 0
0.0108864 -0.00223769 0
0.0101774 -0.00208212 0
0.00949701 -0.00194206 0
0.00884483 -0.0018163 0
0.0082202 -0.0017039 0
0.00762247 -0.00160391 0
0.00705097 -0.00151528 0
0.006505 -0.00143697 0
0.0059838 -0.00136806 0
0.00548662 -0.00130772 0
0.00501265 -0.00125519 0
0.00456114 -0.00120954 0
0.00413136 -0.00116914 0
0.00372257 -0.00113251 0
0.00333398 -0.00109853 0
0.00296466 -0.00106798 0
0.00261363 -0.0010431 0
-0.052721 -0.0445996 0
-0.0508204 -0.0440823 0
-0.0489199 -0.0435651 0
-0.0470193 -0.0430478 0
-0.0451187 -0.0425306 0
-0.0432181 -0.0420134 0
-0.0413175 -0.0414961 0
-0.039417 -0.0409789 0
-0.0375164 -0.0404616 0
-0.0356158 -0.0399444 0
-0.0337152 -0.0394271 0
-0.0318146 -0.0389099 0
-0.0299141 -0.0383927 0
-0.0280135 -0.0378754 0
-0.0261129 -0.0373582 0
-0.0242123 -0.0368409 0
-0.0223117 -0.0363237 0
-0.0204112 -0.0358065 0
-0.0185106 -0.0352892 0
-0.01661 -0.034772 0
-0.0147094 -0.0342547 0
-0.0128088 -0.0337375 0
-0.0109083 -0.0332202 0
-0.00900769 -0.032703 0
-0.00710711 -0.0321858 0
-0.00520653 -0.0316685 0
-0.00330595 -0.0311513 0
-0.00140537 -0.030634 0
0.00190689 -0.0299614 0
0.00332271 -0.0298498 0
0.00474133 -0.0297825 0
0.00616136 -0.0297597 0
0.0075814 -0.0297814 0
0.00900007 -0.0298477 0
0.010416 -0.0299583 0
0.0118278 -0.0301127 0
0.0132342 -0.0303103 0
0.0146339 -0.0305504 0
0.0160259 -0.0308322 0
0.0174091 -0.0311546 0
0.0187824 -0.0315166 0
0.020145 -0.031917 0
0.0214961 -0.0323546 0
0.0228351 -0.032828 0
0.0241613 -0.0333361 0
0.0254744 -0.0338774 0
0.0267738 -0.0344507 0
0.0280592 -0.0350545 0
0.0293306 -0.0356877 0
0.0305875 -0.0363488 0
0.0318301 -0.0370367 0
0.0330581 -0.0377501 0
0.0342717 -0.0384879 0
0.0354708 -0.0392489 0
0.0366556 -0.0400321 0
0.0378262 -0.0408363 0
0.0389828 -0.0416607 0
0.0401254 -0.0425042 0
0.0412543 -0.0433659 0
0.0423698 -0.0442451 0
0.043472 -0.0451408 0
0.0445612 -0.0460523 0
0.0456375 -0.0469789 0
0.0467013 -0.0479199 0
0.0477529 -0.0488746 0
0.0487923 -0.0498424 0
0.04982 -0.0508227 0
0.0508362 -0.051815 0
0.051841 -0.0528187 0
0.0528348 -0.0538333 0
0.0538178 -0.0548584 0
0.0547903 -0.0558935 0
0.0557524 -0.0569382 0
0.0567045 -0.0579922 0
0.0576467 -0.0590549 0
0.0585792 -0.0601261 0
0.0595024 -0.0612055 0
0.0604163 -0.0622926 0
0.0613212 -0.0633873 0
0.0622174 -0.0644891 0
0.0631049 -0.0655979 0
0.0639841 -0.0667134 0
0.064855 -0.0678353 0
0.0657179 -0.0689633 0
0.0665729 -0.0700974 0
0.0674202 -0.0712372 0
0.06826 -0.0723826 0
0.0690925 -0.0735333 0
0.0699178 -0.0746892 0
0.070736 -0.0758501 0
0.0715473 -0.0770159 0
0.0723518 -0.0781863 0
0.0731498 -0.0793612 0
0.0739412 -0.0805405 0
0.0747264 -0.081724 0
0.0755053 -0.0829116 0
0.0762781 -0.0841033 0
0.0770449 -0.0852987 0
0.0778059 -0.0864979 0
0.0785611 -0.0877007 0
0.0793108 -0.088907 0
0.0814681 -0.0912706 0
0.0828814 -0.0924245 0
0.0842946 -0.0935783 0
0.0857079 -0.0947322 0
0.0871211 -0.095886 0
0.0885344 -0.0970399 0
0.0899476 -0.0981937 0
0.0913609 -0.0993476 0
0.0927741 -0.100501 0
0.0941874 -0.101655 0
0.0956006 -0.102809 0
0.0970139 -0.103963 0
0.0984272 -0.105117 0
0.0998404 -0.106271 0
0.101254 -0.107424 0
0.102667 -0.108578 0
0.10408 -0.109732 0
0.105493 -0.110886 0
0.106907 -0.11204 0
0.10832 -0.113194 0
0.109733 -0.114348 0
0.111146 -0.115501 0
0.11256 -0.116655 0
0.113973 -0.117809 0
0.115386 -0.118963 0
0.116799 -0.120117 0
0.118213 -0.121271 0
0.119626 -0.122424 0
0.121039 -0.123578 0
0.122452 -0.124732 0
0.123866 -0.125886 0
0.125279 -0.12704 0
0.126692 -0.128194 0
0.128105 -0.129348 0
0.129519 -0.130501 0
0.130932 -0.131655 0
0.132345 -0.132809 0
0.133758 -0.133963 0
0.135172 -0.133216 0
0.135172 -0.131316 0
0.135172 -0.129415 0
0.135172 -0.127514 0
0.135172 -0.125614 0
0.135172 -0.123713 0
0.135172 -0.121813 0
0.135172 -0.119912 0
0.135172 -0.118012 0
0.135172 -0.116111 0
0.135172 -0.11421 0
0.135172 -0.11231 0
0.135172 -0.110409 0
0.135172 -0.108509 0
0.135172 -0.106608 0
0.135172 -0.104708 0
0.135172 -0.102807 0
0.135172 -0.100906 0
0.135172 -0.0990058 0
0.135172 -0.0971052 0
0.135172 -0.0952046 0
0.135172 -0.0933041 0
0.135172 -0.0914035 0
0.135172 -0.0895029 0
0.135172 -0.0876023 0
0.135172 -0.0857017 0
0.135172 -0.0838012 0
0.135172 -0.0819006 0
0.133758 -0.0788462 0
0.132345 -0.0776923 0
0.130932 -0.0765385 0
0.129519 -0.0753846 0
0.128105 -0.0742308 0
0.126692 -0.0730769 0
0.125279 -0.0719231 0
0.123866 -0.0707692 0
0.122452 -0.0696154 0
0.121039 -0.0684615 0
0.119626 -0.0673077 0
0.118213 -0.0661538 0
0.116799 -0.065 0
0.115386 -0.0638462 0
0.113973 -0.0626923 0
0.11256 -0.0615385 0
0.111146 -0.0603846 0
0.109733 -0.0592308 0
0.10832 -0.0580769 0
0.106907 -0.0569231 0
0.105493 -0.0557692 0
0.10408 -0.0546154 0
0.102667 -0.0534615 0
0.101254 -0.0523077 0
0.0998404 -0.0511538 0
0.0984272 -0.05 0
0.0970139 -0.0488462 0
0.0956006 -0.0476923 0
[...]
CELL_DATA 13116
SCALARS rho float
LOOKUP_TABLE default
0.5977
0.5977
0.597698
0.5977
0.5977
0.680661
0.467659
0.597701
0.5977
0.5977
0.42108
0.5977
0.5977
0.58923
0.597693
0.680792
0.5977
0.5977
0.680865
0.407801
0.5977
0.597699
0.597708
0.5977
0.5977
0.5977
0.5977
0.5977
0.5977
0.5977
0.680483
0.597698
0.5977
0.5977
0.479848
0.5977
0.5977
0.595566
0.680976
0.627831
0.680822
0.5977
0.5977
0.597714
0.677214
0.680701
0.5977
0.677614
0.597699
0.5977
0.597703
0.5977
0.523009
0.5977
0.5977
0.5977
0.597714
0.5977
0.5977
0.597711
0.592652
0.5977
0.5977
0.680942
0.680887
0.556613
0.680769
0.5977
0.680995
0.680799
0.597661
0.5977
0.5977
0.595242
0.666825
0.566052
0.5977
0.5977
0.431843
0.5977
0.5977
0.5977
0.5977
0.596794
0.597687
0.5977
0.492809
0.5977
0.597701
0.368183
0.5977
0.5977
0.5977
0.597701
0.5977
0.5977
0.5977
0.680036
0.675201
0.5977
0.5977
0.5977
0.680611
0.5977
0.5977
0.5977
0.5977
0.5977
0.5977
0.5977
0.5977
0.5977
0.5977
0.5977
0.5977
0.681028
0.532319
0.5977
0.597702
0.679671
0.5977
0.5977
0.679941
0.5977
0.5977
0.5977
0.503937
0.5977
0.597698
0.5977
0.597702
0.5977
0.5977
0.597699
0.5977
0.5977
1.12624
0.659577
0.5977
0.679419
0.5977
0.5977
0.5977
0.5977
0.5977
0.597704
0.474742
0.5977
0.5977
0.597188
0.5977
0.616161
0.679848
0.500067
0.5977
0.596764
0.597698
0.5977
0.67991
0.5977
0.5977
0.422443
0.5977
0.597698
0.5977
0.5977
0.5977
0.5977
0.475226
0.5977
0.5977
1.1232
0.597535
0.5977
0.681164
0.597708
0.597712
0.5977
0.5977
0.680868
0.384236
0.5977
0.5977
0.5977
0.68083
0.5977
0.499093
0.681088
0.5977
0.5977
0.5977
0.5977
0.680404
0.5977
0.5977
0.680897
0.5977
0.680783
0.597701
0.5977
0.5977
0.5977
0.5977
0.597577
0.5977
0.59614
0.5977
0.5977
0.597715
0.390194
0.560796
0.680701
0.5977
0.368741
0.367677
0.50919
0.5977
0.680524
0.5977
0.5977
0.597689
0.680962
0.5977
0.381654
0.5977
0.5977
0.5977
0.5977
0.680778
0.5977
0.5977
0.597698
0.680628
0.5977
0.673357
0.592786
0.680404
0.597699
0.5977
0.5977
0.671964
0.680902
1.11574
0.681153
0.597701
0.597707
0.592178
0.5977
0.67862
0.448568
0.597698
0.590188
0.597393
0.680556
0.597641
0.5977
0.5977
0.414888
0.5977
0.5977
0.597715
0.5977
0.5977
0.5977
0.459852
0.672573
0.524049
0.5977
0.5977
0.446995
0.5977
0.597701
0.759138
0.5977
0.597698
0.81724
0.5977
0.680057
0.663843
0.418106
0.477004
0.5977
0.5977
0.5977
0.5977
0.5977
0.5977
0.5977
0.539253
0.597678
0.5977
0.47821
0.401404
0.514755
0.5977
0.5977
0.5977
0.5977
0.5977
0.439745
0.680428
0.5977
0.5977
0.597711
0.6811
0.596272
0.680739
0.508147
0.680907
0.5977
0.5977
0.5977
0.593436
0.5977
0.5977
0.680616
0.585357
0.680837
0.5977
0.5977
0.369975
0.5977
0.5977
0.515332
0.5977
0.5977
0.5977
0.5977
0.5977
0.494608
0.661443
0.5977
0.583796
0.597698
0.5977
0.5977
0.5977
0.5977
0.5977
0.459297
0.5977
0.5977
0.68092
0.5977
0.5977
0.5977
0.5977
0.597292
0.493553
0.5977
0.5977
0.5977
1.12237
0.493943
0.597699
0.5977
0.5977
0.5977
0.487348
0.597698
0.591203
0.5977
0.464172
0.5977
0.558195
0.597698
0.681035
0.597701
0.5977
0.367765
0.624553
0.680521
0.681051
0.622972
0.5977
0.5977
0.5977
0.597362
0.384783
0.680912
0.380672
0.5977
0.5977
0.5977
0.5977
0.5977
0.5977
0.484306
0.596653
0.5977
0.5977
0.5977
0.68023
0.5977
0.596893
0.597698
0.471406
0.5977
0.5977
0.5977
0.5977
0.680476
0.5977
0.5977
0.5977
0.5977
0.5977
0.5977
0.5977
0.5977
0.680712
0.5977
0.5977
0.5977
0.597698
0.5977
0.5977
0.518833
0.680899
0.724453
0.5977
0.387388
0.368074
0.482124
0.5977
0.554532
0.5977
0.681083
0.555075
0.5977
0.367937
0.680761
0.5977
0.5977
0.597699
0.5977
0.5977
0.367511
0.480969
0.367616
0.5977
0.472573
0.382193
0.5977
0.5977
0.381036
0.5977
0.5977
0.597681
0.5977
0.5977
0.5977
0.597716
0.367974
0.597717
0.674336
0.5977
0.5977
0.5977
0.545572
0.5977
0.597701
0.5977
0.5977
0.5977
0.5977
0.469751
0.673882
0.5977
0.5977
0.680329
0.5977
0.534448
0.5977
0.5977
0.5977
0.5977
0.5977
0.5977
0.5977
0.401603
0.597714
0.589964
0.5977
0.597713
0.562498
0.597537
0.581849
0.5977
0.5977
0.5977
0.5977
0.5977
0.5977
0.5977
0.542023
0.5977
0.5977
0.597701
0.5977
0.5977
0.5977
0.672778
0.5977
0.5977
0.5977
0.525517
0.5977
0.597701
0.680315
0.5977
0.5977
0.5977
0.373878
0.5977
0.5977
0.5977
0.5977
0.5977
0.5977
0.5977
0.5977
0.5977
0.5977
0.5977
0.5977
0.5977
0.680496
0.367874
0.666433
0.5977
0.597713
0.368146
0.5977
0.592809
0.5977
0.597702
0.5977
0.36867
0.680399
0.593956
0.5977
0.5977
0.53352
0.5977
0.367375
0.368154
0.597716
0.370759
0.5977
0.574336
0.5977
0.5977
0.5977
0.597702
0.6805
0.5977
0.367475
0.385148
0.596892
0.5977
0.5977
0.5977
0.5977
0.5977
0.485871
0.5977
0.680899
0.5977
0.368078
0.5977
0.5977
0.597701
0.680271
0.5977
0.5977
0.597702
0.5977
0.594523
0.5977
0.597699
0.5977
0.5977
0.69886
0.597699
0.5977
0.5977
0.595578
0.54313
1.1025
0.597682
0.665464
0.5977
0.367771
0.5977
0.5977
0.673675
0.5977
0.45616
0.5977
0.680578
0.5977
0.449409
0.5977
0.367673
0.680647
0.5977
0.680891
0.597514
0.5977
0.5977
0.5977
0.597698
0.597703
0.5977
0.5977
0.5977
0.525981
0.566478
0.680791
0.564295
0.681008
0.5977
0.677044
0.367873
0.597702
0.5977
0.5977
0.680819
0.5977
0.681341
0.59771
0.6803
0.5977
0.5977
0.421552
0.597702
0.5977
0.489514
0.680699
0.5977
0.504828
0.5977
0.5977
0.59738
0.681031
0.674293
0.5977
0.597718
0.439351
0.597709
0.597701
0.5977
0.535154
0.417458
0.5977
0.668097
0.5977
0.5977
0.680648
0.416848
0.5977
0.5977
0.597703
0.5977
0.5977
0.5977
0.680908
0.5977
0.5977
0.5977
0.5977
0.681113
0.5977
0.5977
0.5977
0.597617
0.5977
0.5977
0.5977
0.5977
0.5977
0.5977
0.680496
0.5977
0.5977
0.660873
0.5977
0.597699
0.5977
0.5977
0.5977
0.594881
0.680444
0.5977
0.5977
0.680386
0.5977
0.5977
0.5977
0.5977
0.5977
0.5977
0.5977
0.5977
0.593445
1.12645
0.5977
0.678846
0.5977
0.368606
0.5977
0.5977
0.5977
0.5977
0.597701
0.386232
0.5977
0.5977
0.401
0.5977
0.597702
0.60677
0.597702
0.597702
0.5977
0.5977
0.5977
0.5977
0.680733
0.5977
0.368334
0.5977
0.597681
0.5977
0.647525
0.681103
0.5977
0.5977
0.392745
0.5977
0.5977
0.5977
0.5977
0.680762
0.597655
0.5977
0.5977
0.5977
0.5977
0.367714
0.367773
0.455945
0.378296
0.5977
0.5977
0.680443
0.5977
0.390879
0.681139
0.5977
0.579413
0.5977
0.5977
0.5977
0.68063
0.598996
0.5977
0.384121
0.36798
1.07615
0.5977
0.368935
0.535088
0.680557
0.5977
0.367879
0.5977
0.597702
0.5977
0.680547
0.681083
0.536557
0.585361
0.44554
0.5977
0.5977
0.597699
0.5977
0.5977
0.5977
0.681598
0.597698
0.367961
0.5977
0.368363
0.681088
0.5977
0.680829
0.5977
0.367774
0.5977
0.680993
0.5977
0.578676
0.595894
0.680593
0.5977
0.596719
0.597701
0.973309
0.5977
0.382253
0.681131
0.680973
0.5977
0.5977
1.1264
0.5977
0.937314
0.672297
0.562512
0.596419
0.368025
0.680987
0.5977
0.368206
0.5977
0.5977
0.597699
0.5977
0.5977
0.5977
0.5977
0.597699
0.5977
0.5977
0.367828
0.5977
0.680574
0.597715
0.597701
0.572427
0.597704
0.5977
0.5977
0.5977
0.68049
0.466546
0.5977
0.597714
0.597698
0.680733
0.368234
0.5977
0.5977
0.5977
0.5977
0.979085
0.5977
0.597003
0.573964
0.5977
0.5977
0.5977
0.5977
0.5977
0.680959
0.5977
0.5977
0.5977
0.5977
0.5977
0.680861
0.5977
0.367893
0.5977
0.5977
0.5977
0.5977
0.680813
0.5977
0.5977
0.5977
0.5977
0.5977
1.09221
0.672355
0.5977
0.5977
0.680768
0.5977
0.597699
0.5977
0.5977
0.617497
0.609693
0.5977
0.5977
0.5977
0.597713
0.597699
0.510075
1.12603
0.420337
0.5977
0.5977
0.5977
0.5977
0.597643
0.597248
0.5977
0.680326
0.681195
0.5977
0.680562
0.5977
0.5977
0.5977
0.5977
0.596213
0.681063
0.68053
0.5977
0.772322
0.5977
0.5977
0.597562
0.597711
0.594079
0.367746
0.792418
0.445459
0.597701
0.540032
0.5977
0.597709
0.5977
0.597701
0.5977
0.5977
0.5977
0.680571
0.396616
0.5977
0.5977
0.597699
0.5977
0.680745
0.5977
0.681003
0.5977
0.5977
0.5977
0.680358
0.5977
0.368006
0.5977
0.591124
1.10896
0.693264
1.11709
0.5977
0.5977
0.5977
0.666453
0.367993
0.597616
1.11329
0.5977
0.680766
0.567411
0.680959
0.5977
0.5977
0.594575
0.5977
0.5977
0.5977
0.5977
0.5977
0.680524
0.684589
0.462644
0.5977
0.5977
0.465711
0.5977
0.588253
0.5977
0.5977
0.367789
0.63282
0.5977
0.5977
0.5977
0.480044
0.479394
0.5977
0.59702
0.555582
0.681142
0.597699
0.5977
0.5977
0.5977
0.5977
0.388731
0.5977
0.428915
0.5977
0.597699
0.5977
0.560091
0.5977
0.5977
0.669918
0.5977
0.5977
0.5977
0.680818
0.5977
0.597702
0.567321
0.41767
0.5977
0.681178
0.5977
0.5977
0.5977
0.68112
0.5977
0.5977
0.68084
0.5977
0.597701
0.45774
0.5977
0.5977
0.591096
0.5977
0.5977
0.680585
0.597699
0.5977
0.367447
0.5977
0.5977
0.544462
0.5977
1.12619
0.597701
0.490497
0.681188
0.378094
0.5977
0.5977
0.367572
0.5977
0.597689
0.5977
0.680802
0.5977
0.5977
0.5977
0.5977
0.5977
0.5977
0.367838
0.527847
0.456994
0.597713
0.5977
0.5977
0.5977
0.5977
0.68037
0.5977
0.584097
0.5977
0.5977
0.680794
0.434283
0.666169
0.5977
0.5977
0.591744
0.597713
0.5977
0.5977
0.5977
0.5977
0.680963
0.5977
0.5977
0.651443
0.5977
0.367738
0.680869
0.597698
0.5977
0.5977
0.5977
0.597701
0.5977
0.5977
0.5977
0.458397
0.5977
0.5977
0.5977
0.592488
0.5977
0.5977
0.5977
0.597712
0.5977
0.5977
0.673439
0.5977
0.448926
0.5977
0.5977
0.5977
0.5977
0.5977
0.5977
0.5977
0.679079
0.5977
0.680445
0.5977
0.5977
0.5977
0.597458
0.5977
0.5977
0.5977
0.5977
0.681056
0.5977
0.597016
1.12659
0.5977
0.496644
0.5977
0.5977
0.681119
0.5977
0.5977
0.59601
0.5977
0.59646
0.680367
0.5977
0.5977
0.5977
0.394623
0.5977
0.597699
0.5977
0.597699
0.597665
0.680904
0.597699
0.597701
0.5977
0.5977
0.681158
0.680665
0.5977
0.597692
0.5977
0.5977
0.5977
0.5977
0.5977
0.5977
0.5977
0.680798
0.5977
0.5977
0.5977
0.5977
0.681021
0.681054
0.5977
0.59743
0.680462
0.597699
0.5977
0.464093
0.5977
0.478498
0.597703
0.5977
0.367496
0.367727
0.595331
0.681004
0.5977
0.5977
0.680118
0.5977
0.5977
0.373475
0.5977
0.5977
0.681049
0.65747
0.5977
0.680529
0.5977
0.680888
0.680953
0.5977
0.5977
0.5977
0.5977
0.5977
0.5977
0.5977
0.5977
0.397597
0.5977
0.5977
0.680431
0.564784
0.5977
0.5977
0.681059
0.395416
0.659981
0.5977
1.12665
0.597701
0.670185
0.377617
0.5977
0.373574
0.597699
0.597701
0.5977
0.5977
0.59766
0.597698
0.488466
0.435431
0.5977
0.680955
0.5977
0.5977
0.554225
0.489252
0.575664
0.597701
0.5977
0.5977
0.597701
0.5977
0.67069
0.597702
0.5977
0.5977
0.5977
0.5977
0.390098
0.673451
0.664253
0.576097
0.5977
0.5977
0.5977
0.5977
0.5977
0.5977
0.5977
0.5977
0.5977
0.369242
0.680682
0.5977
0.368045
0.5977
0.547673
0.679659
0.5977
0.5977
0.597305
0.5977
0.5977
0.5977
0.5977
0.676159
0.5977
0.680745
0.680562
0.5977
0.5977
0.5977
0.680746
0.5977
0.680703
0.5977
0.597651
0.597707
0.596274
0.597642
0.680463
0.68083
0.5977
0.680465
0.5977
0.664617
0.537186
0.55461
0.367563
0.60663
0.454557
0.563733
0.597699
0.5977
0.557297
0.5977
0.5977
0.597701
0.36816
0.680893
0.680555
0.667306
0.499923
0.594534
0.5977
0.680424
0.5977
0.5977
0.48209
0.39697
0.681287
0.39589
0.5977
0.5977
1.04312
0.368182
0.5977
0.496918
0.5977
1.12276
0.5977
0.595043
0.68104
0.5977
0.376808
0.597713
0.5977
0.5977
0.367655
1.12656
0.5977
0.680758
0.593696
0.413995
0.5977
0.597705
0.5977
0.5977
0.5977
0.5977
0.5977
0.5977
0.5977
0.5977
0.442103
0.5977
0.56874
0.5977
0.5977
0.666251
0.368206
0.5977
0.5977
0.591553
0.681217
0.39042
0.650405
0.5977
0.5977
0.5977
0.5977
0.386177
0.5977
0.6801
0.680427
0.5977
0.5977
0.5977
0.597701
0.5977
0.680322
0.680448
0.597702
0.5977
0.680469
0.5977
0.5977
0.5977
0.63983
0.595136
0.680612
0.593753
0.680491
0.5977
0.368404
0.597698
0.5977
0.367412
0.5977
0.613877
0.590204
0.5977
0.680812
0.5977
0.597702
0.5977
0.59451
0.5977
0.591845
0.680508
0.5977
0.681526
0.516642
0.597702
0.680429
0.5977
0.680768
0.597698
0.680726
0.5977
0.5977
0.5977
0.5977
0.414052
0.5977
0.559188
0.367771
0.5977
0.5977
0.5977
0.5977
0.680751
0.597702
0.680672
0.5977
0.594988
0.5977
0.5977
0.368057
0.680606
0.5977
0.5977
0.5977
0.5977
0.5977
0.5977
0.5977
0.5977
0.680566
0.5977
0.5977
0.5977
0.5977
0.5977
0.5977
0.597702
0.428527
0.5977
0.592959
0.5977
0.5977
0.640711
0.5977
0.680523
0.5977
0.5977
0.5977
0.436161
0.670265
0.5977
0.5977
0.5977
0.5977
0.5977
0.680841
0.376739
0.579593
0.5977
0.5977
0.5977
0.672999
0.592387
0.680512
0.5977
0.5977
0.5977
0.5977
0.5977
0.58449
0.5977
0.572728
0.5977
0.787563
0.5977
0.5977
0.5977
0.5977
0.5977
0.597701
0.5977
0.527587
0.5977
0.701506
0.623714
0.5977
0.5977
0.597715
1.12706
0.5977
0.5977
0.494932
0.371619
0.597698
0.5977
0.367657
0.5977
0.670973
0.5977
0.447174
0.5977
0.5977
0.5977
0.5977
0.398486
0.5977
1.11952
0.367981
0.680658
0.368215
0.5977
0.5977
0.656443
0.451601
0.5977
0.5977
0.488251
0.5977
0.5977
0.5977
0.5977
0.5977
0.597698
0.5977
0.478293
0.5977
0.39083
0.680659
0.680477
0.5977
0.5977
0.5977
0.5977
0.68057
0.597701
0.5977
0.5977
0.39324
0.5977
0.570799
0.5977
0.5977
0.5977
0.5977
0.5977
0.5977
0.5977
0.5977
0.595957
0.585721
0.582879
0.5977
0.5977
0.595136
0.43436
0.5977
0.68101
0.5977
0.5977
0.5977
0.5977
0.3679
0.597698
0.5977
0.5977
0.5977
0.597717
0.5977
0.680461
0.597698
0.5977
0.597594
0.680909
0.5977
0.5977
0.5977
0.5977
0.491047
0.597701
0.5977
0.5977
0.5977
0.597713
0.5977
0.402408
0.680638
0.5977
0.381557
0.5977
0.5977
0.5977
0.5977
0.5977
0.5977
0.596091
0.5977
0.521876
0.597699
0.577086
0.413755
0.5977
0.680453
0.5977
0.393075
0.367779
0.5977
0.5977
0.680488
0.5977
0.36792
0.5977
0.680582
0.597699
0.5977
0.5977
0.5977
0.680598
0.5977
0.368049
0.469165
0.5977
0.376981
0.5977
0.5977
0.680922
0.681084
0.5977
0.368765
1.12224
0.398896
0.680445
0.5977
0.367851
0.597716
0.533692
0.681762
0.539073
1.12679
0.5977
0.5977
0.597698
0.5977
0.5977
0.597388
0.453611
0.597701
0.5977
0.5977
0.597702
0.5977
0.442252
0.367916
0.5977
0.412959
0.414569
0.5977
0.5977
0.666996
0.5977
0.5977
0.5977
0.5977
0.680591
0.680834
0.441229
0.5977
0.5977
0.5977
0.5977
0.5977
0.5977
0.674937
0.5977
0.5977
0.5977
0.5977
0.5977
0.597701
0.5977
0.5977
0.5977
0.681213
0.959415
0.597702
1.12612
0.5977
0.5977
0.597702
1.10944
0.680811
0.5977
0.5977
0.5977
0.679644
0.653743
0.5977
0.5977
0.5977
0.59753
0.495278
0.5977
0.444542
0.5977
0.435588
0.442228
0.5977
0.597699
0.5977
0.483676
0.5977
0.5977
0.367571
0.5977
0.5977
0.594291
0.597717
0.59467
0.5977
0.509562
0.5977
0.5977
0.5977
0.5977
0.597698
0.5977
0.367953
0.671609
0.5977
0.5977
0.68069
0.680752
0.5977
0.368321
0.5977
0.597698
0.5977
0.681072
0.680951
0.36788
0.5977
0.66874
0.5977
0.5977
0.593608
0.367837
0.373853
0.591801
0.5977
0.5977
0.5977
0.367864
0.5977
0.5977
0.5977
0.5977
0.597001
0.5977
0.674786
0.5977
0.586024
0.5977
0.681064
0.5977
0.5977
0.5977
0.5977
0.367961
0.386573
0.623025
0.370671
0.367214
0.596121
0.5977
0.53476
0.5977
0.527793
0.792427
0.5977
0.5977
0.680796
0.5977
0.680699
0.597712
0.389515
0.5977
0.680705
0.5977
0.5977
0.5977
0.5977
0.5977
0.680994
0.434874
0.668193
0.5977
0.680802
0.5977
0.483912
0.597705
0.36894
0.368717
0.597698
0.5977
0.5977
0.446785
0.593134
0.5977
0.5977
0.596718
0.5977
0.367836
0.597702
0.5977
0.5977
0.5977
0.612547
0.677301
0.587729
0.5977
0.679132
0.5977
0.367535
0.5977
0.5977
0.5977
0.590746
0.5977
0.5977
0.5977
0.5977
0.594404
0.5977
0.680825
0.680837
0.367852
0.5977
0.36871
0.5977
0.676284
0.5977
0.597702
0.5977
0.597699
0.5977
0.367693
0.5977
0.597701
0.5977
0.5977
0.39566
0.5977
0.5977
0.5977
0.448722
0.5977
0.680085
0.5977
0.597714
0.5977
0.5977
0.367884
0.5977
0.5977
0.5977
0.517841
0.368004
0.597699
0.5977
0.597698
0.597701
0.5977
0.681093
0.5977
0.597701
0.393335
0.597701
0.5977
0.5977
0.5977
0.5977
0.447556
0.59771
0.5977
0.5977
0.5977
0.5977
0.5977
0.5977
0.680595
0.597713
0.5977
0.597701
0.5977
0.459211
0.471595
0.5977
0.5977
0.5977
0.5977
0.5977
0.595592
0.367885
0.5977
0.71142
0.5977
0.467029
0.5977
0.597699
0.5977
0.5977
0.5977
0.597701
0.597719
0.597701
0.5977
1.11448
0.5977
1.1265
0.591742
0.5977
0.680844
0.681243
0.681209
0.597656
0.5977
0.740026
0.556509
0.681142
0.597713
0.37446
0.5977
0.597699
0.368052
0.456469
0.5977
0.5977
0.572028
0.5977
0.597701
0.5977
0.5977
0.5977
0.5977
0.680553
0.5977
0.5977
0.680502
0.5977
0.597711
0.391235
0.5977
0.5977
0.36792
0.5977
0.597698
0.678109
0.5977
0.514972
0.5977
0.5977
0.5977
0.680822
0.597702
0.5977
0.5977
0.597701
0.5977
0.5977
0.68447
0.5977
0.5977
0.370875
0.597701
0.5977
0.597706
0.5977
0.680966
0.372123
0.5977
0.446087
0.5977
0.597712
0.680611
0.597699
0.5977
0.378022
0.679387
0.597701
0.5977
0.834877
0.553247
0.597698
0.5977
0.5977
0.5977
0.5977
0.5977
0.597699
0.5977
0.5977
0.5977
0.5977
0.5977
0.5977
0.5977
0.597019
0.5977
0.680521
0.5977
0.5977
0.5977
0.597711
0.5977
0.367425
0.5977
0.597699
0.680995
0.5977
0.5977
0.5977
0.5977
0.5977
0.36747
0.450357
0.680624
0.749743
0.5977
0.597701
0.758094
0.368202
0.5977
0.597701
0.597701
0.5977
0.5977
0.5977
0.444905
0.666567
0.604432
0.59769
0.597701
0.5977
0.5977
0.5977
0.597716
0.597701
0.5977
0.5977
0.597701
0.5977
0.5977
0.5977
0.5977
0.597701
0.47229
0.5977
0.596938
0.5977
0.597698
0.5977
0.597698
0.597699
0.569898
0.5977
0.5977
0.367601
0.597703
0.597714
0.518731
0.5977
0.5977
1.11769
0.5977
0.368237
0.681569
0.5977
0.5977
0.5977
0.5977
0.5977
0.680758
0.5977
0.5977
0.597708
0.5977
0.680803
0.533402
0.378129
0.5977
0.5977
0.5977
0.5977
0.68062
0.5977
0.5977
0.5977
0.597701
0.680752
0.5977
0.367718
0.680504
0.5977
0.5977
0.5977
0.531574
0.597705
0.573375
0.5977
0.5977
0.5977
0.381675
0.5977
0.5977
0.597699
0.5977
0.681096
0.597698
0.5977
0.591913
0.5977
0.5977
0.597709
0.5977
0.597698
0.680149
0.597709
0.681165
0.680987
0.65068
0.5977
0.5977
0.5977
0.597702
0.595977
0.398426
0.596781
0.5977
0.5977
0.680609
0.5977
0.5977
0.367867
0.5977
0.5977
0.5977
0.597702
0.5977
0.5977
0.5977
0.5977
0.5977
0.5977
0.5977
0.367362
0.5977
0.597604
0.5977
0.597699
0.5977
0.5977
0.5977
0.5977
0.367846
0.392668
0.680291
0.5977
0.5977
0.594366
0.5977
0.5977
0.592634
0.680938
0.5977
0.367698
0.5977
0.367864
0.591533
0.5977
0.5977
0.5977
0.681212
0.5977
0.5977
0.5977
0.375094
0.5977
0.5977
0.591287
0.597016
0.5977
0.5977
0.680607
0.367822
1.12652
0.662042
0.407764
0.5977
0.597698
0.5977
0.367867
0.469299
0.597717
0.5977
0.674583
0.5977
0.5977
0.5977
0.5977
0.5977
0.5977
0.367664
0.5977
0.36906
0.5977
0.395518
0.5977
0.597209
0.5977
0.5977
0.460834
0.680412
0.552691
0.398803
0.5977
0.5977
0.5977
0.5977
0.597715
0.5977
0.680888
0.5977
0.5977
0.5977
0.5977
0.5977
0.386968
0.5977
0.680862
0.5977
0.367808
0.5977
0.5977
0.5977
0.5977
0.5977
0.5977
0.5977
0.5977
0.5977
0.5977
0.5977
0.5977
0.5977
0.5977
0.369918
0.597699
0.597698
0.38256
0.5977
0.597702
0.5977
0.5977
0.5977
0.5977
0.5977
0.5977
0.597715
0.409099
0.597705
0.373402
0.5977
0.597672
0.405333
0.597405
0.680975
0.5977
0.5977
0.5977
0.5977
0.5977
0.5977
0.5977
0.5977
0.681125
0.596097
0.5977
0.5977
0.5977
0.5977
0.680544
0.5977
0.592869
0.5977
0.5977
0.5977
0.5977
0.367765
0.5977
0.5977
0.5977
0.5977
0.5977
0.5977
0.5977
0.5977
0.421248
0.5977
0.36775
0.5977
0.5977
0.680901
0.5977
0.5977
0.597699
0.597702
1.11973
0.5977
0.5977
0.5977
0.589631
0.539517
0.5977
0.597706
0.5977
0.681155
0.680108
0.5977
0.5977
0.680889
0.5977
1.11936
0.5977
0.5977
0.5977
0.5977
0.5977
1.11757
0.5977
0.5977
0.5977
0.5977
0.5977
0.597683
0.699166
0.5977
0.668957
0.5977
0.40768
0.720903
0.595152
0.5977
0.414763
0.367877
0.53983
0.5977
0.367234
0.577587
0.597674
0.5977
0.447816
0.5977
0.679461
0.5977
0.6807
0.5977
1.1018
0.5977
0.5977
0.5977
0.676046
0.589279
0.5977
0.580343
0.5977
0.5977
0.367761
0.5977
0.597703
0.5977
0.371503
0.680243
0.5977
0.5977
0.468644
0.5977
0.5977
0.367825
0.597698
0.5977
0.597716
0.597699
0.597701
0.5977
0.5977
0.597703
1.0419
0.5977
0.367923
0.5977
0.5977
0.5977
0.5977
0.611974
0.5977
0.372713
0.5977
0.68055
0.5977
0.5977
0.5977
0.5977
0.5977
0.5977
0.597678
0.5977
0.5977
0.368986
0.521939
0.5977
0.597698
0.596655
0.5977
0.5977
0.5977
0.5977
0.5977
0.5977
0.5977
0.369694
0.367879
0.5977
0.593815
1.12699
0.5977
0.597699
0.5977
0.5977
0.597701
0.5977
0.5977
0.368796
0.5977
0.59342
0.5977
0.5977
0.367934
0.616467
0.587377
0.5977
0.5977
0.5977
0.5977
0.367788
0.396216
0.5977
0.5977
0.680865
0.5977
0.368146
0.5977
0.36788
0.5977
0.679971
0.597698
0.405685
0.5977
0.680432
0.5977
0.5977
0.5977
0.591893
0.680702
0.5977
0.5977
0.597703
0.410541
0.5977
0.5977
1.12686
0.467623
0.5977
0.591707
0.5977
0.5977
0.5977
0.680649
0.698922
0.5977
0.5977
0.600649
0.597699
0.681056
0.543639
0.367947
0.5977
0.5977
0.597699