# vtk DataFile Version 1.0
unstructured grid
ascii
DATASET UNSTRUCTURED_GRID
points 13672 float
0.0796578 -0.059106 0
0.00128732 0.00159165 0
0.00227961 -0.00102548 0
0.0791586 -0.0598787 0
-0.0546216 0.01 0
0.000495206 0.025 0
0.0800549 -0.035 0
0.135172 -0.08 0
-0.0546216 -0.0451168 0
0.000495206 -0.0301168 0
0.0800549 -0.0901168 0
0.135172 -0.135117 0
-0.0546216 -0.0451168 -0.00551168
0.000495206 -0.0301168 -0.00551168
0.0800549 -0.0901168 -0.00551168
0.135172 -0.135117 -0.00551168
0.135172 -0.08 -0.00551168
0.0800549 -0.035 -0.00551168
0.000495206 0.025 -0.00551168
-0.0546216 0.01 -0.00551168
0.00128732 0.00159165 -0.00551168
0.00227961 -0.00102548 -0.00551168
0.0791586 -0.0598787 -0.00551168
0.0796578 -0.059106 -0.00551168
0.00165953 -0.000990923 0
0.00119576 -0.000874076 0
0.000866021 -0.000641801 0
0.000645147 -0.000349912 0
0.00052235 -1.7281e-05 0
0.00049972 0.000348016 0
0.000601632 0.000737716 0
0.000861774 0.0011403 0
0.00157235 0.00183217 0
0.00188647 0.00206725 0
0.00222612 0.00230203 0
0.00258713 0.00254351 0
0.00296826 0.00279524 0
0.00337118 0.00305664 0
0.00379785 0.00332658 0
0.00425045 0.00360349 0
0.00473139 0.00388521 0
0.0052432 0.00416895 0
0.0057881 0.00445204 0
0.00636753 0.00473281 0
0.00698281 0.00500961 0
0.00763526 0.00528058 0
0.00832616 0.00554366 0
0.00905691 0.00579603 0
0.00982918 0.00603333 0
0.0106445 0.00625033 0
0.0115038 0.00644128 0
0.0124073 0.00660297 0
0.0133543 0.00673414 0
0.0143444 0.00683382 0
0.0153769 0.00690031 0
0.0164512 0.00693173 0
0.0175666 0.00692547 0
0.0187219 0.00687822 0
0.0199156 0.00678477 0
0.0211454 0.00663864 0
0.0224084 0.00643275 0
0.0237018 0.00616676 0
0.0250249 0.00584739 0
0.026375 0.00547298 0
0.0277479 0.00503752 0
0.0291386 0.00453545 0
0.0305433 0.0039653 0
0.0319572 0.0033256 0
0.0333681 0.00260019 0
0.034775 0.00179799 0
0.0361793 0.000930615 0
0.0375798 3.12222e-06 0
0.0389689 -0.000988429 0
0.0403357 -0.00205109 0
0.041675 -0.00318283 0
0.0429849 -0.00437751 0
0.0442643 -0.00562904 0
0.0455126 -0.00693089 0
0.0467314 -0.00827518 0
0.0479204 -0.00965638 0
0.0490661 -0.0110799 0
0.0501515 -0.0125519 0
0.0511696 -0.0140695 0
0.0521492 -0.0156071 0
0.0531202 -0.0171411 0
0.0540851 -0.0186663 0
0.0550431 -0.0201798 0
0.0559923 -0.0216793 0
0.0569311 -0.0231626 0
0.0578582 -0.0246273 0
0.0587723 -0.0260715 0
0.0596721 -0.027493 0
0.0605563 -0.02889 0
0.0614241 -0.0302609 0
0.0622742 -0.0316042 0
0.063106 -0.0329183 0
0.0639186 -0.034202 0
0.0647113 -0.0354543 0
0.0654835 -0.0366743 0
0.0662345 -0.0378613 0
0.0669642 -0.0390145 0
0.0676726 -0.0401333 0
0.0683597 -0.0412172 0
0.0690246 -0.0422665 0
0.0696662 -0.0432819 0
0.0702841 -0.0442636 0
0.0708793 -0.0452111 0
0.0714538 -0.0461237 0
0.072009 -0.047001 0
0.0725452 -0.0478434 0
0.0730611 -0.0486524 0
0.073556 -0.0494294 0
0.0740291 -0.0501756 0
0.0744812 -0.0508916 0
0.0749138 -0.0515773 0
0.0753285 -0.0522331 0
0.0757266 -0.0528592 0
0.076109 -0.0534564 0
0.0764753 -0.0540264 0
0.0768243 -0.054571 0
0.0771553 -0.0550919 0
0.0774679 -0.0555901 0
0.0777617 -0.0560669 0
0.0780369 -0.056523 0
0.0782958 -0.0569578 0
0.0785421 -0.0573703 0
0.0787786 -0.0577603 0
0.0790073 -0.0581279 0
0.0792295 -0.058474 0
0.0794462 -0.0587995 0
0.0798803 -0.0594162 0
0.0800272 -0.0596588 0
0.0800357 -0.0598891 0
0.0799275 -0.0600784 0
0.0797205 -0.0601773 0
0.0794593 -0.0601051 0
0.0789155 -0.0596491 0
0.0786707 -0.0593963 0
0.0784111 -0.0591319 0
0.0781372 -0.0588542 0
0.0778566 -0.0585548 0
0.0775715 -0.0582308 0
0.0772803 -0.0578828 0
0.0769832 -0.0575099 0
0.0766822 -0.0571097 0
0.0763801 -0.0566796 0
0.0760759 -0.0562196 0
0.0757623 -0.0557337 0
0.0754359 -0.0552232 0
0.0750951 -0.0546879 0
0.0747379 -0.054128 0
0.0743626 -0.0535435 0
0.0739688 -0.0529338 0
0.0735559 -0.0522981 0
0.0731238 -0.0516357 0
0.0726718 -0.050946 0
0.0721991 -0.0502288 0
0.0717046 -0.049484 0
0.0711872 -0.0487117 0
0.0706461 -0.047912 0
0.0700804 -0.0470849 0
0.0694892 -0.0462308 0
0.0688718 -0.0453499 0
0.0682271 -0.0444431 0
0.0675544 -0.043511 0
0.0668527 -0.0425546 0
0.0661215 -0.0415748 0
0.06536 -0.040573 0
0.0645676 -0.0395504 0
0.0637439 -0.0385087 0
0.0628887 -0.0374493 0
0.062002 -0.0363741 0
0.0610838 -0.0352847 0
0.0601345 -0.0341831 0
0.0591547 -0.033071 0
0.0581456 -0.0319502 0
0.0571083 -0.0308224 0
0.0560444 -0.0296893 0
0.0549562 -0.028552 0
0.053845 -0.0274126 0
0.0527113 -0.0262746 0
0.051554 -0.0251427 0
0.0503724 -0.0240222 0
0.0491675 -0.0229164 0
0.047941 -0.0218282 0
0.0466955 -0.0207597 0
0.0454337 -0.0197126 0
0.0441592 -0.0186878 0
0.0428751 -0.0176863 0
0.0415841 -0.0167097 0
0.0402878 -0.0157609 0
0.0389879 -0.0148428 0
0.0376864 -0.0139575 0
0.0363853 -0.013107 0
0.0350871 -0.0122931 0
0.0337942 -0.0115164 0
0.0325095 -0.0107772 0
0.0312357 -0.0100756 0
0.0299758 -0.00941024 0
0.0287337 -0.00877784 0
0.0275126 -0.00817571 0
0.0263139 -0.00760375 0
0.0251376 -0.00706528 0
0.0239829 -0.0065649 0
0.0228537 -0.00609619 0
0.0217522 -0.00565563 0
0.0206795 -0.00524226 0
0.0196364 -0.00485507 0
0.0186233 -0.00449318 0
0.0176408 -0.00415577 0
0.016689 -0.00384204 0
0.0157682 -0.00355115 0
0.0148783 -0.00328218 0
0.0140192 -0.00303468 0
0.0131906 -0.00280795 0
0.0123925 -0.00260016 0
0.0116246 -0.00241012 0
0.0108864 -0.00223769 0
0.0101774 -0.00208212 0
0.00949701 -0.00194206 0
0.00884483 -0.0018163 0
0.0082202 -0.0017039 0
0.00762247 -0.00160391 0
0.00705097 -0.00151528 0
0.006505 -0.00143697 0
0.0059838 -0.00136806 0
0.00548662 -0.00130772 0
0.00501265 -0.00125519 0
0.00456114 -0.00120954 0
0.00413136 -0.00116914 0
0.00372257 -0.00113251 0
0.00333398 -0.00109853 0
0.00296466 -0.00106798 0
0.00261363 -0.0010431 0
-0.052721 -0.0445996 0
-0.0508204 -0.0440823 0
-0.0489199 -0.0435651 0
-0.0470193 -0.0430478 0
-0.0451187 -0.0425306 0
-0.0432181 -0.0420134 0
-0.0413175 -0.0414961 0
-0.039417 -0.0409789 0
-0.0375164 -0.0404616 0
-0.0356158 -0.0399444 0
-0.0337152 -0.0394271 0
-0.0318146 -0.0389099 0
-0.0299141 -0.0383927 0
-0.0280135 -0.0378754 0
-0.0261129 -0.0373582 0
-0.0242123 -0.0368409 0
-0.0223117 -0.0363237 0
-0.0204112 -0.0358065 0
-0.0185106 -0.0352892 0
-0.01661 -0.034772 0
-0.0147094 -0.0342547 0
-0.0128088 -0.0337375 0
-0.0109083 -0.0332202 0
-0.00900769 -0.032703 0
-0.00710711 -0.0321858 0
-0.00520653 -0.0316685 0
-0.00330595 -0.0311513 0
-0.00140537 -0.030634 0
0.00190689 -0.0299614 0
0.00332271 -0.0298498 0
0.00474133 -0.0297825 0
0.00616136 -0.0297597 0
0.0075814 -0.0297814 0
0.00900007 -0.0298477 0
0.010416 -0.0299583 0
0.0118278 -0.0301127 0
0.0132342 -0.0303103 0
0.0146339 -0.0305504 0
0.0160259 -0.0308322 0
0.0174091 -0.0311546 0
0.0187824 -0.0315166 0
0.020145 -0.031917 0
0.0214961 -0.0323546 0
0.0228351 -0.032828 0
0.0241613 -0.0333361 0
0.0254744 -0.0338774 0
0.0267738 -0.0344507 0
0.0280592 -0.0350545 0
0.0293306 -0.0356877 0
0.0305875 -0.0363488 0
0.0318301 -0.0370367 0
0.0330581 -0.0377501 0
0.0342717 -0.0384879 0
0.0354708 -0.0392489 0
0.0366556 -0.0400321 0
0.0378262 -0.0408363 0
0.0389828 -0.0416607 0
0.0401254 -0.0425042 0
0.0412543 -0.0433659 0
0.0423698 -0.0442451 0
0.043472 -0.0451408 0
0.0445612 -0.0460523 0
0.0456375 -0.0469789 0
0.0467013 -0.0479199 0
0.0477529 -0.0488746 0
0.0487923 -0.0498424 0
0.04982 -0.0508227 0
0.0508362 -0.051815 0
0.051841 -0.0528187 0
0.0528348 -0.0538333 0
0.0538178 -0.0548584 0
0.0547903 -0.0558935 0
0.0557524 -0.0569382 0
0.0567045 -0.0579922 0
0.0576467 -0.0590549 0
0.0585792 -0.0601261 0
0.0595024 -0.0612055 0
0.0604163 -0.0622926 0
0.0613212 -0.0633873 0
0.0622174 -0.0644891 0
0.0631049 -0.0655979 0
0.0639841 -0.0667134 0
0.064855 -0.0678353 0
0.0657179 -0.0689633 0
0.0665729 -0.0700974 0
0.0674202 -0.0712372 0
0.06826 -0.0723826 0
0.0690925 -0.0735333 0
0.0699178 -0.0746892 0
0.070736 -0.0758501 0
0.0715473 -0.0770159 0
0.0723518 -0.0781863 0
0.0731498 -0.0793612 0
0.0739412 -0.0805405 0
0.0747264 -0.081724 0
0.0755053 -0.0829116 0
0.0762781 -0.0841033 0
0.0770449 -0.0852987 0
0.0778059 -0.0864979 0
0.0785611 -0.0877007 0
0.0793108 -0.088907 0
0.0814681 -0.0912706 0
0.0828814 -0.0924245 0
0.0842946 -0.0935783 0
0.0857079 -0.0947322 0
0.0871211 -0.095886 0
0.0885344 -0.0970399 0
0.0899476 -0.0981937 0
0.0913609 -0.0993476 0
0.0927741 -0.100501 0
0.0941874 -0.101655 0
0.0956006 -0.102809 0
0.0970139 -0.103963 0
0.0984272 -0.105117 0
0.0998404 -0.106271 0
0.101254 -0.107424 0
0.102667 -0.108578 0
0.10408 -0.109732 0
0.105493 -0.110886 0
0.106907 -0.11204 0
0.10832 -0.113194 0
0.109733 -0.114348 0
0.111146 -0.115501 0
0.11256 -0.116655 0
0.113973 -0.117809 0
0.115386 -0.118963 0
0.116799 -0.120117 0
0.118213 -0.121271 0
0.119626 -0.122424 0
0.121039 -0.123578 0
0.122452 -0.124732 0
0.123866 -0.125886 0
0.125279 -0.12704 0
0.126692 -0.128194 0
0.128105 -0.129348 0
0.129519 -0.130501 0
0.130932 -0.131655 0
0.132345 -0.132809 0
0.133758 -0.133963 0
0.135172 -0.133216 0
0.135172 -0.131316 0
0.135172 -0.129415 0
0.135172 -0.127514 0
0.135172 -0.125614 0
0.135172 -0.123713 0
0.135172 -0.121813 0
0.135172 -0.119912 0
0.135172 -0.118012 0
0.135172 -0.116111 0
0.135172 -0.11421 0
0.135172 -0.11231 0
0.135172 -0.110409 0
0.135172 -0.108509 0
0.135172 -0.106608 0
0.135172 -0.104708 0
0.135172 -0.102807 0
0.135172 -0.100906 0
0.135172 -0.0990058 0
0.135172 -0.0971052 0
0.135172 -0.0952046 0
0.135172 -0.0933041 0
0.135172 -0.0914035 0
0.135172 -0.0895029 0
0.135172 -0.0876023 0
0.135172 -0.0857017 0
0.135172 -0.0838012 0
0.135172 -0.0819006 0
0.133758 -0.0788462 0
0.132345 -0.0776923 0
0.130932 -0.0765385 0
0.129519 -0.0753846 0
0.128105 -0.0742308 0
0.126692 -0.0730769 0
0.125279 -0.0719231 0
0.123866 -0.0707692 0
0.122452 -0.0696154 0
0.121039 -0.0684615 0
0.119626 -0.0673077 0
0.118213 -0.0661538 0
0.116799 -0.065 0
0.115386 -0.0638462 0
0.113973 -0.0626923 0
0.11256 -0.0615385 0
0.111146 -0.0603846 0
0.109733 -0.0592308 0
0.10832 -0.0580769 0
0.106907 -0.0569231 0
0.105493 -0.0557692 0
0.10408 -0.0546154 0
0.102667 -0.0534615 0
0.101254 -0.0523077 0
0.0998404 -0.0511538 0
0.0984272 -0.05 0
0.0970139 -0.0488462 0
0.0956006 -0.0476923 0
[...]
CELL_DATA 13116
SCALARS rho float
LOOKUP_TABLE default
0.5977
0.65781
0.526741
0.689604
0.68899
0.68084
0.392206
0.693781
0.5977
0.69177
0.371693
0.535454
0.689124
0.468039
0.486756
0.680761
0.5977
0.5977
0.68093
0.369041
0.5977
0.533886
0.511708
0.597704
0.5977
0.70211
0.692481
0.590959
0.5977
0.5977
0.673353
0.525648
0.5977
0.5977
0.399062
0.5977
0.5977
0.680922
0.680816
0.690809
0.680916
0.692778
0.5977
0.499471
0.680764
0.680717
0.659206
0.681214
0.520378
0.5977
0.690456
0.5977
0.423878
0.5977
0.5977
0.5977
0.496892
0.597559
0.5977
0.504361
0.471892
0.690532
0.650132
0.680783
0.678212
0.444396
0.680935
0.5977
0.680979
0.680896
0.48606
0.5977
0.539435
0.475143
0.808497
0.45043
0.5977
0.682679
0.375062
0.5977
0.5977
0.703943
0.597493
0.681108
0.681136
0.596202
0.406036
0.5977
0.702102
0.367632
0.537062
0.672224
0.587451
0.699113
0.5977
0.5977
0.5977
0.662098
0.69782
0.5977
0.5977
0.5977
0.680834
0.5977
0.668347
0.516447
0.584926
0.5977
0.55156
0.5977
0.5977
0.708558
0.5977
0.5977
0.5977
0.680804
0.429584
0.597713
0.680858
0.680777
0.5977
0.553995
0.680876
0.536798
0.699879
0.597698
0.412605
0.5977
0.527113
0.5977
0.680828
0.680267
0.597699
0.525322
0.597704
0.5977
1.12654
0.680674
0.5977
0.68067
0.5977
0.668627
0.5977
0.5977
0.597694
0.486864
0.396282
0.702355
0.686802
0.691712
0.5977
0.681046
0.6812
0.410507
0.692085
0.680998
0.529792
0.5977
0.674274
0.5977
0.597704
0.371987
0.592821
0.530282
0.560764
0.689621
0.700375
0.5977
0.396461
0.59771
0.597711
1.12662
0.483174
0.5977
0.680754
0.512115
0.502574
0.537973
0.710019
0.680926
0.367895
0.597708
0.5977
0.5977
0.681058
0.5977
0.410016
0.680964
0.721995
0.5977
0.5977
0.702938
0.68105
0.554089
0.70747
0.680691
0.692013
0.680903
0.703286
0.5977
0.5977
0.5977
0.5977
0.482826
0.681118
0.680343
0.5977
0.5977
0.494745
0.367555
0.446976
0.680898
0.541588
0.367649
0.368042
0.415745
0.597491
0.680909
0.700381
0.593414
0.488833
0.680975
0.5977
0.367965
0.5977
0.691213
0.597703
0.597478
0.680817
0.58907
0.693877
0.52759
0.680765
0.5977
0.719313
0.692151
0.681061
0.530006
0.597698
0.5977
0.921877
0.680749
1.12616
0.680967
0.694741
0.508052
0.691017
0.690907
0.681297
0.382526
0.524616
0.680898
0.680706
0.680622
0.680768
0.5977
0.5977
0.37013
0.545423
0.5977
0.492379
0.610134
0.692351
0.5977
0.387876
0.681092
0.424592
0.597411
0.669002
0.381729
0.702757
0.690795
1.05665
0.59745
0.52713
1.08562
0.597702
0.666302
0.680631
0.370718
0.397344
0.55665
0.5977
0.54957
0.542327
0.577691
0.571852
0.681022
0.433674
0.6919
0.688152
0.398431
0.368656
0.419015
0.5977
0.564358
0.5977
0.5977
0.717166
0.378359
0.681025
0.5977
0.552257
0.503175
0.680897
0.680788
0.680963
0.415276
0.680695
0.5977
0.680289
0.691897
0.692711
0.691521
0.560141
0.680774
0.465009
0.680907
0.690074
0.5977
0.368135
0.576187
0.690765
0.419382
0.681378
0.690103
0.597711
0.5977
0.597573
0.40737
0.680967
0.586746
0.463618
0.679559
0.594406
0.5977
0.697731
0.59552
0.5977
0.387561
0.597702
0.578754
0.681022
0.597704
0.697232
0.596904
0.589671
0.68117
0.406755
0.680909
0.718204
0.59771
1.1268
0.406917
0.517466
0.680831
0.5977
0.5977
0.403302
0.532828
0.691791
0.688211
0.390509
0.689001
0.445584
0.521111
0.680796
0.697001
0.5977
0.367792
0.680824
0.672947
0.680697
0.681065
0.674957
0.5977
0.597711
0.482552
0.367912
0.680744
0.367971
0.5977
0.597712
0.546491
0.586878
0.5977
0.553922
0.401453
0.681093
0.542539
0.640281
0.5977
0.680787
0.5977
0.691369
0.521651
0.394514
0.5977
0.59754
0.680815
0.5977
0.680885
0.5977
0.597682
0.5977
0.704173
0.5977
0.5977
0.678732
0.5977
0.680933
0.597698
0.5977
0.5977
0.524095
0.5977
0.5977
0.421404
0.680827
1.06419
0.563173
0.367841
0.368104
0.400464
0.5977
0.443131
0.553995
0.680867
0.44345
0.5977
0.367584
0.680532
0.597084
0.591034
0.525725
0.680827
0.597704
0.3676
0.399806
0.367799
0.554735
0.395142
0.367871
0.551056
0.597693
0.367479
0.5977
0.587259
0.67907
0.5977
0.535259
0.597705
0.491212
0.367581
0.494174
0.680747
0.597712
0.5977
0.5977
0.43751
0.5977
0.701398
0.595988
0.5977
0.5977
0.5977
0.393595
0.727125
0.597704
0.632284
0.664742
0.571916
0.430793
0.719378
0.597705
0.5954
0.597704
0.58481
0.5977
0.595396
0.368539
0.49746
0.469146
0.5977
0.498689
0.44832
0.482677
0.462114
0.689955
0.689637
0.597699
0.5977
0.597701
0.70935
0.594555
0.435435
0.5977
0.575312
0.6806
0.570797
0.593958
0.5977
0.681033
0.701849
0.5977
0.597711
0.425314
0.5977
0.693111
0.680877
0.5977
0.636166
0.585078
0.367491
0.597617
0.5977
0.5977
0.580824
0.562132
0.5977
0.695106
0.5977
0.690576
0.696942
0.700312
0.597703
0.5977
0.680743
0.367843
0.681162
0.580782
0.502339
0.367577
0.68955
0.680477
0.57375
0.680857
0.5977
0.36814
0.680617
0.680786
0.627703
0.587159
0.43016
0.68048
0.367767
0.367764
0.501552
0.367549
0.681049
0.456435
0.688903
0.58245
0.631707
0.69071
0.681107
0.688592
0.367726
0.367874
0.680757
0.693504
0.5977
0.689836
0.691144
0.597708
0.402462
0.584629
0.681073
0.5977
0.368158
0.597706
0.54484
0.696592
0.68062
0.578911
0.5396
0.678935
0.596268
0.681051
0.5977
0.520804
0.58917
0.5977
0.973102
0.534032
0.702282
0.700457
0.680674
0.436223
1.12559
0.486919
0.767192
0.5977
0.367832
0.597245
0.544348
0.719073
0.552215
0.386065
0.597714
0.680557
0.679132
0.382781
0.542215
0.367387
0.680952
0.544753
0.680889
0.483475
0.5977
0.691006
0.5977
0.52524
0.516135
0.597707
0.586676
0.702463
0.425761
0.450902
0.680814
0.449428
0.680714
0.680575
0.678056
0.367965
0.680622
0.644407
0.692192
0.681104
0.699696
0.680689
0.509201
0.680873
0.594311
0.681078
0.371671
0.694113
0.5977
0.404502
0.674317
0.680576
0.413144
0.5977
0.536547
0.481633
0.680836
0.680838
0.543408
0.495133
0.378164
0.50985
0.697339
0.597704
0.431271
0.371123
0.680813
0.680631
0.5977
0.651082
0.680908
0.370599
0.694421
0.597712
0.690488
0.597714
0.5977
0.597708
0.680719
0.5977
0.5977
0.592017
0.584656
0.681084
0.5977
0.5977
0.62423
0.48468
0.597679
0.692322
0.58935
0.5977
0.679885
0.597712
0.679746
0.5977
0.575014
0.681174
0.5977
0.528023
0.6693
0.553592
0.691628
0.474613
0.680941
0.637203
0.595304
0.680588
0.602507
0.679996
0.5977
0.60958
0.5977
0.571836
0.5977
0.540417
0.472861
1.12675
0.5977
0.680707
0.685465
0.367955
0.576057
0.674652
0.691303
0.680897
0.691243
0.367692
0.5977
0.69082
0.368378
0.543536
0.680856
0.680951
0.678892
0.514653
0.5977
0.597703
0.620639
0.680954
0.680845
0.680915
0.368065
0.681162
0.685468
0.593017
0.680446
0.6805
0.5938
0.677664
0.367617
0.597701
0.691491
0.59771
0.595606
0.680821
0.691008
0.5977
0.597699
0.5977
0.5977
0.367803
0.367726
0.386142
0.36751
0.624197
0.597703
0.680705
0.575261
0.367609
0.680918
0.5977
0.460104
0.578343
0.597708
0.5977
0.680986
0.680984
0.597702
0.367563
0.367763
1.12558
0.535424
0.36775
0.431135
0.680751
0.597723
0.367638
0.5977
0.680928
0.71228
0.680699
0.681184
0.432058
0.464599
0.381106
0.5977
0.597711
0.530874
0.5977
0.5977
0.680699
0.680713
0.51958
0.367761
0.690784
0.367914
0.6805
0.653476
0.657599
0.543733
0.367843
0.694734
0.672314
0.5977
0.459642
0.681053
0.680845
0.5977
0.691656
0.692116
1.12215
0.604636
0.367843
0.68117
0.679147
0.5977
0.593625
1.12687
0.708684
1.115
0.680577
0.448312
0.476841
0.367711
0.668683
0.5977
0.367919
0.676604
0.680462
0.533125
0.5977
0.597611
0.5977
0.5977
0.526381
0.690997
0.597702
0.368064
0.5977
0.673079
0.501609
0.699167
0.455051
0.513324
0.5977
0.5977
0.597705
0.68095
0.391722
0.615037
0.493196
0.523985
0.680829
0.368187
0.5977
0.542492
0.5977
0.5977
1.11506
0.700969
0.481321
0.456067
0.5977
0.5977
0.680864
0.5977
0.5977
0.68103
0.59684
0.5977
0.5977
0.709153
0.694231
0.680847
0.580267
0.367856
0.5977
0.707914
0.697117
0.597713
0.68074
0.5977
0.5977
0.542551
0.5977
0.5977
1.12616
0.736304
0.597703
0.597701
0.680827
0.5977
0.533543
0.5977
0.597708
0.693428
0.680949
0.570042
0.699549
0.689093
0.486611
0.519423
0.416439
1.12687
0.371546
0.5977
0.668028
0.5977
0.557693
0.680965
0.482223
0.5977
0.680656
0.680922
0.5977
0.680813
0.5977
0.5977
0.5977
0.680992
0.477974
0.680887
0.68109
0.5977
1.0756
0.596312
0.562232
0.484657
0.505964
0.692537
0.367952
1.09313
0.381202
0.693948
0.434111
0.597708
0.509839
0.601145
0.690653
0.5977
0.561189
0.5977
0.680944
0.367948
0.5977
0.689633
0.52915
0.5977
0.66429
0.691217
0.680523
0.57795
0.5977
0.680875
0.680894
0.597701
0.367777
0.597702
0.680909
1.12639
0.977524
1.12675
0.5977
0.680042
0.5977
0.680682
0.367822
0.4858
1.12664
0.68811
0.680539
0.45149
0.680944
0.5977
0.5977
0.474003
0.594396
0.689013
0.68933
0.5977
0.597712
0.680666
0.998544
0.389666
0.5977
0.597702
0.391201
0.534434
0.467596
0.714882
0.548165
0.367843
0.681009
0.5977
0.694124
0.5977
0.399057
0.39891
0.689779
0.479242
0.443744
0.671912
0.534184
0.596513
0.5977
0.700273
0.680678
0.367564
0.597716
0.374043
0.68023
0.51964
0.680706
0.446575
0.680021
0.699643
0.680928
0.674833
0.679743
0.67992
0.680895
0.688785
0.680661
0.451499
0.370703
0.663449
0.680815
0.597704
0.713801
0.5977
0.680879
0.5977
0.586763
0.680774
0.689984
0.681423
0.387118
0.680849
0.558869
0.681027
0.597707
0.5977
0.681063
0.527987
0.681157
0.367623
0.5977
0.630031
0.436782
0.5977
1.12687
0.69607
0.405048
0.680734
0.367534
0.542105
0.547468
0.368033
0.5977
0.48762
0.5977
0.681043
0.597712
0.556613
0.597708
0.5977
0.5977
0.597702
0.367913
0.426832
0.386744
0.506845
0.559974
0.5977
0.706384
0.593275
0.680577
0.671425
0.46402
0.690431
0.5977
0.680987
0.376108
0.842351
0.590743
0.679137
0.693667
0.498182
0.680047
0.680905
0.680592
0.5977
0.680704
0.544775
0.549363
0.680968
0.5977
0.367845
0.680837
0.530541
0.5977
0.5977
0.688737
0.682947
0.537647
0.716042
0.5977
0.387367
0.5977
0.680522
0.684861
0.687398
0.5977
0.54262
0.688574
0.501589
0.597705
0.689209
0.721296
0.680807
0.38258
0.549214
0.690988
0.553383
0.680889
0.5977
0.597712
0.568784
0.68076
0.540814
0.680966
0.681105
0.5977
0.542481
0.481554
0.5977
0.5977
0.5977
0.5977
0.680807
0.597453
0.679435
1.12681
0.679417
0.408469
0.565207
0.680197
0.68068
0.5977
0.597711
0.476039
0.597707
0.478776
0.680813
0.5977
0.59771
0.681077
0.367757
0.700347
0.528731
0.688328
0.522647
0.680748
0.680935
0.532638
0.699583
0.5977
0.53858
0.680942
0.681119
0.5977
0.486724
0.597712
0.5977
0.671264
0.597702
0.584079
0.5977
0.680358
0.680863
0.55885
0.5977
0.68084
0.595636
0.680897
0.681012
0.567093
0.680916
0.664396
0.519572
0.5977
0.390666
0.5977
0.39827
0.514064
0.685969
0.367823
0.367354
0.476287
0.680971
0.680765
0.597699
0.680662
0.597663
0.597703
0.367548
0.680556
0.597712
0.680842
0.681141
0.5977
0.680626
0.5977
0.680927
0.681088
0.563457
0.5977
0.5977
0.5977
0.679411
0.597707
0.5977
0.688787
0.36818
0.5977
0.597701
0.680878
0.449795
0.551567
0.597701
0.680952
0.368159
0.682868
0.5977
1.12696
0.691481
0.785466
0.367905
0.690707
0.367845
0.538249
0.700143
0.597704
0.693052
0.679275
0.524249
0.403905
0.376686
0.676197
0.681065
0.597703
0.699202
0.44301
0.404306
0.456935
0.700326
0.597715
0.689722
0.680873
0.5977
0.680782
0.680476
0.5977
0.5977
0.596286
0.537101
0.367966
0.787379
0.871619
0.457409
0.5977
0.713991
0.5977
0.570988
0.5977
0.596376
0.567895
0.597703
0.5977
0.367676
0.680532
0.651191
0.367794
0.680708
0.438816
0.680879
0.694431
0.680618
0.482971
0.597643
0.5977
0.570958
0.595066
0.681027
0.576672
0.680438
0.680893
0.702582
0.5977
0.597697
0.670295
0.5977
0.680966
0.584633
0.690821
0.507871
0.478067
0.68071
0.680916
0.680639
0.560781
0.681032
0.5977
0.822245
0.432482
0.443453
0.36767
0.683841
0.3854
0.448973
0.521494
0.5977
0.444824
0.569142
0.596795
0.680683
0.367656
0.680683
0.680895
0.67942
0.410507
0.680585
0.5977
0.680567
0.59535
0.5977
0.400325
0.368071
0.680608
0.368183
0.5977
0.673105
1.12265
0.367539
0.576717
0.408533
0.5977
1.12666
0.562744
0.680793
0.680958
0.5977
0.367834
0.497888
0.579696
0.597672
0.367878
1.1268
0.5977
0.680822
0.681064
0.369887
0.5977
0.512638
0.5977
0.5977
0.690828
0.5977
0.5977
0.5977
0.597701
0.686393
0.379665
0.597699
0.452115
0.5977
0.5977
0.744679
0.36755
0.597714
0.652124
0.680853
0.680605
0.36799
0.685186
0.5977
0.5977
0.597703
0.568795
0.367913
0.568591
0.680854
0.680843
0.5977
0.711248
0.579689
0.696335
0.5977
0.680797
0.680765
0.695373
0.690311
0.681034
0.597523
0.679168
0.581023
0.680637
0.690977
0.680568
0.680602
0.68102
0.5977
0.367863
0.527573
0.5977
0.367714
0.597711
0.691435
0.469196
0.5977
0.681018
0.671585
0.681368
0.572465
0.695912
0.54928
0.470965
0.681043
0.6802
0.68068
0.420162
0.689071
0.680952
0.5977
0.681081
0.522253
0.68057
0.69102
0.597894
0.5977
0.597704
0.370014
0.687896
0.445853
0.367863
0.5977
0.597709
0.691021
0.590885
0.680587
0.513569
0.680666
0.597699
0.47555
0.705297
0.597708
0.367746
0.680935
0.537756
0.597702
0.5977
0.589194
0.679783
0.597708
0.5977
0.5977
0.680995
0.5977
0.686084
0.5977
0.692523
0.710905
0.5977
0.514634
0.373934
0.59771
0.683784
0.562869
0.5977
0.689657
0.5977
0.680917
0.5977
0.5977
0.5977
0.376848
0.678798
0.71955
0.5977
0.720433
0.689442
0.702318
0.680853
0.3678
0.460029
0.68116
0.5977
0.5977
0.680913
0.680962
0.680532
0.695639
0.695654
0.5977
0.597096
0.689974
0.464175
0.543239
0.455185
0.594958
1.08259
0.597699
0.5977
0.681037
0.5977
0.549102
0.681221
0.689356
0.426633
0.59558
1.00336
0.680886
0.589392
0.517017
0.50334
1.12689
0.703179
0.5977
0.407424
0.367769
0.527177
0.597606
0.367743
0.694828
0.681259
0.626211
0.381981
0.675629
0.5977
0.5977
0.579521
0.36813
0.704386
1.1265
0.367566
0.680617
0.367772
0.597703
0.577145
0.680525
0.384345
0.680564
0.688812
0.403796
0.5977
0.557753
0.690525
0.535893
0.5977
0.522618
0.5977
0.398214
0.5977
0.36776
0.680542
0.680736
0.5977
0.679403
0.583941
0.680527
0.680501
0.689027
0.5977
0.597704
0.367967
0.5977
0.453601
0.581009
0.567417
0.689044
0.5977
0.597703
0.691209
0.5977
0.679887
0.47728
0.464913
0.462723
0.5977
0.5977
0.68081
0.376245
0.536133
0.680782
0.589313
0.537566
0.5977
0.596823
0.367501
0.525229
0.692806
0.5977
0.5977
0.500668
0.68009
0.680638
0.527124
0.578909
0.680592
0.681139
0.5977
0.5977
0.592699
0.584654
0.405287
0.697348
0.5977
0.5977
0.5977
0.499981
0.5977
0.368331
0.67872
0.688388
0.367854
0.550353
0.5977
0.5977
0.688357
0.681393
0.686087
0.694109
0.689626
0.42324
0.52997
0.457811
0.369803
0.5977
0.668287
0.5977
0.367718
0.367955
0.5977
0.5327
0.680683
0.591221
0.367802
0.578567
0.681118
0.533714
0.5977
0.67118
0.680839
0.680902
0.5977
0.367859
0.393438
0.597631
0.367832
0.5977
0.597699
0.680689
0.680941
0.561218
0.367601
1.12645
0.368133
0.680686
0.580128
0.367567
0.489564
0.430342
0.68079
0.43364
1.12692
0.58921
0.5977
0.52308
0.5977
0.679651
0.68111
0.384917
0.681067
0.5977
0.541778
0.680887
0.69105
0.379621
0.367947
0.702807
0.369692
0.369898
0.680838
0.58226
0.680755
0.5977
0.597663
0.5977
0.687782
0.680916
0.680653
0.379099
0.592916
0.5977
0.680915
0.597617
0.690775
0.588365
0.680596
0.679446
0.5977
0.5977
0.5977
0.597706
0.681054
0.680172
0.71232
0.689354
0.681171
1.12163
0.691892
1.12665
0.699792
0.704344
0.695529
1.12681
0.68079
0.542422
0.703726
0.557097
0.680757
0.680687
0.590875
0.680146
0.5977
0.48097
0.40765
0.574228
0.380456
0.679764
0.377073
0.379568
0.597701
0.517367
0.597696
0.401078
0.680471
0.680419
0.367875
0.588809
0.597712
0.679477
0.495114
0.680824
0.681321
0.41587
0.705306
0.5977
0.597698
0.583768
0.527746
0.5977
0.367957
0.678821
0.5977
0.565384
0.680566
0.680911
0.683243
0.367777
0.5977
0.524225
0.67594
0.680929
0.680751
0.367653
0.680592
0.680817
0.715193
0.597712
0.679182
0.367865
0.367408
0.687932
0.597698
0.692419
0.5977
0.36761
0.597689
0.704533
0.556349
0.543424
0.478314
0.5977
0.711092
0.680982
0.46547
0.5977
0.680953
0.5977
0.5977
0.597711
0.5977
0.367792
0.367679
0.680858
0.367281
0.367828
0.69184
0.690049
0.430965
0.5977
0.426708
1.08124
0.595558
0.703352
0.68073
0.5977
0.680444
0.503189
0.367567
0.540828
0.681033
0.705384
0.5977
0.5977
0.586723
0.570994
0.680836
0.37649
0.680808
0.587536
0.680852
0.5977
0.401652
0.511329
0.367713
0.367609
0.528346
0.5977
0.679669
0.382026
0.680565
0.5977
0.572486
0.47934
0.689549
0.367722
0.680501
0.595021
0.5977
0.5977
0.680507
0.694325
0.466918
0.693895
0.680593
0.692283
0.367777
0.597702
0.5977
0.597712
0.687179
0.5977
0.6953
0.68098
0.68996
0.696285
0.691177
0.68057
0.681126
0.36778
0.601747
0.367878
0.5977
0.681159
0.538354
0.680928
0.58812
0.529911
0.717747
0.367824
0.538103
0.699147
0.597702
0.690031
0.367747
0.681133
0.5977
0.588917
0.382842
0.700754
0.680609
0.593405
0.491754
0.618732
0.689613
0.368004
0.5977
0.688535
0.5977
0.420985
0.367795
0.531253
0.5977
0.524518
0.681286
0.5977
0.680696
0.5977
0.680715
0.367641
0.685558
0.5977
0.688792
0.5977
0.555256
0.381986
0.507016
0.597706
0.68072
0.593879
0.5977
0.597714
0.5977
0.680824
0.488929
0.5977
0.681248
0.5977
0.388147
0.394453
0.596809
0.681175
0.691291
0.5977
0.5977
0.681042
0.367527
0.5977
0.986124
0.680403
0.392218
0.5977
0.535342
0.660461
0.517721
0.680732
0.699122
0.494902
0.680957
0.5977
1.12601
0.5977
1.12677
0.693405
0.597699
0.680853
0.68096
0.6806
0.680781
0.597703
1.01905
0.444544
0.680789
0.50193
0.367982
0.516926
0.522767
0.367761
0.386697
0.689431
0.585766
0.454465
0.5977
0.68098
0.680534
0.5977
0.5977
0.5977
0.680846
0.55396
0.5977
0.680917
0.567596
0.503898
0.367603
0.5977
0.597703
0.367561
0.5977
0.521862
0.70526
0.597705
0.419027
0.597709
0.5977
0.596836
0.68056
0.49064
0.5977
0.592782
0.696558
0.597617
0.5977
0.981478
0.720643
0.5977
0.368203
0.698074
0.689594
0.508454
0.542258
0.681067
0.367854
0.597703
0.381511
0.5977
0.50499
0.680878
0.531793
0.689592
0.367889
0.680898
0.680508
0.685916
1.08877
0.442329
0.530767
0.5977
0.701802
0.597701
0.708723
0.5977
0.531301
0.678233
0.597707
0.705877
0.597701
0.5977
0.567029
0.668134
0.680451
0.518914
0.679562
0.697117
0.677955
0.597369
0.494764
0.5977
0.367598
0.680119
0.528499
0.680704
0.706853
0.699991
0.689916
0.569925
0.689907
0.367772
0.383349
0.68083
1.04594
0.5977
0.681284
1.07333
0.367596
0.5977
0.69736
0.692053
0.542411
0.59771
0.5977
0.381154
0.680622
0.694825
0.680676
0.69526
0.566562
0.5977
0.5977
0.502918
0.678737
0.689807
0.5977
0.700038
0.561715
0.59765
0.5977
0.5977
0.69944
0.39469
0.559452
0.680716
0.680749
0.520249
0.590979
0.51996
0.521174
0.453227
0.535403
0.578387
0.367795
0.680685
0.499512
0.421543
0.603828
0.5977
1.12622
0.597697
0.367566
0.680897
0.5977
0.5977
0.691551
0.597019
0.5977
0.68097
0.5977
0.680408
0.491042
0.680911
0.680969
0.430147
0.367434
0.5977
0.59111
0.5977
0.689985
0.680745
0.680666
0.681074
0.5977
0.680865
0.680944
0.700401
0.368053
0.680942
0.5977
0.597699
0.597711
0.429072
0.513106
0.455735
0.5977
0.5977
0.665361
0.367677
0.590711
0.688645
0.531614
0.681431
0.680859
0.680813
0.5977
0.680947
0.562175
0.517828
0.508918
0.5977
0.523716
0.681098
0.509124
0.680712
0.680672
0.680594
0.588175
0.5977
0.597698
0.680357
0.475997
0.368018
0.695836
0.680564
0.5977
0.680846
0.701533
0.597703
0.367891
0.5977
0.687524
0.5977
0.68037
0.679081
0.595993
0.596123
0.594082
0.692162
0.597705
0.5977
0.36724
0.589875
0.681038
0.5977
0.524732
0.664328
0.5977
0.683216
0.680826
0.36791
0.368099
0.66957
0.5977
0.5977
0.680815
0.700662
0.539302
0.680934
0.657126
0.680389
0.367806
0.5977
0.367907
0.680695
0.68829
0.597704
0.61914
0.670239
0.57257
0.597685
0.680152
0.367704
0.5977
0.557463
0.680735
0.48038
0.5977
0.687697
0.670535
0.367832
1.12684
0.833078
0.368865
0.591927
0.526586
0.69241
0.367852
0.393519
0.491624
0.594976
0.680618
0.577723
0.573444
0.702188
0.688888
0.597703
0.5977
0.367802
0.5977
0.36787
0.677213
0.367812
0.5977
0.698151
0.59556
0.5977
0.389042
0.680626
0.441898
0.368306
0.693785
0.558963
0.597702
0.5977
0.489772
0.689622
0.665483
0.7004
0.5977
0.555489
0.5977
0.542264
0.367468
0.680627
0.68078
0.596331
0.367675
0.597517
0.5977
0.691106
0.5977
0.691147
0.5977
0.59989
0.590126
0.690882
0.69027
0.5977
0.690686
0.539179
0.592243
0.368102
0.533305
0.523035
0.367563
0.69154
0.680865
0.690756
0.674691
0.680315
0.584914
0.5977
0.560158
0.501081
0.369385
0.513399
0.367448
0.680966
0.680799
0.368516
0.482108
0.68061
0.567698
0.597699
0.670392
0.5977
0.5977
0.5977
0.658775
0.597699
0.680907
0.681021
0.706009
0.690002
0.5977
0.686745
0.680785
0.54406
0.47249
0.676888
0.597141
0.548799
0.573226
0.367244
0.5977
0.66772
0.597354
0.5977
0.518582
0.588639
0.5977
0.58824
0.371533
0.5977