# vtk DataFile Version 1.0
unstructured grid
ascii
DATASET UNSTRUCTURED_GRID
points 13672 float
0.0796578 -0.059106 0
0.00128732 0.00159165 0
0.00227961 -0.00102548 0
0.0791586 -0.0598787 0
-0.0546216 0.01 0
0.000495206 0.025 0
0.0800549 -0.035 0
0.135172 -0.08 0
-0.0546216 -0.0451168 0
0.000495206 -0.0301168 0
0.0800549 -0.0901168 0
0.135172 -0.135117 0
-0.0546216 -0.0451168 -0.00551168
0.000495206 -0.0301168 -0.00551168
0.0800549 -0.0901168 -0.00551168
0.135172 -0.135117 -0.00551168
0.135172 -0.08 -0.00551168
0.0800549 -0.035 -0.00551168
0.000495206 0.025 -0.00551168
-0.0546216 0.01 -0.00551168
0.00128732 0.00159165 -0.00551168
0.00227961 -0.00102548 -0.00551168
0.0791586 -0.0598787 -0.00551168
0.0796578 -0.059106 -0.00551168
0.00165953 -0.000990923 0
0.00119576 -0.000874076 0
0.000866021 -0.000641801 0
0.000645147 -0.000349912 0
0.00052235 -1.7281e-05 0
0.00049972 0.000348016 0
0.000601632 0.000737716 0
0.000861774 0.0011403 0
0.00157235 0.00183217 0
0.00188647 0.00206725 0
0.00222612 0.00230203 0
0.00258713 0.00254351 0
0.00296826 0.00279524 0
0.00337118 0.00305664 0
0.00379785 0.00332658 0
0.00425045 0.00360349 0
0.00473139 0.00388521 0
0.0052432 0.00416895 0
0.0057881 0.00445204 0
0.00636753 0.00473281 0
0.00698281 0.00500961 0
0.00763526 0.00528058 0
0.00832616 0.00554366 0
0.00905691 0.00579603 0
0.00982918 0.00603333 0
0.0106445 0.00625033 0
0.0115038 0.00644128 0
0.0124073 0.00660297 0
0.0133543 0.00673414 0
0.0143444 0.00683382 0
0.0153769 0.00690031 0
0.0164512 0.00693173 0
0.0175666 0.00692547 0
0.0187219 0.00687822 0
0.0199156 0.00678477 0
0.0211454 0.00663864 0
0.0224084 0.00643275 0
0.0237018 0.00616676 0
0.0250249 0.00584739 0
0.026375 0.00547298 0
0.0277479 0.00503752 0
0.0291386 0.00453545 0
0.0305433 0.0039653 0
0.0319572 0.0033256 0
0.0333681 0.00260019 0
0.034775 0.00179799 0
0.0361793 0.000930615 0
0.0375798 3.12222e-06 0
0.0389689 -0.000988429 0
0.0403357 -0.00205109 0
0.041675 -0.00318283 0
0.0429849 -0.00437751 0
0.0442643 -0.00562904 0
0.0455126 -0.00693089 0
0.0467314 -0.00827518 0
0.0479204 -0.00965638 0
0.0490661 -0.0110799 0
0.0501515 -0.0125519 0
0.0511696 -0.0140695 0
0.0521492 -0.0156071 0
0.0531202 -0.0171411 0
0.0540851 -0.0186663 0
0.0550431 -0.0201798 0
0.0559923 -0.0216793 0
0.0569311 -0.0231626 0
0.0578582 -0.0246273 0
0.0587723 -0.0260715 0
0.0596721 -0.027493 0
0.0605563 -0.02889 0
0.0614241 -0.0302609 0
0.0622742 -0.0316042 0
0.063106 -0.0329183 0
0.0639186 -0.034202 0
0.0647113 -0.0354543 0
0.0654835 -0.0366743 0
0.0662345 -0.0378613 0
0.0669642 -0.0390145 0
0.0676726 -0.0401333 0
0.0683597 -0.0412172 0
0.0690246 -0.0422665 0
0.0696662 -0.0432819 0
0.0702841 -0.0442636 0
0.0708793 -0.0452111 0
0.0714538 -0.0461237 0
0.072009 -0.047001 0
0.0725452 -0.0478434 0
0.0730611 -0.0486524 0
0.073556 -0.0494294 0
0.0740291 -0.0501756 0
0.0744812 -0.0508916 0
0.0749138 -0.0515773 0
0.0753285 -0.0522331 0
0.0757266 -0.0528592 0
0.076109 -0.0534564 0
0.0764753 -0.0540264 0
0.0768243 -0.054571 0
0.0771553 -0.0550919 0
0.0774679 -0.0555901 0
0.0777617 -0.0560669 0
0.0780369 -0.056523 0
0.0782958 -0.0569578 0
0.0785421 -0.0573703 0
0.0787786 -0.0577603 0
0.0790073 -0.0581279 0
0.0792295 -0.058474 0
0.0794462 -0.0587995 0
0.0798803 -0.0594162 0
0.0800272 -0.0596588 0
0.0800357 -0.0598891 0
0.0799275 -0.0600784 0
0.0797205 -0.0601773 0
0.0794593 -0.0601051 0
0.0789155 -0.0596491 0
0.0786707 -0.0593963 0
0.0784111 -0.0591319 0
0.0781372 -0.0588542 0
0.0778566 -0.0585548 0
0.0775715 -0.0582308 0
0.0772803 -0.0578828 0
0.0769832 -0.0575099 0
0.0766822 -0.0571097 0
0.0763801 -0.0566796 0
0.0760759 -0.0562196 0
0.0757623 -0.0557337 0
0.0754359 -0.0552232 0
0.0750951 -0.0546879 0
0.0747379 -0.054128 0
0.0743626 -0.0535435 0
0.0739688 -0.0529338 0
0.0735559 -0.0522981 0
0.0731238 -0.0516357 0
0.0726718 -0.050946 0
0.0721991 -0.0502288 0
0.0717046 -0.049484 0
0.0711872 -0.0487117 0
0.0706461 -0.047912 0
0.0700804 -0.0470849 0
0.0694892 -0.0462308 0
0.0688718 -0.0453499 0
0.0682271 -0.0444431 0
0.0675544 -0.043511 0
0.0668527 -0.0425546 0
0.0661215 -0.0415748 0
0.06536 -0.040573 0
0.0645676 -0.0395504 0
0.0637439 -0.0385087 0
0.0628887 -0.0374493 0
0.062002 -0.0363741 0
0.0610838 -0.0352847 0
0.0601345 -0.0341831 0
0.0591547 -0.033071 0
0.0581456 -0.0319502 0
0.0571083 -0.0308224 0
0.0560444 -0.0296893 0
0.0549562 -0.028552 0
0.053845 -0.0274126 0
0.0527113 -0.0262746 0
0.051554 -0.0251427 0
0.0503724 -0.0240222 0
0.0491675 -0.0229164 0
0.047941 -0.0218282 0
0.0466955 -0.0207597 0
0.0454337 -0.0197126 0
0.0441592 -0.0186878 0
0.0428751 -0.0176863 0
0.0415841 -0.0167097 0
0.0402878 -0.0157609 0
0.0389879 -0.0148428 0
0.0376864 -0.0139575 0
0.0363853 -0.013107 0
0.0350871 -0.0122931 0
0.0337942 -0.0115164 0
0.0325095 -0.0107772 0
0.0312357 -0.0100756 0
0.0299758 -0.00941024 0
0.0287337 -0.00877784 0
0.0275126 -0.00817571 0
0.0263139 -0.00760375 0
0.0251376 -0.00706528 0
0.0239829 -0.0065649 0
0.0228537 -0.00609619 0
0.0217522 -0.00565563 0
0.0206795 -0.00524226 0
0.0196364 -0.00485507 0
0.0186233 -0.00449318 0
0.0176408 -0.00415577 0
0.016689 -0.00384204 0
0.0157682 -0.00355115 0
0.0148783 -0.00328218 0
0.0140192 -0.00303468 0
0.0131906 -0.00280795 0
0.0123925 -0.00260016 0
0.0116246 -0.00241012 0
0.0108864 -0.00223769 0
0.0101774 -0.00208212 0
0.00949701 -0.00194206 0
0.00884483 -0.0018163 0
0.0082202 -0.0017039 0
0.00762247 -0.00160391 0
0.00705097 -0.00151528 0
0.006505 -0.00143697 0
0.0059838 -0.00136806 0
0.00548662 -0.00130772 0
0.00501265 -0.00125519 0
0.00456114 -0.00120954 0
0.00413136 -0.00116914 0
0.00372257 -0.00113251 0
0.00333398 -0.00109853 0
0.00296466 -0.00106798 0
0.00261363 -0.0010431 0
-0.052721 -0.0445996 0
-0.0508204 -0.0440823 0
-0.0489199 -0.0435651 0
-0.0470193 -0.0430478 0
-0.0451187 -0.0425306 0
-0.0432181 -0.0420134 0
-0.0413175 -0.0414961 0
-0.039417 -0.0409789 0
-0.0375164 -0.0404616 0
-0.0356158 -0.0399444 0
-0.0337152 -0.0394271 0
-0.0318146 -0.0389099 0
-0.0299141 -0.0383927 0
-0.0280135 -0.0378754 0
-0.0261129 -0.0373582 0
-0.0242123 -0.0368409 0
-0.0223117 -0.0363237 0
-0.0204112 -0.0358065 0
-0.0185106 -0.0352892 0
-0.01661 -0.034772 0
-0.0147094 -0.0342547 0
-0.0128088 -0.0337375 0
-0.0109083 -0.0332202 0
-0.00900769 -0.032703 0
-0.00710711 -0.0321858 0
-0.00520653 -0.0316685 0
-0.00330595 -0.0311513 0
-0.00140537 -0.030634 0
0.00190689 -0.0299614 0
0.00332271 -0.0298498 0
0.00474133 -0.0297825 0
0.00616136 -0.0297597 0
0.0075814 -0.0297814 0
0.00900007 -0.0298477 0
0.010416 -0.0299583 0
0.0118278 -0.0301127 0
0.0132342 -0.0303103 0
0.0146339 -0.0305504 0
0.0160259 -0.0308322 0
0.0174091 -0.0311546 0
0.0187824 -0.0315166 0
0.020145 -0.031917 0
0.0214961 -0.0323546 0
0.0228351 -0.032828 0
0.0241613 -0.0333361 0
0.0254744 -0.0338774 0
0.0267738 -0.0344507 0
0.0280592 -0.0350545 0
0.0293306 -0.0356877 0
0.0305875 -0.0363488 0
0.0318301 -0.0370367 0
0.0330581 -0.0377501 0
0.0342717 -0.0384879 0
0.0354708 -0.0392489 0
0.0366556 -0.0400321 0
0.0378262 -0.0408363 0
0.0389828 -0.0416607 0
0.0401254 -0.0425042 0
0.0412543 -0.0433659 0
0.0423698 -0.0442451 0
0.043472 -0.0451408 0
0.0445612 -0.0460523 0
0.0456375 -0.0469789 0
0.0467013 -0.0479199 0
0.0477529 -0.0488746 0
0.0487923 -0.0498424 0
0.04982 -0.0508227 0
0.0508362 -0.051815 0
0.051841 -0.0528187 0
0.0528348 -0.0538333 0
0.0538178 -0.0548584 0
0.0547903 -0.0558935 0
0.0557524 -0.0569382 0
0.0567045 -0.0579922 0
0.0576467 -0.0590549 0
0.0585792 -0.0601261 0
0.0595024 -0.0612055 0
0.0604163 -0.0622926 0
0.0613212 -0.0633873 0
0.0622174 -0.0644891 0
0.0631049 -0.0655979 0
0.0639841 -0.0667134 0
0.064855 -0.0678353 0
0.0657179 -0.0689633 0
0.0665729 -0.0700974 0
0.0674202 -0.0712372 0
0.06826 -0.0723826 0
0.0690925 -0.0735333 0
0.0699178 -0.0746892 0
0.070736 -0.0758501 0
0.0715473 -0.0770159 0
0.0723518 -0.0781863 0
0.0731498 -0.0793612 0
0.0739412 -0.0805405 0
0.0747264 -0.081724 0
0.0755053 -0.0829116 0
0.0762781 -0.0841033 0
0.0770449 -0.0852987 0
0.0778059 -0.0864979 0
0.0785611 -0.0877007 0
0.0793108 -0.088907 0
0.0814681 -0.0912706 0
0.0828814 -0.0924245 0
0.0842946 -0.0935783 0
0.0857079 -0.0947322 0
0.0871211 -0.095886 0
0.0885344 -0.0970399 0
0.0899476 -0.0981937 0
0.0913609 -0.0993476 0
0.0927741 -0.100501 0
0.0941874 -0.101655 0
0.0956006 -0.102809 0
0.0970139 -0.103963 0
0.0984272 -0.105117 0
0.0998404 -0.106271 0
0.101254 -0.107424 0
0.102667 -0.108578 0
0.10408 -0.109732 0
0.105493 -0.110886 0
0.106907 -0.11204 0
0.10832 -0.113194 0
0.109733 -0.114348 0
0.111146 -0.115501 0
0.11256 -0.116655 0
0.113973 -0.117809 0
0.115386 -0.118963 0
0.116799 -0.120117 0
0.118213 -0.121271 0
0.119626 -0.122424 0
0.121039 -0.123578 0
0.122452 -0.124732 0
0.123866 -0.125886 0
0.125279 -0.12704 0
0.126692 -0.128194 0
0.128105 -0.129348 0
0.129519 -0.130501 0
0.130932 -0.131655 0
0.132345 -0.132809 0
0.133758 -0.133963 0
0.135172 -0.133216 0
0.135172 -0.131316 0
0.135172 -0.129415 0
0.135172 -0.127514 0
0.135172 -0.125614 0
0.135172 -0.123713 0
0.135172 -0.121813 0
0.135172 -0.119912 0
0.135172 -0.118012 0
0.135172 -0.116111 0
0.135172 -0.11421 0
0.135172 -0.11231 0
0.135172 -0.110409 0
0.135172 -0.108509 0
0.135172 -0.106608 0
0.135172 -0.104708 0
0.135172 -0.102807 0
0.135172 -0.100906 0
0.135172 -0.0990058 0
0.135172 -0.0971052 0
0.135172 -0.0952046 0
0.135172 -0.0933041 0
0.135172 -0.0914035 0
0.135172 -0.0895029 0
0.135172 -0.0876023 0
0.135172 -0.0857017 0
0.135172 -0.0838012 0
0.135172 -0.0819006 0
0.133758 -0.0788462 0
0.132345 -0.0776923 0
0.130932 -0.0765385 0
0.129519 -0.0753846 0
0.128105 -0.0742308 0
0.126692 -0.0730769 0
0.125279 -0.0719231 0
0.123866 -0.0707692 0
0.122452 -0.0696154 0
0.121039 -0.0684615 0
0.119626 -0.0673077 0
0.118213 -0.0661538 0
0.116799 -0.065 0
0.115386 -0.0638462 0
0.113973 -0.0626923 0
0.11256 -0.0615385 0
0.111146 -0.0603846 0
0.109733 -0.0592308 0
0.10832 -0.0580769 0
0.106907 -0.0569231 0
0.105493 -0.0557692 0
0.10408 -0.0546154 0
0.102667 -0.0534615 0
0.101254 -0.0523077 0
0.0998404 -0.0511538 0
0.0984272 -0.05 0
0.0970139 -0.0488462 0
0.0956006 -0.0476923 0
[...]
CELL_DATA 13116
SCALARS rho float
LOOKUP_TABLE default
0.581497
0.688335
0.353974
0.703497
0.704022
0.685848
0.337133
0.704368
0.52775
0.703093
0.339212
0.306684
0.703656
0.310477
0.331525
0.69182
0.577446
0.690182
0.707107
0.31882
0.575209
0.36518
0.33356
0.69479
0.589223
0.707296
0.703219
0.342909
0.565243
0.636246
1.13736
0.316676
0.547329
0.454498
0.344617
0.579046
0.663483
0.708583
0.936338
0.702963
0.704592
0.704313
0.461589
0.338614
0.708379
0.707578
0.690967
0.706801
0.337921
0.512375
0.703076
0.465373
0.286155
0.570718
0.548848
0.575852
0.338608
0.695593
0.519026
0.307701
0.314575
0.702841
0.685607
1.00478
1.14391
0.320875
0.699936
0.664727
0.706081
1.14417
0.338227
0.55146
0.376689
0.334488
1.13676
0.362823
0.661047
0.707231
0.32979
0.68586
0.679236
0.712806
0.696978
0.707368
0.70873
0.394045
0.321582
0.65542
0.712632
0.351931
0.323076
0.68981
0.70005
0.707693
0.645622
0.599948
0.591696
1.13782
1.13958
0.568272
0.659446
0.66087
0.705658
0.434049
0.697902
0.297603
0.348251
0.501327
0.340096
0.577271
0.525793
0.710984
0.596515
0.68012
0.686655
0.700985
0.317258
0.380768
0.707689
0.701971
0.663548
0.380718
0.706197
0.321756
0.707342
0.435017
0.321125
0.490511
0.339131
0.510729
0.707641
0.703137
0.456757
0.352214
0.437896
0.619672
1.13406
0.704059
0.657454
0.702043
0.658375
0.690295
0.492999
0.660437
0.674222
0.30398
0.347742
0.717076
0.705063
0.703748
0.502685
0.707354
0.706834
0.354501
0.702133
0.710451
0.334801
0.666239
1.13701
0.654132
0.694255
0.335994
0.698964
0.335731
0.388205
0.702725
0.711219
0.689485
0.341418
0.417811
0.389262
1.13854
0.3165
0.482755
0.700419
0.332364
0.360412
0.372297
0.711362
0.681547
0.326206
0.415368
0.547675
0.661667
0.692005
0.521836
0.33527
0.698638
0.701786
0.455139
0.648658
0.718107
1.14418
0.33381
0.716045
0.671731
0.70239
0.70166
0.711933
0.416615
0.43507
0.585155
0.486593
0.332694
0.705984
0.708215
0.471914
0.60416
0.268163
0.332751
0.357547
0.697661
0.335978
0.329888
0.346509
0.355343
0.37164
0.90598
0.70865
0.37824
0.33847
0.699455
0.521381
0.327557
0.503427
0.702754
0.673769
0.343401
0.700287
0.358897
0.704869
0.319143
1.13492
0.538321
1.13724
0.709547
1.12875
0.304091
0.431545
0.6512
1.13431
0.674099
1.13454
1.12647
0.704431
0.359887
0.703337
0.70214
1.14424
0.34687
0.339209
0.707947
0.707577
1.13745
0.707494
0.576377
0.677781
0.337819
0.312746
0.411396
0.271648
0.693666
0.702113
0.660809
0.322932
0.710433
0.320209
0.389558
0.698397
0.350796
0.71389
0.7032
1.13182
0.69588
0.305962
1.13168
0.685216
1.14448
0.704993
0.327975
0.318193
0.335786
0.616452
0.383521
0.351128
0.332131
0.330207
0.70329
0.255316
0.712932
0.7036
0.314173
0.319802
0.315379
0.432254
0.34744
0.654797
0.642052
0.706034
0.35
0.704644
0.536168
0.316821
0.314951
0.77485
0.707547
0.700822
0.336353
0.681472
0.439705
0.703339
0.704082
0.70365
0.703907
0.335475
0.699712
0.283788
0.696573
0.702977
0.645179
0.32718
0.328137
0.702137
0.312182
0.695248
0.702811
0.403137
0.675752
0.696542
0.313583
0.710511
0.699891
0.283948
0.707207
0.37949
0.522389
0.703609
0.392735
0.667869
0.323056
0.692064
0.330282
1.08013
0.675085
0.703213
0.342545
0.353714
0.709617
0.354942
0.706703
0.705005
0.410304
1.13172
0.343121
0.384804
0.70743
0.508593
0.664963
0.319388
0.335453
0.703254
0.703788
0.347357
0.703907
0.315547
0.301399
0.701865
0.704061
0.511174
0.365097
0.706872
1.13671
0.691705
0.711682
0.701518
0.5062
0.420538
0.251179
0.324937
0.685431
0.32661
0.548189
0.400312
0.33001
0.348274
0.518256
0.119722
0.353364
0.709222
0.312069
0.699936
0.568622
0.70653
0.646237
0.704068
0.387526
0.316565
0.418014
0.388053
0.706532
0.59458
0.705721
0.568323
0.67468
0.616059
0.713843
0.644504
0.634657
0.702118
0.6848
0.684911
0.414324
0.474189
0.578806
0.369745
0.639604
0.578307
0.299219
0.700637
1.13374
0.336897
0.32165
0.332851
0.331241
0.591156
0.346765
0.334237
0.697976
0.325869
0.540571
0.348967
0.693493
0.686472
0.338986
0.356147
0.70724
0.427708
0.354706
0.326122
0.358816
0.340096
0.315659
0.322812
0.363901
0.394211
0.32749
0.659905
0.399716
0.711483
0.417764
0.318598
0.448061
0.299555
0.349313
0.301725
0.70255
0.404101
0.609588
0.513145
0.319529
0.607509
0.712849
0.391175
0.67483
0.622702
0.62565
0.315571
1.13679
0.381488
0.69985
1.13641
0.339267
0.275849
0.699478
0.394211
0.391711
0.678348
0.347961
0.664746
0.677634
0.320017
0.359757
0.316417
0.478818
0.317028
0.262581
0.325727
0.289166
0.703409
0.703332
0.437913
0.571554
0.442307
0.713304
0.359801
0.370709
0.532464
0.339832
0.707486
0.328744
0.362585
0.452225
0.708556
0.711435
0.51622
0.404914
0.279145
0.515375
0.704157
1.13235
0.512654
0.694029
0.692015
0.326404
0.684813
0.534304
0.649511
0.337916
0.371266
0.678752
0.702416
0.643664
0.70306
0.706601
0.701078
0.693018
0.645699
0.706288
0.342677
0.708654
0.318296
0.276258
0.333216
0.703448
0.70824
0.317528
0.708569
0.580132
0.328726
1.09266
0.707552
0.697718
0.342599
0.374193
0.707503
0.357881
0.354788
0.295342
0.328276
0.705377
0.272605
0.703165
0.400064
0.68725
0.70311
0.704794
0.703667
0.358951
0.323508
0.708044
0.705127
0.662873
0.703296
0.702142
0.436647
0.314267
0.34065
0.703002
0.523724
0.333294
0.426283
0.329228
0.702267
0.699062
0.334289
0.364479
0.709501
0.399409
0.709421
0.628515
0.338401
0.358668
0.660385
1.13544
0.336274
0.711376
0.709897
0.708138
0.373898
1.14073
0.337682
1.13696
0.64791
0.366249
0.369452
0.354223
1.13974
0.340379
0.325603
0.385405
0.99106
0.70038
0.326843
0.312177
0.339226
1.05556
0.377417
0.681887
0.306034
0.554118
0.702855
0.416701
0.335337
0.334454
0.438783
0.34079
0.709612
0.339025
0.36441
0.673942
0.297742
0.697033
0.691917
1.13782
0.342132
0.707776
0.700082
0.702023
0.703604
0.701463
0.701546
0.310488
1.13711
0.383515
0.705027
0.325131
0.704359
0.50388
0.335733
1.14436
0.704794
0.367597
0.640614
0.323745
0.341554
0.697863
0.703573
0.327941
0.305263
0.32881
0.30663
0.702087
0.694815
0.369247
0.31876
0.706471
0.702333
0.557158
0.699988
0.698294
0.336495
0.703218
0.395587
0.703036
0.392891
0.586405
0.430745
0.699072
0.666507
0.535671
0.35455
0.341632
0.702208
0.563051
0.569971
0.699697
0.266828
0.687334
0.702192
0.338658
0.471297
0.700886
0.394841
1.14428
0.652053
0.32708
0.703037
0.643462
0.402392
0.697608
0.335139
0.708134
0.355321
0.697364
0.68465
0.341753
0.931496
0.699231
0.707187
0.58317
0.691277
0.536416
0.348004
0.436553
0.314829
0.33288
1.1316
0.506929
0.704091
0.705355
0.336575
0.374844
0.696735
0.703207
0.707096
0.703424
0.321531
0.684478
0.702195
0.319691
0.309567
0.707734
0.70782
0.708353
0.30116
0.541751
0.347121
0.695441
0.693558
1.12775
0.696533
0.331317
0.700442
0.71246
0.698868
0.707059
0.7032
0.379557
0.701685
0.332842
0.67587
0.702344
0.417837
0.678026
1.11628
0.703178
0.440798
0.415829
0.539802
0.633724
0.35678
0.366036
0.350157
0.327634
0.687145
0.686163
1.12665
0.334141
0.331776
0.706758
0.666689
0.284571
0.371784
0.426074
0.668205
0.700653
0.712061
0.690868
0.332333
0.357258
1.13168
0.320501
0.330015
0.343815
0.699754
0.346739
0.358906
0.572779
0.707379
0.709789
0.712136
0.697899
0.319832
0.314887
0.345919
0.521909
0.404563
0.321168
0.664176
0.688304
0.703293
0.7059
0.305438
0.343435
0.702991
0.342557
0.702285
0.68559
1.13679
0.327714
0.35978
0.705315
1.14472
0.601341
0.278812
0.709803
0.685671
0.570813
0.703701
0.703732
1.13159
0.692562
0.322687
0.697179
1.14346
0.655859
0.694624
1.13184
0.70886
1.13544
0.706119
0.361604
0.367314
0.344025
1.13677
0.507437
0.344992
0.697406
0.706189
0.305636
0.640433
0.343352
0.647631
0.50664
0.316919
0.703162
0.693499
0.336138
0.499136
1.13665
0.337004
0.709181
0.323471
0.294967
0.614631
0.583405
0.447665
0.70606
0.350762
0.699522
0.363055
0.304085
0.696851
0.33177
0.600762
0.329216
0.642592
0.585103
1.13583
0.711703
0.252786
0.363785
0.667257
0.467137
0.706883
0.462788
0.595829
0.687659
0.698243
0.477367
0.574389
0.713047
0.70263
0.701136
0.332239
0.364059
0.493455
0.714996
0.703064
0.390359
0.705683
0.603206
0.418082
0.328022
0.647533
0.667817
1.13372
1.14101
0.674256
0.683598
0.891444
0.672027
0.327127
0.639751
0.42469
0.703174
0.707953
0.317627
0.701873
0.705526
0.376163
0.29556
0.31318
1.13167
0.334765
0.611586
0.699514
0.639397
0.307306
0.707136
0.330327
0.543048
1.05002
1.13464
0.662266
1.05655
0.598298
0.678107
0.528327
0.704746
0.353214
0.70051
0.705427
0.451547
1.13528
0.689732
0.336827
0.244038
0.3378
0.70371
0.365753
1.1434
0.342019
0.704298
0.281706
0.430957
0.320463
0.699056
0.703092
0.574342
0.257388
0.601033
0.826822
0.327181
0.558403
0.703422
0.318975
0.576469
1.14443
0.702617
0.70338
0.339106
0.498104
0.707024
0.706979
0.675971
0.361254
0.410811
0.709781
1.13192
1.13511
1.13379
0.56572
0.703549
0.561573
0.702871
0.360836
0.332012
1.13453
0.705064
0.937705
0.324898
0.701387
0.579371
0.61974
0.380588
0.377967
0.703878
0.703368
0.528018
0.401551
0.705791
1.13595
0.339531
0.585965
0.690312
0.342675
0.317173
0.271939
0.709652
0.367787
0.343206
0.711026
0.466991
0.703009
0.644321
0.338543
0.31516
0.703218
0.375375
0.35086
1.14486
0.301775
0.365058
0.580189
0.701284
0.707003
0.331492
0.340598
0.342235
0.692354
0.299358
0.707403
0.326748
0.699495
0.698584
0.708884
0.696788
0.69739
0.693685
0.699653
0.704133
0.707757
0.263495
0.342491
0.690081
0.831859
0.451131
0.707394
0.540703
0.973095
0.654595
0.340134
0.701484
0.703304
0.705687
0.34994
0.700318
0.410267
0.707519
0.43925
0.687906
0.704847
0.320011
0.705954
0.335879
0.450446
0.68465
0.347627
0.668162
1.13369
0.703845
0.337044
0.697943
0.329021
0.327205
0.330121
0.347622
0.654943
0.30812
0.655919
1.09214
0.401655
0.334164
0.432365
0.539134
0.625307
0.681536
0.342496
0.313387
0.343595
0.320072
0.248843
0.628006
0.710746
0.343473
1.08053
0.699391
0.281175
0.703346
0.664817
1.05944
0.349404
1.14396
0.689771
0.703194
0.703174
0.324103
0.706631
0.705039
0.701086
0.645435
0.67588
0.344249
0.330916
0.707112
0.488224
0.362601
0.696646
0.331518
0.523711
0.633308
0.706962
0.708622
0.325099
0.705716
0.411287
0.35076
0.678849
0.707092
0.703573
0.70385
0.659754
0.327906
0.70276
0.302564
0.449342
0.702733
1.13569
0.706989
0.348281
0.31218
0.702166
0.320621
0.707574
0.621762
0.40631
0.352023
0.702463
0.32946
0.705059
0.707537
0.662438
0.329738
0.368412
0.482574
0.524024
0.619035
0.462504
0.686588
0.683224
0.712654
1.13171
0.699132
0.302907
0.354175
0.707345
0.68174
0.67249
0.41419
0.332825
0.681863
0.298072
0.69867
0.578548
0.407383
0.706275
0.327645
0.70075
0.371534
0.704125
0.303424
0.70792
0.678901
0.306903
0.707589
0.633718
0.311799
1.12614
0.706998
0.543698
0.299047
0.383944
0.459786
0.700603
0.675538
0.382936
0.538261
0.70062
0.676726
0.308533
0.629002
0.699629
0.393681
0.684863
0.696651
0.297538
0.707374
1.14451
0.350644
0.60246
0.322394
0.650444
0.347563
0.295732
0.70205
0.349941
0.34132
0.257644
0.698992
0.69425
0.418624
0.706
0.376284
0.675966
0.330559
0.695181
0.399728
0.69363
0.706967
0.656981
1.12703
0.50192
0.678359
1.05999
0.343311
0.610946
0.658572
0.540007
0.698685
0.438491
0.428756
0.703061
0.324371
0.540115
0.341817
0.705682
0.275033
0.333436
0.693266
0.69803
0.321186
0.702979
0.687221
1.13159
0.703398
1.13773
0.323866
0.703402
0.326391
0.335983
0.712484
0.692898
0.704225
0.71095
0.320343
0.350212
0.341229
0.69097
1.09328
0.379059
0.702126
0.320084
0.345239
0.36981
0.712706
0.389831
0.702267
0.707634
0.608107
0.705612
0.707801
0.579553
0.659951
0.390965
0.315208
0.322298
1.13806
1.13963
0.327205
0.628564
0.707159
0.656811
0.338708
0.4431
0.68378
0.292412
0.680004
0.642557
0.328582
0.798491
0.688526
0.347726
0.707034
0.344887
0.70344
0.703308
0.698514
0.286592
0.413668
0.667222
0.309768
0.384189
0.707168
0.324484
0.728207
0.700946
0.715122
0.686839
0.443779
1.14401
0.678285
0.706962
0.345533
0.704878
0.364446
0.299813
0.707557
0.699776
1.09137
0.243032
0.70327
0.607222
1.13456
0.316265
0.313305
0.357765
0.702947
0.339564
0.310243
0.4036
0.640637
0.334244
0.3219
0.394571
0.707713
0.334677
1.13357
0.959844
0.702813
0.338423
0.706985
0.642769
1.08255
0.380961
0.643515
0.350876
0.325289
0.697783
0.320901
0.633103
0.697773
1.13533
0.333391
0.331307
0.362172
0.512784
1.13337
0.249142
0.708492
0.698565
0.689307
0.333492
0.297432
0.334699
0.681874
0.342353
1.13221
0.56904
0.835605
0.709585
0.3291
0.638642
0.314368
0.645666
0.624108
0.703179
0.628289
0.543415
0.648051
0.674379
0.707073
0.319603
0.417619
0.332652
0.686903
0.527765
1.13418
0.33253
0.387999
0.70015
0.707044
1.14074
0.322001
0.703057
0.510635
0.515876
0.67744
0.340612
0.322914
0.303979
0.699457
1.10508
0.642502
0.712144
0.337562
0.703959
0.638276
1.10431
1.10683
0.703988
0.703252
0.670133
0.6939
0.703053
0.33966
0.707685
0.703755
0.694827
0.707525
0.700898
0.614924
0.328348
0.30108
0.66091
0.360334
0.41568
0.702768
0.346586
0.608564
0.706481
0.688891
0.706575
0.338798
0.702963
0.3301
0.328614
0.684166
0.704038
0.706173
0.338868
0.703662
0.706032
0.667763
0.699215
0.366593
0.690654
0.702244
0.686153
0.416324
0.693131
0.342345
0.702734
0.355054
0.32995
0.580702
0.420438
0.703051
0.697438
0.7031
0.401809
0.681334
0.420842
0.335868
0.708516
0.432643
0.356546
0.704696
0.2914
0.459257
0.660594
0.686141
0.705738
0.43554
0.554229
0.648499
0.703382
0.615373
0.703979
0.489743
0.703996
0.712631
0.639835
0.302704
0.331492
0.415648
0.704413
0.337149
0.652177
0.703055
0.598101
0.703903
0.561448
0.669975
0.673763
0.348644
0.70283
0.702767
0.550695
0.70216
0.702174
0.709655
0.746093
0.334557
0.360319
0.704595
0.532238
0.567327
0.702517
0.707659
0.706147
0.702629
0.703343
0.61569
0.683806
0.703211
0.303769
0.306064
0.286056
0.413126
1.13526
0.445175
0.558291
0.706281
0.678579
0.337246
0.706604
0.703553
0.337914
0.367028
1.14404
0.707339
0.340793
0.300745
0.296507
1.13194
0.710108
0.41726
0.308352
0.326968
0.294003
0.381905
0.363336
0.704814
0.706827
0.693075
0.328389
0.690273
0.620657
0.572929
0.355475
0.319569
0.708741
1.13405
0.353715
0.689754
0.345773
0.693623
0.339607
0.702598
0.315648
0.703634
0.703246
0.33944
0.518134
0.337143
0.703394
0.303596
0.624697
0.33022
0.499777
0.353752
0.622458
0.329462
1.13464
1.14157
0.572626
0.696501
0.357964
0.696174
0.81917
0.703584
0.616699
0.676421
0.320637
0.43924
0.328063
0.700269
0.300463
0.705787
0.509426
0.691813
0.702534
0.499865
0.702368
0.340268
0.324304
0.310993
0.496989
0.583481
0.707897
0.346509
0.352361
0.696653
0.348332
0.328551
0.60671
0.368762
0.356578
0.30062
0.704285
0.629923
0.62652
0.333791
0.69344
0.699649
0.308991
0.308403
0.712298
0.696689
0.643213
0.464827
0.367279
0.344256
0.352654
0.702214
0.661935
0.524189
0.67702
0.268558
0.570331
0.330337
1.14481
0.705855
0.323111
0.31632
0.667101
0.602459
0.704215
0.703561
0.701366
0.703093
0.702573
0.355672
0.368917
0.334749
0.326728
0.579736
1.13692
0.631781
0.321118
0.335583
0.460231
0.316309
0.70636
0.684814
0.343758
0.336818
0.705471
0.336865
0.648406
0.701092
0.694008
0.680426
0.581676
0.353904
0.314454
0.682479
0.324223
0.442412
0.416909
0.827706
0.701615
0.292303
0.329146
1.13188
0.326233
0.699335
0.700421
0.339461
0.378453
0.262385
0.707682
0.315417
1.13329
0.693702
0.604053
0.302663
0.484912
0.707393
0.707995
0.331097
0.704304
0.660387
0.323977
0.707749
0.703682
0.345906
0.355731
0.704636
0.336066
0.325266
0.698617
0.327143
0.707109
0.669013
0.698241
0.656788
0.705339
0.700825
0.71183
0.339149
0.37378
0.67173
0.704843
0.411475
0.703433
0.350365
0.706184
0.706503
0.555385
0.641529
0.439369
0.428341
0.707129
0.706604
0.711303
0.703111
0.706058
1.14276
0.703644
1.1315
0.70154
0.709687
0.703258
1.13458
0.68174
0.315106
0.711558
0.342403
0.702385
0.707739
0.696696
0.693162
0.684427
0.377099
0.355948
0.318455
0.331496
0.691264
0.316858
0.350715
0.682216
0.30175
0.692962
0.351884
0.699807
0.707026
0.349045
0.349373
0.409964
0.703191
0.336601
0.707944
0.705516
0.36875
0.708124
0.519942
0.432549
0.341959
0.307631
0.678337
0.357642
0.702941
0.559603
0.340327
0.706715
0.705082
0.701207
0.346268
0.576431
0.327922
0.690935
0.733554
0.701116
0.363578
0.704053
0.703372
0.70736
0.401649
0.703691
0.353607
0.327267
0.707593
0.440142
0.702732
0.431987
0.361284
0.399509
0.701294
0.340746
0.31457
0.357912
0.507314
1.14434
0.706516
0.298657
0.615425
0.707367
0.511258
0.456258
0.409912
0.522114
0.362751
0.323131
0.708209
0.33004
0.346597
0.70368
0.70354
0.340503
0.68863
0.356346
1.1437
0.343454
0.710396
1.14053
0.685841
0.872273
0.367335
0.326977
0.32997
0.681067
0.707244
0.551271
0.520461
0.343812
0.312445
0.699084
0.3394
0.707046
0.353406
1.13026
0.666728
0.320082
0.339276
0.330074
0.328623
0.340534
0.668714
0.691641
0.316104
0.707111
0.634195
0.345845
0.30725
0.703523
0.354092
0.707833
0.38508
0.687485
0.646908
0.706903
1.14438
0.351763
0.703376
0.702438
0.704322
0.352627
0.675331
0.562049
0.408648
0.703459
0.657294
0.704145
0.695675
0.702486
0.70874
0.7038
0.696307
0.706801
0.3417
0.699866
0.330314
0.46871
0.708802
0.330046
0.705112
0.69008
0.348659
0.704736
0.353234
0.323924
0.7121
0.679313
0.703523
0.33795
0.696304
0.597526
0.344317
0.320986
0.707514
0.699237
0.365054
0.396882
0.697904
0.703431
0.361004
0.638394
0.703233
0.631398
0.325511
0.351691
0.325555
0.647302
0.305996
0.704386
0.685954
0.700467
0.626328
0.707767
0.336373
0.709842
0.584105
0.703567
0.627709
0.332627
0.338012
0.29158
0.69533
0.706505
0.381738
0.644733
0.338789
0.659289
0.701722
0.270532
0.658072
0.705223
0.61901
0.329549
0.31983
0.410585
0.707562
0.702554
0.595161
0.464929
0.707338
0.351456
0.624672
1.13199
0.703429
0.335771
0.594643
0.348575
0.696327
0.298694
0.707778
0.710817
0.333216
0.707751
0.464675
1.13485
0.644186
1.13187
0.703628
0.431798
0.696561
0.70509
0.701214
0.707935
0.424357
1.1321
0.25133
0.705518
0.288106
0.328346
0.282164
0.339969
0.360387
0.320695
0.702854
0.346454
0.317325
0.656846
0.707728
0.693245
0.418622
0.682513
0.675779
0.693159
0.315379
0.628741
0.700159
0.380602
0.392599
0.329011
0.623097
0.455
0.337704
0.622953
0.307685
1.13947
0.449351
0.316822
0.426816
0.640951
0.40078
0.699344
0.256253
0.531942
0.362815
0.702473
0.376228
0.657942
1.13264
0.699317
0.454386
0.326977
0.701912
0.703181
0.400668
0.327316
0.682882
0.327382
0.692204
0.333159
0.519258
0.290379
0.700188
0.372695
0.703049
0.32652
0.701929
0.707656
0.706605
1.13629
0.25323
0.334488
0.417981
0.705707
0.680772
0.702455
0.588026
0.355877
0.701352
0.408403
0.705758
0.668636
0.429493
0.347834
0.700794
0.708106
0.32867
1.137
0.702681
0.702746
0.698509
0.268431
0.626378
0.338744
0.704002
0.299893
1.0402
0.706315
0.701295
0.703328
0.342626
0.703878
0.348293
0.35083
0.698909
1.13635
0.540952
0.706108
1.13412
0.351616
0.691374
0.70192
0.703912
0.327627
0.412573
0.676126
0.316583
0.706692
0.702957
0.706518
0.702803
0.292327
0.456152
0.635731
0.333411
0.707957
0.703282
0.474359
0.712635
0.263031
0.682277
0.692075
0.663676
0.709224
0.321044
0.335361
0.707894
0.703016
0.351523
0.360791
0.373315
0.335199
0.309594
0.313942
0.341647
0.36147
0.707933
0.280789
0.330245
0.696884
0.542979
1.13505
0.382503
0.331157
0.707589
0.463106
0.519727
0.702167
0.370659
0.642268
1.12542
0.578179
0.694768
0.336966
0.706769
0.980242
0.377764
0.326455
0.431102
0.688176
0.579923
0.702329
0.6955
0.70389
0.695665
0.420897
0.70768
0.879482
0.701781
0.331287
0.701636
0.649702
0.420774
0.407415
0.264721
0.322554
0.291605
0.581105
0.662133
0.690681
0.323237
0.353596
0.703135
0.305506
0.7041
0.70544
0.705918
0.663467
0.707128
0.38347
0.325647
0.300802
0.579526
0.303207
0.706935
0.298638
0.698108
0.682862
0.707539
0.415284
0.45172
0.425694
0.70777
0.392928
0.331779
0.702563
0.695618
0.647166
0.690645
0.704599
0.692131
0.3617
0.595083
0.704304
0.482547
0.707872
0.70374
0.696365
0.398456
0.382165
0.703998
0.446212
0.629817
0.340768
0.681502
0.708443
0.417288
0.309115
0.688061
0.487765
0.706206
0.703364
0.359221
0.321083
1.14432
0.44501
0.421736
0.711109
0.708494
0.344654
0.709095
1.1375
0.691823
0.3633
0.579475
0.357428
0.712953
0.706136
0.693051
0.687506
1.14204
0.327761
0.375425
0.697549
0.337938
0.574026
0.339138
0.707025
0.301212
0.646462
0.704415
1.14028
0.363825
1.13207
1.14402
0.330516
0.679639
0.30561
0.704378
0.359334
0.314793
0.294342
0.686245
0.709018
0.315568
0.317344
0.716513
0.702618
0.433824
0.68336
0.359892
0.51169
0.330417
0.695328
0.326778
0.659113
0.709875
0.34239
0.443901
0.314822
1.11812
0.366202
0.320842