# vtk DataFile Version 1.0
unstructured grid
ascii
DATASET UNSTRUCTURED_GRID
points 13672 float
0.0796578 -0.059106 0
0.00128732 0.00159165 0
0.00227961 -0.00102548 0
0.0791586 -0.0598787 0
-0.0546216 0.01 0
0.000495206 0.025 0
0.0800549 -0.035 0
0.135172 -0.08 0
-0.0546216 -0.0451168 0
0.000495206 -0.0301168 0
0.0800549 -0.0901168 0
0.135172 -0.135117 0
-0.0546216 -0.0451168 -0.00551168
0.000495206 -0.0301168 -0.00551168
0.0800549 -0.0901168 -0.00551168
0.135172 -0.135117 -0.00551168
0.135172 -0.08 -0.00551168
0.0800549 -0.035 -0.00551168
0.000495206 0.025 -0.00551168
-0.0546216 0.01 -0.00551168
0.00128732 0.00159165 -0.00551168
0.00227961 -0.00102548 -0.00551168
0.0791586 -0.0598787 -0.00551168
0.0796578 -0.059106 -0.00551168
0.00165953 -0.000990923 0
0.00119576 -0.000874076 0
0.000866021 -0.000641801 0
0.000645147 -0.000349912 0
0.00052235 -1.7281e-05 0
0.00049972 0.000348016 0
0.000601632 0.000737716 0
0.000861774 0.0011403 0
0.00157235 0.00183217 0
0.00188647 0.00206725 0
0.00222612 0.00230203 0
0.00258713 0.00254351 0
0.00296826 0.00279524 0
0.00337118 0.00305664 0
0.00379785 0.00332658 0
0.00425045 0.00360349 0
0.00473139 0.00388521 0
0.0052432 0.00416895 0
0.0057881 0.00445204 0
0.00636753 0.00473281 0
0.00698281 0.00500961 0
0.00763526 0.00528058 0
0.00832616 0.00554366 0
0.00905691 0.00579603 0
0.00982918 0.00603333 0
0.0106445 0.00625033 0
0.0115038 0.00644128 0
0.0124073 0.00660297 0
0.0133543 0.00673414 0
0.0143444 0.00683382 0
0.0153769 0.00690031 0
0.0164512 0.00693173 0
0.0175666 0.00692547 0
0.0187219 0.00687822 0
0.0199156 0.00678477 0
0.0211454 0.00663864 0
0.0224084 0.00643275 0
0.0237018 0.00616676 0
0.0250249 0.00584739 0
0.026375 0.00547298 0
0.0277479 0.00503752 0
0.0291386 0.00453545 0
0.0305433 0.0039653 0
0.0319572 0.0033256 0
0.0333681 0.00260019 0
0.034775 0.00179799 0
0.0361793 0.000930615 0
0.0375798 3.12222e-06 0
0.0389689 -0.000988429 0
0.0403357 -0.00205109 0
0.041675 -0.00318283 0
0.0429849 -0.00437751 0
0.0442643 -0.00562904 0
0.0455126 -0.00693089 0
0.0467314 -0.00827518 0
0.0479204 -0.00965638 0
0.0490661 -0.0110799 0
0.0501515 -0.0125519 0
0.0511696 -0.0140695 0
0.0521492 -0.0156071 0
0.0531202 -0.0171411 0
0.0540851 -0.0186663 0
0.0550431 -0.0201798 0
0.0559923 -0.0216793 0
0.0569311 -0.0231626 0
0.0578582 -0.0246273 0
0.0587723 -0.0260715 0
0.0596721 -0.027493 0
0.0605563 -0.02889 0
0.0614241 -0.0302609 0
0.0622742 -0.0316042 0
0.063106 -0.0329183 0
0.0639186 -0.034202 0
0.0647113 -0.0354543 0
0.0654835 -0.0366743 0
0.0662345 -0.0378613 0
0.0669642 -0.0390145 0
0.0676726 -0.0401333 0
0.0683597 -0.0412172 0
0.0690246 -0.0422665 0
0.0696662 -0.0432819 0
0.0702841 -0.0442636 0
0.0708793 -0.0452111 0
0.0714538 -0.0461237 0
0.072009 -0.047001 0
0.0725452 -0.0478434 0
0.0730611 -0.0486524 0
0.073556 -0.0494294 0
0.0740291 -0.0501756 0
0.0744812 -0.0508916 0
0.0749138 -0.0515773 0
0.0753285 -0.0522331 0
0.0757266 -0.0528592 0
0.076109 -0.0534564 0
0.0764753 -0.0540264 0
0.0768243 -0.054571 0
0.0771553 -0.0550919 0
0.0774679 -0.0555901 0
0.0777617 -0.0560669 0
0.0780369 -0.056523 0
0.0782958 -0.0569578 0
0.0785421 -0.0573703 0
0.0787786 -0.0577603 0
0.0790073 -0.0581279 0
0.0792295 -0.058474 0
0.0794462 -0.0587995 0
0.0798803 -0.0594162 0
0.0800272 -0.0596588 0
0.0800357 -0.0598891 0
0.0799275 -0.0600784 0
0.0797205 -0.0601773 0
0.0794593 -0.0601051 0
0.0789155 -0.0596491 0
0.0786707 -0.0593963 0
0.0784111 -0.0591319 0
0.0781372 -0.0588542 0
0.0778566 -0.0585548 0
0.0775715 -0.0582308 0
0.0772803 -0.0578828 0
0.0769832 -0.0575099 0
0.0766822 -0.0571097 0
0.0763801 -0.0566796 0
0.0760759 -0.0562196 0
0.0757623 -0.0557337 0
0.0754359 -0.0552232 0
0.0750951 -0.0546879 0
0.0747379 -0.054128 0
0.0743626 -0.0535435 0
0.0739688 -0.0529338 0
0.0735559 -0.0522981 0
0.0731238 -0.0516357 0
0.0726718 -0.050946 0
0.0721991 -0.0502288 0
0.0717046 -0.049484 0
0.0711872 -0.0487117 0
0.0706461 -0.047912 0
0.0700804 -0.0470849 0
0.0694892 -0.0462308 0
0.0688718 -0.0453499 0
0.0682271 -0.0444431 0
0.0675544 -0.043511 0
0.0668527 -0.0425546 0
0.0661215 -0.0415748 0
0.06536 -0.040573 0
0.0645676 -0.0395504 0
0.0637439 -0.0385087 0
0.0628887 -0.0374493 0
0.062002 -0.0363741 0
0.0610838 -0.0352847 0
0.0601345 -0.0341831 0
0.0591547 -0.033071 0
0.0581456 -0.0319502 0
0.0571083 -0.0308224 0
0.0560444 -0.0296893 0
0.0549562 -0.028552 0
0.053845 -0.0274126 0
0.0527113 -0.0262746 0
0.051554 -0.0251427 0
0.0503724 -0.0240222 0
0.0491675 -0.0229164 0
0.047941 -0.0218282 0
0.0466955 -0.0207597 0
0.0454337 -0.0197126 0
0.0441592 -0.0186878 0
0.0428751 -0.0176863 0
0.0415841 -0.0167097 0
0.0402878 -0.0157609 0
0.0389879 -0.0148428 0
0.0376864 -0.0139575 0
0.0363853 -0.013107 0
0.0350871 -0.0122931 0
0.0337942 -0.0115164 0
0.0325095 -0.0107772 0
0.0312357 -0.0100756 0
0.0299758 -0.00941024 0
0.0287337 -0.00877784 0
0.0275126 -0.00817571 0
0.0263139 -0.00760375 0
0.0251376 -0.00706528 0
0.0239829 -0.0065649 0
0.0228537 -0.00609619 0
0.0217522 -0.00565563 0
0.0206795 -0.00524226 0
0.0196364 -0.00485507 0
0.0186233 -0.00449318 0
0.0176408 -0.00415577 0
0.016689 -0.00384204 0
0.0157682 -0.00355115 0
0.0148783 -0.00328218 0
0.0140192 -0.00303468 0
0.0131906 -0.00280795 0
0.0123925 -0.00260016 0
0.0116246 -0.00241012 0
0.0108864 -0.00223769 0
0.0101774 -0.00208212 0
0.00949701 -0.00194206 0
0.00884483 -0.0018163 0
0.0082202 -0.0017039 0
0.00762247 -0.00160391 0
0.00705097 -0.00151528 0
0.006505 -0.00143697 0
0.0059838 -0.00136806 0
0.00548662 -0.00130772 0
0.00501265 -0.00125519 0
0.00456114 -0.00120954 0
0.00413136 -0.00116914 0
0.00372257 -0.00113251 0
0.00333398 -0.00109853 0
0.00296466 -0.00106798 0
0.00261363 -0.0010431 0
-0.052721 -0.0445996 0
-0.0508204 -0.0440823 0
-0.0489199 -0.0435651 0
-0.0470193 -0.0430478 0
-0.0451187 -0.0425306 0
-0.0432181 -0.0420134 0
-0.0413175 -0.0414961 0
-0.039417 -0.0409789 0
-0.0375164 -0.0404616 0
-0.0356158 -0.0399444 0
-0.0337152 -0.0394271 0
-0.0318146 -0.0389099 0
-0.0299141 -0.0383927 0
-0.0280135 -0.0378754 0
-0.0261129 -0.0373582 0
-0.0242123 -0.0368409 0
-0.0223117 -0.0363237 0
-0.0204112 -0.0358065 0
-0.0185106 -0.0352892 0
-0.01661 -0.034772 0
-0.0147094 -0.0342547 0
-0.0128088 -0.0337375 0
-0.0109083 -0.0332202 0
-0.00900769 -0.032703 0
-0.00710711 -0.0321858 0
-0.00520653 -0.0316685 0
-0.00330595 -0.0311513 0
-0.00140537 -0.030634 0
0.00190689 -0.0299614 0
0.00332271 -0.0298498 0
0.00474133 -0.0297825 0
0.00616136 -0.0297597 0
0.0075814 -0.0297814 0
0.00900007 -0.0298477 0
0.010416 -0.0299583 0
0.0118278 -0.0301127 0
0.0132342 -0.0303103 0
0.0146339 -0.0305504 0
0.0160259 -0.0308322 0
0.0174091 -0.0311546 0
0.0187824 -0.0315166 0
0.020145 -0.031917 0
0.0214961 -0.0323546 0
0.0228351 -0.032828 0
0.0241613 -0.0333361 0
0.0254744 -0.0338774 0
0.0267738 -0.0344507 0
0.0280592 -0.0350545 0
0.0293306 -0.0356877 0
0.0305875 -0.0363488 0
0.0318301 -0.0370367 0
0.0330581 -0.0377501 0
0.0342717 -0.0384879 0
0.0354708 -0.0392489 0
0.0366556 -0.0400321 0
0.0378262 -0.0408363 0
0.0389828 -0.0416607 0
0.0401254 -0.0425042 0
0.0412543 -0.0433659 0
0.0423698 -0.0442451 0
0.043472 -0.0451408 0
0.0445612 -0.0460523 0
0.0456375 -0.0469789 0
0.0467013 -0.0479199 0
0.0477529 -0.0488746 0
0.0487923 -0.0498424 0
0.04982 -0.0508227 0
0.0508362 -0.051815 0
0.051841 -0.0528187 0
0.0528348 -0.0538333 0
0.0538178 -0.0548584 0
0.0547903 -0.0558935 0
0.0557524 -0.0569382 0
0.0567045 -0.0579922 0
0.0576467 -0.0590549 0
0.0585792 -0.0601261 0
0.0595024 -0.0612055 0
0.0604163 -0.0622926 0
0.0613212 -0.0633873 0
0.0622174 -0.0644891 0
0.0631049 -0.0655979 0
0.0639841 -0.0667134 0
0.064855 -0.0678353 0
0.0657179 -0.0689633 0
0.0665729 -0.0700974 0
0.0674202 -0.0712372 0
0.06826 -0.0723826 0
0.0690925 -0.0735333 0
0.0699178 -0.0746892 0
0.070736 -0.0758501 0
0.0715473 -0.0770159 0
0.0723518 -0.0781863 0
0.0731498 -0.0793612 0
0.0739412 -0.0805405 0
0.0747264 -0.081724 0
0.0755053 -0.0829116 0
0.0762781 -0.0841033 0
0.0770449 -0.0852987 0
0.0778059 -0.0864979 0
0.0785611 -0.0877007 0
0.0793108 -0.088907 0
0.0814681 -0.0912706 0
0.0828814 -0.0924245 0
0.0842946 -0.0935783 0
0.0857079 -0.0947322 0
0.0871211 -0.095886 0
0.0885344 -0.0970399 0
0.0899476 -0.0981937 0
0.0913609 -0.0993476 0
0.0927741 -0.100501 0
0.0941874 -0.101655 0
0.0956006 -0.102809 0
0.0970139 -0.103963 0
0.0984272 -0.105117 0
0.0998404 -0.106271 0
0.101254 -0.107424 0
0.102667 -0.108578 0
0.10408 -0.109732 0
0.105493 -0.110886 0
0.106907 -0.11204 0
0.10832 -0.113194 0
0.109733 -0.114348 0
0.111146 -0.115501 0
0.11256 -0.116655 0
0.113973 -0.117809 0
0.115386 -0.118963 0
0.116799 -0.120117 0
0.118213 -0.121271 0
0.119626 -0.122424 0
0.121039 -0.123578 0
0.122452 -0.124732 0
0.123866 -0.125886 0
0.125279 -0.12704 0
0.126692 -0.128194 0
0.128105 -0.129348 0
0.129519 -0.130501 0
0.130932 -0.131655 0
0.132345 -0.132809 0
0.133758 -0.133963 0
0.135172 -0.133216 0
0.135172 -0.131316 0
0.135172 -0.129415 0
0.135172 -0.127514 0
0.135172 -0.125614 0
0.135172 -0.123713 0
0.135172 -0.121813 0
0.135172 -0.119912 0
0.135172 -0.118012 0
0.135172 -0.116111 0
0.135172 -0.11421 0
0.135172 -0.11231 0
0.135172 -0.110409 0
0.135172 -0.108509 0
0.135172 -0.106608 0
0.135172 -0.104708 0
0.135172 -0.102807 0
0.135172 -0.100906 0
0.135172 -0.0990058 0
0.135172 -0.0971052 0
0.135172 -0.0952046 0
0.135172 -0.0933041 0
0.135172 -0.0914035 0
0.135172 -0.0895029 0
0.135172 -0.0876023 0
0.135172 -0.0857017 0
0.135172 -0.0838012 0
0.135172 -0.0819006 0
0.133758 -0.0788462 0
0.132345 -0.0776923 0
0.130932 -0.0765385 0
0.129519 -0.0753846 0
0.128105 -0.0742308 0
0.126692 -0.0730769 0
0.125279 -0.0719231 0
0.123866 -0.0707692 0
0.122452 -0.0696154 0
0.121039 -0.0684615 0
0.119626 -0.0673077 0
0.118213 -0.0661538 0
0.116799 -0.065 0
0.115386 -0.0638462 0
0.113973 -0.0626923 0
0.11256 -0.0615385 0
0.111146 -0.0603846 0
0.109733 -0.0592308 0
0.10832 -0.0580769 0
0.106907 -0.0569231 0
0.105493 -0.0557692 0
0.10408 -0.0546154 0
0.102667 -0.0534615 0
0.101254 -0.0523077 0
0.0998404 -0.0511538 0
0.0984272 -0.05 0
0.0970139 -0.0488462 0
0.0956006 -0.0476923 0
[...]
CELL_DATA 13116
SCALARS rho float
LOOKUP_TABLE default
0.5977
0.596928
0.555613
0.689809
0.677874
0.680722
0.404812
0.696261
0.5977
0.665772
0.37806
0.567484
0.678516
0.49055
0.511267
0.680778
0.5977
0.5977
0.680687
0.372494
0.5977
0.562672
0.538891
0.5977
0.5977
0.713878
0.643388
0.597713
0.5977
0.5977
0.678158
0.557264
0.5977
0.5977
0.412768
0.5977
0.5977
0.681362
0.680723
0.681041
0.680722
0.694416
0.5977
0.525492
0.68136
0.681028
0.59755
0.680448
0.54841
0.5977
0.686572
0.5977
0.441022
0.5977
0.5977
0.5977
0.522611
0.5977
0.5977
0.530958
0.494777
0.691673
0.597506
0.68063
0.680035
0.464012
0.680785
0.5977
0.680561
0.680559
0.510489
0.5977
0.568574
0.498494
0.737051
0.470869
0.5977
0.680578
0.383184
0.5977
0.5977
0.720073
0.5977
0.680805
0.681293
0.597707
0.42086
0.5977
0.679777
0.367597
0.575106
0.594763
0.597701
0.70385
0.5977
0.5977
0.5977
0.657936
0.671579
0.5977
0.5977
0.5977
0.680765
0.5977
0.597565
0.54492
0.597714
0.5977
0.581068
0.5977
0.5977
0.66858
0.5977
0.5977
0.5977
0.680601
0.447469
0.5977
0.681102
0.680598
0.5977
0.583333
0.680596
0.574279
0.707268
0.5977
0.428354
0.5977
0.555764
0.5977
0.68085
0.66936
0.5977
0.553566
0.5977
0.5977
1.1266
0.681099
0.5977
0.680742
0.5977
0.596576
0.5977
0.5977
0.5977
0.511504
0.409513
0.722609
0.667929
0.687757
0.5977
0.680859
0.680406
0.425775
0.593211
0.681105
0.55851
0.5977
0.665452
0.5977
0.5977
0.378484
0.597702
0.55905
0.58937
0.691105
0.706053
0.5977
0.409766
0.597699
0.597702
1.12644
0.507298
0.5977
0.680732
0.539377
0.528839
0.56698
0.659664
0.680437
0.368044
0.5977
0.5977
0.5977
0.680438
0.5977
0.425187
0.680822
0.596962
0.5977
0.5977
0.725114
0.680888
0.590718
0.659669
0.681182
0.597682
0.680939
0.680643
0.5977
0.5977
0.5977
0.5977
0.506938
0.674146
0.681791
0.5977
0.5977
0.520306
0.368201
0.466957
0.680934
0.570983
0.367939
0.368017
0.431743
0.597704
0.680647
0.708196
0.597709
0.513629
0.680787
0.5977
0.367947
0.5977
0.688491
0.5977
0.597708
0.6808
0.597712
0.695769
0.55982
0.680775
0.5977
0.674221
0.681123
0.680751
0.559143
0.5977
0.5977
0.836444
0.681188
1.12587
0.680568
0.698541
0.534832
0.681114
0.667057
0.664109
0.392938
0.552966
0.680909
0.680701
0.680887
0.680282
0.5977
0.5977
0.375241
0.575133
0.5977
0.517654
0.597703
0.597696
0.5977
0.399721
0.680656
0.441561
0.597707
0.597081
0.39211
0.71904
0.694747
1.00159
0.5977
0.555994
1.04715
0.5977
0.659971
0.680983
0.376264
0.410785
0.588502
0.5977
0.579104
0.571592
0.597559
0.596001
0.680819
0.452001
0.681063
0.679228
0.41185
0.370919
0.435257
0.5977
0.59178
0.5977
0.5977
0.598048
0.387782
0.68083
0.5977
0.58149
0.529612
0.680682
0.680606
0.680908
0.431131
0.68113
0.5977
0.674885
0.693892
0.678618
0.693943
0.597376
0.680874
0.487006
0.680652
0.693018
0.5977
0.367866
0.597145
0.674206
0.435797
0.656076
0.691548
0.597699
0.5977
0.5977
0.422112
0.68094
0.597701
0.485635
0.680638
0.597708
0.5977
0.701272
0.597707
0.5977
0.399374
0.5977
0.59722
0.680533
0.5977
0.59744
0.597713
0.597714
0.681296
0.421499
0.679891
0.592606
0.597699
1.12651
0.421737
0.545219
0.680731
0.5977
0.5977
0.417666
0.561755
0.680829
0.678813
0.40277
0.679419
0.465451
0.550083
0.681045
0.70029
0.5977
0.367733
0.6808
0.67786
0.680695
0.680785
0.597589
0.5977
0.597699
0.506647
0.368156
0.68062
0.367898
0.5977
0.597699
0.589168
0.597714
0.5977
0.585949
0.41544
0.680985
0.574767
0.597703
0.5977
0.680874
0.5977
0.681237
0.549829
0.407396
0.5977
0.597705
0.680538
0.5977
0.680728
0.5977
0.5977
0.5977
0.720591
0.5977
0.5977
0.595661
0.5977
0.680723
0.5977
0.5977
0.5977
0.552184
0.5977
0.5977
0.438294
0.680769
0.994257
0.597639
0.368147
0.368126
0.414211
0.5977
0.462607
0.589129
0.681111
0.462879
0.5977
0.367875
0.68136
0.5977
0.597714
0.553954
0.680866
0.5977
0.367836
0.413499
0.36788
0.584013
0.408124
0.367979
0.580308
0.597704
0.367899
0.5977
0.59771
0.680509
0.5977
0.5713
0.5977
0.516353
0.367698
0.519618
0.680656
0.597698
0.5977
0.5977
0.45622
0.5977
0.680515
0.597708
0.5977
0.5977
0.5977
0.406246
0.684063
0.5977
0.597703
0.669708
0.596001
0.448713
0.597612
0.5977
0.597708
0.5977
0.597714
0.5977
0.597701
0.370963
0.523222
0.491618
0.5977
0.524601
0.46849
0.506751
0.483791
0.691233
0.69162
0.5977
0.5977
0.5977
0.640967
0.597712
0.454115
0.5977
0.597023
0.681158
0.593189
0.597713
0.5977
0.681291
0.707555
0.5977
0.597699
0.442546
0.5977
0.695606
0.68053
0.5977
0.597703
0.597703
0.367782
0.5977
0.5977
0.5977
0.59768
0.590115
0.5977
0.597705
0.5977
0.688427
0.679775
0.709675
0.5977
0.5977
0.680838
0.36764
0.680982
0.597129
0.528803
0.367591
0.690258
0.681643
0.596638
0.681262
0.5977
0.367944
0.680953
0.680731
0.597703
0.597714
0.448187
0.680357
0.367795
0.36776
0.527834
0.367766
0.680502
0.47753
0.689636
0.597682
0.59758
0.679074
0.680805
0.679447
0.367764
0.368264
0.680909
0.695516
0.5977
0.691283
0.652612
0.597699
0.416501
0.597722
0.681097
0.5977
0.368214
0.5977
0.587575
0.702549
0.680907
0.597661
0.568649
0.680544
0.597706
0.680887
0.5977
0.548935
0.597712
0.5977
0.900045
0.56309
0.702863
0.708851
0.681183
0.454885
1.1244
0.511483
0.703623
0.5977
0.367729
0.597705
0.57364
0.678704
0.581705
0.397411
0.597698
0.680959
0.591846
0.393362
0.572054
0.367214
0.680748
0.574174
0.681052
0.507719
0.5977
0.687433
0.5977
0.553591
0.543734
0.597699
0.597721
0.715422
0.442873
0.47145
0.680967
0.469544
0.680861
0.600561
0.660188
0.3681
0.681284
0.597703
0.597644
0.680946
0.703898
0.680936
0.536323
0.680611
0.597709
0.680285
0.377838
0.697692
0.5977
0.419015
0.679043
0.590031
0.428938
0.5977
0.574218
0.505601
0.681031
0.680827
0.587598
0.520634
0.387435
0.537211
0.702154
0.5977
0.449269
0.376649
0.678173
0.680837
0.5977
0.597703
0.680983
0.376002
0.595692
0.597699
0.680571
0.597698
0.5977
0.597699
0.680836
0.5977
0.5977
0.597713
0.597706
0.680626
0.5977
0.5977
0.597703
0.50904
0.5977
0.58351
0.597711
0.5977
0.597705
0.597698
0.680574
0.5977
0.596552
0.681094
0.5977
0.556904
0.597601
0.585111
0.680127
0.497737
0.680916
0.597663
0.59772
0.680767
0.597702
0.680628
0.5977
0.597708
0.5977
0.596105
0.5977
0.574512
0.495913
1.12675
0.5977
0.680771
0.668746
0.36796
0.59735
0.596746
0.690297
0.680572
0.694992
0.367675
0.5977
0.671438
0.370404
0.578088
0.681317
0.680745
0.680573
0.543242
0.5977
0.597701
0.597703
0.621419
0.680779
0.65269
0.367964
0.670102
0.68092
0.5977
0.681063
0.681085
0.597709
0.597405
0.368587
0.5977
0.671914
0.597699
0.5977
0.680579
0.678609
0.5977
0.5977
0.5977
0.5977
0.368008
0.367822
0.397525
0.367801
0.597675
0.5977
0.680791
0.597181
0.368544
0.680505
0.5977
0.481728
0.597608
0.5977
0.5977
0.680866
0.680736
0.5977
0.367655
0.368056
1.12337
0.572052
0.367974
0.448964
0.680811
0.597699
0.367732
0.5977
0.680925
0.650001
0.681114
0.680607
0.4502
0.48668
0.391246
0.5977
0.597698
0.564775
0.5977
0.5977
0.680314
0.680647
0.549418
0.367931
0.688573
0.367904
0.6811
0.597537
0.665506
0.588174
0.367848
0.679704
0.678113
0.5977
0.481167
0.68114
0.680967
0.5977
0.680993
0.695701
1.11343
0.597703
0.367619
0.680549
0.680668
0.5977
0.597703
1.12681
0.672125
1.09948
0.680798
0.468546
0.500412
0.367861
0.677112
0.5977
0.367984
0.59399
0.677053
0.564891
0.5977
0.597704
0.5977
0.5977
0.555111
0.69145
0.5977
0.368292
0.5977
0.678505
0.527776
0.692643
0.475912
0.541321
0.5977
0.5977
0.5977
0.680754
0.404148
0.597703
0.51851
0.55491
0.680842
0.368183
0.5977
0.582011
0.5977
0.5977
1.10323
0.704232
0.505243
0.477183
0.5977
0.5977
0.680573
0.5977
0.5977
0.680703
0.5977
0.5977
0.5977
0.655346
0.597408
0.680831
0.597585
0.367785
0.5977
0.653186
0.597683
0.597698
0.680912
0.5977
0.5977
0.585014
0.5977
0.5977
1.12441
0.685655
0.5977
0.5977
0.680813
0.5977
0.566812
0.5977
0.5977
0.68128
0.680831
0.595045
0.702062
0.681662
0.51119
0.54762
0.432337
1.12676
0.377571
0.5977
0.597685
0.5977
0.586132
0.681073
0.506237
0.5977
0.680631
0.680868
0.5977
0.680779
0.5977
0.5977
0.5977
0.680415
0.501519
0.680834
0.680685
0.5977
1.03205
0.5977
0.593758
0.509022
0.532641
0.678642
0.367944
1.05339
0.391324
0.696676
0.452408
0.597699
0.536808
0.597702
0.694957
0.5977
0.588336
0.5977
0.680621
0.369391
0.5977
0.691386
0.562252
0.5977
0.668355
0.688941
0.681036
0.597728
0.5977
0.679997
0.680943
0.5977
0.367688
0.5977
0.680708
1.12575
0.905165
1.12539
0.5977
0.670113
0.5977
0.680867
0.367598
0.510229
1.12547
0.679822
0.680986
0.47195
0.680909
0.5977
0.5977
0.497135
0.59771
0.679591
0.691308
0.5977
0.597699
0.680725
0.923932
0.401762
0.5977
0.5977
0.403648
0.569888
0.489885
0.587503
0.577492
0.36768
0.680966
0.5977
0.596337
0.5977
0.412784
0.412446
0.69178
0.503031
0.463323
0.677766
0.564889
0.597709
0.5977
0.70487
0.681413
0.368311
0.597698
0.381827
0.608241
0.548566
0.68137
0.466375
0.589275
0.705629
0.681045
0.596
0.606887
0.597887
0.680876
0.680026
0.680777
0.472009
0.376314
0.595683
0.680822
0.5977
0.5874
0.5977
0.680806
0.5977
0.597714
0.680616
0.690928
0.680038
0.398509
0.664256
0.587812
0.680693
0.597699
0.5977
0.680876
0.55682
0.679697
0.367572
0.5977
0.597679
0.455346
0.5977
1.1268
0.700988
0.419525
0.681102
0.367497
0.584936
0.591147
0.368081
0.5977
0.512213
0.5977
0.680801
0.597699
0.594578
0.597699
0.5977
0.5977
0.5977
0.368069
0.444238
0.398293
0.533512
0.587323
0.5977
0.672733
0.597713
0.680708
0.597644
0.485885
0.69043
0.5977
0.68079
0.384629
0.763188
0.597704
0.592489
0.680776
0.524023
0.680746
0.605417
0.669623
0.5977
0.680835
0.574147
0.592381
0.680806
0.5977
0.367793
0.680843
0.559304
0.5977
0.5977
0.680101
0.680207
0.575972
0.589428
0.5977
0.398849
0.5977
0.680358
0.585806
0.681355
0.5977
0.585942
0.678644
0.527869
0.5977
0.691587
0.68596
0.679989
0.393013
0.578956
0.671866
0.582534
0.680479
0.5977
0.597699
0.594948
0.680948
0.577742
0.680873
0.681042
0.5977
0.580539
0.505612
0.5977
0.5977
0.5977
0.5977
0.681033
0.5977
0.680561
1.12675
0.591157
0.423544
0.592652
0.680205
0.680823
0.5977
0.597699
0.499457
0.5977
0.502381
0.681
0.5977
0.597699
0.681044
0.369123
0.707163
0.55776
0.660806
0.551091
0.680754
0.680419
0.565131
0.706814
0.5977
0.571801
0.68069
0.680445
0.5977
0.511444
0.597698
0.5977
0.597704
0.5977
0.597699
0.5977
0.589863
0.680849
0.587156
0.5977
0.678548
0.597707
0.680886
0.680417
0.593361
0.680582
0.664802
0.54782
0.5977
0.402758
0.5977
0.411732
0.542083
0.597704
0.367736
0.367125
0.499612
0.680947
0.621157
0.5977
0.68089
0.597701
0.5977
0.367552
0.63858
0.597699
0.680728
0.680623
0.5977
0.680861
0.5977
0.680438
0.680773
0.59126
0.5977
0.5977
0.5977
0.591053
0.597699
0.5977
0.678755
0.369787
0.5977
0.597701
0.680705
0.470186
0.586651
0.5977
0.680864
0.369498
0.681127
0.5977
1.12682
0.69554
0.724053
0.367525
0.691354
0.368078
0.567518
0.683106
0.5977
0.694904
0.680356
0.554672
0.418243
0.385532
0.592426
0.680737
0.5977
0.703132
0.462383
0.418726
0.478182
0.680998
0.597698
0.688972
0.681018
0.5977
0.681005
0.680717
0.5977
0.5977
0.597708
0.571807
0.368744
0.728055
0.78038
0.478593
0.5977
0.591902
0.5977
0.595697
0.5977
0.5977
0.592001
0.5977
0.5977
0.367995
0.680961
0.597393
0.367578
0.681206
0.457727
0.680795
0.594169
0.635263
0.50707
0.597702
0.5977
0.595564
0.597707
0.680854
0.597342
0.680938
0.680869
0.719991
0.5977
0.5977
0.677814
0.5977
0.680806
0.597713
0.681072
0.534646
0.501858
0.680648
0.680885
0.68079
0.588772
0.680839
0.5977
0.752603
0.450585
0.463105
0.367762
0.680454
0.396666
0.469093
0.54972
0.5977
0.464477
0.594558
0.597707
0.681327
0.367556
0.680902
0.680632
0.680986
0.425752
0.680792
0.5977
0.680755
0.59771
0.5977
0.414177
0.369525
0.681066
0.369596
0.5977
0.597288
1.1167
0.367783
0.597241
0.423663
0.5977
1.12627
0.589776
0.681516
0.681056
0.5977
0.367379
0.523712
0.597595
0.5977
0.368295
1.12675
0.5977
0.680563
0.680655
0.374608
0.5977
0.540178
0.5977
0.5977
0.688798
0.5977
0.5977
0.5977
0.5977
0.680842
0.389211
0.5977
0.472619
0.5977
0.5977
0.699447
0.36775
0.597699
0.597703
0.68078
0.680907
0.368796
0.681044
0.5977
0.5977
0.5977
0.594508
0.368383
0.594278
0.680924
0.680479
0.5977
0.613656
0.597697
0.700091
0.5977
0.680477
0.680744
0.701219
0.690866
0.680761
0.5977
0.5929
0.597732
0.680806
0.681327
0.680841
0.680877
0.680825
0.5977
0.367823
0.557843
0.5977
0.367802
0.597699
0.680891
0.491785
0.5977
0.680504
0.59581
0.680637
0.597735
0.680986
0.593886
0.493786
0.680598
0.678842
0.68075
0.43666
0.679629
0.68077
0.5977
0.680726
0.550195
0.680711
0.673353
0.597705
0.5977
0.5977
0.374871
0.689277
0.465628
0.367728
0.5977
0.597699
0.690345
0.597701
0.681046
0.540983
0.680693
0.5977
0.498816
0.677517
0.597699
0.367724
0.68074
0.568124
0.5977
0.5977
0.597702
0.68125
0.597699
0.5977
0.5977
0.680943
0.5977
0.587192
0.5977
0.694472
0.592264
0.5977
0.543185
0.381483
0.597699
0.681421
0.592899
0.5977
0.681268
0.5977
0.681015
0.5977
0.5977
0.5977
0.385634
0.680859
0.595281
0.5977
0.595279
0.677347
0.714469
0.680865
0.367427
0.48162
0.679826
0.5977
0.5977
0.680865
0.680456
0.681148
0.597705
0.595494
0.5977
0.5977
0.691137
0.48605
0.574515
0.476269
0.597711
1.04177
0.5977
0.5977
0.680765
0.5977
0.578627
0.680735
0.689671
0.443873
0.597711
0.928426
0.680615
0.597724
0.54609
0.529908
1.12684
0.714896
0.5977
0.422388
0.368066
0.556776
0.597703
0.367744
0.69649
0.680524
0.597707
0.392247
0.593408
0.5977
0.5977
0.597656
0.369738
0.675603
1.12583
0.367781
0.681118
0.367671
0.5977
0.597519
0.680967
0.395188
0.681231
0.687019
0.418098
0.5977
0.586536
0.690644
0.566847
0.5977
0.55077
0.5977
0.411697
0.5977
0.368455
0.680942
0.680933
0.5977
0.597822
0.597709
0.65632
0.680911
0.679666
0.5977
0.5977
0.368842
0.5977
0.474384
0.597702
0.591996
0.681615
0.5977
0.5977
0.689058
0.5977
0.596039
0.500753
0.486986
0.484403
0.5977
0.5977
0.680312
0.384806
0.565124
0.680842
0.597711
0.572732
0.5977
0.597708
0.367736
0.555198
0.694291
0.5977
0.5977
0.526691
0.602334
0.680925
0.559369
0.596587
0.680713
0.680602
0.5977
0.5977
0.597709
0.597713
0.419825
0.702858
0.5977
0.5977
0.5977
0.526138
0.5977
0.370888
0.680572
0.68126
0.36805
0.579737
0.5977
0.5977
0.679248
0.587603
0.597663
0.681086
0.690631
0.440249
0.558476
0.478942
0.374457
0.5977
0.671501
0.5977
0.368429
0.367952
0.5977
0.567588
0.681252
0.597701
0.367837
0.597569
0.68068
0.562776
0.5977
0.597705
0.635682
0.680601
0.5977
0.367696
0.406062
0.5977
0.368046
0.5977
0.5977
0.680885
0.680756
0.589036
0.367868
1.12668
0.369886
0.680477
0.597702
0.367583
0.514496
0.448229
0.680925
0.452107
1.12674
0.597702
0.5977
0.553527
0.5977
0.680119
0.681276
0.396043
0.680916
0.5977
0.580456
0.681763
0.693042
0.389295
0.367759
0.679603
0.374279
0.374682
0.676196
0.5975
0.680993
0.5977
0.5977
0.5977
0.67951
0.68076
0.681101
0.388739
0.597711
0.5977
0.680017
0.597703
0.690933
0.597714
0.680759
0.681125
0.5977
0.5977
0.5977
0.5977
0.680858
0.67996
0.5842
0.690112
0.680661
1.11518
0.696558
1.12693
0.704128
0.677604
0.702888
1.1259
0.681018
0.576302
0.717932
0.586176
0.681018
0.680645
0.597701
0.590449
0.5977
0.50499
0.422538
0.596842
0.390499
0.593636
0.385771
0.389254
0.5977
0.54659
0.5977
0.41499
0.678773
0.68113
0.367611
0.597711
0.597699
0.680872
0.520672
0.680507
0.677207
0.432008
0.675611
0.5977
0.5977
0.597708
0.560044
0.5977
0.367775
0.680699
0.5977
0.592713
0.681046
0.680531
0.597702
0.36783
0.5977
0.552608
0.592233
0.680674
0.680593
0.367783
0.679098
0.680966
0.615794
0.597699
0.680899
0.36754
0.367817
0.680812
0.5977
0.60949
0.5977
0.367745
0.597703
0.64174
0.585524
0.576556
0.501879
0.5977
0.67009
0.680429
0.487857
0.5977
0.680812
0.5977
0.5977
0.597699
0.5977
0.367807
0.367987
0.680756
0.367819
0.367858
0.677979
0.690955
0.448705
0.5977
0.444216
1.03912
0.597711
0.677752
0.680501
0.5977
0.680816
0.529497
0.368298
0.57657
0.680654
0.680182
0.5977
0.5977
0.597708
0.594416
0.68091
0.385211
0.680851
0.597713
0.681034
0.5977
0.415563
0.538695
0.367744
0.36783
0.557335
0.5977
0.591631
0.392271
0.681179
0.5977
0.596333
0.503032
0.690894
0.36802
0.681122
0.597709
0.5977
0.5977
0.680624
0.672971
0.489281
0.594169
0.680651
0.693547
0.367867
0.5977
0.5977
0.597699
0.681171
0.5977
0.696948
0.650759
0.690171
0.681083
0.69402
0.680879
0.680428
0.36782
0.597702
0.367748
0.5977
0.680699
0.571802
0.680883
0.597702
0.558526
0.598554
0.367827
0.576968
0.678859
0.5977
0.690983
0.369075
0.660466
0.5977
0.597714
0.39325
0.710684
0.680938
0.597713
0.516893
0.597703
0.691148
0.367918
0.5977
0.687533
0.5977
0.437465
0.367625
0.563942
0.5977
0.553114
0.680893
0.5977
0.680968
0.5977
0.680975
0.368607
0.680419
0.5977
0.681467
0.5977
0.596552
0.3924
0.53398
0.5977
0.679895
0.597709
0.5977
0.597699
0.5977
0.680587
0.513787
0.5977
0.680612
0.5977
0.399706
0.407407
0.597708
0.681034
0.632328
0.5977
0.5977
0.680688
0.367912
0.5977
0.91857
0.678751
0.404567
0.5977
0.564283
0.597683
0.546196
0.681239
0.682102
0.520369
0.681508
0.5977
1.12538
0.5977
1.12674
0.679762
0.5977
0.680974
0.680238
0.681108
0.681032
0.597701
0.957166
0.464194
0.680369
0.528329
0.367827
0.544895
0.551238
0.367969
0.397987
0.69121
0.597713
0.475279
0.5977
0.68109
0.607142
0.5977
0.5977
0.5977
0.680676
0.583618
0.5977
0.680875
0.593911
0.530279
0.368468
0.5977
0.5977
0.367708
0.5977
0.552333
0.678266
0.5977
0.435689
0.597699
0.5977
0.597708
0.680886
0.515699
0.5977
0.597713
0.702675
0.597704
0.5977
0.898401
0.597698
0.5977
0.367792
0.702305
0.691789
0.535331
0.585205
0.680755
0.368042
0.5977
0.391666
0.5977
0.531737
0.680658
0.560451
0.690927
0.367882
0.680722
0.680183
0.679972
1.05721
0.461714
0.559562
0.5977
0.713693
0.5977
0.61724
0.5977
0.559944
0.597226
0.5977
0.679766
0.5977
0.5977
0.59395
0.597704
0.681543
0.546777
0.680771
0.700879
0.595823
0.5977
0.520267
0.5977
0.367403
0.586469
0.557592
0.680722
0.678664
0.704142
0.691607
0.595387
0.690659
0.367816
0.394016
0.680341
0.992489
0.5977
0.68047
1.01928
0.367278
0.5977
0.704123
0.695084
0.585468
0.597699
0.5977
0.39111
0.68082
0.681158
0.680659
0.703333
0.591294
0.5977
0.5977
0.529227
0.680289
0.690398
0.5977
0.678449
0.588926
0.5977
0.5977
0.5977
0.705149
0.407706
0.596817
0.680291
0.680762
0.548126
0.597713
0.547704
0.549183
0.47382
0.569915
0.597457
0.367788
0.680732
0.525634
0.438091
0.597703
0.5977
1.12644
0.597702
0.36781
0.680774
0.5977
0.5977
0.588547
0.597707
0.5977
0.680865
0.5977
0.625956
0.516108
0.680665
0.680817
0.448129
0.367837
0.5977
0.597701
0.5977
0.689698
0.680784
0.680262
0.642501
0.5977
0.68102
0.680986
0.707695
0.367914
0.680806
0.5977
0.5977
0.597698
0.446805
0.540397
0.476594
0.5977
0.5977
0.595578
0.367718
0.59771
0.690228
0.563575
0.650305
0.680205
0.680895
0.5977
0.680629
0.59033
0.545653
0.536324
0.5977
0.552325
0.680563
0.536636
0.681003
0.681187
0.681015
0.597713
0.5977
0.5977
0.680457
0.499467
0.369783
0.680566
0.645863
0.5977
0.680671
0.711334
0.5977
0.36769
0.5977
0.669511
0.5977
0.681042
0.593977
0.5977
0.597706
0.59771
0.694635
0.5977
0.5977
0.367312
0.597702
0.680867
0.5977
0.553373
0.596893
0.5977
0.67826
0.612147
0.367831
0.368945
0.669742
0.5977
0.5977
0.680906
0.710849
0.568525
0.680451
0.664127
0.590273
0.367867
0.5977
0.36763
0.680951
0.681296
0.5977
0.597704
0.675295
0.596281
0.597702
0.590006
0.367731
0.5977
0.586321
0.681149
0.504386
0.5977
0.655434
0.668372
0.367863
1.12662
0.748107
0.372367
0.597701
0.558248
0.693912
0.367796
0.406185
0.516805
0.5977
0.680937
0.596311
0.596578
0.720739
0.690314
0.5977
0.5977
0.367932
0.5977
0.367937
0.589838
0.369272
0.5977
0.680493
0.597713
0.5977
0.400907
0.680958
0.461339
0.370287
0.584565
0.595282
0.5977
0.5977
0.514802
0.675977
0.674602
0.708419
0.5977
0.584957
0.5977
0.577484
0.367859
0.681127
0.680465
0.597704
0.367852
0.597704
0.5977
0.662143
0.5977
0.59495
0.5977
0.597702
0.597714
0.687954
0.690293
0.5977
0.692282
0.575872
0.597701
0.367788
0.562231
0.552613
0.367539
0.689916
0.681572
0.691723
0.591951
0.675029
0.597687
0.5977
0.587657
0.527336
0.373064
0.540743
0.367792
0.679549
0.680599
0.371341
0.506273
0.68101
0.592342
0.5977
0.597703
0.5977
0.5977
0.5977
0.597691
0.5977
0.680623
0.680911
0.677027
0.690813
0.5977
0.590962
0.680883
0.574429
0.49558
0.597705
0.597707
0.579143
0.596494
0.367365
0.5977
0.596358
0.5977
0.5977
0.546683
0.597713
0.5977
0.597702
0.37794
0.5977
0.367865
0.5977
0.5977
0.680895
0.706141
0.680658
0.565224
0.542859
1.12643
0.680852
0.5977
0.67998
0.489852
0.452165
0.5977
0.538491
0.595275
0.680723
0.872939
0.5977
0.597703