# vtk DataFile Version 1.0
unstructured grid
ascii
DATASET UNSTRUCTURED_GRID
points 13672 float
0.0796578 -0.059106 0
0.00128732 0.00159165 0
0.00227961 -0.00102548 0
0.0791586 -0.0598787 0
-0.0546216 0.01 0
0.000495206 0.025 0
0.0800549 -0.035 0
0.135172 -0.08 0
-0.0546216 -0.0451168 0
0.000495206 -0.0301168 0
0.0800549 -0.0901168 0
0.135172 -0.135117 0
-0.0546216 -0.0451168 -0.00551168
0.000495206 -0.0301168 -0.00551168
0.0800549 -0.0901168 -0.00551168
0.135172 -0.135117 -0.00551168
0.135172 -0.08 -0.00551168
0.0800549 -0.035 -0.00551168
0.000495206 0.025 -0.00551168
-0.0546216 0.01 -0.00551168
0.00128732 0.00159165 -0.00551168
0.00227961 -0.00102548 -0.00551168
0.0791586 -0.0598787 -0.00551168
0.0796578 -0.059106 -0.00551168
0.00165953 -0.000990923 0
0.00119576 -0.000874076 0
0.000866021 -0.000641801 0
0.000645147 -0.000349912 0
0.00052235 -1.7281e-05 0
0.00049972 0.000348016 0
0.000601632 0.000737716 0
0.000861774 0.0011403 0
0.00157235 0.00183217 0
0.00188647 0.00206725 0
0.00222612 0.00230203 0
0.00258713 0.00254351 0
0.00296826 0.00279524 0
0.00337118 0.00305664 0
0.00379785 0.00332658 0
0.00425045 0.00360349 0
0.00473139 0.00388521 0
0.0052432 0.00416895 0
0.0057881 0.00445204 0
0.00636753 0.00473281 0
0.00698281 0.00500961 0
0.00763526 0.00528058 0
0.00832616 0.00554366 0
0.00905691 0.00579603 0
0.00982918 0.00603333 0
0.0106445 0.00625033 0
0.0115038 0.00644128 0
0.0124073 0.00660297 0
0.0133543 0.00673414 0
0.0143444 0.00683382 0
0.0153769 0.00690031 0
0.0164512 0.00693173 0
0.0175666 0.00692547 0
0.0187219 0.00687822 0
0.0199156 0.00678477 0
0.0211454 0.00663864 0
0.0224084 0.00643275 0
0.0237018 0.00616676 0
0.0250249 0.00584739 0
0.026375 0.00547298 0
0.0277479 0.00503752 0
0.0291386 0.00453545 0
0.0305433 0.0039653 0
0.0319572 0.0033256 0
0.0333681 0.00260019 0
0.034775 0.00179799 0
0.0361793 0.000930615 0
0.0375798 3.12222e-06 0
0.0389689 -0.000988429 0
0.0403357 -0.00205109 0
0.041675 -0.00318283 0
0.0429849 -0.00437751 0
0.0442643 -0.00562904 0
0.0455126 -0.00693089 0
0.0467314 -0.00827518 0
0.0479204 -0.00965638 0
0.0490661 -0.0110799 0
0.0501515 -0.0125519 0
0.0511696 -0.0140695 0
0.0521492 -0.0156071 0
0.0531202 -0.0171411 0
0.0540851 -0.0186663 0
0.0550431 -0.0201798 0
0.0559923 -0.0216793 0
0.0569311 -0.0231626 0
0.0578582 -0.0246273 0
0.0587723 -0.0260715 0
0.0596721 -0.027493 0
0.0605563 -0.02889 0
0.0614241 -0.0302609 0
0.0622742 -0.0316042 0
0.063106 -0.0329183 0
0.0639186 -0.034202 0
0.0647113 -0.0354543 0
0.0654835 -0.0366743 0
0.0662345 -0.0378613 0
0.0669642 -0.0390145 0
0.0676726 -0.0401333 0
0.0683597 -0.0412172 0
0.0690246 -0.0422665 0
0.0696662 -0.0432819 0
0.0702841 -0.0442636 0
0.0708793 -0.0452111 0
0.0714538 -0.0461237 0
0.072009 -0.047001 0
0.0725452 -0.0478434 0
0.0730611 -0.0486524 0
0.073556 -0.0494294 0
0.0740291 -0.0501756 0
0.0744812 -0.0508916 0
0.0749138 -0.0515773 0
0.0753285 -0.0522331 0
0.0757266 -0.0528592 0
0.076109 -0.0534564 0
0.0764753 -0.0540264 0
0.0768243 -0.054571 0
0.0771553 -0.0550919 0
0.0774679 -0.0555901 0
0.0777617 -0.0560669 0
0.0780369 -0.056523 0
0.0782958 -0.0569578 0
0.0785421 -0.0573703 0
0.0787786 -0.0577603 0
0.0790073 -0.0581279 0
0.0792295 -0.058474 0
0.0794462 -0.0587995 0
0.0798803 -0.0594162 0
0.0800272 -0.0596588 0
0.0800357 -0.0598891 0
0.0799275 -0.0600784 0
0.0797205 -0.0601773 0
0.0794593 -0.0601051 0
0.0789155 -0.0596491 0
0.0786707 -0.0593963 0
0.0784111 -0.0591319 0
0.0781372 -0.0588542 0
0.0778566 -0.0585548 0
0.0775715 -0.0582308 0
0.0772803 -0.0578828 0
0.0769832 -0.0575099 0
0.0766822 -0.0571097 0
0.0763801 -0.0566796 0
0.0760759 -0.0562196 0
0.0757623 -0.0557337 0
0.0754359 -0.0552232 0
0.0750951 -0.0546879 0
0.0747379 -0.054128 0
0.0743626 -0.0535435 0
0.0739688 -0.0529338 0
0.0735559 -0.0522981 0
0.0731238 -0.0516357 0
0.0726718 -0.050946 0
0.0721991 -0.0502288 0
0.0717046 -0.049484 0
0.0711872 -0.0487117 0
0.0706461 -0.047912 0
0.0700804 -0.0470849 0
0.0694892 -0.0462308 0
0.0688718 -0.0453499 0
0.0682271 -0.0444431 0
0.0675544 -0.043511 0
0.0668527 -0.0425546 0
0.0661215 -0.0415748 0
0.06536 -0.040573 0
0.0645676 -0.0395504 0
0.0637439 -0.0385087 0
0.0628887 -0.0374493 0
0.062002 -0.0363741 0
0.0610838 -0.0352847 0
0.0601345 -0.0341831 0
0.0591547 -0.033071 0
0.0581456 -0.0319502 0
0.0571083 -0.0308224 0
0.0560444 -0.0296893 0
0.0549562 -0.028552 0
0.053845 -0.0274126 0
0.0527113 -0.0262746 0
0.051554 -0.0251427 0
0.0503724 -0.0240222 0
0.0491675 -0.0229164 0
0.047941 -0.0218282 0
0.0466955 -0.0207597 0
0.0454337 -0.0197126 0
0.0441592 -0.0186878 0
0.0428751 -0.0176863 0
0.0415841 -0.0167097 0
0.0402878 -0.0157609 0
0.0389879 -0.0148428 0
0.0376864 -0.0139575 0
0.0363853 -0.013107 0
0.0350871 -0.0122931 0
0.0337942 -0.0115164 0
0.0325095 -0.0107772 0
0.0312357 -0.0100756 0
0.0299758 -0.00941024 0
0.0287337 -0.00877784 0
0.0275126 -0.00817571 0
0.0263139 -0.00760375 0
0.0251376 -0.00706528 0
0.0239829 -0.0065649 0
0.0228537 -0.00609619 0
0.0217522 -0.00565563 0
0.0206795 -0.00524226 0
0.0196364 -0.00485507 0
0.0186233 -0.00449318 0
0.0176408 -0.00415577 0
0.016689 -0.00384204 0
0.0157682 -0.00355115 0
0.0148783 -0.00328218 0
0.0140192 -0.00303468 0
0.0131906 -0.00280795 0
0.0123925 -0.00260016 0
0.0116246 -0.00241012 0
0.0108864 -0.00223769 0
0.0101774 -0.00208212 0
0.00949701 -0.00194206 0
0.00884483 -0.0018163 0
0.0082202 -0.0017039 0
0.00762247 -0.00160391 0
0.00705097 -0.00151528 0
0.006505 -0.00143697 0
0.0059838 -0.00136806 0
0.00548662 -0.00130772 0
0.00501265 -0.00125519 0
0.00456114 -0.00120954 0
0.00413136 -0.00116914 0
0.00372257 -0.00113251 0
0.00333398 -0.00109853 0
0.00296466 -0.00106798 0
0.00261363 -0.0010431 0
-0.052721 -0.0445996 0
-0.0508204 -0.0440823 0
-0.0489199 -0.0435651 0
-0.0470193 -0.0430478 0
-0.0451187 -0.0425306 0
-0.0432181 -0.0420134 0
-0.0413175 -0.0414961 0
-0.039417 -0.0409789 0
-0.0375164 -0.0404616 0
-0.0356158 -0.0399444 0
-0.0337152 -0.0394271 0
-0.0318146 -0.0389099 0
-0.0299141 -0.0383927 0
-0.0280135 -0.0378754 0
-0.0261129 -0.0373582 0
-0.0242123 -0.0368409 0
-0.0223117 -0.0363237 0
-0.0204112 -0.0358065 0
-0.0185106 -0.0352892 0
-0.01661 -0.034772 0
-0.0147094 -0.0342547 0
-0.0128088 -0.0337375 0
-0.0109083 -0.0332202 0
-0.00900769 -0.032703 0
-0.00710711 -0.0321858 0
-0.00520653 -0.0316685 0
-0.00330595 -0.0311513 0
-0.00140537 -0.030634 0
0.00190689 -0.0299614 0
0.00332271 -0.0298498 0
0.00474133 -0.0297825 0
0.00616136 -0.0297597 0
0.0075814 -0.0297814 0
0.00900007 -0.0298477 0
0.010416 -0.0299583 0
0.0118278 -0.0301127 0
0.0132342 -0.0303103 0
0.0146339 -0.0305504 0
0.0160259 -0.0308322 0
0.0174091 -0.0311546 0
0.0187824 -0.0315166 0
0.020145 -0.031917 0
0.0214961 -0.0323546 0
0.0228351 -0.032828 0
0.0241613 -0.0333361 0
0.0254744 -0.0338774 0
0.0267738 -0.0344507 0
0.0280592 -0.0350545 0
0.0293306 -0.0356877 0
0.0305875 -0.0363488 0
0.0318301 -0.0370367 0
0.0330581 -0.0377501 0
0.0342717 -0.0384879 0
0.0354708 -0.0392489 0
0.0366556 -0.0400321 0
0.0378262 -0.0408363 0
0.0389828 -0.0416607 0
0.0401254 -0.0425042 0
0.0412543 -0.0433659 0
0.0423698 -0.0442451 0
0.043472 -0.0451408 0
0.0445612 -0.0460523 0
0.0456375 -0.0469789 0
0.0467013 -0.0479199 0
0.0477529 -0.0488746 0
0.0487923 -0.0498424 0
0.04982 -0.0508227 0
0.0508362 -0.051815 0
0.051841 -0.0528187 0
0.0528348 -0.0538333 0
0.0538178 -0.0548584 0
0.0547903 -0.0558935 0
0.0557524 -0.0569382 0
0.0567045 -0.0579922 0
0.0576467 -0.0590549 0
0.0585792 -0.0601261 0
0.0595024 -0.0612055 0
0.0604163 -0.0622926 0
0.0613212 -0.0633873 0
0.0622174 -0.0644891 0
0.0631049 -0.0655979 0
0.0639841 -0.0667134 0
0.064855 -0.0678353 0
0.0657179 -0.0689633 0
0.0665729 -0.0700974 0
0.0674202 -0.0712372 0
0.06826 -0.0723826 0
0.0690925 -0.0735333 0
0.0699178 -0.0746892 0
0.070736 -0.0758501 0
0.0715473 -0.0770159 0
0.0723518 -0.0781863 0
0.0731498 -0.0793612 0
0.0739412 -0.0805405 0
0.0747264 -0.081724 0
0.0755053 -0.0829116 0
0.0762781 -0.0841033 0
0.0770449 -0.0852987 0
0.0778059 -0.0864979 0
0.0785611 -0.0877007 0
0.0793108 -0.088907 0
0.0814681 -0.0912706 0
0.0828814 -0.0924245 0
0.0842946 -0.0935783 0
0.0857079 -0.0947322 0
0.0871211 -0.095886 0
0.0885344 -0.0970399 0
0.0899476 -0.0981937 0
0.0913609 -0.0993476 0
0.0927741 -0.100501 0
0.0941874 -0.101655 0
0.0956006 -0.102809 0
0.0970139 -0.103963 0
0.0984272 -0.105117 0
0.0998404 -0.106271 0
0.101254 -0.107424 0
0.102667 -0.108578 0
0.10408 -0.109732 0
0.105493 -0.110886 0
0.106907 -0.11204 0
0.10832 -0.113194 0
0.109733 -0.114348 0
0.111146 -0.115501 0
0.11256 -0.116655 0
0.113973 -0.117809 0
0.115386 -0.118963 0
0.116799 -0.120117 0
0.118213 -0.121271 0
0.119626 -0.122424 0
0.121039 -0.123578 0
0.122452 -0.124732 0
0.123866 -0.125886 0
0.125279 -0.12704 0
0.126692 -0.128194 0
0.128105 -0.129348 0
0.129519 -0.130501 0
0.130932 -0.131655 0
0.132345 -0.132809 0
0.133758 -0.133963 0
0.135172 -0.133216 0
0.135172 -0.131316 0
0.135172 -0.129415 0
0.135172 -0.127514 0
0.135172 -0.125614 0
0.135172 -0.123713 0
0.135172 -0.121813 0
0.135172 -0.119912 0
0.135172 -0.118012 0
0.135172 -0.116111 0
0.135172 -0.11421 0
0.135172 -0.11231 0
0.135172 -0.110409 0
0.135172 -0.108509 0
0.135172 -0.106608 0
0.135172 -0.104708 0
0.135172 -0.102807 0
0.135172 -0.100906 0
0.135172 -0.0990058 0
0.135172 -0.0971052 0
0.135172 -0.0952046 0
0.135172 -0.0933041 0
0.135172 -0.0914035 0
0.135172 -0.0895029 0
0.135172 -0.0876023 0
0.135172 -0.0857017 0
0.135172 -0.0838012 0
0.135172 -0.0819006 0
0.133758 -0.0788462 0
0.132345 -0.0776923 0
0.130932 -0.0765385 0
0.129519 -0.0753846 0
0.128105 -0.0742308 0
0.126692 -0.0730769 0
0.125279 -0.0719231 0
0.123866 -0.0707692 0
0.122452 -0.0696154 0
0.121039 -0.0684615 0
0.119626 -0.0673077 0
0.118213 -0.0661538 0
0.116799 -0.065 0
0.115386 -0.0638462 0
0.113973 -0.0626923 0
0.11256 -0.0615385 0
0.111146 -0.0603846 0
0.109733 -0.0592308 0
0.10832 -0.0580769 0
0.106907 -0.0569231 0
0.105493 -0.0557692 0
0.10408 -0.0546154 0
0.102667 -0.0534615 0
0.101254 -0.0523077 0
0.0998404 -0.0511538 0
0.0984272 -0.05 0
0.0970139 -0.0488462 0
0.0956006 -0.0476923 0
[...]
CELL_DATA 13116
SCALARS rho float
LOOKUP_TABLE default
0.551179
0.680333
0.371746
0.714113
0.701951
0.67627
0.311158
0.717334
0.501826
0.703943
0.343668
0.336501
0.702274
0.336204
0.322239
0.680203
0.54945
0.684011
0.705309
0.328777
0.545409
0.373422
0.349997
0.689393
0.577966
0.696331
0.703894
0.415431
0.561744
0.62394
1.15173
0.331434
0.524592
0.426799
0.317895
0.548748
0.651467
0.699339
1.04007
0.709747
0.701149
0.71677
0.42444
0.375335
0.705603
0.705818
0.673488
0.70667
0.343253
0.489834
0.713034
0.43168
0.279277
0.541569
0.524352
0.556113
0.378575
0.685221
0.499886
0.314694
0.336514
0.70917
0.678009
1.07884
1.13799
0.34949
0.705751
0.652753
0.705662
1.13794
0.328842
0.549534
0.380182
0.392701
1.14744
0.361228
0.651634
0.705248
0.33317
0.677709
0.667277
0.693901
0.690258
0.705063
0.697432
0.403999
0.34041
0.641606
0.705671
0.361481
0.334448
0.681088
0.695321
0.707645
0.635056
0.575702
0.581242
1.13906
1.14806
0.563408
0.647585
0.635331
0.702326
0.401905
0.671253
0.324053
0.352985
0.46616
0.389838
0.570364
0.493559
0.68745
0.572373
0.667824
0.678973
0.704551
0.340856
0.377036
0.705803
0.705592
0.651229
0.381909
0.706056
0.334739
0.704898
0.41529
0.340675
0.47271
0.3841
0.489768
0.706236
0.689472
0.458086
0.357019
0.436897
0.590498
1.13362
0.707277
0.645718
0.706104
0.636987
0.675544
0.473414
0.639545
0.664823
0.331891
0.327102
0.692408
0.699263
0.717657
0.501835
0.705429
0.706339
0.357978
0.699041
0.698644
0.360834
0.655117
1.14046
0.640323
0.687878
0.340452
0.689607
0.393225
0.38282
0.708414
0.703224
0.683011
0.315977
0.419857
0.390952
1.13384
0.30302
0.460363
0.702131
0.335535
0.358773
0.378588
0.685988
0.678102
0.347553
0.405514
0.51766
0.649509
0.680988
0.500177
0.372772
0.70386
0.67271
0.432022
0.63568
0.691464
1.13763
0.335815
0.686671
0.677223
0.698649
0.704454
0.70454
0.380105
0.402633
0.577005
0.468041
0.37205
0.696021
0.699867
0.438064
0.585248
0.31255
0.362486
0.361945
0.703167
0.368163
0.332986
0.364386
0.358691
0.367731
1.00702
0.703611
0.388255
0.380159
0.70549
0.488826
0.348275
0.510242
0.706295
0.662499
0.417963
0.703571
0.3667
0.715519
0.331655
1.15307
0.537354
1.13792
0.704794
1.13263
0.321107
0.411121
0.637573
1.14288
0.681697
1.13359
1.14367
0.71753
0.359941
0.706988
0.70042
1.14426
0.344959
0.345445
0.703378
0.706648
1.15363
0.703865
0.545932
0.665025
0.34482
0.340098
0.377179
0.314307
0.665461
0.697965
0.650046
0.326393
0.70481
0.36465
0.39587
0.672669
0.354948
0.694288
0.715341
1.14545
0.685063
0.326126
1.14562
0.672538
1.14302
0.707086
0.338163
0.346198
0.330396
0.587398
0.382848
0.362211
0.337618
0.339451
0.690664
0.264205
0.70532
0.704797
0.352754
0.332532
0.357594
0.418801
0.396542
0.640622
0.617549
0.681171
0.355641
0.701087
0.53657
0.342253
0.320229
0.87035
0.706959
0.703644
0.373969
0.677712
0.409995
0.689944
0.716533
0.715485
0.716676
0.336804
0.704735
0.29809
0.699487
0.706903
0.633947
0.346833
0.334249
0.701441
0.351934
0.688228
0.709293
0.366471
0.665146
0.689432
0.351563
0.704363
0.694878
0.311869
0.707454
0.388658
0.524655
0.712387
0.40385
0.657015
0.329835
0.684722
0.326117
1.12261
0.648022
0.700675
0.419867
0.356506
0.697986
0.356217
0.697643
0.67608
0.400527
1.13432
0.365403
0.372906
0.700293
0.513064
0.653277
0.347086
0.384996
0.706793
0.704428
0.333326
0.706445
0.341231
0.322556
0.705879
0.713884
0.470956
0.364071
0.707345
1.15043
0.680484
0.703618
0.690377
0.504228
0.381358
0.310284
0.344116
0.678021
0.343841
0.517574
0.366159
0.33553
0.35147
0.478532
0.115727
0.356492
0.698133
0.341282
0.691369
0.565815
0.704197
0.631381
0.707328
0.375182
0.345156
0.382553
0.367413
0.696519
0.569131
0.702117
0.56516
0.666276
0.59984
0.692904
0.622272
0.622806
0.690486
0.676467
0.717367
0.37972
0.443575
0.548538
0.373257
0.614739
0.555809
0.294463
0.704573
1.14004
0.335915
0.335354
0.355995
0.370756
0.582952
0.322801
0.334402
0.704467
0.367387
0.538334
0.356902
0.6883
0.673078
0.40037
0.360891
0.699348
0.417446
0.360142
0.369335
0.352078
0.393464
0.345513
0.335731
0.372588
0.399356
0.358824
0.634213
0.384287
0.702193
0.374278
0.334302
0.458311
0.330116
0.363807
0.331045
0.707763
0.403086
0.598584
0.476361
0.356715
0.589163
0.707066
0.400283
0.663874
0.604152
0.605525
0.349277
1.1393
0.378633
0.68948
1.15043
0.409265
0.264586
0.670736
0.367601
0.402851
0.651395
0.353305
0.65364
0.669309
0.339142
0.357147
0.272882
0.455786
0.318491
0.300096
0.31055
0.298178
0.713241
0.712522
0.423714
0.566577
0.438954
0.684725
0.357414
0.349411
0.50713
0.425624
0.697826
0.304866
0.364714
0.453959
0.70493
0.700766
0.520613
0.366897
0.2593
0.517428
0.717269
1.13876
0.515573
0.668755
0.663867
0.356539
0.671444
0.533547
0.636118
0.334649
0.394945
0.666606
0.698635
0.629055
0.706514
0.699353
0.699071
0.685627
0.633542
0.703515
0.35088
0.704344
0.323899
0.308751
0.341737
0.713434
0.701312
0.320951
0.698241
0.573291
0.347994
1.12229
0.707051
0.684641
0.417354
0.349973
0.702819
0.362553
0.36
0.324601
0.356041
0.693701
0.305605
0.713445
0.384346
0.679049
0.709881
0.704374
0.703737
0.363257
0.329319
0.70102
0.71564
0.655603
0.712571
0.699986
0.44787
0.351967
0.449429
0.699726
0.499575
0.354331
0.418147
0.334381
0.711935
0.705214
0.331651
0.374094
0.701592
0.410717
0.699229
0.618914
0.387206
0.366398
0.653459
1.13786
0.396597
0.699889
0.702842
0.701043
0.357876
1.13379
0.38584
1.13715
0.63451
0.365004
0.364918
0.365203
1.13639
0.391963
0.320161
0.379617
1.06785
0.686239
0.32446
0.332671
0.362593
1.09972
0.380776
0.679763
0.332821
0.552243
0.706243
0.374697
0.387728
0.366004
0.449407
0.444078
0.696866
0.370083
0.349467
0.682244
0.258331
0.70307
0.683676
1.13772
0.339667
0.699109
0.693309
0.697726
0.700146
0.707959
0.704357
0.332091
1.1399
0.393965
0.693178
0.337466
0.717797
0.477933
0.299019
1.13883
0.695963
0.351142
0.620387
0.333898
0.330551
0.704112
0.706909
0.333412
0.332046
0.330601
0.33061
0.71059
0.689653
0.356491
0.345279
0.696841
0.706978
0.554822
0.692772
0.703724
0.343168
0.700783
0.396887
0.710646
0.381724
0.5674
0.43687
0.704624
0.65505
0.537748
0.352543
0.424161
0.706109
0.559042
0.539429
0.691857
0.311192
0.674249
0.69844
0.342199
0.439423
0.694632
0.364368
1.13991
0.638634
0.33298
0.710067
0.632884
0.376759
0.683316
0.329817
0.701758
0.365516
0.702533
0.676407
0.430927
1.03129
0.690402
0.701453
0.575881
0.677323
0.537818
0.352296
0.40757
0.338242
0.379091
1.13503
0.513367
0.706186
0.698908
0.337068
0.369086
0.68189
0.708103
0.698782
0.716161
0.33945
0.676471
0.700607
0.328986
0.328828
0.705291
0.703965
0.701067
0.328364
0.541358
0.399231
0.681219
0.684347
1.14096
0.683874
0.355332
0.687605
0.704023
0.69295
0.70579
0.700283
0.389335
0.690261
0.362623
0.651063
0.702141
0.418168
0.670322
1.13527
0.709921
0.408545
0.39202
0.540912
0.619245
0.361951
0.366407
0.356011
0.360868
0.677851
0.673294
1.14048
0.338805
0.355308
0.70532
0.655219
0.314036
0.366106
0.423515
0.657029
0.704849
0.702843
0.678752
0.363608
0.362183
1.14244
0.334379
0.331638
0.365791
0.700452
0.401049
0.36279
0.549635
0.697114
0.684679
0.777672
0.702702
0.344813
0.265266
0.358108
0.483498
0.404832
0.332242
0.652309
0.67606
0.697322
0.701419
0.329966
0.348283
0.705684
0.352465
0.699983
0.676982
1.14245
0.33337
0.352515
0.697884
1.14597
0.572162
0.309767
0.698603
0.716408
0.546445
0.716548
0.717446
1.14436
0.667295
0.339453
0.702373
1.14629
0.631746
0.680595
1.13341
0.687916
1.13473
0.706882
0.347393
0.356916
0.350424
1.14473
0.480798
0.354187
0.682522
0.696271
0.335291
0.626448
0.398477
0.636344
0.468038
0.3283
0.709225
0.688209
0.355022
0.504981
1.14905
0.393877
0.70864
0.343357
0.322103
0.596321
0.575607
0.457644
0.702834
0.356512
0.689945
0.360178
0.33103
0.702638
0.354462
0.578824
0.334965
0.628038
0.568814
1.13515
0.702119
0.310232
0.350085
0.641833
0.429063
0.697871
0.435909
0.568284
0.678112
0.692345
0.439146
0.56817
0.685724
0.699315
0.706097
0.333248
0.365692
0.500347
0.686257
0.700126
0.36844
0.702593
0.573294
0.381665
0.333206
0.636061
0.656086
1.1341
1.1361
0.648027
0.671077
0.998994
0.660212
0.334516
0.626295
0.420402
0.713197
0.703723
0.324206
0.709612
0.703764
0.363102
0.303675
0.354191
1.13341
0.340208
0.594086
0.686971
0.626694
0.344907
0.695698
0.341307
0.542417
1.10414
1.14481
0.650029
1.0988
0.588287
0.666214
0.501696
0.692885
0.366391
0.699835
0.704008
0.413635
1.13528
0.676287
0.328298
0.311814
0.390275
0.714689
0.366836
1.13433
0.360042
0.717403
0.273159
0.438345
0.334419
0.688454
0.714353
0.544106
0.265252
0.590178
0.93879
0.359369
0.55468
0.712747
0.332058
0.558874
1.1463
0.70541
0.700228
0.412856
0.460313
0.698431
0.70513
0.65197
0.364162
0.38886
0.700815
1.13506
1.13896
1.13437
0.536402
0.689935
0.532468
0.711995
0.363861
0.356463
1.13437
0.702055
1.03504
0.352772
0.700045
0.549462
0.588889
0.363427
0.385383
0.706386
0.714473
0.520064
0.373183
0.702081
1.13582
0.320337
0.578486
0.677988
0.323241
0.333957
0.291373
0.678322
0.375831
0.345511
0.703748
0.440106
0.700267
0.633837
0.30438
0.349318
0.712658
0.361912
0.331392
1.14721
0.335505
0.361316
0.562585
0.70718
0.696845
0.357943
0.394168
0.344605
0.684816
0.32522
0.698123
0.280507
0.684646
0.703374
0.704496
0.674301
0.683905
0.68234
0.704579
0.703743
0.701648
0.29922
0.358966
0.67681
0.940578
0.460566
0.67924
0.523832
1.05591
0.63022
0.400904
0.704561
0.711577
0.694438
0.345351
0.687297
0.388733
0.704266
0.449245
0.679521
0.700359
0.330584
0.694769
0.359728
0.421879
0.6773
0.364527
0.657109
1.13361
0.715057
0.370296
0.704507
0.36306
0.334051
0.335641
0.363413
0.630562
0.301784
0.638168
1.13415
0.371236
0.3364
0.443175
0.540692
0.612849
0.658477
0.338196
0.349061
0.333082
0.334462
0.271205
0.614889
0.690916
0.41127
1.12511
0.686578
0.291264
0.711176
0.653197
1.11854
0.351029
1.13604
0.675877
0.692175
0.714698
0.323675
0.696457
0.695932
0.688004
0.635219
0.6941
0.354867
0.336641
0.706187
0.496119
0.358044
0.702142
0.333171
0.52657
0.614342
0.700369
0.702348
0.333521
0.677527
0.375849
0.346383
0.668221
0.70062
0.69658
0.707723
0.650761
0.334708
0.702849
0.306312
0.459325
0.707885
1.14885
0.698285
0.346901
0.339993
0.701406
0.343685
0.702605
0.611027
0.401287
0.356192
0.70856
0.335801
0.700209
0.701778
0.655547
0.335897
0.359403
0.466224
0.49722
0.602021
0.4407
0.679126
0.66019
0.701267
1.13337
0.684113
0.266473
0.359901
0.704694
0.70888
0.647733
0.417665
0.367742
0.668238
0.297925
0.704473
0.571427
0.383372
0.695715
0.348116
0.703559
0.374254
0.699238
0.319283
0.701181
0.702703
0.334536
0.706196
0.619026
0.337734
1.14265
0.705122
0.524399
0.329452
0.365091
0.436333
0.694301
0.649895
0.373135
0.537997
0.686136
0.693646
0.34705
0.600172
0.688936
0.40411
0.683051
0.698657
0.298206
0.704588
1.1412
0.368558
0.576292
0.365598
0.63787
0.361043
0.320378
0.697874
0.352093
0.363972
0.304503
0.70521
0.687228
0.384031
0.70261
0.363919
0.666099
0.363577
0.687393
0.366614
0.686704
0.706541
0.648624
1.1477
0.507253
0.702471
1.11983
0.405291
0.599554
0.651472
0.5027
0.683693
0.449369
0.397
0.702596
0.349065
0.536332
0.396657
0.702125
0.30917
0.335467
0.687954
0.70358
0.332911
0.711653
0.675017
1.13341
0.716544
1.13645
0.341132
0.710561
0.326701
0.388062
0.70624
0.680984
0.716934
0.700736
0.332167
0.359866
0.340949
0.682462
1.13648
0.363983
0.709365
0.345953
0.363445
0.361721
0.706793
0.381131
0.704387
0.700793
0.596898
0.706326
0.701425
0.551272
0.645883
0.399165
0.335303
0.329242
1.13631
1.13556
0.348812
0.614485
0.675783
0.645143
0.394837
0.410829
0.662311
0.299953
0.656047
0.61821
0.331572
0.894286
0.677806
0.355965
0.696713
0.319649
0.706115
0.701689
0.685259
0.302731
0.425235
0.655396
0.312825
0.393456
0.705759
0.323397
0.797867
0.706015
0.693607
0.674893
0.380567
1.13734
0.667059
0.705063
0.350968
0.70767
0.363557
0.328153
0.696028
0.705159
1.12669
0.25374
0.700869
0.595937
1.14809
0.348598
0.339583
0.362442
0.706919
0.327581
0.249555
0.37259
0.616173
0.298103
0.333377
0.403393
0.699205
0.344568
1.14904
1.06201
0.709695
0.371053
0.70632
0.627666
1.12232
0.388005
0.632831
0.328722
0.350308
0.704143
0.330818
0.616603
0.683154
1.13495
0.338804
0.336295
0.3518
0.516776
1.13375
0.259932
0.699469
0.704955
0.678061
0.364433
0.299573
0.33338
0.655019
0.355241
1.13306
0.563991
0.948841
0.7018
0.340036
0.621001
0.332538
0.618464
0.613558
0.707389
0.60285
0.506907
0.635698
0.650386
0.705246
0.359922
0.37322
0.389048
0.678139
0.504175
1.14901
0.338418
0.385274
0.689062
0.705796
1.14667
0.326765
0.710183
0.516077
0.520964
0.651666
0.41766
0.324628
0.300864
0.705574
1.12739
0.632275
0.6832
0.343008
0.71474
0.626846
1.12741
1.13349
0.715995
0.71108
0.672023
0.681372
0.695194
0.449111
0.707508
0.707309
0.693562
0.706925
0.705467
0.586351
0.342201
0.330512
0.636629
0.358871
0.376962
0.708731
0.333942
0.597765
0.704825
0.68143
0.695638
0.310326
0.710431
0.335519
0.341534
0.672347
0.69107
0.701612
0.37123
0.706656
0.702692
0.642269
0.703197
0.370272
0.684802
0.702017
0.675071
0.378887
0.684601
0.350678
0.713556
0.363023
0.342111
0.552769
0.41668
0.708595
0.687539
0.699963
0.36864
0.6792
0.386094
0.317942
0.697059
0.443047
0.360115
0.701299
0.321552
0.467744
0.64756
0.669109
0.699565
0.44667
0.551381
0.633349
0.699367
0.587975
0.697233
0.496967
0.713642
0.682401
0.626337
0.328717
0.335704
0.413956
0.708017
0.331874
0.638288
0.71286
0.578786
0.699562
0.530055
0.657926
0.662044
0.349953
0.711267
0.674207
0.515344
0.674346
0.702034
0.697449
0.830544
0.364067
0.347538
0.692663
0.508528
0.537748
0.706999
0.703516
0.702873
0.698925
0.701301
0.601595
0.659677
0.706954
0.269425
0.335799
0.314687
0.386561
1.13642
0.42774
0.529018
0.695825
0.666719
0.395902
0.695603
0.714163
0.373239
0.368882
1.13522
0.707342
0.443984
0.32858
0.32554
1.13226
0.696132
0.381948
0.27198
0.329183
0.329576
0.361615
0.362291
0.715564
0.706832
0.678827
0.365383
0.682608
0.593143
0.56749
0.352551
0.333702
0.696083
1.13371
0.358883
0.681253
0.354755
0.687539
0.430309
0.708932
0.347233
0.697216
0.707483
0.36852
0.522382
0.346584
0.711067
0.336868
0.599263
0.332719
0.476948
0.33436
0.592359
0.357007
1.15083
1.13769
0.56676
0.682902
0.352067
0.688398
0.930049
0.7068
0.589751
0.66514
0.333692
0.407215
0.365011
0.694867
0.311276
0.703537
0.511001
0.679796
0.705558
0.461439
0.69102
0.327219
0.339338
0.261501
0.477184
0.556753
0.702418
0.357154
0.36197
0.701841
0.353957
0.335275
0.580614
0.367641
0.361098
0.329897
0.716454
0.619756
0.603015
0.384045
0.686295
0.706361
0.332091
0.314884
0.70248
0.701672
0.61631
0.473489
0.37467
0.35071
0.358638
0.71099
0.637017
0.498599
0.664991
0.304626
0.545153
0.345571
1.13815
0.70475
0.334497
0.340422
0.642477
0.575932
0.704439
0.695878
0.695676
0.714224
0.706744
0.359726
0.374876
0.391395
0.339614
0.549505
1.14848
0.621715
0.342417
0.335208
0.432596
0.333659
0.703471
0.666802
0.36585
0.336761
0.704729
0.396396
0.633733
0.691319
0.686862
0.698171
0.551586
0.359486
0.350148
0.656942
0.334507
0.413975
0.381511
0.934033
0.707261
0.334902
0.333908
1.13759
0.358203
0.701395
0.695365
0.347939
0.364032
0.250007
0.704694
0.338752
1.13363
0.679898
0.582227
0.330609
0.492912
0.703602
0.69723
0.31894
0.691629
0.636807
0.337047
0.704287
0.713748
0.345126
0.345818
0.696545
0.361417
0.33904
0.688562
0.332738
0.706142
0.657343
0.693308
0.636572
0.701758
0.705493
0.781806
0.337362
0.382146
0.65208
0.69289
0.422612
0.710788
0.345298
0.706711
0.700158
0.540842
0.627188
0.407422
0.421604
0.696478
0.700719
0.680744
0.70863
0.702869
1.13493
0.717539
1.13667
0.707494
0.698548
0.71461
1.13403
0.711561
0.339805
0.694753
0.402954
0.708146
0.707456
0.685075
0.680615
0.672852
0.362081
0.355499
0.321022
0.326505
0.683678
0.346493
0.350776
0.669958
0.328984
0.68026
0.35762
0.690047
0.697599
0.350239
0.355941
0.381581
0.707786
0.394435
0.702147
0.693693
0.352361
0.694682
0.521896
0.375185
0.421189
0.332269
0.669159
0.348061
0.711391
0.527744
0.349429
0.705201
0.701404
0.695498
0.355161
0.552503
0.335019
0.683062
0.813609
0.704076
0.365731
0.691842
0.707101
0.6825
0.391488
0.707916
0.359562
0.358507
0.704465
0.423564
0.701955
0.399996
0.364466
0.406301
0.683583
0.400153
0.341313
0.364826
0.472871
1.14086
0.696511
0.322865
0.586305
0.703635
0.514808
0.424486
0.385825
0.524741
0.365166
0.348206
0.703598
0.359659
0.354636
0.714159
0.713734
0.368661
0.681465
0.359393
1.13557
0.410552
0.698656
1.1388
0.675214
0.967521
0.363989
0.35087
0.336599
0.697019
0.698633
0.549183
0.508583
0.350717
0.324562
0.697127
0.340178
0.706406
0.360936
1.14607
0.655052
0.363628
0.376122
0.355934
0.334646
0.374873
0.643709
0.684492
0.348196
0.70683
0.6226
0.35013
0.295268
0.713058
0.360763
0.700303
0.39373
0.676056
0.631609
0.706626
1.13843
0.341816
0.701513
0.709339
0.716083
0.352347
0.649657
0.55846
0.377824
0.707476
0.64738
0.713787
0.688626
0.706357
0.706481
0.716303
0.698625
0.704761
0.338881
0.693236
0.355615
0.440936
0.705528
0.336728
0.694655
0.662704
0.355345
0.681216
0.349069
0.33479
0.709494
0.652477
0.713701
0.360103
0.689426
0.588815
0.411437
0.36187
0.700618
0.705801
0.369013
0.364781
0.685052
0.713027
0.355621
0.626482
0.70645
0.621489
0.374494
0.358474
0.333558
0.63215
0.321739
0.691714
0.677389
0.69869
0.597312
0.700381
0.361594
0.703468
0.576319
0.706607
0.60239
0.337353
0.330278
0.315833
0.68925
0.696393
0.391657
0.62963
0.39513
0.651318
0.705067
0.313006
0.634389
0.693085
0.60582
0.366939
0.344242
0.386155
0.701632
0.701669
0.586918
0.473883
0.704411
0.357587
0.612743
1.14752
0.690951
0.366466
0.586399
0.357259
0.669601
0.321676
0.698437
0.709056
0.380399
0.703724
0.428646
1.13399
0.634309
1.13293
0.714545
0.405605
0.692451
0.701252
0.70757
0.699646
0.434888
1.14703
0.282158
0.701655
0.314247
0.332018
0.295162
0.376351
0.363955
0.364955
0.709682
0.353581
0.252307
0.644666
0.703794
0.686223
0.383119
0.669878
0.663449
0.744465
0.325824
0.60372
0.705639
0.377301
0.365481
0.351778
0.611088
0.464223
0.344622
0.594695
0.330668
1.13664
0.45952
0.332111
0.432775
0.626104
0.38308
0.70521
0.308737
0.493348
0.366073
0.712592
0.37513
0.649896
1.14731
0.669282
0.421162
0.348573
0.709625
0.711579
0.366
0.334594
0.676972
0.326938
0.683266
0.364368
0.523343
0.316562
0.705595
0.37702
0.711414
0.333622
0.706098
0.703187
0.702153
1.1356
0.273493
0.341551
0.381658
0.697646
0.668686
0.682316
0.562133
0.363226
0.689459
0.384884
0.697179
0.642616
0.397111
0.354209
0.691792
0.699925
0.33389
1.1528
0.711141
0.694364
0.693241
0.300951
0.614011
0.361031
0.695926
0.321408
1.10152
0.693797
0.707681
0.712953
0.349841
0.714897
0.356287
0.349516
0.700735
1.1363
0.520263
0.694702
1.13825
0.360863
0.685538
0.710928
0.717097
0.333531
0.405291
0.663375
0.348368
0.707072
0.713631
0.694953
0.714282
0.307937
0.43035
0.62146
0.372244
0.701528
0.711853
0.449829
0.707485
0.276514
0.657394
0.686522
0.651316
0.706276
0.342089
0.336537
0.702112
0.691083
0.355194
0.352343
0.372702
0.391585
0.243218
0.334648
0.402333
0.357742
0.700101
0.314471
0.379273
0.683583
0.520266
1.13632
0.382635
0.335991
0.704249
0.44032
0.482745
0.69935
0.370296
0.630033
1.1471
0.571835
0.686109
0.391917
0.697473
1.0689
0.351302
0.358208
0.399226
0.660686
0.573848
0.70519
0.689843
0.691364
0.684221
0.374935
0.701976
0.990256
0.703107
0.346916
0.705699
0.623828
0.373591
0.40457
0.264734
0.334585
0.274633
0.565387
0.649277
0.676726
0.350134
0.360562
0.707608
0.334425
0.691391
0.701595
0.694094
0.651452
0.705472
0.380548
0.334787
0.328308
0.55078
0.323266
0.705994
0.326893
0.703579
0.673813
0.707423
0.388047
0.427552
0.402555
0.702316
0.363261
0.348989
0.708195
0.687108
0.624891
0.681736
0.699867
0.682401
0.364303
0.585634
0.699875
0.489788
0.701274
0.692071
0.68646
0.409223
0.391669
0.716934
0.456698
0.605247
0.364741
0.671627
0.696889
0.379895
0.323507
0.680539
0.476102
0.700252
0.690489
0.35093
0.328275
1.14011
0.410648
0.387239
0.699617
0.700632
0.354347
0.701703
1.1404
0.680493
0.365121
0.56684
0.361762
0.702183
0.705039
0.682917
0.675109
1.13761
0.335686
0.361164
0.683622
0.355967
0.568035
0.34852
0.706443
0.329945
0.635118
0.698868
1.1371
0.365762
1.1334
1.13945
0.34295
0.67018
0.332007
0.716372
0.362992
0.351182
0.324215
0.672445
0.705106
0.313848
0.315297
0.692874
0.706064
0.426146
0.675186
0.363713
0.47646
0.329782
0.681569
0.347754
0.647318
0.709305
0.421384
0.410537
0.347922
1.13014
0.359689
0.34189