# vtk DataFile Version 1.0
unstructured grid
ascii
DATASET UNSTRUCTURED_GRID
points 13672 float
0.0796578 -0.059106 0
0.00128732 0.00159165 0
0.00227961 -0.00102548 0
0.0791586 -0.0598787 0
-0.0546216 0.01 0
0.000495206 0.025 0
0.0800549 -0.035 0
0.135172 -0.08 0
-0.0546216 -0.0451168 0
0.000495206 -0.0301168 0
0.0800549 -0.0901168 0
0.135172 -0.135117 0
-0.0546216 -0.0451168 -0.00551168
0.000495206 -0.0301168 -0.00551168
0.0800549 -0.0901168 -0.00551168
0.135172 -0.135117 -0.00551168
0.135172 -0.08 -0.00551168
0.0800549 -0.035 -0.00551168
0.000495206 0.025 -0.00551168
-0.0546216 0.01 -0.00551168
0.00128732 0.00159165 -0.00551168
0.00227961 -0.00102548 -0.00551168
0.0791586 -0.0598787 -0.00551168
0.0796578 -0.059106 -0.00551168
0.00165953 -0.000990923 0
0.00119576 -0.000874076 0
0.000866021 -0.000641801 0
0.000645147 -0.000349912 0
0.00052235 -1.7281e-05 0
0.00049972 0.000348016 0
0.000601632 0.000737716 0
0.000861774 0.0011403 0
0.00157235 0.00183217 0
0.00188647 0.00206725 0
0.00222612 0.00230203 0
0.00258713 0.00254351 0
0.00296826 0.00279524 0
0.00337118 0.00305664 0
0.00379785 0.00332658 0
0.00425045 0.00360349 0
0.00473139 0.00388521 0
0.0052432 0.00416895 0
0.0057881 0.00445204 0
0.00636753 0.00473281 0
0.00698281 0.00500961 0
0.00763526 0.00528058 0
0.00832616 0.00554366 0
0.00905691 0.00579603 0
0.00982918 0.00603333 0
0.0106445 0.00625033 0
0.0115038 0.00644128 0
0.0124073 0.00660297 0
0.0133543 0.00673414 0
0.0143444 0.00683382 0
0.0153769 0.00690031 0
0.0164512 0.00693173 0
0.0175666 0.00692547 0
0.0187219 0.00687822 0
0.0199156 0.00678477 0
0.0211454 0.00663864 0
0.0224084 0.00643275 0
0.0237018 0.00616676 0
0.0250249 0.00584739 0
0.026375 0.00547298 0
0.0277479 0.00503752 0
0.0291386 0.00453545 0
0.0305433 0.0039653 0
0.0319572 0.0033256 0
0.0333681 0.00260019 0
0.034775 0.00179799 0
0.0361793 0.000930615 0
0.0375798 3.12222e-06 0
0.0389689 -0.000988429 0
0.0403357 -0.00205109 0
0.041675 -0.00318283 0
0.0429849 -0.00437751 0
0.0442643 -0.00562904 0
0.0455126 -0.00693089 0
0.0467314 -0.00827518 0
0.0479204 -0.00965638 0
0.0490661 -0.0110799 0
0.0501515 -0.0125519 0
0.0511696 -0.0140695 0
0.0521492 -0.0156071 0
0.0531202 -0.0171411 0
0.0540851 -0.0186663 0
0.0550431 -0.0201798 0
0.0559923 -0.0216793 0
0.0569311 -0.0231626 0
0.0578582 -0.0246273 0
0.0587723 -0.0260715 0
0.0596721 -0.027493 0
0.0605563 -0.02889 0
0.0614241 -0.0302609 0
0.0622742 -0.0316042 0
0.063106 -0.0329183 0
0.0639186 -0.034202 0
0.0647113 -0.0354543 0
0.0654835 -0.0366743 0
0.0662345 -0.0378613 0
0.0669642 -0.0390145 0
0.0676726 -0.0401333 0
0.0683597 -0.0412172 0
0.0690246 -0.0422665 0
0.0696662 -0.0432819 0
0.0702841 -0.0442636 0
0.0708793 -0.0452111 0
0.0714538 -0.0461237 0
0.072009 -0.047001 0
0.0725452 -0.0478434 0
0.0730611 -0.0486524 0
0.073556 -0.0494294 0
0.0740291 -0.0501756 0
0.0744812 -0.0508916 0
0.0749138 -0.0515773 0
0.0753285 -0.0522331 0
0.0757266 -0.0528592 0
0.076109 -0.0534564 0
0.0764753 -0.0540264 0
0.0768243 -0.054571 0
0.0771553 -0.0550919 0
0.0774679 -0.0555901 0
0.0777617 -0.0560669 0
0.0780369 -0.056523 0
0.0782958 -0.0569578 0
0.0785421 -0.0573703 0
0.0787786 -0.0577603 0
0.0790073 -0.0581279 0
0.0792295 -0.058474 0
0.0794462 -0.0587995 0
0.0798803 -0.0594162 0
0.0800272 -0.0596588 0
0.0800357 -0.0598891 0
0.0799275 -0.0600784 0
0.0797205 -0.0601773 0
0.0794593 -0.0601051 0
0.0789155 -0.0596491 0
0.0786707 -0.0593963 0
0.0784111 -0.0591319 0
0.0781372 -0.0588542 0
0.0778566 -0.0585548 0
0.0775715 -0.0582308 0
0.0772803 -0.0578828 0
0.0769832 -0.0575099 0
0.0766822 -0.0571097 0
0.0763801 -0.0566796 0
0.0760759 -0.0562196 0
0.0757623 -0.0557337 0
0.0754359 -0.0552232 0
0.0750951 -0.0546879 0
0.0747379 -0.054128 0
0.0743626 -0.0535435 0
0.0739688 -0.0529338 0
0.0735559 -0.0522981 0
0.0731238 -0.0516357 0
0.0726718 -0.050946 0
0.0721991 -0.0502288 0
0.0717046 -0.049484 0
0.0711872 -0.0487117 0
0.0706461 -0.047912 0
0.0700804 -0.0470849 0
0.0694892 -0.0462308 0
0.0688718 -0.0453499 0
0.0682271 -0.0444431 0
0.0675544 -0.043511 0
0.0668527 -0.0425546 0
0.0661215 -0.0415748 0
0.06536 -0.040573 0
0.0645676 -0.0395504 0
0.0637439 -0.0385087 0
0.0628887 -0.0374493 0
0.062002 -0.0363741 0
0.0610838 -0.0352847 0
0.0601345 -0.0341831 0
0.0591547 -0.033071 0
0.0581456 -0.0319502 0
0.0571083 -0.0308224 0
0.0560444 -0.0296893 0
0.0549562 -0.028552 0
0.053845 -0.0274126 0
0.0527113 -0.0262746 0
0.051554 -0.0251427 0
0.0503724 -0.0240222 0
0.0491675 -0.0229164 0
0.047941 -0.0218282 0
0.0466955 -0.0207597 0
0.0454337 -0.0197126 0
0.0441592 -0.0186878 0
0.0428751 -0.0176863 0
0.0415841 -0.0167097 0
0.0402878 -0.0157609 0
0.0389879 -0.0148428 0
0.0376864 -0.0139575 0
0.0363853 -0.013107 0
0.0350871 -0.0122931 0
0.0337942 -0.0115164 0
0.0325095 -0.0107772 0
0.0312357 -0.0100756 0
0.0299758 -0.00941024 0
0.0287337 -0.00877784 0
0.0275126 -0.00817571 0
0.0263139 -0.00760375 0
0.0251376 -0.00706528 0
0.0239829 -0.0065649 0
0.0228537 -0.00609619 0
0.0217522 -0.00565563 0
0.0206795 -0.00524226 0
0.0196364 -0.00485507 0
0.0186233 -0.00449318 0
0.0176408 -0.00415577 0
0.016689 -0.00384204 0
0.0157682 -0.00355115 0
0.0148783 -0.00328218 0
0.0140192 -0.00303468 0
0.0131906 -0.00280795 0
0.0123925 -0.00260016 0
0.0116246 -0.00241012 0
0.0108864 -0.00223769 0
0.0101774 -0.00208212 0
0.00949701 -0.00194206 0
0.00884483 -0.0018163 0
0.0082202 -0.0017039 0
0.00762247 -0.00160391 0
0.00705097 -0.00151528 0
0.006505 -0.00143697 0
0.0059838 -0.00136806 0
0.00548662 -0.00130772 0
0.00501265 -0.00125519 0
0.00456114 -0.00120954 0
0.00413136 -0.00116914 0
0.00372257 -0.00113251 0
0.00333398 -0.00109853 0
0.00296466 -0.00106798 0
0.00261363 -0.0010431 0
-0.052721 -0.0445996 0
-0.0508204 -0.0440823 0
-0.0489199 -0.0435651 0
-0.0470193 -0.0430478 0
-0.0451187 -0.0425306 0
-0.0432181 -0.0420134 0
-0.0413175 -0.0414961 0
-0.039417 -0.0409789 0
-0.0375164 -0.0404616 0
-0.0356158 -0.0399444 0
-0.0337152 -0.0394271 0
-0.0318146 -0.0389099 0
-0.0299141 -0.0383927 0
-0.0280135 -0.0378754 0
-0.0261129 -0.0373582 0
-0.0242123 -0.0368409 0
-0.0223117 -0.0363237 0
-0.0204112 -0.0358065 0
-0.0185106 -0.0352892 0
-0.01661 -0.034772 0
-0.0147094 -0.0342547 0
-0.0128088 -0.0337375 0
-0.0109083 -0.0332202 0
-0.00900769 -0.032703 0
-0.00710711 -0.0321858 0
-0.00520653 -0.0316685 0
-0.00330595 -0.0311513 0
-0.00140537 -0.030634 0
0.00190689 -0.0299614 0
0.00332271 -0.0298498 0
0.00474133 -0.0297825 0
0.00616136 -0.0297597 0
0.0075814 -0.0297814 0
0.00900007 -0.0298477 0
0.010416 -0.0299583 0
0.0118278 -0.0301127 0
0.0132342 -0.0303103 0
0.0146339 -0.0305504 0
0.0160259 -0.0308322 0
0.0174091 -0.0311546 0
0.0187824 -0.0315166 0
0.020145 -0.031917 0
0.0214961 -0.0323546 0
0.0228351 -0.032828 0
0.0241613 -0.0333361 0
0.0254744 -0.0338774 0
0.0267738 -0.0344507 0
0.0280592 -0.0350545 0
0.0293306 -0.0356877 0
0.0305875 -0.0363488 0
0.0318301 -0.0370367 0
0.0330581 -0.0377501 0
0.0342717 -0.0384879 0
0.0354708 -0.0392489 0
0.0366556 -0.0400321 0
0.0378262 -0.0408363 0
0.0389828 -0.0416607 0
0.0401254 -0.0425042 0
0.0412543 -0.0433659 0
0.0423698 -0.0442451 0
0.043472 -0.0451408 0
0.0445612 -0.0460523 0
0.0456375 -0.0469789 0
0.0467013 -0.0479199 0
0.0477529 -0.0488746 0
0.0487923 -0.0498424 0
0.04982 -0.0508227 0
0.0508362 -0.051815 0
0.051841 -0.0528187 0
0.0528348 -0.0538333 0
0.0538178 -0.0548584 0
0.0547903 -0.0558935 0
0.0557524 -0.0569382 0
0.0567045 -0.0579922 0
0.0576467 -0.0590549 0
0.0585792 -0.0601261 0
0.0595024 -0.0612055 0
0.0604163 -0.0622926 0
0.0613212 -0.0633873 0
0.0622174 -0.0644891 0
0.0631049 -0.0655979 0
0.0639841 -0.0667134 0
0.064855 -0.0678353 0
0.0657179 -0.0689633 0
0.0665729 -0.0700974 0
0.0674202 -0.0712372 0
0.06826 -0.0723826 0
0.0690925 -0.0735333 0
0.0699178 -0.0746892 0
0.070736 -0.0758501 0
0.0715473 -0.0770159 0
0.0723518 -0.0781863 0
0.0731498 -0.0793612 0
0.0739412 -0.0805405 0
0.0747264 -0.081724 0
0.0755053 -0.0829116 0
0.0762781 -0.0841033 0
0.0770449 -0.0852987 0
0.0778059 -0.0864979 0
0.0785611 -0.0877007 0
0.0793108 -0.088907 0
0.0814681 -0.0912706 0
0.0828814 -0.0924245 0
0.0842946 -0.0935783 0
0.0857079 -0.0947322 0
0.0871211 -0.095886 0
0.0885344 -0.0970399 0
0.0899476 -0.0981937 0
0.0913609 -0.0993476 0
0.0927741 -0.100501 0
0.0941874 -0.101655 0
0.0956006 -0.102809 0
0.0970139 -0.103963 0
0.0984272 -0.105117 0
0.0998404 -0.106271 0
0.101254 -0.107424 0
0.102667 -0.108578 0
0.10408 -0.109732 0
0.105493 -0.110886 0
0.106907 -0.11204 0
0.10832 -0.113194 0
0.109733 -0.114348 0
0.111146 -0.115501 0
0.11256 -0.116655 0
0.113973 -0.117809 0
0.115386 -0.118963 0
0.116799 -0.120117 0
0.118213 -0.121271 0
0.119626 -0.122424 0
0.121039 -0.123578 0
0.122452 -0.124732 0
0.123866 -0.125886 0
0.125279 -0.12704 0
0.126692 -0.128194 0
0.128105 -0.129348 0
0.129519 -0.130501 0
0.130932 -0.131655 0
0.132345 -0.132809 0
0.133758 -0.133963 0
0.135172 -0.133216 0
0.135172 -0.131316 0
0.135172 -0.129415 0
0.135172 -0.127514 0
0.135172 -0.125614 0
0.135172 -0.123713 0
0.135172 -0.121813 0
0.135172 -0.119912 0
0.135172 -0.118012 0
0.135172 -0.116111 0
0.135172 -0.11421 0
0.135172 -0.11231 0
0.135172 -0.110409 0
0.135172 -0.108509 0
0.135172 -0.106608 0
0.135172 -0.104708 0
0.135172 -0.102807 0
0.135172 -0.100906 0
0.135172 -0.0990058 0
0.135172 -0.0971052 0
0.135172 -0.0952046 0
0.135172 -0.0933041 0
0.135172 -0.0914035 0
0.135172 -0.0895029 0
0.135172 -0.0876023 0
0.135172 -0.0857017 0
0.135172 -0.0838012 0
0.135172 -0.0819006 0
0.133758 -0.0788462 0
0.132345 -0.0776923 0
0.130932 -0.0765385 0
0.129519 -0.0753846 0
0.128105 -0.0742308 0
0.126692 -0.0730769 0
0.125279 -0.0719231 0
0.123866 -0.0707692 0
0.122452 -0.0696154 0
0.121039 -0.0684615 0
0.119626 -0.0673077 0
0.118213 -0.0661538 0
0.116799 -0.065 0
0.115386 -0.0638462 0
0.113973 -0.0626923 0
0.11256 -0.0615385 0
0.111146 -0.0603846 0
0.109733 -0.0592308 0
0.10832 -0.0580769 0
0.106907 -0.0569231 0
0.105493 -0.0557692 0
0.10408 -0.0546154 0
0.102667 -0.0534615 0
0.101254 -0.0523077 0
0.0998404 -0.0511538 0
0.0984272 -0.05 0
0.0970139 -0.0488462 0
0.0956006 -0.0476923 0
[...]
CELL_DATA 13116
SCALARS rho float
LOOKUP_TABLE default
0.609081
0.701863
0.346595
0.700913
0.70101
0.693119
0.319352
0.702539
0.545604
0.700107
0.322365
0.300202
0.700973
0.303867
0.355241
0.695709
0.605569
0.697449
0.706425
0.321511
0.599576
0.360806
0.309632
0.698812
0.605475
0.702942
0.700127
0.341274
0.578119
0.650378
1.13191
0.302815
0.560694
0.470985
0.328834
0.606194
0.677966
0.71159
0.822566
0.701339
0.70457
0.702281
0.505871
0.33139
0.707247
0.707098
0.706227
0.707129
0.361229
0.522283
0.701623
0.505664
0.303898
0.599443
0.563161
0.590527
0.32529
0.700114
0.527926
0.330492
0.305099
0.700573
0.701364
0.902757
1.14537
0.314708
0.699837
0.676834
0.69965
1.14109
0.360194
0.564411
0.362362
0.315443
1.13214
0.344205
0.677119
0.701876
0.317448
0.695144
0.69195
0.703673
0.699672
0.7084
0.707851
0.405769
0.312295
0.667336
0.704227
0.348174
0.303125
0.703149
0.69886
0.703715
0.658812
0.614149
0.607681
1.1425
1.13221
0.583726
0.672613
0.687472
0.701929
0.449999
0.706477
0.283896
0.36269
0.540273
0.329695
0.590977
0.562294
0.700959
0.611068
0.690819
0.695754
0.700062
0.308472
0.396426
0.701888
0.700246
0.675456
0.353685
0.699731
0.30254
0.704339
0.439032
0.311641
0.495869
0.325392
0.519128
0.70196
0.707315
0.464544
0.382108
0.446195
0.635022
1.13925
0.700421
0.671109
0.700281
0.670302
0.706573
0.499225
0.672343
0.690938
0.30168
0.326285
0.703265
0.701339
0.702072
0.511583
0.708369
0.707111
0.331892
0.700511
0.703482
0.309703
0.67783
1.13923
0.666306
0.699369
0.320432
0.700487
0.310281
0.34433
0.700693
0.704242
0.697347
0.324914
0.428983
0.402764
1.13167
0.34385
0.489722
0.699859
0.308915
0.36102
0.363963
0.700461
0.68715
0.335078
0.424029
0.580213
0.6759
0.692859
0.531667
0.326182
0.699231
0.695643
0.460394
0.664973
0.703088
1.13662
0.307513
0.701576
0.682885
0.700006
0.699402
0.704305
0.422363
0.457086
0.599778
0.491135
0.311549
0.701494
0.708893
0.511638
0.619824
0.298101
0.331298
0.336331
0.69865
0.309825
0.33532
0.341228
0.330985
0.390142
0.811289
0.704335
0.390373
0.321
0.699666
0.558308
0.336596
0.512095
0.700325
0.689953
0.341188
0.699796
0.3735
0.703636
0.303302
1.12431
0.550076
1.14126
0.702759
1.09991
0.306471
0.435625
0.664218
1.13102
0.682117
1.14168
1.0932
0.703112
0.360743
0.700987
0.700414
1.13435
0.324779
0.363821
0.708351
0.701987
1.13081
0.706749
0.604787
0.68763
0.322192
0.311971
0.419016
0.293565
0.699246
0.700042
0.676851
0.31472
0.700912
0.31955
0.402332
0.708151
0.332665
0.703436
0.701344
1.13156
0.700183
0.30945
1.13169
0.69478
1.13667
0.700402
0.318508
0.315644
0.308797
0.634737
0.350834
0.385311
0.346973
0.358067
0.712126
0.277375
0.703067
0.700951
0.322164
0.324712
0.319448
0.43812
0.348747
0.666526
0.667442
0.700803
0.332786
0.69847
0.546314
0.322222
0.336509
0.710576
0.702035
0.69929
0.325754
0.691367
0.450366
0.70742
0.70189
0.701947
0.701768
0.307835
0.699679
0.293405
0.698155
0.699903
0.661277
0.328777
0.342586
0.700363
0.317506
0.713498
0.700566
0.426572
0.686005
0.699837
0.318704
0.700972
0.699027
0.258411
0.701994
0.391308
0.531513
0.705166
0.404057
0.679125
0.315236
0.699181
0.346429
1.01306
0.701038
0.700103
0.339283
0.370673
0.705861
0.331668
0.701688
0.696945
0.419721
1.13165
0.329877
0.356281
0.704592
0.517119
0.677899
0.315344
0.30989
0.701104
0.701002
0.321922
0.701058
0.306382
0.271341
0.700175
0.70481
0.545068
0.364618
0.701058
1.13493
0.695559
0.701175
0.700929
0.51534
0.352608
0.301307
0.332941
0.692332
0.334749
0.581361
0.425379
0.306284
0.365442
0.551108
0.129735
0.33272
0.710067
0.302249
0.700544
0.582133
0.707043
0.658699
0.70099
0.352152
0.316719
0.445136
0.341272
0.704322
0.609019
0.705301
0.581642
0.69108
0.631271
0.703506
0.655971
0.648906
0.700978
0.694187
0.679884
0.421229
0.505359
0.60705
0.362349
0.66777
0.59258
0.308195
0.699963
1.13114
0.30881
0.323027
0.331697
0.327502
0.605471
0.343991
0.30762
0.699052
0.317269
0.553201
0.34452
0.696827
0.699455
0.349294
0.381631
0.705071
0.434963
0.351688
0.326227
0.357137
0.328481
0.31772
0.324347
0.369853
0.406888
0.326188
0.688983
0.348907
0.701791
0.362414
0.301648
0.457948
0.299865
0.344916
0.300616
0.701023
0.41643
0.625792
0.550008
0.316928
0.62302
0.703994
0.402945
0.685279
0.636541
0.638835
0.319114
1.1377
0.396876
0.70072
1.13223
0.31927
0.296421
0.696399
0.343706
0.403304
0.702054
0.362487
0.676821
0.69378
0.326685
0.353921
0.340409
0.48616
0.339519
0.25169
0.350132
0.29393
0.7008
0.700726
0.443147
0.586884
0.45014
0.700339
0.382377
0.35125
0.548647
0.321778
0.707817
0.334017
0.379619
0.460297
0.707846
0.704453
0.524791
0.410308
0.307577
0.523807
0.702225
1.11914
0.520849
0.707249
0.699868
0.32706
0.698489
0.546085
0.662995
0.365535
0.349706
0.689892
0.699814
0.656801
0.700284
0.703575
0.703496
0.699432
0.660914
0.706745
0.346034
0.707929
0.334601
0.297361
0.339145
0.700868
0.708708
0.338317
0.706167
0.59349
0.330382
1.02788
0.702057
0.700679
0.340798
0.350833
0.701539
0.355673
0.358377
0.297181
0.328126
0.708238
0.250668
0.700572
0.349109
0.700796
0.701551
0.699563
0.701015
0.356937
0.329121
0.708273
0.703946
0.677693
0.700755
0.700444
0.446866
0.319094
0.327738
0.697359
0.536758
0.332581
0.434419
0.30631
0.704241
0.699467
0.36131
0.364382
0.702612
0.410464
0.710784
0.646547
0.321182
0.373703
0.675692
1.13122
0.311072
0.704482
0.704115
0.708464
0.344703
1.13231
0.317912
1.1427
0.661328
0.365952
0.389241
0.385857
1.14747
0.332879
0.313522
0.399748
0.892467
0.704284
0.314577
0.308941
0.334381
0.976732
0.361173
0.688388
0.303504
0.567103
0.700297
0.362367
0.31031
0.30992
0.448967
0.330469
0.703875
0.325772
0.352811
0.68352
0.315034
0.698377
0.711233
1.14405
0.353434
0.707721
0.700153
0.700175
0.697769
0.705061
0.700238
0.303926
1.1346
0.395515
0.709014
0.318122
0.702796
0.522975
0.327926
1.14856
0.701404
0.334139
0.653467
0.303575
0.358006
0.698968
0.700984
0.30603
0.301367
0.316426
0.30354
0.704691
0.698448
0.341052
0.327126
0.701757
0.700609
0.570663
0.700328
0.699301
0.321352
0.700145
0.408636
0.701528
0.405066
0.601752
0.441042
0.699527
0.679283
0.545991
0.378718
0.337762
0.699513
0.575041
0.598554
0.700361
0.303517
0.698163
0.700629
0.354095
0.505567
0.700367
0.42535
1.14701
0.665248
0.339994
0.700931
0.656808
0.353395
0.703538
0.308352
0.70312
0.339412
0.698355
0.700807
0.336174
0.823768
0.700462
0.701367
0.596619
0.702671
0.547055
0.388084
0.444551
0.301889
0.313802
1.13163
0.515321
0.699988
0.701435
0.345707
0.353928
0.704958
0.700468
0.704586
0.701561
0.322771
0.693837
0.700474
0.322033
0.295873
0.701861
0.708058
0.70446
0.298785
0.552333
0.348832
0.702949
0.713116
1.11491
0.708155
0.330558
0.707912
0.702661
0.699385
0.701464
0.703418
0.391695
0.700942
0.331928
0.68784
0.700164
0.428765
0.693781
1.09048
0.701593
0.469826
0.421359
0.55071
0.649596
0.354351
0.365839
0.333375
0.327145
0.700575
0.697895
1.10509
0.362566
0.324481
0.699572
0.678469
0.258229
0.369084
0.43511
0.683241
0.699373
0.70143
0.697995
0.332104
0.354878
1.13184
0.302207
0.33569
0.326881
0.698526
0.3479
0.357041
0.586632
0.708327
0.699832
0.682587
0.698928
0.31051
0.337235
0.333941
0.555402
0.416802
0.303392
0.676677
0.696211
0.716689
0.701935
0.299712
0.354654
0.700225
0.342713
0.702689
0.701979
1.13842
0.30607
0.358334
0.705036
1.14048
0.627696
0.253269
0.707239
0.67999
0.584701
0.702049
0.701925
1.1318
0.705797
0.32379
0.698729
1.14124
0.666784
0.702234
1.13188
0.700864
1.1375
0.700324
0.351914
0.359048
0.354203
1.13848
0.528796
0.343562
0.705476
0.701617
0.298121
0.656102
0.350169
0.66417
0.543478
0.328851
0.700592
0.698337
0.334241
0.507316
1.13558
0.314388
0.703946
0.3115
0.281611
0.629329
0.598877
0.457497
0.702941
0.333403
0.700594
0.355856
0.297356
0.698126
0.331387
0.615598
0.306571
0.658171
0.601063
1.13163
0.70428
0.316562
0.353756
0.681707
0.510757
0.704903
0.480972
0.609667
0.694053
0.699298
0.519849
0.587803
0.700672
0.700029
0.699911
0.348975
0.364239
0.501704
0.701277
0.700078
0.404934
0.700672
0.62766
0.440557
0.306121
0.663267
0.682921
1.14234
1.14751
0.69878
0.693917
0.787306
0.685915
0.306118
0.654575
0.433577
0.701383
0.708085
0.344462
0.704582
0.701326
0.361865
0.307249
0.318761
1.13189
0.320159
0.627111
0.700782
0.654952
0.307043
0.713063
0.308962
0.553524
0.958844
1.12126
0.674886
0.982133
0.614392
0.691352
0.549282
0.709128
0.336787
0.700817
0.699453
0.49664
1.14122
0.700118
0.309485
0.310699
0.316569
0.701969
0.365254
1.13689
0.334111
0.702537
0.295089
0.441527
0.304598
0.700695
0.701356
0.602887
0.272744
0.617447
0.739006
0.335993
0.572643
0.700781
0.302854
0.591711
1.13503
0.700263
0.70273
0.317808
0.537589
0.702758
0.706723
0.687916
0.360128
0.417135
0.708877
1.13174
1.13099
1.13141
0.590815
0.707156
0.586659
0.701021
0.35958
0.310019
1.13131
0.701205
0.830509
0.314178
0.700792
0.60367
0.629157
0.351005
0.391712
0.701007
0.701333
0.539802
0.352589
0.706533
1.14141
0.318095
0.601161
0.697678
0.3207
0.301398
0.296371
0.696914
0.364963
0.347912
0.70116
0.485792
0.70009
0.660137
0.325932
0.318729
0.700778
0.360687
0.346177
1.13804
0.287886
0.386962
0.595647
0.7051
0.707563
0.325502
0.35235
0.323535
0.710647
0.282393
0.707456
0.333892
0.706436
0.703938
0.706134
0.71047
0.706726
0.712661
0.699346
0.701083
0.706229
0.249168
0.332734
0.703166
0.743309
0.461251
0.698175
0.552446
0.862429
0.666032
0.348402
0.700152
0.700758
0.709458
0.324463
0.707628
0.352588
0.708491
0.4493
0.696883
0.697801
0.333002
0.7044
0.332557
0.466187
0.700212
0.326363
0.679419
1.1318
0.704012
0.327896
0.699106
0.328161
0.305267
0.306008
0.34269
0.66998
0.339224
0.670119
1.03977
0.353182
0.307454
0.443357
0.549886
0.639919
0.693706
0.353464
0.315711
0.318957
0.304406
0.261799
0.642607
0.702555
0.342557
1.00666
0.701022
0.295226
0.700684
0.677051
0.987022
0.329326
1.14343
0.70191
0.701126
0.701688
0.345204
0.707071
0.70144
0.707598
0.661943
0.682627
0.378387
0.306408
0.708065
0.496439
0.361499
0.697849
0.306702
0.532912
0.646854
0.704362
0.70314
0.304369
0.698235
0.41949
0.325744
0.688759
0.701316
0.701216
0.700875
0.674427
0.305697
0.70084
0.326893
0.459412
0.700714
1.13212
0.703497
0.326094
0.316986
0.700276
0.32311
0.701585
0.639172
0.417259
0.395317
0.70022
0.306774
0.697398
0.70166
0.677449
0.306757
0.360649
0.48648
0.547061
0.633624
0.466677
0.695033
0.695267
0.702122
1.13169
0.705637
0.315329
0.397173
0.701815
0.68231
0.683988
0.426005
0.312534
0.69652
0.33436
0.699382
0.592162
0.351409
0.705045
0.322132
0.704423
0.348595
0.701123
0.310953
0.708029
0.677412
0.299114
0.704224
0.649323
0.301322
1.09891
0.704481
0.555884
0.298669
0.401974
0.466105
0.700178
0.691772
0.341839
0.54863
0.704944
0.681089
0.300699
0.638608
0.711131
0.404844
0.693525
0.69827
0.327394
0.705958
1.14229
0.345454
0.615707
0.32803
0.667065
0.332399
0.266153
0.699724
0.347981
0.335927
0.312892
0.699484
0.708229
0.425053
0.706982
0.398547
0.690534
0.329393
0.708072
0.421753
0.6965
0.707822
0.673365
1.0998
0.510166
0.676175
0.989725
0.343474
0.62743
0.674101
0.569308
0.705892
0.44916
0.4354
0.700899
0.335425
0.553447
0.351048
0.70417
0.257199
0.307452
0.698189
0.699128
0.32689
0.701051
0.695412
1.13176
0.701632
1.14685
0.324965
0.700654
0.330604
0.309999
0.704131
0.699161
0.702267
0.701677
0.30456
0.332378
0.321938
0.704081
1.04618
0.400143
0.705257
0.31318
0.330805
0.347881
0.70369
0.402962
0.700579
0.70587
0.624468
0.701141
0.706896
0.594057
0.675045
0.402895
0.301035
0.327535
1.14713
1.14701
0.313266
0.643287
0.694956
0.673374
0.316361
0.475966
0.696027
0.301365
0.692193
0.663206
0.333254
0.727191
0.701865
0.348414
0.707813
0.34268
0.699875
0.700064
0.707263
0.329129
0.425168
0.67889
0.331522
0.395802
0.701146
0.349232
0.688022
0.699925
0.703441
0.695213
0.356056
1.14798
0.688308
0.706499
0.360897
0.701123
0.356792
0.299466
0.713636
0.699321
1.02811
0.249979
0.698377
0.623444
1.13201
0.315367
0.302928
0.355523
0.701056
0.317195
0.324993
0.353626
0.66455
0.336948
0.346616
0.406354
0.707548
0.340049
1.10684
0.846193
0.701034
0.327491
0.705779
0.655891
1.02043
0.394649
0.660302
0.331092
0.33624
0.699041
0.326045
0.647727
0.704175
1.13125
0.34047
0.344831
0.329573
0.521123
1.14039
0.257624
0.710906
0.699317
0.697214
0.331136
0.326172
0.349783
0.696765
0.338295
1.13217
0.581842
0.742949
0.708776
0.319086
0.652937
0.304325
0.678466
0.641798
0.70033
0.657779
0.572174
0.662754
0.686127
0.701847
0.330912
0.35674
0.318537
0.69604
0.539604
1.13197
0.339028
0.401926
0.700823
0.706611
1.13454
0.326664
0.701254
0.518952
0.52434
0.691836
0.327577
0.327038
0.332741
0.699414
1.06107
0.659907
0.699584
0.351883
0.704126
0.655358
1.05287
1.06692
0.703645
0.70073
0.684752
0.699583
0.701119
0.320845
0.70159
0.700936
0.69819
0.702086
0.699387
0.635889
0.331188
0.290643
0.671555
0.359046
0.353317
0.701487
0.347956
0.624469
0.699561
0.702827
0.709245
0.311981
0.701521
0.305586
0.309569
0.693433
0.707382
0.700524
0.326277
0.701142
0.704153
0.679303
0.699138
0.359709
0.697251
0.700216
0.699771
0.43595
0.699616
0.325425
0.7005
0.328277
0.333238
0.608802
0.430046
0.700525
0.700385
0.700805
0.353647
0.692194
0.427772
0.352964
0.703795
0.442899
0.354101
0.703511
0.285046
0.469164
0.672451
0.699596
0.711701
0.446185
0.564639
0.660656
0.696453
0.638193
0.701257
0.497881
0.703362
0.699391
0.653426
0.300498
0.318192
0.426314
0.700885
0.310002
0.664588
0.701259
0.613843
0.696548
0.59148
0.681084
0.687344
0.328429
0.700882
0.697319
0.578883
0.699803
0.70052
0.704024
0.69613
0.33203
0.353302
0.708752
0.545199
0.594428
0.700509
0.708492
0.706275
0.699847
0.700158
0.63147
0.69587
0.700218
0.329656
0.292347
0.261508
0.350456
1.13123
0.449303
0.585739
0.705629
0.6908
0.312075
0.708955
0.700959
0.325048
0.383966
1.1378
0.701288
0.331542
0.296458
0.298891
1.13192
0.703272
0.442437
0.318327
0.331014
0.263336
0.419158
0.362662
0.703819
0.707516
0.703447
0.332334
0.703894
0.630891
0.585646
0.39693
0.321267
0.703851
1.1345
0.350389
0.695337
0.346576
0.69909
0.32079
0.701218
0.325408
0.716341
0.700843
0.329098
0.526781
0.369997
0.70066
0.292226
0.635464
0.306577
0.509667
0.327778
0.631884
0.336291
1.11582
1.13198
0.585681
0.706479
0.398245
0.709066
0.740781
0.70105
0.627604
0.691096
0.322253
0.483737
0.315603
0.699388
0.313435
0.701382
0.518759
0.698539
0.700336
0.538296
0.70101
0.354803
0.308629
0.33782
0.503691
0.61193
0.708397
0.333591
0.385051
0.697698
0.362713
0.306532
0.635328
0.386754
0.354048
0.2898
0.702318
0.648461
0.638273
0.310593
0.707068
0.699611
0.299036
0.33232
0.70217
0.698441
0.675205
0.473873
0.38054
0.359895
0.33279
0.704662
0.673389
0.540777
0.687118
0.305074
0.584787
0.321126
1.14709
0.70141
0.324918
0.320749
0.67768
0.631243
0.701069
0.701217
0.70051
0.701581
0.700685
0.329684
0.362503
0.319195
0.318957
0.607826
1.13392
0.650256
0.321487
0.344365
0.480906
0.301197
0.706934
0.697798
0.338043
0.365466
0.699603
0.312982
0.660623
0.70079
0.711904
0.686229
0.606705
0.35634
0.32276
0.694888
0.326372
0.453722
0.423771
0.744074
0.700704
0.300121
0.333882
1.13175
0.33636
0.699573
0.69924
0.347233
0.361828
0.288867
0.699458
0.305347
1.13206
0.700815
0.618621
0.296503
0.4929
0.701635
0.713011
0.314189
0.712108
0.671097
0.302938
0.70204
0.702604
0.324986
0.354355
0.703921
0.333702
0.318694
0.710562
0.341414
0.707933
0.680289
0.698644
0.6695
0.701271
0.699787
0.680305
0.319522
0.386779
0.684513
0.708058
0.422969
0.700737
0.379299
0.700228
0.709541
0.569308
0.65476
0.48041
0.436413
0.708756
0.701508
0.698509
0.700864
0.698961
1.13221
0.70194
1.13164
0.705004
0.704253
0.703773
1.1343
0.676262
0.302464
0.70391
0.342252
0.700211
0.701248
0.700544
0.711783
0.693491
0.360079
0.33028
0.340852
0.315746
0.708917
0.322664
0.32971
0.694291
0.297848
0.699133
0.333149
0.711658
0.707006
0.348093
0.363316
0.351666
0.70076
0.314495
0.708417
0.704569
0.335283
0.703466
0.529501
0.358457
0.339221
0.298611
0.688068
0.356491
0.700951
0.588617
0.375796
0.699293
0.705288
0.700354
0.346048
0.590468
0.305829
0.704228
0.690212
0.700096
0.362703
0.70807
0.700434
0.700052
0.412072
0.700673
0.35279
0.327608
0.702473
0.444712
0.700096
0.48106
0.359968
0.411739
0.706958
0.335474
0.302662
0.345292
0.545738
1.13622
0.705799
0.284052
0.625773
0.699123
0.519449
0.495047
0.351711
0.531397
0.361596
0.323115
0.708805
0.329137
0.343039
0.701994
0.700879
0.326019
0.697146
0.330301
1.13349
0.34272
0.704502
1.13662
0.694855
0.780088
0.359734
0.323193
0.306961
0.683744
0.702865
0.5616
0.529986
0.357837
0.324749
0.700771
0.321116
0.707951
0.36807
1.12336
0.678728
0.324271
0.334295
0.329275
0.33288
0.338646
0.679627
0.7072
0.326377
0.703996
0.648225
0.38303
0.3398
0.700859
0.350845
0.707452
0.397278
0.69588
0.659208
0.705615
1.14438
0.349452
0.70019
0.700667
0.702289
0.349788
0.688641
0.574117
0.351864
0.700868
0.673994
0.703863
0.709379
0.700642
0.7028
0.701644
0.698354
0.704966
0.348935
0.699972
0.329614
0.490709
0.701226
0.307055
0.714955
0.701962
0.380423
0.702535
0.350839
0.303404
0.703698
0.69676
0.70086
0.327848
0.710432
0.613176
0.343679
0.330168
0.704145
0.699476
0.380503
0.352898
0.700571
0.70079
0.362106
0.652076
0.700836
0.649463
0.321321
0.350721
0.305592
0.659643
0.315214
0.711528
0.695245
0.701449
0.635993
0.70715
0.328788
0.702454
0.597995
0.700917
0.657692
0.307264
0.317126
0.253686
0.699334
0.70356
0.393952
0.657344
0.353039
0.675467
0.700156
0.298334
0.668886
0.711161
0.634423
0.330844
0.315827
0.350748
0.701931
0.700109
0.610634
0.473877
0.707371
0.347542
0.639888
1.1318
0.707867
0.330733
0.608958
0.381576
0.706552
0.261663
0.708216
0.70379
0.310742
0.701952
0.508959
1.13194
0.658954
1.13204
0.701876
0.436936
0.6995
0.705983
0.700436
0.708104
0.434822
1.13191
0.259352
0.706428
0.281571
0.335439
0.295001
0.336278
0.358756
0.329131
0.7007
0.361559
0.332361
0.670633
0.701758
0.70813
0.440927
0.69173
0.685973
0.682179
0.292739
0.652708
0.699914
0.344225
0.351523
0.323277
0.63802
0.465095
0.346308
0.637883
0.300025
1.1473
0.459303
0.308219
0.437392
0.654528
0.349607
0.699566
0.317731
0.561558
0.378422
0.704229
0.392683
0.672596
1.13197
0.691547
0.495061
0.327966
0.704861
0.700683
0.353009
0.305264
0.691323
0.332168
0.69929
0.333195
0.52793
0.253072
0.699793
0.364947
0.700668
0.333305
0.700171
0.706621
0.701554
1.13358
0.261926
0.309383
0.439573
0.703456
0.693561
0.70586
0.616967
0.383497
0.700882
0.351312
0.702876
0.696559
0.440622
0.389246
0.700708
0.708539
0.306127
1.13254
0.704721
0.701082
0.698921
0.316352
0.641701
0.334273
0.701282
0.300213
0.94715
0.702449
0.70514
0.70081
0.378286
0.70145
0.345391
0.328647
0.699474
1.13366
0.552877
0.708623
1.13113
0.347705
0.698069
0.704162
0.701916
0.305671
0.422216
0.686752
0.322355
0.700523
0.701474
0.714265
0.703629
0.301481
0.466638
0.651346
0.31009
0.704459
0.700606
0.485068
0.703981
0.27997
0.694402
0.697955
0.675997
0.703952
0.315016
0.307844
0.70823
0.712763
0.380297
0.397775
0.364986
0.310362
0.326668
0.300603
0.347406
0.360242
0.707928
0.290651
0.322264
0.700727
0.55572
1.13189
0.397324
0.337047
0.699292
0.46848
0.555059
0.700395
0.388173
0.657973
1.10772
0.59225
0.707295
0.315679
0.705594
0.885506
0.350756
0.326451
0.439975
0.70047
0.594221
0.700585
0.696817
0.707735
0.70767
0.366701
0.704273
0.784591
0.704473
0.333239
0.699836
0.680107
0.362187
0.419287
0.288435
0.30497
0.304573
0.597193
0.673945
0.703486
0.32429
0.367382
0.700789
0.298697
0.704061
0.706429
0.714102
0.67596
0.707437
0.344494
0.305467
0.301963
0.594988
0.30593
0.706357
0.299039
0.699239
0.692999
0.701748
0.351055
0.457811
0.430197
0.707084
0.352342
0.322328
0.701681
0.708159
0.658478
0.695041
0.704012
0.699148
0.36148
0.609791
0.701104
0.49004
0.707593
0.701762
0.700255
0.40943
0.394241
0.701944
0.456355
0.64101
0.335349
0.6972
0.711517
0.436714
0.31921
0.70194
0.493338
0.701519
0.703819
0.357925
0.323797
1.14466
0.491288
0.446728
0.702515
0.704062
0.376923
0.710256
1.1405
0.710762
0.366516
0.595875
0.357596
0.702245
0.701498
0.699433
0.701048
1.14675
0.35564
0.399085
0.706353
0.33673
0.586949
0.374618
0.705005
0.300867
0.659266
0.701243
1.14695
0.363045
1.13199
1.13415
0.320227
0.69555
0.298034
0.702298
0.357531
0.323833
0.300787
0.699696
0.702696
0.338724
0.343644
0.703206
0.700732
0.441117
0.692641
0.358162
0.549503
0.336554
0.705515
0.321811
0.673489
0.703035
0.338971
0.490864
0.324273
1.08048
0.342267
0.328159