# vtk DataFile Version 1.0
unstructured grid
ascii
DATASET UNSTRUCTURED_GRID
points 13672 float
0.0796578 -0.059106 0
0.00128732 0.00159165 0
0.00227961 -0.00102548 0
0.0791586 -0.0598787 0
-0.0546216 0.01 0
0.000495206 0.025 0
0.0800549 -0.035 0
0.135172 -0.08 0
-0.0546216 -0.0451168 0
0.000495206 -0.0301168 0
0.0800549 -0.0901168 0
0.135172 -0.135117 0
-0.0546216 -0.0451168 -0.00551168
0.000495206 -0.0301168 -0.00551168
0.0800549 -0.0901168 -0.00551168
0.135172 -0.135117 -0.00551168
0.135172 -0.08 -0.00551168
0.0800549 -0.035 -0.00551168
0.000495206 0.025 -0.00551168
-0.0546216 0.01 -0.00551168
0.00128732 0.00159165 -0.00551168
0.00227961 -0.00102548 -0.00551168
0.0791586 -0.0598787 -0.00551168
0.0796578 -0.059106 -0.00551168
0.00165953 -0.000990923 0
0.00119576 -0.000874076 0
0.000866021 -0.000641801 0
0.000645147 -0.000349912 0
0.00052235 -1.7281e-05 0
0.00049972 0.000348016 0
0.000601632 0.000737716 0
0.000861774 0.0011403 0
0.00157235 0.00183217 0
0.00188647 0.00206725 0
0.00222612 0.00230203 0
0.00258713 0.00254351 0
0.00296826 0.00279524 0
0.00337118 0.00305664 0
0.00379785 0.00332658 0
0.00425045 0.00360349 0
0.00473139 0.00388521 0
0.0052432 0.00416895 0
0.0057881 0.00445204 0
0.00636753 0.00473281 0
0.00698281 0.00500961 0
0.00763526 0.00528058 0
0.00832616 0.00554366 0
0.00905691 0.00579603 0
0.00982918 0.00603333 0
0.0106445 0.00625033 0
0.0115038 0.00644128 0
0.0124073 0.00660297 0
0.0133543 0.00673414 0
0.0143444 0.00683382 0
0.0153769 0.00690031 0
0.0164512 0.00693173 0
0.0175666 0.00692547 0
0.0187219 0.00687822 0
0.0199156 0.00678477 0
0.0211454 0.00663864 0
0.0224084 0.00643275 0
0.0237018 0.00616676 0
0.0250249 0.00584739 0
0.026375 0.00547298 0
0.0277479 0.00503752 0
0.0291386 0.00453545 0
0.0305433 0.0039653 0
0.0319572 0.0033256 0
0.0333681 0.00260019 0
0.034775 0.00179799 0
0.0361793 0.000930615 0
0.0375798 3.12222e-06 0
0.0389689 -0.000988429 0
0.0403357 -0.00205109 0
0.041675 -0.00318283 0
0.0429849 -0.00437751 0
0.0442643 -0.00562904 0
0.0455126 -0.00693089 0
0.0467314 -0.00827518 0
0.0479204 -0.00965638 0
0.0490661 -0.0110799 0
0.0501515 -0.0125519 0
0.0511696 -0.0140695 0
0.0521492 -0.0156071 0
0.0531202 -0.0171411 0
0.0540851 -0.0186663 0
0.0550431 -0.0201798 0
0.0559923 -0.0216793 0
0.0569311 -0.0231626 0
0.0578582 -0.0246273 0
0.0587723 -0.0260715 0
0.0596721 -0.027493 0
0.0605563 -0.02889 0
0.0614241 -0.0302609 0
0.0622742 -0.0316042 0
0.063106 -0.0329183 0
0.0639186 -0.034202 0
0.0647113 -0.0354543 0
0.0654835 -0.0366743 0
0.0662345 -0.0378613 0
0.0669642 -0.0390145 0
0.0676726 -0.0401333 0
0.0683597 -0.0412172 0
0.0690246 -0.0422665 0
0.0696662 -0.0432819 0
0.0702841 -0.0442636 0
0.0708793 -0.0452111 0
0.0714538 -0.0461237 0
0.072009 -0.047001 0
0.0725452 -0.0478434 0
0.0730611 -0.0486524 0
0.073556 -0.0494294 0
0.0740291 -0.0501756 0
0.0744812 -0.0508916 0
0.0749138 -0.0515773 0
0.0753285 -0.0522331 0
0.0757266 -0.0528592 0
0.076109 -0.0534564 0
0.0764753 -0.0540264 0
0.0768243 -0.054571 0
0.0771553 -0.0550919 0
0.0774679 -0.0555901 0
0.0777617 -0.0560669 0
0.0780369 -0.056523 0
0.0782958 -0.0569578 0
0.0785421 -0.0573703 0
0.0787786 -0.0577603 0
0.0790073 -0.0581279 0
0.0792295 -0.058474 0
0.0794462 -0.0587995 0
0.0798803 -0.0594162 0
0.0800272 -0.0596588 0
0.0800357 -0.0598891 0
0.0799275 -0.0600784 0
0.0797205 -0.0601773 0
0.0794593 -0.0601051 0
0.0789155 -0.0596491 0
0.0786707 -0.0593963 0
0.0784111 -0.0591319 0
0.0781372 -0.0588542 0
0.0778566 -0.0585548 0
0.0775715 -0.0582308 0
0.0772803 -0.0578828 0
0.0769832 -0.0575099 0
0.0766822 -0.0571097 0
0.0763801 -0.0566796 0
0.0760759 -0.0562196 0
0.0757623 -0.0557337 0
0.0754359 -0.0552232 0
0.0750951 -0.0546879 0
0.0747379 -0.054128 0
0.0743626 -0.0535435 0
0.0739688 -0.0529338 0
0.0735559 -0.0522981 0
0.0731238 -0.0516357 0
0.0726718 -0.050946 0
0.0721991 -0.0502288 0
0.0717046 -0.049484 0
0.0711872 -0.0487117 0
0.0706461 -0.047912 0
0.0700804 -0.0470849 0
0.0694892 -0.0462308 0
0.0688718 -0.0453499 0
0.0682271 -0.0444431 0
0.0675544 -0.043511 0
0.0668527 -0.0425546 0
0.0661215 -0.0415748 0
0.06536 -0.040573 0
0.0645676 -0.0395504 0
0.0637439 -0.0385087 0
0.0628887 -0.0374493 0
0.062002 -0.0363741 0
0.0610838 -0.0352847 0
0.0601345 -0.0341831 0
0.0591547 -0.033071 0
0.0581456 -0.0319502 0
0.0571083 -0.0308224 0
0.0560444 -0.0296893 0
0.0549562 -0.028552 0
0.053845 -0.0274126 0
0.0527113 -0.0262746 0
0.051554 -0.0251427 0
0.0503724 -0.0240222 0
0.0491675 -0.0229164 0
0.047941 -0.0218282 0
0.0466955 -0.0207597 0
0.0454337 -0.0197126 0
0.0441592 -0.0186878 0
0.0428751 -0.0176863 0
0.0415841 -0.0167097 0
0.0402878 -0.0157609 0
0.0389879 -0.0148428 0
0.0376864 -0.0139575 0
0.0363853 -0.013107 0
0.0350871 -0.0122931 0
0.0337942 -0.0115164 0
0.0325095 -0.0107772 0
0.0312357 -0.0100756 0
0.0299758 -0.00941024 0
0.0287337 -0.00877784 0
0.0275126 -0.00817571 0
0.0263139 -0.00760375 0
0.0251376 -0.00706528 0
0.0239829 -0.0065649 0
0.0228537 -0.00609619 0
0.0217522 -0.00565563 0
0.0206795 -0.00524226 0
0.0196364 -0.00485507 0
0.0186233 -0.00449318 0
0.0176408 -0.00415577 0
0.016689 -0.00384204 0
0.0157682 -0.00355115 0
0.0148783 -0.00328218 0
0.0140192 -0.00303468 0
0.0131906 -0.00280795 0
0.0123925 -0.00260016 0
0.0116246 -0.00241012 0
0.0108864 -0.00223769 0
0.0101774 -0.00208212 0
0.00949701 -0.00194206 0
0.00884483 -0.0018163 0
0.0082202 -0.0017039 0
0.00762247 -0.00160391 0
0.00705097 -0.00151528 0
0.006505 -0.00143697 0
0.0059838 -0.00136806 0
0.00548662 -0.00130772 0
0.00501265 -0.00125519 0
0.00456114 -0.00120954 0
0.00413136 -0.00116914 0
0.00372257 -0.00113251 0
0.00333398 -0.00109853 0
0.00296466 -0.00106798 0
0.00261363 -0.0010431 0
-0.052721 -0.0445996 0
-0.0508204 -0.0440823 0
-0.0489199 -0.0435651 0
-0.0470193 -0.0430478 0
-0.0451187 -0.0425306 0
-0.0432181 -0.0420134 0
-0.0413175 -0.0414961 0
-0.039417 -0.0409789 0
-0.0375164 -0.0404616 0
-0.0356158 -0.0399444 0
-0.0337152 -0.0394271 0
-0.0318146 -0.0389099 0
-0.0299141 -0.0383927 0
-0.0280135 -0.0378754 0
-0.0261129 -0.0373582 0
-0.0242123 -0.0368409 0
-0.0223117 -0.0363237 0
-0.0204112 -0.0358065 0
-0.0185106 -0.0352892 0
-0.01661 -0.034772 0
-0.0147094 -0.0342547 0
-0.0128088 -0.0337375 0
-0.0109083 -0.0332202 0
-0.00900769 -0.032703 0
-0.00710711 -0.0321858 0
-0.00520653 -0.0316685 0
-0.00330595 -0.0311513 0
-0.00140537 -0.030634 0
0.00190689 -0.0299614 0
0.00332271 -0.0298498 0
0.00474133 -0.0297825 0
0.00616136 -0.0297597 0
0.0075814 -0.0297814 0
0.00900007 -0.0298477 0
0.010416 -0.0299583 0
0.0118278 -0.0301127 0
0.0132342 -0.0303103 0
0.0146339 -0.0305504 0
0.0160259 -0.0308322 0
0.0174091 -0.0311546 0
0.0187824 -0.0315166 0
0.020145 -0.031917 0
0.0214961 -0.0323546 0
0.0228351 -0.032828 0
0.0241613 -0.0333361 0
0.0254744 -0.0338774 0
0.0267738 -0.0344507 0
0.0280592 -0.0350545 0
0.0293306 -0.0356877 0
0.0305875 -0.0363488 0
0.0318301 -0.0370367 0
0.0330581 -0.0377501 0
0.0342717 -0.0384879 0
0.0354708 -0.0392489 0
0.0366556 -0.0400321 0
0.0378262 -0.0408363 0
0.0389828 -0.0416607 0
0.0401254 -0.0425042 0
0.0412543 -0.0433659 0
0.0423698 -0.0442451 0
0.043472 -0.0451408 0
0.0445612 -0.0460523 0
0.0456375 -0.0469789 0
0.0467013 -0.0479199 0
0.0477529 -0.0488746 0
0.0487923 -0.0498424 0
0.04982 -0.0508227 0
0.0508362 -0.051815 0
0.051841 -0.0528187 0
0.0528348 -0.0538333 0
0.0538178 -0.0548584 0
0.0547903 -0.0558935 0
0.0557524 -0.0569382 0
0.0567045 -0.0579922 0
0.0576467 -0.0590549 0
0.0585792 -0.0601261 0
0.0595024 -0.0612055 0
0.0604163 -0.0622926 0
0.0613212 -0.0633873 0
0.0622174 -0.0644891 0
0.0631049 -0.0655979 0
0.0639841 -0.0667134 0
0.064855 -0.0678353 0
0.0657179 -0.0689633 0
0.0665729 -0.0700974 0
0.0674202 -0.0712372 0
0.06826 -0.0723826 0
0.0690925 -0.0735333 0
0.0699178 -0.0746892 0
0.070736 -0.0758501 0
0.0715473 -0.0770159 0
0.0723518 -0.0781863 0
0.0731498 -0.0793612 0
0.0739412 -0.0805405 0
0.0747264 -0.081724 0
0.0755053 -0.0829116 0
0.0762781 -0.0841033 0
0.0770449 -0.0852987 0
0.0778059 -0.0864979 0
0.0785611 -0.0877007 0
0.0793108 -0.088907 0
0.0814681 -0.0912706 0
0.0828814 -0.0924245 0
0.0842946 -0.0935783 0
0.0857079 -0.0947322 0
0.0871211 -0.095886 0
0.0885344 -0.0970399 0
0.0899476 -0.0981937 0
0.0913609 -0.0993476 0
0.0927741 -0.100501 0
0.0941874 -0.101655 0
0.0956006 -0.102809 0
0.0970139 -0.103963 0
0.0984272 -0.105117 0
0.0998404 -0.106271 0
0.101254 -0.107424 0
0.102667 -0.108578 0
0.10408 -0.109732 0
0.105493 -0.110886 0
0.106907 -0.11204 0
0.10832 -0.113194 0
0.109733 -0.114348 0
0.111146 -0.115501 0
0.11256 -0.116655 0
0.113973 -0.117809 0
0.115386 -0.118963 0
0.116799 -0.120117 0
0.118213 -0.121271 0
0.119626 -0.122424 0
0.121039 -0.123578 0
0.122452 -0.124732 0
0.123866 -0.125886 0
0.125279 -0.12704 0
0.126692 -0.128194 0
0.128105 -0.129348 0
0.129519 -0.130501 0
0.130932 -0.131655 0
0.132345 -0.132809 0
0.133758 -0.133963 0
0.135172 -0.133216 0
0.135172 -0.131316 0
0.135172 -0.129415 0
0.135172 -0.127514 0
0.135172 -0.125614 0
0.135172 -0.123713 0
0.135172 -0.121813 0
0.135172 -0.119912 0
0.135172 -0.118012 0
0.135172 -0.116111 0
0.135172 -0.11421 0
0.135172 -0.11231 0
0.135172 -0.110409 0
0.135172 -0.108509 0
0.135172 -0.106608 0
0.135172 -0.104708 0
0.135172 -0.102807 0
0.135172 -0.100906 0
0.135172 -0.0990058 0
0.135172 -0.0971052 0
0.135172 -0.0952046 0
0.135172 -0.0933041 0
0.135172 -0.0914035 0
0.135172 -0.0895029 0
0.135172 -0.0876023 0
0.135172 -0.0857017 0
0.135172 -0.0838012 0
0.135172 -0.0819006 0
0.133758 -0.0788462 0
0.132345 -0.0776923 0
0.130932 -0.0765385 0
0.129519 -0.0753846 0
0.128105 -0.0742308 0
0.126692 -0.0730769 0
0.125279 -0.0719231 0
0.123866 -0.0707692 0
0.122452 -0.0696154 0
0.121039 -0.0684615 0
0.119626 -0.0673077 0
0.118213 -0.0661538 0
0.116799 -0.065 0
0.115386 -0.0638462 0
0.113973 -0.0626923 0
0.11256 -0.0615385 0
0.111146 -0.0603846 0
0.109733 -0.0592308 0
0.10832 -0.0580769 0
0.106907 -0.0569231 0
0.105493 -0.0557692 0
0.10408 -0.0546154 0
0.102667 -0.0534615 0
0.101254 -0.0523077 0
0.0998404 -0.0511538 0
0.0984272 -0.05 0
0.0970139 -0.0488462 0
0.0956006 -0.0476923 0
[...]
CELL_DATA 13116
SCALARS rho float
LOOKUP_TABLE default
0.631468
0.712534
0.3316
0.70031
0.700698
0.696114
0.322695
0.701202
0.580645
0.700912
0.329735
0.300427
0.700633
0.304213
0.307361
0.696044
0.62488
0.699701
0.694151
0.342159
0.621748
0.319306
0.310219
0.700269
0.635219
0.701048
0.701001
0.324445
0.61943
0.676635
1.14158
0.297109
0.595634
0.442713
0.322449
0.628103
0.700748
0.701595
0.69523
0.700504
0.692663
0.701091
0.481444
0.333158
0.701809
0.696228
0.705209
0.697693
0.318264
0.567069
0.700563
0.479769
0.312622
0.617238
0.595966
0.619966
0.332028
0.700261
0.572823
0.307272
0.307835
0.700412
0.704249
0.74144
1.14244
0.325608
0.69798
0.69995
0.698199
1.12639
0.309673
0.606364
0.321355
0.325335
1.14184
0.334002
0.705028
0.699821
0.327349
0.700702
0.703937
0.701592
0.700407
0.700443
0.701351
0.469517
0.324004
0.692238
0.701524
0.347835
0.29796
0.712169
0.700284
0.701255
0.685296
0.638817
0.637894
1.14359
1.14315
0.621216
0.695282
0.690954
0.692805
0.416635
0.702713
0.298519
0.390336
0.550925
0.32108
0.631524
0.581611
0.701568
0.636066
0.701979
0.700708
0.698336
0.319996
0.372412
0.699754
0.6993
0.698892
0.326641
0.698404
0.297053
0.701588
0.397999
0.3228
0.549014
0.324161
0.565777
0.699772
0.703914
0.522204
0.318363
0.516684
0.662092
1.12961
0.699324
0.694188
0.699396
0.697909
0.705066
0.551723
0.700464
0.714406
0.288111
0.323756
0.701239
0.700842
0.700869
0.557985
0.699353
0.696871
0.335201
0.700792
0.701126
0.310093
0.699441
1.14304
0.691057
0.700297
0.329087
0.700457
0.313526
0.327913
0.700373
0.701577
0.700032
0.322378
0.496708
0.424572
1.1325
0.305137
0.546892
0.6981
0.308372
0.314764
0.320749
0.70162
0.691667
0.345616
0.403202
0.600682
0.699385
0.692105
0.574392
0.341231
0.699766
0.702499
0.519112
0.691169
0.701076
1.10129
0.305024
0.700563
0.692137
0.700801
0.700704
0.701648
0.383968
0.418266
0.637897
0.546164
0.319279
0.700772
0.696399
0.495623
0.645201
0.294114
0.33696
0.335178
0.695558
0.310076
0.351969
0.342914
0.335235
0.370269
0.696582
0.701636
0.453784
0.332225
0.697749
0.577392
0.345193
0.558322
0.700558
0.713773
0.324244
0.698109
0.403236
0.702017
0.297099
1.09198
0.592848
1.14254
0.700639
1.01678
0.321485
0.404095
0.688731
1.14312
0.690901
1.12959
0.971562
0.701625
0.313902
0.699921
0.700679
1.14103
0.328902
0.321053
0.6945
0.699887
1.12834
0.700003
0.628567
0.700761
0.330334
0.326724
0.384432
0.284725
0.702602
0.700741
0.705594
0.32684
0.700099
0.334822
0.440648
0.702716
0.334857
0.701542
0.700408
1.14049
0.700233
0.321535
1.13941
0.702004
1.14073
0.699244
0.330074
0.330343
0.306494
0.660852
0.324361
0.330067
0.3736
0.342549
0.702729
0.306521
0.70118
0.700143
0.340806
0.347314
0.335077
0.48844
0.328255
0.691935
0.678775
0.702811
0.335405
0.694706
0.590263
0.320578
0.305578
0.680292
0.699926
0.700354
0.34096
0.693843
0.426097
0.704314
0.700817
0.700518
0.700781
0.305286
0.69799
0.295214
0.697661
0.700155
0.685102
0.343245
0.369498
0.700646
0.331912
0.703272
0.700402
0.367071
0.701128
0.700403
0.334628
0.700206
0.700309
0.254618
0.699803
0.459502
0.575616
0.702542
0.470721
0.700394
0.32798
0.700298
0.37024
0.850957
0.696162
0.701012
0.32278
0.384148
0.701107
0.33396
0.70071
0.702212
0.391316
1.13574
0.339091
0.325095
0.700095
0.563136
0.700822
0.32908
0.311724
0.699835
0.700176
0.325326
0.699766
0.316924
0.289297
0.698896
0.702307
0.549431
0.36366
0.699372
1.14089
0.695682
0.70027
0.700393
0.561231
0.348954
0.287692
0.346442
0.695334
0.346295
0.601465
0.368923
0.300669
0.381347
0.55977
0.143577
0.33481
0.701002
0.280636
0.700607
0.623183
0.692726
0.685265
0.700025
0.325428
0.332036
0.388134
0.355814
0.700817
0.633887
0.692741
0.623008
0.716421
0.656794
0.701483
0.68213
0.675106
0.700586
0.70068
0.691618
0.387692
0.518277
0.62994
0.317899
0.675632
0.620818
0.314281
0.698233
1.14195
0.305787
0.341372
0.343134
0.341572
0.644671
0.318274
0.305299
0.69695
0.329852
0.595294
0.350387
0.698416
0.704941
0.327464
0.317011
0.700192
0.488941
0.356111
0.342162
0.353996
0.319825
0.3336
0.343039
0.331565
0.448828
0.335022
0.690813
0.334612
0.701447
0.370516
0.298574
0.516493
0.279214
0.345881
0.284759
0.700172
0.446622
0.658063
0.559353
0.32962
0.648526
0.701539
0.463652
0.70144
0.662484
0.664598
0.33694
1.14358
0.369414
0.700464
1.14405
0.31304
0.309742
0.702545
0.357636
0.468768
0.697909
0.389493
0.698328
0.712348
0.347719
0.316016
0.309654
0.546532
0.302387
0.289673
0.307552
0.293945
0.70044
0.700381
0.513173
0.624022
0.519027
0.701052
0.361984
0.324903
0.583298
0.313862
0.70358
0.340703
0.386114
0.520342
0.702098
0.701742
0.570097
0.365718
0.311987
0.568756
0.700995
1.04869
0.565982
0.7037
0.702487
0.336515
0.705511
0.589366
0.687459
0.348201
0.328353
0.702401
0.700683
0.683621
0.700657
0.701656
0.700846
0.700267
0.685092
0.692757
0.344454
0.702037
0.371564
0.30434
0.354598
0.700319
0.695397
0.365296
0.701503
0.635493
0.344795
0.878494
0.699881
0.700686
0.324289
0.32612
0.700133
0.360398
0.363402
0.275884
0.337725
0.705697
0.273487
0.700007
0.331935
0.714973
0.700507
0.697493
0.700332
0.359927
0.348747
0.700715
0.702436
0.702593
0.700403
0.70072
0.510585
0.336075
0.315944
0.693984
0.576199
0.344985
0.498773
0.300811
0.701728
0.699211
0.346405
0.322924
0.70174
0.4783
0.700985
0.672878
0.323904
0.401364
0.701775
1.14273
0.314872
0.701707
0.701501
0.69806
0.331791
1.13406
0.330224
1.1414
0.68625
0.365302
0.368344
0.330335
1.1369
0.322499
0.324152
0.376917
0.75399
0.701757
0.324924
0.322792
0.342239
0.833822
0.323022
0.691763
0.291961
0.608839
0.700601
0.372698
0.313124
0.311306
0.511799
0.317073
0.701718
0.340069
0.322298
0.696708
0.30958
0.695406
0.703741
1.14299
0.352679
0.702657
0.700503
0.700808
0.694388
0.701847
0.698682
0.291791
1.10617
0.459389
0.706296
0.330537
0.70142
0.564027
0.320217
1.13864
0.700645
0.329535
0.678254
0.299341
0.31221
0.696633
0.70011
0.301889
0.288378
0.326262
0.289185
0.701838
0.700092
0.331439
0.346186
0.70074
0.699475
0.611774
0.700539
0.698818
0.329877
0.701098
0.432643
0.700491
0.384237
0.629945
0.507773
0.69764
0.701696
0.589278
0.358467
0.322199
0.700442
0.616373
0.619654
0.700522
0.281613
0.703024
0.700852
0.414043
0.501538
0.700635
0.366103
1.13207
0.689535
0.364531
0.699914
0.683175
0.329326
0.70209
0.306233
0.701768
0.335905
0.69515
0.704435
0.320794
0.706858
0.700514
0.700406
0.637467
0.705456
0.590609
0.344069
0.42162
0.295636
0.322927
1.13256
0.561328
0.698777
0.70076
0.346382
0.344394
0.703502
0.700611
0.700303
0.700565
0.338072
0.70049
0.700694
0.34256
0.287135
0.699742
0.693896
0.701816
0.290544
0.596474
0.32725
0.702455
0.703526
1.05733
0.706166
0.341747
0.708455
0.701262
0.700381
0.700369
0.692378
0.45649
0.700496
0.337247
0.698602
0.700704
0.496253
0.715617
0.996209
0.700488
0.427875
0.39834
0.593899
0.676394
0.362176
0.365054
0.335714
0.335456
0.716042
0.703455
0.994588
0.34511
0.333384
0.697985
0.700383
0.261125
0.346474
0.506026
0.704571
0.700514
0.700433
0.70046
0.337815
0.363258
1.13556
0.297595
0.351604
0.339031
0.695011
0.326963
0.356512
0.615378
0.703218
0.701945
0.683337
0.699449
0.320754
0.309488
0.336988
0.566208
0.457033
0.299193
0.700009
0.700535
0.702461
0.693516
0.296594
0.357348
0.700698
0.358474
0.692349
0.704759
1.14249
0.301965
0.355572
0.70177
1.14044
0.649789
0.260869
0.701
0.6902
0.61296
0.700768
0.700783
1.13716
0.704036
0.339636
0.699228
1.13241
0.695041
0.702298
1.13305
0.702011
1.13676
0.699184
0.321784
0.320879
0.358412
1.14031
0.566893
0.358768
0.703693
0.700784
0.302626
0.681409
0.327535
0.690507
0.546936
0.317862
0.700473
0.6998
0.346313
0.553705
1.13958
0.323867
0.70153
0.320945
0.297107
0.654542
0.632129
0.516145
0.692979
0.33569
0.700516
0.318309
0.29998
0.6952
0.343432
0.640667
0.300032
0.683871
0.629901
1.14087
0.70156
0.297741
0.321736
0.693401
0.490679
0.700508
0.501755
0.633855
0.697254
0.700386
0.503282
0.628757
0.701281
0.70087
0.698283
0.374631
0.366703
0.548737
0.700823
0.701006
0.372845
0.693816
0.650527
0.387185
0.301919
0.686745
0.704123
1.12904
1.13619
0.697348
0.702492
0.69391
0.704575
0.297708
0.681097
0.503683
0.700291
0.694967
0.334045
0.701493
0.700349
0.324167
0.316984
0.334151
1.13379
0.329267
0.652525
0.70068
0.680887
0.339077
0.702113
0.314964
0.597304
0.79777
1.05416
0.698773
0.841648
0.644064
0.704265
0.581342
0.705977
0.336075
0.691937
0.69737
0.468822
1.13569
0.702994
0.307143
0.292279
0.325323
0.700519
0.364459
1.13586
0.33783
0.701152
0.309797
0.507783
0.296558
0.700433
0.700384
0.626509
0.316812
0.645838
0.670988
0.339712
0.612746
0.700395
0.299348
0.621596
1.14167
0.70058
0.692301
0.311507
0.539574
0.700534
0.692609
0.699988
0.358042
0.39393
0.700889
1.13734
1.14267
1.13838
0.613687
0.703408
0.610528
0.700078
0.357497
0.316847
1.13879
0.700645
0.710556
0.324889
0.691952
0.625796
0.654251
0.333436
0.426175
0.699825
0.70023
0.58391
0.354431
0.692733
1.13855
0.32367
0.634565
0.70049
0.323836
0.299337
0.299865
0.700999
0.327471
0.345303
0.700293
0.528108
0.701022
0.686317
0.321488
0.335477
0.70045
0.323808
0.319211
1.1411
0.307523
0.3652
0.624768
0.701839
0.702703
0.333842
0.32889
0.329406
0.703864
0.295618
0.701933
0.314281
0.703662
0.700796
0.70181
0.703225
0.708549
0.703587
0.700165
0.70033
0.700044
0.283921
0.336383
0.714151
0.681202
0.517849
0.702113
0.592326
0.726339
0.693924
0.327367
0.69887
0.700408
0.699788
0.328736
0.707605
0.328035
0.700915
0.512599
0.700538
0.694249
0.319905
0.701146
0.342034
0.435791
0.704897
0.338264
0.700915
1.13301
0.701923
0.340724
0.696809
0.335852
0.300416
0.300768
0.343359
0.690215
0.30184
0.696893
0.898383
0.356202
0.305159
0.508546
0.592906
0.666357
0.702891
0.351674
0.328629
0.325598
0.296723
0.311397
0.669272
0.701453
0.32517
0.830266
0.700757
0.300526
0.700334
0.698962
0.834082
0.332391
1.13709
0.705977
0.700567
0.700641
0.302705
0.701866
0.700672
0.706892
0.685588
0.68845
0.332073
0.301611
0.698437
0.543557
0.359614
0.695179
0.304032
0.577391
0.671544
0.701813
0.701847
0.300683
0.702214
0.382557
0.329378
0.700712
0.700499
0.700758
0.699942
0.699003
0.300804
0.700541
0.305348
0.517024
0.700342
1.14391
0.700481
0.329525
0.319049
0.700651
0.340539
0.700117
0.668362
0.421
0.343008
0.699347
0.299472
0.693805
0.700224
0.702972
0.299878
0.321158
0.541543
0.579076
0.659354
0.544905
0.698328
0.703937
0.701024
1.13182
0.702899
0.317382
0.341729
0.699904
0.686693
0.699916
0.492732
0.32111
0.706904
0.304238
0.699179
0.63312
0.344189
0.701075
0.333102
0.701525
0.330959
0.700893
0.31918
0.702893
0.689191
0.301046
0.701558
0.676161
0.297289
0.993078
0.698424
0.593945
0.273528
0.369559
0.531937
0.700548
0.69981
0.345462
0.592836
0.701969
0.695039
0.341708
0.66359
0.702495
0.474453
0.697599
0.697207
0.357641
0.699921
1.13969
0.332465
0.639862
0.342082
0.693223
0.337656
0.291343
0.700591
0.345296
0.342689
0.299278
0.697583
0.703839
0.393268
0.692736
0.367086
0.710826
0.336871
0.702796
0.370396
0.697253
0.699112
0.69986
1.01847
0.556434
0.688618
0.836539
0.327303
0.658453
0.700115
0.586583
0.70339
0.511992
0.408571
0.700559
0.343122
0.594791
0.327933
0.692587
0.284877
0.304814
0.699844
0.699226
0.348239
0.700054
0.700516
1.13303
0.700579
1.13703
0.340415
0.700346
0.350297
0.311674
0.701554
0.700381
0.70101
0.701463
0.294203
0.336932
0.328298
0.708647
0.918545
0.367794
0.702157
0.323518
0.338539
0.333785
0.701494
0.382141
0.700514
0.700044
0.65617
0.700246
0.700187
0.620612
0.703617
0.45783
0.299651
0.348783
1.13594
1.13471
0.322836
0.669881
0.700512
0.70065
0.311809
0.432558
0.704414
0.30578
0.701811
0.682544
0.351186
0.674898
0.715545
0.36135
0.703519
0.318135
0.698567
0.701006
0.708611
0.30099
0.494298
0.700746
0.361744
0.464086
0.69981
0.348661
0.674073
0.698153
0.701468
0.700512
0.353715
1.14032
0.700857
0.692936
0.386721
0.699946
0.316141
0.265727
0.701495
0.700174
0.897451
0.259559
0.694679
0.655895
1.14245
0.3274
0.314707
0.358181
0.699658
0.324958
0.311576
0.329995
0.678987
0.31528
0.333349
0.467633
0.701814
0.35552
1.03364
0.710035
0.700311
0.340622
0.699992
0.682933
0.855664
0.429488
0.683768
0.323657
0.342446
0.69644
0.348037
0.672683
0.702389
1.14065
0.35363
0.369698
0.330282
0.566652
1.12914
0.26838
0.701563
0.697369
0.700484
0.337679
0.30141
0.373716
0.701166
0.349098
1.13103
0.62307
0.676635
0.701
0.330464
0.677549
0.293018
0.681424
0.669954
0.700613
0.666816
0.58896
0.686924
0.701098
0.69988
0.341679
0.369412
0.33129
0.7006
0.578609
1.14397
0.353556
0.381229
0.700413
0.700191
1.10549
0.348648
0.700455
0.564659
0.570669
0.700824
0.317543
0.348829
0.356498
0.699935
0.933335
0.683517
0.701209
0.378447
0.70188
0.68023
0.91402
0.932414
0.701792
0.700396
0.694264
0.70033
0.700687
0.31266
0.69948
0.700002
0.694917
0.699814
0.70056
0.660251
0.34764
0.299348
0.698881
0.356423
0.354072
0.700519
0.315718
0.657733
0.697793
0.706645
0.699367
0.310002
0.700679
0.300947
0.317358
0.694968
0.704037
0.693987
0.340314
0.699806
0.692562
0.696437
0.699837
0.316643
0.692289
0.700652
0.714979
0.384306
0.700317
0.331567
0.699739
0.336824
0.349744
0.629641
0.493658
0.700483
0.700327
0.692109
0.329763
0.691613
0.395918
0.31188
0.701542
0.508038
0.351777
0.692546
0.315229
0.521821
0.696605
0.705629
0.702148
0.510097
0.608024
0.687529
0.691916
0.662434
0.700791
0.545238
0.701641
0.700828
0.680115
0.288256
0.327851
0.484116
0.699968
0.308171
0.68934
0.700239
0.639724
0.692177
0.615371
0.701639
0.704595
0.331489
0.699923
0.702353
0.597663
0.702605
0.700611
0.701777
0.678557
0.338164
0.320182
0.706619
0.582766
0.615462
0.69935
0.701387
0.693261
0.700758
0.701127
0.657062
0.70409
0.700561
0.307556
0.258421
0.274995
0.332224
1.14204
0.520435
0.608426
0.701199
0.70367
0.31258
0.700539
0.700217
0.34018
0.388137
1.13658
0.699399
0.317416
0.298573
0.278377
1.13142
0.701449
0.386873
0.317815
0.350349
0.294177
0.361032
0.361208
0.701951
0.698592
0.704553
0.340045
0.705467
0.655174
0.627467
0.347795
0.339346
0.701588
1.13126
0.352827
0.698125
0.360575
0.700184
0.313063
0.700351
0.343973
0.702341
0.700007
0.340048
0.572502
0.3369
0.700247
0.311565
0.660501
0.303481
0.558366
0.324811
0.656723
0.340128
1.07987
1.08015
0.626862
0.709643
0.349956
0.703098
0.67807
0.699815
0.651874
0.710441
0.341003
0.428465
0.326811
0.700378
0.333299
0.700367
0.564892
0.70039
0.700536
0.538008
0.700525
0.312776
0.316838
0.311859
0.554475
0.631197
0.701924
0.336438
0.325884
0.695181
0.420294
0.298722
0.656235
0.362786
0.354865
0.300906
0.701039
0.673878
0.663582
0.31668
0.70364
0.699504
0.300533
0.365919
0.701277
0.699263
0.679294
0.525627
0.4467
0.386595
0.336082
0.701903
0.696615
0.577808
0.701103
0.302894
0.612514
0.33184
1.13691
0.700079
0.34445
0.338894
0.701823
0.652622
0.700155
0.700685
0.70074
0.700573
0.700395
0.335592
0.318496
0.331796
0.331104
0.631107
1.14439
0.67538
0.335367
0.351403
0.474139
0.298959
0.693133
0.705213
0.342046
0.347158
0.697684
0.316756
0.687571
0.70053
0.703481
0.692485
0.62912
0.363221
0.342028
0.703232
0.345961
0.430073
0.390108
0.680502
0.699387
0.346845
0.351653
1.13415
0.340092
0.698183
0.700338
0.357231
0.324816
0.309118
0.697732
0.317306
1.13337
0.701707
0.643611
0.299457
0.540692
0.700088
0.701742
0.324038
0.702744
0.699139
0.299875
0.699825
0.700944
0.329187
0.350746
0.701688
0.337314
0.331296
0.702247
0.378558
0.695247
0.701476
0.700412
0.696612
0.700671
0.697768
0.67796
0.327102
0.433044
0.70951
0.705483
0.491869
0.700424
0.35394
0.699141
0.702055
0.605562
0.681647
0.427907
0.507704
0.700521
0.700536
0.701019
0.700036
0.696411
1.13609
0.700801
1.13341
0.701904
0.701571
0.701785
1.13362
0.686229
0.293419
0.701712
0.327535
0.699195
0.699435
0.70044
0.703647
0.700383
0.324734
0.332956
0.362984
0.325511
0.70426
0.343967
0.332183
0.703534
0.297286
0.700348
0.335674
0.702795
0.701311
0.345402
0.41843
0.347651
0.699731
0.324382
0.701011
0.701286
0.330031
0.701643
0.573486
0.359203
0.323323
0.300182
0.69993
0.353235
0.700067
0.612837
0.340591
0.701797
0.692811
0.700681
0.360544
0.618464
0.301139
0.705894
0.68238
0.698385
0.361934
0.705996
0.699308
0.702606
0.387066
0.699688
0.363345
0.33646
0.700424
0.504111
0.700882
0.416495
0.359208
0.470787
0.703555
0.323413
0.293806
0.335159
0.558458
1.13968
0.701038
0.263932
0.649825
0.697117
0.564873
0.459785
0.338671
0.575716
0.366172
0.334972
0.699443
0.337536
0.354931
0.700602
0.700432
0.339482
0.700482
0.334785
1.13669
0.325175
0.70169
1.11543
0.700512
0.690908
0.318988
0.333755
0.299874
0.694279
0.701449
0.605233
0.575054
0.403722
0.350423
0.692182
0.328031
0.696606
0.397965
1.08155
0.701071
0.342089
0.331559
0.339392
0.351107
0.330085
0.699994
0.704374
0.344059
0.699737
0.674373
0.344008
0.305456
0.700441
0.348664
0.701054
0.453759
0.700577
0.686028
0.699945
1.13886
0.31727
0.701152
0.699722
0.701089
0.346674
0.699707
0.615433
0.35191
0.699869
0.701088
0.702153
0.703643
0.700421
0.700791
0.700679
0.696487
0.695413
0.346193
0.700464
0.340184
0.52305
0.699811
0.300362
0.702008
0.702913
0.322849
0.703061
0.347459
0.297618
0.701477
0.699897
0.700427
0.334457
0.703543
0.646276
0.325753
0.341704
0.701655
0.699498
0.407457
0.332007
0.700599
0.700441
0.360484
0.678285
0.700117
0.674558
0.33775
0.362702
0.29728
0.686178
0.32034
0.702712
0.700648
0.692274
0.661032
0.700522
0.335153
0.701813
0.637906
0.699906
0.666085
0.304372
0.325731
0.300698
0.700357
0.700814
0.452384
0.68436
0.329879
0.702039
0.6991
0.280061
0.696811
0.702508
0.66012
0.340545
0.330047
0.334692
0.700191
0.700819
0.643755
0.525466
0.700224
0.352063
0.665963
1.14137
0.705949
0.339879
0.647534
0.326308
0.702807
0.290096
0.701774
0.701507
0.317353
0.6999
0.481736
1.13581
0.684996
1.13164
0.700399
0.416391
0.692145
0.692712
0.699198
0.702364
0.502836
1.14055
0.29788
0.692667
0.296941
0.347635
0.312333
0.329983
0.364765
0.341995
0.700373
0.390144
0.312443
0.695544
0.699898
0.704094
0.389953
0.700147
0.701343
0.686399
0.288989
0.67372
0.698149
0.335422
0.332154
0.333363
0.664086
0.519521
0.355671
0.66559
0.298316
1.13836
0.516739
0.319147
0.504925
0.681473
0.340767
0.698862
0.296602
0.575503
0.403214
0.701831
0.367273
0.697868
1.14074
0.70165
0.458235
0.341391
0.701922
0.700413
0.330794
0.299808
0.697253
0.350465
0.700368
0.339428
0.5734
0.29185
0.697772
0.319468
0.700386
0.347725
0.699296
0.700006
0.700428
1.14138
0.300699
0.308198
0.387308
0.701526
0.703928
0.70349
0.634621
0.321173
0.700597
0.340458
0.701505
0.695006
0.409767
0.342179
0.700633
0.697188
0.302486
1.14133
0.701884
0.700671
0.700358
0.298879
0.668108
0.343231
0.700647
0.317529
0.791333
0.701605
0.701821
0.700464
0.342704
0.700687
0.344005
0.331043
0.698232
1.14205
0.591382
0.705972
1.14199
0.348027
0.699764
0.701601
0.700818
0.301646
0.422292
0.701161
0.343064
0.699236
0.700581
0.701825
0.701708
0.321723
0.473184
0.67824
0.314494
0.701901
0.700143
0.550212
0.701506
0.330321
0.703433
0.699625
0.698337
0.701347
0.32868
0.305376
0.702319
0.70258
0.315036
0.354503
0.319804
0.314605
0.310959
0.300313
0.327311
0.358031
0.703672
0.299277
0.338922
0.700801
0.592351
1.13486
0.407571
0.352789
0.697657
0.548038
0.566727
0.700789
0.361662
0.68277
1.01636
0.631772
0.702001
0.32658
0.700652
0.741023
0.32744
0.33553
0.411831
0.702477
0.632976
0.700479
0.695911
0.705312
0.704262
0.368995
0.700047
0.684557
0.701657
0.348289
0.697986
0.683508
0.36595
0.447797
0.309498
0.297588
0.304569
0.626678
0.697571
0.712838
0.335732
0.428588
0.700094
0.302509
0.701114
0.692736
0.702078
0.698106
0.70042
0.330544
0.299434
0.284547
0.621272
0.318944
0.696942
0.283042
0.69683
0.698409
0.699466
0.328635
0.465422
0.410203
0.700141
0.332457
0.332332
0.700577
0.702108
0.685214
0.696371
0.701646
0.700348
0.365879
0.647335
0.700922
0.538975
0.700883
0.700803
0.700292
0.478966
0.447979
0.700815
0.515267
0.665971
0.341482
0.705183
0.701207
0.385245
0.318943
0.70946
0.545057
0.700606
0.701116
0.355041
0.345426
1.13951
0.450209
0.395861
0.700887
0.701555
0.329151
0.701137
1.14263
0.703906
0.366385
0.626335
0.364456
0.700478
0.700018
0.700314
0.714195
1.14637
0.341845
0.36536
0.705815
0.340634
0.628525
0.337248
0.699876
0.276644
0.685968
0.700902
1.14341
0.362145
1.13361
1.1388
0.331088
0.706482
0.300663
0.701109
0.356406
0.342706
0.268573
0.706029
0.701388
0.365123
0.349923
0.701253
0.70037
0.516174
0.70017
0.36321
0.56191
0.350661
0.708204
0.333352
0.697582
0.70108