# vtk DataFile Version 1.0
unstructured grid
ascii
DATASET UNSTRUCTURED_GRID
points 13672 float
0.0796578 -0.059106 0
0.00128732 0.00159165 0
0.00227961 -0.00102548 0
0.0791586 -0.0598787 0
-0.0546216 0.01 0
0.000495206 0.025 0
0.0800549 -0.035 0
0.135172 -0.08 0
-0.0546216 -0.0451168 0
0.000495206 -0.0301168 0
0.0800549 -0.0901168 0
0.135172 -0.135117 0
-0.0546216 -0.0451168 -0.00551168
0.000495206 -0.0301168 -0.00551168
0.0800549 -0.0901168 -0.00551168
0.135172 -0.135117 -0.00551168
0.135172 -0.08 -0.00551168
0.0800549 -0.035 -0.00551168
0.000495206 0.025 -0.00551168
-0.0546216 0.01 -0.00551168
0.00128732 0.00159165 -0.00551168
0.00227961 -0.00102548 -0.00551168
0.0791586 -0.0598787 -0.00551168
0.0796578 -0.059106 -0.00551168
0.00165953 -0.000990923 0
0.00119576 -0.000874076 0
0.000866021 -0.000641801 0
0.000645147 -0.000349912 0
0.00052235 -1.7281e-05 0
0.00049972 0.000348016 0
0.000601632 0.000737716 0
0.000861774 0.0011403 0
0.00157235 0.00183217 0
0.00188647 0.00206725 0
0.00222612 0.00230203 0
0.00258713 0.00254351 0
0.00296826 0.00279524 0
0.00337118 0.00305664 0
0.00379785 0.00332658 0
0.00425045 0.00360349 0
0.00473139 0.00388521 0
0.0052432 0.00416895 0
0.0057881 0.00445204 0
0.00636753 0.00473281 0
0.00698281 0.00500961 0
0.00763526 0.00528058 0
0.00832616 0.00554366 0
0.00905691 0.00579603 0
0.00982918 0.00603333 0
0.0106445 0.00625033 0
0.0115038 0.00644128 0
0.0124073 0.00660297 0
0.0133543 0.00673414 0
0.0143444 0.00683382 0
0.0153769 0.00690031 0
0.0164512 0.00693173 0
0.0175666 0.00692547 0
0.0187219 0.00687822 0
0.0199156 0.00678477 0
0.0211454 0.00663864 0
0.0224084 0.00643275 0
0.0237018 0.00616676 0
0.0250249 0.00584739 0
0.026375 0.00547298 0
0.0277479 0.00503752 0
0.0291386 0.00453545 0
0.0305433 0.0039653 0
0.0319572 0.0033256 0
0.0333681 0.00260019 0
0.034775 0.00179799 0
0.0361793 0.000930615 0
0.0375798 3.12222e-06 0
0.0389689 -0.000988429 0
0.0403357 -0.00205109 0
0.041675 -0.00318283 0
0.0429849 -0.00437751 0
0.0442643 -0.00562904 0
0.0455126 -0.00693089 0
0.0467314 -0.00827518 0
0.0479204 -0.00965638 0
0.0490661 -0.0110799 0
0.0501515 -0.0125519 0
0.0511696 -0.0140695 0
0.0521492 -0.0156071 0
0.0531202 -0.0171411 0
0.0540851 -0.0186663 0
0.0550431 -0.0201798 0
0.0559923 -0.0216793 0
0.0569311 -0.0231626 0
0.0578582 -0.0246273 0
0.0587723 -0.0260715 0
0.0596721 -0.027493 0
0.0605563 -0.02889 0
0.0614241 -0.0302609 0
0.0622742 -0.0316042 0
0.063106 -0.0329183 0
0.0639186 -0.034202 0
0.0647113 -0.0354543 0
0.0654835 -0.0366743 0
0.0662345 -0.0378613 0
0.0669642 -0.0390145 0
0.0676726 -0.0401333 0
0.0683597 -0.0412172 0
0.0690246 -0.0422665 0
0.0696662 -0.0432819 0
0.0702841 -0.0442636 0
0.0708793 -0.0452111 0
0.0714538 -0.0461237 0
0.072009 -0.047001 0
0.0725452 -0.0478434 0
0.0730611 -0.0486524 0
0.073556 -0.0494294 0
0.0740291 -0.0501756 0
0.0744812 -0.0508916 0
0.0749138 -0.0515773 0
0.0753285 -0.0522331 0
0.0757266 -0.0528592 0
0.076109 -0.0534564 0
0.0764753 -0.0540264 0
0.0768243 -0.054571 0
0.0771553 -0.0550919 0
0.0774679 -0.0555901 0
0.0777617 -0.0560669 0
0.0780369 -0.056523 0
0.0782958 -0.0569578 0
0.0785421 -0.0573703 0
0.0787786 -0.0577603 0
0.0790073 -0.0581279 0
0.0792295 -0.058474 0
0.0794462 -0.0587995 0
0.0798803 -0.0594162 0
0.0800272 -0.0596588 0
0.0800357 -0.0598891 0
0.0799275 -0.0600784 0
0.0797205 -0.0601773 0
0.0794593 -0.0601051 0
0.0789155 -0.0596491 0
0.0786707 -0.0593963 0
0.0784111 -0.0591319 0
0.0781372 -0.0588542 0
0.0778566 -0.0585548 0
0.0775715 -0.0582308 0
0.0772803 -0.0578828 0
0.0769832 -0.0575099 0
0.0766822 -0.0571097 0
0.0763801 -0.0566796 0
0.0760759 -0.0562196 0
0.0757623 -0.0557337 0
0.0754359 -0.0552232 0
0.0750951 -0.0546879 0
0.0747379 -0.054128 0
0.0743626 -0.0535435 0
0.0739688 -0.0529338 0
0.0735559 -0.0522981 0
0.0731238 -0.0516357 0
0.0726718 -0.050946 0
0.0721991 -0.0502288 0
0.0717046 -0.049484 0
0.0711872 -0.0487117 0
0.0706461 -0.047912 0
0.0700804 -0.0470849 0
0.0694892 -0.0462308 0
0.0688718 -0.0453499 0
0.0682271 -0.0444431 0
0.0675544 -0.043511 0
0.0668527 -0.0425546 0
0.0661215 -0.0415748 0
0.06536 -0.040573 0
0.0645676 -0.0395504 0
0.0637439 -0.0385087 0
0.0628887 -0.0374493 0
0.062002 -0.0363741 0
0.0610838 -0.0352847 0
0.0601345 -0.0341831 0
0.0591547 -0.033071 0
0.0581456 -0.0319502 0
0.0571083 -0.0308224 0
0.0560444 -0.0296893 0
0.0549562 -0.028552 0
0.053845 -0.0274126 0
0.0527113 -0.0262746 0
0.051554 -0.0251427 0
0.0503724 -0.0240222 0
0.0491675 -0.0229164 0
0.047941 -0.0218282 0
0.0466955 -0.0207597 0
0.0454337 -0.0197126 0
0.0441592 -0.0186878 0
0.0428751 -0.0176863 0
0.0415841 -0.0167097 0
0.0402878 -0.0157609 0
0.0389879 -0.0148428 0
0.0376864 -0.0139575 0
0.0363853 -0.013107 0
0.0350871 -0.0122931 0
0.0337942 -0.0115164 0
0.0325095 -0.0107772 0
0.0312357 -0.0100756 0
0.0299758 -0.00941024 0
0.0287337 -0.00877784 0
0.0275126 -0.00817571 0
0.0263139 -0.00760375 0
0.0251376 -0.00706528 0
0.0239829 -0.0065649 0
0.0228537 -0.00609619 0
0.0217522 -0.00565563 0
0.0206795 -0.00524226 0
0.0196364 -0.00485507 0
0.0186233 -0.00449318 0
0.0176408 -0.00415577 0
0.016689 -0.00384204 0
0.0157682 -0.00355115 0
0.0148783 -0.00328218 0
0.0140192 -0.00303468 0
0.0131906 -0.00280795 0
0.0123925 -0.00260016 0
0.0116246 -0.00241012 0
0.0108864 -0.00223769 0
0.0101774 -0.00208212 0
0.00949701 -0.00194206 0
0.00884483 -0.0018163 0
0.0082202 -0.0017039 0
0.00762247 -0.00160391 0
0.00705097 -0.00151528 0
0.006505 -0.00143697 0
0.0059838 -0.00136806 0
0.00548662 -0.00130772 0
0.00501265 -0.00125519 0
0.00456114 -0.00120954 0
0.00413136 -0.00116914 0
0.00372257 -0.00113251 0
0.00333398 -0.00109853 0
0.00296466 -0.00106798 0
0.00261363 -0.0010431 0
-0.052721 -0.0445996 0
-0.0508204 -0.0440823 0
-0.0489199 -0.0435651 0
-0.0470193 -0.0430478 0
-0.0451187 -0.0425306 0
-0.0432181 -0.0420134 0
-0.0413175 -0.0414961 0
-0.039417 -0.0409789 0
-0.0375164 -0.0404616 0
-0.0356158 -0.0399444 0
-0.0337152 -0.0394271 0
-0.0318146 -0.0389099 0
-0.0299141 -0.0383927 0
-0.0280135 -0.0378754 0
-0.0261129 -0.0373582 0
-0.0242123 -0.0368409 0
-0.0223117 -0.0363237 0
-0.0204112 -0.0358065 0
-0.0185106 -0.0352892 0
-0.01661 -0.034772 0
-0.0147094 -0.0342547 0
-0.0128088 -0.0337375 0
-0.0109083 -0.0332202 0
-0.00900769 -0.032703 0
-0.00710711 -0.0321858 0
-0.00520653 -0.0316685 0
-0.00330595 -0.0311513 0
-0.00140537 -0.030634 0
0.00190689 -0.0299614 0
0.00332271 -0.0298498 0
0.00474133 -0.0297825 0
0.00616136 -0.0297597 0
0.0075814 -0.0297814 0
0.00900007 -0.0298477 0
0.010416 -0.0299583 0
0.0118278 -0.0301127 0
0.0132342 -0.0303103 0
0.0146339 -0.0305504 0
0.0160259 -0.0308322 0
0.0174091 -0.0311546 0
0.0187824 -0.0315166 0
0.020145 -0.031917 0
0.0214961 -0.0323546 0
0.0228351 -0.032828 0
0.0241613 -0.0333361 0
0.0254744 -0.0338774 0
0.0267738 -0.0344507 0
0.0280592 -0.0350545 0
0.0293306 -0.0356877 0
0.0305875 -0.0363488 0
0.0318301 -0.0370367 0
0.0330581 -0.0377501 0
0.0342717 -0.0384879 0
0.0354708 -0.0392489 0
0.0366556 -0.0400321 0
0.0378262 -0.0408363 0
0.0389828 -0.0416607 0
0.0401254 -0.0425042 0
0.0412543 -0.0433659 0
0.0423698 -0.0442451 0
0.043472 -0.0451408 0
0.0445612 -0.0460523 0
0.0456375 -0.0469789 0
0.0467013 -0.0479199 0
0.0477529 -0.0488746 0
0.0487923 -0.0498424 0
0.04982 -0.0508227 0
0.0508362 -0.051815 0
0.051841 -0.0528187 0
0.0528348 -0.0538333 0
0.0538178 -0.0548584 0
0.0547903 -0.0558935 0
0.0557524 -0.0569382 0
0.0567045 -0.0579922 0
0.0576467 -0.0590549 0
0.0585792 -0.0601261 0
0.0595024 -0.0612055 0
0.0604163 -0.0622926 0
0.0613212 -0.0633873 0
0.0622174 -0.0644891 0
0.0631049 -0.0655979 0
0.0639841 -0.0667134 0
0.064855 -0.0678353 0
0.0657179 -0.0689633 0
0.0665729 -0.0700974 0
0.0674202 -0.0712372 0
0.06826 -0.0723826 0
0.0690925 -0.0735333 0
0.0699178 -0.0746892 0
0.070736 -0.0758501 0
0.0715473 -0.0770159 0
0.0723518 -0.0781863 0
0.0731498 -0.0793612 0
0.0739412 -0.0805405 0
0.0747264 -0.081724 0
0.0755053 -0.0829116 0
0.0762781 -0.0841033 0
0.0770449 -0.0852987 0
0.0778059 -0.0864979 0
0.0785611 -0.0877007 0
0.0793108 -0.088907 0
0.0814681 -0.0912706 0
0.0828814 -0.0924245 0
0.0842946 -0.0935783 0
0.0857079 -0.0947322 0
0.0871211 -0.095886 0
0.0885344 -0.0970399 0
0.0899476 -0.0981937 0
0.0913609 -0.0993476 0
0.0927741 -0.100501 0
0.0941874 -0.101655 0
0.0956006 -0.102809 0
0.0970139 -0.103963 0
0.0984272 -0.105117 0
0.0998404 -0.106271 0
0.101254 -0.107424 0
0.102667 -0.108578 0
0.10408 -0.109732 0
0.105493 -0.110886 0
0.106907 -0.11204 0
0.10832 -0.113194 0
0.109733 -0.114348 0
0.111146 -0.115501 0
0.11256 -0.116655 0
0.113973 -0.117809 0
0.115386 -0.118963 0
0.116799 -0.120117 0
0.118213 -0.121271 0
0.119626 -0.122424 0
0.121039 -0.123578 0
0.122452 -0.124732 0
0.123866 -0.125886 0
0.125279 -0.12704 0
0.126692 -0.128194 0
0.128105 -0.129348 0
0.129519 -0.130501 0
0.130932 -0.131655 0
0.132345 -0.132809 0
0.133758 -0.133963 0
0.135172 -0.133216 0
0.135172 -0.131316 0
0.135172 -0.129415 0
0.135172 -0.127514 0
0.135172 -0.125614 0
0.135172 -0.123713 0
0.135172 -0.121813 0
0.135172 -0.119912 0
0.135172 -0.118012 0
0.135172 -0.116111 0
0.135172 -0.11421 0
0.135172 -0.11231 0
0.135172 -0.110409 0
0.135172 -0.108509 0
0.135172 -0.106608 0
0.135172 -0.104708 0
0.135172 -0.102807 0
0.135172 -0.100906 0
0.135172 -0.0990058 0
0.135172 -0.0971052 0
0.135172 -0.0952046 0
0.135172 -0.0933041 0
0.135172 -0.0914035 0
0.135172 -0.0895029 0
0.135172 -0.0876023 0
0.135172 -0.0857017 0
0.135172 -0.0838012 0
0.135172 -0.0819006 0
0.133758 -0.0788462 0
0.132345 -0.0776923 0
0.130932 -0.0765385 0
0.129519 -0.0753846 0
0.128105 -0.0742308 0
0.126692 -0.0730769 0
0.125279 -0.0719231 0
0.123866 -0.0707692 0
0.122452 -0.0696154 0
0.121039 -0.0684615 0
0.119626 -0.0673077 0
0.118213 -0.0661538 0
0.116799 -0.065 0
0.115386 -0.0638462 0
0.113973 -0.0626923 0
0.11256 -0.0615385 0
0.111146 -0.0603846 0
0.109733 -0.0592308 0
0.10832 -0.0580769 0
0.106907 -0.0569231 0
0.105493 -0.0557692 0
0.10408 -0.0546154 0
0.102667 -0.0534615 0
0.101254 -0.0523077 0
0.0998404 -0.0511538 0
0.0984272 -0.05 0
0.0970139 -0.0488462 0
0.0956006 -0.0476923 0
[...]
CELL_DATA 13116
SCALARS rho float
LOOKUP_TABLE default
0.647649
0.692085
0.349774
0.69793
0.702578
0.686601
0.362115
0.694499
0.59407
0.70482
0.363109
0.338342
0.702742
0.355065
0.360096
0.686581
0.650535
0.725297
0.691995
0.358254
0.642016
0.361711
0.354444
0.71872
0.659674
0.689107
0.705609
0.354281
0.58652
0.715589
1.04045
0.336162
0.619749
0.482083
0.362883
0.645606
0.705099
0.691314
0.684267
0.688513
0.692145
0.695624
0.5083
0.346664
0.691344
0.691934
0.685691
0.694266
0.369937
0.534163
0.700884
0.496331
0.357653
0.646626
0.620693
0.645347
0.346787
0.707046
0.541945
0.369888
0.354606
0.702554
0.68953
0.679121
0.969179
0.349404
0.68971
0.709121
0.697549
0.822433
0.358481
0.602685
0.359071
0.347906
1.12616
0.341856
0.6943
0.699411
0.361006
0.718589
0.704442
0.687544
0.707991
0.694521
0.68971
0.47828
0.35573
0.717185
0.689132
0.3655
0.343739
0.692351
0.716732
0.689822
0.707867
0.660381
0.662731
1.12259
1.12122
0.651899
0.728495
0.677666
0.691255
0.45199
0.683898
0.36169
0.440063
0.563742
0.352749
0.646495
0.59448
0.68649
0.658072
0.706365
0.721314
0.687352
0.354312
0.439502
0.69761
0.688636
0.710264
0.361363
0.697544
0.343398
0.690126
0.47002
0.355479
0.524387
0.351393
0.533786
0.697726
0.697803
0.511542
0.366194
0.495461
0.66949
1.12687
0.6992
0.728745
0.688007
0.687479
0.686234
0.524971
0.688019
0.690101
0.358834
0.362921
0.688261
0.702504
0.693577
0.539768
0.694234
0.69414
0.348409
0.705411
0.689762
0.353409
0.734402
1.10811
0.71798
0.711556
0.362477
0.705838
0.353508
0.360658
0.703352
0.689776
0.725386
0.362723
0.483311
0.460861
1.12664
0.361212
0.513623
0.687065
0.355473
0.357107
0.360188
0.686466
0.6927
0.359034
0.463831
0.617089
0.70538
0.693054
0.552171
0.348633
0.689236
0.68421
0.486124
0.694741
0.688335
0.745865
0.349878
0.687338
0.686699
0.707276
0.690018
0.68896
0.407184
0.453462
0.660365
0.520421
0.350364
0.700522
0.693261
0.502606
0.667181
0.367773
0.36435
0.342222
0.69066
0.353711
0.361774
0.365621
0.347413
0.428428
0.686477
0.690101
0.473023
0.346047
0.689309
0.58918
0.359572
0.539768
0.70335
0.689497
0.354889
0.686951
0.4568
0.690942
0.340673
0.742866
0.553275
1.12748
0.689868
0.690389
0.382206
0.465189
0.719689
1.12669
0.688179
1.12689
0.66881
0.690432
0.357739
0.699854
0.7052
1.11825
0.362551
0.370885
0.693128
0.697324
0.85271
0.696347
0.64454
0.710467
0.362924
0.391155
0.41756
0.366911
0.682824
0.706769
0.692986
0.357768
0.690065
0.349143
0.468268
0.683938
0.355512
0.688689
0.700547
1.12676
0.706484
0.380919
1.12689
0.704697
1.1181
0.69894
0.360636
0.354783
0.351538
0.668169
0.359718
0.370519
0.431001
0.401425
0.690957
0.358171
0.689039
0.702478
0.351671
0.357832
0.350057
0.476294
0.353952
0.716699
0.673354
0.684939
0.356396
0.695128
0.557629
0.388125
0.368387
0.686609
0.697298
0.690036
0.347939
0.68662
0.462658
0.697509
0.696752
0.691346
0.697573
0.350323
0.687
0.361919
0.686348
0.706398
0.733044
0.362303
0.429247
0.705085
0.351024
0.688603
0.702714
0.389043
0.72118
0.70743
0.352121
0.690136
0.714188
0.358697
0.698468
0.475374
0.549915
0.689434
0.479717
0.73412
0.357331
0.710178
0.436198
0.668264
0.677906
0.711231
0.353919
0.434244
0.689852
0.349564
0.699599
0.684833
0.458829
1.12691
0.348617
0.352442
0.697443
0.542715
0.70699
0.354477
0.353661
0.699596
0.702398
0.363278
0.70141
0.352995
0.36903
0.687679
0.689757
0.582201
0.367311
0.698523
1.00208
0.686511
0.689811
0.702927
0.541958
0.365715
0.364684
0.358719
0.686421
0.35937
0.617798
0.39397
0.348557
0.43197
0.589157
0.174054
0.350389
0.690165
0.336728
0.705867
0.650907
0.693046
0.719317
0.700105
0.352892
0.354737
0.414234
0.374043
0.698334
0.655891
0.692159
0.641757
0.690885
0.689436
0.687474
0.688978
0.714562
0.702129
0.719932
0.68665
0.421257
0.501479
0.645879
0.357927
0.671833
0.645094
0.357246
0.687079
1.12695
0.351223
0.360136
0.36341
0.350033
0.767083
0.353761
0.350362
0.688828
0.347907
0.560162
0.364875
0.686598
0.70069
0.355877
0.364327
0.697416
0.475591
0.365382
0.350262
0.366817
0.353023
0.354142
0.360426
0.36623
0.469604
0.363351
0.677369
0.361292
0.688998
0.38721
0.34199
0.508327
0.359424
0.365385
0.35882
0.689957
0.467981
0.771065
0.580155
0.349084
0.671003
0.689185
0.475982
0.717338
0.690543
0.688943
0.353513
1.12306
0.442319
0.704134
1.08668
0.353044
0.359883
0.683784
0.375243
0.478791
0.679395
0.437993
0.734373
0.690671
0.357278
0.355303
0.359041
0.509409
0.366391
0.357663
0.359784
0.361231
0.702143
0.701225
0.480595
0.653696
0.497043
0.686702
0.421211
0.348714
0.599813
0.353122
0.695482
0.405236
0.438669
0.508757
0.691269
0.689015
0.546951
0.38623
0.360083
0.545237
0.695539
0.694576
0.543739
0.683414
0.682544
0.363079
0.700491
0.551762
0.720766
0.407576
0.353962
0.706261
0.711254
0.720695
0.703735
0.688012
0.689461
0.709007
0.724303
0.692918
0.364944
0.691073
0.439953
0.369935
0.362905
0.699096
0.693152
0.419056
0.68938
0.59213
0.362593
0.667061
0.697164
0.701957
0.354077
0.349183
0.699003
0.36573
0.366584
0.355041
0.363171
0.695289
0.358178
0.698186
0.360567
0.692156
0.70085
0.69671
0.702471
0.365835
0.358811
0.693968
0.69121
0.69963
0.702673
0.705239
0.501449
0.35238
0.353084
0.694118
0.576994
0.363416
0.477652
0.348534
0.689726
0.687446
0.408498
0.363257
0.688968
0.482875
0.690367
0.755684
0.351043
0.455007
0.698218
1.12635
0.35329
0.688477
0.689691
0.693671
0.344392
1.12665
0.346507
1.12713
0.721352
0.367551
0.425057
0.368981
1.12897
0.352866
0.359915
0.440599
0.676396
0.699937
0.360318
0.387938
0.36409
0.673257
0.360245
0.690041
0.358681
0.611069
0.703386
0.390487
0.353515
0.353979
0.502473
0.353158
0.688481
0.346215
0.348038
0.68679
0.360294
0.687015
0.687844
1.12519
0.365199
0.695573
0.706489
0.706479
0.694482
0.69017
0.687516
0.349589
0.765296
0.475074
0.694462
0.359889
0.691367
0.535294
0.362482
1.04057
0.702648
0.350885
0.690994
0.344226
0.356869
0.689964
0.690097
0.347453
0.359354
0.360797
0.340452
0.689882
0.721142
0.345349
0.355714
0.699819
0.69804
0.63113
0.706406
0.686798
0.362678
0.7082
0.463842
0.701083
0.438187
0.654378
0.496665
0.686781
0.707001
0.55831
0.417678
0.353677
0.689963
0.5666
0.641491
0.70643
0.365179
0.702704
0.705504
0.458717
0.499692
0.706398
0.391162
0.919556
0.719024
0.427849
0.688708
0.708073
0.350979
0.700994
0.351471
0.688458
0.342502
0.689952
0.688952
0.354035
0.683264
0.706083
0.699354
0.625451
0.698491
0.558695
0.384262
0.459401
0.348362
0.348589
1.1269
0.541718
0.697541
0.702264
0.362957
0.368573
0.698982
0.70383
0.697736
0.700018
0.360842
0.723956
0.704992
0.358773
0.346006
0.697786
0.69289
0.688971
0.311607
0.560928
0.356509
0.701134
0.687282
0.729999
0.692984
0.363248
0.695075
0.688908
0.709728
0.690073
0.692771
0.474044
0.702565
0.363883
0.683939
0.705085
0.481522
0.691342
0.672101
0.700312
0.462647
0.44346
0.560824
0.726537
0.365659
0.367448
0.353483
0.363601
0.693197
0.702482
0.68567
0.402075
0.363168
0.697305
0.726012
0.357769
0.370633
0.484241
0.70099
0.689887
0.689716
0.706839
0.364745
0.36572
1.12698
0.342521
0.361664
0.345102
0.690632
0.356125
0.365844
0.639456
0.693836
0.68595
0.68649
0.689359
0.353288
0.358659
0.354327
0.59168
0.470429
0.342452
0.7078
0.707716
0.6893
0.694303
0.31113
0.365667
0.703879
0.364319
0.69254
0.688359
1.08325
0.347635
0.366907
0.687944
1.03885
0.660432
0.358291
0.690098
0.686416
0.637345
0.694387
0.697785
1.12695
0.683282
0.360987
0.688665
0.922032
0.683491
0.701267
1.12686
0.686364
1.12652
0.698303
0.349009
0.348941
0.365663
1.02313
0.550307
0.364568
0.698352
0.700202
0.343397
0.697055
0.356894
0.696676
0.574264
0.379425
0.702351
0.72219
0.363728
0.5366
1.00009
0.349654
0.690084
0.350356
0.364289
0.682215
0.65973
0.508094
0.691385
0.352148
0.705177
0.353251
0.32725
0.687297
0.363256
0.662308
0.348209
0.695598
0.654353
1.12688
0.689345
0.364227
0.347891
0.680154
0.52346
0.697802
0.491831
0.655293
0.686663
0.710674
0.536083
0.634257
0.686776
0.707077
0.692543
0.439563
0.367419
0.533968
0.68717
0.711487
0.412691
0.691077
0.660804
0.412615
0.347681
0.73267
0.702328
1.12653
1.12869
0.679247
0.704842
0.685027
0.704275
0.346887
0.723432
0.481098
0.689075
0.692751
0.407536
0.689378
0.701234
0.347794
0.377196
0.350872
1.12686
0.362281
0.678972
0.702105
0.724352
0.403123
0.690859
0.352167
0.561782
0.675153
0.720911
0.707916
0.670008
0.670586
0.704283
0.595242
0.694032
0.343055
0.691437
0.696514
0.497294
1.12598
0.701743
0.351727
0.365248
0.349569
0.693442
0.36723
1.12641
0.353759
0.69352
0.360237
0.497843
0.355215
0.704269
0.700971
0.643566
0.398973
0.674563
0.689642
0.360314
0.637974
0.700809
0.34066
0.647926
1.10265
0.703746
0.693126
0.352785
0.559831
0.698615
0.692415
0.685041
0.366446
0.440024
0.690446
1.12694
1.12643
1.12691
0.635032
0.697899
0.631512
0.687733
0.366339
0.351559
1.12693
0.701736
0.682504
0.348938
0.69138
0.64534
0.67074
0.342266
0.464627
0.701649
0.692604
0.549415
0.369965
0.69352
1.1262
0.362445
0.661692
0.706365
0.362793
0.341823
0.362155
0.685468
0.364016
0.364991
0.690026
0.496308
0.707394
0.700715
0.362481
0.353129
0.70253
0.34714
0.352542
1.0334
0.365402
0.421857
0.651088
0.690249
0.695817
0.363434
0.358823
0.363652
0.688318
0.362376
0.695823
0.357451
0.697939
0.689323
0.690869
0.684345
0.695613
0.68672
0.689582
0.702199
0.696688
0.358014
0.359471
0.694451
0.686053
0.509385
0.685246
0.608584
0.68234
0.682204
0.355442
0.687877
0.701408
0.69268
0.360889
0.6954
0.355074
0.694768
0.502372
0.712556
0.694979
0.379317
0.698655
0.363762
0.476721
0.690036
0.344055
0.728786
1.12691
0.689399
0.349155
0.687373
0.363879
0.346504
0.348522
0.365824
0.67977
0.363221
0.689902
0.663806
0.371816
0.349841
0.499623
0.560068
0.706641
0.684602
0.365182
0.350907
0.363298
0.35633
0.394269
0.704816
0.686622
0.354519
0.669053
0.70189
0.361768
0.702097
0.728621
0.662587
0.360746
1.12629
0.698486
0.702286
0.688107
0.365132
0.69635
0.702227
0.695712
0.741622
0.688934
0.375245
0.348521
0.694129
0.530858
0.36713
0.686651
0.353243
0.55095
0.693682
0.688308
0.688713
0.345129
0.684898
0.41402
0.359703
0.714272
0.699437
0.704011
0.699881
0.703779
0.346643
0.703283
0.369261
0.508293
0.703197
1.12131
0.698306
0.361656
0.383783
0.70522
0.399678
0.698805
0.746487
0.462869
0.379133
0.687635
0.347945
0.694876
0.698668
0.698447
0.348224
0.349254
0.518748
0.589088
0.691269
0.494631
0.686573
0.684447
0.689312
1.12684
0.698655
0.359816
0.376042
0.699322
0.689757
0.684465
0.482182
0.349413
0.699878
0.362407
0.687279
0.636877
0.363937
0.698132
0.362093
0.690062
0.350064
0.703275
0.378826
0.694783
0.692231
0.341423
0.690085
0.725622
0.343267
0.68685
0.691394
0.616104
0.359333
0.409349
0.490001
0.706417
0.680809
0.366989
0.558824
0.699301
0.686778
0.404694
0.678693
0.691219
0.480681
0.686705
0.686505
0.411957
0.69648
1.10587
0.348847
0.660637
0.351568
0.694068
0.350144
0.367037
0.710714
0.366371
0.364323
0.363372
0.687819
0.689801
0.427165
0.693398
0.411916
0.69736
0.364038
0.690996
0.397427
0.686593
0.694346
0.696424
0.685534
0.538077
0.69178
0.664363
0.353368
0.757886
0.698754
0.613173
0.698246
0.502836
0.445599
0.703077
0.357974
0.57265
0.357468
0.691766
0.357029
0.349969
0.72353
0.688252
0.357997
0.688149
0.708532
1.12686
0.699648
1.12825
0.36137
0.703525
0.360554
0.353317
0.689732
0.706531
0.695058
0.689083
0.343584
0.349234
0.363475
0.692195
0.669109
0.409769
0.690045
0.350543
0.349028
0.34165
0.688989
0.439438
0.703837
0.696817
0.76613
0.690099
0.696376
0.643613
0.691533
0.473343
0.345713
0.358473
1.12852
1.12792
0.349323
0.702661
0.684335
0.693071
0.352973
0.466764
0.685178
0.381323
0.684067
0.675578
0.361456
0.690112
0.693566
0.365089
0.695635
0.354973
0.697221
0.71123
0.695334
0.363804
0.489533
0.720805
0.41723
0.477499
0.689866
0.41624
0.691856
0.693393
0.688431
0.709092
0.367867
1.06474
0.711745
0.692201
0.447008
0.700042
0.356215
0.359119
0.690403
0.68955
0.666356
0.337517
0.694671
0.772665
1.12653
0.350702
0.353934
0.36567
0.698578
0.362623
0.359561
0.349688
0.67393
0.356258
0.405671
0.476765
0.695758
0.363243
0.694888
0.683028
0.68853
0.348415
0.695588
0.718576
0.670833
0.465616
0.735964
0.362427
0.358389
0.686946
0.358115
0.697027
0.700514
1.12694
0.362857
0.430592
0.351648
0.544438
1.12665
0.339517
0.691648
0.6881
0.708291
0.364694
0.368028
0.437937
0.681936
0.364315
1.12683
0.574512
0.687316
0.690628
0.361004
0.693663
0.346599
0.672602
0.745169
0.704363
0.669992
0.619686
0.722754
0.685291
0.699716
0.353363
0.386264
0.346482
0.712181
0.583841
1.11863
0.362611
0.449296
0.703396
0.695547
0.81052
0.35863
0.688246
0.543364
0.546665
0.681195
0.353245
0.359168
0.412157
0.689149
0.671207
0.741282
0.686338
0.434218
0.689326
0.729152
0.67204
0.67227
0.689194
0.701498
0.68637
0.704494
0.70426
0.352945
0.696972
0.699961
0.689029
0.696995
0.689844
0.667414
0.36224
0.357817
0.684537
0.366842
0.368888
0.688954
0.353225
0.778478
0.697085
0.69125
0.692729
0.35285
0.688592
0.348681
0.351284
0.686368
0.697273
0.694586
0.346953
0.70131
0.691694
0.682342
0.689836
0.358747
0.689973
0.705112
0.694706
0.409257
0.708021
0.363928
0.693871
0.342631
0.362574
0.651768
0.477554
0.702402
0.706346
0.693378
0.348908
0.689023
0.429601
0.356796
0.687173
0.49908
0.365983
0.691819
0.375231
0.513658
0.712803
0.686538
0.688953
0.501118
0.568397
0.714872
0.694005
0.667541
0.703661
0.531834
0.688799
0.686364
0.716721
0.311189
0.361363
0.475673
0.699775
0.352104
0.719129
0.688447
0.661659
0.694244
0.63131
0.71463
0.7042
0.361758
0.68762
0.68441
0.624227
0.684448
0.704501
0.688427
0.686901
0.364954
0.348835
0.694895
0.599017
0.63621
0.698302
0.694779
0.694015
0.71344
0.710372
0.695711
0.683776
0.706201
0.360114
0.357313
0.35741
0.360273
1.12679
0.483192
0.628351
0.697767
0.704772
0.353421
0.69314
0.697085
0.346368
0.440947
1.12603
0.698152
0.353147
0.321887
0.351711
1.12683
0.689508
0.412159
0.360296
0.360935
0.371931
0.38657
0.367121
0.690528
0.69436
0.699177
0.352993
0.69136
0.675086
0.565592
0.384219
0.359488
0.686856
1.12681
0.365304
0.686628
0.364765
0.714663
0.352969
0.689144
0.353045
0.689623
0.701943
0.349269
0.547874
0.384925
0.702459
0.36273
0.680493
0.354386
0.525309
0.361843
0.673225
0.361049
0.749755
0.725825
0.595311
0.695347
0.385309
0.690966
0.686457
0.701419
0.672551
0.697814
0.3597
0.462877
0.348094
0.709784
0.40694
0.700978
0.543531
0.706846
0.703761
0.566379
0.702355
0.355953
0.35158
0.35909
0.52787
0.656534
0.694555
0.356438
0.36882
0.686528
0.460738
0.347509
0.66396
0.433795
0.365567
0.353961
0.694441
0.742102
0.684481
0.352122
0.690198
0.688631
0.332892
0.434628
0.689072
0.688337
0.67199
0.517065
0.470131
0.44765
0.34922
0.690141
0.682604
0.586908
0.710826
0.369315
0.637332
0.361995
0.959717
0.701154
0.360312
0.397263
0.684536
0.662568
0.70218
0.703936
0.706347
0.68826
0.703415
0.345963
0.359496
0.34571
0.36054
0.647177
1.07834
0.743839
0.360921
0.363441
0.488889
0.340466
0.693875
0.686354
0.365037
0.404722
0.697028
0.353069
0.713552
0.70415
0.688597
0.687227
0.647077
0.366302
0.352165
0.682622
0.360631
0.467419
0.422882
0.686288
0.689276
0.407808
0.361759
1.12702
0.359643
0.686981
0.712041
0.364422
0.347845
0.359112
0.696058
0.35428
1.12686
0.70171
0.665019
0.326264
0.529014
0.699287
0.690871
0.361293
0.691068
0.685516
0.347636
0.697679
0.688947
0.363166
0.366702
0.687695
0.359502
0.360249
0.691437
0.444153
0.693604
0.718618
0.718077
0.688408
0.701593
0.694926
0.687092
0.36305
0.466546
0.687262
0.695448
0.488195
0.702673
0.407281
0.697948
0.689018
0.632474
0.716881
0.462284
0.481234
0.693261
0.70026
0.686016
0.701766
0.695888
1.1268
0.697822
1.12699
0.690243
0.687571
0.689277
1.12687
0.689144
0.348866
0.687325
0.352815
0.687622
0.697255
0.70422
0.686606
0.709739
0.346524
0.349883
0.41795
0.361447
0.688214
0.355004
0.3594
0.704178
0.314989
0.704619
0.350042
0.690719
0.696206
0.366322
0.460148
0.365207
0.69981
0.34893
0.694222
0.69873
0.349796
0.686819
0.549577
0.372511
0.353818
0.334558
0.729623
0.366832
0.687569
0.630107
0.386483
0.690338
0.692348
0.706393
0.364748
0.642246
0.352685
0.691701
0.686778
0.687163
0.366632
0.695372
0.698922
0.685302
0.449439
0.699828
0.365806
0.36336
0.689878
0.479387
0.704737
0.450532
0.366175
0.476347
0.684988
0.352975
0.346209
0.34278
0.571956
1.12355
0.697533
0.357833
0.668904
0.695851
0.543234
0.487895
0.362231
0.550778
0.366591
0.361923
0.692313
0.363602
0.364714
0.696123
0.700653
0.345314
0.720832
0.345457
1.12659
0.354655
0.687721
0.813677
0.709466
0.688711
0.353944
0.362425
0.348357
0.686704
0.687714
0.566674
0.543275
0.454802
0.418803
0.692146
0.363199
0.693882
0.454339
0.754728
0.70897
0.350517
0.348395
0.363197
0.36177
0.350381
0.683871
0.688915
0.353332
0.696123
0.711562
0.387074
0.36082
0.700513
0.36594
0.695901
0.473355
0.708885
0.716235
0.695432
1.12337
0.351607
0.709013
0.687912
0.694247
0.366449
0.681266
0.563957
0.367574
0.69983
0.694601
0.689329
0.69002
0.703498
0.689881
0.698716
0.689166
0.691607
0.36451
0.706656
0.363191
0.497838
0.689827
0.348782
0.690275
0.682783
0.368973
0.68474
0.36652
0.344306
0.689825
0.681081
0.701189
0.364256
0.689734
0.678792
0.354557
0.352723
0.689433
0.688108
0.446707
0.344875
0.702107
0.701111
0.367438
0.7128
0.702512
0.752259
0.348746
0.365477
0.346063
0.71767
0.379939
0.691443
0.714805
0.69226
0.676845
0.696127
0.364399
0.688807
0.641234
0.701874
0.669179
0.349177
0.362524
0.369627
0.711843
0.698717
0.471936
0.716434
0.359761
0.696514
0.688612
0.365857
0.684902
0.691628
0.702288
0.351907
0.355516
0.361027
0.698413
0.704931
0.668764
0.517231
0.695855
0.365092
0.721748
1.1267
0.695527
0.351119
0.807066
0.370561
0.683627
0.369671
0.693663
0.689989
0.351555
0.697919
0.503636
1.12699
0.704001
1.12682
0.691011
0.457616
0.692247
0.692936
0.688173
0.693956
0.494659
1.12686
0.358333
0.69331
0.369403
0.360257
0.375793
0.349947
0.366092
0.352262
0.703142
0.450627
0.358346
0.705831
0.698186
0.689216
0.41744
0.708705
0.711127
0.687126
0.346702
0.6712
0.688252
0.363772
0.346413
0.362649
0.708585
0.511455
0.364143
0.670846
0.314747
1.12808
0.508342
0.355731
0.493943
0.719101
0.362841
0.686992
0.366627
0.607672
0.443393
0.689856
0.441195
0.703444
1.12685
0.682713
0.486691
0.362424
0.690095
0.701794
0.347574
0.346379
0.686672
0.360728
0.708082
0.353198
0.548832
0.368309
0.693018
0.358666
0.703064
0.359597
0.68783
0.696487
0.700086
1.12654
0.358721
0.353778
0.413611
0.689692
0.704078
0.684724
0.659357
0.366091
0.702178
0.362728
0.687562
0.678083
0.445049
0.380919
0.704861
0.693411
0.35463
0.983302
0.689314
0.704252
0.714816
0.36757
0.725392
0.364002
0.703531
0.381136
0.670016
0.686749
0.689801
0.702556
0.387943
0.696436
0.366249
0.35916
0.686901
1.12626
0.612816
0.694721
1.12696
0.36536
0.724641
0.690014
0.697403
0.347083
0.465312
0.709996
0.354302
0.698346
0.688217
0.690488
0.689335
0.398132
0.484355
0.725334
0.352885
0.688831
0.701376
0.504223
0.689746
0.403685
0.683182
0.724429
0.721108
0.689974
0.355928
0.350258
0.69476
0.690556
0.364933
0.391246
0.35592
0.353413
0.359255
0.343895
0.354693
0.367017
0.694654
0.368858
0.348227
0.701859
0.614973
1.12698
0.450533
0.362206
0.696032
0.494187
0.588495
0.705604
0.437382
0.723628
0.682438
0.666487
0.69164
0.347966
0.697481
0.674671
0.348156
0.363294
0.448226
0.682614
0.667853
0.703696
0.686637
0.695892
0.692656
0.38479
0.697319
0.682181
0.690122
0.362964
0.695843
0.674104
0.381498
0.468079
0.358056
0.355208
0.36106
0.652865
0.712759
0.695173
0.362202
0.464279
0.70222
0.335943
0.699013
0.693052
0.690575
0.7255
0.695281
0.362187
0.354024
0.331586
0.643432
0.378573
0.694253
0.3329
0.686749
0.68666
0.696538
0.358681
0.481352
0.455458
0.696323
0.342609
0.36257
0.68927
0.691446
0.688908
0.68665
0.689639
0.708051
0.36698
0.775251
0.703014
0.526952
0.695857
0.700536
0.706816
0.482646
0.47051
0.696915
0.507067
0.685122
0.364452
0.689219
0.690092
0.41026
0.379767
0.691475
0.526658
0.701092
0.699296
0.366909
0.359166
1.10698
0.4829
0.425991
0.689815
0.689429
0.37353
0.690787
1.1006
0.686969
0.367797
0.652904
0.366532
0.689533
0.700953
0.707962
0.694957
1.07735
0.403684
0.406094
0.697311
0.364492
0.580833
0.383004
0.695925
0.358917
0.709074
0.703127
1.11797
0.366688
1.12684
1.12522
0.361647
0.689568
0.330926
0.695149
0.365947
0.351907
0.359681
0.699671
0.690643
0.432392
0.414425
0.688439
0.703227
0.484822
0.724895
0.366004
0.577201
0.361656
0.696268
0.36184
0.705081
0.689863