# vtk DataFile Version 1.0
unstructured grid
ascii
DATASET UNSTRUCTURED_GRID
points 13672 float
0.0796578 -0.059106 0
0.00128732 0.00159165 0
0.00227961 -0.00102548 0
0.0791586 -0.0598787 0
-0.0546216 0.01 0
0.000495206 0.025 0
0.0800549 -0.035 0
0.135172 -0.08 0
-0.0546216 -0.0451168 0
0.000495206 -0.0301168 0
0.0800549 -0.0901168 0
0.135172 -0.135117 0
-0.0546216 -0.0451168 -0.00551168
0.000495206 -0.0301168 -0.00551168
0.0800549 -0.0901168 -0.00551168
0.135172 -0.135117 -0.00551168
0.135172 -0.08 -0.00551168
0.0800549 -0.035 -0.00551168
0.000495206 0.025 -0.00551168
-0.0546216 0.01 -0.00551168
0.00128732 0.00159165 -0.00551168
0.00227961 -0.00102548 -0.00551168
0.0791586 -0.0598787 -0.00551168
0.0796578 -0.059106 -0.00551168
0.00165953 -0.000990923 0
0.00119576 -0.000874076 0
0.000866021 -0.000641801 0
0.000645147 -0.000349912 0
0.00052235 -1.7281e-05 0
0.00049972 0.000348016 0
0.000601632 0.000737716 0
0.000861774 0.0011403 0
0.00157235 0.00183217 0
0.00188647 0.00206725 0
0.00222612 0.00230203 0
0.00258713 0.00254351 0
0.00296826 0.00279524 0
0.00337118 0.00305664 0
0.00379785 0.00332658 0
0.00425045 0.00360349 0
0.00473139 0.00388521 0
0.0052432 0.00416895 0
0.0057881 0.00445204 0
0.00636753 0.00473281 0
0.00698281 0.00500961 0
0.00763526 0.00528058 0
0.00832616 0.00554366 0
0.00905691 0.00579603 0
0.00982918 0.00603333 0
0.0106445 0.00625033 0
0.0115038 0.00644128 0
0.0124073 0.00660297 0
0.0133543 0.00673414 0
0.0143444 0.00683382 0
0.0153769 0.00690031 0
0.0164512 0.00693173 0
0.0175666 0.00692547 0
0.0187219 0.00687822 0
0.0199156 0.00678477 0
0.0211454 0.00663864 0
0.0224084 0.00643275 0
0.0237018 0.00616676 0
0.0250249 0.00584739 0
0.026375 0.00547298 0
0.0277479 0.00503752 0
0.0291386 0.00453545 0
0.0305433 0.0039653 0
0.0319572 0.0033256 0
0.0333681 0.00260019 0
0.034775 0.00179799 0
0.0361793 0.000930615 0
0.0375798 3.12222e-06 0
0.0389689 -0.000988429 0
0.0403357 -0.00205109 0
0.041675 -0.00318283 0
0.0429849 -0.00437751 0
0.0442643 -0.00562904 0
0.0455126 -0.00693089 0
0.0467314 -0.00827518 0
0.0479204 -0.00965638 0
0.0490661 -0.0110799 0
0.0501515 -0.0125519 0
0.0511696 -0.0140695 0
0.0521492 -0.0156071 0
0.0531202 -0.0171411 0
0.0540851 -0.0186663 0
0.0550431 -0.0201798 0
0.0559923 -0.0216793 0
0.0569311 -0.0231626 0
0.0578582 -0.0246273 0
0.0587723 -0.0260715 0
0.0596721 -0.027493 0
0.0605563 -0.02889 0
0.0614241 -0.0302609 0
0.0622742 -0.0316042 0
0.063106 -0.0329183 0
0.0639186 -0.034202 0
0.0647113 -0.0354543 0
0.0654835 -0.0366743 0
0.0662345 -0.0378613 0
0.0669642 -0.0390145 0
0.0676726 -0.0401333 0
0.0683597 -0.0412172 0
0.0690246 -0.0422665 0
0.0696662 -0.0432819 0
0.0702841 -0.0442636 0
0.0708793 -0.0452111 0
0.0714538 -0.0461237 0
0.072009 -0.047001 0
0.0725452 -0.0478434 0
0.0730611 -0.0486524 0
0.073556 -0.0494294 0
0.0740291 -0.0501756 0
0.0744812 -0.0508916 0
0.0749138 -0.0515773 0
0.0753285 -0.0522331 0
0.0757266 -0.0528592 0
0.076109 -0.0534564 0
0.0764753 -0.0540264 0
0.0768243 -0.054571 0
0.0771553 -0.0550919 0
0.0774679 -0.0555901 0
0.0777617 -0.0560669 0
0.0780369 -0.056523 0
0.0782958 -0.0569578 0
0.0785421 -0.0573703 0
0.0787786 -0.0577603 0
0.0790073 -0.0581279 0
0.0792295 -0.058474 0
0.0794462 -0.0587995 0
0.0798803 -0.0594162 0
0.0800272 -0.0596588 0
0.0800357 -0.0598891 0
0.0799275 -0.0600784 0
0.0797205 -0.0601773 0
0.0794593 -0.0601051 0
0.0789155 -0.0596491 0
0.0786707 -0.0593963 0
0.0784111 -0.0591319 0
0.0781372 -0.0588542 0
0.0778566 -0.0585548 0
0.0775715 -0.0582308 0
0.0772803 -0.0578828 0
0.0769832 -0.0575099 0
0.0766822 -0.0571097 0
0.0763801 -0.0566796 0
0.0760759 -0.0562196 0
0.0757623 -0.0557337 0
0.0754359 -0.0552232 0
0.0750951 -0.0546879 0
0.0747379 -0.054128 0
0.0743626 -0.0535435 0
0.0739688 -0.0529338 0
0.0735559 -0.0522981 0
0.0731238 -0.0516357 0
0.0726718 -0.050946 0
0.0721991 -0.0502288 0
0.0717046 -0.049484 0
0.0711872 -0.0487117 0
0.0706461 -0.047912 0
0.0700804 -0.0470849 0
0.0694892 -0.0462308 0
0.0688718 -0.0453499 0
0.0682271 -0.0444431 0
0.0675544 -0.043511 0
0.0668527 -0.0425546 0
0.0661215 -0.0415748 0
0.06536 -0.040573 0
0.0645676 -0.0395504 0
0.0637439 -0.0385087 0
0.0628887 -0.0374493 0
0.062002 -0.0363741 0
0.0610838 -0.0352847 0
0.0601345 -0.0341831 0
0.0591547 -0.033071 0
0.0581456 -0.0319502 0
0.0571083 -0.0308224 0
0.0560444 -0.0296893 0
0.0549562 -0.028552 0
0.053845 -0.0274126 0
0.0527113 -0.0262746 0
0.051554 -0.0251427 0
0.0503724 -0.0240222 0
0.0491675 -0.0229164 0
0.047941 -0.0218282 0
0.0466955 -0.0207597 0
0.0454337 -0.0197126 0
0.0441592 -0.0186878 0
0.0428751 -0.0176863 0
0.0415841 -0.0167097 0
0.0402878 -0.0157609 0
0.0389879 -0.0148428 0
0.0376864 -0.0139575 0
0.0363853 -0.013107 0
0.0350871 -0.0122931 0
0.0337942 -0.0115164 0
0.0325095 -0.0107772 0
0.0312357 -0.0100756 0
0.0299758 -0.00941024 0
0.0287337 -0.00877784 0
0.0275126 -0.00817571 0
0.0263139 -0.00760375 0
0.0251376 -0.00706528 0
0.0239829 -0.0065649 0
0.0228537 -0.00609619 0
0.0217522 -0.00565563 0
0.0206795 -0.00524226 0
0.0196364 -0.00485507 0
0.0186233 -0.00449318 0
0.0176408 -0.00415577 0
0.016689 -0.00384204 0
0.0157682 -0.00355115 0
0.0148783 -0.00328218 0
0.0140192 -0.00303468 0
0.0131906 -0.00280795 0
0.0123925 -0.00260016 0
0.0116246 -0.00241012 0
0.0108864 -0.00223769 0
0.0101774 -0.00208212 0
0.00949701 -0.00194206 0
0.00884483 -0.0018163 0
0.0082202 -0.0017039 0
0.00762247 -0.00160391 0
0.00705097 -0.00151528 0
0.006505 -0.00143697 0
0.0059838 -0.00136806 0
0.00548662 -0.00130772 0
0.00501265 -0.00125519 0
0.00456114 -0.00120954 0
0.00413136 -0.00116914 0
0.00372257 -0.00113251 0
0.00333398 -0.00109853 0
0.00296466 -0.00106798 0
0.00261363 -0.0010431 0
-0.052721 -0.0445996 0
-0.0508204 -0.0440823 0
-0.0489199 -0.0435651 0
-0.0470193 -0.0430478 0
-0.0451187 -0.0425306 0
-0.0432181 -0.0420134 0
-0.0413175 -0.0414961 0
-0.039417 -0.0409789 0
-0.0375164 -0.0404616 0
-0.0356158 -0.0399444 0
-0.0337152 -0.0394271 0
-0.0318146 -0.0389099 0
-0.0299141 -0.0383927 0
-0.0280135 -0.0378754 0
-0.0261129 -0.0373582 0
-0.0242123 -0.0368409 0
-0.0223117 -0.0363237 0
-0.0204112 -0.0358065 0
-0.0185106 -0.0352892 0
-0.01661 -0.034772 0
-0.0147094 -0.0342547 0
-0.0128088 -0.0337375 0
-0.0109083 -0.0332202 0
-0.00900769 -0.032703 0
-0.00710711 -0.0321858 0
-0.00520653 -0.0316685 0
-0.00330595 -0.0311513 0
-0.00140537 -0.030634 0
0.00190689 -0.0299614 0
0.00332271 -0.0298498 0
0.00474133 -0.0297825 0
0.00616136 -0.0297597 0
0.0075814 -0.0297814 0
0.00900007 -0.0298477 0
0.010416 -0.0299583 0
0.0118278 -0.0301127 0
0.0132342 -0.0303103 0
0.0146339 -0.0305504 0
0.0160259 -0.0308322 0
0.0174091 -0.0311546 0
0.0187824 -0.0315166 0
0.020145 -0.031917 0
0.0214961 -0.0323546 0
0.0228351 -0.032828 0
0.0241613 -0.0333361 0
0.0254744 -0.0338774 0
0.0267738 -0.0344507 0
0.0280592 -0.0350545 0
0.0293306 -0.0356877 0
0.0305875 -0.0363488 0
0.0318301 -0.0370367 0
0.0330581 -0.0377501 0
0.0342717 -0.0384879 0
0.0354708 -0.0392489 0
0.0366556 -0.0400321 0
0.0378262 -0.0408363 0
0.0389828 -0.0416607 0
0.0401254 -0.0425042 0
0.0412543 -0.0433659 0
0.0423698 -0.0442451 0
0.043472 -0.0451408 0
0.0445612 -0.0460523 0
0.0456375 -0.0469789 0
0.0467013 -0.0479199 0
0.0477529 -0.0488746 0
0.0487923 -0.0498424 0
0.04982 -0.0508227 0
0.0508362 -0.051815 0
0.051841 -0.0528187 0
0.0528348 -0.0538333 0
0.0538178 -0.0548584 0
0.0547903 -0.0558935 0
0.0557524 -0.0569382 0
0.0567045 -0.0579922 0
0.0576467 -0.0590549 0
0.0585792 -0.0601261 0
0.0595024 -0.0612055 0
0.0604163 -0.0622926 0
0.0613212 -0.0633873 0
0.0622174 -0.0644891 0
0.0631049 -0.0655979 0
0.0639841 -0.0667134 0
0.064855 -0.0678353 0
0.0657179 -0.0689633 0
0.0665729 -0.0700974 0
0.0674202 -0.0712372 0
0.06826 -0.0723826 0
0.0690925 -0.0735333 0
0.0699178 -0.0746892 0
0.070736 -0.0758501 0
0.0715473 -0.0770159 0
0.0723518 -0.0781863 0
0.0731498 -0.0793612 0
0.0739412 -0.0805405 0
0.0747264 -0.081724 0
0.0755053 -0.0829116 0
0.0762781 -0.0841033 0
0.0770449 -0.0852987 0
0.0778059 -0.0864979 0
0.0785611 -0.0877007 0
0.0793108 -0.088907 0
0.0814681 -0.0912706 0
0.0828814 -0.0924245 0
0.0842946 -0.0935783 0
0.0857079 -0.0947322 0
0.0871211 -0.095886 0
0.0885344 -0.0970399 0
0.0899476 -0.0981937 0
0.0913609 -0.0993476 0
0.0927741 -0.100501 0
0.0941874 -0.101655 0
0.0956006 -0.102809 0
0.0970139 -0.103963 0
0.0984272 -0.105117 0
0.0998404 -0.106271 0
0.101254 -0.107424 0
0.102667 -0.108578 0
0.10408 -0.109732 0
0.105493 -0.110886 0
0.106907 -0.11204 0
0.10832 -0.113194 0
0.109733 -0.114348 0
0.111146 -0.115501 0
0.11256 -0.116655 0
0.113973 -0.117809 0
0.115386 -0.118963 0
0.116799 -0.120117 0
0.118213 -0.121271 0
0.119626 -0.122424 0
0.121039 -0.123578 0
0.122452 -0.124732 0
0.123866 -0.125886 0
0.125279 -0.12704 0
0.126692 -0.128194 0
0.128105 -0.129348 0
0.129519 -0.130501 0
0.130932 -0.131655 0
0.132345 -0.132809 0
0.133758 -0.133963 0
0.135172 -0.133216 0
0.135172 -0.131316 0
0.135172 -0.129415 0
0.135172 -0.127514 0
0.135172 -0.125614 0
0.135172 -0.123713 0
0.135172 -0.121813 0
0.135172 -0.119912 0
0.135172 -0.118012 0
0.135172 -0.116111 0
0.135172 -0.11421 0
0.135172 -0.11231 0
0.135172 -0.110409 0
0.135172 -0.108509 0
0.135172 -0.106608 0
0.135172 -0.104708 0
0.135172 -0.102807 0
0.135172 -0.100906 0
0.135172 -0.0990058 0
0.135172 -0.0971052 0
0.135172 -0.0952046 0
0.135172 -0.0933041 0
0.135172 -0.0914035 0
0.135172 -0.0895029 0
0.135172 -0.0876023 0
0.135172 -0.0857017 0
0.135172 -0.0838012 0
0.135172 -0.0819006 0
0.133758 -0.0788462 0
0.132345 -0.0776923 0
0.130932 -0.0765385 0
0.129519 -0.0753846 0
0.128105 -0.0742308 0
0.126692 -0.0730769 0
0.125279 -0.0719231 0
0.123866 -0.0707692 0
0.122452 -0.0696154 0
0.121039 -0.0684615 0
0.119626 -0.0673077 0
0.118213 -0.0661538 0
0.116799 -0.065 0
0.115386 -0.0638462 0
0.113973 -0.0626923 0
0.11256 -0.0615385 0
0.111146 -0.0603846 0
0.109733 -0.0592308 0
0.10832 -0.0580769 0
0.106907 -0.0569231 0
0.105493 -0.0557692 0
0.10408 -0.0546154 0
0.102667 -0.0534615 0
0.101254 -0.0523077 0
0.0998404 -0.0511538 0
0.0984272 -0.05 0
0.0970139 -0.0488462 0
0.0956006 -0.0476923 0
[...]
CELL_DATA 13116
SCALARS rho float
LOOKUP_TABLE default
0.612202
0.709719
0.337779
0.701088
0.699996
0.69559
0.317399
0.70265
0.556372
0.700508
0.323447
0.296971
0.700076
0.299556
0.339271
0.696875
0.624642
0.697924
0.703188
0.326078
0.603266
0.338862
0.307039
0.698784
0.616339
0.703874
0.70053
0.330194
0.588966
0.657534
1.13456
0.301147
0.570746
0.479287
0.318842
0.60845
0.684952
0.708744
0.769916
0.700709
0.700005
0.702576
0.527455
0.325837
0.700526
0.703346
0.711822
0.701732
0.34246
0.531452
0.701312
0.515535
0.300366
0.617756
0.573396
0.600933
0.324478
0.69947
0.537599
0.329588
0.30264
0.700525
0.712951
0.845049
1.1444
0.316516
0.699138
0.684895
0.699793
1.13758
0.341419
0.575718
0.344763
0.31745
1.13299
0.333373
0.687651
0.700492
0.31928
0.697988
0.69646
0.703954
0.699239
0.705507
0.702373
0.420269
0.314189
0.676413
0.703167
0.346555
0.302245
0.710456
0.699864
0.70266
0.666864
0.621396
0.618312
1.14416
1.134
0.593707
0.679142
0.689611
0.701012
0.464591
0.698261
0.284275
0.37979
0.551101
0.316277
0.601278
0.568547
0.703472
0.618485
0.696256
0.69803
0.699482
0.310832
0.416865
0.701146
0.700149
0.683445
0.345517
0.699873
0.302055
0.703388
0.452937
0.313546
0.505485
0.318412
0.528698
0.700902
0.704277
0.475993
0.35078
0.459485
0.641947
1.13486
0.699744
0.678104
0.70014
0.678051
0.713132
0.508889
0.680769
0.701747
0.297058
0.320418
0.703549
0.700025
0.701361
0.521485
0.70654
0.701321
0.334681
0.699855
0.702595
0.307723
0.682916
1.14118
0.675454
0.698633
0.321913
0.699618
0.310172
0.346595
0.700882
0.703678
0.697991
0.318193
0.442928
0.420043
1.13225
0.332577
0.499343
0.699368
0.305788
0.349372
0.343093
0.703174
0.689946
0.341582
0.439166
0.583709
0.683389
0.693249
0.540918
0.332355
0.69855
0.700143
0.472203
0.672495
0.703277
1.12964
0.306607
0.702393
0.687468
0.699708
0.698884
0.703239
0.38235
0.468653
0.609895
0.500769
0.312693
0.701199
0.709769
0.521889
0.627831
0.305037
0.33271
0.334439
0.697842
0.308416
0.340553
0.34011
0.334816
0.41327
0.764686
0.703705
0.405403
0.324283
0.699027
0.564912
0.341987
0.522757
0.700405
0.700224
0.329301
0.699286
0.388802
0.703385
0.301361
1.12059
0.560595
1.14345
0.701645
1.07875
0.326564
0.449811
0.673315
1.1325
0.686751
1.13733
1.06174
0.702677
0.348806
0.700574
0.700053
1.13516
0.325533
0.344022
0.709057
0.700756
1.13282
0.701924
0.612159
0.693642
0.323479
0.32086
0.441335
0.293518
0.696509
0.699663
0.687417
0.317022
0.701185
0.323012
0.418097
0.698783
0.332878
0.70411
0.701704
1.13187
0.699682
0.331526
1.13173
0.699264
1.13568
0.699689
0.320874
0.318542
0.307305
0.640108
0.345937
0.354598
0.361946
0.389481
0.715021
0.28816
0.702904
0.700645
0.327006
0.330902
0.322965
0.450631
0.346617
0.675844
0.671573
0.702555
0.333231
0.697263
0.556548
0.33006
0.328984
0.69233
0.700456
0.69871
0.331744
0.692915
0.462726
0.705077
0.702297
0.70095
0.70221
0.30601
0.699072
0.289711
0.698248
0.700011
0.669738
0.332145
0.357419
0.700151
0.320469
0.712367
0.700544
0.359431
0.691526
0.69915
0.322118
0.701415
0.699828
0.250928
0.70035
0.40564
0.541865
0.703476
0.418751
0.684349
0.31769
0.698441
0.359647
0.962856
0.68558
0.699949
0.324747
0.392734
0.702318
0.333113
0.701469
0.700977
0.435547
1.13179
0.335512
0.347304
0.701555
0.527137
0.686065
0.317991
0.30881
0.700459
0.700543
0.32167
0.700966
0.308843
0.257822
0.699784
0.703257
0.564329
0.364253
0.699827
1.13658
0.696611
0.701845
0.700751
0.525355
0.355492
0.291466
0.340235
0.694675
0.341445
0.585507
0.358585
0.303817
0.387463
0.570956
0.138878
0.333897
0.701271
0.29718
0.699529
0.593463
0.706256
0.668216
0.700807
0.347214
0.319708
0.385477
0.35188
0.701423
0.61604
0.702324
0.5929
0.701835
0.6393
0.703723
0.662992
0.655881
0.701027
0.697696
0.683319
0.4467
0.511862
0.61131
0.34144
0.670835
0.602569
0.304551
0.699379
1.13224
0.306821
0.327235
0.334651
0.333792
0.616476
0.336722
0.306453
0.698163
0.319873
0.563783
0.343924
0.698003
0.701073
0.346633
0.350496
0.701469
0.447503
0.350657
0.332491
0.356177
0.315381
0.320885
0.328639
0.337665
0.422495
0.32767
0.688773
0.349322
0.703177
0.367887
0.301812
0.469575
0.298143
0.343494
0.298662
0.700877
0.431842
0.635382
0.564491
0.319476
0.630876
0.703163
0.417756
0.691264
0.643963
0.645434
0.323024
1.13959
0.416653
0.700201
1.13447
0.311404
0.306008
0.699379
0.353363
0.417827
0.687672
0.379726
0.681798
0.705125
0.333579
0.348938
0.332049
0.49581
0.328991
0.261837
0.33642
0.285737
0.701174
0.700784
0.454838
0.597128
0.462362
0.702452
0.408872
0.322622
0.559737
0.31187
0.706712
0.345386
0.40096
0.472339
0.70126
0.703936
0.535594
0.358445
0.308278
0.533835
0.702431
1.10367
0.530699
0.702269
0.695499
0.329005
0.700938
0.556256
0.67204
0.396729
0.347967
0.69551
0.699763
0.666252
0.70049
0.703558
0.703837
0.698478
0.669781
0.7053
0.344317
0.700852
0.351482
0.318235
0.344601
0.700924
0.709675
0.361856
0.702938
0.604681
0.333837
0.984393
0.7004
0.701176
0.328768
0.323806
0.701204
0.354835
0.363424
0.295884
0.330314
0.707563
0.253985
0.700644
0.348764
0.708686
0.701079
0.699216
0.700389
0.355928
0.335769
0.708773
0.703731
0.686364
0.701087
0.700013
0.459283
0.322815
0.312522
0.696426
0.546466
0.335737
0.446729
0.303553
0.702465
0.698867
0.392366
0.338467
0.703477
0.424951
0.701167
0.655719
0.31818
0.389355
0.685068
1.13315
0.311472
0.703832
0.703604
0.708999
0.331329
1.13263
0.322201
1.14455
0.670633
0.365738
0.412844
0.347793
1.14685
0.317283
0.316182
0.419926
0.843951
0.701671
0.317045
0.316803
0.336263
0.930973
0.345022
0.69116
0.297115
0.578331
0.700432
0.369017
0.309699
0.308005
0.461499
0.313311
0.704381
0.331563
0.337778
0.689386
0.320239
0.697812
0.713411
1.14521
0.355297
0.706107
0.699444
0.699657
0.696835
0.703156
0.699627
0.299958
1.1288
0.410287
0.708821
0.32073
0.702525
0.531367
0.314621
1.1477
0.700335
0.32905
0.659629
0.302417
0.341961
0.698052
0.70094
0.303754
0.299073
0.318423
0.299078
0.702693
0.698684
0.331089
0.333856
0.701433
0.699856
0.58161
0.699407
0.698452
0.322763
0.700058
0.425445
0.701175
0.425848
0.611986
0.453714
0.698771
0.687348
0.556603
0.406781
0.320846
0.699541
0.585442
0.613533
0.699417
0.289854
0.700174
0.699775
0.370033
0.512736
0.699449
0.356836
1.14521
0.674154
0.353976
0.70018
0.66448
0.349108
0.701774
0.306784
0.703416
0.33162
0.697645
0.713229
0.317675
0.775972
0.699538
0.701038
0.607551
0.705072
0.557751
0.3625
0.458119
0.298916
0.315359
1.13162
0.526216
0.699889
0.70013
0.346331
0.34546
0.703288
0.700483
0.701459
0.701879
0.326139
0.697389
0.700058
0.326634
0.293207
0.70131
0.709172
0.703492
0.297667
0.562936
0.345912
0.701646
0.70736
1.1017
0.711909
0.33342
0.708545
0.702999
0.699656
0.701281
0.694928
0.406822
0.700889
0.333269
0.697905
0.700285
0.442728
0.704556
1.06776
0.700961
0.475326
0.439519
0.560952
0.657483
0.354307
0.365512
0.334204
0.328602
0.707897
0.699809
1.08088
0.394133
0.325942
0.699732
0.684586
0.254977
0.345566
0.448803
0.690104
0.698968
0.702045
0.70004
0.333504
0.355222
1.13178
0.302179
0.341101
0.333013
0.700055
0.344756
0.355962
0.597065
0.709212
0.703099
0.678726
0.698523
0.312065
0.328954
0.335358
0.573191
0.431909
0.302
0.684989
0.69952
0.702455
0.697294
0.299934
0.35878
0.700486
0.347414
0.694709
0.714439
1.1397
0.303769
0.357461
0.703812
1.13649
0.629718
0.25072
0.701838
0.682735
0.594846
0.701179
0.702052
1.13172
0.704022
0.327355
0.698512
1.13507
0.676375
0.701447
1.13184
0.703931
1.13971
0.699608
0.337709
0.345078
0.3592
1.13927
0.537342
0.34771
0.703854
0.701326
0.296458
0.662893
0.347296
0.672021
0.560905
0.348688
0.700501
0.698301
0.337252
0.517229
1.13675
0.317366
0.702918
0.312683
0.289158
0.637048
0.609761
0.469167
0.701056
0.334566
0.699789
0.347659
0.300292
0.697631
0.334432
0.623395
0.303015
0.665158
0.611838
1.13384
0.703668
0.30964
0.341334
0.693155
0.531719
0.701411
0.488037
0.616007
0.6965
0.699565
0.53984
0.598287
0.702848
0.699769
0.699357
0.36298
0.366573
0.511564
0.702536
0.699921
0.436125
0.700578
0.629188
0.383148
0.303336
0.671499
0.689338
1.14257
1.14605
0.691631
0.698621
0.746069
0.69204
0.30174
0.66377
0.446694
0.700335
0.709398
0.374934
0.702928
0.700223
0.345627
0.329917
0.322135
1.13203
0.321728
0.634904
0.701208
0.664019
0.327697
0.709862
0.309287
0.563961
0.904574
1.10357
0.683378
0.938366
0.624388
0.695823
0.559224
0.709148
0.331041
0.698276
0.699088
0.517466
1.14345
0.700749
0.30814
0.303443
0.31876
0.7009
0.364963
1.1343
0.336496
0.702554
0.307626
0.453973
0.301989
0.700229
0.701613
0.613032
0.289989
0.626711
0.704244
0.336953
0.583155
0.700793
0.301938
0.602245
1.13578
0.700366
0.694443
0.310509
0.55085
0.701589
0.706029
0.697042
0.35923
0.436889
0.701205
1.13189
1.13278
1.13262
0.595816
0.703378
0.592387
0.700377
0.358635
0.310826
1.1329
0.699996
0.783484
0.315888
0.699166
0.606926
0.635728
0.33144
0.407454
0.700949
0.701488
0.550235
0.354922
0.699114
1.14369
0.318535
0.612314
0.700048
0.319379
0.301726
0.295492
0.700947
0.340413
0.346087
0.701815
0.493168
0.69995
0.667702
0.316573
0.322278
0.701342
0.344895
0.337787
1.13599
0.277244
0.412957
0.606278
0.703355
0.70532
0.326859
0.350026
0.324244
0.716255
0.272817
0.704553
0.331778
0.703746
0.702982
0.70065
0.701558
0.708598
0.7064
0.698815
0.700334
0.701717
0.257809
0.333491
0.708778
0.712485
0.472632
0.701752
0.562729
0.809569
0.67664
0.345773
0.699878
0.70066
0.710742
0.325949
0.708258
0.349795
0.705764
0.462363
0.698421
0.696974
0.351272
0.701429
0.335183
0.474724
0.711306
0.333237
0.685273
1.13283
0.702712
0.334046
0.698112
0.329637
0.302825
0.303867
0.34131
0.68143
0.329868
0.677422
1.00017
0.354982
0.306329
0.455544
0.560436
0.647546
0.704314
0.35442
0.318196
0.321271
0.301915
0.278543
0.650083
0.703664
0.334395
0.953336
0.701366
0.296076
0.700486
0.682858
0.940248
0.329316
1.13826
0.705062
0.700844
0.700827
0.333179
0.703472
0.70045
0.707841
0.67006
0.688167
0.354323
0.304804
0.705946
0.506543
0.360908
0.697428
0.30605
0.543606
0.652736
0.70354
0.70347
0.302513
0.701288
0.403622
0.326751
0.694336
0.701136
0.699796
0.700647
0.681695
0.303376
0.700269
0.327043
0.47099
0.700904
1.13353
0.701549
0.32639
0.317474
0.700178
0.338208
0.701395
0.649065
0.433343
0.353047
0.700153
0.302776
0.696912
0.701571
0.686616
0.303132
0.344266
0.496432
0.556033
0.641546
0.47745
0.697211
0.706126
0.70272
1.1317
0.702456
0.30795
0.345294
0.700643
0.686001
0.693593
0.43998
0.313846
0.700471
0.327235
0.698634
0.602616
0.353644
0.701398
0.324262
0.703478
0.343337
0.699853
0.332344
0.707838
0.68237
0.297984
0.703194
0.656949
0.298631
1.07064
0.700019
0.566104
0.295486
0.433956
0.477276
0.699453
0.700406
0.34749
0.558988
0.701637
0.686353
0.330827
0.64397
0.715938
0.419422
0.696379
0.698117
0.353402
0.701769
1.13717
0.333209
0.622293
0.334597
0.674669
0.336476
0.283439
0.699764
0.346448
0.337188
0.3085
0.69881
0.717942
0.452758
0.701435
0.429189
0.698837
0.330939
0.716278
0.354207
0.697728
0.704197
0.683057
1.08594
0.520141
0.681408
0.94366
0.334165
0.637582
0.683203
0.587913
0.703284
0.461258
0.454399
0.700202
0.340664
0.563846
0.348326
0.701733
0.260555
0.306489
0.698308
0.69842
0.333532
0.700311
0.699131
1.13191
0.701824
1.14652
0.328452
0.700436
0.335743
0.30908
0.703316
0.700087
0.702508
0.703197
0.300493
0.335995
0.323177
0.711555
1.01165
0.433196
0.703361
0.314699
0.336055
0.332486
0.703141
0.423584
0.700374
0.70159
0.634501
0.70112
0.70207
0.603078
0.684661
0.418373
0.299903
0.334017
1.1466
1.14499
0.314631
0.650576
0.699966
0.682836
0.310584
0.479634
0.706893
0.312237
0.702954
0.669498
0.338232
0.700425
0.708559
0.354264
0.706307
0.333563
0.699865
0.70009
0.708597
0.322629
0.438763
0.685418
0.355451
0.410414
0.700866
0.377276
0.6758
0.699268
0.703964
0.698976
0.358289
1.14803
0.694056
0.704423
0.376325
0.700837
0.344844
0.288768
0.702817
0.699049
0.993391
0.258953
0.697135
0.633177
1.13277
0.317445
0.305788
0.354428
0.700099
0.319711
0.324969
0.34942
0.66873
0.333983
0.377284
0.421557
0.704868
0.345522
1.0958
0.792355
0.700555
0.333535
0.701183
0.664986
0.97411
0.410554
0.668663
0.320857
0.340329
0.697993
0.332421
0.653836
0.701879
1.13312
0.346321
0.358847
0.329497
0.531517
1.13982
0.267051
0.709713
0.698569
0.699488
0.332633
0.323893
0.363176
0.698273
0.340354
1.13233
0.592458
0.710385
0.701237
0.321431
0.659029
0.30017
0.683776
0.651268
0.700462
0.662415
0.590116
0.671526
0.695007
0.700422
0.337424
0.36537
0.321233
0.698371
0.549303
1.13323
0.344621
0.420598
0.700587
0.701547
1.12536
0.332959
0.700586
0.529601
0.535399
0.701721
0.313789
0.332811
0.359355
0.699171
1.02613
0.668292
0.702222
0.36696
0.702792
0.663784
1.01331
1.03079
0.702569
0.700599
0.690058
0.700415
0.699769
0.311408
0.699745
0.70072
0.699198
0.700667
0.699246
0.639517
0.335245
0.281382
0.682357
0.358246
0.356898
0.700907
0.343156
0.633858
0.699526
0.711423
0.710391
0.309479
0.700948
0.303746
0.310541
0.694833
0.705038
0.697686
0.33216
0.701049
0.701687
0.690686
0.69857
0.340293
0.698822
0.700232
0.706577
0.376193
0.698765
0.326212
0.700735
0.33402
0.337419
0.625747
0.443116
0.700479
0.699567
0.694054
0.348546
0.696233
0.453814
0.339079
0.703517
0.456067
0.35262
0.700725
0.288314
0.479456
0.68077
0.710896
0.702958
0.458387
0.575321
0.670324
0.694832
0.641391
0.699862
0.507964
0.702924
0.701776
0.661432
0.297661
0.31991
0.440234
0.700661
0.30878
0.673795
0.70032
0.622538
0.695367
0.601112
0.687849
0.693165
0.328174
0.700329
0.700446
0.597217
0.700383
0.70016
0.704339
0.683895
0.333381
0.343448
0.70833
0.555638
0.597448
0.699819
0.706776
0.698926
0.699814
0.700109
0.639477
0.706434
0.70038
0.324297
0.284672
0.258764
0.350682
1.13292
0.460343
0.590019
0.701458
0.695954
0.310303
0.709749
0.701016
0.330699
0.404744
1.13481
0.699766
0.313675
0.300138
0.295546
1.13186
0.70422
0.385764
0.30888
0.335917
0.264137
0.352857
0.362175
0.70337
0.703038
0.70382
0.337676
0.712251
0.636958
0.596583
0.354441
0.325323
0.703628
1.13607
0.348999
0.697097
0.35218
0.69848
0.311479
0.70075
0.331639
0.702853
0.701091
0.335069
0.537619
0.353525
0.70039
0.277882
0.641394
0.305534
0.518921
0.322146
0.637774
0.337267
1.1115
1.1225
0.596246
0.708833
0.350293
0.716963
0.714136
0.701065
0.633974
0.699072
0.326511
0.486655
0.317681
0.699779
0.327255
0.700215
0.528439
0.700019
0.700365
0.555115
0.70091
0.340734
0.30949
0.328609
0.513218
0.631167
0.707978
0.334196
0.352979
0.697465
0.378117
0.302286
0.642253
0.409062
0.352739
0.28545
0.702534
0.656808
0.644182
0.311631
0.717121
0.69932
0.30111
0.349198
0.703015
0.698701
0.683218
0.484594
0.395459
0.375333
0.335414
0.702729
0.685416
0.551268
0.69318
0.319623
0.594902
0.323218
1.14649
0.700307
0.329382
0.338018
0.68854
0.639409
0.700495
0.699867
0.69947
0.700639
0.700684
0.335
0.340763
0.32193
0.321563
0.61388
1.13644
0.658491
0.324515
0.350296
0.487605
0.301853
0.700753
0.709334
0.337943
0.397753
0.69937
0.3129
0.670295
0.700097
0.715501
0.6913
0.60956
0.362331
0.328016
0.705358
0.330822
0.464557
0.448245
0.714714
0.699989
0.334655
0.33881
1.13167
0.337575
0.698895
0.699829
0.353866
0.346141
0.300401
0.699603
0.307889
1.13276
0.701139
0.626203
0.299415
0.503429
0.700862
0.708072
0.317287
0.714427
0.680812
0.301917
0.701653
0.702266
0.325404
0.353219
0.704005
0.334401
0.321447
0.71582
0.357922
0.707629
0.686914
0.699621
0.676616
0.700008
0.699197
0.676159
0.321742
0.401598
0.693211
0.70736
0.436794
0.700548
0.408411
0.699707
0.70317
0.580135
0.663256
0.482202
0.449001
0.709644
0.700579
0.701539
0.701197
0.698613
1.13285
0.701926
1.13165
0.70317
0.703434
0.702476
1.13643
0.680054
0.298778
0.704043
0.330582
0.700072
0.699589
0.700345
0.708045
0.697968
0.3456
0.332069
0.365962
0.318512
0.717249
0.328225
0.329452
0.698188
0.299848
0.70043
0.334959
0.716679
0.703037
0.346641
0.378552
0.354724
0.700305
0.317547
0.708335
0.701467
0.329644
0.703777
0.539797
0.360892
0.324272
0.300564
0.692576
0.355542
0.700393
0.602564
0.359675
0.699724
0.700438
0.699475
0.351186
0.600609
0.304573
0.712168
0.681678
0.69957
0.362191
0.70759
0.699738
0.702857
0.43012
0.700292
0.35806
0.329331
0.701434
0.45647
0.700364
0.465378
0.359202
0.427201
0.703446
0.318446
0.298462
0.331307
0.556227
1.13515
0.701534
0.266003
0.63195
0.699271
0.529589
0.501879
0.352794
0.542063
0.361867
0.325439
0.708764
0.331034
0.344946
0.700965
0.701137
0.331852
0.698154
0.334513
1.13342
0.334643
0.703639
1.13121
0.698493
0.741415
0.343555
0.325152
0.303209
0.688146
0.703465
0.572187
0.540381
0.372851
0.339398
0.694633
0.322569
0.70665
0.383377
1.11536
0.686574
0.329942
0.324179
0.331803
0.337614
0.323578
0.690335
0.717887
0.332782
0.700895
0.655191
0.363789
0.33021
0.700852
0.34911
0.703874
0.412175
0.699149
0.668704
0.700981
1.13915
0.344636
0.700206
0.700268
0.702503
0.348248
0.701197
0.584429
0.355608
0.700551
0.683886
0.703272
0.71804
0.700587
0.701662
0.702101
0.699177
0.70084
0.347333
0.699509
0.332224
0.497657
0.70087
0.303945
0.70419
0.697649
0.350521
0.702607
0.349414
0.302056
0.702918
0.696894
0.701178
0.329142
0.718195
0.624596
0.336433
0.336852
0.70411
0.699058
0.399137
0.339965
0.701055
0.700913
0.361573
0.659396
0.700958
0.658028
0.325576
0.355909
0.301591
0.669117
0.336334
0.714202
0.6981
0.694505
0.641412
0.702747
0.330157
0.703427
0.608496
0.700994
0.665968
0.306765
0.320071
0.308505
0.698872
0.70146
0.408161
0.666576
0.351017
0.68549
0.700063
0.287502
0.678045
0.713814
0.642387
0.336817
0.318587
0.351347
0.701717
0.700311
0.622092
0.484611
0.702209
0.346523
0.647164
1.13194
0.707479
0.33659
0.620067
0.352574
0.69782
0.27377
0.70926
0.702911
0.311725
0.701663
0.525488
1.13429
0.666275
1.13212
0.700805
0.452364
0.693492
0.69809
0.699652
0.708976
0.448497
1.13201
0.270163
0.698337
0.307381
0.34194
0.318159
0.322955
0.358594
0.335943
0.701081
0.377278
0.328809
0.678773
0.701529
0.718167
0.380515
0.696897
0.692265
0.684644
0.278503
0.655743
0.699194
0.345308
0.341712
0.325085
0.64554
0.475893
0.352835
0.645722
0.300273
1.1469
0.470718
0.309672
0.450248
0.663197
0.351703
0.698917
0.316891
0.580978
0.397804
0.702563
0.412924
0.68
1.13214
0.698722
0.506171
0.330978
0.702865
0.700705
0.346534
0.302735
0.694976
0.337599
0.698876
0.337696
0.538921
0.304339
0.699135
0.343295
0.700969
0.340322
0.700063
0.701894
0.70048
1.13561
0.276469
0.307324
0.381016
0.704227
0.69737
0.703065
0.635746
0.35138
0.701074
0.352795
0.703781
0.689849
0.462006
0.360557
0.699705
0.709401
0.30486
1.13557
0.702863
0.699855
0.69965
0.320418
0.648991
0.336554
0.70001
0.319828
0.896289
0.703898
0.703382
0.70131
0.365036
0.701712
0.343906
0.32836
0.698733
1.13564
0.563053
0.708597
1.13227
0.346109
0.698089
0.70236
0.702221
0.303239
0.437377
0.692706
0.327862
0.699632
0.700554
0.704285
0.702384
0.313319
0.476884
0.659694
0.310022
0.703556
0.70041
0.494232
0.703171
0.298583
0.705602
0.698021
0.682613
0.703047
0.317623
0.306265
0.707666
0.71496
0.349582
0.359692
0.34389
0.310885
0.324823
0.300096
0.344098
0.359577
0.708283
0.311638
0.327008
0.701169
0.565883
1.13185
0.416013
0.342383
0.699437
0.479333
0.570196
0.699934
0.409512
0.667032
1.08814
0.602676
0.714508
0.319165
0.701424
0.835061
0.325749
0.328082
0.458545
0.696449
0.604887
0.700442
0.697512
0.707013
0.712555
0.367702
0.701667
0.743599
0.703728
0.337082
0.699311
0.683778
0.364337
0.434756
0.295582
0.302297
0.307294
0.608165
0.681821
0.708612
0.326495
0.382699
0.701094
0.298031
0.701456
0.699275
0.707813
0.682149
0.702019
0.345744
0.303395
0.297195
0.60385
0.326682
0.700277
0.296051
0.698152
0.695987
0.699898
0.3501
0.469315
0.445312
0.702219
0.332751
0.324184
0.701103
0.715388
0.665715
0.696666
0.704277
0.699158
0.365001
0.620405
0.699874
0.500762
0.70399
0.701239
0.699442
0.424017
0.408743
0.702285
0.468035
0.646356
0.336467
0.709814
0.701331
0.379521
0.340449
0.710241
0.503126
0.700334
0.701469
0.357033
0.328708
1.13939
0.510753
0.400363
0.702373
0.704025
0.351424
0.701673
1.14238
0.711186
0.366765
0.606811
0.362809
0.701867
0.700318
0.699298
0.707248
1.14647
0.387134
0.426182
0.707164
0.337296
0.597667
0.352881
0.701131
0.291316
0.667805
0.699914
1.14679
0.362525
1.13228
1.13431
0.3224
0.70784
0.299887
0.70257
0.356446
0.329436
0.294953
0.702958
0.700633
0.353016
0.371409
0.703642
0.700671
0.45342
0.696669
0.357555
0.560872
0.342535
0.708471
0.324159
0.680891
0.701995
0.323982
0.505402
0.330161
1.05278