# vtk DataFile Version 1.0
unstructured grid
ascii
DATASET UNSTRUCTURED_GRID
points 13672 float
0.0796578 -0.059106 0
0.00128732 0.00159165 0
0.00227961 -0.00102548 0
0.0791586 -0.0598787 0
-0.0546216 0.01 0
0.000495206 0.025 0
0.0800549 -0.035 0
0.135172 -0.08 0
-0.0546216 -0.0451168 0
0.000495206 -0.0301168 0
0.0800549 -0.0901168 0
0.135172 -0.135117 0
-0.0546216 -0.0451168 -0.00551168
0.000495206 -0.0301168 -0.00551168
0.0800549 -0.0901168 -0.00551168
0.135172 -0.135117 -0.00551168
0.135172 -0.08 -0.00551168
0.0800549 -0.035 -0.00551168
0.000495206 0.025 -0.00551168
-0.0546216 0.01 -0.00551168
0.00128732 0.00159165 -0.00551168
0.00227961 -0.00102548 -0.00551168
0.0791586 -0.0598787 -0.00551168
0.0796578 -0.059106 -0.00551168
0.00165953 -0.000990923 0
0.00119576 -0.000874076 0
0.000866021 -0.000641801 0
0.000645147 -0.000349912 0
0.00052235 -1.7281e-05 0
0.00049972 0.000348016 0
0.000601632 0.000737716 0
0.000861774 0.0011403 0
0.00157235 0.00183217 0
0.00188647 0.00206725 0
0.00222612 0.00230203 0
0.00258713 0.00254351 0
0.00296826 0.00279524 0
0.00337118 0.00305664 0
0.00379785 0.00332658 0
0.00425045 0.00360349 0
0.00473139 0.00388521 0
0.0052432 0.00416895 0
0.0057881 0.00445204 0
0.00636753 0.00473281 0
0.00698281 0.00500961 0
0.00763526 0.00528058 0
0.00832616 0.00554366 0
0.00905691 0.00579603 0
0.00982918 0.00603333 0
0.0106445 0.00625033 0
0.0115038 0.00644128 0
0.0124073 0.00660297 0
0.0133543 0.00673414 0
0.0143444 0.00683382 0
0.0153769 0.00690031 0
0.0164512 0.00693173 0
0.0175666 0.00692547 0
0.0187219 0.00687822 0
0.0199156 0.00678477 0
0.0211454 0.00663864 0
0.0224084 0.00643275 0
0.0237018 0.00616676 0
0.0250249 0.00584739 0
0.026375 0.00547298 0
0.0277479 0.00503752 0
0.0291386 0.00453545 0
0.0305433 0.0039653 0
0.0319572 0.0033256 0
0.0333681 0.00260019 0
0.034775 0.00179799 0
0.0361793 0.000930615 0
0.0375798 3.12222e-06 0
0.0389689 -0.000988429 0
0.0403357 -0.00205109 0
0.041675 -0.00318283 0
0.0429849 -0.00437751 0
0.0442643 -0.00562904 0
0.0455126 -0.00693089 0
0.0467314 -0.00827518 0
0.0479204 -0.00965638 0
0.0490661 -0.0110799 0
0.0501515 -0.0125519 0
0.0511696 -0.0140695 0
0.0521492 -0.0156071 0
0.0531202 -0.0171411 0
0.0540851 -0.0186663 0
0.0550431 -0.0201798 0
0.0559923 -0.0216793 0
0.0569311 -0.0231626 0
0.0578582 -0.0246273 0
0.0587723 -0.0260715 0
0.0596721 -0.027493 0
0.0605563 -0.02889 0
0.0614241 -0.0302609 0
0.0622742 -0.0316042 0
0.063106 -0.0329183 0
0.0639186 -0.034202 0
0.0647113 -0.0354543 0
0.0654835 -0.0366743 0
0.0662345 -0.0378613 0
0.0669642 -0.0390145 0
0.0676726 -0.0401333 0
0.0683597 -0.0412172 0
0.0690246 -0.0422665 0
0.0696662 -0.0432819 0
0.0702841 -0.0442636 0
0.0708793 -0.0452111 0
0.0714538 -0.0461237 0
0.072009 -0.047001 0
0.0725452 -0.0478434 0
0.0730611 -0.0486524 0
0.073556 -0.0494294 0
0.0740291 -0.0501756 0
0.0744812 -0.0508916 0
0.0749138 -0.0515773 0
0.0753285 -0.0522331 0
0.0757266 -0.0528592 0
0.076109 -0.0534564 0
0.0764753 -0.0540264 0
0.0768243 -0.054571 0
0.0771553 -0.0550919 0
0.0774679 -0.0555901 0
0.0777617 -0.0560669 0
0.0780369 -0.056523 0
0.0782958 -0.0569578 0
0.0785421 -0.0573703 0
0.0787786 -0.0577603 0
0.0790073 -0.0581279 0
0.0792295 -0.058474 0
0.0794462 -0.0587995 0
0.0798803 -0.0594162 0
0.0800272 -0.0596588 0
0.0800357 -0.0598891 0
0.0799275 -0.0600784 0
0.0797205 -0.0601773 0
0.0794593 -0.0601051 0
0.0789155 -0.0596491 0
0.0786707 -0.0593963 0
0.0784111 -0.0591319 0
0.0781372 -0.0588542 0
0.0778566 -0.0585548 0
0.0775715 -0.0582308 0
0.0772803 -0.0578828 0
0.0769832 -0.0575099 0
0.0766822 -0.0571097 0
0.0763801 -0.0566796 0
0.0760759 -0.0562196 0
0.0757623 -0.0557337 0
0.0754359 -0.0552232 0
0.0750951 -0.0546879 0
0.0747379 -0.054128 0
0.0743626 -0.0535435 0
0.0739688 -0.0529338 0
0.0735559 -0.0522981 0
0.0731238 -0.0516357 0
0.0726718 -0.050946 0
0.0721991 -0.0502288 0
0.0717046 -0.049484 0
0.0711872 -0.0487117 0
0.0706461 -0.047912 0
0.0700804 -0.0470849 0
0.0694892 -0.0462308 0
0.0688718 -0.0453499 0
0.0682271 -0.0444431 0
0.0675544 -0.043511 0
0.0668527 -0.0425546 0
0.0661215 -0.0415748 0
0.06536 -0.040573 0
0.0645676 -0.0395504 0
0.0637439 -0.0385087 0
0.0628887 -0.0374493 0
0.062002 -0.0363741 0
0.0610838 -0.0352847 0
0.0601345 -0.0341831 0
0.0591547 -0.033071 0
0.0581456 -0.0319502 0
0.0571083 -0.0308224 0
0.0560444 -0.0296893 0
0.0549562 -0.028552 0
0.053845 -0.0274126 0
0.0527113 -0.0262746 0
0.051554 -0.0251427 0
0.0503724 -0.0240222 0
0.0491675 -0.0229164 0
0.047941 -0.0218282 0
0.0466955 -0.0207597 0
0.0454337 -0.0197126 0
0.0441592 -0.0186878 0
0.0428751 -0.0176863 0
0.0415841 -0.0167097 0
0.0402878 -0.0157609 0
0.0389879 -0.0148428 0
0.0376864 -0.0139575 0
0.0363853 -0.013107 0
0.0350871 -0.0122931 0
0.0337942 -0.0115164 0
0.0325095 -0.0107772 0
0.0312357 -0.0100756 0
0.0299758 -0.00941024 0
0.0287337 -0.00877784 0
0.0275126 -0.00817571 0
0.0263139 -0.00760375 0
0.0251376 -0.00706528 0
0.0239829 -0.0065649 0
0.0228537 -0.00609619 0
0.0217522 -0.00565563 0
0.0206795 -0.00524226 0
0.0196364 -0.00485507 0
0.0186233 -0.00449318 0
0.0176408 -0.00415577 0
0.016689 -0.00384204 0
0.0157682 -0.00355115 0
0.0148783 -0.00328218 0
0.0140192 -0.00303468 0
0.0131906 -0.00280795 0
0.0123925 -0.00260016 0
0.0116246 -0.00241012 0
0.0108864 -0.00223769 0
0.0101774 -0.00208212 0
0.00949701 -0.00194206 0
0.00884483 -0.0018163 0
0.0082202 -0.0017039 0
0.00762247 -0.00160391 0
0.00705097 -0.00151528 0
0.006505 -0.00143697 0
0.0059838 -0.00136806 0
0.00548662 -0.00130772 0
0.00501265 -0.00125519 0
0.00456114 -0.00120954 0
0.00413136 -0.00116914 0
0.00372257 -0.00113251 0
0.00333398 -0.00109853 0
0.00296466 -0.00106798 0
0.00261363 -0.0010431 0
-0.052721 -0.0445996 0
-0.0508204 -0.0440823 0
-0.0489199 -0.0435651 0
-0.0470193 -0.0430478 0
-0.0451187 -0.0425306 0
-0.0432181 -0.0420134 0
-0.0413175 -0.0414961 0
-0.039417 -0.0409789 0
-0.0375164 -0.0404616 0
-0.0356158 -0.0399444 0
-0.0337152 -0.0394271 0
-0.0318146 -0.0389099 0
-0.0299141 -0.0383927 0
-0.0280135 -0.0378754 0
-0.0261129 -0.0373582 0
-0.0242123 -0.0368409 0
-0.0223117 -0.0363237 0
-0.0204112 -0.0358065 0
-0.0185106 -0.0352892 0
-0.01661 -0.034772 0
-0.0147094 -0.0342547 0
-0.0128088 -0.0337375 0
-0.0109083 -0.0332202 0
-0.00900769 -0.032703 0
-0.00710711 -0.0321858 0
-0.00520653 -0.0316685 0
-0.00330595 -0.0311513 0
-0.00140537 -0.030634 0
0.00190689 -0.0299614 0
0.00332271 -0.0298498 0
0.00474133 -0.0297825 0
0.00616136 -0.0297597 0
0.0075814 -0.0297814 0
0.00900007 -0.0298477 0
0.010416 -0.0299583 0
0.0118278 -0.0301127 0
0.0132342 -0.0303103 0
0.0146339 -0.0305504 0
0.0160259 -0.0308322 0
0.0174091 -0.0311546 0
0.0187824 -0.0315166 0
0.020145 -0.031917 0
0.0214961 -0.0323546 0
0.0228351 -0.032828 0
0.0241613 -0.0333361 0
0.0254744 -0.0338774 0
0.0267738 -0.0344507 0
0.0280592 -0.0350545 0
0.0293306 -0.0356877 0
0.0305875 -0.0363488 0
0.0318301 -0.0370367 0
0.0330581 -0.0377501 0
0.0342717 -0.0384879 0
0.0354708 -0.0392489 0
0.0366556 -0.0400321 0
0.0378262 -0.0408363 0
0.0389828 -0.0416607 0
0.0401254 -0.0425042 0
0.0412543 -0.0433659 0
0.0423698 -0.0442451 0
0.043472 -0.0451408 0
0.0445612 -0.0460523 0
0.0456375 -0.0469789 0
0.0467013 -0.0479199 0
0.0477529 -0.0488746 0
0.0487923 -0.0498424 0
0.04982 -0.0508227 0
0.0508362 -0.051815 0
0.051841 -0.0528187 0
0.0528348 -0.0538333 0
0.0538178 -0.0548584 0
0.0547903 -0.0558935 0
0.0557524 -0.0569382 0
0.0567045 -0.0579922 0
0.0576467 -0.0590549 0
0.0585792 -0.0601261 0
0.0595024 -0.0612055 0
0.0604163 -0.0622926 0
0.0613212 -0.0633873 0
0.0622174 -0.0644891 0
0.0631049 -0.0655979 0
0.0639841 -0.0667134 0
0.064855 -0.0678353 0
0.0657179 -0.0689633 0
0.0665729 -0.0700974 0
0.0674202 -0.0712372 0
0.06826 -0.0723826 0
0.0690925 -0.0735333 0
0.0699178 -0.0746892 0
0.070736 -0.0758501 0
0.0715473 -0.0770159 0
0.0723518 -0.0781863 0
0.0731498 -0.0793612 0
0.0739412 -0.0805405 0
0.0747264 -0.081724 0
0.0755053 -0.0829116 0
0.0762781 -0.0841033 0
0.0770449 -0.0852987 0
0.0778059 -0.0864979 0
0.0785611 -0.0877007 0
0.0793108 -0.088907 0
0.0814681 -0.0912706 0
0.0828814 -0.0924245 0
0.0842946 -0.0935783 0
0.0857079 -0.0947322 0
0.0871211 -0.095886 0
0.0885344 -0.0970399 0
0.0899476 -0.0981937 0
0.0913609 -0.0993476 0
0.0927741 -0.100501 0
0.0941874 -0.101655 0
0.0956006 -0.102809 0
0.0970139 -0.103963 0
0.0984272 -0.105117 0
0.0998404 -0.106271 0
0.101254 -0.107424 0
0.102667 -0.108578 0
0.10408 -0.109732 0
0.105493 -0.110886 0
0.106907 -0.11204 0
0.10832 -0.113194 0
0.109733 -0.114348 0
0.111146 -0.115501 0
0.11256 -0.116655 0
0.113973 -0.117809 0
0.115386 -0.118963 0
0.116799 -0.120117 0
0.118213 -0.121271 0
0.119626 -0.122424 0
0.121039 -0.123578 0
0.122452 -0.124732 0
0.123866 -0.125886 0
0.125279 -0.12704 0
0.126692 -0.128194 0
0.128105 -0.129348 0
0.129519 -0.130501 0
0.130932 -0.131655 0
0.132345 -0.132809 0
0.133758 -0.133963 0
0.135172 -0.133216 0
0.135172 -0.131316 0
0.135172 -0.129415 0
0.135172 -0.127514 0
0.135172 -0.125614 0
0.135172 -0.123713 0
0.135172 -0.121813 0
0.135172 -0.119912 0
0.135172 -0.118012 0
0.135172 -0.116111 0
0.135172 -0.11421 0
0.135172 -0.11231 0
0.135172 -0.110409 0
0.135172 -0.108509 0
0.135172 -0.106608 0
0.135172 -0.104708 0
0.135172 -0.102807 0
0.135172 -0.100906 0
0.135172 -0.0990058 0
0.135172 -0.0971052 0
0.135172 -0.0952046 0
0.135172 -0.0933041 0
0.135172 -0.0914035 0
0.135172 -0.0895029 0
0.135172 -0.0876023 0
0.135172 -0.0857017 0
0.135172 -0.0838012 0
0.135172 -0.0819006 0
0.133758 -0.0788462 0
0.132345 -0.0776923 0
0.130932 -0.0765385 0
0.129519 -0.0753846 0
0.128105 -0.0742308 0
0.126692 -0.0730769 0
0.125279 -0.0719231 0
0.123866 -0.0707692 0
0.122452 -0.0696154 0
0.121039 -0.0684615 0
0.119626 -0.0673077 0
0.118213 -0.0661538 0
0.116799 -0.065 0
0.115386 -0.0638462 0
0.113973 -0.0626923 0
0.11256 -0.0615385 0
0.111146 -0.0603846 0
0.109733 -0.0592308 0
0.10832 -0.0580769 0
0.106907 -0.0569231 0
0.105493 -0.0557692 0
0.10408 -0.0546154 0
0.102667 -0.0534615 0
0.101254 -0.0523077 0
0.0998404 -0.0511538 0
0.0984272 -0.05 0
0.0970139 -0.0488462 0
0.0956006 -0.0476923 0
[...]
CELL_DATA 13116
SCALARS rho float
LOOKUP_TABLE default
0.656441
0.691357
0.359278
0.69074
0.705654
0.686838
0.362752
0.690152
0.559412
0.693842
0.363897
0.353077
0.705179
0.359736
0.377802
0.686893
0.659878
0.699251
0.692111
0.360081
0.650876
0.377315
0.363961
0.700428
0.675119
0.685229
0.694365
0.365534
0.583654
0.713839
0.993812
0.346799
0.569334
0.50301
0.363449
0.654629
0.704702
0.691325
0.685121
0.68781
0.692798
0.690483
0.522432
0.354681
0.691023
0.691958
0.684769
0.69561
0.389856
0.55306
0.689687
0.517823
0.358514
0.659027
0.581036
0.657047
0.354577
0.711022
0.5562
0.387521
0.359805
0.690627
0.688231
0.683163
0.901328
0.351807
0.687536
0.712059
0.694785
0.76067
0.376154
0.576353
0.373266
0.353841
1.12563
0.348259
0.690757
0.702017
0.361934
0.712982
0.704839
0.685054
0.707609
0.695046
0.688972
0.487571
0.357007
0.720447
0.6886
0.36661
0.355148
0.691732
0.696819
0.687203
0.708067
0.669625
0.678115
1.10273
1.11556
0.579704
0.728166
0.674303
0.692028
0.471689
0.681817
0.375666
0.458171
0.545484
0.3631
0.589037
0.597544
0.684406
0.667408
0.708625
0.709286
0.688094
0.355489
0.462292
0.700384
0.688171
0.713257
0.375416
0.695433
0.354602
0.687474
0.492086
0.356681
0.539507
0.360678
0.551556
0.700828
0.697981
0.520968
0.384236
0.510502
0.66704
1.12696
0.694904
0.729581
0.688066
0.682989
0.685204
0.540976
0.683406
0.688013
0.36631
0.363857
0.683801
0.705905
0.69026
0.54799
0.694697
0.695567
0.35373
0.704261
0.68915
0.36435
0.714174
1.08726
0.723429
0.707486
0.363314
0.71046
0.363802
0.374133
0.694084
0.686963
0.700345
0.363199
0.499656
0.481254
1.12691
0.377488
0.533232
0.687768
0.365482
0.373733
0.37482
0.683659
0.687926
0.362911
0.486273
0.629769
0.706308
0.688706
0.558045
0.351648
0.686965
0.680295
0.507931
0.690198
0.683431
0.702176
0.363474
0.682142
0.68599
0.69711
0.688426
0.688562
0.425316
0.473036
0.5848
0.536698
0.357003
0.701802
0.693422
0.523481
0.672919
0.37892
0.365769
0.34783
0.686611
0.365045
0.364384
0.366283
0.352459
0.450968
0.685631
0.687301
0.481099
0.353316
0.687544
0.584442
0.363578
0.547868
0.691854
0.687753
0.36623
0.687826
0.468993
0.691057
0.353186
0.695275
0.5685
1.12409
0.688326
0.672878
0.399745
0.487146
0.728437
1.1266
0.685606
1.12696
0.6597
0.69026
0.374229
0.692333
0.702849
1.10977
0.365042
0.390728
0.69363
0.700393
0.77767
0.697049
0.654393
0.714949
0.363805
0.408423
0.43756
0.377033
0.678984
0.698699
0.689537
0.358887
0.689838
0.351013
0.484419
0.682496
0.361946
0.684563
0.689615
1.12664
0.710265
0.398502
1.1268
0.706235
1.10703
0.696476
0.3618
0.356383
0.364161
0.667055
0.373251
0.388637
0.447537
0.423481
0.690531
0.359403
0.689066
0.702153
0.354197
0.36026
0.351906
0.498293
0.364409
0.718482
0.671461
0.683528
0.362664
0.690928
0.566226
0.402954
0.386704
0.686742
0.700353
0.688276
0.350827
0.686156
0.483099
0.697718
0.690433
0.689339
0.690144
0.36342
0.687796
0.367131
0.68711
0.693858
0.737845
0.363749
0.445044
0.700837
0.352608
0.687292
0.69063
0.406553
0.719353
0.709201
0.353987
0.689813
0.697216
0.363429
0.701768
0.483578
0.558281
0.690355
0.48765
0.714946
0.358493
0.711493
0.446849
0.670221
0.673803
0.695884
0.365331
0.456195
0.689076
0.355659
0.700892
0.681225
0.481403
1.12675
0.352416
0.365334
0.698764
0.551025
0.709404
0.355902
0.364354
0.690762
0.702868
0.364043
0.699201
0.35505
0.382382
0.68789
0.690544
0.586281
0.36782
0.698946
0.936271
0.686935
0.68959
0.705854
0.550078
0.378051
0.373883
0.362382
0.686816
0.363024
0.631146
0.412431
0.361077
0.453563
0.598357
0.189609
0.356389
0.689364
0.346875
0.710039
0.583524
0.693327
0.723533
0.696532
0.365481
0.356492
0.432825
0.389435
0.699533
0.665641
0.69271
0.584816
0.689
0.674712
0.68496
0.681108
0.710754
0.704116
0.713078
0.686754
0.441242
0.523691
0.654894
0.372855
0.67027
0.657279
0.35816
0.687974
1.12678
0.364089
0.361835
0.364778
0.353309
0.590961
0.364652
0.363721
0.687111
0.35032
0.570142
0.366237
0.687141
0.700701
0.36671
0.381786
0.698806
0.49738
0.366898
0.353281
0.367626
0.363608
0.356097
0.362224
0.382349
0.486632
0.364374
0.672979
0.373857
0.688965
0.403257
0.353134
0.515947
0.369021
0.366437
0.369246
0.687136
0.488872
0.690766
0.575446
0.35097
0.672608
0.688792
0.485992
0.720686
0.67664
0.676121
0.355699
1.11544
0.46513
0.708333
1.06067
0.364622
0.360766
0.67993
0.390644
0.486817
0.675058
0.457038
0.717924
0.688211
0.360307
0.371677
0.372118
0.529683
0.384439
0.360122
0.376772
0.365733
0.69103
0.690928
0.502412
0.588273
0.512682
0.682282
0.44364
0.358123
0.561392
0.364776
0.696345
0.414306
0.460807
0.518677
0.691066
0.686713
0.555375
0.403498
0.360851
0.553453
0.689985
0.673076
0.551929
0.682034
0.678716
0.364341
0.700514
0.566348
0.73061
0.429698
0.36447
0.708517
0.696039
0.726199
0.692851
0.687716
0.686614
0.711095
0.73564
0.693146
0.367447
0.690928
0.448615
0.383192
0.365206
0.690979
0.693249
0.439495
0.688784
0.591274
0.364105
0.671612
0.699874
0.703686
0.365286
0.358012
0.700979
0.367227
0.367877
0.369952
0.364492
0.695246
0.361847
0.690416
0.37303
0.691645
0.690355
0.691646
0.703436
0.36727
0.361846
0.694388
0.691328
0.698518
0.690921
0.703361
0.509169
0.35443
0.365024
0.687779
0.559653
0.364844
0.498856
0.360427
0.68933
0.686879
0.430838
0.378991
0.688772
0.490713
0.689656
0.746415
0.360036
0.468379
0.695971
1.12609
0.363651
0.686726
0.686783
0.694151
0.35093
1.12682
0.353577
1.12183
0.730319
0.36784
0.447479
0.386582
1.12098
0.363128
0.360828
0.463419
0.682126
0.701386
0.361221
0.404654
0.365493
0.676818
0.374419
0.685393
0.365331
0.577689
0.692138
0.407047
0.363663
0.363844
0.510232
0.365082
0.685517
0.349086
0.359614
0.687234
0.364768
0.686943
0.686422
1.11147
0.367684
0.696528
0.707668
0.700482
0.688991
0.690061
0.687977
0.368557
0.716113
0.483238
0.694201
0.361149
0.690202
0.549224
0.362819
0.973959
0.704767
0.358708
0.682308
0.355978
0.373992
0.686814
0.687342
0.358453
0.368921
0.361681
0.364848
0.689617
0.698357
0.351748
0.359116
0.701027
0.688762
0.57891
0.708901
0.687039
0.363543
0.695249
0.484431
0.690203
0.460511
0.665504
0.506406
0.687723
0.709429
0.566625
0.440056
0.365037
0.68828
0.581898
0.655062
0.709707
0.373986
0.703775
0.705149
0.467284
0.521489
0.706907
0.409448
0.845994
0.728888
0.442052
0.688862
0.707873
0.361671
0.70133
0.364183
0.688236
0.349782
0.686636
0.68758
0.365859
0.685011
0.710527
0.701845
0.592216
0.699482
0.567185
0.404045
0.479974
0.357986
0.354257
1.12677
0.549861
0.692087
0.705473
0.3667
0.384136
0.70015
0.692792
0.699095
0.689651
0.362235
0.709236
0.70346
0.360622
0.358165
0.70032
0.693411
0.688671
0.346416
0.56963
0.367315
0.701299
0.686193
0.692052
0.691857
0.364603
0.695891
0.689066
0.701935
0.687584
0.693343
0.482051
0.705057
0.365966
0.681726
0.696318
0.499203
0.689222
0.663105
0.690008
0.482367
0.464783
0.569135
0.731013
0.367314
0.367841
0.359628
0.364631
0.692968
0.703299
0.672352
0.423982
0.364113
0.695751
0.723657
0.361806
0.386653
0.502877
0.701928
0.687728
0.689568
0.709767
0.365859
0.367459
1.1268
0.353506
0.364357
0.348372
0.689849
0.366905
0.367129
0.651099
0.694591
0.683451
0.686422
0.686903
0.354597
0.370498
0.360123
0.601425
0.490427
0.354814
0.710822
0.711824
0.688018
0.695317
0.328691
0.367784
0.692942
0.366181
0.693083
0.687317
1.04764
0.358647
0.367679
0.687531
0.979755
0.664981
0.362367
0.68925
0.686502
0.647258
0.690144
0.689789
1.12684
0.681989
0.362409
0.686776
0.847162
0.678732
0.701764
1.12679
0.685057
1.12686
0.697454
0.360643
0.363118
0.367722
0.962379
0.551631
0.366391
0.699639
0.701465
0.356556
0.688473
0.36773
0.691964
0.565176
0.399002
0.691594
0.698893
0.365179
0.544579
0.935582
0.357662
0.687441
0.353705
0.37768
0.672315
0.670712
0.515709
0.692125
0.358203
0.709726
0.368897
0.32866
0.686851
0.36464
0.671142
0.360604
0.687338
0.66778
1.12682
0.686832
0.375141
0.360256
0.678235
0.52805
0.699196
0.512591
0.664631
0.68701
0.702242
0.532172
0.58824
0.683042
0.696457
0.68746
0.450676
0.367856
0.541975
0.682475
0.696001
0.433431
0.691767
0.665388
0.431161
0.358944
0.735837
0.702488
1.12695
1.12289
0.675564
0.706127
0.686082
0.704513
0.361684
0.73339
0.500678
0.689294
0.693028
0.429886
0.690499
0.704515
0.360895
0.393886
0.352606
1.12678
0.363138
0.672011
0.703599
0.737139
0.420951
0.690777
0.35854
0.570461
0.679992
0.687061
0.711444
0.674978
0.679826
0.704531
0.561964
0.693811
0.350383
0.692389
0.692581
0.517507
1.12659
0.702768
0.364141
0.375759
0.357789
0.689626
0.367706
1.12669
0.359177
0.690038
0.361175
0.506846
0.368865
0.708506
0.689839
0.654655
0.412951
0.678859
0.686356
0.365459
0.578088
0.691108
0.351638
0.660655
1.07811
0.692225
0.693645
0.364497
0.543028
0.699882
0.692634
0.682742
0.36746
0.461413
0.689606
1.12672
1.12613
1.12679
0.643164
0.698281
0.639988
0.688575
0.367378
0.358383
1.12678
0.705526
0.685389
0.352084
0.692208
0.654063
0.669761
0.350637
0.478635
0.699589
0.689881
0.562761
0.383863
0.69436
1.12623
0.363016
0.673291
0.709129
0.363259
0.351876
0.368859
0.679422
0.379442
0.367484
0.689677
0.517005
0.695444
0.694208
0.362913
0.355173
0.691187
0.360044
0.363953
0.973055
0.379627
0.444212
0.664549
0.690063
0.697053
0.364394
0.369579
0.364339
0.686841
0.37695
0.697165
0.365724
0.699106
0.688528
0.690692
0.683517
0.6962
0.685752
0.687284
0.704069
0.697815
0.360942
0.365089
0.694417
0.686439
0.517087
0.682034
0.56688
0.684804
0.677298
0.36621
0.688163
0.69105
0.693046
0.365127
0.696304
0.366074
0.695186
0.510143
0.713871
0.691435
0.399367
0.699635
0.365141
0.497466
0.688391
0.347715
0.720668
1.12676
0.690166
0.352512
0.687329
0.364919
0.357535
0.361262
0.366451
0.676066
0.37949
0.686096
0.663112
0.386164
0.363422
0.507393
0.568698
0.687006
0.683065
0.367668
0.352422
0.363834
0.369232
0.408148
0.686851
0.685837
0.365695
0.674338
0.702978
0.36738
0.691326
0.724434
0.669197
0.365426
1.12552
0.699425
0.704363
0.688722
0.383773
0.697854
0.704145
0.696529
0.728917
0.687469
0.394491
0.36197
0.694725
0.538809
0.367785
0.686831
0.365877
0.55937
0.681034
0.687907
0.688572
0.356704
0.681935
0.433799
0.365171
0.720012
0.701779
0.706925
0.695425
0.702347
0.357679
0.70293
0.385952
0.516048
0.695349
1.1158
0.699581
0.365216
0.398239
0.699633
0.418667
0.700601
0.777696
0.485113
0.397768
0.687736
0.361049
0.692581
0.700327
0.696778
0.361195
0.363583
0.534376
0.558062
0.676126
0.516077
0.687346
0.682914
0.68927
1.1268
0.700154
0.360639
0.394165
0.701793
0.687659
0.681446
0.497972
0.355372
0.700167
0.375636
0.686941
0.59007
0.376134
0.699321
0.363185
0.688638
0.3598
0.706516
0.396258
0.695099
0.686407
0.343953
0.687484
0.726397
0.346011
0.669157
0.691422
0.565795
0.367723
0.430087
0.511606
0.706305
0.678133
0.381542
0.567468
0.701026
0.687132
0.42273
0.671736
0.690584
0.488684
0.687398
0.687136
0.432065
0.697316
1.08333
0.35805
0.668997
0.354964
0.690463
0.354992
0.379844
0.696241
0.367319
0.365688
0.372995
0.687628
0.688823
0.447085
0.693991
0.433133
0.696104
0.3651
0.689954
0.41643
0.686982
0.695111
0.693262
0.667938
0.546115
0.685443
0.669333
0.363759
0.69308
0.696472
0.6278
0.699632
0.510531
0.465786
0.704107
0.362373
0.570127
0.368224
0.692502
0.359675
0.363501
0.698502
0.686799
0.360836
0.68885
0.713072
1.12679
0.689546
1.12228
0.36278
0.691621
0.363187
0.364228
0.687655
0.709131
0.690188
0.688856
0.361639
0.354092
0.364084
0.691259
0.664266
0.430723
0.690384
0.352771
0.353197
0.348775
0.688938
0.462021
0.697215
0.698162
0.684478
0.687684
0.697433
0.656416
0.687654
0.485293
0.354065
0.361341
1.1232
1.12633
0.35302
0.684988
0.678405
0.689277
0.364537
0.486513
0.6836
0.390658
0.682406
0.6727
0.364011
0.684674
0.69344
0.366908
0.696565
0.364529
0.690294
0.696137
0.696118
0.377182
0.497455
0.724546
0.436783
0.485773
0.689154
0.438258
0.687891
0.687276
0.684311
0.714267
0.380117
1.00767
0.719483
0.692382
0.45997
0.69912
0.371934
0.365302
0.689782
0.687184
0.658553
0.347056
0.688791
0.680563
1.12606
0.352282
0.355715
0.367154
0.689225
0.363193
0.365112
0.360185
0.671573
0.365508
0.427859
0.487714
0.696919
0.36542
0.664718
0.682801
0.687741
0.351636
0.69709
0.721627
0.674134
0.480479
0.737347
0.364114
0.362973
0.687278
0.360768
0.683423
0.701154
1.12681
0.36533
0.445437
0.359321
0.552659
1.12703
0.348326
0.691406
0.687483
0.713387
0.365445
0.383975
0.449796
0.678029
0.365769
1.12682
0.585351
0.684559
0.689921
0.362134
0.68417
0.366068
0.668946
0.772556
0.693254
0.667144
0.634342
0.733914
0.682604
0.702403
0.357509
0.402472
0.349774
0.714998
0.561068
1.11165
0.365085
0.47193
0.706975
0.696923
0.751711
0.36133
0.687941
0.551549
0.554997
0.678594
0.364635
0.361731
0.432896
0.686958
0.669733
0.731142
0.681857
0.450747
0.690176
0.743631
0.671933
0.667077
0.690004
0.691019
0.686199
0.707189
0.707402
0.364757
0.698616
0.695144
0.68734
0.699386
0.687678
0.666993
0.364058
0.373452
0.679426
0.367663
0.381926
0.687608
0.368748
0.68433
0.694843
0.690112
0.693334
0.364757
0.688129
0.361795
0.356377
0.686417
0.697622
0.695535
0.349886
0.697582
0.692367
0.679278
0.687405
0.374237
0.687491
0.697596
0.694165
0.427878
0.712403
0.364719
0.689473
0.347372
0.364443
0.660254
0.497723
0.691496
0.71081
0.693541
0.359561
0.687408
0.4494
0.373201
0.687538
0.506912
0.367063
0.692459
0.388638
0.521392
0.714847
0.685018
0.688087
0.50883
0.576527
0.716189
0.691428
0.667296
0.70656
0.539816
0.689766
0.680977
0.716931
0.346037
0.362274
0.495886
0.697337
0.364294
0.725778
0.689053
0.670862
0.691652
0.64526
0.722098
0.704655
0.36543
0.688589
0.681091
0.638752
0.681807
0.701598
0.685691
0.687166
0.36561
0.362089
0.694511
0.561563
0.645237
0.689706
0.694935
0.694756
0.696154
0.695582
0.677015
0.682184
0.694181
0.369578
0.368592
0.360641
0.372106
1.12667
0.505064
0.638314
0.699114
0.705648
0.364491
0.693877
0.690546
0.349052
0.463138
1.12621
0.699227
0.365069
0.344191
0.371051
1.12682
0.685335
0.430662
0.361123
0.363475
0.385536
0.404652
0.367804
0.691093
0.695327
0.700052
0.357476
0.690244
0.671236
0.587215
0.403426
0.361105
0.687257
1.12683
0.366668
0.687115
0.366649
0.705813
0.364673
0.687443
0.356101
0.688323
0.697515
0.352881
0.556219
0.405543
0.691371
0.376054
0.672377
0.36653
0.545385
0.364432
0.670359
0.365965
0.703941
0.690392
0.58724
0.695851
0.404454
0.690015
0.687263
0.697912
0.671079
0.697101
0.361409
0.482226
0.351489
0.6988
0.419322
0.704515
0.551846
0.709575
0.692142
0.550054
0.70458
0.372761
0.355826
0.36963
0.543417
0.661266
0.694604
0.362454
0.386857
0.68685
0.469045
0.361173
0.665057
0.456431
0.366946
0.370945
0.690475
0.751229
0.673918
0.360182
0.689315
0.686881
0.331582
0.443365
0.689087
0.686897
0.668951
0.524797
0.478317
0.459881
0.354448
0.689524
0.678476
0.558756
0.718492
0.382893
0.647074
0.363029
0.887495
0.703867
0.362252
0.416279
0.680573
0.664272
0.70344
0.706809
0.706505
0.688915
0.695544
0.350567
0.374504
0.349705
0.361789
0.656289
1.03778
0.748172
0.362266
0.366085
0.509608
0.349863
0.694475
0.684638
0.365956
0.426695
0.692904
0.36323
0.715176
0.708136
0.687164
0.687304
0.655781
0.367764
0.354825
0.680503
0.362662
0.488033
0.442677
0.686912
0.686801
0.426034
0.364209
1.12676
0.364812
0.687132
0.697412
0.3666
0.360648
0.360128
0.697071
0.355627
1.12679
0.703467
0.672082
0.335548
0.536935
0.701621
0.690858
0.36211
0.690703
0.680418
0.356499
0.699568
0.689392
0.36492
0.367569
0.687401
0.365007
0.361536
0.690594
0.452993
0.694275
0.723377
0.697618
0.684354
0.705536
0.687296
0.6854
0.363624
0.477505
0.684878
0.695634
0.496343
0.691631
0.429198
0.696967
0.688371
0.573536
0.718286
0.481755
0.501714
0.694057
0.703565
0.680583
0.695723
0.693937
1.12689
0.689799
1.12674
0.689691
0.687564
0.689539
1.12678
0.685241
0.360062
0.685409
0.363047
0.687716
0.698834
0.707821
0.685491
0.715745
0.359104
0.356379
0.43907
0.362243
0.686848
0.357548
0.365135
0.704654
0.338967
0.70712
0.355632
0.690423
0.697808
0.367363
0.468436
0.377593
0.693162
0.356528
0.694451
0.699721
0.35731
0.687332
0.557743
0.38594
0.365055
0.337229
0.706329
0.367623
0.688398
0.645343
0.406981
0.690556
0.69303
0.70579
0.366633
0.654784
0.366355
0.690622
0.686748
0.688144
0.367515
0.695536
0.692776
0.683531
0.472053
0.695181
0.367425
0.36452
0.687878
0.501438
0.694513
0.469681
0.367359
0.490226
0.684798
0.363298
0.357973
0.350551
0.552791
1.12026
0.699032
0.362232
0.670213
0.696467
0.551402
0.508197
0.373842
0.559009
0.367759
0.363125
0.6921
0.364842
0.366328
0.689917
0.691105
0.348356
0.707087
0.350395
1.12681
0.365832
0.687381
0.755004
0.716473
0.682731
0.369003
0.363493
0.361874
0.686808
0.687684
0.575002
0.55757
0.463283
0.432321
0.692692
0.363822
0.694583
0.46588
0.704299
0.711823
0.353311
0.356967
0.364601
0.364085
0.359738
0.680332
0.687948
0.356542
0.697712
0.705612
0.407461
0.375849
0.691238
0.366958
0.696991
0.483499
0.714738
0.718426
0.696898
1.11295
0.366663
0.695208
0.687605
0.690822
0.367299
0.67918
0.581366
0.380596
0.69356
0.690757
0.690673
0.689093
0.695189
0.687913
0.690123
0.687321
0.691787
0.367483
0.706622
0.364564
0.518502
0.68957
0.362762
0.689191
0.679889
0.387579
0.683966
0.367394
0.355825
0.688193
0.677168
0.69114
0.365088
0.688769
0.68446
0.365677
0.356717
0.686693
0.68679
0.467344
0.354288
0.704324
0.691076
0.367713
0.71216
0.699452
0.745587
0.35094
0.367215
0.360559
0.720375
0.397984
0.691137
0.715015
0.692795
0.670976
0.697359
0.365258
0.688877
0.590999
0.699053
0.666908
0.363273
0.363169
0.381894
0.70552
0.699804
0.481115
0.719129
0.370605
0.693169
0.688166
0.375368
0.679992
0.691602
0.680091
0.356
0.356966
0.37292
0.699889
0.695511
0.683349
0.524968
0.696697
0.366489
0.700621
1.12641
0.695987
0.355247
0.587979
0.389179
0.681388
0.382914
0.694411
0.687641
0.359176
0.699741
0.521418
1.1267
0.699316
1.12681
0.689179
0.478748
0.692641
0.693799
0.68696
0.694502
0.50255
1.12675
0.360311
0.694273
0.381191
0.363469
0.390711
0.359032
0.367656
0.355878
0.69354
0.462345
0.367113
0.708833
0.700135
0.688143
0.436295
0.712302
0.718491
0.687364
0.355016
0.6678
0.687796
0.378245
0.355857
0.363664
0.686182
0.519183
0.366442
0.66754
0.324583
1.11745
0.516067
0.356895
0.504452
0.72089
0.375354
0.686978
0.379544
0.621943
0.464461
0.689307
0.463933
0.70161
1.12672
0.677871
0.507175
0.363761
0.689692
0.690831
0.357672
0.357445
0.687051
0.363467
0.712851
0.357982
0.557249
0.379972
0.687174
0.373145
0.69098
0.362886
0.687854
0.697242
0.703666
1.12671
0.360503
0.365028
0.4323
0.686129
0.70436
0.684565
0.66199
0.38357
0.704097
0.374643
0.687487
0.67462
0.464852
0.400201
0.709081
0.693922
0.367021
0.907452
0.68994
0.707652
0.698583
0.381445
0.710435
0.365373
0.706148
0.397631
0.667696
0.6873
0.690095
0.69106
0.408535
0.690983
0.367165
0.365081
0.687116
1.12654
0.564986
0.694746
1.12675
0.366532
0.699889
0.688576
0.689869
0.358104
0.487511
0.71282
0.356903
0.698394
0.688804
0.689755
0.689276
0.409694
0.505595
0.731961
0.361249
0.688533
0.690952
0.524896
0.688007
0.418577
0.681343
0.698971
0.725324
0.687247
0.357259
0.363523
0.694864
0.690142
0.383089
0.411039
0.370273
0.363138
0.366299
0.352439
0.365355
0.367755
0.695109
0.380915
0.350573
0.703685
0.56426
1.12682
0.472694
0.364752
0.696665
0.51569
0.594201
0.702588
0.460041
0.736639
0.662751
0.585304
0.690438
0.355285
0.698991
0.6802
0.356604
0.364359
0.468313
0.679203
0.582247
0.695925
0.686925
0.69646
0.691389
0.400416
0.698567
0.684604
0.688427
0.364613
0.687636
0.670995
0.396763
0.489464
0.359213
0.368529
0.365533
0.666385
0.71496
0.695089
0.363455
0.472567
0.697628
0.344598
0.700748
0.693885
0.689943
0.726156
0.696528
0.376277
0.36764
0.364371
0.65599
0.395707
0.695836
0.367889
0.687517
0.687216
0.698104
0.370158
0.503013
0.477057
0.697123
0.351616
0.36356
0.687663
0.690295
0.681697
0.686852
0.686938
0.712838
0.367834
0.605649
0.706359
0.534813
0.696711
0.702033
0.711181
0.490586
0.480729
0.690009
0.514728
0.674611
0.365725
0.686954
0.689338
0.428829
0.39851
0.690409
0.538376
0.70453
0.701171
0.367664
0.361199
1.07877
0.503284
0.444985
0.689297
0.68663
0.392754
0.690298
1.07289
0.685647
0.367893
0.666209
0.367779
0.689705
0.70363
0.712263
0.694497
1.02973
0.426011
0.42689
0.697731
0.366762
0.587888
0.403244
0.697404
0.365379
0.710349
0.706439
1.0946
0.367508
1.1268
1.12459
0.362703
0.687107
0.336239
0.690841
0.367144
0.354692
0.370034
0.699983
0.690234
0.441416
0.435984
0.683903
0.69723
0.504947
0.708128
0.367478
0.564774
0.364389