# vtk DataFile Version 1.0
unstructured grid
ascii
DATASET UNSTRUCTURED_GRID
points 13672 float
0.0796578 -0.059106 0
0.00128732 0.00159165 0
0.00227961 -0.00102548 0
0.0791586 -0.0598787 0
-0.0546216 0.01 0
0.000495206 0.025 0
0.0800549 -0.035 0
0.135172 -0.08 0
-0.0546216 -0.0451168 0
0.000495206 -0.0301168 0
0.0800549 -0.0901168 0
0.135172 -0.135117 0
-0.0546216 -0.0451168 -0.00551168
0.000495206 -0.0301168 -0.00551168
0.0800549 -0.0901168 -0.00551168
0.135172 -0.135117 -0.00551168
0.135172 -0.08 -0.00551168
0.0800549 -0.035 -0.00551168
0.000495206 0.025 -0.00551168
-0.0546216 0.01 -0.00551168
0.00128732 0.00159165 -0.00551168
0.00227961 -0.00102548 -0.00551168
0.0791586 -0.0598787 -0.00551168
0.0796578 -0.059106 -0.00551168
0.00165953 -0.000990923 0
0.00119576 -0.000874076 0
0.000866021 -0.000641801 0
0.000645147 -0.000349912 0
0.00052235 -1.7281e-05 0
0.00049972 0.000348016 0
0.000601632 0.000737716 0
0.000861774 0.0011403 0
0.00157235 0.00183217 0
0.00188647 0.00206725 0
0.00222612 0.00230203 0
0.00258713 0.00254351 0
0.00296826 0.00279524 0
0.00337118 0.00305664 0
0.00379785 0.00332658 0
0.00425045 0.00360349 0
0.00473139 0.00388521 0
0.0052432 0.00416895 0
0.0057881 0.00445204 0
0.00636753 0.00473281 0
0.00698281 0.00500961 0
0.00763526 0.00528058 0
0.00832616 0.00554366 0
0.00905691 0.00579603 0
0.00982918 0.00603333 0
0.0106445 0.00625033 0
0.0115038 0.00644128 0
0.0124073 0.00660297 0
0.0133543 0.00673414 0
0.0143444 0.00683382 0
0.0153769 0.00690031 0
0.0164512 0.00693173 0
0.0175666 0.00692547 0
0.0187219 0.00687822 0
0.0199156 0.00678477 0
0.0211454 0.00663864 0
0.0224084 0.00643275 0
0.0237018 0.00616676 0
0.0250249 0.00584739 0
0.026375 0.00547298 0
0.0277479 0.00503752 0
0.0291386 0.00453545 0
0.0305433 0.0039653 0
0.0319572 0.0033256 0
0.0333681 0.00260019 0
0.034775 0.00179799 0
0.0361793 0.000930615 0
0.0375798 3.12222e-06 0
0.0389689 -0.000988429 0
0.0403357 -0.00205109 0
0.041675 -0.00318283 0
0.0429849 -0.00437751 0
0.0442643 -0.00562904 0
0.0455126 -0.00693089 0
0.0467314 -0.00827518 0
0.0479204 -0.00965638 0
0.0490661 -0.0110799 0
0.0501515 -0.0125519 0
0.0511696 -0.0140695 0
0.0521492 -0.0156071 0
0.0531202 -0.0171411 0
0.0540851 -0.0186663 0
0.0550431 -0.0201798 0
0.0559923 -0.0216793 0
0.0569311 -0.0231626 0
0.0578582 -0.0246273 0
0.0587723 -0.0260715 0
0.0596721 -0.027493 0
0.0605563 -0.02889 0
0.0614241 -0.0302609 0
0.0622742 -0.0316042 0
0.063106 -0.0329183 0
0.0639186 -0.034202 0
0.0647113 -0.0354543 0
0.0654835 -0.0366743 0
0.0662345 -0.0378613 0
0.0669642 -0.0390145 0
0.0676726 -0.0401333 0
0.0683597 -0.0412172 0
0.0690246 -0.0422665 0
0.0696662 -0.0432819 0
0.0702841 -0.0442636 0
0.0708793 -0.0452111 0
0.0714538 -0.0461237 0
0.072009 -0.047001 0
0.0725452 -0.0478434 0
0.0730611 -0.0486524 0
0.073556 -0.0494294 0
0.0740291 -0.0501756 0
0.0744812 -0.0508916 0
0.0749138 -0.0515773 0
0.0753285 -0.0522331 0
0.0757266 -0.0528592 0
0.076109 -0.0534564 0
0.0764753 -0.0540264 0
0.0768243 -0.054571 0
0.0771553 -0.0550919 0
0.0774679 -0.0555901 0
0.0777617 -0.0560669 0
0.0780369 -0.056523 0
0.0782958 -0.0569578 0
0.0785421 -0.0573703 0
0.0787786 -0.0577603 0
0.0790073 -0.0581279 0
0.0792295 -0.058474 0
0.0794462 -0.0587995 0
0.0798803 -0.0594162 0
0.0800272 -0.0596588 0
0.0800357 -0.0598891 0
0.0799275 -0.0600784 0
0.0797205 -0.0601773 0
0.0794593 -0.0601051 0
0.0789155 -0.0596491 0
0.0786707 -0.0593963 0
0.0784111 -0.0591319 0
0.0781372 -0.0588542 0
0.0778566 -0.0585548 0
0.0775715 -0.0582308 0
0.0772803 -0.0578828 0
0.0769832 -0.0575099 0
0.0766822 -0.0571097 0
0.0763801 -0.0566796 0
0.0760759 -0.0562196 0
0.0757623 -0.0557337 0
0.0754359 -0.0552232 0
0.0750951 -0.0546879 0
0.0747379 -0.054128 0
0.0743626 -0.0535435 0
0.0739688 -0.0529338 0
0.0735559 -0.0522981 0
0.0731238 -0.0516357 0
0.0726718 -0.050946 0
0.0721991 -0.0502288 0
0.0717046 -0.049484 0
0.0711872 -0.0487117 0
0.0706461 -0.047912 0
0.0700804 -0.0470849 0
0.0694892 -0.0462308 0
0.0688718 -0.0453499 0
0.0682271 -0.0444431 0
0.0675544 -0.043511 0
0.0668527 -0.0425546 0
0.0661215 -0.0415748 0
0.06536 -0.040573 0
0.0645676 -0.0395504 0
0.0637439 -0.0385087 0
0.0628887 -0.0374493 0
0.062002 -0.0363741 0
0.0610838 -0.0352847 0
0.0601345 -0.0341831 0
0.0591547 -0.033071 0
0.0581456 -0.0319502 0
0.0571083 -0.0308224 0
0.0560444 -0.0296893 0
0.0549562 -0.028552 0
0.053845 -0.0274126 0
0.0527113 -0.0262746 0
0.051554 -0.0251427 0
0.0503724 -0.0240222 0
0.0491675 -0.0229164 0
0.047941 -0.0218282 0
0.0466955 -0.0207597 0
0.0454337 -0.0197126 0
0.0441592 -0.0186878 0
0.0428751 -0.0176863 0
0.0415841 -0.0167097 0
0.0402878 -0.0157609 0
0.0389879 -0.0148428 0
0.0376864 -0.0139575 0
0.0363853 -0.013107 0
0.0350871 -0.0122931 0
0.0337942 -0.0115164 0
0.0325095 -0.0107772 0
0.0312357 -0.0100756 0
0.0299758 -0.00941024 0
0.0287337 -0.00877784 0
0.0275126 -0.00817571 0
0.0263139 -0.00760375 0
0.0251376 -0.00706528 0
0.0239829 -0.0065649 0
0.0228537 -0.00609619 0
0.0217522 -0.00565563 0
0.0206795 -0.00524226 0
0.0196364 -0.00485507 0
0.0186233 -0.00449318 0
0.0176408 -0.00415577 0
0.016689 -0.00384204 0
0.0157682 -0.00355115 0
0.0148783 -0.00328218 0
0.0140192 -0.00303468 0
0.0131906 -0.00280795 0
0.0123925 -0.00260016 0
0.0116246 -0.00241012 0
0.0108864 -0.00223769 0
0.0101774 -0.00208212 0
0.00949701 -0.00194206 0
0.00884483 -0.0018163 0
0.0082202 -0.0017039 0
0.00762247 -0.00160391 0
0.00705097 -0.00151528 0
0.006505 -0.00143697 0
0.0059838 -0.00136806 0
0.00548662 -0.00130772 0
0.00501265 -0.00125519 0
0.00456114 -0.00120954 0
0.00413136 -0.00116914 0
0.00372257 -0.00113251 0
0.00333398 -0.00109853 0
0.00296466 -0.00106798 0
0.00261363 -0.0010431 0
-0.052721 -0.0445996 0
-0.0508204 -0.0440823 0
-0.0489199 -0.0435651 0
-0.0470193 -0.0430478 0
-0.0451187 -0.0425306 0
-0.0432181 -0.0420134 0
-0.0413175 -0.0414961 0
-0.039417 -0.0409789 0
-0.0375164 -0.0404616 0
-0.0356158 -0.0399444 0
-0.0337152 -0.0394271 0
-0.0318146 -0.0389099 0
-0.0299141 -0.0383927 0
-0.0280135 -0.0378754 0
-0.0261129 -0.0373582 0
-0.0242123 -0.0368409 0
-0.0223117 -0.0363237 0
-0.0204112 -0.0358065 0
-0.0185106 -0.0352892 0
-0.01661 -0.034772 0
-0.0147094 -0.0342547 0
-0.0128088 -0.0337375 0
-0.0109083 -0.0332202 0
-0.00900769 -0.032703 0
-0.00710711 -0.0321858 0
-0.00520653 -0.0316685 0
-0.00330595 -0.0311513 0
-0.00140537 -0.030634 0
0.00190689 -0.0299614 0
0.00332271 -0.0298498 0
0.00474133 -0.0297825 0
0.00616136 -0.0297597 0
0.0075814 -0.0297814 0
0.00900007 -0.0298477 0
0.010416 -0.0299583 0
0.0118278 -0.0301127 0
0.0132342 -0.0303103 0
0.0146339 -0.0305504 0
0.0160259 -0.0308322 0
0.0174091 -0.0311546 0
0.0187824 -0.0315166 0
0.020145 -0.031917 0
0.0214961 -0.0323546 0
0.0228351 -0.032828 0
0.0241613 -0.0333361 0
0.0254744 -0.0338774 0
0.0267738 -0.0344507 0
0.0280592 -0.0350545 0
0.0293306 -0.0356877 0
0.0305875 -0.0363488 0
0.0318301 -0.0370367 0
0.0330581 -0.0377501 0
0.0342717 -0.0384879 0
0.0354708 -0.0392489 0
0.0366556 -0.0400321 0
0.0378262 -0.0408363 0
0.0389828 -0.0416607 0
0.0401254 -0.0425042 0
0.0412543 -0.0433659 0
0.0423698 -0.0442451 0
0.043472 -0.0451408 0
0.0445612 -0.0460523 0
0.0456375 -0.0469789 0
0.0467013 -0.0479199 0
0.0477529 -0.0488746 0
0.0487923 -0.0498424 0
0.04982 -0.0508227 0
0.0508362 -0.051815 0
0.051841 -0.0528187 0
0.0528348 -0.0538333 0
0.0538178 -0.0548584 0
0.0547903 -0.0558935 0
0.0557524 -0.0569382 0
0.0567045 -0.0579922 0
0.0576467 -0.0590549 0
0.0585792 -0.0601261 0
0.0595024 -0.0612055 0
0.0604163 -0.0622926 0
0.0613212 -0.0633873 0
0.0622174 -0.0644891 0
0.0631049 -0.0655979 0
0.0639841 -0.0667134 0
0.064855 -0.0678353 0
0.0657179 -0.0689633 0
0.0665729 -0.0700974 0
0.0674202 -0.0712372 0
0.06826 -0.0723826 0
0.0690925 -0.0735333 0
0.0699178 -0.0746892 0
0.070736 -0.0758501 0
0.0715473 -0.0770159 0
0.0723518 -0.0781863 0
0.0731498 -0.0793612 0
0.0739412 -0.0805405 0
0.0747264 -0.081724 0
0.0755053 -0.0829116 0
0.0762781 -0.0841033 0
0.0770449 -0.0852987 0
0.0778059 -0.0864979 0
0.0785611 -0.0877007 0
0.0793108 -0.088907 0
0.0814681 -0.0912706 0
0.0828814 -0.0924245 0
0.0842946 -0.0935783 0
0.0857079 -0.0947322 0
0.0871211 -0.095886 0
0.0885344 -0.0970399 0
0.0899476 -0.0981937 0
0.0913609 -0.0993476 0
0.0927741 -0.100501 0
0.0941874 -0.101655 0
0.0956006 -0.102809 0
0.0970139 -0.103963 0
0.0984272 -0.105117 0
0.0998404 -0.106271 0
0.101254 -0.107424 0
0.102667 -0.108578 0
0.10408 -0.109732 0
0.105493 -0.110886 0
0.106907 -0.11204 0
0.10832 -0.113194 0
0.109733 -0.114348 0
0.111146 -0.115501 0
0.11256 -0.116655 0
0.113973 -0.117809 0
0.115386 -0.118963 0
0.116799 -0.120117 0
0.118213 -0.121271 0
0.119626 -0.122424 0
0.121039 -0.123578 0
0.122452 -0.124732 0
0.123866 -0.125886 0
0.125279 -0.12704 0
0.126692 -0.128194 0
0.128105 -0.129348 0
0.129519 -0.130501 0
0.130932 -0.131655 0
0.132345 -0.132809 0
0.133758 -0.133963 0
0.135172 -0.133216 0
0.135172 -0.131316 0
0.135172 -0.129415 0
0.135172 -0.127514 0
0.135172 -0.125614 0
0.135172 -0.123713 0
0.135172 -0.121813 0
0.135172 -0.119912 0
0.135172 -0.118012 0
0.135172 -0.116111 0
0.135172 -0.11421 0
0.135172 -0.11231 0
0.135172 -0.110409 0
0.135172 -0.108509 0
0.135172 -0.106608 0
0.135172 -0.104708 0
0.135172 -0.102807 0
0.135172 -0.100906 0
0.135172 -0.0990058 0
0.135172 -0.0971052 0
0.135172 -0.0952046 0
0.135172 -0.0933041 0
0.135172 -0.0914035 0
0.135172 -0.0895029 0
0.135172 -0.0876023 0
0.135172 -0.0857017 0
0.135172 -0.0838012 0
0.135172 -0.0819006 0
0.133758 -0.0788462 0
0.132345 -0.0776923 0
0.130932 -0.0765385 0
0.129519 -0.0753846 0
0.128105 -0.0742308 0
0.126692 -0.0730769 0
0.125279 -0.0719231 0
0.123866 -0.0707692 0
0.122452 -0.0696154 0
0.121039 -0.0684615 0
0.119626 -0.0673077 0
0.118213 -0.0661538 0
0.116799 -0.065 0
0.115386 -0.0638462 0
0.113973 -0.0626923 0
0.11256 -0.0615385 0
0.111146 -0.0603846 0
0.109733 -0.0592308 0
0.10832 -0.0580769 0
0.106907 -0.0569231 0
0.105493 -0.0557692 0
0.10408 -0.0546154 0
0.102667 -0.0534615 0
0.101254 -0.0523077 0
0.0998404 -0.0511538 0
0.0984272 -0.05 0
0.0970139 -0.0488462 0
0.0956006 -0.0476923 0
[...]
CELL_DATA 13116
SCALARS rho float
LOOKUP_TABLE default
0.660395
0.690677
0.370593
0.689892
0.691792
0.687046
0.363626
0.690897
0.574051
0.694534
0.364829
0.372908
0.691804
0.365979
0.388822
0.686976
0.659276
0.700515
0.692535
0.362191
0.658739
0.396886
0.374005
0.699626
0.598403
0.685783
0.694629
0.378712
0.591203
0.695178
0.934014
0.371622
0.581198
0.52689
0.36404
0.660076
0.707302
0.690713
0.685538
0.688201
0.693504
0.691608
0.544994
0.364525
0.691247
0.692319
0.68422
0.696879
0.408454
0.562703
0.690508
0.540677
0.359908
0.657932
0.582408
0.587457
0.36425
0.702788
0.565488
0.3971
0.366377
0.69281
0.686922
0.684528
0.828279
0.355958
0.687826
0.715002
0.687602
0.708662
0.388812
0.584656
0.391221
0.361498
1.12432
0.357773
0.687655
0.700134
0.363049
0.703108
0.707665
0.685218
0.698934
0.696765
0.689445
0.496309
0.35841
0.731149
0.686133
0.367583
0.369743
0.691021
0.698137
0.687903
0.698912
0.67797
0.602034
1.08035
1.10364
0.592478
0.717043
0.672559
0.692676
0.495613
0.679152
0.389273
0.467892
0.568069
0.375181
0.595805
0.580109
0.682119
0.677859
0.71199
0.702833
0.688081
0.357532
0.483136
0.701376
0.688336
0.717576
0.393091
0.687833
0.369237
0.688009
0.513892
0.358045
0.548843
0.371579
0.561002
0.70063
0.698952
0.529523
0.404966
0.519116
0.669118
1.12665
0.688541
0.718789
0.688428
0.679568
0.684535
0.550692
0.680292
0.68612
0.374039
0.364388
0.684443
0.69865
0.69032
0.55697
0.696368
0.696788
0.360443
0.694281
0.68932
0.375725
0.711541
1.064
0.73262
0.69971
0.36427
0.697916
0.37501
0.390963
0.691837
0.687226
0.700743
0.363893
0.508227
0.492764
1.12711
0.385706
0.545984
0.687956
0.375606
0.392882
0.393342
0.681928
0.683363
0.366881
0.504729
0.593997
0.708476
0.684424
0.567236
0.355666
0.687647
0.678605
0.528731
0.683395
0.68405
0.671228
0.376535
0.682232
0.685768
0.697162
0.687249
0.685703
0.447424
0.496733
0.597553
0.546326
0.365097
0.705224
0.693297
0.546185
0.682511
0.387434
0.366649
0.356424
0.687084
0.377157
0.366838
0.367164
0.359193
0.473512
0.680718
0.687764
0.490283
0.362502
0.687618
0.578576
0.367282
0.556698
0.69422
0.685401
0.379696
0.687919
0.477893
0.691491
0.372277
0.669824
0.577473
1.1199
0.687247
0.663998
0.409842
0.510142
0.732461
1.12618
0.685622
1.12668
0.663355
0.690598
0.393715
0.689963
0.694191
1.09406
0.365406
0.410326
0.694003
0.700272
0.719236
0.699197
0.656896
0.719161
0.364771
0.418029
0.461549
0.385535
0.677308
0.697309
0.685968
0.360255
0.688799
0.353971
0.493148
0.679949
0.36644
0.685415
0.691138
1.12652
0.70633
0.408747
1.12671
0.709323
1.089
0.68847
0.3631
0.358243
0.377124
0.66777
0.390611
0.410003
0.457157
0.444747
0.690316
0.3615
0.686399
0.691343
0.357193
0.363048
0.354568
0.514371
0.376747
0.728308
0.671471
0.68136
0.366507
0.686215
0.575155
0.413661
0.397102
0.68706
0.699477
0.68741
0.354763
0.685868
0.507691
0.698516
0.691644
0.689281
0.691506
0.376407
0.687597
0.373043
0.687551
0.694232
0.73394
0.365323
0.454709
0.694256
0.355022
0.686502
0.692581
0.428914
0.706403
0.698731
0.356254
0.68961
0.698229
0.369356
0.694853
0.492944
0.567287
0.690872
0.496659
0.711972
0.359988
0.700301
0.456616
0.674464
0.673149
0.696293
0.378733
0.470825
0.689644
0.362803
0.704094
0.679826
0.50114
1.12673
0.357486
0.381337
0.701465
0.559965
0.711588
0.357735
0.375782
0.689889
0.691254
0.364606
0.690945
0.358937
0.394049
0.688019
0.690939
0.576814
0.367794
0.69003
0.870137
0.68672
0.688989
0.709362
0.5591
0.394823
0.381481
0.366271
0.686508
0.366784
0.604834
0.435406
0.374961
0.467552
0.580403
0.209712
0.363265
0.690032
0.368469
0.696288
0.59267
0.694503
0.732083
0.69
0.381243
0.358425
0.455078
0.409412
0.70197
0.673387
0.693359
0.592594
0.687124
0.67844
0.684736
0.677116
0.691204
0.708586
0.703887
0.686971
0.465153
0.546373
0.658934
0.391464
0.671124
0.587782
0.359522
0.688051
1.12671
0.377244
0.363757
0.366238
0.35769
0.597702
0.36892
0.376738
0.687457
0.35478
0.57899
0.367542
0.687581
0.702311
0.379952
0.40248
0.701174
0.512258
0.367901
0.357351
0.367862
0.375812
0.358137
0.364159
0.402205
0.495552
0.365471
0.672201
0.389866
0.687622
0.42416
0.366316
0.524274
0.377254
0.367438
0.377829
0.687386
0.500786
0.594688
0.575667
0.354638
0.680784
0.686447
0.494687
0.706166
0.678457
0.678003
0.357997
1.10685
0.484974
0.706445
1.02143
0.377563
0.362444
0.677864
0.410811
0.495772
0.673877
0.467344
0.712733
0.687219
0.363554
0.39045
0.378148
0.544296
0.394521
0.364188
0.386006
0.371471
0.691139
0.691037
0.517539
0.593724
0.521473
0.681794
0.465939
0.367661
0.575648
0.377759
0.697087
0.42515
0.476358
0.52717
0.691071
0.686676
0.564368
0.425313
0.361973
0.562391
0.690808
0.661774
0.560792
0.681485
0.677171
0.36555
0.701702
0.575412
0.732098
0.451561
0.376878
0.711568
0.697383
0.734383
0.694491
0.686432
0.686764
0.699673
0.733767
0.694365
0.368061
0.690728
0.458634
0.392116
0.367447
0.690139
0.693335
0.452198
0.689115
0.596796
0.365636
0.67543
0.699387
0.707412
0.378379
0.366688
0.703668
0.367915
0.36781
0.382863
0.365765
0.696603
0.367024
0.689448
0.388888
0.69106
0.690526
0.687358
0.691463
0.367926
0.364941
0.694817
0.691539
0.696614
0.691255
0.694177
0.517442
0.356778
0.378136
0.685866
0.569749
0.366275
0.511842
0.374629
0.689636
0.687533
0.451951
0.398644
0.688372
0.499519
0.690175
0.786236
0.370642
0.477237
0.693801
1.12531
0.375103
0.686294
0.687215
0.694283
0.360539
1.1272
0.36251
1.11827
0.734276
0.367806
0.470249
0.407581
1.11468
0.375208
0.361879
0.484859
0.68425
0.702585
0.36228
0.414294
0.366886
0.679533
0.392378
0.685526
0.372615
0.585928
0.694358
0.428407
0.374524
0.374209
0.518562
0.378201
0.686303
0.353591
0.372174
0.68726
0.368591
0.687081
0.685821
1.09969
0.367627
0.697371
0.697057
0.697204
0.686064
0.690391
0.687906
0.382446
0.679435
0.492302
0.694221
0.362563
0.690489
0.562856
0.363357
0.899196
0.705981
0.365683
0.677767
0.371111
0.386597
0.687384
0.687189
0.373314
0.377319
0.362771
0.381776
0.689994
0.699198
0.360953
0.362704
0.70413
0.688684
0.587407
0.696548
0.687576
0.364522
0.695722
0.495996
0.690562
0.483925
0.621553
0.514718
0.687397
0.711719
0.57558
0.462295
0.378126
0.687194
0.589872
0.655712
0.696295
0.381963
0.706191
0.694332
0.47737
0.544373
0.696934
0.43244
0.773863
0.730172
0.451777
0.688761
0.696205
0.374942
0.703346
0.37711
0.68691
0.359496
0.686968
0.686166
0.379187
0.685668
0.696608
0.704582
0.597374
0.700092
0.576108
0.426609
0.50465
0.370017
0.361582
1.12683
0.558713
0.688117
0.70153
0.367756
0.403311
0.70119
0.694372
0.701531
0.690982
0.364016
0.70433
0.694007
0.362692
0.368408
0.701787
0.693737
0.688494
0.380519
0.578472
0.381037
0.703979
0.685666
0.666788
0.691938
0.366078
0.695551
0.686667
0.698658
0.687089
0.693108
0.491264
0.709227
0.366697
0.679616
0.694491
0.508166
0.688138
0.661538
0.690352
0.505901
0.489305
0.578007
0.717317
0.367893
0.367864
0.365761
0.365726
0.692087
0.705924
0.666292
0.44589
0.365189
0.687592
0.711095
0.367392
0.406455
0.512455
0.700652
0.687386
0.689061
0.713647
0.366721
0.36789
1.12672
0.36714
0.366856
0.353719
0.688137
0.380618
0.367813
0.586433
0.694433
0.681671
0.686263
0.687775
0.356998
0.375932
0.365925
0.581713
0.501026
0.3707
0.712841
0.713213
0.687979
0.693761
0.366546
0.367752
0.694549
0.367653
0.692797
0.685812
1.00604
0.373392
0.367874
0.686662
0.913832
0.664872
0.367836
0.690002
0.686253
0.586706
0.690032
0.690338
1.12682
0.681553
0.364206
0.687784
0.781019
0.676718
0.704823
1.12679
0.682213
1.12702
0.688533
0.371556
0.380095
0.367778
0.895257
0.565432
0.367715
0.700592
0.704708
0.370135
0.682041
0.381352
0.685119
0.573038
0.412206
0.693686
0.699942
0.366605
0.553219
0.869495
0.367252
0.688005
0.358938
0.389631
0.67708
0.5947
0.524031
0.692551
0.364732
0.700046
0.387055
0.351033
0.687002
0.366088
0.678906
0.374899
0.681687
0.600891
1.12666
0.686773
0.382066
0.373943
0.676308
0.551172
0.70144
0.535541
0.673604
0.687258
0.698887
0.555664
0.594826
0.681941
0.696764
0.688239
0.460226
0.36783
0.550743
0.682141
0.696851
0.457505
0.692416
0.665363
0.453446
0.373671
0.730106
0.702277
1.12689
1.1192
0.674229
0.709309
0.686506
0.707878
0.377244
0.739895
0.511269
0.688468
0.693333
0.447176
0.690988
0.692756
0.377208
0.403739
0.355074
1.12681
0.36412
0.677531
0.707315
0.740896
0.430821
0.689644
0.366378
0.579271
0.682373
0.670433
0.713249
0.678959
0.62873
0.707193
0.575538
0.693682
0.359921
0.690288
0.687199
0.540289
1.12674
0.705413
0.377246
0.383266
0.367722
0.689365
0.367821
1.1267
0.365125
0.690565
0.363181
0.51515
0.37979
0.707588
0.69101
0.656137
0.423072
0.668765
0.68094
0.367038
0.588007
0.690949
0.368871
0.588266
1.04099
0.69427
0.692647
0.377764
0.566085
0.702801
0.693239
0.680146
0.367805
0.485934
0.690108
1.1267
1.12539
1.12669
0.633015
0.699471
0.613512
0.688625
0.367806
0.366637
1.12669
0.693105
0.685765
0.357164
0.690942
0.661782
0.672298
0.362078
0.487295
0.69099
0.689602
0.571963
0.402472
0.694992
1.12603
0.363899
0.594765
0.714206
0.364055
0.362246
0.37489
0.680428
0.39869
0.368088
0.689551
0.539533
0.696092
0.687111
0.363603
0.357372
0.691479
0.376478
0.369506
0.906336
0.393217
0.467082
0.590003
0.69037
0.697789
0.365473
0.383852
0.365174
0.686288
0.389886
0.697953
0.368916
0.700215
0.688702
0.690597
0.682402
0.695953
0.685221
0.687485
0.691202
0.70016
0.365469
0.366543
0.693872
0.6868
0.525393
0.680864
0.577602
0.685763
0.675446
0.379303
0.688119
0.691909
0.692759
0.365445
0.696249
0.379611
0.696715
0.518511
0.701035
0.685906
0.413816
0.702115
0.366608
0.521611
0.68736
0.353781
0.711311
1.12686
0.69053
0.356995
0.687335
0.366034
0.372852
0.374969
0.367247
0.673478
0.387738
0.681093
0.664569
0.405188
0.376379
0.515702
0.577592
0.682097
0.681124
0.367651
0.35495
0.364525
0.379039
0.418728
0.679831
0.68322
0.378921
0.675385
0.706351
0.373075
0.692418
0.711783
0.673093
0.366041
1.12418
0.699881
0.708816
0.688798
0.394752
0.698626
0.706803
0.696841
0.732781
0.687203
0.416347
0.375398
0.69641
0.547461
0.367831
0.686905
0.378104
0.56838
0.676771
0.686984
0.687515
0.3718
0.680268
0.457666
0.365605
0.70554
0.704717
0.697777
0.689912
0.701326
0.372952
0.69248
0.394784
0.52437
0.691788
1.10498
0.702274
0.365552
0.409534
0.694395
0.42972
0.703626
0.6687
0.500942
0.420052
0.688181
0.375652
0.685874
0.703623
0.695117
0.375472
0.380751
0.543643
0.573932
0.678633
0.533045
0.687508
0.681195
0.687007
1.12686
0.701211
0.361295
0.415981
0.701612
0.686667
0.679789
0.506388
0.362946
0.700855
0.382418
0.687568
0.596225
0.392283
0.701574
0.364407
0.688746
0.371537
0.693844
0.406333
0.696325
0.682853
0.349628
0.688106
0.709479
0.357559
0.665189
0.691894
0.579121
0.375464
0.454012
0.532023
0.697184
0.676014
0.399972
0.576373
0.702063
0.68723
0.433002
0.6735
0.690013
0.497728
0.687641
0.687515
0.444912
0.699595
1.05399
0.369151
0.676091
0.359404
0.683918
0.360852
0.391116
0.697459
0.367845
0.36704
0.379507
0.687468
0.68801
0.470853
0.695043
0.457174
0.695428
0.366212
0.689129
0.439778
0.687286
0.696947
0.689652
0.666606
0.554804
0.683464
0.672181
0.375983
0.644302
0.693449
0.626214
0.700667
0.518837
0.489958
0.692213
0.366799
0.578923
0.381989
0.693009
0.363982
0.376613
0.700208
0.687703
0.36385
0.688726
0.712704
1.12678
0.690528
1.11856
0.364528
0.692892
0.365646
0.376017
0.687218
0.712569
0.691249
0.688118
0.379578
0.360084
0.364915
0.690505
0.663323
0.454585
0.690809
0.356567
0.358578
0.359012
0.686421
0.484713
0.693038
0.700443
0.609373
0.686948
0.699329
0.628279
0.683925
0.493907
0.3663
0.364313
1.12019
1.12585
0.35876
0.6791
0.679363
0.68521
0.377515
0.50993
0.681946
0.402375
0.680411
0.671756
0.366429
0.680222
0.692617
0.367842
0.697311
0.367477
0.688214
0.695091
0.695666
0.384138
0.506004
0.711003
0.449002
0.495118
0.686799
0.454438
0.68018
0.688227
0.685077
0.710001
0.397191
0.939721
0.706176
0.692902
0.46901
0.689753
0.391082
0.372357
0.689559
0.687439
0.664354
0.357555
0.686451
0.593352
1.12488
0.355141
0.359214
0.367913
0.689386
0.364104
0.368763
0.373226
0.671568
0.368679
0.446079
0.496319
0.697773
0.367539
0.655877
0.680403
0.687778
0.355999
0.698931
0.72502
0.674386
0.489082
0.736537
0.364484
0.367082
0.68724
0.363648
0.677807
0.702703
1.12665
0.367594
0.454997
0.365812
0.561568
1.12679
0.359057
0.69109
0.687466
0.706117
0.366609
0.392315
0.459296
0.675969
0.367166
1.12687
0.592657
0.681214
0.690008
0.363414
0.678807
0.38079
0.669939
0.67643
0.694537
0.669149
0.640542
0.729308
0.68023
0.699184
0.362369
0.42344
0.355599
0.7015
0.571239
1.09938
0.367429
0.49007
0.709482
0.698656
0.710046
0.364134
0.68815
0.560431
0.563951
0.676734
0.377376
0.364327
0.446652
0.687485
0.670566
0.73822
0.68159
0.460289
0.690541
0.746169
0.673473
0.666296
0.69038
0.692298
0.686177
0.711367
0.699588
0.377984
0.698055
0.689994
0.688125
0.70007
0.687313
0.66744
0.365913
0.388007
0.677824
0.3678
0.399818
0.688262
0.380335
0.590892
0.68733
0.689181
0.692922
0.378084
0.68858
0.375293
0.363251
0.686247
0.698435
0.69311
0.354132
0.690822
0.692814
0.678096
0.687627
0.393283
0.688174
0.694456
0.693514
0.450535
0.698915
0.365638
0.688745
0.355007
0.366328
0.660128
0.508796
0.693786
0.700368
0.690956
0.372948
0.687879
0.473043
0.38286
0.684764
0.515324
0.367753
0.693224
0.400939
0.529673
0.721422
0.683366
0.688176
0.517149
0.585054
0.720707
0.685288
0.667884
0.697919
0.548527
0.689964
0.681451
0.705791
0.379381
0.36336
0.506855
0.689789
0.377385
0.73374
0.688521
0.679543
0.685498
0.647799
0.711726
0.708008
0.365876
0.688763
0.679004
0.64584
0.679053
0.693748
0.686426
0.687179
0.366688
0.375946
0.695174
0.573968
0.645201
0.688665
0.69633
0.695679
0.697368
0.695508
0.681302
0.680672
0.694699
0.374914
0.387785
0.365576
0.387298
1.12649
0.521594
0.610326
0.701023
0.708772
0.376714
0.693393
0.68962
0.353339
0.478993
1.12587
0.691621
0.378221
0.378405
0.382791
1.12686
0.686028
0.452784
0.361725
0.365858
0.397467
0.427214
0.367806
0.691757
0.696957
0.701102
0.362852
0.689312
0.674441
0.594199
0.425884
0.363004
0.684731
1.1269
0.367737
0.687459
0.367829
0.700285
0.377758
0.687838
0.359725
0.688307
0.69136
0.357708
0.565196
0.427819
0.692382
0.390734
0.675517
0.378133
0.55628
0.364722
0.672868
0.367163
0.67928
0.666958
0.594075
0.695448
0.427034
0.688945
0.685252
0.691081
0.675081
0.696537
0.363355
0.505143
0.356958
0.69796
0.429679
0.69419
0.56084
0.712968
0.694092
0.568686
0.709017
0.384157
0.3621
0.374748
0.552988
0.661699
0.69572
0.366548
0.408137
0.686866
0.478821
0.376269
0.665606
0.476585
0.367806
0.386054
0.691426
0.760311
0.676544
0.36963
0.688524
0.687472
0.336807
0.453539
0.687078
0.687828
0.668975
0.533119
0.487847
0.468974
0.36083
0.689871
0.67672
0.571853
0.712007
0.391571
0.586673
0.364192
0.812405
0.692656
0.364248
0.42742
0.679457
0.664965
0.691035
0.70035
0.696758
0.688584
0.692138
0.357202
0.393366
0.356299
0.36317
0.659227
0.986539
0.766568
0.363898
0.367548
0.533055
0.35806
0.695745
0.683017
0.36699
0.44868
0.687333
0.374613
0.716652
0.704476
0.686462
0.687813
0.661374
0.367804
0.357955
0.679126
0.364713
0.51259
0.466372
0.686903
0.687357
0.436583
0.366576
1.12675
0.367101
0.687805
0.697951
0.36787
0.376727
0.361735
0.691563
0.357987
1.12683
0.706364
0.679008
0.364969
0.545523
0.703129
0.68983
0.363119
0.690324
0.67846
0.370926
0.702214
0.689516
0.36541
0.367908
0.686105
0.366643
0.362976
0.689882
0.462811
0.695404
0.710328
0.698889
0.679943
0.69466
0.688021
0.68449
0.36451
0.486393
0.682102
0.697074
0.504882
0.693033
0.452184
0.688235
0.688372
0.585756
0.712489
0.50483
0.513368
0.693584
0.704556
0.681165
0.691513
0.686618
1.12697
0.690257
1.12679
0.690025
0.685082
0.689849
1.12694
0.684825
0.369319
0.685487
0.375003
0.688121
0.696032
0.710928
0.684837
0.707786
0.375047
0.363742
0.452751
0.363273
0.686397
0.360503
0.366053
0.707381
0.374309
0.71088
0.362183
0.68947
0.698721
0.367895
0.478109
0.394159
0.689423
0.365644
0.695217
0.702189
0.365092
0.68459
0.566779
0.404112
0.378116
0.337523
0.706515
0.367903
0.688483
0.648346
0.429575
0.689392
0.693584
0.697074
0.36779
0.586029
0.379152
0.68977
0.687058
0.687996
0.367851
0.69691
0.688586
0.681544
0.493829
0.689214
0.36779
0.365685
0.687614
0.518706
0.694397
0.49251
0.36785
0.498649
0.683484
0.3755
0.364593
0.360863
0.571824
1.11382
0.700726
0.368212
0.673462
0.690272
0.560256
0.531323
0.389404
0.568039
0.367853
0.364511
0.692356
0.366021
0.36768
0.689674
0.690705
0.353409
0.70149
0.357695
1.12666
0.379182
0.685483
0.705798
0.703021
0.68046
0.38746
0.364696
0.376184
0.687143
0.685405
0.583597
0.5669
0.472994
0.442375
0.689962
0.36472
0.69597
0.474891
0.668649
0.714636
0.356805
0.367304
0.365983
0.366363
0.370576
0.679263
0.687367
0.360363
0.699619
0.688462
0.430167
0.383152
0.690837
0.367644
0.698144
0.492286
0.706294
0.724467
0.698808
1.09906
0.379327
0.695117
0.687878
0.691354
0.367808
0.677398
0.589398
0.398161
0.689873
0.687044
0.691167
0.688006
0.692327
0.687115
0.691558
0.688082
0.692199
0.368035
0.697495
0.365996
0.541154
0.686763
0.376914
0.689294
0.678337
0.408642
0.681685
0.367859
0.370887
0.687502
0.675314
0.6909
0.366175
0.687614
0.593178
0.378711
0.361427
0.687271
0.687509
0.479096
0.366698
0.70831
0.690851
0.367861
0.695976
0.6914
0.781862
0.35397
0.367806
0.376374
0.728712
0.408386
0.690652
0.702456
0.69146
0.673762
0.698747
0.366349
0.687461
0.59747
0.69115
0.669078
0.376305
0.364104
0.391654
0.699434
0.70247
0.490108
0.721682
0.385114
0.690497
0.688237
0.383708
0.677859
0.69094
0.681876
0.361075
0.358763
0.38825
0.70326
0.694427
0.589982
0.533316
0.698384
0.367679
0.688036
1.12593
0.697211
0.360459
0.597706
0.410526
0.679277
0.394251
0.694343
0.687836
0.368196
0.702571
0.543987
1.12685
0.690232
1.12686
0.689129
0.503437
0.687956
0.694157
0.68745
0.694853
0.511068
1.12669
0.363814
0.694703
0.390257
0.366759
0.400281
0.369714
0.367882
0.360474
0.691623
0.471451
0.371307
0.708625
0.702859
0.687536
0.458918
0.716335
0.71465
0.687428
0.370439
0.670177
0.687951
0.396147
0.368114
0.364792
0.6836
0.527517
0.367812
0.669402
0.361442
1.10787
0.524382
0.358199
0.512734
0.718713
0.391516
0.687614
0.387202
0.610431
0.477035
0.689571
0.482835
0.699659
1.12661
0.67714
0.530234
0.365275
0.690118
0.691581
0.370554
0.372772
0.68727
0.366024
0.699491
0.363636
0.566247
0.389858
0.687884
0.391509
0.691439
0.366321
0.6883
0.699589
0.702442
1.12636
0.363729
0.376576
0.454802
0.68661
0.707006
0.682792
0.662678
0.40441
0.708241
0.390433
0.685557
0.67309
0.488781
0.422602
0.698739
0.69379
0.378535
0.829004
0.690418
0.700985
0.698798
0.389494
0.690089
0.366848
0.702615
0.407564
0.674212
0.683868
0.690488
0.69143
0.431219
0.690341
0.367733
0.365902
0.687795
1.12598
0.577735
0.695007
1.12667
0.367625
0.70096
0.688874
0.690834
0.373243
0.50397
0.719087
0.359845
0.689192
0.688427
0.689375
0.689511
0.420544
0.528808
0.727873
0.370761
0.688092
0.691347
0.543379
0.687296
0.428349
0.679867
0.700719
0.711775
0.68789
0.358917
0.376517
0.696089
0.689952
0.40348
0.43418
0.388129
0.373755
0.370382
0.362227
0.378123
0.36781
0.696148
0.389717
0.353773
0.707322
0.578912
1.12676
0.488244
0.36717
0.690165
0.534369
0.57898
0.694555
0.479239
0.738536
0.654173
0.596046
0.689899
0.364207
0.700851
0.681242
0.366005
0.365476
0.492452
0.67741
0.596546
0.692794
0.687114
0.697696
0.691332
0.420969
0.701547
0.683763
0.688626
0.366246
0.688181
0.671311
0.416813
0.502426
0.360795
0.379906
0.370272
0.590021
0.72187
0.69486
0.364825
0.482283
0.691448
0.358998
0.703105
0.694437
0.6894
0.712236
0.698252
0.393766
0.379768
0.382962
0.642819
0.405539
0.696972
0.38344
0.687231
0.687385
0.698413
0.384856
0.525485
0.501345
0.699108
0.363665
0.364622
0.688415
0.689618
0.677343
0.687238
0.687362
0.700212
0.367805
0.597701
0.693605
0.543257
0.698071
0.705205
0.699955
0.499518
0.489613
0.691159
0.522985
0.675586
0.366918
0.685938
0.689747
0.451319
0.409585
0.689692
0.547319
0.703542
0.703298
0.367894
0.363371
1.04322
0.526059
0.46774
0.689397
0.687236
0.414321
0.690176
1.03866
0.685055
0.36794
0.590431
0.367785
0.687084
0.693348
0.70145
0.694036
0.969637
0.446613
0.450713
0.698213
0.367261
0.594601
0.425572
0.69929
0.37256
0.70255
0.695563
1.06609
0.367818
1.12682
1.12247
0.3639
0.686317
0.344755
0.691614
0.36779
0.35803
0.379516
0.700345
0.690603
0.451567
0.451388
0.684707
0.692065
0.516195
0.704631
0.367893
0.574429
0.366912
0.696668
0.364294
0.707309
0.687025