# vtk DataFile Version 1.0
unstructured grid
ascii
DATASET UNSTRUCTURED_GRID
points 13672 float
0.0796578 -0.059106 0
0.00128732 0.00159165 0
0.00227961 -0.00102548 0
0.0791586 -0.0598787 0
-0.0546216 0.01 0
0.000495206 0.025 0
0.0800549 -0.035 0
0.135172 -0.08 0
-0.0546216 -0.0451168 0
0.000495206 -0.0301168 0
0.0800549 -0.0901168 0
0.135172 -0.135117 0
-0.0546216 -0.0451168 -0.00551168
0.000495206 -0.0301168 -0.00551168
0.0800549 -0.0901168 -0.00551168
0.135172 -0.135117 -0.00551168
0.135172 -0.08 -0.00551168
0.0800549 -0.035 -0.00551168
0.000495206 0.025 -0.00551168
-0.0546216 0.01 -0.00551168
0.00128732 0.00159165 -0.00551168
0.00227961 -0.00102548 -0.00551168
0.0791586 -0.0598787 -0.00551168
0.0796578 -0.059106 -0.00551168
0.00165953 -0.000990923 0
0.00119576 -0.000874076 0
0.000866021 -0.000641801 0
0.000645147 -0.000349912 0
0.00052235 -1.7281e-05 0
0.00049972 0.000348016 0
0.000601632 0.000737716 0
0.000861774 0.0011403 0
0.00157235 0.00183217 0
0.00188647 0.00206725 0
0.00222612 0.00230203 0
0.00258713 0.00254351 0
0.00296826 0.00279524 0
0.00337118 0.00305664 0
0.00379785 0.00332658 0
0.00425045 0.00360349 0
0.00473139 0.00388521 0
0.0052432 0.00416895 0
0.0057881 0.00445204 0
0.00636753 0.00473281 0
0.00698281 0.00500961 0
0.00763526 0.00528058 0
0.00832616 0.00554366 0
0.00905691 0.00579603 0
0.00982918 0.00603333 0
0.0106445 0.00625033 0
0.0115038 0.00644128 0
0.0124073 0.00660297 0
0.0133543 0.00673414 0
0.0143444 0.00683382 0
0.0153769 0.00690031 0
0.0164512 0.00693173 0
0.0175666 0.00692547 0
0.0187219 0.00687822 0
0.0199156 0.00678477 0
0.0211454 0.00663864 0
0.0224084 0.00643275 0
0.0237018 0.00616676 0
0.0250249 0.00584739 0
0.026375 0.00547298 0
0.0277479 0.00503752 0
0.0291386 0.00453545 0
0.0305433 0.0039653 0
0.0319572 0.0033256 0
0.0333681 0.00260019 0
0.034775 0.00179799 0
0.0361793 0.000930615 0
0.0375798 3.12222e-06 0
0.0389689 -0.000988429 0
0.0403357 -0.00205109 0
0.041675 -0.00318283 0
0.0429849 -0.00437751 0
0.0442643 -0.00562904 0
0.0455126 -0.00693089 0
0.0467314 -0.00827518 0
0.0479204 -0.00965638 0
0.0490661 -0.0110799 0
0.0501515 -0.0125519 0
0.0511696 -0.0140695 0
0.0521492 -0.0156071 0
0.0531202 -0.0171411 0
0.0540851 -0.0186663 0
0.0550431 -0.0201798 0
0.0559923 -0.0216793 0
0.0569311 -0.0231626 0
0.0578582 -0.0246273 0
0.0587723 -0.0260715 0
0.0596721 -0.027493 0
0.0605563 -0.02889 0
0.0614241 -0.0302609 0
0.0622742 -0.0316042 0
0.063106 -0.0329183 0
0.0639186 -0.034202 0
0.0647113 -0.0354543 0
0.0654835 -0.0366743 0
0.0662345 -0.0378613 0
0.0669642 -0.0390145 0
0.0676726 -0.0401333 0
0.0683597 -0.0412172 0
0.0690246 -0.0422665 0
0.0696662 -0.0432819 0
0.0702841 -0.0442636 0
0.0708793 -0.0452111 0
0.0714538 -0.0461237 0
0.072009 -0.047001 0
0.0725452 -0.0478434 0
0.0730611 -0.0486524 0
0.073556 -0.0494294 0
0.0740291 -0.0501756 0
0.0744812 -0.0508916 0
0.0749138 -0.0515773 0
0.0753285 -0.0522331 0
0.0757266 -0.0528592 0
0.076109 -0.0534564 0
0.0764753 -0.0540264 0
0.0768243 -0.054571 0
0.0771553 -0.0550919 0
0.0774679 -0.0555901 0
0.0777617 -0.0560669 0
0.0780369 -0.056523 0
0.0782958 -0.0569578 0
0.0785421 -0.0573703 0
0.0787786 -0.0577603 0
0.0790073 -0.0581279 0
0.0792295 -0.058474 0
0.0794462 -0.0587995 0
0.0798803 -0.0594162 0
0.0800272 -0.0596588 0
0.0800357 -0.0598891 0
0.0799275 -0.0600784 0
0.0797205 -0.0601773 0
0.0794593 -0.0601051 0
0.0789155 -0.0596491 0
0.0786707 -0.0593963 0
0.0784111 -0.0591319 0
0.0781372 -0.0588542 0
0.0778566 -0.0585548 0
0.0775715 -0.0582308 0
0.0772803 -0.0578828 0
0.0769832 -0.0575099 0
0.0766822 -0.0571097 0
0.0763801 -0.0566796 0
0.0760759 -0.0562196 0
0.0757623 -0.0557337 0
0.0754359 -0.0552232 0
0.0750951 -0.0546879 0
0.0747379 -0.054128 0
0.0743626 -0.0535435 0
0.0739688 -0.0529338 0
0.0735559 -0.0522981 0
0.0731238 -0.0516357 0
0.0726718 -0.050946 0
0.0721991 -0.0502288 0
0.0717046 -0.049484 0
0.0711872 -0.0487117 0
0.0706461 -0.047912 0
0.0700804 -0.0470849 0
0.0694892 -0.0462308 0
0.0688718 -0.0453499 0
0.0682271 -0.0444431 0
0.0675544 -0.043511 0
0.0668527 -0.0425546 0
0.0661215 -0.0415748 0
0.06536 -0.040573 0
0.0645676 -0.0395504 0
0.0637439 -0.0385087 0
0.0628887 -0.0374493 0
0.062002 -0.0363741 0
0.0610838 -0.0352847 0
0.0601345 -0.0341831 0
0.0591547 -0.033071 0
0.0581456 -0.0319502 0
0.0571083 -0.0308224 0
0.0560444 -0.0296893 0
0.0549562 -0.028552 0
0.053845 -0.0274126 0
0.0527113 -0.0262746 0
0.051554 -0.0251427 0
0.0503724 -0.0240222 0
0.0491675 -0.0229164 0
0.047941 -0.0218282 0
0.0466955 -0.0207597 0
0.0454337 -0.0197126 0
0.0441592 -0.0186878 0
0.0428751 -0.0176863 0
0.0415841 -0.0167097 0
0.0402878 -0.0157609 0
0.0389879 -0.0148428 0
0.0376864 -0.0139575 0
0.0363853 -0.013107 0
0.0350871 -0.0122931 0
0.0337942 -0.0115164 0
0.0325095 -0.0107772 0
0.0312357 -0.0100756 0
0.0299758 -0.00941024 0
0.0287337 -0.00877784 0
0.0275126 -0.00817571 0
0.0263139 -0.00760375 0
0.0251376 -0.00706528 0
0.0239829 -0.0065649 0
0.0228537 -0.00609619 0
0.0217522 -0.00565563 0
0.0206795 -0.00524226 0
0.0196364 -0.00485507 0
0.0186233 -0.00449318 0
0.0176408 -0.00415577 0
0.016689 -0.00384204 0
0.0157682 -0.00355115 0
0.0148783 -0.00328218 0
0.0140192 -0.00303468 0
0.0131906 -0.00280795 0
0.0123925 -0.00260016 0
0.0116246 -0.00241012 0
0.0108864 -0.00223769 0
0.0101774 -0.00208212 0
0.00949701 -0.00194206 0
0.00884483 -0.0018163 0
0.0082202 -0.0017039 0
0.00762247 -0.00160391 0
0.00705097 -0.00151528 0
0.006505 -0.00143697 0
0.0059838 -0.00136806 0
0.00548662 -0.00130772 0
0.00501265 -0.00125519 0
0.00456114 -0.00120954 0
0.00413136 -0.00116914 0
0.00372257 -0.00113251 0
0.00333398 -0.00109853 0
0.00296466 -0.00106798 0
0.00261363 -0.0010431 0
-0.052721 -0.0445996 0
-0.0508204 -0.0440823 0
-0.0489199 -0.0435651 0
-0.0470193 -0.0430478 0
-0.0451187 -0.0425306 0
-0.0432181 -0.0420134 0
-0.0413175 -0.0414961 0
-0.039417 -0.0409789 0
-0.0375164 -0.0404616 0
-0.0356158 -0.0399444 0
-0.0337152 -0.0394271 0
-0.0318146 -0.0389099 0
-0.0299141 -0.0383927 0
-0.0280135 -0.0378754 0
-0.0261129 -0.0373582 0
-0.0242123 -0.0368409 0
-0.0223117 -0.0363237 0
-0.0204112 -0.0358065 0
-0.0185106 -0.0352892 0
-0.01661 -0.034772 0
-0.0147094 -0.0342547 0
-0.0128088 -0.0337375 0
-0.0109083 -0.0332202 0
-0.00900769 -0.032703 0
-0.00710711 -0.0321858 0
-0.00520653 -0.0316685 0
-0.00330595 -0.0311513 0
-0.00140537 -0.030634 0
0.00190689 -0.0299614 0
0.00332271 -0.0298498 0
0.00474133 -0.0297825 0
0.00616136 -0.0297597 0
0.0075814 -0.0297814 0
0.00900007 -0.0298477 0
0.010416 -0.0299583 0
0.0118278 -0.0301127 0
0.0132342 -0.0303103 0
0.0146339 -0.0305504 0
0.0160259 -0.0308322 0
0.0174091 -0.0311546 0
0.0187824 -0.0315166 0
0.020145 -0.031917 0
0.0214961 -0.0323546 0
0.0228351 -0.032828 0
0.0241613 -0.0333361 0
0.0254744 -0.0338774 0
0.0267738 -0.0344507 0
0.0280592 -0.0350545 0
0.0293306 -0.0356877 0
0.0305875 -0.0363488 0
0.0318301 -0.0370367 0
0.0330581 -0.0377501 0
0.0342717 -0.0384879 0
0.0354708 -0.0392489 0
0.0366556 -0.0400321 0
0.0378262 -0.0408363 0
0.0389828 -0.0416607 0
0.0401254 -0.0425042 0
0.0412543 -0.0433659 0
0.0423698 -0.0442451 0
0.043472 -0.0451408 0
0.0445612 -0.0460523 0
0.0456375 -0.0469789 0
0.0467013 -0.0479199 0
0.0477529 -0.0488746 0
0.0487923 -0.0498424 0
0.04982 -0.0508227 0
0.0508362 -0.051815 0
0.051841 -0.0528187 0
0.0528348 -0.0538333 0
0.0538178 -0.0548584 0
0.0547903 -0.0558935 0
0.0557524 -0.0569382 0
0.0567045 -0.0579922 0
0.0576467 -0.0590549 0
0.0585792 -0.0601261 0
0.0595024 -0.0612055 0
0.0604163 -0.0622926 0
0.0613212 -0.0633873 0
0.0622174 -0.0644891 0
0.0631049 -0.0655979 0
0.0639841 -0.0667134 0
0.064855 -0.0678353 0
0.0657179 -0.0689633 0
0.0665729 -0.0700974 0
0.0674202 -0.0712372 0
0.06826 -0.0723826 0
0.0690925 -0.0735333 0
0.0699178 -0.0746892 0
0.070736 -0.0758501 0
0.0715473 -0.0770159 0
0.0723518 -0.0781863 0
0.0731498 -0.0793612 0
0.0739412 -0.0805405 0
0.0747264 -0.081724 0
0.0755053 -0.0829116 0
0.0762781 -0.0841033 0
0.0770449 -0.0852987 0
0.0778059 -0.0864979 0
0.0785611 -0.0877007 0
0.0793108 -0.088907 0
0.0814681 -0.0912706 0
0.0828814 -0.0924245 0
0.0842946 -0.0935783 0
0.0857079 -0.0947322 0
0.0871211 -0.095886 0
0.0885344 -0.0970399 0
0.0899476 -0.0981937 0
0.0913609 -0.0993476 0
0.0927741 -0.100501 0
0.0941874 -0.101655 0
0.0956006 -0.102809 0
0.0970139 -0.103963 0
0.0984272 -0.105117 0
0.0998404 -0.106271 0
0.101254 -0.107424 0
0.102667 -0.108578 0
0.10408 -0.109732 0
0.105493 -0.110886 0
0.106907 -0.11204 0
0.10832 -0.113194 0
0.109733 -0.114348 0
0.111146 -0.115501 0
0.11256 -0.116655 0
0.113973 -0.117809 0
0.115386 -0.118963 0
0.116799 -0.120117 0
0.118213 -0.121271 0
0.119626 -0.122424 0
0.121039 -0.123578 0
0.122452 -0.124732 0
0.123866 -0.125886 0
0.125279 -0.12704 0
0.126692 -0.128194 0
0.128105 -0.129348 0
0.129519 -0.130501 0
0.130932 -0.131655 0
0.132345 -0.132809 0
0.133758 -0.133963 0
0.135172 -0.133216 0
0.135172 -0.131316 0
0.135172 -0.129415 0
0.135172 -0.127514 0
0.135172 -0.125614 0
0.135172 -0.123713 0
0.135172 -0.121813 0
0.135172 -0.119912 0
0.135172 -0.118012 0
0.135172 -0.116111 0
0.135172 -0.11421 0
0.135172 -0.11231 0
0.135172 -0.110409 0
0.135172 -0.108509 0
0.135172 -0.106608 0
0.135172 -0.104708 0
0.135172 -0.102807 0
0.135172 -0.100906 0
0.135172 -0.0990058 0
0.135172 -0.0971052 0
0.135172 -0.0952046 0
0.135172 -0.0933041 0
0.135172 -0.0914035 0
0.135172 -0.0895029 0
0.135172 -0.0876023 0
0.135172 -0.0857017 0
0.135172 -0.0838012 0
0.135172 -0.0819006 0
0.133758 -0.0788462 0
0.132345 -0.0776923 0
0.130932 -0.0765385 0
0.129519 -0.0753846 0
0.128105 -0.0742308 0
0.126692 -0.0730769 0
0.125279 -0.0719231 0
0.123866 -0.0707692 0
0.122452 -0.0696154 0
0.121039 -0.0684615 0
0.119626 -0.0673077 0
0.118213 -0.0661538 0
0.116799 -0.065 0
0.115386 -0.0638462 0
0.113973 -0.0626923 0
0.11256 -0.0615385 0
0.111146 -0.0603846 0
0.109733 -0.0592308 0
0.10832 -0.0580769 0
0.106907 -0.0569231 0
0.105493 -0.0557692 0
0.10408 -0.0546154 0
0.102667 -0.0534615 0
0.101254 -0.0523077 0
0.0998404 -0.0511538 0
0.0984272 -0.05 0
0.0970139 -0.0488462 0
0.0956006 -0.0476923 0
[...]
CELL_DATA 13116
SCALARS rho float
LOOKUP_TABLE default
0.5977
0.680609
0.503532
0.687473
0.689595
0.680837
0.382794
0.691821
0.5977
0.692937
0.368677
0.508894
0.689791
0.45006
0.467147
0.680856
0.5977
0.597599
0.680865
0.367882
0.5977
0.510077
0.489249
0.661743
0.5977
0.69527
0.6931
0.564349
0.5977
0.5977
0.668644
0.496602
0.5977
0.597699
0.388595
0.5977
0.5977
0.680848
0.68088
0.69176
0.680913
0.691157
0.5977
0.478834
0.680859
0.681088
0.693108
0.680516
0.497763
0.5977
0.689871
0.5977
0.410314
0.5977
0.5977
0.5977
0.476483
0.678998
0.5977
0.483099
0.453587
0.690666
0.680015
0.680875
0.674067
0.428876
0.680748
0.5977
0.681126
0.679572
0.466476
0.5977
0.515163
0.456717
0.889058
0.434338
0.597702
0.687087
0.370332
0.597703
0.596864
0.697858
0.698163
0.680725
0.689306
0.58273
0.394588
0.5977
0.697907
0.368007
0.506746
0.681434
0.700525
0.695954
0.5977
0.5977
0.5977
0.685269
0.74349
0.5977
0.5977
0.597703
0.680907
0.597698
0.703643
0.492024
0.56284
0.5977
0.526532
0.5977
0.5977
0.697608
0.5977
0.597691
0.597705
0.680558
0.415417
0.58471
0.687488
0.689491
0.5977
0.528719
0.681168
0.507032
0.696118
0.597712
0.400326
0.5977
0.503879
0.5977
0.688119
0.680548
0.597708
0.502258
0.597683
0.5977
1.12696
0.68903
0.5977
0.690035
0.5977
0.688736
0.5977
0.5977
0.62484
0.46633
0.386275
0.697176
0.688542
0.690885
0.5977
0.680739
0.680549
0.398588
0.691597
0.692106
0.502785
0.5977
0.700989
0.5977
0.658557
0.368723
0.689562
0.505428
0.535016
0.690128
0.696321
0.597694
0.386387
0.593662
0.584749
1.12649
0.463984
0.5977
0.680823
0.488912
0.481437
0.513827
0.697301
0.680981
0.367917
0.59731
0.5977
0.5977
0.680761
0.5977
0.398189
0.68072
0.699035
0.597701
0.5977
0.696994
0.68079
0.513372
0.696058
0.680814
0.694853
0.680573
0.698054
0.597699
0.597699
0.5977
0.597699
0.463566
0.68659
0.680952
0.5977
0.5977
0.474083
0.367747
0.431252
0.680972
0.510156
0.367579
0.367623
0.403222
0.580133
0.680694
0.696213
0.578417
0.469153
0.680761
0.5977
0.36797
0.5977
0.691149
0.600911
0.569316
0.680798
0.570099
0.692234
0.497976
0.680734
0.5977
0.786829
0.694792
0.680927
0.505859
0.597713
0.5977
0.998228
0.680816
1.12686
0.680572
0.693506
0.486426
0.689234
0.691452
0.719965
0.375301
0.501612
0.68088
0.686949
0.680152
0.681054
0.5977
0.5977
0.368031
0.520495
0.597711
0.471882
0.701811
0.694586
0.597702
0.379397
0.680704
0.411179
0.582519
0.703961
0.374726
0.696677
0.690091
1.08962
0.678931
0.503264
1.10616
0.589109
0.694163
0.686889
0.36835
0.387101
0.515029
0.5977
0.524591
0.517972
0.554707
0.545659
0.680988
0.419108
0.696864
0.689603
0.388194
0.367895
0.406218
0.597711
0.538085
0.5977
0.5977
0.699042
0.372399
0.68082
0.5977
0.526988
0.482083
0.680748
0.686782
0.680658
0.402847
0.680789
0.597699
0.680687
0.690596
0.691012
0.690439
0.516672
0.68068
0.447553
0.680986
0.692501
0.5977
0.368089
0.553185
0.69076
0.406508
0.699603
0.690975
0.594696
0.5977
0.695677
0.395908
0.68087
0.700506
0.446107
0.687542
0.580692
0.5977
0.696068
0.582431
0.5977
0.379119
0.58766
0.55734
0.680504
0.665832
0.694717
0.56464
0.566409
0.686677
0.395239
0.686255
0.699561
0.596617
1.12671
0.395546
0.494988
0.679541
0.5977
0.5977
0.392217
0.506199
0.689033
0.689718
0.381498
0.689377
0.429765
0.496722
0.681687
0.695025
0.5977
0.367793
0.685376
0.66737
0.680778
0.679705
0.686484
0.5977
0.594909
0.463278
0.368019
0.680781
0.368054
0.5977
0.594344
0.510258
0.563119
0.5977
0.515145
0.39065
0.679722
0.515532
0.691483
0.5977
0.680914
0.5977
0.689105
0.49885
0.384766
0.597699
0.579919
0.679556
0.5977
0.680956
0.5977
0.626826
0.5977
0.698299
0.5977
0.5977
0.685009
0.597701
0.680834
0.597713
0.5977
0.5977
0.501001
0.5977
0.5977
0.408173
0.680788
1.10265
0.518636
0.367925
0.367695
0.389931
0.5977
0.427695
0.513254
0.680849
0.428141
0.5977
0.367656
0.680825
0.664074
0.566483
0.502621
0.679611
0.597692
0.36773
0.389354
0.367854
0.529355
0.38534
0.367892
0.526008
0.58482
0.36736
0.597704
0.561412
0.698301
0.597705
0.506246
0.596991
0.469576
0.367934
0.471858
0.691288
0.591371
0.5977
0.5977
0.422779
0.5977
0.697514
0.581905
0.5977
0.5977
0.5977
0.384078
0.788695
0.584391
0.687283
0.669506
0.530533
0.416685
0.698625
0.585298
0.581946
0.693547
0.562355
0.5977
0.668676
0.36789
0.47677
0.451214
0.597699
0.478019
0.432273
0.463472
0.444934
0.689021
0.690264
0.597711
0.5977
0.597709
0.696233
0.571773
0.420793
0.5977
0.533252
0.680758
0.547056
0.572035
0.597709
0.680769
0.696765
0.5977
0.595022
0.411756
0.5977
0.691369
0.680847
0.5977
0.711197
0.703371
0.367488
0.653486
0.5977
0.5977
0.554758
0.536021
0.597704
0.696324
0.5977
0.692669
0.699182
0.696315
0.618008
0.5977
0.68087
0.36807
0.680738
0.560389
0.480868
0.367832
0.688764
0.681141
0.548923
0.695497
0.5977
0.368055
0.681005
0.683675
0.680327
0.560703
0.416056
0.687455
0.367535
0.367837
0.478074
0.3676
0.681126
0.439647
0.687666
0.556063
0.680668
0.689848
0.680738
0.689838
0.367683
0.367937
0.681059
0.69222
0.5977
0.689401
0.691712
0.594199
0.391672
0.541049
0.680622
0.5977
0.367718
0.59759
0.509632
0.694756
0.681003
0.552776
0.515373
0.698754
0.584157
0.680208
0.5977
0.498085
0.569836
0.5977
1.02881
0.509382
0.696825
0.696249
0.68111
0.42147
1.12596
0.467384
0.845755
0.5977
0.36786
0.578846
0.519822
0.778918
0.527103
0.377905
0.587534
0.681012
0.680674
0.375429
0.517302
0.367944
0.681048
0.520102
0.6808
0.463608
0.5977
0.691748
0.597705
0.501436
0.493286
0.59467
0.544846
0.696428
0.412158
0.434697
0.680547
0.433434
0.68085
0.699089
0.719826
0.367646
0.681015
0.69636
0.69383
0.680696
0.696757
0.67952
0.483264
0.680572
0.579818
0.681105
0.368833
0.693047
0.5977
0.393257
0.665784
0.687828
0.400911
0.5977
0.505868
0.462434
0.680934
0.689326
0.510394
0.472786
0.372225
0.48382
0.695476
0.65947
0.41699
0.368685
0.686245
0.690689
0.5977
0.695072
0.680976
0.3682
0.693754
0.587483
0.689797
0.592563
0.5977
0.595025
0.680734
0.5977
0.5977
0.568017
0.555572
0.680544
0.5977
0.5977
0.69408
0.465096
0.643857
0.691631
0.572315
0.5977
0.694858
0.590756
0.676242
0.5977
0.552204
0.690379
0.5977
0.504802
0.680553
0.513162
0.699091
0.456197
0.680901
0.679931
0.556595
0.680905
0.690636
0.687355
0.5977
0.679765
0.5977
0.545798
0.597701
0.512379
0.454633
1.12674
0.5977
0.679955
0.688353
0.367876
0.549807
0.680294
0.691803
0.679562
0.690294
0.368075
0.5977
0.69102
0.367796
0.513849
0.687545
0.68079
0.699363
0.488554
0.5977
0.585478
0.681061
0.707333
0.681008
0.680851
0.367741
0.680668
0.697308
0.699032
0.694217
0.680982
0.579224
0.68617
0.367698
0.591695
0.691195
0.594243
0.669113
0.680962
0.689781
0.5977
0.597714
0.5977
0.5977
0.367549
0.367815
0.378069
0.367431
0.680444
0.630531
0.680704
0.549089
0.367409
0.681014
0.5977
0.442926
0.55221
0.596803
0.597705
0.680458
0.681142
0.59622
0.367878
0.367661
1.12644
0.505909
0.367625
0.416966
0.680876
0.585975
0.367727
0.5977
0.680526
0.697674
0.680976
0.680686
0.417602
0.447086
0.374345
0.5977
0.590909
0.500652
0.5977
0.594915
0.699556
0.681074
0.492426
0.36759
0.692695
0.367833
0.680959
0.680179
0.659393
0.510398
0.367975
0.69988
0.66528
0.5977
0.442528
0.681206
0.680912
0.5977
0.690673
0.690986
1.12508
0.71055
0.368143
0.680712
0.675706
0.5977
0.680472
1.12663
0.69806
1.12184
0.681132
0.432387
0.4581
0.367654
0.659129
0.5977
0.367779
0.680723
0.686241
0.506676
0.5977
0.582267
0.5977
0.5977
0.503
0.690338
0.579923
0.367653
0.597699
0.665619
0.480627
0.696055
0.43844
0.489369
0.5977
0.5977
0.597122
0.680827
0.382514
0.689476
0.472863
0.497061
0.680838
0.367743
0.5977
0.507861
0.5977
0.5977
1.12091
0.696425
0.4623
0.439354
0.597699
0.5977
0.679573
0.5977
0.5977
0.680771
0.701869
0.5977
0.5977
0.696688
0.694461
0.680647
0.55909
0.367833
0.597699
0.696203
0.695954
0.592074
0.680973
0.5977
0.597698
0.509071
0.5977
0.597703
1.12674
0.807652
0.594705
0.592421
0.680999
0.597705
0.501159
0.5977
0.596941
0.690329
0.68087
0.544086
0.696654
0.688925
0.466874
0.496311
0.403959
1.12677
0.368582
0.5977
0.680628
0.5977
0.53287
0.680933
0.463011
0.5977
0.680864
0.68061
0.5977
0.681092
0.5977
0.597526
0.5977
0.681105
0.459301
0.680332
0.680723
0.5977
1.09962
0.676204
0.51826
0.465241
0.484579
0.690691
0.36778
1.11163
0.374461
0.692215
0.41964
0.5947
0.484053
0.685516
0.689943
0.5977
0.536458
0.5977
0.680684
0.36766
0.5977
0.690649
0.499551
0.5977
0.671139
0.690953
0.681008
0.530229
0.5977
0.683746
0.680933
0.592002
0.367902
0.597697
0.680513
1.12658
1.03203
1.12685
0.5977
0.680496
0.5977
0.691479
0.367829
0.466275
1.12669
0.688743
0.680999
0.435309
0.680311
0.5977
0.5977
0.455567
0.577491
0.689355
0.689041
0.5977
0.589209
0.681058
1.05027
0.380771
0.5977
0.594284
0.381987
0.505701
0.449889
0.697984
0.523303
0.368079
0.680351
0.5977
0.693778
0.5977
0.388562
0.388572
0.690018
0.460204
0.428248
0.665426
0.508572
0.575695
0.5977
0.696798
0.680589
0.367437
0.595401
0.369809
0.687757
0.494953
0.68082
0.430855
0.680858
0.695567
0.680775
0.708268
0.680332
0.707088
0.68059
0.689944
0.680758
0.435166
0.368315
0.680986
0.680931
0.597
0.69838
0.5977
0.680909
0.5977
0.560969
0.681269
0.69146
0.680639
0.378799
0.680508
0.533033
0.680614
0.594415
0.597687
0.680754
0.504517
0.679623
0.367757
0.597699
0.679419
0.422027
0.5977
1.12692
0.694006
0.393877
0.680769
0.367545
0.509736
0.510794
0.367653
0.5977
0.468034
0.5977
0.68072
0.589203
0.514794
0.593958
0.5977
0.5977
0.64344
0.367702
0.413092
0.378478
0.482055
0.535133
0.5977
0.697946
0.568474
0.680741
0.680661
0.446661
0.690646
0.5977
0.680753
0.370943
0.922961
0.680098
0.686873
0.691552
0.477546
0.680787
0.687875
0.680592
0.5977
0.680905
0.520238
0.511541
0.680771
0.5977
0.367901
0.680802
0.499193
0.5977
0.5977
0.69935
0.699459
0.506244
0.699114
0.597707
0.378954
0.5977
0.687054
0.689259
0.689067
0.5977
0.510325
0.689805
0.480544
0.596673
0.690061
0.772339
0.680938
0.375297
0.523693
0.691061
0.528297
0.687479
0.5977
0.593927
0.54288
0.690978
0.506298
0.680756
0.687422
0.597701
0.507372
0.462317
0.597699
0.5977
0.5977
0.5977
0.680536
0.663063
0.697364
1.12677
0.680986
0.396743
0.539421
0.686986
0.680843
0.597505
0.592168
0.457411
0.620226
0.460016
0.681025
0.5977
0.588995
0.680084
0.367515
0.695733
0.505349
0.689766
0.499266
0.681108
0.681073
0.505771
0.696325
0.5977
0.511337
0.680638
0.680519
0.5977
0.465951
0.588639
0.597699
0.695891
0.585408
0.557905
0.5977
0.680307
0.680559
0.533909
0.5977
0.680996
0.583149
0.680545
0.681021
0.541932
0.681053
0.680059
0.49702
0.5977
0.381671
0.5977
0.38803
0.490321
0.695935
0.368009
0.368066
0.457762
0.680712
0.680751
0.597711
0.68105
0.583667
0.59189
0.367503
0.680835
0.594801
0.68084
0.680789
0.5977
0.680868
0.5977
0.680921
0.680661
0.537321
0.5977
0.5977
0.5977
0.68105
0.595141
0.597702
0.689811
0.367906
0.5977
0.586018
0.680917
0.433615
0.511828
0.58339
0.680807
0.367866
0.690701
0.597409
1.1266
0.690399
0.857701
0.368148
0.689856
0.36763
0.509713
0.696533
0.654681
0.691253
0.698488
0.494697
0.392885
0.371358
0.681702
0.680624
0.585382
0.696759
0.427564
0.393253
0.440166
0.697501
0.590433
0.690303
0.680405
0.5977
0.690378
0.680933
0.5977
0.5977
0.581878
0.509395
0.367869
0.858865
0.959428
0.440573
0.5977
0.696968
0.5977
0.528021
0.5977
0.669901
0.542071
0.613998
0.5977
0.36755
0.681224
0.681303
0.367955
0.68058
0.423789
0.68006
0.69422
0.680334
0.463837
0.588576
0.5977
0.546074
0.58199
0.679942
0.551098
0.681312
0.680776
0.69695
0.597668
0.597724
0.660992
0.5977
0.680832
0.563952
0.688387
0.486207
0.45881
0.679897
0.680583
0.68097
0.530558
0.68081
0.5977
0.895892
0.418156
0.427892
0.367737
0.689186
0.377383
0.43304
0.498772
0.5977
0.429229
0.543103
0.583208
0.681001
0.367881
0.680928
0.680953
0.692502
0.398652
0.680696
0.5977
0.680783
0.578916
0.5977
0.3897
0.367861
0.680836
0.36783
0.5977
0.680558
1.12473
0.367755
0.553976
0.396836
0.5977
1.12711
0.532602
0.680833
0.680707
0.594116
0.36799
0.477236
0.558223
0.70201
0.367619
1.12689
0.5977
0.68097
0.680901
0.368033
0.5977
0.485836
0.5977
0.5977
0.69252
0.5977
0.5977
0.5977
0.595771
0.68711
0.373319
0.597712
0.436001
0.597707
0.5977
0.799808
0.367751
0.587094
0.685432
0.680709
0.679321
0.367871
0.691628
0.5977
0.5977
0.603789
0.537497
0.367839
0.543211
0.680719
0.680855
0.5977
0.69654
0.557026
0.694311
0.5977
0.680824
0.6807
0.693804
0.691203
0.680676
0.674947
0.689146
0.533627
0.680669
0.689232
0.680988
0.680822
0.680481
0.5977
0.36805
0.50206
0.5977
0.367576
0.59527
0.692021
0.451162
0.5977
0.680869
0.68096
0.680342
0.524785
0.692246
0.512075
0.452799
0.680692
0.680785
0.681037
0.407169
0.68908
0.680801
0.597705
0.68065
0.499325
0.680983
0.690962
0.680018
0.597703
0.633628
0.368035
0.687279
0.430218
0.368049
0.5977
0.596296
0.690631
0.687865
0.681023
0.491543
0.680904
0.597708
0.456964
0.698158
0.593029
0.367965
0.680879
0.512455
0.597689
0.5977
0.679066
0.700853
0.594383
0.5977
0.5977
0.680666
0.5977
0.689274
0.5977
0.690673
0.696621
0.5977
0.48826
0.369754
0.594862
0.688595
0.519032
0.5977
0.690373
0.5977
0.680706
0.5977
0.5977
0.597708
0.37139
0.691457
0.699994
0.5977
0.700587
0.690065
0.696556
0.680584
0.367942
0.442883
0.681345
0.5977
0.5977
0.690084
0.680647
0.680944
0.697303
0.694317
0.5977
0.66385
0.692667
0.446776
0.516562
0.438494
0.572487
1.10376
0.59771
0.5977
0.680612
0.597595
0.518255
0.680242
0.687334
0.412895
0.574727
1.05513
0.68215
0.546866
0.490972
0.479355
1.12678
0.695986
0.597699
0.395852
0.367546
0.502434
0.581617
0.367728
0.69295
0.680704
0.678922
0.374928
0.681329
0.5977
0.5977
0.553442
0.367918
0.697884
1.1271
0.367692
0.68075
0.367926
0.612441
0.532662
0.692325
0.376687
0.694274
0.689665
0.39283
0.5977
0.532308
0.690302
0.510057
0.5977
0.494402
0.5977
0.387896
0.5977
0.367662
0.680758
0.680773
0.5977
0.680845
0.558135
0.680768
0.680784
0.68953
0.5977
0.591209
0.367877
0.5977
0.437236
0.699016
0.54356
0.6889
0.5977
0.614316
0.690499
0.5977
0.686303
0.458491
0.447343
0.445484
0.5977
0.5977
0.680888
0.371133
0.512193
0.680795
0.572267
0.50413
0.5977
0.577038
0.367716
0.499808
0.691114
0.5977
0.5977
0.479773
0.681486
0.680821
0.499405
0.557947
0.697481
0.680672
0.5977
0.597706
0.577581
0.564225
0.394037
0.695317
0.597701
0.5977
0.5977
0.478857
0.5977
0.367558
0.67352
0.688443
0.367752
0.525301
0.597703
0.5977
0.689696
0.688911
0.693742
0.691112
0.69005
0.409921
0.506448
0.441137
0.368089
0.5977
0.671637
0.5977
0.367921
0.36771
0.5977
0.503954
0.680865
0.677117
0.367565
0.552443
0.680823
0.509858
0.5977
0.688566
0.68907
0.680626
0.5977
0.367899
0.383962
0.658386
0.367698
0.597698
0.597712
0.680737
0.679811
0.536409
0.367622
1.12685
0.367732
0.680846
0.699543
0.367916
0.469529
0.416229
0.681012
0.419075
1.12695
0.680444
0.5977
0.496523
0.597701
0.687224
0.681029
0.376991
0.680829
0.5977
0.512529
0.685075
0.689851
0.373232
0.36804
0.700074
0.368004
0.368138
0.68075
0.562225
0.68084
0.5977
0.705818
0.5977
0.688333
0.68074
0.680889
0.372868
0.576103
0.597354
0.681396
0.587979
0.690262
0.563138
0.680174
0.700407
0.5977
0.5977
0.5977
0.597592
0.680161
0.687299
0.697791
0.68989
0.680629
1.1243
0.690832
1.12684
0.696706
0.697945
0.693894
1.12728
0.680837
0.513757
0.697488
0.531375
0.68852
0.680412
0.679967
0.707533
0.597705
0.461763
0.39598
0.549101
0.373716
0.679363
0.371772
0.373175
0.591635
0.490968
0.672211
0.390395
0.681056
0.68077
0.368038
0.57146
0.591999
0.689387
0.474716
0.680948
0.679667
0.403273
0.697911
0.5977
0.597715
0.556447
0.50028
0.5977
0.368031
0.691719
0.5977
0.539532
0.680909
0.680989
0.694213
0.367875
0.5977
0.494314
0.681489
0.680702
0.68
0.367669
0.681436
0.688867
0.698592
0.595005
0.689225
0.367963
0.36739
0.694338
0.597711
0.691667
0.5977
0.367733
0.586122
0.701252
0.530911
0.514538
0.459483
0.5977
0.775328
0.680662
0.447765
0.5977
0.68079
0.5977
0.5977
0.589358
0.5977
0.367925
0.367817
0.680758
0.367455
0.367618
0.690406
0.688356
0.416812
0.597704
0.412979
1.10274
0.570921
0.697671
0.680007
0.597708
0.681158
0.481932
0.367469
0.505937
0.680712
0.698509
0.5977
0.5977
0.568348
0.547678
0.680612
0.371253
0.680799
0.56818
0.680777
0.5977
0.390958
0.489543
0.367685
0.36768
0.50501
0.597705
0.67942
0.374982
0.680843
0.5977
0.546429
0.46053
0.690133
0.367825
0.681034
0.579981
0.597592
0.5977
0.680778
0.734204
0.449109
0.693961
0.688595
0.690899
0.367944
0.590683
0.5977
0.592493
0.689137
0.5977
0.69314
0.680797
0.690362
0.694809
0.69037
0.680964
0.680615
0.367994
0.697317
0.367729
0.5977
0.679946
0.503949
0.67944
0.708627
0.506442
0.699941
0.367993
0.507632
0.696231
0.667374
0.688517
0.36765
0.6795
0.5977
0.56373
0.375578
0.696745
0.680954
0.572803
0.471694
0.680791
0.689212
0.367923
0.5977
0.689594
0.5977
0.407947
0.367941
0.499809
0.5977
0.501011
0.680597
0.597705
0.680698
0.5977
0.680993
0.367698
0.698817
0.5977
0.68939
0.5977
0.514508
0.374894
0.484586
0.689671
0.679918
0.578397
0.5977
0.596895
0.5977
0.685172
0.468813
0.5977
0.680438
0.5977
0.379641
0.384662
0.577325
0.686915
0.691683
0.5977
0.597706
0.680952
0.367703
0.5977
1.03674
0.681221
0.382941
0.5977
0.51147
0.705173
0.493735
0.680739
0.696118
0.474491
0.686247
0.5977
1.12669
0.5977
1.12688
0.690755
0.597709
0.680637
0.680991
0.680411
0.681048
0.590737
1.06301
0.428932
0.681051
0.480224
0.36809
0.49383
0.499951
0.367794
0.378493
0.69037
0.565823
0.437958
0.5977
0.687355
0.679309
0.597699
0.597704
0.5977
0.680647
0.525499
0.5977
0.680795
0.541577
0.48268
0.3674
0.5977
0.597482
0.367815
0.5977
0.49429
0.752602
0.596755
0.406056
0.594194
0.5977
0.577661
0.680994
0.470665
0.5977
0.571367
0.694736
0.581048
0.5977
1.04387
0.695702
0.5977
0.368103
0.696101
0.691101
0.48684
0.510229
0.680682
0.36766
0.601282
0.37462
0.5977
0.4826
0.680759
0.508102
0.689793
0.36805
0.689109
0.680964
0.687915
1.10614
0.426994
0.502067
0.597699
0.696152
0.593492
0.70139
0.5977
0.507734
0.683621
0.588151
0.699144
0.591042
0.597698
0.54116
0.6904
0.680903
0.49152
0.675377
0.69568
0.68938
0.703872
0.474326
0.5977
0.367812
0.688443
0.504427
0.680858
0.698173
0.696726
0.689839
0.5439
0.688948
0.367966
0.375859
0.680846
1.0795
0.5977
0.680723
1.10396
0.36804
0.595866
0.695265
0.690758
0.509668
0.596171
0.5977
0.374456
0.681317
0.691184
0.67989
0.693936
0.542158
0.597699
0.5977
0.481874
0.699899
0.691439
0.5977
0.696737
0.537165
0.652218
0.592588
0.5977
0.69624
0.384876
0.516358
0.680909
0.681079
0.49758
0.566181
0.497213
0.498355
0.436842
0.507617
0.55191
0.367765
0.68117
0.478237
0.408459
0.680213
0.5977
1.12686
0.583338
0.36767
0.680909
0.597699
0.5977
0.691552
0.577893
0.5977
0.680756
0.5977
0.680577
0.471082
0.680184
0.68073
0.416012
0.367337
0.597699
0.708513
0.5977
0.690481
0.680858
0.681145
0.680977
0.597699
0.679656
0.680812
0.695797
0.368073
0.680753
0.5977
0.597709
0.593209
0.414958
0.486459
0.439125
0.5977
0.5977
0.680695
0.367811
0.574412
0.689733
0.50489
0.680087
0.681041
0.680555
0.5977
0.68071
0.536429
0.489887
0.483405
0.5977
0.50012
0.680627
0.484008
0.680979
0.680619
0.681052
0.562642
0.5977
0.597714
0.680933
0.457374
0.367445
0.692446
0.680526
0.5977
0.680788
0.696778
0.604084
0.367863
0.5977
0.689331
0.597703
0.680975
0.682322
0.68436
0.584195
0.578131
0.69073
0.596452
0.5977
0.367862
0.680147
0.680455
0.5977
0.501296
0.680232
0.597699
0.686979
0.680384
0.368012
0.367743
0.680534
0.5977
0.597699
0.687927
0.69686
0.515118
0.680707
0.662796
0.705676
0.36779
0.5977
0.367906
0.694679
0.688065
0.63598
0.680203
0.667775
0.546374
0.582575
0.680518
0.367859
0.5977
0.532083
0.680777
0.460845
0.5977
0.689645
0.686027
0.367744
1.12698
0.920537
0.367667
0.677489
0.499479
0.690929
0.36773
0.38404
0.469869
0.673903
0.680979
0.556328
0.547855
0.696984
0.689702
0.597708
0.5977
0.36759
0.5977
0.367723
0.680907
0.367573
0.5977
0.695402
0.563187
0.5977
0.380348
0.680995
0.426683
0.367891
0.692215
0.516074
0.591048
0.597699
0.468356
0.690131
0.659057
0.695971
0.5977
0.530053
0.5977
0.513636
0.36752
0.700846
0.67997
0.680576
0.367692
0.580681
0.5977
0.691508
0.5977
0.692642
0.5977
0.688105
0.565221
0.690496
0.690761
0.5977
0.690137
0.51071
0.680774
0.367865
0.509558
0.493476
0.367646
0.691126
0.68622
0.690357
0.68092
0.680753
0.565863
0.597708
0.535508
0.478832
0.36806
0.491359
0.367431
0.679728
0.688158
0.367905
0.462906
0.680959
0.543896
0.597712
0.686994
0.597687
0.5977
0.5977
0.67969
0.597709
0.68088
0.681044
0.698054
0.69175
0.5977
0.690568
0.680853
0.518391