# vtk DataFile Version 1.0
unstructured grid
ascii
DATASET UNSTRUCTURED_GRID
points 13672 float
0.0796578 -0.059106 0
0.00128732 0.00159165 0
0.00227961 -0.00102548 0
0.0791586 -0.0598787 0
-0.0546216 0.01 0
0.000495206 0.025 0
0.0800549 -0.035 0
0.135172 -0.08 0
-0.0546216 -0.0451168 0
0.000495206 -0.0301168 0
0.0800549 -0.0901168 0
0.135172 -0.135117 0
-0.0546216 -0.0451168 -0.00551168
0.000495206 -0.0301168 -0.00551168
0.0800549 -0.0901168 -0.00551168
0.135172 -0.135117 -0.00551168
0.135172 -0.08 -0.00551168
0.0800549 -0.035 -0.00551168
0.000495206 0.025 -0.00551168
-0.0546216 0.01 -0.00551168
0.00128732 0.00159165 -0.00551168
0.00227961 -0.00102548 -0.00551168
0.0791586 -0.0598787 -0.00551168
0.0796578 -0.059106 -0.00551168
0.00165953 -0.000990923 0
0.00119576 -0.000874076 0
0.000866021 -0.000641801 0
0.000645147 -0.000349912 0
0.00052235 -1.7281e-05 0
0.00049972 0.000348016 0
0.000601632 0.000737716 0
0.000861774 0.0011403 0
0.00157235 0.00183217 0
0.00188647 0.00206725 0
0.00222612 0.00230203 0
0.00258713 0.00254351 0
0.00296826 0.00279524 0
0.00337118 0.00305664 0
0.00379785 0.00332658 0
0.00425045 0.00360349 0
0.00473139 0.00388521 0
0.0052432 0.00416895 0
0.0057881 0.00445204 0
0.00636753 0.00473281 0
0.00698281 0.00500961 0
0.00763526 0.00528058 0
0.00832616 0.00554366 0
0.00905691 0.00579603 0
0.00982918 0.00603333 0
0.0106445 0.00625033 0
0.0115038 0.00644128 0
0.0124073 0.00660297 0
0.0133543 0.00673414 0
0.0143444 0.00683382 0
0.0153769 0.00690031 0
0.0164512 0.00693173 0
0.0175666 0.00692547 0
0.0187219 0.00687822 0
0.0199156 0.00678477 0
0.0211454 0.00663864 0
0.0224084 0.00643275 0
0.0237018 0.00616676 0
0.0250249 0.00584739 0
0.026375 0.00547298 0
0.0277479 0.00503752 0
0.0291386 0.00453545 0
0.0305433 0.0039653 0
0.0319572 0.0033256 0
0.0333681 0.00260019 0
0.034775 0.00179799 0
0.0361793 0.000930615 0
0.0375798 3.12222e-06 0
0.0389689 -0.000988429 0
0.0403357 -0.00205109 0
0.041675 -0.00318283 0
0.0429849 -0.00437751 0
0.0442643 -0.00562904 0
0.0455126 -0.00693089 0
0.0467314 -0.00827518 0
0.0479204 -0.00965638 0
0.0490661 -0.0110799 0
0.0501515 -0.0125519 0
0.0511696 -0.0140695 0
0.0521492 -0.0156071 0
0.0531202 -0.0171411 0
0.0540851 -0.0186663 0
0.0550431 -0.0201798 0
0.0559923 -0.0216793 0
0.0569311 -0.0231626 0
0.0578582 -0.0246273 0
0.0587723 -0.0260715 0
0.0596721 -0.027493 0
0.0605563 -0.02889 0
0.0614241 -0.0302609 0
0.0622742 -0.0316042 0
0.063106 -0.0329183 0
0.0639186 -0.034202 0
0.0647113 -0.0354543 0
0.0654835 -0.0366743 0
0.0662345 -0.0378613 0
0.0669642 -0.0390145 0
0.0676726 -0.0401333 0
0.0683597 -0.0412172 0
0.0690246 -0.0422665 0
0.0696662 -0.0432819 0
0.0702841 -0.0442636 0
0.0708793 -0.0452111 0
0.0714538 -0.0461237 0
0.072009 -0.047001 0
0.0725452 -0.0478434 0
0.0730611 -0.0486524 0
0.073556 -0.0494294 0
0.0740291 -0.0501756 0
0.0744812 -0.0508916 0
0.0749138 -0.0515773 0
0.0753285 -0.0522331 0
0.0757266 -0.0528592 0
0.076109 -0.0534564 0
0.0764753 -0.0540264 0
0.0768243 -0.054571 0
0.0771553 -0.0550919 0
0.0774679 -0.0555901 0
0.0777617 -0.0560669 0
0.0780369 -0.056523 0
0.0782958 -0.0569578 0
0.0785421 -0.0573703 0
0.0787786 -0.0577603 0
0.0790073 -0.0581279 0
0.0792295 -0.058474 0
0.0794462 -0.0587995 0
0.0798803 -0.0594162 0
0.0800272 -0.0596588 0
0.0800357 -0.0598891 0
0.0799275 -0.0600784 0
0.0797205 -0.0601773 0
0.0794593 -0.0601051 0
0.0789155 -0.0596491 0
0.0786707 -0.0593963 0
0.0784111 -0.0591319 0
0.0781372 -0.0588542 0
0.0778566 -0.0585548 0
0.0775715 -0.0582308 0
0.0772803 -0.0578828 0
0.0769832 -0.0575099 0
0.0766822 -0.0571097 0
0.0763801 -0.0566796 0
0.0760759 -0.0562196 0
0.0757623 -0.0557337 0
0.0754359 -0.0552232 0
0.0750951 -0.0546879 0
0.0747379 -0.054128 0
0.0743626 -0.0535435 0
0.0739688 -0.0529338 0
0.0735559 -0.0522981 0
0.0731238 -0.0516357 0
0.0726718 -0.050946 0
0.0721991 -0.0502288 0
0.0717046 -0.049484 0
0.0711872 -0.0487117 0
0.0706461 -0.047912 0
0.0700804 -0.0470849 0
0.0694892 -0.0462308 0
0.0688718 -0.0453499 0
0.0682271 -0.0444431 0
0.0675544 -0.043511 0
0.0668527 -0.0425546 0
0.0661215 -0.0415748 0
0.06536 -0.040573 0
0.0645676 -0.0395504 0
0.0637439 -0.0385087 0
0.0628887 -0.0374493 0
0.062002 -0.0363741 0
0.0610838 -0.0352847 0
0.0601345 -0.0341831 0
0.0591547 -0.033071 0
0.0581456 -0.0319502 0
0.0571083 -0.0308224 0
0.0560444 -0.0296893 0
0.0549562 -0.028552 0
0.053845 -0.0274126 0
0.0527113 -0.0262746 0
0.051554 -0.0251427 0
0.0503724 -0.0240222 0
0.0491675 -0.0229164 0
0.047941 -0.0218282 0
0.0466955 -0.0207597 0
0.0454337 -0.0197126 0
0.0441592 -0.0186878 0
0.0428751 -0.0176863 0
0.0415841 -0.0167097 0
0.0402878 -0.0157609 0
0.0389879 -0.0148428 0
0.0376864 -0.0139575 0
0.0363853 -0.013107 0
0.0350871 -0.0122931 0
0.0337942 -0.0115164 0
0.0325095 -0.0107772 0
0.0312357 -0.0100756 0
0.0299758 -0.00941024 0
0.0287337 -0.00877784 0
0.0275126 -0.00817571 0
0.0263139 -0.00760375 0
0.0251376 -0.00706528 0
0.0239829 -0.0065649 0
0.0228537 -0.00609619 0
0.0217522 -0.00565563 0
0.0206795 -0.00524226 0
0.0196364 -0.00485507 0
0.0186233 -0.00449318 0
0.0176408 -0.00415577 0
0.016689 -0.00384204 0
0.0157682 -0.00355115 0
0.0148783 -0.00328218 0
0.0140192 -0.00303468 0
0.0131906 -0.00280795 0
0.0123925 -0.00260016 0
0.0116246 -0.00241012 0
0.0108864 -0.00223769 0
0.0101774 -0.00208212 0
0.00949701 -0.00194206 0
0.00884483 -0.0018163 0
0.0082202 -0.0017039 0
0.00762247 -0.00160391 0
0.00705097 -0.00151528 0
0.006505 -0.00143697 0
0.0059838 -0.00136806 0
0.00548662 -0.00130772 0
0.00501265 -0.00125519 0
0.00456114 -0.00120954 0
0.00413136 -0.00116914 0
0.00372257 -0.00113251 0
0.00333398 -0.00109853 0
0.00296466 -0.00106798 0
0.00261363 -0.0010431 0
-0.052721 -0.0445996 0
-0.0508204 -0.0440823 0
-0.0489199 -0.0435651 0
-0.0470193 -0.0430478 0
-0.0451187 -0.0425306 0
-0.0432181 -0.0420134 0
-0.0413175 -0.0414961 0
-0.039417 -0.0409789 0
-0.0375164 -0.0404616 0
-0.0356158 -0.0399444 0
-0.0337152 -0.0394271 0
-0.0318146 -0.0389099 0
-0.0299141 -0.0383927 0
-0.0280135 -0.0378754 0
-0.0261129 -0.0373582 0
-0.0242123 -0.0368409 0
-0.0223117 -0.0363237 0
-0.0204112 -0.0358065 0
-0.0185106 -0.0352892 0
-0.01661 -0.034772 0
-0.0147094 -0.0342547 0
-0.0128088 -0.0337375 0
-0.0109083 -0.0332202 0
-0.00900769 -0.032703 0
-0.00710711 -0.0321858 0
-0.00520653 -0.0316685 0
-0.00330595 -0.0311513 0
-0.00140537 -0.030634 0
0.00190689 -0.0299614 0
0.00332271 -0.0298498 0
0.00474133 -0.0297825 0
0.00616136 -0.0297597 0
0.0075814 -0.0297814 0
0.00900007 -0.0298477 0
0.010416 -0.0299583 0
0.0118278 -0.0301127 0
0.0132342 -0.0303103 0
0.0146339 -0.0305504 0
0.0160259 -0.0308322 0
0.0174091 -0.0311546 0
0.0187824 -0.0315166 0
0.020145 -0.031917 0
0.0214961 -0.0323546 0
0.0228351 -0.032828 0
0.0241613 -0.0333361 0
0.0254744 -0.0338774 0
0.0267738 -0.0344507 0
0.0280592 -0.0350545 0
0.0293306 -0.0356877 0
0.0305875 -0.0363488 0
0.0318301 -0.0370367 0
0.0330581 -0.0377501 0
0.0342717 -0.0384879 0
0.0354708 -0.0392489 0
0.0366556 -0.0400321 0
0.0378262 -0.0408363 0
0.0389828 -0.0416607 0
0.0401254 -0.0425042 0
0.0412543 -0.0433659 0
0.0423698 -0.0442451 0
0.043472 -0.0451408 0
0.0445612 -0.0460523 0
0.0456375 -0.0469789 0
0.0467013 -0.0479199 0
0.0477529 -0.0488746 0
0.0487923 -0.0498424 0
0.04982 -0.0508227 0
0.0508362 -0.051815 0
0.051841 -0.0528187 0
0.0528348 -0.0538333 0
0.0538178 -0.0548584 0
0.0547903 -0.0558935 0
0.0557524 -0.0569382 0
0.0567045 -0.0579922 0
0.0576467 -0.0590549 0
0.0585792 -0.0601261 0
0.0595024 -0.0612055 0
0.0604163 -0.0622926 0
0.0613212 -0.0633873 0
0.0622174 -0.0644891 0
0.0631049 -0.0655979 0
0.0639841 -0.0667134 0
0.064855 -0.0678353 0
0.0657179 -0.0689633 0
0.0665729 -0.0700974 0
0.0674202 -0.0712372 0
0.06826 -0.0723826 0
0.0690925 -0.0735333 0
0.0699178 -0.0746892 0
0.070736 -0.0758501 0
0.0715473 -0.0770159 0
0.0723518 -0.0781863 0
0.0731498 -0.0793612 0
0.0739412 -0.0805405 0
0.0747264 -0.081724 0
0.0755053 -0.0829116 0
0.0762781 -0.0841033 0
0.0770449 -0.0852987 0
0.0778059 -0.0864979 0
0.0785611 -0.0877007 0
0.0793108 -0.088907 0
0.0814681 -0.0912706 0
0.0828814 -0.0924245 0
0.0842946 -0.0935783 0
0.0857079 -0.0947322 0
0.0871211 -0.095886 0
0.0885344 -0.0970399 0
0.0899476 -0.0981937 0
0.0913609 -0.0993476 0
0.0927741 -0.100501 0
0.0941874 -0.101655 0
0.0956006 -0.102809 0
0.0970139 -0.103963 0
0.0984272 -0.105117 0
0.0998404 -0.106271 0
0.101254 -0.107424 0
0.102667 -0.108578 0
0.10408 -0.109732 0
0.105493 -0.110886 0
0.106907 -0.11204 0
0.10832 -0.113194 0
0.109733 -0.114348 0
0.111146 -0.115501 0
0.11256 -0.116655 0
0.113973 -0.117809 0
0.115386 -0.118963 0
0.116799 -0.120117 0
0.118213 -0.121271 0
0.119626 -0.122424 0
0.121039 -0.123578 0
0.122452 -0.124732 0
0.123866 -0.125886 0
0.125279 -0.12704 0
0.126692 -0.128194 0
0.128105 -0.129348 0
0.129519 -0.130501 0
0.130932 -0.131655 0
0.132345 -0.132809 0
0.133758 -0.133963 0
0.135172 -0.133216 0
0.135172 -0.131316 0
0.135172 -0.129415 0
0.135172 -0.127514 0
0.135172 -0.125614 0
0.135172 -0.123713 0
0.135172 -0.121813 0
0.135172 -0.119912 0
0.135172 -0.118012 0
0.135172 -0.116111 0
0.135172 -0.11421 0
0.135172 -0.11231 0
0.135172 -0.110409 0
0.135172 -0.108509 0
0.135172 -0.106608 0
0.135172 -0.104708 0
0.135172 -0.102807 0
0.135172 -0.100906 0
0.135172 -0.0990058 0
0.135172 -0.0971052 0
0.135172 -0.0952046 0
0.135172 -0.0933041 0
0.135172 -0.0914035 0
0.135172 -0.0895029 0
0.135172 -0.0876023 0
0.135172 -0.0857017 0
0.135172 -0.0838012 0
0.135172 -0.0819006 0
0.133758 -0.0788462 0
0.132345 -0.0776923 0
0.130932 -0.0765385 0
0.129519 -0.0753846 0
0.128105 -0.0742308 0
0.126692 -0.0730769 0
0.125279 -0.0719231 0
0.123866 -0.0707692 0
0.122452 -0.0696154 0
0.121039 -0.0684615 0
0.119626 -0.0673077 0
0.118213 -0.0661538 0
0.116799 -0.065 0
0.115386 -0.0638462 0
0.113973 -0.0626923 0
0.11256 -0.0615385 0
0.111146 -0.0603846 0
0.109733 -0.0592308 0
0.10832 -0.0580769 0
0.106907 -0.0569231 0
0.105493 -0.0557692 0
0.10408 -0.0546154 0
0.102667 -0.0534615 0
0.101254 -0.0523077 0
0.0998404 -0.0511538 0
0.0984272 -0.05 0
0.0970139 -0.0488462 0
0.0956006 -0.0476923 0
[...]
CELL_DATA 13116
SCALARS rho float
LOOKUP_TABLE default
0.624928
0.696549
0.331633
0.702116
0.7043
0.691965
0.341683
0.701976
0.553418
0.703872
0.346205
0.299344
0.704072
0.338269
0.321791
0.693233
0.620561
0.709057
0.691753
0.353463
0.621672
0.331332
0.330694
0.708411
0.694815
0.699083
0.703995
0.332649
0.690031
0.714491
1.12754
0.30521
0.58275
0.470503
0.338377
0.622646
0.713175
0.692321
0.673621
0.700987
0.691342
0.702086
0.494949
0.333481
0.691879
0.691927
0.695199
0.692969
0.32756
0.538636
0.701159
0.490606
0.343519
0.612717
0.583721
0.674375
0.334217
0.709301
0.54894
0.320681
0.337126
0.70285
0.695157
0.668808
1.0956
0.346503
0.695152
0.715651
0.693396
1.02076
0.322298
0.698878
0.332392
0.34031
1.14373
0.334228
0.700411
0.702918
0.351793
0.709991
0.714335
0.699038
0.707348
0.693538
0.693199
0.411634
0.352534
0.713927
0.700242
0.361074
0.309913
0.695984
0.705689
0.700018
0.715553
0.680741
0.695976
1.13489
1.14421
0.69124
0.712529
0.693022
0.691388
0.434211
0.693108
0.291514
0.374349
0.526638
0.330336
0.688595
0.551513
0.697905
0.679571
0.713602
0.709839
0.696965
0.349913
0.387029
0.695897
0.697342
0.714976
0.335372
0.693547
0.308193
0.700217
0.448501
0.351828
0.517849
0.331422
0.538175
0.697028
0.696709
0.498731
0.329512
0.47115
0.673687
1.13428
0.696149
0.712289
0.697788
0.6988
0.695092
0.519197
0.698434
0.697259
0.311827
0.338355
0.69825
0.705768
0.700634
0.548166
0.693445
0.692836
0.33879
0.7044
0.693101
0.327411
0.710686
1.13243
0.713684
0.708383
0.34789
0.707708
0.329442
0.336188
0.702547
0.699917
0.709267
0.339395
0.435328
0.401422
1.13402
0.320975
0.506108
0.697736
0.328293
0.32526
0.332231
0.697574
0.692535
0.35051
0.42626
0.576179
0.714979
0.692489
0.549515
0.343156
0.690477
0.694418
0.472316
0.701819
0.697954
0.945722
0.321182
0.697118
0.69338
0.704876
0.69091
0.700142
0.37206
0.436238
0.690486
0.512983
0.339424
0.708858
0.693314
0.497305
0.692599
0.314752
0.347528
0.335563
0.693455
0.326948
0.355711
0.355287
0.338321
0.378911
0.673993
0.700157
0.403988
0.335518
0.694762
0.54658
0.350417
0.581396
0.703311
0.697242
0.3328
0.69719
0.38745
0.703134
0.306777
0.952942
0.708229
1.13623
0.701857
0.829125
0.322773
0.442306
0.713882
1.14014
0.6931
1.1361
0.777702
0.701703
0.325891
0.700388
0.703804
1.14134
0.340745
0.329082
0.693154
0.695104
1.058
0.694633
0.615548
0.711419
0.34762
0.327588
0.375941
0.313231
0.692095
0.704877
0.699914
0.354725
0.690954
0.345918
0.405191
0.693355
0.341791
0.698883
0.701361
1.13956
0.709529
0.322494
1.1384
0.714214
1.14037
0.69512
0.35597
0.351956
0.323865
0.669347
0.334278
0.334401
0.360974
0.352055
0.693606
0.337614
0.701141
0.70329
0.34746
0.352091
0.346819
0.452095
0.333963
0.714379
0.69073
0.696489
0.342518
0.692706
0.714546
0.322975
0.321053
0.6814
0.694737
0.690951
0.342904
0.693402
0.445924
0.696556
0.701912
0.699776
0.701819
0.322071
0.69641
0.323286
0.689851
0.703172
0.714294
0.357847
0.357883
0.703519
0.34801
0.694092
0.702766
0.35739
0.710651
0.707612
0.348963
0.691259
0.705725
0.324796
0.700314
0.407213
0.68314
0.70219
0.413191
0.710407
0.354561
0.708873
0.360709
0.701501
0.690224
0.704758
0.331573
0.376288
0.692789
0.338474
0.705002
0.695317
0.415702
1.12914
0.341706
0.32881
0.69426
0.552674
0.71694
0.351789
0.328115
0.700244
0.70349
0.339617
0.702153
0.34623
0.304241
0.697631
0.701892
0.538643
0.364388
0.694475
1.11956
0.693671
0.690808
0.70967
0.551097
0.344429
0.316791
0.351013
0.693725
0.351105
0.576835
0.360143
0.316164
0.372525
0.545214
0.125887
0.339543
0.692658
0.301507
0.70671
0.69054
0.692142
0.715083
0.700762
0.32929
0.351745
0.37916
0.347577
0.695085
0.675561
0.691536
0.689704
0.697517
0.69841
0.698836
0.69714
0.713744
0.711385
0.710053
0.688592
0.3792
0.497375
0.620023
0.329241
0.68889
0.67009
0.34532
0.696908
1.13674
0.32349
0.355567
0.359756
0.343813
0.690472
0.32917
0.321511
0.693945
0.344713
0.706717
0.361871
0.689911
0.699281
0.33579
0.329401
0.694507
0.448612
0.363129
0.344576
0.358619
0.330039
0.35098
0.355655
0.335684
0.407209
0.354673
0.692347
0.339597
0.698906
0.359034
0.306672
0.467395
0.283924
0.359818
0.284487
0.700189
0.413481
0.699003
0.538024
0.346135
0.694979
0.700671
0.409401
0.710749
0.693543
0.692115
0.349976
1.1352
0.389044
0.708648
1.13849
0.327946
0.335078
0.693661
0.348797
0.411868
0.691042
0.373467
0.710974
0.697238
0.351216
0.324567
0.323227
0.501213
0.320651
0.334055
0.321497
0.324536
0.702318
0.702407
0.458214
0.691873
0.475849
0.697052
0.371774
0.331654
0.558614
0.32835
0.694744
0.328179
0.38246
0.4929
0.69204
0.699755
0.590196
0.355772
0.336514
0.645983
0.701846
0.862169
0.636775
0.694044
0.691869
0.358005
0.698599
0.695556
0.714227
0.358124
0.33396
0.713961
0.704899
0.71475
0.703561
0.698659
0.699689
0.708728
0.714243
0.692051
0.352549
0.692059
0.363575
0.314897
0.356989
0.702301
0.693249
0.356083
0.693659
0.688717
0.357986
0.711457
0.694093
0.711683
0.33236
0.332825
0.70232
0.364182
0.361951
0.277587
0.358962
0.694692
0.329167
0.701852
0.338762
0.696749
0.700963
0.692789
0.703716
0.364651
0.352306
0.693477
0.703635
0.700032
0.702328
0.703967
0.441777
0.349089
0.328788
0.692578
0.54978
0.359301
0.448886
0.314669
0.700628
0.691734
0.357625
0.332797
0.696916
0.41733
0.692299
0.7082
0.331893
0.386717
0.700882
1.13601
0.329532
0.699706
0.699915
0.693361
0.334334
1.13616
0.336178
1.13644
0.714485
0.365458
0.37617
0.334521
1.13671
0.330687
0.350636
0.388107
0.668055
0.699043
0.350767
0.32487
0.360509
0.696549
0.333591
0.692978
0.32054
0.694782
0.703408
0.360996
0.330052
0.330645
0.444208
0.329391
0.699537
0.34161
0.328842
0.69028
0.328183
0.693701
0.694096
1.1356
0.355376
0.694744
0.705637
0.704887
0.692507
0.70127
0.697981
0.298781
0.97184
0.406969
0.694573
0.356673
0.701701
0.52842
0.338247
1.12601
0.707618
0.336025
0.696774
0.310878
0.322826
0.693662
0.69944
0.315272
0.298291
0.351118
0.293402
0.700972
0.708313
0.334658
0.349657
0.705731
0.697578
0.692658
0.705834
0.691002
0.348112
0.704763
0.405137
0.701045
0.38725
0.681752
0.451713
0.696372
0.716608
0.720009
0.368222
0.331255
0.690651
0.690765
0.607349
0.706226
0.315466
0.711445
0.704691
0.384195
0.494871
0.705301
0.357751
1.08181
0.713701
0.354426
0.699235
0.715327
0.330722
0.702134
0.323176
0.698559
0.334105
0.693365
0.695064
0.331259
0.673655
0.707141
0.705439
0.689952
0.697913
0.712565
0.345593
0.441126
0.308437
0.341281
1.12671
0.593585
0.694727
0.706128
0.352536
0.340996
0.696522
0.703543
0.694438
0.701448
0.357219
0.709732
0.703747
0.353859
0.312212
0.696365
0.692889
0.695832
0.290003
0.712398
0.336369
0.704107
0.693756
0.916474
0.693984
0.359726
0.695479
0.700555
0.706278
0.700392
0.691501
0.405454
0.710483
0.347092
0.695515
0.703626
0.436442
0.697546
0.807746
0.700779
0.44818
0.405354
0.710617
0.711406
0.363667
0.366264
0.34161
0.354216
0.69665
0.710486
0.806185
0.353684
0.35212
0.693189
0.71099
0.328882
0.342087
0.452012
0.700407
0.690713
0.691484
0.710584
0.34835
0.363751
1.1304
0.307636
0.355249
0.340142
0.691037
0.336101
0.364784
0.662116
0.693861
0.697284
0.691167
0.690741
0.349504
0.323835
0.342784
0.547766
0.414589
0.308718
0.716568
0.710533
0.693811
0.692178
0.298222
0.3572
0.703603
0.359221
0.691547
0.69489
1.13022
0.315209
0.358781
0.698212
1.1276
0.648964
0.328633
0.692604
0.693092
0.653732
0.700415
0.701593
1.13423
0.694234
0.356943
0.690575
1.08318
0.696497
0.707214
1.12715
0.69815
1.13631
0.693974
0.328941
0.325625
0.357758
1.12001
0.532038
0.35983
0.696813
0.707851
0.298861
0.698687
0.336763
0.701182
0.532557
0.326831
0.703235
0.708724
0.359593
0.608256
1.11692
0.334948
0.700378
0.34562
0.295072
0.695094
0.694308
0.47224
0.691512
0.34102
0.707812
0.324753
0.2986
0.693563
0.359394
0.685923
0.31403
0.698949
0.685764
1.13503
0.699738
0.318933
0.327989
0.695221
0.501227
0.69464
0.48246
0.670261
0.689445
0.706655
0.50802
0.688113
0.697397
0.704836
0.69566
0.365077
0.366035
0.540945
0.697264
0.704894
0.370898
0.691363
0.651494
0.376571
0.314608
0.713735
0.702445
1.13639
1.13699
0.692303
0.71443
0.672006
0.713349
0.312236
0.713703
0.44833
0.699397
0.69274
0.351833
0.701466
0.70471
0.326362
0.320081
0.347722
1.12775
0.348999
0.696414
0.711891
0.713624
0.335906
0.692156
0.339475
0.706267
0.68412
0.889666
0.716809
0.697551
0.69606
0.713849
0.553805
0.694432
0.334329
0.69157
0.692678
0.487619
1.13644
0.708661
0.324712
0.317011
0.333763
0.699903
0.367093
1.13719
0.343173
0.701842
0.333787
0.448796
0.311679
0.709072
0.701328
0.612473
0.326563
0.697515
0.681634
0.346839
0.692854
0.70248
0.307455
0.679819
1.13989
0.703337
0.691662
0.32726
0.523909
0.697888
0.69191
0.696097
0.364983
0.396688
0.692083
1.13034
1.13671
1.13239
0.605981
0.69665
0.598615
0.699696
0.365141
0.338502
1.13334
0.704799
0.666723
0.345423
0.691457
0.62735
0.679172
0.331616
0.399357
0.702341
0.701879
0.556227
0.346412
0.692253
1.13652
0.341567
0.69455
0.710952
0.340769
0.306516
0.322491
0.695557
0.334758
0.353052
0.691107
0.487857
0.704775
0.701312
0.339569
0.349889
0.702195
0.326527
0.329118
1.12832
0.298997
0.373343
0.681706
0.701397
0.694845
0.351623
0.3388
0.344088
0.69421
0.292382
0.694791
0.328395
0.696715
0.699882
0.691969
0.693833
0.695895
0.693816
0.690486
0.703937
0.694956
0.332096
0.344312
0.695871
0.675686
0.452941
0.696094
0.573454
0.667988
0.695575
0.335316
0.696463
0.70281
0.693281
0.339625
0.695717
0.334321
0.693554
0.447227
0.709725
0.692377
0.328165
0.695372
0.360411
0.463898
0.695551
0.339073
0.710628
1.13039
0.701265
0.342933
0.694453
0.352619
0.314651
0.31674
0.355025
0.695409
0.320126
0.70103
0.740577
0.347515
0.321183
0.439561
0.71548
0.708157
0.694077
0.355056
0.348102
0.340887
0.314631
0.324019
0.705205
0.698781
0.33346
0.692329
0.711426
0.323962
0.702967
0.711517
0.699715
0.342249
1.13704
0.698092
0.710141
0.699911
0.321356
0.695341
0.707918
0.695821
0.713559
0.690886
0.335882
0.318712
0.693293
0.536307
0.360979
0.693631
0.321452
0.690831
0.695734
0.698129
0.698273
0.312324
0.695588
0.373718
0.339511
0.710457
0.705895
0.706282
0.700431
0.705407
0.315103
0.703513
0.319465
0.451463
0.702538
1.14507
0.695556
0.340598
0.320509
0.703578
0.336307
0.701062
0.706138
0.414084
0.343135
0.69847
0.31444
0.692311
0.70047
0.700412
0.315069
0.325574
0.510226
0.54911
0.696766
0.481876
0.69037
0.693792
0.699195
1.12668
0.695962
0.342466
0.34137
0.702875
0.690948
0.696356
0.427574
0.340968
0.698066
0.320841
0.690955
0.68849
0.342882
0.694882
0.356107
0.700796
0.331415
0.705334
0.321776
0.694016
0.69257
0.301242
0.700232
0.711875
0.305582
0.812926
0.69156
0.57899
0.293109
0.368096
0.477586
0.705319
0.693711
0.34145
0.714172
0.69662
0.690035
0.337865
0.687003
0.694285
0.414984
0.690435
0.690756
0.349193
0.694608
1.136
0.331597
0.67661
0.345098
0.702406
0.341521
0.302114
0.704915
0.354211
0.360275
0.320551
0.694976
0.694786
0.388045
0.692267
0.368782
0.698627
0.353759
0.695189
0.362232
0.690045
0.693355
0.701755
0.830802
0.617398
0.692631
0.702973
0.332933
0.699887
0.70088
0.569648
0.696448
0.444688
0.422688
0.703699
0.348439
0.696964
0.33749
0.69144
0.334148
0.320991
0.708889
0.690232
0.351884
0.699408
0.710388
1.12664
0.7014
1.13666
0.357237
0.703044
0.354529
0.327639
0.700182
0.710485
0.701927
0.697123
0.307072
0.34057
0.343511
0.69562
0.758183
0.367547
0.701577
0.347446
0.341571
0.333428
0.700804
0.387649
0.703024
0.694858
0.698555
0.699137
0.694902
0.64795
0.699728
0.407801
0.306106
0.352228
1.13674
1.13724
0.344867
0.70176
0.694553
0.701209
0.327261
0.453333
0.693972
0.304565
0.694251
0.690796
0.355598
0.680505
0.696327
0.359981
0.694786
0.329865
0.694891
0.7045
0.695779
0.319788
0.425037
0.711171
0.352957
0.410858
0.693144
0.358661
0.687726
0.695079
0.698672
0.710186
0.346387
1.12721
0.710712
0.691774
0.375919
0.701044
0.326158
0.311643
0.692733
0.690347
0.740242
0.26217
0.692707
0.698344
1.14458
0.348166
0.346313
0.364214
0.699539
0.342518
0.328155
0.330117
0.689616
0.328621
0.351203
0.410814
0.694748
0.357425
0.859675
0.675424
0.701013
0.34255
0.693731
0.715251
0.708231
0.401185
0.713583
0.337349
0.348094
0.694527
0.352164
0.697459
0.698853
1.13459
0.356248
0.358386
0.336841
0.638047
1.13551
0.266776
0.692571
0.694625
0.710025
0.350482
0.318882
0.363876
0.692958
0.360374
1.12739
0.688507
0.683231
0.692168
0.355537
0.69702
0.303095
0.689372
0.707039
0.703585
0.679399
0.575915
0.714202
0.696422
0.703421
0.345787
0.35809
0.342884
0.709947
0.554612
1.14466
0.356343
0.394277
0.709458
0.693713
0.997005
0.352506
0.700934
0.62552
0.640759
0.693563
0.329355
0.353133
0.350824
0.690262
0.752438
0.713025
0.696771
0.364884
0.701432
0.71325
0.741034
0.759828
0.701112
0.702897
0.694022
0.711426
0.706665
0.327884
0.693698
0.700584
0.690681
0.693985
0.690567
0.666537
0.357286
0.288852
0.696399
0.361086
0.346508
0.701377
0.324729
0.698913
0.693055
0.695776
0.693186
0.326249
0.700691
0.31764
0.342235
0.694047
0.696344
0.692241
0.341924
0.701549
0.691535
0.696108
0.690862
0.328853
0.690872
0.703538
0.696343
0.372643
0.709001
0.345684
0.701473
0.337082
0.35752
0.623528
0.441145
0.703211
0.708749
0.691794
0.32913
0.690874
0.394166
0.322813
0.699813
0.441415
0.362681
0.691338
0.308318
0.455485
0.714733
0.694845
0.694255
0.441022
0.692103
0.716662
0.692165
0.666317
0.706179
0.539096
0.702541
0.696416
0.715785
0.292011
0.351008
0.432961
0.700449
0.325508
0.713694
0.699446
0.689213
0.69219
0.594445
0.710974
0.713794
0.34207
0.699574
0.694689
0.582789
0.694647
0.703381
0.699632
0.685346
0.350251
0.326935
0.694671
0.55983
0.606936
0.696839
0.693557
0.692476
0.704943
0.70472
0.703163
0.693663
0.703643
0.32435
0.304325
0.333161
0.339647
1.13447
0.464372
0.591953
0.695297
0.714973
0.327738
0.693439
0.701889
0.3422
0.385238
1.13709
0.693919
0.329605
0.293368
0.278746
1.12675
0.699313
0.376686
0.341644
0.355157
0.305685
0.353733
0.363077
0.702886
0.693203
0.697165
0.344524
0.695526
0.683121
0.687444
0.347714
0.355185
0.699693
1.1346
0.363083
0.689843
0.359563
0.708606
0.328019
0.701521
0.347462
0.693945
0.70218
0.342628
0.661563
0.341949
0.702854
0.296344
0.687011
0.32182
0.52497
0.337459
0.681899
0.34747
0.944401
0.91102
0.687498
0.695738
0.348912
0.695161
0.681056
0.701869
0.681726
0.698964
0.355115
0.44908
0.34428
0.705437
0.328902
0.704962
0.553161
0.710363
0.703247
0.526649
0.710682
0.32303
0.343994
0.325708
0.523662
0.630357
0.693535
0.343191
0.332542
0.693852
0.38716
0.313123
0.657179
0.381694
0.363945
0.288222
0.70207
0.709397
0.689567
0.334861
0.694993
0.691251
0.302912
0.358015
0.699848
0.690564
0.688912
0.482655
0.399944
0.37604
0.339897
0.700917
0.696132
0.549652
0.711026
0.316421
0.645649
0.354511
1.09381
0.704378
0.355339
0.334838
0.696463
0.65227
0.703687
0.706671
0.70515
0.699756
0.702725
0.338021
0.330488
0.341653
0.356767
0.620944
1.13841
0.71022
0.35786
0.355103
0.479271
0.306054
0.692497
0.694458
0.356558
0.356101
0.693016
0.329904
0.71734
0.707752
0.694146
0.690584
0.628031
0.361723
0.347642
0.693582
0.355556
0.451175
0.382252
0.677106
0.697162
0.340988
0.356149
1.12958
0.346805
0.697984
0.705393
0.357355
0.326606
0.336952
0.692861
0.348055
1.12944
0.710938
0.687228
0.297721
0.534708
0.703355
0.691993
0.346087
0.693177
0.696849
0.308479
0.694939
0.702118
0.341625
0.356535
0.698524
0.344877
0.356899
0.694552
0.368515
0.692959
0.71085
0.706768
0.700124
0.705037
0.69372
0.691286
0.343532
0.398564
0.696782
0.694842
0.422922
0.703188
0.360647
0.693821
0.694633
0.6688
0.715986
0.448227
0.453138
0.69343
0.706572
0.696111
0.701917
0.69285
1.13676
0.701589
1.12742
0.701195
0.699887
0.700688
1.13542
0.692711
0.310845
0.699336
0.332353
0.698242
0.69343
0.710202
0.69401
0.710175
0.326711
0.337904
0.356785
0.347417
0.694368
0.349984
0.341419
0.714046
0.294564
0.711904
0.340059
0.69443
0.695071
0.35399
0.386785
0.343881
0.699774
0.336134
0.693415
0.695387
0.335864
0.699752
0.561684
0.34956
0.331649
0.301736
0.709352
0.357308
0.699977
0.59228
0.344673
0.691179
0.691449
0.705113
0.359832
0.66314
0.317001
0.695468
0.684495
0.696936
0.366389
0.694938
0.696123
0.696849
0.399296
0.699387
0.361814
0.357189
0.702121
0.458748
0.70396
0.434248
0.365601
0.412271
0.695992
0.3309
0.311238
0.33302
0.532199
1.13929
0.695397
0.328968
0.678209
0.692687
0.633575
0.479024
0.341703
0.603194
0.365649
0.358102
0.692491
0.35773
0.360651
0.700242
0.702304
0.340751
0.709534
0.337091
1.13706
0.333582
0.69986
1.00307
0.710023
0.679674
0.325976
0.356034
0.315801
0.688694
0.699419
0.695396
0.558188
0.380808
0.343346
0.691759
0.344061
0.693055
0.383693
0.954984
0.715253
0.345656
0.332641
0.35961
0.356393
0.331942
0.696376
0.694529
0.347424
0.693941
0.712733
0.346716
0.320809
0.702452
0.360284
0.69477
0.405983
0.710115
0.716039
0.693736
1.1369
0.325276
0.70468
0.699587
0.702281
0.355499
0.694076
0.691381
0.345419
0.700296
0.701715
0.702958
0.69484
0.702772
0.701454
0.701691
0.690713
0.691616
0.353189
0.705725
0.359731
0.490192
0.691721
0.316593
0.693904
0.69293
0.330831
0.696303
0.355521
0.310461
0.700726
0.692762
0.702298
0.347762
0.694679
0.696334
0.333778
0.345476
0.699931
0.691061
0.387038
0.329617
0.711858
0.702429
0.359806
0.71533
0.702661
0.709525
0.345249
0.361215
0.311071
0.71546
0.323317
0.692925
0.710031
0.691709
0.685309
0.694828
0.347784
0.699045
0.690318
0.702314
0.679001
0.320768
0.343703
0.309613
0.708088
0.696343
0.403973
0.716263
0.339645
0.701619
0.696555
0.313665
0.696927
0.692778
0.705031
0.344375
0.352824
0.340395
0.698085
0.703885
0.695839
0.493858
0.69405
0.36238
0.70966
1.14254
0.695237
0.343533
0.691116
0.332484
0.692883
0.306263
0.693578
0.700475
0.336407
0.695725
0.494142
1.13471
0.706718
1.12705
0.699644
0.436234
0.691795
0.691759
0.698571
0.693647
0.436113
1.141
0.334044
0.692093
0.312319
0.352232
0.316687
0.332062
0.364896
0.345312
0.702362
0.37899
0.326901
0.716451
0.697512
0.694556
0.381821
0.711229
0.711191
0.690292
0.307492
0.679245
0.69596
0.337999
0.329925
0.354577
0.708368
0.455163
0.356786
0.676746
0.300156
1.13635
0.452565
0.349609
0.444265
0.715088
0.341631
0.693826
0.317933
0.562221
0.384332
0.700684
0.387643
0.70422
1.1422
0.692939
0.47798
0.358427
0.701098
0.702609
0.329291
0.314366
0.689428
0.354425
0.709269
0.344125
0.619861
0.308255
0.694094
0.330827
0.702392
0.35204
0.697442
0.694864
0.706081
1.1357
0.333532
0.326351
0.377168
0.699774
0.71374
0.696041
0.636968
0.331181
0.711629
0.341927
0.699089
0.692169
0.423968
0.343196
0.706985
0.693324
0.320245
1.12051
0.701414
0.70691
0.70655
0.317718
0.710321
0.360726
0.706957
0.320632
0.683612
0.699365
0.70098
0.702246
0.346461
0.702368
0.353493
0.34045
0.6977
1.13527
0.57252
0.694502
1.13547
0.36176
0.708997
0.700438
0.701746
0.315138
0.423509
0.712189
0.349569
0.693841
0.699793
0.692989
0.70048
0.31942
0.472227
0.712398
0.334369
0.696708
0.702532
0.49591
0.700369
0.331871
0.693673
0.708832
0.712372
0.700061
0.353328
0.321908
0.693734
0.693993
0.328365
0.353345
0.328648
0.331124
0.327013
0.30527
0.334578
0.360757
0.694198
0.314093
0.344555
0.711704
0.574407
1.1326
0.394013
0.356151
0.692729
0.482091
0.54484
0.704343
0.384272
0.714151
0.836829
0.689529
0.695075
0.336359
0.695078
0.670344
0.333049
0.355996
0.428015
0.692705
0.690112
0.702923
0.694206
0.695412
0.694303
0.357649
0.694355
0.671932
0.70076
0.358131
0.694056
0.691794
0.355177
0.418006
0.340437
0.313696
0.326681
0.685596
0.71446
0.695932
0.358183
0.391509
0.702296
0.300379
0.6995
0.691934
0.692879
0.712084
0.693682
0.336761
0.31561
0.284
0.643872
0.320453
0.69286
0.283772
0.696245
0.690248
0.693735
0.338126
0.467093
0.429195
0.69484
0.330575
0.353261
0.701262
0.695115
0.698176
0.691867
0.7002
0.709458
0.364977
0.692782
0.705137
0.525761
0.694727
0.710238
0.708964
0.417706
0.402919
0.701742
0.452651
0.690643
0.358736
0.695647
0.693067
0.373975
0.324575
0.696267
0.520369
0.706395
0.701391
0.358183
0.353839
1.13586
0.471737
0.395937
0.692607
0.699811
0.333937
0.692199
1.13033
0.694257
0.365585
0.689145
0.363172
0.697733
0.70435
0.709483
0.69622
1.12872
0.352999
0.364875
0.69669
0.349618
0.687397
0.341328
0.693833
0.312441
0.716867
0.705655
1.13458
0.366449
1.12803
1.13867
0.354684
0.696085
0.300929
0.702273
0.364972
0.347025
0.273308
0.697615
0.691706
0.355926
0.355623
0.698366
0.702794
0.460331
0.709634
0.364833
0.536201
0.354582
0.696153
0.356866
0.71462
0.70089
0.33161
0.466426
0.347324