# vtk DataFile Version 1.0
unstructured grid
ascii
DATASET UNSTRUCTURED_GRID
points 13672 float
0.0796578 -0.059106 0
0.00128732 0.00159165 0
0.00227961 -0.00102548 0
0.0791586 -0.0598787 0
-0.0546216 0.01 0
0.000495206 0.025 0
0.0800549 -0.035 0
0.135172 -0.08 0
-0.0546216 -0.0451168 0
0.000495206 -0.0301168 0
0.0800549 -0.0901168 0
0.135172 -0.135117 0
-0.0546216 -0.0451168 -0.00551168
0.000495206 -0.0301168 -0.00551168
0.0800549 -0.0901168 -0.00551168
0.135172 -0.135117 -0.00551168
0.135172 -0.08 -0.00551168
0.0800549 -0.035 -0.00551168
0.000495206 0.025 -0.00551168
-0.0546216 0.01 -0.00551168
0.00128732 0.00159165 -0.00551168
0.00227961 -0.00102548 -0.00551168
0.0791586 -0.0598787 -0.00551168
0.0796578 -0.059106 -0.00551168
0.00165953 -0.000990923 0
0.00119576 -0.000874076 0
0.000866021 -0.000641801 0
0.000645147 -0.000349912 0
0.00052235 -1.7281e-05 0
0.00049972 0.000348016 0
0.000601632 0.000737716 0
0.000861774 0.0011403 0
0.00157235 0.00183217 0
0.00188647 0.00206725 0
0.00222612 0.00230203 0
0.00258713 0.00254351 0
0.00296826 0.00279524 0
0.00337118 0.00305664 0
0.00379785 0.00332658 0
0.00425045 0.00360349 0
0.00473139 0.00388521 0
0.0052432 0.00416895 0
0.0057881 0.00445204 0
0.00636753 0.00473281 0
0.00698281 0.00500961 0
0.00763526 0.00528058 0
0.00832616 0.00554366 0
0.00905691 0.00579603 0
0.00982918 0.00603333 0
0.0106445 0.00625033 0
0.0115038 0.00644128 0
0.0124073 0.00660297 0
0.0133543 0.00673414 0
0.0143444 0.00683382 0
0.0153769 0.00690031 0
0.0164512 0.00693173 0
0.0175666 0.00692547 0
0.0187219 0.00687822 0
0.0199156 0.00678477 0
0.0211454 0.00663864 0
0.0224084 0.00643275 0
0.0237018 0.00616676 0
0.0250249 0.00584739 0
0.026375 0.00547298 0
0.0277479 0.00503752 0
0.0291386 0.00453545 0
0.0305433 0.0039653 0
0.0319572 0.0033256 0
0.0333681 0.00260019 0
0.034775 0.00179799 0
0.0361793 0.000930615 0
0.0375798 3.12222e-06 0
0.0389689 -0.000988429 0
0.0403357 -0.00205109 0
0.041675 -0.00318283 0
0.0429849 -0.00437751 0
0.0442643 -0.00562904 0
0.0455126 -0.00693089 0
0.0467314 -0.00827518 0
0.0479204 -0.00965638 0
0.0490661 -0.0110799 0
0.0501515 -0.0125519 0
0.0511696 -0.0140695 0
0.0521492 -0.0156071 0
0.0531202 -0.0171411 0
0.0540851 -0.0186663 0
0.0550431 -0.0201798 0
0.0559923 -0.0216793 0
0.0569311 -0.0231626 0
0.0578582 -0.0246273 0
0.0587723 -0.0260715 0
0.0596721 -0.027493 0
0.0605563 -0.02889 0
0.0614241 -0.0302609 0
0.0622742 -0.0316042 0
0.063106 -0.0329183 0
0.0639186 -0.034202 0
0.0647113 -0.0354543 0
0.0654835 -0.0366743 0
0.0662345 -0.0378613 0
0.0669642 -0.0390145 0
0.0676726 -0.0401333 0
0.0683597 -0.0412172 0
0.0690246 -0.0422665 0
0.0696662 -0.0432819 0
0.0702841 -0.0442636 0
0.0708793 -0.0452111 0
0.0714538 -0.0461237 0
0.072009 -0.047001 0
0.0725452 -0.0478434 0
0.0730611 -0.0486524 0
0.073556 -0.0494294 0
0.0740291 -0.0501756 0
0.0744812 -0.0508916 0
0.0749138 -0.0515773 0
0.0753285 -0.0522331 0
0.0757266 -0.0528592 0
0.076109 -0.0534564 0
0.0764753 -0.0540264 0
0.0768243 -0.054571 0
0.0771553 -0.0550919 0
0.0774679 -0.0555901 0
0.0777617 -0.0560669 0
0.0780369 -0.056523 0
0.0782958 -0.0569578 0
0.0785421 -0.0573703 0
0.0787786 -0.0577603 0
0.0790073 -0.0581279 0
0.0792295 -0.058474 0
0.0794462 -0.0587995 0
0.0798803 -0.0594162 0
0.0800272 -0.0596588 0
0.0800357 -0.0598891 0
0.0799275 -0.0600784 0
0.0797205 -0.0601773 0
0.0794593 -0.0601051 0
0.0789155 -0.0596491 0
0.0786707 -0.0593963 0
0.0784111 -0.0591319 0
0.0781372 -0.0588542 0
0.0778566 -0.0585548 0
0.0775715 -0.0582308 0
0.0772803 -0.0578828 0
0.0769832 -0.0575099 0
0.0766822 -0.0571097 0
0.0763801 -0.0566796 0
0.0760759 -0.0562196 0
0.0757623 -0.0557337 0
0.0754359 -0.0552232 0
0.0750951 -0.0546879 0
0.0747379 -0.054128 0
0.0743626 -0.0535435 0
0.0739688 -0.0529338 0
0.0735559 -0.0522981 0
0.0731238 -0.0516357 0
0.0726718 -0.050946 0
0.0721991 -0.0502288 0
0.0717046 -0.049484 0
0.0711872 -0.0487117 0
0.0706461 -0.047912 0
0.0700804 -0.0470849 0
0.0694892 -0.0462308 0
0.0688718 -0.0453499 0
0.0682271 -0.0444431 0
0.0675544 -0.043511 0
0.0668527 -0.0425546 0
0.0661215 -0.0415748 0
0.06536 -0.040573 0
0.0645676 -0.0395504 0
0.0637439 -0.0385087 0
0.0628887 -0.0374493 0
0.062002 -0.0363741 0
0.0610838 -0.0352847 0
0.0601345 -0.0341831 0
0.0591547 -0.033071 0
0.0581456 -0.0319502 0
0.0571083 -0.0308224 0
0.0560444 -0.0296893 0
0.0549562 -0.028552 0
0.053845 -0.0274126 0
0.0527113 -0.0262746 0
0.051554 -0.0251427 0
0.0503724 -0.0240222 0
0.0491675 -0.0229164 0
0.047941 -0.0218282 0
0.0466955 -0.0207597 0
0.0454337 -0.0197126 0
0.0441592 -0.0186878 0
0.0428751 -0.0176863 0
0.0415841 -0.0167097 0
0.0402878 -0.0157609 0
0.0389879 -0.0148428 0
0.0376864 -0.0139575 0
0.0363853 -0.013107 0
0.0350871 -0.0122931 0
0.0337942 -0.0115164 0
0.0325095 -0.0107772 0
0.0312357 -0.0100756 0
0.0299758 -0.00941024 0
0.0287337 -0.00877784 0
0.0275126 -0.00817571 0
0.0263139 -0.00760375 0
0.0251376 -0.00706528 0
0.0239829 -0.0065649 0
0.0228537 -0.00609619 0
0.0217522 -0.00565563 0
0.0206795 -0.00524226 0
0.0196364 -0.00485507 0
0.0186233 -0.00449318 0
0.0176408 -0.00415577 0
0.016689 -0.00384204 0
0.0157682 -0.00355115 0
0.0148783 -0.00328218 0
0.0140192 -0.00303468 0
0.0131906 -0.00280795 0
0.0123925 -0.00260016 0
0.0116246 -0.00241012 0
0.0108864 -0.00223769 0
0.0101774 -0.00208212 0
0.00949701 -0.00194206 0
0.00884483 -0.0018163 0
0.0082202 -0.0017039 0
0.00762247 -0.00160391 0
0.00705097 -0.00151528 0
0.006505 -0.00143697 0
0.0059838 -0.00136806 0
0.00548662 -0.00130772 0
0.00501265 -0.00125519 0
0.00456114 -0.00120954 0
0.00413136 -0.00116914 0
0.00372257 -0.00113251 0
0.00333398 -0.00109853 0
0.00296466 -0.00106798 0
0.00261363 -0.0010431 0
-0.052721 -0.0445996 0
-0.0508204 -0.0440823 0
-0.0489199 -0.0435651 0
-0.0470193 -0.0430478 0
-0.0451187 -0.0425306 0
-0.0432181 -0.0420134 0
-0.0413175 -0.0414961 0
-0.039417 -0.0409789 0
-0.0375164 -0.0404616 0
-0.0356158 -0.0399444 0
-0.0337152 -0.0394271 0
-0.0318146 -0.0389099 0
-0.0299141 -0.0383927 0
-0.0280135 -0.0378754 0
-0.0261129 -0.0373582 0
-0.0242123 -0.0368409 0
-0.0223117 -0.0363237 0
-0.0204112 -0.0358065 0
-0.0185106 -0.0352892 0
-0.01661 -0.034772 0
-0.0147094 -0.0342547 0
-0.0128088 -0.0337375 0
-0.0109083 -0.0332202 0
-0.00900769 -0.032703 0
-0.00710711 -0.0321858 0
-0.00520653 -0.0316685 0
-0.00330595 -0.0311513 0
-0.00140537 -0.030634 0
0.00190689 -0.0299614 0
0.00332271 -0.0298498 0
0.00474133 -0.0297825 0
0.00616136 -0.0297597 0
0.0075814 -0.0297814 0
0.00900007 -0.0298477 0
0.010416 -0.0299583 0
0.0118278 -0.0301127 0
0.0132342 -0.0303103 0
0.0146339 -0.0305504 0
0.0160259 -0.0308322 0
0.0174091 -0.0311546 0
0.0187824 -0.0315166 0
0.020145 -0.031917 0
0.0214961 -0.0323546 0
0.0228351 -0.032828 0
0.0241613 -0.0333361 0
0.0254744 -0.0338774 0
0.0267738 -0.0344507 0
0.0280592 -0.0350545 0
0.0293306 -0.0356877 0
0.0305875 -0.0363488 0
0.0318301 -0.0370367 0
0.0330581 -0.0377501 0
0.0342717 -0.0384879 0
0.0354708 -0.0392489 0
0.0366556 -0.0400321 0
0.0378262 -0.0408363 0
0.0389828 -0.0416607 0
0.0401254 -0.0425042 0
0.0412543 -0.0433659 0
0.0423698 -0.0442451 0
0.043472 -0.0451408 0
0.0445612 -0.0460523 0
0.0456375 -0.0469789 0
0.0467013 -0.0479199 0
0.0477529 -0.0488746 0
0.0487923 -0.0498424 0
0.04982 -0.0508227 0
0.0508362 -0.051815 0
0.051841 -0.0528187 0
0.0528348 -0.0538333 0
0.0538178 -0.0548584 0
0.0547903 -0.0558935 0
0.0557524 -0.0569382 0
0.0567045 -0.0579922 0
0.0576467 -0.0590549 0
0.0585792 -0.0601261 0
0.0595024 -0.0612055 0
0.0604163 -0.0622926 0
0.0613212 -0.0633873 0
0.0622174 -0.0644891 0
0.0631049 -0.0655979 0
0.0639841 -0.0667134 0
0.064855 -0.0678353 0
0.0657179 -0.0689633 0
0.0665729 -0.0700974 0
0.0674202 -0.0712372 0
0.06826 -0.0723826 0
0.0690925 -0.0735333 0
0.0699178 -0.0746892 0
0.070736 -0.0758501 0
0.0715473 -0.0770159 0
0.0723518 -0.0781863 0
0.0731498 -0.0793612 0
0.0739412 -0.0805405 0
0.0747264 -0.081724 0
0.0755053 -0.0829116 0
0.0762781 -0.0841033 0
0.0770449 -0.0852987 0
0.0778059 -0.0864979 0
0.0785611 -0.0877007 0
0.0793108 -0.088907 0
0.0814681 -0.0912706 0
0.0828814 -0.0924245 0
0.0842946 -0.0935783 0
0.0857079 -0.0947322 0
0.0871211 -0.095886 0
0.0885344 -0.0970399 0
0.0899476 -0.0981937 0
0.0913609 -0.0993476 0
0.0927741 -0.100501 0
0.0941874 -0.101655 0
0.0956006 -0.102809 0
0.0970139 -0.103963 0
0.0984272 -0.105117 0
0.0998404 -0.106271 0
0.101254 -0.107424 0
0.102667 -0.108578 0
0.10408 -0.109732 0
0.105493 -0.110886 0
0.106907 -0.11204 0
0.10832 -0.113194 0
0.109733 -0.114348 0
0.111146 -0.115501 0
0.11256 -0.116655 0
0.113973 -0.117809 0
0.115386 -0.118963 0
0.116799 -0.120117 0
0.118213 -0.121271 0
0.119626 -0.122424 0
0.121039 -0.123578 0
0.122452 -0.124732 0
0.123866 -0.125886 0
0.125279 -0.12704 0
0.126692 -0.128194 0
0.128105 -0.129348 0
0.129519 -0.130501 0
0.130932 -0.131655 0
0.132345 -0.132809 0
0.133758 -0.133963 0
0.135172 -0.133216 0
0.135172 -0.131316 0
0.135172 -0.129415 0
0.135172 -0.127514 0
0.135172 -0.125614 0
0.135172 -0.123713 0
0.135172 -0.121813 0
0.135172 -0.119912 0
0.135172 -0.118012 0
0.135172 -0.116111 0
0.135172 -0.11421 0
0.135172 -0.11231 0
0.135172 -0.110409 0
0.135172 -0.108509 0
0.135172 -0.106608 0
0.135172 -0.104708 0
0.135172 -0.102807 0
0.135172 -0.100906 0
0.135172 -0.0990058 0
0.135172 -0.0971052 0
0.135172 -0.0952046 0
0.135172 -0.0933041 0
0.135172 -0.0914035 0
0.135172 -0.0895029 0
0.135172 -0.0876023 0
0.135172 -0.0857017 0
0.135172 -0.0838012 0
0.135172 -0.0819006 0
0.133758 -0.0788462 0
0.132345 -0.0776923 0
0.130932 -0.0765385 0
0.129519 -0.0753846 0
0.128105 -0.0742308 0
0.126692 -0.0730769 0
0.125279 -0.0719231 0
0.123866 -0.0707692 0
0.122452 -0.0696154 0
0.121039 -0.0684615 0
0.119626 -0.0673077 0
0.118213 -0.0661538 0
0.116799 -0.065 0
0.115386 -0.0638462 0
0.113973 -0.0626923 0
0.11256 -0.0615385 0
0.111146 -0.0603846 0
0.109733 -0.0592308 0
0.10832 -0.0580769 0
0.106907 -0.0569231 0
0.105493 -0.0557692 0
0.10408 -0.0546154 0
0.102667 -0.0534615 0
0.101254 -0.0523077 0
0.0998404 -0.0511538 0
0.0984272 -0.05 0
0.0970139 -0.0488462 0
0.0956006 -0.0476923 0
[...]
CELL_DATA 13116
SCALARS rho float
LOOKUP_TABLE default
0.5977
0.699337
0.468974
0.688619
0.690953
0.680945
0.371452
0.691602
0.5977
0.693193
0.367386
0.467919
0.690941
0.418273
0.437035
0.680962
0.5977
0.706881
0.680816
0.36778
0.5977
0.473949
0.442615
0.699995
0.5977
0.691411
0.693068
0.484185
0.5977
0.5977
0.679
0.455582
0.5977
0.597634
0.374751
0.5977
0.607541
0.694048
0.680835
0.691069
0.681072
0.691158
0.5977
0.447977
0.680415
0.680817
0.691645
0.68049
0.463431
0.597702
0.689588
0.597699
0.390119
0.5977
0.5977
0.5977
0.445529
0.696819
0.597701
0.450166
0.42062
0.691453
0.696464
0.680862
0.668252
0.405428
0.688407
0.591294
0.687819
0.672608
0.436653
0.5977
0.478326
0.426845
1.02496
0.410485
0.675852
0.689106
0.367621
0.711766
0.679598
0.690437
0.699041
0.681106
0.692988
0.552565
0.378966
0.5977
0.691596
0.367633
0.462933
0.698178
0.697311
0.691746
0.5977
0.5977
0.5977
0.783664
0.869939
0.5977
0.5977
0.689061
0.68108
0.596819
0.68858
0.455543
0.527145
0.5977
0.464969
0.5977
0.5977
0.689478
0.5977
0.679717
0.710391
0.688578
0.394388
0.545658
0.687752
0.689348
0.595288
0.489947
0.687421
0.46349
0.692312
0.578968
0.383176
0.597608
0.456989
0.597704
0.687887
0.685816
0.58364
0.467175
0.575438
0.5977
1.12672
0.68832
0.5977
0.689791
0.600557
0.692001
0.597695
0.634934
0.701892
0.429888
0.373397
0.690367
0.691367
0.690998
0.597706
0.680321
0.680461
0.381802
0.692492
0.692635
0.45031
0.597699
0.80182
0.597699
0.70053
0.367385
0.695709
0.451345
0.495422
0.6903
0.691965
0.70719
0.373409
0.564991
0.55059
1.12698
0.434016
0.597665
0.688947
0.44234
0.44962
0.477197
0.689276
0.680751
0.367705
0.565814
0.5977
0.589833
0.680731
0.5977
0.381536
0.680612
0.686567
0.591874
0.597069
0.690187
0.678536
0.460858
0.68931
0.680738
0.694975
0.680313
0.691688
0.597327
0.597597
0.5977
0.597298
0.429355
0.689591
0.680472
0.597699
0.5977
0.441226
0.367896
0.407935
0.680824
0.454946
0.368071
0.367954
0.385263
0.539428
0.680928
0.692364
0.547816
0.439669
0.687488
0.5977
0.367747
0.597698
0.692045
0.701746
0.484707
0.689155
0.536652
0.691371
0.456337
0.679297
0.5977
0.940484
0.691501
0.680464
0.469909
0.577856
0.5977
1.09064
0.680765
1.12672
0.680976
0.691804
0.453847
0.688643
0.692405
0.839879
0.368494
0.466769
0.6808
0.687725
0.671976
0.686485
0.5977
0.669948
0.367402
0.483009
0.568608
0.439169
0.687534
0.695
0.675144
0.370177
0.692558
0.391355
0.550071
0.68854
0.368571
0.690985
0.69078
1.11681
0.697002
0.467719
1.12137
0.685586
0.808356
0.688004
0.36771
0.373992
0.459975
0.5977
0.486373
0.480584
0.518441
0.506727
0.697053
0.396593
0.692222
0.690272
0.37456
0.367733
0.387395
0.574555
0.494661
0.5977
0.590548
0.690271
0.368093
0.680817
0.5977
0.487271
0.449404
0.68082
0.687622
0.680648
0.385033
0.680723
0.593824
0.685652
0.690812
0.690078
0.690789
0.462007
0.688797
0.419127
0.680764
0.69257
0.5977
0.367499
0.516839
0.691966
0.387686
0.69277
0.691397
0.5531
0.589163
0.699092
0.379647
0.692769
0.697694
0.416612
0.688018
0.550922
0.597702
0.693335
0.553042
0.597699
0.370063
0.701773
0.521342
0.680952
0.687368
0.695007
0.481163
0.529265
0.692821
0.379476
0.68856
0.686978
0.563034
1.12677
0.37958
0.461237
0.687169
0.597705
0.591215
0.377301
0.451883
0.688679
0.690369
0.370846
0.68992
0.404697
0.460039
0.689665
0.69294
0.5977
0.367842
0.68747
0.668239
0.680954
0.692567
0.692703
0.597706
0.549372
0.432086
0.367737
0.680984
0.367686
0.5977
0.552301
0.461817
0.526
0.5977
0.431813
0.376336
0.693825
0.469152
0.69521
0.5977
0.680605
0.5977
0.689345
0.464559
0.372772
0.597452
0.535372
0.687607
0.5977
0.681116
0.5977
0.700526
0.5977
0.690334
0.597702
0.5977
0.690864
0.715424
0.680829
0.572327
0.597704
0.5977
0.466286
0.591049
0.5977
0.388624
0.688928
1.12182
0.462898
0.367881
0.367794
0.375852
0.5977
0.404642
0.46033
0.68015
0.405174
0.5977
0.36792
0.680737
0.680745
0.504359
0.467466
0.687029
0.571707
0.367898
0.375431
0.367897
0.464916
0.373063
0.367897
0.487509
0.552535
0.367938
0.687745
0.518361
0.692276
0.585955
0.464032
0.577167
0.433248
0.367728
0.434789
0.691658
0.558816
0.5977
0.5977
0.400787
0.5977
0.691462
0.551185
0.589713
0.5977
0.5977
0.372225
0.925124
0.546126
0.69395
0.724773
0.464269
0.394915
0.686819
0.540808
0.552268
0.686238
0.526414
0.597699
0.702295
0.367777
0.445686
0.423377
0.597614
0.445954
0.406308
0.433791
0.416891
0.689734
0.690986
0.577414
0.5977
0.577947
0.689083
0.531125
0.399259
0.5977
0.465403
0.685319
0.504871
0.534827
0.581611
0.681736
0.691882
0.597704
0.553544
0.391173
0.597705
0.691288
0.680071
0.597705
0.69052
0.687396
0.367971
0.680767
0.5977
0.5977
0.515076
0.494984
0.680084
0.694334
0.5977
0.692415
0.691691
0.692481
0.700827
0.5977
0.680633
0.368111
0.68567
0.524592
0.447359
0.36797
0.689896
0.68066
0.511876
0.692549
0.5977
0.367473
0.680654
0.68724
0.690067
0.482804
0.395376
0.688544
0.367923
0.367878
0.442298
0.367963
0.681953
0.411904
0.689113
0.513639
0.698283
0.689916
0.68618
0.69071
0.367917
0.367701
0.680601
0.691206
0.656881
0.689921
0.692651
0.570905
0.376747
0.468634
0.680848
0.597699
0.367661
0.570599
0.461906
0.693167
0.682461
0.513671
0.47846
0.692038
0.555376
0.694438
0.5977
0.453408
0.536012
0.645369
1.09228
0.453481
0.691755
0.691941
0.68093
0.399863
1.12695
0.437536
0.989388
0.5977
0.367862
0.537659
0.48217
0.919103
0.467105
0.369368
0.54849
0.680755
0.686829
0.368543
0.479757
0.367935
0.680763
0.48258
0.680761
0.427707
0.5977
0.692172
0.585757
0.449048
0.444784
0.571875
0.470176
0.69147
0.392327
0.410629
0.680813
0.408486
0.680821
0.692473
0.851952
0.367867
0.685663
0.695214
0.69555
0.680825
0.693124
0.689306
0.443727
0.676873
0.549449
0.680707
0.367851
0.691536
0.5977
0.377814
0.65839
0.691706
0.383514
0.5977
0.461971
0.433348
0.680182
0.691892
0.463186
0.434962
0.367876
0.444788
0.692973
0.70004
0.396245
0.367812
0.68855
0.688901
0.5977
0.694983
0.680309
0.367399
0.694913
0.553837
0.689503
0.553074
0.5977
0.570004
0.686399
0.609628
0.5977
0.52743
0.477148
0.682127
0.5977
0.5977
0.695181
0.433387
0.684309
0.692217
0.539716
0.597702
0.694834
0.547146
0.662658
0.5977
0.515615
0.689952
0.5977
0.46981
0.687326
0.459126
0.691161
0.428825
0.680876
0.69553
0.476235
0.680706
0.695523
0.689046
0.5977
0.681118
0.5977
0.504799
0.59003
0.459945
0.424265
1.12677
0.597705
0.687584
0.691039
0.367743
0.508188
0.686184
0.691725
0.687291
0.69089
0.367832
0.717232
0.691928
0.367807
0.457226
0.687724
0.680719
0.691811
0.450499
0.5977
0.506253
0.687316
0.691317
0.679755
0.695316
0.367806
0.680496
0.692165
0.697533
0.691981
0.680876
0.54887
0.691842
0.367958
0.694814
0.69287
0.565314
0.702609
0.680874
0.690054
0.597712
0.569963
0.5977
0.5977
0.367926
0.36784
0.369697
0.367936
0.683835
0.682636
0.680449
0.509597
0.367709
0.687862
0.597702
0.413946
0.510329
0.56989
0.677032
0.680089
0.692616
0.696115
0.367867
0.367904
1.1267
0.463286
0.367997
0.396222
0.680766
0.503598
0.367683
0.5977
0.680241
0.689404
0.680809
0.680873
0.396141
0.41991
0.368544
0.5977
0.558889
0.458307
0.59015
0.697579
0.692764
0.680749
0.453526
0.368021
0.692779
0.367726
0.680901
0.694617
0.708549
0.462891
0.367824
0.691976
0.665485
0.5977
0.413901
0.693117
0.680904
0.5977
0.690779
0.690942
1.12652
0.690406
0.367807
0.680947
0.665161
0.591893
0.687172
1.12687
0.689647
1.12607
0.687408
0.408711
0.430194
0.367991
0.6556
0.597699
0.367737
0.685909
0.68915
0.466724
0.597701
0.510174
0.597552
0.5977
0.467983
0.691319
0.700414
0.367741
0.597135
0.662068
0.442645
0.691827
0.411706
0.453302
0.5977
0.5977
0.577186
0.681021
0.371661
0.695404
0.442458
0.458087
0.680889
0.367694
0.5977
0.460858
0.597703
0.5977
1.12521
0.691888
0.431794
0.414534
0.693608
0.5977
0.687254
0.59771
0.5977
0.680737
0.698084
0.5977
0.5977
0.689141
0.695349
0.687901
0.523488
0.367828
0.596446
0.689254
0.694658
0.549306
0.681019
0.5977
0.596175
0.462269
0.5977
0.675164
1.12685
0.961606
0.687977
0.683504
0.680814
0.679313
0.456613
0.5977
0.569285
0.690486
0.680565
0.506371
0.693557
0.690386
0.437573
0.461338
0.38568
1.12686
0.367427
0.5977
0.690519
0.5977
0.495251
0.695506
0.427735
0.5977
0.68072
0.678789
0.592883
0.680773
0.5977
0.679213
0.5977
0.680482
0.431445
0.68099
0.683398
0.5977
1.11942
0.685534
0.461452
0.433994
0.446235
0.690007
0.367756
1.12333
0.368617
0.691743
0.397204
0.569993
0.442733
0.693881
0.69071
0.5977
0.496817
0.5977
0.680919
0.367904
0.5977
0.690911
0.457937
0.5977
0.733071
0.692175
0.680852
0.464896
0.5977
0.68827
0.680817
0.697048
0.367768
0.565863
0.694032
1.12666
1.09453
1.12677
0.5977
0.685924
0.5977
0.690623
0.36769
0.430119
1.12668
0.690935
0.680731
0.410356
0.680867
0.5977
0.5977
0.428219
0.544654
0.689908
0.688316
0.597699
0.545012
0.680726
1.10206
0.370496
0.5977
0.694323
0.370964
0.463858
0.421273
0.687271
0.485251
0.368065
0.692663
0.597711
0.69512
0.597703
0.374709
0.374811
0.689533
0.431957
0.405158
0.668501
0.469577
0.53445
0.5977
0.693394
0.685965
0.367692
0.523537
0.367497
0.692966
0.458084
0.685948
0.40694
0.685855
0.693365
0.688895
0.690096
0.68016
0.690899
0.680265
0.690643
0.686548
0.408527
0.367773
0.678788
0.680767
0.577928
0.688449
0.5977
0.68073
0.593486
0.50111
0.688947
0.691252
0.680249
0.369736
0.680572
0.493958
0.682573
0.571628
0.706048
0.680853
0.469372
0.687357
0.367966
0.59755
0.697602
0.400323
0.597704
1.12674
0.692551
0.378444
0.680245
0.367696
0.462895
0.461997
0.367869
0.672071
0.43732
0.592477
0.680819
0.545039
0.461594
0.569745
0.5977
0.5977
0.6931
0.367797
0.392976
0.369514
0.441048
0.494933
0.5977
0.690253
0.48787
0.680685
0.689862
0.418594
0.690894
0.5977
0.68092
0.367726
1.04349
0.680502
0.690901
0.690629
0.445637
0.686098
0.691296
0.681611
0.5977
0.68062
0.482738
0.461944
0.6804
0.594855
0.367904
0.680952
0.451087
0.597702
0.5977
0.691423
0.691321
0.46178
0.687735
0.568735
0.36975
0.661585
0.689134
0.692285
0.688852
0.589753
0.463286
0.691051
0.447809
0.576909
0.690228
0.894003
0.687955
0.368461
0.483735
0.692378
0.491254
0.688258
0.5977
0.560293
0.502133
0.690159
0.459564
0.680874
0.688134
0.661824
0.460079
0.433689
0.596171
0.5977
0.5977
0.592501
0.680824
0.692739
0.692355
1.12685
0.68621
0.380256
0.499062
0.688877
0.680629
0.699573
0.562896
0.425515
0.680731
0.430419
0.680622
0.5977
0.541895
0.687143
0.367723
0.6934
0.470458
0.69212
0.464128
0.682315
0.680766
0.465801
0.692272
0.5977
0.469562
0.680761
0.680627
0.5977
0.430371
0.544948
0.594275
0.694914
0.687318
0.515284
0.5977
0.686694
0.680801
0.496436
0.5977
0.697483
0.55427
0.680831
0.680842
0.504849
0.686556
0.762685
0.463439
0.5977
0.371186
0.594267
0.374618
0.454484
0.695018
0.367834
0.367913
0.427973
0.685682
0.695275
0.579186
0.680675
0.540204
0.680933
0.367778
0.697717
0.552931
0.680783
0.680697
0.620554
0.680577
0.597514
0.680754
0.680838
0.48287
0.5977
0.610599
0.5977
0.686025
0.57241
0.587873
0.690949
0.367863
0.5977
0.513746
0.681149
0.407097
0.459912
0.70046
0.680632
0.367762
0.690423
0.697927
1.12694
0.690777
0.988854
0.367689
0.690573
0.367967
0.453855
0.691797
0.69568
0.691198
0.692309
0.452714
0.377791
0.367623
0.699734
0.680744
0.541667
0.693169
0.404135
0.377998
0.415331
0.691744
0.551008
0.691538
0.686719
0.5977
0.69204
0.68626
0.5977
0.665505
0.550593
0.46705
0.36772
0.99295
1.07723
0.41387
0.5977
0.685873
0.639034
0.463597
0.597712
0.693779
0.494248
0.692205
0.594167
0.368092
0.680607
0.681066
0.367717
0.685673
0.401471
0.687626
0.694465
0.68037
0.433503
0.561127
0.597705
0.509034
0.552847
0.691666
0.513458
0.680713
0.688254
0.690676
0.699657
0.558869
0.66441
0.655902
0.680826
0.529281
0.689453
0.453719
0.424988
0.694923
0.680254
0.680614
0.471307
0.680785
0.5977
1.02114
0.397057
0.403236
0.367917
0.689217
0.369138
0.408334
0.464683
0.594004
0.405733
0.505305
0.552571
0.685936
0.367911
0.679795
0.680641
0.690715
0.381887
0.686686
0.5977
0.68065
0.54618
0.5977
0.37547
0.36784
0.680137
0.36774
0.5977
0.686987
1.12614
0.36795
0.517602
0.38048
0.597705
1.12684
0.473743
0.690381
0.68316
0.700417
0.367595
0.444865
0.52249
0.687564
0.367853
1.12684
0.5977
0.680697
0.69441
0.367691
0.5977
0.44535
0.68295
0.5977
0.692213
0.597705
0.5977
0.5977
0.699265
0.689301
0.368255
0.576508
0.411821
0.707049
0.597699
0.914978
0.367989
0.550114
0.693175
0.686725
0.672937
0.367725
0.690984
0.597705
0.597704
0.687441
0.466786
0.367749
0.50601
0.681501
0.680749
0.5977
0.68905
0.521072
0.69247
0.5977
0.680723
0.680636
0.692306
0.691246
0.680862
0.691727
0.692577
0.466075
0.686621
0.688983
0.680674
0.686944
0.680194
0.5977
0.367712
0.46378
0.659164
0.368054
0.552822
0.69117
0.424057
0.5977
0.687427
0.69946
0.679202
0.463991
0.691354
0.462904
0.421197
0.680952
0.685599
0.680738
0.388365
0.689454
0.681033
0.698318
0.680785
0.464848
0.680672
0.692525
0.679019
0.587795
0.700277
0.367558
0.686978
0.407108
0.367716
0.5977
0.567143
0.691455
0.696361
0.68088
0.458435
0.680614
0.58317
0.428633
0.69102
0.568934
0.36771
0.681126
0.473631
0.581472
0.597687
0.692589
0.691835
0.570892
0.5977
0.5977
0.680856
0.5977
0.692412
0.595486
0.689389
0.689041
0.5977
0.449975
0.36756
0.564694
0.689001
0.461261
0.5977
0.690494
0.5977
0.680879
0.5977
0.597247
0.679508
0.367754
0.690389
0.686632
0.5977
0.687076
0.691472
0.691558
0.680775
0.367575
0.417439
0.680329
0.5977
0.5977
0.688631
0.681554
0.68069
0.694113
0.694819
0.5977
0.691273
0.692674
0.419388
0.473481
0.410612
0.526781
1.12023
0.58217
0.5977
0.6868
0.680006
0.458045
0.679473
0.688275
0.392841
0.537559
1.10551
0.687304
0.471065
0.453095
0.443038
1.12692
0.691702
0.597696
0.379644
0.368067
0.465114
0.537196
0.367892
0.692085
0.680694
0.684061
0.368648
0.699453
0.5977
0.5977
0.511388
0.367904
0.690815
1.12673
0.367786
0.680728
0.367719
0.700313
0.465398
0.69098
0.369136
0.69299
0.690148
0.377775
0.597704
0.493564
0.690514
0.470389
0.5977
0.447872
0.597707
0.374354
0.5977
0.367946
0.679159
0.678996
0.5977
0.680356
0.515564
0.69714
0.680696
0.689842
0.5977
0.681023
0.367875
0.597706
0.412247
0.69749
0.503685
0.690456
0.597705
0.696196
0.692064
0.5977
0.691166
0.430035
0.417347
0.418444
0.597707
0.5977
0.68052
0.367962
0.475655
0.680987
0.539863
0.458371
0.5977
0.538011
0.367746
0.461894
0.691014
0.5977
0.5977
0.438246
0.696247
0.685608
0.459791
0.52132
0.692279
0.680904
0.668776
0.584461
0.546802
0.529591
0.378531
0.693244
0.692968
0.597699
0.644542
0.44575
0.5977
0.367686
0.660821
0.690099
0.367894
0.488431
0.699916
0.5977
0.690243
0.692505
0.695084
0.690746
0.690721
0.390525
0.470899
0.416096
0.367833
0.5977
0.711512
0.5977
0.367886
0.367731
0.597711
0.462465
0.680639
0.693451
0.367885
0.512722
0.687444
0.454103
0.5977
0.694171
0.692905
0.680638
0.5977
0.367833
0.37212
0.689758
0.367933
0.594349
0.576928
0.680776
0.690618
0.499174
0.368075
1.12658
0.367884
0.687959
0.697756
0.367859
0.4398
0.394506
0.684797
0.396889
1.12679
0.686947
0.5977
0.457929
0.593808
0.688715
0.695239
0.368993
0.69681
0.635802
0.463341
0.687457
0.688699
0.367988
0.367724
0.691925
0.367832
0.367861
0.697492
0.52704
0.680867
0.597706
0.698012
0.590506
0.690831
0.688195
0.680771
0.36787
0.543911
0.701204
0.683082
0.56007
0.691036
0.521839
0.68713
0.691747
0.5977
0.5977
0.59771
0.571678
0.6798
0.690104
0.688748
0.690323
0.680304
1.12654
0.690701
1.12666
0.693008
0.691672
0.692939
1.12693
0.680776
0.448296
0.69046
0.4793
0.690124
0.686735
0.693373
0.691064
0.700853
0.433309
0.38002
0.511931
0.368036
0.693017
0.367975
0.3681
0.680448
0.452749
0.691381
0.376144
0.696694
0.68615
0.367905
0.538884
0.545733
0.688724
0.439082
0.680532
0.687269
0.385304
0.690533
0.597702
0.570213
0.479289
0.460698
0.587244
0.367717
0.690548
0.5977
0.499752
0.680089
0.681108
0.694958
0.367716
0.5977
0.449423
0.699732
0.680777
0.688597
0.367638
0.681799
0.688388
0.690241
0.558256
0.688456
0.367716
0.368034
0.691578
0.57964
0.693214
0.597708
0.367677
0.555224
0.69058
0.469847
0.452188
0.431567
0.5977
0.926644
0.686711
0.417098
0.5977
0.680466
0.597704
0.597703
0.538172
0.597702
0.367804
0.367714
0.68004
0.368063
0.367785
0.690121
0.68973
0.396115
0.70659
0.392952
1.11976
0.488442
0.691728
0.674334
0.703087
0.680531
0.450162
0.367762
0.458777
0.680801
0.69171
0.5977
0.597701
0.534821
0.509998
0.680932
0.367642
0.680734
0.534403
0.676603
0.592035
0.376405
0.455888
0.367905
0.368031
0.465777
0.70011
0.69426
0.368675
0.686567
0.5977
0.505571
0.431047
0.690871
0.367897
0.685987
0.548802
0.700528
0.5977
0.686842
0.850798
0.422463
0.694438
0.690702
0.690631
0.36771
0.689579
0.5977
0.54837
0.688694
0.641181
0.691533
0.695711
0.690963
0.691363
0.690564
0.680758
0.680779
0.367898
0.695887
0.36784
0.59771
0.691764
0.457053
0.694195
0.688024
0.470762
0.690548
0.367708
0.463108
0.691845
0.687463
0.689664
0.367746
0.694872
0.5977
0.489243
0.368837
0.692678
0.683089
0.537092
0.441768
0.690472
0.69068
0.367681
0.5977
0.690176
0.5977
0.388839
0.367705
0.456163
0.5977
0.465768
0.697268
0.709544
0.680934
0.5977
0.686074
0.367782
0.691563
0.5977
0.689904
0.597705
0.462623
0.368355
0.449936
0.700419
0.687932
0.547338
0.5977
0.527041
0.655505
0.68906
0.436529
0.601653
0.696024
0.5977
0.370247
0.372711
0.530418
0.687869
0.693255
0.5977
0.584667
0.686857
0.367848
0.5977
1.09431
0.682452
0.37177
0.5977
0.475087
0.689228
0.457592
0.680376
0.69183
0.435353
0.687626
0.597699
1.12639
0.597701
1.12686
0.690136
0.582686
0.680831
0.680895
0.690109
0.680313
0.565216
1.10852
0.403952
0.680786
0.446336
0.367517
0.458737
0.46213
0.367871
0.369773
0.689926
0.531623
0.412463
0.596953
0.68777
0.694296
0.594073
0.687032
0.618998
0.680668
0.473811
0.597701
0.688527
0.501027
0.451016
0.367768
0.5977
0.579706
0.367862
0.5977
0.454902
0.885817
0.577039
0.3873
0.568216
0.5977
0.532705
0.68514
0.43888
0.5977
0.53517
0.693395
0.543022
0.590705
1.11003
0.685519
0.5977
0.367527
0.692969
0.691219
0.454496
0.46335
0.680695
0.367915
0.700945
0.368585
0.597703
0.448021
0.688124
0.472312
0.690052
0.367581
0.689877
0.686407
0.690281
1.12029
0.402639
0.450663
0.594167
0.69233
0.679842
0.690584
0.5977
0.471803
0.690942
0.539289
0.691689
0.685504
0.593014
0.500711
0.69466
0.680771
0.446356
0.661586
0.692741
0.693105
0.698177
0.442034
0.5977
0.367993
0.692614
0.468353
0.680595
0.690632
0.693404
0.689595
0.50358
0.688896
0.367846
0.368713
0.684196
1.11121
0.5977
0.680111
1.12282
0.367645
0.704147
0.692925
0.690961
0.462864
0.563827
0.673534
0.368469
0.687429
0.690862
0.694735
0.693045
0.500643
0.596625
0.5977
0.438692
0.691436
0.690594
0.597683
0.691827
0.49844
0.690453
0.701155
0.5977
0.691975
0.372805
0.462101
0.681564
0.696193
0.463206
0.522896
0.463106
0.447813
0.411431
0.466297
0.495741
0.367929
0.681194
0.444813
0.389292
0.689615
0.5977
1.12677
0.547031
0.368043
0.682251
0.594439
0.5977
0.692702
0.539555
0.5977
0.680149
0.5977
0.69934
0.437971
0.686863
0.680869
0.395373
0.367992
0.591555
0.687546
0.5977
0.691405
0.680924
0.684015
0.698394
0.588766
0.687182
0.680795
0.693428
0.367522
0.688227
0.68416
0.580356
0.56085
0.393509
0.444345
0.412733
0.5977
0.597584
0.679938
0.367707
0.542651
0.690306
0.464748
0.687741
0.68087
0.694747
0.5977
0.686752
0.496589
0.446508
0.445519
0.5977
0.464652
0.68038
0.44674
0.680443
0.68079
0.686708
0.518583
0.591866
0.57602
0.686266
0.429714
0.367683
0.691278
0.698388
0.597706
0.680896
0.692993
0.699763
0.367804
0.5977
0.691755
0.592142
0.686179
0.689109
0.696689
0.555685
0.54668
0.690955
0.57589
0.5977
0.367915
0.696054
0.694172
0.59168
0.466246
0.699904
0.597044
0.690402
0.687798
0.367753
0.36782
0.745756
0.597699
0.596428
0.692691
0.692431
0.478294
0.694083
0.730855
0.691795
0.367873
0.5977
0.367793
0.692334
0.69006
0.697836
0.679355
0.689791
0.50768
0.538605
0.682168
0.36803
0.5977
0.493181
0.68655
0.426239
0.5977
0.692129
0.767542
0.367644
1.12687
1.04489
0.367682
0.69835
0.460239
0.69085
0.367678
0.372217
0.435185
0.680534
0.689964
0.519346
0.510347
0.690559
0.690643
0.574359
0.723503
0.367909
0.5977
0.367772
0.680033
0.367743
0.591896
0.691625
0.480388
0.597698
0.370415
0.680459
0.404141
0.367811
0.693055
0.461754
0.680517
0.596563
0.433053
0.691281
0.681201
0.692734
0.592129
0.491101
0.5977
0.459363
0.367569
0.692163
0.675056
0.686488
0.367985
0.537763
0.5977
0.69308
0.597705
0.694441
0.5977
0.690505
0.523284
0.692078
0.690116
0.5977
0.689614
0.464896
0.687328
0.367544
0.473627
0.451101
0.367604
0.691271
0.687546