# vtk DataFile Version 1.0
unstructured grid
ascii
DATASET UNSTRUCTURED_GRID
points 13672 float
0.0796578 -0.059106 0
0.00128732 0.00159165 0
0.00227961 -0.00102548 0
0.0791586 -0.0598787 0
-0.0546216 0.01 0
0.000495206 0.025 0
0.0800549 -0.035 0
0.135172 -0.08 0
-0.0546216 -0.0451168 0
0.000495206 -0.0301168 0
0.0800549 -0.0901168 0
0.135172 -0.135117 0
-0.0546216 -0.0451168 -0.00551168
0.000495206 -0.0301168 -0.00551168
0.0800549 -0.0901168 -0.00551168
0.135172 -0.135117 -0.00551168
0.135172 -0.08 -0.00551168
0.0800549 -0.035 -0.00551168
0.000495206 0.025 -0.00551168
-0.0546216 0.01 -0.00551168
0.00128732 0.00159165 -0.00551168
0.00227961 -0.00102548 -0.00551168
0.0791586 -0.0598787 -0.00551168
0.0796578 -0.059106 -0.00551168
0.00165953 -0.000990923 0
0.00119576 -0.000874076 0
0.000866021 -0.000641801 0
0.000645147 -0.000349912 0
0.00052235 -1.7281e-05 0
0.00049972 0.000348016 0
0.000601632 0.000737716 0
0.000861774 0.0011403 0
0.00157235 0.00183217 0
0.00188647 0.00206725 0
0.00222612 0.00230203 0
0.00258713 0.00254351 0
0.00296826 0.00279524 0
0.00337118 0.00305664 0
0.00379785 0.00332658 0
0.00425045 0.00360349 0
0.00473139 0.00388521 0
0.0052432 0.00416895 0
0.0057881 0.00445204 0
0.00636753 0.00473281 0
0.00698281 0.00500961 0
0.00763526 0.00528058 0
0.00832616 0.00554366 0
0.00905691 0.00579603 0
0.00982918 0.00603333 0
0.0106445 0.00625033 0
0.0115038 0.00644128 0
0.0124073 0.00660297 0
0.0133543 0.00673414 0
0.0143444 0.00683382 0
0.0153769 0.00690031 0
0.0164512 0.00693173 0
0.0175666 0.00692547 0
0.0187219 0.00687822 0
0.0199156 0.00678477 0
0.0211454 0.00663864 0
0.0224084 0.00643275 0
0.0237018 0.00616676 0
0.0250249 0.00584739 0
0.026375 0.00547298 0
0.0277479 0.00503752 0
0.0291386 0.00453545 0
0.0305433 0.0039653 0
0.0319572 0.0033256 0
0.0333681 0.00260019 0
0.034775 0.00179799 0
0.0361793 0.000930615 0
0.0375798 3.12222e-06 0
0.0389689 -0.000988429 0
0.0403357 -0.00205109 0
0.041675 -0.00318283 0
0.0429849 -0.00437751 0
0.0442643 -0.00562904 0
0.0455126 -0.00693089 0
0.0467314 -0.00827518 0
0.0479204 -0.00965638 0
0.0490661 -0.0110799 0
0.0501515 -0.0125519 0
0.0511696 -0.0140695 0
0.0521492 -0.0156071 0
0.0531202 -0.0171411 0
0.0540851 -0.0186663 0
0.0550431 -0.0201798 0
0.0559923 -0.0216793 0
0.0569311 -0.0231626 0
0.0578582 -0.0246273 0
0.0587723 -0.0260715 0
0.0596721 -0.027493 0
0.0605563 -0.02889 0
0.0614241 -0.0302609 0
0.0622742 -0.0316042 0
0.063106 -0.0329183 0
0.0639186 -0.034202 0
0.0647113 -0.0354543 0
0.0654835 -0.0366743 0
0.0662345 -0.0378613 0
0.0669642 -0.0390145 0
0.0676726 -0.0401333 0
0.0683597 -0.0412172 0
0.0690246 -0.0422665 0
0.0696662 -0.0432819 0
0.0702841 -0.0442636 0
0.0708793 -0.0452111 0
0.0714538 -0.0461237 0
0.072009 -0.047001 0
0.0725452 -0.0478434 0
0.0730611 -0.0486524 0
0.073556 -0.0494294 0
0.0740291 -0.0501756 0
0.0744812 -0.0508916 0
0.0749138 -0.0515773 0
0.0753285 -0.0522331 0
0.0757266 -0.0528592 0
0.076109 -0.0534564 0
0.0764753 -0.0540264 0
0.0768243 -0.054571 0
0.0771553 -0.0550919 0
0.0774679 -0.0555901 0
0.0777617 -0.0560669 0
0.0780369 -0.056523 0
0.0782958 -0.0569578 0
0.0785421 -0.0573703 0
0.0787786 -0.0577603 0
0.0790073 -0.0581279 0
0.0792295 -0.058474 0
0.0794462 -0.0587995 0
0.0798803 -0.0594162 0
0.0800272 -0.0596588 0
0.0800357 -0.0598891 0
0.0799275 -0.0600784 0
0.0797205 -0.0601773 0
0.0794593 -0.0601051 0
0.0789155 -0.0596491 0
0.0786707 -0.0593963 0
0.0784111 -0.0591319 0
0.0781372 -0.0588542 0
0.0778566 -0.0585548 0
0.0775715 -0.0582308 0
0.0772803 -0.0578828 0
0.0769832 -0.0575099 0
0.0766822 -0.0571097 0
0.0763801 -0.0566796 0
0.0760759 -0.0562196 0
0.0757623 -0.0557337 0
0.0754359 -0.0552232 0
0.0750951 -0.0546879 0
0.0747379 -0.054128 0
0.0743626 -0.0535435 0
0.0739688 -0.0529338 0
0.0735559 -0.0522981 0
0.0731238 -0.0516357 0
0.0726718 -0.050946 0
0.0721991 -0.0502288 0
0.0717046 -0.049484 0
0.0711872 -0.0487117 0
0.0706461 -0.047912 0
0.0700804 -0.0470849 0
0.0694892 -0.0462308 0
0.0688718 -0.0453499 0
0.0682271 -0.0444431 0
0.0675544 -0.043511 0
0.0668527 -0.0425546 0
0.0661215 -0.0415748 0
0.06536 -0.040573 0
0.0645676 -0.0395504 0
0.0637439 -0.0385087 0
0.0628887 -0.0374493 0
0.062002 -0.0363741 0
0.0610838 -0.0352847 0
0.0601345 -0.0341831 0
0.0591547 -0.033071 0
0.0581456 -0.0319502 0
0.0571083 -0.0308224 0
0.0560444 -0.0296893 0
0.0549562 -0.028552 0
0.053845 -0.0274126 0
0.0527113 -0.0262746 0
0.051554 -0.0251427 0
0.0503724 -0.0240222 0
0.0491675 -0.0229164 0
0.047941 -0.0218282 0
0.0466955 -0.0207597 0
0.0454337 -0.0197126 0
0.0441592 -0.0186878 0
0.0428751 -0.0176863 0
0.0415841 -0.0167097 0
0.0402878 -0.0157609 0
0.0389879 -0.0148428 0
0.0376864 -0.0139575 0
0.0363853 -0.013107 0
0.0350871 -0.0122931 0
0.0337942 -0.0115164 0
0.0325095 -0.0107772 0
0.0312357 -0.0100756 0
0.0299758 -0.00941024 0
0.0287337 -0.00877784 0
0.0275126 -0.00817571 0
0.0263139 -0.00760375 0
0.0251376 -0.00706528 0
0.0239829 -0.0065649 0
0.0228537 -0.00609619 0
0.0217522 -0.00565563 0
0.0206795 -0.00524226 0
0.0196364 -0.00485507 0
0.0186233 -0.00449318 0
0.0176408 -0.00415577 0
0.016689 -0.00384204 0
0.0157682 -0.00355115 0
0.0148783 -0.00328218 0
0.0140192 -0.00303468 0
0.0131906 -0.00280795 0
0.0123925 -0.00260016 0
0.0116246 -0.00241012 0
0.0108864 -0.00223769 0
0.0101774 -0.00208212 0
0.00949701 -0.00194206 0
0.00884483 -0.0018163 0
0.0082202 -0.0017039 0
0.00762247 -0.00160391 0
0.00705097 -0.00151528 0
0.006505 -0.00143697 0
0.0059838 -0.00136806 0
0.00548662 -0.00130772 0
0.00501265 -0.00125519 0
0.00456114 -0.00120954 0
0.00413136 -0.00116914 0
0.00372257 -0.00113251 0
0.00333398 -0.00109853 0
0.00296466 -0.00106798 0
0.00261363 -0.0010431 0
-0.052721 -0.0445996 0
-0.0508204 -0.0440823 0
-0.0489199 -0.0435651 0
-0.0470193 -0.0430478 0
-0.0451187 -0.0425306 0
-0.0432181 -0.0420134 0
-0.0413175 -0.0414961 0
-0.039417 -0.0409789 0
-0.0375164 -0.0404616 0
-0.0356158 -0.0399444 0
-0.0337152 -0.0394271 0
-0.0318146 -0.0389099 0
-0.0299141 -0.0383927 0
-0.0280135 -0.0378754 0
-0.0261129 -0.0373582 0
-0.0242123 -0.0368409 0
-0.0223117 -0.0363237 0
-0.0204112 -0.0358065 0
-0.0185106 -0.0352892 0
-0.01661 -0.034772 0
-0.0147094 -0.0342547 0
-0.0128088 -0.0337375 0
-0.0109083 -0.0332202 0
-0.00900769 -0.032703 0
-0.00710711 -0.0321858 0
-0.00520653 -0.0316685 0
-0.00330595 -0.0311513 0
-0.00140537 -0.030634 0
0.00190689 -0.0299614 0
0.00332271 -0.0298498 0
0.00474133 -0.0297825 0
0.00616136 -0.0297597 0
0.0075814 -0.0297814 0
0.00900007 -0.0298477 0
0.010416 -0.0299583 0
0.0118278 -0.0301127 0
0.0132342 -0.0303103 0
0.0146339 -0.0305504 0
0.0160259 -0.0308322 0
0.0174091 -0.0311546 0
0.0187824 -0.0315166 0
0.020145 -0.031917 0
0.0214961 -0.0323546 0
0.0228351 -0.032828 0
0.0241613 -0.0333361 0
0.0254744 -0.0338774 0
0.0267738 -0.0344507 0
0.0280592 -0.0350545 0
0.0293306 -0.0356877 0
0.0305875 -0.0363488 0
0.0318301 -0.0370367 0
0.0330581 -0.0377501 0
0.0342717 -0.0384879 0
0.0354708 -0.0392489 0
0.0366556 -0.0400321 0
0.0378262 -0.0408363 0
0.0389828 -0.0416607 0
0.0401254 -0.0425042 0
0.0412543 -0.0433659 0
0.0423698 -0.0442451 0
0.043472 -0.0451408 0
0.0445612 -0.0460523 0
0.0456375 -0.0469789 0
0.0467013 -0.0479199 0
0.0477529 -0.0488746 0
0.0487923 -0.0498424 0
0.04982 -0.0508227 0
0.0508362 -0.051815 0
0.051841 -0.0528187 0
0.0528348 -0.0538333 0
0.0538178 -0.0548584 0
0.0547903 -0.0558935 0
0.0557524 -0.0569382 0
0.0567045 -0.0579922 0
0.0576467 -0.0590549 0
0.0585792 -0.0601261 0
0.0595024 -0.0612055 0
0.0604163 -0.0622926 0
0.0613212 -0.0633873 0
0.0622174 -0.0644891 0
0.0631049 -0.0655979 0
0.0639841 -0.0667134 0
0.064855 -0.0678353 0
0.0657179 -0.0689633 0
0.0665729 -0.0700974 0
0.0674202 -0.0712372 0
0.06826 -0.0723826 0
0.0690925 -0.0735333 0
0.0699178 -0.0746892 0
0.070736 -0.0758501 0
0.0715473 -0.0770159 0
0.0723518 -0.0781863 0
0.0731498 -0.0793612 0
0.0739412 -0.0805405 0
0.0747264 -0.081724 0
0.0755053 -0.0829116 0
0.0762781 -0.0841033 0
0.0770449 -0.0852987 0
0.0778059 -0.0864979 0
0.0785611 -0.0877007 0
0.0793108 -0.088907 0
0.0814681 -0.0912706 0
0.0828814 -0.0924245 0
0.0842946 -0.0935783 0
0.0857079 -0.0947322 0
0.0871211 -0.095886 0
0.0885344 -0.0970399 0
0.0899476 -0.0981937 0
0.0913609 -0.0993476 0
0.0927741 -0.100501 0
0.0941874 -0.101655 0
0.0956006 -0.102809 0
0.0970139 -0.103963 0
0.0984272 -0.105117 0
0.0998404 -0.106271 0
0.101254 -0.107424 0
0.102667 -0.108578 0
0.10408 -0.109732 0
0.105493 -0.110886 0
0.106907 -0.11204 0
0.10832 -0.113194 0
0.109733 -0.114348 0
0.111146 -0.115501 0
0.11256 -0.116655 0
0.113973 -0.117809 0
0.115386 -0.118963 0
0.116799 -0.120117 0
0.118213 -0.121271 0
0.119626 -0.122424 0
0.121039 -0.123578 0
0.122452 -0.124732 0
0.123866 -0.125886 0
0.125279 -0.12704 0
0.126692 -0.128194 0
0.128105 -0.129348 0
0.129519 -0.130501 0
0.130932 -0.131655 0
0.132345 -0.132809 0
0.133758 -0.133963 0
0.135172 -0.133216 0
0.135172 -0.131316 0
0.135172 -0.129415 0
0.135172 -0.127514 0
0.135172 -0.125614 0
0.135172 -0.123713 0
0.135172 -0.121813 0
0.135172 -0.119912 0
0.135172 -0.118012 0
0.135172 -0.116111 0
0.135172 -0.11421 0
0.135172 -0.11231 0
0.135172 -0.110409 0
0.135172 -0.108509 0
0.135172 -0.106608 0
0.135172 -0.104708 0
0.135172 -0.102807 0
0.135172 -0.100906 0
0.135172 -0.0990058 0
0.135172 -0.0971052 0
0.135172 -0.0952046 0
0.135172 -0.0933041 0
0.135172 -0.0914035 0
0.135172 -0.0895029 0
0.135172 -0.0876023 0
0.135172 -0.0857017 0
0.135172 -0.0838012 0
0.135172 -0.0819006 0
0.133758 -0.0788462 0
0.132345 -0.0776923 0
0.130932 -0.0765385 0
0.129519 -0.0753846 0
0.128105 -0.0742308 0
0.126692 -0.0730769 0
0.125279 -0.0719231 0
0.123866 -0.0707692 0
0.122452 -0.0696154 0
0.121039 -0.0684615 0
0.119626 -0.0673077 0
0.118213 -0.0661538 0
0.116799 -0.065 0
0.115386 -0.0638462 0
0.113973 -0.0626923 0
0.11256 -0.0615385 0
0.111146 -0.0603846 0
0.109733 -0.0592308 0
0.10832 -0.0580769 0
0.106907 -0.0569231 0
0.105493 -0.0557692 0
0.10408 -0.0546154 0
0.102667 -0.0534615 0
0.101254 -0.0523077 0
0.0998404 -0.0511538 0
0.0984272 -0.05 0
0.0970139 -0.0488462 0
0.0956006 -0.0476923 0
[...]
CELL_DATA 13116
SCALARS rho float
LOOKUP_TABLE default
0.633632
0.693629
0.341752
0.708178
0.69865
0.686825
0.36023
0.705532
0.582746
0.715427
0.361758
0.315148
0.698669
0.351631
0.344419
0.686801
0.635271
0.718072
0.691762
0.356411
0.627665
0.348925
0.344889
0.718201
0.674501
0.690824
0.715737
0.345408
0.62435
0.713937
1.08091
0.329584
0.605942
0.462295
0.356345
0.631002
0.704637
0.691663
0.680429
0.690498
0.691738
0.705754
0.517921
0.340198
0.691612
0.691797
0.68916
0.693729
0.353201
0.565332
0.698809
0.50831
0.356989
0.6305
0.60604
0.635019
0.340658
0.708617
0.577884
0.351371
0.350441
0.710612
0.690562
0.67154
1.02452
0.348342
0.696004
0.708659
0.695899
0.891836
0.343389
0.625376
0.347585
0.344326
1.12651
0.338174
0.695004
0.697728
0.360119
0.719472
0.702912
0.6904
0.717896
0.694065
0.690693
0.460355
0.354828
0.713997
0.689326
0.364554
0.333992
0.693534
0.717421
0.689581
0.71
0.663954
0.695
1.13087
1.12634
0.635432
0.726718
0.682141
0.69134
0.435247
0.687555
0.340865
0.418509
0.553477
0.3439
0.774269
0.58007
0.689021
0.657243
0.70453
0.718826
0.694666
0.353531
0.419603
0.696704
0.696165
0.708635
0.350186
0.696141
0.334486
0.691339
0.451098
0.354681
0.508332
0.343407
0.563416
0.696853
0.696779
0.493834
0.350928
0.474944
0.671947
1.1264
0.69646
0.727142
0.695494
0.691422
0.68915
0.518103
0.691014
0.691729
0.349146
0.355474
0.689677
0.699773
0.699175
0.523866
0.693804
0.693598
0.344261
0.708828
0.690786
0.342631
0.723432
1.12163
0.718502
0.718761
0.361836
0.706867
0.343669
0.350146
0.705157
0.690924
0.717945
0.357862
0.462545
0.439634
1.12673
0.345045
0.496221
0.689558
0.344308
0.343532
0.348252
0.688702
0.692824
0.355767
0.444029
0.60141
0.705917
0.692917
0.578697
0.346237
0.689725
0.686447
0.467495
0.697614
0.689414
0.8053
0.339105
0.688234
0.692941
0.716995
0.689981
0.689499
0.392763
0.436827
0.778425
0.498577
0.345552
0.699017
0.692925
0.51896
0.68685
0.349329
0.35886
0.339058
0.694931
0.342257
0.3595
0.364873
0.34346
0.408819
0.684877
0.691341
0.458582
0.340652
0.695683
0.574761
0.35603
0.53267
0.713047
0.691534
0.345805
0.691861
0.436684
0.707446
0.331407
0.808599
0.614598
1.13422
0.690287
0.72257
0.361763
0.446474
0.724791
1.12705
0.693428
1.12625
0.690564
0.704779
0.344299
0.697596
0.708706
1.12985
0.354565
0.354285
0.69302
0.69663
0.933562
0.695204
0.629169
0.714239
0.362073
0.370061
0.401342
0.34919
0.685619
0.716952
0.693963
0.35669
0.690748
0.347762
0.44724
0.687941
0.350036
0.6904
0.700972
1.12665
0.705284
0.360397
1.12685
0.703291
1.13055
0.696263
0.359649
0.353525
0.340406
0.668754
0.348837
0.355285
0.409211
0.382084
0.691984
0.357506
0.690053
0.698391
0.349766
0.355328
0.348626
0.456406
0.345199
0.711116
0.680593
0.688366
0.350878
0.694636
0.544936
0.365096
0.35027
0.685927
0.696546
0.689946
0.345675
0.692869
0.44545
0.696294
0.705273
0.69923
0.704587
0.339888
0.693355
0.349634
0.687355
0.713978
0.731529
0.360875
0.407343
0.709577
0.349713
0.688925
0.710134
0.375582
0.723215
0.717753
0.350571
0.690822
0.717562
0.354075
0.697299
0.464585
0.542268
0.703931
0.466411
0.723371
0.356178
0.719117
0.415973
0.669897
0.682409
0.716954
0.344827
0.413372
0.690808
0.344949
0.698113
0.686853
0.439176
1.12696
0.345706
0.342289
0.696786
0.530336
0.707604
0.353251
0.343158
0.697762
0.698268
0.356351
0.698003
0.351601
0.348019
0.690239
0.704153
0.568455
0.366854
0.696005
1.05217
0.686589
0.690618
0.701768
0.532665
0.356536
0.348337
0.355819
0.686476
0.3563
0.602316
0.379815
0.338124
0.411008
0.574206
0.150573
0.345853
0.690998
0.321729
0.707945
0.626003
0.692369
0.714743
0.697528
0.342795
0.353456
0.39924
0.362529
0.697422
0.651225
0.691824
0.622274
0.692703
0.703613
0.690077
0.695654
0.714332
0.70039
0.720029
0.686847
0.4049
0.513671
0.631095
0.34584
0.6795
0.635651
0.356533
0.694223
1.12659
0.340505
0.358586
0.362128
0.347425
0.767495
0.343207
0.339542
0.695178
0.34656
0.616916
0.363543
0.686584
0.700446
0.347344
0.349685
0.696862
0.455489
0.363972
0.347858
0.365911
0.343992
0.352771
0.358792
0.353224
0.44846
0.362232
0.681236
0.351995
0.690423
0.37504
0.333921
0.498049
0.347186
0.364458
0.344462
0.690165
0.447032
0.747018
0.566736
0.347872
0.693816
0.689314
0.457297
0.723949
0.700427
0.698611
0.351906
1.13101
0.422277
0.701367
1.10886
0.342354
0.357313
0.686265
0.363771
0.464198
0.683357
0.416453
0.723537
0.691238
0.354684
0.34203
0.344665
0.489495
0.34881
0.356119
0.344179
0.350619
0.70773
0.709207
0.460818
0.635832
0.476607
0.688063
0.401439
0.341329
0.587766
0.342718
0.695335
0.384786
0.417886
0.490499
0.691679
0.691413
0.532494
0.373201
0.357978
0.537777
0.70502
0.733105
0.536262
0.688092
0.685316
0.361874
0.700284
0.608334
0.726693
0.387913
0.345218
0.704759
0.717148
0.716813
0.71414
0.689183
0.692939
0.71885
0.73028
0.692291
0.360387
0.691553
0.421703
0.350521
0.36095
0.70892
0.692716
0.397484
0.690501
0.801487
0.361082
0.668293
0.696298
0.701365
0.345237
0.342228
0.697752
0.364459
0.364403
0.329597
0.361925
0.694981
0.354913
0.708428
0.351268
0.693793
0.698331
0.695577
0.69835
0.364768
0.356162
0.693784
0.707915
0.6998
0.707593
0.708736
0.492394
0.35076
0.343469
0.694279
0.578615
0.362019
0.457251
0.338103
0.697943
0.689757
0.388714
0.350413
0.690288
0.470148
0.691171
0.73536
0.343319
0.434333
0.699139
1.12812
0.343656
0.691372
0.690938
0.693433
0.340032
1.12649
0.341401
1.13454
0.725359
0.36721
0.405484
0.354404
1.13501
0.344041
0.358904
0.420952
0.668915
0.698692
0.359361
0.366694
0.362956
0.67243
0.3488
0.693657
0.35114
0.627941
0.713522
0.377794
0.343958
0.344434
0.494271
0.343824
0.691192
0.344113
0.339381
0.686734
0.349072
0.692912
0.688775
1.13251
0.361674
0.69534
0.715605
0.716449
0.694408
0.699907
0.68911
0.327187
0.828611
0.459998
0.693938
0.358798
0.704639
0.554605
0.357545
1.08564
0.700589
0.344675
0.697409
0.33388
0.342311
0.6952
0.690025
0.335833
0.345859
0.359882
0.312882
0.699326
0.717915
0.340802
0.35307
0.698374
0.69732
0.629633
0.714033
0.68938
0.361966
0.716782
0.44265
0.698523
0.419147
0.646765
0.478425
0.692557
0.707107
0.593027
0.39792
0.344719
0.68997
0.636577
0.624923
0.712997
0.348895
0.701574
0.708121
0.445251
0.511528
0.714711
0.377196
0.98433
0.726172
0.405999
0.697122
0.710831
0.342462
0.699486
0.340355
0.689476
0.337651
0.694671
0.68984
0.344895
0.679004
0.708988
0.698314
0.792569
0.698381
0.55203
0.367969
0.442031
0.331532
0.345275
1.12689
0.534463
0.696905
0.700076
0.359116
0.356657
0.698226
0.713582
0.696971
0.701842
0.359691
0.719656
0.70726
0.356913
0.328508
0.696729
0.692996
0.690138
0.303485
0.543877
0.34801
0.700123
0.688603
0.782315
0.693043
0.362031
0.69523
0.690101
0.717854
0.690169
0.692192
0.46067
0.701396
0.357932
0.68732
0.713008
0.460691
0.692251
0.696743
0.698168
0.445382
0.4255
0.578486
0.721343
0.36418
0.36713
0.348738
0.362549
0.694539
0.70138
0.710232
0.382771
0.362306
0.695476
0.724907
0.354746
0.358317
0.463442
0.700954
0.689917
0.690499
0.704075
0.359639
0.364312
1.12693
0.333637
0.359251
0.342808
0.690309
0.34763
0.364942
0.629849
0.693755
0.688549
0.686665
0.689705
0.352162
0.344678
0.349773
0.576768
0.449369
0.332953
0.708359
0.707227
0.69005
0.693517
0.312769
0.362626
0.714437
0.362485
0.691999
0.689537
1.10513
0.336037
0.366042
0.689152
1.08178
0.654681
0.355098
0.690953
0.686605
0.627314
0.69884
0.702815
1.12695
0.687931
0.359717
0.689657
0.986376
0.687708
0.700467
1.12691
0.689424
1.12779
0.696237
0.340069
0.337976
0.362829
1.06562
0.558561
0.362687
0.697884
0.698774
0.319937
0.69981
0.348492
0.698384
0.561708
0.359699
0.71221
0.717914
0.362288
0.529134
1.0487
0.343257
0.689672
0.34871
0.344233
0.698924
0.663789
0.496558
0.691512
0.347611
0.703737
0.340779
0.324337
0.693387
0.361945
0.671494
0.338043
0.698863
0.647667
1.12674
0.691055
0.347435
0.338684
0.685951
0.526215
0.697052
0.473288
0.649953
0.686598
0.718011
0.533597
0.748337
0.688461
0.716845
0.69693
0.419037
0.366566
0.526737
0.688303
0.717054
0.395573
0.691198
0.656183
0.397766
0.336683
0.729775
0.701434
1.12646
1.13544
0.683714
0.703389
0.682249
0.703508
0.336109
0.723363
0.460358
0.698751
0.692735
0.386709
0.702478
0.699231
0.337911
0.356851
0.34945
1.12691
0.361653
0.698866
0.701197
0.727632
0.381024
0.691471
0.347128
0.539041
0.6705
0.7671
0.708595
0.668987
0.71993
0.702829
0.583135
0.693675
0.338099
0.691185
0.695491
0.50912
1.13048
0.701157
0.340468
0.348011
0.342881
0.698921
0.36702
1.1282
0.349596
0.705404
0.356431
0.480321
0.341219
0.70158
0.699999
0.627581
0.375123
0.717729
0.689641
0.355138
0.62872
0.709506
0.331606
0.636757
1.12272
0.713049
0.692516
0.341541
0.55081
0.697401
0.692069
0.68773
0.365735
0.42197
0.691174
1.12692
1.12744
1.12685
0.619375
0.69712
0.615446
0.694959
0.3656
0.3462
1.12671
0.699334
0.676912
0.347572
0.691097
0.631465
0.678423
0.336592
0.443925
0.697988
0.706658
0.60053
0.359668
0.69289
1.13275
0.359904
0.686777
0.703107
0.359086
0.333887
0.348129
0.686561
0.351555
0.360692
0.690732
0.48247
0.716787
0.70115
0.358659
0.351588
0.705958
0.337461
0.342415
1.07973
0.34509
0.402358
0.640317
0.699696
0.695909
0.362585
0.350611
0.359975
0.689116
0.340663
0.695959
0.345837
0.697665
0.696616
0.691384
0.688777
0.6954
0.688812
0.68984
0.698444
0.69614
0.355735
0.353589
0.694706
0.684622
0.502254
0.687393
0.60423
0.677671
0.686257
0.346838
0.694947
0.710289
0.693185
0.352659
0.695285
0.346137
0.694145
0.495295
0.719109
0.694211
0.359854
0.697893
0.362562
0.457978
0.690979
0.341715
0.724079
1.12685
0.702924
0.346511
0.694491
0.363085
0.33512
0.337951
0.364946
0.684145
0.34648
0.694219
0.674625
0.361163
0.339303
0.486683
0.606152
0.714124
0.687838
0.361579
0.34977
0.358156
0.343549
0.369807
0.711435
0.689695
0.345741
0.667383
0.700686
0.348808
0.710969
0.72506
0.661415
0.353476
1.13461
0.698382
0.700504
0.699421
0.348028
0.696279
0.700393
0.695342
0.729332
0.690451
0.358938
0.337847
0.693735
0.523539
0.366391
0.692745
0.341615
0.541784
0.699374
0.689357
0.68977
0.334449
0.687127
0.398067
0.351743
0.72306
0.698285
0.699601
0.697358
0.703096
0.335237
0.700786
0.350679
0.500936
0.703666
1.12481
0.697234
0.353669
0.361951
0.71099
0.377525
0.6975
0.741595
0.442512
0.363785
0.691191
0.337615
0.693919
0.697423
0.699312
0.337942
0.338293
0.495882
0.578059
0.702588
0.475185
0.688313
0.688089
0.690514
1.12688
0.698085
0.359256
0.361271
0.697825
0.690624
0.687853
0.461362
0.345575
0.700106
0.346199
0.689677
0.788158
0.354952
0.697338
0.361147
0.69633
0.341862
0.698957
0.358485
0.694334
0.692879
0.330571
0.69065
0.718996
0.330861
0.717084
0.691376
0.605182
0.349972
0.392336
0.470483
0.715836
0.685086
0.355987
0.546356
0.698449
0.686624
0.382194
0.690724
0.691985
0.470404
0.689035
0.686876
0.390298
0.695303
1.12353
0.34112
0.663265
0.348719
0.697542
0.346466
0.346975
0.717244
0.363249
0.363245
0.347445
0.695114
0.690782
0.410665
0.692706
0.394145
0.697033
0.36325
0.691523
0.382827
0.686444
0.694023
0.698172
0.720967
0.53057
0.692999
0.66628
0.344706
0.739174
0.699309
0.596505
0.697832
0.492327
0.428562
0.699539
0.354104
0.614746
0.349175
0.691612
0.355472
0.339031
0.718051
0.689626
0.355341
0.696869
0.709943
1.12689
0.701563
1.13514
0.360073
0.711629
0.35807
0.342551
0.689802
0.70344
0.705541
0.690534
0.331176
0.345503
0.359941
0.69316
0.685244
0.392365
0.701429
0.349451
0.345869
0.337481
0.689467
0.420143
0.707237
0.696476
0.741681
0.690041
0.695887
0.632829
0.693176
0.453396
0.333787
0.35577
1.13545
1.13484
0.34754
0.708357
0.685572
0.695506
0.341801
0.448922
0.688353
0.360404
0.68758
0.681726
0.359207
0.68863
0.694509
0.363209
0.695603
0.344527
0.697032
0.716627
0.695281
0.347076
0.475335
0.725455
0.395464
0.467522
0.690096
0.395281
0.6914
0.696739
0.690146
0.713521
0.358723
1.098
0.722714
0.691913
0.425967
0.697624
0.343437
0.352187
0.691004
0.689848
0.68057
0.317236
0.694776
0.746282
1.12624
0.34973
0.352704
0.364467
0.697865
0.360464
0.347849
0.341359
0.680676
0.344907
0.38528
0.457358
0.695675
0.361362
0.742163
0.684291
0.689994
0.345878
0.69482
0.713931
0.672325
0.444923
0.731531
0.353814
0.354236
0.693271
0.355512
0.701237
0.699085
1.12655
0.360619
0.408829
0.345484
0.537241
1.12623
0.320478
0.691724
0.695154
0.713929
0.362794
0.349808
0.416961
0.684786
0.362849
1.12687
0.683936
0.690593
0.691285
0.36006
0.698515
0.32868
0.676674
0.740765
0.714048
0.675379
0.602656
0.729763
0.687965
0.69793
0.350062
0.374099
0.344773
0.719362
0.58401
1.12287
0.360491
0.428996
0.702153
0.69479
0.872841
0.355994
0.690454
0.536315
0.537549
0.685317
0.343896
0.356581
0.390587
0.689804
0.681888
0.730213
0.687775
0.412499
0.704041
0.733374
0.68031
0.68736
0.702373
0.710608
0.686903
0.702908
0.699951
0.342276
0.695325
0.697447
0.690193
0.696071
0.689923
0.667481
0.360537
0.336664
0.687335
0.365833
0.359112
0.690044
0.340387
0.749296
0.695342
0.692612
0.693294
0.340682
0.692636
0.33798
0.347955
0.687264
0.696048
0.693583
0.344685
0.698236
0.691643
0.68688
0.689804
0.346238
0.690285
0.712008
0.69547
0.394457
0.717683
0.360419
0.706799
0.339918
0.360787
0.636838
0.45683
0.712354
0.707456
0.692673
0.340489
0.69029
0.413098
0.342419
0.690565
0.491178
0.364986
0.691515
0.354797
0.506652
0.708797
0.688948
0.689709
0.490305
0.574564
0.711877
0.693358
0.667966
0.699544
0.524447
0.706609
0.687385
0.713631
0.299661
0.360563
0.455042
0.697223
0.340532
0.720536
0.697766
0.672841
0.693508
0.614836
0.724801
0.703524
0.354111
0.695577
0.686677
0.60767
0.687051
0.706712
0.691286
0.686301
0.36243
0.338638
0.694436
0.589111
0.620442
0.69717
0.694128
0.69312
0.717066
0.716791
0.709643
0.687914
0.71452
0.346071
0.339001
0.355475
0.351616
1.12697
0.463862
0.611942
0.697017
0.703687
0.342692
0.693513
0.708237
0.3445
0.420193
1.13025
0.695907
0.343864
0.310488
0.318435
1.12685
0.691039
0.397172
0.359691
0.358587
0.350428
0.372592
0.366393
0.707173
0.693936
0.698695
0.349485
0.69255
0.687126
0.781992
0.368725
0.358011
0.690631
1.12638
0.36405
0.686393
0.362953
0.718832
0.342311
0.689995
0.3505
0.690286
0.698198
0.346464
0.539432
0.36726
0.711087
0.341459
0.692722
0.342478
0.545209
0.353014
0.683569
0.355784
0.813061
0.776539
0.749303
0.695193
0.3699
0.691555
0.687187
0.698101
0.684501
0.697961
0.358117
0.445377
0.346539
0.717586
0.384467
0.699416
0.528776
0.704309
0.712422
0.555045
0.700751
0.341782
0.34896
0.345546
0.531283
0.642838
0.694086
0.351229
0.353583
0.691208
0.446645
0.337075
0.661759
0.413507
0.364429
0.335293
0.706095
0.735945
0.695737
0.345118
0.691129
0.689752
0.328463
0.415849
0.690422
0.689638
0.67684
0.50996
0.457892
0.427152
0.345188
0.697906
0.686086
0.578609
0.721249
0.350435
0.626855
0.361083
1.01855
0.699004
0.358515
0.375347
0.687572
0.657938
0.698378
0.699931
0.713535
0.699163
0.70517
0.342518
0.34726
0.34358
0.359539
0.632396
1.10624
0.735096
0.359914
0.360352
0.470553
0.3325
0.692997
0.688734
0.364354
0.38527
0.695482
0.343938
0.711804
0.701064
0.689117
0.689886
0.6334
0.364179
0.350145
0.68681
0.358764
0.450105
0.40654
0.684155
0.690115
0.385049
0.359659
1.12688
0.354678
0.687526
0.717537
0.362149
0.338093
0.35792
0.694633
0.353463
1.12688
0.700959
0.678588
0.322877
0.521627
0.698029
0.691466
0.360735
0.691953
0.688571
0.337019
0.696499
0.706298
0.355842
0.365088
0.689254
0.353909
0.359225
0.692022
0.425831
0.693381
0.725172
0.717662
0.692756
0.699562
0.696275
0.692618
0.360642
0.447285
0.689999
0.695224
0.472603
0.711514
0.388179
0.696327
0.689854
0.621664
0.713451
0.444812
0.46075
0.693561
0.699338
0.687139
0.698418
0.694736
1.12646
0.702076
1.12689
0.698606
0.690761
0.699398
1.12636
0.693237
0.329125
0.690713
0.34419
0.690203
0.695415
0.7021
0.688889
0.717422
0.337149
0.344938
0.396508
0.360888
0.689361
0.352864
0.352279
0.702398
0.309489
0.703124
0.345808
0.6917
0.696352
0.362689
0.445433
0.356018
0.697331
0.343114
0.693844
0.698128
0.343933
0.690663
0.555372
0.362606
0.34492
0.328669
0.721011
0.365561
0.693183
0.613628
0.36909
0.690554
0.691939
0.714917
0.362943
0.632778
0.339953
0.692668
0.686642
0.693908
0.366299
0.695229
0.696723
0.688511
0.430014
0.69706
0.36389
0.362149
0.690208
0.460006
0.714966
0.434073
0.365562
0.455822
0.689535
0.344122
0.326201
0.337261
0.559291
1.13252
0.696892
0.354208
0.678526
0.694297
0.535864
0.48427
0.353588
0.555823
0.36596
0.36097
0.69213
0.362372
0.362939
0.698497
0.70828
0.343197
0.718627
0.341831
1.12747
0.345813
0.69118
0.879171
0.718481
0.68781
0.341896
0.361436
0.337556
0.686842
0.689486
0.566376
0.586828
0.438489
0.396534
0.691667
0.360798
0.693517
0.434436
0.81562
0.708156
0.348421
0.341237
0.36203
0.359753
0.342528
0.68747
0.690222
0.350633
0.695091
0.713857
0.370184
0.344698
0.709346
0.364946
0.695623
0.45456
0.715468
0.712326
0.694768
1.13296
0.339514
0.716681
0.689967
0.706629
0.364802
0.686151
0.626384
0.357952
0.697451
0.696599
0.706633
0.690894
0.706165
0.690242
0.704059
0.690111
0.691551
0.360453
0.716626
0.362041
0.491338
0.690188
0.337255
0.690749
0.685844
0.353209
0.688649
0.364581
0.33445
0.689644
0.684442
0.708
0.361145
0.690665
0.735065
0.345883
0.349525
0.691849
0.689823
0.425522
0.337559
0.70178
0.708956
0.366249
0.713154
0.698658
0.733259
0.347246
0.3636
0.335734
0.712718
0.35969
0.69217
0.719675
0.691802
0.689043
0.695942
0.36059
0.689882
0.790044
0.697999
0.674604
0.338637
0.361048
0.350645
0.718436
0.697673
0.454176
0.712912
0.351501
0.697875
0.696003
0.348817
0.688705
0.692275
0.711981
0.348686
0.354313
0.352376
0.697121
0.714349
0.736592
0.509996
0.694755
0.363754
0.719214
1.12648
0.695335
0.347874
0.7609
0.354732
0.687446
0.348681
0.693714
0.689568
0.345242
0.69664
0.515972
1.1265
0.704831
1.12686
0.699373
0.439806
0.691645
0.692561
0.690013
0.69389
0.486798
1.12657
0.356624
0.692832
0.350436
0.357344
0.355182
0.342284
0.365153
0.349175
0.704295
0.430412
0.345696
0.707668
0.696861
0.690374
0.402181
0.706584
0.721158
0.689778
0.331082
0.676365
0.695725
0.352732
0.338918
0.361651
0.715095
0.504372
0.361676
0.675381
0.317313
1.13441
0.500653
0.354937
0.475083
0.714073
0.353875
0.689595
0.348929
0.590614
0.422308
0.696435
0.420813
0.702782
1.12642
0.684924
0.485054
0.361151
0.698985
0.709657
0.339607
0.335239
0.686567
0.358201
0.717642
0.349534
0.534278
0.349803
0.696258
0.346832
0.70756
0.356832
0.694766
0.69548
0.699354
1.12807
0.356624
0.342267
0.39865
0.691906
0.70229
0.6893
0.647869
0.351393
0.700728
0.35391
0.689412
0.682412
0.42825
0.364913
0.702633
0.693292
0.342253
1.04676
0.70236
0.700201
0.71786
0.349632
0.719543
0.362825
0.700303
0.36065
0.668799
0.69013
0.700305
0.706711
0.370603
0.707826
0.362826
0.351819
0.687371
1.1294
0.601129
0.694094
1.12658
0.364378
0.718254
0.693691
0.704076
0.335604
0.445124
0.707117
0.352271
0.69606
0.698202
0.690997
0.697535
0.375622
0.464731
0.720984
0.345403
0.689917
0.710158
0.486339
0.689554
0.38101
0.687415
0.718035
0.726007
0.690006
0.354748
0.339824
0.694244
0.691771
0.34972
0.375238
0.344344
0.344356
0.346888
0.333195
0.346015
0.366157
0.694342
0.349876
0.346649
0.701313
0.601333
1.12679
0.429739
0.360036
0.694604
0.474062
0.574166
0.711242
0.416959
0.729643
0.717448
0.748764
0.691992
0.342536
0.696899
0.668704
0.341751
0.362091
0.431309
0.685248
0.747129
0.70729
0.68669
0.695442
0.692825
0.373019
0.696487
0.680558
0.695363
0.361308
0.696438
0.679346
0.370051
0.447383
0.357521
0.340428
0.349363
0.64282
0.709051
0.695137
0.361174
0.450886
0.698582
0.326437
0.698665
0.692626
0.691172
0.725898
0.694658
0.351239
0.340302
0.299222
0.632454
0.357985
0.693698
0.301095
0.690336
0.686882
0.695077
0.349986
0.463118
0.437216
0.695516
0.336456
0.361641
0.690115
0.691826
0.694846
0.686793
0.692734
0.716115
0.365733
0.76161
0.698948
0.519785
0.695258
0.699012
0.709496
0.472138
0.45172
0.704614
0.49854
0.696067
0.363449
0.689578
0.690862
0.395503
0.359797
0.693016
0.503897
0.699903
0.698724
0.365948
0.357036
1.1248
0.481236
0.410234
0.690673
0.691588
0.35724
0.691429
1.11691
0.688949
0.366604
0.642593
0.364706
0.690324
0.69888
0.713914
0.695476
1.10544
0.384025
0.388971
0.696843
0.359098
0.782617
0.365741
0.694968
0.35132
0.710745
0.699217
1.12844
0.366359
1.12691
1.13111
0.360741
0.689803
0.326956
0.706403
0.365079
0.34974
0.344442
0.699399
0.691073
0.412706
0.393252
0.689803
0.703417
0.464368
0.71999
0.364948
0.564227
0.359027
0.695923
0.360893
0.706366
0.690187
0.345073
0.470749
0.350173