# vtk DataFile Version 1.0
unstructured grid
ascii
DATASET UNSTRUCTURED_GRID
points 13672 float
0.0796578 -0.059106 0
0.00128732 0.00159165 0
0.00227961 -0.00102548 0
0.0791586 -0.0598787 0
-0.0546216 0.01 0
0.000495206 0.025 0
0.0800549 -0.035 0
0.135172 -0.08 0
-0.0546216 -0.0451168 0
0.000495206 -0.0301168 0
0.0800549 -0.0901168 0
0.135172 -0.135117 0
-0.0546216 -0.0451168 -0.00551168
0.000495206 -0.0301168 -0.00551168
0.0800549 -0.0901168 -0.00551168
0.135172 -0.135117 -0.00551168
0.135172 -0.08 -0.00551168
0.0800549 -0.035 -0.00551168
0.000495206 0.025 -0.00551168
-0.0546216 0.01 -0.00551168
0.00128732 0.00159165 -0.00551168
0.00227961 -0.00102548 -0.00551168
0.0791586 -0.0598787 -0.00551168
0.0796578 -0.059106 -0.00551168
0.00165953 -0.000990923 0
0.00119576 -0.000874076 0
0.000866021 -0.000641801 0
0.000645147 -0.000349912 0
0.00052235 -1.7281e-05 0
0.00049972 0.000348016 0
0.000601632 0.000737716 0
0.000861774 0.0011403 0
0.00157235 0.00183217 0
0.00188647 0.00206725 0
0.00222612 0.00230203 0
0.00258713 0.00254351 0
0.00296826 0.00279524 0
0.00337118 0.00305664 0
0.00379785 0.00332658 0
0.00425045 0.00360349 0
0.00473139 0.00388521 0
0.0052432 0.00416895 0
0.0057881 0.00445204 0
0.00636753 0.00473281 0
0.00698281 0.00500961 0
0.00763526 0.00528058 0
0.00832616 0.00554366 0
0.00905691 0.00579603 0
0.00982918 0.00603333 0
0.0106445 0.00625033 0
0.0115038 0.00644128 0
0.0124073 0.00660297 0
0.0133543 0.00673414 0
0.0143444 0.00683382 0
0.0153769 0.00690031 0
0.0164512 0.00693173 0
0.0175666 0.00692547 0
0.0187219 0.00687822 0
0.0199156 0.00678477 0
0.0211454 0.00663864 0
0.0224084 0.00643275 0
0.0237018 0.00616676 0
0.0250249 0.00584739 0
0.026375 0.00547298 0
0.0277479 0.00503752 0
0.0291386 0.00453545 0
0.0305433 0.0039653 0
0.0319572 0.0033256 0
0.0333681 0.00260019 0
0.034775 0.00179799 0
0.0361793 0.000930615 0
0.0375798 3.12222e-06 0
0.0389689 -0.000988429 0
0.0403357 -0.00205109 0
0.041675 -0.00318283 0
0.0429849 -0.00437751 0
0.0442643 -0.00562904 0
0.0455126 -0.00693089 0
0.0467314 -0.00827518 0
0.0479204 -0.00965638 0
0.0490661 -0.0110799 0
0.0501515 -0.0125519 0
0.0511696 -0.0140695 0
0.0521492 -0.0156071 0
0.0531202 -0.0171411 0
0.0540851 -0.0186663 0
0.0550431 -0.0201798 0
0.0559923 -0.0216793 0
0.0569311 -0.0231626 0
0.0578582 -0.0246273 0
0.0587723 -0.0260715 0
0.0596721 -0.027493 0
0.0605563 -0.02889 0
0.0614241 -0.0302609 0
0.0622742 -0.0316042 0
0.063106 -0.0329183 0
0.0639186 -0.034202 0
0.0647113 -0.0354543 0
0.0654835 -0.0366743 0
0.0662345 -0.0378613 0
0.0669642 -0.0390145 0
0.0676726 -0.0401333 0
0.0683597 -0.0412172 0
0.0690246 -0.0422665 0
0.0696662 -0.0432819 0
0.0702841 -0.0442636 0
0.0708793 -0.0452111 0
0.0714538 -0.0461237 0
0.072009 -0.047001 0
0.0725452 -0.0478434 0
0.0730611 -0.0486524 0
0.073556 -0.0494294 0
0.0740291 -0.0501756 0
0.0744812 -0.0508916 0
0.0749138 -0.0515773 0
0.0753285 -0.0522331 0
0.0757266 -0.0528592 0
0.076109 -0.0534564 0
0.0764753 -0.0540264 0
0.0768243 -0.054571 0
0.0771553 -0.0550919 0
0.0774679 -0.0555901 0
0.0777617 -0.0560669 0
0.0780369 -0.056523 0
0.0782958 -0.0569578 0
0.0785421 -0.0573703 0
0.0787786 -0.0577603 0
0.0790073 -0.0581279 0
0.0792295 -0.058474 0
0.0794462 -0.0587995 0
0.0798803 -0.0594162 0
0.0800272 -0.0596588 0
0.0800357 -0.0598891 0
0.0799275 -0.0600784 0
0.0797205 -0.0601773 0
0.0794593 -0.0601051 0
0.0789155 -0.0596491 0
0.0786707 -0.0593963 0
0.0784111 -0.0591319 0
0.0781372 -0.0588542 0
0.0778566 -0.0585548 0
0.0775715 -0.0582308 0
0.0772803 -0.0578828 0
0.0769832 -0.0575099 0
0.0766822 -0.0571097 0
0.0763801 -0.0566796 0
0.0760759 -0.0562196 0
0.0757623 -0.0557337 0
0.0754359 -0.0552232 0
0.0750951 -0.0546879 0
0.0747379 -0.054128 0
0.0743626 -0.0535435 0
0.0739688 -0.0529338 0
0.0735559 -0.0522981 0
0.0731238 -0.0516357 0
0.0726718 -0.050946 0
0.0721991 -0.0502288 0
0.0717046 -0.049484 0
0.0711872 -0.0487117 0
0.0706461 -0.047912 0
0.0700804 -0.0470849 0
0.0694892 -0.0462308 0
0.0688718 -0.0453499 0
0.0682271 -0.0444431 0
0.0675544 -0.043511 0
0.0668527 -0.0425546 0
0.0661215 -0.0415748 0
0.06536 -0.040573 0
0.0645676 -0.0395504 0
0.0637439 -0.0385087 0
0.0628887 -0.0374493 0
0.062002 -0.0363741 0
0.0610838 -0.0352847 0
0.0601345 -0.0341831 0
0.0591547 -0.033071 0
0.0581456 -0.0319502 0
0.0571083 -0.0308224 0
0.0560444 -0.0296893 0
0.0549562 -0.028552 0
0.053845 -0.0274126 0
0.0527113 -0.0262746 0
0.051554 -0.0251427 0
0.0503724 -0.0240222 0
0.0491675 -0.0229164 0
0.047941 -0.0218282 0
0.0466955 -0.0207597 0
0.0454337 -0.0197126 0
0.0441592 -0.0186878 0
0.0428751 -0.0176863 0
0.0415841 -0.0167097 0
0.0402878 -0.0157609 0
0.0389879 -0.0148428 0
0.0376864 -0.0139575 0
0.0363853 -0.013107 0
0.0350871 -0.0122931 0
0.0337942 -0.0115164 0
0.0325095 -0.0107772 0
0.0312357 -0.0100756 0
0.0299758 -0.00941024 0
0.0287337 -0.00877784 0
0.0275126 -0.00817571 0
0.0263139 -0.00760375 0
0.0251376 -0.00706528 0
0.0239829 -0.0065649 0
0.0228537 -0.00609619 0
0.0217522 -0.00565563 0
0.0206795 -0.00524226 0
0.0196364 -0.00485507 0
0.0186233 -0.00449318 0
0.0176408 -0.00415577 0
0.016689 -0.00384204 0
0.0157682 -0.00355115 0
0.0148783 -0.00328218 0
0.0140192 -0.00303468 0
0.0131906 -0.00280795 0
0.0123925 -0.00260016 0
0.0116246 -0.00241012 0
0.0108864 -0.00223769 0
0.0101774 -0.00208212 0
0.00949701 -0.00194206 0
0.00884483 -0.0018163 0
0.0082202 -0.0017039 0
0.00762247 -0.00160391 0
0.00705097 -0.00151528 0
0.006505 -0.00143697 0
0.0059838 -0.00136806 0
0.00548662 -0.00130772 0
0.00501265 -0.00125519 0
0.00456114 -0.00120954 0
0.00413136 -0.00116914 0
0.00372257 -0.00113251 0
0.00333398 -0.00109853 0
0.00296466 -0.00106798 0
0.00261363 -0.0010431 0
-0.052721 -0.0445996 0
-0.0508204 -0.0440823 0
-0.0489199 -0.0435651 0
-0.0470193 -0.0430478 0
-0.0451187 -0.0425306 0
-0.0432181 -0.0420134 0
-0.0413175 -0.0414961 0
-0.039417 -0.0409789 0
-0.0375164 -0.0404616 0
-0.0356158 -0.0399444 0
-0.0337152 -0.0394271 0
-0.0318146 -0.0389099 0
-0.0299141 -0.0383927 0
-0.0280135 -0.0378754 0
-0.0261129 -0.0373582 0
-0.0242123 -0.0368409 0
-0.0223117 -0.0363237 0
-0.0204112 -0.0358065 0
-0.0185106 -0.0352892 0
-0.01661 -0.034772 0
-0.0147094 -0.0342547 0
-0.0128088 -0.0337375 0
-0.0109083 -0.0332202 0
-0.00900769 -0.032703 0
-0.00710711 -0.0321858 0
-0.00520653 -0.0316685 0
-0.00330595 -0.0311513 0
-0.00140537 -0.030634 0
0.00190689 -0.0299614 0
0.00332271 -0.0298498 0
0.00474133 -0.0297825 0
0.00616136 -0.0297597 0
0.0075814 -0.0297814 0
0.00900007 -0.0298477 0
0.010416 -0.0299583 0
0.0118278 -0.0301127 0
0.0132342 -0.0303103 0
0.0146339 -0.0305504 0
0.0160259 -0.0308322 0
0.0174091 -0.0311546 0
0.0187824 -0.0315166 0
0.020145 -0.031917 0
0.0214961 -0.0323546 0
0.0228351 -0.032828 0
0.0241613 -0.0333361 0
0.0254744 -0.0338774 0
0.0267738 -0.0344507 0
0.0280592 -0.0350545 0
0.0293306 -0.0356877 0
0.0305875 -0.0363488 0
0.0318301 -0.0370367 0
0.0330581 -0.0377501 0
0.0342717 -0.0384879 0
0.0354708 -0.0392489 0
0.0366556 -0.0400321 0
0.0378262 -0.0408363 0
0.0389828 -0.0416607 0
0.0401254 -0.0425042 0
0.0412543 -0.0433659 0
0.0423698 -0.0442451 0
0.043472 -0.0451408 0
0.0445612 -0.0460523 0
0.0456375 -0.0469789 0
0.0467013 -0.0479199 0
0.0477529 -0.0488746 0
0.0487923 -0.0498424 0
0.04982 -0.0508227 0
0.0508362 -0.051815 0
0.051841 -0.0528187 0
0.0528348 -0.0538333 0
0.0538178 -0.0548584 0
0.0547903 -0.0558935 0
0.0557524 -0.0569382 0
0.0567045 -0.0579922 0
0.0576467 -0.0590549 0
0.0585792 -0.0601261 0
0.0595024 -0.0612055 0
0.0604163 -0.0622926 0
0.0613212 -0.0633873 0
0.0622174 -0.0644891 0
0.0631049 -0.0655979 0
0.0639841 -0.0667134 0
0.064855 -0.0678353 0
0.0657179 -0.0689633 0
0.0665729 -0.0700974 0
0.0674202 -0.0712372 0
0.06826 -0.0723826 0
0.0690925 -0.0735333 0
0.0699178 -0.0746892 0
0.070736 -0.0758501 0
0.0715473 -0.0770159 0
0.0723518 -0.0781863 0
0.0731498 -0.0793612 0
0.0739412 -0.0805405 0
0.0747264 -0.081724 0
0.0755053 -0.0829116 0
0.0762781 -0.0841033 0
0.0770449 -0.0852987 0
0.0778059 -0.0864979 0
0.0785611 -0.0877007 0
0.0793108 -0.088907 0
0.0814681 -0.0912706 0
0.0828814 -0.0924245 0
0.0842946 -0.0935783 0
0.0857079 -0.0947322 0
0.0871211 -0.095886 0
0.0885344 -0.0970399 0
0.0899476 -0.0981937 0
0.0913609 -0.0993476 0
0.0927741 -0.100501 0
0.0941874 -0.101655 0
0.0956006 -0.102809 0
0.0970139 -0.103963 0
0.0984272 -0.105117 0
0.0998404 -0.106271 0
0.101254 -0.107424 0
0.102667 -0.108578 0
0.10408 -0.109732 0
0.105493 -0.110886 0
0.106907 -0.11204 0
0.10832 -0.113194 0
0.109733 -0.114348 0
0.111146 -0.115501 0
0.11256 -0.116655 0
0.113973 -0.117809 0
0.115386 -0.118963 0
0.116799 -0.120117 0
0.118213 -0.121271 0
0.119626 -0.122424 0
0.121039 -0.123578 0
0.122452 -0.124732 0
0.123866 -0.125886 0
0.125279 -0.12704 0
0.126692 -0.128194 0
0.128105 -0.129348 0
0.129519 -0.130501 0
0.130932 -0.131655 0
0.132345 -0.132809 0
0.133758 -0.133963 0
0.135172 -0.133216 0
0.135172 -0.131316 0
0.135172 -0.129415 0
0.135172 -0.127514 0
0.135172 -0.125614 0
0.135172 -0.123713 0
0.135172 -0.121813 0
0.135172 -0.119912 0
0.135172 -0.118012 0
0.135172 -0.116111 0
0.135172 -0.11421 0
0.135172 -0.11231 0
0.135172 -0.110409 0
0.135172 -0.108509 0
0.135172 -0.106608 0
0.135172 -0.104708 0
0.135172 -0.102807 0
0.135172 -0.100906 0
0.135172 -0.0990058 0
0.135172 -0.0971052 0
0.135172 -0.0952046 0
0.135172 -0.0933041 0
0.135172 -0.0914035 0
0.135172 -0.0895029 0
0.135172 -0.0876023 0
0.135172 -0.0857017 0
0.135172 -0.0838012 0
0.135172 -0.0819006 0
0.133758 -0.0788462 0
0.132345 -0.0776923 0
0.130932 -0.0765385 0
0.129519 -0.0753846 0
0.128105 -0.0742308 0
0.126692 -0.0730769 0
0.125279 -0.0719231 0
0.123866 -0.0707692 0
0.122452 -0.0696154 0
0.121039 -0.0684615 0
0.119626 -0.0673077 0
0.118213 -0.0661538 0
0.116799 -0.065 0
0.115386 -0.0638462 0
0.113973 -0.0626923 0
0.11256 -0.0615385 0
0.111146 -0.0603846 0
0.109733 -0.0592308 0
0.10832 -0.0580769 0
0.106907 -0.0569231 0
0.105493 -0.0557692 0
0.10408 -0.0546154 0
0.102667 -0.0534615 0
0.101254 -0.0523077 0
0.0998404 -0.0511538 0
0.0984272 -0.05 0
0.0970139 -0.0488462 0
0.0956006 -0.0476923 0
[...]
CELL_DATA 13116
SCALARS rho float
LOOKUP_TABLE default
0.640167
0.6898
0.384458
0.689199
0.693471
0.686872
0.364296
0.690534
0.583932
0.693734
0.365913
0.38815
0.693414
0.373475
0.395941
0.686824
0.655117
0.700888
0.69344
0.364619
0.59305
0.418815
0.384694
0.699653
0.597704
0.687288
0.693865
0.393163
0.596776
0.69194
0.86761
0.393891
0.589794
0.546879
0.364514
0.618617
0.706376
0.69101
0.680675
0.688762
0.692187
0.69099
0.569885
0.37625
0.692003
0.693155
0.681776
0.696634
0.418401
0.572777
0.690774
0.56468
0.362351
0.652387
0.590853
0.597667
0.375589
0.69856
0.575315
0.405371
0.374245
0.693112
0.686452
0.68035
0.767497
0.362355
0.687789
0.72082
0.688055
0.679084
0.395898
0.592274
0.412563
0.370809
1.12068
0.37087
0.685414
0.690381
0.364316
0.703612
0.711812
0.686048
0.698909
0.697982
0.686741
0.505531
0.360187
0.716836
0.686232
0.367796
0.384426
0.690461
0.697513
0.688515
0.692481
0.588754
0.597705
1.04138
1.0819
0.597343
0.722483
0.67455
0.691068
0.522953
0.680605
0.402175
0.477645
0.584521
0.388297
0.597703
0.591728
0.683842
0.592036
0.715111
0.703014
0.687881
0.361154
0.494602
0.689963
0.688655
0.721783
0.414735
0.688224
0.383081
0.688514
0.526054
0.359989
0.558778
0.383602
0.571022
0.689409
0.701144
0.538768
0.421746
0.528352
0.67242
1.12683
0.689121
0.724293
0.688594
0.677713
0.682555
0.560695
0.677721
0.684925
0.382772
0.364884
0.685447
0.694499
0.690069
0.566494
0.697363
0.696078
0.36693
0.694705
0.686514
0.387755
0.715577
1.03031
0.718945
0.699537
0.36551
0.697817
0.387022
0.411621
0.692111
0.68769
0.700868
0.364436
0.517419
0.501782
1.12663
0.392979
0.556086
0.687844
0.385921
0.407495
0.415123
0.683623
0.680714
0.367986
0.514663
0.59646
0.707465
0.680788
0.577082
0.360799
0.688195
0.680138
0.540446
0.681497
0.685089
0.660072
0.39105
0.683607
0.684862
0.696527
0.688445
0.686021
0.473766
0.524209
0.597703
0.556223
0.374357
0.699561
0.693875
0.568952
0.594364
0.396209
0.367588
0.368472
0.68696
0.390002
0.367777
0.367803
0.366687
0.487915
0.680826
0.68831
0.4999
0.373411
0.687663
0.590115
0.367927
0.566017
0.693439
0.6847
0.394147
0.687839
0.487705
0.691171
0.391998
0.661024
0.586128
1.11388
0.687494
0.66445
0.419957
0.524145
0.724597
1.12548
0.683168
1.12679
0.670951
0.690541
0.410519
0.689529
0.694002
1.06764
0.366043
0.421453
0.694837
0.689763
0.680911
0.701036
0.642311
0.704625
0.365931
0.429552
0.488308
0.394291
0.679356
0.696394
0.684279
0.362001
0.687271
0.358328
0.502188
0.680721
0.367136
0.686605
0.690458
1.12615
0.698426
0.418452
1.12645
0.714527
1.05918
0.689014
0.36446
0.360313
0.391191
0.670853
0.411578
0.430657
0.46753
0.457337
0.69007
0.365128
0.687614
0.692461
0.3606
0.365994
0.358248
0.523952
0.391946
0.717404
0.672891
0.682269
0.367183
0.686336
0.583902
0.427006
0.405123
0.68468
0.689444
0.688477
0.360147
0.685793
0.531992
0.700236
0.690944
0.690194
0.690735
0.39101
0.687761
0.379856
0.688045
0.692921
0.751928
0.367153
0.465274
0.693655
0.35831
0.685974
0.692986
0.455003
0.708315
0.698869
0.359004
0.687189
0.697593
0.376334
0.689792
0.502663
0.576388
0.691494
0.506007
0.713783
0.361845
0.700711
0.467797
0.678823
0.674932
0.696833
0.39303
0.479782
0.686665
0.367295
0.700812
0.680723
0.511638
1.12689
0.36358
0.401087
0.702365
0.56935
0.716756
0.359814
0.387991
0.689532
0.692712
0.365171
0.691097
0.364676
0.406622
0.688354
0.691407
0.595362
0.367824
0.688973
0.806506
0.686825
0.68718
0.694034
0.568623
0.416383
0.389424
0.368026
0.68676
0.368022
0.597096
0.461562
0.38966
0.476572
0.596601
0.239631
0.367236
0.688308
0.384576
0.696997
0.597402
0.694884
0.698698
0.689589
0.401082
0.360649
0.481677
0.433456
0.704515
0.593918
0.694277
0.597389
0.685669
0.686845
0.685422
0.678353
0.691894
0.697977
0.704126
0.686533
0.492058
0.564918
0.637978
0.412781
0.672302
0.597698
0.361764
0.687856
1.12663
0.391793
0.365744
0.367552
0.362684
0.5977
0.373222
0.391182
0.687311
0.361347
0.587514
0.367979
0.687579
0.704997
0.395828
0.421146
0.703022
0.521571
0.367852
0.361959
0.367868
0.389013
0.360524
0.366143
0.425362
0.504627
0.366689
0.673939
0.409657
0.687239
0.45019
0.377798
0.5332
0.386144
0.367777
0.386921
0.687983
0.509861
0.597705
0.591525
0.360294
0.619387
0.686734
0.503897
0.708679
0.687659
0.687162
0.360755
1.09212
0.495448
0.696794
0.969377
0.391484
0.365714
0.679906
0.435033
0.505113
0.675341
0.476993
0.717814
0.685105
0.366713
0.404363
0.38483
0.554444
0.402376
0.369617
0.393104
0.378174
0.690636
0.691086
0.527108
0.597626
0.530775
0.683228
0.480181
0.371616
0.585277
0.391779
0.698463
0.43836
0.4853
0.536396
0.691866
0.687393
0.573693
0.451061
0.364473
0.571639
0.690379
0.66294
0.570045
0.67996
0.678831
0.366787
0.704169
0.584255
0.730014
0.464996
0.392327
0.716015
0.696514
0.691252
0.693391
0.685659
0.688142
0.699861
0.73704
0.694616
0.367934
0.691619
0.470019
0.401256
0.367986
0.68971
0.693866
0.461877
0.686208
0.597703
0.367362
0.677046
0.68916
0.708419
0.392692
0.369912
0.690984
0.367837
0.367811
0.393771
0.366972
0.696803
0.37327
0.688901
0.408465
0.690054
0.69053
0.68752
0.69323
0.367872
0.367536
0.69613
0.691139
0.693875
0.690891
0.694227
0.526363
0.359569
0.392244
0.68583
0.579701
0.367603
0.521052
0.389158
0.689974
0.688098
0.463883
0.420947
0.686203
0.508741
0.689465
0.589915
0.382376
0.486997
0.689891
1.1241
0.387312
0.687067
0.68779
0.695334
0.371448
1.12669
0.373042
1.11092
0.72258
0.367841
0.485858
0.429655
1.10122
0.388363
0.363108
0.497039
0.680225
0.706923
0.363495
0.426031
0.36781
0.677795
0.413827
0.682976
0.381099
0.593276
0.693434
0.454531
0.38619
0.385149
0.527475
0.392295
0.687521
0.360187
0.37792
0.687049
0.373844
0.686962
0.684502
1.07864
0.36745
0.69911
0.696482
0.696377
0.685966
0.691134
0.688175
0.392854
0.664117
0.501761
0.694783
0.36407
0.690366
0.57336
0.363962
0.824934
0.693876
0.367008
0.679171
0.386592
0.393495
0.687198
0.687896
0.387264
0.386594
0.364019
0.393798
0.690574
0.699352
0.370438
0.366107
0.70176
0.689087
0.594365
0.69658
0.688054
0.365735
0.696487
0.505037
0.690757
0.500082
0.597706
0.523887
0.687696
0.716921
0.58435
0.476554
0.392152
0.688133
0.596046
0.642979
0.696896
0.39019
0.710314
0.694961
0.488111
0.565297
0.696163
0.458332
0.71944
0.725693
0.462675
0.688775
0.691894
0.391726
0.707829
0.391153
0.685715
0.371826
0.686799
0.68593
0.393266
0.680981
0.69755
0.691153
0.597703
0.701802
0.584807
0.449285
0.528518
0.383849
0.370538
1.12689
0.568028
0.688617
0.694328
0.367738
0.42667
0.703352
0.69338
0.703236
0.690398
0.365834
0.704071
0.693869
0.364995
0.384116
0.690526
0.69443
0.685743
0.397553
0.586952
0.397191
0.707742
0.683231
0.660324
0.691571
0.367413
0.696442
0.687444
0.698327
0.688016
0.686002
0.500878
0.694312
0.367559
0.677781
0.693726
0.517378
0.685771
0.667049
0.690138
0.533067
0.511652
0.586543
0.678601
0.367822
0.367819
0.367321
0.366914
0.691143
0.709333
0.670407
0.459887
0.366359
0.687908
0.715899
0.374075
0.430343
0.521696
0.700535
0.688364
0.687068
0.698514
0.367705
0.367843
1.12691
0.38171
0.367756
0.361655
0.688793
0.396508
0.367894
0.59741
0.69546
0.683293
0.68497
0.688311
0.361024
0.382363
0.367459
0.596176
0.510163
0.390255
0.719627
0.699665
0.686877
0.686116
0.395569
0.367551
0.693479
0.3679
0.683455
0.685492
0.952137
0.387279
0.367894
0.685402
0.842904
0.664891
0.374409
0.687403
0.685999
0.596999
0.689987
0.690309
1.12678
0.679364
0.3661
0.688308
0.728007
0.676818
0.70855
1.12691
0.684054
1.12687
0.688752
0.376491
0.392303
0.367654
0.825565
0.575969
0.367869
0.702493
0.700939
0.387737
0.681012
0.397935
0.682329
0.59121
0.420832
0.693278
0.700539
0.367715
0.562482
0.804802
0.378022
0.688594
0.366127
0.401796
0.685277
0.597703
0.533
0.692343
0.367328
0.697504
0.401705
0.391586
0.686832
0.3675
0.590211
0.38968
0.680311
0.597707
1.12672
0.687278
0.389804
0.380571
0.67626
0.575584
0.703873
0.552461
0.592037
0.68723
0.698728
0.579283
0.597696
0.683504
0.696573
0.687902
0.471137
0.367855
0.559981
0.683578
0.696794
0.483005
0.689916
0.666916
0.480041
0.387985
0.745877
0.702833
1.12665
1.11119
0.676009
0.714641
0.682426
0.710349
0.392497
0.682888
0.520515
0.689032
0.693844
0.456691
0.691715
0.692828
0.39522
0.413227
0.358372
1.12689
0.365401
0.671791
0.705722
0.686014
0.441845
0.690683
0.375274
0.587659
0.679854
0.666065
0.71938
0.678345
0.597699
0.710487
0.585356
0.69416
0.372057
0.685325
0.68735
0.566179
1.12638
0.709012
0.391483
0.39125
0.378823
0.690203
0.367861
1.12662
0.367556
0.690378
0.36684
0.524286
0.390263
0.696963
0.690501
0.642387
0.436195
0.597433
0.6808
0.367396
0.5948
0.691106
0.391091
0.597698
0.989311
0.693445
0.685193
0.391879
0.584945
0.702753
0.69416
0.678235
0.367736
0.508065
0.689341
1.12689
1.12429
1.1269
0.596995
0.702027
0.597279
0.688752
0.367804
0.375849
1.1269
0.693432
0.680911
0.364355
0.687217
0.597649
0.676746
0.376322
0.496484
0.691199
0.689053
0.581198
0.425408
0.691956
1.12506
0.364608
0.597703
0.698433
0.364687
0.369609
0.381832
0.681006
0.421487
0.367994
0.68711
0.555003
0.696548
0.683041
0.36411
0.360029
0.691012
0.392775
0.373744
0.837541
0.407884
0.48291
0.597704
0.691145
0.700053
0.366613
0.401976
0.366017
0.685764
0.403155
0.700547
0.373767
0.702302
0.689769
0.690796
0.680971
0.697301
0.682589
0.68821
0.693154
0.701934
0.371237
0.367177
0.693258
0.683186
0.534235
0.681595
0.58653
0.681239
0.67636
0.394771
0.688357
0.692372
0.692683
0.366072
0.697067
0.396385
0.698279
0.527378
0.702126
0.685998
0.422367
0.705054
0.367699
0.543616
0.686722
0.362696
0.713674
1.1269
0.690718
0.362378
0.687324
0.367154
0.386613
0.389666
0.367727
0.675675
0.39529
0.679544
0.671091
0.428493
0.391012
0.524737
0.586185
0.692307
0.679382
0.367532
0.358901
0.365218
0.389157
0.43234
0.690759
0.684326
0.393641
0.678847
0.708144
0.37979
0.69268
0.717271
0.67688
0.366672
1.12124
0.701402
0.693967
0.689562
0.402394
0.701812
0.693128
0.697323
0.767245
0.681652
0.43461
0.390099
0.697292
0.556643
0.367882
0.686705
0.390565
0.577456
0.683159
0.685582
0.685769
0.387606
0.681057
0.484385
0.366226
0.70659
0.692596
0.695136
0.689602
0.697649
0.38676
0.693412
0.403147
0.533194
0.692034
1.08575
0.703489
0.366183
0.422988
0.693743
0.43971
0.692363
0.592554
0.510181
0.44359
0.688427
0.390651
0.685755
0.694785
0.691725
0.390309
0.394969
0.553457
0.584011
0.687856
0.543214
0.687663
0.679558
0.687479
1.12686
0.703722
0.362425
0.439486
0.689991
0.680877
0.677771
0.515537
0.371896
0.702792
0.389685
0.688062
0.597703
0.413006
0.704526
0.365741
0.68969
0.385914
0.694538
0.415755
0.697832
0.680734
0.371335
0.688607
0.680054
0.368458
0.668869
0.692122
0.58795
0.384138
0.47931
0.543452
0.696224
0.677187
0.422549
0.58504
0.705844
0.686861
0.443515
0.677577
0.689868
0.507139
0.687638
0.688051
0.454638
0.7005
1.01074
0.382683
0.594622
0.364302
0.682044
0.366631
0.403215
0.696341
0.367815
0.367866
0.386983
0.687594
0.688187
0.498067
0.693535
0.480716
0.694432
0.367327
0.689121
0.466027
0.6874
0.697701
0.686128
0.67076
0.564101
0.680714
0.676636
0.390106
0.597496
0.68957
0.596344
0.702754
0.52781
0.516886
0.693403
0.367833
0.58749
0.399011
0.693426
0.369622
0.391014
0.700896
0.688146
0.36683
0.688767
0.700718
1.12695
0.69036
1.11096
0.366429
0.692756
0.367466
0.388582
0.68718
0.698118
0.690659
0.686919
0.39502
0.366331
0.365747
0.690017
0.66928
0.479017
0.691542
0.362537
0.364717
0.372688
0.687001
0.49885
0.693344
0.702201
0.597703
0.687907
0.701695
0.597709
0.681972
0.503086
0.372102
0.367111
1.11366
1.12488
0.36635
0.688774
0.679923
0.683234
0.391458
0.536903
0.680405
0.417111
0.678685
0.6733
0.36772
0.680923
0.691833
0.367894
0.698861
0.371309
0.688377
0.696458
0.697104
0.391755
0.515147
0.715665
0.458822
0.5048
0.687776
0.46379
0.68097
0.687984
0.686143
0.701835
0.419659
0.867027
0.706177
0.693862
0.479258
0.689692
0.4095
0.380368
0.689727
0.688138
0.671017
0.372994
0.686267
0.597704
1.12149
0.359827
0.364575
0.367869
0.689107
0.364932
0.373966
0.38953
0.672843
0.37331
0.455758
0.505473
0.700067
0.368007
0.657685
0.680685
0.688309
0.361575
0.69794
0.69372
0.677912
0.498166
0.747016
0.364941
0.367738
0.687272
0.366545
0.684164
0.706645
1.12677
0.36787
0.465672
0.366699
0.570834
1.12669
0.375881
0.691149
0.687522
0.700561
0.36765
0.400638
0.470184
0.677377
0.367826
1.12688
0.597413
0.680724
0.690026
0.364744
0.680709
0.392715
0.67137
0.593208
0.693401
0.670619
0.595321
0.740486
0.678258
0.690741
0.366797
0.449574
0.363433
0.702828
0.58102
1.07987
0.367902
0.499738
0.695054
0.699039
0.684018
0.366864
0.688741
0.569713
0.5732
0.677726
0.391113
0.366877
0.456186
0.688081
0.673242
0.767549
0.682796
0.470568
0.690902
0.686921
0.67535
0.672295
0.690346
0.692676
0.685963
0.699358
0.695519
0.392128
0.688399
0.689584
0.687481
0.689767
0.688303
0.670308
0.367562
0.403281
0.676795
0.367737
0.422435
0.688732
0.38657
0.597702
0.687763
0.688381
0.693226
0.392394
0.688929
0.390013
0.371575
0.686411
0.700116
0.685668
0.360231
0.690867
0.693517
0.676928
0.688374
0.414241
0.685063
0.69368
0.693125
0.477279
0.699413
0.366486
0.688053
0.36572
0.367756
0.655968
0.518018
0.693334
0.698429
0.684403
0.38952
0.683346
0.500439
0.389516
0.686065
0.524258
0.367739
0.691464
0.414129
0.538512
0.720381
0.682291
0.685461
0.526147
0.592586
0.705821
0.685373
0.67034
0.694946
0.557729
0.689534
0.682454
0.692337
0.395425
0.364633
0.516013
0.689605
0.391477
0.720277
0.688922
0.592717
0.685622
0.59432
0.712615
0.710993
0.366509
0.688619
0.680344
0.598813
0.680565
0.693442
0.687531
0.684024
0.367711
0.382391
0.695519
0.583581
0.595542
0.689064
0.697978
0.691806
0.696628
0.696565
0.682992
0.67911
0.69343
0.381323
0.40204
0.371764
0.406196
1.12625
0.531504
0.597159
0.70407
0.714185
0.389833
0.69397
0.688894
0.359762
0.487985
1.1254
0.688804
0.392307
0.396068
0.393871
1.12687
0.687497
0.47922
0.362701
0.367513
0.410221
0.452629
0.367796
0.691544
0.697474
0.703195
0.367305
0.688675
0.685577
0.597683
0.450315
0.365003
0.685847
1.12684
0.367946
0.687544
0.367901
0.70026
0.391819
0.688346
0.363611
0.687574
0.691138
0.363327
0.574394
0.444715
0.692548
0.404618
0.683517
0.389875
0.566465
0.365214
0.678254
0.367406
0.669303
0.661172
0.597653
0.696807
0.451752
0.689189
0.680541
0.69097
0.683174
0.695846
0.36538
0.532059
0.36451
0.697032
0.442633
0.692804
0.57027
0.698485
0.693461
0.588291
0.695238
0.390827
0.369912
0.380965
0.563006
0.658615
0.697268
0.367295
0.427616
0.686737
0.489276
0.391337
0.666348
0.487466
0.367912
0.402221
0.690907
0.609297
0.684418
0.379731
0.688233
0.688104
0.373486
0.465195
0.687526
0.688324
0.67166
0.542036
0.497815
0.479298
0.366831
0.690357
0.67652
0.581863
0.706098
0.400354
0.597112
0.365493
0.750208
0.692025
0.366242
0.43735
0.67695
0.664572
0.692612
0.695214
0.696125
0.689279
0.692711
0.365868
0.415
0.36478
0.364603
0.649511
0.926138
0.617184
0.36551
0.367616
0.55226
0.371228
0.693757
0.681993
0.367819
0.462826
0.687756
0.386772
0.70408
0.696287
0.68625
0.684691
0.615914
0.367857
0.361442
0.678652
0.36665
0.535564
0.493492
0.682168
0.687926
0.446875
0.367809
1.12692
0.367461
0.687922
0.697041
0.367933
0.39515
0.364913
0.687079
0.362112
1.1269
0.709913
0.598275
0.39343
0.554677
0.689865
0.690641
0.364176
0.690414
0.676964
0.384635
0.693834
0.68908
0.366068
0.367845
0.685341
0.367272
0.364468
0.689867
0.473889
0.696367
0.714343
0.698854
0.678382
0.693519
0.687887
0.68065
0.365446
0.49585
0.680595
0.697091
0.514003
0.693038
0.470227
0.68867
0.685552
0.593299
0.693487
0.531926
0.522592
0.694413
0.691953
0.681898
0.691045
0.68701
1.12708
0.690375
1.12694
0.690758
0.686285
0.689766
1.12694
0.680891
0.385289
0.686346
0.388854
0.688445
0.688309
0.696297
0.682364
0.703855
0.392549
0.367223
0.462224
0.36443
0.685827
0.363757
0.36667
0.711852
0.3958
0.702147
0.367142
0.689558
0.701957
0.367878
0.4885
0.415405
0.689175
0.376161
0.696696
0.705145
0.367363
0.685586
0.576053
0.428107
0.392208
0.371297
0.707343
0.36787
0.688636
0.598134
0.449041
0.688163
0.693473
0.696137
0.367886
0.597653
0.391227
0.689216
0.685268
0.687891
0.367841
0.6967
0.689052
0.682728
0.506219
0.689155
0.36786
0.36691
0.687601
0.528669
0.694144
0.519478
0.367854
0.507758
0.683043
0.388822
0.381046
0.373792
0.586678
1.10109
0.703814
0.375294
0.678792
0.686598
0.569518
0.556593
0.409332
0.577254
0.367833
0.365951
0.692602
0.367171
0.36771
0.689956
0.690101
0.360882
0.701584
0.36709
1.12665
0.393971
0.686497
0.678321
0.703313
0.680907
0.405948
0.365996
0.390984
0.686705
0.685956
0.591379
0.576476
0.483599
0.454055
0.680575
0.365669
0.696849
0.484916
0.654774
0.719917
0.360863
0.379344
0.367198
0.367765
0.383355
0.677199
0.686863
0.364352
0.695329
0.692746
0.451887
0.390371
0.690799
0.367668
0.700637
0.501511
0.701902
0.702134
0.697228
1.07343
0.385579
0.69628
0.688195
0.690926
0.367741
0.677654
0.595699
0.420353
0.689469
0.684582
0.69097
0.688682
0.692926
0.687755
0.690711
0.688442
0.692928
0.367945
0.69682
0.367271
0.557678
0.687718
0.391448
0.689545
0.678379
0.42491
0.682402
0.367774
0.385338
0.688002
0.677133
0.690305
0.367122
0.688643
0.597703
0.393436
0.366181
0.688128
0.688092
0.488037
0.382165
0.705942
0.690606
0.367886
0.692873
0.691592
0.584817
0.358445
0.367853
0.39233
0.702194
0.417563
0.690498
0.703527
0.680903
0.67803
0.701486
0.367294
0.686113
0.597703
0.691174
0.670151
0.391136
0.365054
0.401523
0.699157
0.704554
0.499576
0.698391
0.403643
0.686757
0.688602
0.39228
0.677081
0.690881
0.685323
0.366264
0.360801
0.407522
0.696843
0.694068
0.597702
0.542255
0.700438
0.367948
0.680983
1.12456
0.696969
0.365842
0.5977
0.428179
0.680393
0.40592
0.695463
0.688299
0.378004
0.69397
0.568736
1.12697
0.685633
1.12688
0.690041
0.524653
0.680254
0.691688
0.688068
0.696124
0.520073
1.12609
0.368836
0.691368
0.399626
0.367969
0.410087
0.382143
0.367858
0.365398
0.691532
0.481701
0.376974
0.706605
0.692302
0.687506
0.485852
0.701604
0.706429
0.68251
0.389366
0.672166
0.687889
0.418284
0.383023
0.366039
0.691528
0.536416
0.367861
0.672891
0.392953
1.08993
0.533241
0.360529
0.521924
0.691677
0.411832
0.688159
0.395404
0.597377
0.485971
0.689822
0.492719
0.695935
1.12599
0.678737
0.556057
0.367013
0.690784
0.691923
0.386405
0.3865
0.687238
0.367654
0.699811
0.367522
0.575501
0.399727
0.687758
0.413078
0.691333
0.36798
0.688541
0.701358
0.692235
1.12605
0.3685
0.388694
0.481583
0.688082
0.71069
0.682816
0.660453
0.424031
0.699914
0.410642
0.685655
0.674342
0.516249
0.445186
0.696616
0.694649
0.389809
0.758619
0.691096
0.695744
0.698636
0.397858
0.680051
0.36785
0.694977
0.418197
0.678259
0.685138
0.691305
0.690957
0.451668
0.689711
0.367787
0.366508
0.687909
1.12517
0.586769
0.695643
1.12664
0.367898
0.701617
0.689397
0.69031
0.387134
0.513378
0.705773
0.363105
0.688829
0.689149
0.690051
0.689445
0.434496
0.544637
0.678412
0.380896
0.685598
0.69188
0.55428
0.687251
0.44071
0.678769
0.701493
0.717885
0.688305
0.360873
0.39119
0.697718
0.68982
0.418672
0.458689
0.409204
0.385039
0.376006
0.364277
0.393095
0.367844
0.697338
0.398879
0.358619
0.709093
0.587892
1.12692
0.497328
0.367877
0.686983
0.545004
0.5943
0.694781
0.489287
0.709457
0.658726
0.597703
0.689635
0.37471
0.70372
0.679891
0.370124
0.366717
0.519546
0.677826
0.597703
0.693235
0.686885
0.697709
0.69104
0.446966
0.700827
0.680483
0.689548
0.367662
0.688045
0.673013
0.442535
0.51153
0.363816
0.39074
0.376144
0.597706
0.718613
0.694301
0.366239
0.492569
0.691277
0.381363
0.706081
0.692531
0.690327
0.71825
0.699381
0.415219
0.391143
0.39472
0.597595
0.415463
0.694727
0.395901
0.687495
0.687504
0.68885
0.402897
0.539105
0.52016
0.701327
0.37875
0.365872
0.688688
0.689469
0.678329
0.686968
0.688462
0.699676
0.367868
0.597699
0.694389
0.552369
0.700439
0.705044
0.698546
0.508836
0.498961
0.690494
0.531789
0.681199
0.367753
0.685285
0.688333
0.478005
0.418512
0.688837
0.557052
0.693033
0.706652
0.367889
0.365685
0.993046
0.552293
0.494787
0.68658
0.688057
0.431225
0.690948
0.990636
0.682985
0.367873
0.597704
0.367877
0.687276
0.691737
0.699188
0.693588
0.902495
0.458068
0.475291
0.69905
0.367677
0.59769
0.44401
0.697349
0.380759
0.69529
0.694642
1.0243
0.367837
1.12691
1.11867
0.365201
0.685069
0.378554
0.691124
0.367887
0.361784
0.388801
0.702354
0.689155
0.463261
0.460736
0.685783
0.692729
0.525475
0.703837
0.367862
0.588908
0.367749
0.697103
0.365721
0.704482
0.688122