# vtk DataFile Version 1.0
unstructured grid
ascii
DATASET UNSTRUCTURED_GRID
points 13672 float
0.0796578 -0.059106 0
0.00128732 0.00159165 0
0.00227961 -0.00102548 0
0.0791586 -0.0598787 0
-0.0546216 0.01 0
0.000495206 0.025 0
0.0800549 -0.035 0
0.135172 -0.08 0
-0.0546216 -0.0451168 0
0.000495206 -0.0301168 0
0.0800549 -0.0901168 0
0.135172 -0.135117 0
-0.0546216 -0.0451168 -0.00551168
0.000495206 -0.0301168 -0.00551168
0.0800549 -0.0901168 -0.00551168
0.135172 -0.135117 -0.00551168
0.135172 -0.08 -0.00551168
0.0800549 -0.035 -0.00551168
0.000495206 0.025 -0.00551168
-0.0546216 0.01 -0.00551168
0.00128732 0.00159165 -0.00551168
0.00227961 -0.00102548 -0.00551168
0.0791586 -0.0598787 -0.00551168
0.0796578 -0.059106 -0.00551168
0.00165953 -0.000990923 0
0.00119576 -0.000874076 0
0.000866021 -0.000641801 0
0.000645147 -0.000349912 0
0.00052235 -1.7281e-05 0
0.00049972 0.000348016 0
0.000601632 0.000737716 0
0.000861774 0.0011403 0
0.00157235 0.00183217 0
0.00188647 0.00206725 0
0.00222612 0.00230203 0
0.00258713 0.00254351 0
0.00296826 0.00279524 0
0.00337118 0.00305664 0
0.00379785 0.00332658 0
0.00425045 0.00360349 0
0.00473139 0.00388521 0
0.0052432 0.00416895 0
0.0057881 0.00445204 0
0.00636753 0.00473281 0
0.00698281 0.00500961 0
0.00763526 0.00528058 0
0.00832616 0.00554366 0
0.00905691 0.00579603 0
0.00982918 0.00603333 0
0.0106445 0.00625033 0
0.0115038 0.00644128 0
0.0124073 0.00660297 0
0.0133543 0.00673414 0
0.0143444 0.00683382 0
0.0153769 0.00690031 0
0.0164512 0.00693173 0
0.0175666 0.00692547 0
0.0187219 0.00687822 0
0.0199156 0.00678477 0
0.0211454 0.00663864 0
0.0224084 0.00643275 0
0.0237018 0.00616676 0
0.0250249 0.00584739 0
0.026375 0.00547298 0
0.0277479 0.00503752 0
0.0291386 0.00453545 0
0.0305433 0.0039653 0
0.0319572 0.0033256 0
0.0333681 0.00260019 0
0.034775 0.00179799 0
0.0361793 0.000930615 0
0.0375798 3.12222e-06 0
0.0389689 -0.000988429 0
0.0403357 -0.00205109 0
0.041675 -0.00318283 0
0.0429849 -0.00437751 0
0.0442643 -0.00562904 0
0.0455126 -0.00693089 0
0.0467314 -0.00827518 0
0.0479204 -0.00965638 0
0.0490661 -0.0110799 0
0.0501515 -0.0125519 0
0.0511696 -0.0140695 0
0.0521492 -0.0156071 0
0.0531202 -0.0171411 0
0.0540851 -0.0186663 0
0.0550431 -0.0201798 0
0.0559923 -0.0216793 0
0.0569311 -0.0231626 0
0.0578582 -0.0246273 0
0.0587723 -0.0260715 0
0.0596721 -0.027493 0
0.0605563 -0.02889 0
0.0614241 -0.0302609 0
0.0622742 -0.0316042 0
0.063106 -0.0329183 0
0.0639186 -0.034202 0
0.0647113 -0.0354543 0
0.0654835 -0.0366743 0
0.0662345 -0.0378613 0
0.0669642 -0.0390145 0
0.0676726 -0.0401333 0
0.0683597 -0.0412172 0
0.0690246 -0.0422665 0
0.0696662 -0.0432819 0
0.0702841 -0.0442636 0
0.0708793 -0.0452111 0
0.0714538 -0.0461237 0
0.072009 -0.047001 0
0.0725452 -0.0478434 0
0.0730611 -0.0486524 0
0.073556 -0.0494294 0
0.0740291 -0.0501756 0
0.0744812 -0.0508916 0
0.0749138 -0.0515773 0
0.0753285 -0.0522331 0
0.0757266 -0.0528592 0
0.076109 -0.0534564 0
0.0764753 -0.0540264 0
0.0768243 -0.054571 0
0.0771553 -0.0550919 0
0.0774679 -0.0555901 0
0.0777617 -0.0560669 0
0.0780369 -0.056523 0
0.0782958 -0.0569578 0
0.0785421 -0.0573703 0
0.0787786 -0.0577603 0
0.0790073 -0.0581279 0
0.0792295 -0.058474 0
0.0794462 -0.0587995 0
0.0798803 -0.0594162 0
0.0800272 -0.0596588 0
0.0800357 -0.0598891 0
0.0799275 -0.0600784 0
0.0797205 -0.0601773 0
0.0794593 -0.0601051 0
0.0789155 -0.0596491 0
0.0786707 -0.0593963 0
0.0784111 -0.0591319 0
0.0781372 -0.0588542 0
0.0778566 -0.0585548 0
0.0775715 -0.0582308 0
0.0772803 -0.0578828 0
0.0769832 -0.0575099 0
0.0766822 -0.0571097 0
0.0763801 -0.0566796 0
0.0760759 -0.0562196 0
0.0757623 -0.0557337 0
0.0754359 -0.0552232 0
0.0750951 -0.0546879 0
0.0747379 -0.054128 0
0.0743626 -0.0535435 0
0.0739688 -0.0529338 0
0.0735559 -0.0522981 0
0.0731238 -0.0516357 0
0.0726718 -0.050946 0
0.0721991 -0.0502288 0
0.0717046 -0.049484 0
0.0711872 -0.0487117 0
0.0706461 -0.047912 0
0.0700804 -0.0470849 0
0.0694892 -0.0462308 0
0.0688718 -0.0453499 0
0.0682271 -0.0444431 0
0.0675544 -0.043511 0
0.0668527 -0.0425546 0
0.0661215 -0.0415748 0
0.06536 -0.040573 0
0.0645676 -0.0395504 0
0.0637439 -0.0385087 0
0.0628887 -0.0374493 0
0.062002 -0.0363741 0
0.0610838 -0.0352847 0
0.0601345 -0.0341831 0
0.0591547 -0.033071 0
0.0581456 -0.0319502 0
0.0571083 -0.0308224 0
0.0560444 -0.0296893 0
0.0549562 -0.028552 0
0.053845 -0.0274126 0
0.0527113 -0.0262746 0
0.051554 -0.0251427 0
0.0503724 -0.0240222 0
0.0491675 -0.0229164 0
0.047941 -0.0218282 0
0.0466955 -0.0207597 0
0.0454337 -0.0197126 0
0.0441592 -0.0186878 0
0.0428751 -0.0176863 0
0.0415841 -0.0167097 0
0.0402878 -0.0157609 0
0.0389879 -0.0148428 0
0.0376864 -0.0139575 0
0.0363853 -0.013107 0
0.0350871 -0.0122931 0
0.0337942 -0.0115164 0
0.0325095 -0.0107772 0
0.0312357 -0.0100756 0
0.0299758 -0.00941024 0
0.0287337 -0.00877784 0
0.0275126 -0.00817571 0
0.0263139 -0.00760375 0
0.0251376 -0.00706528 0
0.0239829 -0.0065649 0
0.0228537 -0.00609619 0
0.0217522 -0.00565563 0
0.0206795 -0.00524226 0
0.0196364 -0.00485507 0
0.0186233 -0.00449318 0
0.0176408 -0.00415577 0
0.016689 -0.00384204 0
0.0157682 -0.00355115 0
0.0148783 -0.00328218 0
0.0140192 -0.00303468 0
0.0131906 -0.00280795 0
0.0123925 -0.00260016 0
0.0116246 -0.00241012 0
0.0108864 -0.00223769 0
0.0101774 -0.00208212 0
0.00949701 -0.00194206 0
0.00884483 -0.0018163 0
0.0082202 -0.0017039 0
0.00762247 -0.00160391 0
0.00705097 -0.00151528 0
0.006505 -0.00143697 0
0.0059838 -0.00136806 0
0.00548662 -0.00130772 0
0.00501265 -0.00125519 0
0.00456114 -0.00120954 0
0.00413136 -0.00116914 0
0.00372257 -0.00113251 0
0.00333398 -0.00109853 0
0.00296466 -0.00106798 0
0.00261363 -0.0010431 0
-0.052721 -0.0445996 0
-0.0508204 -0.0440823 0
-0.0489199 -0.0435651 0
-0.0470193 -0.0430478 0
-0.0451187 -0.0425306 0
-0.0432181 -0.0420134 0
-0.0413175 -0.0414961 0
-0.039417 -0.0409789 0
-0.0375164 -0.0404616 0
-0.0356158 -0.0399444 0
-0.0337152 -0.0394271 0
-0.0318146 -0.0389099 0
-0.0299141 -0.0383927 0
-0.0280135 -0.0378754 0
-0.0261129 -0.0373582 0
-0.0242123 -0.0368409 0
-0.0223117 -0.0363237 0
-0.0204112 -0.0358065 0
-0.0185106 -0.0352892 0
-0.01661 -0.034772 0
-0.0147094 -0.0342547 0
-0.0128088 -0.0337375 0
-0.0109083 -0.0332202 0
-0.00900769 -0.032703 0
-0.00710711 -0.0321858 0
-0.00520653 -0.0316685 0
-0.00330595 -0.0311513 0
-0.00140537 -0.030634 0
0.00190689 -0.0299614 0
0.00332271 -0.0298498 0
0.00474133 -0.0297825 0
0.00616136 -0.0297597 0
0.0075814 -0.0297814 0
0.00900007 -0.0298477 0
0.010416 -0.0299583 0
0.0118278 -0.0301127 0
0.0132342 -0.0303103 0
0.0146339 -0.0305504 0
0.0160259 -0.0308322 0
0.0174091 -0.0311546 0
0.0187824 -0.0315166 0
0.020145 -0.031917 0
0.0214961 -0.0323546 0
0.0228351 -0.032828 0
0.0241613 -0.0333361 0
0.0254744 -0.0338774 0
0.0267738 -0.0344507 0
0.0280592 -0.0350545 0
0.0293306 -0.0356877 0
0.0305875 -0.0363488 0
0.0318301 -0.0370367 0
0.0330581 -0.0377501 0
0.0342717 -0.0384879 0
0.0354708 -0.0392489 0
0.0366556 -0.0400321 0
0.0378262 -0.0408363 0
0.0389828 -0.0416607 0
0.0401254 -0.0425042 0
0.0412543 -0.0433659 0
0.0423698 -0.0442451 0
0.043472 -0.0451408 0
0.0445612 -0.0460523 0
0.0456375 -0.0469789 0
0.0467013 -0.0479199 0
0.0477529 -0.0488746 0
0.0487923 -0.0498424 0
0.04982 -0.0508227 0
0.0508362 -0.051815 0
0.051841 -0.0528187 0
0.0528348 -0.0538333 0
0.0538178 -0.0548584 0
0.0547903 -0.0558935 0
0.0557524 -0.0569382 0
0.0567045 -0.0579922 0
0.0576467 -0.0590549 0
0.0585792 -0.0601261 0
0.0595024 -0.0612055 0
0.0604163 -0.0622926 0
0.0613212 -0.0633873 0
0.0622174 -0.0644891 0
0.0631049 -0.0655979 0
0.0639841 -0.0667134 0
0.064855 -0.0678353 0
0.0657179 -0.0689633 0
0.0665729 -0.0700974 0
0.0674202 -0.0712372 0
0.06826 -0.0723826 0
0.0690925 -0.0735333 0
0.0699178 -0.0746892 0
0.070736 -0.0758501 0
0.0715473 -0.0770159 0
0.0723518 -0.0781863 0
0.0731498 -0.0793612 0
0.0739412 -0.0805405 0
0.0747264 -0.081724 0
0.0755053 -0.0829116 0
0.0762781 -0.0841033 0
0.0770449 -0.0852987 0
0.0778059 -0.0864979 0
0.0785611 -0.0877007 0
0.0793108 -0.088907 0
0.0814681 -0.0912706 0
0.0828814 -0.0924245 0
0.0842946 -0.0935783 0
0.0857079 -0.0947322 0
0.0871211 -0.095886 0
0.0885344 -0.0970399 0
0.0899476 -0.0981937 0
0.0913609 -0.0993476 0
0.0927741 -0.100501 0
0.0941874 -0.101655 0
0.0956006 -0.102809 0
0.0970139 -0.103963 0
0.0984272 -0.105117 0
0.0998404 -0.106271 0
0.101254 -0.107424 0
0.102667 -0.108578 0
0.10408 -0.109732 0
0.105493 -0.110886 0
0.106907 -0.11204 0
0.10832 -0.113194 0
0.109733 -0.114348 0
0.111146 -0.115501 0
0.11256 -0.116655 0
0.113973 -0.117809 0
0.115386 -0.118963 0
0.116799 -0.120117 0
0.118213 -0.121271 0
0.119626 -0.122424 0
0.121039 -0.123578 0
0.122452 -0.124732 0
0.123866 -0.125886 0
0.125279 -0.12704 0
0.126692 -0.128194 0
0.128105 -0.129348 0
0.129519 -0.130501 0
0.130932 -0.131655 0
0.132345 -0.132809 0
0.133758 -0.133963 0
0.135172 -0.133216 0
0.135172 -0.131316 0
0.135172 -0.129415 0
0.135172 -0.127514 0
0.135172 -0.125614 0
0.135172 -0.123713 0
0.135172 -0.121813 0
0.135172 -0.119912 0
0.135172 -0.118012 0
0.135172 -0.116111 0
0.135172 -0.11421 0
0.135172 -0.11231 0
0.135172 -0.110409 0
0.135172 -0.108509 0
0.135172 -0.106608 0
0.135172 -0.104708 0
0.135172 -0.102807 0
0.135172 -0.100906 0
0.135172 -0.0990058 0
0.135172 -0.0971052 0
0.135172 -0.0952046 0
0.135172 -0.0933041 0
0.135172 -0.0914035 0
0.135172 -0.0895029 0
0.135172 -0.0876023 0
0.135172 -0.0857017 0
0.135172 -0.0838012 0
0.135172 -0.0819006 0
0.133758 -0.0788462 0
0.132345 -0.0776923 0
0.130932 -0.0765385 0
0.129519 -0.0753846 0
0.128105 -0.0742308 0
0.126692 -0.0730769 0
0.125279 -0.0719231 0
0.123866 -0.0707692 0
0.122452 -0.0696154 0
0.121039 -0.0684615 0
0.119626 -0.0673077 0
0.118213 -0.0661538 0
0.116799 -0.065 0
0.115386 -0.0638462 0
0.113973 -0.0626923 0
0.11256 -0.0615385 0
0.111146 -0.0603846 0
0.109733 -0.0592308 0
0.10832 -0.0580769 0
0.106907 -0.0569231 0
0.105493 -0.0557692 0
0.10408 -0.0546154 0
0.102667 -0.0534615 0
0.101254 -0.0523077 0
0.0998404 -0.0511538 0
0.0984272 -0.05 0
0.0970139 -0.0488462 0
0.0956006 -0.0476923 0
[...]
CELL_DATA 13116
SCALARS rho float
LOOKUP_TABLE default
0.621256
0.718763
0.332472
0.700684
0.700405
0.695809
0.319544
0.701727
0.567133
0.700553
0.325853
0.295433
0.70047
0.300595
0.331567
0.696109
0.632794
0.699098
0.701435
0.333132
0.612113
0.337745
0.307981
0.6997
0.625599
0.700976
0.7005
0.321685
0.60258
0.666739
1.14028
0.299947
0.582707
0.50401
0.32019
0.618173
0.694227
0.701231
0.727015
0.700935
0.692749
0.701639
0.51694
0.329866
0.701294
0.701678
0.703589
0.699955
0.333019
0.546551
0.700676
0.520692
0.306684
0.62707
0.584694
0.610217
0.327973
0.699474
0.552267
0.324865
0.304226
0.700911
0.71732
0.790481
1.14387
0.320003
0.69817
0.692903
0.699306
1.13339
0.330756
0.588653
0.340452
0.320504
1.13613
0.334058
0.696096
0.700339
0.322494
0.69878
0.700864
0.702053
0.699634
0.701126
0.702271
0.445234
0.317993
0.684954
0.70198
0.346242
0.298953
0.718327
0.699981
0.701825
0.675472
0.629302
0.627869
1.14289
1.13794
0.607171
0.68731
0.688117
0.699399
0.419171
0.703474
0.301041
0.411602
0.555465
0.319001
0.615191
0.574364
0.703114
0.626131
0.700304
0.698809
0.698646
0.314697
0.443555
0.699718
0.699598
0.691901
0.342228
0.69935
0.298553
0.702313
0.478195
0.3172
0.521487
0.321228
0.543346
0.6998
0.702376
0.492583
0.33287
0.479431
0.650865
1.13022
0.699781
0.686116
0.699706
0.688615
0.70389
0.52416
0.690924
0.71266
0.288276
0.32131
0.702108
0.700097
0.700732
0.536603
0.701458
0.6997
0.334894
0.700064
0.701927
0.308048
0.690725
1.14031
0.683889
0.699693
0.324705
0.699679
0.310732
0.344241
0.700781
0.702027
0.69904
0.319755
0.465241
0.447766
1.13366
0.329394
0.51604
0.698405
0.306423
0.334176
0.339492
0.703192
0.690528
0.344696
0.467576
0.592354
0.692849
0.691764
0.555696
0.338062
0.699266
0.701798
0.493891
0.679956
0.702289
1.11945
0.30495
0.703118
0.691362
0.700245
0.699561
0.702293
0.381743
0.418161
0.624167
0.51713
0.315208
0.700397
0.709728
0.527185
0.635537
0.301702
0.334692
0.335533
0.697165
0.308373
0.347458
0.340725
0.335033
0.407256
0.724282
0.702271
0.428619
0.327818
0.698074
0.570292
0.343995
0.537378
0.700801
0.711369
0.321135
0.698245
0.418479
0.702667
0.300093
1.11166
0.575153
1.14202
0.701649
1.05241
0.318577
0.481333
0.681646
1.13671
0.6901
1.13124
1.02305
0.701904
0.334664
0.699769
0.700287
1.13804
0.326529
0.331085
0.707405
0.699677
1.13393
0.700742
0.618886
0.698441
0.326182
0.32925
0.378109
0.293781
0.700413
0.700225
0.696144
0.32073
0.700679
0.328154
0.445884
0.704073
0.333882
0.7017
0.700896
1.13418
0.699358
0.319831
1.1336
0.700916
1.13807
0.699744
0.324672
0.323361
0.305702
0.649803
0.342395
0.335591
0.39388
0.365759
0.702152
0.297449
0.701721
0.700661
0.333604
0.339131
0.328208
0.473784
0.328639
0.684425
0.684489
0.703336
0.33433
0.696631
0.570552
0.340444
0.327331
0.683393
0.699619
0.699938
0.337443
0.69423
0.48795
0.702424
0.701333
0.700621
0.701273
0.304941
0.698015
0.293808
0.698032
0.700249
0.67747
0.337004
0.388963
0.700461
0.324978
0.704334
0.700893
0.363722
0.697267
0.699668
0.327346
0.700759
0.699961
0.242658
0.699961
0.42752
0.556183
0.703368
0.440991
0.691674
0.321625
0.699581
0.387852
0.908359
0.693922
0.700248
0.319785
0.417692
0.702058
0.333395
0.700516
0.702539
0.467376
1.13302
0.33892
0.333706
0.701138
0.54249
0.693885
0.322454
0.309313
0.699818
0.700644
0.322594
0.700584
0.311734
0.297222
0.69959
0.702925
0.570338
0.363888
0.699735
1.13998
0.695771
0.700822
0.699705
0.540426
0.355166
0.298573
0.3454
0.695001
0.34536
0.59424
0.364295
0.301238
0.411588
0.577649
0.152666
0.334273
0.702187
0.30275
0.699801
0.60647
0.694963
0.676925
0.699747
0.334867
0.324802
0.385837
0.355447
0.701298
0.623834
0.694187
0.606068
0.712529
0.646894
0.70227
0.67089
0.664852
0.700181
0.698815
0.68794
0.381834
0.525466
0.619508
0.338126
0.682004
0.610752
0.308775
0.698397
1.13556
0.305578
0.333358
0.338259
0.339143
0.629248
0.317974
0.304837
0.697788
0.323755
0.578282
0.346068
0.697654
0.703349
0.330473
0.334817
0.701372
0.471117
0.352017
0.338421
0.355055
0.317737
0.326209
0.334859
0.33967
0.448895
0.330944
0.685895
0.348477
0.701775
0.369798
0.297699
0.487528
0.282847
0.343734
0.286412
0.700336
0.457521
0.647738
0.568461
0.323366
0.638707
0.701931
0.443899
0.696751
0.651861
0.653918
0.328994
1.14049
0.44756
0.699488
1.14067
0.311723
0.303449
0.701427
0.357365
0.440544
0.695852
0.412175
0.689936
0.715535
0.341797
0.333075
0.32233
0.513446
0.328558
0.269148
0.330898
0.28789
0.700822
0.700844
0.477352
0.610548
0.482128
0.703182
0.387312
0.324772
0.570839
0.312422
0.702177
0.364293
0.428843
0.489101
0.70098
0.702015
0.550829
0.363215
0.306871
0.548172
0.701506
1.0822
0.544901
0.703244
0.700109
0.332273
0.703453
0.571227
0.680429
0.372369
0.329553
0.70009
0.700344
0.674924
0.700783
0.703301
0.701428
0.699594
0.677987
0.694077
0.343702
0.700837
0.379385
0.309999
0.350889
0.70076
0.708828
0.378865
0.702163
0.617855
0.33863
0.935541
0.699599
0.700936
0.321675
0.325733
0.700033
0.356185
0.364102
0.295423
0.33353
0.705339
0.251081
0.700461
0.347542
0.717719
0.700422
0.698611
0.7006
0.356524
0.343969
0.706525
0.703053
0.693966
0.700824
0.700219
0.478386
0.328493
0.313795
0.694654
0.560585
0.339725
0.470524
0.301991
0.70215
0.698435
0.371047
0.338002
0.702027
0.446835
0.702162
0.664175
0.32077
0.419171
0.692362
1.13799
0.31215
0.702054
0.701978
0.708195
0.331269
1.13455
0.325508
1.14302
0.679094
0.365451
0.393414
0.336881
1.1435
0.320499
0.319316
0.448468
0.798104
0.701961
0.32019
0.322282
0.338887
0.883526
0.341287
0.69221
0.292634
0.591239
0.700795
0.371409
0.310298
0.308831
0.479822
0.314704
0.701717
0.337108
0.322249
0.694474
0.304961
0.697148
0.704267
1.14458
0.353693
0.701914
0.699919
0.7002
0.695094
0.703003
0.699373
0.29775
1.12097
0.433866
0.710407
0.32476
0.701709
0.546
0.317586
1.14167
0.699917
0.328921
0.668669
0.299511
0.329069
0.697587
0.700228
0.302307
0.288016
0.321538
0.297317
0.702573
0.699619
0.330937
0.341375
0.700594
0.699808
0.59445
0.699887
0.698399
0.325536
0.700221
0.451735
0.700532
0.448336
0.619525
0.472856
0.697984
0.694573
0.570652
0.380671
0.319624
0.69896
0.599364
0.620963
0.699848
0.292597
0.702012
0.700038
0.392984
0.524958
0.699997
0.361548
1.13948
0.682443
0.383652
0.700189
0.673467
0.329265
0.701863
0.305163
0.702844
0.335849
0.69688
0.715793
0.317794
0.737028
0.699762
0.700094
0.620675
0.703676
0.571961
0.341507
0.488218
0.299503
0.318199
1.13173
0.540926
0.699443
0.700033
0.345633
0.346367
0.702887
0.700896
0.701223
0.701026
0.331359
0.698704
0.700357
0.333606
0.293999
0.699742
0.706976
0.702205
0.298826
0.576896
0.330589
0.701915
0.704578
1.08391
0.716651
0.336982
0.707497
0.701678
0.699768
0.700613
0.692228
0.42934
0.699896
0.335079
0.705972
0.700505
0.465647
0.715247
1.03855
0.700305
0.445885
0.438883
0.575715
0.666265
0.357233
0.365299
0.33493
0.33165
0.715278
0.702141
1.04232
0.365086
0.329195
0.69928
0.691504
0.247429
0.346687
0.471429
0.698148
0.699161
0.701011
0.699064
0.335517
0.358682
1.1324
0.298084
0.347978
0.337717
0.699192
0.328691
0.355399
0.605705
0.70881
0.703152
0.679898
0.699702
0.315465
0.317619
0.33611
0.577907
0.456799
0.30008
0.693095
0.698946
0.70339
0.69644
0.299408
0.358555
0.700726
0.35332
0.692039
0.713195
1.1397
0.302534
0.356548
0.703359
1.13827
0.640744
0.246264
0.702078
0.686676
0.603552
0.700618
0.701175
1.1329
0.702411
0.332671
0.699419
1.13363
0.686852
0.701809
1.13208
0.703137
1.14052
0.699703
0.321732
0.319128
0.359627
1.13849
0.550741
0.353383
0.703031
0.700518
0.291055
0.671278
0.334149
0.67935
0.564902
0.328982
0.700931
0.69946
0.341179
0.532196
1.13869
0.319948
0.702133
0.315932
0.299523
0.644688
0.621308
0.487137
0.700058
0.335052
0.699654
0.329798
0.297187
0.696833
0.338296
0.630942
0.301896
0.673004
0.620031
1.13888
0.701886
0.31296
0.321264
0.698828
0.521567
0.701359
0.509708
0.624421
0.696713
0.699679
0.536607
0.61205
0.703246
0.700205
0.69881
0.392403
0.366993
0.526954
0.703202
0.700375
0.366758
0.700666
0.640583
0.384641
0.303453
0.678997
0.697693
1.13339
1.13988
0.693237
0.700934
0.715439
0.698277
0.301331
0.672142
0.469759
0.700559
0.705815
0.359281
0.70272
0.700544
0.322853
0.318721
0.327128
1.13268
0.32471
0.642665
0.70065
0.67228
0.349549
0.70105
0.31154
0.578289
0.850528
1.08328
0.692088
0.891826
0.633348
0.700718
0.568754
0.711455
0.335366
0.693166
0.698414
0.499679
1.1408
0.702232
0.30666
0.306882
0.321466
0.70055
0.364677
1.13569
0.33705
0.701666
0.303375
0.473476
0.297136
0.69948
0.700866
0.618886
0.311719
0.635364
0.680855
0.338185
0.595821
0.700881
0.299496
0.611928
1.13891
0.700756
0.692609
0.310267
0.554534
0.700778
0.699389
0.707319
0.358546
0.41722
0.701799
1.13345
1.13719
1.13498
0.603293
0.702332
0.599317
0.700234
0.357896
0.313215
1.13619
0.700302
0.743669
0.319367
0.694265
0.616329
0.644038
0.333829
0.436328
0.700633
0.700704
0.563905
0.356532
0.694813
1.1417
0.320508
0.623621
0.699378
0.320918
0.297115
0.305763
0.702259
0.339909
0.345051
0.700858
0.51291
0.70022
0.675465
0.318809
0.32788
0.700865
0.321618
0.319024
1.13894
0.268843
0.387439
0.615058
0.70305
0.702325
0.329954
0.344153
0.326181
0.703998
0.297132
0.702246
0.311318
0.702911
0.701987
0.700702
0.704759
0.707236
0.704687
0.699087
0.700587
0.7015
0.261544
0.33483
0.712436
0.692731
0.489788
0.703018
0.575819
0.764237
0.687337
0.328422
0.6993
0.700949
0.712242
0.326668
0.70612
0.337157
0.701361
0.479331
0.698832
0.695401
0.330994
0.70143
0.338131
0.503888
0.718541
0.337507
0.692171
1.13409
0.702197
0.339046
0.697792
0.332461
0.300432
0.301046
0.341486
0.692024
0.328144
0.687422
0.952273
0.3574
0.304912
0.475165
0.574593
0.655494
0.70695
0.352652
0.322173
0.322579
0.295996
0.301431
0.658064
0.702974
0.322441
0.890755
0.700853
0.304336
0.700935
0.690319
0.888796
0.330499
1.13589
0.70399
0.70001
0.700784
0.331175
0.702338
0.699935
0.704935
0.677074
0.689629
0.331648
0.302302
0.700921
0.522203
0.360223
0.696391
0.302533
0.557677
0.662155
0.703127
0.702501
0.300902
0.70288
0.375943
0.327454
0.698383
0.700109
0.699862
0.699697
0.690667
0.300645
0.700582
0.323415
0.488188
0.700749
1.13791
0.700967
0.327353
0.326266
0.700438
0.332356
0.700025
0.65848
0.46157
0.341632
0.699839
0.301359
0.694925
0.700138
0.694091
0.301447
0.321125
0.513216
0.565536
0.649144
0.496224
0.698546
0.705491
0.701677
1.13176
0.702698
0.312591
0.341292
0.700241
0.686191
0.704016
0.462233
0.316693
0.703466
0.324831
0.698432
0.616389
0.35295
0.701525
0.328074
0.702496
0.332007
0.700127
0.320197
0.702652
0.685777
0.293525
0.702234
0.665803
0.300011
1.03726
0.702053
0.578499
0.278804
0.363747
0.497547
0.699984
0.693036
0.348657
0.57286
0.702168
0.691852
0.350208
0.653608
0.709526
0.440613
0.698133
0.698038
0.356275
0.700251
1.13743
0.33297
0.630825
0.339971
0.682504
0.337489
0.294877
0.700341
0.345268
0.339554
0.314242
0.698014
0.708352
0.388177
0.694329
0.35824
0.7053
0.333546
0.714881
0.365196
0.696799
0.700406
0.690379
1.0593
0.534878
0.684867
0.891111
0.325985
0.648204
0.690299
0.596686
0.702911
0.48053
0.395748
0.700543
0.341938
0.578444
0.33726
0.696174
0.269099
0.304723
0.699516
0.699042
0.341843
0.700287
0.698943
1.13212
0.700989
1.14461
0.333638
0.70091
0.343753
0.309501
0.702027
0.699258
0.70157
0.701853
0.30035
0.336805
0.324942
0.719117
0.967909
0.361464
0.703247
0.318132
0.33851
0.333834
0.701857
0.450277
0.700687
0.701567
0.645981
0.700286
0.701769
0.60974
0.693953
0.444567
0.296757
0.34268
1.14392
1.1381
0.317898
0.658683
0.701294
0.691582
0.310637
0.461849
0.707622
0.327999
0.70584
0.683185
0.345186
0.684123
0.714495
0.360013
0.702385
0.317997
0.699384
0.700023
0.707281
0.321888
0.458949
0.691984
0.373098
0.430685
0.7002
0.366893
0.672876
0.698628
0.701834
0.698762
0.35753
1.14587
0.698176
0.700564
0.407063
0.699852
0.335403
0.273865
0.702355
0.698838
0.94815
0.275029
0.696319
0.64552
1.13604
0.321232
0.309107
0.354916
0.700153
0.321669
0.306468
0.329411
0.682809
0.313608
0.360934
0.447077
0.702051
0.351698
1.07158
0.745247
0.700499
0.338662
0.699755
0.674005
0.916408
0.439211
0.675971
0.321572
0.34114
0.697717
0.3409
0.662896
0.702145
1.13755
0.352166
0.389666
0.329511
0.546005
1.13096
0.282078
0.701446
0.697968
0.698705
0.335001
0.32195
0.392652
0.696075
0.34415
1.13211
0.60611
0.68789
0.701561
0.325218
0.668276
0.298687
0.672883
0.66064
0.700807
0.672226
0.601224
0.679775
0.706052
0.70047
0.340901
0.368673
0.325349
0.698686
0.563253
1.13789
0.350954
0.452841
0.69957
0.69996
1.11823
0.341758
0.700759
0.544185
0.550284
0.693887
0.315316
0.341268
0.354579
0.698624
0.984633
0.675125
0.703157
0.399154
0.70233
0.672054
0.967559
0.98347
0.701904
0.700941
0.693264
0.70029
0.69975
0.311432
0.699751
0.699711
0.698769
0.699598
0.698949
0.650026
0.34069
0.278729
0.69221
0.357318
0.357287
0.70111
0.317628
0.646707
0.6991
0.719781
0.711642
0.309047
0.701081
0.300874
0.313232
0.69502
0.702367
0.696981
0.337588
0.700434
0.6984
0.699873
0.69992
0.337292
0.697299
0.700498
0.712597
0.381163
0.6996
0.328504
0.700115
0.33699
0.342948
0.631722
0.467082
0.700904
0.699569
0.692774
0.32827
0.696039
0.391171
0.325754
0.703091
0.474472
0.351586
0.694139
0.295564
0.496635
0.689625
0.708226
0.702752
0.477878
0.5897
0.679143
0.693736
0.652103
0.699952
0.523371
0.702369
0.703032
0.670764
0.298772
0.323103
0.464394
0.699647
0.307561
0.6822
0.700455
0.62967
0.694081
0.606639
0.693799
0.699016
0.329396
0.700126
0.702306
0.607956
0.702843
0.700535
0.701812
0.679291
0.335633
0.318613
0.708943
0.568524
0.606046
0.699705
0.701981
0.69671
0.700397
0.700209
0.647425
0.70189
0.700651
0.31828
0.300131
0.259052
0.347871
1.13746
0.482722
0.597528
0.701687
0.700507
0.310846
0.711616
0.700683
0.336354
0.433528
1.13601
0.699751
0.314972
0.299233
0.296242
1.13175
0.701355
0.384631
0.313323
0.343369
0.297183
0.356949
0.361686
0.702676
0.700203
0.703207
0.339589
0.719518
0.645455
0.609857
0.345108
0.331439
0.702945
1.13693
0.349593
0.697329
0.358288
0.699654
0.311751
0.700781
0.338671
0.703177
0.700682
0.339248
0.552111
0.332147
0.700846
0.256213
0.650284
0.302008
0.534123
0.322565
0.646663
0.338559
1.10085
1.10778
0.609815
0.708478
0.346776
0.712521
0.693484
0.700562
0.642293
0.704348
0.332805
0.432991
0.321159
0.700028
0.34958
0.700503
0.544064
0.699085
0.700779
0.558678
0.700004
0.325378
0.312144
0.319914
0.528309
0.637133
0.70344
0.335317
0.334526
0.696328
0.40182
0.301428
0.649979
0.426526
0.352575
0.29004
0.701604
0.665942
0.653117
0.313185
0.713032
0.698624
0.296665
0.376112
0.70175
0.699116
0.672573
0.501171
0.417765
0.405951
0.335831
0.702505
0.695285
0.563217
0.697739
0.312931
0.603274
0.326832
1.14356
0.700651
0.335937
0.329542
0.698392
0.646195
0.700646
0.699811
0.700009
0.700735
0.700731
0.335691
0.338341
0.326066
0.325594
0.621235
1.14163
0.667222
0.329286
0.352262
0.509441
0.296954
0.696547
0.70937
0.339434
0.368875
0.698886
0.313984
0.679028
0.699599
0.703995
0.694284
0.619226
0.363983
0.334821
0.69709
0.337411
0.494218
0.384611
0.694169
0.699921
0.354652
0.345374
1.13202
0.338656
0.698284
0.70007
0.357873
0.323498
0.301782
0.699155
0.311737
1.13381
0.701704
0.634069
0.297016
0.518919
0.70014
0.701424
0.320158
0.701577
0.690801
0.299347
0.699736
0.701608
0.326662
0.351923
0.703338
0.335746
0.325623
0.712215
0.385711
0.701615
0.693054
0.699682
0.687108
0.700255
0.698418
0.675405
0.323579
0.4299
0.704795
0.70471
0.457393
0.701005
0.357028
0.699646
0.702566
0.59208
0.672538
0.434126
0.4723
0.710914
0.699945
0.702879
0.700695
0.697629
1.13488
0.701098
1.13181
0.702969
0.702889
0.701874
1.13879
0.68307
0.29915
0.7021
0.326111
0.699784
0.699745
0.699683
0.704651
0.698799
0.322916
0.332346
0.373519
0.321422
0.704127
0.335669
0.330453
0.701322
0.299538
0.700478
0.335275
0.705637
0.702295
0.345445
0.402926
0.354496
0.699927
0.320252
0.704874
0.701506
0.329516
0.703124
0.554839
0.361083
0.320778
0.296515
0.698185
0.354445
0.700184
0.606587
0.334264
0.7002
0.692493
0.700038
0.357297
0.608451
0.300994
0.719472
0.680411
0.698798
0.361921
0.705613
0.699752
0.703248
0.465594
0.699788
0.362926
0.332419
0.701451
0.479182
0.700387
0.417106
0.358788
0.451733
0.703314
0.321465
0.298509
0.335539
0.559737
1.13738
0.70174
0.260682
0.64043
0.698034
0.543802
0.510143
0.351177
0.557119
0.364433
0.329655
0.701653
0.333833
0.349341
0.700469
0.70079
0.337096
0.699017
0.334635
1.13569
0.322357
0.702651
1.12467
0.698574
0.711558
0.333453
0.328931
0.301506
0.691813
0.70333
0.586713
0.554593
0.397781
0.366455
0.691803
0.324497
0.700935
0.413038
1.10097
0.693945
0.336398
0.328504
0.335108
0.343955
0.327655
0.700317
0.707128
0.339705
0.699596
0.663974
0.340272
0.327249
0.700899
0.347991
0.701992
0.439332
0.698654
0.677595
0.699724
1.13675
0.315807
0.700189
0.699848
0.701611
0.346949
0.696995
0.598534
0.356004
0.699744
0.692035
0.702928
0.707006
0.700732
0.701672
0.701159
0.698994
0.70192
0.346183
0.699923
0.335676
0.51593
0.700274
0.302266
0.702639
0.700347
0.331143
0.703448
0.348057
0.299073
0.702054
0.694722
0.700792
0.331635
0.704344
0.634661
0.323463
0.340799
0.702081
0.698491
0.430713
0.332437
0.700761
0.700852
0.361105
0.668748
0.700715
0.66591
0.331269
0.361546
0.301631
0.677896
0.32294
0.703965
0.698703
0.691839
0.65085
0.702056
0.332511
0.70223
0.622084
0.700652
0.671106
0.305029
0.322197
0.294253
0.699635
0.701134
0.4349
0.675658
0.34562
0.692993
0.699467
0.290828
0.688478
0.705002
0.650251
0.340019
0.323218
0.348902
0.70022
0.700381
0.632398
0.500987
0.700663
0.348004
0.655543
1.13461
0.704954
0.339603
0.632335
0.33208
0.703205
0.298685
0.708592
0.702071
0.313698
0.699859
0.52061
1.13809
0.67452
1.13214
0.700653
0.488898
0.691619
0.69279
0.69944
0.706609
0.46722
1.1345
0.281101
0.694046
0.296647
0.346452
0.312588
0.327217
0.361153
0.340791
0.70081
0.407653
0.310715
0.688422
0.699848
0.706419
0.387056
0.699898
0.697231
0.687324
0.265805
0.667654
0.698209
0.344435
0.333111
0.328654
0.653655
0.493094
0.3565
0.654088
0.298239
1.14492
0.488214
0.313542
0.470032
0.672277
0.351178
0.698499
0.316542
0.58823
0.4286
0.702101
0.442909
0.688702
1.13459
0.6999
0.503928
0.335551
0.702775
0.700888
0.330285
0.300214
0.696236
0.345394
0.699516
0.3389
0.554003
0.287592
0.698244
0.339025
0.700823
0.346061
0.699677
0.701021
0.700167
1.14049
0.287875
0.306713
0.384639
0.701549
0.701293
0.703532
0.641088
0.335536
0.700262
0.351453
0.703365
0.689864
0.397474
0.34037
0.699714
0.709565
0.301165
1.14105
0.702767
0.699745
0.6997
0.316706
0.657565
0.339484
0.699839
0.313891
0.842681
0.703163
0.703113
0.700866
0.336937
0.70107
0.343268
0.329264
0.698126
1.14029
0.575624
0.708525
1.13584
0.346059
0.699393
0.702035
0.701291
0.301859
0.464537
0.698251
0.334958
0.699738
0.70072
0.702353
0.701729
0.336419
0.498973
0.668309
0.311367
0.702433
0.70071
0.513574
0.701996
0.3263
0.699625
0.699387
0.689973
0.701969
0.322035
0.30506
0.702753
0.70116
0.33223
0.350486
0.337687
0.311509
0.308578
0.295906
0.326839
0.358772
0.703132
0.302992
0.332805
0.701124
0.577887
1.13256
0.447136
0.348911
0.698754
0.499127
0.574697
0.700092
0.435516
0.675137
1.05719
0.616592
0.717952
0.32218
0.701601
0.786095
0.327018
0.33134
0.407433
0.699379
0.618682
0.700716
0.696265
0.703861
0.717471
0.36904
0.700771
0.709938
0.702566
0.342039
0.698705
0.681764
0.366303
0.460662
0.303306
0.298404
0.304469
0.617155
0.690566
0.711159
0.330609
0.40549
0.700719
0.29045
0.701479
0.693165
0.701904
0.689692
0.700263
0.34377
0.299786
0.297268
0.610259
0.317524
0.699508
0.297937
0.697875
0.697817
0.699718
0.345437
0.493247
0.483283
0.701517
0.332615
0.327613
0.70124
0.716667
0.67335
0.696271
0.702076
0.699374
0.366227
0.633571
0.700186
0.516722
0.701801
0.700715
0.699571
0.445147
0.43624
0.701332
0.486141
0.655917
0.338606
0.716075
0.702359
0.382514
0.325113
0.719595
0.520079
0.699961
0.701467
0.356114
0.336182
1.13708
0.4722
0.393454
0.701649
0.701925
0.330266
0.70157
1.14041
0.704378
0.366543
0.616909
0.364981
0.7013
0.700663
0.699409
0.71212
1.14687
0.367994
0.359606
0.703729
0.338738
0.611153
0.330863
0.699655
0.281423
0.676418
0.700117
1.14649
0.362182
1.13274
1.13669
0.326014
0.715998
0.296248
0.701643
0.355736
0.336248
0.289604
0.703933
0.700519
0.37838
0.361162
0.701837
0.700694
0.475297
0.698545
0.359117
0.564024
0.348615
0.707099
0.328179
0.690693
0.701769
0.319647
0.459371
0.337085
1.01831
0.333182