# vtk DataFile Version 1.0
unstructured grid
ascii
DATASET UNSTRUCTURED_GRID
points 3226 float
0.0796578 -0.059106 0
0.00128732 0.00159165 0
0.00227961 -0.00102548 0
0.0791586 -0.0598787 0
-0.0546216 0.01 0
0.000495206 0.025 0
0.0800549 -0.035 0
0.135172 -0.08 0
-0.0546216 -0.0451168 0
0.000495206 -0.0301168 0
0.0800549 -0.0901168 0
0.135172 -0.135117 0
-0.0546216 -0.0451168 -0.00551168
0.000495206 -0.0301168 -0.00551168
0.0800549 -0.0901168 -0.00551168
0.135172 -0.135117 -0.00551168
0.135172 -0.08 -0.00551168
0.0800549 -0.035 -0.00551168
0.000495206 0.025 -0.00551168
-0.0546216 0.01 -0.00551168
0.00128732 0.00159165 -0.00551168
0.00227961 -0.00102548 -0.00551168
0.0791586 -0.0598787 -0.00551168
0.0796578 -0.059106 -0.00551168
0.00110182 -0.000823821 0
0.000571683 -0.000188043 0
0.000561313 0.000639162 0
0.00189316 0.00207203 0
0.00260228 0.00255358 0
0.0033966 0.00307293 0
0.00428861 0.00362634 0
0.00529726 0.0041979 0
0.00644092 0.00476696 0
0.00773158 0.0053187 0
0.00918011 0.00583593 0
0.010799 0.00628751 0
0.012597 0.00663225 0
0.0145725 0.0068517 0
0.0167206 0.0069338 0
0.0190349 0.00685819 0
0.0215031 0.00658621 0
0.0241038 0.00607459 0
0.026821 0.00533786 0
0.0296245 0.00434523 0
0.0324763 0.00306927 0
0.0353199 0.00146906 0
0.0381488 -0.00039338 0
0.0409131 -0.00252802 0
0.0435632 -0.00493276 0
0.0460882 -0.0075571 0
0.0484881 -0.0103478 0
0.0506782 -0.0133217 0
0.0526651 -0.016422 0
0.0546139 -0.0195019 0
0.0565301 -0.022529 0
0.0584009 -0.0254846 0
0.0602154 -0.0283513 0
0.061964 -0.031114 0
0.0636389 -0.0337601 0
0.0652336 -0.0362795 0
0.0667431 -0.0386651 0
0.0681656 -0.0409111 0
0.0694983 -0.0430158 0
0.0707356 -0.0449823 0
0.071886 -0.0468071 0
0.0729575 -0.04849 0
0.0739438 -0.0500408 0
0.0748444 -0.0514675 0
0.0756707 -0.0527715 0
0.0764313 -0.053958 0
0.0771224 -0.0550398 0
0.0777384 -0.0560288 0
0.0782803 -0.0569318 0
0.0787691 -0.0577448 0
0.0792251 -0.0584672 0
0.0800494 -0.0597378 0
0.0797987 -0.0601582 0
0.0786655 -0.059391 0
0.0781259 -0.0588425 0
0.0775539 -0.0582102 0
0.0769587 -0.0574783 0
0.0763492 -0.0566339 0
0.075723 -0.0556725 0
0.0750452 -0.0546094 0
0.0742996 -0.0534457 0
0.073478 -0.0521785 0
0.072577 -0.0508019 0
0.0715904 -0.049313 0
0.0705098 -0.047712 0
0.069328 -0.0459996 0
0.0680378 -0.0441794 0
0.066632 -0.0422571 0
0.0651046 -0.0402413 0
0.0634508 -0.0381431 0
0.0616683 -0.0359754 0
0.0597581 -0.033753 0
0.0577255 -0.0314906 0
0.0555808 -0.0292024 0
0.0533388 -0.0269013 0
0.0510024 -0.0246151 0
0.0485693 -0.0223811 0
0.0460535 -0.0202228 0
0.0434788 -0.0181535 0
0.0408704 -0.0161833 0
0.0382442 -0.0143327 0
0.0356165 -0.0126209 0
0.0330065 -0.0110594 0
0.0304368 -0.00965062 0
0.0279338 -0.00838121 0
0.0255194 -0.00723697 0
0.0231965 -0.00623664 0
0.020983 -0.00535765 0
0.0188891 -0.00458677 0
0.0169193 -0.00391673 0
0.0150754 -0.00334068 0
0.0133572 -0.00285262 0
0.0117634 -0.0024437 0
0.0102912 -0.00210643 0
0.0089363 -0.00183343 0
0.00769424 -0.00161552 0
0.00655956 -0.00144452 0
0.00552632 -0.00131235 0
0.00458815 -0.00121216 0
0.00373885 -0.00113394 0
0.00297202 -0.00106855 0
-0.0506847 -0.0440454 0
-0.0467478 -0.0429739 0
-0.0428108 -0.0419025 0
-0.0388739 -0.0408311 0
-0.034937 -0.0397597 0
-0.0310001 -0.0386882 0
-0.0270632 -0.0376168 0
-0.0231263 -0.0365454 0
-0.0191894 -0.0354739 0
-0.0152525 -0.0344025 0
-0.0113155 -0.0333311 0
-0.00737862 -0.0322597 0
-0.00344171 -0.0311882 0
0.0038716 -0.0298185 0
0.00726082 -0.0297726 0
0.010644 -0.0299802 0
0.0140027 -0.0304367 0
0.0173201 -0.0311326 0
0.0205821 -0.0320541 0
0.0237776 -0.0331851 0
0.0268988 -0.0345078 0
0.0299406 -0.0360041 0
0.0329005 -0.0376567 0
0.035778 -0.039449 0
0.038574 -0.0413659 0
0.0412905 -0.043394 0
0.0439303 -0.0455212 0
0.0464964 -0.0477367 0
0.0489922 -0.0500312 0
0.051421 -0.0523964 0
0.0537863 -0.0548252 0
0.0560914 -0.0573112 0
0.0583395 -0.0598489 0
0.0605336 -0.0624334 0
0.0626765 -0.0650605 0
0.064771 -0.0677264 0
0.0668197 -0.0704277 0
0.0688248 -0.0731615 0
0.0707885 -0.0759252 0
0.072713 -0.0787163 0
0.0746002 -0.0815329 0
0.0764517 -0.0843729 0
0.0782695 -0.0872347 0
0.0829558 -0.0924852 0
0.0858567 -0.0948536 0
0.0887575 -0.0972221 0
0.0916584 -0.0995905 0
0.0945593 -0.101959 0
0.0974602 -0.104327 0
0.100361 -0.106696 0
0.103262 -0.109064 0
0.106163 -0.111433 0
0.109064 -0.113801 0
0.111965 -0.116169 0
0.114865 -0.118538 0
0.117766 -0.120906 0
0.120667 -0.123275 0
0.123568 -0.125643 0
0.126469 -0.128012 0
0.12937 -0.13038 0
0.132271 -0.132748 0
0.135172 -0.13118 0
0.135172 -0.127243 0
0.135172 -0.123306 0
0.135172 -0.119369 0
0.135172 -0.115432 0
0.135172 -0.111495 0
0.135172 -0.107558 0
0.135172 -0.103621 0
0.135172 -0.0996846 0
0.135172 -0.0957477 0
0.135172 -0.0918107 0
0.135172 -0.0878738 0
0.135172 -0.0839369 0
0.132271 -0.0776316 0
0.12937 -0.0752632 0
0.126469 -0.0728947 0
0.123568 -0.0705263 0
0.120667 -0.0681579 0
0.117766 -0.0657895 0
0.114865 -0.0634211 0
0.111965 -0.0610526 0
0.109064 -0.0586842 0
0.106163 -0.0563158 0
0.103262 -0.0539474 0
0.100361 -0.0515789 0
0.0974602 -0.0492105 0
0.0945593 -0.0468421 0
0.0916584 -0.0444737 0
0.0887575 -0.0421053 0
0.0858567 -0.0397368 0
0.0829558 -0.0373684 0
0.0782695 -0.0321179 0
0.0764517 -0.0292561 0
0.0746002 -0.026416 0
0.072713 -0.0235995 0
0.0707885 -0.0208084 0
0.0688248 -0.0180447 0
0.0668197 -0.0153109 0
0.064771 -0.0126096 0
0.0626765 -0.00994373 0
0.0605336 -0.00731663 0
0.0583395 -0.00473208 0
0.0560914 -0.00219437 0
0.0537863 0.000291632 0
0.051421 0.00272041 0
0.0489922 0.00508564 0
0.0464964 0.00738012 0
0.0439303 0.00959562 0
0.0412905 0.0117228 0
0.038574 0.0137509 0
0.035778 0.0156678 0
0.0329005 0.0174601 0
0.0299406 0.0191127 0
0.0268988 0.020609 0
0.0237776 0.0219317 0
0.0205821 0.0230627 0
0.0173201 0.0239842 0
0.0140027 0.0246801 0
0.010644 0.0251366 0
0.00726082 0.0253442 0
0.0038716 0.0252983 0
-0.00344171 0.0239286 0
-0.00737862 0.0228571 0
-0.0113155 0.0217857 0
-0.0152525 0.0207143 0
-0.0191894 0.0196429 0
-0.0231263 0.0185714 0
-0.0270632 0.0175 0
-0.0310001 0.0164286 0
-0.034937 0.0153571 0
-0.0388739 0.0142857 0
-0.0428108 0.0132143 0
-0.0467478 0.0121429 0
-0.0506847 0.0110714 0
-0.0546216 0.00606309 0
-0.0546216 0.00212617 0
-0.0546216 -0.00181074 0
-0.0546216 -0.00574766 0
-0.0546216 -0.00968457 0
-0.0546216 -0.0136215 0
-0.0546216 -0.0175584 0
-0.0546216 -0.0214953 0
-0.0546216 -0.0254322 0
-0.0546216 -0.0293691 0
-0.0546216 -0.0333061 0
-0.0546216 -0.037243 0
-0.0546216 -0.0411799 0
-0.0506847 -0.0440454 -0.00551168
-0.0467478 -0.0429739 -0.00551168
-0.0428108 -0.0419025 -0.00551168
-0.0388739 -0.0408311 -0.00551168
-0.034937 -0.0397597 -0.00551168
-0.0310001 -0.0386882 -0.00551168
-0.0270632 -0.0376168 -0.00551168
-0.0231263 -0.0365454 -0.00551168
-0.0191894 -0.0354739 -0.00551168
-0.0152525 -0.0344025 -0.00551168
-0.0113155 -0.0333311 -0.00551168
-0.00737862 -0.0322597 -0.00551168
-0.00344171 -0.0311882 -0.00551168
0.0038716 -0.0298185 -0.00551168
0.00726082 -0.0297726 -0.00551168
0.010644 -0.0299802 -0.00551168
0.0140027 -0.0304367 -0.00551168
0.0173201 -0.0311326 -0.00551168
0.0205821 -0.0320541 -0.00551168
0.0237776 -0.0331851 -0.00551168
0.0268988 -0.0345078 -0.00551168
0.0299406 -0.0360041 -0.00551168
0.0329005 -0.0376567 -0.00551168
0.035778 -0.039449 -0.00551168
0.038574 -0.0413659 -0.00551168
0.0412905 -0.043394 -0.00551168
0.0439303 -0.0455212 -0.00551168
0.0464964 -0.0477367 -0.00551168
0.0489922 -0.0500312 -0.00551168
0.051421 -0.0523964 -0.00551168
0.0537863 -0.0548252 -0.00551168
0.0560914 -0.0573112 -0.00551168
0.0583395 -0.0598489 -0.00551168
0.0605336 -0.0624334 -0.00551168
0.0626765 -0.0650605 -0.00551168
0.064771 -0.0677264 -0.00551168
0.0668197 -0.0704277 -0.00551168
0.0688248 -0.0731615 -0.00551168
0.0707885 -0.0759252 -0.00551168
0.072713 -0.0787163 -0.00551168
0.0746002 -0.0815329 -0.00551168
0.0764517 -0.0843729 -0.00551168
0.0782695 -0.0872347 -0.00551168
0.0829558 -0.0924852 -0.00551168
0.0858567 -0.0948536 -0.00551168
0.0887575 -0.0972221 -0.00551168
0.0916584 -0.0995905 -0.00551168
0.0945593 -0.101959 -0.00551168
0.0974602 -0.104327 -0.00551168
0.100361 -0.106696 -0.00551168
0.103262 -0.109064 -0.00551168
0.106163 -0.111433 -0.00551168
0.109064 -0.113801 -0.00551168
0.111965 -0.116169 -0.00551168
0.114865 -0.118538 -0.00551168
0.117766 -0.120906 -0.00551168
0.120667 -0.123275 -0.00551168
0.123568 -0.125643 -0.00551168
0.126469 -0.128012 -0.00551168
0.12937 -0.13038 -0.00551168
0.132271 -0.132748 -0.00551168
0.135172 -0.13118 -0.00551168
0.135172 -0.127243 -0.00551168
0.135172 -0.123306 -0.00551168
0.135172 -0.119369 -0.00551168
0.135172 -0.115432 -0.00551168
0.135172 -0.111495 -0.00551168
0.135172 -0.107558 -0.00551168
0.135172 -0.103621 -0.00551168
0.135172 -0.0996846 -0.00551168
0.135172 -0.0957477 -0.00551168
0.135172 -0.0918107 -0.00551168
0.135172 -0.0878738 -0.00551168
0.135172 -0.0839369 -0.00551168
0.132271 -0.0776316 -0.00551168
0.12937 -0.0752632 -0.00551168
0.126469 -0.0728947 -0.00551168
0.123568 -0.0705263 -0.00551168
0.120667 -0.0681579 -0.00551168
0.117766 -0.0657895 -0.00551168
0.114865 -0.0634211 -0.00551168
0.111965 -0.0610526 -0.00551168
0.109064 -0.0586842 -0.00551168
0.106163 -0.0563158 -0.00551168
0.103262 -0.0539474 -0.00551168
0.100361 -0.0515789 -0.00551168
0.0974602 -0.0492105 -0.00551168
0.0945593 -0.0468421 -0.00551168
0.0916584 -0.0444737 -0.00551168
0.0887575 -0.0421053 -0.00551168
0.0858567 -0.0397368 -0.00551168
0.0829558 -0.0373684 -0.00551168
0.0782695 -0.0321179 -0.00551168
0.0764517 -0.0292561 -0.00551168
0.0746002 -0.026416 -0.00551168
0.072713 -0.0235995 -0.00551168
0.0707885 -0.0208084 -0.00551168
0.0688248 -0.0180447 -0.00551168
0.0668197 -0.0153109 -0.00551168
0.064771 -0.0126096 -0.00551168
0.0626765 -0.00994373 -0.00551168
0.0605336 -0.00731663 -0.00551168
0.0583395 -0.00473208 -0.00551168
0.0560914 -0.00219437 -0.00551168
0.0537863 0.000291632 -0.00551168
0.051421 0.00272041 -0.00551168
0.0489922 0.00508564 -0.00551168
0.0464964 0.00738012 -0.00551168
0.0439303 0.00959562 -0.00551168
0.0412905 0.0117228 -0.00551168
[...]
CELL_DATA 2965
SCALARS rho float
LOOKUP_TABLE default
0.533217
0.320933
0.524664
0.327983
0.542506
0.356786
0.533211
0.331557
0.359997
0.525992
0.327924
0.340604
0.426984
0.535876
0.519142
0.516416
0.526414
0.514227
0.544909
0.528693
0.533226
0.333991
0.505931
0.533679
0.53608
0.546872
0.457439
0.478884
0.331593
0.504255
0.503634
0.337672
0.552979
0.529361
0.286291
0.35671
0.528437
0.534019
0.319139
0.506538
0.529559
0.502597
0.533584
0.326389
0.306495
0.532083
0.458709
0.468112
0.320842
0.533084
0.389379
0.33201
0.318038
0.426177
0.330697
0.421605
0.3449
0.318611
0.277446
0.476675
0.515952
0.474881
0.335275
0.544233
0.483001
0.533307
0.533161
0.317198
0.306648
0.344669
0.51694
0.54349
0.533154
0.276162
0.499544
0.410189
0.533236
0.332377
0.320219
0.467752
0.533172
0.336304
0.347095
0.43769
0.476294
0.376331
0.318822
0.285384
0.541577
0.343683
0.316388
0.532215
0.517573
0.514571
0.533344
0.319983
0.457532
0.276777
0.347578
0.322294
0.470977
0.322646
0.338968
0.305289
0.349962
0.527609
0.533192
0.337616
0.316893
0.533217
0.219844
0.392817
0.468922
0.490893
0.302976
0.293269
0.501794
0.45659
0.533154
0.326099
0.533171
0.236378
0.539558
0.541303
0.48894
0.400847
0.337233
0.459233
0.531201
0.265201
0.339882
0.428466
0.532177
0.344926
0.461031
0.354566
0.425138
0.515675
0.554776
0.542288
0.345429
0.515017
0.528091
0.332103
0.296366
0.545452
0.330398
0.541515
0.555248
0.354366
0.328147
0.324504
0.338923
0.333165
0.275861
0.280821
0.53323
0.531654
0.521383
0.536118
0.453606
0.463422
0.407301
0.542886
0.349391
0.533206
0.414134
0.329934
0.533112
0.534973
0.482085
0.312076
0.436107
0.519375
0.547504
0.415481
0.512573
0.357465
0.255041
0.417554
0.348836
0.259463
0.321218
0.30652
0.555203
0.533209
0.327336
0.330086
0.389345
0.327482
0.31986
0.32032
0.450752
0.299032
0.533125
0.464235
0.534413
0.483414
0.440512
0.320726
0.332115
0.299275
0.526748
0.439575
0.53317
0.296424
0.42945
0.533128
0.517186
0.534536
0.494018
0.401302
0.340907
0.353456
0.506104
0.350407
0.45902
0.325067
0.51641
0.326748
0.362026
0.341349
0.459027
0.383602
0.544524
0.261263
0.53315
0.522407
0.316118
0.477469
0.325769
0.268631
0.535153
0.317662
0.532781
0.535093
0.330442
0.530845
0.331178
0.352217
0.371983
0.326686
0.543461
0.522786
0.336571
0.230343
0.525767
0.533044
0.44803
0.505339
0.321509
0.333188
0.533238
0.334675
0.472872
0.278346
0.266525
0.533117
0.532603
0.315044
0.462217
0.326944
0.54279
0.35506
0.534935
0.533151
0.268358
0.473171
0.521327
0.305561
0.328292
0.533715
0.328872
0.550636
0.510215
0.327721
0.513131
0.513819
0.551802
0.530445
0.546194
0.462767
0.529317
0.532994
0.316313
0.325117
0.517843
0.538145
0.339561
0.531043
0.462569
0.277017
0.347006
0.319297
0.478419
0.323214
0.533232
0.480014
0.548277
0.326658
0.483734
0.483599
0.476812
0.532783
0.332002
0.235192
0.544869
0.533237
0.533242
0.328699
0.341327
0.481176
0.278388
0.305788
0.483397
0.533175
0.481843
0.216217
0.327478
0.482751
0.488797
0.322695
0.533361
0.533169
0.339133
0.414195
0.532444
0.514935
0.279377
0.32376
0.533182
0.343925
0.537971
0.365744
0.539422
0.394628
0.374684
0.330586
0.334143
0.301221
0.508683
0.547006
0.525514
0.543156
0.482499
0.474164
0.311347
0.533611
0.547371
0.329237
0.321243
0.533223
0.325246
0.515103
0.466026
0.321791
0.333697
0.341423
0.328101
0.53317
0.342031
0.341784
0.379898
0.323305
0.53284
0.533398
0.471222
0.533248
0.328423
0.529
0.328082
0.533184
0.325705
0.342734
0.535445
0.467585
0.270049
0.263174
0.532008
0.362686
0.499817
0.513973
0.324047
0.530384
0.289343
0.347594
0.533248
0.297265
0.535737
0.282381
0.379649
0.331472
0.536302
0.468973
0.434785
0.533074
0.309132
0.546508
0.345815
0.308088
0.549451
0.289239
0.539913
0.421108
0.488106
0.292984
0.295806
0.312775
0.287372
0.312041
0.351143
0.529245
0.53344
0.533771
0.533086
0.362122
0.538683
0.466485
0.517656
0.245471
0.532582
0.344388
0.480383
0.470572
0.287952
0.533124
0.358379
0.522213
0.314375
0.487225
0.534619
0.287259
0.531607
0.252491
0.537992
0.323666
0.319068
0.41642
0.544046
0.540634
0.395117
0.261464
0.246126
0.419451
0.543129
0.527344
0.532883
0.531164
0.536461
0.317781
0.513802
0.481759
0.305705
0.24132
0.302704
0.498479
0.535266
0.366472
0.382073
0.373036
0.35412
0.527223
0.533879
0.533109
0.549056
0.400826
0.533006
0.534779
0.328232
0.539634
0.350857
0.348212
0.528523
0.533852
0.537095
0.545512
0.329248
0.306146
0.553079
0.530578
0.32973
0.528914
0.50347
0.533726
0.358163
0.362464
0.535017
0.327614
0.452522
0.53402
0.535078
0.325512
0.532811
0.325074
0.325924
0.316858
0.353023
0.532774
0.36434
0.515611
0.296788
0.325456
0.525608
0.344279
0.298986
0.317123
0.275348
0.357803
0.304628
0.312148
0.426726
0.440522
0.324846
0.350918
0.536046
0.32809
0.395987
0.532561
0.532985
0.487963
0.485295
0.432843
0.44542
0.293321
0.372181
0.532719
0.497167
0.243987
0.506378
0.250472
0.296048
0.283777
0.533668
0.550969
0.300384
0.493674
0.530898
0.284914
0.295421
0.541391
0.533241
0.354043
0.54418
0.379374
0.342631
0.54176
0.298438
0.454631
0.527564
0.396493
0.542492
0.3191
0.373601
0.536744
0.376088
0.344566
0.358834
0.318831
0.321455
0.533065
0.539534
0.521804
0.318059
0.251746
0.346557
0.302269
0.529868
0.238229
0.420114
0.303658
0.530035
0.532789
0.313496
0.533111
0.392835
0.485459
0.313016
0.525894
0.53339
0.554634
0.534747
0.533201
0.524445
0.360273
0.421782
0.35505
0.528141
0.321047
0.272386
0.531528
0.533163
0.532728
0.323237
0.334185
0.53861
0.5411
0.313272
0.533438
0.287663
0.311531
0.325747
0.553599
0.537395
0.522677
0.303962
0.312482
0.360194
0.328644
0.536688
0.533156
0.54647
0.320231
0.316825
0.455796
0.547394
0.543951
0.508719
0.533214
0.411709
0.536241
0.54161
0.514718
0.324968
0.536465
0.494406
0.533192
0.535424
0.546177
0.480639
0.380343
0.54582
0.350269
0.544032
0.533186
0.219464
0.533171
0.464533
0.535162
0.30374
0.328886
0.533246
0.298788
0.313659
0.5485
0.300869
0.416554
0.537352
0.283297
0.54626
0.327455
0.49095
0.531897
0.527309
0.497616
0.321075
0.318887
0.52085
0.435582
0.328014
0.480499
0.32559
0.533081
0.330714
0.461518
0.516935
0.533117
0.331844
0.492607
0.348452
0.412415
0.416131
0.333249
0.281704
0.324293
0.533092
0.459668
0.434872
0.316519
0.533085
0.485852
0.317072
0.533076
0.330372
0.45611
0.518198
0.533134
0.536406
0.299811
0.34143
0.533212
0.544826
0.523295
0.485457
0.542832
0.480346
0.466402
0.320775
0.503701
0.389588
0.350629
0.358811
0.533243
0.549668
0.504831
0.394532
0.323116
0.540955
0.344615
0.350309
0.407615
0.32154
0.457697
0.33086
0.533203
0.324111
0.319817
0.416352
0.544532
0.326448
0.318654
0.549126
0.543288
0.551204
0.318114
0.317957
0.538498
0.326166
0.31981
0.341057
0.436693
0.522648
0.268204
0.550516
0.3312
0.507055
0.532798
0.318906
0.411487
0.479904
0.500119
0.489617
0.53958
0.537024
0.544583
0.534667
0.533175
0.365062
0.37968
0.520348
0.280844
0.543036
0.524902
0.269632
0.531252
0.470428
0.508113
0.539513
0.462086
0.531512
0.324261
0.488364
0.342948
0.296549
0.533981
0.533186
0.253998
0.339536
0.531018
0.39502
0.450325
0.271056
0.250784
0.549009
0.514961
0.543476
0.510471
0.45343
0.38196
0.452055
0.334233
0.533155
0.50304
0.492159
0.340955
0.382475
0.544149
0.497123
0.538544
0.157125
0.53315
0.326746
0.316994
0.32895
0.517821
0.519564
0.540561
0.471634
0.346697
0.533074
0.388015
0.546161
0.547273
0.489456
0.330336
0.311032
0.533458
0.341812
0.427817
0.471567
0.317263
0.367893
0.5165
0.542467
0.322977
0.533097
0.532079
0.32771
0.533091
0.534534
0.538381
0.358296
0.337251
0.54256
0.319101
0.334472
0.409937
0.533234
0.317646
0.377534
0.314101
0.304549
0.537853
0.327831
0.329955
0.542464
0.328106
0.32994
0.551946
0.538
0.534773
0.533199
0.487577
0.340721
0.551577
0.532479
0.314207
0.535412
0.532861
0.533183
0.533173
0.361092
0.533224
0.345256
0.533206
0.317829
0.533227
0.342588
0.518148
0.316512
0.540515
0.545414
0.550587
0.486086
0.533391
0.535517
0.306832
0.533216
0.263684
0.533121
0.537824
0.325099
0.406821
0.302525
0.329562
0.533167
0.365442
0.532529
0.126187
0.506007
0.507213
0.540114
0.398932
0.351969
0.246278
0.329042
0.275668
0.537361
0.368635
0.322571
0.534297
0.326837
0.364988
0.531467
0.532717
0.498983
0.535546
0.259751
0.487656
0.314404
0.533173
0.53361
0.525593
0.281276
0.540013
0.535865
0.541256
0.494843
0.532788
0.38474
0.533086
0.540812
0.439182
0.533205
0.313627
0.518721
0.350838
0.416025
0.518884
0.491012
0.529988
0.47531
0.487276
0.536372
0.319741
0.523681
0.327371
0.345538
0.541073
0.511911
0.475963
0.519955
0.531384
0.533172
0.53672
0.533142
0.533211
0.534015
0.552255
0.354426
0.499243
0.529884
0.328397
0.533968
0.316978
0.473418
0.306762
0.533186
0.330719
0.326946
0.304571
0.466707
0.534273
0.42998
0.515842
0.303753
0.346377
0.533053
0.533049
0.309983
0.498429
0.446623
0.304153
0.501341
0.335439
0.314596
0.53436
0.478578
0.322563
0.517678
0.531642
0.521746
0.325161
0.512006
0.241589
0.533107
0.385227
0.50986
0.315344
0.548493
0.31412
0.315382
0.322572
0.50958
0.298553
0.49443
0.546692
0.467955
0.351295
0.311955
0.541814
0.314035
0.233358
0.324676
0.534961
0.321795
0.315889
0.277854
0.499257
0.340388
0.336141
0.338816
0.532909
0.549419
0.342432
0.537563
0.537307
0.494436
0.337075
0.326016
0.53445
0.323088
0.555064
0.330766
0.529135
0.322885
0.156009
0.513057
0.325605
0.334598
0.32457
0.533107
0.303559
0.445078
0.537007
0.322583
0.516449
0.321391
0.549684
0.417327
0.323286
0.336988
0.534295
0.442604
0.533247
0.312875
0.343894
0.431931
0.533139
0.316695
0.297667
0.321088
0.415717
0.536805
0.346708
0.447746
0.530885
0.533285
0.523923
0.326787
0.535759
0.326601
0.533999
0.53389
0.457068
0.344547
0.483646
0.537894
0.322624
0.536035
0.537967
0.340619
0.332575
0.303827
0.256921
0.540744
0.324554
0.533097
0.387384
0.533167
0.495595
0.374805
0.510633
0.309643
0.477781
0.329132
0.533041
0.532305
0.232322
0.330782
0.341601
0.466135
0.552419
0.327182
0.308451
0.351951
0.453463
0.546572
0.254229
0.328552
0.524783
0.53693
0.527819
0.328573
0.338132
0.523656
0.533028
0.317092
0.336461
0.439118
0.54961
0.487485
0.312517
0.533225
0.534189
0.314064
0.537721
0.318032
0.539807
0.319999
0.355599
0.322369
0.276706
0.532919
0.335211
0.324938
0.334707
0.339369
0.478917
0.529935
0.549945
0.320393
0.533171
0.535257
0.534161
0.547275
0.532816
0.547703
0.549575
0.54832
0.53837
0.531872
0.285876
0.483959
0.549425
0.32453
0.540251
0.544638
0.53594
0.534447
0.317661
0.542111
0.533149
0.536315
0.342912
0.501505
0.529098
0.533125
0.529243
0.324354
0.485121
0.345149
0.416646
0.323188
0.323694
0.312883
0.327227
0.533287
0.534134
0.521533
0.318031
0.53379
0.53308
0.536818
0.327007
0.340486
0.517256
0.310499
0.318347
0.302669
0.536385
0.42219
0.533695
0.300418
0.545916
0.532855
0.453532
0.539385
0.333279
0.549886
0.534653
0.51215
0.53896
0.53385
0.519119
0.323979
0.359484
0.341988
0.533073
0.309939
0.534506
0.519036
0.488129
0.33468
0.357996
0.483502
0.540221
0.533177
0.333184
0.524239
0.478122
0.256852
0.533146
0.330657
0.330227
0.310881
0.325653
0.307016
0.539224
0.535704
0.552264
0.441402
0.532591
0.53294
0.515232
0.533202
0.54648
0.548502
0.532954
0.533095
0.328528
0.533243
0.526845
0.426112
0.321841
0.50286
0.296608
0.536785
0.367943
0.539142
0.545559
0.333914
0.536837
0.333851
0.533818
0.529791
0.547261
0.488924
0.516272
0.545309
0.532912
0.345368
0.445941
0.422546
0.246104
0.533251
0.537422
0.437239
0.551069
0.525532
0.533208
0.296299
0.326358
0.527192
0.546202
0.328917
0.209157
0.511982
0.533798
0.533923
0.272042
0.451913
0.511929
0.531797
0.323587
0.533078
0.484862
0.525222
0.50595
0.439303
0.532911
0.294118
0.530936
0.320582
0.304735
0.533241
0.350724
0.351333
0.323651
0.525038
0.506184
0.43959
0.533216
0.431991
0.379485
0.321104
0.542082
0.531577
0.539806
0.490207
0.251585
0.521729
0.434467
0.319876
0.531201
0.537305
0.329942
0.535659
0.528841
0.533201
0.448667
0.532879
0.361835
0.533329
0.52949
0.532899
0.329326
0.52508
0.3833
0.508889
0.53307
0.544362
0.529729
0.533487
0.53375
0.531829
0.516655
0.316997
0.541189
0.51119
0.349429
0.494561
0.535823
0.551139
0.494749
0.321093
0.53127
0.339672
0.545474
0.4903
0.536703
0.333524
0.512754
0.533585
0.533182
0.525117
0.474778
0.533102
0.465622
0.388237
0.322943
0.284452
0.533209
0.335928
0.288626
0.537042
0.33097
0.543564
0.329628
0.534723
0.331155
0.330668
0.520933
0.395534
0.298725
0.526725
0.532438
0.537341
0.329277
0.50316
0.532714
0.530399
0.324321
0.533171
0.533376
0.324915
0.479653
0.46177
0.523901
0.368986
0.392555
0.510358
0.31473
0.538619
0.342684
0.334893
0.53313
0.387824
0.504721
0.330596
0.538848
0.423243
0.53316
0.194936
0.333541
0.533162
0.359135
0.533117
0.345328
0.533613
0.476598
0.467986
0.533113
0.501135
0.243029
0.534184
0.548903
0.530618
0.533188
0.303333
0.339221
0.331147
0.335624
0.533095
0.344971
0.51314
0.322453
0.532204
0.534315
0.533018
0.324832
0.533647
0.326981
0.534258
0.54033
0.36889
0.532909
0.516858
0.323189
0.51859
0.309148
0.35155
0.549687
0.335813
0.54299
0.225355
0.341564
0.51102
0.380877
0.538677
0.324535
0.461817
0.532344
0.529001
0.385731
0.252354
0.324661
0.533145
0.533155
0.340226
0.53514
0.318249
0.531303
0.322918
0.32974
0.46458
0.473874
0.420345
0.491336
0.533212
0.49392
0.473196
0.535676
0.533145
0.337131
0.53479
0.379985
0.352611
0.492886
0.409147
0.39574
0.442926
0.331219
0.511799
0.533088
0.535523
0.32316
0.333164
0.4439
0.506453
0.533417
0.545965
0.326936
0.498401
0.531952
0.502527
0.442205
0.32422
0.318873
0.334579
0.555486
0.53685
0.302752
0.312461
0.437119
0.325164
0.549555
0.51321
0.329289
0.53307
0.406367
0.540169
0.534999
0.32911
0.374228
0.504442
0.331425
0.395639
0.532188
0.276977
0.330249
0.327059
0.50773
0.536084
0.506255
0.342178
0.323732
0.529265
0.534061
0.491614
0.538511
0.326943
0.33633
0.340348
0.497823
0.299383
0.334392
0.53759
0.541381
0.513111
0.31945
0.341646
0.341291
0.533102
0.306376
0.53291
0.533214
0.528754
0.430457
0.531735
0.549473
0.331857
0.32526
0.535182
0.325902
0.46722
0.524789
0.541656
0.436049
0.309052
0.291068
0.54104
0.405523
0.30465
0.533993
0.533043
0.298405
0.324074
0.512293
0.444337
0.329042
0.340907
0.540107
0.489814
0.525732
0.46551
0.349324
0.288036
0.361563
0.384314
0.308976
0.533189
0.527257
0.469107
0.508667
0.339822
0.50153
0.359105
0.532542
0.545594
0.34369
0.267014
0.529357
0.388857
0.471952
0.533983
0.314425
0.52963
0.528307
0.53296
0.533133
0.498091
0.375575
0.309808
0.318483
0.510393
0.533049
0.510524
0.444074
0.327706
0.30643
0.493419
0.329013
0.538046
0.532988
0.531764
0.339853
0.320979
0.46379
0.503927
0.533169
0.523882
0.533279
0.53318
0.535143
0.47373
0.254302
0.533099
0.49403
0.534513
0.329949
0.529224
0.424674
0.52613
0.552685
0.446157
0.491737
0.530973
0.508591
0.533174
0.325638
0.529981
0.551017
0.363135
0.500671
0.310307
0.304757
0.533196
0.533133
0.343905
0.483446
0.532951
0.350411
0.347503
0.550692
0.550506
0.47103
0.365438
0.496325
0.324702
0.542656
0.549244
0.324602
0.453158
0.498619
0.322134
0.325767
0.359229
0.53577
0.525444
0.325517
0.380287
0.342878
0.352084
0.347233
0.495895
0.323611
0.551718
0.534606
0.541048
0.333527
0.532061
0.439852
0.53165
0.446259
0.528051
0.328547
0.298438
0.329545
0.533363
0.335984
0.325476
0.49227
0.338304
0.533124
0.506685
0.426718
0.318134
0.318357
0.519944
0.535339
0.52622
0.521475
0.542586
0.328298
0.368446
0.313876
0.509092
0.533919
0.324275
0.510825
0.291887
0.34541
0.533182
0.333876
0.340683
0.242491
0.374793
0.334154
0.533418
0.530267
0.536663
0.335286
0.532911
0.541989
0.324236
0.533456
0.376906
0.539436
0.364526
0.391379
0.532679
0.32522
0.249402
0.528101
0.523173
0.322853
0.546086
0.497246
0.532487
0.400657
0.327662
0.501488
0.533585
0.364545
0.379649
0.420634
0.39596
0.533142
0.339223
0.323778
0.541092
0.500398
0.353903
0.329502
0.53178
0.32453
0.298073
0.333435
0.454629
0.544468
0.332131
0.539485
0.325353
0.312008
0.349523
0.405567
0.349622
0.538357
0.33313
0.336697
0.481501
0.538554
0.358314
0.533143
0.32796
0.318434
0.50811
0.552457
0.523078
0.513484
0.515625
0.545959
0.326754
0.53906
0.29309
0.533181
0.525902
0.411356
0.52538
0.533228
0.533306
0.532952
0.436837
0.342801
0.42906
0.337092
0.497427
0.531943
0.497983
0.316199
0.534793
0.369087
0.533169
0.323863
0.304581
0.556866
0.303118
0.527519
0.55278
0.372248
0.337266
0.329673
0.532833
0.394835
0.248251
0.539907
0.322895
0.525021
0.345358
0.349299
0.321821
0.534786
0.391042
0.533213
0.325309
0.354114
0.533807
0.532065
0.281998
0.359278
0.271922
0.481755
0.330256
0.520049
0.530366
0.533233
0.236451
0.332644
0.450951
0.530065
0.548472
0.531836
0.30793
0.510988
0.537286
0.533235
0.53316
0.330318
0.519166
0.321447
0.442353
0.541073
0.537112
0.528586
0.545223
0.489395
0.53146
0.543732
0.532836
0.52108
0.535409
0.532899
0.534839
0.326288
0.324814
0.533338
0.475566
0.533206
0.533136
0.548517
0.520123
0.545003
0.344565
0.324551
0.533136
0.326702
0.32273
0.342052
0.533348
0.52248
0.533066
0.505697
0.520294
0.323191
0.537725
0.325595
0.324498
0.545603
0.52368
0.523816
0.400643
0.39583
0.337251
0.324367
0.389283
0.310103
0.362551
0.543721
0.30746
0.531014
0.332914
0.539351
0.531837
0.282489
0.335146
0.492423
0.533155
0.330687
0.508211
0.26817
0.318136
0.327822
0.450593
0.534664
0.533184
0.533226
0.221526
0.361606
0.283726
0.346764
0.533178
0.547149
0.538119
0.350406
0.325812
0.533109
0.532157
0.536297
0.317205
0.479322
0.46557
0.543124
0.431602
0.3513
0.341151
0.344968
0.534971
0.330297
0.327896
0.533193
0.316421
0.533282
0.343874
0.369313
0.400699
0.336382
0.545395
0.533151
0.533296
0.443702
0.555114
0.510342
0.468917
0.330302
0.507671
0.530506
0.50932
0.535641
0.531541
0.539711
0.42511
0.531835
0.534499
0.381909
0.33342
0.549093
0.40264
0.532299
0.343364
0.546365
0.380463
0.525981
0.533505
0.507523
0.532344
0.53884
0.514571
0.314448
0.341338
0.536816
0.547002
0.532498
0.435439
0.543993
0.448826
0.494701
0.53302
0.472314
0.459942
0.540081
0.533225
0.34216
0.324874
0.533555
0.500615
0.328668
0.353501
0.425247
0.53315
0.533156
0.550682
0.343828
0.523855
0.312709
0.53574
0.325226
0.544627
0.280708
0.549457
0.350226
0.531276
0.446051
0.324784
0.29268
0.471776
0.334184
0.478105
0.325286
0.533255
0.533172
0.529998
0.522191
0.533528
0.534967
0.533132
0.549799
0.540462
0.499297
0.515064
0.491235
0.538205
0.334164
0.500774
0.498168
0.531277
0.316507
0.496117
0.545178
0.533179
0.344849
0.318976
0.349569
0.544029
0.494086
0.32033
0.498289
0.391413
0.533111
0.31272
0.413265
0.336802
0.303579
0.553011
0.31872
0.507394
0.327045
0.551263
0.356718
0.533234
0.502567
0.528975
0.357224
0.343324
0.351149
0.514476
0.322045
0.341737
0.336257
0.539998
0.514971
0.544796
0.521437
0.531064
0.508479
0.375993
0.34325
0.529363
0.324273
0.451262
0.526541
0.550313
0.20293
0.293429
0.519936
0.533163
0.409477
0.52485
0.534582
0.518354
0.340567
0.542785
0.519067
0.529828
0.531738
0.322542
0.533166
0.327287
0.531369
0.541679
0.503854
0.532358
0.356029
0.536825
0.218916
0.355751
0.494893
0.506937
0.527693
0.451837
0.331881
0.530835
0.535842
0.320395
0.33086
0.303289
0.549127
0.339943
0.287969
0.333783
0.338996
0.318723
0.370934
0.542617
0.309294
0.538814
0.521843
0.325645
0.534899
0.309483
0.548307
0.307401
0.455475
0.316095
0.524181
0.533773
0.399491
0.495559
0.533106
0.521143
0.316436
0.476541
0.43217
0.320852
0.319837
0.405236
0.283478
0.544072
0.273488
0.305118
0.33135
0.533185
0.527875
0.324047
0.332799
0.544973
0.327798
0.336595
0.5331
0.324118
0.311357
0.359266
0.552318
0.502527
0.544621
0.338363
0.290824
0.538368
0.518252
0.533173
0.397169
0.504712
0.527928
0.416953
0.404154
0.332225
0.314174
0.238994
0.49373
0.252262
0.546914
0.512083
0.532935
0.34267
0.413008
0.420714
0.558256
0.311186
0.483194
0.238106
0.490864
0.322751
0.281981
0.295269
0.537513
0.327844
0.551418
0.347163
0.382796
0.324498
0.469133
0.324763
0.543299
0.323704
0.500768
0.486103
0.33149
0.533584
0.533694
0.29034
0.548055
0.359115
0.33074
0.542431
0.313897
0.515561
0.384039
0.219005
0.532761
0.314935
0.357551
0.343755
0.364008
0.322149
0.513574
0.438443
0.522573
0.54684
0.529121
0.54298
0.411278
0.537219
0.308451
0.533905
0.328177
0.525208
0.329937
0.393184
0.521634
0.548679
0.534837
0.357312
0.433384
0.335155
0.362053
0.36008
0.221959
0.536747
0.409345
0.54687
0.532783
0.484768
0.538616
0.534192
0.397665
0.322549
0.361641
0.541103
0.487403
0.501854
0.533453
0.551328