# vtk DataFile Version 1.0
unstructured grid
ascii
DATASET UNSTRUCTURED_GRID
points 3226 float
0.0796578 -0.059106 0
0.00128732 0.00159165 0
0.00227961 -0.00102548 0
0.0791586 -0.0598787 0
-0.0546216 0.01 0
0.000495206 0.025 0
0.0800549 -0.035 0
0.135172 -0.08 0
-0.0546216 -0.0451168 0
0.000495206 -0.0301168 0
0.0800549 -0.0901168 0
0.135172 -0.135117 0
-0.0546216 -0.0451168 -0.00551168
0.000495206 -0.0301168 -0.00551168
0.0800549 -0.0901168 -0.00551168
0.135172 -0.135117 -0.00551168
0.135172 -0.08 -0.00551168
0.0800549 -0.035 -0.00551168
0.000495206 0.025 -0.00551168
-0.0546216 0.01 -0.00551168
0.00128732 0.00159165 -0.00551168
0.00227961 -0.00102548 -0.00551168
0.0791586 -0.0598787 -0.00551168
0.0796578 -0.059106 -0.00551168
0.00110182 -0.000823821 0
0.000571683 -0.000188043 0
0.000561313 0.000639162 0
0.00189316 0.00207203 0
0.00260228 0.00255358 0
0.0033966 0.00307293 0
0.00428861 0.00362634 0
0.00529726 0.0041979 0
0.00644092 0.00476696 0
0.00773158 0.0053187 0
0.00918011 0.00583593 0
0.010799 0.00628751 0
0.012597 0.00663225 0
0.0145725 0.0068517 0
0.0167206 0.0069338 0
0.0190349 0.00685819 0
0.0215031 0.00658621 0
0.0241038 0.00607459 0
0.026821 0.00533786 0
0.0296245 0.00434523 0
0.0324763 0.00306927 0
0.0353199 0.00146906 0
0.0381488 -0.00039338 0
0.0409131 -0.00252802 0
0.0435632 -0.00493276 0
0.0460882 -0.0075571 0
0.0484881 -0.0103478 0
0.0506782 -0.0133217 0
0.0526651 -0.016422 0
0.0546139 -0.0195019 0
0.0565301 -0.022529 0
0.0584009 -0.0254846 0
0.0602154 -0.0283513 0
0.061964 -0.031114 0
0.0636389 -0.0337601 0
0.0652336 -0.0362795 0
0.0667431 -0.0386651 0
0.0681656 -0.0409111 0
0.0694983 -0.0430158 0
0.0707356 -0.0449823 0
0.071886 -0.0468071 0
0.0729575 -0.04849 0
0.0739438 -0.0500408 0
0.0748444 -0.0514675 0
0.0756707 -0.0527715 0
0.0764313 -0.053958 0
0.0771224 -0.0550398 0
0.0777384 -0.0560288 0
0.0782803 -0.0569318 0
0.0787691 -0.0577448 0
0.0792251 -0.0584672 0
0.0800494 -0.0597378 0
0.0797987 -0.0601582 0
0.0786655 -0.059391 0
0.0781259 -0.0588425 0
0.0775539 -0.0582102 0
0.0769587 -0.0574783 0
0.0763492 -0.0566339 0
0.075723 -0.0556725 0
0.0750452 -0.0546094 0
0.0742996 -0.0534457 0
0.073478 -0.0521785 0
0.072577 -0.0508019 0
0.0715904 -0.049313 0
0.0705098 -0.047712 0
0.069328 -0.0459996 0
0.0680378 -0.0441794 0
0.066632 -0.0422571 0
0.0651046 -0.0402413 0
0.0634508 -0.0381431 0
0.0616683 -0.0359754 0
0.0597581 -0.033753 0
0.0577255 -0.0314906 0
0.0555808 -0.0292024 0
0.0533388 -0.0269013 0
0.0510024 -0.0246151 0
0.0485693 -0.0223811 0
0.0460535 -0.0202228 0
0.0434788 -0.0181535 0
0.0408704 -0.0161833 0
0.0382442 -0.0143327 0
0.0356165 -0.0126209 0
0.0330065 -0.0110594 0
0.0304368 -0.00965062 0
0.0279338 -0.00838121 0
0.0255194 -0.00723697 0
0.0231965 -0.00623664 0
0.020983 -0.00535765 0
0.0188891 -0.00458677 0
0.0169193 -0.00391673 0
0.0150754 -0.00334068 0
0.0133572 -0.00285262 0
0.0117634 -0.0024437 0
0.0102912 -0.00210643 0
0.0089363 -0.00183343 0
0.00769424 -0.00161552 0
0.00655956 -0.00144452 0
0.00552632 -0.00131235 0
0.00458815 -0.00121216 0
0.00373885 -0.00113394 0
0.00297202 -0.00106855 0
-0.0506847 -0.0440454 0
-0.0467478 -0.0429739 0
-0.0428108 -0.0419025 0
-0.0388739 -0.0408311 0
-0.034937 -0.0397597 0
-0.0310001 -0.0386882 0
-0.0270632 -0.0376168 0
-0.0231263 -0.0365454 0
-0.0191894 -0.0354739 0
-0.0152525 -0.0344025 0
-0.0113155 -0.0333311 0
-0.00737862 -0.0322597 0
-0.00344171 -0.0311882 0
0.0038716 -0.0298185 0
0.00726082 -0.0297726 0
0.010644 -0.0299802 0
0.0140027 -0.0304367 0
0.0173201 -0.0311326 0
0.0205821 -0.0320541 0
0.0237776 -0.0331851 0
0.0268988 -0.0345078 0
0.0299406 -0.0360041 0
0.0329005 -0.0376567 0
0.035778 -0.039449 0
0.038574 -0.0413659 0
0.0412905 -0.043394 0
0.0439303 -0.0455212 0
0.0464964 -0.0477367 0
0.0489922 -0.0500312 0
0.051421 -0.0523964 0
0.0537863 -0.0548252 0
0.0560914 -0.0573112 0
0.0583395 -0.0598489 0
0.0605336 -0.0624334 0
0.0626765 -0.0650605 0
0.064771 -0.0677264 0
0.0668197 -0.0704277 0
0.0688248 -0.0731615 0
0.0707885 -0.0759252 0
0.072713 -0.0787163 0
0.0746002 -0.0815329 0
0.0764517 -0.0843729 0
0.0782695 -0.0872347 0
0.0829558 -0.0924852 0
0.0858567 -0.0948536 0
0.0887575 -0.0972221 0
0.0916584 -0.0995905 0
0.0945593 -0.101959 0
0.0974602 -0.104327 0
0.100361 -0.106696 0
0.103262 -0.109064 0
0.106163 -0.111433 0
0.109064 -0.113801 0
0.111965 -0.116169 0
0.114865 -0.118538 0
0.117766 -0.120906 0
0.120667 -0.123275 0
0.123568 -0.125643 0
0.126469 -0.128012 0
0.12937 -0.13038 0
0.132271 -0.132748 0
0.135172 -0.13118 0
0.135172 -0.127243 0
0.135172 -0.123306 0
0.135172 -0.119369 0
0.135172 -0.115432 0
0.135172 -0.111495 0
0.135172 -0.107558 0
0.135172 -0.103621 0
0.135172 -0.0996846 0
0.135172 -0.0957477 0
0.135172 -0.0918107 0
0.135172 -0.0878738 0
0.135172 -0.0839369 0
0.132271 -0.0776316 0
0.12937 -0.0752632 0
0.126469 -0.0728947 0
0.123568 -0.0705263 0
0.120667 -0.0681579 0
0.117766 -0.0657895 0
0.114865 -0.0634211 0
0.111965 -0.0610526 0
0.109064 -0.0586842 0
0.106163 -0.0563158 0
0.103262 -0.0539474 0
0.100361 -0.0515789 0
0.0974602 -0.0492105 0
0.0945593 -0.0468421 0
0.0916584 -0.0444737 0
0.0887575 -0.0421053 0
0.0858567 -0.0397368 0
0.0829558 -0.0373684 0
0.0782695 -0.0321179 0
0.0764517 -0.0292561 0
0.0746002 -0.026416 0
0.072713 -0.0235995 0
0.0707885 -0.0208084 0
0.0688248 -0.0180447 0
0.0668197 -0.0153109 0
0.064771 -0.0126096 0
0.0626765 -0.00994373 0
0.0605336 -0.00731663 0
0.0583395 -0.00473208 0
0.0560914 -0.00219437 0
0.0537863 0.000291632 0
0.051421 0.00272041 0
0.0489922 0.00508564 0
0.0464964 0.00738012 0
0.0439303 0.00959562 0
0.0412905 0.0117228 0
0.038574 0.0137509 0
0.035778 0.0156678 0
0.0329005 0.0174601 0
0.0299406 0.0191127 0
0.0268988 0.020609 0
0.0237776 0.0219317 0
0.0205821 0.0230627 0
0.0173201 0.0239842 0
0.0140027 0.0246801 0
0.010644 0.0251366 0
0.00726082 0.0253442 0
0.0038716 0.0252983 0
-0.00344171 0.0239286 0
-0.00737862 0.0228571 0
-0.0113155 0.0217857 0
-0.0152525 0.0207143 0
-0.0191894 0.0196429 0
-0.0231263 0.0185714 0
-0.0270632 0.0175 0
-0.0310001 0.0164286 0
-0.034937 0.0153571 0
-0.0388739 0.0142857 0
-0.0428108 0.0132143 0
-0.0467478 0.0121429 0
-0.0506847 0.0110714 0
-0.0546216 0.00606309 0
-0.0546216 0.00212617 0
-0.0546216 -0.00181074 0
-0.0546216 -0.00574766 0
-0.0546216 -0.00968457 0
-0.0546216 -0.0136215 0
-0.0546216 -0.0175584 0
-0.0546216 -0.0214953 0
-0.0546216 -0.0254322 0
-0.0546216 -0.0293691 0
-0.0546216 -0.0333061 0
-0.0546216 -0.037243 0
-0.0546216 -0.0411799 0
-0.0506847 -0.0440454 -0.00551168
-0.0467478 -0.0429739 -0.00551168
-0.0428108 -0.0419025 -0.00551168
-0.0388739 -0.0408311 -0.00551168
-0.034937 -0.0397597 -0.00551168
-0.0310001 -0.0386882 -0.00551168
-0.0270632 -0.0376168 -0.00551168
-0.0231263 -0.0365454 -0.00551168
-0.0191894 -0.0354739 -0.00551168
-0.0152525 -0.0344025 -0.00551168
-0.0113155 -0.0333311 -0.00551168
-0.00737862 -0.0322597 -0.00551168
-0.00344171 -0.0311882 -0.00551168
0.0038716 -0.0298185 -0.00551168
0.00726082 -0.0297726 -0.00551168
0.010644 -0.0299802 -0.00551168
0.0140027 -0.0304367 -0.00551168
0.0173201 -0.0311326 -0.00551168
0.0205821 -0.0320541 -0.00551168
0.0237776 -0.0331851 -0.00551168
0.0268988 -0.0345078 -0.00551168
0.0299406 -0.0360041 -0.00551168
0.0329005 -0.0376567 -0.00551168
0.035778 -0.039449 -0.00551168
0.038574 -0.0413659 -0.00551168
0.0412905 -0.043394 -0.00551168
0.0439303 -0.0455212 -0.00551168
0.0464964 -0.0477367 -0.00551168
0.0489922 -0.0500312 -0.00551168
0.051421 -0.0523964 -0.00551168
0.0537863 -0.0548252 -0.00551168
0.0560914 -0.0573112 -0.00551168
0.0583395 -0.0598489 -0.00551168
0.0605336 -0.0624334 -0.00551168
0.0626765 -0.0650605 -0.00551168
0.064771 -0.0677264 -0.00551168
0.0668197 -0.0704277 -0.00551168
0.0688248 -0.0731615 -0.00551168
0.0707885 -0.0759252 -0.00551168
0.072713 -0.0787163 -0.00551168
0.0746002 -0.0815329 -0.00551168
0.0764517 -0.0843729 -0.00551168
0.0782695 -0.0872347 -0.00551168
0.0829558 -0.0924852 -0.00551168
0.0858567 -0.0948536 -0.00551168
0.0887575 -0.0972221 -0.00551168
0.0916584 -0.0995905 -0.00551168
0.0945593 -0.101959 -0.00551168
0.0974602 -0.104327 -0.00551168
0.100361 -0.106696 -0.00551168
0.103262 -0.109064 -0.00551168
0.106163 -0.111433 -0.00551168
0.109064 -0.113801 -0.00551168
0.111965 -0.116169 -0.00551168
0.114865 -0.118538 -0.00551168
0.117766 -0.120906 -0.00551168
0.120667 -0.123275 -0.00551168
0.123568 -0.125643 -0.00551168
0.126469 -0.128012 -0.00551168
0.12937 -0.13038 -0.00551168
0.132271 -0.132748 -0.00551168
0.135172 -0.13118 -0.00551168
0.135172 -0.127243 -0.00551168
0.135172 -0.123306 -0.00551168
0.135172 -0.119369 -0.00551168
0.135172 -0.115432 -0.00551168
0.135172 -0.111495 -0.00551168
0.135172 -0.107558 -0.00551168
0.135172 -0.103621 -0.00551168
0.135172 -0.0996846 -0.00551168
0.135172 -0.0957477 -0.00551168
0.135172 -0.0918107 -0.00551168
0.135172 -0.0878738 -0.00551168
0.135172 -0.0839369 -0.00551168
0.132271 -0.0776316 -0.00551168
0.12937 -0.0752632 -0.00551168
0.126469 -0.0728947 -0.00551168
0.123568 -0.0705263 -0.00551168
0.120667 -0.0681579 -0.00551168
0.117766 -0.0657895 -0.00551168
0.114865 -0.0634211 -0.00551168
0.111965 -0.0610526 -0.00551168
0.109064 -0.0586842 -0.00551168
0.106163 -0.0563158 -0.00551168
0.103262 -0.0539474 -0.00551168
0.100361 -0.0515789 -0.00551168
0.0974602 -0.0492105 -0.00551168
0.0945593 -0.0468421 -0.00551168
0.0916584 -0.0444737 -0.00551168
0.0887575 -0.0421053 -0.00551168
0.0858567 -0.0397368 -0.00551168
0.0829558 -0.0373684 -0.00551168
0.0782695 -0.0321179 -0.00551168
0.0764517 -0.0292561 -0.00551168
0.0746002 -0.026416 -0.00551168
0.072713 -0.0235995 -0.00551168
0.0707885 -0.0208084 -0.00551168
0.0688248 -0.0180447 -0.00551168
0.0668197 -0.0153109 -0.00551168
0.064771 -0.0126096 -0.00551168
0.0626765 -0.00994373 -0.00551168
0.0605336 -0.00731663 -0.00551168
0.0583395 -0.00473208 -0.00551168
0.0560914 -0.00219437 -0.00551168
0.0537863 0.000291632 -0.00551168
0.051421 0.00272041 -0.00551168
0.0489922 0.00508564 -0.00551168
0.0464964 0.00738012 -0.00551168
0.0439303 0.00959562 -0.00551168
0.0412905 0.0117228 -0.00551168
[...]
CELL_DATA 2965
SCALARS rho float
LOOKUP_TABLE default
0.53248
0.39515
0.563151
0.336862
0.583518
0.361445
0.548933
0.391658
0.341191
0.564427
0.337196
0.332346
0.450168
0.611333
0.558408
0.565397
0.574811
0.582799
0.587695
0.576176
0.531368
0.354358
0.578716
0.602629
0.57347
0.600105
0.48255
0.537556
0.333942
0.540295
0.540314
0.390362
0.587974
0.566572
0.283225
0.373535
0.572522
0.571335
0.34051
0.54264
0.571553
0.539964
0.584445
0.383091
0.398729
0.611969
0.489795
0.533086
0.307074
0.54182
0.398633
0.351992
0.397157
0.446344
0.33567
0.43909
0.344312
0.350961
0.277936
0.513503
0.555193
0.53904
0.349337
0.583771
0.552381
0.601815
0.549431
0.361685
0.32411
0.344816
0.584962
0.593454
0.549178
0.302792
0.535286
0.42935
0.538418
0.35425
0.358671
0.497215
0.552079
0.350845
0.385426
0.462166
0.547774
0.383251
0.385561
0.264641
0.591555
0.335942
0.341602
0.600441
0.579656
0.552632
0.578819
0.328975
0.493995
0.395268
0.337849
0.366763
0.508067
0.363116
0.345424
0.407743
0.346306
0.599533
0.539365
0.391869
0.353025
0.542663
0.316609
0.410424
0.498876
0.553604
0.317939
0.32133
0.581368
0.486232
0.537376
0.326852
0.553562
0.231041
0.603428
0.584641
0.562158
0.413691
0.325089
0.510249
0.567822
0.263872
0.330497
0.448401
0.570264
0.33564
0.486935
0.384707
0.450326
0.576423
0.58758
0.584401
0.333909
0.566382
0.569785
0.340826
0.276303
0.587068
0.347767
0.582076
0.588004
0.37442
0.327087
0.330993
0.339441
0.349707
0.277231
0.256889
0.546006
0.568263
0.597146
0.6021
0.480627
0.492272
0.423642
0.579082
0.357953
0.54935
0.433638
0.385812
0.542821
0.61206
0.514509
0.298408
0.458548
0.565134
0.584789
0.439065
0.550099
0.368671
0.252803
0.434534
0.382085
0.25735
0.325115
0.30114
0.587055
0.548435
0.330677
0.321608
0.398648
0.346533
0.338971
0.342563
0.487922
0.292242
0.547287
0.492983
0.572373
0.543561
0.464251
0.361688
0.389358
0.348354
0.598481
0.476084
0.551507
0.403863
0.450754
0.54704
0.587189
0.592038
0.554929
0.416302
0.320087
0.385429
0.551241
0.396309
0.493385
0.35061
0.562607
0.346407
0.341088
0.349878
0.486968
0.391884
0.600555
0.389461
0.553637
0.560858
0.337894
0.509094
0.356731
0.297997
0.611476
0.326733
0.576394
0.612005
0.345921
0.567541
0.351924
0.360665
0.38388
0.318841
0.584071
0.560807
0.319166
0.324975
0.568386
0.529973
0.476608
0.548419
0.374712
0.335047
0.545791
0.330889
0.557227
0.276955
0.281282
0.538916
0.557978
0.345165
0.516126
0.339263
0.594797
0.369126
0.571015
0.538744
0.269544
0.503511
0.560227
0.391657
0.335106
0.601526
0.342303
0.59072
0.556172
0.343531
0.5796
0.558971
0.597633
0.609253
0.582678
0.538975
0.590613
0.527544
0.334057
0.3937
0.594992
0.605028
0.346265
0.599618
0.490367
0.39109
0.380971
0.387247
0.510057
0.390359
0.536539
0.511984
0.598909
0.321343
0.516452
0.537102
0.508301
0.533949
0.33317
0.234119
0.590665
0.543426
0.537728
0.350473
0.338185
0.513369
0.293542
0.293035
0.571284
0.553436
0.547243
0.286003
0.339871
0.520569
0.566645
0.375046
0.528784
0.551292
0.332606
0.446361
0.580568
0.55317
0.304468
0.317243
0.534319
0.337912
0.581845
0.373142
0.603027
0.407706
0.387002
0.396289
0.321324
0.316439
0.579874
0.598005
0.590536
0.579494
0.539033
0.503649
0.322756
0.599862
0.584302
0.349586
0.34017
0.532028
0.347004
0.578816
0.543703
0.34127
0.348513
0.384588
0.348983
0.552274
0.345842
0.350349
0.386759
0.37172
0.614992
0.567301
0.500071
0.541452
0.319449
0.599795
0.319868
0.532959
0.337478
0.393649
0.600976
0.499755
0.291238
0.248538
0.609721
0.371779
0.536128
0.561934
0.332985
0.606034
0.27273
0.386959
0.522411
0.29384
0.609242
0.266061
0.386692
0.388227
0.602118
0.499082
0.458123
0.520443
0.294462
0.583365
0.355282
0.337105
0.586408
0.321293
0.576164
0.438022
0.525561
0.274184
0.309122
0.337097
0.270017
0.335443
0.369534
0.56617
0.606068
0.576094
0.542572
0.390697
0.579439
0.495266
0.588837
0.263815
0.559753
0.337178
0.543237
0.539484
0.344423
0.547264
0.36947
0.561317
0.319971
0.523259
0.582305
0.321638
0.601089
0.252987
0.592104
0.388399
0.353685
0.431777
0.581306
0.592917
0.421227
0.279156
0.243962
0.438415
0.580372
0.589797
0.615686
0.602559
0.609064
0.344756
0.552185
0.532605
0.35273
0.304659
0.396417
0.533895
0.61364
0.370847
0.394585
0.381065
0.358307
0.600418
0.608178
0.543767
0.588139
0.414181
0.521086
0.615362
0.340205
0.590612
0.352562
0.359803
0.599698
0.583135
0.582729
0.58345
0.33512
0.348425
0.58782
0.592611
0.34137
0.604764
0.539486
0.549601
0.357013
0.365151
0.614831
0.327641
0.479429
0.601366
0.612384
0.350385
0.599158
0.33658
0.339187
0.377179
0.364804
0.588344
0.372546
0.58223
0.277551
0.358714
0.593236
0.397712
0.287164
0.350721
0.268877
0.361734
0.34419
0.361912
0.447756
0.46492
0.336262
0.335572
0.610479
0.32167
0.412355
0.556221
0.52225
0.571418
0.557611
0.480186
0.471088
0.289497
0.378781
0.529388
0.548153
0.314563
0.562718
0.276248
0.286918
0.313735
0.583599
0.596297
0.346007
0.574957
0.611829
0.285248
0.337815
0.577572
0.541925
0.356471
0.580159
0.394082
0.344424
0.577584
0.33834
0.486592
0.565028
0.430859
0.581801
0.339338
0.373051
0.60893
0.387228
0.393556
0.364406
0.398886
0.353814
0.517946
0.592459
0.587802
0.351577
0.250351
0.345946
0.343251
0.60162
0.293954
0.442738
0.337844
0.605258
0.602698
0.338025
0.541346
0.403341
0.562109
0.299993
0.597817
0.569756
0.589391
0.571088
0.538765
0.594866
0.347727
0.456267
0.400126
0.565889
0.318794
0.378725
0.613264
0.536742
0.5381
0.334152
0.336444
0.603981
0.586736
0.322963
0.610841
0.315714
0.307486
0.383526
0.588845
0.604654
0.5609
0.288321
0.29927
0.38657
0.341581
0.608663
0.54705
0.58434
0.342668
0.339539
0.483267
0.584888
0.58038
0.571985
0.544913
0.426161
0.583053
0.5906
0.584534
0.357097
0.584825
0.543361
0.550101
0.611874
0.582296
0.564627
0.38733
0.599233
0.392597
0.587351
0.536698
0.268387
0.547716
0.493738
0.594213
0.339616
0.342832
0.520643
0.29404
0.345634
0.588909
0.298014
0.434304
0.577932
0.289952
0.591822
0.373785
0.524712
0.601371
0.597093
0.574265
0.3399
0.366574
0.565516
0.469568
0.395798
0.512562
0.315397
0.536794
0.344082
0.489795
0.58399
0.543538
0.336221
0.528858
0.335209
0.428066
0.436783
0.344281
0.27778
0.339539
0.537397
0.48596
0.45508
0.33643
0.539636
0.552145
0.33648
0.538934
0.355536
0.483564
0.556492
0.553182
0.60971
0.302857
0.372386
0.538178
0.601584
0.561306
0.548503
0.58108
0.515037
0.495458
0.336711
0.540051
0.399322
0.355136
0.363552
0.54101
0.586942
0.581782
0.406787
0.341262
0.577329
0.329864
0.38376
0.425847
0.351713
0.485734
0.385062
0.548535
0.378812
0.315437
0.435804
0.598673
0.332376
0.311146
0.586082
0.601624
0.591948
0.375901
0.306233
0.587179
0.315634
0.308176
0.400136
0.457639
0.591948
0.265445
0.587609
0.35537
0.54514
0.608523
0.328155
0.439591
0.511859
0.542405
0.577421
0.603504
0.606125
0.597365
0.570855
0.551833
0.369518
0.396101
0.585437
0.387871
0.595934
0.5629
0.249965
0.610208
0.543034
0.594168
0.575292
0.54337
0.569119
0.314964
0.541827
0.350065
0.302697
0.612454
0.53605
0.287423
0.321801
0.595475
0.410094
0.502183
0.351261
0.244541
0.585415
0.558587
0.600324
0.588183
0.530755
0.394997
0.478722
0.369663
0.549251
0.557962
0.550093
0.315666
0.392049
0.591563
0.554774
0.605149
0.159116
0.541402
0.34113
0.372473
0.330741
0.583072
0.589111
0.579928
0.501076
0.340162
0.538944
0.39792
0.582642
0.591708
0.549603
0.332882
0.327936
0.525581
0.336711
0.449701
0.531063
0.3409
0.315284
0.55527
0.578659
0.342536
0.543888
0.613296
0.336965
0.54176
0.613537
0.590336
0.344937
0.318877
0.578645
0.329564
0.348895
0.426419
0.529093
0.408617
0.3885
0.352658
0.309262
0.574427
0.349641
0.33411
0.60125
0.351241
0.330273
0.600386
0.588677
0.575921
0.543892
0.557174
0.357724
0.589847
0.585107
0.337681
0.60365
0.601885
0.549746
0.552102
0.345219
0.54018
0.371141
0.543336
0.340139
0.535433
0.345712
0.557822
0.337593
0.576688
0.592918
0.588673
0.519502
0.51593
0.610303
0.293063
0.549088
0.253128
0.553503
0.604113
0.336092
0.421609
0.342294
0.353964
0.551615
0.376115
0.614517
0.114058
0.545927
0.569227
0.586261
0.416286
0.389479
0.307098
0.33754
0.268766
0.580348
0.379163
0.339399
0.598366
0.349902
0.374532
0.610283
0.612203
0.56002
0.578478
0.256059
0.520371
0.341049
0.552114
0.522139
0.563073
0.378669
0.578774
0.577382
0.592081
0.560804
0.575026
0.393135
0.536568
0.577056
0.488729
0.530382
0.337801
0.560298
0.342674
0.454099
0.576476
0.52484
0.607216
0.506657
0.521127
0.609882
0.339705
0.590393
0.321577
0.333198
0.57707
0.563955
0.542442
0.55836
0.568446
0.551977
0.592079
0.549367
0.570235
0.610534
0.587685
0.339185
0.564439
0.605861
0.328889
0.57043
0.378108
0.504165
0.335423
0.518328
0.335024
0.33882
0.329381
0.529038
0.598982
0.449066
0.556361
0.334961
0.333899
0.531674
0.603153
0.319008
0.578366
0.468909
0.352188
0.577017
0.348522
0.345015
0.580397
0.511872
0.34523
0.581571
0.609232
0.592722
0.341681
0.594052
0.292336
0.53936
0.397916
0.548427
0.396721
0.587528
0.309334
0.397943
0.344282
0.591837
0.31025
0.570125
0.583763
0.525367
0.346882
0.340548
0.599716
0.329979
0.232916
0.34058
0.615128
0.320847
0.352788
0.2543
0.534978
0.348897
0.330607
0.334093
0.594475
0.597092
0.397698
0.606951
0.606007
0.54746
0.347197
0.322119
0.570567
0.347543
0.591463
0.330483
0.601167
0.379618
0.311158
0.570695
0.327411
0.346444
0.329601
0.536873
0.312359
0.476344
0.572991
0.341507
0.557542
0.378672
0.585883
0.436951
0.35309
0.352181
0.611209
0.464465
0.529521
0.372306
0.355657
0.476674
0.553391
0.339136
0.33535
0.350581
0.4343
0.573327
0.365712
0.496263
0.615436
0.525061
0.595215
0.317655
0.571883
0.329613
0.612697
0.595163
0.521816
0.335789
0.570347
0.585648
0.355113
0.602637
0.573971
0.325362
0.357469
0.335839
0.321155
0.602288
0.336911
0.545634
0.400336
0.551547
0.530482
0.380819
0.566691
0.310977
0.525225
0.338469
0.529849
0.556535
0.347311
0.32818
0.355617
0.495726
0.588234
0.33889
0.289566
0.396648
0.477571
0.589988
0.375595
0.336741
0.591535
0.572932
0.59234
0.315835
0.351253
0.587508
0.529712
0.348129
0.36552
0.464563
0.588317
0.567581
0.313598
0.533954
0.594822
0.32485
0.605978
0.390767
0.575676
0.315193
0.359137
0.343183
0.275467
0.610644
0.376796
0.328316
0.332968
0.350196
0.553796
0.567709
0.587372
0.344897
0.551929
0.590149
0.612055
0.583422
0.517708
0.58905
0.585963
0.584966
0.575858
0.608837
0.317793
0.533043
0.599356
0.332199
0.577097
0.589489
0.612374
0.609189
0.315436
0.579132
0.550024
0.593964
0.356469
0.592701
0.607387
0.524192
0.569401
0.377607
0.517703
0.331405
0.432434
0.336632
0.337074
0.349708
0.327117
0.529126
0.570422
0.577204
0.374904
0.540905
0.541733
0.609137
0.317153
0.328095
0.583307
0.33759
0.321575
0.336805
0.575528
0.44341
0.568959
0.33413
0.584865
0.614894
0.515305
0.577267
0.338134
0.590823
0.611757
0.575962
0.600683
0.610269
0.557537
0.381396
0.345452
0.333167
0.52993
0.309026
0.57051
0.585627
0.577683
0.323689
0.378518
0.516193
0.602863
0.541976
0.316216
0.592557
0.508849
0.268361
0.533485
0.340442
0.345593
0.339013
0.345036
0.339046
0.601596
0.597883
0.590776
0.469845
0.569503
0.525836
0.587545
0.53376
0.587554
0.585739
0.52793
0.527872
0.356722
0.542836
0.599542
0.444666
0.320837
0.562236
0.30057
0.608713
0.388176
0.5759
0.582046
0.32707
0.572904
0.355169
0.579242
0.601396
0.583929
0.522538
0.573032
0.581784
0.523912
0.332684
0.467521
0.443409
0.255755
0.52602
0.606964
0.470358
0.587178
0.59504
0.532293
0.37985
0.329251
0.564639
0.589084
0.341982
0.273313
0.58477
0.614747
0.591528
0.271384
0.520778
0.573088
0.575015
0.319535
0.534667
0.517524
0.56298
0.542226
0.469495
0.612793
0.305942
0.584317
0.337985
0.336583
0.531863
0.355816
0.362502
0.32816
0.57585
0.586633
0.481472
0.567285
0.463571
0.380446
0.341349
0.597107
0.615136
0.575775
0.524167
0.250031
0.584296
0.455443
0.336889
0.617055
0.602564
0.340759
0.613972
0.59785
0.547604
0.475504
0.52635
0.366761
0.537054
0.603015
0.557658
0.347851
0.563008
0.404934
0.549908
0.609663
0.592832
0.611231
0.611264
0.571963
0.612365
0.581441
0.369903
0.581063
0.549251
0.390504
0.529236
0.611791
0.589789
0.57896
0.337721
0.570607
0.339607
0.581745
0.5387
0.603296
0.343207
0.567002
0.61307
0.541781
0.56677
0.549507
0.545443
0.514055
0.400251
0.3256
0.273764
0.547762
0.318202
0.357186
0.574952
0.354469
0.582678
0.337937
0.608133
0.346702
0.348775
0.582084
0.409858
0.295619
0.599364
0.582429
0.605884
0.341742
0.584103
0.610356
0.608502
0.326818
0.546611
0.608912
0.3312
0.524994
0.507458
0.579258
0.373867
0.402842
0.547182
0.33775
0.574539
0.324417
0.33459
0.53798
0.400472
0.563042
0.334501
0.603471
0.453157
0.54735
0.276118
0.341648
0.53929
0.392668
0.547298
0.332636
0.546096
0.563856
0.498239
0.54582
0.540924
0.289289
0.610163
0.587234
0.612632
0.544293
0.398554
0.337455
0.337755
0.338619
0.536714
0.376118
0.553812
0.356168
0.578927
0.585642
0.529999
0.339428
0.521734
0.379639
0.6071
0.602675
0.374087
0.533537
0.600096
0.346022
0.593124
0.336581
0.346204
0.589507
0.347629
0.599875
0.226116
0.39435
0.570815
0.387996
0.574218
0.322514
0.490873
0.596216
0.605037
0.399109
0.281971
0.326816
0.544749
0.550507
0.396012
0.6076
0.362613
0.606716
0.324437
0.387034
0.508493
0.505068
0.44081
0.587469
0.588951
0.528262
0.520976
0.586029
0.525922
0.401787
0.596579
0.377033
0.362164
0.561015
0.426325
0.406597
0.465678
0.328442
0.582813
0.543515
0.604642
0.347159
0.330896
0.506418
0.545239
0.613094
0.590729
0.335696
0.539056
0.582903
0.588183
0.465171
0.337474
0.35569
0.317789
0.589985
0.60409
0.337037
0.371849
0.459219
0.33057
0.587454
0.5519
0.323414
0.534626
0.421658
0.581127
0.606469
0.331893
0.380377
0.557004
0.346342
0.406487
0.582964
0.273412
0.333607
0.330609
0.545336
0.572414
0.543492
0.347926
0.335956
0.566269
0.582016
0.556843
0.603273
0.343491
0.345515
0.388077
0.536237
0.341337
0.339826
0.597777
0.577824
0.551681
0.395795
0.395845
0.39081
0.519275
0.316554
0.578166
0.545443
0.603927
0.452771
0.602757
0.590336
0.341164
0.343298
0.614288
0.329505
0.494867
0.592298
0.585924
0.455931
0.33942
0.315051
0.602463
0.41927
0.33535
0.587375
0.613891
0.298553
0.340285
0.551715
0.469279
0.365098
0.336961
0.583811
0.523485
0.597994
0.548894
0.352578
0.311571
0.374867
0.396915
0.310427
0.553978
0.600152
0.512216
0.570301
0.327715
0.567377
0.337841
0.540391
0.585649
0.358448
0.264399
0.582874
0.399437
0.502876
0.610277
0.303444
0.607623
0.566607
0.524256
0.542968
0.599618
0.378374
0.347365
0.37695
0.547264
0.536732
0.587509
0.468952
0.318901
0.341418
0.53182
0.32205
0.593906
0.527795
0.612822
0.342496
0.347377
0.491205
0.579029
0.551459
0.595669
0.527832
0.525623
0.613443
0.556749
0.253553
0.540024
0.566246
0.603567
0.348159
0.587869
0.446306
0.597681
0.589194
0.471852
0.527087
0.579421
0.551039
0.550139
0.36349
0.602954
0.587632
0.383949
0.589176
0.31581
0.306332
0.554264
0.526765
0.336523
0.516251
0.525519
0.372152
0.329903
0.591954
0.587039
0.501006
0.371971
0.531856
0.373263
0.59051
0.586377
0.339368
0.498836
0.536536
0.376651
0.336339
0.387265
0.601846
0.600694
0.347973
0.372036
0.353236
0.3907
0.338835
0.575634
0.359224
0.587592
0.614721
0.600482
0.347335
0.620752
0.497916
0.586756
0.47086
0.60318
0.345178
0.294116
0.349917
0.591964
0.337017
0.341857
0.58258
0.336854
0.546035
0.543544
0.44899
0.332979
0.379348
0.591168
0.612111
0.597853
0.597105
0.602633
0.345813
0.386654
0.352515
0.546433
0.555477
0.342489
0.591871
0.335191
0.352069
0.528392
0.325929
0.329272
0.319678
0.385753
0.32748
0.519476
0.601323
0.607853
0.332943
0.518693
0.598289
0.344983
0.51674
0.382103
0.581179
0.344874
0.402013
0.521347
0.353019
0.265818
0.603428
0.561307
0.343483
0.583182
0.532415
0.617634
0.415007
0.396131
0.559764
0.61475
0.376041
0.383367
0.447486
0.420784
0.531334
0.397271
0.326066
0.589307
0.603211
0.398074
0.338309
0.576355
0.358442
0.331561
0.344738
0.480267
0.582684
0.352636
0.599118
0.359976
0.340177
0.334095
0.42887
0.38678
0.603956
0.34298
0.326801
0.513311
0.597218
0.365195
0.542007
0.347647
0.372426
0.575351
0.587511
0.565218
0.550819
0.591532
0.5977
0.333879
0.594149
0.318565
0.544777
0.571382
0.426264
0.564747
0.535311
0.616054
0.524188
0.462953
0.331215
0.4475
0.350198
0.592178
0.605816
0.535289
0.368727
0.605681
0.373325
0.545447
0.32241
0.344005
0.586614
0.299959
0.58304
0.588168
0.389974
0.352619
0.344686
0.521271
0.415461
0.323552
0.603496
0.35713
0.57255
0.330258
0.361048
0.385887
0.61456
0.407417
0.534533
0.348277
0.387739
0.598043
0.616841
0.279965
0.369238
0.264502
0.51312
0.38676
0.558559
0.597
0.53935
0.235661
0.356942
0.477524
0.567019
0.585403
0.621189
0.294885
0.578197
0.601607
0.536858
0.542551
0.348571
0.587661
0.396914
0.497317
0.601902
0.60015
0.605418
0.581339
0.593483
0.614281
0.597418
0.587944
0.589446
0.608549
0.549724
0.614251
0.339722
0.364462
0.523573
0.519188
0.535449
0.554148
0.586714
0.558664
0.586013
0.37266
0.323921
0.546757
0.345659
0.322471
0.336673
0.615202
0.56297
0.528104
0.588933
0.592361
0.351714
0.577113
0.351435
0.337569
0.594046
0.592559
0.582543
0.412851
0.407347
0.341868
0.319719
0.402886
0.319858
0.373662
0.589113
0.336063
0.58836
0.331296
0.582402
0.613879
0.283064
0.323353
0.591572
0.544834
0.332426
0.559897
0.260983
0.329172
0.33823
0.475194
0.614429
0.553864
0.529594
0.300982
0.376893
0.2686
0.336113
0.549421
0.583759
0.601439
0.391855
0.34993
0.533843
0.617852
0.60614
0.299966
0.533971
0.492847
0.591483
0.450283
0.371277
0.316594
0.349644
0.611152
0.350382
0.346867
0.548057
0.324422
0.518887
0.333108
0.382837
0.412616
0.327921
0.582488
0.549324
0.525735
0.465244
0.596667
0.558325
0.549701
0.361452
0.547162
0.574612
0.548231
0.612876
0.612865
0.584866
0.443876
0.619323
0.609141
0.381093
0.343387
0.595422
0.419343
0.613483
0.401643
0.586293
0.383768
0.587283
0.523382
0.556943
0.61125
0.577674
0.579415
0.345941
0.349424
0.573143
0.58707
0.594734
0.458895
0.585178
0.490884
0.52886
0.530104
0.503479
0.518883
0.589034
0.544941
0.337947
0.345798
0.517487
0.538007
0.380062
0.350258
0.442765
0.549898
0.554306
0.588059
0.357818
0.586506
0.298095
0.60913
0.377728
0.580634
0.307831
0.591159
0.395559
0.568047
0.469999
0.317726
0.319092
0.503716
0.398294
0.558167
0.346595
0.526628
0.551748
0.57553
0.600389
0.612831
0.588476
0.534395
0.587066
0.601979
0.562526
0.553071
0.582703
0.580062
0.342366
0.536002
0.533205
0.613536
0.322582
0.539596
0.58468
0.531231
0.368168
0.399479
0.391184
0.580489
0.587393
0.400659
0.553357
0.405681
0.534201
0.328182
0.432005
0.367432
0.313463
0.59051
0.317997
0.54413
0.387098
0.587579
0.400241
0.529545
0.540952
0.595648
0.380581
0.328823
0.354412
0.579783
0.365495
0.343914
0.351082
0.59656
0.593716
0.581326
0.581543
0.567609
0.57809
0.40189
0.331015
0.608019
0.326139
0.477705
0.578491
0.586764
0.279745
0.314409
0.593122
0.531693
0.427489
0.562903
0.571196
0.571825
0.316758
0.587653
0.578777
0.600292
0.606132
0.323785
0.552164
0.387551
0.618416
0.600866
0.552951
0.561916
0.364566
0.607252
0.219036
0.373424
0.5773
0.543798
0.603139
0.475343
0.366298
0.611942
0.605206
0.380262
0.343615
0.302621
0.590789
0.337493
0.393089
0.401325
0.354668
0.336891
0.375783
0.58668
0.341718
0.574921
0.591971
0.370946
0.575023
0.353195
0.584641
0.340345
0.525434
0.399539
0.596543
0.559475
0.419218
0.541743
0.612749
0.559403
0.366888
0.517932
0.454874
0.349816
0.374997
0.418701
0.3077
0.581289
0.352177
0.351842
0.325378
0.552748
0.585558
0.344762
0.332139
0.595408
0.331075
0.341564
0.538974
0.350911
0.337908
0.36924
0.588611
0.539067
0.601462
0.340408
0.286959
0.584323
0.556818
0.533911
0.412424
0.566043
0.60115
0.436277
0.417073
0.338394
0.399778
0.230644
0.533586
0.322529
0.585548
0.552942
0.593528
0.340304
0.431772
0.437078
0.599807
0.299274
0.524331
0.24119
0.537069
0.361161
0.285171
0.285414
0.595959
0.328262
0.588118
0.329219
0.393259
0.342686
0.507685
0.379315
0.585384
0.322558
0.57296
0.531125
0.335781
0.550355
0.574778
0.319921
0.590795
0.344887
0.362173
0.588392
0.295714
0.554059
0.38605
0.3671
0.552296
0.365146
0.365664
0.326999
0.391688
0.383723
0.555337
0.462345
0.601793
0.593661
0.566137
0.58927
0.432749
0.606549
0.291676
0.574288
0.351055
0.595119
0.343416
0.407848
0.594654
0.592251
0.613045
0.364268
0.487622
0.339771
0.386151
0.347463
0.242218
0.588637
0.429734
0.588572
0.528705
0.524454
0.574778
0.613281
0.4128
0.319573
0.365356
0.57815
0.521501
0.552792
0.544213
0.588022
0.437533
0.296541