# vtk DataFile Version 1.0
unstructured grid
ascii
DATASET UNSTRUCTURED_GRID
points 3226 float
0.0796578 -0.059106 0
0.00128732 0.00159165 0
0.00227961 -0.00102548 0
0.0791586 -0.0598787 0
-0.0546216 0.01 0
0.000495206 0.025 0
0.0800549 -0.035 0
0.135172 -0.08 0
-0.0546216 -0.0451168 0
0.000495206 -0.0301168 0
0.0800549 -0.0901168 0
0.135172 -0.135117 0
-0.0546216 -0.0451168 -0.00551168
0.000495206 -0.0301168 -0.00551168
0.0800549 -0.0901168 -0.00551168
0.135172 -0.135117 -0.00551168
0.135172 -0.08 -0.00551168
0.0800549 -0.035 -0.00551168
0.000495206 0.025 -0.00551168
-0.0546216 0.01 -0.00551168
0.00128732 0.00159165 -0.00551168
0.00227961 -0.00102548 -0.00551168
0.0791586 -0.0598787 -0.00551168
0.0796578 -0.059106 -0.00551168
0.00110182 -0.000823821 0
0.000571683 -0.000188043 0
0.000561313 0.000639162 0
0.00189316 0.00207203 0
0.00260228 0.00255358 0
0.0033966 0.00307293 0
0.00428861 0.00362634 0
0.00529726 0.0041979 0
0.00644092 0.00476696 0
0.00773158 0.0053187 0
0.00918011 0.00583593 0
0.010799 0.00628751 0
0.012597 0.00663225 0
0.0145725 0.0068517 0
0.0167206 0.0069338 0
0.0190349 0.00685819 0
0.0215031 0.00658621 0
0.0241038 0.00607459 0
0.026821 0.00533786 0
0.0296245 0.00434523 0
0.0324763 0.00306927 0
0.0353199 0.00146906 0
0.0381488 -0.00039338 0
0.0409131 -0.00252802 0
0.0435632 -0.00493276 0
0.0460882 -0.0075571 0
0.0484881 -0.0103478 0
0.0506782 -0.0133217 0
0.0526651 -0.016422 0
0.0546139 -0.0195019 0
0.0565301 -0.022529 0
0.0584009 -0.0254846 0
0.0602154 -0.0283513 0
0.061964 -0.031114 0
0.0636389 -0.0337601 0
0.0652336 -0.0362795 0
0.0667431 -0.0386651 0
0.0681656 -0.0409111 0
0.0694983 -0.0430158 0
0.0707356 -0.0449823 0
0.071886 -0.0468071 0
0.0729575 -0.04849 0
0.0739438 -0.0500408 0
0.0748444 -0.0514675 0
0.0756707 -0.0527715 0
0.0764313 -0.053958 0
0.0771224 -0.0550398 0
0.0777384 -0.0560288 0
0.0782803 -0.0569318 0
0.0787691 -0.0577448 0
0.0792251 -0.0584672 0
0.0800494 -0.0597378 0
0.0797987 -0.0601582 0
0.0786655 -0.059391 0
0.0781259 -0.0588425 0
0.0775539 -0.0582102 0
0.0769587 -0.0574783 0
0.0763492 -0.0566339 0
0.075723 -0.0556725 0
0.0750452 -0.0546094 0
0.0742996 -0.0534457 0
0.073478 -0.0521785 0
0.072577 -0.0508019 0
0.0715904 -0.049313 0
0.0705098 -0.047712 0
0.069328 -0.0459996 0
0.0680378 -0.0441794 0
0.066632 -0.0422571 0
0.0651046 -0.0402413 0
0.0634508 -0.0381431 0
0.0616683 -0.0359754 0
0.0597581 -0.033753 0
0.0577255 -0.0314906 0
0.0555808 -0.0292024 0
0.0533388 -0.0269013 0
0.0510024 -0.0246151 0
0.0485693 -0.0223811 0
0.0460535 -0.0202228 0
0.0434788 -0.0181535 0
0.0408704 -0.0161833 0
0.0382442 -0.0143327 0
0.0356165 -0.0126209 0
0.0330065 -0.0110594 0
0.0304368 -0.00965062 0
0.0279338 -0.00838121 0
0.0255194 -0.00723697 0
0.0231965 -0.00623664 0
0.020983 -0.00535765 0
0.0188891 -0.00458677 0
0.0169193 -0.00391673 0
0.0150754 -0.00334068 0
0.0133572 -0.00285262 0
0.0117634 -0.0024437 0
0.0102912 -0.00210643 0
0.0089363 -0.00183343 0
0.00769424 -0.00161552 0
0.00655956 -0.00144452 0
0.00552632 -0.00131235 0
0.00458815 -0.00121216 0
0.00373885 -0.00113394 0
0.00297202 -0.00106855 0
-0.0506847 -0.0440454 0
-0.0467478 -0.0429739 0
-0.0428108 -0.0419025 0
-0.0388739 -0.0408311 0
-0.034937 -0.0397597 0
-0.0310001 -0.0386882 0
-0.0270632 -0.0376168 0
-0.0231263 -0.0365454 0
-0.0191894 -0.0354739 0
-0.0152525 -0.0344025 0
-0.0113155 -0.0333311 0
-0.00737862 -0.0322597 0
-0.00344171 -0.0311882 0
0.0038716 -0.0298185 0
0.00726082 -0.0297726 0
0.010644 -0.0299802 0
0.0140027 -0.0304367 0
0.0173201 -0.0311326 0
0.0205821 -0.0320541 0
0.0237776 -0.0331851 0
0.0268988 -0.0345078 0
0.0299406 -0.0360041 0
0.0329005 -0.0376567 0
0.035778 -0.039449 0
0.038574 -0.0413659 0
0.0412905 -0.043394 0
0.0439303 -0.0455212 0
0.0464964 -0.0477367 0
0.0489922 -0.0500312 0
0.051421 -0.0523964 0
0.0537863 -0.0548252 0
0.0560914 -0.0573112 0
0.0583395 -0.0598489 0
0.0605336 -0.0624334 0
0.0626765 -0.0650605 0
0.064771 -0.0677264 0
0.0668197 -0.0704277 0
0.0688248 -0.0731615 0
0.0707885 -0.0759252 0
0.072713 -0.0787163 0
0.0746002 -0.0815329 0
0.0764517 -0.0843729 0
0.0782695 -0.0872347 0
0.0829558 -0.0924852 0
0.0858567 -0.0948536 0
0.0887575 -0.0972221 0
0.0916584 -0.0995905 0
0.0945593 -0.101959 0
0.0974602 -0.104327 0
0.100361 -0.106696 0
0.103262 -0.109064 0
0.106163 -0.111433 0
0.109064 -0.113801 0
0.111965 -0.116169 0
0.114865 -0.118538 0
0.117766 -0.120906 0
0.120667 -0.123275 0
0.123568 -0.125643 0
0.126469 -0.128012 0
0.12937 -0.13038 0
0.132271 -0.132748 0
0.135172 -0.13118 0
0.135172 -0.127243 0
0.135172 -0.123306 0
0.135172 -0.119369 0
0.135172 -0.115432 0
0.135172 -0.111495 0
0.135172 -0.107558 0
0.135172 -0.103621 0
0.135172 -0.0996846 0
0.135172 -0.0957477 0
0.135172 -0.0918107 0
0.135172 -0.0878738 0
0.135172 -0.0839369 0
0.132271 -0.0776316 0
0.12937 -0.0752632 0
0.126469 -0.0728947 0
0.123568 -0.0705263 0
0.120667 -0.0681579 0
0.117766 -0.0657895 0
0.114865 -0.0634211 0
0.111965 -0.0610526 0
0.109064 -0.0586842 0
0.106163 -0.0563158 0
0.103262 -0.0539474 0
0.100361 -0.0515789 0
0.0974602 -0.0492105 0
0.0945593 -0.0468421 0
0.0916584 -0.0444737 0
0.0887575 -0.0421053 0
0.0858567 -0.0397368 0
0.0829558 -0.0373684 0
0.0782695 -0.0321179 0
0.0764517 -0.0292561 0
0.0746002 -0.026416 0
0.072713 -0.0235995 0
0.0707885 -0.0208084 0
0.0688248 -0.0180447 0
0.0668197 -0.0153109 0
0.064771 -0.0126096 0
0.0626765 -0.00994373 0
0.0605336 -0.00731663 0
0.0583395 -0.00473208 0
0.0560914 -0.00219437 0
0.0537863 0.000291632 0
0.051421 0.00272041 0
0.0489922 0.00508564 0
0.0464964 0.00738012 0
0.0439303 0.00959562 0
0.0412905 0.0117228 0
0.038574 0.0137509 0
0.035778 0.0156678 0
0.0329005 0.0174601 0
0.0299406 0.0191127 0
0.0268988 0.020609 0
0.0237776 0.0219317 0
0.0205821 0.0230627 0
0.0173201 0.0239842 0
0.0140027 0.0246801 0
0.010644 0.0251366 0
0.00726082 0.0253442 0
0.0038716 0.0252983 0
-0.00344171 0.0239286 0
-0.00737862 0.0228571 0
-0.0113155 0.0217857 0
-0.0152525 0.0207143 0
-0.0191894 0.0196429 0
-0.0231263 0.0185714 0
-0.0270632 0.0175 0
-0.0310001 0.0164286 0
-0.034937 0.0153571 0
-0.0388739 0.0142857 0
-0.0428108 0.0132143 0
-0.0467478 0.0121429 0
-0.0506847 0.0110714 0
-0.0546216 0.00606309 0
-0.0546216 0.00212617 0
-0.0546216 -0.00181074 0
-0.0546216 -0.00574766 0
-0.0546216 -0.00968457 0
-0.0546216 -0.0136215 0
-0.0546216 -0.0175584 0
-0.0546216 -0.0214953 0
-0.0546216 -0.0254322 0
-0.0546216 -0.0293691 0
-0.0546216 -0.0333061 0
-0.0546216 -0.037243 0
-0.0546216 -0.0411799 0
-0.0506847 -0.0440454 -0.00551168
-0.0467478 -0.0429739 -0.00551168
-0.0428108 -0.0419025 -0.00551168
-0.0388739 -0.0408311 -0.00551168
-0.034937 -0.0397597 -0.00551168
-0.0310001 -0.0386882 -0.00551168
-0.0270632 -0.0376168 -0.00551168
-0.0231263 -0.0365454 -0.00551168
-0.0191894 -0.0354739 -0.00551168
-0.0152525 -0.0344025 -0.00551168
-0.0113155 -0.0333311 -0.00551168
-0.00737862 -0.0322597 -0.00551168
-0.00344171 -0.0311882 -0.00551168
0.0038716 -0.0298185 -0.00551168
0.00726082 -0.0297726 -0.00551168
0.010644 -0.0299802 -0.00551168
0.0140027 -0.0304367 -0.00551168
0.0173201 -0.0311326 -0.00551168
0.0205821 -0.0320541 -0.00551168
0.0237776 -0.0331851 -0.00551168
0.0268988 -0.0345078 -0.00551168
0.0299406 -0.0360041 -0.00551168
0.0329005 -0.0376567 -0.00551168
0.035778 -0.039449 -0.00551168
0.038574 -0.0413659 -0.00551168
0.0412905 -0.043394 -0.00551168
0.0439303 -0.0455212 -0.00551168
0.0464964 -0.0477367 -0.00551168
0.0489922 -0.0500312 -0.00551168
0.051421 -0.0523964 -0.00551168
0.0537863 -0.0548252 -0.00551168
0.0560914 -0.0573112 -0.00551168
0.0583395 -0.0598489 -0.00551168
0.0605336 -0.0624334 -0.00551168
0.0626765 -0.0650605 -0.00551168
0.064771 -0.0677264 -0.00551168
0.0668197 -0.0704277 -0.00551168
0.0688248 -0.0731615 -0.00551168
0.0707885 -0.0759252 -0.00551168
0.072713 -0.0787163 -0.00551168
0.0746002 -0.0815329 -0.00551168
0.0764517 -0.0843729 -0.00551168
0.0782695 -0.0872347 -0.00551168
0.0829558 -0.0924852 -0.00551168
0.0858567 -0.0948536 -0.00551168
0.0887575 -0.0972221 -0.00551168
0.0916584 -0.0995905 -0.00551168
0.0945593 -0.101959 -0.00551168
0.0974602 -0.104327 -0.00551168
0.100361 -0.106696 -0.00551168
0.103262 -0.109064 -0.00551168
0.106163 -0.111433 -0.00551168
0.109064 -0.113801 -0.00551168
0.111965 -0.116169 -0.00551168
0.114865 -0.118538 -0.00551168
0.117766 -0.120906 -0.00551168
0.120667 -0.123275 -0.00551168
0.123568 -0.125643 -0.00551168
0.126469 -0.128012 -0.00551168
0.12937 -0.13038 -0.00551168
0.132271 -0.132748 -0.00551168
0.135172 -0.13118 -0.00551168
0.135172 -0.127243 -0.00551168
0.135172 -0.123306 -0.00551168
0.135172 -0.119369 -0.00551168
0.135172 -0.115432 -0.00551168
0.135172 -0.111495 -0.00551168
0.135172 -0.107558 -0.00551168
0.135172 -0.103621 -0.00551168
0.135172 -0.0996846 -0.00551168
0.135172 -0.0957477 -0.00551168
0.135172 -0.0918107 -0.00551168
0.135172 -0.0878738 -0.00551168
0.135172 -0.0839369 -0.00551168
0.132271 -0.0776316 -0.00551168
0.12937 -0.0752632 -0.00551168
0.126469 -0.0728947 -0.00551168
0.123568 -0.0705263 -0.00551168
0.120667 -0.0681579 -0.00551168
0.117766 -0.0657895 -0.00551168
0.114865 -0.0634211 -0.00551168
0.111965 -0.0610526 -0.00551168
0.109064 -0.0586842 -0.00551168
0.106163 -0.0563158 -0.00551168
0.103262 -0.0539474 -0.00551168
0.100361 -0.0515789 -0.00551168
0.0974602 -0.0492105 -0.00551168
0.0945593 -0.0468421 -0.00551168
0.0916584 -0.0444737 -0.00551168
0.0887575 -0.0421053 -0.00551168
0.0858567 -0.0397368 -0.00551168
0.0829558 -0.0373684 -0.00551168
0.0782695 -0.0321179 -0.00551168
0.0764517 -0.0292561 -0.00551168
0.0746002 -0.026416 -0.00551168
0.072713 -0.0235995 -0.00551168
0.0707885 -0.0208084 -0.00551168
0.0688248 -0.0180447 -0.00551168
0.0668197 -0.0153109 -0.00551168
0.064771 -0.0126096 -0.00551168
0.0626765 -0.00994373 -0.00551168
0.0605336 -0.00731663 -0.00551168
0.0583395 -0.00473208 -0.00551168
0.0560914 -0.00219437 -0.00551168
0.0537863 0.000291632 -0.00551168
0.051421 0.00272041 -0.00551168
0.0489922 0.00508564 -0.00551168
0.0464964 0.00738012 -0.00551168
0.0439303 0.00959562 -0.00551168
0.0412905 0.0117228 -0.00551168
[...]
CELL_DATA 2965
SCALARS rho float
LOOKUP_TABLE default
0.532694
0.315974
0.520789
0.332352
0.539867
0.346252
0.532881
0.330843
0.348909
0.522233
0.333614
0.335731
0.423407
0.534085
0.515162
0.512028
0.521638
0.513234
0.542701
0.52399
0.532899
0.335618
0.505815
0.534124
0.532936
0.545685
0.4523
0.475692
0.336801
0.499219
0.499042
0.340781
0.551159
0.525689
0.28285
0.344798
0.5241
0.530711
0.321287
0.501577
0.525588
0.498559
0.53225
0.327848
0.296432
0.529759
0.454998
0.465495
0.319531
0.532486
0.384808
0.331096
0.309013
0.421515
0.333226
0.416778
0.344642
0.325338
0.274098
0.473005
0.511966
0.472389
0.341661
0.542003
0.481668
0.532019
0.532898
0.333158
0.306955
0.311179
0.515677
0.541126
0.532895
0.282283
0.495041
0.406688
0.531907
0.331924
0.332014
0.463532
0.5333
0.339072
0.336814
0.433941
0.475079
0.372008
0.31261
0.282308
0.542281
0.344122
0.317363
0.529838
0.513585
0.509878
0.532317
0.319361
0.453682
0.27239
0.328565
0.328743
0.467253
0.334454
0.341973
0.300054
0.313973
0.524761
0.531654
0.33192
0.323275
0.532047
0.217511
0.389607
0.46414
0.488391
0.3029
0.302711
0.502498
0.452855
0.53307
0.326752
0.533377
0.233404
0.537807
0.538314
0.488573
0.396258
0.338803
0.455118
0.527578
0.261992
0.340533
0.42371
0.528659
0.341771
0.455916
0.328514
0.421693
0.511547
0.552866
0.539553
0.341479
0.510544
0.524146
0.328593
0.293753
0.543327
0.331362
0.538728
0.553255
0.345756
0.333778
0.342564
0.341616
0.335329
0.272533
0.276823
0.53264
0.528193
0.521956
0.536387
0.449697
0.459031
0.402974
0.540747
0.343726
0.532895
0.410482
0.332457
0.532355
0.533357
0.477723
0.310769
0.431429
0.515128
0.545839
0.412122
0.507823
0.353929
0.251893
0.412812
0.341213
0.256156
0.319223
0.302877
0.553184
0.533061
0.340572
0.331468
0.384791
0.347317
0.321187
0.327781
0.446806
0.297145
0.532814
0.459455
0.531052
0.48047
0.435813
0.337863
0.33322
0.301287
0.524193
0.435636
0.533289
0.292683
0.424903
0.532717
0.516468
0.53014
0.4911
0.39704
0.34046
0.342124
0.50225
0.345749
0.45525
0.321465
0.51223
0.347328
0.348663
0.337893
0.454313
0.379209
0.543364
0.258605
0.533406
0.51841
0.313205
0.473163
0.332451
0.275294
0.533168
0.317845
0.530625
0.533412
0.339244
0.527074
0.342097
0.34937
0.368374
0.33377
0.541067
0.518234
0.338194
0.226228
0.521717
0.531683
0.444332
0.501562
0.323202
0.338361
0.532725
0.332574
0.473449
0.27727
0.273988
0.532987
0.530804
0.303288
0.45831
0.323982
0.540397
0.343994
0.531456
0.533071
0.2651
0.468242
0.517364
0.299675
0.336773
0.529916
0.332222
0.548808
0.506201
0.330039
0.511415
0.509779
0.55045
0.528438
0.544627
0.461786
0.524628
0.531471
0.313092
0.321298
0.518173
0.536503
0.339222
0.527106
0.457609
0.268265
0.338608
0.321864
0.473464
0.322459
0.531953
0.475539
0.546969
0.350819
0.479175
0.479858
0.472646
0.531128
0.338676
0.232317
0.542661
0.532288
0.532334
0.329044
0.336191
0.4771
0.284459
0.314162
0.484792
0.533342
0.479757
0.212827
0.345252
0.47912
0.489083
0.324759
0.532884
0.533228
0.336995
0.410551
0.53011
0.510369
0.287874
0.324344
0.533079
0.340717
0.534314
0.361812
0.537504
0.390326
0.371184
0.325893
0.335646
0.298483
0.508309
0.545618
0.521591
0.54112
0.479048
0.469093
0.304959
0.532074
0.545797
0.305669
0.327463
0.533108
0.325844
0.51161
0.465446
0.300223
0.34059
0.342032
0.336353
0.533212
0.326174
0.34196
0.37546
0.327255
0.531106
0.532004
0.466068
0.532207
0.343461
0.528346
0.328544
0.533053
0.330458
0.337652
0.531907
0.463873
0.281613
0.259903
0.528933
0.359712
0.495692
0.509757
0.320345
0.527269
0.287323
0.345912
0.532773
0.293606
0.533279
0.280505
0.375263
0.332607
0.533093
0.464298
0.430326
0.53143
0.307497
0.544862
0.342915
0.310476
0.547809
0.300473
0.537413
0.416245
0.484491
0.29049
0.29319
0.315024
0.284603
0.315554
0.343289
0.525531
0.531675
0.532654
0.532623
0.324279
0.535434
0.461559
0.517136
0.242275
0.530578
0.343972
0.477822
0.46874
0.290062
0.533002
0.35495
0.518306
0.337958
0.483543
0.530335
0.295004
0.53115
0.249403
0.534292
0.320992
0.326031
0.411577
0.542112
0.537561
0.391923
0.268219
0.2431
0.41485
0.540992
0.5228
0.530961
0.527521
0.534608
0.324147
0.509263
0.477922
0.312705
0.237362
0.299196
0.493661
0.533845
0.362247
0.378201
0.368913
0.346016
0.525549
0.532435
0.532515
0.547314
0.396303
0.531236
0.533633
0.324902
0.536252
0.347056
0.344964
0.528114
0.533346
0.533189
0.543657
0.342984
0.315344
0.551239
0.525991
0.343425
0.526146
0.498639
0.532861
0.34797
0.320968
0.533789
0.335882
0.448229
0.533375
0.533627
0.302812
0.531341
0.342523
0.32892
0.318493
0.349909
0.53136
0.360483
0.513763
0.29412
0.335442
0.522357
0.334805
0.297723
0.304085
0.271963
0.353699
0.312551
0.310132
0.422378
0.435909
0.32821
0.342857
0.533914
0.336113
0.392549
0.530214
0.531086
0.488852
0.484706
0.428519
0.441169
0.29554
0.368006
0.530515
0.493263
0.24156
0.502395
0.244263
0.295019
0.286584
0.529074
0.54946
0.296099
0.494398
0.528775
0.281488
0.297974
0.539157
0.532771
0.350055
0.542176
0.376135
0.293057
0.539417
0.301359
0.450929
0.523701
0.392873
0.540109
0.3251
0.332415
0.534935
0.372866
0.340397
0.348588
0.310063
0.339916
0.531485
0.536233
0.518836
0.324743
0.248674
0.331244
0.300345
0.526379
0.252328
0.41668
0.302543
0.528556
0.529034
0.313847
0.532959
0.38828
0.485417
0.312002
0.524162
0.52993
0.552782
0.531159
0.533039
0.522915
0.350498
0.418031
0.346248
0.524445
0.329451
0.261729
0.529145
0.531422
0.53066
0.346914
0.33511
0.536633
0.538029
0.314059
0.531565
0.298747
0.309136
0.326485
0.551849
0.535934
0.518514
0.300959
0.31152
0.353776
0.345888
0.535085
0.532663
0.544642
0.346453
0.322362
0.451259
0.545656
0.54192
0.505783
0.532306
0.406895
0.532008
0.538705
0.514036
0.328262
0.532306
0.49053
0.532896
0.533894
0.544461
0.481507
0.375942
0.544397
0.33613
0.54161
0.53155
0.217395
0.532646
0.459991
0.53096
0.314391
0.337259
0.532142
0.295205
0.321233
0.546746
0.297303
0.411988
0.533992
0.279938
0.544261
0.324515
0.485861
0.52948
0.524074
0.49797
0.317911
0.317892
0.516715
0.431821
0.323211
0.475622
0.324419
0.532187
0.341603
0.457612
0.515314
0.53301
0.332134
0.488834
0.342384
0.407723
0.412581
0.314306
0.278266
0.34766
0.532717
0.454614
0.429891
0.319761
0.532727
0.484077
0.32066
0.53239
0.343441
0.451906
0.513604
0.533473
0.534714
0.296288
0.336787
0.532894
0.54391
0.51887
0.483049
0.540579
0.476659
0.46233
0.324321
0.498969
0.3851
0.346836
0.354904
0.532512
0.548077
0.505229
0.390139
0.342079
0.538649
0.341565
0.34716
0.403993
0.329157
0.453202
0.333172
0.533156
0.324175
0.325858
0.412293
0.542834
0.32811
0.316648
0.547517
0.54203
0.549385
0.31082
0.317155
0.534798
0.321334
0.319107
0.341071
0.431758
0.521003
0.264958
0.549155
0.333425
0.502937
0.53067
0.316256
0.408133
0.475123
0.496423
0.491133
0.538158
0.535482
0.542796
0.53151
0.53316
0.319868
0.376575
0.517126
0.277648
0.540878
0.520979
0.264518
0.528291
0.469145
0.509477
0.536912
0.46194
0.528022
0.32293
0.484616
0.331029
0.293197
0.532283
0.533078
0.264727
0.339448
0.526651
0.391503
0.446141
0.265558
0.247694
0.547207
0.511021
0.542083
0.51113
0.452233
0.378195
0.448013
0.329543
0.533201
0.499112
0.488799
0.335618
0.378246
0.541833
0.493526
0.537012
0.154993
0.533089
0.327154
0.317275
0.337718
0.514874
0.518612
0.53772
0.466659
0.314675
0.532262
0.383606
0.544426
0.545365
0.486447
0.337708
0.307701
0.532643
0.329228
0.423413
0.468342
0.324086
0.362544
0.512363
0.540329
0.347309
0.532832
0.529994
0.332734
0.53286
0.533313
0.53473
0.351367
0.339357
0.540268
0.316334
0.353168
0.405476
0.532452
0.309238
0.373735
0.321258
0.301019
0.535077
0.33112
0.336877
0.541005
0.330104
0.326206
0.550545
0.534172
0.531047
0.532168
0.486525
0.339534
0.54973
0.5307
0.31101
0.534457
0.532278
0.532902
0.533188
0.35187
0.532896
0.335011
0.533067
0.314874
0.532449
0.30942
0.514255
0.313265
0.538163
0.54338
0.548751
0.481643
0.53278
0.533867
0.305678
0.532241
0.260678
0.533493
0.535593
0.345696
0.402238
0.298514
0.344863
0.533359
0.361706
0.530271
0.125012
0.502287
0.503952
0.536776
0.39563
0.331944
0.242495
0.338294
0.273928
0.533725
0.364753
0.329784
0.533414
0.303211
0.361937
0.529608
0.529864
0.495874
0.531698
0.256514
0.482602
0.311117
0.533189
0.532919
0.521049
0.278957
0.537243
0.532191
0.538325
0.493198
0.528861
0.38031
0.531746
0.538363
0.434892
0.53299
0.318604
0.514853
0.34741
0.412088
0.514271
0.486764
0.527089
0.470814
0.483169
0.534785
0.321217
0.520458
0.33717
0.341738
0.538588
0.50753
0.473875
0.515433
0.52791
0.53315
0.532759
0.533013
0.532627
0.53273
0.551278
0.344213
0.497368
0.528251
0.325205
0.530744
0.308808
0.469073
0.31408
0.532417
0.332174
0.333627
0.304094
0.463773
0.53347
0.425055
0.51199
0.31357
0.339514
0.531763
0.532323
0.325489
0.49911
0.44154
0.314803
0.501473
0.337062
0.323912
0.529956
0.474814
0.321579
0.51415
0.529947
0.520992
0.353288
0.513312
0.238359
0.531937
0.381819
0.50579
0.313465
0.546728
0.311591
0.303971
0.330112
0.510848
0.295188
0.494662
0.545011
0.464396
0.343825
0.308736
0.539891
0.310762
0.23051
0.352949
0.533744
0.318701
0.302529
0.273395
0.494942
0.307893
0.339794
0.332561
0.530836
0.547968
0.333021
0.535892
0.535231
0.490556
0.340415
0.323384
0.531166
0.331058
0.553381
0.326927
0.528136
0.32048
0.155232
0.508756
0.342147
0.344317
0.350891
0.532643
0.29985
0.441415
0.534091
0.323138
0.512608
0.321927
0.547962
0.413154
0.33092
0.334957
0.533274
0.437625
0.531954
0.317028
0.329721
0.427674
0.533456
0.318054
0.308613
0.343779
0.411285
0.53382
0.342746
0.4435
0.528478
0.532482
0.523074
0.338308
0.532627
0.323344
0.53145
0.532883
0.454199
0.335381
0.484889
0.534063
0.330503
0.535464
0.535289
0.33914
0.339258
0.318155
0.257095
0.539609
0.352098
0.531318
0.383267
0.533366
0.491377
0.37049
0.506332
0.310051
0.473872
0.342849
0.531046
0.529919
0.226758
0.332679
0.335848
0.461662
0.550918
0.327928
0.309501
0.341883
0.448355
0.544553
0.25122
0.336283
0.521309
0.533671
0.523584
0.339184
0.327852
0.519655
0.531125
0.323408
0.328589
0.435459
0.547817
0.488145
0.308911
0.532575
0.533088
0.310718
0.535853
0.319975
0.536952
0.31628
0.35146
0.3222
0.273365
0.531447
0.332664
0.34048
0.346153
0.301971
0.478474
0.526356
0.548319
0.327176
0.533222
0.530895
0.532449
0.545604
0.530612
0.5458
0.547911
0.546652
0.535541
0.529642
0.289867
0.480107
0.548352
0.32107
0.537821
0.54236
0.534383
0.533238
0.315209
0.539934
0.532996
0.532293
0.339604
0.503288
0.526706
0.531506
0.525465
0.321133
0.480113
0.339518
0.41183
0.304204
0.302817
0.318739
0.352473
0.533073
0.530814
0.516731
0.32141
0.533252
0.532666
0.535129
0.331363
0.338658
0.51502
0.309971
0.314712
0.310887
0.533105
0.418342
0.53321
0.309822
0.544059
0.530397
0.450133
0.536623
0.303302
0.548046
0.533262
0.509048
0.536477
0.530908
0.514409
0.325176
0.349423
0.341083
0.531146
0.320876
0.531313
0.516815
0.48952
0.336037
0.343086
0.478811
0.539274
0.531982
0.334404
0.521606
0.473015
0.257714
0.532857
0.340042
0.327033
0.318063
0.325269
0.3188
0.536969
0.53192
0.550414
0.437786
0.529181
0.531405
0.515014
0.533069
0.544445
0.546859
0.530873
0.531315
0.34262
0.532515
0.524883
0.421264
0.343379
0.499371
0.295666
0.534973
0.364834
0.536496
0.543781
0.336998
0.533575
0.341706
0.529563
0.528949
0.545669
0.483998
0.511774
0.543626
0.531213
0.343534
0.440889
0.418367
0.243129
0.533024
0.535664
0.43354
0.549615
0.523046
0.532174
0.286056
0.339977
0.523206
0.544151
0.327967
0.207563
0.511863
0.53156
0.532697
0.268716
0.449448
0.508085
0.527548
0.34665
0.532273
0.479934
0.520932
0.501052
0.435677
0.531068
0.293864
0.52603
0.322898
0.309867
0.533026
0.34691
0.34818
0.343036
0.520167
0.506965
0.435434
0.531547
0.428336
0.366902
0.318043
0.539831
0.529282
0.537273
0.485532
0.248525
0.517541
0.429623
0.323659
0.528872
0.537006
0.337236
0.534094
0.525206
0.532649
0.444912
0.530747
0.35772
0.532959
0.528192
0.531576
0.306492
0.520964
0.380098
0.505132
0.529951
0.542154
0.527408
0.53166
0.533314
0.529514
0.513558
0.32442
0.538573
0.506673
0.337239
0.489885
0.534262
0.54925
0.49573
0.325706
0.527632
0.342267
0.543719
0.486436
0.535923
0.344338
0.508356
0.531755
0.533106
0.521184
0.47402
0.532714
0.46157
0.384069
0.342211
0.283715
0.532604
0.333545
0.283277
0.533899
0.334015
0.541334
0.316759
0.533313
0.331804
0.346611
0.516556
0.391374
0.295189
0.527347
0.530309
0.535579
0.305891
0.503917
0.531008
0.528566
0.345028
0.53321
0.531786
0.345852
0.475791
0.457667
0.518996
0.325232
0.387977
0.505461
0.319995
0.5359
0.340279
0.339226
0.531513
0.383839
0.501015
0.339975
0.537842
0.419665
0.533202
0.19308
0.346957
0.531735
0.354095
0.532892
0.342287
0.533271
0.477772
0.464067
0.532899
0.497468
0.239586
0.533476
0.547221
0.527979
0.533148
0.295678
0.332341
0.326117
0.339621
0.531603
0.347144
0.509315
0.341038
0.527679
0.52974
0.531353
0.35134
0.533216
0.323204
0.531096
0.539556
0.361382
0.53088
0.519102
0.322432
0.51863
0.317294
0.344681
0.547862
0.33246
0.541307
0.22259
0.338505
0.50705
0.382274
0.535606
0.325071
0.458044
0.530366
0.527189
0.382128
0.261062
0.320949
0.532426
0.533069
0.334904
0.532223
0.32958
0.529748
0.341393
0.32776
0.460537
0.469175
0.416302
0.493473
0.531371
0.488934
0.469223
0.531331
0.531726
0.338113
0.530726
0.327059
0.344973
0.49164
0.404843
0.391145
0.437967
0.332693
0.511404
0.532737
0.534374
0.340745
0.347726
0.440361
0.502625
0.531523
0.543903
0.330493
0.494752
0.527103
0.50381
0.437317
0.349256
0.337684
0.335935
0.552505
0.534115
0.299827
0.303044
0.432312
0.344483
0.547925
0.509046
0.327922
0.531787
0.40186
0.53717
0.53363
0.340375
0.360438
0.500387
0.329247
0.391028
0.529792
0.275667
0.338038
0.347608
0.50328
0.533072
0.5019
0.300925
0.323207
0.525351
0.533133
0.489713
0.536377
0.334814
0.342022
0.338045
0.494166
0.299062
0.334276
0.534301
0.53915
0.508783
0.319844
0.340807
0.339062
0.532181
0.30326
0.528518
0.533088
0.527107
0.426544
0.530791
0.547641
0.32808
0.352696
0.533409
0.31907
0.46211
0.521734
0.538727
0.430986
0.310757
0.29604
0.539549
0.400849
0.301715
0.529358
0.531029
0.294889
0.35094
0.508378
0.440461
0.332689
0.313211
0.536864
0.485414
0.525166
0.46583
0.345312
0.292508
0.33988
0.380866
0.305316
0.533383
0.524934
0.465151
0.505133
0.336097
0.499866
0.346079
0.530206
0.543568
0.337323
0.263782
0.524354
0.384493
0.467365
0.532411
0.310933
0.527647
0.524641
0.531037
0.533075
0.500743
0.361402
0.313175
0.312624
0.505462
0.531972
0.510881
0.440091
0.330857
0.315072
0.489802
0.332335
0.534504
0.530898
0.52977
0.335909
0.342606
0.458746
0.504159
0.533238
0.523231
0.533136
0.532006
0.533817
0.474129
0.251206
0.532167
0.49362
0.531002
0.327995
0.524351
0.420628
0.525401
0.550853
0.441517
0.487873
0.526173
0.504802
0.533285
0.32877
0.528832
0.549682
0.344359
0.502147
0.310972
0.304058
0.533372
0.53221
0.329954
0.479567
0.531179
0.342251
0.338248
0.55239
0.548977
0.466961
0.362227
0.49229
0.327301
0.540004
0.547609
0.345827
0.448957
0.494879
0.322492
0.331176
0.345465
0.535289
0.52656
0.333824
0.310843
0.33987
0.345741
0.340747
0.496669
0.328809
0.549851
0.532606
0.53903
0.334477
0.530113
0.435849
0.526767
0.441432
0.526233
0.328204
0.294915
0.34375
0.528784
0.332269
0.351591
0.493823
0.340779
0.533033
0.501925
0.423035
0.31484
0.319447
0.5194
0.533403
0.52411
0.521353
0.542684
0.336416
0.363538
0.320137
0.504389
0.533159
0.351653
0.511898
0.301804
0.341657
0.532583
0.339171
0.343569
0.238389
0.371538
0.334984
0.533178
0.530824
0.534982
0.33158
0.530781
0.539917
0.351006
0.533098
0.372533
0.536176
0.35127
0.386902
0.530392
0.329499
0.249663
0.525823
0.518461
0.348086
0.544296
0.492311
0.530661
0.396277
0.32581
0.497899
0.531898
0.361216
0.377239
0.417224
0.392776
0.53256
0.335969
0.34434
0.538039
0.504047
0.342779
0.343852
0.527458
0.32885
0.304978
0.332521
0.449648
0.542403
0.332683
0.536889
0.322164
0.311349
0.343815
0.402334
0.331354
0.537137
0.334316
0.342531
0.47647
0.535391
0.354556
0.532095
0.336566
0.319798
0.506775
0.55071
0.519126
0.508623
0.515898
0.544327
0.343076
0.535716
0.294671
0.532311
0.521456
0.406631
0.521605
0.532713
0.531401
0.531607
0.433249
0.341159
0.424111
0.342052
0.499608
0.528504
0.494187
0.32086
0.533658
0.364821
0.532429
0.343425
0.301603
0.554552
0.301373
0.52251
0.55089
0.369234
0.340855
0.326387
0.531056
0.391567
0.244858
0.53864
0.325997
0.520397
0.344812
0.339061
0.313393
0.53301
0.387742
0.533013
0.349375
0.345174
0.529714
0.529745
0.278615
0.355663
0.268857
0.476671
0.330841
0.515672
0.526183
0.532693
0.233552
0.340807
0.446804
0.525847
0.546829
0.529809
0.304276
0.509636
0.53438
0.532437
0.533128
0.332358
0.517928
0.317215
0.438182
0.54041
0.533952
0.526591
0.543283
0.492087
0.528812
0.5418
0.528025
0.519558
0.533941
0.530881
0.533666
0.348821
0.327306
0.533171
0.471712
0.533041
0.533478
0.54661
0.515895
0.542854
0.338027
0.34387
0.533097
0.344066
0.342281
0.334797
0.531103
0.518618
0.531993
0.506747
0.519893
0.330806
0.534548
0.333643
0.328973
0.543679
0.521725
0.519005
0.396
0.391282
0.33864
0.34186
0.385719
0.32557
0.359346
0.541258
0.306512
0.52619
0.336371
0.536006
0.529636
0.279503
0.34147
0.494782
0.533144
0.334638
0.504041
0.265183
0.315307
0.346261
0.445612
0.533238
0.533357
0.533073
0.218775
0.340394
0.28157
0.333883
0.533289
0.545505
0.535496
0.333406
0.33402
0.531192
0.530088
0.533572
0.315115
0.475688
0.460385
0.540609
0.426606
0.346999
0.337131
0.315671
0.53247
0.3453
0.344717
0.533223
0.329949
0.533007
0.344056
0.363033
0.396038
0.336311
0.543575
0.533158
0.533149
0.438605
0.553756
0.506234
0.468922
0.331122
0.503905
0.526162
0.505398
0.53415
0.529426
0.536275
0.420343
0.52975
0.53341
0.323096
0.338441
0.547435
0.39877
0.530126
0.3414
0.544509
0.382082
0.521365
0.53324
0.503378
0.53061
0.535912
0.511819
0.32053
0.303391
0.533761
0.545063
0.530848
0.431387
0.541661
0.44467
0.489651
0.530956
0.468485
0.4564
0.536776
0.532994
0.324869
0.332732
0.53307
0.496736
0.329695
0.346168
0.420326
0.533106
0.533448
0.548963
0.345224
0.519546
0.309101
0.533597
0.325546
0.542708
0.287591
0.547592
0.35199
0.527296
0.441156
0.343544
0.293537
0.46804
0.337686
0.47825
0.325662
0.532745
0.533236
0.52551
0.5234
0.532123
0.53052
0.531315
0.548267
0.538762
0.496826
0.510207
0.492886
0.534807
0.330373
0.495765
0.493083
0.528952
0.316631
0.492389
0.543123
0.531883
0.339274
0.315726
0.334655
0.542186
0.495889
0.318917
0.494467
0.38759
0.532455
0.309807
0.409412
0.332816
0.300439
0.5511
0.314984
0.502535
0.32616
0.54984
0.345565
0.532878
0.498772
0.524945
0.343708
0.346508
0.34709
0.512051
0.321052
0.337747
0.342222
0.537117
0.515789
0.542933
0.516828
0.527047
0.507803
0.372743
0.344969
0.527291
0.341142
0.446508
0.521579
0.548652
0.200705
0.31003
0.519761
0.531633
0.405557
0.520295
0.531398
0.513694
0.335593
0.540108
0.514642
0.52972
0.530341
0.318746
0.533354
0.326838
0.529158
0.539898
0.49984
0.530094
0.352418
0.534773
0.216225
0.352736
0.495728
0.502363
0.525642
0.446673
0.334431
0.528611
0.532858
0.320452
0.341584
0.301661
0.547266
0.306911
0.280616
0.336699
0.332434
0.321882
0.366649
0.539902
0.308796
0.536235
0.520849
0.328939
0.531352
0.317894
0.546636
0.306805
0.453134
0.316165
0.523858
0.533104
0.396167
0.491726
0.531096
0.516442
0.330379
0.47275
0.42834
0.327837
0.318512
0.400539
0.286451
0.542194
0.26529
0.315329
0.327521
0.533267
0.52295
0.323558
0.33103
0.543055
0.329827
0.325777
0.532062
0.320586
0.322903
0.35451
0.550283
0.498212
0.54389
0.338656
0.288403
0.534677
0.513795
0.53168
0.393481
0.501345
0.526657
0.412661
0.399425
0.341822
0.310001
0.235984
0.490118
0.291313
0.545102
0.508273
0.528416
0.339491
0.409247
0.415805
0.557561
0.316133
0.479485
0.235176
0.487009
0.334917
0.278666
0.298416
0.533995
0.324793
0.549474
0.347745
0.378654
0.327799
0.46534
0.318375
0.540765
0.335858
0.500515
0.48229
0.341018
0.532844
0.532783
0.306445
0.546154
0.352778
0.333488
0.539675
0.310949
0.511124
0.355228
0.213058
0.530593
0.331445
0.353886
0.346399
0.344728
0.321937
0.509747
0.434467
0.52379
0.545004
0.524732
0.540339
0.40791
0.53529
0.304734
0.53338
0.330499
0.523051
0.339852
0.389388
0.521356
0.546845
0.532582
0.35348
0.429097
0.302228
0.343639
0.351504
0.219139
0.53261
0.405904
0.544893
0.530564
0.481127
0.535802
0.532672
0.393598
0.330107
0.35747
0.538742
0.483563
0.49789
0.532882
0.549925
0.414996
0.283855
0.340992
0.542337
0.358877
0.521991
0.334684