# vtk DataFile Version 1.0
unstructured grid
ascii
DATASET UNSTRUCTURED_GRID
points 3226 float
0.0796578 -0.059106 0
0.00128732 0.00159165 0
0.00227961 -0.00102548 0
0.0791586 -0.0598787 0
-0.0546216 0.01 0
0.000495206 0.025 0
0.0800549 -0.035 0
0.135172 -0.08 0
-0.0546216 -0.0451168 0
0.000495206 -0.0301168 0
0.0800549 -0.0901168 0
0.135172 -0.135117 0
-0.0546216 -0.0451168 -0.00551168
0.000495206 -0.0301168 -0.00551168
0.0800549 -0.0901168 -0.00551168
0.135172 -0.135117 -0.00551168
0.135172 -0.08 -0.00551168
0.0800549 -0.035 -0.00551168
0.000495206 0.025 -0.00551168
-0.0546216 0.01 -0.00551168
0.00128732 0.00159165 -0.00551168
0.00227961 -0.00102548 -0.00551168
0.0791586 -0.0598787 -0.00551168
0.0796578 -0.059106 -0.00551168
0.00110182 -0.000823821 0
0.000571683 -0.000188043 0
0.000561313 0.000639162 0
0.00189316 0.00207203 0
0.00260228 0.00255358 0
0.0033966 0.00307293 0
0.00428861 0.00362634 0
0.00529726 0.0041979 0
0.00644092 0.00476696 0
0.00773158 0.0053187 0
0.00918011 0.00583593 0
0.010799 0.00628751 0
0.012597 0.00663225 0
0.0145725 0.0068517 0
0.0167206 0.0069338 0
0.0190349 0.00685819 0
0.0215031 0.00658621 0
0.0241038 0.00607459 0
0.026821 0.00533786 0
0.0296245 0.00434523 0
0.0324763 0.00306927 0
0.0353199 0.00146906 0
0.0381488 -0.00039338 0
0.0409131 -0.00252802 0
0.0435632 -0.00493276 0
0.0460882 -0.0075571 0
0.0484881 -0.0103478 0
0.0506782 -0.0133217 0
0.0526651 -0.016422 0
0.0546139 -0.0195019 0
0.0565301 -0.022529 0
0.0584009 -0.0254846 0
0.0602154 -0.0283513 0
0.061964 -0.031114 0
0.0636389 -0.0337601 0
0.0652336 -0.0362795 0
0.0667431 -0.0386651 0
0.0681656 -0.0409111 0
0.0694983 -0.0430158 0
0.0707356 -0.0449823 0
0.071886 -0.0468071 0
0.0729575 -0.04849 0
0.0739438 -0.0500408 0
0.0748444 -0.0514675 0
0.0756707 -0.0527715 0
0.0764313 -0.053958 0
0.0771224 -0.0550398 0
0.0777384 -0.0560288 0
0.0782803 -0.0569318 0
0.0787691 -0.0577448 0
0.0792251 -0.0584672 0
0.0800494 -0.0597378 0
0.0797987 -0.0601582 0
0.0786655 -0.059391 0
0.0781259 -0.0588425 0
0.0775539 -0.0582102 0
0.0769587 -0.0574783 0
0.0763492 -0.0566339 0
0.075723 -0.0556725 0
0.0750452 -0.0546094 0
0.0742996 -0.0534457 0
0.073478 -0.0521785 0
0.072577 -0.0508019 0
0.0715904 -0.049313 0
0.0705098 -0.047712 0
0.069328 -0.0459996 0
0.0680378 -0.0441794 0
0.066632 -0.0422571 0
0.0651046 -0.0402413 0
0.0634508 -0.0381431 0
0.0616683 -0.0359754 0
0.0597581 -0.033753 0
0.0577255 -0.0314906 0
0.0555808 -0.0292024 0
0.0533388 -0.0269013 0
0.0510024 -0.0246151 0
0.0485693 -0.0223811 0
0.0460535 -0.0202228 0
0.0434788 -0.0181535 0
0.0408704 -0.0161833 0
0.0382442 -0.0143327 0
0.0356165 -0.0126209 0
0.0330065 -0.0110594 0
0.0304368 -0.00965062 0
0.0279338 -0.00838121 0
0.0255194 -0.00723697 0
0.0231965 -0.00623664 0
0.020983 -0.00535765 0
0.0188891 -0.00458677 0
0.0169193 -0.00391673 0
0.0150754 -0.00334068 0
0.0133572 -0.00285262 0
0.0117634 -0.0024437 0
0.0102912 -0.00210643 0
0.0089363 -0.00183343 0
0.00769424 -0.00161552 0
0.00655956 -0.00144452 0
0.00552632 -0.00131235 0
0.00458815 -0.00121216 0
0.00373885 -0.00113394 0
0.00297202 -0.00106855 0
-0.0506847 -0.0440454 0
-0.0467478 -0.0429739 0
-0.0428108 -0.0419025 0
-0.0388739 -0.0408311 0
-0.034937 -0.0397597 0
-0.0310001 -0.0386882 0
-0.0270632 -0.0376168 0
-0.0231263 -0.0365454 0
-0.0191894 -0.0354739 0
-0.0152525 -0.0344025 0
-0.0113155 -0.0333311 0
-0.00737862 -0.0322597 0
-0.00344171 -0.0311882 0
0.0038716 -0.0298185 0
0.00726082 -0.0297726 0
0.010644 -0.0299802 0
0.0140027 -0.0304367 0
0.0173201 -0.0311326 0
0.0205821 -0.0320541 0
0.0237776 -0.0331851 0
0.0268988 -0.0345078 0
0.0299406 -0.0360041 0
0.0329005 -0.0376567 0
0.035778 -0.039449 0
0.038574 -0.0413659 0
0.0412905 -0.043394 0
0.0439303 -0.0455212 0
0.0464964 -0.0477367 0
0.0489922 -0.0500312 0
0.051421 -0.0523964 0
0.0537863 -0.0548252 0
0.0560914 -0.0573112 0
0.0583395 -0.0598489 0
0.0605336 -0.0624334 0
0.0626765 -0.0650605 0
0.064771 -0.0677264 0
0.0668197 -0.0704277 0
0.0688248 -0.0731615 0
0.0707885 -0.0759252 0
0.072713 -0.0787163 0
0.0746002 -0.0815329 0
0.0764517 -0.0843729 0
0.0782695 -0.0872347 0
0.0829558 -0.0924852 0
0.0858567 -0.0948536 0
0.0887575 -0.0972221 0
0.0916584 -0.0995905 0
0.0945593 -0.101959 0
0.0974602 -0.104327 0
0.100361 -0.106696 0
0.103262 -0.109064 0
0.106163 -0.111433 0
0.109064 -0.113801 0
0.111965 -0.116169 0
0.114865 -0.118538 0
0.117766 -0.120906 0
0.120667 -0.123275 0
0.123568 -0.125643 0
0.126469 -0.128012 0
0.12937 -0.13038 0
0.132271 -0.132748 0
0.135172 -0.13118 0
0.135172 -0.127243 0
0.135172 -0.123306 0
0.135172 -0.119369 0
0.135172 -0.115432 0
0.135172 -0.111495 0
0.135172 -0.107558 0
0.135172 -0.103621 0
0.135172 -0.0996846 0
0.135172 -0.0957477 0
0.135172 -0.0918107 0
0.135172 -0.0878738 0
0.135172 -0.0839369 0
0.132271 -0.0776316 0
0.12937 -0.0752632 0
0.126469 -0.0728947 0
0.123568 -0.0705263 0
0.120667 -0.0681579 0
0.117766 -0.0657895 0
0.114865 -0.0634211 0
0.111965 -0.0610526 0
0.109064 -0.0586842 0
0.106163 -0.0563158 0
0.103262 -0.0539474 0
0.100361 -0.0515789 0
0.0974602 -0.0492105 0
0.0945593 -0.0468421 0
0.0916584 -0.0444737 0
0.0887575 -0.0421053 0
0.0858567 -0.0397368 0
0.0829558 -0.0373684 0
0.0782695 -0.0321179 0
0.0764517 -0.0292561 0
0.0746002 -0.026416 0
0.072713 -0.0235995 0
0.0707885 -0.0208084 0
0.0688248 -0.0180447 0
0.0668197 -0.0153109 0
0.064771 -0.0126096 0
0.0626765 -0.00994373 0
0.0605336 -0.00731663 0
0.0583395 -0.00473208 0
0.0560914 -0.00219437 0
0.0537863 0.000291632 0
0.051421 0.00272041 0
0.0489922 0.00508564 0
0.0464964 0.00738012 0
0.0439303 0.00959562 0
0.0412905 0.0117228 0
0.038574 0.0137509 0
0.035778 0.0156678 0
0.0329005 0.0174601 0
0.0299406 0.0191127 0
0.0268988 0.020609 0
0.0237776 0.0219317 0
0.0205821 0.0230627 0
0.0173201 0.0239842 0
0.0140027 0.0246801 0
0.010644 0.0251366 0
0.00726082 0.0253442 0
0.0038716 0.0252983 0
-0.00344171 0.0239286 0
-0.00737862 0.0228571 0
-0.0113155 0.0217857 0
-0.0152525 0.0207143 0
-0.0191894 0.0196429 0
-0.0231263 0.0185714 0
-0.0270632 0.0175 0
-0.0310001 0.0164286 0
-0.034937 0.0153571 0
-0.0388739 0.0142857 0
-0.0428108 0.0132143 0
-0.0467478 0.0121429 0
-0.0506847 0.0110714 0
-0.0546216 0.00606309 0
-0.0546216 0.00212617 0
-0.0546216 -0.00181074 0
-0.0546216 -0.00574766 0
-0.0546216 -0.00968457 0
-0.0546216 -0.0136215 0
-0.0546216 -0.0175584 0
-0.0546216 -0.0214953 0
-0.0546216 -0.0254322 0
-0.0546216 -0.0293691 0
-0.0546216 -0.0333061 0
-0.0546216 -0.037243 0
-0.0546216 -0.0411799 0
-0.0506847 -0.0440454 -0.00551168
-0.0467478 -0.0429739 -0.00551168
-0.0428108 -0.0419025 -0.00551168
-0.0388739 -0.0408311 -0.00551168
-0.034937 -0.0397597 -0.00551168
-0.0310001 -0.0386882 -0.00551168
-0.0270632 -0.0376168 -0.00551168
-0.0231263 -0.0365454 -0.00551168
-0.0191894 -0.0354739 -0.00551168
-0.0152525 -0.0344025 -0.00551168
-0.0113155 -0.0333311 -0.00551168
-0.00737862 -0.0322597 -0.00551168
-0.00344171 -0.0311882 -0.00551168
0.0038716 -0.0298185 -0.00551168
0.00726082 -0.0297726 -0.00551168
0.010644 -0.0299802 -0.00551168
0.0140027 -0.0304367 -0.00551168
0.0173201 -0.0311326 -0.00551168
0.0205821 -0.0320541 -0.00551168
0.0237776 -0.0331851 -0.00551168
0.0268988 -0.0345078 -0.00551168
0.0299406 -0.0360041 -0.00551168
0.0329005 -0.0376567 -0.00551168
0.035778 -0.039449 -0.00551168
0.038574 -0.0413659 -0.00551168
0.0412905 -0.043394 -0.00551168
0.0439303 -0.0455212 -0.00551168
0.0464964 -0.0477367 -0.00551168
0.0489922 -0.0500312 -0.00551168
0.051421 -0.0523964 -0.00551168
0.0537863 -0.0548252 -0.00551168
0.0560914 -0.0573112 -0.00551168
0.0583395 -0.0598489 -0.00551168
0.0605336 -0.0624334 -0.00551168
0.0626765 -0.0650605 -0.00551168
0.064771 -0.0677264 -0.00551168
0.0668197 -0.0704277 -0.00551168
0.0688248 -0.0731615 -0.00551168
0.0707885 -0.0759252 -0.00551168
0.072713 -0.0787163 -0.00551168
0.0746002 -0.0815329 -0.00551168
0.0764517 -0.0843729 -0.00551168
0.0782695 -0.0872347 -0.00551168
0.0829558 -0.0924852 -0.00551168
0.0858567 -0.0948536 -0.00551168
0.0887575 -0.0972221 -0.00551168
0.0916584 -0.0995905 -0.00551168
0.0945593 -0.101959 -0.00551168
0.0974602 -0.104327 -0.00551168
0.100361 -0.106696 -0.00551168
0.103262 -0.109064 -0.00551168
0.106163 -0.111433 -0.00551168
0.109064 -0.113801 -0.00551168
0.111965 -0.116169 -0.00551168
0.114865 -0.118538 -0.00551168
0.117766 -0.120906 -0.00551168
0.120667 -0.123275 -0.00551168
0.123568 -0.125643 -0.00551168
0.126469 -0.128012 -0.00551168
0.12937 -0.13038 -0.00551168
0.132271 -0.132748 -0.00551168
0.135172 -0.13118 -0.00551168
0.135172 -0.127243 -0.00551168
0.135172 -0.123306 -0.00551168
0.135172 -0.119369 -0.00551168
0.135172 -0.115432 -0.00551168
0.135172 -0.111495 -0.00551168
0.135172 -0.107558 -0.00551168
0.135172 -0.103621 -0.00551168
0.135172 -0.0996846 -0.00551168
0.135172 -0.0957477 -0.00551168
0.135172 -0.0918107 -0.00551168
0.135172 -0.0878738 -0.00551168
0.135172 -0.0839369 -0.00551168
0.132271 -0.0776316 -0.00551168
0.12937 -0.0752632 -0.00551168
0.126469 -0.0728947 -0.00551168
0.123568 -0.0705263 -0.00551168
0.120667 -0.0681579 -0.00551168
0.117766 -0.0657895 -0.00551168
0.114865 -0.0634211 -0.00551168
0.111965 -0.0610526 -0.00551168
0.109064 -0.0586842 -0.00551168
0.106163 -0.0563158 -0.00551168
0.103262 -0.0539474 -0.00551168
0.100361 -0.0515789 -0.00551168
0.0974602 -0.0492105 -0.00551168
0.0945593 -0.0468421 -0.00551168
0.0916584 -0.0444737 -0.00551168
0.0887575 -0.0421053 -0.00551168
0.0858567 -0.0397368 -0.00551168
0.0829558 -0.0373684 -0.00551168
0.0782695 -0.0321179 -0.00551168
0.0764517 -0.0292561 -0.00551168
0.0746002 -0.026416 -0.00551168
0.072713 -0.0235995 -0.00551168
0.0707885 -0.0208084 -0.00551168
0.0688248 -0.0180447 -0.00551168
0.0668197 -0.0153109 -0.00551168
0.064771 -0.0126096 -0.00551168
0.0626765 -0.00994373 -0.00551168
0.0605336 -0.00731663 -0.00551168
0.0583395 -0.00473208 -0.00551168
0.0560914 -0.00219437 -0.00551168
0.0537863 0.000291632 -0.00551168
0.051421 0.00272041 -0.00551168
0.0489922 0.00508564 -0.00551168
0.0464964 0.00738012 -0.00551168
0.0439303 0.00959562 -0.00551168
0.0412905 0.0117228 -0.00551168
[...]
CELL_DATA 2965
SCALARS rho float
LOOKUP_TABLE default
0.533377
0.327013
0.525081
0.330394
0.542599
0.36488
0.533412
0.337238
0.368774
0.526423
0.33126
0.34741
0.427532
0.535718
0.519556
0.517331
0.527517
0.513681
0.544833
0.529756
0.533234
0.339448
0.505044
0.533067
0.53638
0.546455
0.457358
0.478419
0.338484
0.504597
0.503951
0.342496
0.552622
0.529708
0.286371
0.363157
0.529357
0.534402
0.321933
0.506896
0.530338
0.502879
0.533553
0.330925
0.308531
0.532534
0.459104
0.467184
0.321448
0.533147
0.389367
0.335353
0.321819
0.426187
0.335159
0.421528
0.37525
0.317267
0.277513
0.47698
0.516342
0.474003
0.337762
0.544127
0.481893
0.53324
0.533332
0.321949
0.305889
0.346827
0.516552
0.543512
0.533321
0.278455
0.499823
0.410738
0.53384
0.335121
0.323963
0.467954
0.533288
0.338596
0.353836
0.438146
0.475056
0.376361
0.321351
0.285582
0.540908
0.373694
0.319754
0.532746
0.518145
0.514963
0.533175
0.323321
0.458005
0.276462
0.348233
0.325659
0.47133
0.327084
0.339834
0.307552
0.345663
0.52802
0.533826
0.340446
0.314389
0.533719
0.222028
0.393485
0.469003
0.490299
0.299994
0.295258
0.500751
0.456954
0.532994
0.329576
0.533279
0.23638
0.539424
0.541548
0.487753
0.400807
0.339796
0.459261
0.531431
0.265251
0.339233
0.428431
0.53265
0.345738
0.460962
0.350551
0.425812
0.516296
0.553933
0.542425
0.345539
0.515936
0.528817
0.332316
0.29656
0.545315
0.332948
0.541655
0.555225
0.353403
0.33113
0.328798
0.339935
0.335556
0.275966
0.281035
0.533538
0.531917
0.520737
0.535543
0.45393
0.463613
0.407366
0.542525
0.366992
0.533402
0.414614
0.334808
0.533311
0.534875
0.482283
0.312503
0.43612
0.520246
0.547157
0.41617
0.512965
0.357736
0.255188
0.417498
0.347299
0.259591
0.325805
0.306591
0.554888
0.533362
0.334135
0.330174
0.389332
0.330441
0.322686
0.323755
0.451265
0.299725
0.533264
0.464304
0.534858
0.482887
0.440542
0.325092
0.337531
0.353344
0.527052
0.440182
0.533221
0.299265
0.429498
0.533285
0.516629
0.535474
0.493675
0.401378
0.372743
0.349682
0.506723
0.352442
0.459463
0.324765
0.517239
0.329783
0.368746
0.348153
0.459109
0.383617
0.544142
0.263571
0.533156
0.522809
0.316599
0.477663
0.329001
0.270584
0.534947
0.322037
0.533276
0.535041
0.334961
0.531077
0.332303
0.35274
0.372276
0.329606
0.543453
0.523152
0.336894
0.231204
0.526526
0.533338
0.448461
0.505886
0.324589
0.340056
0.533537
0.340319
0.471504
0.279038
0.269707
0.53297
0.533131
0.350912
0.462043
0.327444
0.542805
0.365768
0.535076
0.533067
0.268393
0.473225
0.521757
0.303439
0.330915
0.534397
0.331726
0.550343
0.510933
0.33149
0.512773
0.514569
0.551384
0.530661
0.545883
0.461382
0.530382
0.533426
0.316721
0.324398
0.517162
0.537993
0.34649
0.53181
0.462567
0.279301
0.353503
0.324618
0.478503
0.326935
0.533822
0.4802
0.547839
0.329082
0.483924
0.483575
0.477011
0.533263
0.339965
0.235182
0.544801
0.533688
0.533695
0.331328
0.346733
0.481377
0.283716
0.312254
0.482166
0.533263
0.480943
0.218222
0.337653
0.483051
0.487561
0.326414
0.532871
0.533235
0.347131
0.41501
0.533018
0.515325
0.282174
0.326993
0.532954
0.349475
0.538585
0.365834
0.539331
0.394667
0.375023
0.334461
0.334616
0.301757
0.507884
0.546641
0.526231
0.542862
0.482226
0.474171
0.311997
0.533642
0.546988
0.34812
0.324969
0.532898
0.327737
0.515428
0.464607
0.352004
0.333712
0.346636
0.331415
0.533249
0.342116
0.348435
0.379908
0.326807
0.533021
0.533472
0.471223
0.533748
0.330883
0.528567
0.330056
0.532833
0.327862
0.343615
0.536008
0.467898
0.274095
0.263249
0.532501
0.363167
0.500099
0.514797
0.325108
0.530922
0.289511
0.351584
0.532839
0.300522
0.535859
0.282487
0.379658
0.336926
0.536739
0.469084
0.434933
0.53367
0.309539
0.54613
0.346282
0.318618
0.549022
0.300615
0.539781
0.42102
0.488393
0.293202
0.296316
0.314165
0.287614
0.315009
0.349038
0.52955
0.533608
0.533611
0.53312
0.360552
0.539098
0.466512
0.517077
0.245593
0.533258
0.374585
0.479639
0.469407
0.34758
0.53322
0.35869
0.522649
0.345286
0.487484
0.535528
0.294363
0.53118
0.25251
0.538573
0.32548
0.317427
0.416334
0.543853
0.540905
0.395952
0.263632
0.246147
0.419476
0.542974
0.528341
0.53307
0.531833
0.536344
0.314896
0.514144
0.481815
0.345519
0.241877
0.301456
0.498768
0.535025
0.366527
0.382258
0.37309
0.355776
0.527225
0.533822
0.533253
0.548747
0.400805
0.533497
0.534362
0.328507
0.540084
0.350981
0.348575
0.528052
0.533243
0.537774
0.545207
0.337508
0.346941
0.552838
0.531601
0.338037
0.529353
0.503812
0.53343
0.361558
0.359044
0.534642
0.329943
0.452737
0.533444
0.534879
0.346939
0.532989
0.327564
0.329131
0.321739
0.353681
0.533013
0.364464
0.515364
0.297037
0.331801
0.526114
0.348245
0.299348
0.347397
0.275418
0.35787
0.349604
0.315319
0.42684
0.440609
0.328369
0.369995
0.536035
0.330246
0.396533
0.533229
0.53372
0.486707
0.484097
0.433224
0.445667
0.298912
0.372215
0.533402
0.497564
0.244098
0.50688
0.250842
0.296475
0.286877
0.534674
0.550578
0.344118
0.492494
0.531193
0.284947
0.340871
0.54121
0.533532
0.354126
0.543766
0.38003
0.340576
0.541574
0.356087
0.455131
0.527911
0.397411
0.54246
0.323206
0.366131
0.536605
0.376642
0.346397
0.361289
0.323258
0.326057
0.53357
0.539932
0.522081
0.316054
0.251754
0.350905
0.344777
0.530504
0.240647
0.420745
0.354856
0.52999
0.533475
0.316035
0.533048
0.392809
0.484185
0.313446
0.525889
0.533544
0.554881
0.53489
0.533255
0.524326
0.365658
0.42255
0.357866
0.528548
0.326062
0.271955
0.532028
0.533885
0.533471
0.325432
0.340429
0.538548
0.54138
0.316988
0.533616
0.291625
0.31232
0.329852
0.553202
0.536956
0.523065
0.307749
0.312878
0.359406
0.333183
0.536544
0.533373
0.546134
0.324754
0.311914
0.455929
0.547065
0.543629
0.50868
0.533616
0.411638
0.537031
0.54181
0.514093
0.329548
0.537239
0.494801
0.53337
0.53527
0.545861
0.479301
0.380351
0.545502
0.353782
0.544055
0.53389
0.219119
0.533406
0.46468
0.535984
0.348929
0.333418
0.533454
0.298868
0.329862
0.5482
0.30096
0.416548
0.537831
0.283481
0.546084
0.327827
0.49114
0.532456
0.527836
0.496507
0.321488
0.32215
0.521663
0.436261
0.332622
0.480617
0.326138
0.533145
0.336888
0.46179
0.516649
0.53311
0.336921
0.492851
0.370226
0.412368
0.416691
0.352175
0.281777
0.332921
0.5329
0.459617
0.434771
0.313494
0.532975
0.484912
0.313211
0.533076
0.332123
0.456352
0.518581
0.533119
0.536243
0.299865
0.34245
0.533371
0.544437
0.523658
0.48473
0.542743
0.480606
0.466631
0.323283
0.504041
0.389579
0.350737
0.358911
0.533639
0.549264
0.503863
0.394542
0.32632
0.54084
0.348563
0.351178
0.408091
0.322884
0.45786
0.335347
0.533317
0.327989
0.326019
0.416606
0.544288
0.329428
0.319424
0.548675
0.542942
0.550905
0.320197
0.318409
0.539096
0.343863
0.320337
0.343687
0.43661
0.52253
0.268224
0.549977
0.334371
0.507377
0.533143
0.319394
0.412293
0.480045
0.500578
0.488426
0.539317
0.536806
0.544371
0.53485
0.533312
0.358139
0.380372
0.520689
0.283381
0.542992
0.525298
0.269658
0.531748
0.469142
0.507209
0.539423
0.460606
0.531933
0.324838
0.488388
0.351016
0.296769
0.534002
0.533127
0.25756
0.339311
0.531956
0.395499
0.450366
0.273472
0.250814
0.548502
0.51564
0.543156
0.509583
0.452036
0.382203
0.45237
0.335805
0.533247
0.503498
0.492031
0.35232
0.382517
0.544147
0.497223
0.538324
0.157098
0.533126
0.332204
0.32144
0.331865
0.517991
0.519132
0.540752
0.471651
0.348469
0.533159
0.388021
0.545843
0.547045
0.489106
0.337431
0.311657
0.533292
0.3537
0.42797
0.470994
0.321991
0.387105
0.516885
0.542247
0.333887
0.533124
0.532618
0.330794
0.533034
0.534157
0.538946
0.36434
0.370793
0.542352
0.319599
0.336237
0.409958
0.533476
0.318171
0.377706
0.325495
0.304615
0.537928
0.331677
0.33501
0.54219
0.330884
0.330033
0.551443
0.538637
0.535436
0.53361
0.486482
0.345157
0.551186
0.532947
0.314917
0.535147
0.5325
0.533364
0.533282
0.36527
0.53342
0.340875
0.533342
0.318329
0.533579
0.33925
0.518593
0.317388
0.540399
0.545276
0.550283
0.486294
0.533218
0.53543
0.307131
0.533096
0.263924
0.533078
0.537826
0.329146
0.406797
0.354035
0.331097
0.533184
0.36564
0.53293
0.12616
0.506431
0.507214
0.540546
0.399539
0.349407
0.246997
0.334387
0.275943
0.537976
0.368779
0.319992
0.533868
0.345996
0.365532
0.531572
0.533122
0.498874
0.536259
0.259843
0.487788
0.315391
0.533327
0.533294
0.525941
0.281431
0.540172
0.53649
0.541462
0.494031
0.533547
0.384743
0.533465
0.540667
0.439409
0.532785
0.316773
0.519264
0.357461
0.41676
0.519822
0.491229
0.530484
0.475491
0.487482
0.536226
0.322925
0.524069
0.329904
0.348474
0.540928
0.512725
0.47496
0.520324
0.531716
0.533322
0.537439
0.533296
0.532821
0.5338
0.551865
0.369756
0.498594
0.529913
0.329542
0.5342
0.319214
0.473609
0.33049
0.532997
0.335137
0.330008
0.305305
0.46593
0.533777
0.42989
0.516304
0.33591
0.348136
0.533308
0.532751
0.329464
0.497322
0.446516
0.349581
0.500338
0.339674
0.319279
0.535265
0.478833
0.326979
0.518051
0.531668
0.521307
0.328718
0.511134
0.24167
0.533445
0.385699
0.510201
0.319545
0.548146
0.317035
0.320674
0.326329
0.508695
0.299096
0.493285
0.546308
0.46754
0.369176
0.312785
0.54169
0.314806
0.233334
0.327886
0.534599
0.322707
0.349357
0.27798
0.499525
0.33909
0.335853
0.340512
0.53329
0.549019
0.345915
0.53743
0.53726
0.494682
0.33834
0.326924
0.534574
0.326545
0.554483
0.330823
0.528817
0.324545
0.15608
0.513772
0.334155
0.338775
0.327088
0.53292
0.303639
0.445671
0.537092
0.328173
0.516959
0.326908
0.549244
0.417524
0.3256
0.337176
0.533866
0.442515
0.533455
0.317137
0.349281
0.432483
0.533152
0.316938
0.342963
0.326063
0.415801
0.536976
0.368017
0.44792
0.531299
0.533343
0.523549
0.329319
0.535822
0.327596
0.534212
0.533562
0.456232
0.350271
0.482363
0.538561
0.323093
0.535658
0.537902
0.339747
0.336168
0.3149
0.257934
0.540408
0.328445
0.533483
0.38751
0.533196
0.495831
0.374829
0.511342
0.312288
0.47801
0.336953
0.53384
0.533
0.233992
0.33195
0.339365
0.466303
0.552057
0.332815
0.313228
0.358236
0.453374
0.546385
0.256276
0.333089
0.525262
0.536971
0.528686
0.331092
0.334606
0.524371
0.533761
0.315186
0.333425
0.439603
0.549334
0.486206
0.312623
0.532911
0.533899
0.314291
0.537625
0.323815
0.539722
0.320065
0.355666
0.3272
0.276734
0.532996
0.338186
0.331817
0.335697
0.344468
0.477604
0.530351
0.549543
0.317935
0.533232
0.536123
0.534154
0.546916
0.533582
0.547437
0.549133
0.547802
0.538558
0.532444
0.288153
0.484177
0.548944
0.324726
0.540216
0.544599
0.535718
0.534178
0.321968
0.541959
0.533309
0.537049
0.350095
0.500516
0.529467
0.533512
0.529864
0.326038
0.485246
0.370727
0.416567
0.356348
0.352107
0.321887
0.329747
0.533027
0.534294
0.5226
0.321168
0.533286
0.53306
0.536669
0.329418
0.349004
0.517152
0.307911
0.318412
0.354677
0.53682
0.422611
0.533103
0.340116
0.545624
0.533152
0.452899
0.539557
0.35121
0.549604
0.534459
0.512275
0.539035
0.534207
0.519507
0.327603
0.36301
0.351437
0.533858
0.315258
0.534651
0.518989
0.486996
0.33446
0.362544
0.483679
0.539869
0.533627
0.33387
0.524469
0.478169
0.257362
0.532814
0.334974
0.330585
0.319991
0.328358
0.348035
0.539236
0.536366
0.551974
0.441935
0.532921
0.533371
0.514543
0.533039
0.546278
0.548086
0.533788
0.533819
0.334252
0.533637
0.526955
0.426036
0.32539
0.502954
0.299052
0.536654
0.368762
0.539207
0.545236
0.333813
0.536901
0.338019
0.5347
0.52946
0.546893
0.489123
0.517135
0.544969
0.533472
0.371681
0.445834
0.422776
0.246237
0.53277
0.537299
0.437848
0.550552
0.525755
0.533645
0.299722
0.334884
0.527531
0.546034
0.33212
0.213043
0.511205
0.533925
0.533748
0.272115
0.450898
0.512337
0.532673
0.326443
0.533023
0.485007
0.525572
0.506301
0.4399
0.532996
0.296316
0.532088
0.32427
0.355614
0.533071
0.350863
0.351749
0.326349
0.526174
0.505224
0.440167
0.533458
0.43263
0.375904
0.321549
0.542052
0.532095
0.539759
0.490425
0.251592
0.522479
0.434413
0.321003
0.531691
0.536858
0.33127
0.535417
0.529512
0.533468
0.449061
0.533708
0.361926
0.532822
0.529368
0.53309
0.345826
0.52544
0.384111
0.509367
0.533521
0.544323
0.530111
0.533601
0.533111
0.532251
0.516852
0.319899
0.541252
0.51152
0.353193
0.494818
0.535657
0.550828
0.493624
0.323352
0.531845
0.345637
0.545134
0.490637
0.536377
0.337863
0.513577
0.533639
0.533228
0.525781
0.47345
0.533195
0.465758
0.388307
0.325655
0.284893
0.533504
0.367205
0.291911
0.537364
0.334518
0.543454
0.331116
0.534627
0.333755
0.337237
0.521759
0.395657
0.298764
0.526075
0.533128
0.536874
0.343405
0.502167
0.532728
0.530519
0.326332
0.533243
0.533313
0.334466
0.479981
0.462017
0.525025
0.363436
0.392529
0.510754
0.309813
0.538568
0.343276
0.335354
0.533752
0.387943
0.505016
0.334714
0.538501
0.423996
0.533221
0.194937
0.338974
0.533683
0.359607
0.533228
0.370809
0.532978
0.47528
0.468236
0.533198
0.501518
0.243251
0.533619
0.548548
0.53106
0.533263
0.305375
0.340408
0.331491
0.336202
0.533604
0.351136
0.513568
0.32749
0.533186
0.535297
0.533577
0.328308
0.533155
0.327782
0.534691
0.539935
0.365359
0.533474
0.515974
0.327405
0.517923
0.322912
0.370751
0.54941
0.336089
0.54277
0.225315
0.343036
0.511531
0.380286
0.538607
0.327822
0.462119
0.532915
0.529107
0.386055
0.254317
0.324725
0.533387
0.533322
0.343869
0.535493
0.322102
0.531213
0.327436
0.331782
0.464883
0.474014
0.420639
0.490272
0.533475
0.494154
0.473307
0.536537
0.533677
0.339921
0.535558
0.374666
0.351047
0.491936
0.409247
0.3957
0.442845
0.33217
0.511063
0.533112
0.535239
0.329063
0.33549
0.44328
0.506794
0.53355
0.545818
0.330143
0.498808
0.533056
0.501521
0.442149
0.331392
0.323422
0.334729
0.555012
0.537068
0.303372
0.314332
0.43708
0.327411
0.549188
0.513581
0.329834
0.533359
0.406373
0.540435
0.534774
0.336628
0.369574
0.505036
0.334897
0.395601
0.532804
0.277508
0.336071
0.32958
0.508066
0.536258
0.506577
0.342366
0.326723
0.529559
0.533676
0.490826
0.538489
0.329764
0.341268
0.345431
0.498151
0.3226
0.339093
0.538006
0.541182
0.513473
0.324132
0.346824
0.346342
0.533048
0.307063
0.533838
0.533356
0.528772
0.430836
0.531478
0.549192
0.331912
0.328998
0.535034
0.325982
0.467181
0.525162
0.541878
0.435959
0.315535
0.302681
0.540805
0.405468
0.305241
0.534987
0.533248
0.298478
0.328223
0.51267
0.444708
0.332556
0.350109
0.540498
0.490036
0.525263
0.464055
0.349394
0.285707
0.352033
0.384731
0.308996
0.533305
0.52752
0.469453
0.508838
0.36933
0.500861
0.369965
0.533286
0.545389
0.349795
0.267031
0.530561
0.388871
0.472115
0.533947
0.317012
0.529843
0.52875
0.533687
0.533118
0.497115
0.370182
0.348389
0.320945
0.510784
0.533131
0.509681
0.444404
0.32945
0.3493
0.493742
0.329823
0.538562
0.533827
0.531959
0.339892
0.32516
0.463752
0.502949
0.533309
0.523479
0.532908
0.533604
0.534865
0.472314
0.254317
0.533287
0.492944
0.53507
0.332712
0.530371
0.424987
0.52574
0.552316
0.446254
0.491944
0.532056
0.509138
0.533242
0.329316
0.52974
0.550592
0.352966
0.499665
0.312994
0.307115
0.533347
0.533069
0.350438
0.483663
0.533578
0.347326
0.370568
0.550144
0.550007
0.471242
0.364814
0.496576
0.328443
0.542761
0.548816
0.335697
0.453421
0.498915
0.324883
0.328513
0.354073
0.535345
0.524736
0.32945
0.372675
0.343331
0.350175
0.349494
0.49471
0.32649
0.551229
0.534582
0.540962
0.336267
0.532474
0.439586
0.532795
0.446251
0.528148
0.332624
0.298478
0.330968
0.534361
0.336095
0.328982
0.491138
0.339239
0.533183
0.507053
0.427207
0.318438
0.322875
0.51944
0.535225
0.52637
0.520782
0.542063
0.330902
0.366978
0.315205
0.509465
0.533513
0.32846
0.510021
0.353798
0.345584
0.532891
0.334929
0.37304
0.243143
0.375209
0.334136
0.532942
0.52958
0.536661
0.335379
0.533689
0.541924
0.327058
0.533048
0.37693
0.539841
0.365818
0.391369
0.53348
0.328146
0.249762
0.528387
0.523542
0.332227
0.545737
0.497515
0.532733
0.400695
0.328108
0.501628
0.533573
0.36493
0.378662
0.421376
0.396777
0.532872
0.343894
0.331759
0.541363
0.499364
0.358362
0.337163
0.532691
0.327881
0.350728
0.3362
0.454587
0.544286
0.334747
0.539576
0.327531
0.311886
0.371707
0.406339
0.346931
0.538001
0.337337
0.382201
0.481581
0.538867
0.358478
0.533493
0.330374
0.323834
0.507502
0.552205
0.523742
0.513889
0.514884
0.545682
0.331059
0.539466
0.296689
0.533515
0.526879
0.411294
0.525867
0.53344
0.533406
0.533256
0.437402
0.371143
0.428958
0.33747
0.49641
0.532534
0.498274
0.319976
0.534634
0.369144
0.533454
0.325972
0.305248
0.556432
0.305058
0.528713
0.552278
0.372991
0.338153
0.330016
0.533415
0.395587
0.249641
0.539614
0.328183
0.52607
0.368235
0.350246
0.324399
0.534678
0.391662
0.533189
0.32829
0.350985
0.534601
0.532407
0.282025
0.359515
0.272343
0.481824
0.3364
0.520412
0.53123
0.533537
0.236434
0.337172
0.451207
0.530341
0.54808
0.532294
0.310926
0.510469
0.537556
0.533631
0.533166
0.332583
0.518819
0.325679
0.44232
0.540673
0.537496
0.528776
0.544896
0.488372
0.531897
0.543618
0.533908
0.520871
0.535333
0.533386
0.534496
0.329336
0.330093
0.532889
0.475905
0.533193
0.533095
0.548171
0.520502
0.544876
0.351536
0.326451
0.533203
0.329254
0.327699
0.353941
0.533523
0.523011
0.533154
0.504744
0.519792
0.324001
0.538114
0.327822
0.326231
0.545408
0.523681
0.524898
0.400593
0.395804
0.34039
0.326719
0.389646
0.332775
0.362962
0.543762
0.302863
0.532161
0.333503
0.539806
0.532188
0.282905
0.372693
0.49137
0.533187
0.331926
0.508913
0.268359
0.318645
0.332144
0.450532
0.534369
0.533336
0.532806
0.221707
0.356968
0.283996
0.348885
0.533241
0.546729
0.538247
0.350875
0.329098
0.533884
0.532481
0.536533
0.321422
0.479122
0.465551
0.543192
0.431499
0.352962
0.34118
0.339734
0.535107
0.336759
0.330229
0.533279
0.374598
0.532776
0.373507
0.366339
0.400648
0.369044
0.54509
0.533253
0.532809
0.443599
0.554587
0.511097
0.467467
0.367164
0.508047
0.531429
0.50967
0.53541
0.531819
0.5402
0.425057
0.532227
0.534145
0.380388
0.333556
0.548734
0.402957
0.532623
0.345414
0.546152
0.379882
0.527005
0.532899
0.508223
0.532686
0.539098
0.514597
0.313395
0.345866
0.536852
0.546769
0.532856
0.435759
0.543956
0.449282
0.494921
0.53386
0.472566
0.459455
0.540496
0.533414
0.348415
0.327087
0.533126
0.500901
0.33226
0.356793
0.425152
0.533294
0.533183
0.550274
0.349824
0.524708
0.314919
0.535669
0.328911
0.544272
0.286358
0.549183
0.352118
0.53149
0.446005
0.327035
0.284867
0.47205
0.338188
0.476724
0.327732
0.533227
0.53333
0.530985
0.521427
0.533414
0.535876
0.533897
0.549369
0.540297
0.498849
0.515484
0.490136
0.538698
0.339881
0.501059
0.498444
0.531691
0.323816
0.496571
0.544952
0.533722
0.351936
0.320753
0.349491
0.543691
0.493005
0.322525
0.498561
0.391638
0.532946
0.313187
0.413626
0.367286
0.303929
0.552786
0.318765
0.50777
0.33019
0.550872
0.358943
0.533189
0.502876
0.529776
0.36332
0.372791
0.351208
0.514365
0.324787
0.341789
0.340415
0.540152
0.514219
0.544523
0.522407
0.531313
0.507733
0.376836
0.371543
0.529637
0.332487
0.451312
0.527727
0.549867
0.203024
0.311048
0.519289
0.53381
0.409789
0.525211
0.534858
0.519361
0.356781
0.542916
0.519904
0.529294
0.531577
0.322584
0.533248
0.329791
0.531781
0.54152
0.504474
0.533067
0.356232
0.536775
0.218876
0.356477
0.49375
0.507292
0.527896
0.451764
0.336285
0.531194
0.536184
0.323777
0.336689
0.305495
0.548844
0.353581
0.288496
0.335573
0.336447
0.32079
0.370981
0.542754
0.311656
0.538713
0.521479
0.329481
0.535476
0.334325
0.547801
0.310541
0.454374
0.317785
0.523622
0.533259
0.400191
0.496019
0.533366
0.521526
0.320575
0.476887
0.432582
0.317902
0.322126
0.40517
0.283063
0.543829
0.277237
0.343417
0.331413
0.53336
0.529031
0.329519
0.33651
0.544795
0.32952
0.334493
0.533327
0.324211
0.3807
0.357069
0.551773
0.502813
0.544134
0.341795
0.291533
0.538979
0.518617
0.53384
0.397533
0.504801
0.527785
0.417089
0.404099
0.336737
0.31709
0.238983
0.494096
0.268279
0.546646
0.512564
0.533945
0.347369
0.413421
0.420629
0.557592
0.31652
0.483547
0.238099
0.491268
0.329203
0.282104
0.301159
0.53804
0.332043
0.550912
0.367632
0.382859
0.327396
0.469513
0.327022
0.543358
0.36982
0.499798
0.486474
0.335889
0.533164
0.533383
0.315523
0.5478
0.368178
0.334311
0.542575
0.317028
0.515926
0.384519
0.219108
0.533572
0.320182
0.357752
0.372774
0.364151
0.325739
0.514106
0.4388
0.521814
0.546603
0.529448
0.543082
0.411947
0.537134
0.312253
0.53331
0.332189
0.525323
0.335464
0.39346
0.521067
0.548408
0.534911
0.357468
0.433448
0.350319
0.354788
0.363721
0.222064
0.537486
0.409989
0.546651
0.533614
0.485097
0.538517
0.53402
0.397835
0.338589
0.361699
0.541043
0.487645
0.502399
0.532952
0.550759
0.419659
0.287555