# vtk DataFile Version 1.0
unstructured grid
ascii
DATASET UNSTRUCTURED_GRID
points 3226 float
0.0796578 -0.059106 0
0.00128732 0.00159165 0
0.00227961 -0.00102548 0
0.0791586 -0.0598787 0
-0.0546216 0.01 0
0.000495206 0.025 0
0.0800549 -0.035 0
0.135172 -0.08 0
-0.0546216 -0.0451168 0
0.000495206 -0.0301168 0
0.0800549 -0.0901168 0
0.135172 -0.135117 0
-0.0546216 -0.0451168 -0.00551168
0.000495206 -0.0301168 -0.00551168
0.0800549 -0.0901168 -0.00551168
0.135172 -0.135117 -0.00551168
0.135172 -0.08 -0.00551168
0.0800549 -0.035 -0.00551168
0.000495206 0.025 -0.00551168
-0.0546216 0.01 -0.00551168
0.00128732 0.00159165 -0.00551168
0.00227961 -0.00102548 -0.00551168
0.0791586 -0.0598787 -0.00551168
0.0796578 -0.059106 -0.00551168
0.00110182 -0.000823821 0
0.000571683 -0.000188043 0
0.000561313 0.000639162 0
0.00189316 0.00207203 0
0.00260228 0.00255358 0
0.0033966 0.00307293 0
0.00428861 0.00362634 0
0.00529726 0.0041979 0
0.00644092 0.00476696 0
0.00773158 0.0053187 0
0.00918011 0.00583593 0
0.010799 0.00628751 0
0.012597 0.00663225 0
0.0145725 0.0068517 0
0.0167206 0.0069338 0
0.0190349 0.00685819 0
0.0215031 0.00658621 0
0.0241038 0.00607459 0
0.026821 0.00533786 0
0.0296245 0.00434523 0
0.0324763 0.00306927 0
0.0353199 0.00146906 0
0.0381488 -0.00039338 0
0.0409131 -0.00252802 0
0.0435632 -0.00493276 0
0.0460882 -0.0075571 0
0.0484881 -0.0103478 0
0.0506782 -0.0133217 0
0.0526651 -0.016422 0
0.0546139 -0.0195019 0
0.0565301 -0.022529 0
0.0584009 -0.0254846 0
0.0602154 -0.0283513 0
0.061964 -0.031114 0
0.0636389 -0.0337601 0
0.0652336 -0.0362795 0
0.0667431 -0.0386651 0
0.0681656 -0.0409111 0
0.0694983 -0.0430158 0
0.0707356 -0.0449823 0
0.071886 -0.0468071 0
0.0729575 -0.04849 0
0.0739438 -0.0500408 0
0.0748444 -0.0514675 0
0.0756707 -0.0527715 0
0.0764313 -0.053958 0
0.0771224 -0.0550398 0
0.0777384 -0.0560288 0
0.0782803 -0.0569318 0
0.0787691 -0.0577448 0
0.0792251 -0.0584672 0
0.0800494 -0.0597378 0
0.0797987 -0.0601582 0
0.0786655 -0.059391 0
0.0781259 -0.0588425 0
0.0775539 -0.0582102 0
0.0769587 -0.0574783 0
0.0763492 -0.0566339 0
0.075723 -0.0556725 0
0.0750452 -0.0546094 0
0.0742996 -0.0534457 0
0.073478 -0.0521785 0
0.072577 -0.0508019 0
0.0715904 -0.049313 0
0.0705098 -0.047712 0
0.069328 -0.0459996 0
0.0680378 -0.0441794 0
0.066632 -0.0422571 0
0.0651046 -0.0402413 0
0.0634508 -0.0381431 0
0.0616683 -0.0359754 0
0.0597581 -0.033753 0
0.0577255 -0.0314906 0
0.0555808 -0.0292024 0
0.0533388 -0.0269013 0
0.0510024 -0.0246151 0
0.0485693 -0.0223811 0
0.0460535 -0.0202228 0
0.0434788 -0.0181535 0
0.0408704 -0.0161833 0
0.0382442 -0.0143327 0
0.0356165 -0.0126209 0
0.0330065 -0.0110594 0
0.0304368 -0.00965062 0
0.0279338 -0.00838121 0
0.0255194 -0.00723697 0
0.0231965 -0.00623664 0
0.020983 -0.00535765 0
0.0188891 -0.00458677 0
0.0169193 -0.00391673 0
0.0150754 -0.00334068 0
0.0133572 -0.00285262 0
0.0117634 -0.0024437 0
0.0102912 -0.00210643 0
0.0089363 -0.00183343 0
0.00769424 -0.00161552 0
0.00655956 -0.00144452 0
0.00552632 -0.00131235 0
0.00458815 -0.00121216 0
0.00373885 -0.00113394 0
0.00297202 -0.00106855 0
-0.0506847 -0.0440454 0
-0.0467478 -0.0429739 0
-0.0428108 -0.0419025 0
-0.0388739 -0.0408311 0
-0.034937 -0.0397597 0
-0.0310001 -0.0386882 0
-0.0270632 -0.0376168 0
-0.0231263 -0.0365454 0
-0.0191894 -0.0354739 0
-0.0152525 -0.0344025 0
-0.0113155 -0.0333311 0
-0.00737862 -0.0322597 0
-0.00344171 -0.0311882 0
0.0038716 -0.0298185 0
0.00726082 -0.0297726 0
0.010644 -0.0299802 0
0.0140027 -0.0304367 0
0.0173201 -0.0311326 0
0.0205821 -0.0320541 0
0.0237776 -0.0331851 0
0.0268988 -0.0345078 0
0.0299406 -0.0360041 0
0.0329005 -0.0376567 0
0.035778 -0.039449 0
0.038574 -0.0413659 0
0.0412905 -0.043394 0
0.0439303 -0.0455212 0
0.0464964 -0.0477367 0
0.0489922 -0.0500312 0
0.051421 -0.0523964 0
0.0537863 -0.0548252 0
0.0560914 -0.0573112 0
0.0583395 -0.0598489 0
0.0605336 -0.0624334 0
0.0626765 -0.0650605 0
0.064771 -0.0677264 0
0.0668197 -0.0704277 0
0.0688248 -0.0731615 0
0.0707885 -0.0759252 0
0.072713 -0.0787163 0
0.0746002 -0.0815329 0
0.0764517 -0.0843729 0
0.0782695 -0.0872347 0
0.0829558 -0.0924852 0
0.0858567 -0.0948536 0
0.0887575 -0.0972221 0
0.0916584 -0.0995905 0
0.0945593 -0.101959 0
0.0974602 -0.104327 0
0.100361 -0.106696 0
0.103262 -0.109064 0
0.106163 -0.111433 0
0.109064 -0.113801 0
0.111965 -0.116169 0
0.114865 -0.118538 0
0.117766 -0.120906 0
0.120667 -0.123275 0
0.123568 -0.125643 0
0.126469 -0.128012 0
0.12937 -0.13038 0
0.132271 -0.132748 0
0.135172 -0.13118 0
0.135172 -0.127243 0
0.135172 -0.123306 0
0.135172 -0.119369 0
0.135172 -0.115432 0
0.135172 -0.111495 0
0.135172 -0.107558 0
0.135172 -0.103621 0
0.135172 -0.0996846 0
0.135172 -0.0957477 0
0.135172 -0.0918107 0
0.135172 -0.0878738 0
0.135172 -0.0839369 0
0.132271 -0.0776316 0
0.12937 -0.0752632 0
0.126469 -0.0728947 0
0.123568 -0.0705263 0
0.120667 -0.0681579 0
0.117766 -0.0657895 0
0.114865 -0.0634211 0
0.111965 -0.0610526 0
0.109064 -0.0586842 0
0.106163 -0.0563158 0
0.103262 -0.0539474 0
0.100361 -0.0515789 0
0.0974602 -0.0492105 0
0.0945593 -0.0468421 0
0.0916584 -0.0444737 0
0.0887575 -0.0421053 0
0.0858567 -0.0397368 0
0.0829558 -0.0373684 0
0.0782695 -0.0321179 0
0.0764517 -0.0292561 0
0.0746002 -0.026416 0
0.072713 -0.0235995 0
0.0707885 -0.0208084 0
0.0688248 -0.0180447 0
0.0668197 -0.0153109 0
0.064771 -0.0126096 0
0.0626765 -0.00994373 0
0.0605336 -0.00731663 0
0.0583395 -0.00473208 0
0.0560914 -0.00219437 0
0.0537863 0.000291632 0
0.051421 0.00272041 0
0.0489922 0.00508564 0
0.0464964 0.00738012 0
0.0439303 0.00959562 0
0.0412905 0.0117228 0
0.038574 0.0137509 0
0.035778 0.0156678 0
0.0329005 0.0174601 0
0.0299406 0.0191127 0
0.0268988 0.020609 0
0.0237776 0.0219317 0
0.0205821 0.0230627 0
0.0173201 0.0239842 0
0.0140027 0.0246801 0
0.010644 0.0251366 0
0.00726082 0.0253442 0
0.0038716 0.0252983 0
-0.00344171 0.0239286 0
-0.00737862 0.0228571 0
-0.0113155 0.0217857 0
-0.0152525 0.0207143 0
-0.0191894 0.0196429 0
-0.0231263 0.0185714 0
-0.0270632 0.0175 0
-0.0310001 0.0164286 0
-0.034937 0.0153571 0
-0.0388739 0.0142857 0
-0.0428108 0.0132143 0
-0.0467478 0.0121429 0
-0.0506847 0.0110714 0
-0.0546216 0.00606309 0
-0.0546216 0.00212617 0
-0.0546216 -0.00181074 0
-0.0546216 -0.00574766 0
-0.0546216 -0.00968457 0
-0.0546216 -0.0136215 0
-0.0546216 -0.0175584 0
-0.0546216 -0.0214953 0
-0.0546216 -0.0254322 0
-0.0546216 -0.0293691 0
-0.0546216 -0.0333061 0
-0.0546216 -0.037243 0
-0.0546216 -0.0411799 0
-0.0506847 -0.0440454 -0.00551168
-0.0467478 -0.0429739 -0.00551168
-0.0428108 -0.0419025 -0.00551168
-0.0388739 -0.0408311 -0.00551168
-0.034937 -0.0397597 -0.00551168
-0.0310001 -0.0386882 -0.00551168
-0.0270632 -0.0376168 -0.00551168
-0.0231263 -0.0365454 -0.00551168
-0.0191894 -0.0354739 -0.00551168
-0.0152525 -0.0344025 -0.00551168
-0.0113155 -0.0333311 -0.00551168
-0.00737862 -0.0322597 -0.00551168
-0.00344171 -0.0311882 -0.00551168
0.0038716 -0.0298185 -0.00551168
0.00726082 -0.0297726 -0.00551168
0.010644 -0.0299802 -0.00551168
0.0140027 -0.0304367 -0.00551168
0.0173201 -0.0311326 -0.00551168
0.0205821 -0.0320541 -0.00551168
0.0237776 -0.0331851 -0.00551168
0.0268988 -0.0345078 -0.00551168
0.0299406 -0.0360041 -0.00551168
0.0329005 -0.0376567 -0.00551168
0.035778 -0.039449 -0.00551168
0.038574 -0.0413659 -0.00551168
0.0412905 -0.043394 -0.00551168
0.0439303 -0.0455212 -0.00551168
0.0464964 -0.0477367 -0.00551168
0.0489922 -0.0500312 -0.00551168
0.051421 -0.0523964 -0.00551168
0.0537863 -0.0548252 -0.00551168
0.0560914 -0.0573112 -0.00551168
0.0583395 -0.0598489 -0.00551168
0.0605336 -0.0624334 -0.00551168
0.0626765 -0.0650605 -0.00551168
0.064771 -0.0677264 -0.00551168
0.0668197 -0.0704277 -0.00551168
0.0688248 -0.0731615 -0.00551168
0.0707885 -0.0759252 -0.00551168
0.072713 -0.0787163 -0.00551168
0.0746002 -0.0815329 -0.00551168
0.0764517 -0.0843729 -0.00551168
0.0782695 -0.0872347 -0.00551168
0.0829558 -0.0924852 -0.00551168
0.0858567 -0.0948536 -0.00551168
0.0887575 -0.0972221 -0.00551168
0.0916584 -0.0995905 -0.00551168
0.0945593 -0.101959 -0.00551168
0.0974602 -0.104327 -0.00551168
0.100361 -0.106696 -0.00551168
0.103262 -0.109064 -0.00551168
0.106163 -0.111433 -0.00551168
0.109064 -0.113801 -0.00551168
0.111965 -0.116169 -0.00551168
0.114865 -0.118538 -0.00551168
0.117766 -0.120906 -0.00551168
0.120667 -0.123275 -0.00551168
0.123568 -0.125643 -0.00551168
0.126469 -0.128012 -0.00551168
0.12937 -0.13038 -0.00551168
0.132271 -0.132748 -0.00551168
0.135172 -0.13118 -0.00551168
0.135172 -0.127243 -0.00551168
0.135172 -0.123306 -0.00551168
0.135172 -0.119369 -0.00551168
0.135172 -0.115432 -0.00551168
0.135172 -0.111495 -0.00551168
0.135172 -0.107558 -0.00551168
0.135172 -0.103621 -0.00551168
0.135172 -0.0996846 -0.00551168
0.135172 -0.0957477 -0.00551168
0.135172 -0.0918107 -0.00551168
0.135172 -0.0878738 -0.00551168
0.135172 -0.0839369 -0.00551168
0.132271 -0.0776316 -0.00551168
0.12937 -0.0752632 -0.00551168
0.126469 -0.0728947 -0.00551168
0.123568 -0.0705263 -0.00551168
0.120667 -0.0681579 -0.00551168
0.117766 -0.0657895 -0.00551168
0.114865 -0.0634211 -0.00551168
0.111965 -0.0610526 -0.00551168
0.109064 -0.0586842 -0.00551168
0.106163 -0.0563158 -0.00551168
0.103262 -0.0539474 -0.00551168
0.100361 -0.0515789 -0.00551168
0.0974602 -0.0492105 -0.00551168
0.0945593 -0.0468421 -0.00551168
0.0916584 -0.0444737 -0.00551168
0.0887575 -0.0421053 -0.00551168
0.0858567 -0.0397368 -0.00551168
0.0829558 -0.0373684 -0.00551168
0.0782695 -0.0321179 -0.00551168
0.0764517 -0.0292561 -0.00551168
0.0746002 -0.026416 -0.00551168
0.072713 -0.0235995 -0.00551168
0.0707885 -0.0208084 -0.00551168
0.0688248 -0.0180447 -0.00551168
0.0668197 -0.0153109 -0.00551168
0.064771 -0.0126096 -0.00551168
0.0626765 -0.00994373 -0.00551168
0.0605336 -0.00731663 -0.00551168
0.0583395 -0.00473208 -0.00551168
0.0560914 -0.00219437 -0.00551168
0.0537863 0.000291632 -0.00551168
0.051421 0.00272041 -0.00551168
0.0489922 0.00508564 -0.00551168
0.0464964 0.00738012 -0.00551168
0.0439303 0.00959562 -0.00551168
0.0412905 0.0117228 -0.00551168
[...]
CELL_DATA 2965
SCALARS rho float
LOOKUP_TABLE default
0.533165
0.322398
0.524742
0.326323
0.542738
0.348157
0.53303
0.332359
0.345813
0.526081
0.326325
0.335696
0.426914
0.53586
0.519235
0.516268
0.526077
0.514732
0.545264
0.528354
0.533337
0.335593
0.506677
0.534441
0.536216
0.54756
0.457453
0.478814
0.330602
0.504298
0.503678
0.338899
0.553818
0.529453
0.286293
0.347738
0.528289
0.534139
0.319395
0.506582
0.529507
0.502688
0.533817
0.325701
0.305824
0.532092
0.458662
0.468137
0.320862
0.533224
0.38939
0.334258
0.318898
0.426176
0.328892
0.421608
0.342843
0.317629
0.277451
0.476675
0.516047
0.474964
0.335857
0.544595
0.483394
0.533235
0.533057
0.315754
0.306616
0.338196
0.517365
0.543751
0.533073
0.277511
0.499593
0.410126
0.532716
0.334688
0.320654
0.46773
0.533172
0.336474
0.343797
0.437619
0.476712
0.376337
0.320486
0.285323
0.54222
0.344307
0.316273
0.532098
0.517177
0.514618
0.533434
0.321446
0.457417
0.277986
0.345539
0.322511
0.470946
0.323532
0.339829
0.305381
0.346889
0.527257
0.532657
0.340077
0.315987
0.532773
0.223978
0.39279
0.468943
0.491023
0.302922
0.294654
0.502639
0.456549
0.533487
0.327224
0.533165
0.236377
0.539944
0.541396
0.489624
0.400853
0.336586
0.458953
0.531287
0.265211
0.34017
0.428468
0.532268
0.343595
0.461053
0.343516
0.425063
0.515308
0.555424
0.542479
0.343617
0.514806
0.528076
0.332105
0.296291
0.545829
0.329196
0.541697
0.556163
0.350876
0.328607
0.324412
0.339628
0.332916
0.275865
0.280704
0.532956
0.531768
0.522189
0.536872
0.453556
0.463401
0.407295
0.543207
0.34399
0.533039
0.414074
0.329861
0.533044
0.535329
0.482114
0.312099
0.436108
0.519307
0.54803
0.415426
0.512621
0.357467
0.255088
0.417556
0.34443
0.259491
0.32333
0.306527
0.556127
0.533091
0.327104
0.330529
0.389357
0.328203
0.320192
0.319336
0.450585
0.299076
0.533136
0.464251
0.534506
0.483408
0.440511
0.319246
0.331878
0.297819
0.526563
0.43939
0.533153
0.29971
0.429445
0.533092
0.517795
0.533876
0.494012
0.401296
0.344953
0.350661
0.506145
0.352241
0.458934
0.329295
0.516366
0.327269
0.346029
0.335142
0.459031
0.383607
0.545215
0.261657
0.533168
0.522482
0.316132
0.477478
0.325994
0.269834
0.535072
0.318472
0.532681
0.53548
0.329317
0.530918
0.332291
0.352211
0.371977
0.327153
0.543773
0.522811
0.337084
0.231081
0.525755
0.53294
0.447971
0.505416
0.318797
0.332882
0.53298
0.336881
0.473684
0.278692
0.267578
0.53348
0.532297
0.305119
0.461967
0.32695
0.54301
0.345223
0.535103
0.533389
0.268366
0.473204
0.52141
0.303697
0.329028
0.532974
0.329539
0.551285
0.510226
0.328885
0.513412
0.513827
0.552445
0.530718
0.546803
0.463151
0.528501
0.532786
0.316328
0.32341
0.518654
0.538569
0.33737
0.530235
0.46259
0.279072
0.344912
0.319748
0.478457
0.326216
0.532732
0.480043
0.548972
0.326767
0.483766
0.483464
0.476812
0.532529
0.331484
0.235196
0.545196
0.532841
0.532864
0.330192
0.336209
0.481196
0.279283
0.306392
0.484296
0.533131
0.482043
0.219953
0.326438
0.482782
0.489597
0.320106
0.53388
0.53313
0.335366
0.414076
0.532269
0.514974
0.280636
0.324633
0.533556
0.345088
0.537864
0.365752
0.539714
0.394629
0.374676
0.332001
0.334358
0.301236
0.50936
0.547673
0.524886
0.543516
0.482393
0.474202
0.316389
0.533835
0.547915
0.31858
0.319953
0.533679
0.326247
0.514834
0.46653
0.309071
0.335728
0.340745
0.327123
0.53312
0.341192
0.338475
0.379912
0.322419
0.532569
0.533549
0.471256
0.53281
0.328571
0.529731
0.329089
0.533702
0.324138
0.342212
0.53486
0.467566
0.271395
0.263196
0.531342
0.362689
0.499897
0.513896
0.324074
0.529774
0.289297
0.349369
0.533798
0.298391
0.535405
0.282294
0.37966
0.33241
0.535813
0.468988
0.434767
0.532705
0.309147
0.547043
0.345816
0.307542
0.550054
0.291568
0.540162
0.421115
0.488177
0.292917
0.295822
0.311938
0.287287
0.31163
0.348248
0.529329
0.533612
0.534076
0.533271
0.349315
0.538731
0.466509
0.518326
0.245547
0.532192
0.344332
0.48047
0.470804
0.286902
0.533229
0.35838
0.522296
0.318914
0.487298
0.53427
0.289059
0.532323
0.252499
0.537655
0.324821
0.318119
0.416433
0.544458
0.540566
0.395063
0.262451
0.246115
0.419447
0.54347
0.526566
0.532543
0.530405
0.536491
0.316692
0.513838
0.481622
0.304045
0.241574
0.302144
0.498515
0.535561
0.366486
0.38207
0.373039
0.350074
0.527577
0.534167
0.533119
0.549664
0.400829
0.532797
0.534984
0.32824
0.53948
0.350858
0.348214
0.52925
0.534333
0.536921
0.545937
0.327862
0.306996
0.553997
0.529746
0.328506
0.528516
0.503506
0.534087
0.351153
0.320472
0.53524
0.328135
0.452488
0.53443
0.535409
0.31326
0.532639
0.325448
0.327153
0.317864
0.35304
0.532605
0.364339
0.515837
0.296693
0.326396
0.525157
0.34532
0.299024
0.301066
0.275348
0.357818
0.304255
0.313311
0.426714
0.440514
0.323025
0.339611
0.535851
0.328372
0.395952
0.532267
0.532499
0.488824
0.485901
0.432531
0.445378
0.294457
0.372184
0.532386
0.497059
0.244406
0.506213
0.251834
0.296096
0.285193
0.533202
0.551613
0.293161
0.494544
0.531111
0.284922
0.294383
0.541727
0.533007
0.354062
0.544529
0.379358
0.340839
0.542054
0.294752
0.454557
0.527632
0.396398
0.542801
0.317597
0.355112
0.537213
0.376072
0.34656
0.351663
0.319097
0.322232
0.532808
0.539376
0.52154
0.317142
0.251753
0.340626
0.297213
0.529172
0.239556
0.420056
0.298488
0.530573
0.532002
0.313236
0.533395
0.392847
0.486204
0.313057
0.526188
0.533508
0.555542
0.534893
0.533245
0.52482
0.351781
0.421626
0.356191
0.528232
0.321485
0.27331
0.531384
0.532582
0.532285
0.323137
0.332992
0.538829
0.541124
0.313842
0.533646
0.289558
0.311572
0.32501
0.554479
0.537995
0.522744
0.304836
0.312514
0.359519
0.329383
0.53707
0.533012
0.54692
0.320974
0.315543
0.455785
0.547904
0.544315
0.508678
0.532863
0.411723
0.535961
0.541648
0.515312
0.324763
0.536155
0.494318
0.533041
0.535772
0.546739
0.481468
0.380358
0.546427
0.34645
0.544328
0.532608
0.219093
0.532982
0.46453
0.534521
0.304712
0.327744
0.533224
0.298792
0.313397
0.549116
0.300877
0.416549
0.537377
0.283299
0.54666
0.327366
0.491004
0.531701
0.526809
0.498426
0.321089
0.320232
0.520825
0.435438
0.329976
0.480539
0.325604
0.533226
0.329555
0.461481
0.517238
0.533328
0.329866
0.492697
0.340273
0.41242
0.416065
0.325401
0.281701
0.323721
0.533533
0.459688
0.434881
0.315495
0.533453
0.486144
0.315809
0.533303
0.332043
0.456068
0.518235
0.533196
0.536588
0.299827
0.341936
0.533134
0.545544
0.523335
0.485592
0.543166
0.480385
0.466374
0.318865
0.503739
0.389598
0.35064
0.358817
0.532914
0.550249
0.505658
0.394534
0.323445
0.541275
0.341048
0.351105
0.407565
0.320551
0.45768
0.330537
0.533126
0.320509
0.320371
0.416334
0.545009
0.327252
0.318692
0.549747
0.543924
0.551833
0.319578
0.317976
0.538295
0.328378
0.319843
0.34232
0.436701
0.522945
0.268213
0.551186
0.332162
0.507145
0.532903
0.318917
0.411411
0.479941
0.500199
0.490501
0.54012
0.537559
0.545016
0.534823
0.533095
0.340995
0.379673
0.520048
0.283107
0.543334
0.524974
0.269543
0.530634
0.47078
0.508951
0.539745
0.46268
0.531618
0.324275
0.488241
0.338893
0.296557
0.53429
0.533377
0.25534
0.339676
0.530175
0.394993
0.45
0.273063
0.25079
0.549456
0.515017
0.544046
0.511312
0.453746
0.381955
0.452005
0.335732
0.5332
0.5029
0.492066
0.3429
0.382477
0.544445
0.497009
0.539043
0.157179
0.533332
0.325151
0.317666
0.329506
0.517652
0.520113
0.540735
0.471666
0.339336
0.533186
0.388019
0.546666
0.547748
0.489419
0.329495
0.311059
0.533729
0.338144
0.427801
0.471466
0.316667
0.371486
0.516579
0.542817
0.322732
0.533313
0.531769
0.326036
0.533389
0.534629
0.538116
0.353542
0.341733
0.542836
0.31911
0.336603
0.409933
0.53311
0.317108
0.377535
0.31365
0.304565
0.538057
0.328271
0.328542
0.542979
0.328681
0.329947
0.552648
0.537712
0.534703
0.532834
0.488062
0.33549
0.552166
0.532201
0.314245
0.536117
0.533568
0.533039
0.533106
0.352763
0.533095
0.339945
0.533139
0.317861
0.532951
0.34261
0.518238
0.316545
0.540822
0.545776
0.551183
0.486124
0.533664
0.535973
0.306868
0.533365
0.263642
0.533193
0.537846
0.325232
0.406823
0.294849
0.330576
0.533183
0.365447
0.532607
0.126021
0.506125
0.507096
0.540059
0.398887
0.34441
0.246344
0.327798
0.275776
0.537275
0.368635
0.32168
0.534677
0.313465
0.364991
0.531886
0.532111
0.49889
0.535411
0.259788
0.487706
0.314426
0.533112
0.533984
0.52561
0.283463
0.540213
0.535798
0.541255
0.495174
0.532687
0.384749
0.532854
0.541081
0.438864
0.533794
0.312935
0.518802
0.351535
0.415835
0.518443
0.491061
0.529476
0.475326
0.487313
0.536706
0.318139
0.52328
0.327522
0.341437
0.541341
0.511715
0.476142
0.519991
0.531494
0.533101
0.53625
0.533154
0.533525
0.533974
0.553003
0.342131
0.499516
0.530355
0.328407
0.534101
0.318611
0.473414
0.306535
0.533538
0.328663
0.325475
0.303734
0.466632
0.53466
0.429989
0.515943
0.304235
0.34271
0.53299
0.533758
0.313545
0.499292
0.446633
0.305552
0.502133
0.334615
0.31606
0.534041
0.478599
0.320122
0.517357
0.53213
0.522371
0.325328
0.512828
0.241522
0.532893
0.385208
0.509954
0.315748
0.549112
0.315719
0.315784
0.321515
0.510409
0.298577
0.495224
0.5472
0.467788
0.343041
0.311982
0.542176
0.314073
0.233362
0.32483
0.535076
0.321823
0.300567
0.277761
0.499321
0.341618
0.33729
0.337964
0.532931
0.550097
0.342721
0.537933
0.537344
0.494309
0.33673
0.326036
0.534577
0.322104
0.555676
0.330784
0.529839
0.323701
0.155621
0.512743
0.324904
0.336027
0.324665
0.533529
0.303542
0.444988
0.537178
0.320881
0.516548
0.318788
0.550241
0.417311
0.322247
0.339149
0.534459
0.442614
0.533263
0.313943
0.346558
0.431638
0.533191
0.315041
0.298412
0.322737
0.415708
0.536969
0.340997
0.447436
0.53051
0.533382
0.524559
0.326937
0.535909
0.326622
0.533524
0.533996
0.456964
0.340233
0.484532
0.537672
0.321674
0.536738
0.53817
0.340628
0.33395
0.308454
0.257799
0.541369
0.324492
0.533022
0.387383
0.533183
0.495661
0.374815
0.510363
0.310826
0.47767
0.327891
0.532462
0.531963
0.233271
0.330939
0.340487
0.466131
0.553118
0.325782
0.30904
0.352382
0.453474
0.546985
0.255469
0.327308
0.524277
0.537098
0.527065
0.328618
0.331329
0.523094
0.532518
0.316192
0.331893
0.439046
0.550211
0.48832
0.312527
0.533642
0.534563
0.314081
0.537935
0.318939
0.539992
0.32001
0.355617
0.320198
0.276716
0.532754
0.337803
0.324753
0.33521
0.334181
0.479542
0.530035
0.550518
0.319442
0.533127
0.534692
0.534495
0.547831
0.532395
0.548213
0.550046
0.548721
0.538566
0.531584
0.286997
0.483854
0.550118
0.324539
0.540537
0.544959
0.536127
0.5348
0.319
0.542431
0.533113
0.535777
0.337483
0.502323
0.528941
0.53303
0.529278
0.325056
0.485171
0.337811
0.416657
0.314331
0.314437
0.312159
0.327454
0.533651
0.534258
0.521063
0.31733
0.534264
0.533347
0.537074
0.327124
0.336566
0.517336
0.309632
0.318361
0.301749
0.536464
0.422136
0.534182
0.300152
0.546342
0.532355
0.453335
0.539599
0.321778
0.550545
0.535
0.512019
0.538975
0.533256
0.519157
0.323744
0.352049
0.338762
0.532495
0.310578
0.53465
0.519093
0.489015
0.335336
0.346715
0.483537
0.540893
0.532798
0.334398
0.524055
0.478166
0.257161
0.533695
0.329696
0.330228
0.310787
0.326753
0.308022
0.539342
0.535106
0.552888
0.441335
0.532711
0.53275
0.515971
0.533489
0.546906
0.549069
0.532373
0.532572
0.330858
0.532911
0.527012
0.426118
0.322038
0.502763
0.297772
0.536892
0.367955
0.539382
0.546066
0.334887
0.537004
0.335546
0.533563
0.530502
0.547803
0.488967
0.515913
0.545834
0.532618
0.344091
0.445949
0.422525
0.246229
0.533867
0.537687
0.43713
0.551779
0.525406
0.532902
0.299376
0.325801
0.527258
0.546602
0.330901
0.215749
0.512722
0.533396
0.534248
0.272042
0.451912
0.51167
0.531601
0.323719
0.533358
0.484906
0.525269
0.505988
0.439219
0.533323
0.295305
0.530317
0.319094
0.303767
0.533528
0.350721
0.351334
0.323469
0.524634
0.507036
0.439333
0.533272
0.431884
0.376814
0.321113
0.542307
0.53133
0.54005
0.490244
0.251592
0.521189
0.434472
0.317907
0.531015
0.538053
0.331452
0.535721
0.528169
0.532975
0.448606
0.532353
0.361846
0.533926
0.530107
0.532817
0.312483
0.525146
0.383292
0.509008
0.532406
0.544683
0.529602
0.533763
0.534266
0.531883
0.516457
0.314429
0.541406
0.511235
0.34594
0.494599
0.536144
0.551762
0.495641
0.319282
0.531322
0.337855
0.545964
0.490194
0.53739
0.335433
0.512501
0.533967
0.533239
0.525151
0.475298
0.533202
0.465395
0.388239
0.322844
0.28453
0.532956
0.339482
0.290714
0.537173
0.332849
0.543932
0.312805
0.535273
0.329807
0.333905
0.520411
0.395527
0.29874
0.527514
0.532058
0.537985
0.315499
0.504018
0.533204
0.530794
0.323992
0.533199
0.53393
0.323992
0.479577
0.461558
0.523352
0.349798
0.392568
0.510417
0.31385
0.538828
0.339889
0.336369
0.532636
0.387827
0.504615
0.329752
0.539497
0.42314
0.533224
0.194786
0.33331
0.53274
0.358983
0.533203
0.341627
0.534184
0.477473
0.467972
0.533249
0.501255
0.243131
0.534584
0.549513
0.530139
0.5332
0.303021
0.336929
0.336403
0.337192
0.532738
0.350999
0.513262
0.321684
0.531852
0.533811
0.532691
0.32513
0.534146
0.327303
0.53365
0.541078
0.367129
0.532661
0.51753
0.321106
0.519384
0.309464
0.345309
0.55033
0.335816
0.543457
0.225355
0.341402
0.510746
0.37319
0.53886
0.325648
0.461782
0.532016
0.529333
0.385721
0.25343
0.32468
0.532981
0.533124
0.342946
0.534655
0.317961
0.531844
0.322959
0.331677
0.464403
0.473899
0.420318
0.49215
0.533302
0.49396
0.473029
0.535255
0.532797
0.338147
0.534122
0.364325
0.358549
0.49332
0.409137
0.395758
0.442934
0.332093
0.51248
0.533299
0.536192
0.324527
0.332069
0.443658
0.506567
0.53373
0.546345
0.324994
0.498499
0.531409
0.503382
0.442212
0.32364
0.319909
0.336099
0.556207
0.536553
0.302763
0.313901
0.437123
0.325115
0.550136
0.513291
0.329311
0.532962
0.406366
0.54028
0.535625
0.327945
0.36884
0.504316
0.33328
0.395655
0.531891
0.277044
0.32905
0.327376
0.507787
0.536244
0.506324
0.341787
0.32507
0.52933
0.53444
0.491878
0.538632
0.326238
0.334802
0.343943
0.497933
0.298175
0.334914
0.537224
0.541692
0.513173
0.320333
0.342544
0.345599
0.533335
0.306411
0.532626
0.533126
0.529183
0.430397
0.532421
0.550123
0.331875
0.325619
0.535065
0.330725
0.467248
0.524427
0.541757
0.436058
0.308201
0.291127
0.541542
0.405533
0.304669
0.53341
0.533308
0.298416
0.324342
0.512403
0.444272
0.329303
0.332609
0.540122
0.489852
0.526462
0.46624
0.349342
0.288257
0.347342
0.384298
0.308989
0.533128
0.527179
0.468989
0.508508
0.337252
0.501857
0.34198
0.532138
0.545999
0.33656
0.267023
0.528736
0.388857
0.471969
0.534296
0.315281
0.52987
0.528401
0.532498
0.533322
0.498829
0.368776
0.307535
0.319037
0.510447
0.533136
0.511343
0.444015
0.328044
0.305838
0.49351
0.330131
0.537716
0.532417
0.53211
0.339872
0.321781
0.463814
0.504733
0.533166
0.524588
0.533747
0.532925
0.535423
0.474494
0.254307
0.53306
0.494698
0.533868
0.331937
0.528447
0.424637
0.52686
0.55334
0.446148
0.491819
0.530539
0.5087
0.533185
0.326415
0.530652
0.551695
0.352347
0.501519
0.311066
0.305759
0.533121
0.533338
0.340072
0.483474
0.532586
0.346402
0.337654
0.551349
0.551155
0.471016
0.364977
0.496406
0.323385
0.542818
0.54989
0.32395
0.45289
0.49873
0.320326
0.324058
0.353397
0.536489
0.526198
0.324524
0.370408
0.342881
0.350938
0.345411
0.496739
0.324594
0.552279
0.534337
0.54133
0.332663
0.531743
0.439543
0.530967
0.446265
0.528335
0.326536
0.298453
0.330969
0.532642
0.335991
0.325827
0.493144
0.339297
0.533272
0.506724
0.42664
0.318143
0.319444
0.520623
0.535197
0.526281
0.52229
0.543316
0.327538
0.372516
0.31335
0.509139
0.534316
0.324585
0.511618
0.289249
0.345407
0.533651
0.334277
0.344188
0.242998
0.374783
0.334983
0.53394
0.530989
0.537182
0.335304
0.532418
0.542271
0.324486
0.533908
0.376929
0.539469
0.353222
0.391386
0.532213
0.325952
0.249688
0.528057
0.523203
0.322525
0.546535
0.497282
0.532187
0.400655
0.327241
0.501383
0.533356
0.364539
0.381483
0.420555
0.395921
0.533609
0.343066
0.323273
0.54108
0.500971
0.354268
0.328377
0.53155
0.325433
0.298117
0.331509
0.454643
0.544867
0.33294
0.539502
0.326984
0.310809
0.344213
0.405522
0.341669
0.53895
0.332673
0.339577
0.481545
0.538317
0.358312
0.532881
0.327116
0.315993
0.508513
0.553327
0.523119
0.513543
0.516437
0.546506
0.326905
0.538843
0.29429
0.532893
0.525732
0.411366
0.525465
0.533096
0.532985
0.532866
0.436759
0.340604
0.429069
0.338564
0.49822
0.531202
0.498082
0.316641
0.535469
0.369112
0.532939
0.323804
0.304605
0.557567
0.304156
0.526858
0.553403
0.372249
0.338617
0.329672
0.532513
0.39481
0.249146
0.540494
0.324189
0.524766
0.346466
0.353252
0.323849
0.534626
0.391008
0.533352
0.325545
0.352245
0.533065
0.531609
0.282009
0.359288
0.271929
0.481803
0.330649
0.520097
0.529535
0.532993
0.236455
0.334311
0.450905
0.530105
0.548998
0.531535
0.309139
0.511387
0.536983
0.532914
0.533285
0.330169
0.519618
0.323014
0.442017
0.541787
0.536719
0.528753
0.545679
0.490157
0.53093
0.544145
0.532174
0.521424
0.535926
0.53275
0.535144
0.326831
0.325044
0.533868
0.475488
0.533317
0.533193
0.54912
0.520187
0.545371
0.341821
0.32438
0.53324
0.327254
0.322724
0.338562
0.532917
0.522554
0.533187
0.506543
0.52102
0.322226
0.537818
0.324668
0.322711
0.546
0.523841
0.523181
0.400656
0.395837
0.336503
0.32456
0.389268
0.313609
0.362545
0.543987
0.306243
0.530271
0.334075
0.539335
0.532003
0.282494
0.339844
0.493212
0.533259
0.331802
0.508076
0.268254
0.318144
0.32771
0.450605
0.534653
0.533141
0.533802
0.221732
0.34649
0.283735
0.343291
0.533179
0.54763
0.538017
0.344346
0.324819
0.532515
0.531782
0.535934
0.317656
0.479187
0.465596
0.543351
0.431613
0.362357
0.341168
0.329662
0.534581
0.332869
0.328304
0.533159
0.319621
0.533897
0.344617
0.37202
0.400714
0.337013
0.545863
0.533199
0.533875
0.443713
0.555828
0.510301
0.469572
0.326726
0.507792
0.530308
0.509428
0.535882
0.531793
0.539657
0.425115
0.531483
0.534845
0.379035
0.335831
0.549762
0.402621
0.532481
0.343964
0.54681
0.37225
0.525267
0.534098
0.507441
0.532079
0.539005
0.514506
0.313841
0.334771
0.537024
0.547467
0.532263
0.435388
0.544318
0.448577
0.494748
0.532426
0.472315
0.45974
0.539979
0.533083
0.337028
0.324026
0.534
0.500711
0.32517
0.35019
0.425256
0.533173
0.533166
0.55121
0.344643
0.523227
0.313892
0.535603
0.321772
0.545037
0.281705
0.550075
0.352393
0.531345
0.446058
0.324971
0.292136
0.471778
0.335713
0.478839
0.323852
0.533406
0.533152
0.529738
0.522942
0.533428
0.534421
0.532535
0.550521
0.540902
0.499415
0.51514
0.492102
0.538199
0.336195
0.500815
0.498216
0.531295
0.323437
0.496146
0.545573
0.532802
0.342547
0.318566
0.343785
0.544465
0.494931
0.320717
0.498158
0.391405
0.533502
0.312752
0.413235
0.329514
0.303596
0.553753
0.318737
0.507439
0.326532
0.551814
0.356995
0.533407
0.502678
0.5282
0.347288
0.347668
0.351166
0.514514
0.32341
0.341753
0.333026
0.539953
0.515779
0.545261
0.520883
0.531109
0.509071
0.375975
0.346012
0.529509
0.32393
0.451264
0.526051
0.550926
0.202868
0.294973
0.520729
0.532666
0.409457
0.524868
0.534721
0.518018
0.342215
0.542978
0.518607
0.530624
0.532361
0.322557
0.53318
0.32753
0.531028
0.542107
0.503784
0.531968
0.356022
0.536797
0.218919
0.355767
0.495776
0.506988
0.527787
0.451845
0.332583
0.530936
0.535394
0.321444
0.329849
0.304376
0.54974
0.332716
0.288734
0.334417
0.335547
0.317029
0.370955
0.542801
0.307946
0.539051
0.522395
0.325426
0.534899
0.309796
0.54871
0.306312
0.455534
0.316251
0.524932
0.53412
0.39946
0.495534
0.5333
0.52118
0.314931
0.476493
0.432102
0.319819
0.320258
0.405249
0.284606
0.544522
0.276529
0.305726
0.331361
0.533125
0.527154
0.321816
0.333525
0.545353
0.328086
0.328494
0.533014
0.324139
0.312184
0.362113
0.552902
0.502601
0.545309
0.336459
0.290868
0.538234
0.518296
0.532655
0.39715
0.504637
0.528488
0.416939
0.404168
0.331632
0.314754
0.23899
0.493812
0.254827
0.547382
0.512197
0.532155
0.339361
0.412967
0.420725
0.55896
0.311821
0.483176
0.238109
0.490797
0.323967
0.281983
0.296121
0.537108
0.32968
0.551974
0.350266
0.382794
0.325147
0.46907
0.325775
0.54356
0.330118
0.501483
0.486046
0.331281
0.533876
0.533861
0.292066
0.54858
0.351995
0.331274
0.542576
0.314873
0.515611
0.396003
0.220548
0.532263
0.313763
0.357548
0.348003
0.361733
0.323861
0.513679
0.438383
0.523317
0.547329
0.529137
0.543168
0.411225
0.537336
0.309277
0.534392
0.329398
0.525258
0.328705
0.393173
0.522397
0.549276
0.534515
0.35731
0.433056
0.323518
0.352422
0.353448
0.221987
0.536337
0.409296
0.547316
0.532272
0.484793
0.538814
0.534087
0.397657
0.325616
0.361659
0.541398
0.487456
0.501759
0.533875
0.55181