# vtk DataFile Version 1.0
unstructured grid
ascii
DATASET UNSTRUCTURED_GRID
points 3226 float
0.0796578 -0.059106 0
0.00128732 0.00159165 0
0.00227961 -0.00102548 0
0.0791586 -0.0598787 0
-0.0546216 0.01 0
0.000495206 0.025 0
0.0800549 -0.035 0
0.135172 -0.08 0
-0.0546216 -0.0451168 0
0.000495206 -0.0301168 0
0.0800549 -0.0901168 0
0.135172 -0.135117 0
-0.0546216 -0.0451168 -0.00551168
0.000495206 -0.0301168 -0.00551168
0.0800549 -0.0901168 -0.00551168
0.135172 -0.135117 -0.00551168
0.135172 -0.08 -0.00551168
0.0800549 -0.035 -0.00551168
0.000495206 0.025 -0.00551168
-0.0546216 0.01 -0.00551168
0.00128732 0.00159165 -0.00551168
0.00227961 -0.00102548 -0.00551168
0.0791586 -0.0598787 -0.00551168
0.0796578 -0.059106 -0.00551168
0.00110182 -0.000823821 0
0.000571683 -0.000188043 0
0.000561313 0.000639162 0
0.00189316 0.00207203 0
0.00260228 0.00255358 0
0.0033966 0.00307293 0
0.00428861 0.00362634 0
0.00529726 0.0041979 0
0.00644092 0.00476696 0
0.00773158 0.0053187 0
0.00918011 0.00583593 0
0.010799 0.00628751 0
0.012597 0.00663225 0
0.0145725 0.0068517 0
0.0167206 0.0069338 0
0.0190349 0.00685819 0
0.0215031 0.00658621 0
0.0241038 0.00607459 0
0.026821 0.00533786 0
0.0296245 0.00434523 0
0.0324763 0.00306927 0
0.0353199 0.00146906 0
0.0381488 -0.00039338 0
0.0409131 -0.00252802 0
0.0435632 -0.00493276 0
0.0460882 -0.0075571 0
0.0484881 -0.0103478 0
0.0506782 -0.0133217 0
0.0526651 -0.016422 0
0.0546139 -0.0195019 0
0.0565301 -0.022529 0
0.0584009 -0.0254846 0
0.0602154 -0.0283513 0
0.061964 -0.031114 0
0.0636389 -0.0337601 0
0.0652336 -0.0362795 0
0.0667431 -0.0386651 0
0.0681656 -0.0409111 0
0.0694983 -0.0430158 0
0.0707356 -0.0449823 0
0.071886 -0.0468071 0
0.0729575 -0.04849 0
0.0739438 -0.0500408 0
0.0748444 -0.0514675 0
0.0756707 -0.0527715 0
0.0764313 -0.053958 0
0.0771224 -0.0550398 0
0.0777384 -0.0560288 0
0.0782803 -0.0569318 0
0.0787691 -0.0577448 0
0.0792251 -0.0584672 0
0.0800494 -0.0597378 0
0.0797987 -0.0601582 0
0.0786655 -0.059391 0
0.0781259 -0.0588425 0
0.0775539 -0.0582102 0
0.0769587 -0.0574783 0
0.0763492 -0.0566339 0
0.075723 -0.0556725 0
0.0750452 -0.0546094 0
0.0742996 -0.0534457 0
0.073478 -0.0521785 0
0.072577 -0.0508019 0
0.0715904 -0.049313 0
0.0705098 -0.047712 0
0.069328 -0.0459996 0
0.0680378 -0.0441794 0
0.066632 -0.0422571 0
0.0651046 -0.0402413 0
0.0634508 -0.0381431 0
0.0616683 -0.0359754 0
0.0597581 -0.033753 0
0.0577255 -0.0314906 0
0.0555808 -0.0292024 0
0.0533388 -0.0269013 0
0.0510024 -0.0246151 0
0.0485693 -0.0223811 0
0.0460535 -0.0202228 0
0.0434788 -0.0181535 0
0.0408704 -0.0161833 0
0.0382442 -0.0143327 0
0.0356165 -0.0126209 0
0.0330065 -0.0110594 0
0.0304368 -0.00965062 0
0.0279338 -0.00838121 0
0.0255194 -0.00723697 0
0.0231965 -0.00623664 0
0.020983 -0.00535765 0
0.0188891 -0.00458677 0
0.0169193 -0.00391673 0
0.0150754 -0.00334068 0
0.0133572 -0.00285262 0
0.0117634 -0.0024437 0
0.0102912 -0.00210643 0
0.0089363 -0.00183343 0
0.00769424 -0.00161552 0
0.00655956 -0.00144452 0
0.00552632 -0.00131235 0
0.00458815 -0.00121216 0
0.00373885 -0.00113394 0
0.00297202 -0.00106855 0
-0.0506847 -0.0440454 0
-0.0467478 -0.0429739 0
-0.0428108 -0.0419025 0
-0.0388739 -0.0408311 0
-0.034937 -0.0397597 0
-0.0310001 -0.0386882 0
-0.0270632 -0.0376168 0
-0.0231263 -0.0365454 0
-0.0191894 -0.0354739 0
-0.0152525 -0.0344025 0
-0.0113155 -0.0333311 0
-0.00737862 -0.0322597 0
-0.00344171 -0.0311882 0
0.0038716 -0.0298185 0
0.00726082 -0.0297726 0
0.010644 -0.0299802 0
0.0140027 -0.0304367 0
0.0173201 -0.0311326 0
0.0205821 -0.0320541 0
0.0237776 -0.0331851 0
0.0268988 -0.0345078 0
0.0299406 -0.0360041 0
0.0329005 -0.0376567 0
0.035778 -0.039449 0
0.038574 -0.0413659 0
0.0412905 -0.043394 0
0.0439303 -0.0455212 0
0.0464964 -0.0477367 0
0.0489922 -0.0500312 0
0.051421 -0.0523964 0
0.0537863 -0.0548252 0
0.0560914 -0.0573112 0
0.0583395 -0.0598489 0
0.0605336 -0.0624334 0
0.0626765 -0.0650605 0
0.064771 -0.0677264 0
0.0668197 -0.0704277 0
0.0688248 -0.0731615 0
0.0707885 -0.0759252 0
0.072713 -0.0787163 0
0.0746002 -0.0815329 0
0.0764517 -0.0843729 0
0.0782695 -0.0872347 0
0.0829558 -0.0924852 0
0.0858567 -0.0948536 0
0.0887575 -0.0972221 0
0.0916584 -0.0995905 0
0.0945593 -0.101959 0
0.0974602 -0.104327 0
0.100361 -0.106696 0
0.103262 -0.109064 0
0.106163 -0.111433 0
0.109064 -0.113801 0
0.111965 -0.116169 0
0.114865 -0.118538 0
0.117766 -0.120906 0
0.120667 -0.123275 0
0.123568 -0.125643 0
0.126469 -0.128012 0
0.12937 -0.13038 0
0.132271 -0.132748 0
0.135172 -0.13118 0
0.135172 -0.127243 0
0.135172 -0.123306 0
0.135172 -0.119369 0
0.135172 -0.115432 0
0.135172 -0.111495 0
0.135172 -0.107558 0
0.135172 -0.103621 0
0.135172 -0.0996846 0
0.135172 -0.0957477 0
0.135172 -0.0918107 0
0.135172 -0.0878738 0
0.135172 -0.0839369 0
0.132271 -0.0776316 0
0.12937 -0.0752632 0
0.126469 -0.0728947 0
0.123568 -0.0705263 0
0.120667 -0.0681579 0
0.117766 -0.0657895 0
0.114865 -0.0634211 0
0.111965 -0.0610526 0
0.109064 -0.0586842 0
0.106163 -0.0563158 0
0.103262 -0.0539474 0
0.100361 -0.0515789 0
0.0974602 -0.0492105 0
0.0945593 -0.0468421 0
0.0916584 -0.0444737 0
0.0887575 -0.0421053 0
0.0858567 -0.0397368 0
0.0829558 -0.0373684 0
0.0782695 -0.0321179 0
0.0764517 -0.0292561 0
0.0746002 -0.026416 0
0.072713 -0.0235995 0
0.0707885 -0.0208084 0
0.0688248 -0.0180447 0
0.0668197 -0.0153109 0
0.064771 -0.0126096 0
0.0626765 -0.00994373 0
0.0605336 -0.00731663 0
0.0583395 -0.00473208 0
0.0560914 -0.00219437 0
0.0537863 0.000291632 0
0.051421 0.00272041 0
0.0489922 0.00508564 0
0.0464964 0.00738012 0
0.0439303 0.00959562 0
0.0412905 0.0117228 0
0.038574 0.0137509 0
0.035778 0.0156678 0
0.0329005 0.0174601 0
0.0299406 0.0191127 0
0.0268988 0.020609 0
0.0237776 0.0219317 0
0.0205821 0.0230627 0
0.0173201 0.0239842 0
0.0140027 0.0246801 0
0.010644 0.0251366 0
0.00726082 0.0253442 0
0.0038716 0.0252983 0
-0.00344171 0.0239286 0
-0.00737862 0.0228571 0
-0.0113155 0.0217857 0
-0.0152525 0.0207143 0
-0.0191894 0.0196429 0
-0.0231263 0.0185714 0
-0.0270632 0.0175 0
-0.0310001 0.0164286 0
-0.034937 0.0153571 0
-0.0388739 0.0142857 0
-0.0428108 0.0132143 0
-0.0467478 0.0121429 0
-0.0506847 0.0110714 0
-0.0546216 0.00606309 0
-0.0546216 0.00212617 0
-0.0546216 -0.00181074 0
-0.0546216 -0.00574766 0
-0.0546216 -0.00968457 0
-0.0546216 -0.0136215 0
-0.0546216 -0.0175584 0
-0.0546216 -0.0214953 0
-0.0546216 -0.0254322 0
-0.0546216 -0.0293691 0
-0.0546216 -0.0333061 0
-0.0546216 -0.037243 0
-0.0546216 -0.0411799 0
-0.0506847 -0.0440454 -0.00551168
-0.0467478 -0.0429739 -0.00551168
-0.0428108 -0.0419025 -0.00551168
-0.0388739 -0.0408311 -0.00551168
-0.034937 -0.0397597 -0.00551168
-0.0310001 -0.0386882 -0.00551168
-0.0270632 -0.0376168 -0.00551168
-0.0231263 -0.0365454 -0.00551168
-0.0191894 -0.0354739 -0.00551168
-0.0152525 -0.0344025 -0.00551168
-0.0113155 -0.0333311 -0.00551168
-0.00737862 -0.0322597 -0.00551168
-0.00344171 -0.0311882 -0.00551168
0.0038716 -0.0298185 -0.00551168
0.00726082 -0.0297726 -0.00551168
0.010644 -0.0299802 -0.00551168
0.0140027 -0.0304367 -0.00551168
0.0173201 -0.0311326 -0.00551168
0.0205821 -0.0320541 -0.00551168
0.0237776 -0.0331851 -0.00551168
0.0268988 -0.0345078 -0.00551168
0.0299406 -0.0360041 -0.00551168
0.0329005 -0.0376567 -0.00551168
0.035778 -0.039449 -0.00551168
0.038574 -0.0413659 -0.00551168
0.0412905 -0.043394 -0.00551168
0.0439303 -0.0455212 -0.00551168
0.0464964 -0.0477367 -0.00551168
0.0489922 -0.0500312 -0.00551168
0.051421 -0.0523964 -0.00551168
0.0537863 -0.0548252 -0.00551168
0.0560914 -0.0573112 -0.00551168
0.0583395 -0.0598489 -0.00551168
0.0605336 -0.0624334 -0.00551168
0.0626765 -0.0650605 -0.00551168
0.064771 -0.0677264 -0.00551168
0.0668197 -0.0704277 -0.00551168
0.0688248 -0.0731615 -0.00551168
0.0707885 -0.0759252 -0.00551168
0.072713 -0.0787163 -0.00551168
0.0746002 -0.0815329 -0.00551168
0.0764517 -0.0843729 -0.00551168
0.0782695 -0.0872347 -0.00551168
0.0829558 -0.0924852 -0.00551168
0.0858567 -0.0948536 -0.00551168
0.0887575 -0.0972221 -0.00551168
0.0916584 -0.0995905 -0.00551168
0.0945593 -0.101959 -0.00551168
0.0974602 -0.104327 -0.00551168
0.100361 -0.106696 -0.00551168
0.103262 -0.109064 -0.00551168
0.106163 -0.111433 -0.00551168
0.109064 -0.113801 -0.00551168
0.111965 -0.116169 -0.00551168
0.114865 -0.118538 -0.00551168
0.117766 -0.120906 -0.00551168
0.120667 -0.123275 -0.00551168
0.123568 -0.125643 -0.00551168
0.126469 -0.128012 -0.00551168
0.12937 -0.13038 -0.00551168
0.132271 -0.132748 -0.00551168
0.135172 -0.13118 -0.00551168
0.135172 -0.127243 -0.00551168
0.135172 -0.123306 -0.00551168
0.135172 -0.119369 -0.00551168
0.135172 -0.115432 -0.00551168
0.135172 -0.111495 -0.00551168
0.135172 -0.107558 -0.00551168
0.135172 -0.103621 -0.00551168
0.135172 -0.0996846 -0.00551168
0.135172 -0.0957477 -0.00551168
0.135172 -0.0918107 -0.00551168
0.135172 -0.0878738 -0.00551168
0.135172 -0.0839369 -0.00551168
0.132271 -0.0776316 -0.00551168
0.12937 -0.0752632 -0.00551168
0.126469 -0.0728947 -0.00551168
0.123568 -0.0705263 -0.00551168
0.120667 -0.0681579 -0.00551168
0.117766 -0.0657895 -0.00551168
0.114865 -0.0634211 -0.00551168
0.111965 -0.0610526 -0.00551168
0.109064 -0.0586842 -0.00551168
0.106163 -0.0563158 -0.00551168
0.103262 -0.0539474 -0.00551168
0.100361 -0.0515789 -0.00551168
0.0974602 -0.0492105 -0.00551168
0.0945593 -0.0468421 -0.00551168
0.0916584 -0.0444737 -0.00551168
0.0887575 -0.0421053 -0.00551168
0.0858567 -0.0397368 -0.00551168
0.0829558 -0.0373684 -0.00551168
0.0782695 -0.0321179 -0.00551168
0.0764517 -0.0292561 -0.00551168
0.0746002 -0.026416 -0.00551168
0.072713 -0.0235995 -0.00551168
0.0707885 -0.0208084 -0.00551168
0.0688248 -0.0180447 -0.00551168
0.0668197 -0.0153109 -0.00551168
0.064771 -0.0126096 -0.00551168
0.0626765 -0.00994373 -0.00551168
0.0605336 -0.00731663 -0.00551168
0.0583395 -0.00473208 -0.00551168
0.0560914 -0.00219437 -0.00551168
0.0537863 0.000291632 -0.00551168
0.051421 0.00272041 -0.00551168
0.0489922 0.00508564 -0.00551168
0.0464964 0.00738012 -0.00551168
0.0439303 0.00959562 -0.00551168
0.0412905 0.0117228 -0.00551168
[...]
CELL_DATA 2965
SCALARS rho float
LOOKUP_TABLE default
0.535702
0.301274
0.524382
0.354218
0.543094
0.309949
0.536353
0.314038
0.30181
0.525779
0.359807
0.333857
0.430974
0.537319
0.518842
0.516896
0.52679
0.515332
0.545533
0.529009
0.536092
0.325388
0.50704
0.531456
0.536292
0.54664
0.455597
0.483486
0.353798
0.503132
0.503058
0.309163
0.553664
0.529263
0.28381
0.312518
0.5286
0.534072
0.316294
0.50552
0.529536
0.50264
0.536001
0.322025
0.284082
0.53301
0.462203
0.473613
0.319096
0.536901
0.387089
0.323929
0.296267
0.425261
0.344619
0.420134
0.305695
0.351213
0.275018
0.479216
0.515639
0.479725
0.33548
0.544835
0.48676
0.535424
0.536639
0.324639
0.296627
0.31197
0.518034
0.544206
0.536686
0.26707
0.499226
0.413538
0.534927
0.323814
0.332762
0.469072
0.536793
0.331825
0.316374
0.441251
0.480647
0.374286
0.295731
0.279551
0.538857
0.306407
0.315732
0.533091
0.518522
0.514032
0.53605
0.307043
0.462082
0.259967
0.299283
0.338293
0.47415
0.33748
0.318326
0.281643
0.31275
0.528469
0.535183
0.306723
0.347379
0.535489
0.211415
0.396898
0.468239
0.494185
0.292106
0.278041
0.502395
0.459964
0.536767
0.331133
0.536869
0.23421
0.540659
0.541974
0.49175
0.399209
0.330655
0.465658
0.530969
0.262697
0.317344
0.42735
0.532164
0.309824
0.459222
0.313086
0.429961
0.516715
0.554616
0.542962
0.315309
0.515721
0.528016
0.329907
0.290957
0.546068
0.328987
0.542107
0.555592
0.314448
0.355261
0.36228
0.316385
0.329749
0.276671
0.275229
0.535974
0.531564
0.520379
0.534436
0.456493
0.464779
0.40626
0.542793
0.309643
0.536427
0.41693
0.322201
0.536619
0.536865
0.482277
0.307794
0.43551
0.519485
0.548047
0.42026
0.511987
0.356855
0.260334
0.416176
0.330232
0.260857
0.307144
0.303694
0.555542
0.536423
0.36176
0.324954
0.387118
0.341167
0.313994
0.3523
0.456105
0.302747
0.536792
0.463709
0.534467
0.487527
0.439907
0.328964
0.321828
0.29255
0.527742
0.445554
0.536844
0.280593
0.428913
0.53674
0.517998
0.53484
0.497069
0.399975
0.309485
0.316466
0.506741
0.330406
0.463106
0.306212
0.516617
0.347578
0.302375
0.325283
0.458539
0.381591
0.544491
0.245384
0.537032
0.522148
0.320715
0.47828
0.345125
0.25935
0.536432
0.30479
0.533861
0.536747
0.340369
0.530547
0.356475
0.35342
0.371368
0.365043
0.544058
0.522251
0.329135
0.224238
0.52569
0.536366
0.451954
0.505855
0.329831
0.337833
0.535929
0.300542
0.476037
0.272433
0.25637
0.536872
0.534505
0.321702
0.468475
0.328636
0.543542
0.311394
0.534679
0.536628
0.26625
0.472049
0.521055
0.286667
0.340792
0.5338
0.333505
0.551236
0.510695
0.318074
0.514455
0.514023
0.551353
0.531423
0.546562
0.46812
0.529487
0.535985
0.332946
0.30837
0.517366
0.539344
0.322759
0.5311
0.461251
0.25041
0.318367
0.304761
0.477288
0.311247
0.534833
0.480038
0.547835
0.340431
0.483348
0.48756
0.477985
0.53508
0.350772
0.233655
0.545519
0.535554
0.535134
0.323298
0.329434
0.482256
0.264004
0.290505
0.484534
0.536854
0.485937
0.203553
0.332848
0.484798
0.491029
0.32879
0.537387
0.536814
0.330304
0.421145
0.533293
0.514583
0.268849
0.343724
0.536768
0.304652
0.538468
0.363851
0.540542
0.39338
0.374426
0.31029
0.329886
0.304763
0.509732
0.547193
0.525934
0.543417
0.486752
0.472433
0.294753
0.535805
0.547877
0.322317
0.347367
0.536904
0.320433
0.516155
0.470811
0.313016
0.35698
0.312249
0.338913
0.536821
0.313385
0.328643
0.377468
0.329702
0.534242
0.535601
0.469412
0.53533
0.342156
0.529142
0.32493
0.537035
0.349446
0.324285
0.535675
0.470431
0.258332
0.260473
0.532234
0.363514
0.499956
0.514442
0.348688
0.530808
0.28554
0.320233
0.53741
0.281675
0.53646
0.278157
0.377442
0.314395
0.536659
0.468611
0.434959
0.534345
0.304664
0.547131
0.347245
0.309336
0.549986
0.271556
0.539898
0.419508
0.489527
0.287411
0.300083
0.313482
0.283593
0.3128
0.315999
0.529156
0.535274
0.53653
0.536919
0.305553
0.539156
0.465373
0.518247
0.244409
0.534114
0.306425
0.484691
0.475623
0.29421
0.536831
0.357807
0.521946
0.285428
0.488528
0.535016
0.271491
0.531265
0.250535
0.538504
0.312406
0.345745
0.414705
0.54448
0.541347
0.401092
0.252732
0.24395
0.418392
0.543508
0.527578
0.533949
0.531255
0.537949
0.350035
0.513119
0.485778
0.339903
0.244162
0.284387
0.49763
0.537494
0.364247
0.381143
0.371117
0.312722
0.528233
0.53624
0.536748
0.549707
0.399346
0.534313
0.537278
0.328934
0.540259
0.346521
0.34789
0.528296
0.537483
0.53759
0.546016
0.351955
0.340178
0.553634
0.53072
0.338775
0.529728
0.502791
0.536781
0.310756
0.298913
0.537455
0.334252
0.453758
0.537375
0.537283
0.329784
0.534862
0.338834
0.313956
0.319588
0.356505
0.535009
0.362061
0.516843
0.292572
0.326674
0.52634
0.320002
0.29619
0.334251
0.273185
0.35571
0.330163
0.320745
0.426498
0.440229
0.323382
0.302258
0.537102
0.336663
0.398481
0.533333
0.534027
0.489453
0.488532
0.440813
0.446909
0.277978
0.370056
0.533545
0.499406
0.249547
0.508078
0.230877
0.295023
0.271151
0.534055
0.550778
0.301926
0.494842
0.531888
0.283101
0.289139
0.541579
0.535714
0.351962
0.544189
0.382672
0.329674
0.541911
0.303649
0.458644
0.527279
0.404881
0.543076
0.335537
0.297151
0.537922
0.377434
0.322135
0.310552
0.298057
0.32641
0.534499
0.540178
0.522671
0.341823
0.249928
0.301979
0.303237
0.530121
0.230394
0.424569
0.302816
0.530843
0.532811
0.310667
0.536851
0.390872
0.488336
0.30811
0.52696
0.533176
0.555146
0.534337
0.536213
0.525481
0.306381
0.4284
0.300873
0.527984
0.30708
0.235119
0.532477
0.534836
0.534231
0.348485
0.332858
0.539882
0.54182
0.300698
0.535143
0.274183
0.318935
0.321249
0.554318
0.537854
0.522451
0.288585
0.309786
0.320686
0.341598
0.538293
0.536513
0.547026
0.342348
0.332869
0.455875
0.547939
0.544174
0.510342
0.535835
0.409945
0.536696
0.542319
0.515589
0.302488
0.536939
0.496684
0.536507
0.537481
0.546523
0.482903
0.37798
0.546096
0.314756
0.544682
0.534725
0.220994
0.536396
0.464708
0.535406
0.326558
0.354852
0.535353
0.296402
0.335669
0.549112
0.298413
0.415368
0.537741
0.295525
0.546892
0.323338
0.489427
0.532732
0.527884
0.499084
0.333241
0.328712
0.520855
0.441343
0.307198
0.479446
0.324954
0.536917
0.334462
0.463917
0.518145
0.536812
0.328553
0.493343
0.303185
0.411008
0.419927
0.2978
0.2796
0.333422
0.537105
0.458106
0.433257
0.315905
0.537014
0.489481
0.316347
0.536989
0.358454
0.458107
0.517725
0.537109
0.538071
0.297566
0.321145
0.535878
0.544552
0.52292
0.489273
0.543312
0.482249
0.468211
0.319779
0.503099
0.387664
0.348163
0.356351
0.535449
0.550314
0.505601
0.393051
0.341584
0.541115
0.318125
0.318651
0.410045
0.355473
0.458166
0.320582
0.536499
0.324445
0.306094
0.416821
0.545127
0.320755
0.322607
0.549724
0.543549
0.551689
0.285608
0.317148
0.539036
0.304229
0.315749
0.312964
0.435325
0.523716
0.266351
0.550794
0.328555
0.506889
0.534029
0.320919
0.417402
0.479062
0.501015
0.490066
0.54036
0.537955
0.545234
0.534732
0.536727
0.300999
0.383811
0.521186
0.267612
0.543775
0.524665
0.264397
0.531616
0.475315
0.506668
0.53957
0.466929
0.531469
0.325842
0.491809
0.308042
0.307726
0.535906
0.536451
0.243736
0.321741
0.531101
0.396446
0.457569
0.255773
0.248422
0.549406
0.515022
0.543839
0.510219
0.459576
0.381289
0.454703
0.307497
0.536745
0.504949
0.495396
0.313663
0.38071
0.544838
0.499767
0.53959
0.15511
0.536648
0.3272
0.320367
0.354824
0.51885
0.520441
0.54108
0.470194
0.303348
0.53688
0.386208
0.546463
0.547883
0.492939
0.362908
0.334736
0.536302
0.301231
0.427977
0.4769
0.329347
0.328267
0.516206
0.542645
0.346913
0.536898
0.533365
0.350719
0.536915
0.536715
0.538916
0.305888
0.306652
0.542645
0.322073
0.32019
0.408841
0.535435
0.293654
0.376169
0.341329
0.302088
0.538069
0.305106
0.362065
0.543002
0.337283
0.325964
0.550863
0.538502
0.535016
0.535855
0.490831
0.313509
0.552109
0.53429
0.341771
0.535789
0.532719
0.536527
0.536757
0.304564
0.535852
0.314644
0.536145
0.33454
0.535259
0.325034
0.51785
0.344061
0.540615
0.546082
0.551246
0.486236
0.536352
0.537016
0.301528
0.536329
0.277176
0.537156
0.53892
0.345946
0.405483
0.30049
0.366177
0.536941
0.364301
0.533558
0.127658
0.506162
0.50897
0.540722
0.40245
0.314306
0.260234
0.359916
0.270191
0.537788
0.367258
0.328485
0.537358
0.334038
0.366323
0.53243
0.532989
0.50147
0.535899
0.257413
0.486008
0.348191
0.53677
0.536753
0.525007
0.265873
0.540492
0.536218
0.541972
0.497576
0.533007
0.382663
0.536212
0.540971
0.447046
0.537231
0.31649
0.518525
0.305267
0.423761
0.519666
0.491238
0.530652
0.475674
0.488012
0.53806
0.320107
0.524438
0.364834
0.319679
0.54119
0.512921
0.480569
0.519488
0.531285
0.53674
0.537158
0.536807
0.537092
0.535891
0.552674
0.303176
0.50158
0.530779
0.342174
0.533994
0.280767
0.474192
0.309016
0.537148
0.33538
0.359277
0.296411
0.472455
0.537415
0.428435
0.515635
0.311844
0.316416
0.536501
0.533189
0.282812
0.499315
0.444844
0.340982
0.502669
0.315439
0.310743
0.534729
0.480446
0.323552
0.518612
0.532567
0.522337
0.330837
0.510586
0.257009
0.536279
0.386114
0.509655
0.303466
0.549115
0.298594
0.289099
0.356784
0.508713
0.319843
0.496292
0.547249
0.473727
0.308515
0.344546
0.542695
0.33795
0.231746
0.331563
0.537215
0.333004
0.298338
0.272242
0.499122
0.328735
0.317374
0.303829
0.534185
0.549466
0.318712
0.539001
0.538585
0.497186
0.336141
0.334839
0.534271
0.354402
0.555093
0.328745
0.529497
0.315724
0.160467
0.51426
0.363195
0.338684
0.33634
0.537128
0.318234
0.449742
0.537106
0.323026
0.516246
0.305884
0.55021
0.417293
0.351173
0.328613
0.536843
0.441159
0.53527
0.320865
0.305045
0.439593
0.537053
0.316586
0.308644
0.342261
0.414856
0.536971
0.306353
0.454945
0.531922
0.535796
0.524464
0.363784
0.535633
0.342441
0.534458
0.536344
0.463552
0.306934
0.485063
0.538389
0.345362
0.535635
0.53796
0.322264
0.340148
0.293864
0.260806
0.541035
0.333253
0.534572
0.38643
0.536873
0.495689
0.372622
0.511983
0.295032
0.481772
0.345237
0.534658
0.53305
0.224062
0.322468
0.320116
0.466755
0.55252
0.326865
0.292526
0.308433
0.451653
0.547212
0.239383
0.36084
0.525384
0.536799
0.528047
0.35652
0.306455
0.524226
0.535032
0.350766
0.316266
0.443029
0.550291
0.489416
0.310046
0.537202
0.537017
0.320466
0.5391
0.305321
0.539772
0.317238
0.353186
0.322804
0.274919
0.53482
0.317969
0.366269
0.322197
0.329425
0.482606
0.529831
0.550619
0.3325
0.536845
0.535529
0.536006
0.54768
0.533632
0.548338
0.550008
0.548623
0.538659
0.532962
0.272034
0.487473
0.548483
0.322072
0.540451
0.54528
0.537863
0.537087
0.303044
0.542395
0.536758
0.536682
0.325622
0.50002
0.530207
0.534713
0.529104
0.317033
0.48361
0.303603
0.415075
0.299461
0.300366
0.343224
0.336264
0.536664
0.533939
0.522154
0.324827
0.537333
0.536958
0.538458
0.344219
0.327008
0.518459
0.31093
0.315815
0.317934
0.536649
0.424614
0.537408
0.306642
0.546494
0.533395
0.460583
0.539754
0.300425
0.550493
0.537015
0.513471
0.539803
0.534105
0.51847
0.322385
0.305116
0.317354
0.534162
0.295966
0.534536
0.520118
0.4886
0.326175
0.311865
0.482861
0.540158
0.535829
0.325297
0.525175
0.47646
0.250989
0.537202
0.332706
0.327762
0.330156
0.319167
0.334769
0.540209
0.535947
0.552789
0.445795
0.532542
0.535815
0.515734
0.536564
0.547101
0.549022
0.534345
0.534222
0.337675
0.535577
0.527981
0.42465
0.360588
0.50514
0.280522
0.538307
0.374252
0.539369
0.546015
0.325168
0.536688
0.334223
0.534251
0.530067
0.547846
0.487911
0.517228
0.545468
0.535426
0.305116
0.444217
0.42312
0.246558
0.537325
0.538852
0.442344
0.551531
0.526563
0.534999
0.256606
0.365808
0.526925
0.54683
0.315913
0.197997
0.512615
0.534505
0.536586
0.27
0.458743
0.513221
0.532069
0.35654
0.537078
0.483676
0.524886
0.5049
0.444253
0.534074
0.278034
0.531311
0.320438
0.312146
0.536522
0.347748
0.351714
0.36547
0.525493
0.506053
0.446416
0.534979
0.437484
0.301761
0.32649
0.542878
0.532682
0.539889
0.489614
0.249935
0.522355
0.433304
0.320513
0.532252
0.536359
0.332807
0.537449
0.529192
0.536252
0.452131
0.534293
0.359943
0.537461
0.530211
0.535504
0.335301
0.524796
0.389491
0.508966
0.533213
0.545065
0.530871
0.535214
0.537474
0.53275
0.517687
0.327285
0.541791
0.510604
0.317428
0.494067
0.537799
0.551829
0.495367
0.329754
0.531202
0.325378
0.545834
0.493001
0.53669
0.339428
0.513829
0.534958
0.536384
0.524966
0.479023
0.536878
0.471179
0.38689
0.365309
0.282066
0.53613
0.307819
0.276693
0.537367
0.325429
0.54416
0.292221
0.535876
0.332159
0.339701
0.521582
0.394326
0.296779
0.525184
0.533686
0.537972
0.331686
0.503513
0.533756
0.531322
0.366429
0.536574
0.534386
0.349598
0.483102
0.467423
0.52447
0.297312
0.390472
0.509475
0.324263
0.538688
0.324409
0.324777
0.535378
0.386752
0.506632
0.343506
0.538909
0.429256
0.536693
0.197227
0.325251
0.535688
0.316242
0.536852
0.304894
0.53753
0.478654
0.470227
0.536851
0.501624
0.251614
0.537475
0.549518
0.531382
0.536394
0.280718
0.305449
0.312738
0.325261
0.535843
0.32089
0.512982
0.323812
0.532555
0.534728
0.535707
0.352544
0.537264
0.314498
0.534459
0.539893
0.340427
0.533948
0.512834
0.322497
0.518494
0.321562
0.309285
0.550336
0.333413
0.543686
0.223804
0.323246
0.512357
0.349454
0.538722
0.336284
0.46458
0.533817
0.529994
0.385369
0.244228
0.322392
0.536443
0.536777
0.323151
0.535459
0.333287
0.532139
0.365608
0.316595
0.469647
0.473555
0.421404
0.490283
0.53483
0.492708
0.477973
0.536135
0.534612
0.319079
0.535004
0.295013
0.317251
0.495658
0.408312
0.393646
0.441527
0.332505
0.512691
0.536917
0.53607
0.325696
0.308221
0.451764
0.506448
0.534946
0.546608
0.329792
0.499212
0.532379
0.501951
0.441049
0.334231
0.340966
0.325375
0.556289
0.537502
0.312596
0.275678
0.436089
0.359366
0.550163
0.512969
0.332591
0.536463
0.405068
0.540739
0.535858
0.362846
0.305099
0.506089
0.318777
0.393587
0.53299
0.27731
0.362384
0.334323
0.507392
0.536202
0.505996
0.325697
0.311491
0.529037
0.537109
0.494703
0.539636
0.330769
0.323932
0.336132
0.498408
0.303412
0.319645
0.538125
0.541354
0.512838
0.30634
0.311743
0.323013
0.536934
0.326424
0.533274
0.536219
0.529661
0.4328
0.532172
0.550074
0.329754
0.332272
0.53651
0.308425
0.465416
0.525603
0.542345
0.434272
0.310171
0.277923
0.541741
0.403911
0.316835
0.534387
0.5344
0.2956
0.345611
0.512087
0.447282
0.331863
0.2977
0.540657
0.489893
0.525865
0.469572
0.347214
0.275151
0.308685
0.384568
0.30703
0.536833
0.528321
0.473474
0.510233
0.303228
0.503645
0.30147
0.533383
0.546198
0.319641
0.265268
0.529756
0.38716
0.472181
0.536132
0.29847
0.530642
0.528151
0.534996
0.536735
0.495073
0.313817
0.339177
0.311641
0.509456
0.536482
0.510735
0.446557
0.337116
0.335913
0.494417
0.330354
0.538588
0.53402
0.532754
0.337654
0.342425
0.462083
0.504937
0.53678
0.524137
0.536922
0.534908
0.537496
0.477026
0.25266
0.536661
0.496337
0.534657
0.320248
0.529466
0.426092
0.526404
0.553155
0.445906
0.492444
0.5314
0.50882
0.536693
0.336111
0.530477
0.55122
0.314891
0.49981
0.296342
0.289642
0.536794
0.536789
0.299766
0.484683
0.535374
0.329396
0.3029
0.54882
0.550938
0.472721
0.340192
0.49653
0.325783
0.543357
0.549826
0.342203
0.459622
0.499061
0.326352
0.338439
0.315465
0.535142
0.523495
0.352646
0.286991
0.343467
0.319711
0.306329
0.496917
0.341237
0.552202
0.535606
0.542053
0.33518
0.533506
0.448218
0.531981
0.445328
0.52909
0.330503
0.296399
0.377949
0.533595
0.331973
0.342002
0.49211
0.309171
0.53683
0.506071
0.430159
0.329749
0.316526
0.520417
0.536611
0.527338
0.520223
0.541194
0.332223
0.310771
0.344525
0.508514
0.537178
0.331961
0.509898
0.305542
0.342766
0.537302
0.320311
0.305565
0.248738
0.375052
0.332853
0.537115
0.52703
0.537817
0.33272
0.533788
0.542851
0.353097
0.536937
0.374463
0.539993
0.304982
0.389583
0.533527
0.33912
0.243792
0.529218
0.522431
0.332324
0.546558
0.496056
0.533909
0.399271
0.310995
0.503793
0.534913
0.364673
0.309169
0.426006
0.401873
0.537283
0.325368
0.357397
0.541791
0.495108
0.307523
0.347981
0.532034
0.339497
0.285502
0.334231
0.453362
0.544968
0.32667
0.540271
0.316111
0.313563
0.305643
0.410791
0.316046
0.538687
0.335565
0.300721
0.479912
0.539197
0.355524
0.53618
0.33452
0.303468
0.509618
0.553071
0.522885
0.512636
0.515548
0.546437
0.348729
0.539679
0.277756
0.536113
0.526063
0.409869
0.525113
0.53562
0.53436
0.536023
0.44124
0.305345
0.427384
0.324263
0.495645
0.532009
0.498423
0.330563
0.535695
0.366669
0.536265
0.365592
0.327206
0.556777
0.28729
0.527939
0.553406
0.377133
0.324615
0.330378
0.535062
0.400255
0.254741
0.540508
0.30272
0.525305
0.307539
0.309595
0.293815
0.536065
0.394414
0.536265
0.36325
0.317356
0.533918
0.532879
0.28019
0.358052
0.285222
0.480158
0.310447
0.51963
0.530444
0.535554
0.234771
0.333427
0.452772
0.529505
0.548996
0.533173
0.292111
0.512371
0.537913
0.535233
0.536585
0.326137
0.520227
0.302537
0.450451
0.540622
0.537631
0.529693
0.545428
0.487401
0.532099
0.544568
0.533178
0.522088
0.536749
0.534064
0.537425
0.331559
0.304699
0.537083
0.479226
0.536296
0.537138
0.549126
0.51971
0.545631
0.317036
0.36697
0.536775
0.366392
0.36414
0.303633
0.534034
0.522238
0.536773
0.505178
0.520606
0.338651
0.538119
0.332727
0.339239
0.546238
0.524778
0.524312
0.398765
0.394057
0.319254
0.363173
0.389258
0.279237
0.36318
0.544389
0.305744
0.531284
0.332153
0.539906
0.532818
0.290366
0.303408
0.490811
0.536664
0.331196
0.509438
0.263066
0.320151
0.344106
0.449214
0.536464
0.53681
0.537132
0.222462
0.307182
0.278099
0.302617
0.536654
0.547453
0.538895
0.315654
0.347269
0.534655
0.533333
0.53686
0.299999
0.483823
0.463746
0.543829
0.429879
0.31539
0.339622
0.293494
0.53557
0.337927
0.358677
0.536497
0.288492
0.537389
0.306043
0.318609
0.398734
0.302231
0.545856
0.536782
0.537197
0.441949
0.554517
0.51103
0.473023
0.29811
0.507646
0.530724
0.50917
0.537771
0.532547
0.540255
0.423823
0.533094
0.537289
0.296627
0.338589
0.549422
0.402966
0.533367
0.317927
0.546952
0.348745
0.526318
0.537438
0.508651
0.53405
0.539258
0.515747
0.345855
0.325614
0.536446
0.547602
0.534442
0.437315
0.544585
0.455159
0.493299
0.534239
0.47437
0.466449
0.540726
0.536086
0.298753
0.331002
0.536998
0.500787
0.32252
0.30949
0.423584
0.536796
0.537012
0.551137
0.328866
0.524319
0.29626
0.536821
0.323442
0.544886
0.266179
0.550067
0.315255
0.530689
0.444861
0.354233
0.284231
0.474113
0.313003
0.481316
0.3245
0.536073
0.536783
0.530267
0.51998
0.535369
0.535321
0.534457
0.550241
0.541368
0.501731
0.51427
0.490978
0.538661
0.319
0.499465
0.496839
0.532211
0.290686
0.497524
0.545773
0.534701
0.31842
0.305489
0.317368
0.54404
0.493328
0.306478
0.500746
0.390629
0.537194
0.325756
0.414586
0.299314
0.317303
0.553751
0.316723
0.506528
0.319597
0.551602
0.302582
0.536183
0.502753
0.529134
0.312932
0.307223
0.348921
0.515689
0.32538
0.339507
0.324234
0.540734
0.51418
0.545296
0.522071
0.530676
0.509757
0.383558
0.306853
0.530468
0.365696
0.450606
0.52696
0.550876
0.203388
0.27489
0.520117
0.534485
0.410087
0.524116
0.534642
0.519031
0.313955
0.543437
0.519865
0.528795
0.532425
0.320471
0.536831
0.319537
0.532546
0.542547
0.505274
0.533338
0.353615
0.538109
0.21733
0.361109
0.495724
0.5066
0.528836
0.449987
0.311761
0.531849
0.536238
0.315411
0.328682
0.286892
0.549747
0.298605
0.262351
0.318219
0.310587
0.318423
0.368536
0.543285
0.312474
0.538846
0.522668
0.326153
0.535111
0.342071
0.548678
0.311898
0.461897
0.305776
0.524197
0.537132
0.404292
0.497438
0.534519
0.520374
0.333759
0.47981
0.434989
0.337466
0.314909
0.403456
0.270091
0.544525
0.248736
0.340923
0.328667
0.536769
0.528214
0.325277
0.31683
0.545657
0.317506
0.302265
0.536582
0.3214
0.28865
0.334594
0.553021
0.502381
0.543245
0.325234
0.298721
0.538908
0.517784
0.534538
0.397556
0.506625
0.528691
0.416383
0.402221
0.341952
0.299461
0.236919
0.494858
0.244334
0.547504
0.511992
0.533078
0.312491
0.414863
0.418978
0.556095
0.295696
0.485708
0.23621
0.493274
0.326919
0.284275
0.280651
0.538003
0.312768
0.552174
0.308475
0.381012
0.307171
0.472744
0.300853
0.543939
0.293039
0.502413
0.488796
0.343379
0.536849
0.536477
0.272768
0.548688
0.30522
0.32752
0.543098
0.29701
0.515192
0.303115
0.200148
0.534005
0.327995
0.354961
0.307046
0.300917
0.31352
0.513518
0.440998
0.51947
0.547419
0.528481
0.543668
0.415898
0.538603
0.292329
0.53749
0.316839
0.526295
0.346839
0.392701
0.521711
0.549267
0.535599
0.354548
0.442121
0.305677
0.313861
0.305446
0.220061
0.537194
0.413795
0.54749
0.533759
0.48685
0.53839
0.535824
0.396693
0.297126
0.359333
0.541374
0.488293
0.503603
0.537218
0.551457
0.418376
0.305863
0.34175