# vtk DataFile Version 1.0
unstructured grid
ascii
DATASET UNSTRUCTURED_GRID
points 3226 float
0.0796578 -0.059106 0
0.00128732 0.00159165 0
0.00227961 -0.00102548 0
0.0791586 -0.0598787 0
-0.0546216 0.01 0
0.000495206 0.025 0
0.0800549 -0.035 0
0.135172 -0.08 0
-0.0546216 -0.0451168 0
0.000495206 -0.0301168 0
0.0800549 -0.0901168 0
0.135172 -0.135117 0
-0.0546216 -0.0451168 -0.00551168
0.000495206 -0.0301168 -0.00551168
0.0800549 -0.0901168 -0.00551168
0.135172 -0.135117 -0.00551168
0.135172 -0.08 -0.00551168
0.0800549 -0.035 -0.00551168
0.000495206 0.025 -0.00551168
-0.0546216 0.01 -0.00551168
0.00128732 0.00159165 -0.00551168
0.00227961 -0.00102548 -0.00551168
0.0791586 -0.0598787 -0.00551168
0.0796578 -0.059106 -0.00551168
0.00110182 -0.000823821 0
0.000571683 -0.000188043 0
0.000561313 0.000639162 0
0.00189316 0.00207203 0
0.00260228 0.00255358 0
0.0033966 0.00307293 0
0.00428861 0.00362634 0
0.00529726 0.0041979 0
0.00644092 0.00476696 0
0.00773158 0.0053187 0
0.00918011 0.00583593 0
0.010799 0.00628751 0
0.012597 0.00663225 0
0.0145725 0.0068517 0
0.0167206 0.0069338 0
0.0190349 0.00685819 0
0.0215031 0.00658621 0
0.0241038 0.00607459 0
0.026821 0.00533786 0
0.0296245 0.00434523 0
0.0324763 0.00306927 0
0.0353199 0.00146906 0
0.0381488 -0.00039338 0
0.0409131 -0.00252802 0
0.0435632 -0.00493276 0
0.0460882 -0.0075571 0
0.0484881 -0.0103478 0
0.0506782 -0.0133217 0
0.0526651 -0.016422 0
0.0546139 -0.0195019 0
0.0565301 -0.022529 0
0.0584009 -0.0254846 0
0.0602154 -0.0283513 0
0.061964 -0.031114 0
0.0636389 -0.0337601 0
0.0652336 -0.0362795 0
0.0667431 -0.0386651 0
0.0681656 -0.0409111 0
0.0694983 -0.0430158 0
0.0707356 -0.0449823 0
0.071886 -0.0468071 0
0.0729575 -0.04849 0
0.0739438 -0.0500408 0
0.0748444 -0.0514675 0
0.0756707 -0.0527715 0
0.0764313 -0.053958 0
0.0771224 -0.0550398 0
0.0777384 -0.0560288 0
0.0782803 -0.0569318 0
0.0787691 -0.0577448 0
0.0792251 -0.0584672 0
0.0800494 -0.0597378 0
0.0797987 -0.0601582 0
0.0786655 -0.059391 0
0.0781259 -0.0588425 0
0.0775539 -0.0582102 0
0.0769587 -0.0574783 0
0.0763492 -0.0566339 0
0.075723 -0.0556725 0
0.0750452 -0.0546094 0
0.0742996 -0.0534457 0
0.073478 -0.0521785 0
0.072577 -0.0508019 0
0.0715904 -0.049313 0
0.0705098 -0.047712 0
0.069328 -0.0459996 0
0.0680378 -0.0441794 0
0.066632 -0.0422571 0
0.0651046 -0.0402413 0
0.0634508 -0.0381431 0
0.0616683 -0.0359754 0
0.0597581 -0.033753 0
0.0577255 -0.0314906 0
0.0555808 -0.0292024 0
0.0533388 -0.0269013 0
0.0510024 -0.0246151 0
0.0485693 -0.0223811 0
0.0460535 -0.0202228 0
0.0434788 -0.0181535 0
0.0408704 -0.0161833 0
0.0382442 -0.0143327 0
0.0356165 -0.0126209 0
0.0330065 -0.0110594 0
0.0304368 -0.00965062 0
0.0279338 -0.00838121 0
0.0255194 -0.00723697 0
0.0231965 -0.00623664 0
0.020983 -0.00535765 0
0.0188891 -0.00458677 0
0.0169193 -0.00391673 0
0.0150754 -0.00334068 0
0.0133572 -0.00285262 0
0.0117634 -0.0024437 0
0.0102912 -0.00210643 0
0.0089363 -0.00183343 0
0.00769424 -0.00161552 0
0.00655956 -0.00144452 0
0.00552632 -0.00131235 0
0.00458815 -0.00121216 0
0.00373885 -0.00113394 0
0.00297202 -0.00106855 0
-0.0506847 -0.0440454 0
-0.0467478 -0.0429739 0
-0.0428108 -0.0419025 0
-0.0388739 -0.0408311 0
-0.034937 -0.0397597 0
-0.0310001 -0.0386882 0
-0.0270632 -0.0376168 0
-0.0231263 -0.0365454 0
-0.0191894 -0.0354739 0
-0.0152525 -0.0344025 0
-0.0113155 -0.0333311 0
-0.00737862 -0.0322597 0
-0.00344171 -0.0311882 0
0.0038716 -0.0298185 0
0.00726082 -0.0297726 0
0.010644 -0.0299802 0
0.0140027 -0.0304367 0
0.0173201 -0.0311326 0
0.0205821 -0.0320541 0
0.0237776 -0.0331851 0
0.0268988 -0.0345078 0
0.0299406 -0.0360041 0
0.0329005 -0.0376567 0
0.035778 -0.039449 0
0.038574 -0.0413659 0
0.0412905 -0.043394 0
0.0439303 -0.0455212 0
0.0464964 -0.0477367 0
0.0489922 -0.0500312 0
0.051421 -0.0523964 0
0.0537863 -0.0548252 0
0.0560914 -0.0573112 0
0.0583395 -0.0598489 0
0.0605336 -0.0624334 0
0.0626765 -0.0650605 0
0.064771 -0.0677264 0
0.0668197 -0.0704277 0
0.0688248 -0.0731615 0
0.0707885 -0.0759252 0
0.072713 -0.0787163 0
0.0746002 -0.0815329 0
0.0764517 -0.0843729 0
0.0782695 -0.0872347 0
0.0829558 -0.0924852 0
0.0858567 -0.0948536 0
0.0887575 -0.0972221 0
0.0916584 -0.0995905 0
0.0945593 -0.101959 0
0.0974602 -0.104327 0
0.100361 -0.106696 0
0.103262 -0.109064 0
0.106163 -0.111433 0
0.109064 -0.113801 0
0.111965 -0.116169 0
0.114865 -0.118538 0
0.117766 -0.120906 0
0.120667 -0.123275 0
0.123568 -0.125643 0
0.126469 -0.128012 0
0.12937 -0.13038 0
0.132271 -0.132748 0
0.135172 -0.13118 0
0.135172 -0.127243 0
0.135172 -0.123306 0
0.135172 -0.119369 0
0.135172 -0.115432 0
0.135172 -0.111495 0
0.135172 -0.107558 0
0.135172 -0.103621 0
0.135172 -0.0996846 0
0.135172 -0.0957477 0
0.135172 -0.0918107 0
0.135172 -0.0878738 0
0.135172 -0.0839369 0
0.132271 -0.0776316 0
0.12937 -0.0752632 0
0.126469 -0.0728947 0
0.123568 -0.0705263 0
0.120667 -0.0681579 0
0.117766 -0.0657895 0
0.114865 -0.0634211 0
0.111965 -0.0610526 0
0.109064 -0.0586842 0
0.106163 -0.0563158 0
0.103262 -0.0539474 0
0.100361 -0.0515789 0
0.0974602 -0.0492105 0
0.0945593 -0.0468421 0
0.0916584 -0.0444737 0
0.0887575 -0.0421053 0
0.0858567 -0.0397368 0
0.0829558 -0.0373684 0
0.0782695 -0.0321179 0
0.0764517 -0.0292561 0
0.0746002 -0.026416 0
0.072713 -0.0235995 0
0.0707885 -0.0208084 0
0.0688248 -0.0180447 0
0.0668197 -0.0153109 0
0.064771 -0.0126096 0
0.0626765 -0.00994373 0
0.0605336 -0.00731663 0
0.0583395 -0.00473208 0
0.0560914 -0.00219437 0
0.0537863 0.000291632 0
0.051421 0.00272041 0
0.0489922 0.00508564 0
0.0464964 0.00738012 0
0.0439303 0.00959562 0
0.0412905 0.0117228 0
0.038574 0.0137509 0
0.035778 0.0156678 0
0.0329005 0.0174601 0
0.0299406 0.0191127 0
0.0268988 0.020609 0
0.0237776 0.0219317 0
0.0205821 0.0230627 0
0.0173201 0.0239842 0
0.0140027 0.0246801 0
0.010644 0.0251366 0
0.00726082 0.0253442 0
0.0038716 0.0252983 0
-0.00344171 0.0239286 0
-0.00737862 0.0228571 0
-0.0113155 0.0217857 0
-0.0152525 0.0207143 0
-0.0191894 0.0196429 0
-0.0231263 0.0185714 0
-0.0270632 0.0175 0
-0.0310001 0.0164286 0
-0.034937 0.0153571 0
-0.0388739 0.0142857 0
-0.0428108 0.0132143 0
-0.0467478 0.0121429 0
-0.0506847 0.0110714 0
-0.0546216 0.00606309 0
-0.0546216 0.00212617 0
-0.0546216 -0.00181074 0
-0.0546216 -0.00574766 0
-0.0546216 -0.00968457 0
-0.0546216 -0.0136215 0
-0.0546216 -0.0175584 0
-0.0546216 -0.0214953 0
-0.0546216 -0.0254322 0
-0.0546216 -0.0293691 0
-0.0546216 -0.0333061 0
-0.0546216 -0.037243 0
-0.0546216 -0.0411799 0
-0.0506847 -0.0440454 -0.00551168
-0.0467478 -0.0429739 -0.00551168
-0.0428108 -0.0419025 -0.00551168
-0.0388739 -0.0408311 -0.00551168
-0.034937 -0.0397597 -0.00551168
-0.0310001 -0.0386882 -0.00551168
-0.0270632 -0.0376168 -0.00551168
-0.0231263 -0.0365454 -0.00551168
-0.0191894 -0.0354739 -0.00551168
-0.0152525 -0.0344025 -0.00551168
-0.0113155 -0.0333311 -0.00551168
-0.00737862 -0.0322597 -0.00551168
-0.00344171 -0.0311882 -0.00551168
0.0038716 -0.0298185 -0.00551168
0.00726082 -0.0297726 -0.00551168
0.010644 -0.0299802 -0.00551168
0.0140027 -0.0304367 -0.00551168
0.0173201 -0.0311326 -0.00551168
0.0205821 -0.0320541 -0.00551168
0.0237776 -0.0331851 -0.00551168
0.0268988 -0.0345078 -0.00551168
0.0299406 -0.0360041 -0.00551168
0.0329005 -0.0376567 -0.00551168
0.035778 -0.039449 -0.00551168
0.038574 -0.0413659 -0.00551168
0.0412905 -0.043394 -0.00551168
0.0439303 -0.0455212 -0.00551168
0.0464964 -0.0477367 -0.00551168
0.0489922 -0.0500312 -0.00551168
0.051421 -0.0523964 -0.00551168
0.0537863 -0.0548252 -0.00551168
0.0560914 -0.0573112 -0.00551168
0.0583395 -0.0598489 -0.00551168
0.0605336 -0.0624334 -0.00551168
0.0626765 -0.0650605 -0.00551168
0.064771 -0.0677264 -0.00551168
0.0668197 -0.0704277 -0.00551168
0.0688248 -0.0731615 -0.00551168
0.0707885 -0.0759252 -0.00551168
0.072713 -0.0787163 -0.00551168
0.0746002 -0.0815329 -0.00551168
0.0764517 -0.0843729 -0.00551168
0.0782695 -0.0872347 -0.00551168
0.0829558 -0.0924852 -0.00551168
0.0858567 -0.0948536 -0.00551168
0.0887575 -0.0972221 -0.00551168
0.0916584 -0.0995905 -0.00551168
0.0945593 -0.101959 -0.00551168
0.0974602 -0.104327 -0.00551168
0.100361 -0.106696 -0.00551168
0.103262 -0.109064 -0.00551168
0.106163 -0.111433 -0.00551168
0.109064 -0.113801 -0.00551168
0.111965 -0.116169 -0.00551168
0.114865 -0.118538 -0.00551168
0.117766 -0.120906 -0.00551168
0.120667 -0.123275 -0.00551168
0.123568 -0.125643 -0.00551168
0.126469 -0.128012 -0.00551168
0.12937 -0.13038 -0.00551168
0.132271 -0.132748 -0.00551168
0.135172 -0.13118 -0.00551168
0.135172 -0.127243 -0.00551168
0.135172 -0.123306 -0.00551168
0.135172 -0.119369 -0.00551168
0.135172 -0.115432 -0.00551168
0.135172 -0.111495 -0.00551168
0.135172 -0.107558 -0.00551168
0.135172 -0.103621 -0.00551168
0.135172 -0.0996846 -0.00551168
0.135172 -0.0957477 -0.00551168
0.135172 -0.0918107 -0.00551168
0.135172 -0.0878738 -0.00551168
0.135172 -0.0839369 -0.00551168
0.132271 -0.0776316 -0.00551168
0.12937 -0.0752632 -0.00551168
0.126469 -0.0728947 -0.00551168
0.123568 -0.0705263 -0.00551168
0.120667 -0.0681579 -0.00551168
0.117766 -0.0657895 -0.00551168
0.114865 -0.0634211 -0.00551168
0.111965 -0.0610526 -0.00551168
0.109064 -0.0586842 -0.00551168
0.106163 -0.0563158 -0.00551168
0.103262 -0.0539474 -0.00551168
0.100361 -0.0515789 -0.00551168
0.0974602 -0.0492105 -0.00551168
0.0945593 -0.0468421 -0.00551168
0.0916584 -0.0444737 -0.00551168
0.0887575 -0.0421053 -0.00551168
0.0858567 -0.0397368 -0.00551168
0.0829558 -0.0373684 -0.00551168
0.0782695 -0.0321179 -0.00551168
0.0764517 -0.0292561 -0.00551168
0.0746002 -0.026416 -0.00551168
0.072713 -0.0235995 -0.00551168
0.0707885 -0.0208084 -0.00551168
0.0688248 -0.0180447 -0.00551168
0.0668197 -0.0153109 -0.00551168
0.064771 -0.0126096 -0.00551168
0.0626765 -0.00994373 -0.00551168
0.0605336 -0.00731663 -0.00551168
0.0583395 -0.00473208 -0.00551168
0.0560914 -0.00219437 -0.00551168
0.0537863 0.000291632 -0.00551168
0.051421 0.00272041 -0.00551168
0.0489922 0.00508564 -0.00551168
0.0464964 0.00738012 -0.00551168
0.0439303 0.00959562 -0.00551168
0.0412905 0.0117228 -0.00551168
[...]
CELL_DATA 2965
SCALARS rho float
LOOKUP_TABLE default
0.529079
0.374365
0.632315
0.331611
0.536935
0.394224
0.529735
0.377158
0.409066
0.627629
0.331811
0.35408
0.505048
0.532633
0.628849
0.52523
0.519095
0.521981
0.536038
0.5223
0.529485
0.361956
0.518192
0.546111
0.608161
0.54487
0.550602
0.481856
0.342292
0.61062
0.610495
0.370489
0.538905
0.642442
0.33247
0.387901
0.524853
0.615423
0.334152
0.61362
0.522658
0.613695
0.53019
0.368038
0.325517
0.530195
0.54563
0.480683
0.368646
0.531717
0.465395
0.356506
0.344102
0.507614
0.337357
0.503877
0.387633
0.360258
0.32601
0.56346
0.627528
0.48017
0.35362
0.535696
0.489237
0.530294
0.530616
0.361312
0.35622
0.359441
0.523238
0.537427
0.530716
0.312784
0.606356
0.481069
0.528763
0.35459
0.372978
0.565706
0.530385
0.352341
0.37471
0.521441
0.484618
0.448021
0.350388
0.317783
0.547422
0.389218
0.340407
0.529776
0.518469
0.624651
0.53076
0.339636
0.52148
0.294892
0.356363
0.360041
0.54813
0.359689
0.340767
0.327424
0.351568
0.52592
0.52919
0.370168
0.375744
0.529329
0.267872
0.456275
0.564485
0.494254
0.35742
0.333977
0.51961
0.546233
0.530799
0.36219
0.530444
0.273147
0.536684
0.538892
0.499555
0.47746
0.353776
0.503038
0.648513
0.309767
0.350387
0.51144
0.600328
0.351072
0.555389
0.376434
0.499448
0.517141
0.537637
0.536487
0.351605
0.523732
0.52744
0.387425
0.332598
0.535962
0.344757
0.538668
0.539722
0.387747
0.359226
0.351401
0.34275
0.349169
0.318731
0.310248
0.529421
0.64285
0.535929
0.544597
0.545574
0.558932
0.481517
0.644393
0.391819
0.529946
0.486814
0.370831
0.53116
0.532719
0.584291
0.355777
0.520364
0.531369
0.538173
0.487915
0.621635
0.413823
0.289974
0.497979
0.379144
0.296778
0.342731
0.357774
0.53733
0.529596
0.348698
0.359742
0.465655
0.327772
0.336118
0.339572
0.511201
0.339198
0.531097
0.558382
0.593959
0.485761
0.525909
0.366463
0.373477
0.37931
0.52631
0.503333
0.530047
0.341043
0.51083
0.530987
0.525525
0.530356
0.496104
0.47415
0.35751
0.381678
0.568738
0.398612
0.533278
0.354884
0.539517
0.327249
0.409404
0.356817
0.551076
0.457371
0.543239
0.280852
0.530389
0.636061
0.359287
0.579656
0.383792
0.305315
0.531343
0.336295
0.529589
0.533261
0.327848
0.647929
0.329213
0.405621
0.431736
0.354136
0.533665
0.635806
0.351947
0.260727
0.531551
0.530771
0.533299
0.58257
0.362216
0.349422
0.529218
0.375008
0.494579
0.310672
0.299402
0.531251
0.52953
0.370975
0.492949
0.373515
0.537107
0.388065
0.653465
0.530333
0.31429
0.570059
0.632003
0.32621
0.359877
0.529644
0.362993
0.540159
0.558499
0.366329
0.518867
0.554131
0.54602
0.530861
0.583443
0.485637
0.526317
0.530389
0.3597
0.350087
0.533247
0.536159
0.357453
0.527714
0.556168
0.287737
0.373487
0.368442
0.576662
0.366157
0.528574
0.580335
0.546199
0.338883
0.584824
0.486574
0.579562
0.529825
0.347602
0.273011
0.537411
0.529147
0.5286
0.350654
0.357291
0.586106
0.343278
0.337793
0.504878
0.530369
0.48616
0.234624
0.327244
0.570343
0.503293
0.36287
0.531975
0.53013
0.354057
0.479872
0.529471
0.625232
0.316165
0.357265
0.530654
0.386486
0.535795
0.427865
0.536103
0.466127
0.434835
0.375571
0.354948
0.343457
0.519484
0.542957
0.52387
0.594747
0.485
0.571772
0.340622
0.530429
0.537356
0.365673
0.34491
0.53094
0.34485
0.517352
0.489322
0.369411
0.330412
0.371562
0.324734
0.530377
0.345284
0.358525
0.45494
0.36123
0.529421
0.529728
0.567919
0.528915
0.345014
0.535086
0.358419
0.531408
0.331705
0.385593
0.531468
0.560066
0.306433
0.303728
0.528347
0.41941
0.610096
0.537143
0.35499
0.527332
0.324956
0.373766
0.532018
0.357952
0.532356
0.315711
0.453747
0.376388
0.532367
0.564473
0.516583
0.52872
0.351003
0.539133
0.399593
0.374325
0.534391
0.361988
0.657734
0.503873
0.585857
0.327917
0.338598
0.376128
0.321089
0.376939
0.384839
0.645189
0.530372
0.530363
0.53171
0.380298
0.550028
0.561458
0.527025
0.28136
0.529322
0.379753
0.483879
0.480173
0.37677
0.530959
0.413743
0.629961
0.369487
0.588522
0.52958
0.357949
0.537741
0.293512
0.533649
0.369057
0.361033
0.498572
0.558018
0.535384
0.461534
0.293817
0.2861
0.49839
0.566555
0.525069
0.529378
0.527784
0.533038
0.37302
0.624407
0.487913
0.370885
0.269483
0.321533
0.60311
0.532423
0.437972
0.446551
0.439286
0.38822
0.529315
0.53085
0.531306
0.53841
0.476398
0.529019
0.532076
0.379302
0.534538
0.413307
0.400259
0.535994
0.531798
0.533514
0.546901
0.33061
0.380772
0.538029
0.527087
0.328119
0.526788
0.609364
0.530352
0.39244
0.362479
0.532148
0.342058
0.542351
0.531714
0.532348
0.365146
0.529648
0.358419
0.36767
0.359847
0.401763
0.529968
0.424111
0.520531
0.333496
0.362132
0.524306
0.389996
0.339447
0.365224
0.316995
0.425685
0.377583
0.346735
0.505992
0.525118
0.344876
0.410802
0.532198
0.345875
0.460835
0.529228
0.528642
0.506091
0.494456
0.4928
0.531791
0.348322
0.440927
0.528975
0.49183
0.271612
0.504974
0.246626
0.336517
0.359326
0.528789
0.543565
0.371438
0.510897
0.530672
0.33619
0.373343
0.613492
0.528871
0.420929
0.638059
0.438045
0.343202
0.63491
0.371404
0.531865
0.643694
0.458367
0.547735
0.360563
0.391143
0.534778
0.434705
0.387684
0.392806
0.345818
0.369417
0.528879
0.534586
0.52243
0.364017
0.291531
0.364516
0.371321
0.527017
0.294841
0.493763
0.369953
0.532381
0.529018
0.35317
0.531247
0.468608
0.498259
0.357015
0.528095
0.650968
0.540594
0.654016
0.529427
0.527909
0.402214
0.487821
0.382285
0.63319
0.352496
0.263443
0.52961
0.529016
0.529302
0.356328
0.3478
0.535184
0.537077
0.340944
0.530675
0.325902
0.351032
0.368053
0.539731
0.53769
0.637393
0.342404
0.356288
0.391062
0.355975
0.534719
0.530671
0.540498
0.358206
0.381528
0.546603
0.539093
0.608179
0.512137
0.529691
0.492546
0.531955
0.53559
0.523632
0.370014
0.532304
0.498116
0.530281
0.532875
0.595005
0.501182
0.455739
0.542438
0.377462
0.535025
0.528808
0.258395
0.530448
0.558873
0.531087
0.380525
0.327914
0.529204
0.347136
0.381542
0.538665
0.351416
0.494948
0.548105
0.323826
0.538702
0.388021
0.592369
0.529559
0.525514
0.512498
0.364324
0.359246
0.540229
0.500701
0.37555
0.579532
0.373399
0.531773
0.327635
0.557389
0.522
0.530943
0.341469
0.599302
0.410792
0.491705
0.489204
0.364592
0.326313
0.328154
0.53203
0.553168
0.52155
0.377551
0.531877
0.490595
0.379006
0.531966
0.327929
0.548729
0.629688
0.530346
0.533227
0.354308
0.393428
0.52902
0.543376
0.637042
0.488218
0.55196
0.578617
0.564323
0.368017
0.61015
0.464494
0.41425
0.422737
0.528775
0.536976
0.520383
0.467669
0.358746
0.60451
0.351411
0.372353
0.477759
0.335555
0.549067
0.371976
0.529609
0.365864
0.352577
0.490709
0.540073
0.365122
0.359919
0.536291
0.541581
0.541243
0.335192
0.363397
0.534092
0.364312
0.365079
0.36838
0.523272
0.526363
0.311165
0.532024
0.364795
0.61847
0.530325
0.367726
0.480261
0.578988
0.587474
0.511663
0.538349
0.53632
0.539486
0.646618
0.53045
0.378374
0.439251
0.521147
0.319273
0.53779
0.637363
0.295727
0.527968
0.484106
0.530937
0.639844
0.489541
0.615348
0.370021
0.489494
0.362154
0.340371
0.531475
0.529875
0.302232
0.3514
0.52747
0.459505
0.50238
0.281369
0.291553
0.532977
0.571284
0.541175
0.526741
0.480019
0.445635
0.543474
0.374675
0.530363
0.497662
0.493308
0.363648
0.452828
0.537298
0.497713
0.53723
0.177808
0.53035
0.346704
0.36186
0.358177
0.520163
0.526466
0.549217
0.568343
0.359887
0.53174
0.461557
0.546625
0.539488
0.491574
0.340794
0.348537
0.529813
0.360464
0.506869
0.481076
0.370796
0.364735
0.629239
0.604058
0.323674
0.531443
0.529152
0.333899
0.531492
0.531663
0.533857
0.406112
0.35708
0.648802
0.367033
0.336064
0.485623
0.528971
0.351865
0.442481
0.383671
0.361834
0.622012
0.368626
0.334949
0.540015
0.362182
0.391023
0.551897
0.533615
0.535232
0.529871
0.494852
0.363328
0.539633
0.52936
0.349745
0.537736
0.537676
0.530419
0.530438
0.405214
0.528954
0.374604
0.529209
0.358685
0.528725
0.341145
0.619042
0.34945
0.615429
0.538468
0.539072
0.589246
0.529809
0.533906
0.347178
0.530731
0.297545
0.530392
0.534028
0.354891
0.483958
0.369093
0.328979
0.530068
0.423267
0.530375
0.151029
0.603991
0.509688
0.535834
0.465478
0.375898
0.274692
0.329736
0.306854
0.537834
0.428572
0.326473
0.531321
0.360668
0.420926
0.53212
0.528955
0.501187
0.531958
0.30281
0.588328
0.34808
0.530507
0.530179
0.639303
0.304153
0.561195
0.537529
0.535702
0.501146
0.523765
0.459385
0.530654
0.641646
0.497504
0.531763
0.380914
0.595542
0.398104
0.481902
0.522448
0.597891
0.527091
0.574377
0.594644
0.533863
0.370113
0.523435
0.355397
0.352849
0.654349
0.528908
0.482197
0.632111
0.636887
0.530496
0.532668
0.530845
0.531913
0.531465
0.535975
0.403585
0.505214
0.531656
0.363737
0.639539
0.327829
0.572849
0.379591
0.531804
0.33927
0.328935
0.368648
0.483238
0.531478
0.51508
0.611795
0.381397
0.353046
0.530948
0.537103
0.367974
0.515681
0.536779
0.378494
0.51568
0.363018
0.355289
0.528175
0.579279
0.351494
0.519218
0.532828
0.528975
0.328625
0.532621
0.272106
0.530768
0.446949
0.62147
0.355828
0.538208
0.338809
0.339306
0.328218
0.529229
0.335413
0.50854
0.540564
0.481834
0.405247
0.346937
0.537827
0.349006
0.26986
0.328661
0.532108
0.359165
0.371322
0.306292
0.607717
0.340032
0.349074
0.373515
0.529934
0.543797
0.387249
0.53514
0.533653
0.492004
0.352178
0.365329
0.651011
0.325307
0.542959
0.391749
0.533565
0.369182
0.188437
0.514418
0.337743
0.354781
0.332664
0.532091
0.35045
0.519851
0.637549
0.358015
0.602732
0.371384
0.532167
0.49363
0.325088
0.334704
0.531745
0.531014
0.529283
0.357317
0.367822
0.496797
0.530402
0.376127
0.376179
0.358548
0.492153
0.622602
0.386739
0.502192
0.527885
0.529377
0.530331
0.351317
0.651106
0.359825
0.530104
0.531446
0.492232
0.356436
0.504128
0.533922
0.339681
0.539593
0.646943
0.351376
0.358986
0.344989
0.286738
0.540286
0.329626
0.529368
0.454442
0.530054
0.604358
0.446879
0.509404
0.344258
0.489121
0.329034
0.529109
0.529181
0.247789
0.361315
0.371838
0.561795
0.536364
0.343768
0.335415
0.379478
0.545526
0.538034
0.273497
0.330619
0.523762
0.655121
0.525296
0.348915
0.364072
0.522924
0.529412
0.372603
0.363534
0.522622
0.538645
0.502759
0.368145
0.531803
0.531127
0.363375
0.534386
0.367529
0.657696
0.375641
0.427603
0.361282
0.324492
0.529738
0.384882
0.346785
0.378463
0.356153
0.491647
0.622418
0.537546
0.347481
0.530285
0.531255
0.531956
0.568226
0.528846
0.538429
0.533891
0.542468
0.602273
0.529129
0.358758
0.489097
0.547702
0.378598
0.604368
0.536779
0.532734
0.531537
0.339744
0.581003
0.530747
0.532186
0.360019
0.527729
0.527831
0.529175
0.542447
0.37678
0.585384
0.416134
0.498342
0.36809
0.368017
0.386438
0.334731
0.530268
0.648335
0.520124
0.36017
0.530847
0.531788
0.533838
0.351074
0.353547
0.520777
0.368028
0.378731
0.376126
0.567824
0.498093
0.531812
0.375504
0.54117
0.529086
0.490075
0.586012
0.366551
0.540065
0.531799
0.515322
0.534839
0.529872
0.630946
0.366016
0.400631
0.354974
0.528687
0.344475
0.647953
0.522197
0.511016
0.350808
0.381623
0.58396
0.541101
0.529983
0.353627
0.524672
0.5763
0.283756
0.532002
0.325684
0.378467
0.386663
0.346709
0.366749
0.535233
0.531745
0.540296
0.521463
0.63258
0.530229
0.526248
0.530156
0.536739
0.536625
0.529023
0.528601
0.358384
0.528951
0.527835
0.509688
0.342154
0.504348
0.358961
0.533413
0.420208
0.610701
0.548337
0.349267
0.65598
0.356776
0.529075
0.534895
0.540149
0.590475
0.520074
0.620417
0.529887
0.404933
0.534937
0.498924
0.281326
0.531821
0.534419
0.509174
0.532565
0.525601
0.528705
0.297653
0.343064
0.643509
0.537382
0.349221
0.244689
0.52395
0.530116
0.53073
0.317549
0.488346
0.514158
0.520209
0.343258
0.531934
0.585104
0.640071
0.612351
0.514346
0.532681
0.358871
0.526353
0.366997
0.376554
0.530069
0.41318
0.404148
0.352076
0.517888
0.524467
0.502027
0.529648
0.502755
0.409984
0.365119
0.537197
0.529292
0.624737
0.592949
0.292833
0.52144
0.519591
0.371966
0.529265
0.542746
0.331236
0.532394
0.526072
0.530119
0.537025
0.529111
0.428112
0.532095
0.532512
0.530084
0.359006
0.640803
0.440567
0.601523
0.5293
0.537768
0.528376
0.531243
0.53148
0.530397
0.519181
0.359341
0.54776
0.621456
0.37633
0.59866
0.533192
0.53988
0.514735
0.361085
0.556081
0.35394
0.567663
0.488717
0.53916
0.354574
0.520303
0.532669
0.529627
0.550272
0.489526
0.531416
0.50711
0.457214
0.350136
0.321662
0.529852
0.36032
0.303223
0.59065
0.354833
0.53777
0.34686
0.53513
0.345464
0.357192
0.520892
0.46584
0.350045
0.539965
0.52917
0.537013
0.353764
0.521679
0.53326
0.531513
0.353714
0.529875
0.534204
0.331823
0.505529
0.505258
0.519617
0.385065
0.468775
0.618952
0.383868
0.6326
0.349046
0.342325
0.529516
0.455561
0.505478
0.323793
0.539937
0.492047
0.530186
0.230481
0.378288
0.529913
0.389491
0.531143
0.419553
0.53159
0.499434
0.565881
0.531204
0.598077
0.27461
0.531689
0.537971
0.52744
0.529522
0.320476
0.371875
0.364255
0.338867
0.530189
0.367509
0.61746
0.365063
0.524802
0.529865
0.530077
0.326611
0.530759
0.377073
0.530367
0.543226
0.40221
0.529099
0.54275
0.344288
0.530972
0.385159
0.396531
0.539262
0.387345
0.53925
0.260181
0.385604
0.512411
0.418403
0.653384
0.359975
0.55712
0.529173
0.530315
0.449192
0.287732
0.388326
0.530762
0.530697
0.383592
0.531061
0.370624
0.533132
0.347382
0.3768
0.511984
0.571336
0.494882
0.519335
0.52994
0.596579
0.491934
0.531388
0.528712
0.364625
0.530693
0.399565
0.366838
0.500677
0.482515
0.4733
0.531292
0.341821
0.522285
0.531579
0.53699
0.371397
0.383995
0.48663
0.614374
0.531641
0.537957
0.339734
0.589766
0.526758
0.524778
0.529691
0.328714
0.358998
0.35283
0.542457
0.532872
0.341553
0.31284
0.522504
0.355915
0.53819
0.625626
0.37411
0.530934
0.482261
0.542951
0.535873
0.333962
0.399761
0.505331
0.351196
0.472509
0.529334
0.31243
0.335161
0.335768
0.617045
0.632503
0.616257
0.346708
0.343071
0.646222
0.530967
0.496879
0.534812
0.322571
0.371054
0.39952
0.598267
0.375636
0.360896
0.533339
0.656126
0.624991
0.359033
0.370339
0.389159
0.531409
0.342278
0.525312
0.529244
0.530823
0.509824
0.535595
0.539615
0.395174
0.328577
0.531774
0.358408
0.562984
0.524142
0.536641
0.523271
0.374365
0.354312
0.538969
0.483937
0.34339
0.529656
0.531166
0.351484
0.327042
0.621739
0.531578
0.364299
0.363075
0.54004
0.594865
0.533432
0.488592
0.416046
0.352871
0.375069
0.446323
0.365332
0.530334
0.526943
0.511269
0.51088
0.415257
0.508142
0.413693
0.52917
0.535604
0.362326
0.310921
0.524386
0.461568
0.56953
0.531283
0.341191
0.530291
0.621433
0.529517
0.530623
0.532477
0.401945
0.365584
0.379903
0.619625
0.530759
0.525833
0.530804
0.349973
0.363098
0.589953
0.351977
0.533653
0.528789
0.5317
0.405461
0.358932
0.558322
0.518108
0.530478
0.531225
0.530713
0.528788
0.532257
0.49495
0.297448
0.531372
0.505624
0.530546
0.350693
0.525903
0.500926
0.532488
0.539194
0.532758
0.600063
0.52504
0.58901
0.529992
0.361987
0.533429
0.532839
0.375343
0.524986
0.34502
0.351312
0.53028
0.531137
0.358813
0.587515
0.529804
0.381355
0.41714
0.547895
0.530499
0.570986
0.40337
0.606887
0.363041
0.536321
0.536859
0.325129
0.502799
0.604631
0.362195
0.335636
0.382574
0.540538
0.541925
0.322753
0.408047
0.393828
0.376516
0.385577
0.513456
0.358857
0.536049
0.531195
0.53706
0.348312
0.528796
0.487515
0.527278
0.533999
0.529459
0.343122
0.348315
0.329092
0.529025
0.39734
0.327334
0.516355
0.346355
0.530895
0.613963
0.505207
0.365406
0.362189
0.528515
0.531112
0.526931
0.536264
0.546434
0.325247
0.40031
0.386733
0.617362
0.530697
0.328427
0.529923
0.371302
0.40614
0.532037
0.366856
0.357549
0.267765
0.435325
0.345554
0.530834
0.544501
0.535447
0.39796
0.528725
0.537481
0.325115
0.530422
0.452042
0.545665
0.406668
0.465772
0.528951
0.360438
0.275825
0.527522
0.636751
0.327917
0.546226
0.601235
0.528928
0.47429
0.352513
0.50206
0.530338
0.421949
0.417615
0.491238
0.461539
0.532125
0.385557
0.335878
0.535966
0.539212
0.380831
0.322761
0.524785
0.360187
0.364451
0.34705
0.546203
0.542373
0.352204
0.535053
0.354397
0.37139
0.405136
0.474108
0.375391
0.538763
0.348904
0.354025
0.58049
0.533892
0.418328
0.530537
0.323868
0.371724
0.515625
0.53701
0.562388
0.623117
0.529674
0.540895
0.35276
0.534206
0.359512
0.53023
0.521908
0.491264
0.600584
0.528906
0.529917
0.530433
0.515759
0.417817
0.514491
0.334294
0.52645
0.528459
0.605001
0.362437
0.536046
0.443679
0.530429
0.351356
0.341194
0.539721
0.354136
0.523372
0.538929
0.429803
0.335279
0.376681
0.529812
0.456754
0.272119
0.539195
0.368596
0.518444
0.388753
0.369271
0.340413
0.531345
0.454286
0.529674
0.324546
0.382645
0.529654
0.528443
0.330126
0.413518
0.303432
0.58098
0.37626
0.633329
0.527116
0.528769
0.272849
0.357262
0.54049
0.647231
0.536738
0.528875
0.345162
0.517975
0.533197
0.528636
0.530062
0.346872
0.52501
0.368377
0.49476
0.542746
0.532959
0.529277
0.624434
0.52515
0.528044
0.538669
0.528205
0.525633
0.534846
0.529322
0.532048
0.331062
0.369089
0.53095
0.512
0.529657
0.530377
0.537919
0.633973
0.535429
0.369651
0.353645
0.530624
0.325979
0.344282
0.3587
0.529688
0.59693
0.531239
0.526377
0.529621
0.327419
0.563467
0.319913
0.344677
0.539293
0.525928
0.52212
0.478326
0.471505
0.362086
0.349969
0.45282
0.365848
0.420191
0.536097
0.372608
0.527087
0.342096
0.539352
0.53078
0.316549
0.349975
0.523387
0.530229
0.338174
0.523374
0.296241
0.364038
0.35466
0.540898
0.531713
0.530418
0.53155
0.256666
0.377737
0.316191
0.355581
0.529859
0.572343
0.534109
0.37668
0.323251
0.528997
0.528573
0.532442
0.342265
0.483161
0.560826
0.536917
0.517831
0.368266
0.38007
0.357768
0.531491
0.356859
0.327081
0.529584
0.351893
0.531954
0.389601
0.401158
0.478868
0.411466
0.551845
0.530512
0.531316
0.532969
0.548383
0.546787
0.491981
0.383683
0.612259
0.523856
0.62008
0.532557
0.531042
0.535659
0.507768
0.528524
0.531559
0.410769
0.331521
0.54231
0.470038
0.530805
0.370463
0.536656
0.418393
0.524147
0.531421
0.546066
0.52911
0.570374
0.517967
0.384566
0.35934
0.656143
0.537055
0.52932
0.516827
0.534246
0.506012
0.597595
0.528852
0.572086
0.49362
0.534969
0.529154
0.360373
0.319699
0.530409
0.609549
0.368622
0.392689
0.50946
0.530708
0.530375
0.538081
0.36235
0.522807
0.340781
0.531636
0.36599
0.600586
0.365248
0.539848
0.380609
0.648999
0.534493
0.347389
0.356307
0.569159
0.363852
0.495613
0.340039
0.529587
0.530529
0.526348
0.541778
0.530559
0.53093
0.528725
0.529765
0.537751
0.503334
0.625004
0.516046
0.54413
0.356394
0.605961
0.602163
0.530149
0.354049
0.571239
0.536591
0.528644
0.367085
0.339577
0.376607
0.64187
0.520287
0.344758
0.495325
0.458818
0.5321
0.35772
0.484762
0.382194
0.347832
0.540472
0.376528
0.614649
0.369475
0.534666
0.383197
0.52968
0.610695
0.526143
0.382422
0.355803
0.419326
0.518487
0.362836
0.408059
0.367951
0.535011
0.532172
0.556427
0.522963
0.648305
0.51801
0.432427
0.367241
0.529659
0.341933
0.540108
0.520237
0.534072
0.236965
0.355336
0.530874
0.528585
0.480434
0.639472
0.630814
0.519007
0.362042
0.535782
0.520754
0.540088
0.533911
0.38301
0.530328
0.369837
0.528272
0.538103
0.53091
0.529217
0.415688
0.533285
0.2517
0.408736
0.513415
0.615122
0.528217
0.54344
0.366991
0.530169
0.531823
0.367086
0.326624
0.352884
0.539492
0.365056
0.294666
0.360301
0.368956
0.373023
0.445454
0.535585
0.37238
0.628957
0.528025
0.362785
0.549661
0.380615
0.54353
0.372454
0.485783
0.341781
0.533288
0.531833
0.463219
0.528203
0.530739
0.633977
0.358816
0.525119
0.512873
0.348753
0.366589
0.484178
0.358133
0.562786
0.271922
0.370929
0.386444
0.530432
0.524767
0.344261
0.357638
0.53912
0.365629
0.360398
0.531216
0.407001
0.367592
0.394644
0.538788
0.612179
0.546305
0.358246
0.327956
0.534682
0.630501
0.528562
0.46233
0.507129
0.531516
0.493001
0.482765
0.352774
0.33839
0.276327
0.584928
0.372883
0.538138
0.606814
0.528714
0.35685
0.48428
0.503792
0.552783
0.341476
0.54526
0.276363
0.511456
0.357698
0.326246
0.331902
0.53325
0.353207
0.537983
0.37282
0.451906
0.370017
0.532612
0.356674
0.53431
0.350856
0.512565
0.515155
0.352039
0.531525
0.531456
0.352486
0.539523
0.411621
0.365179
0.535903
0.338859
0.627246
0.427635
0.222317
0.5291
0.357695
0.416655
0.359116
0.39004
0.364641
0.599124
0.522394
0.543468
0.540034
0.645342
0.536009
0.481256
0.533762
0.341772
0.531264
0.366823
0.526402
0.328116
0.459407
0.531588
0.540001
0.53134
0.418102
0.488002
0.365783
0.378329
0.402518
0.256071
0.532574
0.47771
0.537717
0.528941
0.565612
0.657066
0.531156
0.467639
0.362682
0.433335
0.591131
0.593691
0.500166
0.531796
0.534887
0.500137
0.321605
0.407399
0.568696
0.414011