# vtk DataFile Version 1.0
unstructured grid
ascii
DATASET UNSTRUCTURED_GRID
points 3226 float
0.0796578 -0.059106 0
0.00128732 0.00159165 0
0.00227961 -0.00102548 0
0.0791586 -0.0598787 0
-0.0546216 0.01 0
0.000495206 0.025 0
0.0800549 -0.035 0
0.135172 -0.08 0
-0.0546216 -0.0451168 0
0.000495206 -0.0301168 0
0.0800549 -0.0901168 0
0.135172 -0.135117 0
-0.0546216 -0.0451168 -0.00551168
0.000495206 -0.0301168 -0.00551168
0.0800549 -0.0901168 -0.00551168
0.135172 -0.135117 -0.00551168
0.135172 -0.08 -0.00551168
0.0800549 -0.035 -0.00551168
0.000495206 0.025 -0.00551168
-0.0546216 0.01 -0.00551168
0.00128732 0.00159165 -0.00551168
0.00227961 -0.00102548 -0.00551168
0.0791586 -0.0598787 -0.00551168
0.0796578 -0.059106 -0.00551168
0.00110182 -0.000823821 0
0.000571683 -0.000188043 0
0.000561313 0.000639162 0
0.00189316 0.00207203 0
0.00260228 0.00255358 0
0.0033966 0.00307293 0
0.00428861 0.00362634 0
0.00529726 0.0041979 0
0.00644092 0.00476696 0
0.00773158 0.0053187 0
0.00918011 0.00583593 0
0.010799 0.00628751 0
0.012597 0.00663225 0
0.0145725 0.0068517 0
0.0167206 0.0069338 0
0.0190349 0.00685819 0
0.0215031 0.00658621 0
0.0241038 0.00607459 0
0.026821 0.00533786 0
0.0296245 0.00434523 0
0.0324763 0.00306927 0
0.0353199 0.00146906 0
0.0381488 -0.00039338 0
0.0409131 -0.00252802 0
0.0435632 -0.00493276 0
0.0460882 -0.0075571 0
0.0484881 -0.0103478 0
0.0506782 -0.0133217 0
0.0526651 -0.016422 0
0.0546139 -0.0195019 0
0.0565301 -0.022529 0
0.0584009 -0.0254846 0
0.0602154 -0.0283513 0
0.061964 -0.031114 0
0.0636389 -0.0337601 0
0.0652336 -0.0362795 0
0.0667431 -0.0386651 0
0.0681656 -0.0409111 0
0.0694983 -0.0430158 0
0.0707356 -0.0449823 0
0.071886 -0.0468071 0
0.0729575 -0.04849 0
0.0739438 -0.0500408 0
0.0748444 -0.0514675 0
0.0756707 -0.0527715 0
0.0764313 -0.053958 0
0.0771224 -0.0550398 0
0.0777384 -0.0560288 0
0.0782803 -0.0569318 0
0.0787691 -0.0577448 0
0.0792251 -0.0584672 0
0.0800494 -0.0597378 0
0.0797987 -0.0601582 0
0.0786655 -0.059391 0
0.0781259 -0.0588425 0
0.0775539 -0.0582102 0
0.0769587 -0.0574783 0
0.0763492 -0.0566339 0
0.075723 -0.0556725 0
0.0750452 -0.0546094 0
0.0742996 -0.0534457 0
0.073478 -0.0521785 0
0.072577 -0.0508019 0
0.0715904 -0.049313 0
0.0705098 -0.047712 0
0.069328 -0.0459996 0
0.0680378 -0.0441794 0
0.066632 -0.0422571 0
0.0651046 -0.0402413 0
0.0634508 -0.0381431 0
0.0616683 -0.0359754 0
0.0597581 -0.033753 0
0.0577255 -0.0314906 0
0.0555808 -0.0292024 0
0.0533388 -0.0269013 0
0.0510024 -0.0246151 0
0.0485693 -0.0223811 0
0.0460535 -0.0202228 0
0.0434788 -0.0181535 0
0.0408704 -0.0161833 0
0.0382442 -0.0143327 0
0.0356165 -0.0126209 0
0.0330065 -0.0110594 0
0.0304368 -0.00965062 0
0.0279338 -0.00838121 0
0.0255194 -0.00723697 0
0.0231965 -0.00623664 0
0.020983 -0.00535765 0
0.0188891 -0.00458677 0
0.0169193 -0.00391673 0
0.0150754 -0.00334068 0
0.0133572 -0.00285262 0
0.0117634 -0.0024437 0
0.0102912 -0.00210643 0
0.0089363 -0.00183343 0
0.00769424 -0.00161552 0
0.00655956 -0.00144452 0
0.00552632 -0.00131235 0
0.00458815 -0.00121216 0
0.00373885 -0.00113394 0
0.00297202 -0.00106855 0
-0.0506847 -0.0440454 0
-0.0467478 -0.0429739 0
-0.0428108 -0.0419025 0
-0.0388739 -0.0408311 0
-0.034937 -0.0397597 0
-0.0310001 -0.0386882 0
-0.0270632 -0.0376168 0
-0.0231263 -0.0365454 0
-0.0191894 -0.0354739 0
-0.0152525 -0.0344025 0
-0.0113155 -0.0333311 0
-0.00737862 -0.0322597 0
-0.00344171 -0.0311882 0
0.0038716 -0.0298185 0
0.00726082 -0.0297726 0
0.010644 -0.0299802 0
0.0140027 -0.0304367 0
0.0173201 -0.0311326 0
0.0205821 -0.0320541 0
0.0237776 -0.0331851 0
0.0268988 -0.0345078 0
0.0299406 -0.0360041 0
0.0329005 -0.0376567 0
0.035778 -0.039449 0
0.038574 -0.0413659 0
0.0412905 -0.043394 0
0.0439303 -0.0455212 0
0.0464964 -0.0477367 0
0.0489922 -0.0500312 0
0.051421 -0.0523964 0
0.0537863 -0.0548252 0
0.0560914 -0.0573112 0
0.0583395 -0.0598489 0
0.0605336 -0.0624334 0
0.0626765 -0.0650605 0
0.064771 -0.0677264 0
0.0668197 -0.0704277 0
0.0688248 -0.0731615 0
0.0707885 -0.0759252 0
0.072713 -0.0787163 0
0.0746002 -0.0815329 0
0.0764517 -0.0843729 0
0.0782695 -0.0872347 0
0.0829558 -0.0924852 0
0.0858567 -0.0948536 0
0.0887575 -0.0972221 0
0.0916584 -0.0995905 0
0.0945593 -0.101959 0
0.0974602 -0.104327 0
0.100361 -0.106696 0
0.103262 -0.109064 0
0.106163 -0.111433 0
0.109064 -0.113801 0
0.111965 -0.116169 0
0.114865 -0.118538 0
0.117766 -0.120906 0
0.120667 -0.123275 0
0.123568 -0.125643 0
0.126469 -0.128012 0
0.12937 -0.13038 0
0.132271 -0.132748 0
0.135172 -0.13118 0
0.135172 -0.127243 0
0.135172 -0.123306 0
0.135172 -0.119369 0
0.135172 -0.115432 0
0.135172 -0.111495 0
0.135172 -0.107558 0
0.135172 -0.103621 0
0.135172 -0.0996846 0
0.135172 -0.0957477 0
0.135172 -0.0918107 0
0.135172 -0.0878738 0
0.135172 -0.0839369 0
0.132271 -0.0776316 0
0.12937 -0.0752632 0
0.126469 -0.0728947 0
0.123568 -0.0705263 0
0.120667 -0.0681579 0
0.117766 -0.0657895 0
0.114865 -0.0634211 0
0.111965 -0.0610526 0
0.109064 -0.0586842 0
0.106163 -0.0563158 0
0.103262 -0.0539474 0
0.100361 -0.0515789 0
0.0974602 -0.0492105 0
0.0945593 -0.0468421 0
0.0916584 -0.0444737 0
0.0887575 -0.0421053 0
0.0858567 -0.0397368 0
0.0829558 -0.0373684 0
0.0782695 -0.0321179 0
0.0764517 -0.0292561 0
0.0746002 -0.026416 0
0.072713 -0.0235995 0
0.0707885 -0.0208084 0
0.0688248 -0.0180447 0
0.0668197 -0.0153109 0
0.064771 -0.0126096 0
0.0626765 -0.00994373 0
0.0605336 -0.00731663 0
0.0583395 -0.00473208 0
0.0560914 -0.00219437 0
0.0537863 0.000291632 0
0.051421 0.00272041 0
0.0489922 0.00508564 0
0.0464964 0.00738012 0
0.0439303 0.00959562 0
0.0412905 0.0117228 0
0.038574 0.0137509 0
0.035778 0.0156678 0
0.0329005 0.0174601 0
0.0299406 0.0191127 0
0.0268988 0.020609 0
0.0237776 0.0219317 0
0.0205821 0.0230627 0
0.0173201 0.0239842 0
0.0140027 0.0246801 0
0.010644 0.0251366 0
0.00726082 0.0253442 0
0.0038716 0.0252983 0
-0.00344171 0.0239286 0
-0.00737862 0.0228571 0
-0.0113155 0.0217857 0
-0.0152525 0.0207143 0
-0.0191894 0.0196429 0
-0.0231263 0.0185714 0
-0.0270632 0.0175 0
-0.0310001 0.0164286 0
-0.034937 0.0153571 0
-0.0388739 0.0142857 0
-0.0428108 0.0132143 0
-0.0467478 0.0121429 0
-0.0506847 0.0110714 0
-0.0546216 0.00606309 0
-0.0546216 0.00212617 0
-0.0546216 -0.00181074 0
-0.0546216 -0.00574766 0
-0.0546216 -0.00968457 0
-0.0546216 -0.0136215 0
-0.0546216 -0.0175584 0
-0.0546216 -0.0214953 0
-0.0546216 -0.0254322 0
-0.0546216 -0.0293691 0
-0.0546216 -0.0333061 0
-0.0546216 -0.037243 0
-0.0546216 -0.0411799 0
-0.0506847 -0.0440454 -0.00551168
-0.0467478 -0.0429739 -0.00551168
-0.0428108 -0.0419025 -0.00551168
-0.0388739 -0.0408311 -0.00551168
-0.034937 -0.0397597 -0.00551168
-0.0310001 -0.0386882 -0.00551168
-0.0270632 -0.0376168 -0.00551168
-0.0231263 -0.0365454 -0.00551168
-0.0191894 -0.0354739 -0.00551168
-0.0152525 -0.0344025 -0.00551168
-0.0113155 -0.0333311 -0.00551168
-0.00737862 -0.0322597 -0.00551168
-0.00344171 -0.0311882 -0.00551168
0.0038716 -0.0298185 -0.00551168
0.00726082 -0.0297726 -0.00551168
0.010644 -0.0299802 -0.00551168
0.0140027 -0.0304367 -0.00551168
0.0173201 -0.0311326 -0.00551168
0.0205821 -0.0320541 -0.00551168
0.0237776 -0.0331851 -0.00551168
0.0268988 -0.0345078 -0.00551168
0.0299406 -0.0360041 -0.00551168
0.0329005 -0.0376567 -0.00551168
0.035778 -0.039449 -0.00551168
0.038574 -0.0413659 -0.00551168
0.0412905 -0.043394 -0.00551168
0.0439303 -0.0455212 -0.00551168
0.0464964 -0.0477367 -0.00551168
0.0489922 -0.0500312 -0.00551168
0.051421 -0.0523964 -0.00551168
0.0537863 -0.0548252 -0.00551168
0.0560914 -0.0573112 -0.00551168
0.0583395 -0.0598489 -0.00551168
0.0605336 -0.0624334 -0.00551168
0.0626765 -0.0650605 -0.00551168
0.064771 -0.0677264 -0.00551168
0.0668197 -0.0704277 -0.00551168
0.0688248 -0.0731615 -0.00551168
0.0707885 -0.0759252 -0.00551168
0.072713 -0.0787163 -0.00551168
0.0746002 -0.0815329 -0.00551168
0.0764517 -0.0843729 -0.00551168
0.0782695 -0.0872347 -0.00551168
0.0829558 -0.0924852 -0.00551168
0.0858567 -0.0948536 -0.00551168
0.0887575 -0.0972221 -0.00551168
0.0916584 -0.0995905 -0.00551168
0.0945593 -0.101959 -0.00551168
0.0974602 -0.104327 -0.00551168
0.100361 -0.106696 -0.00551168
0.103262 -0.109064 -0.00551168
0.106163 -0.111433 -0.00551168
0.109064 -0.113801 -0.00551168
0.111965 -0.116169 -0.00551168
0.114865 -0.118538 -0.00551168
0.117766 -0.120906 -0.00551168
0.120667 -0.123275 -0.00551168
0.123568 -0.125643 -0.00551168
0.126469 -0.128012 -0.00551168
0.12937 -0.13038 -0.00551168
0.132271 -0.132748 -0.00551168
0.135172 -0.13118 -0.00551168
0.135172 -0.127243 -0.00551168
0.135172 -0.123306 -0.00551168
0.135172 -0.119369 -0.00551168
0.135172 -0.115432 -0.00551168
0.135172 -0.111495 -0.00551168
0.135172 -0.107558 -0.00551168
0.135172 -0.103621 -0.00551168
0.135172 -0.0996846 -0.00551168
0.135172 -0.0957477 -0.00551168
0.135172 -0.0918107 -0.00551168
0.135172 -0.0878738 -0.00551168
0.135172 -0.0839369 -0.00551168
0.132271 -0.0776316 -0.00551168
0.12937 -0.0752632 -0.00551168
0.126469 -0.0728947 -0.00551168
0.123568 -0.0705263 -0.00551168
0.120667 -0.0681579 -0.00551168
0.117766 -0.0657895 -0.00551168
0.114865 -0.0634211 -0.00551168
0.111965 -0.0610526 -0.00551168
0.109064 -0.0586842 -0.00551168
0.106163 -0.0563158 -0.00551168
0.103262 -0.0539474 -0.00551168
0.100361 -0.0515789 -0.00551168
0.0974602 -0.0492105 -0.00551168
0.0945593 -0.0468421 -0.00551168
0.0916584 -0.0444737 -0.00551168
0.0887575 -0.0421053 -0.00551168
0.0858567 -0.0397368 -0.00551168
0.0829558 -0.0373684 -0.00551168
0.0782695 -0.0321179 -0.00551168
0.0764517 -0.0292561 -0.00551168
0.0746002 -0.026416 -0.00551168
0.072713 -0.0235995 -0.00551168
0.0707885 -0.0208084 -0.00551168
0.0688248 -0.0180447 -0.00551168
0.0668197 -0.0153109 -0.00551168
0.064771 -0.0126096 -0.00551168
0.0626765 -0.00994373 -0.00551168
0.0605336 -0.00731663 -0.00551168
0.0583395 -0.00473208 -0.00551168
0.0560914 -0.00219437 -0.00551168
0.0537863 0.000291632 -0.00551168
0.051421 0.00272041 -0.00551168
0.0489922 0.00508564 -0.00551168
0.0464964 0.00738012 -0.00551168
0.0439303 0.00959562 -0.00551168
0.0412905 0.0117228 -0.00551168
[...]
CELL_DATA 2965
SCALARS rho float
LOOKUP_TABLE default
0.689167
0.4772
0.597702
0.342525
0.696589
0.50322
0.570822
0.475184
0.527426
0.597703
0.340746
0.382741
0.5977
0.688371
0.597701
0.614487
0.681029
0.709016
0.696544
0.682527
0.68906
0.490486
0.707153
0.702697
0.614194
0.698018
0.5977
0.629549
0.349312
0.5977
0.5977
0.456324
0.695844
0.597703
0.56923
0.492775
0.660941
0.590398
0.457238
0.5977
0.630372
0.5977
0.689829
0.476533
0.514298
0.689695
0.5977
0.700135
0.59771
0.682419
0.594922
0.479886
0.511849
0.5977
0.350395
0.597707
0.503974
0.336911
0.564131
0.5977
0.5977
0.705579
0.422493
0.699208
0.714373
0.690188
0.554627
0.49816
0.476925
0.335348
0.707047
0.694966
0.553418
0.579525
0.5977
0.5977
0.685836
0.468292
0.525555
0.5977
0.555607
0.432048
0.453602
0.5977
0.713708
0.593359
0.527287
0.597714
0.694608
0.526794
0.44825
0.689569
0.688214
0.5977
0.689767
0.501656
0.5977
0.513284
0.336467
0.450365
0.5977
0.452167
0.335637
0.519898
0.335475
0.68901
0.686503
0.522879
0.336721
0.673988
0.514921
0.5977
0.5977
0.69889
0.487638
0.565055
0.705492
0.5977
0.688405
0.3738
0.557875
0.54969
0.697726
0.694117
0.710828
0.597687
0.377503
0.597175
0.597701
0.560056
0.338843
0.597701
0.589442
0.336639
0.5977
0.49606
0.5977
0.688359
0.694182
0.695874
0.33871
0.643121
0.601808
0.597519
0.597716
0.697469
0.422837
0.694509
0.6943
0.499419
0.370924
0.359721
0.335742
0.431622
0.567615
0.597716
0.615065
0.597704
0.703486
0.701283
0.5977
0.5977
0.597707
0.576979
0.491133
0.559035
0.5977
0.474911
0.666797
0.688588
0.5977
0.597717
0.597699
0.594436
0.704137
0.5977
0.5977
0.597713
0.560132
0.597708
0.506529
0.560279
0.514175
0.573252
0.69375
0.560413
0.353241
0.371955
0.594333
0.336448
0.46878
0.338487
0.5977
0.595639
0.592243
0.5977
0.602975
0.672424
0.5977
0.509656
0.480722
0.449678
0.688536
0.5977
0.551458
0.524669
0.597699
0.599637
0.707065
0.685475
0.683359
0.597709
0.561692
0.491603
0.596013
0.51018
0.5977
0.514283
0.591817
0.336416
0.528446
0.402202
0.5977
0.595041
0.697985
0.518744
0.557905
0.597701
0.597701
0.5977
0.534278
0.5875
0.688451
0.493899
0.689399
0.689598
0.336064
0.5977
0.336185
0.5977
0.597708
0.354205
0.698401
0.5977
0.361194
0.54431
0.593134
0.689411
0.5977
0.597423
0.476061
0.363382
0.60918
0.51899
0.707289
0.59453
0.589654
0.6865
0.689613
0.335684
0.594117
0.597699
0.695198
0.488779
0.597701
0.685125
0.562167
0.5977
0.597701
0.511487
0.385272
0.687919
0.39527
0.695542
0.593909
0.399562
0.706739
0.593426
0.696909
0.688034
0.708787
0.713393
0.686943
0.689689
0.597718
0.505241
0.703452
0.698874
0.393353
0.687643
0.5977
0.535104
0.446839
0.453499
0.5977
0.513715
0.688468
0.5977
0.697559
0.33704
0.5977
0.58999
0.5977
0.689744
0.355473
0.559294
0.69475
0.665446
0.685448
0.460375
0.392183
0.5977
0.588315
0.575123
0.704019
0.558242
0.715461
0.516358
0.336089
0.5977
0.708328
0.467523
0.688926
0.549664
0.377704
0.5977
0.68933
0.5977
0.579252
0.356963
0.689273
0.519218
0.687781
0.595781
0.696998
0.59771
0.597703
0.492044
0.369861
0.597699
0.708333
0.696781
0.687144
0.636877
0.607171
0.5977
0.516211
0.689896
0.705002
0.335508
0.340335
0.689436
0.462705
0.686647
0.71182
0.336167
0.336059
0.449099
0.336071
0.55666
0.335572
0.401776
0.592096
0.458974
0.69045
0.689805
0.5977
0.673433
0.337872
0.703162
0.365056
0.689449
0.342233
0.500016
0.687599
0.5977
0.585412
0.55894
0.689524
0.5977
0.5977
0.595194
0.597698
0.689717
0.595138
0.450525
0.689266
0.567024
0.688786
0.589575
0.592622
0.467916
0.687538
0.5977
0.5977
0.689712
0.597712
0.706274
0.597699
0.380533
0.703737
0.579692
0.597682
0.597708
0.5977
0.597681
0.597699
0.375047
0.596426
0.36368
0.502041
0.597702
0.689855
0.689662
0.678481
0.496488
0.687369
0.5977
0.706223
0.553804
0.689435
0.519726
0.700576
0.714439
0.442304
0.56215
0.59771
0.597702
0.587095
0.5977
0.686776
0.566643
0.702946
0.55818
0.68476
0.519067
0.336584
0.597709
0.69726
0.692456
0.5977
0.591246
0.552842
0.597702
0.693427
0.687353
0.690435
0.688201
0.687845
0.33759
0.5977
0.592321
0.336114
0.554588
0.50744
0.5977
0.688956
0.588908
0.597711
0.595937
0.507698
0.694255
0.689864
0.656048
0.696906
0.597704
0.689744
0.689804
0.597695
0.688874
0.592433
0.597708
0.703042
0.689384
0.687214
0.699643
0.336667
0.336121
0.695605
0.686811
0.336063
0.690123
0.5977
0.689246
0.508767
0.515759
0.689643
0.336074
0.5977
0.689556
0.688928
0.335715
0.690349
0.386303
0.393909
0.501744
0.5977
0.690086
0.597328
0.702194
0.597598
0.488373
0.686653
0.502403
0.597423
0.335864
0.564219
0.586414
0.33591
0.535558
0.597699
0.5977
0.358342
0.531403
0.688632
0.337161
0.5977
0.689398
0.68974
0.705974
0.710392
0.597702
0.5977
0.581654
0.593476
0.689599
0.592511
0.572243
0.669247
0.529384
0.594892
0.574444
0.686655
0.696673
0.405825
0.705943
0.688515
0.573932
0.462323
0.584812
0.648835
0.586761
0.594591
0.5977
0.336314
0.585622
0.377136
0.5977
0.597701
0.5977
0.697738
0.341938
0.511129
0.697405
0.5977
0.510902
0.504133
0.518291
0.525116
0.689671
0.689759
0.684843
0.336409
0.559592
0.384798
0.395249
0.688418
0.594476
0.5977
0.367676
0.700069
0.688165
0.450565
0.676696
0.596123
0.709208
0.597731
0.693025
0.597702
0.694771
0.5977
0.681727
0.699825
0.515322
0.5977
0.480311
0.597694
0.55495
0.532747
0.690548
0.688597
0.689328
0.377196
0.36759
0.695531
0.693175
0.492206
0.689959
0.567668
0.597553
0.484008
0.695395
0.700315
0.5977
0.566701
0.597723
0.505458
0.392327
0.695028
0.571902
0.700521
0.398286
0.340309
0.5977
0.701865
0.636524
0.688211
0.629074
0.597706
0.686545
0.692814
0.708245
0.41674
0.685399
0.593131
0.554211
0.688542
0.709615
0.706955
0.591407
0.696641
0.471251
0.696576
0.68852
0.547162
0.573109
0.5977
0.685391
0.336769
0.336721
0.689579
0.571864
0.336298
0.696138
0.574086
0.597705
0.684248
0.582955
0.695171
0.528997
0.5977
0.689865
0.68784
0.707143
0.597716
0.528588
0.590939
0.5977
0.486436
0.5977
0.597707
0.688279
0.335973
0.5977
0.703876
0.645485
0.363359
0.5977
0.530926
0.597709
0.5977
0.380698
0.566289
0.336214
0.689351
0.5977
0.5977
0.359021
0.688219
0.716116
0.351121
0.688486
0.336112
0.5977
0.5977
0.55757
0.688491
0.570807
0.52664
0.686441
0.69921
0.5977
0.7051
0.696531
0.5977
0.5977
0.356381
0.5977
0.595765
0.591114
0.592806
0.669251
0.701738
0.705381
0.597683
0.394745
0.617389
0.350205
0.445153
0.5977
0.336857
0.5977
0.468445
0.563768
0.469404
0.556195
0.597699
0.696032
0.384806
0.59772
0.703194
0.698031
0.695767
0.535697
0.597719
0.68595
0.576136
0.597723
0.477005
0.597699
0.698038
0.564798
0.703129
0.416225
0.5977
0.689653
0.5977
0.5977
0.5977
0.597688
0.705412
0.698684
0.700197
0.695537
0.59688
0.555146
0.507712
0.5977
0.685082
0.520607
0.695611
0.597701
0.597544
0.690076
0.715551
0.704003
0.594546
0.711783
0.592564
0.597713
0.600441
0.394254
0.588296
0.689576
0.688718
0.592325
0.346019
0.686959
0.5977
0.597558
0.547551
0.554317
0.705454
0.59607
0.696656
0.703773
0.710901
0.597709
0.5977
0.521755
0.552834
0.639359
0.652452
0.578172
0.597398
0.694681
0.65998
0.699474
0.534906
0.671362
0.386645
0.509854
0.375789
0.684702
0.706918
0.692138
0.5977
0.335751
0.688225
0.596517
0.705605
0.695162
0.67173
0.344203
0.59772
0.689337
0.350228
0.5977
0.610698
0.336311
0.58501
0.5977
0.606335
0.336341
0.636919
0.689955
0.345634
0.673305
0.689981
0.685639
0.52432
0.560274
0.583322
0.5977
0.336115
0.597707
0.689401
0.525348
0.597712
0.336435
0.572259
0.596129
0.407818
0.340591
0.696997
0.411564
0.584616
0.698341
0.68425
0.686239
0.650512
0.712198
0.417626
0.696485
0.689763
0.597712
0.701545
0.702265
0.54835
0.556974
0.523165
0.675628
0.500621
0.641456
0.597712
0.689019
0.336217
0.597702
0.597705
0.591743
0.69536
0.696939
0.5977
0.689407
0.694776
0.597715
0.689372
0.571537
0.54675
0.690077
0.375688
0.597709
0.384584
0.336152
0.552576
0.597706
0.689511
0.533287
0.597701
0.683695
0.69125
0.5977
0.490706
0.567919
0.337177
0.596544
0.686988
0.59771
0.336179
0.689058
0.336012
0.5977
0.690055
0.689904
0.68056
0.686557
0.557532
0.5977
0.597698
0.55613
0.689102
0.5977
0.517206
0.6881
0.684764
0.692867
0.715024
0.681288
0.594422
0.688431
0.593084
0.597703
0.689711
0.346152
0.597694
0.523051
0.5977
0.686692
0.5977
0.690202
0.5977
0.5977
0.690822
0.379517
0.685912
0.360116
0.344803
0.596675
0.638338
0.715722
0.5977
0.597577
0.55153
0.684234
0.547453
0.68879
0.69012
0.696407
0.524435
0.713332
0.694667
0.5977
0.594413
0.533318
0.5977
0.345997
0.688813
0.355329
0.338633
0.464933
0.644742
0.68909
0.597703
0.597702
0.341705
0.341644
0.689093
0.702232
0.584076
0.706158
0.597699
0.336253
0.707027
0.407683
0.543819
0.686127
0.5977
0.410494
0.685592
0.69545
0.706128
0.33657
0.704285
0.56337
0.687199
0.5977
0.5977
0.47489
0.697779
0.525382
0.508415
0.337813
0.703888
0.595797
0.708046
0.703459
0.588675
0.511374
0.5977
0.696489
0.597718
0.555869
0.336486
0.689815
0.597718
0.409525
0.597707
0.5977
0.336052
0.336612
0.515899
0.689476
0.696772
0.506673
0.696823
0.688353
0.604418
0.412359
0.597713
0.597704
0.33702
0.696222
0.579982
0.704066
0.519084
0.538453
0.683532
0.338947
0.407784
0.33647
0.68946
0.595756
0.5977
0.591737
0.386898
0.597701
0.444747
0.704313
0.597699
0.33655
0.336092
0.690098
0.597699
0.689647
0.497014
0.406113
0.597701
0.557458
0.381241
0.358187
0.416572
0.597701
0.591519
0.472208
0.597695
0.69048
0.689574
0.705355
0.347551
0.597709
0.597706
0.689778
0.690047
0.618131
0.345351
0.705146
0.6855
0.336388
0.701804
0.597283
0.340498
0.441762
0.553752
0.564775
0.698241
0.336396
0.689702
0.597711
0.554574
0.5977
0.591528
0.67296
0.514611
0.597072
0.336323
0.68907
0.689383
0.54758
0.380612
0.513799
0.5977
0.695603
0.377971
0.571707
0.471403
0.5977
0.694949
0.519661
0.338024
0.686872
0.597706
0.687246
0.343376
0.509417
0.686899
0.689139
0.336924
0.510592
0.5977
0.697587
0.707028
0.580134
0.688734
0.689377
0.593539
0.692663
0.461034
0.597707
0.577362
0.585355
0.395789
0.571181
0.690331
0.51718
0.347574
0.542476
0.3359
0.709866
0.596927
0.700321
0.336264
0.554332
0.684681
0.688827
0.708048
0.689705
0.695714
0.705508
0.706385
0.656937
0.69004
0.560159
0.594507
0.697799
0.595902
0.645244
0.694915
0.688551
0.68935
0.522539
0.686064
0.550064
0.684719
0.412487
0.704717
0.690067
0.689727
0.590388
0.525544
0.5977
0.537695
0.597709
0.34117
0.347453
0.336363
0.336445
0.689573
0.597701
0.685928
0.489053
0.688845
0.678198
0.690321
0.342632
0.36598
0.693229
0.442733
0.57633
0.337556
0.673106
0.5977
0.689303
0.351086
0.699256
0.690271
0.583419
0.679654
0.337327
0.695329
0.689305
0.685693
0.693832
0.689438
0.5977
0.487963
0.519523
0.363705
0.689463
0.568046
0.597655
0.689581
0.704445
0.339182
0.469972
0.5977
0.699569
0.677049
0.354522
0.685768
0.5977
0.596912
0.689572
0.335954
0.597711
0.337649
0.473952
0.336267
0.695509
0.686457
0.695047
0.5977
0.595765
0.689832
0.705528
0.689165
0.696882
0.703004
0.689281
0.689495
0.440727
0.647037
0.688726
0.597704
0.340558
0.679978
0.54215
0.68836
0.5977
0.627609
0.707895
0.336885
0.597704
0.445815
0.686588
0.703524
0.70708
0.5977
0.683916
0.707368
0.689786
0.538837
0.597699
0.5977
0.554182
0.689825
0.693617
0.5977
0.701911
0.687016
0.689186
0.5375
0.34394
0.5977
0.695307
0.500091
0.516034
0.70625
0.690052
0.689701
0.562635
0.668887
0.686118
0.682337
0.339959
0.688918
0.5977
0.5977
0.5977
0.5977
0.690024
0.552266
0.687541
0.370456
0.33967
0.689429
0.595633
0.597702
0.357797
0.685319
0.704375
0.597701
0.689745
0.5977
0.513354
0.597707
0.696034
0.690672
0.587439
0.5977
0.565103
0.686427
0.597699
0.349728
0.69081
0.700944
0.336083
0.689085
0.687559
0.568028
0.5977
0.689303
0.590338
0.689439
0.702932
0.689727
0.336243
0.5977
0.5977
0.597699
0.689321
0.695138
0.690269
0.689779
0.689158
0.689617
0.684444
0.476307
0.695711
0.5977
0.463818
0.5977
0.688717
0.695892
0.705722
0.345425
0.591325
0.383145
0.707473
0.594474
0.701157
0.396101
0.666298
0.689174
0.657673
0.592884
0.71152
0.638485
0.59766
0.597707
0.351212
0.588913
0.572427
0.567781
0.544219
0.65468
0.4647
0.699217
0.514746
0.700839
0.410954
0.415677
0.687067
0.597709
0.57342
0.703043
0.689416
0.700727
0.336228
0.70496
0.694803
0.68989
0.362155
0.558507
0.699417
0.336796
0.597656
0.597702
0.687729
0.508543
0.595591
0.5977
0.341942
0.58968
0.350319
0.335785
0.688327
0.597712
0.679452
0.336078
0.699998
0.5977
0.55786
0.541163
0.533074
0.68648
0.50229
0.558675
0.536707
0.689213
0.704647
0.5977
0.574315
0.597701
0.559011
0.689398
0.698698
0.690544
0.616606
0.505813
0.51475
0.51469
0.335856
0.688497
0.433483
0.597702
0.515372
0.686194
0.685908
0.68952
0.336436
0.688842
0.524795
0.688899
0.700207
0.513315
0.689656
0.704509
0.421802
0.703529
0.339954
0.510007
0.695957
0.597716
0.696429
0.548028
0.495
0.684622
0.514757
0.597699
0.365053
0.5977
0.689584
0.689272
0.597701
0.594363
0.578028
0.629162
0.554949
0.51329
0.688809
0.5168
0.700234
0.346134
0.513954
0.597701
0.5977
0.5977
0.703954
0.689672
0.5977
0.596986
0.684898
0.68948
0.490128
0.686341
0.513413
0.417366
0.713113
0.597704
0.596196
0.597699
0.336008
0.707641
0.646088
0.70147
0.533501
0.55332
0.582663
0.5977
0.68918
0.694816
0.353514
0.597701
0.686977
0.704724
0.597699
0.336307
0.427887
0.347608
0.69373
0.687321
0.597698
0.531338
0.597699
0.371314
0.699245
0.5977
0.597701
0.68879
0.597709
0.691599
0.701262
0.338481
0.511036
0.61285
0.49488
0.596553
0.689583
0.582167
0.338957
0.336168
0.5977
0.589547
0.5977
0.335909
0.495089
0.5977
0.689095
0.714408
0.693772
0.336105
0.522334
0.520387
0.5977
0.440549
0.521614
0.686728
0.59277
0.5977
0.469077
0.466154
0.515267
0.688851
0.59762
0.687167
0.592379
0.694381
0.5977
0.702832
0.695448
0.579489
0.336574
0.689221
0.518224
0.5977
0.685949
0.694586
0.597701
0.390142
0.506109
0.697661
0.597702
0.597699
0.685603
0.689454
0.569494
0.336437
0.5977
0.5977
0.432189
0.338226
0.69139
0.5977
0.703503
0.70784
0.583397
0.518163
0.434821
0.597699
0.577872
0.555558
0.688799
0.597701
0.685495
0.544328
0.713575
0.532155
0.68939
0.698707
0.418192
0.566573
0.687871
0.597408
0.5977
0.689819
0.536517
0.688002
0.597472
0.689406
0.658957
0.704293
0.513108
0.336315
0.524785
0.5977
0.689349
0.704081
0.5977
0.33943
0.336228
0.5977
0.340777
0.685784
0.689645
0.687914
0.583014
0.407629
0.5977
0.706083
0.558444
0.704553
0.689734
0.689478
0.689267
0.708325
0.56711
0.683491
0.710823
0.688241
0.483527
0.686823
0.5977
0.704085
0.695326
0.5977
0.5977
0.686048
0.597656
0.549571
0.432367
0.704033
0.700989
0.449623
0.704596
0.501747
0.517014
0.557719
0.68899
0.34152
0.5977
0.689649
0.509769
0.539897
0.692427
0.703172
0.5977
0.515195
0.5977
0.45589
0.693736
0.701821
0.33616
0.597702
0.5977
0.485241
0.348098
0.486328
0.701606
0.70328
0.336765
0.512623
0.5977
0.46119
0.518155
0.706008
0.431382
0.701048
0.689678
0.696535
0.406835
0.690389
0.594689
0.686722
0.5977
0.689144
0.40335
0.571802
0.336105
0.68611
0.589267
0.336478
0.705299
0.335538
0.588978
0.5977
0.5977
0.5977
0.500882
0.705502
0.688777
0.687984
0.703532
0.700103
0.336038
0.507469
0.336647
0.5977
0.688989
0.336466
0.703679
0.361413
0.597471
0.689141
0.542935
0.539808
0.556012
0.597699
0.335835
0.689358
0.702076
0.700037
0.583051
0.689793
0.696229
0.33641
0.689151
0.589938
0.689518
0.52471
0.596853
0.689527
0.4157
0.59731
0.68946
0.5977
0.336296
0.700219
0.5977
0.690493
0.59771
0.501506
0.675897
0.690245
0.597701
0.514317
0.5977
0.5977
0.689389
0.51726
0.337872
0.692148
0.703847
0.478276
0.336121
0.685769
0.42586
0.482463
0.396003
0.5977
0.698982
0.450142
0.694836
0.535924
0.432441
0.533218
0.5977
0.488912
0.699824
0.388469
0.524021
0.5977
0.688391
0.597724
0.679563
0.336021
0.434889
0.710829
0.696529
0.593947
0.5977
0.703782
0.695645
0.367106
0.688387
0.5596
0.640161
0.651399
0.597709
0.597515
0.689262
0.690381
0.689722
0.5977
0.541292
0.597705
0.336027
0.704456
0.688731
0.5977
0.515268
0.701615
0.588113
0.623969
0.35098
0.597698
0.693259
0.539095
0.68836
0.696898
0.5977
0.335895
0.597715
0.689648
0.5977
0.56012
0.698739
0.417029
0.671003
0.550497
0.414721
0.530994
0.689439
0.5977
0.688557
0.336316
0.486621
0.687009
0.690512
0.570619
0.597714
0.577299
0.5977
0.46113
0.5977
0.687231
0.678929
0.556716
0.453835
0.5977
0.5977
0.704654
0.690355
0.54852
0.710128
0.687198
0.688137
0.642424
0.441688
0.706117
0.482892
0.597218
0.699305
0.686901
0.688263
0.690056
0.70437
0.690523
0.69581
0.686041
0.702099
0.700181
0.689587
0.689406
0.33626
0.426925
0.689702
0.597699
0.68827
0.558045
0.699019
0.5977
0.698619
0.43579
0.358034
0.578164
0.336244
0.342364
0.356411
0.690253
0.597497
0.689023
0.704243
0.704725
0.336182
0.681965
0.336078
0.344675
0.695547
0.690225
0.687729
0.597428
0.597461
0.398755
0.346652
0.597699
0.584229
0.597699
0.694983
0.446602
0.686305
0.335864
0.689194
0.689046
0.583001
0.542155
0.705044
0.606199
0.335862
0.611502
0.596049
0.597699
0.381609
0.5977
0.689759
0.55757
0.689722
0.547695
0.446814
0.597505
0.339775
0.555541
0.707568
0.690461
0.483295
0.336362
0.688997
0.690508
0.687992
0.556585
0.592121
0.5977
0.694299
0.597704
0.426872
0.582453
0.513206
0.689314
0.425019
0.336313
0.549238
0.516746
0.689768
0.533719
0.510225
0.597236
0.544136
0.700897
0.551958
0.689751
0.597699
0.696322
0.592972
0.708739
0.463998
0.597701
0.67867
0.5977
0.68874
0.688296
0.69025
0.597703
0.690448
0.689205
0.513795
0.335963
0.69608
0.597699
0.689193
0.48636
0.698201
0.515657
0.687249
0.689346
0.597203
0.69033
0.682464
0.686515
0.336674
0.335649
0.597704
0.697675
0.690053
0.5977
0.698711
0.597701
0.5977
0.689311
0.5977
0.583806
0.690168
0.598823
0.36038
0.336124
0.688888
0.5977
0.461452
0.513236
0.597707
0.550073
0.557647
0.69893
0.411643
0.686607
0.545442
0.68808
0.462539
0.687395
0.588043
0.695117
0.49948
0.5977
0.5977
0.342292
0.488655
0.5977
0.470274
0.708889
0.426447
0.689626
0.557132
0.680436
0.703445
0.690252
0.684695
0.688958
0.703591
0.69762
0.698745
0.5977
0.704408
0.687737
0.510978
0.5977
0.5977
0.690008
0.517003
0.597644
0.699329
0.689267
0.429298
0.496713
0.478179
0.637442
0.704901
0.488766
0.634041
0.597706
0.689104
0.59531
0.5977
0.451494
0.593384
0.695668
0.577202
0.5977
0.496512
0.699207
0.48919
0.689471
0.5977
0.687098
0.478013
0.556066
0.584326
0.692411
0.530092
0.582232
0.513368
0.694105
0.703941
0.701451
0.687322
0.5977
0.709824
0.5977
0.55036
0.688446
0.341702
0.5977
0.687764
0.703176
0.542056
0.547314
0.703948
0.689078
0.597699
0.5977
0.590202
0.677114
0.574052
0.695151
0.687792
0.703134
0.702249
0.579041
0.557721
0.501425
0.690487
0.696948
0.592524
0.689415
0.597717
0.687564
0.545337
0.5977
0.705684
0.5977
0.688641
0.5977
0.430755
0.689578
0.68825
0.506641
0.335906
0.527622
0.695425
0.350368
0.531686
0.481122
0.507408
0.362409
0.58897
0.695675
0.418737
0.590185
0.706386
0.448074
0.674965
0.336403
0.707128
0.428023
0.704396
0.479558
0.703393
0.689511
0.5977
0.59598
0.689866
0.5977
0.471264
0.5977
0.5977
0.3363
0.51383
0.597653
0.552945
0.699835
0.55076
0.336261
0.581347
0.556831
0.687562
0.40387
0.530696
0.695346
0.386241
0.513003
0.686899
0.580171
0.488435
0.512705
0.697236
0.5977
0.699148
0.393544
0.590533
0.687564
0.5977
0.688645
0.597699
0.684937
0.703181
0.597699
0.597516
0.377564
0.49318
0.549665
0.597701
0.592021
0.698969
0.597702
0.686606
0.378312
0.5977
0.597709
0.69874
0.566893
0.597701
0.552676
0.596636
0.477678
0.572778
0.582352
0.685517
0.528513
0.698142
0.556473
0.597686
0.39911
0.5977
0.527031
0.697407
0.533621
0.709179
0.597583
0.369447
0.689323
0.689696
0.538413
0.695064
0.528864
0.426303
0.694242
0.555251
0.5977
0.515396
0.531451
0.689339
0.47799
0.597718
0.561289
0.50209
0.505924
0.597684
0.5977
0.703166
0.695519
0.5977
0.69418
0.5977
0.689191
0.558964
0.68899
0.409907
0.687477
0.336281
0.597702
0.703682
0.695435
0.689511
0.597132
0.59769
0.33618
0.461578
0.516186
0.545254
0.683776
0.5977
0.695838
0.689528
0.597701
0.597707
0.690026
0.597706
0.574087
0.587116
0.676933
0.5977
0.596765
0.688758
0.697962
0.597705
0.59101
0.596199
0.699547
0.5977
0.5977
0.409357
0.340123
0.686095
0.5977
0.695955
0.590225
0.5977
0.689425
0.709058
0.687632
0.703255
0.689582
0.695466
0.555273
0.432957
0.338108
0.688674
0.696132
0.574525
0.704541
0.566563
0.33599
0.695506
0.580069
0.577965
0.504672
0.5977
0.49558
0.597332
0.583995
0.698544
0.696913
0.547236
0.695642
0.681205
0.557852
0.597707
0.68845
0.519313
0.695303
0.689646
0.496538
0.431082
0.596964
0.690451
0.383693
0.527164