# vtk DataFile Version 1.0
unstructured grid
ascii
DATASET UNSTRUCTURED_GRID
points 3226 float
0.0796578 -0.059106 0
0.00128732 0.00159165 0
0.00227961 -0.00102548 0
0.0791586 -0.0598787 0
-0.0546216 0.01 0
0.000495206 0.025 0
0.0800549 -0.035 0
0.135172 -0.08 0
-0.0546216 -0.0451168 0
0.000495206 -0.0301168 0
0.0800549 -0.0901168 0
0.135172 -0.135117 0
-0.0546216 -0.0451168 -0.00551168
0.000495206 -0.0301168 -0.00551168
0.0800549 -0.0901168 -0.00551168
0.135172 -0.135117 -0.00551168
0.135172 -0.08 -0.00551168
0.0800549 -0.035 -0.00551168
0.000495206 0.025 -0.00551168
-0.0546216 0.01 -0.00551168
0.00128732 0.00159165 -0.00551168
0.00227961 -0.00102548 -0.00551168
0.0791586 -0.0598787 -0.00551168
0.0796578 -0.059106 -0.00551168
0.00110182 -0.000823821 0
0.000571683 -0.000188043 0
0.000561313 0.000639162 0
0.00189316 0.00207203 0
0.00260228 0.00255358 0
0.0033966 0.00307293 0
0.00428861 0.00362634 0
0.00529726 0.0041979 0
0.00644092 0.00476696 0
0.00773158 0.0053187 0
0.00918011 0.00583593 0
0.010799 0.00628751 0
0.012597 0.00663225 0
0.0145725 0.0068517 0
0.0167206 0.0069338 0
0.0190349 0.00685819 0
0.0215031 0.00658621 0
0.0241038 0.00607459 0
0.026821 0.00533786 0
0.0296245 0.00434523 0
0.0324763 0.00306927 0
0.0353199 0.00146906 0
0.0381488 -0.00039338 0
0.0409131 -0.00252802 0
0.0435632 -0.00493276 0
0.0460882 -0.0075571 0
0.0484881 -0.0103478 0
0.0506782 -0.0133217 0
0.0526651 -0.016422 0
0.0546139 -0.0195019 0
0.0565301 -0.022529 0
0.0584009 -0.0254846 0
0.0602154 -0.0283513 0
0.061964 -0.031114 0
0.0636389 -0.0337601 0
0.0652336 -0.0362795 0
0.0667431 -0.0386651 0
0.0681656 -0.0409111 0
0.0694983 -0.0430158 0
0.0707356 -0.0449823 0
0.071886 -0.0468071 0
0.0729575 -0.04849 0
0.0739438 -0.0500408 0
0.0748444 -0.0514675 0
0.0756707 -0.0527715 0
0.0764313 -0.053958 0
0.0771224 -0.0550398 0
0.0777384 -0.0560288 0
0.0782803 -0.0569318 0
0.0787691 -0.0577448 0
0.0792251 -0.0584672 0
0.0800494 -0.0597378 0
0.0797987 -0.0601582 0
0.0786655 -0.059391 0
0.0781259 -0.0588425 0
0.0775539 -0.0582102 0
0.0769587 -0.0574783 0
0.0763492 -0.0566339 0
0.075723 -0.0556725 0
0.0750452 -0.0546094 0
0.0742996 -0.0534457 0
0.073478 -0.0521785 0
0.072577 -0.0508019 0
0.0715904 -0.049313 0
0.0705098 -0.047712 0
0.069328 -0.0459996 0
0.0680378 -0.0441794 0
0.066632 -0.0422571 0
0.0651046 -0.0402413 0
0.0634508 -0.0381431 0
0.0616683 -0.0359754 0
0.0597581 -0.033753 0
0.0577255 -0.0314906 0
0.0555808 -0.0292024 0
0.0533388 -0.0269013 0
0.0510024 -0.0246151 0
0.0485693 -0.0223811 0
0.0460535 -0.0202228 0
0.0434788 -0.0181535 0
0.0408704 -0.0161833 0
0.0382442 -0.0143327 0
0.0356165 -0.0126209 0
0.0330065 -0.0110594 0
0.0304368 -0.00965062 0
0.0279338 -0.00838121 0
0.0255194 -0.00723697 0
0.0231965 -0.00623664 0
0.020983 -0.00535765 0
0.0188891 -0.00458677 0
0.0169193 -0.00391673 0
0.0150754 -0.00334068 0
0.0133572 -0.00285262 0
0.0117634 -0.0024437 0
0.0102912 -0.00210643 0
0.0089363 -0.00183343 0
0.00769424 -0.00161552 0
0.00655956 -0.00144452 0
0.00552632 -0.00131235 0
0.00458815 -0.00121216 0
0.00373885 -0.00113394 0
0.00297202 -0.00106855 0
-0.0506847 -0.0440454 0
-0.0467478 -0.0429739 0
-0.0428108 -0.0419025 0
-0.0388739 -0.0408311 0
-0.034937 -0.0397597 0
-0.0310001 -0.0386882 0
-0.0270632 -0.0376168 0
-0.0231263 -0.0365454 0
-0.0191894 -0.0354739 0
-0.0152525 -0.0344025 0
-0.0113155 -0.0333311 0
-0.00737862 -0.0322597 0
-0.00344171 -0.0311882 0
0.0038716 -0.0298185 0
0.00726082 -0.0297726 0
0.010644 -0.0299802 0
0.0140027 -0.0304367 0
0.0173201 -0.0311326 0
0.0205821 -0.0320541 0
0.0237776 -0.0331851 0
0.0268988 -0.0345078 0
0.0299406 -0.0360041 0
0.0329005 -0.0376567 0
0.035778 -0.039449 0
0.038574 -0.0413659 0
0.0412905 -0.043394 0
0.0439303 -0.0455212 0
0.0464964 -0.0477367 0
0.0489922 -0.0500312 0
0.051421 -0.0523964 0
0.0537863 -0.0548252 0
0.0560914 -0.0573112 0
0.0583395 -0.0598489 0
0.0605336 -0.0624334 0
0.0626765 -0.0650605 0
0.064771 -0.0677264 0
0.0668197 -0.0704277 0
0.0688248 -0.0731615 0
0.0707885 -0.0759252 0
0.072713 -0.0787163 0
0.0746002 -0.0815329 0
0.0764517 -0.0843729 0
0.0782695 -0.0872347 0
0.0829558 -0.0924852 0
0.0858567 -0.0948536 0
0.0887575 -0.0972221 0
0.0916584 -0.0995905 0
0.0945593 -0.101959 0
0.0974602 -0.104327 0
0.100361 -0.106696 0
0.103262 -0.109064 0
0.106163 -0.111433 0
0.109064 -0.113801 0
0.111965 -0.116169 0
0.114865 -0.118538 0
0.117766 -0.120906 0
0.120667 -0.123275 0
0.123568 -0.125643 0
0.126469 -0.128012 0
0.12937 -0.13038 0
0.132271 -0.132748 0
0.135172 -0.13118 0
0.135172 -0.127243 0
0.135172 -0.123306 0
0.135172 -0.119369 0
0.135172 -0.115432 0
0.135172 -0.111495 0
0.135172 -0.107558 0
0.135172 -0.103621 0
0.135172 -0.0996846 0
0.135172 -0.0957477 0
0.135172 -0.0918107 0
0.135172 -0.0878738 0
0.135172 -0.0839369 0
0.132271 -0.0776316 0
0.12937 -0.0752632 0
0.126469 -0.0728947 0
0.123568 -0.0705263 0
0.120667 -0.0681579 0
0.117766 -0.0657895 0
0.114865 -0.0634211 0
0.111965 -0.0610526 0
0.109064 -0.0586842 0
0.106163 -0.0563158 0
0.103262 -0.0539474 0
0.100361 -0.0515789 0
0.0974602 -0.0492105 0
0.0945593 -0.0468421 0
0.0916584 -0.0444737 0
0.0887575 -0.0421053 0
0.0858567 -0.0397368 0
0.0829558 -0.0373684 0
0.0782695 -0.0321179 0
0.0764517 -0.0292561 0
0.0746002 -0.026416 0
0.072713 -0.0235995 0
0.0707885 -0.0208084 0
0.0688248 -0.0180447 0
0.0668197 -0.0153109 0
0.064771 -0.0126096 0
0.0626765 -0.00994373 0
0.0605336 -0.00731663 0
0.0583395 -0.00473208 0
0.0560914 -0.00219437 0
0.0537863 0.000291632 0
0.051421 0.00272041 0
0.0489922 0.00508564 0
0.0464964 0.00738012 0
0.0439303 0.00959562 0
0.0412905 0.0117228 0
0.038574 0.0137509 0
0.035778 0.0156678 0
0.0329005 0.0174601 0
0.0299406 0.0191127 0
0.0268988 0.020609 0
0.0237776 0.0219317 0
0.0205821 0.0230627 0
0.0173201 0.0239842 0
0.0140027 0.0246801 0
0.010644 0.0251366 0
0.00726082 0.0253442 0
0.0038716 0.0252983 0
-0.00344171 0.0239286 0
-0.00737862 0.0228571 0
-0.0113155 0.0217857 0
-0.0152525 0.0207143 0
-0.0191894 0.0196429 0
-0.0231263 0.0185714 0
-0.0270632 0.0175 0
-0.0310001 0.0164286 0
-0.034937 0.0153571 0
-0.0388739 0.0142857 0
-0.0428108 0.0132143 0
-0.0467478 0.0121429 0
-0.0506847 0.0110714 0
-0.0546216 0.00606309 0
-0.0546216 0.00212617 0
-0.0546216 -0.00181074 0
-0.0546216 -0.00574766 0
-0.0546216 -0.00968457 0
-0.0546216 -0.0136215 0
-0.0546216 -0.0175584 0
-0.0546216 -0.0214953 0
-0.0546216 -0.0254322 0
-0.0546216 -0.0293691 0
-0.0546216 -0.0333061 0
-0.0546216 -0.037243 0
-0.0546216 -0.0411799 0
-0.0506847 -0.0440454 -0.00551168
-0.0467478 -0.0429739 -0.00551168
-0.0428108 -0.0419025 -0.00551168
-0.0388739 -0.0408311 -0.00551168
-0.034937 -0.0397597 -0.00551168
-0.0310001 -0.0386882 -0.00551168
-0.0270632 -0.0376168 -0.00551168
-0.0231263 -0.0365454 -0.00551168
-0.0191894 -0.0354739 -0.00551168
-0.0152525 -0.0344025 -0.00551168
-0.0113155 -0.0333311 -0.00551168
-0.00737862 -0.0322597 -0.00551168
-0.00344171 -0.0311882 -0.00551168
0.0038716 -0.0298185 -0.00551168
0.00726082 -0.0297726 -0.00551168
0.010644 -0.0299802 -0.00551168
0.0140027 -0.0304367 -0.00551168
0.0173201 -0.0311326 -0.00551168
0.0205821 -0.0320541 -0.00551168
0.0237776 -0.0331851 -0.00551168
0.0268988 -0.0345078 -0.00551168
0.0299406 -0.0360041 -0.00551168
0.0329005 -0.0376567 -0.00551168
0.035778 -0.039449 -0.00551168
0.038574 -0.0413659 -0.00551168
0.0412905 -0.043394 -0.00551168
0.0439303 -0.0455212 -0.00551168
0.0464964 -0.0477367 -0.00551168
0.0489922 -0.0500312 -0.00551168
0.051421 -0.0523964 -0.00551168
0.0537863 -0.0548252 -0.00551168
0.0560914 -0.0573112 -0.00551168
0.0583395 -0.0598489 -0.00551168
0.0605336 -0.0624334 -0.00551168
0.0626765 -0.0650605 -0.00551168
0.064771 -0.0677264 -0.00551168
0.0668197 -0.0704277 -0.00551168
0.0688248 -0.0731615 -0.00551168
0.0707885 -0.0759252 -0.00551168
0.072713 -0.0787163 -0.00551168
0.0746002 -0.0815329 -0.00551168
0.0764517 -0.0843729 -0.00551168
0.0782695 -0.0872347 -0.00551168
0.0829558 -0.0924852 -0.00551168
0.0858567 -0.0948536 -0.00551168
0.0887575 -0.0972221 -0.00551168
0.0916584 -0.0995905 -0.00551168
0.0945593 -0.101959 -0.00551168
0.0974602 -0.104327 -0.00551168
0.100361 -0.106696 -0.00551168
0.103262 -0.109064 -0.00551168
0.106163 -0.111433 -0.00551168
0.109064 -0.113801 -0.00551168
0.111965 -0.116169 -0.00551168
0.114865 -0.118538 -0.00551168
0.117766 -0.120906 -0.00551168
0.120667 -0.123275 -0.00551168
0.123568 -0.125643 -0.00551168
0.126469 -0.128012 -0.00551168
0.12937 -0.13038 -0.00551168
0.132271 -0.132748 -0.00551168
0.135172 -0.13118 -0.00551168
0.135172 -0.127243 -0.00551168
0.135172 -0.123306 -0.00551168
0.135172 -0.119369 -0.00551168
0.135172 -0.115432 -0.00551168
0.135172 -0.111495 -0.00551168
0.135172 -0.107558 -0.00551168
0.135172 -0.103621 -0.00551168
0.135172 -0.0996846 -0.00551168
0.135172 -0.0957477 -0.00551168
0.135172 -0.0918107 -0.00551168
0.135172 -0.0878738 -0.00551168
0.135172 -0.0839369 -0.00551168
0.132271 -0.0776316 -0.00551168
0.12937 -0.0752632 -0.00551168
0.126469 -0.0728947 -0.00551168
0.123568 -0.0705263 -0.00551168
0.120667 -0.0681579 -0.00551168
0.117766 -0.0657895 -0.00551168
0.114865 -0.0634211 -0.00551168
0.111965 -0.0610526 -0.00551168
0.109064 -0.0586842 -0.00551168
0.106163 -0.0563158 -0.00551168
0.103262 -0.0539474 -0.00551168
0.100361 -0.0515789 -0.00551168
0.0974602 -0.0492105 -0.00551168
0.0945593 -0.0468421 -0.00551168
0.0916584 -0.0444737 -0.00551168
0.0887575 -0.0421053 -0.00551168
0.0858567 -0.0397368 -0.00551168
0.0829558 -0.0373684 -0.00551168
0.0782695 -0.0321179 -0.00551168
0.0764517 -0.0292561 -0.00551168
0.0746002 -0.026416 -0.00551168
0.072713 -0.0235995 -0.00551168
0.0707885 -0.0208084 -0.00551168
0.0688248 -0.0180447 -0.00551168
0.0668197 -0.0153109 -0.00551168
0.064771 -0.0126096 -0.00551168
0.0626765 -0.00994373 -0.00551168
0.0605336 -0.00731663 -0.00551168
0.0583395 -0.00473208 -0.00551168
0.0560914 -0.00219437 -0.00551168
0.0537863 0.000291632 -0.00551168
0.051421 0.00272041 -0.00551168
0.0489922 0.00508564 -0.00551168
0.0464964 0.00738012 -0.00551168
0.0439303 0.00959562 -0.00551168
0.0412905 0.0117228 -0.00551168
[...]
CELL_DATA 2965
SCALARS rho float
LOOKUP_TABLE default
0.533133
0.32151
0.524682
0.326583
0.542533
0.344097
0.532884
0.331345
0.341943
0.526023
0.326687
0.333902
0.426826
0.535579
0.519222
0.516598
0.526392
0.51484
0.545049
0.528624
0.533303
0.332547
0.50669
0.534504
0.536051
0.547534
0.457594
0.478726
0.331034
0.504373
0.503721
0.337831
0.553319
0.529305
0.28636
0.34383
0.528468
0.534005
0.318644
0.506653
0.529597
0.502699
0.533809
0.324635
0.305159
0.532405
0.458599
0.467919
0.320779
0.53343
0.389493
0.332533
0.317969
0.426264
0.329387
0.421717
0.34189
0.317411
0.277519
0.476638
0.516036
0.474778
0.334357
0.544316
0.483214
0.532883
0.533112
0.314356
0.305658
0.336802
0.517494
0.54364
0.533165
0.275726
0.499639
0.410029
0.532652
0.332979
0.319621
0.46774
0.533217
0.335198
0.341857
0.437551
0.476487
0.37643
0.319913
0.28536
0.542291
0.342126
0.315609
0.532406
0.517473
0.514602
0.533102
0.320291
0.457376
0.27687
0.344157
0.320436
0.470908
0.321124
0.340693
0.304009
0.345461
0.527354
0.532663
0.339162
0.315691
0.53271
0.223753
0.392631
0.46903
0.490963
0.301882
0.292363
0.502698
0.456486
0.53353
0.32471
0.533191
0.236443
0.539931
0.541304
0.489469
0.400951
0.334336
0.458882
0.531069
0.265273
0.339076
0.428566
0.532179
0.342608
0.461187
0.338122
0.424937
0.515622
0.555399
0.542317
0.342168
0.515158
0.528163
0.332119
0.296341
0.545607
0.328978
0.541514
0.555909
0.34752
0.327238
0.32421
0.340144
0.332033
0.275926
0.280813
0.532806
0.531561
0.522336
0.536915
0.453512
0.463419
0.407359
0.542807
0.342465
0.532903
0.414002
0.328815
0.533216
0.535358
0.482153
0.312013
0.436194
0.519564
0.547649
0.415291
0.512628
0.357463
0.255081
0.417659
0.343384
0.259458
0.321213
0.306601
0.555884
0.532933
0.327411
0.328544
0.389458
0.328459
0.319307
0.319303
0.450538
0.299036
0.533295
0.464339
0.534404
0.483327
0.440599
0.317751
0.330976
0.297274
0.526705
0.439338
0.533034
0.298561
0.429519
0.533241
0.517912
0.533934
0.494021
0.40136
0.342531
0.347331
0.506337
0.35063
0.458881
0.328277
0.516631
0.327556
0.342542
0.33494
0.459114
0.3837
0.545208
0.260455
0.533081
0.522413
0.316027
0.477501
0.325408
0.268219
0.534754
0.317403
0.532907
0.535583
0.329005
0.530707
0.332838
0.352053
0.371969
0.326141
0.543524
0.522723
0.3349
0.23015
0.525886
0.533044
0.447896
0.505568
0.317506
0.332977
0.532817
0.334438
0.473536
0.278152
0.265697
0.533562
0.532357
0.304449
0.461875
0.326839
0.54293
0.341603
0.534825
0.533422
0.268435
0.473304
0.521371
0.302793
0.326861
0.532869
0.327341
0.551044
0.510459
0.326238
0.513508
0.514054
0.552324
0.530999
0.546288
0.462865
0.528691
0.532896
0.316286
0.322781
0.518811
0.538571
0.336707
0.53021
0.462707
0.276157
0.343138
0.318495
0.478557
0.325201
0.532671
0.480092
0.548899
0.326624
0.483829
0.483468
0.476816
0.532567
0.332043
0.235265
0.545036
0.532724
0.532759
0.328554
0.334554
0.48119
0.276508
0.304111
0.484288
0.533099
0.481881
0.219134
0.326524
0.482762
0.489496
0.31882
0.533709
0.533004
0.334008
0.413969
0.532543
0.514955
0.278744
0.322624
0.533551
0.342055
0.537865
0.365806
0.539658
0.394702
0.374643
0.331455
0.332211
0.301099
0.509388
0.547655
0.525059
0.543114
0.482361
0.474312
0.315291
0.533872
0.547479
0.317289
0.319995
0.533651
0.325089
0.515078
0.466249
0.308528
0.33674
0.339293
0.326752
0.533036
0.341731
0.338375
0.38001
0.320729
0.532263
0.533579
0.471378
0.532694
0.328176
0.52986
0.326738
0.53369
0.324236
0.341434
0.534735
0.467511
0.269178
0.263232
0.531155
0.362549
0.499912
0.51419
0.323933
0.5297
0.289344
0.347988
0.533705
0.296176
0.535131
0.282427
0.379755
0.331082
0.535668
0.469057
0.434822
0.532784
0.309081
0.546625
0.345686
0.30689
0.549738
0.287205
0.539809
0.421227
0.488175
0.292961
0.295673
0.311443
0.287379
0.310992
0.345277
0.529155
0.533716
0.533994
0.533464
0.341034
0.53862
0.466616
0.518439
0.245542
0.532325
0.342499
0.480329
0.470562
0.286475
0.533359
0.358356
0.522268
0.308372
0.487283
0.534426
0.286577
0.532453
0.252566
0.537633
0.323982
0.317696
0.416545
0.5441
0.540524
0.394901
0.261019
0.246193
0.419532
0.543148
0.526775
0.532218
0.530334
0.536261
0.316628
0.513828
0.481615
0.303604
0.240894
0.301469
0.498592
0.535408
0.366573
0.382098
0.373112
0.346171
0.527798
0.534151
0.533302
0.549355
0.400921
0.53292
0.534644
0.328226
0.539428
0.35091
0.348164
0.529387
0.534018
0.536947
0.545601
0.328076
0.306856
0.553468
0.529875
0.328576
0.528563
0.503575
0.53395
0.346394
0.304933
0.534946
0.328338
0.452507
0.534088
0.535318
0.311487
0.532422
0.323622
0.324412
0.316879
0.352856
0.532459
0.364386
0.51596
0.296782
0.323599
0.525308
0.34355
0.298957
0.298863
0.275418
0.3579
0.304047
0.311419
0.426763
0.440588
0.323046
0.336871
0.535564
0.328351
0.395846
0.53253
0.532603
0.48876
0.485724
0.432476
0.445393
0.291896
0.372263
0.532597
0.497243
0.243997
0.506479
0.251207
0.296024
0.283223
0.533388
0.55144
0.293573
0.494516
0.531394
0.284999
0.293559
0.541319
0.532878
0.354138
0.544098
0.379205
0.341168
0.541653
0.294799
0.454493
0.527497
0.39627
0.542528
0.317628
0.347417
0.537259
0.375939
0.345143
0.346989
0.318482
0.320815
0.5329
0.539315
0.521737
0.316685
0.251822
0.338572
0.297277
0.52914
0.237655
0.419934
0.298292
0.530799
0.531896
0.312526
0.533505
0.392946
0.486042
0.312973
0.526383
0.533248
0.555723
0.534632
0.533213
0.524994
0.346952
0.421546
0.354368
0.528138
0.319639
0.270301
0.531656
0.532611
0.532437
0.321945
0.333387
0.538742
0.54109
0.312947
0.533783
0.286623
0.311517
0.32386
0.554066
0.538067
0.522655
0.302721
0.312429
0.358542
0.327901
0.537086
0.533086
0.546576
0.318881
0.315499
0.455844
0.547554
0.543927
0.508828
0.532799
0.411834
0.536051
0.541611
0.515406
0.322809
0.536235
0.494465
0.532973
0.535731
0.546263
0.481348
0.380451
0.546413
0.344002
0.544131
0.532594
0.219666
0.533014
0.464582
0.534523
0.304515
0.32757
0.53324
0.298864
0.313024
0.548837
0.300943
0.416633
0.537288
0.283328
0.546535
0.327515
0.491091
0.531988
0.526901
0.498409
0.321035
0.319046
0.521029
0.435365
0.32956
0.480634
0.325521
0.533401
0.329387
0.461444
0.517363
0.53343
0.330425
0.492695
0.338181
0.412523
0.41597
0.324183
0.28178
0.323837
0.533647
0.459817
0.435003
0.315097
0.533596
0.486001
0.315501
0.533499
0.333019
0.456062
0.518196
0.533136
0.536433
0.299895
0.341379
0.533077
0.545538
0.523241
0.485475
0.542862
0.48035
0.46636
0.318852
0.503792
0.389695
0.350693
0.358879
0.532778
0.54999
0.50571
0.394618
0.321533
0.540907
0.339961
0.349048
0.407489
0.320294
0.457728
0.329345
0.532979
0.319605
0.318152
0.416338
0.544971
0.324879
0.318619
0.54939
0.543935
0.551595
0.317349
0.317902
0.538287
0.327818
0.319773
0.341458
0.436818
0.5231
0.268284
0.550791
0.329788
0.507154
0.533132
0.318761
0.411267
0.480024
0.50031
0.490533
0.540151
0.537608
0.544947
0.534574
0.533099
0.331272
0.379494
0.520263
0.282656
0.543246
0.524886
0.269666
0.53048
0.470529
0.50908
0.539389
0.462399
0.531504
0.324193
0.488289
0.337405
0.296579
0.534363
0.533374
0.253138
0.338009
0.530249
0.394906
0.449916
0.270338
0.250849
0.549173
0.51519
0.54405
0.511421
0.453444
0.381963
0.451976
0.33513
0.533253
0.503144
0.49211
0.339866
0.382554
0.544294
0.497135
0.539053
0.157155
0.533381
0.32526
0.316609
0.327737
0.517853
0.520259
0.540546
0.471774
0.338036
0.533383
0.388111
0.546273
0.547631
0.489405
0.329928
0.311
0.533656
0.337699
0.427853
0.47133
0.316117
0.36302
0.51655
0.542413
0.322566
0.533465
0.531862
0.326285
0.53352
0.534238
0.538086
0.349398
0.338419
0.542475
0.318965
0.337785
0.410009
0.533097
0.313953
0.377557
0.313229
0.304627
0.537781
0.326073
0.328938
0.542988
0.326558
0.330006
0.552681
0.537718
0.53473
0.532823
0.487906
0.334117
0.55188
0.532216
0.314136
0.536264
0.53368
0.533009
0.533065
0.348027
0.53301
0.337529
0.53306
0.31776
0.5329
0.343406
0.518259
0.316423
0.540451
0.545656
0.55098
0.486169
0.533588
0.53603
0.306768
0.533115
0.263768
0.533117
0.537711
0.324365
0.406919
0.295203
0.331238
0.53308
0.36547
0.53289
0.126199
0.506194
0.507272
0.540043
0.398753
0.340371
0.246375
0.327887
0.275622
0.537269
0.368679
0.321162
0.53443
0.311041
0.364836
0.532153
0.531861
0.498973
0.535471
0.259806
0.487798
0.314284
0.533177
0.533856
0.525489
0.282397
0.539992
0.535797
0.54123
0.495098
0.532757
0.384844
0.533013
0.540707
0.438802
0.533759
0.312542
0.518883
0.347766
0.415767
0.51881
0.491088
0.529452
0.475373
0.487325
0.536668
0.318294
0.523455
0.326697
0.340406
0.540986
0.512041
0.475938
0.519934
0.531329
0.533142
0.536269
0.533296
0.53338
0.533536
0.552639
0.339558
0.499486
0.530615
0.328306
0.533893
0.316299
0.473447
0.306067
0.533519
0.329126
0.325706
0.302939
0.466437
0.534373
0.430104
0.515995
0.303739
0.341282
0.533122
0.533925
0.305173
0.499314
0.446767
0.305471
0.502143
0.332526
0.313983
0.534206
0.478564
0.320182
0.5176
0.532362
0.522542
0.325559
0.51296
0.241659
0.533053
0.385112
0.509957
0.314882
0.548798
0.314862
0.314681
0.321522
0.510543
0.298557
0.495163
0.546789
0.467674
0.34146
0.311843
0.542134
0.313982
0.23343
0.324651
0.534717
0.32174
0.301285
0.277866
0.499353
0.342609
0.337105
0.335518
0.533135
0.54998
0.340958
0.537921
0.537183
0.494447
0.336407
0.325946
0.534302
0.321914
0.555466
0.330863
0.530044
0.322615
0.156258
0.513076
0.325316
0.33446
0.324406
0.533649
0.303575
0.444905
0.536908
0.321068
0.51663
0.317346
0.549934
0.417335
0.321916
0.340236
0.534063
0.442735
0.533298
0.312806
0.342343
0.431593
0.533162
0.314943
0.298082
0.320215
0.415775
0.536747
0.34001
0.447373
0.53046
0.533365
0.52476
0.326487
0.535607
0.32652
0.53319
0.533585
0.456741
0.339677
0.484475
0.53769
0.321242
0.536825
0.537816
0.338175
0.331721
0.303155
0.256742
0.541411
0.324269
0.533157
0.387437
0.533104
0.495685
0.374906
0.510687
0.309899
0.47766
0.327975
0.532578
0.532221
0.231347
0.328898
0.339678
0.466168
0.552915
0.325825
0.306486
0.350497
0.453612
0.546848
0.254583
0.327496
0.524436
0.536755
0.527214
0.328297
0.329842
0.523317
0.532642
0.316074
0.33089
0.438967
0.549934
0.48823
0.312584
0.533504
0.534395
0.314098
0.537835
0.317656
0.539594
0.320081
0.355703
0.320322
0.276791
0.532457
0.337337
0.325058
0.333599
0.333113
0.479319
0.529934
0.550226
0.318947
0.533011
0.534754
0.534567
0.547343
0.532585
0.54805
0.549774
0.548454
0.538324
0.531753
0.285828
0.483877
0.550072
0.324554
0.540209
0.544777
0.53593
0.534636
0.317889
0.542107
0.533231
0.535773
0.336944
0.502463
0.529079
0.533125
0.529298
0.324161
0.485268
0.335866
0.416767
0.314241
0.314203
0.311987
0.327361
0.533581
0.534
0.521446
0.31612
0.534031
0.533521
0.536983
0.326643
0.335389
0.517481
0.309202
0.318423
0.301481
0.536354
0.422094
0.533876
0.299695
0.54603
0.532057
0.453148
0.539353
0.321387
0.550298
0.534898
0.512215
0.538862
0.532979
0.519112
0.322693
0.347629
0.337969
0.532577
0.308612
0.534379
0.519259
0.489083
0.333991
0.342817
0.483613
0.540955
0.532841
0.332029
0.524222
0.478271
0.256816
0.533724
0.329421
0.330177
0.31051
0.325574
0.308348
0.53923
0.535036
0.552654
0.441244
0.53254
0.532822
0.516051
0.533464
0.546713
0.548726
0.532515
0.532636
0.327572
0.532767
0.527208
0.426227
0.321844
0.502924
0.296509
0.536708
0.367753
0.539087
0.545644
0.334474
0.536677
0.332864
0.533692
0.530655
0.54735
0.489059
0.516271
0.545379
0.532714
0.342813
0.446078
0.422544
0.24637
0.533787
0.537654
0.437053
0.55133
0.525564
0.532873
0.295301
0.326326
0.527112
0.546437
0.329446
0.215163
0.512781
0.53302
0.53416
0.272115
0.451658
0.511952
0.531726
0.323628
0.533486
0.485
0.525144
0.506061
0.439127
0.533543
0.294303
0.530558
0.319192
0.303583
0.533485
0.350768
0.351256
0.323182
0.524985
0.507149
0.439291
0.533375
0.431792
0.374378
0.321036
0.542246
0.531496
0.539706
0.490316
0.251663
0.521468
0.434579
0.317892
0.531228
0.538112
0.331755
0.535432
0.528221
0.532901
0.448544
0.532507
0.361931
0.533803
0.530325
0.532694
0.310463
0.525025
0.383104
0.5091
0.532174
0.544546
0.529749
0.533894
0.533987
0.532208
0.516662
0.313089
0.541184
0.511236
0.343789
0.494669
0.536069
0.551544
0.495687
0.319302
0.53129
0.337016
0.545545
0.490291
0.537511
0.333166
0.512845
0.534156
0.533224
0.525246
0.475051
0.53339
0.46534
0.388302
0.322608
0.28446
0.532852
0.33681
0.287758
0.537003
0.331011
0.543631
0.309474
0.535379
0.329769
0.330471
0.52074
0.39558
0.298815
0.527643
0.532217
0.538049
0.311852
0.50412
0.533414
0.531058
0.323615
0.533192
0.534114
0.324312
0.479581
0.461513
0.523709
0.340425
0.392669
0.510453
0.313625
0.538519
0.338232
0.336682
0.532713
0.387868
0.504834
0.329411
0.539602
0.423028
0.533258
0.195117
0.33305
0.532819
0.35774
0.533361
0.340266
0.533941
0.4774
0.467931
0.533402
0.50132
0.242881
0.534257
0.549223
0.530049
0.533161
0.302035
0.334491
0.33534
0.337633
0.532869
0.349573
0.513316
0.3201
0.532048
0.533971
0.532826
0.325218
0.533942
0.326941
0.533431
0.5411
0.364792
0.532838
0.517656
0.321042
0.51951
0.309062
0.343813
0.550029
0.335795
0.543438
0.225425
0.341012
0.511033
0.370213
0.538461
0.323316
0.461728
0.532108
0.529592
0.385693
0.251967
0.324749
0.533098
0.533244
0.341659
0.534421
0.317064
0.532057
0.322953
0.331237
0.464364
0.473971
0.420314
0.492287
0.533433
0.494051
0.472987
0.535381
0.532823
0.336779
0.534077
0.35463
0.353792
0.493223
0.409195
0.395857
0.443055
0.33181
0.512534
0.533471
0.53634
0.322937
0.331764
0.443456
0.5066
0.533907
0.546198
0.325126
0.498577
0.531624
0.503505
0.442325
0.323733
0.317782
0.333889
0.556025
0.536364
0.302631
0.312255
0.437226
0.324102
0.549838
0.513278
0.329213
0.533121
0.406453
0.540133
0.535712
0.328257
0.365787
0.504584
0.331609
0.395756
0.532154
0.277024
0.32938
0.327766
0.507798
0.53602
0.506338
0.342683
0.323883
0.529149
0.534232
0.491786
0.538519
0.325856
0.333099
0.343949
0.497969
0.297753
0.332011
0.537139
0.541337
0.51316
0.319435
0.341553
0.344548
0.533329
0.306361
0.532784
0.533022
0.529454
0.430366
0.532582
0.549833
0.331946
0.325858
0.534697
0.329204
0.467375
0.524589
0.54167
0.436185
0.307674
0.289832
0.541553
0.405635
0.304545
0.533551
0.533509
0.298482
0.32403
0.512415
0.444224
0.327309
0.331942
0.540058
0.489895
0.52661
0.466009
0.349422
0.287269
0.343604
0.384225
0.309068
0.533124
0.527342
0.468966
0.508737
0.336088
0.501839
0.339183
0.532386
0.545716
0.335563
0.267096
0.529025
0.388945
0.472023
0.534293
0.314115
0.530139
0.528335
0.532634
0.533398
0.498974
0.365241
0.307024
0.319029
0.510487
0.533079
0.511434
0.443985
0.327719
0.305446
0.493538
0.329446
0.537667
0.532552
0.532386
0.339952
0.319671
0.463939
0.504764
0.533242
0.52478
0.533672
0.532933
0.535231
0.47429
0.25438
0.533259
0.49459
0.533714
0.330696
0.528682
0.42463
0.527041
0.552993
0.446225
0.491808
0.530772
0.508832
0.53317
0.324433
0.530868
0.551398
0.348136
0.501648
0.310033
0.304638
0.533137
0.533249
0.339516
0.483452
0.532708
0.345469
0.336098
0.551309
0.550848
0.470998
0.362657
0.496419
0.321859
0.542729
0.549555
0.323867
0.452837
0.498752
0.319035
0.324115
0.349125
0.536593
0.526328
0.324232
0.36261
0.342779
0.348625
0.342437
0.496719
0.322518
0.551932
0.533954
0.541297
0.332689
0.53168
0.43941
0.531172
0.44637
0.528573
0.326725
0.298525
0.331536
0.532718
0.33604
0.326035
0.493215
0.339898
0.533384
0.506764
0.426573
0.318127
0.318634
0.520763
0.534883
0.52646
0.522428
0.543318
0.327186
0.371691
0.313117
0.50916
0.534118
0.324304
0.511776
0.289438
0.345441
0.533632
0.332565
0.342053
0.242203
0.374695
0.333893
0.533787
0.531041
0.537346
0.335362
0.532584
0.542218
0.324341
0.533766
0.37702
0.539369
0.34911
0.391482
0.532417
0.323893
0.249394
0.528226
0.523106
0.322576
0.54618
0.497367
0.531957
0.400732
0.32682
0.501551
0.532965
0.364481
0.38024
0.420422
0.395752
0.53364
0.342155
0.323458
0.541062
0.501185
0.351891
0.328167
0.53171
0.323428
0.29653
0.331667
0.454767
0.54455
0.331185
0.539401
0.325472
0.310351
0.342285
0.405365
0.337868
0.53907
0.332513
0.336237
0.481649
0.538228
0.358341
0.532995
0.326722
0.314254
0.508564
0.55288
0.523235
0.513549
0.516554
0.546465
0.326457
0.538768
0.292913
0.532917
0.525979
0.411471
0.525455
0.53305
0.532613
0.532891
0.436661
0.33905
0.429187
0.339586
0.498364
0.531064
0.498107
0.315414
0.535592
0.369198
0.532984
0.323601
0.304452
0.557467
0.302922
0.527158
0.553135
0.372054
0.339923
0.329643
0.532604
0.394642
0.248069
0.540577
0.321524
0.525076
0.3455
0.348821
0.321143
0.53424
0.390871
0.533325
0.32585
0.348993
0.533022
0.531377
0.282083
0.359292
0.27195
0.481903
0.329159
0.520032
0.529584
0.532895
0.236524
0.331828
0.450902
0.529936
0.54863
0.531553
0.307458
0.511467
0.536839
0.532834
0.533309
0.329182
0.519761
0.322425
0.441917
0.541816
0.536597
0.528977
0.545254
0.490305
0.530768
0.544064
0.53233
0.521574
0.536038
0.532931
0.534914
0.327317
0.322469
0.533756
0.475471
0.533293
0.533108
0.548826
0.520127
0.545117
0.340264
0.324028
0.53333
0.327697
0.322739
0.337955
0.532562
0.522596
0.533241
0.506671
0.521169
0.321816
0.537678
0.324251
0.322736
0.545902
0.524011
0.52352
0.400758
0.395936
0.334445
0.324175
0.389222
0.305385
0.362462
0.543822
0.305803
0.530464
0.33417
0.539268
0.532308
0.282514
0.335913
0.493353
0.533299
0.33206
0.508366
0.268154
0.318016
0.327093
0.450729
0.534254
0.533188
0.533752
0.221706
0.342674
0.283682
0.341944
0.533131
0.547239
0.537902
0.340875
0.324447
0.532594
0.53159
0.535703
0.314986
0.479156
0.465731
0.543227
0.431735
0.3588
0.341266
0.324932
0.534273
0.32963
0.328864
0.533076
0.315623
0.533799
0.342544
0.371197
0.400817
0.33573
0.545487
0.533281
0.533772
0.443846
0.555782
0.510571
0.469311
0.326297
0.507837
0.530475
0.509443
0.535706
0.532081
0.539629
0.425217
0.531377
0.534625
0.371348
0.336725
0.549636
0.402606
0.53276
0.34222
0.546566
0.369357
0.525548
0.533891
0.507699
0.531969
0.538806
0.514679
0.313703
0.333082
0.536659
0.547268
0.532188
0.435379
0.544076
0.448535
0.494836
0.53255
0.472275
0.459594
0.539953
0.53295
0.336175
0.323618
0.533836
0.500729
0.324138
0.346744
0.425372
0.533296
0.533104
0.55096
0.343746
0.523482
0.312058
0.535326
0.320739
0.54465
0.278647
0.549897
0.353466
0.531149
0.446173
0.324588
0.291269
0.471733
0.335131
0.478636
0.32363
0.533371
0.533242
0.529944
0.523079
0.533023
0.534531
0.53257
0.550189
0.540902
0.499436
0.515122
0.492193
0.538126
0.332784
0.500899
0.498297
0.531599
0.322349
0.496252
0.545278
0.53279
0.341141
0.317118
0.340817
0.544099
0.495043
0.319431
0.498334
0.391413
0.533595
0.312721
0.413199
0.328989
0.303584
0.553586
0.318815
0.50749
0.325816
0.551591
0.354128
0.533372
0.50271
0.528273
0.343151
0.345467
0.351249
0.514658
0.322497
0.341835
0.331178
0.539874
0.515938
0.544861
0.521239
0.530921
0.50911
0.375796
0.344347
0.529746
0.324294
0.451357
0.526406
0.550639
0.20308
0.291743
0.520824
0.532674
0.40944
0.524749
0.534537
0.518398
0.338418
0.542841
0.51895
0.530746
0.532572
0.322637
0.533188
0.326938
0.530968
0.542082
0.504021
0.532174
0.356032
0.536592
0.218984
0.35557
0.495778
0.507009
0.527987
0.451985
0.329997
0.531216
0.53519
0.320632
0.329628
0.30324
0.549529
0.332093
0.287393
0.333913
0.334329
0.316943
0.371043
0.542669
0.307379
0.538712
0.522571
0.32361
0.534875
0.309538
0.548437
0.305793
0.455261
0.315659
0.525068
0.533768
0.399306
0.495663
0.533488
0.521115
0.313342
0.476473
0.432055
0.319377
0.319464
0.405352
0.283872
0.544129
0.272281
0.305568
0.331437
0.533208
0.527435
0.321948
0.330032
0.545271
0.326179
0.326372
0.533199
0.324183
0.309878
0.361929
0.552638
0.502624
0.545285
0.334528
0.290846
0.538227
0.518255
0.53265
0.39711
0.504829
0.52871
0.416989
0.404275
0.331552
0.313201
0.239061
0.493861
0.24975
0.547109
0.512276
0.532234
0.338261
0.412915
0.420842
0.558882
0.309499
0.483172
0.238178
0.490888
0.321035
0.282046
0.293652
0.53705
0.326058
0.5517
0.349203
0.382859
0.322958
0.469036
0.326227
0.543364
0.325022
0.501445
0.486087
0.331035
0.533536
0.533486
0.289661
0.548439
0.348061
0.328964
0.542478
0.312475
0.515591
0.39578
0.219578
0.532436
0.311788
0.357561
0.345845
0.357806
0.322847
0.513781
0.438353
0.523404
0.547219
0.528989
0.543048
0.41109
0.537194
0.306993
0.534115
0.32681
0.525433
0.328537
0.393168
0.522518
0.549148
0.534165
0.357355
0.432974
0.322921
0.347605
0.348943
0.222037
0.536399
0.409169
0.547156
0.532459
0.48479
0.538378
0.533663
0.397692
0.320595
0.361743
0.541083
0.487442
0.502002
0.533619
0.551484
0.4198
0.28703