# vtk DataFile Version 1.0
unstructured grid
ascii
DATASET UNSTRUCTURED_GRID
points 3226 float
0.0796578 -0.059106 0
0.00128732 0.00159165 0
0.00227961 -0.00102548 0
0.0791586 -0.0598787 0
-0.0546216 0.01 0
0.000495206 0.025 0
0.0800549 -0.035 0
0.135172 -0.08 0
-0.0546216 -0.0451168 0
0.000495206 -0.0301168 0
0.0800549 -0.0901168 0
0.135172 -0.135117 0
-0.0546216 -0.0451168 -0.00551168
0.000495206 -0.0301168 -0.00551168
0.0800549 -0.0901168 -0.00551168
0.135172 -0.135117 -0.00551168
0.135172 -0.08 -0.00551168
0.0800549 -0.035 -0.00551168
0.000495206 0.025 -0.00551168
-0.0546216 0.01 -0.00551168
0.00128732 0.00159165 -0.00551168
0.00227961 -0.00102548 -0.00551168
0.0791586 -0.0598787 -0.00551168
0.0796578 -0.059106 -0.00551168
0.00110182 -0.000823821 0
0.000571683 -0.000188043 0
0.000561313 0.000639162 0
0.00189316 0.00207203 0
0.00260228 0.00255358 0
0.0033966 0.00307293 0
0.00428861 0.00362634 0
0.00529726 0.0041979 0
0.00644092 0.00476696 0
0.00773158 0.0053187 0
0.00918011 0.00583593 0
0.010799 0.00628751 0
0.012597 0.00663225 0
0.0145725 0.0068517 0
0.0167206 0.0069338 0
0.0190349 0.00685819 0
0.0215031 0.00658621 0
0.0241038 0.00607459 0
0.026821 0.00533786 0
0.0296245 0.00434523 0
0.0324763 0.00306927 0
0.0353199 0.00146906 0
0.0381488 -0.00039338 0
0.0409131 -0.00252802 0
0.0435632 -0.00493276 0
0.0460882 -0.0075571 0
0.0484881 -0.0103478 0
0.0506782 -0.0133217 0
0.0526651 -0.016422 0
0.0546139 -0.0195019 0
0.0565301 -0.022529 0
0.0584009 -0.0254846 0
0.0602154 -0.0283513 0
0.061964 -0.031114 0
0.0636389 -0.0337601 0
0.0652336 -0.0362795 0
0.0667431 -0.0386651 0
0.0681656 -0.0409111 0
0.0694983 -0.0430158 0
0.0707356 -0.0449823 0
0.071886 -0.0468071 0
0.0729575 -0.04849 0
0.0739438 -0.0500408 0
0.0748444 -0.0514675 0
0.0756707 -0.0527715 0
0.0764313 -0.053958 0
0.0771224 -0.0550398 0
0.0777384 -0.0560288 0
0.0782803 -0.0569318 0
0.0787691 -0.0577448 0
0.0792251 -0.0584672 0
0.0800494 -0.0597378 0
0.0797987 -0.0601582 0
0.0786655 -0.059391 0
0.0781259 -0.0588425 0
0.0775539 -0.0582102 0
0.0769587 -0.0574783 0
0.0763492 -0.0566339 0
0.075723 -0.0556725 0
0.0750452 -0.0546094 0
0.0742996 -0.0534457 0
0.073478 -0.0521785 0
0.072577 -0.0508019 0
0.0715904 -0.049313 0
0.0705098 -0.047712 0
0.069328 -0.0459996 0
0.0680378 -0.0441794 0
0.066632 -0.0422571 0
0.0651046 -0.0402413 0
0.0634508 -0.0381431 0
0.0616683 -0.0359754 0
0.0597581 -0.033753 0
0.0577255 -0.0314906 0
0.0555808 -0.0292024 0
0.0533388 -0.0269013 0
0.0510024 -0.0246151 0
0.0485693 -0.0223811 0
0.0460535 -0.0202228 0
0.0434788 -0.0181535 0
0.0408704 -0.0161833 0
0.0382442 -0.0143327 0
0.0356165 -0.0126209 0
0.0330065 -0.0110594 0
0.0304368 -0.00965062 0
0.0279338 -0.00838121 0
0.0255194 -0.00723697 0
0.0231965 -0.00623664 0
0.020983 -0.00535765 0
0.0188891 -0.00458677 0
0.0169193 -0.00391673 0
0.0150754 -0.00334068 0
0.0133572 -0.00285262 0
0.0117634 -0.0024437 0
0.0102912 -0.00210643 0
0.0089363 -0.00183343 0
0.00769424 -0.00161552 0
0.00655956 -0.00144452 0
0.00552632 -0.00131235 0
0.00458815 -0.00121216 0
0.00373885 -0.00113394 0
0.00297202 -0.00106855 0
-0.0506847 -0.0440454 0
-0.0467478 -0.0429739 0
-0.0428108 -0.0419025 0
-0.0388739 -0.0408311 0
-0.034937 -0.0397597 0
-0.0310001 -0.0386882 0
-0.0270632 -0.0376168 0
-0.0231263 -0.0365454 0
-0.0191894 -0.0354739 0
-0.0152525 -0.0344025 0
-0.0113155 -0.0333311 0
-0.00737862 -0.0322597 0
-0.00344171 -0.0311882 0
0.0038716 -0.0298185 0
0.00726082 -0.0297726 0
0.010644 -0.0299802 0
0.0140027 -0.0304367 0
0.0173201 -0.0311326 0
0.0205821 -0.0320541 0
0.0237776 -0.0331851 0
0.0268988 -0.0345078 0
0.0299406 -0.0360041 0
0.0329005 -0.0376567 0
0.035778 -0.039449 0
0.038574 -0.0413659 0
0.0412905 -0.043394 0
0.0439303 -0.0455212 0
0.0464964 -0.0477367 0
0.0489922 -0.0500312 0
0.051421 -0.0523964 0
0.0537863 -0.0548252 0
0.0560914 -0.0573112 0
0.0583395 -0.0598489 0
0.0605336 -0.0624334 0
0.0626765 -0.0650605 0
0.064771 -0.0677264 0
0.0668197 -0.0704277 0
0.0688248 -0.0731615 0
0.0707885 -0.0759252 0
0.072713 -0.0787163 0
0.0746002 -0.0815329 0
0.0764517 -0.0843729 0
0.0782695 -0.0872347 0
0.0829558 -0.0924852 0
0.0858567 -0.0948536 0
0.0887575 -0.0972221 0
0.0916584 -0.0995905 0
0.0945593 -0.101959 0
0.0974602 -0.104327 0
0.100361 -0.106696 0
0.103262 -0.109064 0
0.106163 -0.111433 0
0.109064 -0.113801 0
0.111965 -0.116169 0
0.114865 -0.118538 0
0.117766 -0.120906 0
0.120667 -0.123275 0
0.123568 -0.125643 0
0.126469 -0.128012 0
0.12937 -0.13038 0
0.132271 -0.132748 0
0.135172 -0.13118 0
0.135172 -0.127243 0
0.135172 -0.123306 0
0.135172 -0.119369 0
0.135172 -0.115432 0
0.135172 -0.111495 0
0.135172 -0.107558 0
0.135172 -0.103621 0
0.135172 -0.0996846 0
0.135172 -0.0957477 0
0.135172 -0.0918107 0
0.135172 -0.0878738 0
0.135172 -0.0839369 0
0.132271 -0.0776316 0
0.12937 -0.0752632 0
0.126469 -0.0728947 0
0.123568 -0.0705263 0
0.120667 -0.0681579 0
0.117766 -0.0657895 0
0.114865 -0.0634211 0
0.111965 -0.0610526 0
0.109064 -0.0586842 0
0.106163 -0.0563158 0
0.103262 -0.0539474 0
0.100361 -0.0515789 0
0.0974602 -0.0492105 0
0.0945593 -0.0468421 0
0.0916584 -0.0444737 0
0.0887575 -0.0421053 0
0.0858567 -0.0397368 0
0.0829558 -0.0373684 0
0.0782695 -0.0321179 0
0.0764517 -0.0292561 0
0.0746002 -0.026416 0
0.072713 -0.0235995 0
0.0707885 -0.0208084 0
0.0688248 -0.0180447 0
0.0668197 -0.0153109 0
0.064771 -0.0126096 0
0.0626765 -0.00994373 0
0.0605336 -0.00731663 0
0.0583395 -0.00473208 0
0.0560914 -0.00219437 0
0.0537863 0.000291632 0
0.051421 0.00272041 0
0.0489922 0.00508564 0
0.0464964 0.00738012 0
0.0439303 0.00959562 0
0.0412905 0.0117228 0
0.038574 0.0137509 0
0.035778 0.0156678 0
0.0329005 0.0174601 0
0.0299406 0.0191127 0
0.0268988 0.020609 0
0.0237776 0.0219317 0
0.0205821 0.0230627 0
0.0173201 0.0239842 0
0.0140027 0.0246801 0
0.010644 0.0251366 0
0.00726082 0.0253442 0
0.0038716 0.0252983 0
-0.00344171 0.0239286 0
-0.00737862 0.0228571 0
-0.0113155 0.0217857 0
-0.0152525 0.0207143 0
-0.0191894 0.0196429 0
-0.0231263 0.0185714 0
-0.0270632 0.0175 0
-0.0310001 0.0164286 0
-0.034937 0.0153571 0
-0.0388739 0.0142857 0
-0.0428108 0.0132143 0
-0.0467478 0.0121429 0
-0.0506847 0.0110714 0
-0.0546216 0.00606309 0
-0.0546216 0.00212617 0
-0.0546216 -0.00181074 0
-0.0546216 -0.00574766 0
-0.0546216 -0.00968457 0
-0.0546216 -0.0136215 0
-0.0546216 -0.0175584 0
-0.0546216 -0.0214953 0
-0.0546216 -0.0254322 0
-0.0546216 -0.0293691 0
-0.0546216 -0.0333061 0
-0.0546216 -0.037243 0
-0.0546216 -0.0411799 0
-0.0506847 -0.0440454 -0.00551168
-0.0467478 -0.0429739 -0.00551168
-0.0428108 -0.0419025 -0.00551168
-0.0388739 -0.0408311 -0.00551168
-0.034937 -0.0397597 -0.00551168
-0.0310001 -0.0386882 -0.00551168
-0.0270632 -0.0376168 -0.00551168
-0.0231263 -0.0365454 -0.00551168
-0.0191894 -0.0354739 -0.00551168
-0.0152525 -0.0344025 -0.00551168
-0.0113155 -0.0333311 -0.00551168
-0.00737862 -0.0322597 -0.00551168
-0.00344171 -0.0311882 -0.00551168
0.0038716 -0.0298185 -0.00551168
0.00726082 -0.0297726 -0.00551168
0.010644 -0.0299802 -0.00551168
0.0140027 -0.0304367 -0.00551168
0.0173201 -0.0311326 -0.00551168
0.0205821 -0.0320541 -0.00551168
0.0237776 -0.0331851 -0.00551168
0.0268988 -0.0345078 -0.00551168
0.0299406 -0.0360041 -0.00551168
0.0329005 -0.0376567 -0.00551168
0.035778 -0.039449 -0.00551168
0.038574 -0.0413659 -0.00551168
0.0412905 -0.043394 -0.00551168
0.0439303 -0.0455212 -0.00551168
0.0464964 -0.0477367 -0.00551168
0.0489922 -0.0500312 -0.00551168
0.051421 -0.0523964 -0.00551168
0.0537863 -0.0548252 -0.00551168
0.0560914 -0.0573112 -0.00551168
0.0583395 -0.0598489 -0.00551168
0.0605336 -0.0624334 -0.00551168
0.0626765 -0.0650605 -0.00551168
0.064771 -0.0677264 -0.00551168
0.0668197 -0.0704277 -0.00551168
0.0688248 -0.0731615 -0.00551168
0.0707885 -0.0759252 -0.00551168
0.072713 -0.0787163 -0.00551168
0.0746002 -0.0815329 -0.00551168
0.0764517 -0.0843729 -0.00551168
0.0782695 -0.0872347 -0.00551168
0.0829558 -0.0924852 -0.00551168
0.0858567 -0.0948536 -0.00551168
0.0887575 -0.0972221 -0.00551168
0.0916584 -0.0995905 -0.00551168
0.0945593 -0.101959 -0.00551168
0.0974602 -0.104327 -0.00551168
0.100361 -0.106696 -0.00551168
0.103262 -0.109064 -0.00551168
0.106163 -0.111433 -0.00551168
0.109064 -0.113801 -0.00551168
0.111965 -0.116169 -0.00551168
0.114865 -0.118538 -0.00551168
0.117766 -0.120906 -0.00551168
0.120667 -0.123275 -0.00551168
0.123568 -0.125643 -0.00551168
0.126469 -0.128012 -0.00551168
0.12937 -0.13038 -0.00551168
0.132271 -0.132748 -0.00551168
0.135172 -0.13118 -0.00551168
0.135172 -0.127243 -0.00551168
0.135172 -0.123306 -0.00551168
0.135172 -0.119369 -0.00551168
0.135172 -0.115432 -0.00551168
0.135172 -0.111495 -0.00551168
0.135172 -0.107558 -0.00551168
0.135172 -0.103621 -0.00551168
0.135172 -0.0996846 -0.00551168
0.135172 -0.0957477 -0.00551168
0.135172 -0.0918107 -0.00551168
0.135172 -0.0878738 -0.00551168
0.135172 -0.0839369 -0.00551168
0.132271 -0.0776316 -0.00551168
0.12937 -0.0752632 -0.00551168
0.126469 -0.0728947 -0.00551168
0.123568 -0.0705263 -0.00551168
0.120667 -0.0681579 -0.00551168
0.117766 -0.0657895 -0.00551168
0.114865 -0.0634211 -0.00551168
0.111965 -0.0610526 -0.00551168
0.109064 -0.0586842 -0.00551168
0.106163 -0.0563158 -0.00551168
0.103262 -0.0539474 -0.00551168
0.100361 -0.0515789 -0.00551168
0.0974602 -0.0492105 -0.00551168
0.0945593 -0.0468421 -0.00551168
0.0916584 -0.0444737 -0.00551168
0.0887575 -0.0421053 -0.00551168
0.0858567 -0.0397368 -0.00551168
0.0829558 -0.0373684 -0.00551168
0.0782695 -0.0321179 -0.00551168
0.0764517 -0.0292561 -0.00551168
0.0746002 -0.026416 -0.00551168
0.072713 -0.0235995 -0.00551168
0.0707885 -0.0208084 -0.00551168
0.0688248 -0.0180447 -0.00551168
0.0668197 -0.0153109 -0.00551168
0.064771 -0.0126096 -0.00551168
0.0626765 -0.00994373 -0.00551168
0.0605336 -0.00731663 -0.00551168
0.0583395 -0.00473208 -0.00551168
0.0560914 -0.00219437 -0.00551168
0.0537863 0.000291632 -0.00551168
0.051421 0.00272041 -0.00551168
0.0489922 0.00508564 -0.00551168
0.0464964 0.00738012 -0.00551168
0.0439303 0.00959562 -0.00551168
0.0412905 0.0117228 -0.00551168
[...]
CELL_DATA 2965
SCALARS rho float
LOOKUP_TABLE default
0.533147
0.322383
0.524593
0.32728
0.542368
0.343255
0.532928
0.332397
0.340312
0.525945
0.327282
0.332655
0.426914
0.535478
0.519153
0.516853
0.526737
0.514511
0.544834
0.528954
0.533237
0.330931
0.506231
0.534115
0.535922
0.547132
0.457539
0.47871
0.331657
0.504268
0.503615
0.339447
0.552967
0.529176
0.286369
0.343213
0.52866
0.533902
0.318291
0.506545
0.529706
0.502617
0.533682
0.325524
0.306025
0.532507
0.458694
0.46776
0.320707
0.533423
0.389496
0.331624
0.318285
0.426246
0.330301
0.421707
0.339598
0.317445
0.277524
0.476706
0.515967
0.474598
0.334022
0.544065
0.482844
0.532775
0.5332
0.313739
0.306136
0.334499
0.517232
0.54348
0.533258
0.275387
0.499538
0.4101
0.532932
0.331788
0.319795
0.467724
0.533229
0.334428
0.341493
0.437627
0.476082
0.376436
0.319962
0.285359
0.541949
0.341348
0.315734
0.532588
0.517781
0.51448
0.532913
0.319839
0.45754
0.277153
0.342087
0.319755
0.471005
0.31993
0.340132
0.304827
0.343102
0.527564
0.532979
0.33908
0.315676
0.532947
0.223909
0.392708
0.468956
0.490824
0.302422
0.291923
0.502161
0.456563
0.533369
0.323657
0.533204
0.236452
0.539707
0.541215
0.48899
0.400948
0.334147
0.459063
0.53091
0.265279
0.337653
0.428547
0.532117
0.340825
0.461127
0.334347
0.425082
0.515934
0.554899
0.542176
0.340031
0.515455
0.528237
0.332124
0.296331
0.545359
0.329539
0.541363
0.555249
0.345991
0.32657
0.323757
0.339568
0.331478
0.275937
0.280868
0.53291
0.531422
0.521892
0.536519
0.453557
0.463394
0.40736
0.542412
0.341622
0.532944
0.414057
0.330055
0.533322
0.535166
0.48209
0.311946
0.436164
0.519753
0.547306
0.41541
0.512512
0.357462
0.255096
0.417652
0.34361
0.259512
0.320024
0.306608
0.555301
0.53293
0.327207
0.328062
0.389461
0.327948
0.319115
0.3195
0.450732
0.299021
0.533351
0.464273
0.534327
0.483264
0.440565
0.317287
0.33194
0.29489
0.526837
0.439552
0.532977
0.29908
0.429499
0.533322
0.517562
0.534344
0.493978
0.401364
0.342075
0.345486
0.506451
0.349706
0.459019
0.328092
0.516806
0.327116
0.340462
0.334758
0.459059
0.383704
0.544813
0.260469
0.533024
0.522305
0.316
0.477459
0.32574
0.267732
0.53464
0.316941
0.533068
0.535396
0.329154
0.530553
0.332143
0.352068
0.371972
0.326082
0.54332
0.522607
0.333951
0.230206
0.525975
0.533128
0.447992
0.505642
0.317385
0.33346
0.532912
0.333537
0.472942
0.278028
0.264663
0.533403
0.532582
0.302996
0.462003
0.32682
0.542774
0.341554
0.534552
0.533306
0.268442
0.47322
0.52129
0.303041
0.326032
0.533236
0.326782
0.550687
0.5106
0.325594
0.51333
0.514189
0.552048
0.530931
0.545995
0.462445
0.529217
0.533055
0.316283
0.322999
0.518349
0.538341
0.336425
0.530637
0.462641
0.276239
0.342822
0.320299
0.478466
0.325826
0.532934
0.480025
0.548541
0.327052
0.48375
0.483575
0.476793
0.532751
0.332488
0.235275
0.544833
0.532917
0.532945
0.327697
0.332808
0.481166
0.274266
0.302803
0.483707
0.533106
0.481638
0.21902
0.326623
0.482817
0.48894
0.318802
0.533356
0.532964
0.333367
0.414178
0.532763
0.514832
0.278129
0.321693
0.533354
0.340555
0.537957
0.365816
0.539486
0.394704
0.374647
0.332137
0.331632
0.301074
0.508965
0.547255
0.525442
0.542762
0.482403
0.474229
0.314656
0.533767
0.54714
0.315452
0.320383
0.533406
0.32454
0.515271
0.465785
0.30626
0.335962
0.340358
0.326839
0.53302
0.340862
0.3389
0.380016
0.320266
0.532307
0.533509
0.471304
0.532911
0.328678
0.529503
0.325818
0.533423
0.32486
0.341665
0.535021
0.467575
0.268168
0.263244
0.531442
0.362556
0.499831
0.514393
0.323887
0.530006
0.289323
0.348109
0.533375
0.293753
0.535197
0.282436
0.37976
0.332647
0.535886
0.46899
0.434808
0.533061
0.309025
0.54625
0.34568
0.307977
0.549397
0.281552
0.539551
0.421219
0.488198
0.292934
0.295655
0.312407
0.287371
0.311704
0.344311
0.529008
0.533669
0.533808
0.533436
0.334668
0.538594
0.466544
0.518073
0.245534
0.532634
0.34062
0.480184
0.47025
0.286137
0.533359
0.358353
0.522198
0.295658
0.487291
0.534687
0.283953
0.532092
0.252573
0.537812
0.324389
0.317682
0.416539
0.543791
0.540529
0.395067
0.260403
0.246199
0.419521
0.542854
0.527277
0.532275
0.530719
0.536155
0.316755
0.513727
0.481743
0.303488
0.241217
0.301808
0.498483
0.535193
0.366578
0.382105
0.37312
0.344734
0.527665
0.534003
0.533366
0.548983
0.40092
0.533115
0.534372
0.328226
0.539522
0.350918
0.348153
0.529024
0.533616
0.537089
0.545265
0.328256
0.307001
0.553096
0.530388
0.328677
0.528791
0.503466
0.533708
0.344842
0.302159
0.53469
0.328065
0.452494
0.533698
0.535111
0.309621
0.532442
0.323048
0.324198
0.317526
0.352885
0.532509
0.364394
0.515822
0.296771
0.321949
0.525569
0.342317
0.298916
0.297856
0.275428
0.357906
0.304109
0.311941
0.426752
0.44056
0.323924
0.336691
0.535531
0.328353
0.395894
0.532817
0.532954
0.488193
0.485271
0.432732
0.445392
0.289984
0.372271
0.532899
0.497408
0.243925
0.5067
0.250932
0.29598
0.282793
0.533736
0.551152
0.29272
0.493967
0.531379
0.285006
0.292069
0.541007
0.532967
0.354144
0.543688
0.379253
0.340475
0.541336
0.295594
0.454632
0.527355
0.396482
0.542285
0.318079
0.341769
0.537046
0.375969
0.344734
0.345346
0.319492
0.320362
0.533111
0.539397
0.521886
0.316609
0.25183
0.335627
0.297175
0.529503
0.236065
0.420038
0.297633
0.530586
0.53228
0.312846
0.5334
0.392946
0.485512
0.312922
0.526275
0.533049
0.554875
0.5344
0.53318
0.524833
0.3452
0.421774
0.354287
0.528035
0.318567
0.270324
0.531834
0.532963
0.532789
0.32192
0.33416
0.538598
0.54103
0.312685
0.533726
0.285865
0.311495
0.324537
0.55357
0.537769
0.522534
0.301301
0.312376
0.358939
0.326942
0.536871
0.533209
0.546256
0.317957
0.315828
0.455804
0.547221
0.54355
0.508864
0.532986
0.41183
0.536253
0.54154
0.515043
0.323266
0.53645
0.494623
0.533027
0.535532
0.545925
0.480762
0.380455
0.546072
0.342781
0.543958
0.532931
0.219663
0.533139
0.464533
0.534889
0.305021
0.327847
0.533267
0.298871
0.312793
0.548445
0.30095
0.416627
0.537277
0.28334
0.546276
0.327801
0.490998
0.532207
0.527187
0.497875
0.321025
0.319339
0.521171
0.435569
0.330526
0.480541
0.32545
0.533373
0.329494
0.461474
0.51718
0.53336
0.331504
0.49267
0.336659
0.412518
0.416049
0.31898
0.281789
0.323765
0.533458
0.459757
0.434979
0.31572
0.53346
0.485706
0.316166
0.533434
0.332535
0.456066
0.51807
0.533058
0.536272
0.299899
0.341313
0.533101
0.545141
0.523116
0.485303
0.542598
0.480379
0.466365
0.319657
0.503682
0.389696
0.350699
0.358888
0.532924
0.549536
0.505193
0.394619
0.320861
0.540634
0.33861
0.349055
0.407539
0.320386
0.457692
0.330745
0.532964
0.320086
0.317142
0.416344
0.544711
0.324441
0.318581
0.549037
0.543577
0.551279
0.317929
0.317853
0.538431
0.331084
0.319728
0.34237
0.436789
0.522965
0.268291
0.550293
0.329199
0.507064
0.533176
0.31876
0.411449
0.479938
0.500372
0.489966
0.539851
0.537353
0.544707
0.53438
0.53315
0.325433
0.379563
0.520446
0.282878
0.543062
0.524772
0.269725
0.530759
0.470138
0.508596
0.539119
0.46189
0.531423
0.324136
0.488392
0.333845
0.29659
0.53422
0.533266
0.251512
0.33679
0.53074
0.394939
0.45012
0.270588
0.250855
0.54873
0.515276
0.543728
0.510903
0.453049
0.381971
0.452005
0.334926
0.533248
0.50334
0.492157
0.334971
0.382558
0.544121
0.497242
0.538785
0.157139
0.533298
0.326692
0.317237
0.326964
0.517948
0.519953
0.540403
0.471693
0.335629
0.533382
0.388113
0.545907
0.547315
0.489377
0.330157
0.310997
0.533484
0.336194
0.427842
0.471305
0.315917
0.34505
0.516459
0.542105
0.322663
0.533419
0.532092
0.326917
0.533422
0.534001
0.538245
0.346509
0.334838
0.542145
0.318953
0.33748
0.410008
0.533157
0.315167
0.377562
0.313081
0.304631
0.537577
0.326179
0.329303
0.542696
0.325937
0.330011
0.55235
0.537899
0.534791
0.533033
0.48751
0.334199
0.551593
0.532399
0.31411
0.535928
0.53334
0.533078
0.533079
0.346494
0.533052
0.337275
0.533072
0.317731
0.533028
0.342602
0.518221
0.316388
0.540162
0.54543
0.550594
0.486092
0.533416
0.535814
0.306689
0.532943
0.263788
0.533029
0.537632
0.323447
0.406916
0.294416
0.330612
0.533006
0.365474
0.532954
0.126264
0.506202
0.507333
0.540062
0.398826
0.337927
0.246388
0.328122
0.27551
0.537348
0.368685
0.32112
0.534128
0.30933
0.364853
0.532023
0.532087
0.499004
0.535585
0.259813
0.487705
0.314244
0.53324
0.533612
0.525356
0.28233
0.539831
0.535855
0.541175
0.494815
0.532865
0.384847
0.533191
0.540409
0.439037
0.53345
0.312367
0.518895
0.345215
0.416006
0.519217
0.49101
0.529724
0.475316
0.487285
0.53647
0.319274
0.523684
0.326722
0.33891
0.540696
0.512321
0.475687
0.519816
0.531225
0.533209
0.536529
0.533342
0.533119
0.533368
0.552233
0.337576
0.499268
0.530429
0.32825
0.533729
0.316443
0.473409
0.306459
0.533303
0.330047
0.326199
0.304073
0.466357
0.534042
0.430087
0.515978
0.304287
0.339412
0.533185
0.533583
0.292964
0.498772
0.446728
0.305509
0.501633
0.332108
0.313859
0.534453
0.47859
0.321491
0.517817
0.5322
0.522201
0.32561
0.512497
0.241626
0.533231
0.385136
0.509873
0.315805
0.548402
0.314125
0.31473
0.321773
0.51006
0.298571
0.494634
0.546431
0.467711
0.341539
0.311808
0.541917
0.313962
0.23344
0.324734
0.53449
0.321702
0.296809
0.27794
0.499257
0.341807
0.336111
0.334631
0.533218
0.5496
0.33998
0.537717
0.537085
0.494591
0.336594
0.325901
0.534103
0.3221
0.55517
0.330868
0.529725
0.323338
0.156361
0.513391
0.325266
0.333164
0.324649
0.533464
0.303587
0.445067
0.536692
0.322351
0.516634
0.318733
0.549602
0.417336
0.322075
0.339703
0.533781
0.442699
0.533316
0.313369
0.337475
0.431865
0.533109
0.315916
0.299685
0.318496
0.41577
0.536579
0.337574
0.447596
0.530663
0.533306
0.524427
0.326764
0.535367
0.326473
0.533305
0.533339
0.456667
0.338633
0.483892
0.537858
0.321214
0.536486
0.53756
0.336526
0.330484
0.3032
0.256763
0.541071
0.324326
0.533267
0.387442
0.533042
0.495598
0.374914
0.510975
0.309299
0.477806
0.328145
0.532964
0.532539
0.231812
0.328818
0.339386
0.466125
0.552325
0.327192
0.305014
0.35011
0.453563
0.54656
0.254595
0.327808
0.524727
0.536478
0.527671
0.328461
0.330257
0.523685
0.532991
0.316131
0.33097
0.439063
0.549559
0.487656
0.312589
0.533265
0.534148
0.314106
0.537682
0.31927
0.539358
0.320087
0.355709
0.321818
0.276798
0.532434
0.337514
0.324849
0.333187
0.330731
0.47884
0.529846
0.549829
0.318849
0.53298
0.535087
0.534414
0.547013
0.532938
0.547668
0.549424
0.547995
0.538166
0.531998
0.286546
0.484021
0.549748
0.324558
0.539978
0.544584
0.535744
0.534396
0.317086
0.54182
0.533302
0.536066
0.336886
0.501967
0.529208
0.533237
0.529314
0.324685
0.485171
0.336658
0.416761
0.311515
0.310323
0.312136
0.327677
0.533371
0.533825
0.521886
0.316314
0.533686
0.533449
0.536794
0.326427
0.334776
0.517429
0.310062
0.318426
0.301723
0.536286
0.422137
0.533474
0.300625
0.545729
0.532207
0.45316
0.539193
0.318874
0.54987
0.534686
0.512309
0.538826
0.533185
0.518981
0.323128
0.346151
0.337758
0.532952
0.307634
0.534183
0.51922
0.488522
0.333123
0.342141
0.483527
0.540609
0.533082
0.330968
0.524331
0.478182
0.256659
0.533457
0.329442
0.330162
0.310643
0.325294
0.308226
0.539145
0.535353
0.552375
0.441369
0.532433
0.532967
0.51564
0.53331
0.546409
0.548376
0.532918
0.532981
0.325952
0.532917
0.527162
0.426212
0.321913
0.503022
0.295422
0.536575
0.367844
0.538887
0.545262
0.33352
0.536395
0.330815
0.533884
0.530324
0.547009
0.488961
0.516634
0.544981
0.53294
0.341289
0.44604
0.422546
0.246207
0.533451
0.537477
0.437223
0.550894
0.525646
0.533042
0.295401
0.326239
0.526957
0.546165
0.329011
0.21531
0.51235
0.533076
0.533961
0.272122
0.451506
0.512183
0.531921
0.323943
0.53337
0.484903
0.524999
0.505951
0.439282
0.533418
0.293813
0.531019
0.320079
0.303377
0.533323
0.350776
0.351244
0.323118
0.525381
0.506617
0.439545
0.533389
0.431961
0.371953
0.321014
0.542084
0.531708
0.539442
0.490223
0.251672
0.521853
0.434551
0.318651
0.531419
0.537725
0.330719
0.53526
0.528596
0.533007
0.448622
0.532909
0.361939
0.533441
0.530052
0.532702
0.309136
0.524881
0.383215
0.509122
0.532436
0.544359
0.529877
0.533795
0.533586
0.53228
0.516779
0.312773
0.540987
0.511138
0.342884
0.494568
0.535872
0.551211
0.495127
0.319925
0.53128
0.337266
0.545155
0.49045
0.537182
0.333031
0.513157
0.534025
0.533187
0.525289
0.474601
0.533406
0.46552
0.388305
0.322916
0.284424
0.532963
0.338036
0.288101
0.536884
0.330328
0.543363
0.310425
0.535148
0.330745
0.327956
0.521146
0.395587
0.29882
0.527214
0.532534
0.537716
0.310536
0.503577
0.533247
0.530938
0.324038
0.533168
0.533903
0.324273
0.479722
0.461704
0.524183
0.333885
0.392669
0.510336
0.313935
0.538283
0.336757
0.33577
0.533028
0.387872
0.505001
0.329443
0.539281
0.423216
0.533233
0.195149
0.332736
0.533092
0.358879
0.53338
0.339193
0.533538
0.476805
0.467952
0.533396
0.501325
0.242983
0.533887
0.548813
0.530285
0.533139
0.302173
0.334137
0.335299
0.336857
0.533116
0.350251
0.513296
0.319345
0.532342
0.534321
0.533072
0.325234
0.533608
0.327112
0.533663
0.540714
0.364967
0.533079
0.517314
0.32205
0.519074
0.30932
0.343797
0.549657
0.335789
0.543177
0.225436
0.341856
0.511297
0.372674
0.538222
0.322323
0.461779
0.53235
0.52948
0.385702
0.251078
0.324752
0.533246
0.533309
0.341291
0.53459
0.317159
0.531866
0.322977
0.331915
0.464544
0.473898
0.420327
0.491768
0.53345
0.493951
0.473138
0.535655
0.533053
0.337684
0.534447
0.345332
0.352301
0.492867
0.409196
0.395856
0.443017
0.330834
0.512126
0.53343
0.53601
0.32255
0.332066
0.443494
0.506555
0.533815
0.545952
0.325875
0.498611
0.532031
0.502986
0.442287
0.323676
0.316788
0.332815
0.555469
0.536456
0.302604
0.312426
0.437195
0.324031
0.54944
0.513185
0.329141
0.533221
0.406452
0.540042
0.53542
0.328465
0.364964
0.504797
0.331054
0.395756
0.532427
0.277032
0.32965
0.327564
0.507694
0.535842
0.506241
0.341461
0.323482
0.528986
0.53395
0.491537
0.538414
0.325749
0.332043
0.344395
0.497962
0.298927
0.330231
0.537303
0.541021
0.513058
0.320374
0.342284
0.344298
0.533173
0.306361
0.533027
0.53303
0.529272
0.430404
0.532251
0.549437
0.331951
0.325807
0.534596
0.328821
0.467305
0.524796
0.541575
0.436165
0.308901
0.288813
0.541268
0.405631
0.304518
0.533941
0.533454
0.298488
0.324072
0.512361
0.444274
0.326893
0.33005
0.540045
0.489814
0.526248
0.465444
0.349428
0.287244
0.339939
0.384241
0.309075
0.533151
0.527422
0.469118
0.508847
0.336144
0.501593
0.337428
0.532738
0.545453
0.335421
0.267104
0.529506
0.388947
0.471964
0.534146
0.313343
0.530086
0.528256
0.532974
0.533322
0.49857
0.364245
0.306567
0.320482
0.510376
0.533004
0.510941
0.444016
0.3276
0.305308
0.493554
0.329069
0.537834
0.532954
0.532298
0.339958
0.318777
0.463873
0.504255
0.533272
0.524437
0.533404
0.5331
0.535004
0.473713
0.254388
0.533344
0.494129
0.534008
0.330407
0.529215
0.424648
0.526697
0.55266
0.44619
0.491773
0.531136
0.508877
0.533142
0.32373
0.530574
0.550889
0.346305
0.501128
0.309642
0.304113
0.533189
0.5331
0.338658
0.483448
0.532983
0.345635
0.335909
0.55097
0.550314
0.470996
0.363673
0.49635
0.321612
0.542602
0.549154
0.324005
0.453053
0.49872
0.319083
0.324725
0.346973
0.536215
0.525917
0.324435
0.347932
0.342764
0.347723
0.341207
0.496176
0.321743
0.551571
0.533935
0.541119
0.333622
0.531845
0.43955
0.531654
0.446326
0.528481
0.328035
0.29853
0.330846
0.53317
0.336046
0.326009
0.492673
0.33925
0.533355
0.506655
0.426644
0.31813
0.319226
0.520408
0.53481
0.526464
0.521984
0.542935
0.327146
0.371618
0.313003
0.509049
0.53383
0.324277
0.511301
0.291361
0.345448
0.533367
0.33174
0.33902
0.242239
0.374704
0.332577
0.533467
0.530683
0.53713
0.335363
0.532938
0.542035
0.3243
0.533481
0.377024
0.539355
0.346215
0.391484
0.532796
0.323143
0.249189
0.528296
0.522975
0.322521
0.545815
0.497263
0.532054
0.400734
0.327182
0.50167
0.532925
0.36448
0.379536
0.420591
0.395898
0.533396
0.342373
0.323405
0.541021
0.500885
0.351364
0.3284
0.531942
0.322651
0.29213
0.332882
0.454712
0.544249
0.330892
0.539369
0.325614
0.3115
0.341321
0.405498
0.335537
0.538769
0.333701
0.328606
0.481555
0.538322
0.358345
0.533196
0.326821
0.315297
0.50827
0.552439
0.52329
0.51343
0.516087
0.546166
0.326099
0.538877
0.294571
0.533101
0.526213
0.411466
0.525413
0.533102
0.532634
0.532948
0.436787
0.339177
0.429172
0.339075
0.497879
0.531411
0.498071
0.315834
0.535276
0.369201
0.533148
0.324197
0.304416
0.556857
0.302238
0.527665
0.552778
0.372128
0.339481
0.32964
0.532853
0.394747
0.247957
0.540262
0.321503
0.525377
0.343012
0.344508
0.321006
0.534149
0.390932
0.533247
0.325633
0.347197
0.533424
0.531545
0.28209
0.359293
0.271977
0.481809
0.330676
0.519922
0.530053
0.532995
0.236533
0.329937
0.450907
0.529776
0.548271
0.531742
0.306364
0.511188
0.53694
0.532984
0.533246
0.328939
0.519505
0.323426
0.442114
0.541441
0.536767
0.528946
0.544849
0.48986
0.531003
0.543846
0.532781
0.521397
0.535818
0.533109
0.534654
0.32709
0.322677
0.533447
0.475606
0.533223
0.533023
0.548425
0.52002
0.54488
0.340214
0.324498
0.533311
0.327115
0.322809
0.337003
0.532648
0.522589
0.533179
0.506161
0.520807
0.321876
0.537607
0.324326
0.323399
0.545653
0.523947
0.524015
0.400756
0.395935
0.333909
0.324689
0.389235
0.289683
0.36246
0.543664
0.307159
0.530972
0.333086
0.539288
0.53232
0.282528
0.328909
0.49286
0.533255
0.331207
0.508598
0.268091
0.317997
0.326038
0.45068
0.53407
0.533229
0.533445
0.221602
0.339053
0.283621
0.340058
0.533096
0.546856
0.537905
0.33904
0.324585
0.532972
0.531735
0.535822
0.313508
0.479229
0.465668
0.543085
0.431718
0.357213
0.341279
0.322307
0.534348
0.327577
0.328244
0.533053
0.306505
0.533449
0.340964
0.370898
0.400815
0.336107
0.545128
0.533288
0.533445
0.443814
0.555405
0.510757
0.46878
0.322638
0.507816
0.530691
0.509381
0.535505
0.53205
0.539672
0.4252
0.531547
0.534354
0.359759
0.335947
0.549231
0.402621
0.532762
0.34306
0.546274
0.372673
0.526047
0.533506
0.507904
0.532081
0.538677
0.514714
0.313763
0.330318
0.536355
0.546932
0.53231
0.435402
0.543869
0.448765
0.494743
0.532952
0.472297
0.459638
0.540002
0.532979
0.333661
0.323621
0.533544
0.500668
0.325052
0.34543
0.425361
0.533331
0.533064
0.550592
0.344112
0.523911
0.310664
0.535268
0.321168
0.544235
0.276635
0.549465
0.355384
0.530991
0.446129
0.325156
0.292592
0.471774
0.336233
0.478083
0.324389
0.533272
0.533284
0.530211
0.522666
0.532901
0.534869
0.532939
0.549758
0.540647
0.499313
0.514991
0.491656
0.538147
0.331058
0.500799
0.498202
0.531699
0.321532
0.49635
0.544996
0.533008
0.341351
0.317082
0.339153
0.543674
0.494509
0.320205
0.498486
0.391422
0.533412
0.31273
0.413223
0.324423
0.303594
0.553098
0.318821
0.507378
0.326283
0.551218
0.353942
0.533266
0.502664
0.528711
0.342686
0.343728
0.351254
0.514633
0.322765
0.34184
0.330492
0.539863
0.515465
0.544501
0.521691
0.530765
0.508709
0.37593
0.342972
0.52974
0.324184
0.45131
0.526851
0.550204
0.203105
0.286099
0.520406
0.532978
0.409455
0.524621
0.534398
0.518771
0.336394
0.542717
0.519338
0.530315
0.532332
0.322643
0.533175
0.327539
0.531156
0.541839
0.504204
0.532514
0.356034
0.536515
0.218993
0.355627
0.495228
0.506903
0.527985
0.451943
0.329993
0.531268
0.535351
0.321487
0.329705
0.302671
0.549116
0.326703
0.287248
0.335455
0.33459
0.317769
0.371047
0.542538
0.308838
0.53845
0.522278
0.323124
0.534876
0.309463
0.547982
0.307072
0.455059
0.316723
0.524679
0.533417
0.399397
0.495802
0.533468
0.520981
0.312525
0.47659
0.432105
0.319318
0.320445
0.405348
0.284559
0.543794
0.27228
0.30562
0.331445
0.53327
0.527958
0.323428
0.328024
0.545041
0.326184
0.326829
0.533305
0.324181
0.300764
0.361405
0.552243
0.502524
0.544932
0.333926
0.290846
0.538341
0.518143
0.532955
0.397128
0.504911
0.528467
0.416987
0.404273
0.331501
0.313339
0.239071
0.493899
0.250727
0.546794
0.512285
0.532717
0.337993
0.412951
0.420835
0.55844
0.308219
0.483279
0.238187
0.491038
0.319226
0.282054
0.292057
0.537249
0.323889
0.551331
0.345375
0.382864
0.323337
0.469158
0.326872
0.543194
0.315079
0.500977
0.486229
0.331095
0.53323
0.533233
0.285527
0.54807
0.345263
0.328601
0.542362
0.310963
0.515481
0.389896
0.219139
0.532829
0.310683
0.357564
0.344498
0.356253
0.323492
0.513803
0.438389
0.523019
0.546924
0.528842
0.54292
0.411196
0.537068
0.305699
0.533736
0.326354
0.525433
0.328809
0.393179
0.522132
0.548737
0.534185
0.357359
0.433184
0.320436
0.34543
0.346123
0.222057
0.536632
0.409257
0.546827
0.532854
0.484863
0.538142
0.533523
0.3977
0.312748
0.361748
0.54084
0.487433
0.502187
0.533243
0.551359
0.419789
0.287043
0.344896