# vtk DataFile Version 1.0
unstructured grid
ascii
DATASET UNSTRUCTURED_GRID
points 3226 float
0.0796578 -0.059106 0
0.00128732 0.00159165 0
0.00227961 -0.00102548 0
0.0791586 -0.0598787 0
-0.0546216 0.01 0
0.000495206 0.025 0
0.0800549 -0.035 0
0.135172 -0.08 0
-0.0546216 -0.0451168 0
0.000495206 -0.0301168 0
0.0800549 -0.0901168 0
0.135172 -0.135117 0
-0.0546216 -0.0451168 -0.00551168
0.000495206 -0.0301168 -0.00551168
0.0800549 -0.0901168 -0.00551168
0.135172 -0.135117 -0.00551168
0.135172 -0.08 -0.00551168
0.0800549 -0.035 -0.00551168
0.000495206 0.025 -0.00551168
-0.0546216 0.01 -0.00551168
0.00128732 0.00159165 -0.00551168
0.00227961 -0.00102548 -0.00551168
0.0791586 -0.0598787 -0.00551168
0.0796578 -0.059106 -0.00551168
0.00110182 -0.000823821 0
0.000571683 -0.000188043 0
0.000561313 0.000639162 0
0.00189316 0.00207203 0
0.00260228 0.00255358 0
0.0033966 0.00307293 0
0.00428861 0.00362634 0
0.00529726 0.0041979 0
0.00644092 0.00476696 0
0.00773158 0.0053187 0
0.00918011 0.00583593 0
0.010799 0.00628751 0
0.012597 0.00663225 0
0.0145725 0.0068517 0
0.0167206 0.0069338 0
0.0190349 0.00685819 0
0.0215031 0.00658621 0
0.0241038 0.00607459 0
0.026821 0.00533786 0
0.0296245 0.00434523 0
0.0324763 0.00306927 0
0.0353199 0.00146906 0
0.0381488 -0.00039338 0
0.0409131 -0.00252802 0
0.0435632 -0.00493276 0
0.0460882 -0.0075571 0
0.0484881 -0.0103478 0
0.0506782 -0.0133217 0
0.0526651 -0.016422 0
0.0546139 -0.0195019 0
0.0565301 -0.022529 0
0.0584009 -0.0254846 0
0.0602154 -0.0283513 0
0.061964 -0.031114 0
0.0636389 -0.0337601 0
0.0652336 -0.0362795 0
0.0667431 -0.0386651 0
0.0681656 -0.0409111 0
0.0694983 -0.0430158 0
0.0707356 -0.0449823 0
0.071886 -0.0468071 0
0.0729575 -0.04849 0
0.0739438 -0.0500408 0
0.0748444 -0.0514675 0
0.0756707 -0.0527715 0
0.0764313 -0.053958 0
0.0771224 -0.0550398 0
0.0777384 -0.0560288 0
0.0782803 -0.0569318 0
0.0787691 -0.0577448 0
0.0792251 -0.0584672 0
0.0800494 -0.0597378 0
0.0797987 -0.0601582 0
0.0786655 -0.059391 0
0.0781259 -0.0588425 0
0.0775539 -0.0582102 0
0.0769587 -0.0574783 0
0.0763492 -0.0566339 0
0.075723 -0.0556725 0
0.0750452 -0.0546094 0
0.0742996 -0.0534457 0
0.073478 -0.0521785 0
0.072577 -0.0508019 0
0.0715904 -0.049313 0
0.0705098 -0.047712 0
0.069328 -0.0459996 0
0.0680378 -0.0441794 0
0.066632 -0.0422571 0
0.0651046 -0.0402413 0
0.0634508 -0.0381431 0
0.0616683 -0.0359754 0
0.0597581 -0.033753 0
0.0577255 -0.0314906 0
0.0555808 -0.0292024 0
0.0533388 -0.0269013 0
0.0510024 -0.0246151 0
0.0485693 -0.0223811 0
0.0460535 -0.0202228 0
0.0434788 -0.0181535 0
0.0408704 -0.0161833 0
0.0382442 -0.0143327 0
0.0356165 -0.0126209 0
0.0330065 -0.0110594 0
0.0304368 -0.00965062 0
0.0279338 -0.00838121 0
0.0255194 -0.00723697 0
0.0231965 -0.00623664 0
0.020983 -0.00535765 0
0.0188891 -0.00458677 0
0.0169193 -0.00391673 0
0.0150754 -0.00334068 0
0.0133572 -0.00285262 0
0.0117634 -0.0024437 0
0.0102912 -0.00210643 0
0.0089363 -0.00183343 0
0.00769424 -0.00161552 0
0.00655956 -0.00144452 0
0.00552632 -0.00131235 0
0.00458815 -0.00121216 0
0.00373885 -0.00113394 0
0.00297202 -0.00106855 0
-0.0506847 -0.0440454 0
-0.0467478 -0.0429739 0
-0.0428108 -0.0419025 0
-0.0388739 -0.0408311 0
-0.034937 -0.0397597 0
-0.0310001 -0.0386882 0
-0.0270632 -0.0376168 0
-0.0231263 -0.0365454 0
-0.0191894 -0.0354739 0
-0.0152525 -0.0344025 0
-0.0113155 -0.0333311 0
-0.00737862 -0.0322597 0
-0.00344171 -0.0311882 0
0.0038716 -0.0298185 0
0.00726082 -0.0297726 0
0.010644 -0.0299802 0
0.0140027 -0.0304367 0
0.0173201 -0.0311326 0
0.0205821 -0.0320541 0
0.0237776 -0.0331851 0
0.0268988 -0.0345078 0
0.0299406 -0.0360041 0
0.0329005 -0.0376567 0
0.035778 -0.039449 0
0.038574 -0.0413659 0
0.0412905 -0.043394 0
0.0439303 -0.0455212 0
0.0464964 -0.0477367 0
0.0489922 -0.0500312 0
0.051421 -0.0523964 0
0.0537863 -0.0548252 0
0.0560914 -0.0573112 0
0.0583395 -0.0598489 0
0.0605336 -0.0624334 0
0.0626765 -0.0650605 0
0.064771 -0.0677264 0
0.0668197 -0.0704277 0
0.0688248 -0.0731615 0
0.0707885 -0.0759252 0
0.072713 -0.0787163 0
0.0746002 -0.0815329 0
0.0764517 -0.0843729 0
0.0782695 -0.0872347 0
0.0829558 -0.0924852 0
0.0858567 -0.0948536 0
0.0887575 -0.0972221 0
0.0916584 -0.0995905 0
0.0945593 -0.101959 0
0.0974602 -0.104327 0
0.100361 -0.106696 0
0.103262 -0.109064 0
0.106163 -0.111433 0
0.109064 -0.113801 0
0.111965 -0.116169 0
0.114865 -0.118538 0
0.117766 -0.120906 0
0.120667 -0.123275 0
0.123568 -0.125643 0
0.126469 -0.128012 0
0.12937 -0.13038 0
0.132271 -0.132748 0
0.135172 -0.13118 0
0.135172 -0.127243 0
0.135172 -0.123306 0
0.135172 -0.119369 0
0.135172 -0.115432 0
0.135172 -0.111495 0
0.135172 -0.107558 0
0.135172 -0.103621 0
0.135172 -0.0996846 0
0.135172 -0.0957477 0
0.135172 -0.0918107 0
0.135172 -0.0878738 0
0.135172 -0.0839369 0
0.132271 -0.0776316 0
0.12937 -0.0752632 0
0.126469 -0.0728947 0
0.123568 -0.0705263 0
0.120667 -0.0681579 0
0.117766 -0.0657895 0
0.114865 -0.0634211 0
0.111965 -0.0610526 0
0.109064 -0.0586842 0
0.106163 -0.0563158 0
0.103262 -0.0539474 0
0.100361 -0.0515789 0
0.0974602 -0.0492105 0
0.0945593 -0.0468421 0
0.0916584 -0.0444737 0
0.0887575 -0.0421053 0
0.0858567 -0.0397368 0
0.0829558 -0.0373684 0
0.0782695 -0.0321179 0
0.0764517 -0.0292561 0
0.0746002 -0.026416 0
0.072713 -0.0235995 0
0.0707885 -0.0208084 0
0.0688248 -0.0180447 0
0.0668197 -0.0153109 0
0.064771 -0.0126096 0
0.0626765 -0.00994373 0
0.0605336 -0.00731663 0
0.0583395 -0.00473208 0
0.0560914 -0.00219437 0
0.0537863 0.000291632 0
0.051421 0.00272041 0
0.0489922 0.00508564 0
0.0464964 0.00738012 0
0.0439303 0.00959562 0
0.0412905 0.0117228 0
0.038574 0.0137509 0
0.035778 0.0156678 0
0.0329005 0.0174601 0
0.0299406 0.0191127 0
0.0268988 0.020609 0
0.0237776 0.0219317 0
0.0205821 0.0230627 0
0.0173201 0.0239842 0
0.0140027 0.0246801 0
0.010644 0.0251366 0
0.00726082 0.0253442 0
0.0038716 0.0252983 0
-0.00344171 0.0239286 0
-0.00737862 0.0228571 0
-0.0113155 0.0217857 0
-0.0152525 0.0207143 0
-0.0191894 0.0196429 0
-0.0231263 0.0185714 0
-0.0270632 0.0175 0
-0.0310001 0.0164286 0
-0.034937 0.0153571 0
-0.0388739 0.0142857 0
-0.0428108 0.0132143 0
-0.0467478 0.0121429 0
-0.0506847 0.0110714 0
-0.0546216 0.00606309 0
-0.0546216 0.00212617 0
-0.0546216 -0.00181074 0
-0.0546216 -0.00574766 0
-0.0546216 -0.00968457 0
-0.0546216 -0.0136215 0
-0.0546216 -0.0175584 0
-0.0546216 -0.0214953 0
-0.0546216 -0.0254322 0
-0.0546216 -0.0293691 0
-0.0546216 -0.0333061 0
-0.0546216 -0.037243 0
-0.0546216 -0.0411799 0
-0.0506847 -0.0440454 -0.00551168
-0.0467478 -0.0429739 -0.00551168
-0.0428108 -0.0419025 -0.00551168
-0.0388739 -0.0408311 -0.00551168
-0.034937 -0.0397597 -0.00551168
-0.0310001 -0.0386882 -0.00551168
-0.0270632 -0.0376168 -0.00551168
-0.0231263 -0.0365454 -0.00551168
-0.0191894 -0.0354739 -0.00551168
-0.0152525 -0.0344025 -0.00551168
-0.0113155 -0.0333311 -0.00551168
-0.00737862 -0.0322597 -0.00551168
-0.00344171 -0.0311882 -0.00551168
0.0038716 -0.0298185 -0.00551168
0.00726082 -0.0297726 -0.00551168
0.010644 -0.0299802 -0.00551168
0.0140027 -0.0304367 -0.00551168
0.0173201 -0.0311326 -0.00551168
0.0205821 -0.0320541 -0.00551168
0.0237776 -0.0331851 -0.00551168
0.0268988 -0.0345078 -0.00551168
0.0299406 -0.0360041 -0.00551168
0.0329005 -0.0376567 -0.00551168
0.035778 -0.039449 -0.00551168
0.038574 -0.0413659 -0.00551168
0.0412905 -0.043394 -0.00551168
0.0439303 -0.0455212 -0.00551168
0.0464964 -0.0477367 -0.00551168
0.0489922 -0.0500312 -0.00551168
0.051421 -0.0523964 -0.00551168
0.0537863 -0.0548252 -0.00551168
0.0560914 -0.0573112 -0.00551168
0.0583395 -0.0598489 -0.00551168
0.0605336 -0.0624334 -0.00551168
0.0626765 -0.0650605 -0.00551168
0.064771 -0.0677264 -0.00551168
0.0668197 -0.0704277 -0.00551168
0.0688248 -0.0731615 -0.00551168
0.0707885 -0.0759252 -0.00551168
0.072713 -0.0787163 -0.00551168
0.0746002 -0.0815329 -0.00551168
0.0764517 -0.0843729 -0.00551168
0.0782695 -0.0872347 -0.00551168
0.0829558 -0.0924852 -0.00551168
0.0858567 -0.0948536 -0.00551168
0.0887575 -0.0972221 -0.00551168
0.0916584 -0.0995905 -0.00551168
0.0945593 -0.101959 -0.00551168
0.0974602 -0.104327 -0.00551168
0.100361 -0.106696 -0.00551168
0.103262 -0.109064 -0.00551168
0.106163 -0.111433 -0.00551168
0.109064 -0.113801 -0.00551168
0.111965 -0.116169 -0.00551168
0.114865 -0.118538 -0.00551168
0.117766 -0.120906 -0.00551168
0.120667 -0.123275 -0.00551168
0.123568 -0.125643 -0.00551168
0.126469 -0.128012 -0.00551168
0.12937 -0.13038 -0.00551168
0.132271 -0.132748 -0.00551168
0.135172 -0.13118 -0.00551168
0.135172 -0.127243 -0.00551168
0.135172 -0.123306 -0.00551168
0.135172 -0.119369 -0.00551168
0.135172 -0.115432 -0.00551168
0.135172 -0.111495 -0.00551168
0.135172 -0.107558 -0.00551168
0.135172 -0.103621 -0.00551168
0.135172 -0.0996846 -0.00551168
0.135172 -0.0957477 -0.00551168
0.135172 -0.0918107 -0.00551168
0.135172 -0.0878738 -0.00551168
0.135172 -0.0839369 -0.00551168
0.132271 -0.0776316 -0.00551168
0.12937 -0.0752632 -0.00551168
0.126469 -0.0728947 -0.00551168
0.123568 -0.0705263 -0.00551168
0.120667 -0.0681579 -0.00551168
0.117766 -0.0657895 -0.00551168
0.114865 -0.0634211 -0.00551168
0.111965 -0.0610526 -0.00551168
0.109064 -0.0586842 -0.00551168
0.106163 -0.0563158 -0.00551168
0.103262 -0.0539474 -0.00551168
0.100361 -0.0515789 -0.00551168
0.0974602 -0.0492105 -0.00551168
0.0945593 -0.0468421 -0.00551168
0.0916584 -0.0444737 -0.00551168
0.0887575 -0.0421053 -0.00551168
0.0858567 -0.0397368 -0.00551168
0.0829558 -0.0373684 -0.00551168
0.0782695 -0.0321179 -0.00551168
0.0764517 -0.0292561 -0.00551168
0.0746002 -0.026416 -0.00551168
0.072713 -0.0235995 -0.00551168
0.0707885 -0.0208084 -0.00551168
0.0688248 -0.0180447 -0.00551168
0.0668197 -0.0153109 -0.00551168
0.064771 -0.0126096 -0.00551168
0.0626765 -0.00994373 -0.00551168
0.0605336 -0.00731663 -0.00551168
0.0583395 -0.00473208 -0.00551168
0.0560914 -0.00219437 -0.00551168
0.0537863 0.000291632 -0.00551168
0.051421 0.00272041 -0.00551168
0.0489922 0.00508564 -0.00551168
0.0464964 0.00738012 -0.00551168
0.0439303 0.00959562 -0.00551168
0.0412905 0.0117228 -0.00551168
[...]
CELL_DATA 2965
SCALARS rho float
LOOKUP_TABLE default
0.533157
0.323513
0.524652
0.329595
0.54251
0.357641
0.532972
0.333391
0.361062
0.525997
0.329593
0.341206
0.426899
0.535648
0.519185
0.516593
0.526452
0.514628
0.545024
0.528694
0.533274
0.335213
0.506428
0.534239
0.536048
0.547292
0.457528
0.478758
0.334018
0.50431
0.503662
0.338979
0.553067
0.529297
0.286343
0.357531
0.528495
0.534003
0.319962
0.506593
0.529607
0.502648
0.533736
0.327658
0.308466
0.532322
0.458662
0.467932
0.320778
0.533339
0.389466
0.332439
0.320271
0.42623
0.332584
0.421677
0.346653
0.320392
0.277501
0.47668
0.516
0.474768
0.336147
0.544279
0.483098
0.532981
0.533133
0.317849
0.307424
0.344354
0.517305
0.543567
0.533173
0.277893
0.499578
0.410096
0.532842
0.332903
0.320791
0.467733
0.533206
0.336994
0.348393
0.437613
0.476366
0.376407
0.320372
0.285208
0.542068
0.344664
0.317611
0.53237
0.517531
0.514552
0.533139
0.320629
0.457464
0.277879
0.348297
0.323377
0.470963
0.324
0.340862
0.306914
0.349978
0.52744
0.532839
0.339383
0.318634
0.532868
0.220474
0.392715
0.468972
0.490922
0.303444
0.295375
0.502395
0.456542
0.533412
0.327662
0.533187
0.236433
0.539803
0.541309
0.48925
0.400922
0.33829
0.459004
0.531081
0.265258
0.341021
0.428527
0.532171
0.34578
0.461122
0.356292
0.425041
0.515674
0.555184
0.542296
0.345943
0.51517
0.528159
0.332118
0.296189
0.545569
0.331788
0.541511
0.555691
0.355629
0.329629
0.326337
0.340914
0.334069
0.275912
0.280541
0.532926
0.531566
0.522008
0.536649
0.453551
0.463408
0.407341
0.542746
0.350552
0.532986
0.414056
0.330954
0.5332
0.535231
0.482112
0.312042
0.436156
0.519547
0.547594
0.415387
0.512578
0.357467
0.255144
0.417624
0.349892
0.259543
0.322453
0.306583
0.555695
0.533003
0.329511
0.331406
0.389431
0.329976
0.320568
0.321951
0.450646
0.299048
0.533259
0.464285
0.534402
0.483331
0.44056
0.321726
0.332923
0.301676
0.526726
0.439457
0.533059
0.298066
0.429489
0.533221
0.51766
0.534143
0.493999
0.401344
0.340728
0.355433
0.506304
0.35219
0.45896
0.326591
0.516604
0.329201
0.362312
0.34197
0.459067
0.383676
0.544953
0.26258
0.533089
0.522382
0.316055
0.477476
0.32611
0.270432
0.53485
0.318512
0.532885
0.53542
0.332648
0.530715
0.333486
0.352115
0.371977
0.328598
0.543489
0.522713
0.337962
0.231493
0.525874
0.533055
0.447965
0.50553
0.322437
0.33565
0.532937
0.335796
0.473266
0.278765
0.268634
0.533428
0.532458
0.314603
0.461981
0.326872
0.54286
0.355804
0.534841
0.533338
0.268418
0.473238
0.521337
0.306435
0.329529
0.533142
0.330024
0.550868
0.510425
0.329343
0.51337
0.514019
0.552167
0.530831
0.54633
0.462766
0.528924
0.532943
0.316299
0.325768
0.518488
0.538427
0.340777
0.530487
0.462645
0.279987
0.348224
0.320931
0.478487
0.324064
0.532855
0.480048
0.548665
0.329108
0.483775
0.483515
0.476805
0.532655
0.334496
0.235249
0.54501
0.532879
0.532912
0.329494
0.341352
0.481177
0.280468
0.308233
0.483995
0.533118
0.48183
0.217517
0.329871
0.482789
0.489224
0.323652
0.533576
0.533037
0.340244
0.414098
0.532538
0.514908
0.281407
0.325647
0.53343
0.344638
0.537908
0.365794
0.539576
0.394682
0.37466
0.332542
0.335477
0.301138
0.509141
0.547418
0.525223
0.543083
0.482397
0.474244
0.312836
0.533792
0.54745
0.328249
0.322836
0.533509
0.32589
0.515095
0.466113
0.320939
0.336051
0.342798
0.33007
0.533067
0.343337
0.342764
0.379985
0.324371
0.532424
0.533524
0.471311
0.532866
0.330865
0.529588
0.329414
0.533526
0.327242
0.344204
0.534955
0.467559
0.272867
0.263259
0.531417
0.362601
0.499865
0.514169
0.323964
0.529922
0.289207
0.349006
0.533551
0.297651
0.535297
0.282177
0.379731
0.333459
0.535853
0.469008
0.434805
0.532898
0.309086
0.546593
0.345731
0.309492
0.549552
0.292499
0.539785
0.421185
0.488177
0.292831
0.295719
0.314201
0.287187
0.313529
0.352423
0.529154
0.533638
0.533916
0.533364
0.363713
0.538645
0.466554
0.518166
0.245637
0.532436
0.345712
0.480316
0.470506
0.290441
0.5333
0.358367
0.522233
0.322462
0.487282
0.534515
0.289547
0.532186
0.252549
0.53775
0.324443
0.320939
0.416504
0.544041
0.54057
0.395022
0.263281
0.246155
0.419502
0.543109
0.526986
0.532399
0.530604
0.536305
0.319483
0.513792
0.481674
0.306871
0.241812
0.303319
0.498524
0.535351
0.366552
0.382095
0.373095
0.355295
0.527617
0.534068
0.533259
0.549227
0.400894
0.532968
0.534639
0.328232
0.539503
0.350898
0.34818
0.529118
0.533921
0.537002
0.545551
0.331787
0.30805
0.553197
0.530129
0.33223
0.528684
0.503512
0.533865
0.359279
0.363987
0.53493
0.330009
0.452503
0.534012
0.535236
0.323731
0.532536
0.326448
0.327876
0.318074
0.352927
0.532556
0.364376
0.515833
0.29659
0.326882
0.525411
0.347427
0.298978
0.314681
0.275404
0.35788
0.306262
0.313938
0.426747
0.440557
0.326409
0.351849
0.535675
0.330599
0.395904
0.532568
0.532743
0.488491
0.485535
0.432626
0.445396
0.294714
0.372245
0.532671
0.497259
0.244425
0.506489
0.252068
0.296054
0.284871
0.53351
0.551315
0.302762
0.494243
0.531254
0.284981
0.297717
0.541299
0.532985
0.354119
0.54405
0.379275
0.343743
0.541623
0.300371
0.454574
0.527482
0.396404
0.542479
0.320713
0.375327
0.537094
0.375997
0.345565
0.35985
0.320775
0.322911
0.532974
0.539393
0.52176
0.319813
0.251805
0.347351
0.304205
0.529379
0.241464
0.42002
0.305194
0.530564
0.532182
0.314672
0.533392
0.392919
0.485799
0.312992
0.52623
0.533261
0.555524
0.53464
0.533208
0.524819
0.361293
0.421677
0.35679
0.528118
0.322792
0.274802
0.531638
0.5328
0.53256
0.325044
0.336246
0.538689
0.541102
0.314046
0.533687
0.290433
0.311523
0.327103
0.553907
0.537808
0.522633
0.304416
0.312441
0.361425
0.330231
0.536953
0.533118
0.546527
0.321666
0.318432
0.455812
0.547477
0.543878
0.50879
0.532925
0.411796
0.536127
0.541597
0.515168
0.326714
0.536322
0.494486
0.533033
0.535628
0.546296
0.481082
0.380428
0.546206
0.35207
0.544095
0.532792
0.218965
0.533067
0.464548
0.534738
0.305714
0.33098
0.533249
0.298845
0.31544
0.548685
0.300927
0.416606
0.537306
0.283329
0.546475
0.327467
0.491021
0.531985
0.527042
0.498131
0.321049
0.320485
0.521009
0.435481
0.330179
0.480564
0.325523
0.533313
0.33305
0.461472
0.517211
0.533343
0.3337
0.492677
0.349385
0.412489
0.416041
0.334621
0.281753
0.326553
0.533481
0.459754
0.434951
0.318152
0.53345
0.485915
0.318612
0.533381
0.3329
0.456072
0.518154
0.533123
0.536408
0.299878
0.342349
0.533117
0.545275
0.523228
0.48544
0.542811
0.480369
0.46637
0.32238
0.503733
0.389669
0.35068
0.358865
0.532921
0.549823
0.505417
0.394595
0.324403
0.540906
0.34583
0.351704
0.407541
0.323311
0.457702
0.332041
0.533035
0.325052
0.321328
0.416345
0.544846
0.328082
0.318621
0.549271
0.543709
0.551434
0.320073
0.317903
0.538361
0.325115
0.319773
0.342484
0.436767
0.522953
0.268267
0.550661
0.332151
0.507104
0.533047
0.318815
0.411392
0.479961
0.500283
0.490215
0.539961
0.537433
0.544842
0.534578
0.533122
0.36694
0.379579
0.520295
0.281945
0.54315
0.524859
0.269232
0.530721
0.470433
0.508751
0.539379
0.462233
0.531495
0.324197
0.488318
0.344049
0.296577
0.534253
0.533312
0.256795
0.341176
0.530517
0.394953
0.450057
0.274025
0.250841
0.548998
0.515149
0.543863
0.511092
0.45337
0.381967
0.452004
0.335361
0.533228
0.503153
0.492117
0.341219
0.382534
0.544248
0.497139
0.538888
0.157202
0.53331
0.328678
0.318435
0.330264
0.517841
0.520028
0.540547
0.471707
0.346171
0.533302
0.388087
0.546217
0.547507
0.489399
0.332806
0.311015
0.533586
0.343208
0.427838
0.471378
0.319004
0.370444
0.516518
0.542399
0.325177
0.533366
0.53195
0.329265
0.533401
0.534279
0.538182
0.358799
0.33822
0.542433
0.319012
0.336982
0.409986
0.533144
0.319421
0.377555
0.315834
0.304611
0.537784
0.329462
0.332177
0.54283
0.329165
0.329991
0.55247
0.53781
0.534755
0.532944
0.487756
0.341774
0.551766
0.532316
0.31416
0.535999
0.533438
0.533059
0.53309
0.361999
0.533073
0.346403
0.5331
0.317783
0.533005
0.343808
0.518222
0.316449
0.540436
0.545611
0.550855
0.486119
0.533519
0.535848
0.306824
0.53312
0.263627
0.533105
0.537732
0.326806
0.406889
0.304566
0.331901
0.533088
0.365466
0.532796
0.126072
0.506156
0.507254
0.540087
0.39883
0.353803
0.246503
0.331232
0.275724
0.537304
0.36867
0.324295
0.534365
0.324647
0.364896
0.531959
0.532113
0.498945
0.535507
0.259853
0.487727
0.314318
0.533184
0.533764
0.525481
0.282348
0.539992
0.535824
0.541236
0.494988
0.532788
0.38482
0.53305
0.540689
0.438947
0.533581
0.314946
0.518845
0.351244
0.415904
0.518888
0.491042
0.529631
0.475335
0.4873
0.536564
0.321751
0.523528
0.329257
0.345943
0.540972
0.512054
0.475899
0.519907
0.531329
0.533158
0.536422
0.533261
0.53331
0.533637
0.552596
0.35525
0.499388
0.530385
0.328323
0.533901
0.319394
0.473422
0.308387
0.533414
0.332505
0.3285
0.305764
0.466481
0.53431
0.430057
0.515954
0.305578
0.346843
0.53311
0.533656
0.316014
0.49903
0.446706
0.306171
0.501863
0.336627
0.316934
0.534285
0.478581
0.324044
0.517633
0.532158
0.522271
0.327761
0.512646
0.241566
0.533086
0.385157
0.509913
0.31714
0.548663
0.314285
0.318309
0.324122
0.510212
0.298568
0.494889
0.546758
0.467746
0.352127
0.311877
0.542006
0.314001
0.233414
0.327093
0.534743
0.321749
0.318575
0.277508
0.499296
0.341695
0.337858
0.339804
0.533081
0.54978
0.345442
0.537799
0.537207
0.494468
0.337883
0.325957
0.534315
0.324751
0.555282
0.330843
0.529757
0.323879
0.155556
0.513111
0.328037
0.335855
0.326792
0.533486
0.303573
0.445002
0.536916
0.324706
0.516586
0.322894
0.549753
0.417333
0.324992
0.338912
0.534082
0.442681
0.53329
0.313879
0.345188
0.431744
0.533148
0.318451
0.3001
0.322583
0.415754
0.536752
0.349263
0.447513
0.530603
0.53334
0.524483
0.328882
0.535615
0.326536
0.533415
0.533634
0.456799
0.345329
0.484203
0.53776
0.324607
0.536593
0.537812
0.34179
0.333426
0.30975
0.258125
0.54121
0.326884
0.533155
0.387424
0.533109
0.495636
0.374884
0.510711
0.30994
0.477728
0.331553
0.532748
0.532279
0.233925
0.332054
0.343213
0.466141
0.552846
0.329285
0.30964
0.353788
0.453548
0.546771
0.255095
0.330574
0.524554
0.536783
0.527429
0.330753
0.339219
0.523448
0.532786
0.318835
0.337755
0.43904
0.549824
0.487953
0.31257
0.533401
0.534315
0.314096
0.537784
0.319916
0.539574
0.320062
0.355682
0.324315
0.276772
0.532581
0.335676
0.327019
0.335887
0.33894
0.479133
0.52992
0.550055
0.322103
0.533044
0.53494
0.53444
0.547334
0.5327
0.547911
0.549593
0.548302
0.538321
0.531815
0.28688
0.483932
0.549852
0.324552
0.540216
0.544748
0.535912
0.534563
0.318441
0.542096
0.53322
0.535954
0.343993
0.502124
0.5291
0.533139
0.529286
0.325322
0.485195
0.345962
0.416728
0.323531
0.324521
0.31459
0.329623
0.533482
0.534012
0.521534
0.319069
0.533928
0.5334
0.536922
0.329336
0.341694
0.517399
0.311702
0.318406
0.304337
0.536352
0.422133
0.533777
0.302339
0.545988
0.532284
0.453238
0.539356
0.333165
0.550101
0.534815
0.512193
0.538887
0.533235
0.519064
0.325338
0.360304
0.343969
0.532755
0.312159
0.534387
0.519182
0.488734
0.336622
0.358947
0.483552
0.540738
0.532955
0.334626
0.524229
0.4782
0.257383
0.533545
0.332903
0.330192
0.312548
0.326063
0.309336
0.539218
0.535249
0.552531
0.441328
0.53254
0.532874
0.515773
0.533377
0.546638
0.548641
0.532682
0.532804
0.329424
0.532912
0.527102
0.426184
0.323784
0.502918
0.297165
0.536714
0.367852
0.539088
0.545573
0.335967
0.536705
0.334846
0.533755
0.530375
0.547347
0.488986
0.516325
0.545368
0.532798
0.346183
0.44602
0.422546
0.246346
0.533613
0.537572
0.437154
0.551229
0.525554
0.532989
0.300891
0.328706
0.527096
0.546377
0.329214
0.210374
0.512506
0.533229
0.534079
0.272092
0.45169
0.511979
0.531779
0.325746
0.533366
0.484928
0.525127
0.505999
0.439224
0.533367
0.294684
0.530721
0.322653
0.30632
0.533405
0.350758
0.351281
0.325417
0.525061
0.506806
0.439431
0.53333
0.431897
0.38084
0.321056
0.542165
0.531543
0.539697
0.490251
0.251646
0.521581
0.434533
0.3214
0.531244
0.537835
0.332367
0.535454
0.528432
0.532989
0.448604
0.532658
0.361909
0.533638
0.530075
0.532756
0.326338
0.525006
0.383208
0.509058
0.532442
0.54449
0.529761
0.533783
0.533872
0.532105
0.516659
0.317993
0.541168
0.511195
0.350997
0.494601
0.535981
0.551403
0.495368
0.322661
0.531283
0.340857
0.545488
0.490331
0.53728
0.335518
0.512871
0.533987
0.53321
0.525223
0.474904
0.533318
0.465449
0.388286
0.324779
0.284477
0.532955
0.335507
0.29161
0.536997
0.331751
0.54358
0.331475
0.535187
0.332683
0.332194
0.520841
0.395569
0.298796
0.527328
0.532318
0.537816
0.326174
0.50378
0.533213
0.53086
0.32628
0.533184
0.533896
0.327301
0.479641
0.461622
0.523829
0.370854
0.39264
0.510397
0.316238
0.538519
0.343799
0.337211
0.53286
0.387859
0.504838
0.332818
0.539383
0.423147
0.53323
0.194773
0.334707
0.532935
0.360357
0.5333
0.346241
0.533807
0.477124
0.467953
0.533328
0.501284
0.24332
0.534184
0.549091
0.530234
0.533167
0.305031
0.340441
0.332113
0.338036
0.532956
0.346361
0.513271
0.32404
0.532133
0.534109
0.53291
0.327384
0.533828
0.327578
0.533675
0.540833
0.368667
0.53289
0.517397
0.324632
0.51922
0.31085
0.352359
0.549878
0.335802
0.543307
0.225408
0.342713
0.511059
0.380706
0.538466
0.326218
0.461769
0.532205
0.52941
0.385711
0.254528
0.324732
0.533125
0.53323
0.342263
0.534619
0.318965
0.531835
0.324812
0.329942
0.464463
0.473918
0.420328
0.49193
0.533376
0.493979
0.473072
0.535497
0.532942
0.338566
0.534311
0.381059
0.353388
0.493077
0.409179
0.395829
0.443001
0.333441
0.512277
0.533369
0.536055
0.325129
0.334013
0.443567
0.506559
0.533776
0.54616
0.328399
0.49855
0.531765
0.503154
0.442275
0.326465
0.320372
0.336347
0.555817
0.536507
0.302668
0.314635
0.437181
0.326851
0.549719
0.513239
0.329221
0.533117
0.406427
0.540154
0.53548
0.331593
0.376032
0.50459
0.331653
0.395727
0.532196
0.276978
0.332628
0.329437
0.507749
0.536029
0.506288
0.343731
0.324192
0.529143
0.534158
0.491701
0.538502
0.32875
0.337056
0.341703
0.497941
0.300715
0.335236
0.537277
0.541299
0.51312
0.321103
0.343074
0.342514
0.533253
0.306373
0.532855
0.533071
0.529226
0.430401
0.53231
0.549663
0.331928
0.327908
0.534805
0.326076
0.467309
0.524655
0.541655
0.436131
0.310607
0.292692
0.541385
0.405603
0.304577
0.533717
0.533384
0.298466
0.326465
0.512376
0.444269
0.329694
0.341444
0.540091
0.489843
0.526326
0.465781
0.349403
0.289109
0.361795
0.384259
0.309049
0.533143
0.527324
0.469044
0.508742
0.340576
0.50172
0.357466
0.532464
0.545678
0.344686
0.267078
0.529182
0.388922
0.471982
0.534201
0.314299
0.52999
0.528313
0.532763
0.533321
0.49867
0.37551
0.310891
0.319445
0.510434
0.533071
0.511127
0.444016
0.330227
0.307789
0.493523
0.3315
0.537787
0.532717
0.532206
0.339932
0.322348
0.463875
0.504479
0.533225
0.524493
0.533538
0.533025
0.535185
0.474042
0.254363
0.533225
0.494365
0.533962
0.330117
0.528898
0.424648
0.52675
0.552911
0.446191
0.491789
0.530877
0.508785
0.533165
0.32675
0.5306
0.551427
0.363924
0.501295
0.310797
0.304997
0.533158
0.533204
0.345029
0.48345
0.53281
0.351768
0.348187
0.551124
0.550726
0.471004
0.365335
0.49638
0.325827
0.542673
0.549446
0.326848
0.452966
0.498718
0.323217
0.327171
0.36035
0.536322
0.526031
0.327342
0.381838
0.342811
0.3534
0.34804
0.496448
0.324756
0.55176
0.534126
0.54121
0.335182
0.531808
0.439543
0.531364
0.446321
0.528413
0.330078
0.298507
0.332131
0.532951
0.336028
0.328055
0.492868
0.340297
0.533315
0.506712
0.426635
0.318135
0.319244
0.520486
0.534988
0.526391
0.522108
0.543074
0.330258
0.370104
0.315567
0.509111
0.534034
0.32664
0.511446
0.294094
0.345435
0.533484
0.334915
0.342081
0.243315
0.374732
0.336276
0.533656
0.530795
0.537147
0.335347
0.532713
0.542111
0.326619
0.533655
0.376996
0.539406
0.365806
0.391457
0.53253
0.326381
0.249957
0.528199
0.523085
0.325087
0.546132
0.497297
0.532114
0.400711
0.328277
0.50155
0.533116
0.364504
0.380188
0.420538
0.395866
0.533484
0.341124
0.326127
0.541079
0.500935
0.355766
0.331794
0.531767
0.325674
0.301289
0.334522
0.454707
0.544486
0.333169
0.539429
0.326465
0.313426
0.350481
0.405471
0.351372
0.538843
0.335506
0.340118
0.481576
0.538325
0.358336
0.533056
0.330009
0.320117
0.50839
0.55275
0.523207
0.513496
0.516249
0.546303
0.328891
0.53886
0.293947
0.533005
0.525998
0.411435
0.525425
0.533105
0.532795
0.532917
0.43675
0.343979
0.429139
0.339183
0.498025
0.531342
0.498075
0.317703
0.535332
0.369176
0.533049
0.325895
0.304492
0.55726
0.303584
0.527326
0.553046
0.372146
0.33935
0.329653
0.532701
0.394739
0.249568
0.54038
0.324926
0.52511
0.346552
0.351067
0.324387
0.534369
0.390943
0.533286
0.32771
0.355862
0.533284
0.531581
0.282065
0.359293
0.271918
0.48183
0.332289
0.520015
0.529851
0.532999
0.236507
0.333777
0.450913
0.529915
0.548582
0.531655
0.308259
0.511289
0.536973
0.532962
0.533264
0.331299
0.519566
0.3236
0.442062
0.541559
0.536752
0.528866
0.545222
0.489978
0.530984
0.543939
0.532523
0.52141
0.535866
0.532946
0.534867
0.328814
0.326646
0.533613
0.475537
0.533263
0.533101
0.54869
0.520104
0.545089
0.345661
0.326543
0.533279
0.329014
0.324752
0.343678
0.532778
0.522564
0.533187
0.506326
0.52089
0.324961
0.537682
0.327455
0.326044
0.545823
0.523904
0.523665
0.400727
0.395908
0.338871
0.326475
0.389248
0.315207
0.362494
0.543771
0.308599
0.530682
0.335267
0.53931
0.532177
0.282491
0.337828
0.493011
0.533258
0.333076
0.508368
0.268103
0.318055
0.329372
0.450671
0.534333
0.533191
0.533579
0.221906
0.363715
0.283659
0.347555
0.533136
0.547147
0.537966
0.352252
0.327661
0.532777
0.531763
0.535874
0.317771
0.479206
0.465664
0.543164
0.431683
0.35166
0.341241
0.346332
0.534467
0.33151
0.330073
0.533101
0.320901
0.533625
0.344932
0.371297
0.400786
0.337523
0.54542
0.533248
0.533611
0.443786
0.555606
0.510547
0.469117
0.333657
0.507799
0.530521
0.509402
0.535668
0.531929
0.539674
0.425177
0.531528
0.534567
0.382872
0.335957
0.549432
0.402622
0.532634
0.344865
0.546484
0.379414
0.525724
0.533746
0.507693
0.532089
0.538809
0.514641
0.316161
0.339926
0.536704
0.547157
0.532293
0.435401
0.544043
0.448664
0.494767
0.532724
0.472294
0.459683
0.54001
0.533026
0.343099
0.326668
0.533731
0.500685
0.32934
0.354687
0.425327
0.533261
0.53311
0.550812
0.345308
0.523632
0.312839
0.535424
0.326175
0.544582
0.282823
0.549697
0.351308
0.531139
0.44612
0.327007
0.293094
0.471763
0.335514
0.478398
0.326695
0.533332
0.533227
0.530001
0.522783
0.53313
0.534695
0.532766
0.550052
0.540748
0.49937
0.515063
0.491837
0.53816
0.334435
0.500833
0.498231
0.531521
0.318517
0.496249
0.545245
0.532921
0.346086
0.320106
0.351383
0.544033
0.494684
0.321635
0.498344
0.391418
0.533449
0.312732
0.413228
0.340132
0.303591
0.553487
0.318796
0.507434
0.327851
0.551607
0.358491
0.533325
0.502669
0.528513
0.35794
0.343831
0.351229
0.514594
0.322895
0.341815
0.337165
0.539918
0.515609
0.544794
0.521353
0.530913
0.508879
0.375907
0.344185
0.52964
0.32658
0.451311
0.526511
0.550449
0.20288
0.297893
0.520545
0.532845
0.409457
0.524741
0.534542
0.518445
0.341168
0.542792
0.519032
0.530412
0.532335
0.322617
0.533179
0.328109
0.531104
0.541947
0.504019
0.532269
0.356033
0.536647
0.218969
0.355655
0.495497
0.506959
0.527907
0.451922
0.333461
0.531117
0.535374
0.321045
0.33315
0.303589
0.549353
0.340675
0.289345
0.335055
0.34002
0.320481
0.371021
0.542627
0.310786
0.538701
0.52233
0.326759
0.534886
0.311225
0.54829
0.308755
0.455276
0.317239
0.524789
0.53373
0.399394
0.495673
0.533385
0.521072
0.317683
0.476532
0.432101
0.322592
0.320477
0.405319
0.284094
0.544063
0.27781
0.306788
0.331418
0.533209
0.527624
0.325816
0.333866
0.545194
0.32935
0.337824
0.533183
0.324171
0.316757
0.360258
0.552613
0.502567
0.545047
0.339014
0.290831
0.538282
0.518227
0.532829
0.397136
0.504819
0.528463
0.416976
0.404241
0.333936
0.315838
0.239047
0.493849
0.260416
0.547023
0.512233
0.532488
0.343592
0.412954
0.420797
0.558725
0.312972
0.48322
0.23816
0.490922
0.32415
0.282023
0.296829
0.537197
0.329064
0.551606
0.348162
0.382843
0.326322
0.469103
0.325822
0.543326
0.328036
0.501196
0.486133
0.333577
0.533516
0.533512
0.294131
0.548288
0.360054
0.331714
0.542427
0.314198
0.515554
0.384404
0.220481
0.532573
0.315987
0.357561
0.344231
0.365589
0.323179
0.513736
0.438387
0.523127
0.547092
0.528975
0.542993
0.41118
0.537187
0.308711
0.534014
0.329619
0.525364
0.332222
0.393178
0.52224
0.548937
0.534338
0.357344
0.433117
0.334816
0.363023
0.361039
0.222047
0.536521
0.40925
0.547058
0.532597
0.484819
0.538377
0.533778
0.397687
0.326381
0.361723
0.541087
0.487437
0.502006
0.533534
0.551462
0.419765