# vtk DataFile Version 1.0
unstructured grid
ascii
DATASET UNSTRUCTURED_GRID
points 3226 float
0.0796578 -0.059106 0
0.00128732 0.00159165 0
0.00227961 -0.00102548 0
0.0791586 -0.0598787 0
-0.0546216 0.01 0
0.000495206 0.025 0
0.0800549 -0.035 0
0.135172 -0.08 0
-0.0546216 -0.0451168 0
0.000495206 -0.0301168 0
0.0800549 -0.0901168 0
0.135172 -0.135117 0
-0.0546216 -0.0451168 -0.00551168
0.000495206 -0.0301168 -0.00551168
0.0800549 -0.0901168 -0.00551168
0.135172 -0.135117 -0.00551168
0.135172 -0.08 -0.00551168
0.0800549 -0.035 -0.00551168
0.000495206 0.025 -0.00551168
-0.0546216 0.01 -0.00551168
0.00128732 0.00159165 -0.00551168
0.00227961 -0.00102548 -0.00551168
0.0791586 -0.0598787 -0.00551168
0.0796578 -0.059106 -0.00551168
0.00110182 -0.000823821 0
0.000571683 -0.000188043 0
0.000561313 0.000639162 0
0.00189316 0.00207203 0
0.00260228 0.00255358 0
0.0033966 0.00307293 0
0.00428861 0.00362634 0
0.00529726 0.0041979 0
0.00644092 0.00476696 0
0.00773158 0.0053187 0
0.00918011 0.00583593 0
0.010799 0.00628751 0
0.012597 0.00663225 0
0.0145725 0.0068517 0
0.0167206 0.0069338 0
0.0190349 0.00685819 0
0.0215031 0.00658621 0
0.0241038 0.00607459 0
0.026821 0.00533786 0
0.0296245 0.00434523 0
0.0324763 0.00306927 0
0.0353199 0.00146906 0
0.0381488 -0.00039338 0
0.0409131 -0.00252802 0
0.0435632 -0.00493276 0
0.0460882 -0.0075571 0
0.0484881 -0.0103478 0
0.0506782 -0.0133217 0
0.0526651 -0.016422 0
0.0546139 -0.0195019 0
0.0565301 -0.022529 0
0.0584009 -0.0254846 0
0.0602154 -0.0283513 0
0.061964 -0.031114 0
0.0636389 -0.0337601 0
0.0652336 -0.0362795 0
0.0667431 -0.0386651 0
0.0681656 -0.0409111 0
0.0694983 -0.0430158 0
0.0707356 -0.0449823 0
0.071886 -0.0468071 0
0.0729575 -0.04849 0
0.0739438 -0.0500408 0
0.0748444 -0.0514675 0
0.0756707 -0.0527715 0
0.0764313 -0.053958 0
0.0771224 -0.0550398 0
0.0777384 -0.0560288 0
0.0782803 -0.0569318 0
0.0787691 -0.0577448 0
0.0792251 -0.0584672 0
0.0800494 -0.0597378 0
0.0797987 -0.0601582 0
0.0786655 -0.059391 0
0.0781259 -0.0588425 0
0.0775539 -0.0582102 0
0.0769587 -0.0574783 0
0.0763492 -0.0566339 0
0.075723 -0.0556725 0
0.0750452 -0.0546094 0
0.0742996 -0.0534457 0
0.073478 -0.0521785 0
0.072577 -0.0508019 0
0.0715904 -0.049313 0
0.0705098 -0.047712 0
0.069328 -0.0459996 0
0.0680378 -0.0441794 0
0.066632 -0.0422571 0
0.0651046 -0.0402413 0
0.0634508 -0.0381431 0
0.0616683 -0.0359754 0
0.0597581 -0.033753 0
0.0577255 -0.0314906 0
0.0555808 -0.0292024 0
0.0533388 -0.0269013 0
0.0510024 -0.0246151 0
0.0485693 -0.0223811 0
0.0460535 -0.0202228 0
0.0434788 -0.0181535 0
0.0408704 -0.0161833 0
0.0382442 -0.0143327 0
0.0356165 -0.0126209 0
0.0330065 -0.0110594 0
0.0304368 -0.00965062 0
0.0279338 -0.00838121 0
0.0255194 -0.00723697 0
0.0231965 -0.00623664 0
0.020983 -0.00535765 0
0.0188891 -0.00458677 0
0.0169193 -0.00391673 0
0.0150754 -0.00334068 0
0.0133572 -0.00285262 0
0.0117634 -0.0024437 0
0.0102912 -0.00210643 0
0.0089363 -0.00183343 0
0.00769424 -0.00161552 0
0.00655956 -0.00144452 0
0.00552632 -0.00131235 0
0.00458815 -0.00121216 0
0.00373885 -0.00113394 0
0.00297202 -0.00106855 0
-0.0506847 -0.0440454 0
-0.0467478 -0.0429739 0
-0.0428108 -0.0419025 0
-0.0388739 -0.0408311 0
-0.034937 -0.0397597 0
-0.0310001 -0.0386882 0
-0.0270632 -0.0376168 0
-0.0231263 -0.0365454 0
-0.0191894 -0.0354739 0
-0.0152525 -0.0344025 0
-0.0113155 -0.0333311 0
-0.00737862 -0.0322597 0
-0.00344171 -0.0311882 0
0.0038716 -0.0298185 0
0.00726082 -0.0297726 0
0.010644 -0.0299802 0
0.0140027 -0.0304367 0
0.0173201 -0.0311326 0
0.0205821 -0.0320541 0
0.0237776 -0.0331851 0
0.0268988 -0.0345078 0
0.0299406 -0.0360041 0
0.0329005 -0.0376567 0
0.035778 -0.039449 0
0.038574 -0.0413659 0
0.0412905 -0.043394 0
0.0439303 -0.0455212 0
0.0464964 -0.0477367 0
0.0489922 -0.0500312 0
0.051421 -0.0523964 0
0.0537863 -0.0548252 0
0.0560914 -0.0573112 0
0.0583395 -0.0598489 0
0.0605336 -0.0624334 0
0.0626765 -0.0650605 0
0.064771 -0.0677264 0
0.0668197 -0.0704277 0
0.0688248 -0.0731615 0
0.0707885 -0.0759252 0
0.072713 -0.0787163 0
0.0746002 -0.0815329 0
0.0764517 -0.0843729 0
0.0782695 -0.0872347 0
0.0829558 -0.0924852 0
0.0858567 -0.0948536 0
0.0887575 -0.0972221 0
0.0916584 -0.0995905 0
0.0945593 -0.101959 0
0.0974602 -0.104327 0
0.100361 -0.106696 0
0.103262 -0.109064 0
0.106163 -0.111433 0
0.109064 -0.113801 0
0.111965 -0.116169 0
0.114865 -0.118538 0
0.117766 -0.120906 0
0.120667 -0.123275 0
0.123568 -0.125643 0
0.126469 -0.128012 0
0.12937 -0.13038 0
0.132271 -0.132748 0
0.135172 -0.13118 0
0.135172 -0.127243 0
0.135172 -0.123306 0
0.135172 -0.119369 0
0.135172 -0.115432 0
0.135172 -0.111495 0
0.135172 -0.107558 0
0.135172 -0.103621 0
0.135172 -0.0996846 0
0.135172 -0.0957477 0
0.135172 -0.0918107 0
0.135172 -0.0878738 0
0.135172 -0.0839369 0
0.132271 -0.0776316 0
0.12937 -0.0752632 0
0.126469 -0.0728947 0
0.123568 -0.0705263 0
0.120667 -0.0681579 0
0.117766 -0.0657895 0
0.114865 -0.0634211 0
0.111965 -0.0610526 0
0.109064 -0.0586842 0
0.106163 -0.0563158 0
0.103262 -0.0539474 0
0.100361 -0.0515789 0
0.0974602 -0.0492105 0
0.0945593 -0.0468421 0
0.0916584 -0.0444737 0
0.0887575 -0.0421053 0
0.0858567 -0.0397368 0
0.0829558 -0.0373684 0
0.0782695 -0.0321179 0
0.0764517 -0.0292561 0
0.0746002 -0.026416 0
0.072713 -0.0235995 0
0.0707885 -0.0208084 0
0.0688248 -0.0180447 0
0.0668197 -0.0153109 0
0.064771 -0.0126096 0
0.0626765 -0.00994373 0
0.0605336 -0.00731663 0
0.0583395 -0.00473208 0
0.0560914 -0.00219437 0
0.0537863 0.000291632 0
0.051421 0.00272041 0
0.0489922 0.00508564 0
0.0464964 0.00738012 0
0.0439303 0.00959562 0
0.0412905 0.0117228 0
0.038574 0.0137509 0
0.035778 0.0156678 0
0.0329005 0.0174601 0
0.0299406 0.0191127 0
0.0268988 0.020609 0
0.0237776 0.0219317 0
0.0205821 0.0230627 0
0.0173201 0.0239842 0
0.0140027 0.0246801 0
0.010644 0.0251366 0
0.00726082 0.0253442 0
0.0038716 0.0252983 0
-0.00344171 0.0239286 0
-0.00737862 0.0228571 0
-0.0113155 0.0217857 0
-0.0152525 0.0207143 0
-0.0191894 0.0196429 0
-0.0231263 0.0185714 0
-0.0270632 0.0175 0
-0.0310001 0.0164286 0
-0.034937 0.0153571 0
-0.0388739 0.0142857 0
-0.0428108 0.0132143 0
-0.0467478 0.0121429 0
-0.0506847 0.0110714 0
-0.0546216 0.00606309 0
-0.0546216 0.00212617 0
-0.0546216 -0.00181074 0
-0.0546216 -0.00574766 0
-0.0546216 -0.00968457 0
-0.0546216 -0.0136215 0
-0.0546216 -0.0175584 0
-0.0546216 -0.0214953 0
-0.0546216 -0.0254322 0
-0.0546216 -0.0293691 0
-0.0546216 -0.0333061 0
-0.0546216 -0.037243 0
-0.0546216 -0.0411799 0
-0.0506847 -0.0440454 -0.00551168
-0.0467478 -0.0429739 -0.00551168
-0.0428108 -0.0419025 -0.00551168
-0.0388739 -0.0408311 -0.00551168
-0.034937 -0.0397597 -0.00551168
-0.0310001 -0.0386882 -0.00551168
-0.0270632 -0.0376168 -0.00551168
-0.0231263 -0.0365454 -0.00551168
-0.0191894 -0.0354739 -0.00551168
-0.0152525 -0.0344025 -0.00551168
-0.0113155 -0.0333311 -0.00551168
-0.00737862 -0.0322597 -0.00551168
-0.00344171 -0.0311882 -0.00551168
0.0038716 -0.0298185 -0.00551168
0.00726082 -0.0297726 -0.00551168
0.010644 -0.0299802 -0.00551168
0.0140027 -0.0304367 -0.00551168
0.0173201 -0.0311326 -0.00551168
0.0205821 -0.0320541 -0.00551168
0.0237776 -0.0331851 -0.00551168
0.0268988 -0.0345078 -0.00551168
0.0299406 -0.0360041 -0.00551168
0.0329005 -0.0376567 -0.00551168
0.035778 -0.039449 -0.00551168
0.038574 -0.0413659 -0.00551168
0.0412905 -0.043394 -0.00551168
0.0439303 -0.0455212 -0.00551168
0.0464964 -0.0477367 -0.00551168
0.0489922 -0.0500312 -0.00551168
0.051421 -0.0523964 -0.00551168
0.0537863 -0.0548252 -0.00551168
0.0560914 -0.0573112 -0.00551168
0.0583395 -0.0598489 -0.00551168
0.0605336 -0.0624334 -0.00551168
0.0626765 -0.0650605 -0.00551168
0.064771 -0.0677264 -0.00551168
0.0668197 -0.0704277 -0.00551168
0.0688248 -0.0731615 -0.00551168
0.0707885 -0.0759252 -0.00551168
0.072713 -0.0787163 -0.00551168
0.0746002 -0.0815329 -0.00551168
0.0764517 -0.0843729 -0.00551168
0.0782695 -0.0872347 -0.00551168
0.0829558 -0.0924852 -0.00551168
0.0858567 -0.0948536 -0.00551168
0.0887575 -0.0972221 -0.00551168
0.0916584 -0.0995905 -0.00551168
0.0945593 -0.101959 -0.00551168
0.0974602 -0.104327 -0.00551168
0.100361 -0.106696 -0.00551168
0.103262 -0.109064 -0.00551168
0.106163 -0.111433 -0.00551168
0.109064 -0.113801 -0.00551168
0.111965 -0.116169 -0.00551168
0.114865 -0.118538 -0.00551168
0.117766 -0.120906 -0.00551168
0.120667 -0.123275 -0.00551168
0.123568 -0.125643 -0.00551168
0.126469 -0.128012 -0.00551168
0.12937 -0.13038 -0.00551168
0.132271 -0.132748 -0.00551168
0.135172 -0.13118 -0.00551168
0.135172 -0.127243 -0.00551168
0.135172 -0.123306 -0.00551168
0.135172 -0.119369 -0.00551168
0.135172 -0.115432 -0.00551168
0.135172 -0.111495 -0.00551168
0.135172 -0.107558 -0.00551168
0.135172 -0.103621 -0.00551168
0.135172 -0.0996846 -0.00551168
0.135172 -0.0957477 -0.00551168
0.135172 -0.0918107 -0.00551168
0.135172 -0.0878738 -0.00551168
0.135172 -0.0839369 -0.00551168
0.132271 -0.0776316 -0.00551168
0.12937 -0.0752632 -0.00551168
0.126469 -0.0728947 -0.00551168
0.123568 -0.0705263 -0.00551168
0.120667 -0.0681579 -0.00551168
0.117766 -0.0657895 -0.00551168
0.114865 -0.0634211 -0.00551168
0.111965 -0.0610526 -0.00551168
0.109064 -0.0586842 -0.00551168
0.106163 -0.0563158 -0.00551168
0.103262 -0.0539474 -0.00551168
0.100361 -0.0515789 -0.00551168
0.0974602 -0.0492105 -0.00551168
0.0945593 -0.0468421 -0.00551168
0.0916584 -0.0444737 -0.00551168
0.0887575 -0.0421053 -0.00551168
0.0858567 -0.0397368 -0.00551168
0.0829558 -0.0373684 -0.00551168
0.0782695 -0.0321179 -0.00551168
0.0764517 -0.0292561 -0.00551168
0.0746002 -0.026416 -0.00551168
0.072713 -0.0235995 -0.00551168
0.0707885 -0.0208084 -0.00551168
0.0688248 -0.0180447 -0.00551168
0.0668197 -0.0153109 -0.00551168
0.064771 -0.0126096 -0.00551168
0.0626765 -0.00994373 -0.00551168
0.0605336 -0.00731663 -0.00551168
0.0583395 -0.00473208 -0.00551168
0.0560914 -0.00219437 -0.00551168
0.0537863 0.000291632 -0.00551168
0.051421 0.00272041 -0.00551168
0.0489922 0.00508564 -0.00551168
0.0464964 0.00738012 -0.00551168
0.0439303 0.00959562 -0.00551168
0.0412905 0.0117228 -0.00551168
[...]
CELL_DATA 2965
SCALARS rho float
LOOKUP_TABLE default
0.533194
0.318976
0.524717
0.32934
0.542803
0.357111
0.533102
0.331411
0.36275
0.526054
0.329142
0.339213
0.427032
0.536041
0.519172
0.516108
0.525961
0.514602
0.545302
0.528252
0.533348
0.337438
0.506521
0.534231
0.536243
0.547439
0.457422
0.478992
0.331731
0.504206
0.503614
0.339881
0.553803
0.529471
0.286301
0.356178
0.528176
0.53416
0.319297
0.506493
0.529418
0.502641
0.53381
0.327679
0.305167
0.531936
0.458788
0.468387
0.320861
0.533143
0.389379
0.334014
0.317534
0.426172
0.331073
0.421603
0.339244
0.32014
0.277456
0.476758
0.515981
0.475167
0.335205
0.544655
0.483504
0.53342
0.533054
0.320233
0.307067
0.349481
0.517234
0.543763
0.533054
0.275896
0.499541
0.41023
0.532806
0.334419
0.321595
0.467765
0.533146
0.335684
0.342357
0.437734
0.476853
0.376338
0.318842
0.285483
0.542223
0.341485
0.316053
0.531962
0.517124
0.514561
0.533582
0.320558
0.457565
0.27787
0.353959
0.325635
0.471049
0.325629
0.3413
0.304919
0.355884
0.527254
0.532718
0.337826
0.318376
0.532851
0.223155
0.392906
0.468898
0.491111
0.303465
0.294298
0.502484
0.456665
0.533449
0.33028
0.533146
0.236378
0.53993
0.541452
0.48961
0.400852
0.341794
0.4592
0.531339
0.265213
0.344822
0.428461
0.53226
0.349434
0.461019
0.344937
0.425211
0.515235
0.555298
0.542535
0.349976
0.514656
0.527983
0.332121
0.296432
0.545908
0.328779
0.541773
0.55615
0.354586
0.330558
0.324155
0.341311
0.33246
0.275871
0.280982
0.533043
0.531809
0.521983
0.536644
0.453653
0.463434
0.40731
0.543291
0.344168
0.533106
0.414164
0.33174
0.532996
0.535312
0.482092
0.312073
0.436101
0.519146
0.548198
0.415559
0.512548
0.35748
0.255045
0.417552
0.345807
0.259426
0.32204
0.306531
0.556088
0.533153
0.326687
0.335652
0.389347
0.330241
0.320103
0.322081
0.450751
0.299065
0.533084
0.464217
0.534515
0.483558
0.440501
0.323513
0.332669
0.297464
0.526504
0.439558
0.533188
0.299151
0.429447
0.533052
0.51762
0.533971
0.494076
0.401308
0.340938
0.351491
0.506029
0.348337
0.459077
0.329022
0.516206
0.329594
0.362049
0.337125
0.459007
0.383607
0.545097
0.260728
0.533192
0.522453
0.316166
0.477483
0.326592
0.267969
0.535271
0.318203
0.532589
0.535426
0.331795
0.530971
0.333684
0.352293
0.371997
0.328899
0.54383
0.522789
0.342665
0.230252
0.525639
0.532902
0.448102
0.505316
0.323153
0.332698
0.533067
0.336642
0.473634
0.278185
0.267152
0.533421
0.532288
0.310622
0.462225
0.32699
0.543044
0.3531
0.535174
0.53336
0.268369
0.473142
0.521362
0.304286
0.330501
0.533172
0.332904
0.551246
0.510082
0.332867
0.513319
0.513678
0.552466
0.530504
0.546957
0.463349
0.528562
0.532751
0.316354
0.324296
0.518463
0.53853
0.338672
0.53039
0.462548
0.277029
0.343129
0.320998
0.478385
0.324763
0.532821
0.48001
0.548902
0.328886
0.483715
0.483597
0.47684
0.532526
0.331165
0.235197
0.545226
0.53293
0.532953
0.329686
0.338986
0.481223
0.281299
0.309303
0.484162
0.533143
0.482184
0.218937
0.327784
0.482837
0.48952
0.324439
0.533911
0.533174
0.337742
0.414236
0.532163
0.514924
0.279363
0.327361
0.533529
0.345416
0.537857
0.365767
0.539728
0.394639
0.374704
0.328431
0.339935
0.301286
0.509211
0.547572
0.524914
0.543672
0.482545
0.474138
0.315761
0.533812
0.548027
0.329111
0.322757
0.533652
0.325706
0.514796
0.46668
0.315608
0.336954
0.341271
0.329869
0.533152
0.344694
0.339599
0.379904
0.325854
0.532749
0.533532
0.471198
0.532908
0.330295
0.529525
0.332322
0.533659
0.327385
0.340079
0.535044
0.467672
0.270472
0.263178
0.531545
0.362759
0.499858
0.513738
0.32411
0.529904
0.289398
0.346755
0.533796
0.299441
0.535629
0.282482
0.379658
0.332683
0.535992
0.468954
0.434777
0.532711
0.30914
0.547137
0.345874
0.308925
0.550127
0.29242
0.540387
0.421109
0.488203
0.293017
0.295882
0.313437
0.287419
0.313568
0.34991
0.529365
0.533554
0.534098
0.533188
0.352286
0.538755
0.466461
0.518125
0.245492
0.532163
0.340269
0.480636
0.471007
0.288182
0.53316
0.358399
0.522248
0.324891
0.487326
0.534249
0.288337
0.532151
0.252502
0.53775
0.323828
0.320496
0.416428
0.54458
0.540635
0.395205
0.261316
0.246135
0.419447
0.543599
0.526603
0.532758
0.530569
0.536641
0.319224
0.513794
0.481758
0.307085
0.24101
0.302796
0.49844
0.535637
0.366486
0.382085
0.37305
0.353875
0.527387
0.534164
0.533062
0.549649
0.400832
0.532769
0.53517
0.32826
0.539525
0.350869
0.348238
0.52906
0.53447
0.536909
0.54602
0.329382
0.308438
0.554031
0.529838
0.330102
0.528539
0.503431
0.534129
0.358233
0.33196
0.535404
0.329783
0.452524
0.534582
0.535449
0.324978
0.532753
0.326382
0.331405
0.318611
0.353137
0.532677
0.364352
0.515733
0.296849
0.32937
0.525166
0.340776
0.299013
0.31574
0.275352
0.35782
0.305707
0.312067
0.426728
0.440511
0.32532
0.350093
0.536067
0.330067
0.396036
0.53218
0.532516
0.488722
0.485939
0.432765
0.445423
0.296697
0.372193
0.532325
0.497025
0.24379
0.506127
0.250776
0.296077
0.284829
0.533187
0.551588
0.295072
0.494424
0.5309
0.284919
0.295198
0.541842
0.533083
0.354067
0.544599
0.379454
0.342101
0.542211
0.296586
0.454698
0.527648
0.396554
0.542883
0.320157
0.35878
0.537102
0.376152
0.343661
0.359841
0.31785
0.323894
0.532802
0.539435
0.52151
0.319413
0.251756
0.34377
0.298853
0.529303
0.237256
0.420185
0.300927
0.530343
0.532206
0.313008
0.533329
0.39284
0.486178
0.313044
0.526017
0.533576
0.555869
0.534967
0.533254
0.524649
0.360489
0.421789
0.355409
0.528225
0.323625
0.272201
0.531236
0.53264
0.532247
0.324294
0.332675
0.538875
0.541188
0.313675
0.533562
0.288175
0.311569
0.326402
0.55466
0.537828
0.522716
0.306468
0.312508
0.359852
0.328574
0.537053
0.533008
0.547025
0.321808
0.318042
0.455781
0.548062
0.544464
0.508645
0.532931
0.411715
0.535955
0.54171
0.515156
0.328654
0.536168
0.494305
0.533085
0.535789
0.546874
0.481402
0.380353
0.546403
0.345237
0.544345
0.532682
0.219469
0.533002
0.464518
0.534653
0.305887
0.330262
0.533239
0.298797
0.314977
0.54908
0.300883
0.416554
0.537389
0.283311
0.546752
0.326718
0.490893
0.53157
0.526843
0.498306
0.321112
0.319706
0.520675
0.435598
0.326043
0.480464
0.325597
0.533144
0.331856
0.461565
0.517118
0.533265
0.330656
0.492698
0.346748
0.412417
0.416176
0.329011
0.281709
0.32566
0.533451
0.459652
0.434867
0.317741
0.53336
0.486247
0.318191
0.533214
0.332813
0.456131
0.5182
0.533204
0.536686
0.299832
0.340471
0.53317
0.545391
0.523312
0.485721
0.543259
0.480446
0.466433
0.321355
0.503667
0.389594
0.350655
0.35883
0.533007
0.550389
0.505486
0.39454
0.324817
0.541367
0.346014
0.351379
0.407648
0.323228
0.457685
0.332981
0.533176
0.325466
0.322633
0.416364
0.545011
0.331907
0.318693
0.549763
0.543852
0.551804
0.317465
0.317973
0.538324
0.32461
0.319838
0.341435
0.436685
0.522795
0.268215
0.551218
0.336281
0.507085
0.53278
0.318989
0.411562
0.479878
0.50014
0.490363
0.540028
0.537484
0.545012
0.534905
0.533101
0.345946
0.379789
0.520014
0.281852
0.543336
0.524963
0.269756
0.530803
0.470963
0.50869
0.539892
0.46279
0.531616
0.32427
0.488337
0.3409
0.296573
0.534227
0.533365
0.254424
0.344807
0.530295
0.39506
0.450273
0.270507
0.250791
0.549694
0.51488
0.544023
0.511123
0.453972
0.381973
0.45209
0.333623
0.533168
0.502822
0.492144
0.342951
0.382484
0.544446
0.497028
0.538968
0.15712
0.533298
0.325873
0.317982
0.331217
0.517603
0.519951
0.540796
0.471608
0.351424
0.533105
0.38802
0.54674
0.547859
0.489518
0.330592
0.311089
0.533752
0.341468
0.427813
0.471698
0.318748
0.377516
0.516526
0.54294
0.324328
0.533225
0.531731
0.32908
0.533305
0.534841
0.538175
0.364249
0.339
0.543027
0.319172
0.336788
0.409943
0.533146
0.319063
0.377552
0.315583
0.304572
0.538122
0.332069
0.33109
0.542932
0.332118
0.329957
0.552632
0.537756
0.534684
0.532883
0.488126
0.339372
0.552207
0.532209
0.314279
0.535925
0.533379
0.533071
0.533127
0.364227
0.533145
0.33962
0.533171
0.317892
0.533012
0.343787
0.518164
0.316577
0.540923
0.54582
0.55119
0.486092
0.533685
0.535867
0.306822
0.533442
0.263742
0.533207
0.537967
0.324939
0.406826
0.297388
0.332092
0.533205
0.365461
0.532457
0.126192
0.506051
0.50707
0.540106
0.398997
0.344774
0.246309
0.330091
0.275582
0.537263
0.368645
0.324042
0.534777
0.328389
0.365073
0.531677
0.532333
0.49891
0.535381
0.25976
0.487605
0.314468
0.533092
0.534019
0.525608
0.283097
0.540267
0.535786
0.541333
0.49521
0.532642
0.384746
0.532817
0.541258
0.439115
0.53376
0.31452
0.518703
0.354254
0.416009
0.518334
0.491043
0.529558
0.475307
0.487317
0.536726
0.319351
0.523281
0.329289
0.346977
0.541583
0.511583
0.476325
0.519962
0.531516
0.533087
0.53637
0.533098
0.533551
0.534207
0.552891
0.353475
0.499524
0.530118
0.328418
0.534161
0.316382
0.473417
0.308245
0.533519
0.331034
0.328364
0.30428
0.466903
0.53478
0.429978
0.515854
0.305938
0.349175
0.532939
0.53355
0.317401
0.499148
0.446612
0.306205
0.50199
0.338315
0.315497
0.534005
0.478662
0.320154
0.51732
0.531915
0.522179
0.328147
0.512567
0.241657
0.532859
0.385272
0.509894
0.314684
0.549107
0.314905
0.312714
0.3243
0.510176
0.298603
0.495123
0.547275
0.46803
0.350969
0.312024
0.54217
0.314102
0.233366
0.327771
0.53528
0.321829
0.304542
0.278021
0.499276
0.343293
0.339746
0.338805
0.532832
0.550017
0.338244
0.53792
0.537473
0.49432
0.33566
0.32604
0.534652
0.324887
0.555662
0.330784
0.529602
0.322742
0.155986
0.512631
0.325623
0.334702
0.327233
0.533445
0.303555
0.445141
0.537278
0.321672
0.516447
0.322278
0.550394
0.417333
0.325026
0.340011
0.534662
0.442593
0.533263
0.315404
0.348644
0.431847
0.53319
0.316199
0.299878
0.324543
0.415716
0.537024
0.338262
0.447684
0.53056
0.5334
0.524349
0.328525
0.536
0.326633
0.533779
0.534206
0.457272
0.345096
0.484423
0.537684
0.324192
0.536594
0.538293
0.346047
0.334033
0.301652
0.256857
0.541284
0.327375
0.532977
0.387393
0.5332
0.495634
0.374816
0.51025
0.310454
0.477787
0.329572
0.532476
0.531874
0.231645
0.335862
0.340983
0.466133
0.553066
0.326626
0.311475
0.351187
0.453449
0.547103
0.254358
0.329809
0.524295
0.53718
0.527123
0.330175
0.330765
0.523081
0.532517
0.31866
0.332779
0.439174
0.550223
0.488232
0.312535
0.533635
0.53462
0.3141
0.537996
0.319325
0.540147
0.320017
0.35561
0.320686
0.276714
0.532912
0.335558
0.32452
0.337791
0.344038
0.479606
0.530027
0.550665
0.321734
0.533168
0.534766
0.534441
0.547975
0.532349
0.54829
0.550279
0.548973
0.538592
0.531502
0.286085
0.483942
0.550061
0.324557
0.540611
0.544976
0.536246
0.534858
0.318705
0.54255
0.533075
0.535921
0.339363
0.502071
0.528867
0.533007
0.529216
0.323877
0.485076
0.338217
0.416653
0.318502
0.319698
0.314675
0.329678
0.533657
0.534328
0.520953
0.32001
0.534342
0.533254
0.537134
0.328954
0.339647
0.51725
0.30963
0.31837
0.303193
0.536472
0.422209
0.534313
0.301816
0.546465
0.532581
0.453649
0.539635
0.328321
0.550417
0.53503
0.511981
0.539057
0.533504
0.519124
0.32519
0.363041
0.34113
0.532534
0.312786
0.534732
0.519
0.488855
0.338207
0.356204
0.483474
0.540787
0.532828
0.338192
0.524012
0.478087
0.256629
0.533638
0.332134
0.330247
0.312859
0.326054
0.303937
0.539398
0.535277
0.552888
0.44148
0.53274
0.532724
0.515765
0.533476
0.547016
0.549172
0.532364
0.532607
0.331561
0.533004
0.52687
0.426111
0.323283
0.50276
0.297142
0.537016
0.36808
0.539434
0.546177
0.336862
0.537085
0.335337
0.53353
0.530284
0.547953
0.488877
0.515792
0.545885
0.532591
0.338525
0.445926
0.422549
0.246269
0.533852
0.537735
0.437282
0.55177
0.525346
0.53295
0.296113
0.325821
0.527271
0.546708
0.329867
0.214315
0.512533
0.533651
0.534267
0.272049
0.452215
0.511609
0.531535
0.32545
0.533279
0.484821
0.525261
0.505907
0.439373
0.533143
0.29489
0.530292
0.320708
0.30488
0.533528
0.35073
0.351367
0.324103
0.524526
0.506854
0.439526
0.533222
0.432041
0.37707
0.321136
0.542343
0.531235
0.540149
0.490179
0.251593
0.521147
0.434458
0.320444
0.530889
0.537878
0.332782
0.535915
0.528257
0.533028
0.448725
0.532332
0.361848
0.533934
0.529884
0.532863
0.327864
0.525134
0.38342
0.508912
0.532641
0.544686
0.52951
0.533672
0.534373
0.531706
0.516417
0.318812
0.541498
0.511186
0.344156
0.494536
0.536178
0.551813
0.495499
0.322075
0.531288
0.339335
0.546082
0.490224
0.53724
0.333862
0.512367
0.533831
0.533237
0.52505
0.47542
0.533128
0.465602
0.38825
0.323935
0.284486
0.533026
0.33676
0.288155
0.53719
0.333033
0.544006
0.317106
0.535124
0.329588
0.333213
0.520346
0.395539
0.298741
0.527273
0.53201
0.537782
0.343751
0.50385
0.533003
0.53056
0.325593
0.533195
0.53374
0.32515
0.479667
0.461749
0.523273
0.354708
0.39256
0.510333
0.316055
0.538924
0.345922
0.338446
0.532666
0.387844
0.504563
0.332241
0.539386
0.423298
0.5332
0.194936
0.336575
0.532759
0.358893
0.533132
0.339097
0.534263
0.477371
0.46805
0.533169
0.501204
0.242926
0.534727
0.54954
0.530238
0.533207
0.30185
0.338108
0.336093
0.339017
0.532727
0.347224
0.51317
0.325635
0.531796
0.533828
0.53266
0.327962
0.534204
0.326432
0.533879
0.540913
0.367911
0.532612
0.51733
0.321017
0.519189
0.311246
0.345721
0.550275
0.335832
0.543425
0.225359
0.339252
0.51067
0.374783
0.538979
0.328634
0.46188
0.531995
0.529131
0.385752
0.251945
0.324684
0.532965
0.533082
0.340307
0.53487
0.320208
0.531617
0.323423
0.330282
0.464574
0.473857
0.420355
0.491897
0.533233
0.493861
0.473201
0.535292
0.532821
0.336219
0.534276
0.368832
0.356722
0.493351
0.409152
0.395751
0.442912
0.333731
0.512311
0.533208
0.536008
0.32561
0.335937
0.443998
0.506506
0.533609
0.546424
0.327766
0.498458
0.531381
0.503161
0.442192
0.325862
0.322813
0.339574
0.556208
0.536736
0.302807
0.312155
0.437108
0.326565
0.550221
0.513233
0.329309
0.532905
0.406372
0.540339
0.535422
0.329801
0.370608
0.504211
0.332808
0.395647
0.531785
0.276968
0.331152
0.32943
0.507728
0.536315
0.506263
0.345618
0.324409
0.529364
0.53452
0.491941
0.538707
0.328696
0.340519
0.342434
0.497907
0.2994
0.338015
0.537379
0.541932
0.513125
0.319629
0.342043
0.342114
0.533312
0.306439
0.53257
0.533164
0.52896
0.430472
0.532217
0.550011
0.331884
0.328309
0.535305
0.330327
0.467204
0.524425
0.541809
0.436043
0.309163
0.290935
0.541477
0.405529
0.304708
0.533438
0.533172
0.298422
0.32714
0.512329
0.444372
0.333826
0.339698
0.540156
0.489823
0.52625
0.466258
0.349343
0.287853
0.358017
0.384347
0.308988
0.533129
0.527091
0.469124
0.508468
0.332294
0.501846
0.359317
0.532067
0.546097
0.338931
0.267024
0.528693
0.388862
0.471948
0.53426
0.315765
0.529671
0.528378
0.532478
0.533276
0.49857
0.37056
0.308722
0.31944
0.51036
0.53314
0.511147
0.444098
0.329741
0.310391
0.493506
0.331554
0.537829
0.532426
0.531905
0.339871
0.323726
0.463772
0.504571
0.53313
0.52434
0.533741
0.532961
0.535524
0.474482
0.254306
0.532997
0.494656
0.534069
0.331098
0.528476
0.424684
0.526609
0.553446
0.446141
0.491827
0.530471
0.508588
0.533183
0.33002
0.530436
0.55167
0.362465
0.501278
0.310861
0.305842
0.533113
0.533337
0.34521
0.483512
0.532559
0.347041
0.335377
0.55135
0.551198
0.471073
0.365671
0.496379
0.32748
0.542854
0.549908
0.325188
0.453107
0.4987
0.323824
0.327345
0.358689
0.536353
0.52596
0.32732
0.371347
0.342922
0.350983
0.345618
0.49662
0.327809
0.552289
0.534588
0.541355
0.332181
0.531792
0.439859
0.530969
0.446244
0.528152
0.326669
0.298456
0.333103
0.532716
0.336004
0.328515
0.492961
0.341283
0.533207
0.506652
0.426747
0.318166
0.319947
0.520407
0.535416
0.526167
0.522042
0.543134
0.330285
0.370848
0.315469
0.509066
0.534386
0.327492
0.511417
0.291
0.345417
0.533622
0.336775
0.339168
0.242259
0.374836
0.337101
0.533969
0.530801
0.537225
0.335312
0.532404
0.542287
0.327399
0.53394
0.376923
0.539502
0.365223
0.391384
0.532169
0.329114
0.249073
0.527955
0.52319
0.324524
0.546618
0.497189
0.532323
0.400663
0.327422
0.501375
0.533588
0.364572
0.381036
0.42071
0.396058
0.533555
0.341239
0.324259
0.54115
0.500756
0.353049
0.32942
0.531471
0.328715
0.297607
0.331455
0.454613
0.544945
0.332471
0.539573
0.325429
0.310852
0.340221
0.405657
0.341945
0.538854
0.332235
0.336426
0.48146
0.538428
0.358324
0.532872
0.329987
0.31976
0.508441
0.553258
0.523005
0.51346
0.516245
0.54653
0.326272
0.538918
0.293917
0.532916
0.525596
0.411363
0.525413
0.53314
0.533219
0.532851
0.436904
0.336647
0.429061
0.339588
0.497969
0.531396
0.498058
0.317623
0.535276
0.369105
0.532951
0.325478
0.304655
0.557549
0.304119
0.526827
0.553487
0.372365
0.33939
0.329689
0.532491
0.394937
0.248142
0.540419
0.32686
0.524631
0.342194
0.353574
0.321587
0.53487
0.391108
0.533355
0.328186
0.353985
0.533224
0.531776
0.282009
0.359304
0.271952
0.481716
0.331704
0.520064
0.529659
0.533065
0.236459
0.334719
0.450964
0.530154
0.549182
0.531529
0.309902
0.511293
0.537152
0.532993
0.533262
0.329847
0.519471
0.319506
0.442311
0.541655
0.53689
0.528591
0.545744
0.489892
0.531076
0.544101
0.532193
0.521274
0.535834
0.532694
0.535258
0.329018
0.327948
0.533874
0.475596
0.53332
0.533212
0.549139
0.520146
0.545428
0.340926
0.326196
0.533189
0.32969
0.323531
0.341513
0.53316
0.522475
0.533146
0.506329
0.520779
0.324809
0.537833
0.327303
0.325966
0.54606
0.523712
0.523125
0.400651
0.395835
0.339976
0.326195
0.389307
0.318223
0.362588
0.543992
0.306516
0.530301
0.335922
0.539359
0.531814
0.28253
0.339284
0.492961
0.533228
0.333376
0.507955
0.268128
0.318193
0.327136
0.450578
0.534883
0.533119
0.533773
0.221648
0.354742
0.283717
0.350415
0.533191
0.54785
0.538146
0.343876
0.327665
0.532553
0.531907
0.536132
0.320501
0.479351
0.46555
0.543363
0.431604
0.357419
0.341171
0.331518
0.534826
0.332721
0.330392
0.533188
0.317175
0.533894
0.338892
0.370518
0.400708
0.332838
0.545959
0.533156
0.53387
0.443692
0.555873
0.510153
0.469638
0.321084
0.50772
0.53022
0.509361
0.535979
0.531585
0.539678
0.42511
0.531557
0.534939
0.380359
0.336952
0.54967
0.402652
0.532309
0.342661
0.546955
0.374253
0.525252
0.534145
0.507325
0.532139
0.539035
0.514454
0.316145
0.346044
0.537087
0.54758
0.532295
0.435448
0.544362
0.448774
0.494638
0.532441
0.472385
0.460022
0.540033
0.53314
0.34022
0.326505
0.534045
0.500671
0.330796
0.352352
0.42525
0.53312
0.533181
0.551218
0.344859
0.523201
0.314133
0.535794
0.327172
0.545155
0.284113
0.550011
0.352426
0.531403
0.446036
0.326686
0.292807
0.471861
0.335148
0.478844
0.323597
0.533422
0.533113
0.529644
0.522715
0.533647
0.534471
0.532589
0.550596
0.540862
0.499427
0.515065
0.491886
0.538212
0.336288
0.500716
0.498107
0.531113
0.324145
0.49611
0.545646
0.532845
0.341778
0.317459
0.34311
0.544568
0.494694
0.318947
0.498142
0.391426
0.533429
0.312779
0.413285
0.325237
0.30362
0.553925
0.318737
0.507359
0.326652
0.551876
0.356483
0.533418
0.502635
0.528301
0.355351
0.341753
0.351165
0.514444
0.322746
0.34175
0.340114
0.540018
0.515578
0.545395
0.520804
0.531166
0.508952
0.376113
0.341201
0.529335
0.324234
0.451243
0.52596
0.550989
0.20293
0.294675
0.520525
0.532716
0.409493
0.524867
0.534774
0.517883
0.342828
0.543001
0.518519
0.530419
0.532143
0.322555
0.533171
0.327444
0.531066
0.542075
0.503683
0.531897
0.356033
0.53695
0.218924
0.355879
0.495642
0.506919
0.527653
0.451816
0.335343
0.530743
0.535587
0.321267
0.331708
0.304401
0.549695
0.336775
0.287859
0.333408
0.334181
0.319425
0.370949
0.542841
0.30828
0.539159
0.522223
0.329277
0.534892
0.311291
0.548943
0.306699
0.455816
0.315873
0.524735
0.534273
0.39958
0.495505
0.533183
0.521153
0.319066
0.476588
0.432195
0.322241
0.319832
0.405245
0.283285
0.544663
0.272546
0.30626
0.331367
0.533099
0.527146
0.322044
0.336154
0.545374
0.333049
0.328671
0.53296
0.324151
0.30928
0.361625
0.552818
0.502547
0.5452
0.340878
0.290877
0.538239
0.518261
0.532719
0.397191
0.504611
0.528273
0.416952
0.404159
0.330744
0.312385
0.238992
0.493801
0.254837
0.547538
0.512098
0.532251
0.341388
0.413032
0.420718
0.559031
0.314561
0.483237
0.238114
0.490813
0.326707
0.281999
0.298754
0.537259
0.330288
0.551868
0.34475
0.382804
0.32972
0.469184
0.324921
0.543604
0.326688
0.501374
0.486095
0.330095
0.534007
0.534032
0.291259
0.548654
0.369935
0.335212
0.542615
0.316122
0.515569
0.393312
0.219253
0.532226
0.318275
0.357561
0.342331
0.361949
0.323251
0.513569
0.438465
0.52311
0.54741
0.529167
0.543188
0.411352
0.537441
0.311046
0.534493
0.333395
0.52515
0.33096
0.393197
0.522181
0.549268
0.534769
0.357319
0.433337
0.331847
0.361308
0.360803
0.221964
0.536389
0.409414
0.547426
0.532238
0.484837
0.538915
0.534325
0.397673
0.325921
0.361657
0.541482
0.487469
0.501667
0.533975
0.5519
0.4197
0.287057
0.344847
0.544761
0.362148