# vtk DataFile Version 1.0
unstructured grid
ascii
DATASET UNSTRUCTURED_GRID
points 3226 float
0.0796578 -0.059106 0
0.00128732 0.00159165 0
0.00227961 -0.00102548 0
0.0791586 -0.0598787 0
-0.0546216 0.01 0
0.000495206 0.025 0
0.0800549 -0.035 0
0.135172 -0.08 0
-0.0546216 -0.0451168 0
0.000495206 -0.0301168 0
0.0800549 -0.0901168 0
0.135172 -0.135117 0
-0.0546216 -0.0451168 -0.00551168
0.000495206 -0.0301168 -0.00551168
0.0800549 -0.0901168 -0.00551168
0.135172 -0.135117 -0.00551168
0.135172 -0.08 -0.00551168
0.0800549 -0.035 -0.00551168
0.000495206 0.025 -0.00551168
-0.0546216 0.01 -0.00551168
0.00128732 0.00159165 -0.00551168
0.00227961 -0.00102548 -0.00551168
0.0791586 -0.0598787 -0.00551168
0.0796578 -0.059106 -0.00551168
0.00110182 -0.000823821 0
0.000571683 -0.000188043 0
0.000561313 0.000639162 0
0.00189316 0.00207203 0
0.00260228 0.00255358 0
0.0033966 0.00307293 0
0.00428861 0.00362634 0
0.00529726 0.0041979 0
0.00644092 0.00476696 0
0.00773158 0.0053187 0
0.00918011 0.00583593 0
0.010799 0.00628751 0
0.012597 0.00663225 0
0.0145725 0.0068517 0
0.0167206 0.0069338 0
0.0190349 0.00685819 0
0.0215031 0.00658621 0
0.0241038 0.00607459 0
0.026821 0.00533786 0
0.0296245 0.00434523 0
0.0324763 0.00306927 0
0.0353199 0.00146906 0
0.0381488 -0.00039338 0
0.0409131 -0.00252802 0
0.0435632 -0.00493276 0
0.0460882 -0.0075571 0
0.0484881 -0.0103478 0
0.0506782 -0.0133217 0
0.0526651 -0.016422 0
0.0546139 -0.0195019 0
0.0565301 -0.022529 0
0.0584009 -0.0254846 0
0.0602154 -0.0283513 0
0.061964 -0.031114 0
0.0636389 -0.0337601 0
0.0652336 -0.0362795 0
0.0667431 -0.0386651 0
0.0681656 -0.0409111 0
0.0694983 -0.0430158 0
0.0707356 -0.0449823 0
0.071886 -0.0468071 0
0.0729575 -0.04849 0
0.0739438 -0.0500408 0
0.0748444 -0.0514675 0
0.0756707 -0.0527715 0
0.0764313 -0.053958 0
0.0771224 -0.0550398 0
0.0777384 -0.0560288 0
0.0782803 -0.0569318 0
0.0787691 -0.0577448 0
0.0792251 -0.0584672 0
0.0800494 -0.0597378 0
0.0797987 -0.0601582 0
0.0786655 -0.059391 0
0.0781259 -0.0588425 0
0.0775539 -0.0582102 0
0.0769587 -0.0574783 0
0.0763492 -0.0566339 0
0.075723 -0.0556725 0
0.0750452 -0.0546094 0
0.0742996 -0.0534457 0
0.073478 -0.0521785 0
0.072577 -0.0508019 0
0.0715904 -0.049313 0
0.0705098 -0.047712 0
0.069328 -0.0459996 0
0.0680378 -0.0441794 0
0.066632 -0.0422571 0
0.0651046 -0.0402413 0
0.0634508 -0.0381431 0
0.0616683 -0.0359754 0
0.0597581 -0.033753 0
0.0577255 -0.0314906 0
0.0555808 -0.0292024 0
0.0533388 -0.0269013 0
0.0510024 -0.0246151 0
0.0485693 -0.0223811 0
0.0460535 -0.0202228 0
0.0434788 -0.0181535 0
0.0408704 -0.0161833 0
0.0382442 -0.0143327 0
0.0356165 -0.0126209 0
0.0330065 -0.0110594 0
0.0304368 -0.00965062 0
0.0279338 -0.00838121 0
0.0255194 -0.00723697 0
0.0231965 -0.00623664 0
0.020983 -0.00535765 0
0.0188891 -0.00458677 0
0.0169193 -0.00391673 0
0.0150754 -0.00334068 0
0.0133572 -0.00285262 0
0.0117634 -0.0024437 0
0.0102912 -0.00210643 0
0.0089363 -0.00183343 0
0.00769424 -0.00161552 0
0.00655956 -0.00144452 0
0.00552632 -0.00131235 0
0.00458815 -0.00121216 0
0.00373885 -0.00113394 0
0.00297202 -0.00106855 0
-0.0506847 -0.0440454 0
-0.0467478 -0.0429739 0
-0.0428108 -0.0419025 0
-0.0388739 -0.0408311 0
-0.034937 -0.0397597 0
-0.0310001 -0.0386882 0
-0.0270632 -0.0376168 0
-0.0231263 -0.0365454 0
-0.0191894 -0.0354739 0
-0.0152525 -0.0344025 0
-0.0113155 -0.0333311 0
-0.00737862 -0.0322597 0
-0.00344171 -0.0311882 0
0.0038716 -0.0298185 0
0.00726082 -0.0297726 0
0.010644 -0.0299802 0
0.0140027 -0.0304367 0
0.0173201 -0.0311326 0
0.0205821 -0.0320541 0
0.0237776 -0.0331851 0
0.0268988 -0.0345078 0
0.0299406 -0.0360041 0
0.0329005 -0.0376567 0
0.035778 -0.039449 0
0.038574 -0.0413659 0
0.0412905 -0.043394 0
0.0439303 -0.0455212 0
0.0464964 -0.0477367 0
0.0489922 -0.0500312 0
0.051421 -0.0523964 0
0.0537863 -0.0548252 0
0.0560914 -0.0573112 0
0.0583395 -0.0598489 0
0.0605336 -0.0624334 0
0.0626765 -0.0650605 0
0.064771 -0.0677264 0
0.0668197 -0.0704277 0
0.0688248 -0.0731615 0
0.0707885 -0.0759252 0
0.072713 -0.0787163 0
0.0746002 -0.0815329 0
0.0764517 -0.0843729 0
0.0782695 -0.0872347 0
0.0829558 -0.0924852 0
0.0858567 -0.0948536 0
0.0887575 -0.0972221 0
0.0916584 -0.0995905 0
0.0945593 -0.101959 0
0.0974602 -0.104327 0
0.100361 -0.106696 0
0.103262 -0.109064 0
0.106163 -0.111433 0
0.109064 -0.113801 0
0.111965 -0.116169 0
0.114865 -0.118538 0
0.117766 -0.120906 0
0.120667 -0.123275 0
0.123568 -0.125643 0
0.126469 -0.128012 0
0.12937 -0.13038 0
0.132271 -0.132748 0
0.135172 -0.13118 0
0.135172 -0.127243 0
0.135172 -0.123306 0
0.135172 -0.119369 0
0.135172 -0.115432 0
0.135172 -0.111495 0
0.135172 -0.107558 0
0.135172 -0.103621 0
0.135172 -0.0996846 0
0.135172 -0.0957477 0
0.135172 -0.0918107 0
0.135172 -0.0878738 0
0.135172 -0.0839369 0
0.132271 -0.0776316 0
0.12937 -0.0752632 0
0.126469 -0.0728947 0
0.123568 -0.0705263 0
0.120667 -0.0681579 0
0.117766 -0.0657895 0
0.114865 -0.0634211 0
0.111965 -0.0610526 0
0.109064 -0.0586842 0
0.106163 -0.0563158 0
0.103262 -0.0539474 0
0.100361 -0.0515789 0
0.0974602 -0.0492105 0
0.0945593 -0.0468421 0
0.0916584 -0.0444737 0
0.0887575 -0.0421053 0
0.0858567 -0.0397368 0
0.0829558 -0.0373684 0
0.0782695 -0.0321179 0
0.0764517 -0.0292561 0
0.0746002 -0.026416 0
0.072713 -0.0235995 0
0.0707885 -0.0208084 0
0.0688248 -0.0180447 0
0.0668197 -0.0153109 0
0.064771 -0.0126096 0
0.0626765 -0.00994373 0
0.0605336 -0.00731663 0
0.0583395 -0.00473208 0
0.0560914 -0.00219437 0
0.0537863 0.000291632 0
0.051421 0.00272041 0
0.0489922 0.00508564 0
0.0464964 0.00738012 0
0.0439303 0.00959562 0
0.0412905 0.0117228 0
0.038574 0.0137509 0
0.035778 0.0156678 0
0.0329005 0.0174601 0
0.0299406 0.0191127 0
0.0268988 0.020609 0
0.0237776 0.0219317 0
0.0205821 0.0230627 0
0.0173201 0.0239842 0
0.0140027 0.0246801 0
0.010644 0.0251366 0
0.00726082 0.0253442 0
0.0038716 0.0252983 0
-0.00344171 0.0239286 0
-0.00737862 0.0228571 0
-0.0113155 0.0217857 0
-0.0152525 0.0207143 0
-0.0191894 0.0196429 0
-0.0231263 0.0185714 0
-0.0270632 0.0175 0
-0.0310001 0.0164286 0
-0.034937 0.0153571 0
-0.0388739 0.0142857 0
-0.0428108 0.0132143 0
-0.0467478 0.0121429 0
-0.0506847 0.0110714 0
-0.0546216 0.00606309 0
-0.0546216 0.00212617 0
-0.0546216 -0.00181074 0
-0.0546216 -0.00574766 0
-0.0546216 -0.00968457 0
-0.0546216 -0.0136215 0
-0.0546216 -0.0175584 0
-0.0546216 -0.0214953 0
-0.0546216 -0.0254322 0
-0.0546216 -0.0293691 0
-0.0546216 -0.0333061 0
-0.0546216 -0.037243 0
-0.0546216 -0.0411799 0
-0.0506847 -0.0440454 -0.00551168
-0.0467478 -0.0429739 -0.00551168
-0.0428108 -0.0419025 -0.00551168
-0.0388739 -0.0408311 -0.00551168
-0.034937 -0.0397597 -0.00551168
-0.0310001 -0.0386882 -0.00551168
-0.0270632 -0.0376168 -0.00551168
-0.0231263 -0.0365454 -0.00551168
-0.0191894 -0.0354739 -0.00551168
-0.0152525 -0.0344025 -0.00551168
-0.0113155 -0.0333311 -0.00551168
-0.00737862 -0.0322597 -0.00551168
-0.00344171 -0.0311882 -0.00551168
0.0038716 -0.0298185 -0.00551168
0.00726082 -0.0297726 -0.00551168
0.010644 -0.0299802 -0.00551168
0.0140027 -0.0304367 -0.00551168
0.0173201 -0.0311326 -0.00551168
0.0205821 -0.0320541 -0.00551168
0.0237776 -0.0331851 -0.00551168
0.0268988 -0.0345078 -0.00551168
0.0299406 -0.0360041 -0.00551168
0.0329005 -0.0376567 -0.00551168
0.035778 -0.039449 -0.00551168
0.038574 -0.0413659 -0.00551168
0.0412905 -0.043394 -0.00551168
0.0439303 -0.0455212 -0.00551168
0.0464964 -0.0477367 -0.00551168
0.0489922 -0.0500312 -0.00551168
0.051421 -0.0523964 -0.00551168
0.0537863 -0.0548252 -0.00551168
0.0560914 -0.0573112 -0.00551168
0.0583395 -0.0598489 -0.00551168
0.0605336 -0.0624334 -0.00551168
0.0626765 -0.0650605 -0.00551168
0.064771 -0.0677264 -0.00551168
0.0668197 -0.0704277 -0.00551168
0.0688248 -0.0731615 -0.00551168
0.0707885 -0.0759252 -0.00551168
0.072713 -0.0787163 -0.00551168
0.0746002 -0.0815329 -0.00551168
0.0764517 -0.0843729 -0.00551168
0.0782695 -0.0872347 -0.00551168
0.0829558 -0.0924852 -0.00551168
0.0858567 -0.0948536 -0.00551168
0.0887575 -0.0972221 -0.00551168
0.0916584 -0.0995905 -0.00551168
0.0945593 -0.101959 -0.00551168
0.0974602 -0.104327 -0.00551168
0.100361 -0.106696 -0.00551168
0.103262 -0.109064 -0.00551168
0.106163 -0.111433 -0.00551168
0.109064 -0.113801 -0.00551168
0.111965 -0.116169 -0.00551168
0.114865 -0.118538 -0.00551168
0.117766 -0.120906 -0.00551168
0.120667 -0.123275 -0.00551168
0.123568 -0.125643 -0.00551168
0.126469 -0.128012 -0.00551168
0.12937 -0.13038 -0.00551168
0.132271 -0.132748 -0.00551168
0.135172 -0.13118 -0.00551168
0.135172 -0.127243 -0.00551168
0.135172 -0.123306 -0.00551168
0.135172 -0.119369 -0.00551168
0.135172 -0.115432 -0.00551168
0.135172 -0.111495 -0.00551168
0.135172 -0.107558 -0.00551168
0.135172 -0.103621 -0.00551168
0.135172 -0.0996846 -0.00551168
0.135172 -0.0957477 -0.00551168
0.135172 -0.0918107 -0.00551168
0.135172 -0.0878738 -0.00551168
0.135172 -0.0839369 -0.00551168
0.132271 -0.0776316 -0.00551168
0.12937 -0.0752632 -0.00551168
0.126469 -0.0728947 -0.00551168
0.123568 -0.0705263 -0.00551168
0.120667 -0.0681579 -0.00551168
0.117766 -0.0657895 -0.00551168
0.114865 -0.0634211 -0.00551168
0.111965 -0.0610526 -0.00551168
0.109064 -0.0586842 -0.00551168
0.106163 -0.0563158 -0.00551168
0.103262 -0.0539474 -0.00551168
0.100361 -0.0515789 -0.00551168
0.0974602 -0.0492105 -0.00551168
0.0945593 -0.0468421 -0.00551168
0.0916584 -0.0444737 -0.00551168
0.0887575 -0.0421053 -0.00551168
0.0858567 -0.0397368 -0.00551168
0.0829558 -0.0373684 -0.00551168
0.0782695 -0.0321179 -0.00551168
0.0764517 -0.0292561 -0.00551168
0.0746002 -0.026416 -0.00551168
0.072713 -0.0235995 -0.00551168
0.0707885 -0.0208084 -0.00551168
0.0688248 -0.0180447 -0.00551168
0.0668197 -0.0153109 -0.00551168
0.064771 -0.0126096 -0.00551168
0.0626765 -0.00994373 -0.00551168
0.0605336 -0.00731663 -0.00551168
0.0583395 -0.00473208 -0.00551168
0.0560914 -0.00219437 -0.00551168
0.0537863 0.000291632 -0.00551168
0.051421 0.00272041 -0.00551168
0.0489922 0.00508564 -0.00551168
0.0464964 0.00738012 -0.00551168
0.0439303 0.00959562 -0.00551168
0.0412905 0.0117228 -0.00551168
[...]
CELL_DATA 2965
SCALARS rho float
LOOKUP_TABLE default
0.536427
0.37025
0.573692
0.335027
0.601371
0.334749
0.552435
0.369459
0.32797
0.575782
0.33605
0.372984
0.462215
0.622272
0.56723
0.574882
0.586923
0.605944
0.604835
0.58972
0.534813
0.336501
0.603771
0.618146
0.591018
0.614984
0.48966
0.562288
0.341926
0.542638
0.545346
0.383223
0.607282
0.579115
0.294344
0.3389
0.586527
0.587581
0.328043
0.545968
0.585882
0.548623
0.622776
0.36291
0.364127
0.62544
0.505873
0.563146
0.307528
0.544549
0.410209
0.337457
0.361182
0.452721
0.342212
0.448598
0.323692
0.328317
0.286876
0.529676
0.56324
0.568177
0.355605
0.602434
0.583119
0.623812
0.552035
0.340973
0.306616
0.320888
0.607314
0.608528
0.551813
0.305188
0.541722
0.438425
0.542042
0.340165
0.336057
0.507821
0.555931
0.352406
0.385594
0.474472
0.580086
0.394441
0.361088
0.265418
0.610021
0.322648
0.33087
0.624368
0.591233
0.556641
0.61726
0.315861
0.512631
0.361485
0.319609
0.364064
0.525259
0.360143
0.320312
0.376563
0.325674
0.613963
0.540507
0.36769
0.321973
0.545269
0.303962
0.420635
0.505274
0.577652
0.303219
0.320486
0.604934
0.501411
0.541577
0.359738
0.557788
0.2426
0.615725
0.601633
0.592496
0.424052
0.367849
0.533844
0.5803
0.273014
0.328598
0.455996
0.585585
0.318748
0.494277
0.342227
0.465646
0.586854
0.607008
0.601812
0.326952
0.575622
0.583489
0.348751
0.276268
0.60464
0.350252
0.600027
0.607162
0.341108
0.355626
0.347269
0.318548
0.349653
0.288339
0.258808
0.549635
0.582067
0.613748
0.617011
0.493164
0.501777
0.429752
0.599963
0.329646
0.552473
0.441623
0.365386
0.544403
0.623989
0.52329
0.298163
0.464952
0.575312
0.605334
0.453526
0.554162
0.374028
0.263396
0.443594
0.336721
0.267376
0.313634
0.310562
0.60661
0.552491
0.344469
0.35975
0.41036
0.331229
0.325132
0.332475
0.507281
0.296298
0.550432
0.499722
0.589066
0.56802
0.470176
0.338588
0.363464
0.332945
0.614698
0.495664
0.555729
0.374668
0.456701
0.549645
0.608767
0.604769
0.575853
0.422337
0.313041
0.346279
0.562067
0.363085
0.511254
0.319418
0.572221
0.33939
0.327288
0.388605
0.493225
0.402358
0.61486
0.365974
0.55717
0.570373
0.343385
0.519266
0.337755
0.295799
0.621748
0.314201
0.615599
0.622576
0.336027
0.579212
0.325355
0.366984
0.387523
0.349947
0.602186
0.567187
0.350505
0.303275
0.58092
0.530655
0.491438
0.559207
0.358659
0.349699
0.549707
0.316822
0.588048
0.274191
0.28118
0.54286
0.600387
0.318426
0.540712
0.345483
0.609407
0.335914
0.585247
0.543004
0.279023
0.509564
0.569333
0.356417
0.35781
0.610615
0.366189
0.608424
0.566106
0.369394
0.601827
0.568691
0.613851
0.621675
0.604514
0.573024
0.601261
0.526799
0.33789
0.351167
0.612414
0.616878
0.379485
0.608617
0.496801
0.370799
0.389876
0.383023
0.515469
0.356595
0.5402
0.519876
0.614429
0.338639
0.523389
0.557166
0.519729
0.577212
0.345644
0.243196
0.606813
0.546931
0.541875
0.339961
0.379487
0.525384
0.289555
0.295258
0.597115
0.556866
0.5761
0.264882
0.339574
0.536426
0.595842
0.36247
0.554167
0.554981
0.36662
0.465425
0.618295
0.557602
0.303362
0.350951
0.538074
0.321518
0.598403
0.381932
0.615446
0.415514
0.390379
0.36327
0.359924
0.326217
0.604458
0.613042
0.604017
0.600381
0.561318
0.509665
0.291205
0.626064
0.604972
0.319128
0.333612
0.534403
0.334423
0.59234
0.577573
0.317457
0.322672
0.386832
0.333474
0.555459
0.321714
0.387695
0.398558
0.364522
0.623342
0.611939
0.505394
0.545141
0.340007
0.614601
0.356208
0.536403
0.334523
0.360804
0.611721
0.515547
0.290972
0.26528
0.615025
0.377282
0.544986
0.571365
0.332413
0.614264
0.272621
0.387285
0.525199
0.294322
0.618979
0.26509
0.398614
0.372435
0.613292
0.505687
0.46331
0.526732
0.293915
0.604445
0.360791
0.351352
0.606668
0.305323
0.594552
0.448252
0.539849
0.273298
0.31922
0.35076
0.269003
0.346419
0.33954
0.578081
0.626841
0.621386
0.546169
0.341922
0.596947
0.501655
0.609612
0.26238
0.599536
0.321701
0.570361
0.571603
0.332523
0.55168
0.37382
0.571136
0.303878
0.536932
0.597412
0.304067
0.61548
0.262105
0.606411
0.356477
0.318627
0.443025
0.60167
0.60764
0.438506
0.277957
0.254456
0.444517
0.600253
0.60089
0.622839
0.610734
0.620697
0.330752
0.557377
0.552476
0.322751
0.298892
0.357773
0.538175
0.626798
0.381614
0.399411
0.390725
0.336194
0.616881
0.627413
0.546262
0.60673
0.423664
0.562368
0.630705
0.347087
0.605703
0.360887
0.364157
0.614535
0.626683
0.599121
0.603383
0.339937
0.322129
0.607482
0.603112
0.33983
0.615846
0.543734
0.609859
0.335112
0.341488
0.629921
0.334477
0.487464
0.632144
0.626541
0.323957
0.621474
0.356198
0.369501
0.34824
0.373329
0.618057
0.379503
0.603777
0.276667
0.340719
0.609115
0.361992
0.289039
0.324516
0.280734
0.372733
0.319484
0.34084
0.453177
0.470304
0.34613
0.325946
0.620312
0.339063
0.419212
0.601358
0.525023
0.598662
0.588714
0.501952
0.478401
0.290895
0.389308
0.578705
0.562476
0.315258
0.573789
0.261707
0.289297
0.300925
0.597961
0.612476
0.35331
0.601051
0.623074
0.294973
0.31997
0.597869
0.546001
0.367759
0.601184
0.401506
0.346789
0.597466
0.349591
0.503745
0.575853
0.450699
0.600617
0.331931
0.338261
0.619722
0.392989
0.361065
0.337764
0.366551
0.331898
0.532353
0.607094
0.6052
0.313826
0.259822
0.359948
0.352525
0.61138
0.283192
0.45588
0.346564
0.618273
0.610694
0.324653
0.545585
0.414771
0.592647
0.300811
0.615622
0.583423
0.608124
0.584273
0.542237
0.613832
0.332235
0.475806
0.360642
0.577959
0.315679
0.369343
0.625027
0.536823
0.576172
0.352594
0.351693
0.616339
0.603016
0.30921
0.626442
0.317612
0.30978
0.359864
0.607791
0.616761
0.569489
0.292409
0.300238
0.338097
0.354797
0.619778
0.549242
0.604127
0.357026
0.329156
0.489963
0.605053
0.601416
0.58869
0.547266
0.437313
0.598707
0.606008
0.607339
0.381987
0.600236
0.558316
0.552728
0.624577
0.603931
0.594096
0.399183
0.613583
0.368312
0.604257
0.538443
0.249611
0.549454
0.500883
0.606536
0.320027
0.335653
0.538561
0.304523
0.309708
0.60698
0.308901
0.44154
0.595402
0.296943
0.608009
0.352425
0.527961
0.623957
0.611179
0.600836
0.343632
0.341338
0.576349
0.488588
0.365126
0.518252
0.314933
0.537396
0.339377
0.50267
0.606048
0.547664
0.349957
0.540683
0.325214
0.437713
0.447361
0.352089
0.288314
0.340566
0.540613
0.493009
0.464161
0.344467
0.543686
0.580997
0.338976
0.541423
0.336694
0.493702
0.561568
0.557455
0.621597
0.312799
0.352388
0.542078
0.615866
0.56852
0.574996
0.600451
0.529921
0.507368
0.344102
0.544483
0.410732
0.363546
0.372757
0.545203
0.606848
0.605465
0.415793
0.357903
0.597175
0.338021
0.388699
0.432964
0.33112
0.492879
0.369082
0.552995
0.364324
0.311299
0.440527
0.612736
0.3653
0.31228
0.606353
0.615218
0.609375
0.361577
0.307035
0.602666
0.305144
0.308569
0.367587
0.466077
0.612005
0.275413
0.607746
0.372999
0.552509
0.625849
0.335927
0.457132
0.518191
0.554578
0.60195
0.615863
0.617516
0.611702
0.586863
0.555355
0.336803
0.406122
0.601571
0.365841
0.610379
0.573069
0.250828
0.615728
0.575858
0.61233
0.593752
0.57733
0.583897
0.314726
0.560506
0.370151
0.309648
0.626456
0.539752
0.282704
0.33473
0.60541
0.415582
0.526089
0.343865
0.256925
0.60632
0.568245
0.614062
0.608875
0.565296
0.398956
0.489836
0.349879
0.553506
0.570021
0.569044
0.30355
0.401157
0.607326
0.570609
0.616994
0.163996
0.545215
0.355833
0.347378
0.355484
0.600183
0.610118
0.598233
0.507371
0.318392
0.540483
0.408256
0.603685
0.608166
0.571199
0.339437
0.329368
0.580604
0.335752
0.454778
0.557824
0.320444
0.302706
0.562665
0.599147
0.337949
0.548143
0.625063
0.338909
0.546002
0.629196
0.605172
0.328206
0.309214
0.598837
0.336431
0.333553
0.433546
0.532055
0.38481
0.393711
0.309284
0.318483
0.592939
0.380104
0.337074
0.614457
0.368282
0.340275
0.616947
0.603801
0.592554
0.545731
0.587406
0.389962
0.608331
0.614994
0.337846
0.616312
0.615545
0.552429
0.554972
0.329112
0.544066
0.338679
0.54701
0.343276
0.539401
0.334803
0.567103
0.336934
0.596399
0.608557
0.607467
0.527733
0.541708
0.620704
0.292701
0.594972
0.261911
0.557024
0.616464
0.352014
0.430652
0.351545
0.330344
0.556344
0.381598
0.626218
0.126736
0.555831
0.584768
0.60239
0.425459
0.346121
0.313164
0.337259
0.265843
0.597119
0.385808
0.326948
0.630918
0.325209
0.380885
0.621373
0.616977
0.578277
0.595279
0.268584
0.524685
0.340634
0.555167
0.584405
0.569795
0.353551
0.59722
0.594327
0.607105
0.587488
0.591178
0.404549
0.535746
0.596097
0.511342
0.527877
0.333952
0.569864
0.32463
0.474514
0.585428
0.534043
0.61593
0.514834
0.531932
0.62125
0.352977
0.606783
0.350505
0.33511
0.596109
0.573212
0.572677
0.564117
0.582513
0.555599
0.605883
0.553361
0.590504
0.62651
0.607217
0.328395
0.588946
0.619146
0.327533
0.586212
0.362038
0.513725
0.331586
0.513023
0.34528
0.335362
0.311334
0.557992
0.63093
0.458383
0.565261
0.325791
0.331641
0.529911
0.616208
0.302194
0.603133
0.477089
0.321498
0.60265
0.382874
0.33151
0.596033
0.526158
0.349776
0.5959
0.62032
0.6116
0.336545
0.61194
0.296672
0.539691
0.403049
0.555863
0.372002
0.6063
0.305353
0.360601
0.334899
0.610776
0.314153
0.598273
0.604464
0.551444
0.329066
0.340498
0.612993
0.330138
0.242462
0.337925
0.629215
0.320906
0.363312
0.256899
0.542554
0.326256
0.324264
0.323188
0.62499
0.612836
0.362298
0.618555
0.618146
0.563276
0.356134
0.321424
0.58491
0.333514
0.609754
0.341044
0.615355
0.352323
0.264192
0.580013
0.338887
0.356811
0.338334
0.539454
0.317234
0.493867
0.590419
0.354155
0.56666
0.383449
0.606556
0.441579
0.329366
0.326033
0.630324
0.472745
0.567739
0.347638
0.374542
0.498051
0.557616
0.352706
0.342334
0.359817
0.439503
0.591069
0.337849
0.518703
0.620114
0.541354
0.612709
0.34469
0.587307
0.328393
0.619284
0.625058
0.551904
0.33182
0.597547
0.601311
0.324405
0.616252
0.591672
0.334029
0.3594
0.327779
0.319782
0.615525
0.337563
0.597963
0.406389
0.55572
0.539315
0.392286
0.576241
0.305455
0.544504
0.338405
0.525894
0.605036
0.332141
0.366875
0.318495
0.503787
0.607615
0.354836
0.292932
0.369096
0.48508
0.606858
0.356079
0.336308
0.606762
0.588485
0.604197
0.343892
0.333144
0.60069
0.524284
0.332661
0.328012
0.478201
0.607176
0.596319
0.324201
0.541292
0.62902
0.333125
0.618125
0.379882
0.593206
0.324269
0.370015
0.354175
0.285031
0.623886
0.352911
0.342053
0.322254
0.324026
0.586087
0.581236
0.606986
0.320264
0.554853
0.603613
0.625342
0.604924
0.549272
0.606689
0.606744
0.606117
0.594264
0.625112
0.303164
0.551417
0.615413
0.34196
0.596484
0.605899
0.624291
0.629371
0.307989
0.599123
0.553566
0.607048
0.39455
0.611409
0.618884
0.573433
0.583504
0.353168
0.522498
0.322445
0.443221
0.323258
0.33055
0.323002
0.3368
0.528955
0.584947
0.586312
0.353612
0.595445
0.545497
0.620829
0.341951
0.355002
0.603456
0.327677
0.330486
0.319711
0.59301
0.450668
0.614459
0.335368
0.604154
0.619807
0.54399
0.595829
0.31774
0.608316
0.627848
0.591446
0.613546
0.616928
0.56214
0.356557
0.329767
0.349685
0.528759
0.307368
0.586009
0.605717
0.601142
0.33513
0.347627
0.522533
0.616166
0.543644
0.344838
0.610676
0.513634
0.263634
0.535441
0.338687
0.350143
0.324922
0.331492
0.323218
0.614304
0.609645
0.60862
0.485778
0.584364
0.533401
0.608725
0.538587
0.605386
0.605952
0.532213
0.523842
0.356731
0.547024
0.616701
0.453728
0.340623
0.577457
0.298953
0.620517
0.401427
0.594758
0.603261
0.331231
0.588099
0.352752
0.595216
0.615347
0.605269
0.527525
0.58181
0.603632
0.534827
0.321958
0.476056
0.448334
0.260466
0.531267
0.618811
0.488814
0.607236
0.613082
0.533763
0.36791
0.339583
0.574756
0.606178
0.325369
0.267132
0.607355
0.621605
0.627251
0.280997
0.552519
0.584344
0.590458
0.339983
0.534664
0.522829
0.571127
0.545522
0.486695
0.622444
0.300411
0.596981
0.351653
0.321542
0.53503
0.362968
0.366855
0.346335
0.586949
0.607792
0.502172
0.612908
0.48163
0.344543
0.345855
0.611067
0.624422
0.594728
0.530179
0.259337
0.596201
0.46313
0.339028
0.625081
0.616611
0.326188
0.625127
0.609853
0.550222
0.489182
0.547795
0.377046
0.567695
0.616846
0.599199
0.32613
0.57208
0.419148
0.559464
0.615356
0.608289
0.620702
0.626175
0.614333
0.62429
0.597789
0.354193
0.599455
0.554618
0.375937
0.535205
0.623592
0.608091
0.603035
0.336199
0.585738
0.367586
0.603135
0.555094
0.616263
0.35615
0.576035
0.623093
0.545508
0.578732
0.582372
0.548781
0.53603
0.407706
0.344626
0.274589
0.55026
0.31013
0.341785
0.592792
0.343486
0.601689
0.329359
0.618916
0.353828
0.357799
0.59278
0.4151
0.305755
0.615313
0.613942
0.617413
0.327842
0.606343
0.620713
0.62074
0.348176
0.550665
0.619575
0.338888
0.543453
0.528419
0.589406
0.337237
0.414349
0.55044
0.329106
0.592708
0.339153
0.322188
0.537492
0.406657
0.57558
0.334836
0.616422
0.471239
0.551201
0.254848
0.326113
0.539765
0.340721
0.551157
0.322299
0.59653
0.592418
0.511812
0.550232
0.552083
0.286321
0.6334
0.606434
0.617961
0.547614
0.359868
0.326343
0.304352
0.320164
0.53594
0.39654
0.562325
0.333384
0.594142
0.599811
0.528685
0.341227
0.567777
0.354781
0.615236
0.616652
0.335263
0.579379
0.615976
0.346543
0.611276
0.326933
0.326375
0.607508
0.352458
0.613394
0.235864
0.361743
0.58134
0.350565
0.591383
0.35691
0.50481
0.621866
0.619394
0.402617
0.277121
0.337128
0.546247
0.554179
0.36313
0.6165
0.339161
0.618818
0.342755
0.357391
0.528949
0.511862
0.44613
0.607014
0.623198
0.532272
0.542103
0.600799
0.522348
0.35792
0.608155
0.342264
0.390634
0.589398
0.431655
0.418296
0.473332
0.334422
0.606196
0.547413
0.616755
0.329279
0.325338
0.535282
0.554158
0.625518
0.607175
0.343545
0.551232
0.596554
0.608466
0.472364
0.338827
0.361868
0.338868
0.608395
0.615767
0.342227
0.352146
0.466151
0.351477
0.606867
0.558835
0.323035
0.532904
0.42946
0.598817
0.617732
0.339088
0.340525
0.568239
0.328461
0.4183
0.618313
0.275482
0.337202
0.33541
0.550792
0.589681
0.549822
0.324241
0.321178
0.577039
0.626602
0.583408
0.615729
0.336718
0.327103
0.361749
0.547911
0.328924
0.323013
0.610719
0.597502
0.557946
0.375726
0.376499
0.360247
0.517842
0.318918
0.593055
0.549125
0.618356
0.46051
0.615961
0.607964
0.351268
0.336748
0.624173
0.295956
0.501482
0.609228
0.602536
0.464788
0.352784
0.30592
0.615191
0.430046
0.340032
0.600984
0.625788
0.307946
0.341688
0.559692
0.480414
0.3736
0.320993
0.6007
0.531943
0.613601
0.581912
0.364091
0.30339
0.378262
0.401176
0.321203
0.55698
0.616192
0.531669
0.583401
0.319556
0.592167
0.326128
0.59223
0.604044
0.393852
0.274041
0.595179
0.409153
0.510606
0.627028
0.301432
0.620827
0.579182
0.525775
0.547007
0.614622
0.340534
0.314127
0.351397
0.550022
0.562563
0.608526
0.478813
0.341738
0.316548
0.54499
0.340304
0.607844
0.527666
0.62286
0.353786
0.36006
0.497874
0.603944
0.555405
0.612656
0.528864
0.520352
0.628034
0.588576
0.262541
0.541031
0.595244
0.612714
0.331372
0.598919
0.452019
0.613591
0.607845
0.477334
0.538341
0.593642
0.560891
0.554013
0.370554
0.616449
0.607609
0.375338
0.608816
0.305213
0.300523
0.558424
0.541247
0.327775
0.5296
0.528253
0.33049
0.321538
0.610262
0.607294
0.513493
0.335336
0.541433
0.367413
0.606172
0.606452
0.343134
0.520059
0.547632
0.356632
0.339725
0.347453
0.615854
0.616325
0.333233
0.338494
0.358373
0.375427
0.323699
0.601559
0.365401
0.607653
0.622697
0.613447
0.355407
0.624586
0.524718
0.599058
0.477132
0.618419
0.35393
0.304675
0.333041
0.603696
0.346649
0.340326
0.604901
0.317604
0.550259
0.547545
0.459265
0.33839
0.349389
0.610625
0.621916
0.615492
0.613644
0.617481
0.341838
0.33861
0.31799
0.550586
0.614929
0.340285
0.6106
0.341527
0.358967
0.524086
0.317664
0.317135
0.316927
0.390084
0.33107
0.528161
0.616883
0.618788
0.343948
0.527476
0.611929
0.337564
0.53536
0.393428
0.59849
0.328347
0.413078
0.561531
0.366761
0.259643
0.617953
0.566611
0.341881
0.603653
0.535971
0.623596
0.422142
0.351946
0.574353
0.624067
0.3798
0.34715
0.464625
0.436664
0.530604
0.367808
0.340531
0.604943
0.618306
0.361538
0.337032
0.591868
0.367435
0.314489
0.357155
0.487271
0.602231
0.344849
0.612297
0.343368
0.335378
0.322639
0.443641
0.348425
0.616463
0.3569
0.315312
0.518178
0.610634
0.370913
0.542943
0.330443
0.384957
0.599584
0.607359
0.576062
0.554196
0.610531
0.612319
0.349668
0.608341
0.302793
0.546417
0.583998
0.436839
0.575949
0.539045
0.623077
0.540001
0.477864
0.321251
0.457432
0.317611
0.610625
0.61252
0.54636
0.343858
0.617482
0.384265
0.54707
0.344886
0.346801
0.606427
0.298451
0.594249
0.607544
0.400136
0.317936
0.348997
0.552233
0.42913
0.323256
0.616186
0.379658
0.584256
0.319923
0.380597
0.361537
0.624207
0.415476
0.537356
0.338404
0.350207
0.608334
0.620875
0.289777
0.374427
0.271471
0.518162
0.376858
0.565357
0.606829
0.543452
0.245259
0.350035
0.486782
0.576311
0.605859
0.624826
0.296579
0.601849
0.613815
0.540963
0.546217
0.343762
0.609216
0.36738
0.522279
0.616203
0.612443
0.619395
0.602798
0.611526
0.61825
0.611537
0.600537
0.610464
0.619128
0.600354
0.629787
0.334196
0.38098
0.524811
0.53794
0.5375
0.558171
0.605989
0.56621
0.603873
0.39425
0.347735
0.550997
0.338391
0.339568
0.339514
0.621421
0.573453
0.528057
0.608917
0.611078
0.323847
0.594869
0.330555
0.336916
0.609489
0.612349
0.592656
0.424321
0.418028
0.380411
0.344678
0.406797
0.3025
0.377646
0.605355
0.323055
0.599964
0.329384
0.599372
0.624479
0.287721
0.31133
0.610141
0.548782
0.328601
0.569873
0.258526
0.336463
0.353267
0.482249
0.627584
0.558363
0.528753
0.27661
0.370002
0.267523
0.327503
0.553528
0.605402
0.614065
0.353739
0.33079
0.530374
0.622825
0.616702
0.299292
0.556254
0.498618
0.607016
0.460211
0.392475
0.327049
0.332844
0.619865
0.356676
0.337426
0.551955
0.312548
0.531114
0.320663
0.337497
0.424349
0.320081
0.603182
0.553673
0.527289
0.473769
0.613392
0.568088
0.583174
0.336952
0.556299
0.589266
0.55623
0.62538
0.623554
0.601247
0.452279
0.623367
0.630127
0.34543
0.319004
0.611347
0.423407
0.625265
0.358848
0.604786
0.349489
0.598125
0.562404
0.567163
0.623738
0.595829
0.597128
0.328592
0.32189
0.588782
0.605406
0.622829
0.465993
0.602993
0.511469
0.532516
0.538559
0.517519
0.546089
0.604521
0.549101
0.341434
0.33081
0.556994
0.54776
0.370122
0.332426
0.453024
0.554139
0.558013
0.607474
0.393772
0.598221
0.298536
0.620152
0.367423
0.602014
0.295774
0.608323
0.345477
0.578616
0.476881
0.343132
0.305519
0.518658
0.374207
0.589778
0.347289
0.531843
0.556247
0.590109
0.616474
0.625386
0.602237
0.535489
0.607559
0.614717
0.583876
0.555818
0.604292
0.597251
0.324059
0.539267
0.535651
0.624514
0.318605
0.553236
0.603456
0.533055
0.395292
0.35839
0.359396
0.602019
0.607625
0.362271
0.567734
0.40964
0.533845
0.334289
0.437532
0.352259
0.319192
0.608725
0.328248
0.547592
0.354019
0.607375
0.351199
0.532469
0.550762
0.606923
0.34339
0.320823
0.366053
0.599153
0.341121
0.355475
0.330971
0.610369
0.611981
0.602379
0.591293
0.578429
0.603036
0.418302
0.320841
0.620813
0.339115
0.483546
0.589925
0.607101
0.24925
0.30209
0.611437
0.532529
0.432014
0.569373
0.587584
0.58082
0.304626
0.604098
0.588355
0.615583
0.618138
0.334638
0.556227
0.35366
0.622402
0.613953
0.564486
0.607434
0.368565
0.619052
0.22852
0.38406
0.602284
0.548725
0.618133
0.48224
0.378827
0.623782
0.615342
0.34857
0.341627
0.299334
0.608205
0.333676
0.377761
0.365781
0.334311
0.347765
0.386744
0.603356
0.344325
0.593522
0.611544
0.369856
0.591939
0.313362
0.605759
0.338081
0.557809
0.368843
0.613035
0.61421
0.431491
0.556025
0.626607
0.564185
0.355187
0.536197
0.463761
0.317368
0.347461
0.429887
0.301529
0.601932
0.340961
0.318589
0.335561
0.556757
0.59646
0.351498
0.318421
0.610321
0.36681
0.329644
0.539264
0.361014
0.319712
0.328603
0.607823
0.546307
0.616569
0.380453
0.292238
0.600423
0.562887
0.536562
0.416664
0.579609
0.616047
0.440928
0.428436
0.353322
0.361379
0.244403
0.547075
0.303256
0.604822
0.561972
0.604522
0.358642
0.43795
0.447817
0.616905
0.299483
0.54111
0.250054
0.552912
0.344193
0.295659
0.288571
0.609267
0.315856
0.607567
0.319022
0.401001
0.373616
0.525702
0.354525
0.602733
0.310029
0.600037
0.547884
0.351102
0.604844
0.617601
0.305249
0.60775
0.329153
0.375128
0.604528
0.297
0.559858
0.349726
0.324483
0.582767
0.350124
0.370456
0.320111
0.339691
0.34927
0.56455
0.471383
0.617692
0.609467
0.574417
0.60525
0.445493
0.618747
0.294743
0.616555
0.373673
0.613782
0.337275
0.411496
0.612059
0.608932
0.62081
0.37008
0.511926
0.317965
0.36081
0.331226
0.236467
0.603245
0.441604
0.606105
0.544338
0.540436
0.591684
0.625713
0.417271
0.303604
0.376308
0.59767
0.533928
0.565119
0.569374
0.607681
0.445717