# vtk DataFile Version 1.0
unstructured grid
ascii
DATASET UNSTRUCTURED_GRID
points 3226 float
0.0796578 -0.059106 0
0.00128732 0.00159165 0
0.00227961 -0.00102548 0
0.0791586 -0.0598787 0
-0.0546216 0.01 0
0.000495206 0.025 0
0.0800549 -0.035 0
0.135172 -0.08 0
-0.0546216 -0.0451168 0
0.000495206 -0.0301168 0
0.0800549 -0.0901168 0
0.135172 -0.135117 0
-0.0546216 -0.0451168 -0.00551168
0.000495206 -0.0301168 -0.00551168
0.0800549 -0.0901168 -0.00551168
0.135172 -0.135117 -0.00551168
0.135172 -0.08 -0.00551168
0.0800549 -0.035 -0.00551168
0.000495206 0.025 -0.00551168
-0.0546216 0.01 -0.00551168
0.00128732 0.00159165 -0.00551168
0.00227961 -0.00102548 -0.00551168
0.0791586 -0.0598787 -0.00551168
0.0796578 -0.059106 -0.00551168
0.00110182 -0.000823821 0
0.000571683 -0.000188043 0
0.000561313 0.000639162 0
0.00189316 0.00207203 0
0.00260228 0.00255358 0
0.0033966 0.00307293 0
0.00428861 0.00362634 0
0.00529726 0.0041979 0
0.00644092 0.00476696 0
0.00773158 0.0053187 0
0.00918011 0.00583593 0
0.010799 0.00628751 0
0.012597 0.00663225 0
0.0145725 0.0068517 0
0.0167206 0.0069338 0
0.0190349 0.00685819 0
0.0215031 0.00658621 0
0.0241038 0.00607459 0
0.026821 0.00533786 0
0.0296245 0.00434523 0
0.0324763 0.00306927 0
0.0353199 0.00146906 0
0.0381488 -0.00039338 0
0.0409131 -0.00252802 0
0.0435632 -0.00493276 0
0.0460882 -0.0075571 0
0.0484881 -0.0103478 0
0.0506782 -0.0133217 0
0.0526651 -0.016422 0
0.0546139 -0.0195019 0
0.0565301 -0.022529 0
0.0584009 -0.0254846 0
0.0602154 -0.0283513 0
0.061964 -0.031114 0
0.0636389 -0.0337601 0
0.0652336 -0.0362795 0
0.0667431 -0.0386651 0
0.0681656 -0.0409111 0
0.0694983 -0.0430158 0
0.0707356 -0.0449823 0
0.071886 -0.0468071 0
0.0729575 -0.04849 0
0.0739438 -0.0500408 0
0.0748444 -0.0514675 0
0.0756707 -0.0527715 0
0.0764313 -0.053958 0
0.0771224 -0.0550398 0
0.0777384 -0.0560288 0
0.0782803 -0.0569318 0
0.0787691 -0.0577448 0
0.0792251 -0.0584672 0
0.0800494 -0.0597378 0
0.0797987 -0.0601582 0
0.0786655 -0.059391 0
0.0781259 -0.0588425 0
0.0775539 -0.0582102 0
0.0769587 -0.0574783 0
0.0763492 -0.0566339 0
0.075723 -0.0556725 0
0.0750452 -0.0546094 0
0.0742996 -0.0534457 0
0.073478 -0.0521785 0
0.072577 -0.0508019 0
0.0715904 -0.049313 0
0.0705098 -0.047712 0
0.069328 -0.0459996 0
0.0680378 -0.0441794 0
0.066632 -0.0422571 0
0.0651046 -0.0402413 0
0.0634508 -0.0381431 0
0.0616683 -0.0359754 0
0.0597581 -0.033753 0
0.0577255 -0.0314906 0
0.0555808 -0.0292024 0
0.0533388 -0.0269013 0
0.0510024 -0.0246151 0
0.0485693 -0.0223811 0
0.0460535 -0.0202228 0
0.0434788 -0.0181535 0
0.0408704 -0.0161833 0
0.0382442 -0.0143327 0
0.0356165 -0.0126209 0
0.0330065 -0.0110594 0
0.0304368 -0.00965062 0
0.0279338 -0.00838121 0
0.0255194 -0.00723697 0
0.0231965 -0.00623664 0
0.020983 -0.00535765 0
0.0188891 -0.00458677 0
0.0169193 -0.00391673 0
0.0150754 -0.00334068 0
0.0133572 -0.00285262 0
0.0117634 -0.0024437 0
0.0102912 -0.00210643 0
0.0089363 -0.00183343 0
0.00769424 -0.00161552 0
0.00655956 -0.00144452 0
0.00552632 -0.00131235 0
0.00458815 -0.00121216 0
0.00373885 -0.00113394 0
0.00297202 -0.00106855 0
-0.0506847 -0.0440454 0
-0.0467478 -0.0429739 0
-0.0428108 -0.0419025 0
-0.0388739 -0.0408311 0
-0.034937 -0.0397597 0
-0.0310001 -0.0386882 0
-0.0270632 -0.0376168 0
-0.0231263 -0.0365454 0
-0.0191894 -0.0354739 0
-0.0152525 -0.0344025 0
-0.0113155 -0.0333311 0
-0.00737862 -0.0322597 0
-0.00344171 -0.0311882 0
0.0038716 -0.0298185 0
0.00726082 -0.0297726 0
0.010644 -0.0299802 0
0.0140027 -0.0304367 0
0.0173201 -0.0311326 0
0.0205821 -0.0320541 0
0.0237776 -0.0331851 0
0.0268988 -0.0345078 0
0.0299406 -0.0360041 0
0.0329005 -0.0376567 0
0.035778 -0.039449 0
0.038574 -0.0413659 0
0.0412905 -0.043394 0
0.0439303 -0.0455212 0
0.0464964 -0.0477367 0
0.0489922 -0.0500312 0
0.051421 -0.0523964 0
0.0537863 -0.0548252 0
0.0560914 -0.0573112 0
0.0583395 -0.0598489 0
0.0605336 -0.0624334 0
0.0626765 -0.0650605 0
0.064771 -0.0677264 0
0.0668197 -0.0704277 0
0.0688248 -0.0731615 0
0.0707885 -0.0759252 0
0.072713 -0.0787163 0
0.0746002 -0.0815329 0
0.0764517 -0.0843729 0
0.0782695 -0.0872347 0
0.0829558 -0.0924852 0
0.0858567 -0.0948536 0
0.0887575 -0.0972221 0
0.0916584 -0.0995905 0
0.0945593 -0.101959 0
0.0974602 -0.104327 0
0.100361 -0.106696 0
0.103262 -0.109064 0
0.106163 -0.111433 0
0.109064 -0.113801 0
0.111965 -0.116169 0
0.114865 -0.118538 0
0.117766 -0.120906 0
0.120667 -0.123275 0
0.123568 -0.125643 0
0.126469 -0.128012 0
0.12937 -0.13038 0
0.132271 -0.132748 0
0.135172 -0.13118 0
0.135172 -0.127243 0
0.135172 -0.123306 0
0.135172 -0.119369 0
0.135172 -0.115432 0
0.135172 -0.111495 0
0.135172 -0.107558 0
0.135172 -0.103621 0
0.135172 -0.0996846 0
0.135172 -0.0957477 0
0.135172 -0.0918107 0
0.135172 -0.0878738 0
0.135172 -0.0839369 0
0.132271 -0.0776316 0
0.12937 -0.0752632 0
0.126469 -0.0728947 0
0.123568 -0.0705263 0
0.120667 -0.0681579 0
0.117766 -0.0657895 0
0.114865 -0.0634211 0
0.111965 -0.0610526 0
0.109064 -0.0586842 0
0.106163 -0.0563158 0
0.103262 -0.0539474 0
0.100361 -0.0515789 0
0.0974602 -0.0492105 0
0.0945593 -0.0468421 0
0.0916584 -0.0444737 0
0.0887575 -0.0421053 0
0.0858567 -0.0397368 0
0.0829558 -0.0373684 0
0.0782695 -0.0321179 0
0.0764517 -0.0292561 0
0.0746002 -0.026416 0
0.072713 -0.0235995 0
0.0707885 -0.0208084 0
0.0688248 -0.0180447 0
0.0668197 -0.0153109 0
0.064771 -0.0126096 0
0.0626765 -0.00994373 0
0.0605336 -0.00731663 0
0.0583395 -0.00473208 0
0.0560914 -0.00219437 0
0.0537863 0.000291632 0
0.051421 0.00272041 0
0.0489922 0.00508564 0
0.0464964 0.00738012 0
0.0439303 0.00959562 0
0.0412905 0.0117228 0
0.038574 0.0137509 0
0.035778 0.0156678 0
0.0329005 0.0174601 0
0.0299406 0.0191127 0
0.0268988 0.020609 0
0.0237776 0.0219317 0
0.0205821 0.0230627 0
0.0173201 0.0239842 0
0.0140027 0.0246801 0
0.010644 0.0251366 0
0.00726082 0.0253442 0
0.0038716 0.0252983 0
-0.00344171 0.0239286 0
-0.00737862 0.0228571 0
-0.0113155 0.0217857 0
-0.0152525 0.0207143 0
-0.0191894 0.0196429 0
-0.0231263 0.0185714 0
-0.0270632 0.0175 0
-0.0310001 0.0164286 0
-0.034937 0.0153571 0
-0.0388739 0.0142857 0
-0.0428108 0.0132143 0
-0.0467478 0.0121429 0
-0.0506847 0.0110714 0
-0.0546216 0.00606309 0
-0.0546216 0.00212617 0
-0.0546216 -0.00181074 0
-0.0546216 -0.00574766 0
-0.0546216 -0.00968457 0
-0.0546216 -0.0136215 0
-0.0546216 -0.0175584 0
-0.0546216 -0.0214953 0
-0.0546216 -0.0254322 0
-0.0546216 -0.0293691 0
-0.0546216 -0.0333061 0
-0.0546216 -0.037243 0
-0.0546216 -0.0411799 0
-0.0506847 -0.0440454 -0.00551168
-0.0467478 -0.0429739 -0.00551168
-0.0428108 -0.0419025 -0.00551168
-0.0388739 -0.0408311 -0.00551168
-0.034937 -0.0397597 -0.00551168
-0.0310001 -0.0386882 -0.00551168
-0.0270632 -0.0376168 -0.00551168
-0.0231263 -0.0365454 -0.00551168
-0.0191894 -0.0354739 -0.00551168
-0.0152525 -0.0344025 -0.00551168
-0.0113155 -0.0333311 -0.00551168
-0.00737862 -0.0322597 -0.00551168
-0.00344171 -0.0311882 -0.00551168
0.0038716 -0.0298185 -0.00551168
0.00726082 -0.0297726 -0.00551168
0.010644 -0.0299802 -0.00551168
0.0140027 -0.0304367 -0.00551168
0.0173201 -0.0311326 -0.00551168
0.0205821 -0.0320541 -0.00551168
0.0237776 -0.0331851 -0.00551168
0.0268988 -0.0345078 -0.00551168
0.0299406 -0.0360041 -0.00551168
0.0329005 -0.0376567 -0.00551168
0.035778 -0.039449 -0.00551168
0.038574 -0.0413659 -0.00551168
0.0412905 -0.043394 -0.00551168
0.0439303 -0.0455212 -0.00551168
0.0464964 -0.0477367 -0.00551168
0.0489922 -0.0500312 -0.00551168
0.051421 -0.0523964 -0.00551168
0.0537863 -0.0548252 -0.00551168
0.0560914 -0.0573112 -0.00551168
0.0583395 -0.0598489 -0.00551168
0.0605336 -0.0624334 -0.00551168
0.0626765 -0.0650605 -0.00551168
0.064771 -0.0677264 -0.00551168
0.0668197 -0.0704277 -0.00551168
0.0688248 -0.0731615 -0.00551168
0.0707885 -0.0759252 -0.00551168
0.072713 -0.0787163 -0.00551168
0.0746002 -0.0815329 -0.00551168
0.0764517 -0.0843729 -0.00551168
0.0782695 -0.0872347 -0.00551168
0.0829558 -0.0924852 -0.00551168
0.0858567 -0.0948536 -0.00551168
0.0887575 -0.0972221 -0.00551168
0.0916584 -0.0995905 -0.00551168
0.0945593 -0.101959 -0.00551168
0.0974602 -0.104327 -0.00551168
0.100361 -0.106696 -0.00551168
0.103262 -0.109064 -0.00551168
0.106163 -0.111433 -0.00551168
0.109064 -0.113801 -0.00551168
0.111965 -0.116169 -0.00551168
0.114865 -0.118538 -0.00551168
0.117766 -0.120906 -0.00551168
0.120667 -0.123275 -0.00551168
0.123568 -0.125643 -0.00551168
0.126469 -0.128012 -0.00551168
0.12937 -0.13038 -0.00551168
0.132271 -0.132748 -0.00551168
0.135172 -0.13118 -0.00551168
0.135172 -0.127243 -0.00551168
0.135172 -0.123306 -0.00551168
0.135172 -0.119369 -0.00551168
0.135172 -0.115432 -0.00551168
0.135172 -0.111495 -0.00551168
0.135172 -0.107558 -0.00551168
0.135172 -0.103621 -0.00551168
0.135172 -0.0996846 -0.00551168
0.135172 -0.0957477 -0.00551168
0.135172 -0.0918107 -0.00551168
0.135172 -0.0878738 -0.00551168
0.135172 -0.0839369 -0.00551168
0.132271 -0.0776316 -0.00551168
0.12937 -0.0752632 -0.00551168
0.126469 -0.0728947 -0.00551168
0.123568 -0.0705263 -0.00551168
0.120667 -0.0681579 -0.00551168
0.117766 -0.0657895 -0.00551168
0.114865 -0.0634211 -0.00551168
0.111965 -0.0610526 -0.00551168
0.109064 -0.0586842 -0.00551168
0.106163 -0.0563158 -0.00551168
0.103262 -0.0539474 -0.00551168
0.100361 -0.0515789 -0.00551168
0.0974602 -0.0492105 -0.00551168
0.0945593 -0.0468421 -0.00551168
0.0916584 -0.0444737 -0.00551168
0.0887575 -0.0421053 -0.00551168
0.0858567 -0.0397368 -0.00551168
0.0829558 -0.0373684 -0.00551168
0.0782695 -0.0321179 -0.00551168
0.0764517 -0.0292561 -0.00551168
0.0746002 -0.026416 -0.00551168
0.072713 -0.0235995 -0.00551168
0.0707885 -0.0208084 -0.00551168
0.0688248 -0.0180447 -0.00551168
0.0668197 -0.0153109 -0.00551168
0.064771 -0.0126096 -0.00551168
0.0626765 -0.00994373 -0.00551168
0.0605336 -0.00731663 -0.00551168
0.0583395 -0.00473208 -0.00551168
0.0560914 -0.00219437 -0.00551168
0.0537863 0.000291632 -0.00551168
0.051421 0.00272041 -0.00551168
0.0489922 0.00508564 -0.00551168
0.0464964 0.00738012 -0.00551168
0.0439303 0.00959562 -0.00551168
0.0412905 0.0117228 -0.00551168
[...]
CELL_DATA 2965
SCALARS rho float
LOOKUP_TABLE default
0.563127
0.292693
0.660647
0.323435
0.702362
0.362436
0.560796
0.293512
0.374196
0.664361
0.325321
0.331674
0.537487
0.710164
0.653888
0.677542
0.68656
0.704659
0.708387
0.688578
0.571133
0.323666
0.700619
0.719023
0.686348
0.721476
0.544676
0.662564
0.310144
0.609514
0.61876
0.308334
0.716808
0.667877
0.339992
0.355086
0.683374
0.681331
0.332345
0.614651
0.681477
0.632531
0.701732
0.29671
0.302105
0.708074
0.589082
0.663968
0.359257
0.562875
0.451203
0.327842
0.303794
0.504403
0.312179
0.498082
0.351886
0.335709
0.332128
0.616702
0.649131
0.667876
0.304854
0.70399
0.680477
0.709439
0.56151
0.314201
0.336117
0.330712
0.705903
0.712322
0.562034
0.329955
0.616327
0.507708
0.553108
0.326743
0.319374
0.576948
0.560253
0.312064
0.336126
0.548905
0.677702
0.432245
0.317832
0.345376
0.714088
0.359003
0.329958
0.707636
0.696204
0.631178
0.708633
0.335876
0.605188
0.298753
0.330837
0.28365
0.614053
0.2833
0.326027
0.306689
0.328862
0.705923
0.56035
0.314179
0.335991
0.556154
0.291824
0.493957
0.567078
0.67789
0.337246
0.322688
0.70145
0.581399
0.554686
0.288527
0.559925
0.302992
0.71616
0.703097
0.688211
0.46838
0.31951
0.636382
0.667321
0.321742
0.326485
0.507383
0.678836
0.329522
0.550505
0.351286
0.551378
0.693813
0.717703
0.703236
0.329477
0.68027
0.678204
0.39113
0.34632
0.708366
0.318944
0.700557
0.717425
0.36242
0.275216
0.286532
0.326056
0.318789
0.336452
0.344746
0.561191
0.671912
0.714229
0.719575
0.566088
0.568499
0.477604
0.695138
0.348866
0.560792
0.507284
0.295234
0.562978
0.709895
0.59439
0.352037
0.519116
0.674663
0.708405
0.537287
0.627074
0.418864
0.317704
0.492029
0.311556
0.321309
0.335687
0.3562
0.717308
0.561428
0.299503
0.309305
0.450797
0.33798
0.334813
0.333119
0.603708
0.345718
0.563162
0.560698
0.683879
0.668141
0.525437
0.317701
0.29862
0.329523
0.705629
0.594922
0.560622
0.311401
0.509944
0.563117
0.707447
0.703573
0.677463
0.468725
0.347892
0.35405
0.662161
0.306685
0.600286
0.306454
0.672829
0.339052
0.372503
0.343651
0.553299
0.441632
0.721526
0.302367
0.560034
0.654704
0.398349
0.59039
0.324511
0.335859
0.710656
0.335438
0.704711
0.712362
0.339565
0.664412
0.333395
0.429568
0.435337
0.291449
0.703543
0.645713
0.320784
0.280154
0.675622
0.646966
0.572322
0.657631
0.292903
0.297379
0.561452
0.381528
0.686331
0.33923
0.342152
0.560085
0.70633
0.33081
0.643061
0.405986
0.71244
0.350791
0.672655
0.563518
0.323049
0.570974
0.654879
0.299637
0.269309
0.707966
0.272813
0.717371
0.667312
0.279733
0.701687
0.668987
0.720432
0.708944
0.704302
0.673299
0.699317
0.65013
0.379353
0.30221
0.712403
0.71662
0.348451
0.705833
0.555419
0.290944
0.340553
0.295136
0.578177
0.313445
0.55563
0.589155
0.720818
0.327862
0.592493
0.656768
0.592707
0.704242
0.300414
0.293908
0.711472
0.561324
0.561713
0.328177
0.330919
0.600845
0.339232
0.336568
0.695042
0.560134
0.674943
0.291556
0.341324
0.624637
0.691362
0.291557
0.698187
0.560483
0.339281
0.566142
0.706098
0.633372
0.333083
0.29446
0.558368
0.381137
0.699271
0.420998
0.713411
0.458966
0.44058
0.298372
0.317256
0.395106
0.701942
0.72085
0.699797
0.697084
0.661472
0.568612
0.309305
0.703084
0.707468
0.33152
0.329
0.576917
0.332682
0.69708
0.676419
0.330936
0.329598
0.320829
0.339196
0.560391
0.326827
0.348684
0.436967
0.28991
0.710354
0.700446
0.562755
0.561903
0.322948
0.716073
0.306532
0.565223
0.324945
0.303391
0.708841
0.597702
0.338016
0.324182
0.710244
0.435038
0.626652
0.673921
0.380593
0.708975
0.340103
0.343196
0.685972
0.338384
0.71129
0.334724
0.437536
0.29199
0.709949
0.569243
0.520255
0.664794
0.349456
0.705541
0.422224
0.325161
0.712087
0.338828
0.686583
0.49746
0.627562
0.34429
0.393149
0.323469
0.341083
0.325708
0.367438
0.665293
0.703591
0.702763
0.564674
0.34424
0.696915
0.561543
0.708279
0.305025
0.705414
0.355549
0.670074
0.671025
0.326928
0.562539
0.421855
0.658387
0.338523
0.622255
0.697708
0.339114
0.718148
0.310391
0.706369
0.318464
0.337969
0.491202
0.701075
0.708734
0.534457
0.340529
0.311199
0.49503
0.699193
0.698571
0.71083
0.707465
0.710164
0.334862
0.633809
0.651677
0.33494
0.301724
0.296991
0.607286
0.707575
0.418639
0.444044
0.429316
0.374992
0.708064
0.704288
0.563055
0.713807
0.468131
0.698059
0.708368
0.38999
0.706681
0.39863
0.414263
0.716614
0.708476
0.700228
0.704809
0.33697
0.3331
0.717151
0.701096
0.341189
0.708404
0.614277
0.703232
0.370667
0.389145
0.708093
0.32893
0.551443
0.708636
0.707627
0.331465
0.709328
0.272321
0.287109
0.307968
0.440675
0.708556
0.419035
0.703357
0.344448
0.316243
0.702154
0.301119
0.34425
0.332651
0.331934
0.408494
0.332914
0.324761
0.50745
0.526859
0.31513
0.369127
0.711242
0.32316
0.482808
0.705676
0.667295
0.694639
0.68496
0.610906
0.541642
0.338059
0.426972
0.702996
0.664043
0.322973
0.680052
0.249991
0.341596
0.337951
0.697788
0.72029
0.330122
0.696774
0.709238
0.333525
0.332531
0.692956
0.561777
0.404907
0.697554
0.467691
0.332454
0.691875
0.330286
0.591063
0.661225
0.555071
0.700883
0.328436
0.380231
0.715505
0.454692
0.309098
0.365683
0.300408
0.320669
0.686664
0.707742
0.701946
0.338849
0.308886
0.346701
0.329807
0.70702
0.340269
0.534631
0.334608
0.711397
0.708048
0.330346
0.56301
0.456722
0.68831
0.350753
0.707374
0.671309
0.718013
0.670189
0.559373
0.708152
0.371007
0.577974
0.323771
0.666951
0.326357
0.293183
0.709329
0.563138
0.701695
0.271401
0.30187
0.711773
0.704849
0.335367
0.705566
0.325918
0.355373
0.293824
0.717377
0.721185
0.651903
0.337875
0.352141
0.329011
0.271531
0.713617
0.562379
0.706637
0.26416
0.331147
0.550955
0.708039
0.69809
0.693065
0.561633
0.483763
0.699571
0.708024
0.705683
0.292813
0.701059
0.658256
0.560845
0.709199
0.703153
0.690703
0.437632
0.720983
0.338797
0.707023
0.561965
0.280536
0.561763
0.565411
0.70517
0.333439
0.3375
0.686514
0.353197
0.337445
0.714315
0.353327
0.490714
0.694619
0.346269
0.71458
0.324607
0.590667
0.708148
0.704163
0.696546
0.387334
0.325207
0.673836
0.586137
0.296055
0.582559
0.362546
0.550688
0.340459
0.575874
0.704809
0.563022
0.307745
0.625757
0.368122
0.485173
0.519545
0.341779
0.337545
0.341319
0.568702
0.549664
0.515975
0.323289
0.562282
0.679216
0.325256
0.558913
0.334698
0.561177
0.637756
0.559921
0.70973
0.350539
0.320164
0.557755
0.7216
0.64837
0.674349
0.700213
0.613669
0.57886
0.318256
0.616329
0.451726
0.401587
0.41036
0.561752
0.713133
0.702167
0.458571
0.270796
0.693224
0.330049
0.343705
0.496352
0.336115
0.555604
0.292193
0.561123
0.290995
0.329703
0.495476
0.719632
0.288428
0.358793
0.711459
0.721789
0.718292
0.307805
0.356171
0.703792
0.344641
0.355193
0.3128
0.518558
0.707189
0.323976
0.714555
0.279412
0.635047
0.706188
0.407085
0.550591
0.584269
0.651202
0.698884
0.721044
0.719288
0.718347
0.678795
0.560834
0.377312
0.479921
0.700779
0.318552
0.714077
0.658482
0.341825
0.710211
0.674569
0.710978
0.686798
0.676896
0.67624
0.361994
0.661645
0.346088
0.357268
0.707186
0.558694
0.340782
0.324711
0.703088
0.474763
0.63154
0.307031
0.315139
0.709659
0.666433
0.721182
0.706854
0.668308
0.445662
0.559406
0.317453
0.560823
0.674785
0.67051
0.341157
0.441242
0.711458
0.673932
0.719497
0.191277
0.56184
0.314156
0.309757
0.266831
0.700859
0.708293
0.697829
0.567354
0.330626
0.559385
0.448715
0.704151
0.715629
0.672321
0.315283
0.370244
0.697255
0.339396
0.510557
0.65868
0.335913
0.340841
0.645133
0.695057
0.339327
0.563387
0.708323
0.318421
0.562799
0.708946
0.705716
0.378393
0.346065
0.693004
0.404558
0.331685
0.48139
0.596904
0.311956
0.43671
0.337869
0.35479
0.687828
0.299118
0.324237
0.720953
0.273787
0.378348
0.720047
0.704397
0.690809
0.561976
0.684082
0.321524
0.717159
0.707685
0.379435
0.720383
0.7191
0.560974
0.560462
0.378368
0.560994
0.364509
0.561586
0.388236
0.546731
0.330502
0.656204
0.379918
0.691433
0.714673
0.715714
0.599769
0.691826
0.714506
0.352913
0.707163
0.32837
0.559776
0.710746
0.279062
0.476538
0.33498
0.33555
0.560716
0.426504
0.707708
0.165484
0.649533
0.689757
0.703975
0.495113
0.344923
0.317845
0.335376
0.341134
0.697696
0.42929
0.336841
0.70679
0.331054
0.441672
0.710019
0.711051
0.681447
0.69518
0.322917
0.586645
0.384077
0.560744
0.701239
0.648731
0.301856
0.696224
0.693504
0.708786
0.686007
0.688479
0.443386
0.572775
0.689199
0.620147
0.607506
0.330248
0.66328
0.381029
0.58146
0.691874
0.61016
0.709405
0.583148
0.608486
0.711196
0.318848
0.701754
0.281117
0.329162
0.688932
0.678693
0.671685
0.641722
0.673155
0.560992
0.705373
0.562149
0.698792
0.709618
0.716755
0.370585
0.688643
0.709649
0.373908
0.678402
0.304895
0.582768
0.332013
0.664978
0.311955
0.331153
0.333371
0.659439
0.707549
0.50948
0.656935
0.33562
0.327656
0.608365
0.719415
0.337765
0.699109
0.53063
0.334765
0.698726
0.308225
0.317715
0.695807
0.607074
0.31909
0.698698
0.711487
0.710334
0.339652
0.711337
0.314477
0.560871
0.46058
0.639702
0.293865
0.712554
0.336593
0.300015
0.334287
0.709307
0.357057
0.693779
0.706115
0.653035
0.36271
0.38523
0.716278
0.372299
0.295666
0.341085
0.708777
0.366322
0.333679
0.345448
0.619987
0.32808
0.324526
0.385222
0.704508
0.720495
0.303902
0.713941
0.71052
0.665604
0.302889
0.367756
0.674301
0.337188
0.719035
0.380363
0.715026
0.320643
0.194864
0.687812
0.32494
0.290371
0.336959
0.556642
0.364161
0.58308
0.683441
0.316355
0.660537
0.290051
0.711241
0.494938
0.33743
0.328648
0.708804
0.526029
0.695934
0.303267
0.340034
0.605143
0.55992
0.321014
0.331734
0.269308
0.490219
0.685589
0.340433
0.624141
0.710696
0.673927
0.711521
0.297804
0.677162
0.373999
0.711294
0.709075
0.655535
0.333045
0.694322
0.702393
0.33827
0.720281
0.683635
0.324432
0.268847
0.318016
0.319783
0.721738
0.339795
0.701409
0.451562
0.56047
0.617592
0.429894
0.683546
0.337723
0.642931
0.339487
0.627249
0.706358
0.287064
0.306571
0.313504
0.569597
0.71735
0.311579
0.337767
0.32999
0.540129
0.712881
0.308585
0.331998
0.701043
0.677937
0.700214
0.306041
0.384049
0.69898
0.625074
0.335793
0.304857
0.556318
0.714772
0.692148
0.364896
0.686675
0.70538
0.372295
0.71111
0.290951
0.684253
0.366562
0.405175
0.318136
0.331099
0.709611
0.311547
0.305346
0.322644
0.329076
0.682571
0.672122
0.713791
0.339244
0.560383
0.702958
0.708982
0.7059
0.699759
0.713293
0.710684
0.708526
0.690855
0.708322
0.33831
0.649745
0.720442
0.38391
0.692924
0.709791
0.708837
0.705966
0.335818
0.697145
0.561761
0.705919
0.342772
0.70986
0.708868
0.69936
0.677128
0.326475
0.585044
0.364428
0.491696
0.335654
0.339772
0.334204
0.334417
0.644391
0.674557
0.691207
0.292158
0.706212
0.564591
0.710329
0.309528
0.333799
0.702925
0.327614
0.365679
0.332485
0.690576
0.515516
0.707981
0.334212
0.70701
0.711301
0.649285
0.693579
0.331783
0.716899
0.706501
0.695984
0.710777
0.710932
0.637558
0.298271
0.379022
0.34052
0.617475
0.331764
0.677257
0.703908
0.69925
0.322348
0.341897
0.590241
0.721799
0.56127
0.318492
0.703948
0.572809
0.342646
0.5905
0.340437
0.400853
0.334943
0.333714
0.334652
0.711246
0.70756
0.718022
0.570032
0.675954
0.677856
0.707266
0.572427
0.710163
0.710502
0.662376
0.625577
0.283154
0.561716
0.706834
0.504089
0.317214
0.681955
0.337252
0.710039
0.485601
0.690655
0.702961
0.322802
0.6764
0.295355
0.695128
0.716503
0.706574
0.593624
0.689145
0.701685
0.683499
0.359845
0.529545
0.504842
0.307658
0.649589
0.711811
0.582226
0.714854
0.704717
0.569011
0.296377
0.312714
0.658602
0.711439
0.333313
0.279722
0.705215
0.711205
0.704279
0.331209
0.657114
0.691557
0.688806
0.316699
0.566502
0.587377
0.652311
0.614878
0.574869
0.711398
0.337714
0.696473
0.317919
0.33467
0.607193
0.401641
0.420234
0.284637
0.688235
0.705472
0.606095
0.701347
0.573439
0.38557
0.397477
0.713194
0.70933
0.688951
0.600024
0.310358
0.697579
0.515819
0.322757
0.709508
0.720605
0.332164
0.709384
0.704413
0.561359
0.565811
0.686327
0.414126
0.692874
0.712523
0.707188
0.331446
0.654621
0.503058
0.655227
0.710553
0.712985
0.709807
0.706922
0.707718
0.708964
0.69976
0.295009
0.699533
0.631313
0.340507
0.606078
0.709424
0.716794
0.699587
0.323871
0.679698
0.348429
0.702428
0.653669
0.72101
0.285268
0.68271
0.711695
0.561101
0.672515
0.679578
0.563329
0.635578
0.45019
0.295278
0.334067
0.561302
0.345616
0.312983
0.689378
0.320877
0.702607
0.386448
0.717468
0.311823
0.284579
0.696418
0.461708
0.35058
0.716415
0.706402
0.720443
0.331265
0.703357
0.712482
0.709297
0.275597
0.561406
0.714796
0.335717
0.63957
0.62881
0.692374
0.376796
0.456079
0.621077
0.331743
0.6862
0.326057
0.325654
0.559521
0.449405
0.681421
0.339081
0.72165
0.565488
0.561143
0.244187
0.322252
0.559509
0.327485
0.563141
0.362459
0.705693
0.690638
0.58742
0.563458
0.645647
0.307707
0.708363
0.712777
0.710472
0.561461
0.297982
0.385659
0.317879
0.326317
0.562254
0.344799
0.654984
0.32096
0.693674
0.699569
0.623091
0.339903
0.703866
0.320012
0.710421
0.721415
0.357585
0.701868
0.715586
0.321627
0.711003
0.334822
0.357136
0.715579
0.397121
0.719676
0.291135
0.301104
0.688756
0.374054
0.682776
0.295108
0.580987
0.707531
0.708165
0.453257
0.341982
0.375143
0.562785
0.561549
0.312252
0.710946
0.316375
0.712449
0.305241
0.315571
0.626936
0.577086
0.504761
0.70693
0.703023
0.598139
0.641004
0.701019
0.626858
0.305275
0.706225
0.386788
0.345482
0.686704
0.481229
0.460497
0.526878
0.327465
0.704188
0.562882
0.720492
0.320793
0.319147
0.643218
0.643443
0.708662
0.712983
0.314888
0.645761
0.696194
0.70638
0.526413
0.34062
0.275151
0.31896
0.717883
0.710982
0.394539
0.310779
0.519322
0.270911
0.713574
0.640487
0.370218
0.571558
0.475946
0.699269
0.719121
0.328718
0.371077
0.6727
0.33184
0.462159
0.70734
0.33008
0.32818
0.333514
0.627954
0.683339
0.628522
0.327105
0.335703
0.66131
0.706036
0.682403
0.711021
0.338063
0.323944
0.306857
0.638686
0.326416
0.326703
0.709041
0.690982
0.637267
0.2965
0.31743
0.309924
0.67306
0.36161
0.692901
0.561549
0.708928
0.525823
0.717985
0.716211
0.382518
0.34025
0.710344
0.32416
0.559099
0.702824
0.704383
0.515419
0.323963
0.341704
0.720376
0.476072
0.391693
0.700315
0.708072
0.350008
0.341446
0.647841
0.551019
0.281004
0.33174
0.702039
0.606023
0.714378
0.681176
0.399058
0.342997
0.339511
0.454747
0.360333
0.559907
0.706431
0.627447
0.689599
0.361743
0.691437
0.371017
0.705534
0.707173
0.336844
0.322902
0.694933
0.450169
0.577184
0.705949
0.335818
0.708444
0.669361
0.661333
0.563115
0.714843
0.375805
0.334324
0.314452
0.618994
0.698886
0.706416
0.54669
0.315234
0.334299
0.635192
0.317077
0.70745
0.658883
0.709786
0.390913
0.269623
0.555629
0.70026
0.560491
0.712237
0.625934
0.638558
0.7074
0.6858
0.311299
0.562665
0.691119
0.709337
0.332227
0.697699
0.512378
0.713594
0.717314
0.535184
0.620241
0.692994
0.658494
0.560495
0.277711
0.714508
0.715761
0.340835
0.707411
0.335554
0.336405
0.560102
0.693361
0.331572
0.609361
0.660377
0.316273
0.364016
0.717699
0.713515
0.586582
0.360047
0.622209
0.289957
0.708777
0.712091
0.341859
0.623864
0.637189
0.292349
0.31912
0.351266
0.72012
0.717187
0.337106
0.387562
0.415511
0.342577
0.383444
0.697331
0.275949
0.715278
0.710892
0.714314
0.308876
0.709629
0.634347
0.698231
0.532921
0.707694
0.316397
0.350997
0.33492
0.702348
0.385576
0.340635
0.702556
0.326864
0.562354
0.619651
0.530332
0.378846
0.310003
0.709724
0.710683
0.7061
0.714536
0.720391
0.340089
0.347509
0.335074
0.623984
0.705512
0.341753
0.709689
0.334263
0.3987
0.656318
0.324816
0.352536
0.308175
0.443878
0.324688
0.683885
0.717973
0.717554
0.387056
0.688405
0.714251
0.339037
0.694716
0.429124
0.699261
0.378263
0.455232
0.702307
0.278798
0.342338
0.707381
0.643415
0.342398
0.70504
0.602569
0.710254
0.467458
0.301394
0.679104
0.710431
0.431651
0.386378
0.555712
0.526764
0.630482
0.310255
0.328236
0.706751
0.718149
0.331621
0.338971
0.690251
0.27666
0.338484
0.30783
0.543583
0.703149
0.324198
0.710798
0.326607
0.323828
0.361127
0.529228
0.348054
0.721627
0.300647
0.349587
0.579788
0.709468
0.408308
0.560659
0.339991
0.290561
0.698573
0.716587
0.670435
0.625942
0.709636
0.719922
0.285061
0.708307
0.339863
0.561841
0.681385
0.483864
0.666284
0.556668
0.71083
0.692547
0.560381
0.361118
0.507987
0.327801
0.70998
0.709068
0.632931
0.31473
0.719342
0.420685
0.561829
0.294699
0.392059
0.717989
0.337951
0.694525
0.716558
0.476594
0.327193
0.395697
0.697507
0.509987
0.312707
0.721746
0.287128
0.683718
0.356711
0.340894
0.315385
0.710394
0.482383
0.562267
0.33769
0.350943
0.706257
0.71108
0.336104
0.419404
0.334548
0.578613
0.289558
0.644955
0.70381
0.560937
0.298046
0.306957
0.553399
0.658058
0.709605
0.709328
0.337757
0.701006
0.710489
0.560062
0.561347
0.323984
0.707187
0.294841
0.63081
0.721519
0.709776
0.7079
0.700297
0.711717
0.710922
0.717042
0.699605
0.707294
0.717101
0.702943
0.707227
0.336893
0.28846
0.657855
0.632781
0.546243
0.559918
0.711487
0.647431
0.706733
0.335451
0.281973
0.561779
0.337444
0.312627
0.343043
0.711243
0.66522
0.651443
0.707203
0.710415
0.339333
0.693371
0.339581
0.323085
0.716307
0.706019
0.695166
0.468981
0.461282
0.308551
0.299308
0.459784
0.338581
0.433174
0.708386
0.328811
0.698771
0.325129
0.700444
0.709082
0.341632
0.347294
0.709924
0.561647
0.327948
0.674472
0.340992
0.402012
0.274245
0.537895
0.70952
0.55993
0.604344
0.280899
0.338272
0.342995
0.329568
0.560607
0.706464
0.710664
0.344118
0.337881
0.595186
0.710722
0.711174
0.333472
0.656459
0.554359
0.71019
0.511017
0.345413
0.38971
0.388332
0.711207
0.291214
0.337432
0.561053
0.347209
0.674799
0.358709
0.353824
0.468849
0.364745
0.703773
0.561047
0.637587
0.526021
0.719593
0.670772
0.681334
0.334971
0.648027
0.68702
0.643398
0.708286
0.709283
0.702726
0.50267
0.710385
0.706697
0.388746
0.329267
0.719821
0.477573
0.70853
0.31191
0.708823
0.370382
0.697327
0.699155
0.670789
0.709318
0.694209
0.699263
0.33488
0.32997
0.677645
0.710315
0.70848
0.529547
0.704973
0.612585
0.596696
0.660179
0.595497
0.649255
0.705933
0.561746
0.345322
0.340083
0.701174
0.63402
0.289743
0.379088
0.502947
0.561556
0.559916
0.715021
0.347726
0.697693
0.336151
0.711134
0.291013
0.699828
0.338922
0.716786
0.316099
0.66161
0.531814
0.308973
0.338139
0.598755
0.306106
0.68602
0.321738
0.643148
0.560892
0.688311
0.716087
0.709808
0.701727
0.587211
0.71293
0.718501
0.685624
0.628856
0.703204
0.697629
0.328985
0.605525
0.600257
0.709323
0.383458
0.649912
0.705764
0.573001
0.341081
0.299485
0.343657
0.698715
0.706066
0.299156
0.671381
0.457798
0.590056
0.371228
0.496328
0.334439
0.363175
0.718101
0.367698
0.618394
0.304957
0.71609
0.322571
0.607755
0.638627
0.702621
0.344741
0.351108
0.402903
0.700398
0.325485
0.393529
0.323594
0.710252
0.711099
0.701446
0.695163
0.661963
0.700807
0.510004
0.353219
0.708551
0.31582
0.541444
0.690711
0.712964
0.247875
0.340772
0.710977
0.578234
0.487233
0.64765
0.680742
0.686264
0.34199
0.706436
0.694206
0.717513
0.714699
0.372972
0.560198
0.302661
0.710472
0.718411
0.666932
0.706395
0.40874
0.710593
0.278088
0.461315
0.698409
0.623409
0.707352
0.535524
0.285375
0.709387
0.710719
0.306744
0.341535
0.337528
0.716211
0.341394
0.292022
0.305152
0.379847
0.320247
0.422993
0.705438
0.322576
0.68719
0.70955
0.286039
0.689317
0.336875
0.707768
0.323343
0.661394
0.297761
0.713585
0.708203
0.507861
0.654878
0.706248
0.639576
0.297327
0.628999
0.53161
0.339245
0.31328
0.475764
0.33721
0.701401
0.30943
0.335836
0.379471
0.560622
0.696206
0.317321
0.327755
0.716758
0.298507
0.386921
0.558403
0.382631
0.342873
0.336133
0.716291
0.625771
0.721462
0.319206
0.341928
0.701851
0.641058
0.565624
0.470923
0.685458
0.71157
0.493417
0.472521
0.285922
0.297053
0.304353
0.639506
0.340927
0.708664
0.656772
0.702892
0.347626
0.499439
0.496485
0.721241
0.334794
0.633557
0.304033
0.65068
0.309846
0.343136
0.338863
0.708047
0.331138
0.715728
0.354951
0.442162
0.293984
0.616983
0.314631
0.704685
0.346591
0.69626
0.644167
0.29052
0.707996
0.708549
0.341848
0.715264
0.377222
0.281814
0.706821
0.334863
0.637872
0.38935
0.252767
0.696246
0.301561
0.410717
0.349568
0.344265
0.307211
0.660252
0.538846
0.717235
0.717326
0.65483
0.707968
0.523744
0.710455
0.337313
0.70763
0.282225
0.705656
0.338678
0.461765
0.71209
0.717398
0.711247
0.408618
0.623239
0.330811
0.340399
0.375668
0.276303
0.703423
0.516589
0.711704
0.695267
0.631154
0.682012
0.709982
0.465279
0.340462
0.413107
0.695144
0.615082
0.668127
0.705068
0.716682