# vtk DataFile Version 1.0
unstructured grid
ascii
DATASET UNSTRUCTURED_GRID
points 3226 float
0.0796578 -0.059106 0
0.00128732 0.00159165 0
0.00227961 -0.00102548 0
0.0791586 -0.0598787 0
-0.0546216 0.01 0
0.000495206 0.025 0
0.0800549 -0.035 0
0.135172 -0.08 0
-0.0546216 -0.0451168 0
0.000495206 -0.0301168 0
0.0800549 -0.0901168 0
0.135172 -0.135117 0
-0.0546216 -0.0451168 -0.00551168
0.000495206 -0.0301168 -0.00551168
0.0800549 -0.0901168 -0.00551168
0.135172 -0.135117 -0.00551168
0.135172 -0.08 -0.00551168
0.0800549 -0.035 -0.00551168
0.000495206 0.025 -0.00551168
-0.0546216 0.01 -0.00551168
0.00128732 0.00159165 -0.00551168
0.00227961 -0.00102548 -0.00551168
0.0791586 -0.0598787 -0.00551168
0.0796578 -0.059106 -0.00551168
0.00110182 -0.000823821 0
0.000571683 -0.000188043 0
0.000561313 0.000639162 0
0.00189316 0.00207203 0
0.00260228 0.00255358 0
0.0033966 0.00307293 0
0.00428861 0.00362634 0
0.00529726 0.0041979 0
0.00644092 0.00476696 0
0.00773158 0.0053187 0
0.00918011 0.00583593 0
0.010799 0.00628751 0
0.012597 0.00663225 0
0.0145725 0.0068517 0
0.0167206 0.0069338 0
0.0190349 0.00685819 0
0.0215031 0.00658621 0
0.0241038 0.00607459 0
0.026821 0.00533786 0
0.0296245 0.00434523 0
0.0324763 0.00306927 0
0.0353199 0.00146906 0
0.0381488 -0.00039338 0
0.0409131 -0.00252802 0
0.0435632 -0.00493276 0
0.0460882 -0.0075571 0
0.0484881 -0.0103478 0
0.0506782 -0.0133217 0
0.0526651 -0.016422 0
0.0546139 -0.0195019 0
0.0565301 -0.022529 0
0.0584009 -0.0254846 0
0.0602154 -0.0283513 0
0.061964 -0.031114 0
0.0636389 -0.0337601 0
0.0652336 -0.0362795 0
0.0667431 -0.0386651 0
0.0681656 -0.0409111 0
0.0694983 -0.0430158 0
0.0707356 -0.0449823 0
0.071886 -0.0468071 0
0.0729575 -0.04849 0
0.0739438 -0.0500408 0
0.0748444 -0.0514675 0
0.0756707 -0.0527715 0
0.0764313 -0.053958 0
0.0771224 -0.0550398 0
0.0777384 -0.0560288 0
0.0782803 -0.0569318 0
0.0787691 -0.0577448 0
0.0792251 -0.0584672 0
0.0800494 -0.0597378 0
0.0797987 -0.0601582 0
0.0786655 -0.059391 0
0.0781259 -0.0588425 0
0.0775539 -0.0582102 0
0.0769587 -0.0574783 0
0.0763492 -0.0566339 0
0.075723 -0.0556725 0
0.0750452 -0.0546094 0
0.0742996 -0.0534457 0
0.073478 -0.0521785 0
0.072577 -0.0508019 0
0.0715904 -0.049313 0
0.0705098 -0.047712 0
0.069328 -0.0459996 0
0.0680378 -0.0441794 0
0.066632 -0.0422571 0
0.0651046 -0.0402413 0
0.0634508 -0.0381431 0
0.0616683 -0.0359754 0
0.0597581 -0.033753 0
0.0577255 -0.0314906 0
0.0555808 -0.0292024 0
0.0533388 -0.0269013 0
0.0510024 -0.0246151 0
0.0485693 -0.0223811 0
0.0460535 -0.0202228 0
0.0434788 -0.0181535 0
0.0408704 -0.0161833 0
0.0382442 -0.0143327 0
0.0356165 -0.0126209 0
0.0330065 -0.0110594 0
0.0304368 -0.00965062 0
0.0279338 -0.00838121 0
0.0255194 -0.00723697 0
0.0231965 -0.00623664 0
0.020983 -0.00535765 0
0.0188891 -0.00458677 0
0.0169193 -0.00391673 0
0.0150754 -0.00334068 0
0.0133572 -0.00285262 0
0.0117634 -0.0024437 0
0.0102912 -0.00210643 0
0.0089363 -0.00183343 0
0.00769424 -0.00161552 0
0.00655956 -0.00144452 0
0.00552632 -0.00131235 0
0.00458815 -0.00121216 0
0.00373885 -0.00113394 0
0.00297202 -0.00106855 0
-0.0506847 -0.0440454 0
-0.0467478 -0.0429739 0
-0.0428108 -0.0419025 0
-0.0388739 -0.0408311 0
-0.034937 -0.0397597 0
-0.0310001 -0.0386882 0
-0.0270632 -0.0376168 0
-0.0231263 -0.0365454 0
-0.0191894 -0.0354739 0
-0.0152525 -0.0344025 0
-0.0113155 -0.0333311 0
-0.00737862 -0.0322597 0
-0.00344171 -0.0311882 0
0.0038716 -0.0298185 0
0.00726082 -0.0297726 0
0.010644 -0.0299802 0
0.0140027 -0.0304367 0
0.0173201 -0.0311326 0
0.0205821 -0.0320541 0
0.0237776 -0.0331851 0
0.0268988 -0.0345078 0
0.0299406 -0.0360041 0
0.0329005 -0.0376567 0
0.035778 -0.039449 0
0.038574 -0.0413659 0
0.0412905 -0.043394 0
0.0439303 -0.0455212 0
0.0464964 -0.0477367 0
0.0489922 -0.0500312 0
0.051421 -0.0523964 0
0.0537863 -0.0548252 0
0.0560914 -0.0573112 0
0.0583395 -0.0598489 0
0.0605336 -0.0624334 0
0.0626765 -0.0650605 0
0.064771 -0.0677264 0
0.0668197 -0.0704277 0
0.0688248 -0.0731615 0
0.0707885 -0.0759252 0
0.072713 -0.0787163 0
0.0746002 -0.0815329 0
0.0764517 -0.0843729 0
0.0782695 -0.0872347 0
0.0829558 -0.0924852 0
0.0858567 -0.0948536 0
0.0887575 -0.0972221 0
0.0916584 -0.0995905 0
0.0945593 -0.101959 0
0.0974602 -0.104327 0
0.100361 -0.106696 0
0.103262 -0.109064 0
0.106163 -0.111433 0
0.109064 -0.113801 0
0.111965 -0.116169 0
0.114865 -0.118538 0
0.117766 -0.120906 0
0.120667 -0.123275 0
0.123568 -0.125643 0
0.126469 -0.128012 0
0.12937 -0.13038 0
0.132271 -0.132748 0
0.135172 -0.13118 0
0.135172 -0.127243 0
0.135172 -0.123306 0
0.135172 -0.119369 0
0.135172 -0.115432 0
0.135172 -0.111495 0
0.135172 -0.107558 0
0.135172 -0.103621 0
0.135172 -0.0996846 0
0.135172 -0.0957477 0
0.135172 -0.0918107 0
0.135172 -0.0878738 0
0.135172 -0.0839369 0
0.132271 -0.0776316 0
0.12937 -0.0752632 0
0.126469 -0.0728947 0
0.123568 -0.0705263 0
0.120667 -0.0681579 0
0.117766 -0.0657895 0
0.114865 -0.0634211 0
0.111965 -0.0610526 0
0.109064 -0.0586842 0
0.106163 -0.0563158 0
0.103262 -0.0539474 0
0.100361 -0.0515789 0
0.0974602 -0.0492105 0
0.0945593 -0.0468421 0
0.0916584 -0.0444737 0
0.0887575 -0.0421053 0
0.0858567 -0.0397368 0
0.0829558 -0.0373684 0
0.0782695 -0.0321179 0
0.0764517 -0.0292561 0
0.0746002 -0.026416 0
0.072713 -0.0235995 0
0.0707885 -0.0208084 0
0.0688248 -0.0180447 0
0.0668197 -0.0153109 0
0.064771 -0.0126096 0
0.0626765 -0.00994373 0
0.0605336 -0.00731663 0
0.0583395 -0.00473208 0
0.0560914 -0.00219437 0
0.0537863 0.000291632 0
0.051421 0.00272041 0
0.0489922 0.00508564 0
0.0464964 0.00738012 0
0.0439303 0.00959562 0
0.0412905 0.0117228 0
0.038574 0.0137509 0
0.035778 0.0156678 0
0.0329005 0.0174601 0
0.0299406 0.0191127 0
0.0268988 0.020609 0
0.0237776 0.0219317 0
0.0205821 0.0230627 0
0.0173201 0.0239842 0
0.0140027 0.0246801 0
0.010644 0.0251366 0
0.00726082 0.0253442 0
0.0038716 0.0252983 0
-0.00344171 0.0239286 0
-0.00737862 0.0228571 0
-0.0113155 0.0217857 0
-0.0152525 0.0207143 0
-0.0191894 0.0196429 0
-0.0231263 0.0185714 0
-0.0270632 0.0175 0
-0.0310001 0.0164286 0
-0.034937 0.0153571 0
-0.0388739 0.0142857 0
-0.0428108 0.0132143 0
-0.0467478 0.0121429 0
-0.0506847 0.0110714 0
-0.0546216 0.00606309 0
-0.0546216 0.00212617 0
-0.0546216 -0.00181074 0
-0.0546216 -0.00574766 0
-0.0546216 -0.00968457 0
-0.0546216 -0.0136215 0
-0.0546216 -0.0175584 0
-0.0546216 -0.0214953 0
-0.0546216 -0.0254322 0
-0.0546216 -0.0293691 0
-0.0546216 -0.0333061 0
-0.0546216 -0.037243 0
-0.0546216 -0.0411799 0
-0.0506847 -0.0440454 -0.00551168
-0.0467478 -0.0429739 -0.00551168
-0.0428108 -0.0419025 -0.00551168
-0.0388739 -0.0408311 -0.00551168
-0.034937 -0.0397597 -0.00551168
-0.0310001 -0.0386882 -0.00551168
-0.0270632 -0.0376168 -0.00551168
-0.0231263 -0.0365454 -0.00551168
-0.0191894 -0.0354739 -0.00551168
-0.0152525 -0.0344025 -0.00551168
-0.0113155 -0.0333311 -0.00551168
-0.00737862 -0.0322597 -0.00551168
-0.00344171 -0.0311882 -0.00551168
0.0038716 -0.0298185 -0.00551168
0.00726082 -0.0297726 -0.00551168
0.010644 -0.0299802 -0.00551168
0.0140027 -0.0304367 -0.00551168
0.0173201 -0.0311326 -0.00551168
0.0205821 -0.0320541 -0.00551168
0.0237776 -0.0331851 -0.00551168
0.0268988 -0.0345078 -0.00551168
0.0299406 -0.0360041 -0.00551168
0.0329005 -0.0376567 -0.00551168
0.035778 -0.039449 -0.00551168
0.038574 -0.0413659 -0.00551168
0.0412905 -0.043394 -0.00551168
0.0439303 -0.0455212 -0.00551168
0.0464964 -0.0477367 -0.00551168
0.0489922 -0.0500312 -0.00551168
0.051421 -0.0523964 -0.00551168
0.0537863 -0.0548252 -0.00551168
0.0560914 -0.0573112 -0.00551168
0.0583395 -0.0598489 -0.00551168
0.0605336 -0.0624334 -0.00551168
0.0626765 -0.0650605 -0.00551168
0.064771 -0.0677264 -0.00551168
0.0668197 -0.0704277 -0.00551168
0.0688248 -0.0731615 -0.00551168
0.0707885 -0.0759252 -0.00551168
0.072713 -0.0787163 -0.00551168
0.0746002 -0.0815329 -0.00551168
0.0764517 -0.0843729 -0.00551168
0.0782695 -0.0872347 -0.00551168
0.0829558 -0.0924852 -0.00551168
0.0858567 -0.0948536 -0.00551168
0.0887575 -0.0972221 -0.00551168
0.0916584 -0.0995905 -0.00551168
0.0945593 -0.101959 -0.00551168
0.0974602 -0.104327 -0.00551168
0.100361 -0.106696 -0.00551168
0.103262 -0.109064 -0.00551168
0.106163 -0.111433 -0.00551168
0.109064 -0.113801 -0.00551168
0.111965 -0.116169 -0.00551168
0.114865 -0.118538 -0.00551168
0.117766 -0.120906 -0.00551168
0.120667 -0.123275 -0.00551168
0.123568 -0.125643 -0.00551168
0.126469 -0.128012 -0.00551168
0.12937 -0.13038 -0.00551168
0.132271 -0.132748 -0.00551168
0.135172 -0.13118 -0.00551168
0.135172 -0.127243 -0.00551168
0.135172 -0.123306 -0.00551168
0.135172 -0.119369 -0.00551168
0.135172 -0.115432 -0.00551168
0.135172 -0.111495 -0.00551168
0.135172 -0.107558 -0.00551168
0.135172 -0.103621 -0.00551168
0.135172 -0.0996846 -0.00551168
0.135172 -0.0957477 -0.00551168
0.135172 -0.0918107 -0.00551168
0.135172 -0.0878738 -0.00551168
0.135172 -0.0839369 -0.00551168
0.132271 -0.0776316 -0.00551168
0.12937 -0.0752632 -0.00551168
0.126469 -0.0728947 -0.00551168
0.123568 -0.0705263 -0.00551168
0.120667 -0.0681579 -0.00551168
0.117766 -0.0657895 -0.00551168
0.114865 -0.0634211 -0.00551168
0.111965 -0.0610526 -0.00551168
0.109064 -0.0586842 -0.00551168
0.106163 -0.0563158 -0.00551168
0.103262 -0.0539474 -0.00551168
0.100361 -0.0515789 -0.00551168
0.0974602 -0.0492105 -0.00551168
0.0945593 -0.0468421 -0.00551168
0.0916584 -0.0444737 -0.00551168
0.0887575 -0.0421053 -0.00551168
0.0858567 -0.0397368 -0.00551168
0.0829558 -0.0373684 -0.00551168
0.0782695 -0.0321179 -0.00551168
0.0764517 -0.0292561 -0.00551168
0.0746002 -0.026416 -0.00551168
0.072713 -0.0235995 -0.00551168
0.0707885 -0.0208084 -0.00551168
0.0688248 -0.0180447 -0.00551168
0.0668197 -0.0153109 -0.00551168
0.064771 -0.0126096 -0.00551168
0.0626765 -0.00994373 -0.00551168
0.0605336 -0.00731663 -0.00551168
0.0583395 -0.00473208 -0.00551168
0.0560914 -0.00219437 -0.00551168
0.0537863 0.000291632 -0.00551168
0.051421 0.00272041 -0.00551168
0.0489922 0.00508564 -0.00551168
0.0464964 0.00738012 -0.00551168
0.0439303 0.00959562 -0.00551168
0.0412905 0.0117228 -0.00551168
[...]
CELL_DATA 2965
SCALARS rho float
LOOKUP_TABLE default
0.533236
0.319574
0.52461
0.328152
0.54257
0.3614
0.533302
0.333533
0.363862
0.525929
0.327899
0.338747
0.426995
0.536122
0.519061
0.516145
0.526125
0.514268
0.545013
0.528418
0.533252
0.337398
0.506057
0.533657
0.536082
0.546891
0.457508
0.479207
0.330001
0.504223
0.503608
0.341515
0.553137
0.529364
0.286337
0.360884
0.528194
0.534011
0.319292
0.506516
0.529366
0.50255
0.533581
0.330115
0.305771
0.531817
0.458749
0.46859
0.320831
0.532964
0.389466
0.333045
0.318007
0.426247
0.330126
0.421686
0.339862
0.319134
0.277493
0.476708
0.515878
0.475313
0.335018
0.544339
0.483404
0.533606
0.533104
0.321678
0.307268
0.353807
0.516954
0.543535
0.533072
0.274944
0.499523
0.410193
0.533234
0.332863
0.322467
0.467784
0.533133
0.33573
0.339577
0.437711
0.476751
0.376404
0.318249
0.285552
0.54157
0.341887
0.316951
0.53195
0.517422
0.514548
0.533649
0.319934
0.457622
0.278672
0.352003
0.32619
0.471033
0.325451
0.337588
0.304795
0.346272
0.527567
0.533121
0.336943
0.31733
0.533214
0.223163
0.392798
0.468963
0.491163
0.303565
0.292465
0.501891
0.456622
0.533152
0.329776
0.533142
0.236421
0.539591
0.541327
0.48927
0.400932
0.341399
0.459503
0.531245
0.265246
0.340749
0.428542
0.532131
0.346722
0.4611
0.341568
0.42516
0.515511
0.554846
0.542341
0.34663
0.514757
0.527911
0.33214
0.296512
0.54556
0.330646
0.54155
0.555407
0.354684
0.330417
0.323014
0.337788
0.333019
0.275902
0.281108
0.533318
0.531679
0.521345
0.53608
0.453636
0.463466
0.407367
0.54298
0.351041
0.533278
0.41415
0.333922
0.532992
0.534979
0.48209
0.312044
0.436178
0.51911
0.547701
0.415482
0.512551
0.357492
0.255034
0.417635
0.345748
0.259413
0.32175
0.306569
0.555333
0.533326
0.324866
0.335587
0.389432
0.328526
0.319864
0.320812
0.450858
0.299009
0.53301
0.464285
0.534383
0.48372
0.440579
0.324954
0.334863
0.296793
0.526669
0.439668
0.53327
0.299382
0.429518
0.533018
0.517167
0.534451
0.494212
0.401364
0.339166
0.351175
0.505934
0.347946
0.459094
0.330006
0.516158
0.328198
0.364576
0.338836
0.459077
0.383679
0.544509
0.260509
0.533223
0.522369
0.3161
0.477487
0.32716
0.26683
0.535388
0.317594
0.532568
0.535059
0.330838
0.530889
0.331491
0.352177
0.372007
0.327818
0.543552
0.522784
0.342364
0.230015
0.525565
0.532938
0.448062
0.50519
0.326068
0.331192
0.533333
0.33755
0.473175
0.277835
0.265571
0.533087
0.532504
0.320591
0.462538
0.326918
0.542836
0.360607
0.535072
0.533146
0.268407
0.47321
0.521263
0.304807
0.330664
0.533773
0.332248
0.550715
0.510008
0.332385
0.513189
0.513593
0.551878
0.530212
0.546494
0.46331
0.529144
0.532865
0.31633
0.324766
0.517816
0.538148
0.339901
0.531047
0.462627
0.276754
0.339813
0.323096
0.478446
0.325204
0.533235
0.480025
0.548324
0.326694
0.483737
0.483793
0.476829
0.532701
0.329578
0.235239
0.544944
0.533288
0.533292
0.329028
0.339188
0.481182
0.279599
0.307559
0.483569
0.533191
0.482236
0.219116
0.326088
0.482765
0.489051
0.327448
0.533581
0.533269
0.337318
0.414246
0.532195
0.514912
0.278092
0.326234
0.533214
0.346392
0.537876
0.365809
0.539483
0.394699
0.374698
0.328635
0.339953
0.301183
0.508784
0.54704
0.525405
0.543328
0.482763
0.474209
0.316237
0.533572
0.547568
0.341943
0.321551
0.533287
0.325432
0.515015
0.466551
0.32776
0.333398
0.342452
0.32862
0.533228
0.339446
0.340735
0.379981
0.327708
0.533089
0.533365
0.471265
0.533295
0.328306
0.528916
0.331302
0.533238
0.325834
0.340129
0.535537
0.467621
0.268408
0.263209
0.532152
0.362669
0.499789
0.513727
0.324
0.530444
0.289415
0.344537
0.533401
0.299182
0.535966
0.282573
0.379731
0.334752
0.536417
0.46901
0.434837
0.532975
0.309122
0.546738
0.345792
0.30841
0.549664
0.289713
0.540125
0.421194
0.488091
0.293096
0.295768
0.313084
0.287494
0.31275
0.349989
0.529266
0.533341
0.53384
0.532966
0.345349
0.538647
0.466536
0.517617
0.245499
0.532422
0.33947
0.480747
0.471055
0.286244
0.533024
0.358398
0.522134
0.316626
0.48721
0.534439
0.286578
0.53149
0.252539
0.537992
0.324001
0.31933
0.416514
0.544204
0.540628
0.395122
0.259944
0.246173
0.419519
0.543259
0.527175
0.533139
0.531211
0.536684
0.318274
0.513762
0.481941
0.311565
0.240683
0.303399
0.49845
0.535416
0.366541
0.382117
0.373105
0.354917
0.527073
0.533885
0.532989
0.549193
0.400906
0.532865
0.535111
0.328263
0.539622
0.350909
0.34822
0.528416
0.534197
0.53699
0.545651
0.327917
0.304809
0.553217
0.530447
0.328699
0.528887
0.50344
0.533852
0.360073
0.323976
0.535301
0.327999
0.452564
0.534382
0.53517
0.339076
0.532963
0.326848
0.331083
0.319992
0.352981
0.532885
0.364394
0.515631
0.296939
0.329703
0.525544
0.340386
0.298965
0.337819
0.275391
0.357869
0.3036
0.311725
0.426785
0.440581
0.324577
0.354151
0.536328
0.327779
0.395986
0.532307
0.532864
0.488186
0.485675
0.433047
0.445464
0.29555
0.372253
0.532494
0.497105
0.243595
0.506228
0.250788
0.296007
0.284315
0.533472
0.551067
0.298241
0.493865
0.530649
0.284966
0.293833
0.541557
0.533326
0.354107
0.544289
0.379345
0.341405
0.541936
0.297145
0.454684
0.527567
0.39654
0.542577
0.319236
0.354704
0.536762
0.376064
0.343421
0.359944
0.318073
0.324269
0.532957
0.539531
0.521736
0.318517
0.251795
0.346029
0.300708
0.529896
0.234961
0.42012
0.30215
0.529833
0.532848
0.314087
0.533051
0.392924
0.485786
0.312988
0.525771
0.53347
0.554795
0.534861
0.533229
0.524353
0.361724
0.421856
0.353992
0.52811
0.323026
0.272059
0.531272
0.533069
0.532547
0.32451
0.332568
0.538699
0.541109
0.313203
0.533314
0.286785
0.311508
0.328504
0.5538
0.537251
0.522661
0.306246
0.31246
0.360226
0.32896
0.53671
0.53309
0.546613
0.32236
0.317126
0.455844
0.547592
0.544131
0.508744
0.533221
0.411804
0.536106
0.541612
0.514741
0.330166
0.536353
0.494367
0.533221
0.53548
0.546466
0.480914
0.380427
0.545861
0.342903
0.54412
0.533131
0.219634
0.533132
0.464569
0.535126
0.302631
0.329028
0.533213
0.298835
0.311382
0.548655
0.300916
0.416626
0.537293
0.283338
0.546355
0.326758
0.490942
0.531636
0.527262
0.4978
0.321084
0.319403
0.520607
0.435653
0.326487
0.48052
0.32556
0.532988
0.330672
0.461547
0.516944
0.533053
0.330451
0.492577
0.351597
0.412497
0.416138
0.332109
0.28175
0.323448
0.533053
0.459735
0.434955
0.317002
0.533009
0.486217
0.317455
0.532981
0.331024
0.45615
0.518187
0.533194
0.536574
0.299867
0.340387
0.533254
0.544797
0.523292
0.485797
0.54293
0.480358
0.46643
0.32065
0.503676
0.389673
0.350687
0.358871
0.533325
0.549913
0.504906
0.394608
0.325071
0.541094
0.346401
0.350044
0.407629
0.322
0.457739
0.335179
0.533304
0.329013
0.322454
0.416394
0.544571
0.331236
0.318627
0.549265
0.54327
0.55127
0.316828
0.317931
0.538453
0.326315
0.319778
0.341775
0.436773
0.522577
0.268256
0.550745
0.335824
0.507012
0.532595
0.318865
0.411517
0.479925
0.500016
0.489766
0.539558
0.536924
0.544625
0.534728
0.533154
0.339452
0.379651
0.520265
0.28146
0.543098
0.524871
0.269978
0.531364
0.470919
0.508069
0.539659
0.462594
0.531478
0.324229
0.488512
0.342385
0.296591
0.533914
0.533209
0.252278
0.342459
0.530931
0.395025
0.45061
0.269067
0.250827
0.54912
0.514761
0.543484
0.510494
0.454001
0.381994
0.452088
0.333159
0.533114
0.502911
0.492328
0.342859
0.382545
0.544205
0.497167
0.538495
0.157157
0.533123
0.326656
0.318913
0.331438
0.517769
0.519533
0.540578
0.47168
0.352357
0.532966
0.388092
0.546322
0.547378
0.489695
0.328955
0.31104
0.533521
0.34378
0.427868
0.471948
0.314734
0.373332
0.516456
0.542633
0.322493
0.532993
0.531959
0.3278
0.533014
0.534904
0.538366
0.364097
0.336413
0.542749
0.319061
0.334132
0.410008
0.53323
0.319234
0.377582
0.312854
0.304604
0.537914
0.332361
0.329582
0.542466
0.331529
0.329992
0.551937
0.537956
0.534649
0.533168
0.487948
0.343382
0.551714
0.532423
0.314195
0.535338
0.532753
0.53319
0.533195
0.363839
0.533287
0.339804
0.533271
0.317828
0.533244
0.340088
0.518038
0.31648
0.540658
0.545484
0.550685
0.486084
0.53346
0.535462
0.306785
0.533452
0.263796
0.53319
0.537972
0.324859
0.4069
0.300236
0.331134
0.53326
0.365487
0.532284
0.126213
0.505901
0.507232
0.540098
0.398924
0.342568
0.246294
0.328853
0.275465
0.537261
0.368687
0.323248
0.53453
0.341215
0.364964
0.531247
0.532909
0.499073
0.535404
0.259783
0.487662
0.314352
0.533109
0.533726
0.5256
0.283576
0.540042
0.535757
0.541254
0.495124
0.532627
0.384822
0.532949
0.541001
0.43942
0.53329
0.313753
0.518566
0.355131
0.416132
0.518634
0.491
0.530009
0.475333
0.487271
0.536445
0.319659
0.523613
0.328728
0.348122
0.54131
0.51169
0.476409
0.519947
0.531378
0.53312
0.536704
0.533032
0.533357
0.534393
0.552426
0.357901
0.499463
0.529675
0.328351
0.533997
0.315909
0.473441
0.307141
0.533261
0.329475
0.327118
0.30594
0.467157
0.534553
0.430063
0.515714
0.304198
0.347067
0.532943
0.532951
0.311631
0.498571
0.446704
0.299996
0.50149
0.339192
0.314575
0.534168
0.478588
0.32256
0.517574
0.531434
0.521683
0.326869
0.511971
0.241739
0.532976
0.385225
0.509808
0.315379
0.548639
0.314367
0.312881
0.323001
0.509572
0.298578
0.494654
0.54687
0.468317
0.357314
0.311913
0.541862
0.314027
0.233407
0.325983
0.535296
0.321767
0.312185
0.27819
0.499239
0.339833
0.335644
0.340267
0.532716
0.549492
0.337803
0.537598
0.537481
0.494442
0.336542
0.325979
0.534526
0.323577
0.555151
0.330828
0.528963
0.322741
0.156037
0.51285
0.323473
0.334574
0.325374
0.533061
0.303601
0.445128
0.537087
0.322411
0.516301
0.326334
0.549855
0.417374
0.323788
0.336427
0.53468
0.442684
0.533196
0.317118
0.344627
0.432091
0.533168
0.31653
0.297526
0.32351
0.415776
0.53684
0.34692
0.447993
0.5309
0.5333
0.523837
0.326957
0.535868
0.32656
0.534272
0.534276
0.457562
0.350051
0.483864
0.537813
0.322783
0.53596
0.538094
0.342575
0.333269
0.300745
0.255966
0.54072
0.325599
0.53296
0.387439
0.533246
0.495577
0.374882
0.510436
0.309513
0.477918
0.328245
0.532876
0.532052
0.230916
0.335557
0.341113
0.466173
0.552692
0.326869
0.310807
0.349805
0.453538
0.546679
0.253969
0.328415
0.524708
0.537063
0.527705
0.32841
0.333656
0.523516
0.532867
0.317651
0.332895
0.439143
0.549731
0.487722
0.312565
0.533368
0.53434
0.314105
0.537838
0.320974
0.539954
0.320054
0.355667
0.321923
0.276758
0.533147
0.335569
0.322327
0.33854
0.343228
0.479352
0.529898
0.550147
0.320663
0.533256
0.535155
0.53411
0.547514
0.532604
0.54783
0.549739
0.548439
0.538402
0.531693
0.28529
0.484067
0.549443
0.32457
0.54036
0.544717
0.536141
0.534591
0.318416
0.542238
0.533052
0.536311
0.339712
0.501459
0.528981
0.533014
0.529117
0.323843
0.485134
0.340799
0.416737
0.325173
0.323783
0.314244
0.327866
0.533372
0.53419
0.521248
0.322018
0.53402
0.532973
0.536925
0.326984
0.338925
0.517252
0.311588
0.318402
0.301784
0.536337
0.422214
0.534051
0.300533
0.546056
0.533086
0.453984
0.539429
0.341235
0.550016
0.534746
0.512118
0.539071
0.534051
0.519119
0.327078
0.361829
0.341375
0.532948
0.311357
0.534577
0.519005
0.488231
0.335138
0.362053
0.483506
0.540196
0.533102
0.336452
0.524171
0.478151
0.256309
0.533182
0.330853
0.330231
0.311573
0.325775
0.307787
0.539307
0.535755
0.552312
0.441435
0.53259
0.53284
0.515224
0.533241
0.546592
0.548655
0.532763
0.532992
0.329958
0.533328
0.52672
0.426194
0.321012
0.502894
0.296416
0.536977
0.367906
0.539214
0.545773
0.333238
0.536978
0.334286
0.533648
0.529676
0.547525
0.488921
0.516033
0.545523
0.532777
0.337302
0.44602
0.42259
0.246334
0.53338
0.537503
0.4373
0.551173
0.525461
0.533199
0.295031
0.323611
0.527212
0.54631
0.329521
0.214341
0.512017
0.534108
0.533996
0.272088
0.452458
0.511827
0.531597
0.323203
0.53303
0.484873
0.525228
0.505922
0.439349
0.532721
0.294279
0.530714
0.320543
0.303451
0.533294
0.350772
0.35133
0.323066
0.524747
0.50623
0.439732
0.533115
0.432044
0.376109
0.321095
0.542139
0.531404
0.539912
0.490196
0.251635
0.52156
0.434543
0.319801
0.530983
0.53725
0.330185
0.535942
0.528813
0.533222
0.448695
0.532686
0.361896
0.533508
0.52932
0.532974
0.339223
0.525085
0.383273
0.50876
0.533243
0.544417
0.52958
0.533371
0.534054
0.531559
0.516599
0.320923
0.541242
0.511153
0.341621
0.49454
0.535908
0.551204
0.494889
0.321073
0.531179
0.340117
0.545682
0.490316
0.536658
0.3338
0.512525
0.533423
0.533203
0.524944
0.475257
0.532969
0.465845
0.388304
0.322507
0.284415
0.533245
0.335984
0.286784
0.537034
0.331983
0.543684
0.316707
0.534607
0.331495
0.331774
0.520726
0.395588
0.298782
0.526679
0.532262
0.53722
0.350083
0.503229
0.532524
0.530174
0.325041
0.533187
0.533216
0.323006
0.479741
0.461964
0.523626
0.348992
0.392646
0.510347
0.315101
0.538704
0.346178
0.334709
0.533012
0.387884
0.504637
0.330826
0.538822
0.423283
0.53314
0.194975
0.337147
0.533042
0.359443
0.533001
0.339727
0.533887
0.476819
0.468012
0.532999
0.501047
0.242798
0.534524
0.549037
0.53068
0.533228
0.302243
0.339864
0.336706
0.3351
0.532954
0.342771
0.513018
0.326482
0.531981
0.534156
0.532862
0.326044
0.533849
0.326567
0.534415
0.540289
0.367489
0.532717
0.516804
0.323122
0.518562
0.309709
0.34927
0.549827
0.335837
0.543015
0.225403
0.339373
0.510872
0.373221
0.538799
0.327766
0.461845
0.532223
0.528803
0.385751
0.250291
0.324721
0.533047
0.533056
0.340429
0.535319
0.321509
0.531099
0.321336
0.33058
0.464746
0.473905
0.420383
0.491275
0.533081
0.493902
0.473404
0.53556
0.533075
0.337088
0.534798
0.363751
0.352887
0.493191
0.409207
0.395838
0.443003
0.331394
0.511853
0.532969
0.535416
0.325223
0.331216
0.444372
0.506374
0.533265
0.546064
0.326316
0.498316
0.531739
0.502532
0.44228
0.323692
0.321772
0.337241
0.5557
0.537008
0.302708
0.311926
0.437194
0.326553
0.549703
0.51317
0.32925
0.532938
0.406441
0.540172
0.534886
0.328347
0.368882
0.504279
0.332431
0.395735
0.531948
0.276944
0.329615
0.327831
0.507705
0.536131
0.506233
0.342981
0.324031
0.529306
0.534258
0.491918
0.538618
0.327281
0.341694
0.34286
0.497761
0.300258
0.338732
0.537665
0.54161
0.513081
0.320752
0.342497
0.341775
0.533154
0.306386
0.532707
0.533292
0.528557
0.430488
0.531628
0.549623
0.331921
0.326775
0.535524
0.330402
0.467277
0.524724
0.541684
0.43613
0.309161
0.289878
0.541038
0.405612
0.304616
0.53384
0.53288
0.298455
0.325174
0.512208
0.444365
0.334342
0.347853
0.540091
0.489804
0.525651
0.465916
0.349389
0.287474
0.362146
0.384318
0.309039
0.533171
0.527154
0.469232
0.508653
0.331868
0.501734
0.363143
0.532306
0.54571
0.339662
0.267065
0.529111
0.38893
0.471985
0.533963
0.315479
0.529413
0.528253
0.532787
0.533088
0.498006
0.368795
0.31776
0.319556
0.510381
0.533129
0.510536
0.444108
0.327192
0.317391
0.493373
0.329393
0.538069
0.532811
0.531534
0.339924
0.323547
0.46385
0.504037
0.533102
0.523769
0.533389
0.533141
0.53533
0.474088
0.25435
0.532971
0.494313
0.534612
0.330386
0.529017
0.424712
0.526012
0.552906
0.446212
0.491717
0.530729
0.508439
0.533192
0.32994
0.529798
0.551054
0.365928
0.500649
0.310018
0.304675
0.533158
0.53324
0.349489
0.483442
0.532794
0.347513
0.337981
0.550743
0.550764
0.471056
0.365059
0.496299
0.329306
0.542684
0.549415
0.32359
0.453374
0.498562
0.326196
0.325807
0.358929
0.535703
0.525395
0.325954
0.366866
0.342865
0.350322
0.346827
0.496075
0.327272
0.551812
0.534934
0.541096
0.333628
0.53208
0.440233
0.531448
0.446328
0.527879
0.328873
0.298495
0.331712
0.533255
0.336036
0.326876
0.492332
0.337965
0.533043
0.506659
0.426735
0.318162
0.321292
0.519879
0.535614
0.526115
0.521438
0.542565
0.329017
0.372164
0.313859
0.50907
0.534108
0.325431
0.510809
0.290759
0.345451
0.533267
0.337209
0.335447
0.241887
0.374792
0.3337
0.533584
0.530248
0.536698
0.335343
0.532717
0.542036
0.325423
0.533598
0.37699
0.539408
0.365093
0.391461
0.532455
0.328552
0.248769
0.527975
0.523188
0.322325
0.546239
0.497216
0.532655
0.400726
0.3282
0.501494
0.533911
0.36455
0.380767
0.420666
0.395951
0.533176
0.341239
0.322012
0.541094
0.500286
0.351635
0.328573
0.531555
0.328352
0.294594
0.333441
0.454699
0.544592
0.33219
0.539577
0.324871
0.312842
0.339993
0.405554
0.33996
0.538304
0.333447
0.331096
0.481523
0.538605
0.358359
0.533038
0.328757
0.323384
0.508233
0.552516
0.522891
0.513475
0.515615
0.546017
0.325385
0.539066
0.293253
0.533129
0.525627
0.411445
0.525281
0.533252
0.533601
0.532919
0.436865
0.336308
0.429147
0.336252
0.497364
0.532043
0.497932
0.318412
0.534697
0.369164
0.533111
0.324213
0.304534
0.557035
0.303345
0.52727
0.552861
0.3722
0.335923
0.329685
0.532701
0.394817
0.247517
0.53989
0.327558
0.524724
0.339197
0.350664
0.321499
0.535129
0.391028
0.533241
0.326651
0.353655
0.533808
0.532229
0.282052
0.359317
0.271956
0.481781
0.333797
0.520036
0.530309
0.533295
0.236499
0.333626
0.450989
0.5301
0.548651
0.531777
0.309508
0.511074
0.537412
0.533278
0.533152
0.330301
0.519144
0.319885
0.442669
0.54104
0.537219
0.528424
0.545436
0.489304
0.53157
0.543779
0.532667
0.521031
0.53535
0.53272
0.535061
0.327309
0.329519
0.533476
0.475665
0.533245
0.533218
0.548672
0.520098
0.545112
0.338545
0.325447
0.53307
0.32868
0.321301
0.342627
0.53363
0.522344
0.533053
0.505715
0.520212
0.323562
0.537694
0.325941
0.32453
0.545668
0.5236
0.523557
0.400737
0.395915
0.341145
0.324565
0.389297
0.312479
0.362549
0.543782
0.309002
0.530828
0.33265
0.539312
0.531584
0.282535
0.333551
0.492356
0.533131
0.330877
0.508024
0.268088
0.318103
0.327407
0.450667
0.535031
0.533131
0.53332
0.221632
0.364326
0.283705
0.349376
0.533229
0.547335
0.538259
0.341807
0.326292
0.532974
0.532288
0.536462
0.319965
0.479582
0.465621
0.543163
0.43169
0.350411
0.341219
0.331338
0.53521
0.331481
0.329527
0.533269
0.311736
0.533429
0.336548
0.371872
0.400795
0.33264
0.545572
0.533086
0.533427
0.443783
0.555188
0.510126
0.469373
0.326859
0.507572
0.530276
0.509248
0.535819
0.531293
0.539672
0.425189
0.53189
0.534704
0.377164
0.332823
0.549173
0.402668
0.532068
0.343164
0.546496
0.372748
0.525767
0.533736
0.507349
0.532409
0.538849
0.514556
0.315057
0.345867
0.536951
0.547127
0.532532
0.435477
0.544091
0.448987
0.494686
0.532849
0.472329
0.460343
0.540073
0.533321
0.344093
0.325149
0.533714
0.500555
0.334197
0.353704
0.425335
0.533052
0.533207
0.550837
0.343447
0.523678
0.313589
0.535998
0.330361
0.544798
0.282395
0.549572
0.354503
0.531325
0.446125
0.324822
0.293548
0.4718
0.336411
0.478479
0.325475
0.53328
0.533095
0.529747
0.522143
0.53387
0.534845
0.533041
0.550062
0.540477
0.499466
0.515059
0.491247
0.538148
0.336658
0.500747
0.498142
0.531008
0.325908
0.496039
0.545291
0.533137
0.33906
0.3177
0.341233
0.544241
0.494065
0.319567
0.498257
0.39145
0.533098
0.312748
0.413294
0.335078
0.303613
0.553173
0.318781
0.507373
0.327973
0.551371
0.355921
0.533268
0.502502
0.528919
0.360353
0.338538
0.351216
0.514483
0.322488
0.341802
0.341418
0.540027
0.514948
0.545004
0.521193
0.531118
0.508592
0.375991
0.33785
0.529167
0.321893
0.45132
0.52625
0.550568
0.20296
0.291599
0.519924
0.533104
0.40951
0.524862
0.534607
0.518074
0.342576
0.542836
0.51885
0.529782
0.531557
0.322603
0.533167
0.328483
0.53138
0.541711
0.503701
0.532143
0.356064
0.537026
0.218964
0.355709
0.495056
0.506917
0.52756
0.451905
0.336673
0.530584
0.535993
0.32215
0.330908
0.303446
0.549265
0.342119
0.288105
0.334228
0.336993
0.318728
0.37101
0.542671
0.309921
0.53892
0.521783
0.330366
0.534808
0.308226
0.548431
0.308422
0.456029
0.316483
0.52413
0.534141
0.399476
0.495501
0.532942
0.521156
0.320065
0.476619
0.432199
0.321442
0.320229
0.405331
0.282698
0.544273
0.270125
0.307911
0.331407
0.533104
0.527637
0.32409
0.336634
0.545018
0.332613
0.331268
0.532981
0.324175
0.304504
0.362477
0.552422
0.502507
0.544633
0.340885
0.290827
0.538298
0.518235
0.533129
0.397189
0.504729
0.527778
0.417004
0.404249
0.330566
0.31272
0.239038
0.493676
0.24871
0.547079
0.511949
0.532833
0.34332
0.413031
0.420805
0.558382
0.31328
0.483228
0.238154
0.490857
0.326864
0.282031
0.29764
0.537563
0.330258
0.551537
0.341715
0.382861
0.329441
0.469208
0.324625
0.543381
0.319843
0.500965
0.486132
0.32937
0.533937
0.534051
0.287979
0.548174
0.369178
0.335521
0.542464
0.315834
0.515535
0.394006
0.219318
0.532556
0.319298
0.357589
0.339479
0.360539
0.324099
0.51342
0.438478
0.522543
0.546929
0.529137
0.543018
0.411276
0.537377
0.31096
0.534188
0.333111
0.525119
0.329728
0.393213
0.521594
0.548779
0.535156
0.357358
0.433674
0.344388
0.364242
0.360649
0.221991
0.536671
0.409342
0.546986
0.532567
0.484779
0.538715
0.53457
0.397712
0.32301
0.361711
0.541211
0.487379
0.501712
0.533746
0.551474
0.419778
0.287032
0.344889