# vtk DataFile Version 1.0
unstructured grid
ascii
DATASET UNSTRUCTURED_GRID
points 3226 float
0.0796578 -0.059106 0
0.00128732 0.00159165 0
0.00227961 -0.00102548 0
0.0791586 -0.0598787 0
-0.0546216 0.01 0
0.000495206 0.025 0
0.0800549 -0.035 0
0.135172 -0.08 0
-0.0546216 -0.0451168 0
0.000495206 -0.0301168 0
0.0800549 -0.0901168 0
0.135172 -0.135117 0
-0.0546216 -0.0451168 -0.00551168
0.000495206 -0.0301168 -0.00551168
0.0800549 -0.0901168 -0.00551168
0.135172 -0.135117 -0.00551168
0.135172 -0.08 -0.00551168
0.0800549 -0.035 -0.00551168
0.000495206 0.025 -0.00551168
-0.0546216 0.01 -0.00551168
0.00128732 0.00159165 -0.00551168
0.00227961 -0.00102548 -0.00551168
0.0791586 -0.0598787 -0.00551168
0.0796578 -0.059106 -0.00551168
0.00110182 -0.000823821 0
0.000571683 -0.000188043 0
0.000561313 0.000639162 0
0.00189316 0.00207203 0
0.00260228 0.00255358 0
0.0033966 0.00307293 0
0.00428861 0.00362634 0
0.00529726 0.0041979 0
0.00644092 0.00476696 0
0.00773158 0.0053187 0
0.00918011 0.00583593 0
0.010799 0.00628751 0
0.012597 0.00663225 0
0.0145725 0.0068517 0
0.0167206 0.0069338 0
0.0190349 0.00685819 0
0.0215031 0.00658621 0
0.0241038 0.00607459 0
0.026821 0.00533786 0
0.0296245 0.00434523 0
0.0324763 0.00306927 0
0.0353199 0.00146906 0
0.0381488 -0.00039338 0
0.0409131 -0.00252802 0
0.0435632 -0.00493276 0
0.0460882 -0.0075571 0
0.0484881 -0.0103478 0
0.0506782 -0.0133217 0
0.0526651 -0.016422 0
0.0546139 -0.0195019 0
0.0565301 -0.022529 0
0.0584009 -0.0254846 0
0.0602154 -0.0283513 0
0.061964 -0.031114 0
0.0636389 -0.0337601 0
0.0652336 -0.0362795 0
0.0667431 -0.0386651 0
0.0681656 -0.0409111 0
0.0694983 -0.0430158 0
0.0707356 -0.0449823 0
0.071886 -0.0468071 0
0.0729575 -0.04849 0
0.0739438 -0.0500408 0
0.0748444 -0.0514675 0
0.0756707 -0.0527715 0
0.0764313 -0.053958 0
0.0771224 -0.0550398 0
0.0777384 -0.0560288 0
0.0782803 -0.0569318 0
0.0787691 -0.0577448 0
0.0792251 -0.0584672 0
0.0800494 -0.0597378 0
0.0797987 -0.0601582 0
0.0786655 -0.059391 0
0.0781259 -0.0588425 0
0.0775539 -0.0582102 0
0.0769587 -0.0574783 0
0.0763492 -0.0566339 0
0.075723 -0.0556725 0
0.0750452 -0.0546094 0
0.0742996 -0.0534457 0
0.073478 -0.0521785 0
0.072577 -0.0508019 0
0.0715904 -0.049313 0
0.0705098 -0.047712 0
0.069328 -0.0459996 0
0.0680378 -0.0441794 0
0.066632 -0.0422571 0
0.0651046 -0.0402413 0
0.0634508 -0.0381431 0
0.0616683 -0.0359754 0
0.0597581 -0.033753 0
0.0577255 -0.0314906 0
0.0555808 -0.0292024 0
0.0533388 -0.0269013 0
0.0510024 -0.0246151 0
0.0485693 -0.0223811 0
0.0460535 -0.0202228 0
0.0434788 -0.0181535 0
0.0408704 -0.0161833 0
0.0382442 -0.0143327 0
0.0356165 -0.0126209 0
0.0330065 -0.0110594 0
0.0304368 -0.00965062 0
0.0279338 -0.00838121 0
0.0255194 -0.00723697 0
0.0231965 -0.00623664 0
0.020983 -0.00535765 0
0.0188891 -0.00458677 0
0.0169193 -0.00391673 0
0.0150754 -0.00334068 0
0.0133572 -0.00285262 0
0.0117634 -0.0024437 0
0.0102912 -0.00210643 0
0.0089363 -0.00183343 0
0.00769424 -0.00161552 0
0.00655956 -0.00144452 0
0.00552632 -0.00131235 0
0.00458815 -0.00121216 0
0.00373885 -0.00113394 0
0.00297202 -0.00106855 0
-0.0506847 -0.0440454 0
-0.0467478 -0.0429739 0
-0.0428108 -0.0419025 0
-0.0388739 -0.0408311 0
-0.034937 -0.0397597 0
-0.0310001 -0.0386882 0
-0.0270632 -0.0376168 0
-0.0231263 -0.0365454 0
-0.0191894 -0.0354739 0
-0.0152525 -0.0344025 0
-0.0113155 -0.0333311 0
-0.00737862 -0.0322597 0
-0.00344171 -0.0311882 0
0.0038716 -0.0298185 0
0.00726082 -0.0297726 0
0.010644 -0.0299802 0
0.0140027 -0.0304367 0
0.0173201 -0.0311326 0
0.0205821 -0.0320541 0
0.0237776 -0.0331851 0
0.0268988 -0.0345078 0
0.0299406 -0.0360041 0
0.0329005 -0.0376567 0
0.035778 -0.039449 0
0.038574 -0.0413659 0
0.0412905 -0.043394 0
0.0439303 -0.0455212 0
0.0464964 -0.0477367 0
0.0489922 -0.0500312 0
0.051421 -0.0523964 0
0.0537863 -0.0548252 0
0.0560914 -0.0573112 0
0.0583395 -0.0598489 0
0.0605336 -0.0624334 0
0.0626765 -0.0650605 0
0.064771 -0.0677264 0
0.0668197 -0.0704277 0
0.0688248 -0.0731615 0
0.0707885 -0.0759252 0
0.072713 -0.0787163 0
0.0746002 -0.0815329 0
0.0764517 -0.0843729 0
0.0782695 -0.0872347 0
0.0829558 -0.0924852 0
0.0858567 -0.0948536 0
0.0887575 -0.0972221 0
0.0916584 -0.0995905 0
0.0945593 -0.101959 0
0.0974602 -0.104327 0
0.100361 -0.106696 0
0.103262 -0.109064 0
0.106163 -0.111433 0
0.109064 -0.113801 0
0.111965 -0.116169 0
0.114865 -0.118538 0
0.117766 -0.120906 0
0.120667 -0.123275 0
0.123568 -0.125643 0
0.126469 -0.128012 0
0.12937 -0.13038 0
0.132271 -0.132748 0
0.135172 -0.13118 0
0.135172 -0.127243 0
0.135172 -0.123306 0
0.135172 -0.119369 0
0.135172 -0.115432 0
0.135172 -0.111495 0
0.135172 -0.107558 0
0.135172 -0.103621 0
0.135172 -0.0996846 0
0.135172 -0.0957477 0
0.135172 -0.0918107 0
0.135172 -0.0878738 0
0.135172 -0.0839369 0
0.132271 -0.0776316 0
0.12937 -0.0752632 0
0.126469 -0.0728947 0
0.123568 -0.0705263 0
0.120667 -0.0681579 0
0.117766 -0.0657895 0
0.114865 -0.0634211 0
0.111965 -0.0610526 0
0.109064 -0.0586842 0
0.106163 -0.0563158 0
0.103262 -0.0539474 0
0.100361 -0.0515789 0
0.0974602 -0.0492105 0
0.0945593 -0.0468421 0
0.0916584 -0.0444737 0
0.0887575 -0.0421053 0
0.0858567 -0.0397368 0
0.0829558 -0.0373684 0
0.0782695 -0.0321179 0
0.0764517 -0.0292561 0
0.0746002 -0.026416 0
0.072713 -0.0235995 0
0.0707885 -0.0208084 0
0.0688248 -0.0180447 0
0.0668197 -0.0153109 0
0.064771 -0.0126096 0
0.0626765 -0.00994373 0
0.0605336 -0.00731663 0
0.0583395 -0.00473208 0
0.0560914 -0.00219437 0
0.0537863 0.000291632 0
0.051421 0.00272041 0
0.0489922 0.00508564 0
0.0464964 0.00738012 0
0.0439303 0.00959562 0
0.0412905 0.0117228 0
0.038574 0.0137509 0
0.035778 0.0156678 0
0.0329005 0.0174601 0
0.0299406 0.0191127 0
0.0268988 0.020609 0
0.0237776 0.0219317 0
0.0205821 0.0230627 0
0.0173201 0.0239842 0
0.0140027 0.0246801 0
0.010644 0.0251366 0
0.00726082 0.0253442 0
0.0038716 0.0252983 0
-0.00344171 0.0239286 0
-0.00737862 0.0228571 0
-0.0113155 0.0217857 0
-0.0152525 0.0207143 0
-0.0191894 0.0196429 0
-0.0231263 0.0185714 0
-0.0270632 0.0175 0
-0.0310001 0.0164286 0
-0.034937 0.0153571 0
-0.0388739 0.0142857 0
-0.0428108 0.0132143 0
-0.0467478 0.0121429 0
-0.0506847 0.0110714 0
-0.0546216 0.00606309 0
-0.0546216 0.00212617 0
-0.0546216 -0.00181074 0
-0.0546216 -0.00574766 0
-0.0546216 -0.00968457 0
-0.0546216 -0.0136215 0
-0.0546216 -0.0175584 0
-0.0546216 -0.0214953 0
-0.0546216 -0.0254322 0
-0.0546216 -0.0293691 0
-0.0546216 -0.0333061 0
-0.0546216 -0.037243 0
-0.0546216 -0.0411799 0
-0.0506847 -0.0440454 -0.00551168
-0.0467478 -0.0429739 -0.00551168
-0.0428108 -0.0419025 -0.00551168
-0.0388739 -0.0408311 -0.00551168
-0.034937 -0.0397597 -0.00551168
-0.0310001 -0.0386882 -0.00551168
-0.0270632 -0.0376168 -0.00551168
-0.0231263 -0.0365454 -0.00551168
-0.0191894 -0.0354739 -0.00551168
-0.0152525 -0.0344025 -0.00551168
-0.0113155 -0.0333311 -0.00551168
-0.00737862 -0.0322597 -0.00551168
-0.00344171 -0.0311882 -0.00551168
0.0038716 -0.0298185 -0.00551168
0.00726082 -0.0297726 -0.00551168
0.010644 -0.0299802 -0.00551168
0.0140027 -0.0304367 -0.00551168
0.0173201 -0.0311326 -0.00551168
0.0205821 -0.0320541 -0.00551168
0.0237776 -0.0331851 -0.00551168
0.0268988 -0.0345078 -0.00551168
0.0299406 -0.0360041 -0.00551168
0.0329005 -0.0376567 -0.00551168
0.035778 -0.039449 -0.00551168
0.038574 -0.0413659 -0.00551168
0.0412905 -0.043394 -0.00551168
0.0439303 -0.0455212 -0.00551168
0.0464964 -0.0477367 -0.00551168
0.0489922 -0.0500312 -0.00551168
0.051421 -0.0523964 -0.00551168
0.0537863 -0.0548252 -0.00551168
0.0560914 -0.0573112 -0.00551168
0.0583395 -0.0598489 -0.00551168
0.0605336 -0.0624334 -0.00551168
0.0626765 -0.0650605 -0.00551168
0.064771 -0.0677264 -0.00551168
0.0668197 -0.0704277 -0.00551168
0.0688248 -0.0731615 -0.00551168
0.0707885 -0.0759252 -0.00551168
0.072713 -0.0787163 -0.00551168
0.0746002 -0.0815329 -0.00551168
0.0764517 -0.0843729 -0.00551168
0.0782695 -0.0872347 -0.00551168
0.0829558 -0.0924852 -0.00551168
0.0858567 -0.0948536 -0.00551168
0.0887575 -0.0972221 -0.00551168
0.0916584 -0.0995905 -0.00551168
0.0945593 -0.101959 -0.00551168
0.0974602 -0.104327 -0.00551168
0.100361 -0.106696 -0.00551168
0.103262 -0.109064 -0.00551168
0.106163 -0.111433 -0.00551168
0.109064 -0.113801 -0.00551168
0.111965 -0.116169 -0.00551168
0.114865 -0.118538 -0.00551168
0.117766 -0.120906 -0.00551168
0.120667 -0.123275 -0.00551168
0.123568 -0.125643 -0.00551168
0.126469 -0.128012 -0.00551168
0.12937 -0.13038 -0.00551168
0.132271 -0.132748 -0.00551168
0.135172 -0.13118 -0.00551168
0.135172 -0.127243 -0.00551168
0.135172 -0.123306 -0.00551168
0.135172 -0.119369 -0.00551168
0.135172 -0.115432 -0.00551168
0.135172 -0.111495 -0.00551168
0.135172 -0.107558 -0.00551168
0.135172 -0.103621 -0.00551168
0.135172 -0.0996846 -0.00551168
0.135172 -0.0957477 -0.00551168
0.135172 -0.0918107 -0.00551168
0.135172 -0.0878738 -0.00551168
0.135172 -0.0839369 -0.00551168
0.132271 -0.0776316 -0.00551168
0.12937 -0.0752632 -0.00551168
0.126469 -0.0728947 -0.00551168
0.123568 -0.0705263 -0.00551168
0.120667 -0.0681579 -0.00551168
0.117766 -0.0657895 -0.00551168
0.114865 -0.0634211 -0.00551168
0.111965 -0.0610526 -0.00551168
0.109064 -0.0586842 -0.00551168
0.106163 -0.0563158 -0.00551168
0.103262 -0.0539474 -0.00551168
0.100361 -0.0515789 -0.00551168
0.0974602 -0.0492105 -0.00551168
0.0945593 -0.0468421 -0.00551168
0.0916584 -0.0444737 -0.00551168
0.0887575 -0.0421053 -0.00551168
0.0858567 -0.0397368 -0.00551168
0.0829558 -0.0373684 -0.00551168
0.0782695 -0.0321179 -0.00551168
0.0764517 -0.0292561 -0.00551168
0.0746002 -0.026416 -0.00551168
0.072713 -0.0235995 -0.00551168
0.0707885 -0.0208084 -0.00551168
0.0688248 -0.0180447 -0.00551168
0.0668197 -0.0153109 -0.00551168
0.064771 -0.0126096 -0.00551168
0.0626765 -0.00994373 -0.00551168
0.0605336 -0.00731663 -0.00551168
0.0583395 -0.00473208 -0.00551168
0.0560914 -0.00219437 -0.00551168
0.0537863 0.000291632 -0.00551168
0.051421 0.00272041 -0.00551168
0.0489922 0.00508564 -0.00551168
0.0464964 0.00738012 -0.00551168
0.0439303 0.00959562 -0.00551168
0.0412905 0.0117228 -0.00551168
[...]
CELL_DATA 2965
SCALARS rho float
LOOKUP_TABLE default
0.532802
0.314905
0.519877
0.330297
0.538007
0.343188
0.533732
0.332575
0.346215
0.521275
0.331292
0.333627
0.421377
0.532118
0.514561
0.513333
0.522624
0.514022
0.540793
0.524706
0.532788
0.333712
0.506468
0.533544
0.531177
0.544615
0.452812
0.475648
0.335235
0.499301
0.498827
0.34113
0.549286
0.524244
0.282656
0.341004
0.52444
0.529135
0.319996
0.501642
0.525436
0.498012
0.531986
0.329073
0.294946
0.531204
0.453353
0.465227
0.320432
0.53349
0.385102
0.330665
0.307235
0.421742
0.331739
0.417126
0.338644
0.323965
0.273985
0.471854
0.511412
0.472246
0.339226
0.539782
0.481822
0.530895
0.533829
0.333338
0.306825
0.300063
0.516491
0.53974
0.533871
0.283387
0.494762
0.404682
0.533005
0.33145
0.34153
0.462733
0.534316
0.336708
0.335574
0.432158
0.475158
0.372222
0.311845
0.279344
0.541788
0.341037
0.31602
0.531332
0.514844
0.509451
0.531269
0.319494
0.452496
0.271494
0.303126
0.333216
0.466123
0.336116
0.325318
0.299063
0.300908
0.525328
0.532869
0.33126
0.321802
0.533129
0.216712
0.387051
0.464353
0.488671
0.303421
0.308685
0.503083
0.451165
0.533124
0.324536
0.534429
0.233422
0.536937
0.536825
0.488963
0.3965
0.336303
0.454628
0.525718
0.26195
0.337331
0.424013
0.527429
0.327336
0.456436
0.328135
0.419466
0.512914
0.551094
0.537824
0.333961
0.512009
0.523991
0.327913
0.290939
0.541271
0.329874
0.536918
0.551959
0.344499
0.33486
0.341844
0.328969
0.333261
0.272335
0.273817
0.533547
0.52644
0.522126
0.535623
0.448174
0.458422
0.402918
0.537527
0.340765
0.533755
0.408801
0.334089
0.533402
0.532934
0.47725
0.309986
0.431617
0.516
0.543032
0.409759
0.507574
0.353278
0.251758
0.413125
0.340966
0.255934
0.319382
0.302827
0.552199
0.533822
0.339449
0.329835
0.385065
0.340974
0.320476
0.325973
0.445541
0.301585
0.533866
0.459691
0.529618
0.480557
0.436024
0.339243
0.336007
0.293581
0.524954
0.434311
0.534043
0.292122
0.424976
0.533742
0.517262
0.529793
0.491525
0.396951
0.341192
0.341197
0.502786
0.343387
0.453872
0.321334
0.513153
0.343265
0.346324
0.332575
0.454483
0.379416
0.542511
0.257977
0.53419
0.517512
0.311674
0.472571
0.348752
0.275174
0.530918
0.31798
0.531752
0.533259
0.337972
0.52528
0.32961
0.346606
0.367646
0.337113
0.539039
0.51742
0.335608
0.225755
0.521827
0.532579
0.442494
0.501819
0.330471
0.337468
0.533596
0.33236
0.473949
0.275718
0.270881
0.533268
0.531651
0.305726
0.457913
0.322317
0.53911
0.339223
0.529242
0.533209
0.265114
0.468613
0.516558
0.299186
0.338548
0.529021
0.331906
0.547067
0.507006
0.327119
0.512229
0.510515
0.549641
0.52974
0.541525
0.46162
0.524989
0.532486
0.312256
0.320938
0.518623
0.535803
0.330831
0.526755
0.458068
0.264065
0.336732
0.32186
0.473842
0.323963
0.532938
0.475223
0.546163
0.350871
0.479023
0.479978
0.471839
0.531903
0.337534
0.232456
0.540984
0.533311
0.533121
0.328189
0.335176
0.476215
0.279717
0.306539
0.485418
0.534239
0.479792
0.212369
0.344577
0.478165
0.489574
0.33043
0.532311
0.533993
0.333297
0.408774
0.531498
0.509889
0.286602
0.321816
0.532874
0.34057
0.533453
0.361681
0.536475
0.390352
0.370155
0.324565
0.333542
0.296631
0.508995
0.54449
0.52215
0.537975
0.479133
0.469558
0.304474
0.532008
0.542829
0.303532
0.325397
0.532725
0.32515
0.512741
0.465365
0.303565
0.330602
0.342232
0.335036
0.534029
0.310391
0.335692
0.375728
0.333118
0.530373
0.53199
0.466573
0.533233
0.347612
0.528827
0.327881
0.532807
0.328503
0.337621
0.530752
0.462376
0.278292
0.259742
0.528211
0.357324
0.49517
0.510896
0.320539
0.527215
0.285642
0.342688
0.532507
0.291784
0.531501
0.279005
0.375481
0.333291
0.531721
0.464324
0.430204
0.53228
0.306384
0.541877
0.340666
0.309374
0.545215
0.291478
0.534375
0.416609
0.483605
0.28741
0.291011
0.313354
0.28281
0.313627
0.342973
0.523963
0.532012
0.531987
0.533596
0.324016
0.534036
0.461963
0.51789
0.242283
0.531674
0.340628
0.477817
0.468614
0.288127
0.533972
0.354113
0.517604
0.318684
0.482565
0.530293
0.288706
0.531233
0.249437
0.533506
0.32177
0.324631
0.411938
0.539288
0.536422
0.389638
0.265999
0.243023
0.415044
0.538281
0.523303
0.529956
0.527139
0.532903
0.322263
0.508728
0.477913
0.31152
0.236513
0.298738
0.493751
0.532599
0.362389
0.377803
0.36892
0.34504
0.526619
0.532092
0.533556
0.545124
0.396508
0.532009
0.531556
0.324028
0.535269
0.34673
0.343897
0.528402
0.53172
0.532487
0.540937
0.340641
0.313606
0.549532
0.52608
0.342019
0.526631
0.49866
0.531929
0.345738
0.322245
0.531875
0.337004
0.447608
0.531561
0.532676
0.30416
0.530976
0.345099
0.326398
0.323114
0.347245
0.531298
0.360214
0.51459
0.292017
0.33386
0.523007
0.331153
0.297597
0.306135
0.271845
0.353839
0.311667
0.319688
0.422193
0.436005
0.326672
0.340708
0.532154
0.338855
0.390653
0.531628
0.532199
0.489353
0.484992
0.427791
0.440514
0.290896
0.368053
0.53178
0.493987
0.246514
0.503639
0.242531
0.296554
0.284009
0.529224
0.548182
0.292723
0.494929
0.530154
0.281673
0.292678
0.53617
0.533431
0.350126
0.538961
0.373692
0.296862
0.536407
0.301756
0.449318
0.522379
0.391207
0.537907
0.322941
0.331998
0.53499
0.370561
0.338733
0.345658
0.308376
0.341519
0.532185
0.535208
0.519635
0.323403
0.248736
0.304934
0.298395
0.526318
0.249316
0.414401
0.301667
0.529555
0.528237
0.312713
0.533482
0.388524
0.4858
0.312321
0.525181
0.527791
0.551656
0.528987
0.533222
0.523864
0.347185
0.416453
0.344788
0.523266
0.320304
0.258947
0.530618
0.532711
0.531907
0.350022
0.334265
0.535497
0.536698
0.313874
0.532039
0.298519
0.313687
0.328427
0.549584
0.536038
0.517614
0.298742
0.311919
0.35304
0.344793
0.534427
0.533612
0.541991
0.347048
0.320175
0.451152
0.54297
0.538774
0.506729
0.533324
0.407249
0.531638
0.537409
0.514802
0.327523
0.531879
0.491016
0.533754
0.533097
0.541334
0.481922
0.376153
0.543308
0.334964
0.539831
0.532784
0.217705
0.533572
0.459785
0.530411
0.313013
0.335415
0.532232
0.295097
0.319582
0.544662
0.297141
0.412137
0.532727
0.279854
0.542562
0.325632
0.486227
0.531
0.524544
0.498529
0.316848
0.325631
0.517276
0.430159
0.321796
0.475936
0.326259
0.533146
0.340526
0.456189
0.516132
0.533636
0.331256
0.488002
0.340173
0.408048
0.410542
0.295597
0.278191
0.347306
0.533213
0.455114
0.430325
0.317289
0.533388
0.484244
0.318112
0.533325
0.323352
0.450957
0.513005
0.534246
0.533298
0.296228
0.336123
0.533167
0.543106
0.518023
0.48316
0.538128
0.475484
0.461232
0.32217
0.498899
0.385336
0.346546
0.354768
0.533337
0.545546
0.505867
0.390268
0.34458
0.53587
0.335015
0.342381
0.402375
0.327803
0.452963
0.334086
0.533878
0.326621
0.320412
0.411707
0.541694
0.325226
0.320288
0.544733
0.541235
0.547683
0.308035
0.318694
0.534044
0.32283
0.320572
0.341058
0.43216
0.521874
0.265035
0.546223
0.331388
0.502417
0.531718
0.313626
0.405992
0.475316
0.496423
0.491673
0.537546
0.535265
0.541535
0.529333
0.534085
0.319906
0.373849
0.518017
0.276764
0.539591
0.519941
0.262452
0.527917
0.469073
0.509839
0.534073
0.46194
0.526693
0.3251
0.484982
0.311485
0.292951
0.532334
0.533088
0.261346
0.337368
0.526556
0.389873
0.445573
0.262929
0.247655
0.544375
0.511437
0.541151
0.51172
0.452064
0.377607
0.446727
0.330435
0.534079
0.50021
0.489217
0.330618
0.378275
0.54028
0.494238
0.536483
0.15493
0.533438
0.326308
0.321141
0.339453
0.515819
0.519463
0.535839
0.46707
0.299665
0.533276
0.383788
0.541437
0.543624
0.486744
0.335709
0.307494
0.532055
0.304161
0.423271
0.468118
0.322601
0.349848
0.511749
0.537387
0.347867
0.533707
0.530932
0.33059
0.533534
0.531189
0.533951
0.349905
0.336667
0.537181
0.313885
0.324606
0.405558
0.532648
0.308061
0.373258
0.319653
0.300873
0.53276
0.330726
0.334292
0.540032
0.330309
0.32591
0.550172
0.533535
0.530256
0.533221
0.486786
0.338696
0.547788
0.5314
0.309882
0.534484
0.532232
0.533767
0.534032
0.349744
0.533323
0.334487
0.533545
0.313445
0.532958
0.300923
0.513773
0.312795
0.535339
0.541797
0.546693
0.481294
0.532183
0.533693
0.303393
0.531655
0.261505
0.534246
0.534262
0.34514
0.402481
0.296184
0.332518
0.534079
0.361319
0.531583
0.125445
0.502036
0.504929
0.535642
0.393295
0.331472
0.244894
0.335911
0.27171
0.532827
0.364537
0.32877
0.531866
0.304823
0.359402
0.530796
0.528881
0.49653
0.531067
0.256354
0.482979
0.309691
0.534222
0.532027
0.520091
0.27853
0.535233
0.531325
0.537088
0.493573
0.528408
0.38052
0.532854
0.535438
0.434319
0.532756
0.316355
0.514713
0.347159
0.410891
0.51577
0.486176
0.527321
0.470506
0.482501
0.53391
0.319476
0.521164
0.339965
0.330914
0.535575
0.50894
0.473768
0.514734
0.526363
0.534136
0.532111
0.5341
0.53232
0.53094
0.5483
0.341762
0.497868
0.529352
0.327239
0.528828
0.305342
0.468541
0.312914
0.532554
0.330916
0.331489
0.304129
0.463423
0.531727
0.425456
0.511696
0.312733
0.332734
0.532722
0.532389
0.312953
0.499775
0.441988
0.313011
0.502098
0.336881
0.334334
0.529886
0.473579
0.320484
0.51523
0.53097
0.521815
0.351029
0.513537
0.238872
0.533041
0.380037
0.505269
0.31361
0.544408
0.310905
0.30161
0.328451
0.511137
0.295883
0.495183
0.542037
0.464141
0.341702
0.306992
0.538835
0.311155
0.230594
0.3515
0.531628
0.322537
0.288782
0.270777
0.494497
0.300853
0.336831
0.332941
0.531802
0.546639
0.329596
0.535109
0.533801
0.491229
0.337627
0.326873
0.528939
0.329836
0.550966
0.327086
0.528913
0.321944
0.155929
0.51024
0.339697
0.341888
0.349
0.533243
0.298956
0.439614
0.53172
0.32189
0.512479
0.321259
0.545252
0.41274
0.330146
0.315741
0.53121
0.438054
0.53209
0.324653
0.304936
0.426735
0.534307
0.31628
0.309085
0.344589
0.411293
0.53175
0.332332
0.442941
0.528828
0.532299
0.523916
0.343351
0.530181
0.327281
0.529838
0.531083
0.453752
0.313973
0.485423
0.533387
0.328688
0.5352
0.53245
0.336704
0.340523
0.32842
0.264463
0.538984
0.349967
0.531938
0.383128
0.534107
0.490822
0.370675
0.507789
0.310683
0.473646
0.341296
0.532401
0.531409
0.224842
0.330611
0.334815
0.461289
0.548164
0.327284
0.305361
0.340604
0.448834
0.542702
0.250371
0.334021
0.521972
0.531224
0.523934
0.345127
0.327607
0.520528
0.532426
0.321767
0.32787
0.433503
0.545655
0.488642
0.308615
0.532345
0.532052
0.310183
0.534646
0.320238
0.5341
0.316198
0.351707
0.321035
0.273525
0.530737
0.33324
0.339393
0.339621
0.301359
0.478645
0.525116
0.545875
0.325976
0.533998
0.530562
0.53248
0.542573
0.531936
0.543796
0.545064
0.543714
0.533463
0.53085
0.287204
0.480128
0.547351
0.320328
0.535256
0.540632
0.532803
0.53215
0.315226
0.537174
0.534058
0.531637
0.335737
0.503666
0.527607
0.53204
0.524905
0.322284
0.480532
0.337892
0.41219
0.301049
0.299691
0.316894
0.352402
0.532481
0.528728
0.5182
0.328055
0.531839
0.533537
0.533994
0.334426
0.334623
0.515853
0.309523
0.314528
0.310423
0.531671
0.417067
0.531748
0.309719
0.541535
0.529333
0.449702
0.534519
0.299432
0.546247
0.5324
0.51009
0.535289
0.529537
0.513855
0.326801
0.347602
0.329891
0.532398
0.312861
0.529097
0.517654
0.490257
0.334098
0.336916
0.478841
0.538754
0.533072
0.333611
0.522364
0.473476
0.255692
0.532948
0.338882
0.32589
0.316148
0.325103
0.317264
0.535791
0.530995
0.548669
0.43583
0.527554
0.532306
0.515707
0.532809
0.542342
0.544053
0.532241
0.532411
0.341966
0.533409
0.525888
0.421632
0.343089
0.500213
0.294699
0.533433
0.362233
0.534135
0.540738
0.334534
0.531078
0.34203
0.529389
0.529512
0.542619
0.48433
0.513304
0.540468
0.532249
0.340552
0.441312
0.417915
0.24314
0.53257
0.534638
0.431795
0.546805
0.523827
0.532764
0.281289
0.338051
0.521867
0.542233
0.327843
0.206012
0.51254
0.529955
0.532009
0.268617
0.449109
0.509377
0.527519
0.346771
0.533029
0.480272
0.519859
0.501081
0.43389
0.53194
0.292804
0.526566
0.321183
0.309642
0.532644
0.34656
0.346814
0.344164
0.521351
0.507555
0.434343
0.531956
0.426526
0.364996
0.316737
0.538628
0.530459
0.534568
0.48554
0.248663
0.518592
0.429975
0.321339
0.530187
0.536419
0.33299
0.53213
0.52541
0.533553
0.443135
0.532084
0.357916
0.532454
0.529124
0.531663
0.30692
0.51984
0.377584
0.505073
0.528866
0.540656
0.528439
0.532052
0.531768
0.530993
0.514545
0.3308
0.536617
0.506241
0.335974
0.489862
0.533311
0.547454
0.496372
0.32346
0.526745
0.33636
0.540581
0.486653
0.535679
0.342001
0.509869
0.532366
0.533441
0.521069
0.474079
0.533752
0.461055
0.383994
0.343972
0.284522
0.53354
0.335783
0.285078
0.532176
0.333663
0.53902
0.317816
0.533503
0.330429
0.344782
0.517798
0.391197
0.295302
0.52717
0.531493
0.535983
0.306029
0.504561
0.531861
0.529776
0.348195
0.533836
0.532477
0.343374
0.475446
0.457039
0.520242
0.324956
0.388234
0.505353
0.317757
0.533349
0.33864
0.333626
0.532727
0.383545
0.502108
0.338788
0.537549
0.417691
0.533901
0.193419
0.341476
0.532895
0.35343
0.533926
0.339903
0.531973
0.478383
0.462706
0.533878
0.497135
0.239019
0.531624
0.544816
0.528066
0.533607
0.294323
0.332729
0.326095
0.331698
0.532765
0.343071
0.509073
0.339563
0.52792
0.529728
0.532515
0.351124
0.531976
0.322879
0.529739
0.53906
0.361026
0.531903
0.518564
0.321421
0.519228
0.315607
0.343319
0.545874
0.331511
0.540302
0.222686
0.33909
0.508391
0.380242
0.532973
0.322941
0.456429
0.531307
0.528376
0.381123
0.258469
0.32089
0.533435
0.534141
0.333069
0.530678
0.33939
0.530699
0.341166
0.329095
0.459822
0.469238
0.415597
0.494043
0.531937
0.48927
0.468875
0.531081
0.532472
0.33784
0.530008
0.327726
0.332578
0.492
0.404739
0.391387
0.438394
0.332481
0.512117
0.533674
0.534503
0.343323
0.349786
0.439909
0.502152
0.532114
0.54215
0.328822
0.494488
0.527495
0.504332
0.437694
0.347395
0.339738
0.334921
0.549053
0.532583
0.298058
0.300511
0.432637
0.347736
0.545588
0.508511
0.330701
0.532849
0.402035
0.535555
0.533855
0.337834
0.359232
0.501538
0.328943
0.391296
0.531271
0.278229
0.335663
0.347066
0.502903
0.53095
0.501496
0.295348
0.32318
0.523766
0.531838
0.490001
0.535152
0.333774
0.337586
0.337083
0.493597
0.29957
0.330189
0.533108
0.536066
0.508285
0.32038
0.340954
0.337852
0.532475
0.304481
0.528591
0.533682
0.528253
0.425343
0.531194
0.545762
0.327985
0.350461
0.531331
0.317361
0.462629
0.522437
0.537252
0.431421
0.309864
0.290845
0.538677
0.401137
0.300082
0.529343
0.53189
0.294761
0.35184
0.507929
0.438941
0.332077
0.299693
0.535607
0.485016
0.525794
0.466085
0.345488
0.288946
0.327476
0.379351
0.305482
0.53436
0.525785
0.464514
0.506272
0.334886
0.500421
0.344277
0.531624
0.54126
0.334544
0.263917
0.525137
0.384622
0.467202
0.532173
0.310176
0.528925
0.523584
0.532303
0.533576
0.500936
0.360057
0.311838
0.311824
0.505349
0.532186
0.511531
0.438831
0.332302
0.313526
0.489142
0.33115
0.53358
0.532221
0.531004
0.336078
0.34374
0.45924
0.504788
0.5343
0.524007
0.532503
0.532502
0.532367
0.474408
0.25138
0.533259
0.494065
0.529879
0.328187
0.524876
0.419835
0.526158
0.548803
0.441643
0.487015
0.526687
0.504969
0.534052
0.329983
0.529629
0.546696
0.338948
0.502645
0.310478
0.303706
0.534418
0.532267
0.30504
0.478497
0.532346
0.34188
0.337401
0.551051
0.54609
0.465873
0.361082
0.491673
0.329759
0.538576
0.544915
0.345898
0.448269
0.49426
0.328631
0.32914
0.342629
0.535005
0.526104
0.332501
0.311631
0.338205
0.342712
0.340842
0.49712
0.332406
0.54759
0.530643
0.537967
0.332831
0.530475
0.435422
0.527136
0.441778
0.527364
0.327303
0.294951
0.328773
0.528602
0.331893
0.350612
0.494469
0.331242
0.533869
0.501782
0.421232
0.314068
0.322667
0.520157
0.531307
0.525026
0.521831
0.541698
0.335203
0.361957
0.318216
0.50416
0.531914
0.35137
0.512187
0.303861
0.341235
0.532708
0.330452
0.338814
0.237783
0.369779
0.332183
0.532183
0.530348
0.534976
0.331382
0.532037
0.538733
0.352543
0.532144
0.372737
0.53483
0.349637
0.387122
0.531788
0.331391
0.247975
0.526772
0.517699
0.348092
0.541411
0.492515
0.530316
0.396344
0.325324
0.498767
0.530392
0.359964
0.375218
0.415054
0.390326
0.532866
0.334354
0.342205
0.536791
0.503629
0.341495
0.343431
0.527566
0.331341
0.293537
0.331332
0.450119
0.539879
0.331634
0.535766
0.324525
0.310708
0.34094
0.399828
0.330958
0.536919
0.333172
0.332654
0.476893
0.53424
0.354056
0.533162
0.335361
0.318841
0.507487
0.548935
0.519161
0.508413
0.516495
0.543147
0.342316
0.534708
0.293434
0.533306
0.522167
0.406968
0.520904
0.532969
0.530083
0.532249
0.431222
0.338815
0.424502
0.327574
0.499984
0.527837
0.493537
0.333354
0.533815
0.365029
0.5334
0.346417
0.299859
0.553216
0.300821
0.523364
0.548814
0.36642
0.318897
0.325389
0.53207
0.389084
0.246934
0.538174
0.324839
0.5214
0.340061
0.317383
0.310349
0.530978
0.385484
0.532955
0.347996
0.343435
0.529031
0.529294
0.278761
0.355128
0.270127
0.477158
0.330987
0.514915
0.52612
0.533256
0.233624
0.34061
0.445876
0.524314
0.543925
0.530478
0.30329
0.510402
0.532958
0.533075
0.533515
0.330703
0.518791
0.315732
0.437666
0.539653
0.532609
0.527723
0.540149
0.49253
0.528567
0.540614
0.528164
0.520432
0.533974
0.531849
0.532103
0.347779
0.326195
0.532376
0.471131
0.533066
0.53423
0.544161
0.51516
0.540722
0.336565
0.347273
0.533908
0.338085
0.342107
0.312049
0.529754
0.518238
0.532608
0.507268
0.520596
0.329634
0.533019
0.332496
0.326892
0.54214
0.522623
0.52013
0.396272
0.391528
0.33835
0.345332
0.384506
0.309734
0.357721
0.539634
0.306847
0.526509
0.332086
0.534815
0.531009
0.280637
0.33372
0.495281
0.533714
0.332543
0.505291
0.263497
0.313373
0.34537
0.446061
0.531107
0.534492
0.532656
0.218997
0.329429
0.278789
0.312161
0.534004
0.542419
0.534218
0.332614
0.332878
0.53253
0.529889
0.531947
0.312577
0.475707
0.46091
0.539162
0.427014
0.336438
0.337468
0.316002
0.530606
0.343663
0.337955
0.533875
0.312192
0.532524
0.340801
0.361576
0.39632
0.335003
0.540691
0.5341
0.532468
0.439076
0.552951
0.507303
0.468987
0.316686
0.50353
0.526383
0.504915
0.532752
0.530778
0.535192
0.420669
0.529936
0.531985
0.324326
0.331229
0.54608
0.398
0.531381
0.340885
0.542222
0.382204
0.522175
0.532092
0.504482
0.530758
0.534071
0.512766
0.318759
0.301824
0.530982
0.542835
0.531177
0.430467
0.539646
0.443666
0.490014
0.532307
0.467127
0.456027
0.535709
0.533646
0.301105
0.33167
0.531993
0.496144
0.33002
0.345444
0.42071
0.534175
0.534286
0.546616
0.33825
0.520419
0.308231
0.531689
0.326751
0.539557
0.282284
0.545842
0.351326
0.525543
0.441548
0.346087
0.294315
0.466644
0.338619
0.478483
0.324556
0.532457
0.534342
0.525923
0.523156
0.530675
0.530335
0.532593
0.545476
0.537926
0.497419
0.509817
0.493576
0.533602
0.328497
0.495979
0.493342
0.530461
0.317232
0.492406
0.540731
0.532656
0.336878
0.315506
0.333481
0.538984
0.496486
0.318394
0.495309
0.386965
0.533031
0.309744
0.408383
0.315939
0.300282
0.549294
0.315143
0.502471
0.328262
0.546954
0.344212
0.53261
0.498213
0.525041
0.338271
0.34278
0.34727
0.51296
0.324521
0.337915
0.338563
0.536007
0.516161
0.53994
0.518141
0.525376
0.508494
0.370588
0.340969
0.528514
0.339487
0.446777
0.52273
0.546063
0.200834
0.293495
0.520418
0.532622
0.404812
0.519329
0.529534
0.515231
0.332289
0.538543
0.516045
0.529787
0.531157
0.318915
0.534273
0.32832
0.52954
0.538943
0.500751
0.531439
0.351734
0.533169
0.216267
0.350129
0.496313
0.50211
0.526678
0.44714
0.333201
0.530036
0.531344
0.322623
0.340617
0.300919
0.545449
0.295745
0.278932
0.33678
0.332197
0.319679
0.366862
0.538309
0.308442
0.533521
0.521719
0.330374
0.530296
0.316085
0.543574
0.306802
0.45278
0.316374
0.524421
0.531537
0.393728
0.492055
0.531893
0.515814
0.332961
0.472076
0.426869
0.326541
0.319979
0.400814
0.285208
0.539277
0.264659
0.313761
0.327512
0.534399
0.5237
0.32256
0.326845
0.541639
0.328085
0.325952
0.533145
0.320171
0.301111
0.353884
0.548266
0.497786
0.543028
0.337156
0.292766
0.533839
0.513161
0.532731
0.392383
0.502395
0.527613
0.412474
0.399748
0.340315
0.308874
0.236057
0.489637
0.278276
0.542642
0.508169
0.528218
0.324291
0.407977
0.416198
0.555357
0.310301
0.478874
0.235215
0.487124
0.333799
0.278423
0.293273
0.532974
0.324035
0.547338
0.342944
0.378559
0.326999
0.464352
0.316662
0.538941
0.321941
0.501103
0.482113
0.33974
0.531516
0.531395
0.291607
0.544333
0.350397
0.332233
0.538201
0.309305
0.510594
0.354902
0.211372
0.531939
0.332688
0.353297
0.342428
0.343878
0.323555
0.509756
0.433224
0.523487
0.543425
0.523463
0.538837
0.405562
0.533906
0.303146
0.531776
0.328169
0.523937
0.338292
0.388648
0.522007
0.545185
0.530661
0.353091
0.428697
0.299822
0.338426
0.349394
0.219074
0.532153
0.403649
0.542874
0.531934
0.480389
0.532861
0.530782
0.393251
0.31882
0.357624
0.53616
0.482646
0.498833
0.531917
0.546968
0.415272