# vtk DataFile Version 1.0
unstructured grid
ascii
DATASET UNSTRUCTURED_GRID
points 3226 float
0.0796578 -0.059106 0
0.00128732 0.00159165 0
0.00227961 -0.00102548 0
0.0791586 -0.0598787 0
-0.0546216 0.01 0
0.000495206 0.025 0
0.0800549 -0.035 0
0.135172 -0.08 0
-0.0546216 -0.0451168 0
0.000495206 -0.0301168 0
0.0800549 -0.0901168 0
0.135172 -0.135117 0
-0.0546216 -0.0451168 -0.00551168
0.000495206 -0.0301168 -0.00551168
0.0800549 -0.0901168 -0.00551168
0.135172 -0.135117 -0.00551168
0.135172 -0.08 -0.00551168
0.0800549 -0.035 -0.00551168
0.000495206 0.025 -0.00551168
-0.0546216 0.01 -0.00551168
0.00128732 0.00159165 -0.00551168
0.00227961 -0.00102548 -0.00551168
0.0791586 -0.0598787 -0.00551168
0.0796578 -0.059106 -0.00551168
0.00110182 -0.000823821 0
0.000571683 -0.000188043 0
0.000561313 0.000639162 0
0.00189316 0.00207203 0
0.00260228 0.00255358 0
0.0033966 0.00307293 0
0.00428861 0.00362634 0
0.00529726 0.0041979 0
0.00644092 0.00476696 0
0.00773158 0.0053187 0
0.00918011 0.00583593 0
0.010799 0.00628751 0
0.012597 0.00663225 0
0.0145725 0.0068517 0
0.0167206 0.0069338 0
0.0190349 0.00685819 0
0.0215031 0.00658621 0
0.0241038 0.00607459 0
0.026821 0.00533786 0
0.0296245 0.00434523 0
0.0324763 0.00306927 0
0.0353199 0.00146906 0
0.0381488 -0.00039338 0
0.0409131 -0.00252802 0
0.0435632 -0.00493276 0
0.0460882 -0.0075571 0
0.0484881 -0.0103478 0
0.0506782 -0.0133217 0
0.0526651 -0.016422 0
0.0546139 -0.0195019 0
0.0565301 -0.022529 0
0.0584009 -0.0254846 0
0.0602154 -0.0283513 0
0.061964 -0.031114 0
0.0636389 -0.0337601 0
0.0652336 -0.0362795 0
0.0667431 -0.0386651 0
0.0681656 -0.0409111 0
0.0694983 -0.0430158 0
0.0707356 -0.0449823 0
0.071886 -0.0468071 0
0.0729575 -0.04849 0
0.0739438 -0.0500408 0
0.0748444 -0.0514675 0
0.0756707 -0.0527715 0
0.0764313 -0.053958 0
0.0771224 -0.0550398 0
0.0777384 -0.0560288 0
0.0782803 -0.0569318 0
0.0787691 -0.0577448 0
0.0792251 -0.0584672 0
0.0800494 -0.0597378 0
0.0797987 -0.0601582 0
0.0786655 -0.059391 0
0.0781259 -0.0588425 0
0.0775539 -0.0582102 0
0.0769587 -0.0574783 0
0.0763492 -0.0566339 0
0.075723 -0.0556725 0
0.0750452 -0.0546094 0
0.0742996 -0.0534457 0
0.073478 -0.0521785 0
0.072577 -0.0508019 0
0.0715904 -0.049313 0
0.0705098 -0.047712 0
0.069328 -0.0459996 0
0.0680378 -0.0441794 0
0.066632 -0.0422571 0
0.0651046 -0.0402413 0
0.0634508 -0.0381431 0
0.0616683 -0.0359754 0
0.0597581 -0.033753 0
0.0577255 -0.0314906 0
0.0555808 -0.0292024 0
0.0533388 -0.0269013 0
0.0510024 -0.0246151 0
0.0485693 -0.0223811 0
0.0460535 -0.0202228 0
0.0434788 -0.0181535 0
0.0408704 -0.0161833 0
0.0382442 -0.0143327 0
0.0356165 -0.0126209 0
0.0330065 -0.0110594 0
0.0304368 -0.00965062 0
0.0279338 -0.00838121 0
0.0255194 -0.00723697 0
0.0231965 -0.00623664 0
0.020983 -0.00535765 0
0.0188891 -0.00458677 0
0.0169193 -0.00391673 0
0.0150754 -0.00334068 0
0.0133572 -0.00285262 0
0.0117634 -0.0024437 0
0.0102912 -0.00210643 0
0.0089363 -0.00183343 0
0.00769424 -0.00161552 0
0.00655956 -0.00144452 0
0.00552632 -0.00131235 0
0.00458815 -0.00121216 0
0.00373885 -0.00113394 0
0.00297202 -0.00106855 0
-0.0506847 -0.0440454 0
-0.0467478 -0.0429739 0
-0.0428108 -0.0419025 0
-0.0388739 -0.0408311 0
-0.034937 -0.0397597 0
-0.0310001 -0.0386882 0
-0.0270632 -0.0376168 0
-0.0231263 -0.0365454 0
-0.0191894 -0.0354739 0
-0.0152525 -0.0344025 0
-0.0113155 -0.0333311 0
-0.00737862 -0.0322597 0
-0.00344171 -0.0311882 0
0.0038716 -0.0298185 0
0.00726082 -0.0297726 0
0.010644 -0.0299802 0
0.0140027 -0.0304367 0
0.0173201 -0.0311326 0
0.0205821 -0.0320541 0
0.0237776 -0.0331851 0
0.0268988 -0.0345078 0
0.0299406 -0.0360041 0
0.0329005 -0.0376567 0
0.035778 -0.039449 0
0.038574 -0.0413659 0
0.0412905 -0.043394 0
0.0439303 -0.0455212 0
0.0464964 -0.0477367 0
0.0489922 -0.0500312 0
0.051421 -0.0523964 0
0.0537863 -0.0548252 0
0.0560914 -0.0573112 0
0.0583395 -0.0598489 0
0.0605336 -0.0624334 0
0.0626765 -0.0650605 0
0.064771 -0.0677264 0
0.0668197 -0.0704277 0
0.0688248 -0.0731615 0
0.0707885 -0.0759252 0
0.072713 -0.0787163 0
0.0746002 -0.0815329 0
0.0764517 -0.0843729 0
0.0782695 -0.0872347 0
0.0829558 -0.0924852 0
0.0858567 -0.0948536 0
0.0887575 -0.0972221 0
0.0916584 -0.0995905 0
0.0945593 -0.101959 0
0.0974602 -0.104327 0
0.100361 -0.106696 0
0.103262 -0.109064 0
0.106163 -0.111433 0
0.109064 -0.113801 0
0.111965 -0.116169 0
0.114865 -0.118538 0
0.117766 -0.120906 0
0.120667 -0.123275 0
0.123568 -0.125643 0
0.126469 -0.128012 0
0.12937 -0.13038 0
0.132271 -0.132748 0
0.135172 -0.13118 0
0.135172 -0.127243 0
0.135172 -0.123306 0
0.135172 -0.119369 0
0.135172 -0.115432 0
0.135172 -0.111495 0
0.135172 -0.107558 0
0.135172 -0.103621 0
0.135172 -0.0996846 0
0.135172 -0.0957477 0
0.135172 -0.0918107 0
0.135172 -0.0878738 0
0.135172 -0.0839369 0
0.132271 -0.0776316 0
0.12937 -0.0752632 0
0.126469 -0.0728947 0
0.123568 -0.0705263 0
0.120667 -0.0681579 0
0.117766 -0.0657895 0
0.114865 -0.0634211 0
0.111965 -0.0610526 0
0.109064 -0.0586842 0
0.106163 -0.0563158 0
0.103262 -0.0539474 0
0.100361 -0.0515789 0
0.0974602 -0.0492105 0
0.0945593 -0.0468421 0
0.0916584 -0.0444737 0
0.0887575 -0.0421053 0
0.0858567 -0.0397368 0
0.0829558 -0.0373684 0
0.0782695 -0.0321179 0
0.0764517 -0.0292561 0
0.0746002 -0.026416 0
0.072713 -0.0235995 0
0.0707885 -0.0208084 0
0.0688248 -0.0180447 0
0.0668197 -0.0153109 0
0.064771 -0.0126096 0
0.0626765 -0.00994373 0
0.0605336 -0.00731663 0
0.0583395 -0.00473208 0
0.0560914 -0.00219437 0
0.0537863 0.000291632 0
0.051421 0.00272041 0
0.0489922 0.00508564 0
0.0464964 0.00738012 0
0.0439303 0.00959562 0
0.0412905 0.0117228 0
0.038574 0.0137509 0
0.035778 0.0156678 0
0.0329005 0.0174601 0
0.0299406 0.0191127 0
0.0268988 0.020609 0
0.0237776 0.0219317 0
0.0205821 0.0230627 0
0.0173201 0.0239842 0
0.0140027 0.0246801 0
0.010644 0.0251366 0
0.00726082 0.0253442 0
0.0038716 0.0252983 0
-0.00344171 0.0239286 0
-0.00737862 0.0228571 0
-0.0113155 0.0217857 0
-0.0152525 0.0207143 0
-0.0191894 0.0196429 0
-0.0231263 0.0185714 0
-0.0270632 0.0175 0
-0.0310001 0.0164286 0
-0.034937 0.0153571 0
-0.0388739 0.0142857 0
-0.0428108 0.0132143 0
-0.0467478 0.0121429 0
-0.0506847 0.0110714 0
-0.0546216 0.00606309 0
-0.0546216 0.00212617 0
-0.0546216 -0.00181074 0
-0.0546216 -0.00574766 0
-0.0546216 -0.00968457 0
-0.0546216 -0.0136215 0
-0.0546216 -0.0175584 0
-0.0546216 -0.0214953 0
-0.0546216 -0.0254322 0
-0.0546216 -0.0293691 0
-0.0546216 -0.0333061 0
-0.0546216 -0.037243 0
-0.0546216 -0.0411799 0
-0.0506847 -0.0440454 -0.00551168
-0.0467478 -0.0429739 -0.00551168
-0.0428108 -0.0419025 -0.00551168
-0.0388739 -0.0408311 -0.00551168
-0.034937 -0.0397597 -0.00551168
-0.0310001 -0.0386882 -0.00551168
-0.0270632 -0.0376168 -0.00551168
-0.0231263 -0.0365454 -0.00551168
-0.0191894 -0.0354739 -0.00551168
-0.0152525 -0.0344025 -0.00551168
-0.0113155 -0.0333311 -0.00551168
-0.00737862 -0.0322597 -0.00551168
-0.00344171 -0.0311882 -0.00551168
0.0038716 -0.0298185 -0.00551168
0.00726082 -0.0297726 -0.00551168
0.010644 -0.0299802 -0.00551168
0.0140027 -0.0304367 -0.00551168
0.0173201 -0.0311326 -0.00551168
0.0205821 -0.0320541 -0.00551168
0.0237776 -0.0331851 -0.00551168
0.0268988 -0.0345078 -0.00551168
0.0299406 -0.0360041 -0.00551168
0.0329005 -0.0376567 -0.00551168
0.035778 -0.039449 -0.00551168
0.038574 -0.0413659 -0.00551168
0.0412905 -0.043394 -0.00551168
0.0439303 -0.0455212 -0.00551168
0.0464964 -0.0477367 -0.00551168
0.0489922 -0.0500312 -0.00551168
0.051421 -0.0523964 -0.00551168
0.0537863 -0.0548252 -0.00551168
0.0560914 -0.0573112 -0.00551168
0.0583395 -0.0598489 -0.00551168
0.0605336 -0.0624334 -0.00551168
0.0626765 -0.0650605 -0.00551168
0.064771 -0.0677264 -0.00551168
0.0668197 -0.0704277 -0.00551168
0.0688248 -0.0731615 -0.00551168
0.0707885 -0.0759252 -0.00551168
0.072713 -0.0787163 -0.00551168
0.0746002 -0.0815329 -0.00551168
0.0764517 -0.0843729 -0.00551168
0.0782695 -0.0872347 -0.00551168
0.0829558 -0.0924852 -0.00551168
0.0858567 -0.0948536 -0.00551168
0.0887575 -0.0972221 -0.00551168
0.0916584 -0.0995905 -0.00551168
0.0945593 -0.101959 -0.00551168
0.0974602 -0.104327 -0.00551168
0.100361 -0.106696 -0.00551168
0.103262 -0.109064 -0.00551168
0.106163 -0.111433 -0.00551168
0.109064 -0.113801 -0.00551168
0.111965 -0.116169 -0.00551168
0.114865 -0.118538 -0.00551168
0.117766 -0.120906 -0.00551168
0.120667 -0.123275 -0.00551168
0.123568 -0.125643 -0.00551168
0.126469 -0.128012 -0.00551168
0.12937 -0.13038 -0.00551168
0.132271 -0.132748 -0.00551168
0.135172 -0.13118 -0.00551168
0.135172 -0.127243 -0.00551168
0.135172 -0.123306 -0.00551168
0.135172 -0.119369 -0.00551168
0.135172 -0.115432 -0.00551168
0.135172 -0.111495 -0.00551168
0.135172 -0.107558 -0.00551168
0.135172 -0.103621 -0.00551168
0.135172 -0.0996846 -0.00551168
0.135172 -0.0957477 -0.00551168
0.135172 -0.0918107 -0.00551168
0.135172 -0.0878738 -0.00551168
0.135172 -0.0839369 -0.00551168
0.132271 -0.0776316 -0.00551168
0.12937 -0.0752632 -0.00551168
0.126469 -0.0728947 -0.00551168
0.123568 -0.0705263 -0.00551168
0.120667 -0.0681579 -0.00551168
0.117766 -0.0657895 -0.00551168
0.114865 -0.0634211 -0.00551168
0.111965 -0.0610526 -0.00551168
0.109064 -0.0586842 -0.00551168
0.106163 -0.0563158 -0.00551168
0.103262 -0.0539474 -0.00551168
0.100361 -0.0515789 -0.00551168
0.0974602 -0.0492105 -0.00551168
0.0945593 -0.0468421 -0.00551168
0.0916584 -0.0444737 -0.00551168
0.0887575 -0.0421053 -0.00551168
0.0858567 -0.0397368 -0.00551168
0.0829558 -0.0373684 -0.00551168
0.0782695 -0.0321179 -0.00551168
0.0764517 -0.0292561 -0.00551168
0.0746002 -0.026416 -0.00551168
0.072713 -0.0235995 -0.00551168
0.0707885 -0.0208084 -0.00551168
0.0688248 -0.0180447 -0.00551168
0.0668197 -0.0153109 -0.00551168
0.064771 -0.0126096 -0.00551168
0.0626765 -0.00994373 -0.00551168
0.0605336 -0.00731663 -0.00551168
0.0583395 -0.00473208 -0.00551168
0.0560914 -0.00219437 -0.00551168
0.0537863 0.000291632 -0.00551168
0.051421 0.00272041 -0.00551168
0.0489922 0.00508564 -0.00551168
0.0464964 0.00738012 -0.00551168
0.0439303 0.00959562 -0.00551168
0.0412905 0.0117228 -0.00551168
[...]
CELL_DATA 2965
SCALARS rho float
LOOKUP_TABLE default
0.533091
0.318713
0.524793
0.328463
0.542791
0.361172
0.532928
0.332829
0.363318
0.526134
0.328215
0.340454
0.426889
0.535843
0.519273
0.516222
0.52602
0.51482
0.545328
0.528301
0.533314
0.336838
0.506814
0.53462
0.536271
0.547745
0.457443
0.478755
0.331193
0.504341
0.503724
0.340438
0.553784
0.529515
0.286289
0.360827
0.528254
0.534191
0.317639
0.506624
0.529492
0.502718
0.533867
0.329816
0.304976
0.53211
0.458639
0.468079
0.320829
0.533303
0.389363
0.332073
0.316801
0.426148
0.330846
0.421585
0.34404
0.319206
0.277447
0.476649
0.516082
0.474914
0.33298
0.544659
0.483416
0.533184
0.533029
0.320759
0.305636
0.351576
0.517429
0.543817
0.533058
0.274957
0.49963
0.410096
0.532515
0.331438
0.321634
0.467731
0.53316
0.333565
0.337542
0.4376
0.476742
0.376316
0.317833
0.285547
0.542391
0.344644
0.315695
0.532083
0.517099
0.514677
0.533423
0.319111
0.457356
0.277643
0.350343
0.325442
0.470909
0.324426
0.336426
0.30339
0.342997
0.52716
0.53249
0.336424
0.317176
0.532616
0.223018
0.392767
0.468931
0.490986
0.302355
0.291674
0.502792
0.456534
0.533561
0.32864
0.533151
0.236368
0.540058
0.541451
0.489703
0.40083
0.339788
0.458859
0.531362
0.265201
0.34059
0.42844
0.532308
0.345277
0.461043
0.338071
0.425021
0.51523
0.555568
0.542541
0.346449
0.514745
0.528074
0.332085
0.296501
0.545919
0.32995
0.541749
0.555967
0.353381
0.330051
0.323794
0.336178
0.33106
0.275857
0.281108
0.53282
0.531832
0.522306
0.53703
0.453549
0.463403
0.40727
0.543288
0.358409
0.532945
0.414044
0.333525
0.533055
0.535422
0.482133
0.312028
0.43608
0.519281
0.548167
0.415392
0.512673
0.357438
0.254979
0.417532
0.344684
0.259369
0.321871
0.306518
0.555912
0.532989
0.325992
0.33368
0.38933
0.327549
0.318217
0.321016
0.450511
0.299026
0.533161
0.464234
0.534547
0.483359
0.440486
0.323873
0.334658
0.294592
0.526502
0.439312
0.533099
0.29855
0.429416
0.533106
0.517908
0.533755
0.49397
0.401272
0.336498
0.349278
0.506115
0.346889
0.458887
0.328792
0.51634
0.326895
0.363743
0.340769
0.459014
0.383585
0.545388
0.259592
0.533135
0.522529
0.316114
0.477488
0.326771
0.266684
0.535012
0.316237
0.532661
0.535586
0.330374
0.530987
0.330659
0.352212
0.371951
0.328511
0.543826
0.522854
0.340578
0.22961
0.525751
0.532938
0.447952
0.505399
0.325172
0.332861
0.532833
0.33702
0.473796
0.277741
0.265267
0.533575
0.532202
0.335067
0.461875
0.326935
0.543083
0.360892
0.535189
0.53343
0.268359
0.473192
0.521453
0.303565
0.329587
0.532831
0.330474
0.551465
0.510195
0.330764
0.513433
0.513808
0.552683
0.530781
0.546915
0.463164
0.528357
0.532752
0.316297
0.323925
0.518798
0.538687
0.341244
0.530073
0.462573
0.275101
0.337908
0.322287
0.478451
0.324583
0.532533
0.480059
0.549178
0.326439
0.483781
0.483391
0.476816
0.532453
0.331245
0.235189
0.545267
0.532677
0.532683
0.327245
0.342131
0.481205
0.278838
0.307132
0.48446
0.533092
0.482012
0.218747
0.326328
0.482758
0.489738
0.32687
0.533996
0.533071
0.339419
0.414005
0.532232
0.515028
0.277937
0.326296
0.53363
0.345965
0.537871
0.36573
0.539796
0.394607
0.374651
0.328357
0.337975
0.301228
0.509477
0.547811
0.52476
0.543615
0.482329
0.47419
0.315432
0.533888
0.548025
0.351927
0.32196
0.533776
0.32365
0.514779
0.466566
0.342965
0.332083
0.341758
0.328209
0.533072
0.338993
0.341466
0.379887
0.327252
0.532449
0.533576
0.471249
0.532628
0.328972
0.529902
0.330527
0.533825
0.326316
0.339389
0.534743
0.467549
0.268053
0.263148
0.531171
0.362679
0.499927
0.513857
0.323995
0.529615
0.28944
0.342439
0.533933
0.298754
0.535328
0.28261
0.379638
0.334132
0.535732
0.468983
0.434745
0.532571
0.309117
0.547162
0.345806
0.308002
0.550174
0.289285
0.540301
0.421092
0.488166
0.293083
0.29582
0.31299
0.287508
0.312677
0.348993
0.529394
0.533657
0.534137
0.533355
0.339688
0.538752
0.466492
0.518452
0.245429
0.532086
0.342003
0.480424
0.470782
0.280008
0.53327
0.358353
0.522342
0.315444
0.487296
0.534235
0.286367
0.532495
0.252492
0.53761
0.323364
0.319271
0.41641
0.544564
0.540571
0.395007
0.259752
0.246131
0.419421
0.543594
0.526423
0.532412
0.530238
0.536487
0.318427
0.513904
0.481548
0.322896
0.240629
0.302258
0.498551
0.535634
0.366468
0.382044
0.373019
0.353891
0.527647
0.534233
0.533155
0.549751
0.400807
0.532722
0.535023
0.328215
0.539443
0.350839
0.348189
0.529429
0.534419
0.536914
0.546053
0.328104
0.303119
0.553954
0.529597
0.328934
0.528405
0.503546
0.534156
0.358636
0.314888
0.53529
0.327633
0.452481
0.534504
0.535491
0.350334
0.532574
0.325986
0.329406
0.319494
0.353037
0.532544
0.364316
0.515853
0.296944
0.32912
0.525062
0.339437
0.298994
0.351701
0.275338
0.357801
0.304279
0.31148
0.426685
0.440491
0.325224
0.356558
0.535824
0.328321
0.395923
0.532204
0.532339
0.488971
0.485971
0.432431
0.445365
0.294815
0.372166
0.532303
0.496997
0.243623
0.506153
0.250168
0.296033
0.284009
0.53313
0.551833
0.301381
0.494691
0.531157
0.284909
0.289435
0.541795
0.532857
0.354046
0.54457
0.379343
0.337527
0.542138
0.298827
0.454518
0.52769
0.396319
0.542867
0.319728
0.349281
0.537335
0.376059
0.342566
0.358754
0.317539
0.323012
0.532708
0.539349
0.521485
0.318398
0.251747
0.348495
0.302516
0.52901
0.235076
0.420026
0.30494
0.53069
0.531852
0.312906
0.533476
0.392822
0.486308
0.313013
0.526237
0.533593
0.556233
0.534995
0.5332
0.524879
0.360909
0.421548
0.351557
0.52829
0.322783
0.269636
0.531359
0.532397
0.532166
0.324342
0.333715
0.538898
0.541164
0.311512
0.533701
0.286697
0.311501
0.327836
0.554504
0.538171
0.522788
0.305775
0.312474
0.359413
0.327929
0.537178
0.53298
0.547044
0.320915
0.317497
0.455771
0.548047
0.544418
0.508644
0.532735
0.4117
0.535943
0.54168
0.515419
0.329824
0.536129
0.494254
0.532974
0.535863
0.546873
0.481598
0.380334
0.546578
0.340126
0.544379
0.532406
0.219814
0.53293
0.464527
0.534406
0.300739
0.328854
0.533182
0.298786
0.309685
0.549166
0.300868
0.416524
0.537394
0.283281
0.546772
0.327224
0.491011
0.531663
0.526689
0.498589
0.321061
0.319292
0.52081
0.435369
0.326104
0.480536
0.325561
0.533308
0.330698
0.461476
0.51727
0.533386
0.331393
0.492711
0.356316
0.412396
0.416037
0.336431
0.281704
0.323229
0.533674
0.459674
0.434856
0.317487
0.533575
0.486135
0.317879
0.533407
0.330371
0.456064
0.518289
0.533185
0.536638
0.299819
0.340037
0.533044
0.545712
0.523377
0.485553
0.543256
0.480375
0.466373
0.321442
0.503781
0.389574
0.350624
0.358798
0.532736
0.550454
0.50582
0.394511
0.323656
0.541335
0.346379
0.346291
0.407534
0.322015
0.457671
0.33455
0.533042
0.328326
0.322092
0.416304
0.545163
0.329284
0.318623
0.549831
0.544098
0.552012
0.316278
0.317934
0.538261
0.325647
0.3198
0.340545
0.436675
0.52298
0.268205
0.551202
0.33437
0.507182
0.532935
0.318922
0.411346
0.479941
0.500178
0.490682
0.54027
0.537716
0.545157
0.534877
0.533059
0.3335
0.379657
0.519988
0.281319
0.543411
0.525028
0.269993
0.530466
0.470792
0.509115
0.539836
0.462717
0.531669
0.32422
0.488172
0.344861
0.296536
0.534365
0.533391
0.25206
0.341658
0.530022
0.394965
0.449899
0.268371
0.250778
0.549683
0.515012
0.544215
0.511459
0.453733
0.381928
0.451999
0.333013
0.533199
0.502841
0.492011
0.342244
0.382454
0.544502
0.496953
0.539183
0.157081
0.533361
0.327109
0.31847
0.330547
0.517614
0.520215
0.540786
0.471652
0.352285
0.533262
0.387996
0.546771
0.547857
0.489374
0.329751
0.311013
0.533771
0.347147
0.427776
0.4714
0.311704
0.372109
0.516619
0.542891
0.3221
0.533392
0.531673
0.328202
0.533482
0.534635
0.538074
0.362032
0.334882
0.542972
0.319111
0.334452
0.409908
0.533026
0.316041
0.377509
0.310897
0.304557
0.538117
0.332177
0.330111
0.54314
0.329615
0.32994
0.552836
0.537671
0.534712
0.532722
0.488108
0.344662
0.552267
0.532107
0.314204
0.536277
0.533736
0.532982
0.533065
0.36153
0.532985
0.339327
0.533055
0.317833
0.53281
0.335597
0.518275
0.316495
0.540883
0.54589
0.551405
0.486145
0.533699
0.536082
0.306762
0.533371
0.263752
0.533179
0.537872
0.324451
0.4068
0.304334
0.33019
0.533149
0.36542
0.532635
0.126276
0.506135
0.507054
0.54007
0.39886
0.339443
0.246205
0.328898
0.275454
0.537283
0.368608
0.323428
0.534751
0.346652
0.364983
0.531978
0.531951
0.498853
0.535417
0.259723
0.487707
0.314385
0.533091
0.534052
0.525659
0.282591
0.540273
0.535807
0.541287
0.495178
0.532678
0.384726
0.53283
0.541185
0.43876
0.533941
0.314019
0.518827
0.354868
0.415745
0.518352
0.491086
0.529337
0.475338
0.487324
0.536797
0.320158
0.523195
0.329196
0.348695
0.541466
0.511651
0.476105
0.520041
0.531552
0.53307
0.536184
0.533172
0.533597
0.533937
0.553116
0.359775
0.49951
0.530465
0.328323
0.534158
0.3145
0.473421
0.307005
0.533629
0.33047
0.327107
0.304704
0.466564
0.534734
0.429964
0.515973
0.30301
0.347486
0.533005
0.533933
0.310738
0.499436
0.446615
0.296956
0.502302
0.339923
0.313611
0.534006
0.478593
0.322147
0.517296
0.532234
0.522504
0.325587
0.512951
0.241688
0.532871
0.385185
0.509991
0.31424
0.549149
0.313606
0.31184
0.323002
0.510537
0.298527
0.495377
0.547301
0.467709
0.361338
0.311951
0.542271
0.314018
0.233358
0.324913
0.535093
0.321743
0.320431
0.278199
0.499354
0.335509
0.335711
0.339095
0.532944
0.550237
0.336772
0.538033
0.53736
0.494245
0.335291
0.325955
0.534647
0.323508
0.555701
0.330768
0.530007
0.322365
0.156378
0.512671
0.323745
0.333195
0.324375
0.533669
0.303546
0.444942
0.537247
0.322923
0.516573
0.326501
0.550417
0.417282
0.32378
0.334006
0.534478
0.442589
0.53324
0.31636
0.346018
0.431543
0.533183
0.316925
0.296575
0.321319
0.415682
0.537033
0.357221
0.447337
0.530386
0.533371
0.524698
0.328305
0.535967
0.326538
0.53341
0.533995
0.456889
0.352014
0.484684
0.537649
0.322709
0.536888
0.538245
0.342038
0.33104
0.301071
0.255615
0.541544
0.324911
0.532995
0.387358
0.533149
0.49569
0.374794
0.510295
0.308448
0.477597
0.32829
0.532296
0.531883
0.230056
0.333684
0.339636
0.466134
0.55316
0.327672
0.310388
0.347262
0.453461
0.547098
0.253473
0.328511
0.524172
0.537152
0.526917
0.32979
0.333353
0.522985
0.532384
0.317694
0.331478
0.439026
0.55039
0.488461
0.312518
0.533729
0.534639
0.314059
0.537998
0.320171
0.540067
0.320001
0.355594
0.322355
0.276704
0.53267
0.335583
0.323251
0.337414
0.342859
0.47961
0.530091
0.550661
0.320586
0.533073
0.534592
0.534577
0.547942
0.532274
0.5483
0.550292
0.548966
0.538618
0.531504
0.284961
0.483783
0.550331
0.324525
0.540598
0.545012
0.536177
0.534876
0.31795
0.542547
0.533113
0.535689
0.341729
0.502508
0.528882
0.532982
0.529293
0.323368
0.485169
0.346757
0.416634
0.332571
0.330172
0.313777
0.326742
0.533713
0.534319
0.520973
0.320971
0.534357
0.533449
0.537152
0.328264
0.340905
0.517331
0.310868
0.318353
0.304102
0.536497
0.422107
0.534271
0.301051
0.546473
0.532205
0.453248
0.539653
0.349474
0.550632
0.535078
0.511981
0.539014
0.533105
0.519213
0.326394
0.359357
0.343557
0.532303
0.310892
0.534704
0.519089
0.489198
0.335499
0.360315
0.483548
0.541056
0.532699
0.33598
0.524004
0.478158
0.256341
0.533847
0.330511
0.330207
0.310774
0.324225
0.316917
0.53938
0.53499
0.553083
0.441308
0.532767
0.532704
0.516123
0.53353
0.547017
0.549172
0.532211
0.532389
0.327501
0.532741
0.527031
0.426093
0.321531
0.502719
0.296078
0.536917
0.367932
0.539436
0.546159
0.333805
0.537068
0.331979
0.533544
0.530667
0.547958
0.488974
0.515832
0.545942
0.532543
0.342787
0.445929
0.422496
0.246192
0.534016
0.537784
0.437078
0.551785
0.525362
0.532758
0.293105
0.324363
0.527313
0.54671
0.328583
0.214211
0.512873
0.533283
0.534318
0.272043
0.451846
0.511607
0.531565
0.323692
0.533464
0.484907
0.525319
0.506033
0.439174
0.53343
0.293794
0.530204
0.321169
0.304915
0.533569
0.350701
0.351312
0.323878
0.524562
0.507188
0.439244
0.533282
0.431829
0.374
0.32109
0.542375
0.53126
0.540109
0.490262
0.251584
0.521087
0.434444
0.320435
0.530968
0.538181
0.32892
0.53575
0.528018
0.532883
0.448592
0.53221
0.361827
0.534068
0.530235
0.532765
0.342814
0.525195
0.38326
0.509015
0.532253
0.544761
0.529553
0.533833
0.534366
0.531912
0.516413
0.319864
0.541471
0.511294
0.339154
0.494627
0.536226
0.551986
0.495811
0.321662
0.531341
0.341225
0.546071
0.490126
0.537546
0.333246
0.512431
0.534078
0.533209
0.525164
0.475348
0.53326
0.465311
0.388215
0.32362
0.28446
0.532843
0.334818
0.286028
0.537217
0.330721
0.543995
0.314741
0.53542
0.33092
0.3294
0.520313
0.395502
0.298728
0.527633
0.531956
0.538159
0.346692
0.504178
0.533318
0.530887
0.325769
0.533172
0.534063
0.322923
0.47951
0.461476
0.523253
0.342419
0.392543
0.510467
0.315355
0.538892
0.345006
0.334179
0.532506
0.387803
0.504561
0.330318
0.539651
0.42308
0.53322
0.195123
0.336396
0.532643
0.358892
0.533248
0.346808
0.5343
0.477617
0.46797
0.533306
0.501258
0.242805
0.534658
0.549616
0.529995
0.533153
0.301131
0.338487
0.335914
0.334147
0.532669
0.340465
0.513288
0.32517
0.531796
0.53373
0.532624
0.324985
0.534242
0.326257
0.533525
0.541211
0.366045
0.532588
0.51779
0.32258
0.519562
0.308795
0.354321
0.55043
0.335793
0.543604
0.225352
0.33903
0.51068
0.371766
0.538924
0.327088
0.461774
0.531922
0.529402
0.385695
0.250231
0.324669
0.532957
0.533124
0.339289
0.534599
0.320826
0.531959
0.322195
0.330326
0.464325
0.473899
0.420289
0.492362
0.533325
0.493975
0.472951
0.535203
0.532652
0.336578
0.533994
0.357423
0.345024
0.49335
0.409111
0.395732
0.44291
0.331065
0.512606
0.533384
0.536367
0.324172
0.328086
0.443557
0.506594
0.533812
0.546447
0.32707
0.498489
0.531314
0.503548
0.442187
0.32342
0.319664
0.337095
0.556205
0.536503
0.302747
0.310835
0.437095
0.326536
0.550329
0.513333
0.329257
0.532965
0.406343
0.54032
0.5358
0.32875
0.36614
0.504256
0.331554
0.395629
0.531823
0.27696
0.329989
0.326604
0.507837
0.536311
0.506367
0.33929
0.322786
0.52939
0.534515
0.491862
0.538677
0.326996
0.340456
0.343021
0.49794
0.297711
0.337957
0.537175
0.541819
0.513223
0.319778
0.341362
0.341516
0.533398
0.30635
0.532583
0.533035
0.529287
0.430372
0.532587
0.550191
0.331864
0.325584
0.535109
0.329434
0.467239
0.524346
0.541811
0.436037
0.308759
0.28905
0.54169
0.40551
0.304652
0.533305
0.533373
0.298408
0.324291
0.512433
0.444258
0.333799
0.35166
0.540154
0.489877
0.526636
0.466301
0.349324
0.287871
0.361128
0.384275
0.308974
0.53309
0.52714
0.46892
0.508457
0.338009
0.501864
0.362486
0.532041
0.546103
0.341804
0.267014
0.528624
0.388835
0.471975
0.534367
0.314448
0.529918
0.528456
0.532378
0.533358
0.499066
0.365666
0.328267
0.318764
0.510498
0.533158
0.511505
0.444001
0.328181
0.327709
0.493504
0.330139
0.537673
0.532246
0.532193
0.339852
0.321347
0.463802
0.504897
0.533161
0.524734
0.533841
0.532808
0.535494
0.47458
0.254297
0.533093
0.494788
0.533732
0.329294
0.52831
0.42461
0.527015
0.55339
0.446128
0.491836
0.530466
0.508699
0.533158
0.32921
0.530808
0.551826
0.35947
0.501699
0.308604
0.303691
0.533083
0.533378
0.35214
0.483481
0.532498
0.346423
0.345424
0.551447
0.551208
0.471017
0.363992
0.49643
0.32868
0.542861
0.549996
0.323484
0.452801
0.498747
0.325294
0.326276
0.357174
0.536633
0.526347
0.325833
0.363259
0.342863
0.347763
0.345913
0.496887
0.325106
0.552387
0.534243
0.541405
0.333409
0.531637
0.439435
0.530839
0.446241
0.528391
0.328551
0.298443
0.329985
0.532502
0.33598
0.325622
0.49332
0.336771
0.533316
0.506772
0.426615
0.318118
0.32058
0.520756
0.535145
0.526276
0.522394
0.543514
0.328426
0.371546
0.313141
0.509188
0.534394
0.32433
0.511752
0.292607
0.345385
0.533778
0.336736
0.334853
0.241671
0.374765
0.333857
0.534044
0.531216
0.537315
0.335294
0.53228
0.542333
0.324574
0.533993
0.376905
0.539494
0.362657
0.391362
0.532084
0.326189
0.248843
0.528023
0.523259
0.321796
0.546661
0.49731
0.532076
0.400631
0.327668
0.501332
0.533275
0.364516
0.380148
0.420498
0.395876
0.533749
0.340548
0.322048
0.541101
0.501266
0.348977
0.328605
0.531506
0.326467
0.291091
0.33306
0.454625
0.544953
0.330137
0.539544
0.324478
0.312095
0.344602
0.405485
0.337459
0.539109
0.334067
0.329354
0.481541
0.538307
0.358289
0.532836
0.328101
0.323449
0.508557
0.553428
0.523131
0.513594
0.516607
0.546658
0.326347
0.538817
0.292845
0.532814
0.525697
0.411342
0.52551
0.532996
0.532871
0.532844
0.436729
0.342382
0.429046
0.334295
0.498426
0.531032
0.498101
0.318161
0.535642
0.369088
0.532881
0.32528
0.304584
0.557674
0.302874
0.526741
0.55352
0.372238
0.334476
0.329648
0.532425
0.394779
0.247106
0.540654
0.327369
0.524721
0.339827
0.349319
0.320057
0.534579
0.390982
0.533342
0.325691
0.352127
0.532925
0.531454
0.281997
0.359259
0.271908
0.481794
0.333157
0.520143
0.529377
0.532848
0.236451
0.331504
0.450898
0.530168
0.54916
0.531434
0.309145
0.511434
0.536945
0.532752
0.533289
0.328357
0.519691
0.319242
0.441911
0.54194
0.536657
0.528778
0.545767
0.490385
0.53077
0.544245
0.532049
0.521469
0.53606
0.532702
0.535212
0.325878
0.329583
0.533977
0.475425
0.533297
0.533172
0.549157
0.520229
0.54545
0.337961
0.32624
0.533263
0.32717
0.322001
0.345817
0.532785
0.522587
0.533235
0.506682
0.521168
0.323471
0.537845
0.325652
0.325098
0.546132
0.523855
0.523068
0.400632
0.395813
0.341881
0.325759
0.389241
0.311461
0.362526
0.544028
0.308412
0.53013
0.332812
0.539357
0.532048
0.282489
0.330493
0.493428
0.533265
0.330443
0.508015
0.268095
0.318135
0.326916
0.450586
0.534645
0.533121
0.533936
0.221556
0.362214
0.283687
0.350111
0.533139
0.547794
0.538048
0.339143
0.326151
0.532335
0.53165
0.535855
0.319106
0.479115
0.465591
0.543392
0.431591
0.343119
0.34115
0.329506
0.534467
0.328598
0.328569
0.533096
0.309588
0.534046
0.339214
0.371045
0.40069
0.338994
0.545974
0.533207
0.534001
0.443692
0.555977
0.510258
0.469622
0.338221
0.507814
0.530269
0.509458
0.535948
0.531847
0.539667
0.425089
0.531367
0.534917
0.372693
0.331691
0.54987
0.40259
0.532527
0.341694
0.546944
0.371401
0.525138
0.53422
0.507383
0.531985
0.539051
0.514479
0.314695
0.346018
0.537084
0.547578
0.532176
0.435368
0.544381
0.44849
0.494759
0.532251
0.472314
0.459654
0.539963
0.532965
0.348655
0.325042
0.534084
0.500734
0.333513
0.353243
0.425233
0.533189
0.533134
0.551388
0.342714
0.523107
0.313124
0.535566
0.329531
0.545143
0.281559
0.550157
0.354919
0.531416
0.446035
0.325884
0.29321
0.471768
0.335695
0.478928
0.324599
0.533404
0.533147
0.52969
0.523122
0.533375
0.534331
0.532334
0.550594
0.541031
0.499388
0.515202
0.492284
0.538213
0.336197
0.500844
0.498239
0.5313
0.325832
0.496107
0.545669
0.532638
0.338775
0.316904
0.338917
0.544576
0.495126
0.319055
0.498099
0.391378
0.533632
0.312697
0.413202
0.345793
0.303558
0.554133
0.318722
0.507487
0.327176
0.552141
0.353165
0.533409
0.502702
0.528042
0.359774
0.336796
0.351147
0.5145
0.322055
0.341735
0.340204
0.539988
0.515921
0.545356
0.520779
0.531172
0.509167
0.375927
0.336926
0.529532
0.322474
0.451243
0.525966
0.551026
0.203034
0.292132
0.520914
0.532477
0.409425
0.524927
0.534783
0.517944
0.342102
0.543021
0.518514
0.530739
0.532494
0.322541
0.533164
0.327678
0.530911
0.54223
0.503726
0.531871
0.355997
0.536791
0.218916
0.355756
0.495923
0.507034
0.52779
0.451832
0.336889
0.530961
0.535329
0.32166
0.330725
0.303024
0.549791
0.346867
0.286844
0.333437
0.337222
0.319559
0.370931
0.542854
0.309452
0.539121
0.522508
0.329947
0.534919
0.307362
0.548942
0.307699
0.455473
0.31541
0.525113
0.534177
0.399432
0.495474
0.533349
0.521237
0.319383
0.476435
0.432079
0.321503
0.320004
0.405226
0.282258
0.544626
0.268786
0.316703
0.331349
0.533106
0.527028
0.323905
0.336388
0.545491
0.330874
0.330622
0.533033
0.324132
0.301512
0.361766
0.553037
0.502637
0.545555
0.341126
0.290778
0.538224
0.518346
0.53246
0.39712
0.50459
0.528612
0.416912
0.404144
0.331742
0.312234
0.238985
0.493796
0.248407
0.547531
0.512213
0.532008
0.345036
0.412934
0.420702
0.559071
0.312719
0.483125
0.238106
0.490733
0.326337
0.281985
0.296858
0.537048
0.330629
0.552126
0.340922
0.38277
0.328393
0.469019
0.324405
0.543623
0.317784
0.501602
0.485982
0.331115
0.533921
0.533871
0.288132
0.548665
0.365824
0.334993
0.54262
0.315314
0.515665
0.393895
0.218577
0.532128
0.318472
0.357523
0.338242
0.358055
0.323249
0.513694
0.438365
0.523533
0.547447
0.529195
0.543208
0.411193
0.537372
0.310539
0.534487
0.331821
0.525253
0.329636
0.393145
0.522568
0.549361
0.534466
0.357291
0.432946
0.352228
0.360286
0.360066
0.221946
0.536287
0.409266
0.547423
0.532135
0.484758
0.538868
0.534046
0.397631
0.322795
0.361639
0.541485
0.48747
0.5017
0.533958
0.552158