# vtk DataFile Version 1.0
unstructured grid
ascii
DATASET UNSTRUCTURED_GRID
points 3226 float
0.0796578 -0.059106 0
0.00128732 0.00159165 0
0.00227961 -0.00102548 0
0.0791586 -0.0598787 0
-0.0546216 0.01 0
0.000495206 0.025 0
0.0800549 -0.035 0
0.135172 -0.08 0
-0.0546216 -0.0451168 0
0.000495206 -0.0301168 0
0.0800549 -0.0901168 0
0.135172 -0.135117 0
-0.0546216 -0.0451168 -0.00551168
0.000495206 -0.0301168 -0.00551168
0.0800549 -0.0901168 -0.00551168
0.135172 -0.135117 -0.00551168
0.135172 -0.08 -0.00551168
0.0800549 -0.035 -0.00551168
0.000495206 0.025 -0.00551168
-0.0546216 0.01 -0.00551168
0.00128732 0.00159165 -0.00551168
0.00227961 -0.00102548 -0.00551168
0.0791586 -0.0598787 -0.00551168
0.0796578 -0.059106 -0.00551168
0.00110182 -0.000823821 0
0.000571683 -0.000188043 0
0.000561313 0.000639162 0
0.00189316 0.00207203 0
0.00260228 0.00255358 0
0.0033966 0.00307293 0
0.00428861 0.00362634 0
0.00529726 0.0041979 0
0.00644092 0.00476696 0
0.00773158 0.0053187 0
0.00918011 0.00583593 0
0.010799 0.00628751 0
0.012597 0.00663225 0
0.0145725 0.0068517 0
0.0167206 0.0069338 0
0.0190349 0.00685819 0
0.0215031 0.00658621 0
0.0241038 0.00607459 0
0.026821 0.00533786 0
0.0296245 0.00434523 0
0.0324763 0.00306927 0
0.0353199 0.00146906 0
0.0381488 -0.00039338 0
0.0409131 -0.00252802 0
0.0435632 -0.00493276 0
0.0460882 -0.0075571 0
0.0484881 -0.0103478 0
0.0506782 -0.0133217 0
0.0526651 -0.016422 0
0.0546139 -0.0195019 0
0.0565301 -0.022529 0
0.0584009 -0.0254846 0
0.0602154 -0.0283513 0
0.061964 -0.031114 0
0.0636389 -0.0337601 0
0.0652336 -0.0362795 0
0.0667431 -0.0386651 0
0.0681656 -0.0409111 0
0.0694983 -0.0430158 0
0.0707356 -0.0449823 0
0.071886 -0.0468071 0
0.0729575 -0.04849 0
0.0739438 -0.0500408 0
0.0748444 -0.0514675 0
0.0756707 -0.0527715 0
0.0764313 -0.053958 0
0.0771224 -0.0550398 0
0.0777384 -0.0560288 0
0.0782803 -0.0569318 0
0.0787691 -0.0577448 0
0.0792251 -0.0584672 0
0.0800494 -0.0597378 0
0.0797987 -0.0601582 0
0.0786655 -0.059391 0
0.0781259 -0.0588425 0
0.0775539 -0.0582102 0
0.0769587 -0.0574783 0
0.0763492 -0.0566339 0
0.075723 -0.0556725 0
0.0750452 -0.0546094 0
0.0742996 -0.0534457 0
0.073478 -0.0521785 0
0.072577 -0.0508019 0
0.0715904 -0.049313 0
0.0705098 -0.047712 0
0.069328 -0.0459996 0
0.0680378 -0.0441794 0
0.066632 -0.0422571 0
0.0651046 -0.0402413 0
0.0634508 -0.0381431 0
0.0616683 -0.0359754 0
0.0597581 -0.033753 0
0.0577255 -0.0314906 0
0.0555808 -0.0292024 0
0.0533388 -0.0269013 0
0.0510024 -0.0246151 0
0.0485693 -0.0223811 0
0.0460535 -0.0202228 0
0.0434788 -0.0181535 0
0.0408704 -0.0161833 0
0.0382442 -0.0143327 0
0.0356165 -0.0126209 0
0.0330065 -0.0110594 0
0.0304368 -0.00965062 0
0.0279338 -0.00838121 0
0.0255194 -0.00723697 0
0.0231965 -0.00623664 0
0.020983 -0.00535765 0
0.0188891 -0.00458677 0
0.0169193 -0.00391673 0
0.0150754 -0.00334068 0
0.0133572 -0.00285262 0
0.0117634 -0.0024437 0
0.0102912 -0.00210643 0
0.0089363 -0.00183343 0
0.00769424 -0.00161552 0
0.00655956 -0.00144452 0
0.00552632 -0.00131235 0
0.00458815 -0.00121216 0
0.00373885 -0.00113394 0
0.00297202 -0.00106855 0
-0.0506847 -0.0440454 0
-0.0467478 -0.0429739 0
-0.0428108 -0.0419025 0
-0.0388739 -0.0408311 0
-0.034937 -0.0397597 0
-0.0310001 -0.0386882 0
-0.0270632 -0.0376168 0
-0.0231263 -0.0365454 0
-0.0191894 -0.0354739 0
-0.0152525 -0.0344025 0
-0.0113155 -0.0333311 0
-0.00737862 -0.0322597 0
-0.00344171 -0.0311882 0
0.0038716 -0.0298185 0
0.00726082 -0.0297726 0
0.010644 -0.0299802 0
0.0140027 -0.0304367 0
0.0173201 -0.0311326 0
0.0205821 -0.0320541 0
0.0237776 -0.0331851 0
0.0268988 -0.0345078 0
0.0299406 -0.0360041 0
0.0329005 -0.0376567 0
0.035778 -0.039449 0
0.038574 -0.0413659 0
0.0412905 -0.043394 0
0.0439303 -0.0455212 0
0.0464964 -0.0477367 0
0.0489922 -0.0500312 0
0.051421 -0.0523964 0
0.0537863 -0.0548252 0
0.0560914 -0.0573112 0
0.0583395 -0.0598489 0
0.0605336 -0.0624334 0
0.0626765 -0.0650605 0
0.064771 -0.0677264 0
0.0668197 -0.0704277 0
0.0688248 -0.0731615 0
0.0707885 -0.0759252 0
0.072713 -0.0787163 0
0.0746002 -0.0815329 0
0.0764517 -0.0843729 0
0.0782695 -0.0872347 0
0.0829558 -0.0924852 0
0.0858567 -0.0948536 0
0.0887575 -0.0972221 0
0.0916584 -0.0995905 0
0.0945593 -0.101959 0
0.0974602 -0.104327 0
0.100361 -0.106696 0
0.103262 -0.109064 0
0.106163 -0.111433 0
0.109064 -0.113801 0
0.111965 -0.116169 0
0.114865 -0.118538 0
0.117766 -0.120906 0
0.120667 -0.123275 0
0.123568 -0.125643 0
0.126469 -0.128012 0
0.12937 -0.13038 0
0.132271 -0.132748 0
0.135172 -0.13118 0
0.135172 -0.127243 0
0.135172 -0.123306 0
0.135172 -0.119369 0
0.135172 -0.115432 0
0.135172 -0.111495 0
0.135172 -0.107558 0
0.135172 -0.103621 0
0.135172 -0.0996846 0
0.135172 -0.0957477 0
0.135172 -0.0918107 0
0.135172 -0.0878738 0
0.135172 -0.0839369 0
0.132271 -0.0776316 0
0.12937 -0.0752632 0
0.126469 -0.0728947 0
0.123568 -0.0705263 0
0.120667 -0.0681579 0
0.117766 -0.0657895 0
0.114865 -0.0634211 0
0.111965 -0.0610526 0
0.109064 -0.0586842 0
0.106163 -0.0563158 0
0.103262 -0.0539474 0
0.100361 -0.0515789 0
0.0974602 -0.0492105 0
0.0945593 -0.0468421 0
0.0916584 -0.0444737 0
0.0887575 -0.0421053 0
0.0858567 -0.0397368 0
0.0829558 -0.0373684 0
0.0782695 -0.0321179 0
0.0764517 -0.0292561 0
0.0746002 -0.026416 0
0.072713 -0.0235995 0
0.0707885 -0.0208084 0
0.0688248 -0.0180447 0
0.0668197 -0.0153109 0
0.064771 -0.0126096 0
0.0626765 -0.00994373 0
0.0605336 -0.00731663 0
0.0583395 -0.00473208 0
0.0560914 -0.00219437 0
0.0537863 0.000291632 0
0.051421 0.00272041 0
0.0489922 0.00508564 0
0.0464964 0.00738012 0
0.0439303 0.00959562 0
0.0412905 0.0117228 0
0.038574 0.0137509 0
0.035778 0.0156678 0
0.0329005 0.0174601 0
0.0299406 0.0191127 0
0.0268988 0.020609 0
0.0237776 0.0219317 0
0.0205821 0.0230627 0
0.0173201 0.0239842 0
0.0140027 0.0246801 0
0.010644 0.0251366 0
0.00726082 0.0253442 0
0.0038716 0.0252983 0
-0.00344171 0.0239286 0
-0.00737862 0.0228571 0
-0.0113155 0.0217857 0
-0.0152525 0.0207143 0
-0.0191894 0.0196429 0
-0.0231263 0.0185714 0
-0.0270632 0.0175 0
-0.0310001 0.0164286 0
-0.034937 0.0153571 0
-0.0388739 0.0142857 0
-0.0428108 0.0132143 0
-0.0467478 0.0121429 0
-0.0506847 0.0110714 0
-0.0546216 0.00606309 0
-0.0546216 0.00212617 0
-0.0546216 -0.00181074 0
-0.0546216 -0.00574766 0
-0.0546216 -0.00968457 0
-0.0546216 -0.0136215 0
-0.0546216 -0.0175584 0
-0.0546216 -0.0214953 0
-0.0546216 -0.0254322 0
-0.0546216 -0.0293691 0
-0.0546216 -0.0333061 0
-0.0546216 -0.037243 0
-0.0546216 -0.0411799 0
-0.0506847 -0.0440454 -0.00551168
-0.0467478 -0.0429739 -0.00551168
-0.0428108 -0.0419025 -0.00551168
-0.0388739 -0.0408311 -0.00551168
-0.034937 -0.0397597 -0.00551168
-0.0310001 -0.0386882 -0.00551168
-0.0270632 -0.0376168 -0.00551168
-0.0231263 -0.0365454 -0.00551168
-0.0191894 -0.0354739 -0.00551168
-0.0152525 -0.0344025 -0.00551168
-0.0113155 -0.0333311 -0.00551168
-0.00737862 -0.0322597 -0.00551168
-0.00344171 -0.0311882 -0.00551168
0.0038716 -0.0298185 -0.00551168
0.00726082 -0.0297726 -0.00551168
0.010644 -0.0299802 -0.00551168
0.0140027 -0.0304367 -0.00551168
0.0173201 -0.0311326 -0.00551168
0.0205821 -0.0320541 -0.00551168
0.0237776 -0.0331851 -0.00551168
0.0268988 -0.0345078 -0.00551168
0.0299406 -0.0360041 -0.00551168
0.0329005 -0.0376567 -0.00551168
0.035778 -0.039449 -0.00551168
0.038574 -0.0413659 -0.00551168
0.0412905 -0.043394 -0.00551168
0.0439303 -0.0455212 -0.00551168
0.0464964 -0.0477367 -0.00551168
0.0489922 -0.0500312 -0.00551168
0.051421 -0.0523964 -0.00551168
0.0537863 -0.0548252 -0.00551168
0.0560914 -0.0573112 -0.00551168
0.0583395 -0.0598489 -0.00551168
0.0605336 -0.0624334 -0.00551168
0.0626765 -0.0650605 -0.00551168
0.064771 -0.0677264 -0.00551168
0.0668197 -0.0704277 -0.00551168
0.0688248 -0.0731615 -0.00551168
0.0707885 -0.0759252 -0.00551168
0.072713 -0.0787163 -0.00551168
0.0746002 -0.0815329 -0.00551168
0.0764517 -0.0843729 -0.00551168
0.0782695 -0.0872347 -0.00551168
0.0829558 -0.0924852 -0.00551168
0.0858567 -0.0948536 -0.00551168
0.0887575 -0.0972221 -0.00551168
0.0916584 -0.0995905 -0.00551168
0.0945593 -0.101959 -0.00551168
0.0974602 -0.104327 -0.00551168
0.100361 -0.106696 -0.00551168
0.103262 -0.109064 -0.00551168
0.106163 -0.111433 -0.00551168
0.109064 -0.113801 -0.00551168
0.111965 -0.116169 -0.00551168
0.114865 -0.118538 -0.00551168
0.117766 -0.120906 -0.00551168
0.120667 -0.123275 -0.00551168
0.123568 -0.125643 -0.00551168
0.126469 -0.128012 -0.00551168
0.12937 -0.13038 -0.00551168
0.132271 -0.132748 -0.00551168
0.135172 -0.13118 -0.00551168
0.135172 -0.127243 -0.00551168
0.135172 -0.123306 -0.00551168
0.135172 -0.119369 -0.00551168
0.135172 -0.115432 -0.00551168
0.135172 -0.111495 -0.00551168
0.135172 -0.107558 -0.00551168
0.135172 -0.103621 -0.00551168
0.135172 -0.0996846 -0.00551168
0.135172 -0.0957477 -0.00551168
0.135172 -0.0918107 -0.00551168
0.135172 -0.0878738 -0.00551168
0.135172 -0.0839369 -0.00551168
0.132271 -0.0776316 -0.00551168
0.12937 -0.0752632 -0.00551168
0.126469 -0.0728947 -0.00551168
0.123568 -0.0705263 -0.00551168
0.120667 -0.0681579 -0.00551168
0.117766 -0.0657895 -0.00551168
0.114865 -0.0634211 -0.00551168
0.111965 -0.0610526 -0.00551168
0.109064 -0.0586842 -0.00551168
0.106163 -0.0563158 -0.00551168
0.103262 -0.0539474 -0.00551168
0.100361 -0.0515789 -0.00551168
0.0974602 -0.0492105 -0.00551168
0.0945593 -0.0468421 -0.00551168
0.0916584 -0.0444737 -0.00551168
0.0887575 -0.0421053 -0.00551168
0.0858567 -0.0397368 -0.00551168
0.0829558 -0.0373684 -0.00551168
0.0782695 -0.0321179 -0.00551168
0.0764517 -0.0292561 -0.00551168
0.0746002 -0.026416 -0.00551168
0.072713 -0.0235995 -0.00551168
0.0707885 -0.0208084 -0.00551168
0.0688248 -0.0180447 -0.00551168
0.0668197 -0.0153109 -0.00551168
0.064771 -0.0126096 -0.00551168
0.0626765 -0.00994373 -0.00551168
0.0605336 -0.00731663 -0.00551168
0.0583395 -0.00473208 -0.00551168
0.0560914 -0.00219437 -0.00551168
0.0537863 0.000291632 -0.00551168
0.051421 0.00272041 -0.00551168
0.0489922 0.00508564 -0.00551168
0.0464964 0.00738012 -0.00551168
0.0439303 0.00959562 -0.00551168
0.0412905 0.0117228 -0.00551168
[...]
CELL_DATA 2965
SCALARS rho float
LOOKUP_TABLE default
0.533177
0.326477
0.524695
0.331343
0.542634
0.351062
0.53309
0.335889
0.34934
0.52603
0.331567
0.33868
0.426931
0.535887
0.519184
0.516303
0.526176
0.514562
0.545134
0.528449
0.5333
0.333698
0.506428
0.534181
0.536151
0.547326
0.457473
0.478877
0.335789
0.504278
0.503655
0.341434
0.553497
0.529405
0.286299
0.350071
0.52831
0.53408
0.319323
0.506561
0.529492
0.502647
0.533738
0.328829
0.310975
0.532072
0.45868
0.468184
0.320831
0.533185
0.38941
0.331758
0.323917
0.426194
0.334152
0.421634
0.344157
0.322162
0.277458
0.476674
0.515998
0.474984
0.335722
0.544451
0.483298
0.533269
0.533096
0.318234
0.307304
0.33778
0.517221
0.543653
0.533105
0.279792
0.499571
0.410141
0.532881
0.331971
0.322395
0.467743
0.533173
0.336024
0.347677
0.43764
0.476613
0.376354
0.322841
0.285178
0.542038
0.342275
0.317664
0.532125
0.51732
0.514583
0.533408
0.320662
0.457463
0.279984
0.345654
0.323013
0.470957
0.323331
0.344156
0.307816
0.345085
0.527379
0.532827
0.34282
0.320385
0.532916
0.223878
0.392781
0.46894
0.491016
0.303176
0.297915
0.502362
0.456565
0.53338
0.32653
0.533167
0.2364
0.539816
0.541354
0.489412
0.400876
0.337567
0.459093
0.531247
0.265218
0.340828
0.428489
0.53221
0.344383
0.461068
0.344736
0.42508
0.51544
0.55519
0.542391
0.343257
0.514869
0.528047
0.332108
0.296141
0.545696
0.331754
0.541619
0.555638
0.352306
0.329762
0.327267
0.343523
0.333239
0.275871
0.280445
0.533045
0.531708
0.52192
0.536607
0.453575
0.463415
0.407312
0.543023
0.345945
0.533092
0.414093
0.332653
0.533073
0.535222
0.482103
0.312106
0.436124
0.519307
0.547828
0.415431
0.51259
0.357467
0.255123
0.41758
0.347818
0.259566
0.322054
0.306537
0.555569
0.533131
0.330792
0.331183
0.389377
0.333434
0.320093
0.323819
0.450653
0.299066
0.533137
0.464253
0.534456
0.483446
0.440525
0.322207
0.334497
0.302726
0.526629
0.439462
0.533157
0.300895
0.429461
0.533111
0.517579
0.534097
0.49403
0.401311
0.338187
0.350909
0.506118
0.353744
0.458967
0.330646
0.516361
0.332674
0.349071
0.340211
0.459036
0.383627
0.544969
0.263421
0.533161
0.522438
0.316112
0.477478
0.327353
0.272308
0.535128
0.318452
0.532701
0.535364
0.334493
0.53088
0.336669
0.352195
0.37198
0.330365
0.543641
0.522787
0.337605
0.233211
0.525729
0.532971
0.447991
0.505376
0.321769
0.337502
0.533064
0.338103
0.473434
0.278966
0.270489
0.533365
0.532397
0.306507
0.462103
0.326933
0.542929
0.348347
0.535029
0.533313
0.268375
0.473198
0.521361
0.306561
0.329021
0.533231
0.329496
0.551026
0.510205
0.329139
0.513319
0.513804
0.552282
0.530607
0.54661
0.463075
0.528776
0.532848
0.316318
0.326484
0.518392
0.538431
0.340916
0.530513
0.462597
0.284343
0.348557
0.323104
0.478447
0.32587
0.532891
0.480031
0.548749
0.332113
0.483753
0.483543
0.476815
0.532611
0.336341
0.235207
0.545091
0.532968
0.532986
0.328461
0.338792
0.481188
0.281887
0.310138
0.484012
0.533145
0.482014
0.220336
0.331428
0.482771
0.489342
0.322945
0.533729
0.533141
0.338823
0.414115
0.532317
0.514941
0.283314
0.326015
0.533433
0.346456
0.537876
0.365762
0.539611
0.394646
0.374675
0.335424
0.335274
0.301213
0.509127
0.547452
0.525103
0.543392
0.482466
0.474197
0.316933
0.53376
0.547703
0.318766
0.324492
0.53353
0.32491
0.514938
0.466411
0.31008
0.339442
0.343785
0.33197
0.533135
0.344211
0.342752
0.379929
0.324034
0.532669
0.533497
0.471255
0.532951
0.333696
0.529477
0.328345
0.533533
0.328848
0.34529
0.535059
0.467574
0.275741
0.263263
0.531575
0.362674
0.499864
0.513906
0.324043
0.529986
0.289103
0.351881
0.533626
0.296937
0.535527
0.281989
0.379678
0.336209
0.535977
0.468984
0.434783
0.532816
0.30913
0.546871
0.345801
0.311117
0.549948
0.293486
0.540142
0.421142
0.488149
0.292794
0.295799
0.315835
0.287099
0.315392
0.34957
0.529289
0.53355
0.533976
0.533214
0.350949
0.538692
0.46651
0.518085
0.245716
0.532314
0.342741
0.480487
0.470771
0.291608
0.533196
0.358378
0.522245
0.324242
0.487269
0.534377
0.290002
0.532062
0.252507
0.537761
0.325413
0.322646
0.41646
0.544307
0.540603
0.395067
0.265196
0.246082
0.419465
0.543357
0.526828
0.53266
0.530666
0.536498
0.321176
0.513808
0.481699
0.307807
0.242867
0.305218
0.498503
0.535476
0.366498
0.382078
0.373054
0.352304
0.527447
0.534067
0.533122
0.549412
0.40085
0.532853
0.534926
0.328237
0.539524
0.350867
0.348208
0.528997
0.534182
0.536954
0.545792
0.333385
0.311322
0.553554
0.530029
0.333868
0.528653
0.503491
0.53397
0.353986
0.321884
0.53518
0.333346
0.452505
0.534302
0.535308
0.311788
0.532708
0.326229
0.327682
0.320191
0.353011
0.532671
0.364349
0.515758
0.296497
0.326009
0.525314
0.348174
0.299028
0.300182
0.275362
0.357829
0.30848
0.315945
0.426728
0.440528
0.327833
0.342593
0.535927
0.333515
0.395955
0.532353
0.532648
0.488556
0.485727
0.432671
0.445399
0.295399
0.372201
0.532484
0.497106
0.244663
0.506278
0.254322
0.296098
0.285116
0.533354
0.551427
0.300293
0.494266
0.531017
0.284932
0.298579
0.541595
0.533085
0.35407
0.544307
0.379345
0.341485
0.54196
0.300846
0.454584
0.527596
0.396426
0.542671
0.322271
0.356585
0.537027
0.376063
0.348265
0.354443
0.323691
0.324516
0.532882
0.539426
0.521637
0.321435
0.251763
0.342031
0.30311
0.52941
0.244243
0.420064
0.303819
0.530369
0.532276
0.314905
0.533304
0.392868
0.485969
0.313049
0.526079
0.533453
0.555267
0.534819
0.533229
0.524685
0.355548
0.421684
0.359499
0.528181
0.32317
0.279977
0.531417
0.532765
0.532419
0.325516
0.337894
0.538752
0.54112
0.313887
0.533566
0.293155
0.311546
0.328365
0.554143
0.537717
0.522706
0.303704
0.312496
0.362749
0.329675
0.536954
0.533067
0.546754
0.321166
0.31988
0.455793
0.547724
0.544175
0.508703
0.532978
0.411749
0.536038
0.541644
0.515105
0.326631
0.536245
0.494358
0.533091
0.535664
0.546567
0.481213
0.380375
0.54624
0.350112
0.544213
0.532792
0.218147
0.533051
0.464533
0.534741
0.309396
0.332999
0.533225
0.2988
0.317562
0.548862
0.300886
0.416569
0.53734
0.283313
0.546547
0.327487
0.490981
0.531753
0.526983
0.498171
0.321076
0.321328
0.520808
0.435491
0.333731
0.480528
0.325579
0.533187
0.334832
0.461496
0.517132
0.53326
0.335026
0.492662
0.342317
0.412443
0.41608
0.327393
0.281704
0.32845
0.533393
0.459701
0.43491
0.319899
0.533335
0.486079
0.32024
0.533238
0.337052
0.456087
0.518202
0.533174
0.536545
0.299834
0.343097
0.533158
0.545274
0.523308
0.485586
0.543033
0.480369
0.466388
0.323906
0.503721
0.389618
0.350647
0.358827
0.533025
0.550117
0.505384
0.394553
0.323976
0.541147
0.343548
0.352275
0.407579
0.325209
0.45769
0.33362
0.53315
0.324345
0.323317
0.416345
0.544873
0.327378
0.318661
0.549549
0.543705
0.551597
0.322458
0.317947
0.538347
0.323734
0.319813
0.344384
0.436727
0.522838
0.268222
0.55093
0.331985
0.5071
0.532852
0.318896
0.411429
0.479929
0.500165
0.490226
0.539918
0.537376
0.544886
0.534752
0.533122
0.341301
0.379654
0.520157
0.28424
0.543218
0.524931
0.268902
0.530852
0.470707
0.508647
0.539661
0.462526
0.531554
0.324248
0.488312
0.340435
0.296559
0.534183
0.533313
0.259145
0.339418
0.530463
0.394995
0.450159
0.276707
0.250811
0.549312
0.514975
0.543866
0.511027
0.453695
0.38196
0.452025
0.337531
0.533187
0.502954
0.492118
0.339564
0.382494
0.544342
0.497063
0.538865
0.157302
0.533271
0.330141
0.319868
0.329974
0.517714
0.519925
0.54066
0.471663
0.338995
0.53316
0.388039
0.546473
0.547606
0.489452
0.334699
0.311041
0.533641
0.340997
0.427816
0.471548
0.320474
0.367909
0.516537
0.542691
0.326918
0.533241
0.531862
0.331021
0.533293
0.534608
0.538188
0.355767
0.336508
0.542773
0.31909
0.342675
0.409951
0.533143
0.321187
0.377542
0.317801
0.304571
0.537969
0.329492
0.334472
0.542812
0.328707
0.329955
0.552451
0.537792
0.534704
0.532953
0.487933
0.339676
0.551996
0.53229
0.314215
0.535868
0.533308
0.533087
0.533126
0.356521
0.533138
0.341105
0.53316
0.317836
0.533035
0.345306
0.518186
0.316513
0.540695
0.545673
0.550977
0.48611
0.533572
0.53578
0.306901
0.533312
0.263526
0.533169
0.537841
0.326746
0.406845
0.301795
0.335479
0.533173
0.365452
0.532563
0.125695
0.506067
0.507149
0.54008
0.39889
0.346338
0.246587
0.333359
0.275857
0.537277
0.368645
0.325899
0.534561
0.310742
0.364974
0.531736
0.532322
0.498914
0.535433
0.259885
0.487686
0.314396
0.533133
0.533862
0.525596
0.284653
0.54013
0.535795
0.541274
0.495089
0.532697
0.384768
0.532931
0.541011
0.439014
0.533608
0.316556
0.518747
0.352683
0.415911
0.518592
0.491045
0.529652
0.475321
0.487302
0.536603
0.323211
0.523421
0.330677
0.343904
0.541332
0.51178
0.476126
0.519961
0.531431
0.533124
0.536411
0.533151
0.533442
0.533996
0.552819
0.345998
0.499444
0.530175
0.328386
0.534037
0.322087
0.473418
0.310396
0.533424
0.333857
0.330525
0.306547
0.466713
0.534542
0.430016
0.515887
0.308267
0.343272
0.533009
0.533504
0.317419
0.499012
0.446661
0.310233
0.501877
0.335966
0.319229
0.534139
0.478589
0.324989
0.517474
0.531947
0.522154
0.331456
0.512542
0.241493
0.532966
0.385205
0.509907
0.318868
0.548854
0.314017
0.321351
0.326161
0.510131
0.29857
0.494969
0.547017
0.467893
0.345682
0.311951
0.542043
0.314046
0.233374
0.330246
0.535047
0.321796
0.309639
0.277312
0.499293
0.344438
0.340087
0.340686
0.532909
0.549857
0.345737
0.537818
0.53734
0.494367
0.338253
0.326009
0.534517
0.326779
0.555493
0.330792
0.529582
0.325078
0.154499
0.512847
0.329786
0.335861
0.329547
0.533396
0.303554
0.445019
0.537104
0.326101
0.51649
0.323146
0.550114
0.417323
0.326877
0.343309
0.534419
0.442638
0.533249
0.316167
0.344345
0.431763
0.533175
0.319638
0.303722
0.321848
0.415723
0.536895
0.344672
0.447583
0.530638
0.533346
0.524339
0.331403
0.535836
0.326593
0.533692
0.533973
0.457063
0.344784
0.484255
0.537724
0.326318
0.536491
0.53808
0.339223
0.333039
0.313862
0.259252
0.54116
0.32963
0.533043
0.387394
0.533175
0.495638
0.374831
0.510451
0.309461
0.477729
0.333212
0.532644
0.532065
0.236593
0.331482
0.343467
0.466135
0.553103
0.330731
0.30965
0.356169
0.453498
0.546867
0.256775
0.332798
0.52445
0.537011
0.52732
0.333464
0.333193
0.52329
0.532678
0.320584
0.335051
0.439067
0.549983
0.488058
0.312535
0.533489
0.534439
0.314081
0.537868
0.32248
0.539926
0.320018
0.355627
0.325377
0.276725
0.532822
0.339495
0.328342
0.335967
0.332332
0.479368
0.529973
0.550364
0.323619
0.533138
0.534886
0.534385
0.547675
0.532523
0.54804
0.549957
0.548618
0.538478
0.531665
0.287097
0.483911
0.549907
0.32454
0.540427
0.544843
0.536084
0.534689
0.318101
0.54233
0.533128
0.535967
0.342399
0.502027
0.528995
0.53305
0.529233
0.327521
0.485154
0.339961
0.416684
0.317094
0.316161
0.316074
0.332814
0.53353
0.534198
0.521219
0.320008
0.534112
0.533261
0.537001
0.331573
0.33997
0.517307
0.312138
0.318367
0.306166
0.536409
0.422157
0.534032
0.304782
0.546191
0.532528
0.453463
0.539509
0.323563
0.550257
0.53489
0.512074
0.538965
0.533464
0.519124
0.327181
0.356328
0.342654
0.532674
0.314166
0.534581
0.519072
0.488738
0.33695
0.349283
0.483524
0.540675
0.532922
0.333755
0.524126
0.478153
0.25803
0.53352
0.334845
0.330221
0.314611
0.325414
0.314269
0.539289
0.535312
0.552667
0.441356
0.532645
0.532806
0.515711
0.533393
0.546767
0.548875
0.532554
0.532731
0.328946
0.53302
0.526949
0.426144
0.326003
0.502816
0.2967
0.536873
0.367925
0.539281
0.545866
0.337971
0.536923
0.333291
0.533635
0.530241
0.547662
0.488952
0.516034
0.545595
0.532708
0.342109
0.445977
0.422538
0.246216
0.533673
0.537605
0.437168
0.551393
0.525454
0.532997
0.305682
0.33014
0.527225
0.546479
0.328867
0.215298
0.512466
0.533538
0.534144
0.272047
0.451982
0.511774
0.531643
0.328455
0.533273
0.484893
0.52524
0.505972
0.439247
0.533167
0.294448
0.530521
0.324186
0.30821
0.533431
0.35073
0.351324
0.326655
0.524762
0.506755
0.439441
0.533245
0.43192
0.37741
0.321098
0.542221
0.531396
0.539937
0.490229
0.251602
0.521379
0.434494
0.322877
0.531062
0.537792
0.335596
0.535718
0.528398
0.533051
0.448628
0.532514
0.361857
0.53374
0.52989
0.532852
0.310806
0.525109
0.383272
0.50895
0.532636
0.544574
0.529641
0.533662
0.534107
0.531847
0.516531
0.31726
0.541317
0.511203
0.349403
0.494584
0.536046
0.551545
0.49536
0.324107
0.531274
0.34154
0.545769
0.490244
0.537161
0.335887
0.512584
0.533829
0.533219
0.525113
0.475168
0.533172
0.465506
0.388253
0.326661
0.284491
0.533041
0.333632
0.294641
0.537104
0.331583
0.543784
0.314057
0.535075
0.333339
0.331476
0.520593
0.39554
0.298748
0.527251
0.532172
0.537737
0.309582
0.503739
0.533017
0.530633
0.327646
0.533191
0.533724
0.328812
0.479617
0.461657
0.523535
0.350931
0.39259
0.510385
0.317722
0.538733
0.341146
0.340176
0.532798
0.387838
0.504675
0.334768
0.539289
0.423171
0.533203
0.194311
0.336943
0.532875
0.362395
0.533175
0.342013
0.534008
0.477201
0.467977
0.533204
0.501203
0.243666
0.534459
0.549261
0.530307
0.533194
0.307504
0.339843
0.337021
0.341001
0.532858
0.351463
0.513201
0.324949
0.531957
0.533982
0.532795
0.330803
0.533984
0.327923
0.533857
0.540808
0.369135
0.532734
0.5173
0.325304
0.519124
0.313268
0.346034
0.550049
0.335813
0.543314
0.225367
0.344626
0.510844
0.373097
0.538769
0.325698
0.461795
0.532117
0.52921
0.385722
0.256643
0.324687
0.533041
0.533135
0.34553
0.534816
0.320047
0.531633
0.326541
0.332324
0.464485
0.473891
0.420332
0.491848
0.533264
0.493945
0.473116
0.5354
0.532905
0.339484
0.534349
0.364909
0.353292
0.493204
0.409152
0.395779
0.442957
0.336063
0.512242
0.533231
0.535937
0.327499
0.337963
0.443807
0.506512
0.533617
0.546234
0.329849
0.498459
0.531585
0.503092
0.442232
0.32853
0.319712
0.335506
0.555972
0.536663
0.30274
0.318682
0.437142
0.32736
0.54992
0.513247
0.329284
0.532998
0.406386
0.540229
0.535381
0.333763
0.371537
0.50436
0.331138
0.395677
0.53198
0.276936
0.334865
0.332991
0.507753
0.536174
0.506286
0.344642
0.323898
0.5293
0.53432
0.491817
0.538585
0.330688
0.336508
0.341749
0.497887
0.301567
0.33415
0.537358
0.541676
0.513135
0.322821
0.344993
0.347728
0.533263
0.306391
0.532704
0.533155
0.529024
0.430421
0.532172
0.549832
0.331883
0.331649
0.535113
0.330841
0.467255
0.524558
0.541709
0.436089
0.31196
0.29274
0.541363
0.405556
0.304644
0.533605
0.533204
0.298424
0.329298
0.512348
0.444295
0.32962
0.33494
0.540107
0.489838
0.526213
0.466024
0.349351
0.289265
0.3489
0.384296
0.309
0.533146
0.527206
0.469043
0.508589
0.337861
0.501768
0.345129
0.532262
0.545847
0.341694
0.267032
0.528945
0.388877
0.471964
0.534185
0.313799
0.529777
0.528345
0.532641
0.53326
0.498554
0.370717
0.311026
0.320937
0.510417
0.533116
0.511062
0.444038
0.332695
0.310096
0.493474
0.333553
0.537825
0.532597
0.531975
0.339882
0.321559
0.463822
0.504471
0.533169
0.524337
0.533595
0.533003
0.535345
0.474257
0.254317
0.533081
0.494486
0.534089
0.329729
0.52871
0.424655
0.526597
0.553158
0.44616
0.491787
0.53067
0.508646
0.533182
0.326827
0.530415
0.551317
0.352397
0.501221
0.310357
0.304385
0.533144
0.533273
0.343948
0.48346
0.532699
0.349685
0.341248
0.55114
0.550961
0.471024
0.365052
0.496377
0.325528
0.542757
0.549682
0.328407
0.453013
0.498682
0.323239
0.328824
0.353106
0.536243
0.525943
0.329387
0.370773
0.342867
0.352314
0.347996
0.496472
0.324484
0.551987
0.534439
0.541236
0.3363
0.531851
0.43971
0.531195
0.446279
0.52823
0.331134
0.298461
0.335579
0.532883
0.335998
0.33161
0.492857
0.343264
0.533226
0.506704
0.426664
0.31814
0.32148
0.520378
0.535263
0.526258
0.522018
0.543049
0.33233
0.374886
0.317502
0.509112
0.534188
0.329646
0.51136
0.296302
0.345414
0.533506
0.33402
0.339465
0.244172
0.374778
0.337746
0.533771
0.530743
0.537071
0.33531
0.532572
0.542161
0.329674
0.53376
0.376942
0.539442
0.358511
0.391407
0.532358
0.325898
0.250479
0.528071
0.523183
0.327103
0.546392
0.497268
0.532296
0.400672
0.330348
0.501439
0.533437
0.364535
0.380823
0.420576
0.395917
0.533462
0.343838
0.327874
0.541099
0.500777
0.357725
0.333392
0.531603
0.325464
0.301377
0.33622
0.454658
0.544717
0.332766
0.539493
0.328116
0.31429
0.343202
0.405519
0.342785
0.538747
0.337446
0.337577
0.481532
0.538401
0.358319
0.53297
0.332037
0.319721
0.50839
0.552856
0.523079
0.513506
0.516165
0.546347
0.329959
0.538909
0.29374
0.532989
0.525764
0.41139
0.525413
0.533134
0.533096
0.532892
0.43678
0.340576
0.429099
0.342827
0.497927
0.531459
0.498043
0.318845
0.535216
0.369122
0.533018
0.328213
0.304575
0.55732
0.303091
0.527082
0.55316
0.372222
0.343466
0.329668
0.532614
0.394798
0.250696
0.540302
0.325469
0.524833
0.343502
0.349107
0.328266
0.53469
0.391005
0.533302
0.331155
0.352894
0.533321
0.53177
0.282018
0.359287
0.271865
0.481787
0.334893
0.520066
0.529819
0.533072
0.236466
0.332703
0.450926
0.530072
0.548818
0.531627
0.30754
0.51126
0.537099
0.533018
0.533242
0.330943
0.519463
0.32666
0.442187
0.541535
0.536861
0.528691
0.545446
0.489867
0.531117
0.543993
0.532393
0.5213
0.535758
0.532794
0.535057
0.332624
0.327011
0.533696
0.475526
0.533276
0.533173
0.548887
0.520151
0.54523
0.345632
0.328318
0.533207
0.332492
0.326675
0.341869
0.533066
0.522503
0.533153
0.506264
0.520763
0.326704
0.537757
0.329237
0.327533
0.545884
0.523781
0.523396
0.40068
0.395859
0.337845
0.329154
0.389269
0.315792
0.362539
0.543882
0.30931
0.530523
0.337767
0.539324
0.531926
0.282477
0.336078
0.492916
0.533223
0.336194
0.50812
0.26808
0.318125
0.32926
0.450623
0.534665
0.533156
0.533616
0.222093
0.349327
0.283712
0.34398
0.533179
0.547553
0.53806
0.346577
0.329623
0.532703
0.531913
0.536061
0.317183
0.479272
0.465604
0.543262
0.431644
0.357548
0.34118
0.331213
0.534722
0.330348
0.333579
0.53317
0.320206
0.533706
0.341846
0.374623
0.400738
0.335434
0.545702
0.533185
0.533688
0.443743
0.555632
0.5103
0.469385
0.331693
0.507732
0.530347
0.509375
0.535817
0.531686
0.539665
0.425138
0.531604
0.534742
0.377791
0.339571
0.549509
0.402627
0.532399
0.345758
0.546663
0.371821
0.525509
0.53391
0.507465
0.532173
0.538926
0.514534
0.317974
0.330968
0.536912
0.547316
0.532343
0.435412
0.544184
0.448683
0.494728
0.532612
0.472312
0.459863
0.540017
0.53313
0.338912
0.328442
0.533855
0.500668
0.328789
0.352428
0.425285
0.533168
0.533161
0.55106
0.346649
0.523443
0.312144
0.535669
0.325411
0.544851
0.284136
0.549829
0.35707
0.531291
0.446076
0.329886
0.293091
0.471777
0.33745
0.478613
0.327086
0.533353
0.533159
0.529799
0.522681
0.533467
0.534607
0.532724
0.550323
0.540747
0.499388
0.515092
0.491803
0.538178
0.333693
0.500797
0.498194
0.531271
0.324186
0.496135
0.545423
0.532921
0.346155
0.320536
0.346247
0.54425
0.494628
0.322481
0.498215
0.391411
0.53338
0.31274
0.413247
0.334766
0.303591
0.553508
0.318746
0.507417
0.329492
0.551578
0.360514
0.533349
0.502628
0.528462
0.349603
0.340106
0.351176
0.514502
0.324523
0.341763
0.336247
0.53997
0.515513
0.545087
0.521076
0.531068
0.508872
0.375964
0.340879
0.529451
0.328253
0.451273
0.526212
0.550794
0.2026
0.29894
0.520463
0.532819
0.409465
0.524858
0.534658
0.518128
0.339538
0.542895
0.518766
0.530351
0.532135
0.322566
0.533177
0.329994
0.531141
0.54196
0.503807
0.532086
0.356028
0.536819
0.218932
0.355735
0.49549
0.506958
0.527752
0.451871
0.334192
0.530881
0.535544
0.323038
0.335071
0.303122
0.549491
0.332529
0.291942
0.336093
0.337015
0.322096
0.370966
0.54272
0.312021
0.538944
0.522209
0.326845
0.534877
0.314159
0.548613
0.309699
0.455577
0.318577
0.52469
0.534013
0.399453
0.495549
0.533219
0.521151
0.316959
0.476518
0.432128
0.32416
0.322005
0.405273
0.284243
0.544366
0.281869
0.310599
0.33137
0.533146
0.527397
0.326896
0.331741
0.545246
0.328934
0.33092
0.53305
0.324142
0.316205
0.364739
0.552665
0.502567
0.545076
0.33769
0.290844
0.538258
0.518265
0.532819
0.397154
0.504697
0.528283
0.416953
0.404193
0.335404
0.316884
0.239008
0.493782
0.266379
0.547233
0.512138
0.532421
0.342593
0.412982
0.420754
0.558749
0.313994
0.483191
0.238118
0.490831
0.323637
0.28198
0.297744
0.537252
0.327303
0.551759
0.34477
0.382809
0.326374
0.469096
0.328431
0.543447
0.32756
0.501245
0.486077
0.335238
0.533786
0.533813
0.29498
0.548406
0.352432
0.331728
0.542513
0.313619
0.515577
0.394054
0.223199
0.532413
0.31548
0.357553
0.340733
0.364602
0.325427
0.513621
0.438407
0.523055
0.547171
0.529124
0.543091
0.411229
0.537307
0.307996
0.53424
0.329644
0.525239
0.333982
0.393177
0.522141
0.549057
0.534624
0.357319
0.433219
0.324622
0.352326
0.356425
0.222011
0.536472
0.4093
0.547175
0.532428
0.484788
0.538702
0.534127
0.397667
0.326482
0.361669
0.541297
0.487432
0.501794
0.533771