# vtk DataFile Version 1.0
unstructured grid
ascii
DATASET UNSTRUCTURED_GRID
points 3226 float
0.0796578 -0.059106 0
0.00128732 0.00159165 0
0.00227961 -0.00102548 0
0.0791586 -0.0598787 0
-0.0546216 0.01 0
0.000495206 0.025 0
0.0800549 -0.035 0
0.135172 -0.08 0
-0.0546216 -0.0451168 0
0.000495206 -0.0301168 0
0.0800549 -0.0901168 0
0.135172 -0.135117 0
-0.0546216 -0.0451168 -0.00551168
0.000495206 -0.0301168 -0.00551168
0.0800549 -0.0901168 -0.00551168
0.135172 -0.135117 -0.00551168
0.135172 -0.08 -0.00551168
0.0800549 -0.035 -0.00551168
0.000495206 0.025 -0.00551168
-0.0546216 0.01 -0.00551168
0.00128732 0.00159165 -0.00551168
0.00227961 -0.00102548 -0.00551168
0.0791586 -0.0598787 -0.00551168
0.0796578 -0.059106 -0.00551168
0.00110182 -0.000823821 0
0.000571683 -0.000188043 0
0.000561313 0.000639162 0
0.00189316 0.00207203 0
0.00260228 0.00255358 0
0.0033966 0.00307293 0
0.00428861 0.00362634 0
0.00529726 0.0041979 0
0.00644092 0.00476696 0
0.00773158 0.0053187 0
0.00918011 0.00583593 0
0.010799 0.00628751 0
0.012597 0.00663225 0
0.0145725 0.0068517 0
0.0167206 0.0069338 0
0.0190349 0.00685819 0
0.0215031 0.00658621 0
0.0241038 0.00607459 0
0.026821 0.00533786 0
0.0296245 0.00434523 0
0.0324763 0.00306927 0
0.0353199 0.00146906 0
0.0381488 -0.00039338 0
0.0409131 -0.00252802 0
0.0435632 -0.00493276 0
0.0460882 -0.0075571 0
0.0484881 -0.0103478 0
0.0506782 -0.0133217 0
0.0526651 -0.016422 0
0.0546139 -0.0195019 0
0.0565301 -0.022529 0
0.0584009 -0.0254846 0
0.0602154 -0.0283513 0
0.061964 -0.031114 0
0.0636389 -0.0337601 0
0.0652336 -0.0362795 0
0.0667431 -0.0386651 0
0.0681656 -0.0409111 0
0.0694983 -0.0430158 0
0.0707356 -0.0449823 0
0.071886 -0.0468071 0
0.0729575 -0.04849 0
0.0739438 -0.0500408 0
0.0748444 -0.0514675 0
0.0756707 -0.0527715 0
0.0764313 -0.053958 0
0.0771224 -0.0550398 0
0.0777384 -0.0560288 0
0.0782803 -0.0569318 0
0.0787691 -0.0577448 0
0.0792251 -0.0584672 0
0.0800494 -0.0597378 0
0.0797987 -0.0601582 0
0.0786655 -0.059391 0
0.0781259 -0.0588425 0
0.0775539 -0.0582102 0
0.0769587 -0.0574783 0
0.0763492 -0.0566339 0
0.075723 -0.0556725 0
0.0750452 -0.0546094 0
0.0742996 -0.0534457 0
0.073478 -0.0521785 0
0.072577 -0.0508019 0
0.0715904 -0.049313 0
0.0705098 -0.047712 0
0.069328 -0.0459996 0
0.0680378 -0.0441794 0
0.066632 -0.0422571 0
0.0651046 -0.0402413 0
0.0634508 -0.0381431 0
0.0616683 -0.0359754 0
0.0597581 -0.033753 0
0.0577255 -0.0314906 0
0.0555808 -0.0292024 0
0.0533388 -0.0269013 0
0.0510024 -0.0246151 0
0.0485693 -0.0223811 0
0.0460535 -0.0202228 0
0.0434788 -0.0181535 0
0.0408704 -0.0161833 0
0.0382442 -0.0143327 0
0.0356165 -0.0126209 0
0.0330065 -0.0110594 0
0.0304368 -0.00965062 0
0.0279338 -0.00838121 0
0.0255194 -0.00723697 0
0.0231965 -0.00623664 0
0.020983 -0.00535765 0
0.0188891 -0.00458677 0
0.0169193 -0.00391673 0
0.0150754 -0.00334068 0
0.0133572 -0.00285262 0
0.0117634 -0.0024437 0
0.0102912 -0.00210643 0
0.0089363 -0.00183343 0
0.00769424 -0.00161552 0
0.00655956 -0.00144452 0
0.00552632 -0.00131235 0
0.00458815 -0.00121216 0
0.00373885 -0.00113394 0
0.00297202 -0.00106855 0
-0.0506847 -0.0440454 0
-0.0467478 -0.0429739 0
-0.0428108 -0.0419025 0
-0.0388739 -0.0408311 0
-0.034937 -0.0397597 0
-0.0310001 -0.0386882 0
-0.0270632 -0.0376168 0
-0.0231263 -0.0365454 0
-0.0191894 -0.0354739 0
-0.0152525 -0.0344025 0
-0.0113155 -0.0333311 0
-0.00737862 -0.0322597 0
-0.00344171 -0.0311882 0
0.0038716 -0.0298185 0
0.00726082 -0.0297726 0
0.010644 -0.0299802 0
0.0140027 -0.0304367 0
0.0173201 -0.0311326 0
0.0205821 -0.0320541 0
0.0237776 -0.0331851 0
0.0268988 -0.0345078 0
0.0299406 -0.0360041 0
0.0329005 -0.0376567 0
0.035778 -0.039449 0
0.038574 -0.0413659 0
0.0412905 -0.043394 0
0.0439303 -0.0455212 0
0.0464964 -0.0477367 0
0.0489922 -0.0500312 0
0.051421 -0.0523964 0
0.0537863 -0.0548252 0
0.0560914 -0.0573112 0
0.0583395 -0.0598489 0
0.0605336 -0.0624334 0
0.0626765 -0.0650605 0
0.064771 -0.0677264 0
0.0668197 -0.0704277 0
0.0688248 -0.0731615 0
0.0707885 -0.0759252 0
0.072713 -0.0787163 0
0.0746002 -0.0815329 0
0.0764517 -0.0843729 0
0.0782695 -0.0872347 0
0.0829558 -0.0924852 0
0.0858567 -0.0948536 0
0.0887575 -0.0972221 0
0.0916584 -0.0995905 0
0.0945593 -0.101959 0
0.0974602 -0.104327 0
0.100361 -0.106696 0
0.103262 -0.109064 0
0.106163 -0.111433 0
0.109064 -0.113801 0
0.111965 -0.116169 0
0.114865 -0.118538 0
0.117766 -0.120906 0
0.120667 -0.123275 0
0.123568 -0.125643 0
0.126469 -0.128012 0
0.12937 -0.13038 0
0.132271 -0.132748 0
0.135172 -0.13118 0
0.135172 -0.127243 0
0.135172 -0.123306 0
0.135172 -0.119369 0
0.135172 -0.115432 0
0.135172 -0.111495 0
0.135172 -0.107558 0
0.135172 -0.103621 0
0.135172 -0.0996846 0
0.135172 -0.0957477 0
0.135172 -0.0918107 0
0.135172 -0.0878738 0
0.135172 -0.0839369 0
0.132271 -0.0776316 0
0.12937 -0.0752632 0
0.126469 -0.0728947 0
0.123568 -0.0705263 0
0.120667 -0.0681579 0
0.117766 -0.0657895 0
0.114865 -0.0634211 0
0.111965 -0.0610526 0
0.109064 -0.0586842 0
0.106163 -0.0563158 0
0.103262 -0.0539474 0
0.100361 -0.0515789 0
0.0974602 -0.0492105 0
0.0945593 -0.0468421 0
0.0916584 -0.0444737 0
0.0887575 -0.0421053 0
0.0858567 -0.0397368 0
0.0829558 -0.0373684 0
0.0782695 -0.0321179 0
0.0764517 -0.0292561 0
0.0746002 -0.026416 0
0.072713 -0.0235995 0
0.0707885 -0.0208084 0
0.0688248 -0.0180447 0
0.0668197 -0.0153109 0
0.064771 -0.0126096 0
0.0626765 -0.00994373 0
0.0605336 -0.00731663 0
0.0583395 -0.00473208 0
0.0560914 -0.00219437 0
0.0537863 0.000291632 0
0.051421 0.00272041 0
0.0489922 0.00508564 0
0.0464964 0.00738012 0
0.0439303 0.00959562 0
0.0412905 0.0117228 0
0.038574 0.0137509 0
0.035778 0.0156678 0
0.0329005 0.0174601 0
0.0299406 0.0191127 0
0.0268988 0.020609 0
0.0237776 0.0219317 0
0.0205821 0.0230627 0
0.0173201 0.0239842 0
0.0140027 0.0246801 0
0.010644 0.0251366 0
0.00726082 0.0253442 0
0.0038716 0.0252983 0
-0.00344171 0.0239286 0
-0.00737862 0.0228571 0
-0.0113155 0.0217857 0
-0.0152525 0.0207143 0
-0.0191894 0.0196429 0
-0.0231263 0.0185714 0
-0.0270632 0.0175 0
-0.0310001 0.0164286 0
-0.034937 0.0153571 0
-0.0388739 0.0142857 0
-0.0428108 0.0132143 0
-0.0467478 0.0121429 0
-0.0506847 0.0110714 0
-0.0546216 0.00606309 0
-0.0546216 0.00212617 0
-0.0546216 -0.00181074 0
-0.0546216 -0.00574766 0
-0.0546216 -0.00968457 0
-0.0546216 -0.0136215 0
-0.0546216 -0.0175584 0
-0.0546216 -0.0214953 0
-0.0546216 -0.0254322 0
-0.0546216 -0.0293691 0
-0.0546216 -0.0333061 0
-0.0546216 -0.037243 0
-0.0546216 -0.0411799 0
-0.0506847 -0.0440454 -0.00551168
-0.0467478 -0.0429739 -0.00551168
-0.0428108 -0.0419025 -0.00551168
-0.0388739 -0.0408311 -0.00551168
-0.034937 -0.0397597 -0.00551168
-0.0310001 -0.0386882 -0.00551168
-0.0270632 -0.0376168 -0.00551168
-0.0231263 -0.0365454 -0.00551168
-0.0191894 -0.0354739 -0.00551168
-0.0152525 -0.0344025 -0.00551168
-0.0113155 -0.0333311 -0.00551168
-0.00737862 -0.0322597 -0.00551168
-0.00344171 -0.0311882 -0.00551168
0.0038716 -0.0298185 -0.00551168
0.00726082 -0.0297726 -0.00551168
0.010644 -0.0299802 -0.00551168
0.0140027 -0.0304367 -0.00551168
0.0173201 -0.0311326 -0.00551168
0.0205821 -0.0320541 -0.00551168
0.0237776 -0.0331851 -0.00551168
0.0268988 -0.0345078 -0.00551168
0.0299406 -0.0360041 -0.00551168
0.0329005 -0.0376567 -0.00551168
0.035778 -0.039449 -0.00551168
0.038574 -0.0413659 -0.00551168
0.0412905 -0.043394 -0.00551168
0.0439303 -0.0455212 -0.00551168
0.0464964 -0.0477367 -0.00551168
0.0489922 -0.0500312 -0.00551168
0.051421 -0.0523964 -0.00551168
0.0537863 -0.0548252 -0.00551168
0.0560914 -0.0573112 -0.00551168
0.0583395 -0.0598489 -0.00551168
0.0605336 -0.0624334 -0.00551168
0.0626765 -0.0650605 -0.00551168
0.064771 -0.0677264 -0.00551168
0.0668197 -0.0704277 -0.00551168
0.0688248 -0.0731615 -0.00551168
0.0707885 -0.0759252 -0.00551168
0.072713 -0.0787163 -0.00551168
0.0746002 -0.0815329 -0.00551168
0.0764517 -0.0843729 -0.00551168
0.0782695 -0.0872347 -0.00551168
0.0829558 -0.0924852 -0.00551168
0.0858567 -0.0948536 -0.00551168
0.0887575 -0.0972221 -0.00551168
0.0916584 -0.0995905 -0.00551168
0.0945593 -0.101959 -0.00551168
0.0974602 -0.104327 -0.00551168
0.100361 -0.106696 -0.00551168
0.103262 -0.109064 -0.00551168
0.106163 -0.111433 -0.00551168
0.109064 -0.113801 -0.00551168
0.111965 -0.116169 -0.00551168
0.114865 -0.118538 -0.00551168
0.117766 -0.120906 -0.00551168
0.120667 -0.123275 -0.00551168
0.123568 -0.125643 -0.00551168
0.126469 -0.128012 -0.00551168
0.12937 -0.13038 -0.00551168
0.132271 -0.132748 -0.00551168
0.135172 -0.13118 -0.00551168
0.135172 -0.127243 -0.00551168
0.135172 -0.123306 -0.00551168
0.135172 -0.119369 -0.00551168
0.135172 -0.115432 -0.00551168
0.135172 -0.111495 -0.00551168
0.135172 -0.107558 -0.00551168
0.135172 -0.103621 -0.00551168
0.135172 -0.0996846 -0.00551168
0.135172 -0.0957477 -0.00551168
0.135172 -0.0918107 -0.00551168
0.135172 -0.0878738 -0.00551168
0.135172 -0.0839369 -0.00551168
0.132271 -0.0776316 -0.00551168
0.12937 -0.0752632 -0.00551168
0.126469 -0.0728947 -0.00551168
0.123568 -0.0705263 -0.00551168
0.120667 -0.0681579 -0.00551168
0.117766 -0.0657895 -0.00551168
0.114865 -0.0634211 -0.00551168
0.111965 -0.0610526 -0.00551168
0.109064 -0.0586842 -0.00551168
0.106163 -0.0563158 -0.00551168
0.103262 -0.0539474 -0.00551168
0.100361 -0.0515789 -0.00551168
0.0974602 -0.0492105 -0.00551168
0.0945593 -0.0468421 -0.00551168
0.0916584 -0.0444737 -0.00551168
0.0887575 -0.0421053 -0.00551168
0.0858567 -0.0397368 -0.00551168
0.0829558 -0.0373684 -0.00551168
0.0782695 -0.0321179 -0.00551168
0.0764517 -0.0292561 -0.00551168
0.0746002 -0.026416 -0.00551168
0.072713 -0.0235995 -0.00551168
0.0707885 -0.0208084 -0.00551168
0.0688248 -0.0180447 -0.00551168
0.0668197 -0.0153109 -0.00551168
0.064771 -0.0126096 -0.00551168
0.0626765 -0.00994373 -0.00551168
0.0605336 -0.00731663 -0.00551168
0.0583395 -0.00473208 -0.00551168
0.0560914 -0.00219437 -0.00551168
0.0537863 0.000291632 -0.00551168
0.051421 0.00272041 -0.00551168
0.0489922 0.00508564 -0.00551168
0.0464964 0.00738012 -0.00551168
0.0439303 0.00959562 -0.00551168
0.0412905 0.0117228 -0.00551168
[...]
CELL_DATA 2965
SCALARS rho float
LOOKUP_TABLE default
0.533266
0.318732
0.524721
0.328733
0.542432
0.360518
0.533378
0.33272
0.362989
0.526039
0.328516
0.34076
0.426939
0.535923
0.519172
0.516409
0.526566
0.513922
0.544736
0.528857
0.533158
0.336209
0.505522
0.533267
0.536109
0.54646
0.457421
0.478761
0.331531
0.504348
0.503715
0.340174
0.552759
0.529435
0.286225
0.359861
0.528537
0.534076
0.316839
0.506646
0.529635
0.502586
0.533404
0.329309
0.304594
0.532002
0.45859
0.467965
0.320952
0.532881
0.389301
0.331536
0.316449
0.426134
0.330929
0.421545
0.349133
0.319324
0.277382
0.476531
0.515979
0.474715
0.332052
0.544085
0.48272
0.533447
0.533175
0.320075
0.305243
0.351723
0.5167
0.543339
0.533143
0.274718
0.499605
0.410173
0.533573
0.330846
0.321266
0.467753
0.533145
0.332738
0.337516
0.437643
0.476004
0.376244
0.317524
0.285607
0.541178
0.347919
0.314875
0.532204
0.517704
0.514685
0.533385
0.319048
0.457395
0.27714
0.349524
0.325036
0.470829
0.323998
0.338085
0.302937
0.341698
0.527833
0.533496
0.335986
0.316934
0.533502
0.222799
0.392781
0.468943
0.490714
0.301535
0.291362
0.501345
0.456492
0.53289
0.32716
0.533154
0.23631
0.539293
0.54127
0.488554
0.400774
0.338666
0.459131
0.531291
0.265131
0.340311
0.428416
0.532241
0.345055
0.461017
0.336828
0.425043
0.515774
0.553988
0.542221
0.346143
0.515033
0.52815
0.332078
0.296579
0.545255
0.329106
0.541456
0.554898
0.352475
0.328881
0.323725
0.338015
0.330171
0.275789
0.281154
0.533456
0.531721
0.520992
0.535714
0.453555
0.463422
0.407252
0.542679
0.360716
0.533363
0.414126
0.33327
0.533049
0.534713
0.482112
0.312142
0.436074
0.519377
0.547212
0.415407
0.512682
0.357462
0.254891
0.417495
0.344147
0.259296
0.321519
0.306443
0.554731
0.53335
0.326165
0.33209
0.389265
0.32787
0.317565
0.321285
0.450626
0.298996
0.533029
0.464245
0.534473
0.483275
0.440489
0.323392
0.334251
0.293707
0.526864
0.439449
0.533225
0.298249
0.429416
0.533059
0.516808
0.534921
0.493914
0.401254
0.336795
0.348311
0.505995
0.346695
0.458883
0.328014
0.516381
0.327188
0.363151
0.341005
0.459035
0.383521
0.544107
0.259337
0.533159
0.522477
0.316186
0.477479
0.326606
0.266986
0.535233
0.316834
0.532772
0.534811
0.330541
0.530952
0.330743
0.352262
0.371987
0.32801
0.543353
0.522915
0.339
0.229448
0.525811
0.533036
0.447936
0.505232
0.324601
0.332772
0.533463
0.33683
0.472435
0.277923
0.26568
0.532826
0.532767
0.341306
0.462117
0.327017
0.542634
0.360658
0.535039
0.532962
0.268285
0.473191
0.52138
0.303019
0.328179
0.534187
0.329025
0.550268
0.510138
0.329459
0.512966
0.51377
0.551381
0.530245
0.546078
0.462493
0.529762
0.533058
0.316302
0.323407
0.517429
0.537849
0.341217
0.531556
0.46257
0.274566
0.337824
0.322193
0.478452
0.324456
0.533556
0.480047
0.547828
0.32695
0.48378
0.483481
0.476803
0.532919
0.331451
0.235121
0.544678
0.533523
0.533518
0.326549
0.342921
0.481153
0.279209
0.306981
0.482933
0.533198
0.481644
0.218441
0.32684
0.482608
0.48836
0.326226
0.533039
0.53324
0.340162
0.414064
0.532476
0.515045
0.278024
0.325453
0.532904
0.345867
0.538084
0.36567
0.539232
0.394568
0.374703
0.328395
0.336397
0.301294
0.50829
0.546588
0.525859
0.543047
0.482389
0.474171
0.31465
0.533433
0.547109
0.356434
0.322276
0.532888
0.323001
0.515182
0.465719
0.348136
0.33246
0.341473
0.328446
0.533223
0.339561
0.341344
0.379811
0.326986
0.533094
0.533264
0.471222
0.53356
0.329383
0.528585
0.329117
0.5328
0.326588
0.339206
0.535839
0.467466
0.26858
0.263082
0.532495
0.362735
0.499823
0.513932
0.324074
0.530805
0.289432
0.342135
0.532882
0.298398
0.53599
0.282553
0.379561
0.334177
0.536642
0.468998
0.434774
0.533289
0.309209
0.546306
0.345886
0.307266
0.54918
0.289745
0.539967
0.421045
0.487985
0.293166
0.295868
0.312338
0.287543
0.31199
0.348364
0.529325
0.533282
0.53356
0.532864
0.337943
0.538726
0.466493
0.517246
0.245353
0.532764
0.345482
0.48021
0.470351
0.277376
0.532997
0.358392
0.522255
0.316514
0.487128
0.534824
0.286397
0.531161
0.252418
0.538225
0.3231
0.319159
0.41635
0.543903
0.54066
0.395007
0.260197
0.246071
0.419405
0.543005
0.527766
0.533186
0.531667
0.536471
0.318588
0.513897
0.481632
0.328812
0.240593
0.301714
0.498554
0.53508
0.366382
0.382045
0.372959
0.352891
0.526991
0.533674
0.532997
0.548737
0.400756
0.533099
0.534695
0.328219
0.539771
0.350802
0.348247
0.528096
0.533588
0.537241
0.545299
0.328648
0.304058
0.55289
0.531052
0.329366
0.529169
0.503556
0.53349
0.357322
0.312982
0.534909
0.328492
0.452527
0.533825
0.534853
0.356162
0.532989
0.324867
0.328398
0.319133
0.353016
0.532911
0.364291
0.51548
0.297005
0.328555
0.525882
0.339268
0.298985
0.355899
0.275278
0.357711
0.306855
0.311128
0.426701
0.440506
0.325238
0.357707
0.536252
0.328944
0.395988
0.532664
0.53326
0.487504
0.484942
0.432736
0.445424
0.294897
0.372099
0.532864
0.497066
0.243386
0.506325
0.249663
0.295986
0.283883
0.533924
0.550588
0.303449
0.493205
0.530738
0.284841
0.287416
0.541344
0.533438
0.353948
0.543955
0.379377
0.337051
0.541732
0.300053
0.454503
0.527651
0.396344
0.542379
0.31999
0.347581
0.536465
0.37612
0.342314
0.357217
0.317318
0.322938
0.533206
0.539657
0.521916
0.318119
0.251672
0.349255
0.30359
0.530325
0.235656
0.420053
0.306845
0.529693
0.533291
0.312065
0.532866
0.392757
0.485047
0.313054
0.525704
0.533473
0.554722
0.534867
0.533173
0.524214
0.360395
0.421652
0.350746
0.528206
0.321986
0.268787
0.531557
0.533498
0.532928
0.32376
0.333585
0.538468
0.541082
0.311749
0.53326
0.285828
0.311486
0.327526
0.553325
0.536888
0.522767
0.305355
0.312535
0.35873
0.326877
0.536421
0.533179
0.546228
0.319685
0.317524
0.455805
0.547141
0.543824
0.508674
0.533443
0.41164
0.536421
0.541574
0.514353
0.329701
0.536662
0.494288
0.533295
0.53518
0.546054
0.480197
0.380256
0.545441
0.339859
0.543912
0.53355
0.219826
0.533242
0.464552
0.535544
0.301615
0.32912
0.533241
0.29872
0.30956
0.548174
0.300797
0.416502
0.53741
0.283242
0.545988
0.327077
0.491004
0.531938
0.527621
0.497176
0.321091
0.319369
0.52086
0.435456
0.326098
0.480542
0.325697
0.532899
0.330897
0.461473
0.516766
0.532927
0.331305
0.492539
0.35771
0.412344
0.416101
0.338475
0.281643
0.323728
0.532725
0.459657
0.434819
0.317
0.532762
0.485616
0.317488
0.532822
0.330334
0.456093
0.518328
0.533104
0.536293
0.29973
0.339982
0.533278
0.544395
0.523412
0.485277
0.542702
0.480239
0.466381
0.32138
0.503788
0.389506
0.350559
0.358735
0.533505
0.549277
0.504382
0.394466
0.322536
0.540905
0.345917
0.345162
0.407608
0.322206
0.457709
0.334385
0.533308
0.327557
0.321839
0.416343
0.544202
0.327907
0.318635
0.548846
0.542869
0.550829
0.315804
0.318014
0.538663
0.324709
0.319829
0.340102
0.436646
0.52248
0.268127
0.550119
0.333458
0.507078
0.532664
0.318957
0.411369
0.479945
0.499987
0.489162
0.539201
0.536671
0.544282
0.534707
0.533202
0.331904
0.379642
0.520465
0.281092
0.542852
0.524975
0.26997
0.531704
0.470157
0.50769
0.539521
0.46175
0.531571
0.324335
0.488259
0.345404
0.296493
0.533748
0.533049
0.252563
0.340546
0.531515
0.395034
0.450236
0.267949
0.250714
0.548622
0.51492
0.543087
0.510047
0.453186
0.381949
0.452019
0.33286
0.533095
0.502963
0.492075
0.341773
0.382402
0.543998
0.497045
0.538198
0.157015
0.532997
0.326771
0.318337
0.329197
0.517865
0.519223
0.540515
0.471645
0.35145
0.532894
0.387938
0.545938
0.546976
0.489358
0.330153
0.310991
0.533262
0.348496
0.427799
0.471443
0.310369
0.37221
0.516561
0.542394
0.322524
0.532883
0.532249
0.328418
0.532826
0.534542
0.538587
0.361713
0.334419
0.542516
0.319171
0.33478
0.409881
0.533322
0.315561
0.377504
0.310248
0.304474
0.53784
0.332212
0.330512
0.542104
0.328356
0.32988
0.551499
0.538213
0.534869
0.533402
0.487265
0.344443
0.551134
0.532647
0.314215
0.534928
0.532396
0.533259
0.533216
0.361457
0.533334
0.338716
0.533274
0.317861
0.533413
0.335086
0.51816
0.316534
0.540481
0.545166
0.550236
0.486116
0.533194
0.535196
0.306865
0.533196
0.263698
0.533085
0.5378
0.323877
0.406752
0.307033
0.329458
0.533193
0.365404
0.532405
0.126291
0.505933
0.507191
0.540175
0.398913
0.338459
0.246248
0.329239
0.275545
0.537468
0.368585
0.323505
0.534068
0.349625
0.365025
0.531175
0.533185
0.498961
0.535666
0.259652
0.487703
0.314463
0.533168
0.533362
0.525723
0.2821
0.539966
0.535958
0.541229
0.4946
0.532895
0.384658
0.533136
0.540827
0.43908
0.532781
0.314028
0.51871
0.354927
0.415893
0.519031
0.491035
0.530331
0.475336
0.487261
0.536146
0.319892
0.523875
0.328609
0.348199
0.541132
0.511904
0.47577
0.520081
0.531449
0.533179
0.537015
0.533067
0.53292
0.534146
0.551995
0.360106
0.49904
0.529581
0.328448
0.534017
0.314112
0.473436
0.306712
0.53294
0.330702
0.327378
0.304157
0.466577
0.534047
0.429925
0.515825
0.30219
0.347511
0.533019
0.532577
0.311483
0.497967
0.446587
0.298186
0.500913
0.340012
0.313617
0.534548
0.478495
0.321595
0.517791
0.531316
0.52135
0.325799
0.511622
0.241577
0.533141
0.385252
0.509879
0.313974
0.548178
0.313873
0.311665
0.323262
0.50919
0.298465
0.494001
0.546464
0.467846
0.362582
0.312011
0.541565
0.314008
0.233286
0.325159
0.534935
0.321788
0.324781
0.278202
0.499298
0.335277
0.336514
0.338518
0.532818
0.548975
0.336683
0.537308
0.537285
0.494337
0.334394
0.32604
0.534511
0.323726
0.5543
0.330676
0.528668
0.322166
0.156483
0.513113
0.324194
0.332074
0.324853
0.532743
0.303569
0.444956
0.537028
0.32263
0.516425
0.325732
0.549393
0.417313
0.324015
0.334368
0.534271
0.442563
0.533215
0.315848
0.345199
0.431823
0.533102
0.316594
0.296254
0.320151
0.415679
0.536817
0.361311
0.447645
0.531153
0.533219
0.523517
0.328211
0.535821
0.326626
0.534386
0.533929
0.456948
0.350913
0.483186
0.538061
0.322868
0.535548
0.537984
0.341136
0.33051
0.300957
0.255714
0.54031
0.325089
0.533087
0.387336
0.533184
0.495619
0.374715
0.510656
0.308255
0.477647
0.328769
0.533342
0.532428
0.230274
0.332366
0.338963
0.466151
0.552058
0.327453
0.309889
0.347046
0.453438
0.546311
0.253268
0.328826
0.52503
0.536992
0.528256
0.329767
0.332618
0.523943
0.533282
0.317686
0.330927
0.439047
0.549297
0.487031
0.312452
0.532956
0.53396
0.313998
0.537578
0.32036
0.539851
0.319923
0.355512
0.321962
0.276631
0.53311
0.335573
0.323436
0.336619
0.34486
0.478564
0.529994
0.549578
0.320363
0.53324
0.535585
0.53391
0.547097
0.533026
0.547411
0.549274
0.54795
0.538363
0.532012
0.284753
0.483825
0.548996
0.324494
0.540204
0.54447
0.535836
0.53423
0.318117
0.542007
0.533104
0.536644
0.34215
0.501098
0.529187
0.53316
0.529302
0.323489
0.485166
0.349817
0.416576
0.336713
0.33449
0.313267
0.327368
0.533036
0.534189
0.521702
0.320513
0.533509
0.532817
0.536639
0.328431
0.341805
0.51719
0.310077
0.318274
0.308608
0.536429
0.422184
0.533432
0.301453
0.545685
0.533271
0.453435
0.539363
0.349794
0.549519
0.534428
0.512161
0.538947
0.534281
0.519262
0.326039
0.359314
0.344659
0.533408
0.310721
0.534553
0.518988
0.487672
0.335602
0.360342
0.483551
0.539746
0.533367
0.334718
0.524338
0.478139
0.256444
0.532731
0.330623
0.330274
0.309817
0.323752
0.323316
0.539157
0.536083
0.551853
0.441299
0.532646
0.533019
0.5148
0.532998
0.546243
0.548239
0.533245
0.533398
0.326852
0.533512
0.526731
0.426054
0.321709
0.502787
0.29576
0.536729
0.367859
0.53912
0.545379
0.33476
0.536912
0.331398
0.53399
0.529379
0.547082
0.488976
0.516362
0.545154
0.533044
0.346216
0.445906
0.422536
0.2461
0.53282
0.537224
0.437121
0.550665
0.525608
0.533424
0.292384
0.324747
0.527298
0.545958
0.328507
0.213945
0.511554
0.534146
0.533702
0.271982
0.451769
0.511948
0.531927
0.323969
0.532832
0.484907
0.52534
0.506052
0.439186
0.532598
0.29369
0.531278
0.320999
0.30744
0.533038
0.350679
0.351382
0.323912
0.525212
0.505752
0.43948
0.533131
0.431875
0.372818
0.321158
0.541916
0.531709
0.539782
0.490259
0.251512
0.521981
0.434422
0.32039
0.531275
0.536872
0.329619
0.53565
0.529262
0.533355
0.448592
0.533132
0.361742
0.532933
0.529106
0.532983
0.343897
0.525184
0.383209
0.508815
0.533548
0.54418
0.529794
0.533264
0.533435
0.531736
0.516711
0.319426
0.541115
0.511274
0.338985
0.494621
0.535601
0.550754
0.494273
0.321777
0.531338
0.341015
0.545297
0.490179
0.53618
0.332275
0.51278
0.533267
0.533141
0.525146
0.474461
0.532941
0.465506
0.388178
0.323679
0.284386
0.533397
0.33367
0.285693
0.537067
0.330182
0.543433
0.314297
0.53436
0.330073
0.32826
0.521149
0.395495
0.298642
0.526344
0.532614
0.536861
0.345399
0.502713
0.532367
0.530132
0.325646
0.533148
0.532996
0.323474
0.479511
0.46165
0.524128
0.340648
0.392478
0.51048
0.315074
0.53861
0.343782
0.335294
0.533385
0.387782
0.504632
0.330324
0.538312
0.423121
0.533096
0.195138
0.336365
0.533357
0.358275
0.532984
0.35053
0.533254
0.476143
0.467932
0.532955
0.501033
0.242664
0.533978
0.548567
0.530965
0.533188
0.30076
0.337843
0.335166
0.335424
0.53324
0.339806
0.5131
0.324763
0.532401
0.5346
0.533136
0.325527
0.533334
0.326018
0.534687
0.539879
0.365059
0.533003
0.516568
0.321781
0.518158
0.307964
0.357284
0.54934
0.335827
0.542669
0.225286
0.338871
0.511055
0.371018
0.538695
0.325814
0.461747
0.532518
0.52878
0.385742
0.250683
0.324576
0.533157
0.53311
0.33902
0.535508
0.320578
0.530911
0.32236
0.330283
0.464453
0.473905
0.420341
0.490925
0.533097
0.493978
0.473069
0.535918
0.53337
0.336395
0.535199
0.355275
0.340743
0.492597
0.409106
0.39566
0.442889
0.332061
0.511398
0.532865
0.535047
0.325217
0.332578
0.443825
0.506411
0.533171
0.545716
0.327202
0.498276
0.532254
0.502089
0.442172
0.323826
0.318761
0.33597
0.554923
0.537058
0.30283
0.310289
0.437081
0.325873
0.549202
0.513265
0.329381
0.533049
0.406305
0.540159
0.53456
0.329106
0.364959
0.504369
0.331199
0.395562
0.532279
0.276935
0.330386
0.3274
0.507807
0.536107
0.506314
0.339198
0.322672
0.529383
0.533831
0.491396
0.538433
0.327252
0.339919
0.342951
0.497732
0.296342
0.336668
0.537813
0.541394
0.513188
0.3192
0.341151
0.341381
0.532926
0.306294
0.533082
0.533305
0.528472
0.430452
0.53133
0.549116
0.331764
0.325909
0.535325
0.328609
0.467214
0.524988
0.541608
0.436001
0.307971
0.288556
0.540696
0.405451
0.304714
0.534321
0.532842
0.29833
0.32456
0.512283
0.444302
0.333643
0.351473
0.540143
0.489847
0.52531
0.46512
0.349231
0.287675
0.360042
0.384342
0.308893
0.533211
0.5273
0.468973
0.50863
0.34126
0.501309
0.362234
0.532706
0.545383
0.342039
0.266936
0.529699
0.388782
0.471973
0.53377
0.314869
0.529468
0.528362
0.533182
0.532969
0.497757
0.364578
0.334302
0.318553
0.510516
0.532985
0.510085
0.444058
0.328681
0.333477
0.493304
0.330312
0.538267
0.533294
0.531516
0.339762
0.320266
0.463786
0.503488
0.533132
0.523437
0.53295
0.533362
0.534978
0.47332
0.254232
0.533006
0.493654
0.534948
0.328807
0.529643
0.42467
0.525679
0.552326
0.446152
0.491685
0.531205
0.50851
0.533164
0.328876
0.529526
0.550615
0.356939
0.500233
0.308314
0.303191
0.533224
0.532996
0.351327
0.483391
0.533111
0.345809
0.348558
0.550321
0.55012
0.471002
0.363254
0.496323
0.328524
0.542563
0.548938
0.323849
0.453053
0.498548
0.32486
0.326432
0.355803
0.535295
0.525076
0.326048
0.360339
0.342942
0.347032
0.345656
0.495445
0.32425
0.551298
0.534863
0.540836
0.332676
0.532273
0.439776
0.532032
0.446239
0.527862
0.327881
0.298354
0.329302
0.533786
0.335929
0.326134
0.491824
0.337708
0.532976
0.50678
0.426695
0.318112
0.32047
0.519528
0.535473
0.526179
0.521093
0.542172
0.328636
0.370558
0.312399
0.509188
0.533681
0.324605
0.510461
0.294288
0.345374
0.532859
0.33462
0.3363
0.241424
0.37483
0.334964
0.533074
0.52989
0.536304
0.335216
0.533161
0.541799
0.324885
0.533157
0.376815
0.53948
0.362111
0.3913
0.532893
0.325089
0.248937
0.528115
0.523311
0.322269
0.545861
0.497317
0.532745
0.4006
0.327218
0.501409
0.533819
0.364581
0.379253
0.420521
0.395859
0.53279
0.340255
0.322449
0.541092
0.500204
0.348446
0.328852
0.531914
0.325744
0.289463
0.332547
0.454615
0.544296
0.329427
0.539456
0.324167
0.311231
0.348027
0.40548
0.336495
0.537862
0.333659
0.330076
0.481536
0.538684
0.358288
0.533222
0.328399
0.323029
0.507864
0.552243
0.523087
0.513613
0.515194
0.545608
0.326157
0.539209
0.292727
0.53332
0.525985
0.411282
0.525416
0.533324
0.533601
0.532988
0.43675
0.346276
0.429002
0.335532
0.497038
0.532452
0.497923
0.317697
0.534381
0.368997
0.533259
0.325099
0.30465
0.556413
0.302282
0.527858
0.552457
0.372203
0.335377
0.329699
0.532982
0.394758
0.246953
0.539469
0.32725
0.52512
0.34206
0.347281
0.319612
0.534983
0.391035
0.533115
0.325916
0.3512
0.534265
0.53243
0.281919
0.359249
0.271824
0.481781
0.333853
0.520156
0.530871
0.53342
0.236378
0.331043
0.450947
0.530198
0.548172
0.532028
0.308618
0.510751
0.53747
0.533467
0.533058
0.327503
0.518897
0.319263
0.442272
0.540625
0.53736
0.528474
0.545087
0.489043
0.531854
0.543478
0.53321
0.520881
0.535057
0.532925
0.534665
0.326341
0.329399
0.532977
0.475427
0.533125
0.533118
0.54824
0.520213
0.544829
0.337886
0.325852
0.533024
0.326984
0.322255
0.347423
0.533717
0.522496
0.532952
0.505284
0.519855
0.32371
0.537755
0.326
0.325266
0.545316
0.523587
0.5241
0.400567
0.395753
0.341743
0.325647
0.389302
0.312111
0.362599
0.5436
0.307758
0.531435
0.333911
0.539419
0.531686
0.282416
0.330614
0.492035
0.53306
0.331436
0.508162
0.268144
0.318214
0.326202
0.45057
0.534747
0.533186
0.532817
0.221449
0.360524
0.283778
0.34971
0.53319
0.546934
0.538175
0.338482
0.326388
0.533441
0.532442
0.53656
0.318913
0.479205
0.465563
0.543012
0.431546
0.338661
0.34103
0.327803
0.535255
0.32753
0.3281
0.533243
0.309624
0.532852
0.342747
0.370007
0.400622
0.342272
0.545193
0.533077
0.532893
0.44366
0.554684
0.51027
0.468557
0.34398
0.507613
0.530626
0.509308
0.535497
0.531352
0.53979
0.425053
0.532086
0.534292
0.370492
0.33225
0.548645
0.40264
0.532127
0.341349
0.546135
0.370855
0.526341
0.53312
0.507452
0.532534
0.538832
0.51456
0.31421
0.346994
0.536864
0.546757
0.532663
0.435441
0.543867
0.448715
0.49476
0.533336
0.472249
0.459842
0.540173
0.533365
0.34942
0.325359
0.533267
0.500573
0.333011
0.352592
0.425187
0.533081
0.53316
0.550282
0.342406
0.524179
0.312598
0.535903
0.329029
0.544463
0.28181
0.549111
0.354546
0.531403
0.446025
0.325936
0.29223
0.471685
0.335312
0.477703
0.323679
0.53315
0.533142
0.530136
0.521819
0.53369
0.535283
0.533494
0.549539
0.540165
0.499155
0.515202
0.490793
0.538277
0.336271
0.500854
0.498238
0.5312
0.325458
0.495974
0.544975
0.533425
0.338651
0.316476
0.33831
0.54387
0.493652
0.31876
0.498201
0.391401
0.5328
0.312626
0.413262
0.350427
0.303514
0.552752
0.318633
0.507503
0.327262
0.550856
0.352354
0.533118
0.502516
0.529449
0.359361
0.337314
0.351058
0.514418
0.322409
0.341651
0.340091
0.539984
0.514576
0.54465
0.521664
0.531216
0.508129
0.37587
0.33825
0.529285
0.322821
0.451258
0.52677
0.549961
0.203023
0.292762
0.519491
0.533462
0.409473
0.524988
0.534636
0.51844
0.341605
0.542702
0.519232
0.529417
0.531307
0.322458
0.533146
0.327672
0.531615
0.541395
0.503764
0.532519
0.356031
0.536863
0.218846
0.355699
0.494422
0.507023
0.527623
0.451813
0.336733
0.530732
0.536175
0.321495
0.330886
0.302626
0.548792
0.347809
0.28635
0.333174
0.336617
0.319337
0.370843
0.542532
0.308645
0.538798
0.52149
0.329818
0.534974
0.307954
0.547984
0.306816
0.455326
0.315095
0.523752
0.533611
0.399433
0.495422
0.532945
0.521292
0.319031
0.476395
0.432156
0.321443
0.319797
0.405164
0.28196
0.543936
0.268232
0.323208
0.331265
0.533179
0.52824
0.323404
0.333548
0.544695
0.329809
0.329769
0.533058
0.324054
0.301595
0.360843
0.551874
0.502567
0.54421
0.340702
0.290726
0.538502
0.518362
0.533506
0.397179
0.504623
0.527589
0.416929
0.404083
0.331346
0.311875
0.238927
0.493598
0.249308
0.546677
0.512032
0.533394
0.345126
0.413005
0.420651
0.557915
0.312478
0.483044
0.238037
0.490732
0.32591
0.281916
0.297005
0.537769
0.328214
0.550943
0.34307
0.382737
0.328066
0.468987
0.324102
0.543203
0.317722
0.500373
0.485959
0.330912
0.533479
0.533688
0.288415
0.547753
0.365142
0.334677
0.542347
0.314736
0.515655
0.392761
0.218066
0.532992
0.318196
0.357541
0.338389
0.356837
0.323215
0.51353
0.438429
0.522199
0.546517
0.529254
0.542887
0.411216
0.537144
0.309936
0.53361
0.330854
0.52518
0.329936
0.393182
0.521203
0.548333
0.535148
0.357276
0.433291
0.351081
0.358811
0.359622
0.221894
0.537006
0.409299
0.546608
0.533025
0.484615
0.538617
0.534353
0.397638
0.323004
0.361551
0.541029
0.487354
0.501761
0.533233
0.550893
0.419647
0.286898
0.344795
0.544043