# vtk DataFile Version 1.0
unstructured grid
ascii
DATASET UNSTRUCTURED_GRID
points 3226 float
0.0796578 -0.059106 0
0.00128732 0.00159165 0
0.00227961 -0.00102548 0
0.0791586 -0.0598787 0
-0.0546216 0.01 0
0.000495206 0.025 0
0.0800549 -0.035 0
0.135172 -0.08 0
-0.0546216 -0.0451168 0
0.000495206 -0.0301168 0
0.0800549 -0.0901168 0
0.135172 -0.135117 0
-0.0546216 -0.0451168 -0.00551168
0.000495206 -0.0301168 -0.00551168
0.0800549 -0.0901168 -0.00551168
0.135172 -0.135117 -0.00551168
0.135172 -0.08 -0.00551168
0.0800549 -0.035 -0.00551168
0.000495206 0.025 -0.00551168
-0.0546216 0.01 -0.00551168
0.00128732 0.00159165 -0.00551168
0.00227961 -0.00102548 -0.00551168
0.0791586 -0.0598787 -0.00551168
0.0796578 -0.059106 -0.00551168
0.00110182 -0.000823821 0
0.000571683 -0.000188043 0
0.000561313 0.000639162 0
0.00189316 0.00207203 0
0.00260228 0.00255358 0
0.0033966 0.00307293 0
0.00428861 0.00362634 0
0.00529726 0.0041979 0
0.00644092 0.00476696 0
0.00773158 0.0053187 0
0.00918011 0.00583593 0
0.010799 0.00628751 0
0.012597 0.00663225 0
0.0145725 0.0068517 0
0.0167206 0.0069338 0
0.0190349 0.00685819 0
0.0215031 0.00658621 0
0.0241038 0.00607459 0
0.026821 0.00533786 0
0.0296245 0.00434523 0
0.0324763 0.00306927 0
0.0353199 0.00146906 0
0.0381488 -0.00039338 0
0.0409131 -0.00252802 0
0.0435632 -0.00493276 0
0.0460882 -0.0075571 0
0.0484881 -0.0103478 0
0.0506782 -0.0133217 0
0.0526651 -0.016422 0
0.0546139 -0.0195019 0
0.0565301 -0.022529 0
0.0584009 -0.0254846 0
0.0602154 -0.0283513 0
0.061964 -0.031114 0
0.0636389 -0.0337601 0
0.0652336 -0.0362795 0
0.0667431 -0.0386651 0
0.0681656 -0.0409111 0
0.0694983 -0.0430158 0
0.0707356 -0.0449823 0
0.071886 -0.0468071 0
0.0729575 -0.04849 0
0.0739438 -0.0500408 0
0.0748444 -0.0514675 0
0.0756707 -0.0527715 0
0.0764313 -0.053958 0
0.0771224 -0.0550398 0
0.0777384 -0.0560288 0
0.0782803 -0.0569318 0
0.0787691 -0.0577448 0
0.0792251 -0.0584672 0
0.0800494 -0.0597378 0
0.0797987 -0.0601582 0
0.0786655 -0.059391 0
0.0781259 -0.0588425 0
0.0775539 -0.0582102 0
0.0769587 -0.0574783 0
0.0763492 -0.0566339 0
0.075723 -0.0556725 0
0.0750452 -0.0546094 0
0.0742996 -0.0534457 0
0.073478 -0.0521785 0
0.072577 -0.0508019 0
0.0715904 -0.049313 0
0.0705098 -0.047712 0
0.069328 -0.0459996 0
0.0680378 -0.0441794 0
0.066632 -0.0422571 0
0.0651046 -0.0402413 0
0.0634508 -0.0381431 0
0.0616683 -0.0359754 0
0.0597581 -0.033753 0
0.0577255 -0.0314906 0
0.0555808 -0.0292024 0
0.0533388 -0.0269013 0
0.0510024 -0.0246151 0
0.0485693 -0.0223811 0
0.0460535 -0.0202228 0
0.0434788 -0.0181535 0
0.0408704 -0.0161833 0
0.0382442 -0.0143327 0
0.0356165 -0.0126209 0
0.0330065 -0.0110594 0
0.0304368 -0.00965062 0
0.0279338 -0.00838121 0
0.0255194 -0.00723697 0
0.0231965 -0.00623664 0
0.020983 -0.00535765 0
0.0188891 -0.00458677 0
0.0169193 -0.00391673 0
0.0150754 -0.00334068 0
0.0133572 -0.00285262 0
0.0117634 -0.0024437 0
0.0102912 -0.00210643 0
0.0089363 -0.00183343 0
0.00769424 -0.00161552 0
0.00655956 -0.00144452 0
0.00552632 -0.00131235 0
0.00458815 -0.00121216 0
0.00373885 -0.00113394 0
0.00297202 -0.00106855 0
-0.0506847 -0.0440454 0
-0.0467478 -0.0429739 0
-0.0428108 -0.0419025 0
-0.0388739 -0.0408311 0
-0.034937 -0.0397597 0
-0.0310001 -0.0386882 0
-0.0270632 -0.0376168 0
-0.0231263 -0.0365454 0
-0.0191894 -0.0354739 0
-0.0152525 -0.0344025 0
-0.0113155 -0.0333311 0
-0.00737862 -0.0322597 0
-0.00344171 -0.0311882 0
0.0038716 -0.0298185 0
0.00726082 -0.0297726 0
0.010644 -0.0299802 0
0.0140027 -0.0304367 0
0.0173201 -0.0311326 0
0.0205821 -0.0320541 0
0.0237776 -0.0331851 0
0.0268988 -0.0345078 0
0.0299406 -0.0360041 0
0.0329005 -0.0376567 0
0.035778 -0.039449 0
0.038574 -0.0413659 0
0.0412905 -0.043394 0
0.0439303 -0.0455212 0
0.0464964 -0.0477367 0
0.0489922 -0.0500312 0
0.051421 -0.0523964 0
0.0537863 -0.0548252 0
0.0560914 -0.0573112 0
0.0583395 -0.0598489 0
0.0605336 -0.0624334 0
0.0626765 -0.0650605 0
0.064771 -0.0677264 0
0.0668197 -0.0704277 0
0.0688248 -0.0731615 0
0.0707885 -0.0759252 0
0.072713 -0.0787163 0
0.0746002 -0.0815329 0
0.0764517 -0.0843729 0
0.0782695 -0.0872347 0
0.0829558 -0.0924852 0
0.0858567 -0.0948536 0
0.0887575 -0.0972221 0
0.0916584 -0.0995905 0
0.0945593 -0.101959 0
0.0974602 -0.104327 0
0.100361 -0.106696 0
0.103262 -0.109064 0
0.106163 -0.111433 0
0.109064 -0.113801 0
0.111965 -0.116169 0
0.114865 -0.118538 0
0.117766 -0.120906 0
0.120667 -0.123275 0
0.123568 -0.125643 0
0.126469 -0.128012 0
0.12937 -0.13038 0
0.132271 -0.132748 0
0.135172 -0.13118 0
0.135172 -0.127243 0
0.135172 -0.123306 0
0.135172 -0.119369 0
0.135172 -0.115432 0
0.135172 -0.111495 0
0.135172 -0.107558 0
0.135172 -0.103621 0
0.135172 -0.0996846 0
0.135172 -0.0957477 0
0.135172 -0.0918107 0
0.135172 -0.0878738 0
0.135172 -0.0839369 0
0.132271 -0.0776316 0
0.12937 -0.0752632 0
0.126469 -0.0728947 0
0.123568 -0.0705263 0
0.120667 -0.0681579 0
0.117766 -0.0657895 0
0.114865 -0.0634211 0
0.111965 -0.0610526 0
0.109064 -0.0586842 0
0.106163 -0.0563158 0
0.103262 -0.0539474 0
0.100361 -0.0515789 0
0.0974602 -0.0492105 0
0.0945593 -0.0468421 0
0.0916584 -0.0444737 0
0.0887575 -0.0421053 0
0.0858567 -0.0397368 0
0.0829558 -0.0373684 0
0.0782695 -0.0321179 0
0.0764517 -0.0292561 0
0.0746002 -0.026416 0
0.072713 -0.0235995 0
0.0707885 -0.0208084 0
0.0688248 -0.0180447 0
0.0668197 -0.0153109 0
0.064771 -0.0126096 0
0.0626765 -0.00994373 0
0.0605336 -0.00731663 0
0.0583395 -0.00473208 0
0.0560914 -0.00219437 0
0.0537863 0.000291632 0
0.051421 0.00272041 0
0.0489922 0.00508564 0
0.0464964 0.00738012 0
0.0439303 0.00959562 0
0.0412905 0.0117228 0
0.038574 0.0137509 0
0.035778 0.0156678 0
0.0329005 0.0174601 0
0.0299406 0.0191127 0
0.0268988 0.020609 0
0.0237776 0.0219317 0
0.0205821 0.0230627 0
0.0173201 0.0239842 0
0.0140027 0.0246801 0
0.010644 0.0251366 0
0.00726082 0.0253442 0
0.0038716 0.0252983 0
-0.00344171 0.0239286 0
-0.00737862 0.0228571 0
-0.0113155 0.0217857 0
-0.0152525 0.0207143 0
-0.0191894 0.0196429 0
-0.0231263 0.0185714 0
-0.0270632 0.0175 0
-0.0310001 0.0164286 0
-0.034937 0.0153571 0
-0.0388739 0.0142857 0
-0.0428108 0.0132143 0
-0.0467478 0.0121429 0
-0.0506847 0.0110714 0
-0.0546216 0.00606309 0
-0.0546216 0.00212617 0
-0.0546216 -0.00181074 0
-0.0546216 -0.00574766 0
-0.0546216 -0.00968457 0
-0.0546216 -0.0136215 0
-0.0546216 -0.0175584 0
-0.0546216 -0.0214953 0
-0.0546216 -0.0254322 0
-0.0546216 -0.0293691 0
-0.0546216 -0.0333061 0
-0.0546216 -0.037243 0
-0.0546216 -0.0411799 0
-0.0506847 -0.0440454 -0.00551168
-0.0467478 -0.0429739 -0.00551168
-0.0428108 -0.0419025 -0.00551168
-0.0388739 -0.0408311 -0.00551168
-0.034937 -0.0397597 -0.00551168
-0.0310001 -0.0386882 -0.00551168
-0.0270632 -0.0376168 -0.00551168
-0.0231263 -0.0365454 -0.00551168
-0.0191894 -0.0354739 -0.00551168
-0.0152525 -0.0344025 -0.00551168
-0.0113155 -0.0333311 -0.00551168
-0.00737862 -0.0322597 -0.00551168
-0.00344171 -0.0311882 -0.00551168
0.0038716 -0.0298185 -0.00551168
0.00726082 -0.0297726 -0.00551168
0.010644 -0.0299802 -0.00551168
0.0140027 -0.0304367 -0.00551168
0.0173201 -0.0311326 -0.00551168
0.0205821 -0.0320541 -0.00551168
0.0237776 -0.0331851 -0.00551168
0.0268988 -0.0345078 -0.00551168
0.0299406 -0.0360041 -0.00551168
0.0329005 -0.0376567 -0.00551168
0.035778 -0.039449 -0.00551168
0.038574 -0.0413659 -0.00551168
0.0412905 -0.043394 -0.00551168
0.0439303 -0.0455212 -0.00551168
0.0464964 -0.0477367 -0.00551168
0.0489922 -0.0500312 -0.00551168
0.051421 -0.0523964 -0.00551168
0.0537863 -0.0548252 -0.00551168
0.0560914 -0.0573112 -0.00551168
0.0583395 -0.0598489 -0.00551168
0.0605336 -0.0624334 -0.00551168
0.0626765 -0.0650605 -0.00551168
0.064771 -0.0677264 -0.00551168
0.0668197 -0.0704277 -0.00551168
0.0688248 -0.0731615 -0.00551168
0.0707885 -0.0759252 -0.00551168
0.072713 -0.0787163 -0.00551168
0.0746002 -0.0815329 -0.00551168
0.0764517 -0.0843729 -0.00551168
0.0782695 -0.0872347 -0.00551168
0.0829558 -0.0924852 -0.00551168
0.0858567 -0.0948536 -0.00551168
0.0887575 -0.0972221 -0.00551168
0.0916584 -0.0995905 -0.00551168
0.0945593 -0.101959 -0.00551168
0.0974602 -0.104327 -0.00551168
0.100361 -0.106696 -0.00551168
0.103262 -0.109064 -0.00551168
0.106163 -0.111433 -0.00551168
0.109064 -0.113801 -0.00551168
0.111965 -0.116169 -0.00551168
0.114865 -0.118538 -0.00551168
0.117766 -0.120906 -0.00551168
0.120667 -0.123275 -0.00551168
0.123568 -0.125643 -0.00551168
0.126469 -0.128012 -0.00551168
0.12937 -0.13038 -0.00551168
0.132271 -0.132748 -0.00551168
0.135172 -0.13118 -0.00551168
0.135172 -0.127243 -0.00551168
0.135172 -0.123306 -0.00551168
0.135172 -0.119369 -0.00551168
0.135172 -0.115432 -0.00551168
0.135172 -0.111495 -0.00551168
0.135172 -0.107558 -0.00551168
0.135172 -0.103621 -0.00551168
0.135172 -0.0996846 -0.00551168
0.135172 -0.0957477 -0.00551168
0.135172 -0.0918107 -0.00551168
0.135172 -0.0878738 -0.00551168
0.135172 -0.0839369 -0.00551168
0.132271 -0.0776316 -0.00551168
0.12937 -0.0752632 -0.00551168
0.126469 -0.0728947 -0.00551168
0.123568 -0.0705263 -0.00551168
0.120667 -0.0681579 -0.00551168
0.117766 -0.0657895 -0.00551168
0.114865 -0.0634211 -0.00551168
0.111965 -0.0610526 -0.00551168
0.109064 -0.0586842 -0.00551168
0.106163 -0.0563158 -0.00551168
0.103262 -0.0539474 -0.00551168
0.100361 -0.0515789 -0.00551168
0.0974602 -0.0492105 -0.00551168
0.0945593 -0.0468421 -0.00551168
0.0916584 -0.0444737 -0.00551168
0.0887575 -0.0421053 -0.00551168
0.0858567 -0.0397368 -0.00551168
0.0829558 -0.0373684 -0.00551168
0.0782695 -0.0321179 -0.00551168
0.0764517 -0.0292561 -0.00551168
0.0746002 -0.026416 -0.00551168
0.072713 -0.0235995 -0.00551168
0.0707885 -0.0208084 -0.00551168
0.0688248 -0.0180447 -0.00551168
0.0668197 -0.0153109 -0.00551168
0.064771 -0.0126096 -0.00551168
0.0626765 -0.00994373 -0.00551168
0.0605336 -0.00731663 -0.00551168
0.0583395 -0.00473208 -0.00551168
0.0560914 -0.00219437 -0.00551168
0.0537863 0.000291632 -0.00551168
0.051421 0.00272041 -0.00551168
0.0489922 0.00508564 -0.00551168
0.0464964 0.00738012 -0.00551168
0.0439303 0.00959562 -0.00551168
0.0412905 0.0117228 -0.00551168
[...]
CELL_DATA 2965
SCALARS rho float
LOOKUP_TABLE default
0.533142
0.318798
0.524592
0.329348
0.542304
0.35485
0.532913
0.331283
0.359687
0.525947
0.329207
0.339712
0.426926
0.535403
0.519164
0.517018
0.526894
0.514486
0.544783
0.529096
0.53322
0.337838
0.506168
0.53402
0.535887
0.547065
0.457584
0.478691
0.331976
0.504259
0.503608
0.339635
0.552823
0.529138
0.286428
0.353751
0.528765
0.533878
0.319254
0.50654
0.529778
0.502625
0.533643
0.327056
0.304588
0.532565
0.458715
0.46769
0.32068
0.533448
0.389564
0.334497
0.316821
0.426291
0.331236
0.421772
0.338384
0.320216
0.277583
0.476732
0.515974
0.474533
0.335609
0.544001
0.482748
0.532731
0.533213
0.319746
0.306265
0.348216
0.517233
0.543439
0.533278
0.275905
0.499532
0.410107
0.532971
0.334943
0.320934
0.467716
0.53324
0.335977
0.343586
0.437635
0.475969
0.376504
0.318576
0.285332
0.541897
0.341237
0.316089
0.532663
0.51791
0.514463
0.532862
0.320959
0.457597
0.277103
0.354344
0.325815
0.471041
0.325998
0.34166
0.303469
0.356224
0.52764
0.533037
0.33741
0.318435
0.532982
0.223232
0.392712
0.468972
0.490792
0.302977
0.293265
0.502076
0.456572
0.533356
0.330532
0.533209
0.236504
0.539662
0.541164
0.48887
0.401017
0.341525
0.45911
0.530835
0.265329
0.345841
0.428596
0.532117
0.350026
0.461168
0.343614
0.42512
0.516069
0.554871
0.542108
0.350691
0.515627
0.528305
0.332167
0.296302
0.54528
0.329153
0.541302
0.555372
0.353313
0.330969
0.32475
0.341829
0.332776
0.275994
0.280819
0.532909
0.531364
0.521827
0.536441
0.453555
0.463389
0.407413
0.542238
0.342366
0.532928
0.414066
0.331192
0.533357
0.535119
0.482077
0.311927
0.436199
0.519889
0.547196
0.415436
0.512502
0.357494
0.255131
0.417716
0.344645
0.259506
0.323251
0.30667
0.555411
0.532916
0.32727
0.335437
0.389529
0.330157
0.320086
0.322204
0.4508
0.299054
0.533377
0.464292
0.534319
0.483242
0.440597
0.322826
0.33222
0.298036
0.526905
0.439629
0.532954
0.298149
0.429535
0.53335
0.517527
0.534437
0.493982
0.401419
0.340825
0.351052
0.506563
0.347489
0.459064
0.327967
0.516945
0.329578
0.358621
0.337213
0.459078
0.38377
0.544742
0.260374
0.532996
0.522298
0.315993
0.477449
0.326101
0.267838
0.534558
0.318308
0.533115
0.535361
0.331721
0.530466
0.333973
0.352052
0.372003
0.329415
0.543264
0.522561
0.342733
0.229925
0.526057
0.533182
0.448006
0.505733
0.322472
0.332825
0.532912
0.335105
0.47282
0.277973
0.266831
0.533397
0.532672
0.309144
0.462026
0.326811
0.542732
0.350259
0.534493
0.533297
0.268497
0.473241
0.521295
0.303314
0.330933
0.533283
0.332745
0.550588
0.510729
0.332322
0.513329
0.514315
0.551871
0.530983
0.545875
0.462317
0.529362
0.533122
0.316312
0.32327
0.518286
0.538306
0.339207
0.53072
0.462669
0.275618
0.344279
0.320467
0.478486
0.324364
0.53297
0.480018
0.548437
0.329104
0.483749
0.483629
0.476785
0.532831
0.331787
0.235323
0.544795
0.532938
0.532967
0.330007
0.339604
0.481156
0.280631
0.308759
0.48361
0.533095
0.481571
0.218825
0.32799
0.482845
0.488833
0.323795
0.533315
0.532938
0.338555
0.414252
0.532833
0.514807
0.27914
0.327876
0.533328
0.344025
0.537997
0.365876
0.539441
0.394764
0.374669
0.328236
0.339767
0.301056
0.508912
0.547202
0.525548
0.542635
0.482417
0.474255
0.314669
0.533733
0.547049
0.326338
0.322837
0.533371
0.325826
0.515366
0.465649
0.313729
0.337297
0.341471
0.329844
0.532999
0.345
0.339724
0.380084
0.325949
0.532308
0.533482
0.471333
0.532936
0.330766
0.529472
0.332899
0.533388
0.3274
0.339781
0.535052
0.467588
0.270095
0.263292
0.531483
0.362549
0.499834
0.514544
0.323875
0.530071
0.289301
0.347678
0.533326
0.299051
0.535151
0.282407
0.379828
0.332199
0.535902
0.469001
0.434834
0.533097
0.309011
0.546142
0.34567
0.309496
0.54923
0.292853
0.539417
0.421288
0.488222
0.292907
0.295636
0.31396
0.287342
0.314022
0.348597
0.528955
0.533653
0.533756
0.533457
0.35082
0.538594
0.466567
0.518035
0.245589
0.532738
0.339631
0.480136
0.470148
0.288828
0.533378
0.358378
0.52221
0.325581
0.487303
0.534773
0.288632
0.532067
0.252626
0.53784
0.323244
0.3206
0.416614
0.543676
0.54052
0.395116
0.261041
0.246256
0.41957
0.542741
0.527419
0.532266
0.53079
0.53609
0.319303
0.51369
0.481805
0.3064
0.240832
0.301566
0.498483
0.535126
0.366646
0.382151
0.373183
0.35197
0.527695
0.533959
0.533397
0.548885
0.400986
0.533142
0.534272
0.32826
0.539546
0.350975
0.348168
0.528991
0.533499
0.537143
0.545162
0.329576
0.308732
0.552961
0.530515
0.33022
0.528866
0.503464
0.533643
0.356295
0.325575
0.534596
0.330418
0.452494
0.533587
0.535052
0.321675
0.532451
0.326902
0.330802
0.318092
0.352876
0.532541
0.364448
0.515833
0.296753
0.329664
0.525656
0.340112
0.298924
0.309843
0.275486
0.357972
0.306017
0.311324
0.426784
0.440589
0.32574
0.347593
0.53547
0.330668
0.395903
0.532899
0.533015
0.488095
0.485153
0.432812
0.445397
0.296008
0.372335
0.532967
0.497517
0.243832
0.506831
0.250846
0.295989
0.284763
0.533853
0.550981
0.295541
0.493868
0.53144
0.285061
0.295539
0.5409
0.532974
0.35421
0.543724
0.379252
0.342392
0.541178
0.297194
0.454673
0.52732
0.396567
0.54221
0.320232
0.35624
0.536874
0.375965
0.34295
0.35809
0.317211
0.322882
0.533134
0.539408
0.521963
0.319401
0.251882
0.344259
0.299488
0.529579
0.237481
0.420055
0.301437
0.530598
0.532339
0.312965
0.533406
0.393014
0.485383
0.312913
0.526306
0.532965
0.555214
0.534311
0.533174
0.524857
0.359535
0.421857
0.355278
0.528021
0.32298
0.270241
0.531924
0.533027
0.532894
0.324788
0.333328
0.538544
0.540995
0.313193
0.533715
0.288172
0.311519
0.326027
0.553533
0.53777
0.52251
0.305942
0.312359
0.358726
0.329069
0.536831
0.533231
0.54615
0.322411
0.318094
0.455817
0.547101
0.543434
0.50891
0.533008
0.411905
0.536315
0.541492
0.515003
0.327794
0.536518
0.494725
0.533018
0.53548
0.545768
0.480653
0.380522
0.545997
0.345825
0.543918
0.532985
0.219833
0.533155
0.464537
0.534961
0.306386
0.330238
0.533258
0.298932
0.315261
0.54835
0.301011
0.416681
0.537283
0.283393
0.546205
0.326593
0.491013
0.532295
0.527269
0.497794
0.321045
0.319006
0.521283
0.435641
0.326002
0.480559
0.325421
0.533398
0.331755
0.461468
0.51719
0.53337
0.331143
0.492679
0.344643
0.412587
0.416058
0.329388
0.28185
0.32576
0.533451
0.459794
0.435037
0.318177
0.533466
0.485635
0.318482
0.533453
0.333028
0.456061
0.518037
0.533036
0.53621
0.299959
0.340341
0.5331
0.545084
0.523073
0.485257
0.542505
0.480388
0.466357
0.321721
0.503681
0.389764
0.350759
0.35895
0.532937
0.549503
0.50512
0.394683
0.325298
0.540542
0.346434
0.351351
0.407549
0.323307
0.457699
0.332192
0.532948
0.324234
0.32232
0.416369
0.544655
0.331363
0.31858
0.548888
0.543515
0.55115
0.316277
0.317834
0.538488
0.32351
0.319718
0.341516
0.43684
0.522989
0.268346
0.550196
0.336162
0.507062
0.5332
0.318742
0.411508
0.479952
0.500449
0.489865
0.539836
0.537172
0.544663
0.534301
0.533152
0.342845
0.379564
0.520533
0.282232
0.543023
0.524759
0.269624
0.530808
0.470024
0.508533
0.539009
0.461741
0.531412
0.324115
0.488456
0.341711
0.296643
0.534194
0.533251
0.254274
0.345642
0.530854
0.39495
0.45017
0.269228
0.250908
0.548538
0.515376
0.543663
0.510835
0.45292
0.382009
0.452004
0.333781
0.53326
0.503466
0.492195
0.342352
0.38262
0.544092
0.49732
0.538738
0.157193
0.533299
0.326365
0.317555
0.331677
0.518013
0.51994
0.54036
0.471715
0.3496
0.533411
0.388179
0.545783
0.547235
0.489378
0.331008
0.311028
0.533436
0.341533
0.427873
0.471271
0.318924
0.377376
0.516447
0.542007
0.324559
0.533438
0.53219
0.329073
0.533432
0.533898
0.53828
0.361911
0.339045
0.541926
0.318934
0.336915
0.410065
0.533157
0.314304
0.377608
0.31578
0.304691
0.537499
0.331559
0.331269
0.54265
0.332059
0.330072
0.552245
0.537952
0.534831
0.533065
0.487412
0.338753
0.551415
0.532482
0.314116
0.535936
0.533351
0.533077
0.533068
0.362001
0.533055
0.338289
0.533073
0.317732
0.533043
0.3451
0.518247
0.316385
0.540064
0.545383
0.55051
0.486081
0.533376
0.535813
0.306678
0.532911
0.263856
0.533001
0.537581
0.325535
0.406982
0.297961
0.332373
0.532981
0.36552
0.532998
0.126268
0.506249
0.507385
0.540079
0.39883
0.343937
0.246389
0.330152
0.275453
0.537387
0.368736
0.323935
0.534039
0.323414
0.364845
0.532052
0.532107
0.499053
0.535636
0.259859
0.487724
0.314228
0.533253
0.533549
0.525308
0.282417
0.539788
0.535888
0.54114
0.494764
0.532926
0.384914
0.533246
0.540285
0.439106
0.53341
0.315003
0.518949
0.35305
0.416096
0.519388
0.490993
0.529795
0.475311
0.487277
0.536415
0.319965
0.523771
0.329746
0.347164
0.540543
0.512481
0.475606
0.519773
0.531185
0.533218
0.536583
0.533367
0.533043
0.533288
0.552034
0.35072
0.499242
0.530453
0.328237
0.533664
0.315019
0.473402
0.308682
0.533283
0.331261
0.328323
0.303761
0.466305
0.533944
0.430148
0.516015
0.306378
0.349758
0.533234
0.533596
0.317836
0.49868
0.446778
0.306914
0.501559
0.338004
0.314279
0.534542
0.47859
0.3205
0.517915
0.532213
0.522175
0.328076
0.512426
0.241779
0.533278
0.385144
0.509874
0.314507
0.548331
0.314361
0.312082
0.324372
0.509995
0.298621
0.494539
0.546336
0.467696
0.348454
0.311795
0.541872
0.313978
0.233489
0.327713
0.534397
0.321703
0.30428
0.277847
0.49925
0.34427
0.340756
0.337202
0.533246
0.549539
0.337581
0.537675
0.537032
0.494688
0.336009
0.325893
0.534017
0.324938
0.554973
0.33093
0.529696
0.321995
0.156308
0.51354
0.325959
0.33522
0.327201
0.533465
0.303635
0.445114
0.536593
0.322243
0.516685
0.320761
0.549396
0.417364
0.325054
0.340393
0.533677
0.442746
0.533304
0.315049
0.349606
0.431955
0.533098
0.316819
0.300417
0.324951
0.415815
0.536515
0.337982
0.447657
0.530737
0.533284
0.524409
0.329093
0.535271
0.326465
0.533284
0.533251
0.456609
0.344748
0.483793
0.537919
0.324324
0.536484
0.537456
0.347038
0.334279
0.30207
0.256355
0.541037
0.327225
0.533284
0.387495
0.533025
0.495589
0.374981
0.511126
0.30966
0.477874
0.329711
0.533051
0.532631
0.231076
0.335316
0.339844
0.466122
0.552244
0.327295
0.310976
0.351559
0.453609
0.546488
0.254491
0.329833
0.524817
0.536416
0.527788
0.33084
0.329211
0.523799
0.533075
0.318737
0.331906
0.439077
0.549453
0.487551
0.312649
0.533226
0.53408
0.314157
0.537624
0.31892
0.53924
0.32015
0.355773
0.321274
0.276853
0.532425
0.335663
0.32507
0.337138
0.342483
0.478705
0.529837
0.549723
0.321681
0.532956
0.535172
0.534391
0.54694
0.533014
0.5476
0.549215
0.547869
0.538123
0.5321
0.285878
0.484098
0.549607
0.324604
0.539899
0.544544
0.535675
0.534327
0.319017
0.541715
0.533325
0.536124
0.339943
0.501906
0.529282
0.533247
0.529359
0.323632
0.485192
0.337381
0.416834
0.318134
0.318598
0.314426
0.329902
0.533329
0.533744
0.52207
0.31955
0.533596
0.533465
0.536741
0.329736
0.340392
0.517455
0.309626
0.318488
0.303643
0.536277
0.422149
0.533359
0.302216
0.545627
0.532209
0.453122
0.539152
0.32693
0.549796
0.534629
0.512376
0.53879
0.533179
0.51896
0.324848
0.360305
0.34166
0.533016
0.311887
0.534096
0.519252
0.488426
0.33901
0.353543
0.483535
0.540581
0.533128
0.339014
0.524387
0.478207
0.256529
0.533433
0.33206
0.330174
0.313067
0.326304
0.305147
0.539104
0.535401
0.552232
0.441397
0.532388
0.533035
0.515601
0.533284
0.546324
0.548205
0.533011
0.533037
0.332035
0.532929
0.527208
0.426273
0.323589
0.503089
0.297209
0.536513
0.367858
0.538821
0.545128
0.337724
0.536333
0.335772
0.533953
0.530293
0.546923
0.488976
0.516796
0.544844
0.533023
0.338641
0.446088
0.42257
0.246434
0.533398
0.537416
0.437278
0.550765
0.525702
0.533064
0.294018
0.326332
0.526916
0.546093
0.330359
0.214438
0.512299
0.533041
0.533905
0.272181
0.451432
0.512289
0.532008
0.325711
0.533382
0.484922
0.524954
0.505946
0.439327
0.533423
0.29447
0.531163
0.321387
0.30561
0.533292
0.350831
0.351251
0.324678
0.525552
0.506546
0.439631
0.533387
0.432015
0.375613
0.321017
0.54204
0.531806
0.53934
0.490227
0.251723
0.521986
0.434598
0.32067
0.531513
0.537677
0.332958
0.53518
0.528683
0.533008
0.448628
0.533008
0.362004
0.533392
0.530039
0.532726
0.322914
0.524849
0.383235
0.509181
0.532458
0.544329
0.529956
0.533782
0.533486
0.532343
0.516849
0.318206
0.540914
0.511113
0.345226
0.494569
0.535818
0.551112
0.495029
0.322166
0.531306
0.339821
0.545016
0.49054
0.537193
0.334385
0.513318
0.534014
0.533185
0.525352
0.474473
0.533432
0.465577
0.388364
0.32441
0.284438
0.532963
0.336019
0.286937
0.536857
0.333606
0.543291
0.313818
0.535182
0.329914
0.333853
0.521299
0.395639
0.298879
0.527144
0.532643
0.537706
0.335779
0.503496
0.533246
0.530977
0.326047
0.533172
0.533884
0.325327
0.479792
0.461766
0.524364
0.351622
0.392738
0.510333
0.31625
0.538182
0.346121
0.339306
0.533096
0.387923
0.505105
0.332079
0.539287
0.423278
0.533239
0.195184
0.335731
0.533153
0.357711
0.533407
0.338956
0.533443
0.476709
0.467946
0.533419
0.501373
0.242875
0.533778
0.54875
0.530347
0.533138
0.301106
0.336406
0.334949
0.339678
0.533182
0.347968
0.513334
0.324744
0.532455
0.534432
0.533147
0.327914
0.533528
0.326129
0.533667
0.540668
0.366449
0.533124
0.517226
0.321315
0.519023
0.311617
0.343993
0.549547
0.335814
0.54313
0.225483
0.339019
0.511427
0.372803
0.538125
0.329043
0.461778
0.532447
0.529515
0.385728
0.251829
0.324814
0.533277
0.533332
0.339601
0.534591
0.319598
0.531872
0.323908
0.330351
0.464607
0.473908
0.420346
0.491702
0.533453
0.493961
0.473194
0.535748
0.533081
0.335645
0.534508
0.365601
0.360022
0.492793
0.409244
0.395925
0.443062
0.334498
0.512076
0.533452
0.536017
0.324366
0.330753
0.44346
0.506581
0.533814
0.545891
0.327934
0.498671
0.532162
0.502912
0.442328
0.325824
0.323165
0.340599
0.555448
0.536424
0.302587
0.311337
0.437236
0.32704
0.549359
0.513175
0.329111
0.533273
0.406514
0.540011
0.535475
0.329986
0.370133
0.504933
0.333064
0.395826
0.532521
0.276947
0.331317
0.329803
0.507678
0.535767
0.50623
0.345155
0.324535
0.528924
0.53387
0.49149
0.538361
0.328754
0.339264
0.342622
0.497996
0.299418
0.337246
0.537312
0.54081
0.513038
0.319383
0.342035
0.341622
0.533175
0.3064
0.533122
0.533029
0.5293
0.430414
0.532225
0.549337
0.332016
0.328198
0.53452
0.328967
0.467338
0.524873
0.541517
0.436226
0.309775
0.291252
0.54123
0.405702
0.304506
0.534058
0.533462
0.298547
0.32723
0.512379
0.444276
0.333754
0.338233
0.540043
0.489802
0.526216
0.465295
0.349493
0.288204
0.3603
0.384253
0.309134
0.533147
0.527492
0.46918
0.508909
0.332308
0.501562
0.355024
0.532842
0.54536
0.339149
0.267158
0.529662
0.389012
0.471966
0.534109
0.31467
0.530139
0.528255
0.533067
0.533327
0.498506
0.369009
0.308482
0.318005
0.510367
0.53301
0.51088
0.444017
0.330523
0.308537
0.493589
0.332306
0.53785
0.533027
0.532337
0.340022
0.324161
0.463906
0.504183
0.533287
0.524417
0.533356
0.533115
0.53493
0.473569
0.254439
0.533381
0.494031
0.534031
0.331434
0.529368
0.424665
0.526673
0.552498
0.446216
0.491773
0.531271
0.508956
0.533143
0.330099
0.530545
0.55089
0.360681
0.501057
0.310248
0.305083
0.533193
0.533082
0.344883
0.483439
0.533068
0.346518
0.334679
0.550898
0.550266
0.470987
0.36409
0.496351
0.327272
0.54254
0.54907
0.325365
0.453117
0.498745
0.323225
0.327314
0.357419
0.536182
0.525832
0.327315
0.371968
0.342761
0.351126
0.344166
0.496084
0.327939
0.551365
0.533863
0.541081
0.332667
0.531918
0.439566
0.531792
0.446359
0.528517
0.326976
0.298589
0.333378
0.533274
0.336105
0.328488
0.492576
0.342214
0.53337
0.506649
0.426653
0.318166
0.319441
0.520381
0.534738
0.52652
0.521919
0.542869
0.330303
0.370476
0.315584
0.509039
0.533749
0.327497
0.511238
0.291477
0.345498
0.533337
0.336088
0.339125
0.242019
0.374712
0.337953
0.533396
0.53058
0.536862
0.335422
0.533014
0.541987
0.327445
0.533412
0.377092
0.539355
0.362679
0.391551
0.532892
0.329242
0.24906
0.528364
0.522943
0.324632
0.545706
0.497263
0.532077
0.400794
0.326527
0.50175
0.532879
0.364494
0.379815
0.420644
0.395935
0.533379
0.340617
0.324494
0.540996
0.500811
0.353005
0.329252
0.532045
0.328852
0.298589
0.331902
0.454749
0.544164
0.33278
0.539348
0.32478
0.310946
0.340159
0.405527
0.341292
0.538766
0.332786
0.33645
0.481577
0.538312
0.358391
0.533238
0.329896
0.318322
0.508234
0.552316
0.523362
0.513426
0.516029
0.546099
0.326895
0.538883
0.293746
0.533129
0.526343
0.411538
0.525436
0.533104
0.532605
0.533001
0.436814
0.336858
0.429237
0.339731
0.497823
0.531465
0.49809
0.316965
0.535296
0.369267
0.533173
0.32591
0.304396
0.556882
0.304068
0.527831
0.552752
0.372127
0.339339
0.329665
0.532944
0.394764
0.247873
0.540247
0.326272
0.525533
0.342784
0.353486
0.320475
0.534074
0.390935
0.533233
0.328177
0.353366
0.533488
0.531578
0.282146
0.359334
0.27202
0.481835
0.331043
0.519881
0.530159
0.533005
0.236583
0.335427
0.450904
0.529681
0.548136
0.531828
0.309355
0.511167
0.536916
0.533001
0.533246
0.330111
0.51951
0.319393
0.442158
0.541393
0.536772
0.528998
0.544739
0.489802
0.531054
0.543811
0.532905
0.521414
0.535812
0.533145
0.53457
0.329128
0.327037
0.533394
0.475667
0.533212
0.532993
0.548332
0.519995
0.54481
0.341815
0.326638
0.533324
0.329668
0.323942
0.341709
0.532627
0.522628
0.533203
0.506095
0.520788
0.324818
0.537596
0.327295
0.325975
0.545592
0.523983
0.52419
0.400827
0.396004
0.339729
0.326602
0.389253
0.318527
0.362467
0.543619
0.306454
0.53111
0.336726
0.539298
0.53237
0.282572
0.339309
0.492805
0.53326
0.334074
0.508745
0.268003
0.317982
0.3277
0.450719
0.533972
0.53324
0.533399
0.221723
0.352932
0.28358
0.350707
0.533093
0.546812
0.537867
0.343549
0.32764
0.533055
0.531775
0.535787
0.319306
0.479255
0.465705
0.543036
0.431784
0.361486
0.34135
0.330323
0.534306
0.33325
0.330468
0.533047
0.318278
0.5334
0.339283
0.370184
0.400887
0.332822
0.545017
0.533302
0.533386
0.443868
0.555343
0.510902
0.468627
0.321796
0.507851
0.530796
0.509397
0.535438
0.532103
0.539698
0.425257
0.531611
0.534271
0.378297
0.337435
0.549186
0.402646
0.532797
0.342178
0.54617
0.37222
0.526204
0.53343
0.508047
0.532135
0.538648
0.514761
0.3162
0.344636
0.536333
0.546842
0.532372
0.43541
0.543813
0.44884
0.494752
0.533036
0.472293
0.459615
0.540021
0.532976
0.340028
0.326496
0.533472
0.500686
0.3295
0.350398
0.42543
0.53335
0.533043
0.550405
0.345696
0.524045
0.313314
0.535199
0.326037
0.544121
0.283382
0.549415
0.351392
0.530877
0.446166
0.32711
0.292339
0.471777
0.335016
0.477937
0.3238
0.533245
0.533302
0.530333
0.522588
0.532841
0.534966
0.533004
0.549651
0.540602
0.499303
0.514988
0.491565
0.538164
0.336704
0.500795
0.4982
0.531778
0.322888
0.496434
0.544908
0.533042
0.342441
0.31693
0.343222
0.543569
0.494427
0.318377
0.498588
0.39146
0.533411
0.312773
0.41324
0.326234
0.30364
0.553112
0.318882
0.507373
0.326341
0.551129
0.355739
0.533241
0.502687
0.528811
0.352616
0.342112
0.351319
0.514664
0.322181
0.341903
0.339395
0.539853
0.515403
0.544373
0.52186
0.530658
0.50866
0.37597
0.341462
0.529801
0.324688
0.451336
0.527024
0.550108
0.20312
0.295768
0.520372
0.533022
0.409478
0.524578
0.534343
0.518951
0.342319
0.542663
0.519497
0.530258
0.532321
0.322703
0.533177
0.327075
0.531233
0.541794
0.504334
0.532626
0.356071
0.536462
0.21904
0.355627
0.495129
0.506892
0.528043
0.451991
0.334581
0.531339
0.535345
0.320713
0.331688
0.304249
0.549047
0.336697
0.287117
0.3335
0.332752
0.319895
0.371114
0.542477
0.308437
0.538347
0.522271
0.329348
0.534897
0.311608
0.547885
0.30672
0.454965
0.315792
0.524639
0.533321
0.399409
0.495901
0.533474
0.520961
0.319001
0.476645
0.432112
0.322188
0.319306
0.405421
0.282993
0.543675
0.271019
0.306742
0.33151
0.533287
0.528122
0.322511
0.335897
0.545
0.3323
0.327625
0.533344
0.324238
0.311344
0.36075
0.552222
0.502518
0.54483
0.340442
0.29084
0.538396
0.518104
0.533002
0.397148
0.504973
0.528472
0.417025
0.404345
0.331362
0.311728
0.239124
0.493949
0.255255
0.546681
0.512338
0.532823
0.341748
0.412964
0.420909
0.558466
0.313677
0.483333
0.238238
0.491127
0.327117
0.282116
0.298059
0.53727
0.330643
0.551197
0.345454
0.382922
0.328887
0.469206
0.32476
0.543135
0.327369
0.500901
0.486305
0.330726
0.533151
0.533157
0.292578
0.548004
0.366451
0.334932
0.542295
0.3154
0.515449
0.392781
0.219334
0.532933
0.318158
0.357603
0.342651
0.360583
0.322564
0.513867
0.438394
0.522927
0.54684
0.528772
0.542862
0.411214
0.537011
0.310519
0.533642
0.332797
0.525485
0.330919
0.393211
0.522102
0.548686
0.534144
0.35741
0.43324
0.32944
0.360099
0.358843
0.222073
0.536703
0.409269
0.546752
0.532952
0.484905
0.538057
0.533441
0.397745
0.326521
0.361814
0.54076
0.487432
0.502312
0.533178
0.550974
0.419848
0.287102
0.344951