# vtk DataFile Version 1.0
unstructured grid
ascii
DATASET UNSTRUCTURED_GRID
points 3226 float
0.0796578 -0.059106 0
0.00128732 0.00159165 0
0.00227961 -0.00102548 0
0.0791586 -0.0598787 0
-0.0546216 0.01 0
0.000495206 0.025 0
0.0800549 -0.035 0
0.135172 -0.08 0
-0.0546216 -0.0451168 0
0.000495206 -0.0301168 0
0.0800549 -0.0901168 0
0.135172 -0.135117 0
-0.0546216 -0.0451168 -0.00551168
0.000495206 -0.0301168 -0.00551168
0.0800549 -0.0901168 -0.00551168
0.135172 -0.135117 -0.00551168
0.135172 -0.08 -0.00551168
0.0800549 -0.035 -0.00551168
0.000495206 0.025 -0.00551168
-0.0546216 0.01 -0.00551168
0.00128732 0.00159165 -0.00551168
0.00227961 -0.00102548 -0.00551168
0.0791586 -0.0598787 -0.00551168
0.0796578 -0.059106 -0.00551168
0.00110182 -0.000823821 0
0.000571683 -0.000188043 0
0.000561313 0.000639162 0
0.00189316 0.00207203 0
0.00260228 0.00255358 0
0.0033966 0.00307293 0
0.00428861 0.00362634 0
0.00529726 0.0041979 0
0.00644092 0.00476696 0
0.00773158 0.0053187 0
0.00918011 0.00583593 0
0.010799 0.00628751 0
0.012597 0.00663225 0
0.0145725 0.0068517 0
0.0167206 0.0069338 0
0.0190349 0.00685819 0
0.0215031 0.00658621 0
0.0241038 0.00607459 0
0.026821 0.00533786 0
0.0296245 0.00434523 0
0.0324763 0.00306927 0
0.0353199 0.00146906 0
0.0381488 -0.00039338 0
0.0409131 -0.00252802 0
0.0435632 -0.00493276 0
0.0460882 -0.0075571 0
0.0484881 -0.0103478 0
0.0506782 -0.0133217 0
0.0526651 -0.016422 0
0.0546139 -0.0195019 0
0.0565301 -0.022529 0
0.0584009 -0.0254846 0
0.0602154 -0.0283513 0
0.061964 -0.031114 0
0.0636389 -0.0337601 0
0.0652336 -0.0362795 0
0.0667431 -0.0386651 0
0.0681656 -0.0409111 0
0.0694983 -0.0430158 0
0.0707356 -0.0449823 0
0.071886 -0.0468071 0
0.0729575 -0.04849 0
0.0739438 -0.0500408 0
0.0748444 -0.0514675 0
0.0756707 -0.0527715 0
0.0764313 -0.053958 0
0.0771224 -0.0550398 0
0.0777384 -0.0560288 0
0.0782803 -0.0569318 0
0.0787691 -0.0577448 0
0.0792251 -0.0584672 0
0.0800494 -0.0597378 0
0.0797987 -0.0601582 0
0.0786655 -0.059391 0
0.0781259 -0.0588425 0
0.0775539 -0.0582102 0
0.0769587 -0.0574783 0
0.0763492 -0.0566339 0
0.075723 -0.0556725 0
0.0750452 -0.0546094 0
0.0742996 -0.0534457 0
0.073478 -0.0521785 0
0.072577 -0.0508019 0
0.0715904 -0.049313 0
0.0705098 -0.047712 0
0.069328 -0.0459996 0
0.0680378 -0.0441794 0
0.066632 -0.0422571 0
0.0651046 -0.0402413 0
0.0634508 -0.0381431 0
0.0616683 -0.0359754 0
0.0597581 -0.033753 0
0.0577255 -0.0314906 0
0.0555808 -0.0292024 0
0.0533388 -0.0269013 0
0.0510024 -0.0246151 0
0.0485693 -0.0223811 0
0.0460535 -0.0202228 0
0.0434788 -0.0181535 0
0.0408704 -0.0161833 0
0.0382442 -0.0143327 0
0.0356165 -0.0126209 0
0.0330065 -0.0110594 0
0.0304368 -0.00965062 0
0.0279338 -0.00838121 0
0.0255194 -0.00723697 0
0.0231965 -0.00623664 0
0.020983 -0.00535765 0
0.0188891 -0.00458677 0
0.0169193 -0.00391673 0
0.0150754 -0.00334068 0
0.0133572 -0.00285262 0
0.0117634 -0.0024437 0
0.0102912 -0.00210643 0
0.0089363 -0.00183343 0
0.00769424 -0.00161552 0
0.00655956 -0.00144452 0
0.00552632 -0.00131235 0
0.00458815 -0.00121216 0
0.00373885 -0.00113394 0
0.00297202 -0.00106855 0
-0.0506847 -0.0440454 0
-0.0467478 -0.0429739 0
-0.0428108 -0.0419025 0
-0.0388739 -0.0408311 0
-0.034937 -0.0397597 0
-0.0310001 -0.0386882 0
-0.0270632 -0.0376168 0
-0.0231263 -0.0365454 0
-0.0191894 -0.0354739 0
-0.0152525 -0.0344025 0
-0.0113155 -0.0333311 0
-0.00737862 -0.0322597 0
-0.00344171 -0.0311882 0
0.0038716 -0.0298185 0
0.00726082 -0.0297726 0
0.010644 -0.0299802 0
0.0140027 -0.0304367 0
0.0173201 -0.0311326 0
0.0205821 -0.0320541 0
0.0237776 -0.0331851 0
0.0268988 -0.0345078 0
0.0299406 -0.0360041 0
0.0329005 -0.0376567 0
0.035778 -0.039449 0
0.038574 -0.0413659 0
0.0412905 -0.043394 0
0.0439303 -0.0455212 0
0.0464964 -0.0477367 0
0.0489922 -0.0500312 0
0.051421 -0.0523964 0
0.0537863 -0.0548252 0
0.0560914 -0.0573112 0
0.0583395 -0.0598489 0
0.0605336 -0.0624334 0
0.0626765 -0.0650605 0
0.064771 -0.0677264 0
0.0668197 -0.0704277 0
0.0688248 -0.0731615 0
0.0707885 -0.0759252 0
0.072713 -0.0787163 0
0.0746002 -0.0815329 0
0.0764517 -0.0843729 0
0.0782695 -0.0872347 0
0.0829558 -0.0924852 0
0.0858567 -0.0948536 0
0.0887575 -0.0972221 0
0.0916584 -0.0995905 0
0.0945593 -0.101959 0
0.0974602 -0.104327 0
0.100361 -0.106696 0
0.103262 -0.109064 0
0.106163 -0.111433 0
0.109064 -0.113801 0
0.111965 -0.116169 0
0.114865 -0.118538 0
0.117766 -0.120906 0
0.120667 -0.123275 0
0.123568 -0.125643 0
0.126469 -0.128012 0
0.12937 -0.13038 0
0.132271 -0.132748 0
0.135172 -0.13118 0
0.135172 -0.127243 0
0.135172 -0.123306 0
0.135172 -0.119369 0
0.135172 -0.115432 0
0.135172 -0.111495 0
0.135172 -0.107558 0
0.135172 -0.103621 0
0.135172 -0.0996846 0
0.135172 -0.0957477 0
0.135172 -0.0918107 0
0.135172 -0.0878738 0
0.135172 -0.0839369 0
0.132271 -0.0776316 0
0.12937 -0.0752632 0
0.126469 -0.0728947 0
0.123568 -0.0705263 0
0.120667 -0.0681579 0
0.117766 -0.0657895 0
0.114865 -0.0634211 0
0.111965 -0.0610526 0
0.109064 -0.0586842 0
0.106163 -0.0563158 0
0.103262 -0.0539474 0
0.100361 -0.0515789 0
0.0974602 -0.0492105 0
0.0945593 -0.0468421 0
0.0916584 -0.0444737 0
0.0887575 -0.0421053 0
0.0858567 -0.0397368 0
0.0829558 -0.0373684 0
0.0782695 -0.0321179 0
0.0764517 -0.0292561 0
0.0746002 -0.026416 0
0.072713 -0.0235995 0
0.0707885 -0.0208084 0
0.0688248 -0.0180447 0
0.0668197 -0.0153109 0
0.064771 -0.0126096 0
0.0626765 -0.00994373 0
0.0605336 -0.00731663 0
0.0583395 -0.00473208 0
0.0560914 -0.00219437 0
0.0537863 0.000291632 0
0.051421 0.00272041 0
0.0489922 0.00508564 0
0.0464964 0.00738012 0
0.0439303 0.00959562 0
0.0412905 0.0117228 0
0.038574 0.0137509 0
0.035778 0.0156678 0
0.0329005 0.0174601 0
0.0299406 0.0191127 0
0.0268988 0.020609 0
0.0237776 0.0219317 0
0.0205821 0.0230627 0
0.0173201 0.0239842 0
0.0140027 0.0246801 0
0.010644 0.0251366 0
0.00726082 0.0253442 0
0.0038716 0.0252983 0
-0.00344171 0.0239286 0
-0.00737862 0.0228571 0
-0.0113155 0.0217857 0
-0.0152525 0.0207143 0
-0.0191894 0.0196429 0
-0.0231263 0.0185714 0
-0.0270632 0.0175 0
-0.0310001 0.0164286 0
-0.034937 0.0153571 0
-0.0388739 0.0142857 0
-0.0428108 0.0132143 0
-0.0467478 0.0121429 0
-0.0506847 0.0110714 0
-0.0546216 0.00606309 0
-0.0546216 0.00212617 0
-0.0546216 -0.00181074 0
-0.0546216 -0.00574766 0
-0.0546216 -0.00968457 0
-0.0546216 -0.0136215 0
-0.0546216 -0.0175584 0
-0.0546216 -0.0214953 0
-0.0546216 -0.0254322 0
-0.0546216 -0.0293691 0
-0.0546216 -0.0333061 0
-0.0546216 -0.037243 0
-0.0546216 -0.0411799 0
-0.0506847 -0.0440454 -0.00551168
-0.0467478 -0.0429739 -0.00551168
-0.0428108 -0.0419025 -0.00551168
-0.0388739 -0.0408311 -0.00551168
-0.034937 -0.0397597 -0.00551168
-0.0310001 -0.0386882 -0.00551168
-0.0270632 -0.0376168 -0.00551168
-0.0231263 -0.0365454 -0.00551168
-0.0191894 -0.0354739 -0.00551168
-0.0152525 -0.0344025 -0.00551168
-0.0113155 -0.0333311 -0.00551168
-0.00737862 -0.0322597 -0.00551168
-0.00344171 -0.0311882 -0.00551168
0.0038716 -0.0298185 -0.00551168
0.00726082 -0.0297726 -0.00551168
0.010644 -0.0299802 -0.00551168
0.0140027 -0.0304367 -0.00551168
0.0173201 -0.0311326 -0.00551168
0.0205821 -0.0320541 -0.00551168
0.0237776 -0.0331851 -0.00551168
0.0268988 -0.0345078 -0.00551168
0.0299406 -0.0360041 -0.00551168
0.0329005 -0.0376567 -0.00551168
0.035778 -0.039449 -0.00551168
0.038574 -0.0413659 -0.00551168
0.0412905 -0.043394 -0.00551168
0.0439303 -0.0455212 -0.00551168
0.0464964 -0.0477367 -0.00551168
0.0489922 -0.0500312 -0.00551168
0.051421 -0.0523964 -0.00551168
0.0537863 -0.0548252 -0.00551168
0.0560914 -0.0573112 -0.00551168
0.0583395 -0.0598489 -0.00551168
0.0605336 -0.0624334 -0.00551168
0.0626765 -0.0650605 -0.00551168
0.064771 -0.0677264 -0.00551168
0.0668197 -0.0704277 -0.00551168
0.0688248 -0.0731615 -0.00551168
0.0707885 -0.0759252 -0.00551168
0.072713 -0.0787163 -0.00551168
0.0746002 -0.0815329 -0.00551168
0.0764517 -0.0843729 -0.00551168
0.0782695 -0.0872347 -0.00551168
0.0829558 -0.0924852 -0.00551168
0.0858567 -0.0948536 -0.00551168
0.0887575 -0.0972221 -0.00551168
0.0916584 -0.0995905 -0.00551168
0.0945593 -0.101959 -0.00551168
0.0974602 -0.104327 -0.00551168
0.100361 -0.106696 -0.00551168
0.103262 -0.109064 -0.00551168
0.106163 -0.111433 -0.00551168
0.109064 -0.113801 -0.00551168
0.111965 -0.116169 -0.00551168
0.114865 -0.118538 -0.00551168
0.117766 -0.120906 -0.00551168
0.120667 -0.123275 -0.00551168
0.123568 -0.125643 -0.00551168
0.126469 -0.128012 -0.00551168
0.12937 -0.13038 -0.00551168
0.132271 -0.132748 -0.00551168
0.135172 -0.13118 -0.00551168
0.135172 -0.127243 -0.00551168
0.135172 -0.123306 -0.00551168
0.135172 -0.119369 -0.00551168
0.135172 -0.115432 -0.00551168
0.135172 -0.111495 -0.00551168
0.135172 -0.107558 -0.00551168
0.135172 -0.103621 -0.00551168
0.135172 -0.0996846 -0.00551168
0.135172 -0.0957477 -0.00551168
0.135172 -0.0918107 -0.00551168
0.135172 -0.0878738 -0.00551168
0.135172 -0.0839369 -0.00551168
0.132271 -0.0776316 -0.00551168
0.12937 -0.0752632 -0.00551168
0.126469 -0.0728947 -0.00551168
0.123568 -0.0705263 -0.00551168
0.120667 -0.0681579 -0.00551168
0.117766 -0.0657895 -0.00551168
0.114865 -0.0634211 -0.00551168
0.111965 -0.0610526 -0.00551168
0.109064 -0.0586842 -0.00551168
0.106163 -0.0563158 -0.00551168
0.103262 -0.0539474 -0.00551168
0.100361 -0.0515789 -0.00551168
0.0974602 -0.0492105 -0.00551168
0.0945593 -0.0468421 -0.00551168
0.0916584 -0.0444737 -0.00551168
0.0887575 -0.0421053 -0.00551168
0.0858567 -0.0397368 -0.00551168
0.0829558 -0.0373684 -0.00551168
0.0782695 -0.0321179 -0.00551168
0.0764517 -0.0292561 -0.00551168
0.0746002 -0.026416 -0.00551168
0.072713 -0.0235995 -0.00551168
0.0707885 -0.0208084 -0.00551168
0.0688248 -0.0180447 -0.00551168
0.0668197 -0.0153109 -0.00551168
0.064771 -0.0126096 -0.00551168
0.0626765 -0.00994373 -0.00551168
0.0605336 -0.00731663 -0.00551168
0.0583395 -0.00473208 -0.00551168
0.0560914 -0.00219437 -0.00551168
0.0537863 0.000291632 -0.00551168
0.051421 0.00272041 -0.00551168
0.0489922 0.00508564 -0.00551168
0.0464964 0.00738012 -0.00551168
0.0439303 0.00959562 -0.00551168
0.0412905 0.0117228 -0.00551168
[...]
CELL_DATA 2965
SCALARS rho float
LOOKUP_TABLE default
0.533115
0.324537
0.524572
0.327103
0.542308
0.361763
0.532804
0.33479
0.364057
0.525906
0.327409
0.344649
0.426539
0.535338
0.519153
0.516769
0.526496
0.515008
0.544861
0.528685
0.533328
0.336659
0.506885
0.534714
0.53581
0.547545
0.457639
0.478486
0.330915
0.504401
0.503717
0.34028
0.553136
0.529103
0.286335
0.360029
0.5285
0.533787
0.318402
0.506683
0.529581
0.502614
0.533774
0.328953
0.306115
0.532546
0.458285
0.467604
0.320717
0.533569
0.3895
0.332084
0.31932
0.426266
0.329558
0.421735
0.366016
0.314856
0.277499
0.476377
0.515971
0.474518
0.333706
0.544064
0.483069
0.532639
0.53312
0.320763
0.303374
0.342379
0.517659
0.543513
0.533203
0.277149
0.49961
0.409772
0.532502
0.331623
0.32294
0.467591
0.533307
0.334457
0.347299
0.437276
0.476313
0.376424
0.319561
0.285236
0.542347
0.364665
0.315826
0.532509
0.517568
0.514551
0.532908
0.320128
0.457066
0.27629
0.343298
0.3239
0.470627
0.324643
0.33753
0.304178
0.344112
0.527307
0.532532
0.338162
0.310769
0.532573
0.222436
0.3923
0.469052
0.49085
0.298317
0.293755
0.502921
0.456185
0.533652
0.324339
0.533269
0.236438
0.539897
0.5411
0.489484
0.400953
0.337502
0.458551
0.530805
0.265265
0.334344
0.42858
0.532014
0.340278
0.461237
0.339671
0.424595
0.515743
0.555285
0.542107
0.339721
0.515339
0.528139
0.332034
0.296221
0.54539
0.328997
0.541282
0.555794
0.351151
0.326546
0.324867
0.337525
0.331648
0.275904
0.280645
0.532693
0.531332
0.522554
0.537089
0.453259
0.463287
0.407331
0.542371
0.363683
0.532825
0.413785
0.332787
0.533293
0.535339
0.482075
0.311955
0.436196
0.519692
0.547329
0.414952
0.512613
0.357376
0.255086
0.417671
0.344129
0.259501
0.32301
0.306584
0.555821
0.532886
0.327903
0.327266
0.389464
0.326194
0.319259
0.320492
0.450219
0.299043
0.533387
0.464352
0.534204
0.483139
0.440599
0.323996
0.335196
0.330124
0.526723
0.43901
0.533026
0.298347
0.429505
0.533313
0.518146
0.533756
0.493946
0.401328
0.361201
0.345734
0.506399
0.350188
0.458563
0.325824
0.516761
0.325716
0.363672
0.344544
0.45911
0.383693
0.545237
0.260834
0.533083
0.522298
0.315845
0.477384
0.328068
0.269111
0.534453
0.318293
0.532921
0.535603
0.330323
0.53044
0.328468
0.351752
0.371871
0.325763
0.543296
0.522595
0.333381
0.230309
0.525896
0.533099
0.447582
0.505597
0.322886
0.332639
0.532722
0.337773
0.473603
0.278367
0.268135
0.533704
0.532344
0.349243
0.461537
0.326637
0.54279
0.362956
0.534481
0.533527
0.268431
0.473353
0.521283
0.302032
0.326364
0.532558
0.327931
0.550924
0.510565
0.328011
0.513638
0.514158
0.552337
0.531219
0.545999
0.462616
0.528591
0.532927
0.316169
0.322773
0.519048
0.538569
0.343017
0.529972
0.46275
0.276619
0.347124
0.321872
0.478613
0.325315
0.532531
0.48004
0.548929
0.325203
0.483813
0.483306
0.476662
0.532552
0.332086
0.235275
0.54489
0.532584
0.532655
0.32811
0.344957
0.481025
0.281541
0.310444
0.484494
0.533106
0.481687
0.218233
0.32893
0.482547
0.489588
0.324643
0.533751
0.532976
0.344806
0.413608
0.532575
0.514894
0.280483
0.322725
0.533653
0.346585
0.537743
0.365773
0.539583
0.394678
0.374522
0.332358
0.332026
0.300866
0.509573
0.547634
0.524987
0.542699
0.482164
0.474378
0.313163
0.53385
0.547182
0.343816
0.321865
0.533751
0.324622
0.515162
0.466069
0.350882
0.33027
0.343485
0.328184
0.533009
0.340346
0.344599
0.380012
0.32544
0.532013
0.533541
0.471439
0.532553
0.327321
0.530118
0.325018
0.533814
0.324865
0.341552
0.534445
0.467219
0.272157
0.26322
0.530839
0.362302
0.499827
0.514341
0.323782
0.529495
0.289194
0.346929
0.533791
0.298564
0.534796
0.282234
0.379752
0.334725
0.53541
0.46905
0.434775
0.532685
0.309021
0.546314
0.345452
0.307454
0.549489
0.296248
0.53943
0.421247
0.487995
0.292848
0.295417
0.307557
0.287224
0.30854
0.346757
0.528924
0.53372
0.53394
0.533608
0.347446
0.538448
0.466656
0.518703
0.245523
0.532316
0.365378
0.480116
0.470296
0.318614
0.533481
0.358249
0.52219
0.332595
0.487097
0.534342
0.290928
0.532672
0.252567
0.53744
0.324246
0.314613
0.416563
0.543769
0.540331
0.394534
0.262305
0.246178
0.419525
0.542815
0.526694
0.531907
0.530083
0.536065
0.312694
0.513756
0.481443
0.341902
0.241273
0.30086
0.498618
0.535303
0.36656
0.382037
0.373089
0.353453
0.52802
0.534121
0.533401
0.549164
0.400918
0.532848
0.534429
0.328127
0.539259
0.350859
0.348031
0.52963
0.533924
0.536831
0.545305
0.330141
0.344508
0.553397
0.529726
0.33079
0.528492
0.503592
0.533891
0.35888
0.329896
0.534758
0.326766
0.452389
0.533952
0.535246
0.343157
0.532275
0.323109
0.325589
0.320071
0.352516
0.532356
0.36434
0.516098
0.296644
0.329468
0.525311
0.344401
0.298901
0.343053
0.275399
0.35789
0.347324
0.313513
0.426723
0.440569
0.324207
0.363748
0.535259
0.327047
0.395617
0.532541
0.532498
0.488921
0.485694
0.432129
0.445267
0.296555
0.372245
0.532561
0.497263
0.243635
0.506603
0.250053
0.295987
0.285983
0.533319
0.55147
0.336581
0.494704
0.531595
0.284998
0.314148
0.540928
0.532827
0.354126
0.543566
0.378902
0.338646
0.541254
0.344988
0.454169
0.527301
0.39591
0.542233
0.320175
0.354235
0.537285
0.375674
0.344487
0.3581
0.319927
0.324469
0.532812
0.539133
0.521785
0.312546
0.251825
0.347176
0.335724
0.528934
0.239771
0.419612
0.347623
0.531061
0.531579
0.31222
0.533644
0.39295
0.486069
0.312927
0.526585
0.532948
0.555607
0.534293
0.533261
0.525207
0.362751
0.421198
0.355216
0.527979
0.32415
0.269369
0.531761
0.532474
0.532409
0.321431
0.333155
0.538633
0.540887
0.313029
0.533815
0.289991
0.311499
0.327814
0.55385
0.538269
0.522525
0.30554
0.312373
0.357982
0.328528
0.537076
0.533091
0.546295
0.319604
0.309211
0.455802
0.547241
0.543471
0.508888
0.532683
0.41185
0.535934
0.541423
0.515611
0.327084
0.536102
0.494445
0.532917
0.535684
0.545911
0.481449
0.380449
0.54638
0.346442
0.543957
0.532435
0.219612
0.532988
0.464531
0.534297
0.345258
0.328626
0.533179
0.298841
0.326231
0.548661
0.300917
0.416628
0.537128
0.283271
0.546385
0.327962
0.491164
0.532067
0.526826
0.498584
0.320905
0.320614
0.521116
0.435029
0.331101
0.480681
0.325472
0.533541
0.331046
0.461204
0.517516
0.53356
0.330623
0.492551
0.364081
0.412535
0.415695
0.34848
0.281761
0.325267
0.533812
0.459864
0.435034
0.309384
0.53376
0.485852
0.309791
0.533659
0.328536
0.455886
0.518101
0.533186
0.536297
0.299884
0.341555
0.533086
0.545607
0.523108
0.485306
0.542555
0.480118
0.466164
0.320028
0.503801
0.389697
0.350649
0.358846
0.532681
0.549718
0.505944
0.394605
0.321715
0.540553
0.345825
0.346973
0.407285
0.320253
0.457665
0.333525
0.532965
0.326231
0.323652
0.416251
0.544949
0.325427
0.318594
0.54915
0.543958
0.551501
0.318261
0.317856
0.538142
0.328923
0.319742
0.341905
0.436847
0.523282
0.268286
0.550499
0.331989
0.507083
0.53321
0.318474
0.410908
0.480051
0.500288
0.490753
0.540199
0.537631
0.544904
0.534277
0.533106
0.340831
0.379143
0.520316
0.282069
0.543135
0.524747
0.269333
0.530217
0.470295
0.509385
0.538999
0.462265
0.531333
0.324148
0.488191
0.347017
0.296515
0.534382
0.53345
0.256047
0.333899
0.530066
0.394714
0.44956
0.270888
0.250838
0.548838
0.515256
0.544045
0.511675
0.453153
0.381885
0.451754
0.33443
0.533355
0.503237
0.492024
0.342135
0.382532
0.544168
0.497129
0.539091
0.157127
0.533491
0.325982
0.319343
0.327102
0.517923
0.52048
0.540299
0.471828
0.344411
0.533521
0.388105
0.545925
0.547471
0.489286
0.329984
0.31088
0.533616
0.352542
0.427808
0.471031
0.318461
0.378496
0.516467
0.542033
0.324415
0.53361
0.531861
0.326961
0.533671
0.533953
0.537919
0.36199
0.357088
0.542064
0.318699
0.333214
0.409995
0.533042
0.315676
0.377493
0.321286
0.304609
0.537478
0.329505
0.32934
0.542993
0.327511
0.329962
0.552705
0.537565
0.534615
0.532725
0.48783
0.34263
0.551746
0.532189
0.313977
0.53646
0.533909
0.532969
0.533056
0.362008
0.533006
0.336078
0.533085
0.317611
0.532836
0.337113
0.518211
0.316264
0.54008
0.545541
0.550802
0.486108
0.533565
0.536103
0.306719
0.533005
0.263716
0.533155
0.537527
0.32514
0.40692
0.348506
0.327266
0.533101
0.365408
0.53301
0.12635
0.50616
0.507329
0.539858
0.398461
0.340794
0.24623
0.32896
0.275491
0.53715
0.368633
0.316752
0.534325
0.343375
0.364555
0.532374
0.531511
0.498959
0.535376
0.259792
0.48787
0.314077
0.533225
0.533814
0.525336
0.281335
0.539725
0.535674
0.541036
0.495043
0.532685
0.384841
0.533056
0.540302
0.43846
0.533883
0.31253
0.518878
0.355203
0.415419
0.518958
0.490988
0.52932
0.475307
0.487197
0.53663
0.318412
0.523465
0.326116
0.345357
0.540591
0.512211
0.475694
0.519823
0.531137
0.53317
0.536068
0.533396
0.533327
0.533344
0.552437
0.364033
0.499471
0.530864
0.32823
0.533626
0.316966
0.473344
0.321447
0.533604
0.32936
0.326681
0.300903
0.466101
0.534258
0.430131
0.515972
0.323965
0.344272
0.533191
0.534162
0.322847
0.499535
0.446803
0.348862
0.502332
0.337906
0.316509
0.534146
0.478332
0.321286
0.517672
0.532594
0.522809
0.324493
0.513246
0.241583
0.533093
0.384911
0.509885
0.317141
0.548583
0.313821
0.316736
0.323089
0.510824
0.298479
0.495294
0.546478
0.467354
0.36523
0.311635
0.542072
0.313859
0.23344
0.323529
0.534487
0.321694
0.348274
0.277618
0.499291
0.336979
0.332727
0.338993
0.533169
0.549971
0.341794
0.537903
0.536997
0.494439
0.335015
0.325896
0.534004
0.323321
0.555377
0.33086
0.530305
0.323261
0.156524
0.513236
0.326323
0.333814
0.322982
0.533813
0.303461
0.444569
0.536575
0.321973
0.516627
0.324135
0.549644
0.417268
0.322834
0.334517
0.53381
0.442769
0.533241
0.315833
0.346889
0.431242
0.533228
0.313798
0.333194
0.321331
0.415751
0.53647
0.3682
0.447034
0.530371
0.533321
0.525033
0.325852
0.535265
0.326452
0.532808
0.533294
0.456363
0.348051
0.484647
0.53756
0.320774
0.537003
0.537429
0.333086
0.332826
0.308617
0.256576
0.541467
0.323567
0.53312
0.387393
0.533144
0.495591
0.374901
0.510849
0.308996
0.477462
0.329904
0.532486
0.532264
0.23209
0.3295
0.338043
0.466086
0.552482
0.326456
0.311179
0.353757
0.453652
0.546651
0.254698
0.328312
0.524393
0.536386
0.527092
0.327546
0.328719
0.523305
0.532583
0.311963
0.330185
0.438662
0.549729
0.488352
0.312544
0.533558
0.534315
0.314036
0.537724
0.321065
0.539209
0.320064
0.3557
0.321344
0.276793
0.532242
0.337071
0.325792
0.336642
0.342928
0.47926
0.529771
0.549995
0.314525
0.53298
0.534561
0.534598
0.547053
0.532527
0.547853
0.549481
0.54811
0.538056
0.531789
0.286885
0.483736
0.550084
0.324471
0.539889
0.544621
0.535773
0.534543
0.319075
0.541762
0.533301
0.535547
0.345616
0.50276
0.529133
0.533065
0.529224
0.324487
0.48534
0.362996
0.416786
0.356312
0.351548
0.315404
0.325526
0.533624
0.53373
0.5216
0.31988
0.533981
0.533678
0.536897
0.325996
0.346936
0.517593
0.305888
0.318401
0.353351
0.536161
0.421914
0.533803
0.331627
0.545758
0.531701
0.452761
0.539078
0.349468
0.550188
0.534825
0.512289
0.53871
0.532602
0.519019
0.325873
0.360193
0.349394
0.532437
0.313385
0.534085
0.51937
0.489351
0.330198
0.359958
0.483627
0.541052
0.532772
0.328506
0.524279
0.478341
0.256873
0.533873
0.330791
0.330041
0.310204
0.325222
0.345223
0.539095
0.53477
0.552567
0.440909
0.532341
0.532837
0.516311
0.53354
0.546479
0.548473
0.53243
0.532506
0.329352
0.532659
0.527372
0.426249
0.321199
0.502951
0.296846
0.536543
0.36737
0.53879
0.545263
0.330812
0.536308
0.333708
0.533607
0.530915
0.547074
0.489117
0.516436
0.544985
0.532714
0.363093
0.446114
0.422466
0.24617
0.533889
0.537584
0.436718
0.551039
0.525628
0.532786
0.295911
0.327221
0.526908
0.546226
0.328611
0.213435
0.513022
0.532634
0.534103
0.272095
0.451284
0.512072
0.5317
0.322477
0.533631
0.485057
0.524978
0.506084
0.438794
0.533719
0.29417
0.53052
0.31955
0.353746
0.533537
0.35071
0.351094
0.323103
0.52511
0.507407
0.438947
0.533347
0.431459
0.3723
0.320885
0.542118
0.531548
0.539346
0.490329
0.25167
0.52151
0.434601
0.318172
0.531319
0.538243
0.327433
0.535168
0.528069
0.532818
0.448255
0.532446
0.361921
0.533874
0.530585
0.532625
0.34361
0.52486
0.382729
0.5091
0.531806
0.544434
0.529834
0.533938
0.533929
0.53238
0.516728
0.318505
0.540912
0.511178
0.346003
0.494676
0.53601
0.551419
0.495918
0.320657
0.531177
0.342409
0.545149
0.490214
0.537689
0.332661
0.513025
0.534297
0.533295
0.525228
0.474914
0.533516
0.465043
0.388269
0.322267
0.28445
0.532746
0.35362
0.288911
0.536771
0.330923
0.543338
0.317098
0.53555
0.329856
0.331171
0.520826
0.395535
0.298814
0.527861
0.532224
0.538264
0.341312
0.504367
0.533618
0.531306
0.322912
0.533274
0.534304
0.326121
0.479391
0.461217
0.52382
0.350138
0.392673
0.510457
0.305684
0.538182
0.339544
0.332359
0.532631
0.387819
0.504922
0.330826
0.53974
0.422677
0.533357
0.195206
0.337151
0.53276
0.357475
0.533481
0.362829
0.533918
0.47756
0.467685
0.533535
0.501263
0.243012
0.534126
0.548998
0.529896
0.533221
0.302816
0.338122
0.333281
0.333307
0.532855
0.346428
0.5133
0.325952
0.532034
0.533861
0.532835
0.324569
0.533916
0.327175
0.533084
0.541213
0.364081
0.532783
0.517879
0.321962
0.519767
0.312702
0.36632
0.549864
0.335687
0.543433
0.225436
0.341357
0.511165
0.371771
0.53808
0.3232
0.461454
0.532105
0.529818
0.385577
0.253277
0.324737
0.533124
0.533324
0.342179
0.534078
0.32108
0.532307
0.323009
0.330811
0.464076
0.473983
0.420206
0.492581
0.533435
0.494115
0.472739
0.53524
0.532718
0.33616
0.533815
0.363906
0.346492
0.493179
0.40916
0.395862
0.443089
0.328989
0.512751
0.533618
0.536526
0.326357
0.330155
0.443038
0.506538
0.533997
0.546031
0.326083
0.498519
0.531576
0.503797
0.442352
0.324557
0.319551
0.329314
0.555933
0.536086
0.302406
0.311943
0.437245
0.323427
0.549608
0.513206
0.329168
0.533183
0.406445
0.539922
0.535924
0.329269
0.364793
0.504695
0.331298
0.395764
0.532212
0.276949
0.329828
0.325871
0.507761
0.535727
0.506293
0.340823
0.323394
0.528906
0.534143
0.49169
0.538375
0.327391
0.339502
0.344642
0.497869
0.302228
0.337377
0.536916
0.540951
0.513086
0.321643
0.343864
0.344168
0.533385
0.306281
0.532752
0.533034
0.529698
0.430187
0.532819
0.549697
0.331935
0.324756
0.534408
0.327453
0.467431
0.52461
0.541471
0.436214
0.305662
0.293442
0.541557
0.405644
0.304341
0.533436
0.533606
0.298462
0.323252
0.512367
0.443986
0.331054
0.347541
0.539881
0.489829
0.526879
0.465979
0.349418
0.282994
0.350328
0.38406
0.309069
0.533147
0.527416
0.468704
0.508826
0.360483
0.501855
0.364326
0.532387
0.545478
0.345562
0.267101
0.529026
0.388933
0.471976
0.534282
0.313813
0.530351
0.528197
0.532598
0.533517
0.499274
0.365427
0.345557
0.319619
0.510491
0.53309
0.511689
0.443784
0.326472
0.346599
0.493409
0.326876
0.537463
0.532435
0.532588
0.33995
0.320457
0.46399
0.50498
0.533335
0.525062
0.533736
0.532843
0.535106
0.474291
0.254385
0.53336
0.494638
0.533399
0.329247
0.528617
0.424506
0.527317
0.552838
0.446207
0.491661
0.530781
0.508862
0.533246
0.327415
0.531114
0.551151
0.349456
0.501943
0.309536
0.304171
0.533171
0.533266
0.347839
0.483264
0.5327
0.344442
0.362508
0.551346
0.550536
0.470795
0.362641
0.496312
0.327098
0.542567
0.549279
0.326564
0.452512
0.498652
0.323426
0.32526
0.351921
0.536743
0.526549
0.325929
0.365829
0.34259
0.345908
0.346361
0.496906
0.323282
0.551689
0.533569
0.541208
0.332332
0.531588
0.439017
0.531093
0.446387
0.528784
0.327585
0.298521
0.327075
0.532539
0.335986
0.324983
0.493492
0.336496
0.533511
0.506765
0.426319
0.318026
0.321352
0.521042
0.534596
0.526581
0.522674
0.543441
0.32842
0.367925
0.308794
0.509151
0.534045
0.323308
0.512021
0.345501
0.345369
0.533745
0.336324
0.362701
0.242388
0.374512
0.331169
0.533805
0.531238
0.537265
0.335328
0.532477
0.542109
0.323201
0.533764
0.377015
0.539202
0.362227
0.391485
0.532388
0.324444
0.249448
0.528321
0.52298
0.324001
0.545864
0.497416
0.531777
0.400711
0.326625
0.501585
0.532636
0.364335
0.377054
0.420076
0.395378
0.53378
0.342495
0.324305
0.540865
0.501437
0.353762
0.330834
0.53171
0.324698
0.324359
0.331426
0.454805
0.544252
0.331142
0.539259
0.32591
0.308302
0.363905
0.404999
0.337232
0.539195
0.332071
0.365847
0.481717
0.538033
0.358268
0.532998
0.327847
0.321033
0.508656
0.552801
0.523246
0.513538
0.516805
0.546416
0.327018
0.538579
0.294127
0.532866
0.526069
0.411485
0.525373
0.53303
0.532267
0.532905
0.436332
0.362389
0.429212
0.334581
0.498664
0.530763
0.498001
0.318623
0.535771
0.369191
0.53296
0.32272
0.304217
0.557355
0.302939
0.527174
0.552922
0.371679
0.335633
0.329517
0.532594
0.394283
0.248196
0.540646
0.325839
0.525202
0.359776
0.348085
0.321938
0.533878
0.390591
0.533383
0.32479
0.3484
0.532747
0.531123
0.282086
0.359215
0.271929
0.481979
0.333941
0.519919
0.529398
0.53285
0.236531
0.332505
0.450742
0.529668
0.548335
0.531516
0.308617
0.511588
0.536589
0.532754
0.533407
0.328939
0.519955
0.323825
0.441544
0.541902
0.536361
0.529158
0.544802
0.490624
0.530543
0.544015
0.532219
0.521765
0.536148
0.532899
0.53478
0.325319
0.328038
0.533813
0.47524
0.533345
0.533131
0.548565
0.520022
0.544905
0.346087
0.323094
0.533447
0.325601
0.322701
0.352859
0.532189
0.522557
0.533311
0.506957
0.521457
0.32159
0.537476
0.325415
0.323473
0.545791
0.524162
0.523585
0.400767
0.395939
0.33868
0.323316
0.389087
0.323137
0.362288
0.543675
0.300811
0.530365
0.330239
0.53911
0.532486
0.282471
0.358357
0.493656
0.533404
0.328469
0.50851
0.267931
0.317789
0.327828
0.450765
0.533941
0.533262
0.533865
0.221592
0.354683
0.283564
0.344964
0.533192
0.546912
0.537705
0.34137
0.325996
0.532477
0.5314
0.535395
0.318954
0.478941
0.465782
0.543084
0.431761
0.347305
0.341289
0.32847
0.533887
0.330335
0.326387
0.533112
0.352452
0.533891
0.364313
0.366987
0.400827
0.361093
0.545151
0.533389
0.533851
0.443882
0.555748
0.510707
0.469222
0.368161
0.507795
0.530486
0.509383
0.535579
0.532275
0.539466
0.425234
0.531253
0.534508
0.375595
0.33003
0.549604
0.402504
0.532903
0.342709
0.546303
0.371218
0.525534
0.533904
0.507824
0.531856
0.538554
0.514755
0.307537
0.343501
0.536294
0.547011
0.532119
0.435232
0.543866
0.4482
0.49491
0.532439
0.472032
0.459234
0.539772
0.532931
0.346066
0.324574
0.533809
0.500636
0.330888
0.353771
0.425396
0.533401
0.533115
0.550749
0.345676
0.523478
0.312456
0.535036
0.327552
0.544199
0.28409
0.549777
0.352995
0.530859
0.4462
0.323555
0.283212
0.471469
0.336224
0.478622
0.323906
0.533357
0.533331
0.529977
0.523325
0.532784
0.534373
0.532423
0.549877
0.540886
0.49942
0.515074
0.492481
0.537981
0.3362
0.50095
0.498353
0.53175
0.324645
0.49621
0.545029
0.532678
0.346342
0.317272
0.340794
0.543622
0.495326
0.319313
0.498366
0.391336
0.53375
0.312672
0.413062
0.366332
0.303516
0.553511
0.318815
0.5075
0.328091
0.551491
0.356025
0.533386
0.502628
0.528099
0.363404
0.36324
0.351244
0.514752
0.323274
0.341829
0.339391
0.539709
0.516187
0.544483
0.521337
0.530641
0.509256
0.375428
0.361856
0.529932
0.32508
0.451361
0.52651
0.550345
0.203151
0.297535
0.521097
0.532542
0.409332
0.524602
0.53428
0.518579
0.345981
0.542674
0.519068
0.530931
0.532804
0.322634
0.533268
0.328104
0.530882
0.54206
0.504107
0.532196
0.355943
0.536383
0.218993
0.355206
0.495984
0.506995
0.528135
0.452021
0.335115
0.531391
0.53489
0.322557
0.331206
0.303158
0.549397
0.353355
0.286978
0.333761
0.332711
0.317357
0.371038
0.542482
0.304365
0.538351
0.522813
0.328252
0.534727
0.330036
0.548092
0.302263
0.454898
0.31607
0.525335
0.533625
0.39897
0.495643
0.533555
0.521015
0.318853
0.476243
0.431841
0.314848
0.32108
0.405361
0.283873
0.543777
0.273015
0.339243
0.331424
0.53328
0.527422
0.323524
0.335538
0.54519
0.326763
0.327558
0.533292
0.324141
0.357664
0.358335
0.552472
0.502564
0.545362
0.34016
0.290823
0.538097
0.518154
0.532513
0.39698
0.504902
0.528972
0.416949
0.404287
0.331954
0.313571
0.23906
0.493754
0.261864
0.546821
0.512273
0.532047
0.343836
0.412749
0.420863
0.558881
0.314556
0.48299
0.238183
0.490815
0.326862
0.282014
0.298791
0.536819
0.330345
0.551503
0.360406
0.382826
0.324906
0.468757
0.325512
0.543161
0.353886
0.501574
0.485956
0.331265
0.533388
0.533281
0.300253
0.548283
0.365268
0.332792
0.542308
0.314743
0.515509
0.388872
0.218375
0.532393
0.318546
0.357477
0.364507
0.359538
0.324012
0.513796
0.438155
0.52364
0.547087
0.528772
0.542894
0.41076
0.537038
0.310041
0.534051
0.32952
0.525552
0.329941
0.393077
0.522798
0.549022
0.533811
0.357295
0.432617
0.348173
0.351583
0.36094
0.222072
0.536225
0.408859
0.546932
0.532403
0.484604
0.538014
0.533289
0.397634
0.327473
0.361733
0.540761
0.487291
0.502077
0.533574
0.551456