# vtk DataFile Version 1.0
unstructured grid
ascii
DATASET UNSTRUCTURED_GRID
points 13672 float
0.0796578 -0.059106 0
0.00128732 0.00159165 0
0.00227961 -0.00102548 0
0.0791586 -0.0598787 0
-0.0546216 0.01 0
0.000495206 0.025 0
0.0800549 -0.035 0
0.135172 -0.08 0
-0.0546216 -0.0451168 0
0.000495206 -0.0301168 0
0.0800549 -0.0901168 0
0.135172 -0.135117 0
-0.0546216 -0.0451168 -0.00551168
0.000495206 -0.0301168 -0.00551168
0.0800549 -0.0901168 -0.00551168
0.135172 -0.135117 -0.00551168
0.135172 -0.08 -0.00551168
0.0800549 -0.035 -0.00551168
0.000495206 0.025 -0.00551168
-0.0546216 0.01 -0.00551168
0.00128732 0.00159165 -0.00551168
0.00227961 -0.00102548 -0.00551168
0.0791586 -0.0598787 -0.00551168
0.0796578 -0.059106 -0.00551168
0.00165953 -0.000990923 0
0.00119576 -0.000874076 0
0.000866021 -0.000641801 0
0.000645147 -0.000349912 0
0.00052235 -1.7281e-05 0
0.00049972 0.000348016 0
0.000601632 0.000737716 0
0.000861774 0.0011403 0
0.00157235 0.00183217 0
0.00188647 0.00206725 0
0.00222612 0.00230203 0
0.00258713 0.00254351 0
0.00296826 0.00279524 0
0.00337118 0.00305664 0
0.00379785 0.00332658 0
0.00425045 0.00360349 0
0.00473139 0.00388521 0
0.0052432 0.00416895 0
0.0057881 0.00445204 0
0.00636753 0.00473281 0
0.00698281 0.00500961 0
0.00763526 0.00528058 0
0.00832616 0.00554366 0
0.00905691 0.00579603 0
0.00982918 0.00603333 0
0.0106445 0.00625033 0
0.0115038 0.00644128 0
0.0124073 0.00660297 0
0.0133543 0.00673414 0
0.0143444 0.00683382 0
0.0153769 0.00690031 0
0.0164512 0.00693173 0
0.0175666 0.00692547 0
0.0187219 0.00687822 0
0.0199156 0.00678477 0
0.0211454 0.00663864 0
0.0224084 0.00643275 0
0.0237018 0.00616676 0
0.0250249 0.00584739 0
0.026375 0.00547298 0
0.0277479 0.00503752 0
0.0291386 0.00453545 0
0.0305433 0.0039653 0
0.0319572 0.0033256 0
0.0333681 0.00260019 0
0.034775 0.00179799 0
0.0361793 0.000930615 0
0.0375798 3.12222e-06 0
0.0389689 -0.000988429 0
0.0403357 -0.00205109 0
0.041675 -0.00318283 0
0.0429849 -0.00437751 0
0.0442643 -0.00562904 0
0.0455126 -0.00693089 0
0.0467314 -0.00827518 0
0.0479204 -0.00965638 0
0.0490661 -0.0110799 0
0.0501515 -0.0125519 0
0.0511696 -0.0140695 0
0.0521492 -0.0156071 0
0.0531202 -0.0171411 0
0.0540851 -0.0186663 0
0.0550431 -0.0201798 0
0.0559923 -0.0216793 0
0.0569311 -0.0231626 0
0.0578582 -0.0246273 0
0.0587723 -0.0260715 0
0.0596721 -0.027493 0
0.0605563 -0.02889 0
0.0614241 -0.0302609 0
0.0622742 -0.0316042 0
0.063106 -0.0329183 0
0.0639186 -0.034202 0
0.0647113 -0.0354543 0
0.0654835 -0.0366743 0
0.0662345 -0.0378613 0
0.0669642 -0.0390145 0
0.0676726 -0.0401333 0
0.0683597 -0.0412172 0
0.0690246 -0.0422665 0
0.0696662 -0.0432819 0
0.0702841 -0.0442636 0
0.0708793 -0.0452111 0
0.0714538 -0.0461237 0
0.072009 -0.047001 0
0.0725452 -0.0478434 0
0.0730611 -0.0486524 0
0.073556 -0.0494294 0
0.0740291 -0.0501756 0
0.0744812 -0.0508916 0
0.0749138 -0.0515773 0
0.0753285 -0.0522331 0
0.0757266 -0.0528592 0
0.076109 -0.0534564 0
0.0764753 -0.0540264 0
0.0768243 -0.054571 0
0.0771553 -0.0550919 0
0.0774679 -0.0555901 0
0.0777617 -0.0560669 0
0.0780369 -0.056523 0
0.0782958 -0.0569578 0
0.0785421 -0.0573703 0
0.0787786 -0.0577603 0
0.0790073 -0.0581279 0
0.0792295 -0.058474 0
0.0794462 -0.0587995 0
0.0798803 -0.0594162 0
0.0800272 -0.0596588 0
0.0800357 -0.0598891 0
0.0799275 -0.0600784 0
0.0797205 -0.0601773 0
0.0794593 -0.0601051 0
0.0789155 -0.0596491 0
0.0786707 -0.0593963 0
0.0784111 -0.0591319 0
0.0781372 -0.0588542 0
0.0778566 -0.0585548 0
0.0775715 -0.0582308 0
0.0772803 -0.0578828 0
0.0769832 -0.0575099 0
0.0766822 -0.0571097 0
0.0763801 -0.0566796 0
0.0760759 -0.0562196 0
0.0757623 -0.0557337 0
0.0754359 -0.0552232 0
0.0750951 -0.0546879 0
0.0747379 -0.054128 0
0.0743626 -0.0535435 0
0.0739688 -0.0529338 0
0.0735559 -0.0522981 0
0.0731238 -0.0516357 0
0.0726718 -0.050946 0
0.0721991 -0.0502288 0
0.0717046 -0.049484 0
0.0711872 -0.0487117 0
0.0706461 -0.047912 0
0.0700804 -0.0470849 0
0.0694892 -0.0462308 0
0.0688718 -0.0453499 0
0.0682271 -0.0444431 0
0.0675544 -0.043511 0
0.0668527 -0.0425546 0
0.0661215 -0.0415748 0
0.06536 -0.040573 0
0.0645676 -0.0395504 0
0.0637439 -0.0385087 0
0.0628887 -0.0374493 0
0.062002 -0.0363741 0
0.0610838 -0.0352847 0
0.0601345 -0.0341831 0
0.0591547 -0.033071 0
0.0581456 -0.0319502 0
0.0571083 -0.0308224 0
0.0560444 -0.0296893 0
0.0549562 -0.028552 0
0.053845 -0.0274126 0
0.0527113 -0.0262746 0
0.051554 -0.0251427 0
0.0503724 -0.0240222 0
0.0491675 -0.0229164 0
0.047941 -0.0218282 0
0.0466955 -0.0207597 0
0.0454337 -0.0197126 0
0.0441592 -0.0186878 0
0.0428751 -0.0176863 0
0.0415841 -0.0167097 0
0.0402878 -0.0157609 0
0.0389879 -0.0148428 0
0.0376864 -0.0139575 0
0.0363853 -0.013107 0
0.0350871 -0.0122931 0
0.0337942 -0.0115164 0
0.0325095 -0.0107772 0
0.0312357 -0.0100756 0
0.0299758 -0.00941024 0
0.0287337 -0.00877784 0
0.0275126 -0.00817571 0
0.0263139 -0.00760375 0
0.0251376 -0.00706528 0
0.0239829 -0.0065649 0
0.0228537 -0.00609619 0
0.0217522 -0.00565563 0
0.0206795 -0.00524226 0
0.0196364 -0.00485507 0
0.0186233 -0.00449318 0
0.0176408 -0.00415577 0
0.016689 -0.00384204 0
0.0157682 -0.00355115 0
0.0148783 -0.00328218 0
0.0140192 -0.00303468 0
0.0131906 -0.00280795 0
0.0123925 -0.00260016 0
0.0116246 -0.00241012 0
0.0108864 -0.00223769 0
0.0101774 -0.00208212 0
0.00949701 -0.00194206 0
0.00884483 -0.0018163 0
0.0082202 -0.0017039 0
0.00762247 -0.00160391 0
0.00705097 -0.00151528 0
0.006505 -0.00143697 0
0.0059838 -0.00136806 0
0.00548662 -0.00130772 0
0.00501265 -0.00125519 0
0.00456114 -0.00120954 0
0.00413136 -0.00116914 0
0.00372257 -0.00113251 0
0.00333398 -0.00109853 0
0.00296466 -0.00106798 0
0.00261363 -0.0010431 0
-0.052721 -0.0445996 0
-0.0508204 -0.0440823 0
-0.0489199 -0.0435651 0
-0.0470193 -0.0430478 0
-0.0451187 -0.0425306 0
-0.0432181 -0.0420134 0
-0.0413175 -0.0414961 0
-0.039417 -0.0409789 0
-0.0375164 -0.0404616 0
-0.0356158 -0.0399444 0
-0.0337152 -0.0394271 0
-0.0318146 -0.0389099 0
-0.0299141 -0.0383927 0
-0.0280135 -0.0378754 0
-0.0261129 -0.0373582 0
-0.0242123 -0.0368409 0
-0.0223117 -0.0363237 0
-0.0204112 -0.0358065 0
-0.0185106 -0.0352892 0
-0.01661 -0.034772 0
-0.0147094 -0.0342547 0
-0.0128088 -0.0337375 0
-0.0109083 -0.0332202 0
-0.00900769 -0.032703 0
-0.00710711 -0.0321858 0
-0.00520653 -0.0316685 0
-0.00330595 -0.0311513 0
-0.00140537 -0.030634 0
0.00190689 -0.0299614 0
0.00332271 -0.0298498 0
0.00474133 -0.0297825 0
0.00616136 -0.0297597 0
0.0075814 -0.0297814 0
0.00900007 -0.0298477 0
0.010416 -0.0299583 0
0.0118278 -0.0301127 0
0.0132342 -0.0303103 0
0.0146339 -0.0305504 0
0.0160259 -0.0308322 0
0.0174091 -0.0311546 0
0.0187824 -0.0315166 0
0.020145 -0.031917 0
0.0214961 -0.0323546 0
0.0228351 -0.032828 0
0.0241613 -0.0333361 0
0.0254744 -0.0338774 0
0.0267738 -0.0344507 0
0.0280592 -0.0350545 0
0.0293306 -0.0356877 0
0.0305875 -0.0363488 0
0.0318301 -0.0370367 0
0.0330581 -0.0377501 0
0.0342717 -0.0384879 0
0.0354708 -0.0392489 0
0.0366556 -0.0400321 0
0.0378262 -0.0408363 0
0.0389828 -0.0416607 0
0.0401254 -0.0425042 0
0.0412543 -0.0433659 0
0.0423698 -0.0442451 0
0.043472 -0.0451408 0
0.0445612 -0.0460523 0
0.0456375 -0.0469789 0
0.0467013 -0.0479199 0
0.0477529 -0.0488746 0
0.0487923 -0.0498424 0
0.04982 -0.0508227 0
0.0508362 -0.051815 0
0.051841 -0.0528187 0
0.0528348 -0.0538333 0
0.0538178 -0.0548584 0
0.0547903 -0.0558935 0
0.0557524 -0.0569382 0
0.0567045 -0.0579922 0
0.0576467 -0.0590549 0
0.0585792 -0.0601261 0
0.0595024 -0.0612055 0
0.0604163 -0.0622926 0
0.0613212 -0.0633873 0
0.0622174 -0.0644891 0
0.0631049 -0.0655979 0
0.0639841 -0.0667134 0
0.064855 -0.0678353 0
0.0657179 -0.0689633 0
0.0665729 -0.0700974 0
0.0674202 -0.0712372 0
0.06826 -0.0723826 0
0.0690925 -0.0735333 0
0.0699178 -0.0746892 0
0.070736 -0.0758501 0
0.0715473 -0.0770159 0
0.0723518 -0.0781863 0
0.0731498 -0.0793612 0
0.0739412 -0.0805405 0
0.0747264 -0.081724 0
0.0755053 -0.0829116 0
0.0762781 -0.0841033 0
0.0770449 -0.0852987 0
0.0778059 -0.0864979 0
0.0785611 -0.0877007 0
0.0793108 -0.088907 0
0.0814681 -0.0912706 0
0.0828814 -0.0924245 0
0.0842946 -0.0935783 0
0.0857079 -0.0947322 0
0.0871211 -0.095886 0
0.0885344 -0.0970399 0
0.0899476 -0.0981937 0
0.0913609 -0.0993476 0
0.0927741 -0.100501 0
0.0941874 -0.101655 0
0.0956006 -0.102809 0
0.0970139 -0.103963 0
0.0984272 -0.105117 0
0.0998404 -0.106271 0
0.101254 -0.107424 0
0.102667 -0.108578 0
0.10408 -0.109732 0
0.105493 -0.110886 0
0.106907 -0.11204 0
0.10832 -0.113194 0
0.109733 -0.114348 0
0.111146 -0.115501 0
0.11256 -0.116655 0
0.113973 -0.117809 0
0.115386 -0.118963 0
0.116799 -0.120117 0
0.118213 -0.121271 0
0.119626 -0.122424 0
0.121039 -0.123578 0
0.122452 -0.124732 0
0.123866 -0.125886 0
0.125279 -0.12704 0
0.126692 -0.128194 0
0.128105 -0.129348 0
0.129519 -0.130501 0
0.130932 -0.131655 0
0.132345 -0.132809 0
0.133758 -0.133963 0
0.135172 -0.133216 0
0.135172 -0.131316 0
0.135172 -0.129415 0
0.135172 -0.127514 0
0.135172 -0.125614 0
0.135172 -0.123713 0
0.135172 -0.121813 0
0.135172 -0.119912 0
0.135172 -0.118012 0
0.135172 -0.116111 0
0.135172 -0.11421 0
0.135172 -0.11231 0
0.135172 -0.110409 0
0.135172 -0.108509 0
0.135172 -0.106608 0
0.135172 -0.104708 0
0.135172 -0.102807 0
0.135172 -0.100906 0
0.135172 -0.0990058 0
0.135172 -0.0971052 0
0.135172 -0.0952046 0
0.135172 -0.0933041 0
0.135172 -0.0914035 0
0.135172 -0.0895029 0
0.135172 -0.0876023 0
0.135172 -0.0857017 0
0.135172 -0.0838012 0
0.135172 -0.0819006 0
0.133758 -0.0788462 0
0.132345 -0.0776923 0
0.130932 -0.0765385 0
0.129519 -0.0753846 0
0.128105 -0.0742308 0
0.126692 -0.0730769 0
0.125279 -0.0719231 0
0.123866 -0.0707692 0
0.122452 -0.0696154 0
0.121039 -0.0684615 0
0.119626 -0.0673077 0
0.118213 -0.0661538 0
0.116799 -0.065 0
0.115386 -0.0638462 0
0.113973 -0.0626923 0
0.11256 -0.0615385 0
0.111146 -0.0603846 0
0.109733 -0.0592308 0
0.10832 -0.0580769 0
0.106907 -0.0569231 0
0.105493 -0.0557692 0
0.10408 -0.0546154 0
0.102667 -0.0534615 0
0.101254 -0.0523077 0
0.0998404 -0.0511538 0
0.0984272 -0.05 0
0.0970139 -0.0488462 0
0.0956006 -0.0476923 0
[...]
CELL_DATA 13116
SCALARS rho float
LOOKUP_TABLE default
0.5977
0.596975
0.554197
0.689028
0.676497
0.680413
0.397869
0.695603
0.5977
0.652072
0.369887
0.566587
0.677407
0.486507
0.50798
0.6805
0.5977
0.5977
0.680336
0.363678
0.5977
0.561552
0.536746
0.5977
0.5977
0.712923
0.624532
0.597724
0.5977
0.5977
0.680328
0.555914
0.5977
0.5977
0.406099
0.5977
0.5977
0.680776
0.680084
0.680432
0.680168
0.693878
0.5977
0.52278
0.680986
0.680658
0.597557
0.680048
0.546654
0.5977
0.683958
0.5977
0.435269
0.5977
0.5977
0.5977
0.519809
0.5977
0.5977
0.528458
0.490898
0.690159
0.597511
0.68006
0.680394
0.459052
0.680487
0.5977
0.679965
0.680285
0.507163
0.5977
0.567736
0.494756
0.669748
0.466075
0.5977
0.679736
0.37537
0.5977
0.5977
0.718683
0.5977
0.680174
0.680538
0.597714
0.414536
0.5977
0.679076
0.358298
0.574575
0.594986
0.597701
0.700902
0.5977
0.5977
0.5977
0.680215
0.678771
0.5977
0.5977
0.5977
0.679998
0.5977
0.597565
0.543021
0.597727
0.5977
0.580749
0.5977
0.5977
0.66625
0.5977
0.5977
0.5977
0.680242
0.441982
0.597699
0.680374
0.680203
0.5977
0.583163
0.680008
0.573722
0.706234
0.5977
0.422246
0.5977
0.55434
0.5977
0.68013
0.665334
0.5977
0.552048
0.5977
0.5977
0.55799
0.680503
0.5977
0.680351
0.5977
0.596649
0.5977
0.5977
0.5977
0.508259
0.402762
0.721911
0.662979
0.685119
0.5977
0.680178
0.680074
0.419469
0.589793
0.680367
0.557212
0.5977
0.680305
0.5977
0.5977
0.370305
0.597702
0.557771
0.589418
0.690224
0.70394
0.5977
0.402998
0.597697
0.597703
0.558155
0.503878
0.5977
0.680242
0.537263
0.526243
0.566078
0.654713
0.67989
0.358669
0.5977
0.5977
0.5977
0.679894
0.5977
0.418902
0.680387
0.596959
0.5977
0.5977
0.723921
0.68048
0.590735
0.651279
0.680655
0.597674
0.680511
0.679842
0.5977
0.5977
0.5977
0.5977
0.503545
0.671484
0.681387
0.5977
0.5977
0.517414
0.359124
0.462049
0.680367
0.570219
0.358507
0.35834
0.425622
0.597707
0.680337
0.70715
0.597718
0.510453
0.680537
0.5977
0.358543
0.5977
0.686727
0.5977
0.597712
0.680323
0.597724
0.694969
0.558575
0.680283
0.5977
0.678615
0.680414
0.680354
0.557828
0.5977
0.5977
0.647997
0.680619
0.557254
0.680444
0.698127
0.532493
0.680535
0.661575
0.679496
0.385593
0.551411
0.680315
0.680129
0.680334
0.679867
0.5977
0.5977
0.366744
0.574524
0.5977
0.514666
0.597703
0.597691
0.5977
0.392647
0.680195
0.435828
0.597714
0.597099
0.384727
0.718536
0.694225
0.602241
0.5977
0.554551
0.580909
0.5977
0.680066
0.680452
0.367951
0.404047
0.588445
0.5977
0.578757
0.570888
0.597611
0.596154
0.679758
0.446622
0.680304
0.678291
0.405132
0.361837
0.42932
0.5977
0.591872
0.5977
0.5977
0.595251
0.380206
0.680382
0.5977
0.581165
0.527069
0.680307
0.680126
0.680439
0.425039
0.680654
0.5977
0.671957
0.693313
0.678278
0.693477
0.59746
0.680435
0.482864
0.680402
0.690331
0.5977
0.358193
0.597254
0.671284
0.429879
0.651575
0.690161
0.597697
0.5977
0.5977
0.415755
0.680417
0.597701
0.481416
0.680184
0.597716
0.5977
0.700394
0.597715
0.5977
0.392299
0.5977
0.597339
0.680403
0.5977
0.597402
0.597721
0.597729
0.68056
0.415049
0.678815
0.593042
0.597699
0.557646
0.415323
0.543307
0.679978
0.5977
0.5977
0.411152
0.560581
0.680204
0.678173
0.39578
0.678796
0.460521
0.548394
0.680688
0.699675
0.5977
0.358246
0.680381
0.680246
0.680458
0.680278
0.597577
0.5977
0.597697
0.50326
0.358777
0.680385
0.358471
0.5977
0.597697
0.589158
0.59773
0.5977
0.585774
0.408798
0.680333
0.574176
0.597703
0.5977
0.68042
0.5977
0.680751
0.548123
0.40063
0.5977
0.597709
0.679559
0.5977
0.680017
0.5977
0.5977
0.5977
0.718449
0.5977
0.5977
0.595744
0.5977
0.680348
0.5977
0.5977
0.5977
0.550578
0.5977
0.5977
0.432469
0.680336
0.607872
0.597687
0.358554
0.358383
0.407556
0.5977
0.457525
0.589095
0.680635
0.457872
0.5977
0.358304
0.680857
0.5977
0.597726
0.55244
0.680037
0.5977
0.358301
0.406832
0.35825
0.58381
0.401295
0.358299
0.579997
0.597707
0.358056
0.5977
0.597723
0.679629
0.5977
0.570597
0.597699
0.513326
0.358353
0.516704
0.680177
0.597696
0.5977
0.5977
0.451003
0.5977
0.679757
0.597715
0.5977
0.5977
0.5977
0.399355
0.677935
0.597699
0.597703
0.680229
0.596108
0.443243
0.597601
0.5977
0.597715
0.5977
0.597728
0.5977
0.597701
0.361979
0.520371
0.487618
0.5977
0.521848
0.463683
0.503309
0.479542
0.690307
0.690608
0.5977
0.5977
0.5977
0.633376
0.597723
0.448725
0.5977
0.597103
0.680675
0.593238
0.597726
0.5977
0.680963
0.704623
0.5977
0.597697
0.436866
0.5977
0.694981
0.680216
0.5977
0.597703
0.597702
0.3581
0.5977
0.5977
0.5977
0.597704
0.590141
0.5977
0.597705
0.5977
0.685706
0.678924
0.709194
0.5977
0.5977
0.68032
0.358293
0.680689
0.597218
0.52623
0.35827
0.689126
0.681121
0.596768
0.680475
0.5977
0.358246
0.680347
0.680297
0.597703
0.597726
0.442618
0.679337
0.358312
0.35832
0.525257
0.358203
0.679764
0.473035
0.688485
0.597701
0.597585
0.678382
0.680315
0.678606
0.358279
0.358784
0.680491
0.694739
0.5977
0.690249
0.642878
0.597698
0.409959
0.597743
0.680574
0.5977
0.358401
0.5977
0.587527
0.702228
0.680432
0.597692
0.567816
0.679703
0.597712
0.680296
0.5977
0.547191
0.597725
0.5977
0.629544
0.561977
0.698132
0.707563
0.68073
0.449518
0.555789
0.508228
0.675533
0.5977
0.358247
0.59771
0.57302
0.677308
0.581412
0.390257
0.597696
0.680277
0.592283
0.386062
0.571301
0.357961
0.680308
0.573604
0.680467
0.504316
0.5977
0.685277
0.5977
0.55206
0.541796
0.597698
0.597739
0.714351
0.437161
0.466638
0.680451
0.464782
0.680148
0.598375
0.680008
0.358571
0.680823
0.597703
0.597624
0.680485
0.703181
0.680531
0.534096
0.680294
0.597717
0.67952
0.369666
0.697345
0.5977
0.412545
0.680476
0.588527
0.422745
0.5977
0.573627
0.502084
0.680524
0.68033
0.587699
0.517757
0.379863
0.535022
0.701753
0.5977
0.443713
0.3683
0.677162
0.680196
0.5977
0.597703
0.680585
0.367596
0.595643
0.597697
0.679226
0.597696
0.5977
0.597698
0.680386
0.5977
0.5977
0.597727
0.597718
0.680243
0.5977
0.5977
0.597703
0.505721
0.5977
0.58484
0.597721
0.5977
0.597704
0.597696
0.680428
0.5977
0.596692
0.680499
0.5977
0.555549
0.597599
0.58493
0.679258
0.493934
0.680291
0.597663
0.597736
0.680231
0.597702
0.679727
0.5977
0.597707
0.5977
0.596255
0.5977
0.573947
0.492133
0.558268
0.5977
0.680306
0.663417
0.358633
0.597423
0.596802
0.689264
0.679797
0.694457
0.358231
0.5977
0.667749
0.361282
0.577688
0.680564
0.680207
0.679739
0.541292
0.5977
0.5977
0.597703
0.616028
0.680304
0.647928
0.358327
0.666851
0.680066
0.5977
0.680456
0.680693
0.597717
0.597385
0.359572
0.5977
0.666711
0.597697
0.5977
0.68013
0.678115
0.5977
0.5977
0.5977
0.5977
0.358475
0.358308
0.390309
0.357949
0.597676
0.5977
0.680221
0.597277
0.358919
0.679852
0.5977
0.477375
0.597642
0.597699
0.5977
0.680421
0.680198
0.5977
0.358426
0.358484
0.554523
0.571382
0.358483
0.443428
0.680326
0.597697
0.358241
0.5977
0.680523
0.642667
0.680504
0.680189
0.444779
0.48249
0.383785
0.5977
0.597696
0.563735
0.5977
0.5977
0.679335
0.680065
0.547733
0.358481
0.684053
0.358382
0.68066
0.597541
0.680621
0.588315
0.358229
0.678847
0.680257
0.5977
0.476787
0.680456
0.680465
0.5977
0.679264
0.695396
0.556883
0.597703
0.358088
0.680176
0.68027
0.5977
0.597703
0.558198
0.669726
0.559258
0.680328
0.463663
0.496682
0.358423
0.680669
0.5977
0.358452
0.594263
0.675112
0.56387
0.5977
0.597707
0.5977
0.5977
0.55363
0.690016
0.5977
0.358481
0.5977
0.680389
0.525186
0.689338
0.471395
0.539279
0.5977
0.5977
0.597699
0.680059
0.397142
0.597703
0.51547
0.55345
0.680165
0.358408
0.5977
0.581703
0.5977
0.5977
0.559274
0.701269
0.501779
0.472579
0.5977
0.5977
0.679787
0.5977
0.5977
0.680196
0.5977
0.5977
0.5977
0.649957
0.597363
0.680517
0.597634
0.358287
0.5977
0.648619
0.597678
0.597696
0.680197
0.5977
0.5977
0.584912
0.5977
0.5977
0.556113
0.677272
0.5977
0.5977
0.680345
0.5977
0.565868
0.5977
0.597699
0.68063
0.680312
0.595197
0.701462
0.680549
0.507869
0.545823
0.42638
0.558164
0.369345
0.5977
0.597681
0.5977
0.585994
0.680362
0.5028
0.5977
0.680232
0.680497
0.5977
0.680293
0.5977
0.5977
0.5977
0.679674
0.497849
0.680311
0.680192
0.5977
0.595402
0.5977
0.593852
0.505692
0.530221
0.678251
0.358395
0.587323
0.383842
0.696069
0.447053
0.597698
0.534602
0.597702
0.694034
0.5977
0.588274
0.5977
0.6803
0.360438
0.5977
0.690268
0.561104
0.5977
0.680302
0.687093
0.680695
0.597758
0.5977
0.679005
0.68061
0.5977
0.358233
0.5977
0.680231
0.555752
0.62823
0.55791
0.5977
0.666339
0.5977
0.680295
0.35818
0.506931
0.555566
0.678166
0.680302
0.467261
0.680394
0.5977
0.5977
0.493292
0.597721
0.678695
0.690491
0.5977
0.597697
0.680053
0.634418
0.394745
0.5977
0.5977
0.396676
0.56912
0.485846
0.588377
0.577067
0.358366
0.680461
0.5977
0.596276
0.5977
0.406111
0.405773
0.690821
0.499394
0.458266
0.680319
0.563838
0.597716
0.5977
0.704152
0.680783
0.358655
0.597697
0.373917
0.605052
0.546825
0.680766
0.461476
0.589762
0.704733
0.680681
0.5961
0.603705
0.595823
0.680419
0.679058
0.680126
0.467307
0.368146
0.595862
0.68047
0.597699
0.588218
0.5977
0.680452
0.5977
0.597726
0.680312
0.690154
0.679292
0.391438
0.659953
0.587792
0.68015
0.597698
0.5977
0.68046
0.5554
0.6786
0.358137
0.5977
0.597678
0.450008
0.5977
0.558027
0.70065
0.413043
0.680598
0.357788
0.584924
0.591228
0.358339
0.5977
0.508997
0.5977
0.680479
0.597697
0.594688
0.597698
0.5977
0.5977
0.5977
0.35858
0.438584
0.391151
0.531161
0.587222
0.5977
0.671704
0.597723
0.680266
0.597637
0.481704
0.689554
0.5977
0.680382
0.376992
0.665505
0.597704
0.59296
0.680131
0.521245
0.680082
0.600217
0.665954
0.5977
0.680232
0.573544
0.592468
0.680147
0.5977
0.358232
0.68019
0.55804
0.5977
0.5977
0.679276
0.67932
0.575439
0.590205
0.5977
0.391746
0.5977
0.679339
0.586845
0.680751
0.5977
0.585984
0.677565
0.525247
0.597699
0.690472
0.677147
0.679098
0.385698
0.57852
0.668335
0.582251
0.679592
0.5977
0.597697
0.595127
0.680637
0.57726
0.680493
0.680069
0.5977
0.580176
0.502066
0.5977
0.5977
0.5977
0.5977
0.68054
0.5977
0.679767
0.558214
0.591651
0.417229
0.592809
0.679361
0.680217
0.5977
0.597697
0.495754
0.5977
0.498803
0.680561
0.5977
0.597698
0.679862
0.359754
0.706322
0.556411
0.653451
0.549443
0.680376
0.679898
0.564133
0.705633
0.5977
0.571101
0.680499
0.680087
0.5977
0.508197
0.597696
0.5977
0.597704
0.5977
0.597715
0.5977
0.590371
0.680351
0.587062
0.5977
0.67702
0.597714
0.680363
0.680232
0.59348
0.680171
0.679864
0.546027
0.5977
0.395742
0.5977
0.404985
0.54006
0.597704
0.358098
0.35796
0.495936
0.68063
0.616461
0.5977
0.680232
0.597701
0.5977
0.357816
0.632945
0.597697
0.680234
0.680008
0.5977
0.680353
0.5977
0.679936
0.680412
0.591347
0.5977
0.5977
0.5977
0.591519
0.597698
0.5977
0.677835
0.360756
0.5977
0.597701
0.679982
0.465411
0.586529
0.5977
0.680458
0.360281
0.680559
0.5977
0.558238
0.695057
0.67046
0.357945
0.690005
0.358477
0.566615
0.680803
0.5977
0.69441
0.679544
0.553212
0.411719
0.377835
0.592796
0.680438
0.597699
0.702333
0.457361
0.412194
0.473638
0.680203
0.597696
0.6867
0.680294
0.5977
0.680446
0.680181
0.5977
0.5977
0.597715
0.57113
0.359339
0.667888
0.66427
0.474127
0.5977
0.592235
0.5977
0.595807
0.5977
0.5977
0.592019
0.5977
0.5977
0.358549
0.680388
0.597416
0.358049
0.680602
0.452508
0.680337
0.594057
0.628911
0.503659
0.597704
0.5977
0.595719
0.597715
0.680384
0.597422
0.680335
0.680517
0.719429
0.5977
0.5977
0.680538
0.5977
0.680461
0.597726
0.680587
0.532287
0.49825
0.680001
0.680409
0.680364
0.588693
0.680346
0.5977
0.664799
0.445157
0.458092
0.358257
0.679816
0.389454
0.464308
0.548007
0.5977
0.45949
0.594705
0.597714
0.680828
0.35821
0.68044
0.680084
0.680386
0.419472
0.680324
0.5977
0.680276
0.59772
0.5977
0.407567
0.360547
0.680439
0.360332
0.5977
0.597296
0.55795
0.358394
0.597342
0.417309
0.5977
0.557781
0.589726
0.681021
0.680707
0.5977
0.357885
0.520941
0.597639
0.5977
0.358559
0.558193
0.5977
0.680051
0.680279
0.366102
0.5977
0.538115
0.5977
0.5977
0.687482
0.5977
0.5977
0.5977
0.5977
0.679954
0.381685
0.5977
0.46795
0.5977
0.5977
0.676563
0.358384
0.597696
0.597702
0.68028
0.680437
0.35935
0.680439
0.5977
0.5977
0.5977
0.594618
0.35882
0.594409
0.68041
0.680166
0.5977
0.607062
0.597716
0.699646
0.5977
0.680193
0.680298
0.700818
0.689806
0.680267
0.5977
0.593311
0.597761
0.680472
0.680785
0.680352
0.680458
0.680381
0.5977
0.35832
0.556491
0.5977
0.358298
0.597697
0.680315
0.487735
0.5977
0.679882
0.595931
0.680034
0.597767
0.680367
0.594073
0.48988
0.680202
0.67664
0.680165
0.430733
0.679195
0.680074
0.5977
0.68027
0.548523
0.680214
0.669307
0.597705
0.5977
0.5977
0.366462
0.688451
0.460661
0.358286
0.5977
0.597699
0.688513
0.597701
0.680688
0.538908
0.680167
0.5977
0.49507
0.677084
0.597698
0.35831
0.680122
0.567208
0.5977
0.5977
0.597702
0.680306
0.597698
0.5977
0.5977
0.680447
0.5977
0.586692
0.5977
0.693659
0.589281
0.5977
0.541233
0.373561
0.597698
0.680799
0.592974
0.5977
0.680629
0.5977
0.680548
0.5977
0.5977
0.5977
0.378027
0.680367
0.595416
0.5977
0.595417
0.675445
0.713494
0.68026
0.357966
0.477176
0.678873
0.5977
0.5977
0.680251
0.680003
0.680535
0.597705
0.595455
0.5977
0.5977
0.688517
0.48188
0.573905
0.47172
0.597722
0.586703
0.5977
0.5977
0.679583
0.5977
0.578187
0.68025
0.688963
0.438191
0.597723
0.626543
0.680223
0.597743
0.544265
0.527404
0.558237
0.7146
0.5977
0.41605
0.358523
0.555371
0.597706
0.35825
0.695797
0.679994
0.597707
0.38478
0.593731
0.5977
0.5977
0.597681
0.360516
0.67508
0.560923
0.358272
0.680595
0.358153
0.5977
0.59757
0.680317
0.387885
0.680277
0.684033
0.411592
0.5977
0.586464
0.689591
0.565891
0.5977
0.549145
0.5977
0.405011
0.5977
0.359321
0.680429
0.680528
0.5977
0.596057
0.597724
0.651434
0.680384
0.678891
0.5977
0.5977
0.359393
0.5977
0.469764
0.597702
0.592043
0.680558
0.5977
0.5977
0.687068
0.5977
0.596093
0.497044
0.482841
0.480267
0.5977
0.5977
0.680032
0.377113
0.564114
0.680189
0.597721
0.572045
0.5977
0.597714
0.358225
0.55373
0.693718
0.5977
0.5977
0.524047
0.599962
0.680422
0.558103
0.59668
0.679828
0.68022
0.5977
0.5977
0.597718
0.597725
0.413335
0.702482
0.5977
0.5977
0.5977
0.523465
0.5977
0.361841
0.680553
0.680363
0.358336
0.579334
0.5977
0.5977
0.678571
0.588689
0.597651
0.680408
0.689424
0.434425
0.557177
0.474491
0.365971
0.5977
0.680158
0.5977
0.359155
0.358285
0.5977
0.566702
0.680686
0.597701
0.358357
0.597612
0.680148
0.561657
0.5977
0.597704
0.630234
0.680094
0.5977
0.358209
0.399151
0.5977
0.358348
0.5977
0.5977
0.680249
0.68036
0.589013
0.35851
0.558059
0.360966
0.679799
0.597702
0.358131
0.511283
0.442736
0.680351
0.446722
0.558177
0.597702
0.5977
0.55201
0.5977
0.679223
0.680624
0.388798
0.67994
0.5977
0.580222
0.681039
0.69227
0.381818
0.358174
0.678673
0.365956
0.366232
0.674371
0.597554
0.680418
0.5977
0.5977
0.5977
0.677816
0.680459
0.680562
0.3812
0.597721
0.5977
0.679205
0.597705
0.689587
0.597729
0.680248
0.680185
0.5977
0.5977
0.5977
0.5977
0.680426
0.678697
0.584741
0.687582
0.680212
0.556121
0.696229
0.558228
0.70344
0.676895
0.702274
0.556521
0.680474
0.575801
0.715448
0.586077
0.680691
0.680325
0.597701
0.590575
0.5977
0.501397
0.416112
0.596962
0.383019
0.592784
0.378027
0.381807
0.5977
0.544779
0.5977
0.40834
0.677252
0.680483
0.358055
0.597721
0.597697
0.680287
0.517762
0.680186
0.675553
0.425899
0.675147
0.5977
0.5977
0.597721
0.558811
0.5977
0.358211
0.680192
0.5977
0.592854
0.680718
0.679919
0.597701
0.35828
0.5977
0.551076
0.592619
0.680322
0.680237
0.358244
0.678082
0.68035
0.609559
0.597698
0.680364
0.358029
0.358099
0.68018
0.5977
0.599878
0.5977
0.358224
0.597706
0.634347
0.58539
0.57606
0.498191
0.5977
0.678549
0.679379
0.48371
0.5977
0.680224
0.5977
0.5977
0.597698
0.5977
0.358251
0.358451
0.68038
0.358176
0.358365
0.67767
0.69019
0.443186
0.5977
0.43849
0.589266
0.59772
0.676341
0.680172
0.5977
0.680264
0.52693
0.358701
0.576045
0.680275
0.679167
0.5977
0.5977
0.597719
0.594543
0.680304
0.377495
0.680265
0.597725
0.680657
0.5977
0.408977
0.536512
0.358271
0.358486
0.555974
0.5977
0.591333
0.384872
0.68074
0.5977
0.596478
0.499452
0.689874
0.35852
0.680707
0.597718
0.5977
0.5977
0.680195
0.678722
0.485131
0.594096
0.680201
0.692844
0.358179
0.5977
0.5977
0.597697
0.680552
0.5977
0.696152
0.64517
0.688857
0.680367
0.693537
0.680429
0.680031
0.358548
0.597702
0.358253
0.5977
0.680299
0.571082
0.679962
0.597702
0.557215
0.595693
0.358156
0.576539
0.678248
0.5977
0.690262
0.359943
0.655933
0.5977
0.597726
0.385891
0.709852
0.680435
0.597726
0.513821
0.597703
0.690346
0.358347
0.5977
0.68455
0.5977
0.431587
0.35808
0.562878
0.5977
0.551543
0.679903
0.5977
0.680419
0.5977
0.680492
0.359497
0.679515
0.5977
0.679606
0.5977
0.596683
0.385026
0.531623
0.5977
0.678908
0.597719
0.5977
0.597698
0.5977
0.680253
0.51066
0.5977
0.679736
0.5977
0.392579
0.400568
0.597716
0.680146
0.619775
0.5977
0.5977
0.680265
0.358342
0.5977
0.627346
0.677378
0.397626
0.5977
0.563242
0.597683
0.544345
0.680801
0.68035
0.517453
0.680778
0.5977
0.557739
0.5977
0.558177
0.679341
0.5977
0.680294
0.679766
0.680697
0.680623
0.597702
0.618836
0.459221
0.679777
0.525748
0.358323
0.542996
0.549605
0.35841
0.390811
0.690493
0.597725
0.470705
0.5977
0.680307
0.603888
0.5977
0.5977
0.5977
0.680155
0.583367
0.5977
0.680513
0.594046
0.527719
0.358873
0.5977
0.5977
0.358224
0.5977
0.55077
0.677671
0.597699
0.429784
0.597698
0.5977
0.597715
0.680337
0.512619
0.5977
0.597727
0.70228
0.597706
0.5977
0.634406
0.597695
0.5977
0.358149
0.701896
0.690883
0.533004
0.585208
0.680237
0.358475
0.5977
0.384175
0.5977
0.529301
0.680415
0.559227
0.689939
0.358405
0.680407
0.679679
0.678943
0.583089
0.45666
0.5583
0.5977
0.712856
0.5977
0.611158
0.5977
0.558702
0.597195
0.597699
0.678809
0.5977
0.5977
0.594128
0.597704
0.681107
0.544995
0.680321
0.700139
0.595877
0.5977
0.51737
0.5977
0.358029
0.587287
0.556218
0.680346
0.677785
0.703421
0.690603
0.595553
0.689892
0.358164
0.386737
0.679744
0.609034
0.5977
0.679747
0.594461
0.358063
0.5977
0.703219
0.694564
0.585446
0.597699
0.5977
0.383634
0.680369
0.680492
0.679915
0.702297
0.591312
0.5977
0.5977
0.526668
0.679413
0.689558
0.5977
0.677469
0.588883
0.5977
0.5977
0.5977
0.703075
0.400915
0.596928
0.679956
0.679686
0.546362
0.597727
0.545911
0.547471
0.469224
0.569147
0.597512
0.35823
0.68044
0.522949
0.432226
0.597703
0.5977
0.556859
0.597703
0.358449
0.680179
0.5977
0.5977
0.586857
0.597713
0.5977
0.680587
0.5977
0.620891
0.51305
0.679816
0.680286
0.442564
0.358027
0.5977
0.597701
0.5977
0.688
0.680496
0.67891
0.637029
0.5977
0.68034
0.680409
0.706934
0.358269
0.680457
0.5977
0.5977
0.597696
0.441263
0.538344
0.472092
0.5977
0.5977
0.595763
0.358141
0.59772
0.687434
0.562505
0.640828
0.679655
0.680052
0.5977
0.680126
0.590404
0.543813
0.534088
0.5977
0.550712
0.680178
0.534412
0.680337
0.680683
0.680662
0.597725
0.5977
0.5977
0.679955
0.495671
0.360491
0.680016
0.640353
0.5977
0.680332
0.710621
0.5977
0.358198
0.5977
0.666078
0.5977
0.680636
0.591768
0.5977
0.597712
0.597719
0.694167
0.597699
0.5977
0.358114
0.597702
0.680155
0.5977
0.55182
0.596934
0.5977
0.676909
0.606677
0.358244
0.359479
0.679992
0.5977
0.5977
0.680225
0.709922
0.567659
0.680148
0.680336
0.590628
0.358357
0.5977
0.358138
0.680365
0.680513
0.5977
0.597704
0.680406
0.596439
0.597702
0.590228
0.358337
0.5977
0.58624
0.680656
0.500862
0.5977
0.646161
0.680144
0.358336
0.558187
0.668919
0.363575
0.597701
0.556939
0.693228
0.35831
0.399278
0.513774
0.5977
0.680528
0.596408
0.596711
0.720839
0.688577
0.5977
0.5977
0.358413
0.5977
0.358392
0.590295
0.359954
0.5977
0.679889
0.597722
0.5977
0.393815
0.68045
0.456226
0.361198
0.58201
0.595412
0.5977
0.5977
0.511707
0.674217
0.680125
0.707681
0.5977
0.584851
0.5977
0.57707
0.358318
0.680255
0.680131
0.597704
0.358426
0.597706
0.5977
0.65419
0.5977
0.594951
0.5977
0.597702
0.597728
0.685974
0.689395
0.5977
0.691468
0.575398
0.597701
0.358126
0.561079
0.551074
0.357936
0.688322
0.680839
0.690268
0.592364
0.672682
0.597703
0.5977
0.58757
0.524724
0.364297
0.53867
0.358026
0.678531
0.679978
0.36252
0.502751
0.68037
0.592404
0.5977
0.597703
0.5977
0.5977
0.5977
0.59769
0.5977
0.68032
0.680515
0.676614
0.68995
0.5977
0.591641
0.680288
0.573799
0.491737
0.597703
0.597712
0.578719
0.596621
0.35813
0.5977
0.596452
0.5977
0.5977
0.544874
0.597725
0.5977
0.597702
0.369794
0.5977
0.358323
0.5977
0.5977
0.680538
0.702303
0.680336
0.56418
0.540896
0.557012
0.680192
0.5977
0.679068
0.485731
0.446794