# vtk DataFile Version 1.0
unstructured grid
ascii
DATASET UNSTRUCTURED_GRID
points 13672 float
0.0796578 -0.059106 0
0.00128732 0.00159165 0
0.00227961 -0.00102548 0
0.0791586 -0.0598787 0
-0.0546216 0.01 0
0.000495206 0.025 0
0.0800549 -0.035 0
0.135172 -0.08 0
-0.0546216 -0.0451168 0
0.000495206 -0.0301168 0
0.0800549 -0.0901168 0
0.135172 -0.135117 0
-0.0546216 -0.0451168 -0.00551168
0.000495206 -0.0301168 -0.00551168
0.0800549 -0.0901168 -0.00551168
0.135172 -0.135117 -0.00551168
0.135172 -0.08 -0.00551168
0.0800549 -0.035 -0.00551168
0.000495206 0.025 -0.00551168
-0.0546216 0.01 -0.00551168
0.00128732 0.00159165 -0.00551168
0.00227961 -0.00102548 -0.00551168
0.0791586 -0.0598787 -0.00551168
0.0796578 -0.059106 -0.00551168
0.00165953 -0.000990923 0
0.00119576 -0.000874076 0
0.000866021 -0.000641801 0
0.000645147 -0.000349912 0
0.00052235 -1.7281e-05 0
0.00049972 0.000348016 0
0.000601632 0.000737716 0
0.000861774 0.0011403 0
0.00157235 0.00183217 0
0.00188647 0.00206725 0
0.00222612 0.00230203 0
0.00258713 0.00254351 0
0.00296826 0.00279524 0
0.00337118 0.00305664 0
0.00379785 0.00332658 0
0.00425045 0.00360349 0
0.00473139 0.00388521 0
0.0052432 0.00416895 0
0.0057881 0.00445204 0
0.00636753 0.00473281 0
0.00698281 0.00500961 0
0.00763526 0.00528058 0
0.00832616 0.00554366 0
0.00905691 0.00579603 0
0.00982918 0.00603333 0
0.0106445 0.00625033 0
0.0115038 0.00644128 0
0.0124073 0.00660297 0
0.0133543 0.00673414 0
0.0143444 0.00683382 0
0.0153769 0.00690031 0
0.0164512 0.00693173 0
0.0175666 0.00692547 0
0.0187219 0.00687822 0
0.0199156 0.00678477 0
0.0211454 0.00663864 0
0.0224084 0.00643275 0
0.0237018 0.00616676 0
0.0250249 0.00584739 0
0.026375 0.00547298 0
0.0277479 0.00503752 0
0.0291386 0.00453545 0
0.0305433 0.0039653 0
0.0319572 0.0033256 0
0.0333681 0.00260019 0
0.034775 0.00179799 0
0.0361793 0.000930615 0
0.0375798 3.12222e-06 0
0.0389689 -0.000988429 0
0.0403357 -0.00205109 0
0.041675 -0.00318283 0
0.0429849 -0.00437751 0
0.0442643 -0.00562904 0
0.0455126 -0.00693089 0
0.0467314 -0.00827518 0
0.0479204 -0.00965638 0
0.0490661 -0.0110799 0
0.0501515 -0.0125519 0
0.0511696 -0.0140695 0
0.0521492 -0.0156071 0
0.0531202 -0.0171411 0
0.0540851 -0.0186663 0
0.0550431 -0.0201798 0
0.0559923 -0.0216793 0
0.0569311 -0.0231626 0
0.0578582 -0.0246273 0
0.0587723 -0.0260715 0
0.0596721 -0.027493 0
0.0605563 -0.02889 0
0.0614241 -0.0302609 0
0.0622742 -0.0316042 0
0.063106 -0.0329183 0
0.0639186 -0.034202 0
0.0647113 -0.0354543 0
0.0654835 -0.0366743 0
0.0662345 -0.0378613 0
0.0669642 -0.0390145 0
0.0676726 -0.0401333 0
0.0683597 -0.0412172 0
0.0690246 -0.0422665 0
0.0696662 -0.0432819 0
0.0702841 -0.0442636 0
0.0708793 -0.0452111 0
0.0714538 -0.0461237 0
0.072009 -0.047001 0
0.0725452 -0.0478434 0
0.0730611 -0.0486524 0
0.073556 -0.0494294 0
0.0740291 -0.0501756 0
0.0744812 -0.0508916 0
0.0749138 -0.0515773 0
0.0753285 -0.0522331 0
0.0757266 -0.0528592 0
0.076109 -0.0534564 0
0.0764753 -0.0540264 0
0.0768243 -0.054571 0
0.0771553 -0.0550919 0
0.0774679 -0.0555901 0
0.0777617 -0.0560669 0
0.0780369 -0.056523 0
0.0782958 -0.0569578 0
0.0785421 -0.0573703 0
0.0787786 -0.0577603 0
0.0790073 -0.0581279 0
0.0792295 -0.058474 0
0.0794462 -0.0587995 0
0.0798803 -0.0594162 0
0.0800272 -0.0596588 0
0.0800357 -0.0598891 0
0.0799275 -0.0600784 0
0.0797205 -0.0601773 0
0.0794593 -0.0601051 0
0.0789155 -0.0596491 0
0.0786707 -0.0593963 0
0.0784111 -0.0591319 0
0.0781372 -0.0588542 0
0.0778566 -0.0585548 0
0.0775715 -0.0582308 0
0.0772803 -0.0578828 0
0.0769832 -0.0575099 0
0.0766822 -0.0571097 0
0.0763801 -0.0566796 0
0.0760759 -0.0562196 0
0.0757623 -0.0557337 0
0.0754359 -0.0552232 0
0.0750951 -0.0546879 0
0.0747379 -0.054128 0
0.0743626 -0.0535435 0
0.0739688 -0.0529338 0
0.0735559 -0.0522981 0
0.0731238 -0.0516357 0
0.0726718 -0.050946 0
0.0721991 -0.0502288 0
0.0717046 -0.049484 0
0.0711872 -0.0487117 0
0.0706461 -0.047912 0
0.0700804 -0.0470849 0
0.0694892 -0.0462308 0
0.0688718 -0.0453499 0
0.0682271 -0.0444431 0
0.0675544 -0.043511 0
0.0668527 -0.0425546 0
0.0661215 -0.0415748 0
0.06536 -0.040573 0
0.0645676 -0.0395504 0
0.0637439 -0.0385087 0
0.0628887 -0.0374493 0
0.062002 -0.0363741 0
0.0610838 -0.0352847 0
0.0601345 -0.0341831 0
0.0591547 -0.033071 0
0.0581456 -0.0319502 0
0.0571083 -0.0308224 0
0.0560444 -0.0296893 0
0.0549562 -0.028552 0
0.053845 -0.0274126 0
0.0527113 -0.0262746 0
0.051554 -0.0251427 0
0.0503724 -0.0240222 0
0.0491675 -0.0229164 0
0.047941 -0.0218282 0
0.0466955 -0.0207597 0
0.0454337 -0.0197126 0
0.0441592 -0.0186878 0
0.0428751 -0.0176863 0
0.0415841 -0.0167097 0
0.0402878 -0.0157609 0
0.0389879 -0.0148428 0
0.0376864 -0.0139575 0
0.0363853 -0.013107 0
0.0350871 -0.0122931 0
0.0337942 -0.0115164 0
0.0325095 -0.0107772 0
0.0312357 -0.0100756 0
0.0299758 -0.00941024 0
0.0287337 -0.00877784 0
0.0275126 -0.00817571 0
0.0263139 -0.00760375 0
0.0251376 -0.00706528 0
0.0239829 -0.0065649 0
0.0228537 -0.00609619 0
0.0217522 -0.00565563 0
0.0206795 -0.00524226 0
0.0196364 -0.00485507 0
0.0186233 -0.00449318 0
0.0176408 -0.00415577 0
0.016689 -0.00384204 0
0.0157682 -0.00355115 0
0.0148783 -0.00328218 0
0.0140192 -0.00303468 0
0.0131906 -0.00280795 0
0.0123925 -0.00260016 0
0.0116246 -0.00241012 0
0.0108864 -0.00223769 0
0.0101774 -0.00208212 0
0.00949701 -0.00194206 0
0.00884483 -0.0018163 0
0.0082202 -0.0017039 0
0.00762247 -0.00160391 0
0.00705097 -0.00151528 0
0.006505 -0.00143697 0
0.0059838 -0.00136806 0
0.00548662 -0.00130772 0
0.00501265 -0.00125519 0
0.00456114 -0.00120954 0
0.00413136 -0.00116914 0
0.00372257 -0.00113251 0
0.00333398 -0.00109853 0
0.00296466 -0.00106798 0
0.00261363 -0.0010431 0
-0.052721 -0.0445996 0
-0.0508204 -0.0440823 0
-0.0489199 -0.0435651 0
-0.0470193 -0.0430478 0
-0.0451187 -0.0425306 0
-0.0432181 -0.0420134 0
-0.0413175 -0.0414961 0
-0.039417 -0.0409789 0
-0.0375164 -0.0404616 0
-0.0356158 -0.0399444 0
-0.0337152 -0.0394271 0
-0.0318146 -0.0389099 0
-0.0299141 -0.0383927 0
-0.0280135 -0.0378754 0
-0.0261129 -0.0373582 0
-0.0242123 -0.0368409 0
-0.0223117 -0.0363237 0
-0.0204112 -0.0358065 0
-0.0185106 -0.0352892 0
-0.01661 -0.034772 0
-0.0147094 -0.0342547 0
-0.0128088 -0.0337375 0
-0.0109083 -0.0332202 0
-0.00900769 -0.032703 0
-0.00710711 -0.0321858 0
-0.00520653 -0.0316685 0
-0.00330595 -0.0311513 0
-0.00140537 -0.030634 0
0.00190689 -0.0299614 0
0.00332271 -0.0298498 0
0.00474133 -0.0297825 0
0.00616136 -0.0297597 0
0.0075814 -0.0297814 0
0.00900007 -0.0298477 0
0.010416 -0.0299583 0
0.0118278 -0.0301127 0
0.0132342 -0.0303103 0
0.0146339 -0.0305504 0
0.0160259 -0.0308322 0
0.0174091 -0.0311546 0
0.0187824 -0.0315166 0
0.020145 -0.031917 0
0.0214961 -0.0323546 0
0.0228351 -0.032828 0
0.0241613 -0.0333361 0
0.0254744 -0.0338774 0
0.0267738 -0.0344507 0
0.0280592 -0.0350545 0
0.0293306 -0.0356877 0
0.0305875 -0.0363488 0
0.0318301 -0.0370367 0
0.0330581 -0.0377501 0
0.0342717 -0.0384879 0
0.0354708 -0.0392489 0
0.0366556 -0.0400321 0
0.0378262 -0.0408363 0
0.0389828 -0.0416607 0
0.0401254 -0.0425042 0
0.0412543 -0.0433659 0
0.0423698 -0.0442451 0
0.043472 -0.0451408 0
0.0445612 -0.0460523 0
0.0456375 -0.0469789 0
0.0467013 -0.0479199 0
0.0477529 -0.0488746 0
0.0487923 -0.0498424 0
0.04982 -0.0508227 0
0.0508362 -0.051815 0
0.051841 -0.0528187 0
0.0528348 -0.0538333 0
0.0538178 -0.0548584 0
0.0547903 -0.0558935 0
0.0557524 -0.0569382 0
0.0567045 -0.0579922 0
0.0576467 -0.0590549 0
0.0585792 -0.0601261 0
0.0595024 -0.0612055 0
0.0604163 -0.0622926 0
0.0613212 -0.0633873 0
0.0622174 -0.0644891 0
0.0631049 -0.0655979 0
0.0639841 -0.0667134 0
0.064855 -0.0678353 0
0.0657179 -0.0689633 0
0.0665729 -0.0700974 0
0.0674202 -0.0712372 0
0.06826 -0.0723826 0
0.0690925 -0.0735333 0
0.0699178 -0.0746892 0
0.070736 -0.0758501 0
0.0715473 -0.0770159 0
0.0723518 -0.0781863 0
0.0731498 -0.0793612 0
0.0739412 -0.0805405 0
0.0747264 -0.081724 0
0.0755053 -0.0829116 0
0.0762781 -0.0841033 0
0.0770449 -0.0852987 0
0.0778059 -0.0864979 0
0.0785611 -0.0877007 0
0.0793108 -0.088907 0
0.0814681 -0.0912706 0
0.0828814 -0.0924245 0
0.0842946 -0.0935783 0
0.0857079 -0.0947322 0
0.0871211 -0.095886 0
0.0885344 -0.0970399 0
0.0899476 -0.0981937 0
0.0913609 -0.0993476 0
0.0927741 -0.100501 0
0.0941874 -0.101655 0
0.0956006 -0.102809 0
0.0970139 -0.103963 0
0.0984272 -0.105117 0
0.0998404 -0.106271 0
0.101254 -0.107424 0
0.102667 -0.108578 0
0.10408 -0.109732 0
0.105493 -0.110886 0
0.106907 -0.11204 0
0.10832 -0.113194 0
0.109733 -0.114348 0
0.111146 -0.115501 0
0.11256 -0.116655 0
0.113973 -0.117809 0
0.115386 -0.118963 0
0.116799 -0.120117 0
0.118213 -0.121271 0
0.119626 -0.122424 0
0.121039 -0.123578 0
0.122452 -0.124732 0
0.123866 -0.125886 0
0.125279 -0.12704 0
0.126692 -0.128194 0
0.128105 -0.129348 0
0.129519 -0.130501 0
0.130932 -0.131655 0
0.132345 -0.132809 0
0.133758 -0.133963 0
0.135172 -0.133216 0
0.135172 -0.131316 0
0.135172 -0.129415 0
0.135172 -0.127514 0
0.135172 -0.125614 0
0.135172 -0.123713 0
0.135172 -0.121813 0
0.135172 -0.119912 0
0.135172 -0.118012 0
0.135172 -0.116111 0
0.135172 -0.11421 0
0.135172 -0.11231 0
0.135172 -0.110409 0
0.135172 -0.108509 0
0.135172 -0.106608 0
0.135172 -0.104708 0
0.135172 -0.102807 0
0.135172 -0.100906 0
0.135172 -0.0990058 0
0.135172 -0.0971052 0
0.135172 -0.0952046 0
0.135172 -0.0933041 0
0.135172 -0.0914035 0
0.135172 -0.0895029 0
0.135172 -0.0876023 0
0.135172 -0.0857017 0
0.135172 -0.0838012 0
0.135172 -0.0819006 0
0.133758 -0.0788462 0
0.132345 -0.0776923 0
0.130932 -0.0765385 0
0.129519 -0.0753846 0
0.128105 -0.0742308 0
0.126692 -0.0730769 0
0.125279 -0.0719231 0
0.123866 -0.0707692 0
0.122452 -0.0696154 0
0.121039 -0.0684615 0
0.119626 -0.0673077 0
0.118213 -0.0661538 0
0.116799 -0.065 0
0.115386 -0.0638462 0
0.113973 -0.0626923 0
0.11256 -0.0615385 0
0.111146 -0.0603846 0
0.109733 -0.0592308 0
0.10832 -0.0580769 0
0.106907 -0.0569231 0
0.105493 -0.0557692 0
0.10408 -0.0546154 0
0.102667 -0.0534615 0
0.101254 -0.0523077 0
0.0998404 -0.0511538 0
0.0984272 -0.05 0
0.0970139 -0.0488462 0
0.0956006 -0.0476923 0
[...]
CELL_DATA 13116
SCALARS rho float
LOOKUP_TABLE default
0.5977
0.5977
0.597696
0.5977
0.5977
0.680409
0.462628
0.597701
0.5977
0.5977
0.414545
0.597699
0.5977
0.589214
0.597713
0.680478
0.5977
0.5977
0.679933
0.40071
0.5977
0.597698
0.597713
0.5977
0.5977
0.5977
0.5977
0.5977
0.5977
0.5977
0.680003
0.597696
0.5977
0.5977
0.475249
0.5977
0.5977
0.59563
0.680746
0.6248
0.680386
0.5977
0.5977
0.597726
0.675988
0.67957
0.5977
0.676162
0.597696
0.5977
0.597702
0.5977
0.520188
0.5977
0.5977
0.5977
0.597726
0.5977
0.5977
0.597721
0.592717
0.5977
0.5977
0.68069
0.68035
0.555253
0.680022
0.5977
0.68018
0.68029
0.597686
0.5977
0.5977
0.595382
0.68035
0.565181
0.5977
0.5977
0.425547
0.5977
0.5977
0.5977
0.5977
0.596467
0.597685
0.5977
0.488752
0.5977
0.597701
0.358424
0.5977
0.5977
0.5977
0.597701
0.5977
0.5977
0.5977
0.680258
0.680577
0.5977
0.5977
0.5977
0.680013
0.5977
0.5977
0.5977
0.5977
0.5977
0.5977
0.5977
0.5977
0.5977
0.5977
0.5977
0.5977
0.680204
0.529932
0.5977
0.597701
0.678617
0.5977
0.5977
0.679097
0.5977
0.5977
0.5977
0.500427
0.5977
0.597696
0.5977
0.597701
0.5977
0.5977
0.597696
0.5977
0.5977
0.55451
0.656282
0.5977
0.678364
0.5977
0.5977
0.5977
0.5977
0.5977
0.597724
0.469946
0.5977
0.5977
0.597176
0.5977
0.61443
0.678457
0.496191
0.5977
0.596777
0.597696
0.5977
0.680556
0.5977
0.5977
0.415912
0.5977
0.597696
0.5977
0.5977
0.5977
0.5977
0.470483
0.5977
0.5977
0.551315
0.597581
0.5977
0.680472
0.597713
0.597724
0.597699
0.5977
0.68052
0.37596
0.5977
0.5977
0.5977
0.680511
0.5977
0.495229
0.680593
0.5977
0.5977
0.5977
0.5977
0.679904
0.5977
0.5977
0.680415
0.5977
0.680151
0.597701
0.5977
0.5977
0.5977
0.5977
0.597618
0.5977
0.596159
0.5977
0.5977
0.597731
0.382252
0.55969
0.680166
0.597699
0.35919
0.358198
0.505697
0.5977
0.680055
0.5977
0.5977
0.597709
0.680291
0.5977
0.373277
0.5977
0.5977
0.5977
0.5977
0.680153
0.5977
0.5977
0.597697
0.680306
0.5977
0.680334
0.592987
0.679806
0.597697
0.5977
0.5977
0.678834
0.680423
0.555282
0.680632
0.597701
0.597714
0.592419
0.5977
0.680041
0.442743
0.597696
0.590543
0.597358
0.680249
0.597631
0.5977
0.5977
0.408094
0.5977
0.5977
0.597732
0.5977
0.5977
0.5977
0.454549
0.670622
0.521236
0.5977
0.5977
0.441105
0.5977
0.597701
0.666528
0.5977
0.597696
0.649042
0.5977
0.680022
0.660808
0.411295
0.47233
0.5977
0.5977
0.5977
0.5977
0.5977
0.5977
0.5977
0.537113
0.597675
0.5977
0.473622
0.394007
0.511498
0.5977
0.5977
0.5977
0.5977
0.5977
0.433574
0.679925
0.5977
0.5977
0.597722
0.68054
0.596248
0.680181
0.504666
0.680442
0.5977
0.5977
0.5977
0.593592
0.5977
0.5977
0.68004
0.585242
0.680347
0.5977
0.5977
0.360523
0.5977
0.5977
0.512111
0.5977
0.5977
0.5977
0.5977
0.5977
0.490573
0.65891
0.5977
0.583587
0.597696
0.5977
0.5977
0.5977
0.5977
0.5977
0.453982
0.5977
0.5977
0.680368
0.5977
0.5977
0.5977
0.5977
0.597289
0.489409
0.5977
0.5977
0.5977
0.553294
0.489824
0.597698
0.5977
0.5977
0.5977
0.483116
0.597697
0.591514
0.5977
0.45898
0.5977
0.556911
0.597696
0.680053
0.597701
0.5977
0.358238
0.621376
0.680169
0.680596
0.620539
0.5977
0.5977
0.5977
0.597429
0.37652
0.680409
0.372174
0.5977
0.5977
0.5977
0.5977
0.5977
0.5977
0.479772
0.596676
0.5977
0.5977
0.5977
0.679439
0.5977
0.59686
0.597696
0.466572
0.5977
0.5977
0.5977
0.5977
0.680078
0.5977
0.5977
0.5977
0.5977
0.5977
0.5977
0.5977
0.5977
0.680431
0.5977
0.5977
0.5977
0.597696
0.5977
0.5977
0.515885
0.680155
0.671231
0.5977
0.379388
0.358417
0.477582
0.5977
0.553068
0.5977
0.68063
0.553639
0.5977
0.358355
0.680401
0.5977
0.5977
0.597696
0.5977
0.5977
0.358028
0.476407
0.358277
0.5977
0.467704
0.373932
0.5977
0.5977
0.372858
0.5977
0.5977
0.597679
0.5977
0.5977
0.5977
0.597734
0.358235
0.597735
0.672624
0.5977
0.5977
0.5977
0.543711
0.5977
0.597701
0.5977
0.5977
0.5977
0.5977
0.464791
0.680664
0.5977
0.5977
0.679947
0.5977
0.532096
0.5977
0.5977
0.5977
0.5977
0.5977
0.5977
0.5977
0.394167
0.59773
0.590052
0.5977
0.597726
0.561368
0.59759
0.58159
0.5977
0.5977
0.5977
0.5977
0.5977
0.5977
0.5977
0.540032
0.5977
0.5977
0.597701
0.5977
0.5977
0.5977
0.671162
0.5977
0.5977
0.5977
0.522725
0.5977
0.597701
0.679816
0.5977
0.5977
0.5977
0.365165
0.5977
0.5977
0.5977
0.5977
0.5977
0.5977
0.5977
0.5977
0.5977
0.5977
0.5977
0.5977
0.5977
0.679795
0.358535
0.664336
0.5977
0.597726
0.358403
0.5977
0.592994
0.5977
0.597702
0.5977
0.359076
0.679853
0.594088
0.5977
0.5977
0.531103
0.5977
0.357905
0.358641
0.597731
0.361683
0.5977
0.573725
0.5977
0.5977
0.5977
0.597701
0.679727
0.5977
0.357963
0.377005
0.596874
0.5977
0.5977
0.5977
0.5977
0.5977
0.481493
0.5977
0.680448
0.5977
0.358475
0.5977
0.5977
0.597701
0.679604
0.5977
0.5977
0.597702
0.5977
0.594654
0.5977
0.597697
0.5977
0.5977
0.674507
0.597697
0.5977
0.5977
0.595596
0.541187
0.560513
0.597704
0.680377
0.5977
0.358238
0.5977
0.5977
0.680272
0.5977
0.450682
0.5977
0.679775
0.5977
0.443747
0.5977
0.357818
0.679933
0.5977
0.6804
0.597553
0.5977
0.5977
0.5977
0.597696
0.597703
0.5977
0.5977
0.5977
0.523266
0.56557
0.68023
0.563252
0.680554
0.5977
0.680493
0.358419
0.597702
0.5977
0.5977
0.680302
0.5977
0.680401
0.597718
0.679662
0.5977
0.5977
0.414835
0.597701
0.5977
0.485332
0.680458
0.5977
0.501184
0.5977
0.5977
0.597453
0.680541
0.672584
0.5977
0.597735
0.433335
0.597716
0.597701
0.5977
0.532787
0.410605
0.5977
0.665847
0.5977
0.5977
0.680072
0.410127
0.5977
0.5977
0.597703
0.5977
0.5977
0.5977
0.680449
0.5977
0.5977
0.5977
0.5977
0.680346
0.5977
0.5977
0.5977
0.597646
0.5977
0.5977
0.5977
0.5977
0.5977
0.5977
0.680276
0.5977
0.5977
0.658238
0.5977
0.597697
0.5977
0.5977
0.5977
0.595086
0.679954
0.5977
0.5977
0.680123
0.5977
0.5977
0.5977
0.5977
0.5977
0.5977
0.5977
0.5977
0.593594
0.558332
0.5977
0.67787
0.5977
0.359243
0.5977
0.5977
0.5977
0.5977
0.597701
0.378077
0.5977
0.5977
0.393664
0.5977
0.597702
0.605639
0.597702
0.597703
0.5977
0.5977
0.5977
0.5977
0.680265
0.5977
0.358641
0.5977
0.59768
0.5977
0.644522
0.680574
0.5977
0.5977
0.384791
0.5977
0.5977
0.5977
0.5977
0.680298
0.597648
0.5977
0.5977
0.5977
0.5977
0.358228
0.358289
0.450386
0.370062
0.5977
0.5977
0.680058
0.5977
0.383234
0.680427
0.5977
0.579021
0.5977
0.5977
0.5977
0.680098
0.598286
0.5977
0.375864
0.358441
0.574615
0.5977
0.359416
0.532721
0.680189
0.5977
0.358448
0.5977
0.597702
0.5977
0.680081
0.680591
0.534313
0.585273
0.439598
0.5977
0.5977
0.597698
0.5977
0.5977
0.5977
0.681297
0.597696
0.358572
0.5977
0.358578
0.680549
0.5977
0.680397
0.5977
0.358415
0.5977
0.680387
0.5977
0.578243
0.595949
0.680102
0.5977
0.596714
0.597701
0.613907
0.5977
0.373853
0.680606
0.680472
0.5977
0.5977
0.557481
0.5977
0.624985
0.670265
0.561441
0.596592
0.35862
0.680402
0.5977
0.358549
0.5977
0.5977
0.597698
0.5977
0.5977
0.5977
0.5977
0.597697
0.5977
0.5977
0.358372
0.5977
0.680237
0.597726
0.597701
0.571781
0.597706
0.5977
0.5977
0.5977
0.679859
0.461356
0.5977
0.59773
0.597696
0.680302
0.358527
0.5977
0.5977
0.5977
0.5977
0.609811
0.5977
0.597086
0.573424
0.5977
0.5977
0.5977
0.5977
0.5977
0.680728
0.5977
0.5977
0.5977
0.5977
0.5977
0.680049
0.5977
0.358365
0.5977
0.5977
0.5977
0.5977
0.680118
0.5977
0.5977
0.5977
0.5977
0.5977
0.568002
0.680298
0.5977
0.5977
0.680153
0.5977
0.597699
0.5977
0.5977
0.615108
0.608333
0.5977
0.5977
0.5977
0.597732
0.597697
0.506709
0.556439
0.413813
0.5977
0.5977
0.5977
0.5977
0.597643
0.597303
0.5977
0.680011
0.680825
0.5977
0.679839
0.5977
0.5977
0.5977
0.5977
0.596366
0.680644
0.679784
0.5977
0.666046
0.5977
0.5977
0.597598
0.59772
0.594198
0.35831
0.658458
0.439539
0.597701
0.537888
0.5977
0.597717
0.5977
0.597701
0.5977
0.5977
0.5977
0.680123
0.388965
0.5977
0.5977
0.597697
0.5977
0.680249
0.5977
0.680542
0.5977
0.5977
0.5977
0.679403
0.5977
0.358426
0.5977
0.591419
0.558654
0.676281
0.557523
0.5977
0.5977
0.5977
0.664119
0.358424
0.597643
0.555562
0.5977
0.679889
0.566557
0.680503
0.5977
0.5977
0.594754
0.5977
0.5977
0.5977
0.5977
0.5977
0.680312
0.677351
0.457485
0.5977
0.5977
0.460612
0.5977
0.588254
0.5977
0.5977
0.35837
0.630293
0.5977
0.5977
0.5977
0.475465
0.474812
0.5977
0.597144
0.554158
0.680502
0.597698
0.5977
0.5977
0.5977
0.5977
0.381179
0.5977
0.422481
0.5977
0.597696
0.5977
0.558846
0.5977
0.5977
0.668031
0.5977
0.5977
0.5977
0.680312
0.5977
0.597702
0.566379
0.410689
0.5977
0.680609
0.5977
0.5977
0.5977
0.680518
0.5977
0.5977
0.679818
0.5977
0.597701
0.45228
0.5977
0.5977
0.591395
0.5977
0.5977
0.680114
0.597697
0.5977
0.357749
0.5977
0.5977
0.542531
0.5977
0.556312
0.597701
0.48626
0.680735
0.369761
0.5977
0.5977
0.358189
0.5977
0.597707
0.5977
0.680314
0.5977
0.5977
0.5977
0.5977
0.5977
0.5977
0.358367
0.525179
0.451574
0.597724
0.5977
0.5977
0.5977
0.5977
0.679948
0.5977
0.583941
0.5977
0.5977
0.680311
0.427932
0.680217
0.5977
0.5977
0.591906
0.597727
0.5977
0.5977
0.5977
0.5977
0.680763
0.5977
0.5977
0.648232
0.5977
0.358222
0.680436
0.597696
0.5977
0.5977
0.5977
0.597701
0.5977
0.5977
0.5977
0.452914
0.5977
0.5977
0.5977
0.5927
0.5977
0.5977
0.5977
0.597724
0.5977
0.5977
0.680403
0.5977
0.443112
0.5977
0.5977
0.5977
0.5977
0.5977
0.5977
0.5977
0.67804
0.5977
0.680034
0.5977
0.5977
0.5977
0.597509
0.5977
0.5977
0.5977
0.5977
0.680497
0.5977
0.597016
0.558282
0.5977
0.49274
0.5977
0.5977
0.6809
0.5977
0.5977
0.596153
0.5977
0.596586
0.679783
0.5977
0.5977
0.5977
0.387044
0.5977
0.597697
0.5977
0.597696
0.597656
0.680418
0.597699
0.597701
0.5977
0.5977
0.680697
0.679834
0.5977
0.597713
0.5977
0.5977
0.5977
0.5977
0.5977
0.5977
0.5977
0.68027
0.5977
0.5977
0.5977
0.5977
0.680422
0.680473
0.5977
0.5974
0.680101
0.597697
0.5977
0.458922
0.5977
0.473733
0.597704
0.5977
0.358259
0.357795
0.595479
0.680479
0.5977
0.5977
0.679729
0.5977
0.5977
0.364789
0.5977
0.5977
0.680831
0.654362
0.5977
0.680177
0.5977
0.68035
0.680407
0.5977
0.5977
0.5977
0.5977
0.5977
0.5977
0.5977
0.5977
0.389991
0.5977
0.5977
0.679941
0.563738
0.5977
0.5977
0.680573
0.38777
0.657198
0.5977
0.557193
0.597701
0.680305
0.36889
0.5977
0.364676
0.597699
0.597701
0.5977
0.5977
0.597658
0.597695
0.484118
0.429259
0.5977
0.68044
0.5977
0.5977
0.552766
0.484951
0.575279
0.597701
0.5977
0.5977
0.597701
0.5977
0.668197
0.597702
0.5977
0.5977
0.5977
0.5977
0.382208
0.680014
0.679876
0.575604
0.5977
0.5977
0.5977
0.5977
0.5977
0.5977
0.5977
0.5977
0.5977
0.359821
0.680173
0.5977
0.358359
0.5977
0.545898
0.678766
0.5977
0.5977
0.597365
0.5977
0.5977
0.5977
0.5977
0.674999
0.5977
0.680355
0.679751
0.5977
0.5977
0.5977
0.680387
0.5977
0.679791
0.5977
0.59764
0.597714
0.596375
0.597642
0.679901
0.680296
0.5977
0.679944
0.5977
0.679915
0.534962
0.553172
0.358041
0.604936
0.449072
0.562662
0.597697
0.5977
0.555954
0.5977
0.5977
0.597701
0.358364
0.68047
0.679886
0.664919
0.496112
0.594461
0.5977
0.680009
0.5977
0.5977
0.477534
0.389442
0.680868
0.388279
0.5977
0.5977
0.586423
0.35851
0.5977
0.492907
0.5977
0.552637
0.5977
0.59515
0.680556
0.5977
0.368204
0.597727
0.5977
0.5977
0.358341
0.558196
0.5977
0.679987
0.593602
0.407065
0.5977
0.597709
0.5977
0.5977
0.5977
0.5977
0.5977
0.5977
0.5977
0.5977
0.43609
0.5977
0.567952
0.5977
0.5977
0.680259
0.358465
0.5977
0.5977
0.591827
0.680826
0.382553
0.646901
0.5977
0.5977
0.5977
0.5977
0.378099
0.5977
0.679542
0.680034
0.5977
0.5977
0.5977
0.597701
0.5977
0.67994
0.680092
0.597702
0.5977
0.679932
0.5977
0.5977
0.5977
0.636332
0.595166
0.680187
0.593902
0.679897
0.5977
0.358912
0.597696
0.5977
0.35791
0.5977
0.611803
0.590328
0.5977
0.680111
0.5977
0.597702
0.5977
0.594144
0.5977
0.591935
0.67993
0.5977
0.6811
0.5135
0.597702
0.679841
0.5977
0.680323
0.597696
0.68045
0.5977
0.5977
0.5977
0.5977
0.407089
0.5977
0.557968
0.358178
0.5977
0.5977
0.5977
0.5977
0.680308
0.597704
0.680481
0.5977
0.595188
0.5977
0.5977
0.358403
0.680206
0.5977
0.5977
0.5977
0.5977
0.5977
0.5977
0.5977
0.5977
0.680162
0.5977
0.5977
0.5977
0.5977
0.5977
0.5977
0.597703
0.422157
0.5977
0.593137
0.5977
0.5977
0.637485
0.5977
0.680118
0.5977
0.5977
0.5977
0.429894
0.668139
0.5977
0.5977
0.5977
0.5977
0.5977
0.68009
0.368076
0.579304
0.5977
0.5977
0.5977
0.670911
0.592615
0.680002
0.5977
0.5977
0.5977
0.5977
0.5977
0.584361
0.5977
0.572037
0.5977
0.658439
0.5977
0.5977
0.5977
0.5977
0.5977
0.597701
0.5977
0.524908
0.5977
0.67395
0.620687
0.5977
0.597698
0.597729
0.558206
0.5977
0.5977
0.490959
0.362584
0.597696
0.5977
0.358131
0.5977
0.668623
0.5977
0.441313
0.5977
0.5977
0.5977
0.5977
0.390966
0.5977
0.561596
0.358473
0.680322
0.358464
0.5977
0.5977
0.65328
0.445927
0.5977
0.5977
0.483932
0.5977
0.5977
0.5977
0.597699
0.5977
0.597696
0.5977
0.473605
0.5977
0.382888
0.680356
0.680274
0.5977
0.5977
0.5977
0.5977
0.680157
0.597701
0.5977
0.5977
0.385516
0.5977
0.570092
0.5977
0.5977
0.5977
0.5977
0.5977
0.5977
0.5977
0.5977
0.596134
0.58563
0.582689
0.5977
0.5977
0.595199
0.428037
0.597699
0.680572
0.5977
0.5977
0.5977
0.5977
0.358451
0.597696
0.5977
0.5977
0.5977
0.597729
0.5977
0.679732
0.597696
0.5977
0.597591
0.680374
0.5977
0.5977
0.5977
0.5977
0.486766
0.597701
0.5977
0.5977
0.5977
0.597727
0.5977
0.39518
0.680441
0.5977
0.373309
0.5977
0.5977
0.5977
0.5977
0.5977
0.5977
0.5956
0.5977
0.518958
0.597697
0.576672
0.406795
0.5977
0.680231
0.5977
0.385255
0.358395
0.5977
0.597699
0.679848
0.5977
0.358261
0.5977
0.67982
0.597697
0.5977
0.5977
0.5977
0.680148
0.5977
0.35849
0.464197
0.5977
0.368437
0.5977
0.5977
0.680026
0.680126
0.5977
0.359316
0.55851
0.391277
0.679764
0.5977
0.358395
0.597733
0.531333
0.680976
0.536926
0.557705
0.5977
0.5977
0.597695
0.5977
0.5977
0.59739
0.448132
0.597701
0.5977
0.5977
0.597702
0.5977
0.436249
0.358613
0.5977
0.405826
0.407609
0.5977
0.5977
0.664212
0.5977
0.5977
0.5977
0.5977
0.679838
0.680232
0.435253
0.5977
0.5977
0.5977
0.5977
0.5977
0.5977
0.673508
0.597701
0.5977
0.5977
0.5977
0.5977
0.597701
0.5977
0.5977
0.5977
0.680583
0.619721
0.597702
0.557096
0.5977
0.5977
0.597701
0.551953
0.680241
0.5977
0.5977
0.5977
0.678669
0.650211
0.5977
0.5977
0.5977
0.597586
0.491171
0.5977
0.438746
0.5977
0.429429
0.436152
0.5977
0.597698
0.5977
0.479097
0.5977
0.5977
0.358229
0.5977
0.5977
0.593957
0.597731
0.594753
0.5977
0.506086
0.5977
0.5977
0.5977
0.5977
0.597697
0.5977
0.358615
0.669523
0.5977
0.5977
0.679834
0.680369
0.5977
0.358554
0.5977
0.597695
0.5977
0.680595
0.680089
0.358392
0.5977
0.666281
0.5977
0.5977
0.593413
0.358263
0.36519
0.592044
0.5977
0.5977
0.5977
0.358407
0.5977
0.5977
0.5977
0.5977
0.597126
0.5977
0.680025
0.5977
0.585894
0.5977
0.680456
0.5977
0.5977
0.5977
0.5977
0.358432
0.378455
0.620741
0.361645
0.357967
0.596129
0.5977
0.532398
0.5977
0.525095
0.658119
0.5977
0.5977
0.680282
0.5977
0.679978
0.597724
0.381769
0.5977
0.680457
0.5977
0.5977
0.5977
0.5977
0.5977
0.680714
0.428688
0.665383
0.5977
0.680387
0.5977
0.479537
0.597709
0.359586
0.359326
0.597696
0.5977
0.5977
0.440965
0.593235
0.5977
0.5977
0.596841
0.5977
0.358229
0.597702
0.5977
0.5977
0.5977
0.610713
0.680199
0.587767
0.5977
0.678109
0.5977
0.358431
0.5977
0.5977
0.5977
0.591075
0.5977
0.5977
0.5977
0.5977
0.594514
0.5977
0.680293
0.680058
0.358417
0.5977
0.359184
0.5977
0.675064
0.5977
0.597702
0.5977
0.597697
0.5977
0.358527
0.5977
0.597701
0.5977
0.5977
0.38803
0.5977
0.5977
0.5977
0.44297
0.5977
0.679464
0.5977
0.59773
0.5977
0.5977
0.35848
0.5977
0.5977
0.5977
0.514763
0.358371
0.597698
0.5977
0.597696
0.597701
0.5977
0.68072
0.5977
0.597701
0.385591
0.597701
0.5977
0.5977
0.5977
0.5977
0.441854
0.59772
0.5977
0.5977
0.5977
0.5977
0.5977
0.5977
0.679534
0.597729
0.5977
0.597701
0.5977
0.453816
0.466697
0.5977
0.5977
0.5977
0.5977
0.5977
0.595601
0.358367
0.5977
0.673154
0.5977
0.461927
0.5977
0.597699
0.5977
0.597698
0.5977
0.597701
0.597733
0.597701
0.5977
0.559633
0.5977
0.558229
0.591986
0.5977
0.680648
0.680971
0.680414
0.59765
0.5977
0.668967
0.555099
0.680925
0.597727
0.36544
0.597699
0.597697
0.358507
0.451055
0.5977
0.5977
0.571345
0.5977
0.597701
0.5977
0.5977
0.5977
0.5977
0.680149
0.5977
0.5977
0.679918
0.5977
0.597722
0.383613
0.5977
0.5977
0.358475
0.5977
0.597695
0.680405
0.5977
0.511886
0.5977
0.5977
0.5977
0.680062
0.597718
0.5977
0.5977
0.597701
0.5977
0.5977
0.677073
0.5977
0.5977
0.361481
0.597701
0.5977
0.597714
0.5977
0.680648
0.36305
0.5977
0.440181
0.5977
0.597724
0.679879
0.597698
0.5977
0.369315
0.678428
0.5977
0.5977
0.650989
0.551709
0.597696
0.5977
0.5977
0.5977
0.5977
0.5977
0.597698
0.5977
0.5977
0.5977
0.5977
0.5977
0.5977
0.5977
0.597
0.597698
0.680138
0.5977
0.5977
0.5977
0.597726
0.5977
0.357699
0.5977
0.597697
0.680348
0.5977
0.5977
0.5977
0.5977
0.5977
0.35824
0.44456
0.680007
0.669107
0.5977
0.597701
0.665393
0.35844
0.5977
0.597701
0.597701
0.5977
0.5977
0.5977
0.439066
0.66357
0.60299
0.59769
0.597701
0.5977
0.5977
0.5977
0.597728
0.597701
0.5977
0.5977
0.597701
0.5977
0.5977
0.5977
0.5977
0.597701
0.467401
0.5977
0.596913
0.5977
0.597696
0.5977
0.597696
0.597698
0.569125
0.5977
0.5977
0.358103
0.597702
0.597729
0.515672
0.5977
0.5977
0.552377
0.5977
0.35857
0.680846
0.5977
0.5977
0.5977
0.5977
0.5977
0.680338
0.5977
0.5977
0.597723
0.5977
0.6803
0.530995
0.369824
0.5977
0.5977
0.5977
0.5977
0.680261
0.5977
0.5977
0.5977
0.597701
0.68024
0.5977
0.35816
0.679703
0.5977
0.5977
0.5977
0.529129
0.597709
0.572749
0.5977
0.5977
0.5977
0.373355
0.5977
0.5977
0.597698
0.5977
0.680834
0.597698
0.5977
0.592127
0.5977
0.597699
0.597718
0.5977
0.597696
0.678911
0.597717
0.680724
0.680462
0.647299
0.5977
0.5977
0.5977
0.597702
0.596145
0.391057
0.596366
0.5977
0.5977
0.680399
0.5977
0.5977
0.358347
0.5977
0.5977
0.5977
0.597702
0.5977
0.5977
0.5977
0.5977
0.5977
0.5977
0.5977
0.357734
0.5977
0.597602
0.5977
0.597696
0.5977
0.5977
0.5977
0.5977
0.358525
0.384985
0.680231
0.5977
0.5977
0.594494
0.5977
0.5977
0.592699
0.680413
0.5977
0.358185
0.5977
0.358341
0.59169
0.5977
0.5977
0.5977
0.680684
0.5977
0.5977
0.5977
0.366269
0.5977
0.5977
0.5916
0.597091
0.5977
0.5977
0.680724
0.358363
0.558024
0.68023
0.400651
0.5977
0.597696
0.5977
0.358431
0.464336
0.597735
0.5977
0.673523
0.5977
0.5977
0.5977
0.5977
0.5977
0.5977
0.358182
0.5977
0.359516
0.5977
0.387877
0.5977
0.597199
0.5977
0.5977
0.455531
0.680003
0.551172
0.391264
0.5977
0.5977
0.5977
0.5977
0.597733
0.5977
0.680188
0.5977
0.5977
0.5977
0.5977
0.5977
0.379101
0.5977
0.680398
0.5977
0.358387
0.5977
0.5977
0.5977
0.5977
0.5977
0.5977
0.5977
0.5977
0.5977
0.5977
0.5977
0.5977
0.5977
0.5977
0.360681
0.597698
0.597695
0.37443
0.5977
0.597702
0.5977
0.5977
0.5977
0.5977
0.5977
0.5977
0.59773
0.402055
0.597708
0.364814
0.5977
0.597661
0.398066
0.597469
0.680123
0.5977
0.5977
0.5977
0.5977
0.5977
0.5977
0.5977
0.5977
0.680488
0.596073
0.5977
0.5977
0.5977
0.5977
0.679929
0.5977
0.592965
0.5977
0.5977
0.5977
0.5977
0.35795
0.5977
0.5977
0.5977
0.5977
0.597699
0.5977
0.5977
0.5977
0.414626
0.5977
0.358331
0.5977
0.5977
0.680032
0.5977
0.597699
0.597699
0.597704
0.552206
0.5977
0.5977
0.5977
0.589782
0.537377
0.5977
0.597712
0.5977
0.680154
0.677893
0.5977
0.5977
0.680415
0.5977
0.553754
0.5977
0.5977
0.5977
0.5977
0.5977
0.555368
0.5977
0.5977
0.5977
0.5977
0.5977
0.597679
0.675536
0.5977
0.679342
0.5977
0.40045
0.672832
0.595187
0.5977
0.40777
0.358479
0.537724
0.5977
0.357943
0.577155
0.597668
0.5977
0.442097
0.5977
0.678126
0.5977
0.680095
0.5977
0.560236
0.5977
0.5977
0.5977
0.674847
0.589715
0.5977
0.580042
0.5977
0.5977
0.358386
0.5977
0.597703
0.5977
0.362206
0.680243
0.5977
0.5977
0.463705
0.5977
0.5977
0.358354
0.597696
0.5977
0.597732
0.597696
0.597701
0.5977
0.5977
0.597703
0.5801
0.5977
0.358469
0.5977
0.5977
0.5977
0.5977
0.609663
0.5977
0.363725
0.5977
0.679962
0.5977
0.5977
0.5977
0.5977
0.5977
0.5977
0.597704
0.5977
0.5977
0.359716
0.519044
0.5977
0.597696
0.596668
0.5977
0.5977
0.5977
0.5977
0.5977
0.5977
0.5977
0.360518
0.358537
0.5977
0.593925
0.558174
0.5977
0.597697
0.5977
0.5977
0.597701
0.5977
0.5977
0.359297
0.5977
0.593581
0.5977
0.5977
0.358404
0.61433
0.587373
0.5977
0.5977
0.5977
0.5977
0.358466
0.38854
0.5977
0.5977
0.68029
0.5977
0.358562
0.5977
0.358403
0.5977
0.679064
0.597696
0.398446
0.5977
0.680058
0.5977
0.5977
0.5977
0.592185
0.680125
0.5977
0.5977
0.597703
0.403426
0.5977
0.5977
0.557946
0.462437
0.5977
0.591988
0.5977
0.5977
0.5977
0.680235
0.674252
0.5977
0.5977
0.599784
0.597699