# vtk DataFile Version 1.0
unstructured grid
ascii
DATASET UNSTRUCTURED_GRID
points 13672 float
0.0796578 -0.059106 0
0.00128732 0.00159165 0
0.00227961 -0.00102548 0
0.0791586 -0.0598787 0
-0.0546216 0.01 0
0.000495206 0.025 0
0.0800549 -0.035 0
0.135172 -0.08 0
-0.0546216 -0.0451168 0
0.000495206 -0.0301168 0
0.0800549 -0.0901168 0
0.135172 -0.135117 0
-0.0546216 -0.0451168 -0.00551168
0.000495206 -0.0301168 -0.00551168
0.0800549 -0.0901168 -0.00551168
0.135172 -0.135117 -0.00551168
0.135172 -0.08 -0.00551168
0.0800549 -0.035 -0.00551168
0.000495206 0.025 -0.00551168
-0.0546216 0.01 -0.00551168
0.00128732 0.00159165 -0.00551168
0.00227961 -0.00102548 -0.00551168
0.0791586 -0.0598787 -0.00551168
0.0796578 -0.059106 -0.00551168
0.00165953 -0.000990923 0
0.00119576 -0.000874076 0
0.000866021 -0.000641801 0
0.000645147 -0.000349912 0
0.00052235 -1.7281e-05 0
0.00049972 0.000348016 0
0.000601632 0.000737716 0
0.000861774 0.0011403 0
0.00157235 0.00183217 0
0.00188647 0.00206725 0
0.00222612 0.00230203 0
0.00258713 0.00254351 0
0.00296826 0.00279524 0
0.00337118 0.00305664 0
0.00379785 0.00332658 0
0.00425045 0.00360349 0
0.00473139 0.00388521 0
0.0052432 0.00416895 0
0.0057881 0.00445204 0
0.00636753 0.00473281 0
0.00698281 0.00500961 0
0.00763526 0.00528058 0
0.00832616 0.00554366 0
0.00905691 0.00579603 0
0.00982918 0.00603333 0
0.0106445 0.00625033 0
0.0115038 0.00644128 0
0.0124073 0.00660297 0
0.0133543 0.00673414 0
0.0143444 0.00683382 0
0.0153769 0.00690031 0
0.0164512 0.00693173 0
0.0175666 0.00692547 0
0.0187219 0.00687822 0
0.0199156 0.00678477 0
0.0211454 0.00663864 0
0.0224084 0.00643275 0
0.0237018 0.00616676 0
0.0250249 0.00584739 0
0.026375 0.00547298 0
0.0277479 0.00503752 0
0.0291386 0.00453545 0
0.0305433 0.0039653 0
0.0319572 0.0033256 0
0.0333681 0.00260019 0
0.034775 0.00179799 0
0.0361793 0.000930615 0
0.0375798 3.12222e-06 0
0.0389689 -0.000988429 0
0.0403357 -0.00205109 0
0.041675 -0.00318283 0
0.0429849 -0.00437751 0
0.0442643 -0.00562904 0
0.0455126 -0.00693089 0
0.0467314 -0.00827518 0
0.0479204 -0.00965638 0
0.0490661 -0.0110799 0
0.0501515 -0.0125519 0
0.0511696 -0.0140695 0
0.0521492 -0.0156071 0
0.0531202 -0.0171411 0
0.0540851 -0.0186663 0
0.0550431 -0.0201798 0
0.0559923 -0.0216793 0
0.0569311 -0.0231626 0
0.0578582 -0.0246273 0
0.0587723 -0.0260715 0
0.0596721 -0.027493 0
0.0605563 -0.02889 0
0.0614241 -0.0302609 0
0.0622742 -0.0316042 0
0.063106 -0.0329183 0
0.0639186 -0.034202 0
0.0647113 -0.0354543 0
0.0654835 -0.0366743 0
0.0662345 -0.0378613 0
0.0669642 -0.0390145 0
0.0676726 -0.0401333 0
0.0683597 -0.0412172 0
0.0690246 -0.0422665 0
0.0696662 -0.0432819 0
0.0702841 -0.0442636 0
0.0708793 -0.0452111 0
0.0714538 -0.0461237 0
0.072009 -0.047001 0
0.0725452 -0.0478434 0
0.0730611 -0.0486524 0
0.073556 -0.0494294 0
0.0740291 -0.0501756 0
0.0744812 -0.0508916 0
0.0749138 -0.0515773 0
0.0753285 -0.0522331 0
0.0757266 -0.0528592 0
0.076109 -0.0534564 0
0.0764753 -0.0540264 0
0.0768243 -0.054571 0
0.0771553 -0.0550919 0
0.0774679 -0.0555901 0
0.0777617 -0.0560669 0
0.0780369 -0.056523 0
0.0782958 -0.0569578 0
0.0785421 -0.0573703 0
0.0787786 -0.0577603 0
0.0790073 -0.0581279 0
0.0792295 -0.058474 0
0.0794462 -0.0587995 0
0.0798803 -0.0594162 0
0.0800272 -0.0596588 0
0.0800357 -0.0598891 0
0.0799275 -0.0600784 0
0.0797205 -0.0601773 0
0.0794593 -0.0601051 0
0.0789155 -0.0596491 0
0.0786707 -0.0593963 0
0.0784111 -0.0591319 0
0.0781372 -0.0588542 0
0.0778566 -0.0585548 0
0.0775715 -0.0582308 0
0.0772803 -0.0578828 0
0.0769832 -0.0575099 0
0.0766822 -0.0571097 0
0.0763801 -0.0566796 0
0.0760759 -0.0562196 0
0.0757623 -0.0557337 0
0.0754359 -0.0552232 0
0.0750951 -0.0546879 0
0.0747379 -0.054128 0
0.0743626 -0.0535435 0
0.0739688 -0.0529338 0
0.0735559 -0.0522981 0
0.0731238 -0.0516357 0
0.0726718 -0.050946 0
0.0721991 -0.0502288 0
0.0717046 -0.049484 0
0.0711872 -0.0487117 0
0.0706461 -0.047912 0
0.0700804 -0.0470849 0
0.0694892 -0.0462308 0
0.0688718 -0.0453499 0
0.0682271 -0.0444431 0
0.0675544 -0.043511 0
0.0668527 -0.0425546 0
0.0661215 -0.0415748 0
0.06536 -0.040573 0
0.0645676 -0.0395504 0
0.0637439 -0.0385087 0
0.0628887 -0.0374493 0
0.062002 -0.0363741 0
0.0610838 -0.0352847 0
0.0601345 -0.0341831 0
0.0591547 -0.033071 0
0.0581456 -0.0319502 0
0.0571083 -0.0308224 0
0.0560444 -0.0296893 0
0.0549562 -0.028552 0
0.053845 -0.0274126 0
0.0527113 -0.0262746 0
0.051554 -0.0251427 0
0.0503724 -0.0240222 0
0.0491675 -0.0229164 0
0.047941 -0.0218282 0
0.0466955 -0.0207597 0
0.0454337 -0.0197126 0
0.0441592 -0.0186878 0
0.0428751 -0.0176863 0
0.0415841 -0.0167097 0
0.0402878 -0.0157609 0
0.0389879 -0.0148428 0
0.0376864 -0.0139575 0
0.0363853 -0.013107 0
0.0350871 -0.0122931 0
0.0337942 -0.0115164 0
0.0325095 -0.0107772 0
0.0312357 -0.0100756 0
0.0299758 -0.00941024 0
0.0287337 -0.00877784 0
0.0275126 -0.00817571 0
0.0263139 -0.00760375 0
0.0251376 -0.00706528 0
0.0239829 -0.0065649 0
0.0228537 -0.00609619 0
0.0217522 -0.00565563 0
0.0206795 -0.00524226 0
0.0196364 -0.00485507 0
0.0186233 -0.00449318 0
0.0176408 -0.00415577 0
0.016689 -0.00384204 0
0.0157682 -0.00355115 0
0.0148783 -0.00328218 0
0.0140192 -0.00303468 0
0.0131906 -0.00280795 0
0.0123925 -0.00260016 0
0.0116246 -0.00241012 0
0.0108864 -0.00223769 0
0.0101774 -0.00208212 0
0.00949701 -0.00194206 0
0.00884483 -0.0018163 0
0.0082202 -0.0017039 0
0.00762247 -0.00160391 0
0.00705097 -0.00151528 0
0.006505 -0.00143697 0
0.0059838 -0.00136806 0
0.00548662 -0.00130772 0
0.00501265 -0.00125519 0
0.00456114 -0.00120954 0
0.00413136 -0.00116914 0
0.00372257 -0.00113251 0
0.00333398 -0.00109853 0
0.00296466 -0.00106798 0
0.00261363 -0.0010431 0
-0.052721 -0.0445996 0
-0.0508204 -0.0440823 0
-0.0489199 -0.0435651 0
-0.0470193 -0.0430478 0
-0.0451187 -0.0425306 0
-0.0432181 -0.0420134 0
-0.0413175 -0.0414961 0
-0.039417 -0.0409789 0
-0.0375164 -0.0404616 0
-0.0356158 -0.0399444 0
-0.0337152 -0.0394271 0
-0.0318146 -0.0389099 0
-0.0299141 -0.0383927 0
-0.0280135 -0.0378754 0
-0.0261129 -0.0373582 0
-0.0242123 -0.0368409 0
-0.0223117 -0.0363237 0
-0.0204112 -0.0358065 0
-0.0185106 -0.0352892 0
-0.01661 -0.034772 0
-0.0147094 -0.0342547 0
-0.0128088 -0.0337375 0
-0.0109083 -0.0332202 0
-0.00900769 -0.032703 0
-0.00710711 -0.0321858 0
-0.00520653 -0.0316685 0
-0.00330595 -0.0311513 0
-0.00140537 -0.030634 0
0.00190689 -0.0299614 0
0.00332271 -0.0298498 0
0.00474133 -0.0297825 0
0.00616136 -0.0297597 0
0.0075814 -0.0297814 0
0.00900007 -0.0298477 0
0.010416 -0.0299583 0
0.0118278 -0.0301127 0
0.0132342 -0.0303103 0
0.0146339 -0.0305504 0
0.0160259 -0.0308322 0
0.0174091 -0.0311546 0
0.0187824 -0.0315166 0
0.020145 -0.031917 0
0.0214961 -0.0323546 0
0.0228351 -0.032828 0
0.0241613 -0.0333361 0
0.0254744 -0.0338774 0
0.0267738 -0.0344507 0
0.0280592 -0.0350545 0
0.0293306 -0.0356877 0
0.0305875 -0.0363488 0
0.0318301 -0.0370367 0
0.0330581 -0.0377501 0
0.0342717 -0.0384879 0
0.0354708 -0.0392489 0
0.0366556 -0.0400321 0
0.0378262 -0.0408363 0
0.0389828 -0.0416607 0
0.0401254 -0.0425042 0
0.0412543 -0.0433659 0
0.0423698 -0.0442451 0
0.043472 -0.0451408 0
0.0445612 -0.0460523 0
0.0456375 -0.0469789 0
0.0467013 -0.0479199 0
0.0477529 -0.0488746 0
0.0487923 -0.0498424 0
0.04982 -0.0508227 0
0.0508362 -0.051815 0
0.051841 -0.0528187 0
0.0528348 -0.0538333 0
0.0538178 -0.0548584 0
0.0547903 -0.0558935 0
0.0557524 -0.0569382 0
0.0567045 -0.0579922 0
0.0576467 -0.0590549 0
0.0585792 -0.0601261 0
0.0595024 -0.0612055 0
0.0604163 -0.0622926 0
0.0613212 -0.0633873 0
0.0622174 -0.0644891 0
0.0631049 -0.0655979 0
0.0639841 -0.0667134 0
0.064855 -0.0678353 0
0.0657179 -0.0689633 0
0.0665729 -0.0700974 0
0.0674202 -0.0712372 0
0.06826 -0.0723826 0
0.0690925 -0.0735333 0
0.0699178 -0.0746892 0
0.070736 -0.0758501 0
0.0715473 -0.0770159 0
0.0723518 -0.0781863 0
0.0731498 -0.0793612 0
0.0739412 -0.0805405 0
0.0747264 -0.081724 0
0.0755053 -0.0829116 0
0.0762781 -0.0841033 0
0.0770449 -0.0852987 0
0.0778059 -0.0864979 0
0.0785611 -0.0877007 0
0.0793108 -0.088907 0
0.0814681 -0.0912706 0
0.0828814 -0.0924245 0
0.0842946 -0.0935783 0
0.0857079 -0.0947322 0
0.0871211 -0.095886 0
0.0885344 -0.0970399 0
0.0899476 -0.0981937 0
0.0913609 -0.0993476 0
0.0927741 -0.100501 0
0.0941874 -0.101655 0
0.0956006 -0.102809 0
0.0970139 -0.103963 0
0.0984272 -0.105117 0
0.0998404 -0.106271 0
0.101254 -0.107424 0
0.102667 -0.108578 0
0.10408 -0.109732 0
0.105493 -0.110886 0
0.106907 -0.11204 0
0.10832 -0.113194 0
0.109733 -0.114348 0
0.111146 -0.115501 0
0.11256 -0.116655 0
0.113973 -0.117809 0
0.115386 -0.118963 0
0.116799 -0.120117 0
0.118213 -0.121271 0
0.119626 -0.122424 0
0.121039 -0.123578 0
0.122452 -0.124732 0
0.123866 -0.125886 0
0.125279 -0.12704 0
0.126692 -0.128194 0
0.128105 -0.129348 0
0.129519 -0.130501 0
0.130932 -0.131655 0
0.132345 -0.132809 0
0.133758 -0.133963 0
0.135172 -0.133216 0
0.135172 -0.131316 0
0.135172 -0.129415 0
0.135172 -0.127514 0
0.135172 -0.125614 0
0.135172 -0.123713 0
0.135172 -0.121813 0
0.135172 -0.119912 0
0.135172 -0.118012 0
0.135172 -0.116111 0
0.135172 -0.11421 0
0.135172 -0.11231 0
0.135172 -0.110409 0
0.135172 -0.108509 0
0.135172 -0.106608 0
0.135172 -0.104708 0
0.135172 -0.102807 0
0.135172 -0.100906 0
0.135172 -0.0990058 0
0.135172 -0.0971052 0
0.135172 -0.0952046 0
0.135172 -0.0933041 0
0.135172 -0.0914035 0
0.135172 -0.0895029 0
0.135172 -0.0876023 0
0.135172 -0.0857017 0
0.135172 -0.0838012 0
0.135172 -0.0819006 0
0.133758 -0.0788462 0
0.132345 -0.0776923 0
0.130932 -0.0765385 0
0.129519 -0.0753846 0
0.128105 -0.0742308 0
0.126692 -0.0730769 0
0.125279 -0.0719231 0
0.123866 -0.0707692 0
0.122452 -0.0696154 0
0.121039 -0.0684615 0
0.119626 -0.0673077 0
0.118213 -0.0661538 0
0.116799 -0.065 0
0.115386 -0.0638462 0
0.113973 -0.0626923 0
0.11256 -0.0615385 0
0.111146 -0.0603846 0
0.109733 -0.0592308 0
0.10832 -0.0580769 0
0.106907 -0.0569231 0
0.105493 -0.0557692 0
0.10408 -0.0546154 0
0.102667 -0.0534615 0
0.101254 -0.0523077 0
0.0998404 -0.0511538 0
0.0984272 -0.05 0
0.0970139 -0.0488462 0
0.0956006 -0.0476923 0
[...]
CELL_DATA 13116
SCALARS rho float
LOOKUP_TABLE default
0.5977
0.652157
0.524182
0.688808
0.688118
0.680371
0.384909
0.692906
0.5977
0.690662
0.362979
0.533344
0.688353
0.463303
0.482667
0.680297
0.5977
0.5977
0.680276
0.35969
0.5977
0.531573
0.508583
0.597704
0.5977
0.701054
0.691004
0.591084
0.5977
0.5977
0.680147
0.523168
0.5977
0.5977
0.39203
0.5977
0.5977
0.680525
0.680546
0.688837
0.680348
0.692005
0.5977
0.495833
0.680291
0.680089
0.652677
0.680679
0.517548
0.5977
0.689825
0.5977
0.417713
0.5977
0.5977
0.5977
0.493189
0.597597
0.5977
0.500945
0.467307
0.689369
0.643169
0.680526
0.680317
0.43886
0.680187
0.5977
0.680635
0.680527
0.481934
0.5977
0.537359
0.470674
0.657066
0.445044
0.5977
0.681034
0.366702
0.5977
0.5977
0.703592
0.597516
0.680737
0.680704
0.596309
0.399326
0.5977
0.701324
0.358161
0.535114
0.669118
0.589814
0.698549
0.5977
0.5977
0.5977
0.679149
0.675172
0.5977
0.5977
0.5977
0.680367
0.5977
0.664349
0.51354
0.584769
0.5977
0.550044
0.5977
0.5977
0.708418
0.5977
0.5977
0.5977
0.680194
0.423648
0.597728
0.680421
0.680318
0.5977
0.552572
0.680573
0.534831
0.699187
0.597696
0.406098
0.5977
0.524596
0.5977
0.680389
0.679659
0.597698
0.522669
0.597707
0.5977
0.558275
0.680255
0.5977
0.680208
0.5977
0.664546
0.5977
0.5977
0.597695
0.4828
0.389173
0.702119
0.685237
0.691327
0.5977
0.680664
0.680594
0.40385
0.69091
0.680585
0.527382
0.5977
0.679225
0.5977
0.597704
0.363232
0.589557
0.527898
0.559656
0.68881
0.699718
0.5977
0.389332
0.597719
0.597724
0.558108
0.478981
0.5977
0.680262
0.509011
0.499033
0.535853
0.709784
0.68034
0.358412
0.597716
0.5977
0.5977
0.68042
0.5977
0.403366
0.680546
0.720939
0.5977
0.5977
0.702396
0.680569
0.553022
0.707409
0.680243
0.691333
0.680452
0.702562
0.5977
0.5977
0.5977
0.5977
0.478643
0.679965
0.679896
0.5977
0.5977
0.490998
0.358111
0.441506
0.680424
0.539659
0.358277
0.358453
0.409245
0.597557
0.68048
0.699782
0.593458
0.484829
0.680186
0.5977
0.358516
0.5977
0.690414
0.597702
0.597553
0.680216
0.589015
0.693274
0.525192
0.680107
0.5977
0.673052
0.690139
0.680619
0.52761
0.597696
0.5977
0.627543
0.680343
0.558085
0.680307
0.693946
0.50471
0.68977
0.689999
0.677357
0.374841
0.521945
0.680572
0.680237
0.680101
0.68036
0.5977
0.5977
0.361082
0.543657
0.597698
0.488549
0.599058
0.690266
0.5977
0.380459
0.680743
0.418398
0.597501
0.667253
0.37404
0.702412
0.689943
0.580057
0.597516
0.524624
0.565943
0.597702
0.679753
0.680181
0.361838
0.39024
0.555633
0.5977
0.547939
0.540404
0.577229
0.571206
0.680495
0.427817
0.689322
0.687624
0.391364
0.359203
0.412642
0.5977
0.563394
0.5977
0.5977
0.716071
0.370443
0.680497
0.5977
0.550769
0.499712
0.68045
0.680343
0.680449
0.40882
0.680159
0.5977
0.67972
0.691155
0.692447
0.690912
0.559396
0.680109
0.460167
0.68038
0.689627
0.5977
0.358413
0.575662
0.689929
0.413023
0.680389
0.689019
0.597723
0.5977
0.59758
0.400627
0.680619
0.588839
0.458727
0.6792
0.594457
0.5977
0.697313
0.595596
0.5977
0.380141
0.597702
0.578312
0.680439
0.597704
0.696194
0.597055
0.589744
0.680732
0.399982
0.680141
0.71881
0.59772
0.557949
0.400187
0.51449
0.680385
0.5977
0.5977
0.396419
0.530533
0.690734
0.687652
0.383172
0.688479
0.440109
0.518387
0.68012
0.696373
0.5977
0.358326
0.68027
0.680221
0.680262
0.6807
0.673009
0.5977
0.597722
0.478387
0.358364
0.680346
0.358414
0.5977
0.597724
0.545034
0.586846
0.5977
0.552422
0.394501
0.68063
0.54071
0.625009
0.5977
0.680236
0.5977
0.690354
0.518847
0.387388
0.5977
0.59759
0.680237
0.5977
0.680433
0.5977
0.597684
0.5977
0.703908
0.5977
0.5977
0.677059
0.5977
0.680457
0.597696
0.5977
0.5977
0.521377
0.5977
0.5977
0.415185
0.680172
0.583255
0.562568
0.35822
0.358357
0.393462
0.5977
0.437543
0.552915
0.680195
0.437871
0.5977
0.35817
0.679973
0.597214
0.591158
0.523073
0.680354
0.597707
0.358176
0.392804
0.358328
0.553349
0.387961
0.358314
0.54949
0.597713
0.357945
0.5977
0.587304
0.678571
0.597699
0.533201
0.597709
0.487308
0.358183
0.490368
0.680437
0.597723
0.5977
0.5977
0.431751
0.5977
0.700572
0.596101
0.5977
0.5977
0.5977
0.386359
0.672527
0.597721
0.619936
0.679981
0.571325
0.424818
0.715433
0.597721
0.595483
0.597704
0.584662
0.5977
0.59569
0.359139
0.493712
0.464439
0.5977
0.495054
0.442952
0.478461
0.457181
0.689157
0.68908
0.597697
0.5977
0.597702
0.709115
0.594762
0.429609
0.5977
0.574885
0.679962
0.570028
0.59415
0.597699
0.680551
0.701301
0.5977
0.597723
0.419166
0.5977
0.692243
0.680461
0.5977
0.624893
0.584174
0.358016
0.597637
0.5977
0.5977
0.580563
0.56109
0.5977
0.69104
0.5977
0.690171
0.693431
0.700239
0.597703
0.5977
0.680264
0.358349
0.680732
0.580401
0.498869
0.35809
0.688816
0.680075
0.573164
0.680467
0.5977
0.358445
0.680333
0.680339
0.61862
0.587162
0.424173
0.68023
0.35825
0.358317
0.498055
0.358077
0.680604
0.451308
0.688048
0.582311
0.625241
0.690186
0.680616
0.687981
0.358254
0.358314
0.680274
0.693131
0.5977
0.689081
0.69005
0.597715
0.395557
0.584623
0.680559
0.5977
0.358472
0.597712
0.543299
0.695977
0.680366
0.578568
0.537544
0.678539
0.596354
0.680618
0.5977
0.518021
0.589125
0.5977
0.608208
0.531792
0.701719
0.699816
0.680173
0.430397
0.556779
0.482847
0.666852
0.5977
0.358362
0.597344
0.542494
0.671042
0.550718
0.378521
0.59773
0.680313
0.6779
0.375064
0.540314
0.358009
0.680545
0.542924
0.680436
0.479284
0.5977
0.690295
0.597699
0.522646
0.51319
0.597714
0.586698
0.702084
0.419636
0.445554
0.680297
0.444056
0.680405
0.679442
0.677451
0.358517
0.679961
0.62941
0.690148
0.68059
0.699145
0.680047
0.50599
0.680422
0.594382
0.680657
0.362925
0.693249
0.5977
0.39765
0.680283
0.679517
0.406625
0.5977
0.534583
0.477348
0.680247
0.680485
0.541788
0.491358
0.370108
0.506672
0.696713
0.597704
0.425283
0.362265
0.680022
0.680419
0.5977
0.637451
0.680504
0.361602
0.693061
0.597724
0.689883
0.597728
0.5977
0.597716
0.680041
0.5977
0.5977
0.592167
0.584563
0.680724
0.5977
0.5977
0.608735
0.480564
0.597682
0.690982
0.589264
0.5977
0.675385
0.597726
0.680336
0.5977
0.574435
0.679925
0.5977
0.525512
0.664073
0.552388
0.688267
0.470088
0.680485
0.629706
0.595519
0.680317
0.59462
0.679692
0.5977
0.604179
0.5977
0.571218
0.5977
0.538532
0.468376
0.558113
0.5977
0.680392
0.683362
0.358562
0.575648
0.671305
0.690694
0.680386
0.690413
0.358079
0.5977
0.689925
0.358822
0.541823
0.680488
0.680674
0.67854
0.511682
0.5977
0.597725
0.612645
0.680118
0.680289
0.679894
0.35831
0.680398
0.683082
0.593904
0.680176
0.679828
0.593845
0.676668
0.358233
0.597701
0.690571
0.597719
0.595877
0.680417
0.690525
0.5977
0.597697
0.5977
0.5977
0.358242
0.358235
0.378646
0.35802
0.618191
0.597703
0.680251
0.574768
0.357931
0.680555
0.5977
0.455098
0.578028
0.597715
0.5977
0.680575
0.680621
0.597702
0.358018
0.358181
0.555831
0.533384
0.358306
0.425152
0.680165
0.597746
0.358246
0.5977
0.68031
0.711991
0.68036
0.680702
0.42617
0.459748
0.373345
0.5977
0.597723
0.528641
0.5977
0.5977
0.679885
0.680343
0.516832
0.358441
0.690011
0.358351
0.679829
0.647019
0.680153
0.542136
0.358359
0.690491
0.68054
0.5977
0.454614
0.680624
0.680464
0.5977
0.691265
0.691331
0.553323
0.598751
0.358206
0.680688
0.680485
0.5977
0.591048
0.558112
0.708581
0.553512
0.680134
0.442913
0.472371
0.358372
0.680086
0.5977
0.358386
0.674289
0.679522
0.530913
0.5977
0.597641
0.5977
0.5977
0.52382
0.690371
0.597702
0.358434
0.5977
0.680209
0.498109
0.698622
0.449936
0.510298
0.5977
0.5977
0.597709
0.680435
0.384442
0.606257
0.489288
0.521414
0.680457
0.358436
0.5977
0.54083
0.5977
0.5977
0.555549
0.70029
0.477075
0.450891
0.5977
0.5977
0.6804
0.5977
0.5977
0.680529
0.59688
0.5977
0.5977
0.708923
0.693839
0.680262
0.579884
0.358344
0.5977
0.707874
0.696164
0.597727
0.680261
0.5977
0.5977
0.540886
0.5977
0.5977
0.557638
0.670819
0.597703
0.597701
0.680419
0.5977
0.531432
0.5977
0.597715
0.692421
0.680652
0.569305
0.699191
0.688304
0.482457
0.516614
0.410056
0.558161
0.3627
0.5977
0.663315
0.5977
0.556418
0.680666
0.478013
0.5977
0.680402
0.680288
0.5977
0.680488
0.5977
0.5977
0.5977
0.680578
0.473551
0.680383
0.680619
0.5977
0.576302
0.5965
0.561503
0.480536
0.502605
0.692254
0.35837
0.568729
0.37343
0.693051
0.428227
0.597716
0.50663
0.595118
0.689754
0.5977
0.560047
0.5977
0.680561
0.358727
0.5977
0.689056
0.526824
0.5977
0.68034
0.690238
0.679848
0.577855
0.5977
0.680288
0.680245
0.597701
0.358263
0.597703
0.680547
0.557084
0.605548
0.558245
0.5977
0.679482
0.5977
0.679277
0.358308
0.481701
0.556938
0.68731
0.680337
0.446192
0.680391
0.5977
0.5977
0.469423
0.59451
0.688519
0.688849
0.5977
0.597725
0.680299
0.609756
0.382281
0.5977
0.597702
0.383875
0.532341
0.462844
0.715133
0.546492
0.358349
0.680666
0.5977
0.692845
0.5977
0.392022
0.391872
0.689038
0.474836
0.438184
0.680383
0.531985
0.596685
0.5977
0.699845
0.680163
0.357903
0.597729
0.365666
0.679067
0.516862
0.680157
0.441126
0.678911
0.699086
0.680572
0.673431
0.678752
0.678938
0.680496
0.688156
0.680197
0.446202
0.36209
0.658681
0.680399
0.597709
0.714269
0.5977
0.680464
0.5977
0.586751
0.68024
0.689331
0.680986
0.379732
0.680171
0.557678
0.680636
0.597714
0.5977
0.680539
0.525479
0.68047
0.358083
0.5977
0.622295
0.430969
0.5977
0.558228
0.695371
0.398219
0.680133
0.358039
0.540424
0.546065
0.358415
0.5977
0.483586
0.5977
0.680433
0.597725
0.555675
0.597716
0.5977
0.5977
0.597702
0.358435
0.420716
0.379236
0.503515
0.558784
0.5977
0.705888
0.593448
0.680062
0.666887
0.459149
0.689571
0.5977
0.680506
0.368069
0.649155
0.589689
0.677593
0.69373
0.494517
0.679611
0.679923
0.679991
0.5977
0.680341
0.542958
0.548049
0.680585
0.5977
0.35837
0.68045
0.528181
0.5977
0.5977
0.685315
0.680394
0.535738
0.716556
0.597698
0.379955
0.5977
0.680098
0.682643
0.685582
0.5977
0.540954
0.688041
0.498064
0.59771
0.688561
0.67148
0.680264
0.374942
0.5476
0.690255
0.551928
0.680573
0.5977
0.597724
0.568034
0.680163
0.539066
0.680434
0.680783
0.5977
0.540824
0.477214
0.5977
0.5977
0.5977
0.5977
0.680232
0.597486
0.679012
0.558149
0.677942
0.401808
0.564305
0.679325
0.680381
0.5977
0.597721
0.471611
0.597707
0.474426
0.680499
0.5977
0.597723
0.680502
0.358145
0.699991
0.526221
0.68674
0.519956
0.680169
0.680392
0.53042
0.698902
0.5977
0.536605
0.680259
0.680453
0.5977
0.48265
0.597727
0.5977
0.660825
0.597702
0.584013
0.5977
0.679329
0.68039
0.557615
0.5977
0.68003
0.595706
0.680295
0.680498
0.566229
0.6805
0.679764
0.516699
0.5977
0.383293
0.5977
0.391214
0.511057
0.679595
0.358214
0.358015
0.471856
0.680168
0.679685
0.597697
0.680265
0.597689
0.597703
0.358142
0.67938
0.597724
0.680381
0.680743
0.5977
0.68001
0.5977
0.680418
0.680471
0.562469
0.5977
0.5977
0.5977
0.677938
0.597714
0.5977
0.688192
0.358935
0.5977
0.597715
0.680405
0.444457
0.550349
0.597701
0.680555
0.358618
0.681351
0.5977
0.558123
0.69059
0.65979
0.358251
0.689792
0.358407
0.536196
0.699541
0.597704
0.692318
0.679018
0.521706
0.397063
0.368554
0.674186
0.680359
0.59772
0.698639
0.43744
0.397462
0.451762
0.699144
0.59773
0.68892
0.680406
0.5977
0.680438
0.680005
0.5977
0.5977
0.596418
0.535095
0.358388
0.656064
0.647412
0.452313
0.5977
0.714887
0.5977
0.570415
0.5977
0.596557
0.567009
0.597703
0.5977
0.358341
0.680169
0.644853
0.358194
0.680106
0.433097
0.680541
0.692973
0.679723
0.478769
0.597667
0.5977
0.570241
0.595129
0.680548
0.576223
0.680087
0.680272
0.702303
0.5977
0.597694
0.68014
0.5977
0.68032
0.584425
0.689859
0.504512
0.47369
0.680414
0.680556
0.680095
0.559629
0.680511
0.5977
0.650598
0.426562
0.437912
0.358224
0.682279
0.377804
0.443594
0.518682
0.5977
0.439294
0.568374
0.596923
0.680051
0.35811
0.680003
0.6804
0.678872
0.403873
0.680128
0.5977
0.680046
0.595491
0.5977
0.393362
0.358834
0.680159
0.358636
0.5977
0.669043
0.557089
0.358085
0.576208
0.401864
0.5977
0.558365
0.561682
0.680424
0.680185
0.5977
0.358167
0.494235
0.579291
0.597674
0.358334
0.558219
0.5977
0.680372
0.680723
0.360822
0.5977
0.509569
0.5977
0.5977
0.69046
0.5977
0.5977
0.5977
0.597701
0.684563
0.371755
0.597697
0.446836
0.5977
0.5977
0.670149
0.358098
0.597728
0.641231
0.680399
0.680339
0.358423
0.683071
0.5977
0.5977
0.597703
0.568043
0.358353
0.567786
0.680517
0.680508
0.5977
0.710831
0.579312
0.695705
0.5977
0.680495
0.680232
0.694579
0.689591
0.680548
0.597551
0.67748
0.581021
0.680027
0.68968
0.679991
0.680175
0.680638
0.5977
0.35833
0.525118
0.5977
0.358274
0.597722
0.689595
0.464468
0.5977
0.680641
0.668036
0.68095
0.572232
0.695236
0.547956
0.46635
0.680497
0.679745
0.68033
0.413854
0.688569
0.680466
0.5977
0.680562
0.519474
0.680133
0.690235
0.59567
0.5977
0.597703
0.361036
0.687157
0.440353
0.358338
0.5977
0.597719
0.690417
0.591818
0.679868
0.510455
0.680269
0.597699
0.471093
0.704983
0.597716
0.358206
0.680387
0.535698
0.597704
0.5977
0.589559
0.679437
0.597715
0.5977
0.5977
0.680428
0.5977
0.683924
0.5977
0.692052
0.710577
0.5977
0.511661
0.365441
0.597721
0.681794
0.562119
0.5977
0.687593
0.5977
0.680369
0.5977
0.5977
0.5977
0.368864
0.678218
0.718833
0.5977
0.717695
0.688488
0.701781
0.680515
0.358113
0.454978
0.680747
0.5977
0.5977
0.680583
0.680546
0.680149
0.692216
0.694283
0.5977
0.597174
0.689565
0.459334
0.541407
0.450024
0.595144
0.569468
0.597697
0.5977
0.680578
0.5977
0.547502
0.680828
0.688357
0.420529
0.595784
0.603948
0.680312
0.589545
0.514159
0.499907
0.558216
0.702486
0.5977
0.400728
0.358414
0.524691
0.597643
0.358282
0.694193
0.680811
0.618478
0.374201
0.673309
0.5977
0.5977
0.579244
0.358542
0.704042
0.560555
0.358205
0.680091
0.358173
0.597703
0.576858
0.67966
0.376627
0.679902
0.688384
0.39696
0.5977
0.556494
0.689689
0.533762
0.5977
0.519915
0.5977
0.391198
0.5977
0.358446
0.679931
0.68037
0.5977
0.678302
0.583852
0.679437
0.679971
0.688529
0.5977
0.597704
0.358341
0.5977
0.448361
0.581423
0.566528
0.688422
0.5977
0.597703
0.690202
0.5977
0.677705
0.472837
0.460102
0.457956
0.5977
0.5977
0.68039
0.368201
0.533926
0.680428
0.589227
0.535652
0.5977
0.59697
0.358149
0.522678
0.692025
0.5977
0.5977
0.497123
0.679013
0.68033
0.524697
0.57845
0.679556
0.680639
0.5977
0.5977
0.592713
0.584442
0.398469
0.696686
0.5977
0.5977
0.5977
0.496426
0.5977
0.358858
0.680265
0.687693
0.358346
0.548774
0.5977
0.5977
0.687761
0.679623
0.683317
0.693844
0.688807
0.416988
0.52751
0.452718
0.360768
0.5977
0.680123
0.5977
0.358133
0.358516
0.5977
0.530524
0.680237
0.591855
0.358384
0.578214
0.680689
0.531467
0.5977
0.665713
0.679835
0.680328
0.5977
0.358356
0.386178
0.597639
0.358398
0.5977
0.597697
0.680435
0.680412
0.560084
0.358267
0.558115
0.35893
0.680467
0.581558
0.358117
0.4855
0.424363
0.680362
0.427784
0.558307
0.590061
0.5977
0.520461
0.5977
0.679303
0.680786
0.377291
0.68059
0.5977
0.540024
0.680563
0.690651
0.371764
0.358363
0.699289
0.360913
0.360881
0.679953
0.581938
0.680377
0.5977
0.597638
0.5977
0.687018
0.680301
0.680264
0.371119
0.592978
0.5977
0.680501
0.597647
0.689864
0.588414
0.680194
0.679128
0.5977
0.5977
0.5977
0.59771
0.680585
0.678942
0.712037
0.688852
0.680676
0.55078
0.691144
0.558102
0.699184
0.70394
0.694816
0.558357
0.680358
0.540634
0.703314
0.555807
0.680133
0.680098
0.591719
0.67886
0.5977
0.476612
0.400909
0.573661
0.372566
0.678325
0.368883
0.371754
0.597701
0.514516
0.597697
0.394114
0.679686
0.680033
0.358259
0.588709
0.597724
0.678811
0.491353
0.680432
0.680667
0.409431
0.704734
0.5977
0.597696
0.58364
0.525341
0.5977
0.358383
0.678147
0.5977
0.564469
0.679992
0.680408
0.680008
0.358194
0.5977
0.521625
0.674141
0.680485
0.680179
0.358223
0.680254
0.680416
0.714312
0.597725
0.678727
0.358296
0.357991
0.685583
0.597696
0.690914
0.5977
0.358228
0.597706
0.698935
0.555031
0.541695
0.473883
0.5977
0.673749
0.680542
0.460648
0.5977
0.680537
0.5977
0.5977
0.597723
0.5977
0.358257
0.358037
0.680547
0.358007
0.358397
0.691329
0.689504
0.424997
0.5977
0.420542
0.571298
0.595754
0.702968
0.680423
0.5977
0.680055
0.499662
0.357905
0.539076
0.680534
0.703939
0.5977
0.5977
0.586559
0.570253
0.680383
0.368304
0.680436
0.587425
0.680177
0.5977
0.394726
0.508153
0.358123
0.358273
0.52586
0.5977
0.6783
0.374192
0.680011
0.5977
0.571886
0.475009
0.688919
0.358238
0.679913
0.595118
0.5977
0.5977
0.680103
0.675287
0.46211
0.692399
0.680045
0.691521
0.358222
0.597702
0.5977
0.597724
0.685346
0.5977
0.694749
0.679956
0.68918
0.695098
0.690649
0.679972
0.680472
0.358326
0.59232
0.358195
0.5977
0.68074
0.536476
0.680369
0.58893
0.527442
0.716222
0.358243
0.536211
0.698582
0.597702
0.689386
0.35824
0.680195
0.5977
0.588986
0.375116
0.700118
0.680331
0.593568
0.48783
0.60981
0.689098
0.358379
0.5977
0.687916
0.5977
0.414689
0.358211
0.529037
0.5977
0.521886
0.680848
0.5977
0.680151
0.5977
0.680173
0.358169
0.682828
0.5977
0.688352
0.5977
0.554249
0.374206
0.503726
0.597705
0.679987
0.593945
0.5977
0.597725
0.5977
0.680346
0.484968
0.5977
0.680855
0.5977
0.380682
0.387231
0.596928
0.680822
0.690216
0.5977
0.597699
0.680591
0.358173
0.5977
0.607631
0.680013
0.38494
0.5977
0.533115
0.655169
0.514861
0.680128
0.698511
0.491126
0.680632
0.5977
0.558125
0.5977
0.558202
0.693083
0.597699
0.680465
0.680506
0.680105
0.680207
0.597712
0.601018
0.439027
0.680431
0.49845
0.358348
0.514028
0.520056
0.358188
0.379175
0.688701
0.585591
0.4493
0.5977
0.680627
0.67934
0.5977
0.5977
0.5977
0.680276
0.552579
0.5977
0.680207
0.566802
0.500386
0.357948
0.5977
0.597706
0.358153
0.5977
0.519209
0.672652
0.597709
0.412723
0.597717
0.5977
0.596977
0.680348
0.486731
0.5977
0.59293
0.69599
0.597655
0.5977
0.610432
0.720719
0.5977
0.358431
0.697404
0.688988
0.505148
0.540571
0.680549
0.358377
0.597702
0.373718
0.5977
0.501627
0.680207
0.52939
0.688937
0.358283
0.680344
0.680104
0.683783
0.568582
0.436728
0.52839
0.5977
0.701065
0.597701
0.704196
0.5977
0.528887
0.676255
0.59772
0.704035
0.597701
0.5977
0.566196
0.662604
0.679927
0.516078
0.680303
0.696664
0.676263
0.597343
0.491006
0.5977
0.358111
0.678864
0.526052
0.680244
0.706338
0.699614
0.689118
0.569223
0.689092
0.358129
0.375739
0.680557
0.587827
0.5977
0.680713
0.575789
0.358175
0.5977
0.69668
0.69136
0.540735
0.597721
0.5977
0.373265
0.680156
0.694157
0.68029
0.694655
0.565639
0.5977
0.5977
0.499441
0.677998
0.689035
0.5977
0.699329
0.560598
0.597656
0.5977
0.5977
0.698917
0.387538
0.55867
0.680254
0.68019
0.517387
0.591154
0.517084
0.518423
0.448016
0.533318
0.578034
0.358334
0.680109
0.495946
0.415271
0.597179
0.5977
0.557748
0.597715
0.358164
0.68048
0.5977
0.5977
0.690486
0.597146
0.5977
0.680277
0.5977
0.679219
0.487147
0.680478
0.680566
0.424157
0.357956
0.5977
0.591955
0.5977
0.689208
0.680291
0.68025
0.679977
0.5977
0.680466
0.680544
0.700052
0.358471
0.680383
0.5977
0.597697
0.597723
0.423081
0.510027
0.450573
0.5977
0.5977
0.660926
0.358042
0.590668
0.688146
0.529354
0.680574
0.680471
0.680421
0.5977
0.68053
0.561125
0.514946
0.505712
0.5977
0.521067
0.680428
0.50593
0.680235
0.680124
0.679979
0.588222
0.5977
0.597696
0.679928
0.471466
0.358422
0.694863
0.679388
0.5977
0.680388
0.700764
0.597702
0.358383
0.5977
0.686047
0.5977
0.679832
0.678282
0.596325
0.596202
0.594166
0.691465
0.597711
0.5977
0.358064
0.590359
0.680612
0.5977
0.522113
0.658629
0.5977
0.680942
0.679896
0.358379
0.358505
0.67967
0.5977
0.5977
0.680441
0.70012
0.537233
0.680644
0.680152
0.679139
0.35826
0.5977
0.358395
0.68033
0.687765
0.597704
0.613636
0.680013
0.571951
0.597709
0.678948
0.35815
0.5977
0.556198
0.680201
0.476077
0.5977
0.686025
0.678947
0.358321
0.558242
0.653989
0.359538
0.592518
0.524132
0.691603
0.358354
0.386275
0.48773
0.595394
0.680352
0.577229
0.572848
0.702059
0.688168
0.597705
0.5977
0.358246
0.5977
0.358307
0.675518
0.358216
0.5977
0.697535
0.59575
0.5977
0.38159
0.680384
0.436262
0.358862
0.692348
0.558133
0.597702
0.5977
0.485814
0.68865
0.680598
0.699909
0.5977
0.554131
0.5977
0.540474
0.357864
0.680048
0.680449
0.593331
0.358235
0.597574
0.5977
0.690448
0.5977
0.689002
0.5977
0.596771
0.590247
0.689903
0.689408
0.5977
0.690075
0.537289
0.593004
0.358321
0.530987
0.520434
0.357975
0.690594
0.680502
0.6901
0.67252
0.679842
0.584687
0.5977
0.558979
0.497563
0.360071
0.51034
0.358102
0.680163
0.680329
0.359181
0.477814
0.680381
0.566818
0.597697
0.666793
0.5977
0.5977
0.5977
0.651453
0.597698
0.680409
0.680594
0.705357
0.689283
0.5977
0.685473
0.680393
0.542245
0.467907
0.674427
0.597272
0.547188
0.57264