# vtk DataFile Version 1.0
unstructured grid
ascii
DATASET UNSTRUCTURED_GRID
points 13672 float
0.0796578 -0.059106 0
0.00128732 0.00159165 0
0.00227961 -0.00102548 0
0.0791586 -0.0598787 0
-0.0546216 0.01 0
0.000495206 0.025 0
0.0800549 -0.035 0
0.135172 -0.08 0
-0.0546216 -0.0451168 0
0.000495206 -0.0301168 0
0.0800549 -0.0901168 0
0.135172 -0.135117 0
-0.0546216 -0.0451168 -0.00551168
0.000495206 -0.0301168 -0.00551168
0.0800549 -0.0901168 -0.00551168
0.135172 -0.135117 -0.00551168
0.135172 -0.08 -0.00551168
0.0800549 -0.035 -0.00551168
0.000495206 0.025 -0.00551168
-0.0546216 0.01 -0.00551168
0.00128732 0.00159165 -0.00551168
0.00227961 -0.00102548 -0.00551168
0.0791586 -0.0598787 -0.00551168
0.0796578 -0.059106 -0.00551168
0.00165953 -0.000990923 0
0.00119576 -0.000874076 0
0.000866021 -0.000641801 0
0.000645147 -0.000349912 0
0.00052235 -1.7281e-05 0
0.00049972 0.000348016 0
0.000601632 0.000737716 0
0.000861774 0.0011403 0
0.00157235 0.00183217 0
0.00188647 0.00206725 0
0.00222612 0.00230203 0
0.00258713 0.00254351 0
0.00296826 0.00279524 0
0.00337118 0.00305664 0
0.00379785 0.00332658 0
0.00425045 0.00360349 0
0.00473139 0.00388521 0
0.0052432 0.00416895 0
0.0057881 0.00445204 0
0.00636753 0.00473281 0
0.00698281 0.00500961 0
0.00763526 0.00528058 0
0.00832616 0.00554366 0
0.00905691 0.00579603 0
0.00982918 0.00603333 0
0.0106445 0.00625033 0
0.0115038 0.00644128 0
0.0124073 0.00660297 0
0.0133543 0.00673414 0
0.0143444 0.00683382 0
0.0153769 0.00690031 0
0.0164512 0.00693173 0
0.0175666 0.00692547 0
0.0187219 0.00687822 0
0.0199156 0.00678477 0
0.0211454 0.00663864 0
0.0224084 0.00643275 0
0.0237018 0.00616676 0
0.0250249 0.00584739 0
0.026375 0.00547298 0
0.0277479 0.00503752 0
0.0291386 0.00453545 0
0.0305433 0.0039653 0
0.0319572 0.0033256 0
0.0333681 0.00260019 0
0.034775 0.00179799 0
0.0361793 0.000930615 0
0.0375798 3.12222e-06 0
0.0389689 -0.000988429 0
0.0403357 -0.00205109 0
0.041675 -0.00318283 0
0.0429849 -0.00437751 0
0.0442643 -0.00562904 0
0.0455126 -0.00693089 0
0.0467314 -0.00827518 0
0.0479204 -0.00965638 0
0.0490661 -0.0110799 0
0.0501515 -0.0125519 0
0.0511696 -0.0140695 0
0.0521492 -0.0156071 0
0.0531202 -0.0171411 0
0.0540851 -0.0186663 0
0.0550431 -0.0201798 0
0.0559923 -0.0216793 0
0.0569311 -0.0231626 0
0.0578582 -0.0246273 0
0.0587723 -0.0260715 0
0.0596721 -0.027493 0
0.0605563 -0.02889 0
0.0614241 -0.0302609 0
0.0622742 -0.0316042 0
0.063106 -0.0329183 0
0.0639186 -0.034202 0
0.0647113 -0.0354543 0
0.0654835 -0.0366743 0
0.0662345 -0.0378613 0
0.0669642 -0.0390145 0
0.0676726 -0.0401333 0
0.0683597 -0.0412172 0
0.0690246 -0.0422665 0
0.0696662 -0.0432819 0
0.0702841 -0.0442636 0
0.0708793 -0.0452111 0
0.0714538 -0.0461237 0
0.072009 -0.047001 0
0.0725452 -0.0478434 0
0.0730611 -0.0486524 0
0.073556 -0.0494294 0
0.0740291 -0.0501756 0
0.0744812 -0.0508916 0
0.0749138 -0.0515773 0
0.0753285 -0.0522331 0
0.0757266 -0.0528592 0
0.076109 -0.0534564 0
0.0764753 -0.0540264 0
0.0768243 -0.054571 0
0.0771553 -0.0550919 0
0.0774679 -0.0555901 0
0.0777617 -0.0560669 0
0.0780369 -0.056523 0
0.0782958 -0.0569578 0
0.0785421 -0.0573703 0
0.0787786 -0.0577603 0
0.0790073 -0.0581279 0
0.0792295 -0.058474 0
0.0794462 -0.0587995 0
0.0798803 -0.0594162 0
0.0800272 -0.0596588 0
0.0800357 -0.0598891 0
0.0799275 -0.0600784 0
0.0797205 -0.0601773 0
0.0794593 -0.0601051 0
0.0789155 -0.0596491 0
0.0786707 -0.0593963 0
0.0784111 -0.0591319 0
0.0781372 -0.0588542 0
0.0778566 -0.0585548 0
0.0775715 -0.0582308 0
0.0772803 -0.0578828 0
0.0769832 -0.0575099 0
0.0766822 -0.0571097 0
0.0763801 -0.0566796 0
0.0760759 -0.0562196 0
0.0757623 -0.0557337 0
0.0754359 -0.0552232 0
0.0750951 -0.0546879 0
0.0747379 -0.054128 0
0.0743626 -0.0535435 0
0.0739688 -0.0529338 0
0.0735559 -0.0522981 0
0.0731238 -0.0516357 0
0.0726718 -0.050946 0
0.0721991 -0.0502288 0
0.0717046 -0.049484 0
0.0711872 -0.0487117 0
0.0706461 -0.047912 0
0.0700804 -0.0470849 0
0.0694892 -0.0462308 0
0.0688718 -0.0453499 0
0.0682271 -0.0444431 0
0.0675544 -0.043511 0
0.0668527 -0.0425546 0
0.0661215 -0.0415748 0
0.06536 -0.040573 0
0.0645676 -0.0395504 0
0.0637439 -0.0385087 0
0.0628887 -0.0374493 0
0.062002 -0.0363741 0
0.0610838 -0.0352847 0
0.0601345 -0.0341831 0
0.0591547 -0.033071 0
0.0581456 -0.0319502 0
0.0571083 -0.0308224 0
0.0560444 -0.0296893 0
0.0549562 -0.028552 0
0.053845 -0.0274126 0
0.0527113 -0.0262746 0
0.051554 -0.0251427 0
0.0503724 -0.0240222 0
0.0491675 -0.0229164 0
0.047941 -0.0218282 0
0.0466955 -0.0207597 0
0.0454337 -0.0197126 0
0.0441592 -0.0186878 0
0.0428751 -0.0176863 0
0.0415841 -0.0167097 0
0.0402878 -0.0157609 0
0.0389879 -0.0148428 0
0.0376864 -0.0139575 0
0.0363853 -0.013107 0
0.0350871 -0.0122931 0
0.0337942 -0.0115164 0
0.0325095 -0.0107772 0
0.0312357 -0.0100756 0
0.0299758 -0.00941024 0
0.0287337 -0.00877784 0
0.0275126 -0.00817571 0
0.0263139 -0.00760375 0
0.0251376 -0.00706528 0
0.0239829 -0.0065649 0
0.0228537 -0.00609619 0
0.0217522 -0.00565563 0
0.0206795 -0.00524226 0
0.0196364 -0.00485507 0
0.0186233 -0.00449318 0
0.0176408 -0.00415577 0
0.016689 -0.00384204 0
0.0157682 -0.00355115 0
0.0148783 -0.00328218 0
0.0140192 -0.00303468 0
0.0131906 -0.00280795 0
0.0123925 -0.00260016 0
0.0116246 -0.00241012 0
0.0108864 -0.00223769 0
0.0101774 -0.00208212 0
0.00949701 -0.00194206 0
0.00884483 -0.0018163 0
0.0082202 -0.0017039 0
0.00762247 -0.00160391 0
0.00705097 -0.00151528 0
0.006505 -0.00143697 0
0.0059838 -0.00136806 0
0.00548662 -0.00130772 0
0.00501265 -0.00125519 0
0.00456114 -0.00120954 0
0.00413136 -0.00116914 0
0.00372257 -0.00113251 0
0.00333398 -0.00109853 0
0.00296466 -0.00106798 0
0.00261363 -0.0010431 0
-0.052721 -0.0445996 0
-0.0508204 -0.0440823 0
-0.0489199 -0.0435651 0
-0.0470193 -0.0430478 0
-0.0451187 -0.0425306 0
-0.0432181 -0.0420134 0
-0.0413175 -0.0414961 0
-0.039417 -0.0409789 0
-0.0375164 -0.0404616 0
-0.0356158 -0.0399444 0
-0.0337152 -0.0394271 0
-0.0318146 -0.0389099 0
-0.0299141 -0.0383927 0
-0.0280135 -0.0378754 0
-0.0261129 -0.0373582 0
-0.0242123 -0.0368409 0
-0.0223117 -0.0363237 0
-0.0204112 -0.0358065 0
-0.0185106 -0.0352892 0
-0.01661 -0.034772 0
-0.0147094 -0.0342547 0
-0.0128088 -0.0337375 0
-0.0109083 -0.0332202 0
-0.00900769 -0.032703 0
-0.00710711 -0.0321858 0
-0.00520653 -0.0316685 0
-0.00330595 -0.0311513 0
-0.00140537 -0.030634 0
0.00190689 -0.0299614 0
0.00332271 -0.0298498 0
0.00474133 -0.0297825 0
0.00616136 -0.0297597 0
0.0075814 -0.0297814 0
0.00900007 -0.0298477 0
0.010416 -0.0299583 0
0.0118278 -0.0301127 0
0.0132342 -0.0303103 0
0.0146339 -0.0305504 0
0.0160259 -0.0308322 0
0.0174091 -0.0311546 0
0.0187824 -0.0315166 0
0.020145 -0.031917 0
0.0214961 -0.0323546 0
0.0228351 -0.032828 0
0.0241613 -0.0333361 0
0.0254744 -0.0338774 0
0.0267738 -0.0344507 0
0.0280592 -0.0350545 0
0.0293306 -0.0356877 0
0.0305875 -0.0363488 0
0.0318301 -0.0370367 0
0.0330581 -0.0377501 0
0.0342717 -0.0384879 0
0.0354708 -0.0392489 0
0.0366556 -0.0400321 0
0.0378262 -0.0408363 0
0.0389828 -0.0416607 0
0.0401254 -0.0425042 0
0.0412543 -0.0433659 0
0.0423698 -0.0442451 0
0.043472 -0.0451408 0
0.0445612 -0.0460523 0
0.0456375 -0.0469789 0
0.0467013 -0.0479199 0
0.0477529 -0.0488746 0
0.0487923 -0.0498424 0
0.04982 -0.0508227 0
0.0508362 -0.051815 0
0.051841 -0.0528187 0
0.0528348 -0.0538333 0
0.0538178 -0.0548584 0
0.0547903 -0.0558935 0
0.0557524 -0.0569382 0
0.0567045 -0.0579922 0
0.0576467 -0.0590549 0
0.0585792 -0.0601261 0
0.0595024 -0.0612055 0
0.0604163 -0.0622926 0
0.0613212 -0.0633873 0
0.0622174 -0.0644891 0
0.0631049 -0.0655979 0
0.0639841 -0.0667134 0
0.064855 -0.0678353 0
0.0657179 -0.0689633 0
0.0665729 -0.0700974 0
0.0674202 -0.0712372 0
0.06826 -0.0723826 0
0.0690925 -0.0735333 0
0.0699178 -0.0746892 0
0.070736 -0.0758501 0
0.0715473 -0.0770159 0
0.0723518 -0.0781863 0
0.0731498 -0.0793612 0
0.0739412 -0.0805405 0
0.0747264 -0.081724 0
0.0755053 -0.0829116 0
0.0762781 -0.0841033 0
0.0770449 -0.0852987 0
0.0778059 -0.0864979 0
0.0785611 -0.0877007 0
0.0793108 -0.088907 0
0.0814681 -0.0912706 0
0.0828814 -0.0924245 0
0.0842946 -0.0935783 0
0.0857079 -0.0947322 0
0.0871211 -0.095886 0
0.0885344 -0.0970399 0
0.0899476 -0.0981937 0
0.0913609 -0.0993476 0
0.0927741 -0.100501 0
0.0941874 -0.101655 0
0.0956006 -0.102809 0
0.0970139 -0.103963 0
0.0984272 -0.105117 0
0.0998404 -0.106271 0
0.101254 -0.107424 0
0.102667 -0.108578 0
0.10408 -0.109732 0
0.105493 -0.110886 0
0.106907 -0.11204 0
0.10832 -0.113194 0
0.109733 -0.114348 0
0.111146 -0.115501 0
0.11256 -0.116655 0
0.113973 -0.117809 0
0.115386 -0.118963 0
0.116799 -0.120117 0
0.118213 -0.121271 0
0.119626 -0.122424 0
0.121039 -0.123578 0
0.122452 -0.124732 0
0.123866 -0.125886 0
0.125279 -0.12704 0
0.126692 -0.128194 0
0.128105 -0.129348 0
0.129519 -0.130501 0
0.130932 -0.131655 0
0.132345 -0.132809 0
0.133758 -0.133963 0
0.135172 -0.133216 0
0.135172 -0.131316 0
0.135172 -0.129415 0
0.135172 -0.127514 0
0.135172 -0.125614 0
0.135172 -0.123713 0
0.135172 -0.121813 0
0.135172 -0.119912 0
0.135172 -0.118012 0
0.135172 -0.116111 0
0.135172 -0.11421 0
0.135172 -0.11231 0
0.135172 -0.110409 0
0.135172 -0.108509 0
0.135172 -0.106608 0
0.135172 -0.104708 0
0.135172 -0.102807 0
0.135172 -0.100906 0
0.135172 -0.0990058 0
0.135172 -0.0971052 0
0.135172 -0.0952046 0
0.135172 -0.0933041 0
0.135172 -0.0914035 0
0.135172 -0.0895029 0
0.135172 -0.0876023 0
0.135172 -0.0857017 0
0.135172 -0.0838012 0
0.135172 -0.0819006 0
0.133758 -0.0788462 0
0.132345 -0.0776923 0
0.130932 -0.0765385 0
0.129519 -0.0753846 0
0.128105 -0.0742308 0
0.126692 -0.0730769 0
0.125279 -0.0719231 0
0.123866 -0.0707692 0
0.122452 -0.0696154 0
0.121039 -0.0684615 0
0.119626 -0.0673077 0
0.118213 -0.0661538 0
0.116799 -0.065 0
0.115386 -0.0638462 0
0.113973 -0.0626923 0
0.11256 -0.0615385 0
0.111146 -0.0603846 0
0.109733 -0.0592308 0
0.10832 -0.0580769 0
0.106907 -0.0569231 0
0.105493 -0.0557692 0
0.10408 -0.0546154 0
0.102667 -0.0534615 0
0.101254 -0.0523077 0
0.0998404 -0.0511538 0
0.0984272 -0.05 0
0.0970139 -0.0488462 0
0.0956006 -0.0476923 0
[...]
CELL_DATA 13116
SCALARS rho float
LOOKUP_TABLE default
0.5977
0.680541
0.480957
0.688161
0.689752
0.680545
0.368084
0.691018
0.5977
0.692402
0.358181
0.483364
0.689934
0.42861
0.446066
0.680537
0.5977
0.715814
0.6803
0.358256
0.5977
0.486883
0.459856
0.703503
0.5977
0.692835
0.692515
0.521496
0.5977
0.5977
0.67967
0.470109
0.5977
0.59771
0.373079
0.5977
0.597701
0.679349
0.680161
0.691755
0.680383
0.691473
0.5977
0.457395
0.680418
0.68022
0.698846
0.680618
0.47509
0.5977
0.689711
0.5977
0.392962
0.5977
0.5977
0.5977
0.455216
0.693941
0.5977
0.46085
0.43179
0.690489
0.69181
0.680184
0.680324
0.410204
0.679518
0.597702
0.680441
0.680397
0.445518
0.5977
0.491765
0.436579
0.618944
0.41539
0.592942
0.687772
0.358929
0.596448
0.657771
0.693002
0.698
0.680499
0.695997
0.566438
0.378511
0.5977
0.693773
0.3583
0.479436
0.680552
0.698564
0.693191
0.5977
0.5977
0.5977
0.670894
0.657537
0.5977
0.5977
0.627203
0.680231
0.597724
0.692538
0.467976
0.542033
0.5977
0.493139
0.5977
0.5977
0.693043
0.5977
0.619564
0.614574
0.686435
0.397707
0.562913
0.686687
0.688881
0.5977
0.504826
0.683383
0.479953
0.693736
0.594694
0.383737
0.597706
0.480075
0.597699
0.686823
0.6798
0.594268
0.479409
0.588771
0.5977
0.558142
0.686967
0.5977
0.689122
0.597705
0.699155
0.597703
0.597704
0.679354
0.441589
0.371089
0.692901
0.689933
0.690271
0.597701
0.680395
0.680741
0.382193
0.692195
0.695145
0.469665
0.5977
0.670546
0.5977
0.702527
0.358153
0.693082
0.472106
0.510957
0.689948
0.693691
0.710224
0.371164
0.579354
0.566056
0.558259
0.442917
0.597708
0.681606
0.459101
0.459669
0.490499
0.692305
0.679999
0.358383
0.582586
0.5977
0.597704
0.680111
0.5977
0.381786
0.680263
0.691058
0.597722
0.5977
0.69295
0.680523
0.480357
0.691601
0.680193
0.694626
0.680368
0.693955
0.597714
0.597713
0.5977
0.59771
0.442563
0.686511
0.680311
0.5977
0.5977
0.451614
0.358175
0.412529
0.680367
0.47542
0.358333
0.358131
0.386405
0.55696
0.680346
0.693991
0.561699
0.44828
0.67978
0.5977
0.358384
0.597704
0.69102
0.678831
0.522393
0.680534
0.551143
0.691583
0.47116
0.680252
0.5977
0.646643
0.693258
0.680399
0.482714
0.594353
0.5977
0.587075
0.680198
0.558137
0.680146
0.691567
0.464388
0.688163
0.691454
0.661218
0.362223
0.478774
0.680242
0.686837
0.680218
0.682405
0.5977
0.597521
0.35796
0.497044
0.589652
0.449396
0.692154
0.694996
0.592432
0.365349
0.687091
0.393668
0.564761
0.693064
0.362119
0.692542
0.689595
0.555908
0.693097
0.480242
0.554356
0.677584
0.670254
0.687077
0.358097
0.371842
0.480404
0.5977
0.500827
0.494408
0.533288
0.521798
0.68312
0.401084
0.693727
0.688697
0.372694
0.358225
0.389046
0.589847
0.513872
0.5977
0.597701
0.691929
0.360537
0.680174
0.5977
0.502724
0.459931
0.679983
0.686949
0.680435
0.386055
0.680152
0.597726
0.679831
0.691315
0.690357
0.691157
0.48233
0.679712
0.426949
0.680234
0.690551
0.5977
0.358324
0.531691
0.690897
0.389346
0.699278
0.690306
0.574591
0.5977
0.69718
0.37957
0.686049
0.698619
0.424944
0.687015
0.564683
0.597699
0.693832
0.566678
0.5977
0.365159
0.702554
0.536494
0.680281
0.691463
0.694176
0.517419
0.544689
0.695528
0.379232
0.686159
0.691313
0.580261
0.558193
0.37942
0.472589
0.686068
0.597699
0.597706
0.376381
0.472239
0.688072
0.688755
0.367029
0.688481
0.411024
0.47277
0.690059
0.693356
0.5977
0.35834
0.687194
0.679988
0.680531
0.693669
0.688404
0.597699
0.575298
0.441392
0.358483
0.680516
0.358454
0.5977
0.573743
0.479988
0.541269
0.5977
0.468989
0.375118
0.694921
0.488467
0.693044
0.5977
0.680327
0.5977
0.688503
0.476274
0.369913
0.597714
0.555488
0.685807
0.5977
0.68023
0.5977
0.679486
0.5977
0.693149
0.5977
0.5977
0.687049
0.589026
0.680314
0.59275
0.597699
0.5977
0.478275
0.597701
0.5977
0.390979
0.68233
0.554803
0.483603
0.358401
0.358331
0.374331
0.5977
0.409084
0.479961
0.680449
0.409529
0.5977
0.35846
0.680349
0.680683
0.539576
0.47974
0.685856
0.587132
0.35825
0.373799
0.358265
0.492965
0.370317
0.358391
0.502129
0.567337
0.358149
0.634201
0.536503
0.694608
0.597711
0.479742
0.58866
0.444841
0.358316
0.44676
0.691548
0.574311
0.5977
0.5977
0.404503
0.5977
0.69368
0.565267
0.5977
0.5977
0.5977
0.36916
0.649347
0.563089
0.691725
0.677189
0.489666
0.398708
0.691407
0.56147
0.565986
0.692085
0.541334
0.5977
0.677938
0.358327
0.455227
0.430952
0.597709
0.456104
0.412998
0.442563
0.424499
0.689228
0.689573
0.592168
0.5977
0.590935
0.691554
0.54809
0.402682
0.5977
0.491551
0.680573
0.522657
0.550547
0.592926
0.680439
0.693505
0.597699
0.575092
0.394109
0.597699
0.690882
0.680531
0.597699
0.695067
0.691075
0.358232
0.680106
0.5977
0.5977
0.530812
0.511973
0.603124
0.694839
0.5977
0.69076
0.694733
0.693967
0.701446
0.5977
0.68028
0.35832
0.680306
0.539952
0.45823
0.358536
0.689014
0.680242
0.526556
0.695661
0.5977
0.358265
0.680294
0.68704
0.68521
0.519489
0.398256
0.686744
0.35824
0.358278
0.453917
0.358308
0.680521
0.419405
0.688185
0.531255
0.681161
0.68951
0.680155
0.689398
0.358247
0.358425
0.679885
0.691409
0.596941
0.689483
0.691749
0.583158
0.375774
0.496946
0.680293
0.5977
0.358277
0.585767
0.479871
0.693196
0.680201
0.529101
0.49194
0.69525
0.568898
0.691616
0.5977
0.474955
0.550636
0.597517
0.574336
0.47544
0.693198
0.693676
0.680059
0.403365
0.557859
0.44662
0.635399
0.5977
0.358326
0.555243
0.496183
0.645437
0.49611
0.364061
0.566009
0.680147
0.683502
0.362199
0.493707
0.358463
0.680167
0.496533
0.680185
0.439217
0.5977
0.690949
0.597651
0.468944
0.462937
0.583978
0.499655
0.693119
0.394658
0.415687
0.680376
0.414328
0.680547
0.69906
0.663901
0.358152
0.680112
0.695131
0.694746
0.680216
0.69431
0.690396
0.457052
0.680559
0.563326
0.680304
0.358268
0.69129
0.5977
0.377246
0.680445
0.689274
0.384329
0.5977
0.478355
0.441778
0.680386
0.691796
0.481431
0.447257
0.360061
0.457934
0.693745
0.70569
0.399223
0.35855
0.685971
0.687359
0.5977
0.694683
0.680221
0.358018
0.693509
0.56935
0.689442
0.571592
0.5977
0.583155
0.680253
0.597707
0.5977
0.544127
0.511464
0.680336
0.5977
0.5977
0.69421
0.442956
0.679282
0.692329
0.554323
0.5977
0.695269
0.568275
0.680593
0.5977
0.530643
0.689431
0.5977
0.482074
0.681226
0.479141
0.695079
0.436104
0.680422
0.699403
0.509237
0.680245
0.693375
0.686812
0.5977
0.680216
0.5977
0.521398
0.597728
0.484452
0.43466
0.558185
0.597701
0.688225
0.689308
0.358267
0.525268
0.680088
0.690056
0.685737
0.689807
0.358414
0.589937
0.691184
0.358301
0.481963
0.686657
0.680326
0.695629
0.463461
0.5977
0.547678
0.679557
0.697956
0.680346
0.68086
0.358337
0.680381
0.69395
0.699077
0.691928
0.68052
0.562727
0.687733
0.35817
0.679925
0.691605
0.579864
0.679211
0.680336
0.689471
0.597698
0.589781
0.5977
0.5977
0.358307
0.358403
0.364606
0.358176
0.680929
0.67929
0.680334
0.525062
0.358067
0.679741
0.5977
0.422136
0.527627
0.584335
0.590142
0.680342
0.694171
0.682162
0.358253
0.35834
0.557773
0.479266
0.358332
0.399165
0.680222
0.545239
0.358296
0.5977
0.680679
0.691737
0.680261
0.680363
0.399671
0.427095
0.361847
0.5977
0.574148
0.47362
0.597703
0.674536
0.697687
0.680286
0.466952
0.358167
0.691248
0.358295
0.680487
0.703599
0.679422
0.481259
0.358268
0.69504
0.680157
0.5977
0.421859
0.695022
0.680367
0.5977
0.690088
0.690417
0.555879
0.695303
0.358439
0.680301
0.680333
0.597704
0.679268
0.558194
0.693327
0.553797
0.687759
0.41356
0.437681
0.358192
0.680329
0.5977
0.358211
0.680274
0.68603
0.481437
0.5977
0.550542
0.5977
0.5977
0.480239
0.690318
0.705995
0.358317
0.597708
0.680123
0.459056
0.693282
0.419299
0.465475
0.5977
0.5977
0.588757
0.68026
0.368149
0.692514
0.45154
0.471871
0.680549
0.3583
0.5977
0.478413
0.5977
0.5977
0.555232
0.693617
0.440829
0.420081
0.616951
0.5977
0.68568
0.597703
0.5977
0.680438
0.699604
0.5977
0.5977
0.691912
0.694189
0.684809
0.538487
0.358309
0.59771
0.691733
0.694609
0.570215
0.680217
0.5977
0.59772
0.480021
0.5977
0.591765
0.558144
0.643109
0.694525
0.67549
0.679958
0.588965
0.472828
0.5977
0.58413
0.689926
0.680358
0.520942
0.694562
0.689402
0.445992
0.473349
0.387039
0.558219
0.358134
0.5977
0.686738
0.5977
0.509854
0.682266
0.440814
0.5977
0.68043
0.680123
0.597701
0.680115
0.5977
0.651075
0.5977
0.680317
0.438999
0.680355
0.680321
0.5977
0.561069
0.67948
0.482574
0.443381
0.462934
0.690271
0.358282
0.553833
0.361933
0.690776
0.401439
0.582941
0.456781
0.691422
0.689297
0.5977
0.512606
0.5977
0.680424
0.35828
0.5977
0.689678
0.472871
0.5977
0.676543
0.691123
0.680564
0.489694
0.5977
0.685934
0.680229
0.673591
0.358238
0.585911
0.688833
0.557878
0.574317
0.55823
0.5977
0.680023
0.5977
0.689728
0.358163
0.44413
0.557959
0.68956
0.680098
0.416284
0.680439
0.5977
0.5977
0.435393
0.559254
0.688718
0.687681
0.5977
0.566035
0.680394
0.572168
0.36641
0.5977
0.680613
0.367365
0.479374
0.429195
0.690653
0.499565
0.358317
0.69095
0.597699
0.693716
0.5977
0.373062
0.373044
0.689244
0.439679
0.409616
0.679887
0.483887
0.551913
0.5977
0.694706
0.679864
0.358106
0.565782
0.358629
0.699601
0.4708
0.679804
0.412027
0.679839
0.694938
0.679899
0.694725
0.680056
0.697105
0.680298
0.689442
0.685479
0.415493
0.358375
0.68039
0.680085
0.589047
0.691537
0.5977
0.680176
0.597704
0.534754
0.689502
0.690003
0.68059
0.364961
0.680472
0.509071
0.68045
0.583664
0.676815
0.680193
0.481669
0.685865
0.358451
0.597714
0.681544
0.403886
0.5977
0.55817
0.692302
0.377868
0.680543
0.358175
0.481026
0.480305
0.35816
0.597648
0.446646
0.597704
0.680434
0.566051
0.48137
0.582356
0.5977
0.5977
0.702455
0.358194
0.39545
0.364573
0.454919
0.510958
0.5977
0.693554
0.526325
0.680264
0.686113
0.426241
0.689633
0.5977
0.680426
0.35944
0.607183
0.680309
0.687609
0.690109
0.455708
0.680581
0.688562
0.680625
0.5977
0.680419
0.496616
0.480469
0.680315
0.597712
0.358252
0.68057
0.468371
0.5977
0.5977
0.695233
0.695428
0.478392
0.691629
0.589761
0.36503
0.597705
0.686903
0.69115
0.688119
0.597704
0.481579
0.690273
0.458331
0.588214
0.68971
0.649332
0.685778
0.362257
0.499143
0.691184
0.505295
0.686714
0.5977
0.576648
0.518522
0.689207
0.476847
0.680222
0.686613
0.596313
0.477634
0.441605
0.597714
0.5977
0.5977
0.59772
0.68063
0.704716
0.69418
0.558208
0.679603
0.380355
0.515125
0.687336
0.680316
0.645006
0.577262
0.437046
0.67869
0.439022
0.680193
0.5977
0.565855
0.68571
0.35804
0.694903
0.482642
0.690935
0.476322
0.679733
0.680049
0.480471
0.693627
0.5977
0.485521
0.680099
0.680534
0.5977
0.441614
0.565583
0.597721
0.695551
0.701055
0.533197
0.5977
0.682412
0.680261
0.510916
0.5977
0.680753
0.567779
0.680663
0.680244
0.519279
0.684477
0.673858
0.474733
0.5977
0.36726
0.597701
0.372756
0.466578
0.694544
0.358506
0.358476
0.436574
0.680179
0.701142
0.59673
0.680369
0.559819
0.675635
0.358146
0.685064
0.574386
0.680526
0.680289
0.597692
0.680299
0.597706
0.680081
0.68045
0.512533
0.5977
0.5977
0.5977
0.679912
0.584594
0.597724
0.690188
0.358384
0.5977
0.554616
0.680205
0.414111
0.479134
0.708809
0.680135
0.358334
0.689524
0.668854
0.558213
0.689791
0.628669
0.358406
0.689419
0.358217
0.474818
0.693218
0.687462
0.691301
0.694852
0.467592
0.377075
0.359529
0.679746
0.680424
0.561783
0.694183
0.40898
0.377364
0.420871
0.693754
0.569072
0.690119
0.685784
0.5977
0.691761
0.68324
0.5977
0.59631
0.56488
0.483691
0.358324
0.622343
0.6026
0.421257
0.5977
0.690128
0.59762
0.488128
0.597697
0.705325
0.514705
0.701726
0.5977
0.358275
0.680416
0.680716
0.35847
0.680419
0.405428
0.688512
0.692498
0.6801
0.442523
0.574418
0.5977
0.523614
0.56636
0.691409
0.528334
0.680227
0.681336
0.692627
0.661866
0.59305
0.68023
0.597707
0.68027
0.543973
0.688143
0.464185
0.435447
0.694898
0.680351
0.680525
0.496781
0.680178
0.5977
0.613396
0.400186
0.409247
0.358242
0.688388
0.363712
0.414017
0.476295
0.5977
0.410489
0.519846
0.566661
0.679755
0.358543
0.680373
0.680597
0.691503
0.382219
0.679723
0.5977
0.680233
0.56078
0.5977
0.374081
0.358353
0.680584
0.358259
0.5977
0.680241
0.557209
0.358505
0.532553
0.380614
0.597699
0.558195
0.499175
0.6798
0.680361
0.682914
0.358267
0.455116
0.537487
0.695043
0.358402
0.558231
0.5977
0.680549
0.683116
0.358004
0.5977
0.459272
0.597418
0.5977
0.690285
0.5977
0.5977
0.5977
0.664103
0.687854
0.361081
0.595387
0.416964
0.649724
0.5977
0.646787
0.358507
0.566883
0.689185
0.67943
0.680166
0.358279
0.691545
0.5977
0.597699
0.70135
0.495117
0.358265
0.520508
0.680278
0.680497
0.5977
0.691201
0.535861
0.692594
0.5977
0.680534
0.680292
0.691915
0.690125
0.680313
0.686308
0.691397
0.491877
0.686683
0.688428
0.680302
0.687115
0.680385
0.5977
0.358345
0.477426
0.597541
0.358391
0.575525
0.692219
0.431225
0.5977
0.679852
0.678141
0.680661
0.486761
0.691477
0.481389
0.43237
0.680404
0.679674
0.680198
0.390027
0.688463
0.680251
0.595367
0.680409
0.476683
0.680252
0.691243
0.680739
0.597718
0.69835
0.357959
0.686272
0.411603
0.358302
0.5977
0.582221
0.6905
0.693634
0.680516
0.469343
0.680432
0.597561
0.436645
0.693267
0.581335
0.358281
0.680366
0.488007
0.591874
0.5977
0.704764
0.696485
0.583252
0.5977
0.5977
0.680326
0.5977
0.690773
0.597712
0.689779
0.691199
0.5977
0.462995
0.358625
0.579821
0.68796
0.482785
0.5977
0.689712
0.5977
0.680329
0.5977
0.5977
0.588614
0.359679
0.689439
0.691103
0.5977
0.691599
0.690505
0.692917
0.680153
0.358239
0.423397
0.68021
0.5977
0.5977
0.68709
0.680189
0.680398
0.694938
0.693235
0.5977
0.704048
0.690555
0.426723
0.490308
0.418353
0.547412
0.555831
0.595849
0.5977
0.685526
0.63824
0.480994
0.680628
0.68753
0.395278
0.553427
0.571131
0.687234
0.501073
0.466118
0.454925
0.558231
0.692845
0.597709
0.379515
0.358211
0.47838
0.557451
0.358365
0.692392
0.680344
0.679795
0.362142
0.677913
0.5977
0.5977
0.528879
0.358383
0.693015
0.559393
0.358401
0.680305
0.35848
0.702856
0.49122
0.691946
0.363324
0.697804
0.689138
0.376997
0.597699
0.508272
0.689369
0.485088
0.5977
0.464318
0.597698
0.372516
0.5977
0.358271
0.680239
0.680549
0.5977
0.680299
0.533549
0.688913
0.680254
0.688454
0.5977
0.675614
0.358384
0.597698
0.418082
0.695947
0.520068
0.68931
0.597699
0.685281
0.691021
0.5977
0.687479
0.438081
0.427337
0.425741
0.5977
0.5977
0.679828
0.359822
0.488889
0.680602
0.554304
0.475191
0.5977
0.554695
0.358337
0.475281
0.691239
0.5977
0.5977
0.455287
0.695646
0.680048
0.473883
0.536967
0.694252
0.680363
0.597696
0.593992
0.560794
0.544341
0.378071
0.693709
0.594623
0.5977
0.59771
0.456378
0.5977
0.357963
0.68054
0.688226
0.358332
0.502273
0.58927
0.5977
0.688704
0.691007
0.694029
0.690087
0.690182
0.392611
0.483453
0.421781
0.358084
0.5977
0.677477
0.5977
0.358294
0.358186
0.597701
0.477698
0.680492
0.705208
0.358163
0.528381
0.679793
0.476933
0.5977
0.692368
0.699738
0.680614
0.5977
0.358282
0.369043
0.70208
0.358315
0.597725
0.595541
0.680086
0.6897
0.513619
0.358321
0.558146
0.358313
0.680041
0.696332
0.358452
0.448499
0.39833
0.680334
0.401036
0.558231
0.678993
0.5977
0.47152
0.597712
0.68683
0.681412
0.363335
0.681039
0.597705
0.483826
0.686486
0.688854
0.360737
0.358413
0.694666
0.358323
0.358061
0.679755
0.542161
0.680307
0.5977
0.698119
0.597704
0.68945
0.679602
0.680358
0.360452
0.558236
0.650132
0.680604
0.57348
0.68984
0.538698
0.688009
0.696259
0.5977
0.5977
0.597697
0.586493
0.680659
0.687669
0.691289
0.689305
0.680195
0.552068
0.690657
0.558203
0.694179
0.693556
0.692141
0.558571
0.680247
0.480757
0.692821
0.507224
0.689538
0.686991
0.688736
0.69739
0.603258
0.441189
0.379917
0.526601
0.360964
0.700485
0.359936
0.360867
0.675178
0.465887
0.684821
0.374864
0.687412
0.681568
0.358477
0.553315
0.569779
0.68742
0.453621
0.67984
0.68579
0.386487
0.692975
0.597699
0.596438
0.514572
0.474858
0.597702
0.358377
0.690002
0.5977
0.515274
0.680232
0.680291
0.69499
0.358431
0.5977
0.465285
0.678287
0.680059
0.688304
0.358212
0.680538
0.687056
0.691587
0.57614
0.687071
0.358386
0.358224
0.693118
0.594204
0.692606
0.597697
0.358244
0.569608
0.693747
0.50029
0.483966
0.439167
0.5977
0.649728
0.685386
0.426225
0.5977
0.680263
0.5977
0.597699
0.566403
0.5977
0.35833
0.358189
0.680281
0.35827
0.35805
0.689963
0.688972
0.399029
0.692168
0.395417
0.5555
0.527294
0.693346
0.680528
0.634926
0.680473
0.460179
0.358067
0.476131
0.680332
0.694184
0.5977
0.5977
0.549517
0.525398
0.680362
0.359516
0.680316
0.54898
0.680326
0.597704
0.37519
0.467629
0.358349
0.358298
0.482382
0.594764
0.702355
0.362112
0.683004
0.5977
0.522008
0.439631
0.689621
0.358335
0.679884
0.562917
0.671806
0.5977
0.679622
0.659313
0.429287
0.692977
0.690715
0.69047
0.358457
0.702574
0.5977
0.570464
0.687964
0.597309
0.692035
0.699999
0.690213
0.693313
0.690931
0.68024
0.680471
0.358271
0.694854
0.358342
0.597697
0.690587
0.474191
0.69746
0.693295
0.483385
0.692633
0.358493
0.48005
0.693299
0.695415
0.688948
0.358136
0.701108
0.5977
0.527218
0.362643
0.693943
0.680173
0.552363
0.4506
0.68578
0.689437
0.3584
0.5977
0.688872
0.5977
0.390674
0.358429
0.471954
0.5977
0.478074
0.678895
0.609799
0.680429
0.5977
0.681481
0.358159
0.69508
0.5977
0.688919
0.5977
0.481958
0.361865
0.461388
0.700955
0.685998
0.561342
0.5977
0.569397
0.597528
0.689191
0.446467
0.597705
0.679399
0.5977
0.365706
0.369776
0.552436
0.686466
0.692516
0.5977
0.594153
0.679508
0.358429
0.5977
0.578101
0.680527
0.368388
0.5977
0.488197
0.692935
0.469945
0.680444
0.693244
0.451325
0.686371
0.5977
0.557977
0.5977
0.558214
0.69031
0.597472
0.680281
0.680433
0.687559
0.680106
0.577918
0.576776
0.40998
0.680397
0.457315
0.35848
0.470713
0.477551
0.358363
0.364759
0.689528
0.546244
0.418627
0.5977
0.686363
0.701964
0.597724
0.592153
0.597706
0.680546
0.495477
0.5977
0.679778
0.517274
0.460989
0.358039
0.5977
0.590481
0.358416
0.5977
0.468678
0.651434
0.588357
0.388975
0.581613
0.5977
0.552868
0.680109
0.448676
0.5977
0.550515
0.693029
0.559651
0.597703
0.570981
0.690811
0.5977
0.358303
0.693864
0.689842
0.464903
0.48159
0.680298
0.358262
0.697952
0.361952
0.597699
0.459356
0.679591
0.485021
0.689703
0.358495
0.689104
0.68376
0.688005
0.557896
0.408218
0.469446
0.597723
0.693742
0.672946
0.693595
0.5977
0.48461
0.687332
0.564839
0.694304
0.696867
0.597728
0.516848
0.692774
0.680252
0.46217
0.680309
0.693584
0.691563
0.700025
0.452165
0.5977
0.358483
0.690567
0.481175
0.680588
0.692885
0.694703
0.689279
0.51958
0.687982
0.358526
0.362716
0.680387
0.562942
0.5977
0.680481
0.558062
0.358315
0.715815
0.693337
0.690611
0.48084
0.580207
0.597651
0.361594
0.687641
0.690194
0.694923
0.6922
0.517812
0.597718
0.5977
0.4557
0.695718
0.689416
0.597707
0.693282
0.513764
0.703507
0.714306
0.5977
0.69338
0.369964
0.48226
0.679732
0.689848
0.474961
0.541587
0.474698
0.467793
0.417567
0.481722
0.526754
0.358256
0.680034
0.455559
0.391136
0.684701
0.5977
0.558066
0.563217
0.358428
0.680368
0.59772
0.5977
0.692421
0.556057
0.5977
0.680366
0.5977
0.678351
0.450219
0.685536
0.680414
0.398215
0.358152
0.597727
0.693093
0.5977
0.690134
0.680529
0.680531
0.680564
0.597746
0.686348
0.680438
0.694894
0.358216
0.679913
0.597056
0.597087
0.576568
0.39729
0.458768
0.419461
0.5977
0.5977
0.680355
0.358206
0.55691
0.689214
0.479506
0.686063
0.680362
0.692647
0.5977
0.679796
0.512284
0.461546
0.458174
0.5977
0.477029
0.680751
0.459184
0.680522
0.680445
0.684064
0.537624
0.597724
0.594091
0.68183
0.437042
0.357965
0.692237
0.679708
0.5977
0.680528
0.694213
0.695105
0.3583
0.5977
0.690665
0.597642
0.679315
0.686412
0.694643
0.569101
0.560837
0.691013
0.587485
0.5977
0.358391
0.688792
0.696061
0.597724
0.478472
0.679273
0.597711
0.688224
0.685948
0.358324
0.358252
0.674591
0.5977
0.597721
0.694841
0.693785
0.491677
0.679917
0.677712
0.698551
0.358323
0.5977
0.358298
0.692948
0.687926
0.693621
0.680458
0.678768
0.522684
0.558576
0.680125
0.358322
0.5977
0.508023
0.680893
0.437129
0.5977
0.690746
0.672221
0.358232
0.558254
0.612948
0.357917
0.679206
0.47424
0.691019
0.358288
0.369141
0.44604
0.68085
0.679785
0.535048
0.525064
0.692696
0.690026
0.588786
0.595878
0.358327
0.5977
0.358338
0.680651
0.358064
0.597702
0.69337
0.516208
0.5977
0.366098
0.680399
0.408229
0.358384
0.692611
0.481927
0.677454
0.59772
0.44414
0.690709
0.679918
0.694243
0.597702
0.506129
0.5977
0.483396
0.358191
0.696929
0.680484
0.679699
0.358336
0.556587
0.5977
0.691946
0.597702
0.693232
0.5977
0.698214
0.540637
0.690829
0.689149
0.5977
0.688835
0.4835
0.679693
0.358209
0.486372
0.466074
0.358248
0.68989
0.686581
0.69033
0.680812
0.680543
0.546514