# vtk DataFile Version 1.0
unstructured grid
ascii
DATASET UNSTRUCTURED_GRID
points 13672 float
0.0796578 -0.059106 0
0.00128732 0.00159165 0
0.00227961 -0.00102548 0
0.0791586 -0.0598787 0
-0.0546216 0.01 0
0.000495206 0.025 0
0.0800549 -0.035 0
0.135172 -0.08 0
-0.0546216 -0.0451168 0
0.000495206 -0.0301168 0
0.0800549 -0.0901168 0
0.135172 -0.135117 0
-0.0546216 -0.0451168 -0.00551168
0.000495206 -0.0301168 -0.00551168
0.0800549 -0.0901168 -0.00551168
0.135172 -0.135117 -0.00551168
0.135172 -0.08 -0.00551168
0.0800549 -0.035 -0.00551168
0.000495206 0.025 -0.00551168
-0.0546216 0.01 -0.00551168
0.00128732 0.00159165 -0.00551168
0.00227961 -0.00102548 -0.00551168
0.0791586 -0.0598787 -0.00551168
0.0796578 -0.059106 -0.00551168
0.00165953 -0.000990923 0
0.00119576 -0.000874076 0
0.000866021 -0.000641801 0
0.000645147 -0.000349912 0
0.00052235 -1.7281e-05 0
0.00049972 0.000348016 0
0.000601632 0.000737716 0
0.000861774 0.0011403 0
0.00157235 0.00183217 0
0.00188647 0.00206725 0
0.00222612 0.00230203 0
0.00258713 0.00254351 0
0.00296826 0.00279524 0
0.00337118 0.00305664 0
0.00379785 0.00332658 0
0.00425045 0.00360349 0
0.00473139 0.00388521 0
0.0052432 0.00416895 0
0.0057881 0.00445204 0
0.00636753 0.00473281 0
0.00698281 0.00500961 0
0.00763526 0.00528058 0
0.00832616 0.00554366 0
0.00905691 0.00579603 0
0.00982918 0.00603333 0
0.0106445 0.00625033 0
0.0115038 0.00644128 0
0.0124073 0.00660297 0
0.0133543 0.00673414 0
0.0143444 0.00683382 0
0.0153769 0.00690031 0
0.0164512 0.00693173 0
0.0175666 0.00692547 0
0.0187219 0.00687822 0
0.0199156 0.00678477 0
0.0211454 0.00663864 0
0.0224084 0.00643275 0
0.0237018 0.00616676 0
0.0250249 0.00584739 0
0.026375 0.00547298 0
0.0277479 0.00503752 0
0.0291386 0.00453545 0
0.0305433 0.0039653 0
0.0319572 0.0033256 0
0.0333681 0.00260019 0
0.034775 0.00179799 0
0.0361793 0.000930615 0
0.0375798 3.12222e-06 0
0.0389689 -0.000988429 0
0.0403357 -0.00205109 0
0.041675 -0.00318283 0
0.0429849 -0.00437751 0
0.0442643 -0.00562904 0
0.0455126 -0.00693089 0
0.0467314 -0.00827518 0
0.0479204 -0.00965638 0
0.0490661 -0.0110799 0
0.0501515 -0.0125519 0
0.0511696 -0.0140695 0
0.0521492 -0.0156071 0
0.0531202 -0.0171411 0
0.0540851 -0.0186663 0
0.0550431 -0.0201798 0
0.0559923 -0.0216793 0
0.0569311 -0.0231626 0
0.0578582 -0.0246273 0
0.0587723 -0.0260715 0
0.0596721 -0.027493 0
0.0605563 -0.02889 0
0.0614241 -0.0302609 0
0.0622742 -0.0316042 0
0.063106 -0.0329183 0
0.0639186 -0.034202 0
0.0647113 -0.0354543 0
0.0654835 -0.0366743 0
0.0662345 -0.0378613 0
0.0669642 -0.0390145 0
0.0676726 -0.0401333 0
0.0683597 -0.0412172 0
0.0690246 -0.0422665 0
0.0696662 -0.0432819 0
0.0702841 -0.0442636 0
0.0708793 -0.0452111 0
0.0714538 -0.0461237 0
0.072009 -0.047001 0
0.0725452 -0.0478434 0
0.0730611 -0.0486524 0
0.073556 -0.0494294 0
0.0740291 -0.0501756 0
0.0744812 -0.0508916 0
0.0749138 -0.0515773 0
0.0753285 -0.0522331 0
0.0757266 -0.0528592 0
0.076109 -0.0534564 0
0.0764753 -0.0540264 0
0.0768243 -0.054571 0
0.0771553 -0.0550919 0
0.0774679 -0.0555901 0
0.0777617 -0.0560669 0
0.0780369 -0.056523 0
0.0782958 -0.0569578 0
0.0785421 -0.0573703 0
0.0787786 -0.0577603 0
0.0790073 -0.0581279 0
0.0792295 -0.058474 0
0.0794462 -0.0587995 0
0.0798803 -0.0594162 0
0.0800272 -0.0596588 0
0.0800357 -0.0598891 0
0.0799275 -0.0600784 0
0.0797205 -0.0601773 0
0.0794593 -0.0601051 0
0.0789155 -0.0596491 0
0.0786707 -0.0593963 0
0.0784111 -0.0591319 0
0.0781372 -0.0588542 0
0.0778566 -0.0585548 0
0.0775715 -0.0582308 0
0.0772803 -0.0578828 0
0.0769832 -0.0575099 0
0.0766822 -0.0571097 0
0.0763801 -0.0566796 0
0.0760759 -0.0562196 0
0.0757623 -0.0557337 0
0.0754359 -0.0552232 0
0.0750951 -0.0546879 0
0.0747379 -0.054128 0
0.0743626 -0.0535435 0
0.0739688 -0.0529338 0
0.0735559 -0.0522981 0
0.0731238 -0.0516357 0
0.0726718 -0.050946 0
0.0721991 -0.0502288 0
0.0717046 -0.049484 0
0.0711872 -0.0487117 0
0.0706461 -0.047912 0
0.0700804 -0.0470849 0
0.0694892 -0.0462308 0
0.0688718 -0.0453499 0
0.0682271 -0.0444431 0
0.0675544 -0.043511 0
0.0668527 -0.0425546 0
0.0661215 -0.0415748 0
0.06536 -0.040573 0
0.0645676 -0.0395504 0
0.0637439 -0.0385087 0
0.0628887 -0.0374493 0
0.062002 -0.0363741 0
0.0610838 -0.0352847 0
0.0601345 -0.0341831 0
0.0591547 -0.033071 0
0.0581456 -0.0319502 0
0.0571083 -0.0308224 0
0.0560444 -0.0296893 0
0.0549562 -0.028552 0
0.053845 -0.0274126 0
0.0527113 -0.0262746 0
0.051554 -0.0251427 0
0.0503724 -0.0240222 0
0.0491675 -0.0229164 0
0.047941 -0.0218282 0
0.0466955 -0.0207597 0
0.0454337 -0.0197126 0
0.0441592 -0.0186878 0
0.0428751 -0.0176863 0
0.0415841 -0.0167097 0
0.0402878 -0.0157609 0
0.0389879 -0.0148428 0
0.0376864 -0.0139575 0
0.0363853 -0.013107 0
0.0350871 -0.0122931 0
0.0337942 -0.0115164 0
0.0325095 -0.0107772 0
0.0312357 -0.0100756 0
0.0299758 -0.00941024 0
0.0287337 -0.00877784 0
0.0275126 -0.00817571 0
0.0263139 -0.00760375 0
0.0251376 -0.00706528 0
0.0239829 -0.0065649 0
0.0228537 -0.00609619 0
0.0217522 -0.00565563 0
0.0206795 -0.00524226 0
0.0196364 -0.00485507 0
0.0186233 -0.00449318 0
0.0176408 -0.00415577 0
0.016689 -0.00384204 0
0.0157682 -0.00355115 0
0.0148783 -0.00328218 0
0.0140192 -0.00303468 0
0.0131906 -0.00280795 0
0.0123925 -0.00260016 0
0.0116246 -0.00241012 0
0.0108864 -0.00223769 0
0.0101774 -0.00208212 0
0.00949701 -0.00194206 0
0.00884483 -0.0018163 0
0.0082202 -0.0017039 0
0.00762247 -0.00160391 0
0.00705097 -0.00151528 0
0.006505 -0.00143697 0
0.0059838 -0.00136806 0
0.00548662 -0.00130772 0
0.00501265 -0.00125519 0
0.00456114 -0.00120954 0
0.00413136 -0.00116914 0
0.00372257 -0.00113251 0
0.00333398 -0.00109853 0
0.00296466 -0.00106798 0
0.00261363 -0.0010431 0
-0.052721 -0.0445996 0
-0.0508204 -0.0440823 0
-0.0489199 -0.0435651 0
-0.0470193 -0.0430478 0
-0.0451187 -0.0425306 0
-0.0432181 -0.0420134 0
-0.0413175 -0.0414961 0
-0.039417 -0.0409789 0
-0.0375164 -0.0404616 0
-0.0356158 -0.0399444 0
-0.0337152 -0.0394271 0
-0.0318146 -0.0389099 0
-0.0299141 -0.0383927 0
-0.0280135 -0.0378754 0
-0.0261129 -0.0373582 0
-0.0242123 -0.0368409 0
-0.0223117 -0.0363237 0
-0.0204112 -0.0358065 0
-0.0185106 -0.0352892 0
-0.01661 -0.034772 0
-0.0147094 -0.0342547 0
-0.0128088 -0.0337375 0
-0.0109083 -0.0332202 0
-0.00900769 -0.032703 0
-0.00710711 -0.0321858 0
-0.00520653 -0.0316685 0
-0.00330595 -0.0311513 0
-0.00140537 -0.030634 0
0.00190689 -0.0299614 0
0.00332271 -0.0298498 0
0.00474133 -0.0297825 0
0.00616136 -0.0297597 0
0.0075814 -0.0297814 0
0.00900007 -0.0298477 0
0.010416 -0.0299583 0
0.0118278 -0.0301127 0
0.0132342 -0.0303103 0
0.0146339 -0.0305504 0
0.0160259 -0.0308322 0
0.0174091 -0.0311546 0
0.0187824 -0.0315166 0
0.020145 -0.031917 0
0.0214961 -0.0323546 0
0.0228351 -0.032828 0
0.0241613 -0.0333361 0
0.0254744 -0.0338774 0
0.0267738 -0.0344507 0
0.0280592 -0.0350545 0
0.0293306 -0.0356877 0
0.0305875 -0.0363488 0
0.0318301 -0.0370367 0
0.0330581 -0.0377501 0
0.0342717 -0.0384879 0
0.0354708 -0.0392489 0
0.0366556 -0.0400321 0
0.0378262 -0.0408363 0
0.0389828 -0.0416607 0
0.0401254 -0.0425042 0
0.0412543 -0.0433659 0
0.0423698 -0.0442451 0
0.043472 -0.0451408 0
0.0445612 -0.0460523 0
0.0456375 -0.0469789 0
0.0467013 -0.0479199 0
0.0477529 -0.0488746 0
0.0487923 -0.0498424 0
0.04982 -0.0508227 0
0.0508362 -0.051815 0
0.051841 -0.0528187 0
0.0528348 -0.0538333 0
0.0538178 -0.0548584 0
0.0547903 -0.0558935 0
0.0557524 -0.0569382 0
0.0567045 -0.0579922 0
0.0576467 -0.0590549 0
0.0585792 -0.0601261 0
0.0595024 -0.0612055 0
0.0604163 -0.0622926 0
0.0613212 -0.0633873 0
0.0622174 -0.0644891 0
0.0631049 -0.0655979 0
0.0639841 -0.0667134 0
0.064855 -0.0678353 0
0.0657179 -0.0689633 0
0.0665729 -0.0700974 0
0.0674202 -0.0712372 0
0.06826 -0.0723826 0
0.0690925 -0.0735333 0
0.0699178 -0.0746892 0
0.070736 -0.0758501 0
0.0715473 -0.0770159 0
0.0723518 -0.0781863 0
0.0731498 -0.0793612 0
0.0739412 -0.0805405 0
0.0747264 -0.081724 0
0.0755053 -0.0829116 0
0.0762781 -0.0841033 0
0.0770449 -0.0852987 0
0.0778059 -0.0864979 0
0.0785611 -0.0877007 0
0.0793108 -0.088907 0
0.0814681 -0.0912706 0
0.0828814 -0.0924245 0
0.0842946 -0.0935783 0
0.0857079 -0.0947322 0
0.0871211 -0.095886 0
0.0885344 -0.0970399 0
0.0899476 -0.0981937 0
0.0913609 -0.0993476 0
0.0927741 -0.100501 0
0.0941874 -0.101655 0
0.0956006 -0.102809 0
0.0970139 -0.103963 0
0.0984272 -0.105117 0
0.0998404 -0.106271 0
0.101254 -0.107424 0
0.102667 -0.108578 0
0.10408 -0.109732 0
0.105493 -0.110886 0
0.106907 -0.11204 0
0.10832 -0.113194 0
0.109733 -0.114348 0
0.111146 -0.115501 0
0.11256 -0.116655 0
0.113973 -0.117809 0
0.115386 -0.118963 0
0.116799 -0.120117 0
0.118213 -0.121271 0
0.119626 -0.122424 0
0.121039 -0.123578 0
0.122452 -0.124732 0
0.123866 -0.125886 0
0.125279 -0.12704 0
0.126692 -0.128194 0
0.128105 -0.129348 0
0.129519 -0.130501 0
0.130932 -0.131655 0
0.132345 -0.132809 0
0.133758 -0.133963 0
0.135172 -0.133216 0
0.135172 -0.131316 0
0.135172 -0.129415 0
0.135172 -0.127514 0
0.135172 -0.125614 0
0.135172 -0.123713 0
0.135172 -0.121813 0
0.135172 -0.119912 0
0.135172 -0.118012 0
0.135172 -0.116111 0
0.135172 -0.11421 0
0.135172 -0.11231 0
0.135172 -0.110409 0
0.135172 -0.108509 0
0.135172 -0.106608 0
0.135172 -0.104708 0
0.135172 -0.102807 0
0.135172 -0.100906 0
0.135172 -0.0990058 0
0.135172 -0.0971052 0
0.135172 -0.0952046 0
0.135172 -0.0933041 0
0.135172 -0.0914035 0
0.135172 -0.0895029 0
0.135172 -0.0876023 0
0.135172 -0.0857017 0
0.135172 -0.0838012 0
0.135172 -0.0819006 0
0.133758 -0.0788462 0
0.132345 -0.0776923 0
0.130932 -0.0765385 0
0.129519 -0.0753846 0
0.128105 -0.0742308 0
0.126692 -0.0730769 0
0.125279 -0.0719231 0
0.123866 -0.0707692 0
0.122452 -0.0696154 0
0.121039 -0.0684615 0
0.119626 -0.0673077 0
0.118213 -0.0661538 0
0.116799 -0.065 0
0.115386 -0.0638462 0
0.113973 -0.0626923 0
0.11256 -0.0615385 0
0.111146 -0.0603846 0
0.109733 -0.0592308 0
0.10832 -0.0580769 0
0.106907 -0.0569231 0
0.105493 -0.0557692 0
0.10408 -0.0546154 0
0.102667 -0.0534615 0
0.101254 -0.0523077 0
0.0998404 -0.0511538 0
0.0984272 -0.05 0
0.0970139 -0.0488462 0
0.0956006 -0.0476923 0
[...]
CELL_DATA 13116
SCALARS rho float
LOOKUP_TABLE default
0.621114
0.718208
0.323453
0.69977
0.699981
0.691405
0.310188
0.700674
0.566406
0.700402
0.316581
0.277832
0.70001
0.291185
0.312225
0.691408
0.621835
0.699226
0.696915
0.324117
0.610994
0.324774
0.299562
0.699082
0.625741
0.700706
0.700444
0.314326
0.605009
0.669346
0.557409
0.290403
0.582635
0.50637
0.31084
0.617002
0.69625
0.701087
0.686113
0.699293
0.690268
0.700696
0.485521
0.321295
0.700511
0.698773
0.704529
0.697913
0.314632
0.548264
0.699418
0.502219
0.296467
0.616329
0.583729
0.609504
0.319499
0.699273
0.554069
0.312418
0.294867
0.700134
0.70834
0.680579
0.563132
0.311176
0.696526
0.695828
0.697349
0.565915
0.311739
0.590706
0.327143
0.311787
0.559821
0.324675
0.698134
0.699451
0.31331
0.699206
0.701851
0.701004
0.699576
0.700202
0.701076
0.448855
0.309069
0.687102
0.701077
0.336526
0.291161
0.717912
0.699863
0.70091
0.677847
0.629341
0.628136
0.562674
0.559695
0.609094
0.69029
0.685545
0.693356
0.40527
0.702782
0.292627
0.387098
0.548847
0.310688
0.618135
0.571697
0.702043
0.626332
0.700568
0.699317
0.696913
0.30508
0.393773
0.698996
0.69807
0.694654
0.330825
0.697654
0.290195
0.701455
0.490266
0.308356
0.523201
0.312796
0.545223
0.698883
0.702568
0.49489
0.32063
0.480684
0.651918
0.561501
0.698214
0.688876
0.698163
0.690918
0.704645
0.526863
0.69367
0.714515
0.281591
0.312009
0.700596
0.699959
0.699941
0.537825
0.69998
0.697293
0.325595
0.699979
0.700624
0.299514
0.695012
0.560353
0.685754
0.699192
0.315509
0.699413
0.302412
0.332562
0.699917
0.70149
0.699428
0.310423
0.469674
0.446831
0.559456
0.310902
0.519374
0.696728
0.297785
0.316201
0.326592
0.702106
0.688623
0.335405
0.472557
0.590262
0.694816
0.689034
0.557048
0.329253
0.698114
0.702075
0.501837
0.683554
0.700501
0.579631
0.295714
0.701287
0.689937
0.699695
0.698672
0.70117
0.373732
0.408386
0.626462
0.518979
0.306417
0.699764
0.70303
0.515547
0.635933
0.290783
0.325343
0.326186
0.694713
0.299793
0.337792
0.331293
0.325796
0.36436
0.679767
0.701592
0.436043
0.319306
0.696404
0.567627
0.334759
0.538943
0.700255
0.713583
0.314004
0.696618
0.417333
0.701651
0.290853
0.574212
0.576249
0.562831
0.700162
0.610293
0.310153
0.483983
0.683289
0.559672
0.689009
0.562243
0.615064
0.700689
0.317574
0.699032
0.70009
0.559871
0.317248
0.315315
0.699428
0.698853
0.556102
0.699087
0.620183
0.699266
0.31695
0.313778
0.370445
0.285656
0.700824
0.699688
0.698378
0.311664
0.698966
0.31945
0.44684
0.702935
0.324671
0.700906
0.699779
0.559719
0.699261
0.309049
0.559665
0.701209
0.559694
0.698177
0.315386
0.31428
0.297542
0.650301
0.32973
0.324036
0.36309
0.336986
0.701026
0.285329
0.700846
0.699961
0.3248
0.330075
0.319442
0.483309
0.319283
0.686724
0.679789
0.702375
0.325183
0.693195
0.572817
0.311475
0.314049
0.690882
0.69887
0.698796
0.328656
0.690627
0.413495
0.702907
0.700415
0.699789
0.700335
0.296359
0.696553
0.278342
0.695687
0.700138
0.679229
0.327466
0.360112
0.700132
0.316196
0.703809
0.700104
0.355775
0.698997
0.699519
0.318479
0.699168
0.699884
0.240439
0.698586
0.43406
0.558071
0.701808
0.447535
0.696028
0.312546
0.699263
0.381166
0.649304
0.693686
0.699814
0.31241
0.374412
0.700689
0.323995
0.699836
0.702351
0.46342
0.559647
0.329753
0.316261
0.699681
0.543873
0.696768
0.31339
0.300943
0.699061
0.699983
0.313278
0.699465
0.302482
0.291662
0.697871
0.7014
0.552774
0.35456
0.698635
0.556419
0.691116
0.699501
0.69937
0.541719
0.345779
0.288784
0.336085
0.690746
0.336061
0.591721
0.356507
0.293754
0.369516
0.561437
0.139192
0.324875
0.700761
0.287482
0.699555
0.609321
0.690618
0.67953
0.698902
0.317513
0.315826
0.37774
0.346673
0.700515
0.623924
0.69034
0.608919
0.7151
0.647889
0.700945
0.673242
0.667509
0.69945
0.699077
0.691149
0.373593
0.526393
0.619994
0.322879
0.676382
0.610043
0.29917
0.696699
0.55959
0.29732
0.324083
0.328711
0.330247
0.6332
0.308899
0.296066
0.69552
0.315126
0.579257
0.336405
0.694388
0.703307
0.319314
0.321611
0.700067
0.480231
0.342318
0.329617
0.345595
0.309523
0.317249
0.325556
0.328387
0.451709
0.321737
0.685533
0.337812
0.700929
0.361613
0.289468
0.487054
0.276962
0.334112
0.279074
0.698861
0.463818
0.649368
0.558866
0.314685
0.639089
0.701107
0.4468
0.698903
0.653115
0.655339
0.320033
0.560256
0.401084
0.699388
0.558459
0.303404
0.293684
0.701754
0.348621
0.447165
0.695259
0.379147
0.69392
0.71621
0.332724
0.31303
0.300709
0.516997
0.313753
0.258507
0.310652
0.271906
0.6999
0.699886
0.483746
0.612205
0.483865
0.701917
0.355133
0.315128
0.569933
0.303953
0.702324
0.353343
0.384297
0.491399
0.700466
0.70154
0.551883
0.355276
0.297064
0.549834
0.700467
0.603306
0.54648
0.703655
0.700405
0.322891
0.703706
0.572267
0.682045
0.339266
0.319361
0.700701
0.69973
0.677685
0.700401
0.701835
0.700909
0.699158
0.679596
0.690377
0.334127
0.700147
0.380028
0.297164
0.341079
0.699799
0.700905
0.350945
0.701163
0.622028
0.329076
0.655423
0.698963
0.700003
0.314184
0.316265
0.699675
0.346471
0.354661
0.287152
0.324072
0.703599
0.246455
0.699514
0.336503
0.718923
0.699314
0.696226
0.70003
0.346872
0.334845
0.703138
0.702105
0.697372
0.699881
0.700075
0.479005
0.319627
0.305521
0.692203
0.560422
0.330173
0.477143
0.292221
0.700853
0.697196
0.34799
0.325833
0.701217
0.452404
0.700653
0.666785
0.312276
0.41642
0.695751
0.559751
0.303711
0.701434
0.701433
0.703085
0.321928
0.559417
0.316983
0.564139
0.681022
0.356267
0.350917
0.325215
0.565864
0.312085
0.310121
0.394404
0.679722
0.701431
0.310935
0.309619
0.329342
0.664268
0.32878
0.688963
0.28442
0.593552
0.700297
0.363383
0.302039
0.300505
0.480668
0.3067
0.701334
0.328308
0.312804
0.693659
0.294928
0.694392
0.704403
0.564914
0.344157
0.701919
0.699744
0.699712
0.692415
0.701457
0.697591
0.285936
0.581354
0.440759
0.708769
0.315467
0.700539
0.545212
0.308167
0.558597
0.699769
0.319668
0.670109
0.291659
0.308278
0.695323
0.698839
0.291705
0.281531
0.312315
0.287263
0.70106
0.698921
0.321659
0.332373
0.699853
0.698187
0.597065
0.699705
0.697277
0.316345
0.699911
0.453857
0.699296
0.366108
0.619428
0.476761
0.696422
0.69773
0.573009
0.349702
0.311716
0.697725
0.602172
0.615376
0.699658
0.283925
0.702248
0.69995
0.395853
0.520041
0.699737
0.353568
0.559877
0.683926
0.362203
0.698695
0.675538
0.318787
0.701734
0.297169
0.70139
0.326655
0.694037
0.706816
0.309846
0.683138
0.699513
0.69984
0.624819
0.704032
0.57394
0.332806
0.39992
0.287944
0.309473
0.559574
0.542355
0.697871
0.699953
0.336151
0.336545
0.702591
0.700403
0.70016
0.699932
0.321952
0.698924
0.700102
0.32455
0.283995
0.699121
0.698014
0.701374
0.289253
0.579818
0.319511
0.701919
0.703726
0.590614
0.715521
0.327416
0.706301
0.700852
0.699831
0.698997
0.690175
0.436814
0.699406
0.325755
0.699882
0.700222
0.469993
0.717066
0.618828
0.699351
0.418071
0.374014
0.577625
0.668841
0.347468
0.35609
0.325734
0.322448
0.717928
0.702474
0.615729
0.33067
0.320056
0.697107
0.695469
0.242124
0.336948
0.474477
0.700732
0.698282
0.699743
0.699283
0.326149
0.348936
0.559656
0.290242
0.338377
0.328714
0.69574
0.318664
0.345785
0.604627
0.705728
0.702213
0.689811
0.698034
0.306399
0.298317
0.326958
0.566073
0.462785
0.29121
0.695937
0.699134
0.702054
0.692434
0.290011
0.349116
0.700387
0.343523
0.690174
0.70488
0.559371
0.291052
0.347095
0.702247
0.556023
0.641836
0.242227
0.700586
0.690044
0.602077
0.699871
0.700064
0.559661
0.703549
0.323244
0.697525
0.555411
0.689726
0.701725
0.559565
0.702329
0.561281
0.698027
0.312347
0.309118
0.35018
0.555854
0.549164
0.343604
0.702664
0.699833
0.281124
0.673099
0.321774
0.682912
0.550256
0.316755
0.700286
0.698787
0.331617
0.533361
0.556765
0.311374
0.701153
0.306901
0.289705
0.645516
0.622247
0.486883
0.693947
0.325783
0.699427
0.31039
0.290087
0.693881
0.32874
0.631265
0.292558
0.675454
0.619826
0.559683
0.7014
0.300181
0.312226
0.691993
0.493926
0.700472
0.516382
0.624148
0.692731
0.699752
0.51033
0.614861
0.701959
0.699714
0.696778
0.385717
0.357588
0.52827
0.701606
0.699833
0.358899
0.695529
0.64113
0.376727
0.290982
0.680703
0.700114
0.563633
0.564888
0.694392
0.701321
0.688059
0.700889
0.292419
0.674928
0.474139
0.699125
0.698247
0.350675
0.701192
0.699944
0.31276
0.305631
0.318319
0.559751
0.315525
0.643329
0.69971
0.674873
0.319022
0.701641
0.302527
0.580902
0.668044
0.589548
0.694596
0.656537
0.634311
0.701952
0.567859
0.710349
0.326338
0.690059
0.695904
0.468757
0.563361
0.70211
0.298194
0.295416
0.312878
0.699744
0.355613
0.559597
0.327857
0.700567
0.294039
0.476782
0.287471
0.699356
0.699675
0.619561
0.286592
0.636584
0.684579
0.329049
0.598561
0.699887
0.290754
0.611434
0.559435
0.700246
0.69017
0.302172
0.544132
0.699899
0.692818
0.703286
0.349069
0.373476
0.700204
0.559768
0.559657
0.559815
0.602566
0.702294
0.598517
0.698937
0.348419
0.304237
0.55979
0.699945
0.686505
0.310495
0.690369
0.614998
0.645121
0.324213
0.436364
0.699574
0.699825
0.566455
0.347368
0.691421
0.563227
0.311156
0.624739
0.699295
0.311577
0.289261
0.288377
0.702192
0.328406
0.335401
0.699493
0.51783
0.699835
0.678062
0.309436
0.31896
0.699892
0.312978
0.309931
0.556397
0.280882
0.345162
0.614508
0.701551
0.702147
0.320804
0.331415
0.316843
0.704463
0.290557
0.701659
0.303284
0.7024
0.700822
0.69983
0.703694
0.705757
0.703793
0.698169
0.700008
0.699444
0.2539
0.325693
0.713721
0.689407
0.490281
0.702449
0.576608
0.682906
0.689567
0.318446
0.697717
0.700049
0.707757
0.317396
0.705198
0.321929
0.700474
0.481105
0.699371
0.692418
0.319562
0.700685
0.328588
0.489371
0.711531
0.328503
0.696253
0.55972
0.700885
0.330088
0.695633
0.323281
0.292521
0.294066
0.33201
0.689959
0.311803
0.689425
0.637161
0.348384
0.295794
0.477128
0.576738
0.657384
0.69982
0.343101
0.313383
0.313241
0.287648
0.279729
0.660019
0.70172
0.31523
0.658448
0.699997
0.286325
0.7
0.694153
0.655764
0.321224
0.560357
0.704472
0.699468
0.6997
0.314848
0.701903
0.699725
0.704514
0.679593
0.688591
0.323164
0.294827
0.699281
0.523404
0.350841
0.693355
0.294485
0.559859
0.663893
0.701696
0.70133
0.291893
0.702295
0.369093
0.318239
0.699214
0.69985
0.699856
0.698939
0.693524
0.292835
0.700046
0.310364
0.488601
0.699896
0.559638
0.700044
0.318107
0.303261
0.700156
0.324847
0.699623
0.66058
0.462447
0.332091
0.698324
0.293127
0.6922
0.699632
0.697356
0.293343
0.309302
0.514379
0.564592
0.650237
0.500933
0.694581
0.699631
0.700648
0.559587
0.702122
0.302842
0.331237
0.699537
0.687743
0.702726
0.467591
0.30784
0.704459
0.30793
0.697319
0.619584
0.343121
0.700858
0.318862
0.701447
0.323023
0.699909
0.30775
0.702327
0.687974
0.285629
0.701352
0.668444
0.284563
0.605513
0.699586
0.57912
0.274876
0.355442
0.505149
0.699731
0.694541
0.339114
0.575752
0.701592
0.693359
0.322064
0.65504
0.700838
0.44701
0.694349
0.69569
0.343445
0.698939
0.558642
0.323853
0.630369
0.331041
0.68592
0.328241
0.289238
0.699779
0.3356
0.330014
0.299316
0.696282
0.702758
0.379439
0.691207
0.353689
0.707239
0.324317
0.703429
0.357561
0.693205
0.699092
0.693335
0.605678
0.535875
0.68771
0.65282
0.317948
0.650013
0.693874
0.585068
0.702382
0.480938
0.396613
0.700038
0.332745
0.579476
0.324199
0.690873
0.258584
0.295529
0.698876
0.697742
0.332763
0.698863
0.699042
0.559588
0.699859
0.566151
0.324175
0.700267
0.334372
0.301093
0.701267
0.699286
0.700583
0.700947
0.291463
0.327537
0.31561
0.716681
0.629418
0.353844
0.701638
0.309115
0.329287
0.324376
0.701046
0.379467
0.70004
0.699654
0.647755
0.698899
0.699755
0.609425
0.696114
0.447668
0.28847
0.33358
0.566103
0.564532
0.308928
0.660687
0.701481
0.693627
0.302445
0.422579
0.70095
0.316652
0.69869
0.681742
0.33558
0.684685
0.716944
0.350299
0.702389
0.308691
0.697699
0.700021
0.705949
0.308082
0.463802
0.695651
0.346448
0.437336
0.698849
0.358996
0.686867
0.696645
0.700808
0.699066
0.348534
0.562907
0.699255
0.694612
0.400099
0.698778
0.317314
0.27003
0.701373
0.697836
0.634849
0.264453
0.692966
0.647253
0.559828
0.312424
0.300153
0.345239
0.698642
0.312281
0.297544
0.320022
0.679716
0.305311
0.349784
0.450165
0.701467
0.34188
0.596346
0.678282
0.698892
0.329748
0.6988
0.676583
0.652078
0.43884
0.677985
0.312291
0.33203
0.695489
0.331857
0.664844
0.701983
0.559705
0.342452
0.366387
0.320374
0.547779
0.562659
0.272313
0.700834
0.696022
0.699272
0.325661
0.308817
0.383992
0.697901
0.334521
0.55973
0.608752
0.683852
0.699994
0.315928
0.669671
0.287431
0.674937
0.662681
0.700384
0.667559
0.587851
0.681163
0.704292
0.699486
0.331712
0.360444
0.316717
0.699277
0.563136
0.559321
0.3412
0.425294
0.69933
0.698821
0.569916
0.332688
0.699132
0.545801
0.551464
0.695603
0.307189
0.332158
0.34738
0.697478
0.638384
0.677715
0.702114
0.37175
0.700922
0.674159
0.639782
0.632578
0.700721
0.700112
0.690089
0.699376
0.699779
0.303078
0.698592
0.698949
0.694217
0.698992
0.697972
0.650539
0.331107
0.28657
0.695028
0.3479
0.348008
0.699483
0.303494
0.648792
0.69671
0.714528
0.706961
0.300337
0.699639
0.294525
0.304288
0.690477
0.702956
0.693109
0.328737
0.69923
0.692014
0.698138
0.698498
0.322369
0.691333
0.700185
0.714484
0.373537
0.699177
0.319143
0.699272
0.327845
0.333295
0.624825
0.472479
0.700276
0.699335
0.69014
0.319273
0.690402
0.382544
0.30527
0.701522
0.476435
0.341985
0.690417
0.285073
0.497076
0.692109
0.703353
0.701783
0.478744
0.593062
0.681437
0.690412
0.653102
0.699891
0.524799
0.701312
0.702005
0.673275
0.289041
0.313912
0.469443
0.698851
0.298874
0.684026
0.699033
0.630353
0.690986
0.606539
0.696979
0.701246
0.320133
0.698782
0.7022
0.595433
0.702345
0.700068
0.701449
0.692617
0.326261
0.310369
0.706547
0.567676
0.604681
0.69811
0.701127
0.692876
0.699773
0.69995
0.648365
0.69941
0.700315
0.297804
0.276433
0.251161
0.336731
0.559631
0.489118
0.596546
0.701105
0.701451
0.302517
0.708596
0.699697
0.32762
0.391979
0.559627
0.698632
0.307097
0.290927
0.287853
0.559598
0.701031
0.376508
0.303662
0.333919
0.296613
0.34891
0.352303
0.701607
0.698638
0.703121
0.330356
0.713392
0.645928
0.613054
0.336246
0.322256
0.701478
0.560356
0.339898
0.693818
0.348515
0.699123
0.30339
0.699053
0.329822
0.701908
0.699664
0.330205
0.553979
0.323604
0.700157
0.25932
0.65119
0.294125
0.536217
0.313352
0.647581
0.32941
0.580108
0.592548
0.612532
0.706877
0.338176
0.702097
0.685933
0.699425
0.642701
0.706902
0.323619
0.420256
0.312503
0.699907
0.333137
0.699951
0.545207
0.699258
0.700216
0.54304
0.699427
0.305169
0.303221
0.299781
0.531322
0.627908
0.702129
0.326207
0.322726
0.693231
0.406429
0.292641
0.651345
0.385633
0.342913
0.290928
0.700675
0.667435
0.654321
0.30442
0.70298
0.697155
0.289914
0.375651
0.700862
0.697229
0.672715
0.50162
0.424265
0.400657
0.32658
0.701109
0.695789
0.56229
0.69922
0.299669
0.601546
0.317648
0.562623
0.69977
0.326651
0.324558
0.70057
0.647689
0.699958
0.699817
0.699737
0.699499
0.69996
0.326393
0.324417
0.317487
0.316251
0.622332
0.557139
0.668863
0.319908
0.342661
0.513389
0.289467
0.692745
0.702967
0.330021
0.333292
0.696543
0.305441
0.681377
0.699513
0.704127
0.692389
0.6179
0.354518
0.326009
0.698682
0.328082
0.443288
0.376413
0.691076
0.69826
0.325784
0.335705
0.559645
0.32956
0.696637
0.699905
0.348246
0.313473
0.291051
0.696423
0.302347
0.559802
0.701259
0.634182
0.290022
0.520305
0.699678
0.701487
0.31078
0.701075
0.69399
0.290711
0.699233
0.700623
0.31738
0.34236
0.702471
0.32661
0.31627
0.701544
0.38705
0.697712
0.696599
0.699638
0.689151
0.699952
0.696492
0.687196
0.314259
0.432225
0.707996
0.703601
0.462527
0.700137
0.334993
0.69798
0.701662
0.592713
0.675017
0.419566
0.477362
0.707595
0.699998
0.702171
0.69963
0.695172
0.559654
0.699966
0.559599
0.701497
0.70137
0.700808
0.560269
0.687669
0.290131
0.70119
0.317862
0.69824
0.698429
0.699148
0.70417
0.698959
0.314116
0.32309
0.353629
0.312094
0.704444
0.326812
0.32123
0.70207
0.290583
0.699649
0.325995
0.701127
0.701502
0.335767
0.408015
0.3449
0.698791
0.311643
0.702092
0.70082
0.320279
0.701707
0.555902
0.351944
0.31302
0.288782
0.698783
0.344938
0.698897
0.606244
0.32861
0.699668
0.690219
0.699721
0.347518
0.60757
0.291628
0.714511
0.691112
0.69718
0.352505
0.704181
0.698093
0.702341
0.418838
0.69877
0.353347
0.323077
0.69991
0.487569
0.700201
0.407095
0.349253
0.455097
0.702581
0.313019
0.290144
0.326199
0.554002
0.559654
0.701133
0.254916
0.64057
0.695642
0.545424
0.479379
0.340982
0.558045
0.354806
0.320269
0.699781
0.324443
0.339622
0.699724
0.699876
0.328244
0.699464
0.325316
0.559653
0.315173
0.701367
0.572208
0.699067
0.681462
0.31444
0.319717
0.293547
0.691462
0.701777
0.589602
0.556303
0.402259
0.346757
0.690044
0.315166
0.698424
0.411643
0.576194
0.697055
0.327638
0.319969
0.325575
0.334326
0.319064
0.700955
0.703544
0.330827
0.698899
0.666639
0.332468
0.308941
0.699892
0.338456
0.700841
0.442757
0.699195
0.679949
0.698759
0.560236
0.305436
0.700002
0.698587
0.700716
0.337335
0.693591
0.600969
0.346639
0.698961
0.694249
0.701805
0.70246
0.699988
0.700317
0.700202
0.695716
0.698168
0.336534
0.699786
0.326109
0.520269
0.698795
0.293212
0.701719
0.701354
0.320343
0.702347
0.338434
0.291175
0.701066
0.69655
0.699874
0.322303
0.702966
0.636398
0.3161
0.331631
0.701604
0.697221
0.407401
0.32287
0.699691
0.6999
0.351642
0.671178
0.699844
0.668404
0.322599
0.35188
0.292212
0.680349
0.310089
0.700439
0.699191
0.69017
0.651991
0.700378
0.323175
0.701217
0.625477
0.699643
0.665034
0.294872
0.312816
0.289648
0.699278
0.700265
0.440331
0.67807
0.333372
0.695597
0.697906
0.282816
0.691281
0.700369
0.651389
0.330859
0.314099
0.338114
0.699549
0.700192
0.63372
0.501853
0.699065
0.338305
0.657462
0.559719
0.704173
0.330418
0.636027
0.321545
0.702872
0.291889
0.705143
0.701079
0.304874
0.699312
0.49236
0.559778
0.676747
0.559666
0.699672
0.399368
0.689883
0.690433
0.697979
0.703926
0.470882
0.559732
0.270647
0.690957
0.288128
0.337145
0.300802
0.318659
0.35145
0.331759
0.699865
0.404443
0.299032
0.690528
0.699383
0.703304
0.379249
0.69915
0.699084
0.690982
0.290391
0.669868
0.696578
0.334199
0.323633
0.319502
0.655316
0.493316
0.346883
0.65542
0.289897
0.566043
0.488492
0.304246
0.47423
0.674899
0.341074
0.697087
0.303956
0.574558
0.396765
0.70097
0.396889
0.691678
0.559711
0.700735
0.466799
0.325998
0.70124
0.699989
0.321291
0.292528
0.692858
0.335959
0.699265
0.32966
0.554969
0.284508
0.696432
0.324852
0.699903
0.33681
0.698079
0.699195
0.699988
0.559812
0.276627
0.29803
0.376781
0.701284
0.70219
0.702496
0.631808
0.322745
0.699478
0.341348
0.702169
0.69152
0.398793
0.331101
0.699539
0.704104
0.29312
0.554682
0.701162
0.699749
0.699735
0.30329
0.659598
0.329946
0.699814
0.307087
0.66008
0.702077
0.701492
0.699911
0.330919
0.70018
0.333657
0.320095
0.696583
0.559811
0.575948
0.705701
0.559678
0.336319
0.699211
0.70088
0.700276
0.292025
0.46879
0.699507
0.32618
0.698194
0.699402
0.701602
0.700793
0.321887
0.50984
0.671008
0.302628
0.701467
0.699716
0.515715
0.701162
0.298836
0.698347
0.698918
0.693219
0.701131
0.312897
0.296317
0.702061
0.701501
0.319513
0.341836
0.320629
0.303159
0.296891
0.288496
0.318256
0.349375
0.702814
0.291953
0.3241
0.700265
0.577755
0.559722
0.427067
0.339167
0.696015
0.505044
0.565572
0.699995
0.388828
0.677314
0.60189
0.619474
0.70853
0.313566
0.700812
0.675426
0.317577
0.32208
0.400008
0.700306
0.621397
0.700027
0.691914
0.703746
0.714799
0.360636
0.69924
0.683914
0.701596
0.332426
0.696657
0.678122
0.357707
0.465405
0.292102
0.288522
0.288549
0.61683
0.693132
0.711062
0.321195
0.410568
0.699749
0.285169
0.700802
0.690634
0.701636
0.693174
0.698964
0.332717
0.290267
0.288667
0.610331
0.306262
0.696997
0.288704
0.695844
0.694151
0.698556
0.332989
0.505532
0.403027
0.699559
0.322964
0.318477
0.699803
0.704947
0.676429
0.69185
0.701553
0.699265
0.35681
0.636396
0.699923
0.517131
0.700619
0.699914
0.699303
0.451059
0.44092
0.700342
0.486166
0.657337
0.329125
0.71036
0.701132
0.374691
0.312165
0.716774
0.520637
0.700001
0.700803
0.346643
0.327099
0.559469
0.44665
0.385294
0.700329
0.7015
0.321359
0.700067
0.560682
0.704545
0.357178
0.616693
0.355505
0.699531
0.69967
0.699266
0.713299
0.564119
0.344923
0.351289
0.703749
0.329417
0.614131
0.325548
0.698853
0.275443
0.678862
0.699939
0.566019
0.352862
0.559726
0.55979
0.316789
0.712762
0.288853
0.700748
0.346166
0.327465
0.2771
0.704419
0.699367
0.376027
0.354903
0.700574