# vtk DataFile Version 1.0
unstructured grid
ascii
DATASET UNSTRUCTURED_GRID
points 13672 float
0.0796578 -0.059106 0
0.00128732 0.00159165 0
0.00227961 -0.00102548 0
0.0791586 -0.0598787 0
-0.0546216 0.01 0
0.000495206 0.025 0
0.0800549 -0.035 0
0.135172 -0.08 0
-0.0546216 -0.0451168 0
0.000495206 -0.0301168 0
0.0800549 -0.0901168 0
0.135172 -0.135117 0
-0.0546216 -0.0451168 -0.00551168
0.000495206 -0.0301168 -0.00551168
0.0800549 -0.0901168 -0.00551168
0.135172 -0.135117 -0.00551168
0.135172 -0.08 -0.00551168
0.0800549 -0.035 -0.00551168
0.000495206 0.025 -0.00551168
-0.0546216 0.01 -0.00551168
0.00128732 0.00159165 -0.00551168
0.00227961 -0.00102548 -0.00551168
0.0791586 -0.0598787 -0.00551168
0.0796578 -0.059106 -0.00551168
0.00165953 -0.000990923 0
0.00119576 -0.000874076 0
0.000866021 -0.000641801 0
0.000645147 -0.000349912 0
0.00052235 -1.7281e-05 0
0.00049972 0.000348016 0
0.000601632 0.000737716 0
0.000861774 0.0011403 0
0.00157235 0.00183217 0
0.00188647 0.00206725 0
0.00222612 0.00230203 0
0.00258713 0.00254351 0
0.00296826 0.00279524 0
0.00337118 0.00305664 0
0.00379785 0.00332658 0
0.00425045 0.00360349 0
0.00473139 0.00388521 0
0.0052432 0.00416895 0
0.0057881 0.00445204 0
0.00636753 0.00473281 0
0.00698281 0.00500961 0
0.00763526 0.00528058 0
0.00832616 0.00554366 0
0.00905691 0.00579603 0
0.00982918 0.00603333 0
0.0106445 0.00625033 0
0.0115038 0.00644128 0
0.0124073 0.00660297 0
0.0133543 0.00673414 0
0.0143444 0.00683382 0
0.0153769 0.00690031 0
0.0164512 0.00693173 0
0.0175666 0.00692547 0
0.0187219 0.00687822 0
0.0199156 0.00678477 0
0.0211454 0.00663864 0
0.0224084 0.00643275 0
0.0237018 0.00616676 0
0.0250249 0.00584739 0
0.026375 0.00547298 0
0.0277479 0.00503752 0
0.0291386 0.00453545 0
0.0305433 0.0039653 0
0.0319572 0.0033256 0
0.0333681 0.00260019 0
0.034775 0.00179799 0
0.0361793 0.000930615 0
0.0375798 3.12222e-06 0
0.0389689 -0.000988429 0
0.0403357 -0.00205109 0
0.041675 -0.00318283 0
0.0429849 -0.00437751 0
0.0442643 -0.00562904 0
0.0455126 -0.00693089 0
0.0467314 -0.00827518 0
0.0479204 -0.00965638 0
0.0490661 -0.0110799 0
0.0501515 -0.0125519 0
0.0511696 -0.0140695 0
0.0521492 -0.0156071 0
0.0531202 -0.0171411 0
0.0540851 -0.0186663 0
0.0550431 -0.0201798 0
0.0559923 -0.0216793 0
0.0569311 -0.0231626 0
0.0578582 -0.0246273 0
0.0587723 -0.0260715 0
0.0596721 -0.027493 0
0.0605563 -0.02889 0
0.0614241 -0.0302609 0
0.0622742 -0.0316042 0
0.063106 -0.0329183 0
0.0639186 -0.034202 0
0.0647113 -0.0354543 0
0.0654835 -0.0366743 0
0.0662345 -0.0378613 0
0.0669642 -0.0390145 0
0.0676726 -0.0401333 0
0.0683597 -0.0412172 0
0.0690246 -0.0422665 0
0.0696662 -0.0432819 0
0.0702841 -0.0442636 0
0.0708793 -0.0452111 0
0.0714538 -0.0461237 0
0.072009 -0.047001 0
0.0725452 -0.0478434 0
0.0730611 -0.0486524 0
0.073556 -0.0494294 0
0.0740291 -0.0501756 0
0.0744812 -0.0508916 0
0.0749138 -0.0515773 0
0.0753285 -0.0522331 0
0.0757266 -0.0528592 0
0.076109 -0.0534564 0
0.0764753 -0.0540264 0
0.0768243 -0.054571 0
0.0771553 -0.0550919 0
0.0774679 -0.0555901 0
0.0777617 -0.0560669 0
0.0780369 -0.056523 0
0.0782958 -0.0569578 0
0.0785421 -0.0573703 0
0.0787786 -0.0577603 0
0.0790073 -0.0581279 0
0.0792295 -0.058474 0
0.0794462 -0.0587995 0
0.0798803 -0.0594162 0
0.0800272 -0.0596588 0
0.0800357 -0.0598891 0
0.0799275 -0.0600784 0
0.0797205 -0.0601773 0
0.0794593 -0.0601051 0
0.0789155 -0.0596491 0
0.0786707 -0.0593963 0
0.0784111 -0.0591319 0
0.0781372 -0.0588542 0
0.0778566 -0.0585548 0
0.0775715 -0.0582308 0
0.0772803 -0.0578828 0
0.0769832 -0.0575099 0
0.0766822 -0.0571097 0
0.0763801 -0.0566796 0
0.0760759 -0.0562196 0
0.0757623 -0.0557337 0
0.0754359 -0.0552232 0
0.0750951 -0.0546879 0
0.0747379 -0.054128 0
0.0743626 -0.0535435 0
0.0739688 -0.0529338 0
0.0735559 -0.0522981 0
0.0731238 -0.0516357 0
0.0726718 -0.050946 0
0.0721991 -0.0502288 0
0.0717046 -0.049484 0
0.0711872 -0.0487117 0
0.0706461 -0.047912 0
0.0700804 -0.0470849 0
0.0694892 -0.0462308 0
0.0688718 -0.0453499 0
0.0682271 -0.0444431 0
0.0675544 -0.043511 0
0.0668527 -0.0425546 0
0.0661215 -0.0415748 0
0.06536 -0.040573 0
0.0645676 -0.0395504 0
0.0637439 -0.0385087 0
0.0628887 -0.0374493 0
0.062002 -0.0363741 0
0.0610838 -0.0352847 0
0.0601345 -0.0341831 0
0.0591547 -0.033071 0
0.0581456 -0.0319502 0
0.0571083 -0.0308224 0
0.0560444 -0.0296893 0
0.0549562 -0.028552 0
0.053845 -0.0274126 0
0.0527113 -0.0262746 0
0.051554 -0.0251427 0
0.0503724 -0.0240222 0
0.0491675 -0.0229164 0
0.047941 -0.0218282 0
0.0466955 -0.0207597 0
0.0454337 -0.0197126 0
0.0441592 -0.0186878 0
0.0428751 -0.0176863 0
0.0415841 -0.0167097 0
0.0402878 -0.0157609 0
0.0389879 -0.0148428 0
0.0376864 -0.0139575 0
0.0363853 -0.013107 0
0.0350871 -0.0122931 0
0.0337942 -0.0115164 0
0.0325095 -0.0107772 0
0.0312357 -0.0100756 0
0.0299758 -0.00941024 0
0.0287337 -0.00877784 0
0.0275126 -0.00817571 0
0.0263139 -0.00760375 0
0.0251376 -0.00706528 0
0.0239829 -0.0065649 0
0.0228537 -0.00609619 0
0.0217522 -0.00565563 0
0.0206795 -0.00524226 0
0.0196364 -0.00485507 0
0.0186233 -0.00449318 0
0.0176408 -0.00415577 0
0.016689 -0.00384204 0
0.0157682 -0.00355115 0
0.0148783 -0.00328218 0
0.0140192 -0.00303468 0
0.0131906 -0.00280795 0
0.0123925 -0.00260016 0
0.0116246 -0.00241012 0
0.0108864 -0.00223769 0
0.0101774 -0.00208212 0
0.00949701 -0.00194206 0
0.00884483 -0.0018163 0
0.0082202 -0.0017039 0
0.00762247 -0.00160391 0
0.00705097 -0.00151528 0
0.006505 -0.00143697 0
0.0059838 -0.00136806 0
0.00548662 -0.00130772 0
0.00501265 -0.00125519 0
0.00456114 -0.00120954 0
0.00413136 -0.00116914 0
0.00372257 -0.00113251 0
0.00333398 -0.00109853 0
0.00296466 -0.00106798 0
0.00261363 -0.0010431 0
-0.052721 -0.0445996 0
-0.0508204 -0.0440823 0
-0.0489199 -0.0435651 0
-0.0470193 -0.0430478 0
-0.0451187 -0.0425306 0
-0.0432181 -0.0420134 0
-0.0413175 -0.0414961 0
-0.039417 -0.0409789 0
-0.0375164 -0.0404616 0
-0.0356158 -0.0399444 0
-0.0337152 -0.0394271 0
-0.0318146 -0.0389099 0
-0.0299141 -0.0383927 0
-0.0280135 -0.0378754 0
-0.0261129 -0.0373582 0
-0.0242123 -0.0368409 0
-0.0223117 -0.0363237 0
-0.0204112 -0.0358065 0
-0.0185106 -0.0352892 0
-0.01661 -0.034772 0
-0.0147094 -0.0342547 0
-0.0128088 -0.0337375 0
-0.0109083 -0.0332202 0
-0.00900769 -0.032703 0
-0.00710711 -0.0321858 0
-0.00520653 -0.0316685 0
-0.00330595 -0.0311513 0
-0.00140537 -0.030634 0
0.00190689 -0.0299614 0
0.00332271 -0.0298498 0
0.00474133 -0.0297825 0
0.00616136 -0.0297597 0
0.0075814 -0.0297814 0
0.00900007 -0.0298477 0
0.010416 -0.0299583 0
0.0118278 -0.0301127 0
0.0132342 -0.0303103 0
0.0146339 -0.0305504 0
0.0160259 -0.0308322 0
0.0174091 -0.0311546 0
0.0187824 -0.0315166 0
0.020145 -0.031917 0
0.0214961 -0.0323546 0
0.0228351 -0.032828 0
0.0241613 -0.0333361 0
0.0254744 -0.0338774 0
0.0267738 -0.0344507 0
0.0280592 -0.0350545 0
0.0293306 -0.0356877 0
0.0305875 -0.0363488 0
0.0318301 -0.0370367 0
0.0330581 -0.0377501 0
0.0342717 -0.0384879 0
0.0354708 -0.0392489 0
0.0366556 -0.0400321 0
0.0378262 -0.0408363 0
0.0389828 -0.0416607 0
0.0401254 -0.0425042 0
0.0412543 -0.0433659 0
0.0423698 -0.0442451 0
0.043472 -0.0451408 0
0.0445612 -0.0460523 0
0.0456375 -0.0469789 0
0.0467013 -0.0479199 0
0.0477529 -0.0488746 0
0.0487923 -0.0498424 0
0.04982 -0.0508227 0
0.0508362 -0.051815 0
0.051841 -0.0528187 0
0.0528348 -0.0538333 0
0.0538178 -0.0548584 0
0.0547903 -0.0558935 0
0.0557524 -0.0569382 0
0.0567045 -0.0579922 0
0.0576467 -0.0590549 0
0.0585792 -0.0601261 0
0.0595024 -0.0612055 0
0.0604163 -0.0622926 0
0.0613212 -0.0633873 0
0.0622174 -0.0644891 0
0.0631049 -0.0655979 0
0.0639841 -0.0667134 0
0.064855 -0.0678353 0
0.0657179 -0.0689633 0
0.0665729 -0.0700974 0
0.0674202 -0.0712372 0
0.06826 -0.0723826 0
0.0690925 -0.0735333 0
0.0699178 -0.0746892 0
0.070736 -0.0758501 0
0.0715473 -0.0770159 0
0.0723518 -0.0781863 0
0.0731498 -0.0793612 0
0.0739412 -0.0805405 0
0.0747264 -0.081724 0
0.0755053 -0.0829116 0
0.0762781 -0.0841033 0
0.0770449 -0.0852987 0
0.0778059 -0.0864979 0
0.0785611 -0.0877007 0
0.0793108 -0.088907 0
0.0814681 -0.0912706 0
0.0828814 -0.0924245 0
0.0842946 -0.0935783 0
0.0857079 -0.0947322 0
0.0871211 -0.095886 0
0.0885344 -0.0970399 0
0.0899476 -0.0981937 0
0.0913609 -0.0993476 0
0.0927741 -0.100501 0
0.0941874 -0.101655 0
0.0956006 -0.102809 0
0.0970139 -0.103963 0
0.0984272 -0.105117 0
0.0998404 -0.106271 0
0.101254 -0.107424 0
0.102667 -0.108578 0
0.10408 -0.109732 0
0.105493 -0.110886 0
0.106907 -0.11204 0
0.10832 -0.113194 0
0.109733 -0.114348 0
0.111146 -0.115501 0
0.11256 -0.116655 0
0.113973 -0.117809 0
0.115386 -0.118963 0
0.116799 -0.120117 0
0.118213 -0.121271 0
0.119626 -0.122424 0
0.121039 -0.123578 0
0.122452 -0.124732 0
0.123866 -0.125886 0
0.125279 -0.12704 0
0.126692 -0.128194 0
0.128105 -0.129348 0
0.129519 -0.130501 0
0.130932 -0.131655 0
0.132345 -0.132809 0
0.133758 -0.133963 0
0.135172 -0.133216 0
0.135172 -0.131316 0
0.135172 -0.129415 0
0.135172 -0.127514 0
0.135172 -0.125614 0
0.135172 -0.123713 0
0.135172 -0.121813 0
0.135172 -0.119912 0
0.135172 -0.118012 0
0.135172 -0.116111 0
0.135172 -0.11421 0
0.135172 -0.11231 0
0.135172 -0.110409 0
0.135172 -0.108509 0
0.135172 -0.106608 0
0.135172 -0.104708 0
0.135172 -0.102807 0
0.135172 -0.100906 0
0.135172 -0.0990058 0
0.135172 -0.0971052 0
0.135172 -0.0952046 0
0.135172 -0.0933041 0
0.135172 -0.0914035 0
0.135172 -0.0895029 0
0.135172 -0.0876023 0
0.135172 -0.0857017 0
0.135172 -0.0838012 0
0.135172 -0.0819006 0
0.133758 -0.0788462 0
0.132345 -0.0776923 0
0.130932 -0.0765385 0
0.129519 -0.0753846 0
0.128105 -0.0742308 0
0.126692 -0.0730769 0
0.125279 -0.0719231 0
0.123866 -0.0707692 0
0.122452 -0.0696154 0
0.121039 -0.0684615 0
0.119626 -0.0673077 0
0.118213 -0.0661538 0
0.116799 -0.065 0
0.115386 -0.0638462 0
0.113973 -0.0626923 0
0.11256 -0.0615385 0
0.111146 -0.0603846 0
0.109733 -0.0592308 0
0.10832 -0.0580769 0
0.106907 -0.0569231 0
0.105493 -0.0557692 0
0.10408 -0.0546154 0
0.102667 -0.0534615 0
0.101254 -0.0523077 0
0.0998404 -0.0511538 0
0.0984272 -0.05 0
0.0970139 -0.0488462 0
0.0956006 -0.0476923 0
[...]
CELL_DATA 13116
SCALARS rho float
LOOKUP_TABLE default
0.611227
0.714881
0.322939
0.700119
0.699704
0.690561
0.307921
0.700892
0.554155
0.699619
0.314452
0.294968
0.699776
0.290692
0.324602
0.690715
0.626549
0.698066
0.699635
0.317184
0.602635
0.328198
0.298255
0.699187
0.616706
0.701362
0.699644
0.315943
0.590597
0.659327
0.557617
0.290911
0.570667
0.479481
0.309489
0.60847
0.688816
0.701217
0.681609
0.699618
0.693029
0.70093
0.519762
0.317629
0.698549
0.699446
0.704387
0.69812
0.327896
0.530551
0.699683
0.508742
0.288989
0.620854
0.572811
0.600982
0.315926
0.698558
0.536634
0.3142
0.29363
0.699992
0.717044
0.67265
0.562609
0.30759
0.696866
0.687878
0.697493
0.561319
0.327079
0.576019
0.331817
0.308545
0.559825
0.324569
0.690775
0.699556
0.310105
0.697841
0.698236
0.702774
0.698972
0.700571
0.70125
0.420137
0.305044
0.679552
0.701682
0.336791
0.291733
0.714547
0.6991
0.700778
0.66939
0.621128
0.619074
0.561575
0.55976
0.595142
0.682219
0.68763
0.698883
0.462927
0.700795
0.284417
0.382752
0.544636
0.308122
0.603457
0.563012
0.702947
0.618069
0.69833
0.697902
0.697421
0.301453
0.419679
0.698908
0.698338
0.686636
0.333453
0.697673
0.29195
0.701414
0.451572
0.304466
0.503964
0.310092
0.527476
0.698925
0.701804
0.473841
0.331125
0.457249
0.642908
0.561033
0.698396
0.681131
0.69844
0.681482
0.705424
0.507172
0.684169
0.706829
0.285862
0.310862
0.7029
0.69929
0.699555
0.520558
0.701297
0.697871
0.32531
0.699437
0.700855
0.29866
0.685911
0.560595
0.678588
0.699006
0.312951
0.698644
0.30137
0.334871
0.700084
0.701532
0.698036
0.308643
0.441555
0.420504
0.560178
0.318978
0.497389
0.697189
0.296464
0.329924
0.331007
0.702893
0.685148
0.332594
0.438882
0.580674
0.687286
0.68636
0.540433
0.323785
0.696709
0.700218
0.470043
0.673757
0.702954
0.571634
0.296084
0.702621
0.689119
0.699563
0.697181
0.702092
0.372528
0.461673
0.612765
0.499371
0.303857
0.700339
0.709312
0.514791
0.627524
0.291053
0.323396
0.325393
0.69481
0.299071
0.330954
0.330549
0.325482
0.416616
0.674383
0.701477
0.404409
0.315581
0.696585
0.559204
0.332839
0.521845
0.699719
0.705144
0.314974
0.697006
0.388535
0.702011
0.291337
0.565183
0.561207
0.562015
0.70036
0.598555
0.318417
0.450339
0.67629
0.559556
0.688319
0.561643
0.599289
0.701023
0.327467
0.698726
0.699523
0.559693
0.316282
0.329511
0.707881
0.69869
0.553907
0.700612
0.608652
0.695617
0.314502
0.319879
0.353227
0.285424
0.698422
0.699479
0.690529
0.30783
0.699106
0.314262
0.418318
0.701453
0.323532
0.702544
0.70005
0.559578
0.698693
0.315437
0.55958
0.699803
0.559779
0.698317
0.31164
0.309579
0.298045
0.641741
0.333338
0.327212
0.364712
0.353027
0.708489
0.271127
0.700835
0.699919
0.318325
0.322101
0.314204
0.449735
0.332747
0.678955
0.677097
0.7031
0.323953
0.694731
0.556819
0.329482
0.317577
0.68931
0.698606
0.697311
0.323163
0.689449
0.466146
0.702104
0.700654
0.699131
0.700545
0.297789
0.69671
0.281391
0.694253
0.699373
0.671786
0.32273
0.359268
0.699598
0.311559
0.70272
0.700013
0.350318
0.693737
0.698928
0.313203
0.699212
0.69909
0.253457
0.699284
0.404384
0.541578
0.702502
0.418023
0.686955
0.30856
0.698538
0.358226
0.634913
0.68849
0.699818
0.311664
0.394882
0.700963
0.323678
0.700356
0.701159
0.435038
0.559568
0.326807
0.333796
0.700905
0.526983
0.688974
0.30904
0.300008
0.698674
0.699904
0.312198
0.699855
0.299611
0.276931
0.698219
0.702123
0.563106
0.354867
0.698193
0.556215
0.690482
0.699671
0.699485
0.524456
0.346342
0.287677
0.331346
0.690211
0.332444
0.582128
0.351079
0.294813
0.39056
0.570079
0.133187
0.324456
0.70109
0.29117
0.698772
0.594785
0.697816
0.670524
0.698992
0.333454
0.310824
0.376703
0.343428
0.701029
0.615621
0.695911
0.594297
0.706953
0.639395
0.702925
0.664285
0.657394
0.700148
0.697823
0.690264
0.355456
0.50784
0.609285
0.329995
0.675213
0.60198
0.29439
0.697152
0.559536
0.298673
0.318022
0.325225
0.325182
0.619024
0.316437
0.296637
0.695874
0.31099
0.564398
0.334367
0.692166
0.701701
0.334526
0.326814
0.701062
0.44715
0.341005
0.323847
0.346692
0.307236
0.312002
0.319376
0.329468
0.42266
0.318359
0.684613
0.338813
0.701105
0.359484
0.292642
0.468093
0.288325
0.333996
0.288792
0.699156
0.431183
0.638609
0.559021
0.310546
0.630837
0.701434
0.417323
0.693226
0.644534
0.646522
0.314199
0.560775
0.418614
0.698951
0.558566
0.30255
0.288739
0.699762
0.345154
0.417489
0.690948
0.383157
0.684839
0.710459
0.324741
0.329511
0.317906
0.493817
0.318175
0.246919
0.322347
0.277678
0.700252
0.700116
0.454428
0.59887
0.46061
0.70252
0.40449
0.314424
0.557981
0.303055
0.702944
0.343549
0.401659
0.470246
0.698612
0.701951
0.535483
0.350188
0.291992
0.533262
0.700658
0.589309
0.53018
0.698764
0.697864
0.319583
0.701499
0.556753
0.674871
0.372271
0.334536
0.697709
0.699609
0.668304
0.699723
0.702366
0.701038
0.69863
0.67213
0.696459
0.334508
0.698849
0.349576
0.295255
0.334999
0.70006
0.70902
0.366973
0.701336
0.606543
0.324392
0.642994
0.698431
0.700651
0.314722
0.316469
0.699639
0.345185
0.353898
0.288902
0.320885
0.70633
0.24811
0.699798
0.337919
0.713302
0.699479
0.696924
0.699888
0.346358
0.326824
0.706547
0.702456
0.688469
0.700206
0.699509
0.458101
0.314018
0.304076
0.69179
0.545901
0.326298
0.446572
0.294194
0.701412
0.696916
0.376155
0.328495
0.701655
0.424199
0.700971
0.658133
0.309595
0.389124
0.687068
0.559376
0.302597
0.702094
0.70138
0.707738
0.322033
0.560505
0.313475
0.562539
0.673107
0.356485
0.414443
0.323732
0.564728
0.309207
0.306809
0.422697
0.672639
0.701187
0.307676
0.316507
0.326777
0.654351
0.332222
0.688169
0.285496
0.57867
0.699704
0.360709
0.300919
0.299294
0.460306
0.304785
0.702054
0.323015
0.317466
0.692287
0.306319
0.694063
0.703522
0.563053
0.345679
0.702019
0.698963
0.699469
0.693005
0.702065
0.698086
0.291274
0.573036
0.40986
0.709354
0.311476
0.700781
0.529723
0.305818
0.561251
0.699223
0.319566
0.661727
0.291816
0.328612
0.69568
0.699052
0.293941
0.28929
0.309152
0.290887
0.701747
0.699139
0.321721
0.325084
0.700437
0.698612
0.582027
0.698924
0.696326
0.313793
0.699801
0.425411
0.699566
0.430705
0.611326
0.452565
0.696398
0.689949
0.556809
0.398569
0.309519
0.697432
0.587008
0.611971
0.69882
0.288025
0.700711
0.699424
0.367155
0.50796
0.699143
0.348443
0.560462
0.677392
0.35395
0.698932
0.667082
0.335231
0.701201
0.297684
0.702359
0.323623
0.694075
0.716012
0.307434
0.677972
0.698693
0.699639
0.609586
0.70313
0.557718
0.332764
0.461874
0.291908
0.306454
0.559576
0.525343
0.698032
0.699265
0.336561
0.335433
0.70182
0.699809
0.701002
0.700175
0.316894
0.697813
0.699578
0.317605
0.285208
0.699075
0.70772
0.701935
0.288865
0.563167
0.334454
0.701431
0.703049
0.580247
0.713779
0.324012
0.707654
0.700942
0.699017
0.699701
0.690629
0.405327
0.699783
0.323955
0.70161
0.699556
0.441428
0.709987
0.603537
0.69937
0.473712
0.447183
0.561722
0.659589
0.344629
0.35627
0.324888
0.319273
0.711497
0.700727
0.604799
0.354812
0.316797
0.697389
0.68702
0.242458
0.33547
0.44765
0.692564
0.69702
0.700019
0.698926
0.324216
0.34555
0.559622
0.292103
0.331589
0.324477
0.696637
0.333094
0.346438
0.596491
0.708433
0.702878
0.689505
0.696719
0.302939
0.317108
0.326122
0.5704
0.431238
0.291531
0.687989
0.698825
0.702798
0.695008
0.289466
0.349207
0.699673
0.337868
0.690136
0.715495
0.559819
0.293797
0.348002
0.702386
0.557083
0.630233
0.246054
0.700995
0.689852
0.594269
0.699422
0.700239
0.55963
0.697986
0.31808
0.696349
0.554869
0.679228
0.701341
0.55965
0.703038
0.561557
0.698233
0.316879
0.330157
0.349634
0.557363
0.535491
0.338168
0.701997
0.700402
0.292194
0.664873
0.336112
0.673137
0.557067
0.314131
0.699924
0.698889
0.327811
0.516648
0.556842
0.308548
0.701069
0.303492
0.287356
0.637259
0.611546
0.467662
0.699104
0.325188
0.698712
0.329211
0.28891
0.693584
0.32501
0.622883
0.294097
0.666758
0.611462
0.559656
0.701632
0.300504
0.321784
0.696183
0.523506
0.701113
0.48788
0.615716
0.691189
0.699051
0.533983
0.600224
0.702799
0.699603
0.697388
0.36243
0.357149
0.51037
0.702689
0.699859
0.349423
0.699228
0.630727
0.375004
0.293892
0.67387
0.692319
0.561255
0.564976
0.688089
0.699609
0.684586
0.694358
0.293271
0.665626
0.446163
0.699104
0.707174
0.368788
0.701813
0.699678
0.331365
0.30787
0.31325
0.55972
0.312782
0.635088
0.700593
0.665934
0.335881
0.700846
0.300244
0.564449
0.657329
0.579179
0.686668
0.645668
0.625058
0.697755
0.556517
0.709968
0.322902
0.691997
0.696729
0.50681
0.561993
0.701246
0.298557
0.295289
0.309978
0.69913
0.35585
0.561753
0.327327
0.70079
0.291456
0.452903
0.292421
0.699038
0.699978
0.609051
0.288524
0.627094
0.681316
0.327723
0.583473
0.700135
0.2912
0.602499
0.559391
0.699675
0.691058
0.301505
0.544902
0.700588
0.700559
0.70163
0.349759
0.446844
0.700732
0.559697
0.559402
0.559395
0.594008
0.70156
0.59043
0.699143
0.349198
0.301922
0.55941
0.699585
0.681697
0.306999
0.693808
0.606947
0.635627
0.322569
0.407097
0.699891
0.700202
0.549471
0.346329
0.693601
0.562088
0.309034
0.614044
0.699208
0.309821
0.292665
0.287574
0.700806
0.330372
0.33626
0.69955
0.492466
0.699742
0.669253
0.30731
0.313472
0.700214
0.33003
0.316166
0.556811
0.281607
0.409249
0.606114
0.702075
0.701846
0.317698
0.339788
0.315146
0.704617
0.278024
0.701405
0.318122
0.702054
0.701004
0.698962
0.701812
0.707896
0.703194
0.696871
0.699855
0.70109
0.246714
0.324213
0.710635
0.68734
0.471079
0.702025
0.562538
0.67729
0.679863
0.333075
0.698059
0.700067
0.711438
0.316699
0.706874
0.336873
0.701054
0.46094
0.697832
0.693726
0.318105
0.701081
0.325747
0.475686
0.716601
0.324669
0.687637
0.559639
0.701489
0.325468
0.695752
0.320357
0.293518
0.294991
0.33171
0.685971
0.317105
0.680699
0.623996
0.3465
0.296432
0.453922
0.56093
0.64808
0.706464
0.344775
0.309257
0.311883
0.292307
0.276931
0.650776
0.702995
0.319878
0.649856
0.700673
0.287939
0.699904
0.685543
0.643094
0.319927
0.563339
0.703563
0.699733
0.699267
0.321043
0.701163
0.699373
0.705929
0.671944
0.691143
0.337332
0.295274
0.70027
0.505107
0.351496
0.692896
0.296165
0.543128
0.654636
0.702424
0.702246
0.292329
0.70173
0.35991
0.317527
0.695988
0.699744
0.699097
0.698713
0.685142
0.293958
0.699861
0.311319
0.469436
0.700063
0.559654
0.700782
0.317139
0.313693
0.69956
0.343
0.699717
0.651366
0.433233
0.325656
0.698446
0.294332
0.693374
0.699893
0.688875
0.294575
0.330293
0.494836
0.553188
0.641744
0.474833
0.692871
0.706728
0.700675
0.559582
0.701648
0.298857
0.326062
0.699529
0.689728
0.697474
0.438836
0.304904
0.700953
0.31424
0.696643
0.604741
0.344138
0.701166
0.315029
0.701541
0.327054
0.699316
0.310738
0.703253
0.684586
0.292808
0.701297
0.659061
0.292136
0.592494
0.699248
0.565997
0.28569
0.341786
0.474746
0.699068
0.694038
0.337966
0.559292
0.701339
0.69201
0.340713
0.645232
0.715158
0.418212
0.693185
0.694117
0.356107
0.700218
0.560584
0.320731
0.622368
0.325867
0.676356
0.327404
0.292127
0.699482
0.33679
0.327658
0.299398
0.696344
0.715924
0.367657
0.693845
0.373451
0.701712
0.321582
0.717748
0.352383
0.691607
0.69919
0.684862
0.591858
0.519634
0.684807
0.640629
0.319393
0.639855
0.684889
0.58808
0.701871
0.459761
0.46086
0.699833
0.331575
0.564383
0.337377
0.697296
0.246562
0.295999
0.698888
0.696405
0.324679
0.699051
0.698683
0.559605
0.700084
0.563895
0.31913
0.699961
0.326351
0.300231
0.701302
0.699
0.700806
0.701104
0.291592
0.326868
0.314093
0.715999
0.616436
0.350394
0.702298
0.30566
0.327201
0.324142
0.701337
0.427116
0.699877
0.701088
0.637002
0.699283
0.701111
0.600882
0.687958
0.417399
0.292906
0.32508
0.564162
0.564593
0.305579
0.65148
0.699716
0.685805
0.301724
0.477042
0.708242
0.311631
0.705156
0.674829
0.328611
0.680519
0.711475
0.344705
0.702781
0.312292
0.697827
0.699785
0.707858
0.311335
0.43749
0.687745
0.360111
0.409101
0.698736
0.378357
0.683051
0.697272
0.702733
0.698413
0.34921
0.56349
0.695765
0.699922
0.377399
0.699178
0.327572
0.278926
0.700571
0.696937
0.622361
0.255906
0.694273
0.636052
0.559787
0.308512
0.296351
0.344776
0.698623
0.310316
0.31177
0.334412
0.67446
0.317979
0.365949
0.420869
0.701455
0.335936
0.585269
0.672721
0.699409
0.324979
0.69896
0.667152
0.643774
0.410264
0.670309
0.311493
0.331197
0.695472
0.323603
0.655669
0.701352
0.559432
0.336754
0.359765
0.320054
0.531086
0.560925
0.262765
0.702891
0.69616
0.698066
0.323334
0.310823
0.362853
0.691956
0.330886
0.55967
0.594202
0.680393
0.700428
0.312224
0.661293
0.291511
0.671712
0.653572
0.69973
0.663644
0.592375
0.674384
0.69936
0.699596
0.328616
0.357342
0.312436
0.69777
0.549185
0.559346
0.335027
0.421418
0.699379
0.699352
0.56389
0.324069
0.699588
0.528986
0.535235
0.695198
0.305533
0.323824
0.36143
0.697034
0.624471
0.669714
0.702307
0.370053
0.701587
0.66596
0.625584
0.620472
0.701203
0.700043
0.689707
0.699806
0.699021
0.302376
0.698099
0.698842
0.694054
0.698336
0.697109
0.641704
0.325725
0.27564
0.685331
0.348785
0.348136
0.699708
0.328994
0.637222
0.69726
0.717641
0.710874
0.299656
0.699591
0.295171
0.30143
0.689792
0.701966
0.695312
0.323604
0.699707
0.698613
0.694276
0.697139
0.328092
0.693025
0.699563
0.709485
0.370185
0.698421
0.317017
0.699603
0.325178
0.32786
0.624962
0.44246
0.699885
0.698612
0.69105
0.333392
0.692298
0.37842
0.325906
0.702509
0.454905
0.343134
0.695133
0.296748
0.478422
0.684066
0.710618
0.702612
0.456882
0.576146
0.672998
0.690737
0.643513
0.699134
0.506554
0.701697
0.701913
0.663601
0.290202
0.310794
0.439326
0.698723
0.29888
0.676764
0.699149
0.621723
0.691321
0.596823
0.689902
0.695243
0.318843
0.698978
0.700821
0.599262
0.701313
0.699706
0.702064
0.691626
0.324088
0.325134
0.708417
0.555193
0.596319
0.698528
0.702064
0.695012
0.699708
0.699814
0.639715
0.70452
0.699565
0.31096
0.279793
0.245223
0.340429
0.559421
0.459522
0.588387
0.701212
0.697747
0.301609
0.710358
0.700068
0.322098
0.404986
0.561608
0.698155
0.304957
0.286364
0.289109
0.55963
0.701959
0.375627
0.299881
0.326401
0.267571
0.344341
0.352737
0.70203
0.698635
0.702283
0.328757
0.717918
0.637591
0.598344
0.327995
0.316199
0.702579
0.560758
0.339384
0.69179
0.342624
0.698959
0.302597
0.699554
0.322899
0.702419
0.699943
0.32643
0.537418
0.346224
0.699916
0.291305
0.642574
0.295237
0.517178
0.312784
0.638214
0.328021
0.571919
0.581357
0.598036
0.708592
0.329846
0.717316
0.68744
0.699834
0.634469
0.70125
0.317349
0.457244
0.308821
0.699076
0.325721
0.699607
0.528392
0.69881
0.699732
0.550409
0.699843
0.327908
0.300281
0.318059
0.511478
0.631891
0.703918
0.324969
0.329202
0.692686
0.375715
0.293709
0.640417
0.410914
0.343138
0.279197
0.700947
0.659369
0.645495
0.302663
0.718114
0.697343
0.290496
0.345982
0.700898
0.695811
0.672031
0.483175
0.393455
0.376108
0.32618
0.701713
0.68884
0.549582
0.695041
0.297964
0.594165
0.314029
0.562195
0.69966
0.320095
0.340887
0.691362
0.636894
0.699873
0.69905
0.699266
0.699249
0.700015
0.325788
0.329971
0.313204
0.312302
0.610748
0.557367
0.661042
0.315257
0.340799
0.487268
0.292319
0.69519
0.710522
0.328416
0.362529
0.697157
0.304072
0.672957
0.698863
0.703755
0.693112
0.610065
0.352772
0.319324
0.699345
0.321473
0.465306
0.357843
0.689015
0.698242
0.340943
0.329146
0.559568
0.328368
0.696965
0.699109
0.344284
0.331303
0.28317
0.69738
0.298749
0.559645
0.700977
0.625977
0.288692
0.501568
0.69955
0.700093
0.307892
0.707467
0.683874
0.291267
0.699488
0.70102
0.316188
0.343701
0.702298
0.325119
0.312182
0.716189
0.356805
0.702858
0.688991
0.699178
0.679927
0.699517
0.696973
0.685759
0.31255
0.401055
0.697099
0.705705
0.43549
0.699931
0.370667
0.698217
0.70242
0.580351
0.665517
0.464489
0.448766
0.709739
0.699464
0.701609
0.699939
0.695823
0.559791
0.700111
0.559541
0.702028
0.702467
0.701205
0.560858
0.686347
0.291447
0.702674
0.316828
0.698356
0.698132
0.699538
0.702928
0.698106
0.329899
0.32276
0.370516
0.309213
0.707423
0.319504
0.320103
0.699483
0.287882
0.699857
0.325636
0.713544
0.701109
0.336958
0.376748
0.345425
0.698522
0.308658
0.705353
0.701125
0.320122
0.702694
0.539542
0.352317
0.311637
0.291122
0.695806
0.34605
0.699162
0.597482
0.349481
0.697824
0.692779
0.699233
0.341623
0.599675
0.294418
0.717287
0.690046
0.697609
0.352821
0.70623
0.698452
0.703081
0.431167
0.698444
0.348479
0.319916
0.700182
0.45525
0.69953
0.416021
0.349748
0.426464
0.703938
0.309888
0.290796
0.323583
0.549809
0.55995
0.701225
0.258279
0.632254
0.696519
0.529007
0.496848
0.342869
0.541982
0.352322
0.316144
0.70279
0.321582
0.335434
0.699272
0.700233
0.323334
0.698027
0.325144
0.560121
0.320237
0.702478
0.567012
0.697918
0.67634
0.329589
0.315901
0.294901
0.6905
0.702356
0.573062
0.539235
0.370967
0.338692
0.68816
0.313464
0.700989
0.383391
0.569844
0.689231
0.32128
0.316311
0.322382
0.327976
0.315221
0.693632
0.714281
0.324003
0.698545
0.656535
0.345646
0.317114
0.700181
0.339467
0.701189
0.411684
0.698193
0.671223
0.698691
0.562945
0.328876
0.699813
0.698698
0.701029
0.338658
0.699404
0.586216
0.34676
0.698628
0.686472
0.70211
0.714971
0.699984
0.700378
0.700437
0.694503
0.699411
0.337518
0.698946
0.322841
0.496483
0.698819
0.294922
0.700999
0.696032
0.33336
0.703405
0.339844
0.291865
0.700982
0.690648
0.700246
0.3199
0.711732
0.625906
0.321875
0.328078
0.701613
0.697055
0.400855
0.323528
0.700558
0.700168
0.352106
0.661468
0.699991
0.660375
0.316912
0.346327
0.292802
0.671603
0.311307
0.710188
0.697767
0.688797
0.642496
0.701124
0.320881
0.702038
0.610896
0.699913
0.664637
0.294793
0.310765
0.293562
0.699115
0.700874
0.408679
0.668985
0.340605
0.687703
0.698159
0.284166
0.681163
0.71002
0.642636
0.328031
0.30957
0.341295
0.700045
0.699515
0.623541
0.482969
0.700218
0.336931
0.648129
0.559633
0.705698
0.327761
0.62255
0.333843
0.699993
0.291264
0.708114
0.700976
0.302814
0.699629
0.516888
0.560053
0.668484
0.559655
0.699042
0.453048
0.686943
0.691599
0.697974
0.706821
0.447418
0.559667
0.25633
0.692829
0.290745
0.332854
0.304158
0.315065
0.348989
0.327206
0.700111
0.377819
0.316736
0.682689
0.699496
0.713775
0.377318
0.69833
0.694207
0.69246
0.254839
0.658486
0.696964
0.334606
0.325052
0.315867
0.64609
0.474566
0.343241
0.646565
0.289464
0.564544
0.469425
0.300689
0.449033
0.665284
0.341952
0.697002
0.304461
0.580184
0.399596
0.7014
0.414364
0.683064
0.559676
0.698353
0.49804
0.321615
0.701886
0.700117
0.32984
0.293616
0.691249
0.32821
0.698246
0.328676
0.538917
0.290266
0.69686
0.331116
0.700151
0.331342
0.698354
0.700869
0.699417
0.560385
0.262092
0.297461
0.374759
0.70164
0.699065
0.703923
0.636104
0.325456
0.700273
0.34305
0.702309
0.684829
0.450008
0.328356
0.698805
0.708728
0.294531
0.555646
0.701898
0.698996
0.699118
0.304301
0.650113
0.327115
0.69905
0.314805
0.649878
0.702543
0.702068
0.700251
0.351412
0.700543
0.334251
0.319101
0.696731
0.560303
0.563172
0.708504
0.559569
0.336398
0.698419
0.701231
0.70046
0.293775
0.437326
0.695016
0.319163
0.698223
0.699298
0.700332
0.701054
0.311917
0.476226
0.661738
0.300997
0.702216
0.699816
0.492463
0.701181
0.296932
0.702662
0.698536
0.68532
0.701037
0.308569
0.297526
0.70322
0.705791
0.331209
0.331887
0.331457
0.301943
0.311847
0.292893
0.330488
0.350139
0.704368
0.292205
0.31835
0.700717
0.565761
0.559538
0.416466
0.332772
0.697158
0.476489
0.565521
0.699471
0.410722
0.668934
0.58886
0.604842
0.71737
0.310359
0.701202
0.667353
0.318006
0.318711
0.45866
0.695208
0.607065
0.699915
0.691226
0.704637
0.714858
0.359094
0.700736
0.679541
0.701622
0.327576
0.697213
0.679934
0.356071
0.43412
0.281035
0.29265
0.295995
0.608129
0.68506
0.709968
0.317181
0.380049
0.699983
0.292905
0.701121
0.692147
0.699956
0.684873
0.699574
0.334327
0.293392
0.290023
0.601136
0.311042
0.697655
0.28914
0.695686
0.692233
0.698068
0.33903
0.468022
0.447599
0.701024
0.32106
0.315021
0.699757
0.717536
0.666775
0.690932
0.701548
0.698112
0.355481
0.623115
0.699388
0.499279
0.701096
0.700714
0.69857
0.422803
0.408664
0.700558
0.466721
0.648008
0.326944
0.713503
0.701215
0.372021
0.31017
0.716327
0.501558
0.69936
0.701107
0.347563
0.31965
0.562176
0.489506
0.382886
0.700632
0.701506
0.336108
0.700135
0.560838
0.703093
0.357377
0.607376
0.353241
0.700178
0.699653
0.698238
0.709782
0.563857
0.361553
0.34455
0.704653
0.327965
0.5995
0.344758
0.698866
0.2809
0.67035
0.699281
0.564522
0.353195
0.55959
0.559858
0.313218
0.712338
0.290723
0.701035
0.346969
0.320746
0.286898
0.702386
0.698815
0.349929